{
	 "smiles": "CC(=O)C1=CC(=CC=C1)C1=CC=NC=C1", 
	 "Tm": 338.15, 
	 "num_atms": 26, 
	 "gaussian": { 
		 "optdone": 1, 
		 "sigma_profile": "yes", 
		 "theory": "DFT", 
		 "functional": "B3LYP", 
		 "basiset": "6-31G**", 
		 "properties": { 
			 "R2extent": 4471.3998, 
			 "electric_dipole_moment_norm": 0.616104585278, 
			 "electric_quadrupole_moment_norm": 23.5502606389, 
			 "total_energy": -631.992829647, 
			 "HOMO_LUMO_gap": 0.18656, 
			 "cosmo_polarized_energy": -12.12, 
			 "cosmo_cavitation_energy": 30.44, 
			 "cosmo_dispersion_energy": -21.89, 
			 "cosmo_repulsion_energy": 1.68, 
			 "cosmo_total_nonelectrostatic_energy": 10.24, 
			 "SMD_solvation_energy": 4.34 
		},
		"coords": [
			{
				"x": 3.126012732,
				"y": 0.6768948348,
				"z": -3.5995741668,
				"element": "C" 
			},
			{
				"x": 2.4383903284,
				"y": -0.6767668024,
				"z": -3.5492153058,
				"element": "C" 
			},
			{
				"x": 2.5372610977,
				"y": -1.4594867037,
				"z": -4.4815207806,
				"element": "O" 
			},
			{
				"x": 1.6330737375,
				"y": -1.0399800855,
				"z": -2.3341559203,
				"element": "C" 
			},
			{
				"x": 1.4822757904,
				"y": -0.1760775714,
				"z": -1.2426048016,
				"element": "C" 
			},
			{
				"x": 0.7309310427,
				"y": -0.5497885901,
				"z": -0.1175286486,
				"element": "C" 
			},
			{
				"x": 0.1276252494,
				"y": -1.8178780487,
				"z": -0.1093917566,
				"element": "C" 
			},
			{
				"x": 0.2699073445,
				"y": -2.6842508529,
				"z": -1.1944612699,
				"element": "C" 
			},
			{
				"x": 1.0180574768,
				"y": -2.3009600123,
				"z": -2.3027291353,
				"element": "C" 
			},
			{
				"x": 0.580376696,
				"y": 0.3731630204,
				"z": 1.0352700219,
				"element": "C" 
			},
			{
				"x": 0.44189971,
				"y": 1.7581511177,
				"z": 0.8579114422,
				"element": "C" 
			},
			{
				"x": 0.3061987139,
				"y": 2.5809966597,
				"z": 1.974792563,
				"element": "C" 
			},
			{
				"x": 0.2964190341,
				"y": 2.1344002828,
				"z": 3.237157198,
				"element": "N" 
			},
			{
				"x": 0.4271882687,
				"y": 0.812242615,
				"z": 3.4049489492,
				"element": "C" 
			},
			{
				"x": 0.570461488,
				"y": -0.0962189445,
				"z": 2.3575420588,
				"element": "C" 
			},
			{
				"x": 3.6562376702,
				"y": 0.7626162481,
				"z": -4.5482796708,
				"element": "H" 
			},
			{
				"x": 2.3985220481,
				"y": 1.4918158286,
				"z": -3.5153079761,
				"element": "H" 
			},
			{
				"x": 3.8378161876,
				"y": 0.7878517477,
				"z": -2.7740812707,
				"element": "H" 
			},
			{
				"x": 1.9713214464,
				"y": 0.7922569034,
				"z": -1.2454732886,
				"element": "H" 
			},
			{
				"x": -0.4767910522,
				"y": -2.1161161414,
				"z": 0.7420690572,
				"element": "H" 
			},
			{
				"x": -0.2119494764,
				"y": -3.6572741438,
				"z": -1.1730914394,
				"element": "H" 
			},
			{
				"x": 1.1446484025,
				"y": -2.9555544777,
				"z": -3.1582392611,
				"element": "H" 
			},
			{
				"x": 0.4131399742,
				"y": 2.1894912476,
				"z": -0.1378449879,
				"element": "H" 
			},
			{
				"x": 0.192621365,
				"y": 3.6562081022,
				"z": 1.8461536379,
				"element": "H" 
			},
			{
				"x": 0.4240206993,
				"y": 0.4574512881,
				"z": 4.4343097546,
				"element": "H" 
			},
			{
				"x": 0.6981340252,
				"y": -1.1526875216,
				"z": 2.5716449973,
				"element": "H" 
			}
		],
		 "valence_orbital": [ 
			{
				"type": "occ",
				"energy": -0.27074,
				"method": "rhf"
			},
			{
				"type": "occ",
				"energy": -0.26783,
				"method": "rhf"
			},
			{
				"type": "occ",
				"energy": -0.25849,
				"method": "rhf"
			},
			{
				"type": "occ",
				"energy": -0.25385,
				"method": "rhf"
			},
			{
				"type": "occ",
				"energy": -0.25086,
				"method": "rhf"
			},
			{
				"type": "unocc",
				"energy": -0.0643,
				"method": "rhf"
			},
			{
				"type": "unocc",
				"energy": -0.04851,
				"method": "rhf"
			},
			{
				"type": "unocc",
				"energy": -0.01746,
				"method": "rhf"
			},
			{
				"type": "unocc",
				"energy": 0.00174,
				"method": "rhf"
			},
			{
				"type": "unocc",
				"energy": 0.03653,
				"method": "rhf"
			}
		],
		"cosmo_sigma_profile": { 
			"-0.025": 0.0,
			"-0.024": 0.0,
			"-0.023": 0.0,
			"-0.022": 0.0,
			"-0.021": 0.0,
			"-0.02": 0.0,
			"-0.019": 0.0,
			"-0.018": 0.0,
			"-0.017": 0.0,
			"-0.016": 0.0,
			"-0.015": 0.0,
			"-0.014": 0.0,
			"-0.013": 0.0,
			"-0.012": 0.0,
			"-0.011": 0.0,
			"-0.01": 0.0,
			"-0.009": 0.0,
			"-0.008": 0.0299631913725,
			"-0.007": 8.78785437954,
			"-0.006": 23.0179535607,
			"-0.005": 21.3778927083,
			"-0.004": 19.2689751176,
			"-0.003": 16.0074987736,
			"-0.002": 15.4829270863,
			"-0.001": 18.9003789448,
			"0.0": 16.1869978436,
			"0.001": 18.5533449196,
			"0.002": 25.5391065522,
			"0.003": 20.5811629406,
			"0.004": 6.97184299595,
			"0.005": 4.39838711592,
			"0.006": 2.82572049969,
			"0.007": 3.1087770279,
			"0.008": 2.74741060702,
			"0.009": 3.02090705303,
			"0.01": 3.2474691223,
			"0.011": 3.92553540665,
			"0.012": 4.58303755637,
			"0.013": 2.53595715962,
			"0.014": 1.0197175443,
			"0.015": 0.739912043288,
			"0.016": 0.920786576612,
			"0.017": 0.42381386012,
			"0.018": 0.0,
			"0.019": 0.0,
			"0.02": 0.0,
			"0.021": 0.0,
			"0.022": 0.0,
			"0.023": 0.0,
			"0.024": 0.0,
			"0.025": 0.0
		}
	}
}
