{
	 "smiles": "CCCC(O)=O", 
	 "Tm": 266.65, 
	 "num_atms": 14, 
	 "gaussian": { 
		 "optdone": 1, 
		 "sigma_profile": "yes", 
		 "theory": "DFT", 
		 "functional": "B3LYP", 
		 "basiset": "6-31G**", 
		 "properties": { 
			 "R2extent": 733.7351, 
			 "electric_dipole_moment_norm": 4.39204623837, 
			 "electric_quadrupole_moment_norm": 5.09173268348, 
			 "total_energy": -307.708923356, 
			 "HOMO_LUMO_gap": 0.27587, 
			 "cosmo_polarized_energy": -12.71, 
			 "cosmo_cavitation_energy": 17.12, 
			 "cosmo_dispersion_energy": -12.58, 
			 "cosmo_repulsion_energy": 1.11, 
			 "cosmo_total_nonelectrostatic_energy": 5.65, 
			 "SMD_solvation_energy": 4.12 
		},
		"coords": [
			{
				"x": -1.1059224623,
				"y": 1.8565486529,
				"z": -0.8610428789,
				"element": "C" 
			},
			{
				"x": -1.1760759621,
				"y": 1.7334421059,
				"z": 0.6642511239,
				"element": "C" 
			},
			{
				"x": -1.2756720472,
				"y": 0.2778152185,
				"z": 1.1603187709,
				"element": "C" 
			},
			{
				"x": -0.121715301,
				"y": -0.6236726922,
				"z": 0.7349544775,
				"element": "C" 
			},
			{
				"x": 1.1291174799,
				"y": -0.159332292,
				"z": 1.0169882416,
				"element": "O" 
			},
			{
				"x": -0.2560850518,
				"y": -1.6916272558,
				"z": 0.1937695385,
				"element": "O" 
			},
			{
				"x": -1.0747891527,
				"y": 2.9060379323,
				"z": -1.1691725609,
				"element": "H" 
			},
			{
				"x": -1.9794614333,
				"y": 1.3933750881,
				"z": -1.3318175988,
				"element": "H" 
			},
			{
				"x": -0.213680712,
				"y": 1.3639738683,
				"z": -1.2615491795,
				"element": "H" 
			},
			{
				"x": -0.306018339,
				"y": 2.2335650553,
				"z": 1.1153779531,
				"element": "H" 
			},
			{
				"x": -2.0477507151,
				"y": 2.2795483126,
				"z": 1.0427137145,
				"element": "H" 
			},
			{
				"x": -2.1876113391,
				"y": -0.192550406,
				"z": 0.7852770771,
				"element": "H" 
			},
			{
				"x": -1.32960275,
				"y": 0.2628865664,
				"z": 2.2575983112,
				"element": "H" 
			},
			{
				"x": 1.0750677857,
				"y": 0.7014898458,
				"z": 1.4556330097,
				"element": "H" 
			}
		],
		 "valence_orbital": [ 
			{
				"type": "occ",
				"energy": -0.36692,
				"method": "rhf"
			},
			{
				"type": "occ",
				"energy": -0.35844,
				"method": "rhf"
			},
			{
				"type": "occ",
				"energy": -0.35384,
				"method": "rhf"
			},
			{
				"type": "occ",
				"energy": -0.31235,
				"method": "rhf"
			},
			{
				"type": "occ",
				"energy": -0.26535,
				"method": "rhf"
			},
			{
				"type": "unocc",
				"energy": 0.01052,
				"method": "rhf"
			},
			{
				"type": "unocc",
				"energy": 0.04328,
				"method": "rhf"
			},
			{
				"type": "unocc",
				"energy": 0.10642,
				"method": "rhf"
			},
			{
				"type": "unocc",
				"energy": 0.12787,
				"method": "rhf"
			},
			{
				"type": "unocc",
				"energy": 0.13044,
				"method": "rhf"
			}
		],
		"cosmo_sigma_profile": { 
			"-0.025": 0.0,
			"-0.024": 0.0,
			"-0.023": 0.0,
			"-0.022": 0.0,
			"-0.021": 0.0,
			"-0.02": 0.0,
			"-0.019": 0.0,
			"-0.018": 0.308887744695,
			"-0.017": 1.1926908085,
			"-0.016": 0.95362588558,
			"-0.015": 0.979558213337,
			"-0.014": 0.797184707142,
			"-0.013": 1.04091744355,
			"-0.012": 1.15972200845,
			"-0.011": 1.20576031873,
			"-0.01": 0.939034484642,
			"-0.009": 1.13467255561,
			"-0.008": 1.49250070434,
			"-0.007": 2.94808053883,
			"-0.006": 3.89603753922,
			"-0.005": 4.71396025492,
			"-0.004": 8.4619579598,
			"-0.003": 16.1612169326,
			"-0.002": 16.9834842863,
			"-0.001": 13.0730719562,
			"0.0": 11.6032256553,
			"0.001": 7.23124002478,
			"0.002": 2.389385772,
			"0.003": 2.38312899954,
			"0.004": 1.00458099172,
			"0.005": 1.45436128438,
			"0.006": 2.85207283751,
			"0.007": 2.31332728621,
			"0.008": 2.38316360056,
			"0.009": 2.41259265913,
			"0.01": 4.12458139055,
			"0.011": 5.9741055232,
			"0.012": 6.21580348233,
			"0.013": 3.35359098646,
			"0.014": 0.256207823784,
			"0.015": 0.0,
			"0.016": 0.0,
			"0.017": 0.0,
			"0.018": 0.0,
			"0.019": 0.0,
			"0.02": 0.0,
			"0.021": 0.0,
			"0.022": 0.0,
			"0.023": 0.0,
			"0.024": 0.0,
			"0.025": 0.0
		}
	}
}
