{
	 "smiles": "O=C1OC(=O)C2C3CC(C=C3)C12", 
	 "Tm": 438.15, 
	 "num_atms": 20, 
	 "gaussian": { 
		 "optdone": 1, 
		 "sigma_profile": "yes", 
		 "theory": "DFT", 
		 "functional": "B3LYP", 
		 "basiset": "6-31G**", 
		 "properties": { 
			 "R2extent": 1834.3588, 
			 "electric_dipole_moment_norm": 4.80832932628, 
			 "electric_quadrupole_moment_norm": 14.2661276316, 
			 "total_energy": -573.426525028, 
			 "HOMO_LUMO_gap": 0.23637, 
			 "cosmo_polarized_energy": -12.22, 
			 "cosmo_cavitation_energy": 22.64, 
			 "cosmo_dispersion_energy": -17.06, 
			 "cosmo_repulsion_energy": 1.36, 
			 "cosmo_total_nonelectrostatic_energy": 6.94, 
			 "SMD_solvation_energy": 5.04 
		},
		"coords": [
			{
				"x": 0.8361602895,
				"y": 3.1397085471,
				"z": -0.4098952405,
				"element": "O" 
			},
			{
				"x": 0.1562355995,
				"y": 2.2361448851,
				"z": -0.8049961193,
				"element": "C" 
			},
			{
				"x": 0.159843304,
				"y": 1.8584633565,
				"z": -2.1453082044,
				"element": "O" 
			},
			{
				"x": -0.6974441345,
				"y": 0.787245028,
				"z": -2.3832997368,
				"element": "C" 
			},
			{
				"x": -0.8243023515,
				"y": 0.3217069578,
				"z": -3.4796619111,
				"element": "O" 
			},
			{
				"x": -1.3643501451,
				"y": 0.3742385733,
				"z": -1.085160202,
				"element": "C" 
			},
			{
				"x": -0.9401620415,
				"y": -1.0462769323,
				"z": -0.5382541044,
				"element": "C" 
			},
			{
				"x": -1.1253380958,
				"y": -0.7871283082,
				"z": 0.9784156838,
				"element": "C" 
			},
			{
				"x": -0.1017351827,
				"y": 0.3760113631,
				"z": 1.0111690008,
				"element": "C" 
			},
			{
				"x": 1.0752771878,
				"y": -0.2806348143,
				"z": 0.3024527195,
				"element": "C" 
			},
			{
				"x": 0.5787238568,
				"y": -1.1229723429,
				"z": -0.615179114,
				"element": "C" 
			},
			{
				"x": -0.7933683969,
				"y": 1.3430249635,
				"z": -0.0297267302,
				"element": "C" 
			},
			{
				"x": -2.4494090831,
				"y": 0.4294549215,
				"z": -1.2077431494,
				"element": "H" 
			},
			{
				"x": -1.4947622729,
				"y": -1.8691194099,
				"z": -0.9893807835,
				"element": "H" 
			},
			{
				"x": -2.1428866742,
				"y": -0.487132795,
				"z": 1.2536420359,
				"element": "H" 
			},
			{
				"x": -0.8137306099,
				"y": -1.6374906596,
				"z": 1.5903671077,
				"element": "H" 
			},
			{
				"x": 0.107170087,
				"y": 0.8483868589,
				"z": 1.9710587607,
				"element": "H" 
			},
			{
				"x": 2.1145466688,
				"y": -0.0158249634,
				"z": 0.4599390395,
				"element": "H" 
			},
			{
				"x": 1.1299814383,
				"y": -1.6860241685,
				"z": -1.3595554003,
				"element": "H" 
			},
			{
				"x": -1.5445494437,
				"y": 1.9646189394,
				"z": 0.4650163481,
				"element": "H" 
			}
		],
		 "valence_orbital": [ 
			{
				"type": "occ",
				"energy": -0.33872,
				"method": "rhf"
			},
			{
				"type": "occ",
				"energy": -0.32729,
				"method": "rhf"
			},
			{
				"type": "occ",
				"energy": -0.29986,
				"method": "rhf"
			},
			{
				"type": "occ",
				"energy": -0.27722,
				"method": "rhf"
			},
			{
				"type": "occ",
				"energy": -0.2662,
				"method": "rhf"
			},
			{
				"type": "unocc",
				"energy": -0.02983,
				"method": "rhf"
			},
			{
				"type": "unocc",
				"energy": -0.00824,
				"method": "rhf"
			},
			{
				"type": "unocc",
				"energy": -0.00543,
				"method": "rhf"
			},
			{
				"type": "unocc",
				"energy": 0.07272,
				"method": "rhf"
			},
			{
				"type": "unocc",
				"energy": 0.11347,
				"method": "rhf"
			}
		],
		"cosmo_sigma_profile": { 
			"-0.025": 0.0,
			"-0.024": 0.0,
			"-0.023": 0.0,
			"-0.022": 0.0,
			"-0.021": 0.0,
			"-0.02": 0.0,
			"-0.019": 0.0,
			"-0.018": 0.0,
			"-0.017": 0.0,
			"-0.016": 0.0,
			"-0.015": 0.0,
			"-0.014": 0.0,
			"-0.013": 0.0,
			"-0.012": 0.0,
			"-0.011": 0.0395739401323,
			"-0.01": 0.845442874288,
			"-0.009": 1.41532929395,
			"-0.008": 6.99687611162,
			"-0.007": 9.24086160276,
			"-0.006": 11.3211845182,
			"-0.005": 14.2855996199,
			"-0.004": 15.5916274002,
			"-0.003": 13.9419578232,
			"-0.002": 14.0393555275,
			"-0.001": 15.3019498464,
			"0.0": 10.133852399,
			"0.001": 6.55340919654,
			"0.002": 4.61342257611,
			"0.003": 5.01422349563,
			"0.004": 4.95537354696,
			"0.005": 4.93908636596,
			"0.006": 4.35139887507,
			"0.007": 6.13578608942,
			"0.008": 6.44437705719,
			"0.009": 6.0109484432,
			"0.01": 10.9559334228,
			"0.011": 6.03606011143,
			"0.012": 0.214752019517,
			"0.013": 0.0,
			"0.014": 0.0,
			"0.015": 0.0,
			"0.016": 0.0,
			"0.017": 0.0,
			"0.018": 0.0,
			"0.019": 0.0,
			"0.02": 0.0,
			"0.021": 0.0,
			"0.022": 0.0,
			"0.023": 0.0,
			"0.024": 0.0,
			"0.025": 0.0
		}
	}
}
