{
	 "smiles": "CC1=C(CO)SC(=N1)C1=CC=CC=C1", 
	 "Tm": 373.15, 
	 "num_atms": 25, 
	 "gaussian": { 
		 "optdone": 1, 
		 "sigma_profile": "yes", 
		 "theory": "DFT", 
		 "functional": "B3LYP", 
		 "basiset": "6-31G**", 
		 "properties": { 
			 "R2extent": 4551.5459, 
			 "electric_dipole_moment_norm": 1.42685832864, 
			 "electric_quadrupole_moment_norm": 4.80373603251, 
			 "total_energy": -953.95828654, 
			 "HOMO_LUMO_gap": 0.16297, 
			 "cosmo_polarized_energy": -9.56, 
			 "cosmo_cavitation_energy": 30.22, 
			 "cosmo_dispersion_energy": -22.67, 
			 "cosmo_repulsion_energy": 1.75, 
			 "cosmo_total_nonelectrostatic_energy": 9.3, 
			 "SMD_solvation_energy": 3.63 
		},
		"coords": [
			{
				"x": -0.0429167394,
				"y": -2.4020538011,
				"z": -0.3633522008,
				"element": "C" 
			},
			{
				"x": 0.6515309149,
				"y": -1.0707581801,
				"z": -0.4085633109,
				"element": "C" 
			},
			{
				"x": 1.9743769684,
				"y": -0.8648694547,
				"z": -0.7281003562,
				"element": "C" 
			},
			{
				"x": 3.0323759073,
				"y": -1.8776563099,
				"z": -1.0849744221,
				"element": "C" 
			},
			{
				"x": 3.1587353961,
				"y": -2.9265534238,
				"z": -0.1293378933,
				"element": "O" 
			},
			{
				"x": 2.329090639,
				"y": 0.8431451478,
				"z": -0.6570677935,
				"element": "S" 
			},
			{
				"x": 0.6520109579,
				"y": 1.1525990769,
				"z": -0.2072220855,
				"element": "C" 
			},
			{
				"x": -0.0685290921,
				"y": 0.0646156954,
				"z": -0.1209024716,
				"element": "N" 
			},
			{
				"x": 0.1324568761,
				"y": 2.5042047328,
				"z": 0.0414867342,
				"element": "C" 
			},
			{
				"x": 0.9375359828,
				"y": 3.6488668723,
				"z": -0.0759473101,
				"element": "C" 
			},
			{
				"x": 0.4088521681,
				"y": 4.914307881,
				"z": 0.1691357141,
				"element": "C" 
			},
			{
				"x": -0.9312070661,
				"y": 5.0572389929,
				"z": 0.5349236587,
				"element": "C" 
			},
			{
				"x": -1.7397731171,
				"y": 3.9234354128,
				"z": 0.6537310859,
				"element": "C" 
			},
			{
				"x": -1.216313304,
				"y": 2.6571443574,
				"z": 0.4101149258,
				"element": "C" 
			},
			{
				"x": -0.7274341836,
				"y": -2.5105615465,
				"z": -1.2128993921,
				"element": "H" 
			},
			{
				"x": -0.6461213343,
				"y": -2.4785469597,
				"z": 0.5465555138,
				"element": "H" 
			},
			{
				"x": 0.6777835098,
				"y": -3.2206534262,
				"z": -0.3788767031,
				"element": "H" 
			},
			{
				"x": 2.7769606244,
				"y": -2.3784280892,
				"z": -2.0253773176,
				"element": "H" 
			},
			{
				"x": 3.9938136209,
				"y": -1.3682156503,
				"z": -1.2475374832,
				"element": "H" 
			},
			{
				"x": 3.2641931681,
				"y": -2.5154360733,
				"z": 0.7392772343,
				"element": "H" 
			},
			{
				"x": 1.9818042096,
				"y": 3.5542242564,
				"z": -0.3613639603,
				"element": "H" 
			},
			{
				"x": 1.0446381577,
				"y": 5.7896296042,
				"z": 0.0736582129,
				"element": "H" 
			},
			{
				"x": -1.34215505,
				"y": 6.0443217449,
				"z": 0.7256128996,
				"element": "H" 
			},
			{
				"x": -2.7831378531,
				"y": 4.0270432703,
				"z": 0.9376669937,
				"element": "H" 
			},
			{
				"x": -1.8323713615,
				"y": 1.7693558694,
				"z": 0.4988597276,
				"element": "H" 
			}
		],
		 "valence_orbital": [ 
			{
				"type": "occ",
				"energy": -0.28122,
				"method": "rhf"
			},
			{
				"type": "occ",
				"energy": -0.27046,
				"method": "rhf"
			},
			{
				"type": "occ",
				"energy": -0.26605,
				"method": "rhf"
			},
			{
				"type": "occ",
				"energy": -0.25496,
				"method": "rhf"
			},
			{
				"type": "occ",
				"energy": -0.21563,
				"method": "rhf"
			},
			{
				"type": "unocc",
				"energy": -0.05266,
				"method": "rhf"
			},
			{
				"type": "unocc",
				"energy": -0.00537,
				"method": "rhf"
			},
			{
				"type": "unocc",
				"energy": 0.0135,
				"method": "rhf"
			},
			{
				"type": "unocc",
				"energy": 0.01764,
				"method": "rhf"
			},
			{
				"type": "unocc",
				"energy": 0.05742,
				"method": "rhf"
			}
		],
		"cosmo_sigma_profile": { 
			"-0.025": 0.0,
			"-0.024": 0.0,
			"-0.023": 0.0,
			"-0.022": 0.0,
			"-0.021": 0.0,
			"-0.02": 0.0,
			"-0.019": 0.0,
			"-0.018": 0.0,
			"-0.017": 0.0,
			"-0.016": 0.249828146223,
			"-0.015": 1.04656534976,
			"-0.014": 0.789357398811,
			"-0.013": 0.844847659611,
			"-0.012": 0.966016029633,
			"-0.011": 0.685720498283,
			"-0.01": 0.756347997231,
			"-0.009": 0.817855722379,
			"-0.008": 0.937799530812,
			"-0.007": 1.7682580925,
			"-0.006": 11.5543702069,
			"-0.005": 17.5010227953,
			"-0.004": 20.5974435184,
			"-0.003": 17.6855969863,
			"-0.002": 16.7283487356,
			"-0.001": 19.1670903341,
			"0.0": 20.2657087194,
			"0.001": 21.0881190518,
			"0.002": 20.4409312087,
			"0.003": 19.952901827,
			"0.004": 15.755413458,
			"0.005": 13.0986774976,
			"0.006": 3.90315112165,
			"0.007": 2.22945892945,
			"0.008": 2.56561736964,
			"0.009": 2.69462009058,
			"0.01": 1.80185385784,
			"0.011": 2.21608313848,
			"0.012": 2.15874059878,
			"0.013": 1.64617823465,
			"0.014": 1.05269065772,
			"0.015": 0.0,
			"0.016": 0.0,
			"0.017": 0.0,
			"0.018": 0.0,
			"0.019": 0.0,
			"0.02": 0.0,
			"0.021": 0.0,
			"0.022": 0.0,
			"0.023": 0.0,
			"0.024": 0.0,
			"0.025": 0.0
		}
	}
}
