{
	 "smiles": "OC(=O)C1=C(F)C=C(C=C1)C1=CC=C(Cl)C=C1", 
	 "Tm": 525.15, 
	 "num_atms": 25, 
	 "gaussian": { 
		 "optdone": 1, 
		 "sigma_profile": "yes", 
		 "theory": "DFT", 
		 "functional": "B3LYP", 
		 "basiset": "6-31G**", 
		 "properties": { 
			 "R2extent": 7557.681, 
			 "electric_dipole_moment_norm": 4.57004096043, 
			 "electric_quadrupole_moment_norm": 28.1350805138, 
			 "total_energy": -1210.69060539, 
			 "HOMO_LUMO_gap": 0.17621, 
			 "cosmo_polarized_energy": -17.1, 
			 "cosmo_cavitation_energy": 32.7, 
			 "cosmo_dispersion_energy": -23.81, 
			 "cosmo_repulsion_energy": 1.8, 
			 "cosmo_total_nonelectrostatic_energy": 10.7, 
			 "SMD_solvation_energy": 6.63 
		},
		"coords": [
			{
				"x": 4.4585910723,
				"y": 1.7507033221,
				"z": 1.5404681431,
				"element": "O" 
			},
			{
				"x": 3.2277976274,
				"y": 2.015860999,
				"z": 2.0647570778,
				"element": "C" 
			},
			{
				"x": 3.1253594872,
				"y": 2.4842554299,
				"z": 3.1700382624,
				"element": "O" 
			},
			{
				"x": 2.0683163273,
				"y": 1.6509916498,
				"z": 1.1876988687,
				"element": "C" 
			},
			{
				"x": 0.8810923455,
				"y": 2.3949432128,
				"z": 1.2094834224,
				"element": "C" 
			},
			{
				"x": 0.7940636051,
				"y": 3.490189448,
				"z": 1.9752707156,
				"element": "F" 
			},
			{
				"x": -0.2210287358,
				"y": 2.0506378742,
				"z": 0.4393290573,
				"element": "C" 
			},
			{
				"x": -0.1833376394,
				"y": 0.9154702286,
				"z": -0.3850730516,
				"element": "C" 
			},
			{
				"x": 0.9966204785,
				"y": 0.1507682707,
				"z": -0.4097705971,
				"element": "C" 
			},
			{
				"x": 2.0956575823,
				"y": 0.5178327127,
				"z": 0.3585358674,
				"element": "C" 
			},
			{
				"x": -1.3589130228,
				"y": 0.5374489602,
				"z": -1.2070638429,
				"element": "C" 
			},
			{
				"x": -1.6968695018,
				"y": -0.8117757241,
				"z": -1.4051490202,
				"element": "C" 
			},
			{
				"x": -2.7983088068,
				"y": -1.1758242841,
				"z": -2.1760669753,
				"element": "C" 
			},
			{
				"x": -3.577806401,
				"y": -0.1795266586,
				"z": -2.7633142693,
				"element": "C" 
			},
			{
				"x": -4.9664079326,
				"y": -0.6283820339,
				"z": -3.7379719761,
				"element": "Cl" 
			},
			{
				"x": -3.2684451658,
				"y": 1.1687885948,
				"z": -2.5858480158,
				"element": "C" 
			},
			{
				"x": -2.1650840933,
				"y": 1.5171028195,
				"z": -1.8104696262,
				"element": "C" 
			},
			{
				"x": 4.3790669977,
				"y": 1.5411158012,
				"z": 0.5992623376,
				"element": "H" 
			},
			{
				"x": -1.1121719052,
				"y": 2.6634737521,
				"z": 0.5158962483,
				"element": "H" 
			},
			{
				"x": 1.0597266667,
				"y": -0.7221847811,
				"z": -1.0505849967,
				"element": "H" 
			},
			{
				"x": 2.9867088271,
				"y": -0.1040014801,
				"z": 0.3381143178,
				"element": "H" 
			},
			{
				"x": -1.1093953563,
				"y": -1.5895676571,
				"z": -0.9273315513,
				"element": "H" 
			},
			{
				"x": -3.0565654323,
				"y": -2.2199758792,
				"z": -2.3130678112,
				"element": "H" 
			},
			{
				"x": -3.8777592161,
				"y": 1.9330389985,
				"z": -3.0552728259,
				"element": "H" 
			},
			{
				"x": -1.9133078079,
				"y": 2.5669164243,
				"z": -1.6961697588,
				"element": "H" 
			}
		],
		 "valence_orbital": [ 
			{
				"type": "occ",
				"energy": -0.29371,
				"method": "rhf"
			},
			{
				"type": "occ",
				"energy": -0.27906,
				"method": "rhf"
			},
			{
				"type": "occ",
				"energy": -0.27606,
				"method": "rhf"
			},
			{
				"type": "occ",
				"energy": -0.26979,
				"method": "rhf"
			},
			{
				"type": "occ",
				"energy": -0.24555,
				"method": "rhf"
			},
			{
				"type": "unocc",
				"energy": -0.06934,
				"method": "rhf"
			},
			{
				"type": "unocc",
				"energy": -0.03205,
				"method": "rhf"
			},
			{
				"type": "unocc",
				"energy": -0.02734,
				"method": "rhf"
			},
			{
				"type": "unocc",
				"energy": -0.01483,
				"method": "rhf"
			},
			{
				"type": "unocc",
				"energy": 0.02011,
				"method": "rhf"
			}
		],
		"cosmo_sigma_profile": { 
			"-0.025": 0.0,
			"-0.024": 0.0,
			"-0.023": 0.0,
			"-0.022": 0.0,
			"-0.021": 0.0,
			"-0.02": 0.0,
			"-0.019": 0.231497129026,
			"-0.018": 0.932284462206,
			"-0.017": 1.13994009742,
			"-0.016": 0.452945007559,
			"-0.015": 1.20920110829,
			"-0.014": 0.734396286685,
			"-0.013": 1.0199876107,
			"-0.012": 1.72524895761,
			"-0.011": 0.897438357632,
			"-0.01": 0.868444320719,
			"-0.009": 1.66451557206,
			"-0.008": 4.23536149138,
			"-0.007": 14.3998027171,
			"-0.006": 15.3958726798,
			"-0.005": 13.6531762476,
			"-0.004": 10.6375202836,
			"-0.003": 11.9861962576,
			"-0.002": 12.3791878138,
			"-0.001": 16.3657356268,
			"0.0": 20.5880134251,
			"0.001": 27.2316600159,
			"0.002": 26.180067107,
			"0.003": 26.4313164784,
			"0.004": 17.4936026185,
			"0.005": 8.18303421637,
			"0.006": 3.19016462338,
			"0.007": 2.16828176078,
			"0.008": 3.4562107724,
			"0.009": 4.19031444412,
			"0.01": 5.35482832768,
			"0.011": 6.29454698086,
			"0.012": 4.25087300957,
			"0.013": 0.852260516403,
			"0.014": 0.0,
			"0.015": 0.0,
			"0.016": 0.0,
			"0.017": 0.0,
			"0.018": 0.0,
			"0.019": 0.0,
			"0.02": 0.0,
			"0.021": 0.0,
			"0.022": 0.0,
			"0.023": 0.0,
			"0.024": 0.0,
			"0.025": 0.0
		}
	}
}
