{
	 "smiles": "CCC1=NN=C2C=CC(Cl)=NN12", 
	 "Tm": 374.15, 
	 "num_atms": 19, 
	 "gaussian": { 
		 "optdone": 1, 
		 "sigma_profile": "yes", 
		 "theory": "DFT", 
		 "functional": "B3LYP", 
		 "basiset": "6-31G**", 
		 "properties": { 
			 "R2extent": 2985.881, 
			 "electric_dipole_moment_norm": 2.87075969214, 
			 "electric_quadrupole_moment_norm": 21.5682538883, 
			 "total_energy": -950.110304002, 
			 "HOMO_LUMO_gap": 0.1634, 
			 "cosmo_polarized_energy": -12.84, 
			 "cosmo_cavitation_energy": 25.34, 
			 "cosmo_dispersion_energy": -19.04, 
			 "cosmo_repulsion_energy": 1.53, 
			 "cosmo_total_nonelectrostatic_energy": 7.83, 
			 "SMD_solvation_energy": 1.35 
		},
		"coords": [
			{
				"x": 3.5609591672,
				"y": 0.6961965044,
				"z": -2.6773506595,
				"element": "C" 
			},
			{
				"x": 2.336738655,
				"y": 0.2227983087,
				"z": -1.8887617602,
				"element": "C" 
			},
			{
				"x": 2.2693493491,
				"y": 0.8108900717,
				"z": -0.5173096915,
				"element": "C" 
			},
			{
				"x": 3.1212327749,
				"y": 1.6541673401,
				"z": 0.0447381857,
				"element": "N" 
			},
			{
				"x": 2.7052925733,
				"y": 1.9562709472,
				"z": 1.3143093066,
				"element": "N" 
			},
			{
				"x": 1.5852113017,
				"y": 1.2848822804,
				"z": 1.5206470229,
				"element": "C" 
			},
			{
				"x": 0.6972062746,
				"y": 1.1846911547,
				"z": 2.6187908561,
				"element": "C" 
			},
			{
				"x": -0.3966686117,
				"y": 0.3741827347,
				"z": 2.4857246826,
				"element": "C" 
			},
			{
				"x": -0.5843382284,
				"y": -0.3266442889,
				"z": 1.2481721486,
				"element": "C" 
			},
			{
				"x": -1.9857546456,
				"y": -1.3585002489,
				"z": 1.091102258,
				"element": "Cl" 
			},
			{
				"x": 0.1992860229,
				"y": -0.2699947559,
				"z": 0.2102412279,
				"element": "N" 
			},
			{
				"x": 1.2695724288,
				"y": 0.5414962803,
				"z": 0.380335092,
				"element": "N" 
			},
			{
				"x": 3.5576538886,
				"y": 1.782793272,
				"z": -2.793305531,
				"element": "H" 
			},
			{
				"x": 3.5650098881,
				"y": 0.2396053688,
				"z": -3.6708833327,
				"element": "H" 
			},
			{
				"x": 4.4873601373,
				"y": 0.4245829837,
				"z": -2.1653362862,
				"element": "H" 
			},
			{
				"x": 1.4111562653,
				"y": 0.474129463,
				"z": -2.4233138097,
				"element": "H" 
			},
			{
				"x": 2.3324912251,
				"y": -0.8716816063,
				"z": -1.8009391775,
				"element": "H" 
			},
			{
				"x": 0.9041990947,
				"y": 1.7447134172,
				"z": 3.5233961753,
				"element": "H" 
			},
			{
				"x": -1.1200575608,
				"y": 0.2465207729,
				"z": 3.2807432925,
				"element": "H" 
			}
		],
		 "valence_orbital": [ 
			{
				"type": "occ",
				"energy": -0.33935,
				"method": "rhf"
			},
			{
				"type": "occ",
				"energy": -0.31606,
				"method": "rhf"
			},
			{
				"type": "occ",
				"energy": -0.2832,
				"method": "rhf"
			},
			{
				"type": "occ",
				"energy": -0.25924,
				"method": "rhf"
			},
			{
				"type": "occ",
				"energy": -0.24703,
				"method": "rhf"
			},
			{
				"type": "unocc",
				"energy": -0.08363,
				"method": "rhf"
			},
			{
				"type": "unocc",
				"energy": -0.02495,
				"method": "rhf"
			},
			{
				"type": "unocc",
				"energy": 0.00775,
				"method": "rhf"
			},
			{
				"type": "unocc",
				"energy": 0.03786,
				"method": "rhf"
			},
			{
				"type": "unocc",
				"energy": 0.09321,
				"method": "rhf"
			}
		],
		"cosmo_sigma_profile": { 
			"-0.025": 0.0,
			"-0.024": 0.0,
			"-0.023": 0.0,
			"-0.022": 0.0,
			"-0.021": 0.0,
			"-0.02": 0.0,
			"-0.019": 0.0,
			"-0.018": 0.0,
			"-0.017": 0.0,
			"-0.016": 0.0,
			"-0.015": 0.0,
			"-0.014": 0.0,
			"-0.013": 0.0,
			"-0.012": 0.0,
			"-0.011": 0.100265678616,
			"-0.01": 2.67437119559,
			"-0.009": 4.2199815789,
			"-0.008": 4.52608149662,
			"-0.007": 3.6744277211,
			"-0.006": 6.28697565202,
			"-0.005": 11.1047274318,
			"-0.004": 18.2265574643,
			"-0.003": 22.7533689519,
			"-0.002": 24.2840586549,
			"-0.001": 17.908734365,
			"0.0": 15.870307375,
			"0.001": 12.1867676944,
			"0.002": 10.9107071882,
			"0.003": 11.1153810812,
			"0.004": 6.0267035998,
			"0.005": 4.01325112795,
			"0.006": 3.43456381735,
			"0.007": 2.57573186623,
			"0.008": 2.91087452024,
			"0.009": 3.06776951623,
			"0.01": 2.62073227947,
			"0.011": 2.28539371004,
			"0.012": 2.77378681927,
			"0.013": 3.38566952368,
			"0.014": 2.61407168993,
			"0.015": 2.43957066361,
			"0.016": 1.3155797106,
			"0.017": 0.201942602135,
			"0.018": 0.0,
			"0.019": 0.0,
			"0.02": 0.0,
			"0.021": 0.0,
			"0.022": 0.0,
			"0.023": 0.0,
			"0.024": 0.0,
			"0.025": 0.0
		}
	}
}
