{
	 "smiles": "OC1COC(OC2=CC=C3C=C(Br)C=CC3=C2)C(O)C1O", 
	 "Tm": 466.15, 
	 "num_atms": 36, 
	 "gaussian": { 
		 "optdone": 1, 
		 "sigma_profile": "yes", 
		 "theory": "DFT", 
		 "functional": "B3LYP", 
		 "basiset": "6-31G**", 
		 "properties": { 
			 "R2extent": 12917.2573, 
			 "electric_dipole_moment_norm": 2.85201852028, 
			 "electric_quadrupole_moment_norm": 15.8241127075, 
			 "total_energy": -3528.13419453, 
			 "HOMO_LUMO_gap": 0.17106, 
			 "cosmo_polarized_energy": -16.71, 
			 "cosmo_cavitation_energy": 40.54, 
			 "cosmo_dispersion_energy": -29.43, 
			 "cosmo_repulsion_energy": 2.24, 
			 "cosmo_total_nonelectrostatic_energy": 13.34, 
			 "SMD_solvation_energy": 4.9 
		},
		"coords": [
			{
				"x": -1.6687931542,
				"y": -1.9876663229,
				"z": 1.8843359473,
				"element": "O" 
			},
			{
				"x": -1.2904956271,
				"y": -1.3986393156,
				"z": 3.1305121838,
				"element": "C" 
			},
			{
				"x": 0.0317238688,
				"y": -1.9691587128,
				"z": 3.638521102,
				"element": "C" 
			},
			{
				"x": 1.0850676519,
				"y": -1.6286495038,
				"z": 2.7365414692,
				"element": "O" 
			},
			{
				"x": 1.3306864875,
				"y": -0.2190725302,
				"z": 2.6889666583,
				"element": "C" 
			},
			{
				"x": 2.5077874227,
				"y": 0.0103918903,
				"z": 1.9700671252,
				"element": "O" 
			},
			{
				"x": 2.5190183031,
				"y": -0.2367024983,
				"z": 0.6033842588,
				"element": "C" 
			},
			{
				"x": 2.7614903863,
				"y": -1.5537275503,
				"z": 0.1373626133,
				"element": "C" 
			},
			{
				"x": 2.8616337086,
				"y": -1.7915278398,
				"z": -1.2139951019,
				"element": "C" 
			},
			{
				"x": 2.7299710165,
				"y": -0.733884592,
				"z": -2.1550850825,
				"element": "C" 
			},
			{
				"x": 2.8313953933,
				"y": -0.9565996768,
				"z": -3.5546111727,
				"element": "C" 
			},
			{
				"x": 2.6978359421,
				"y": 0.0968667102,
				"z": -4.4265284669,
				"element": "C" 
			},
			{
				"x": 2.8329161767,
				"y": -0.2043192671,
				"z": -6.3106084079,
				"element": "Br" 
			},
			{
				"x": 2.4603393902,
				"y": 1.4138735078,
				"z": -3.9676073235,
				"element": "C" 
			},
			{
				"x": 2.3601558053,
				"y": 1.6491942986,
				"z": -2.6156785195,
				"element": "C" 
			},
			{
				"x": 2.4900057413,
				"y": 0.5941915614,
				"z": -1.6720906612,
				"element": "C" 
			},
			{
				"x": 2.3874694608,
				"y": 0.8159044684,
				"z": -0.2739742245,
				"element": "C" 
			},
			{
				"x": 0.0874785581,
				"y": 0.4712547527,
				"z": 2.1188847614,
				"element": "C" 
			},
			{
				"x": 0.2921658181,
				"y": 1.8699174966,
				"z": 2.0957359073,
				"element": "O" 
			},
			{
				"x": -1.1535158915,
				"y": 0.1205717499,
				"z": 2.9578379498,
				"element": "C" 
			},
			{
				"x": -2.307793597,
				"y": 0.688789335,
				"z": 2.357518,
				"element": "O" 
			},
			{
				"x": -0.8529157995,
				"y": -2.1114210925,
				"z": 1.3756123392,
				"element": "H" 
			},
			{
				"x": -2.101450405,
				"y": -1.6203891972,
				"z": 3.8328394281,
				"element": "H" 
			},
			{
				"x": 0.2500786057,
				"y": -1.5927414011,
				"z": 4.6503812778,
				"element": "H" 
			},
			{
				"x": -0.0043551619,
				"y": -3.0608881741,
				"z": 3.6722380469,
				"element": "H" 
			},
			{
				"x": 1.5425301651,
				"y": 0.1569430914,
				"z": 3.7002168459,
				"element": "H" 
			},
			{
				"x": 2.8702128937,
				"y": -2.3492867969,
				"z": 0.8652554845,
				"element": "H" 
			},
			{
				"x": 3.0505209274,
				"y": -2.7977286323,
				"z": -1.5784051405,
				"element": "H" 
			},
			{
				"x": 3.0142459851,
				"y": -1.9596418571,
				"z": -3.9251124492,
				"element": "H" 
			},
			{
				"x": 2.3609737307,
				"y": 2.2219552772,
				"z": -4.6831345319,
				"element": "H" 
			},
			{
				"x": 2.1794720566,
				"y": 2.6578928274,
				"z": -2.254435364,
				"element": "H" 
			},
			{
				"x": 2.1894370486,
				"y": 1.8079969844,
				"z": 0.1180490049,
				"element": "H" 
			},
			{
				"x": -0.0662291039,
				"y": 0.083018422,
				"z": 1.0990142955,
				"element": "H" 
			},
			{
				"x": -0.5793676429,
				"y": 2.2555184523,
				"z": 1.9179826862,
				"element": "H" 
			},
			{
				"x": -1.0473133864,
				"y": 0.5961511765,
				"z": 3.9414210984,
				"element": "H" 
			},
			{
				"x": -2.5713827747,
				"y": 0.0567129588,
				"z": 1.6681879625,
				"element": "H" 
			}
		],
		 "valence_orbital": [ 
			{
				"type": "occ",
				"energy": -0.28452,
				"method": "rhf"
			},
			{
				"type": "occ",
				"energy": -0.27385,
				"method": "rhf"
			},
			{
				"type": "occ",
				"energy": -0.26507,
				"method": "rhf"
			},
			{
				"type": "occ",
				"energy": -0.24306,
				"method": "rhf"
			},
			{
				"type": "occ",
				"energy": -0.21962,
				"method": "rhf"
			},
			{
				"type": "unocc",
				"energy": -0.04856,
				"method": "rhf"
			},
			{
				"type": "unocc",
				"energy": -0.01859,
				"method": "rhf"
			},
			{
				"type": "unocc",
				"energy": 0.00805,
				"method": "rhf"
			},
			{
				"type": "unocc",
				"energy": 0.02083,
				"method": "rhf"
			},
			{
				"type": "unocc",
				"energy": 0.06224,
				"method": "rhf"
			}
		],
		"cosmo_sigma_profile": { 
			"-0.025": 0.0,
			"-0.024": 0.0,
			"-0.023": 0.0,
			"-0.022": 0.0,
			"-0.021": 0.0,
			"-0.02": 0.0,
			"-0.019": 0.0,
			"-0.018": 0.0,
			"-0.017": 0.0,
			"-0.016": 0.0,
			"-0.015": 0.0,
			"-0.014": 0.0500978189269,
			"-0.013": 0.866188953972,
			"-0.012": 2.21108128921,
			"-0.011": 1.49466397206,
			"-0.01": 1.79532342165,
			"-0.009": 3.06625562261,
			"-0.008": 4.73817241363,
			"-0.007": 16.0173521789,
			"-0.006": 26.4492808083,
			"-0.005": 21.1250807505,
			"-0.004": 21.7974054718,
			"-0.003": 16.0860942111,
			"-0.002": 16.1094468512,
			"-0.001": 15.5332170841,
			"0.0": 17.4835786691,
			"0.001": 18.1162649073,
			"0.002": 29.9715333293,
			"0.003": 38.6269140146,
			"0.004": 20.335042225,
			"0.005": 13.1701666252,
			"0.006": 5.69176746644,
			"0.007": 5.17589778104,
			"0.008": 5.33526480564,
			"0.009": 5.78656029336,
			"0.01": 5.53321188572,
			"0.011": 3.33621464563,
			"0.012": 3.43598223744,
			"0.013": 3.50409652833,
			"0.014": 0.735396420031,
			"0.015": 0.0,
			"0.016": 0.0,
			"0.017": 0.0,
			"0.018": 0.0,
			"0.019": 0.0,
			"0.02": 0.0,
			"0.021": 0.0,
			"0.022": 0.0,
			"0.023": 0.0,
			"0.024": 0.0,
			"0.025": 0.0
		}
	}
}
