{
	 "smiles": "CC12CCC3C(CCC4CC(=O)CCC34C)C1CCC2O", 
	 "Tm": 454.15, 
	 "num_atms": 51, 
	 "gaussian": { 
		 "optdone": 1, 
		 "sigma_profile": "yes", 
		 "theory": "DFT", 
		 "functional": "B3LYP", 
		 "basiset": "6-31G**", 
		 "properties": { 
			 "R2extent": 6750.0036, 
			 "electric_dipole_moment_norm": 2.5780556821, 
			 "electric_quadrupole_moment_norm": 24.0935102015, 
			 "total_energy": -892.54753625, 
			 "HOMO_LUMO_gap": 0.22228, 
			 "cosmo_polarized_energy": -12.71, 
			 "cosmo_cavitation_energy": 43.26, 
			 "cosmo_dispersion_energy": -30.4, 
			 "cosmo_repulsion_energy": 2.25, 
			 "cosmo_total_nonelectrostatic_energy": 15.11, 
			 "SMD_solvation_energy": 6.1 
		},
		"coords": [
			{
				"x": -2.206972452,
				"y": -3.5928890021,
				"z": 0.3117021449,
				"element": "C" 
			},
			{
				"x": -1.7467494842,
				"y": -2.1538013495,
				"z": 0.5904287501,
				"element": "C" 
			},
			{
				"x": -2.2246441812,
				"y": -1.2270403483,
				"z": -0.5561098569,
				"element": "C" 
			},
			{
				"x": -1.419752322,
				"y": 0.0768527167,
				"z": -0.6278742093,
				"element": "C" 
			},
			{
				"x": 0.0493157415,
				"y": -0.1764760911,
				"z": -1.0428492567,
				"element": "C" 
			},
			{
				"x": 0.5384584708,
				"y": -1.5803809805,
				"z": -0.5131272542,
				"element": "C" 
			},
			{
				"x": 2.0784143322,
				"y": -1.7613303531,
				"z": -0.4264295365,
				"element": "C" 
			},
			{
				"x": 2.8637920879,
				"y": -0.6492108328,
				"z": -1.1285636184,
				"element": "C" 
			},
			{
				"x": 2.4436816026,
				"y": 0.690605424,
				"z": -0.519653663,
				"element": "C" 
			},
			{
				"x": 3.4210819424,
				"y": 1.8454339581,
				"z": -0.7868520541,
				"element": "C" 
			},
			{
				"x": 2.8632087052,
				"y": 3.195516415,
				"z": -0.3395626759,
				"element": "C" 
			},
			{
				"x": 3.3715372188,
				"y": 4.2481248758,
				"z": -0.6766947025,
				"element": "O" 
			},
			{
				"x": 1.6584538974,
				"y": 3.1296775874,
				"z": 0.5910976253,
				"element": "C" 
			},
			{
				"x": 0.5368663768,
				"y": 2.1294888404,
				"z": 0.1713344721,
				"element": "C" 
			},
			{
				"x": 0.9879210352,
				"y": 1.0970341354,
				"z": -0.9000900022,
				"element": "C" 
			},
			{
				"x": 0.9418101174,
				"y": 1.8027803177,
				"z": -2.2816352506,
				"element": "C" 
			},
			{
				"x": -0.1793165575,
				"y": -2.0991335305,
				"z": 0.750190629,
				"element": "C" 
			},
			{
				"x": 0.0869708816,
				"y": -1.3760206276,
				"z": 2.0916141743,
				"element": "C" 
			},
			{
				"x": -1.1208125768,
				"y": -1.7669139987,
				"z": 2.9507572772,
				"element": "C" 
			},
			{
				"x": -2.2937679468,
				"y": -1.648867893,
				"z": 1.9781712831,
				"element": "C" 
			},
			{
				"x": -3.4099851005,
				"y": -2.3639419615,
				"z": 2.4915457434,
				"element": "O" 
			},
			{
				"x": -3.2850680762,
				"y": -3.6468322516,
				"z": 0.1242093254,
				"element": "H" 
			},
			{
				"x": -1.6979714464,
				"y": -3.9849084931,
				"z": -0.5766257543,
				"element": "H" 
			},
			{
				"x": -1.9886032449,
				"y": -4.2565968017,
				"z": 1.153010618,
				"element": "H" 
			},
			{
				"x": -3.2919317905,
				"y": -1.0030004578,
				"z": -0.4175993385,
				"element": "H" 
			},
			{
				"x": -2.153961788,
				"y": -1.7541222054,
				"z": -1.5172307155,
				"element": "H" 
			},
			{
				"x": -1.8887373013,
				"y": 0.7725649367,
				"z": -1.3340876519,
				"element": "H" 
			},
			{
				"x": -1.4704665196,
				"y": 0.5675629004,
				"z": 0.3492140982,
				"element": "H" 
			},
			{
				"x": 0.0105678835,
				"y": -0.3347252788,
				"z": -2.1270556472,
				"element": "H" 
			},
			{
				"x": 0.2074713989,
				"y": -2.2687279528,
				"z": -1.3019446234,
				"element": "H" 
			},
			{
				"x": 2.352225839,
				"y": -2.7451632917,
				"z": -0.8249378103,
				"element": "H" 
			},
			{
				"x": 2.3920192509,
				"y": -1.7653636944,
				"z": 0.6251910664,
				"element": "H" 
			},
			{
				"x": 2.6883714578,
				"y": -0.6576109929,
				"z": -2.2130186864,
				"element": "H" 
			},
			{
				"x": 3.940409491,
				"y": -0.8084122528,
				"z": -0.9887023579,
				"element": "H" 
			},
			{
				"x": 2.4408202884,
				"y": 0.5279252574,
				"z": 0.5697632359,
				"element": "H" 
			},
			{
				"x": 4.362404728,
				"y": 1.6795480927,
				"z": -0.2449871354,
				"element": "H" 
			},
			{
				"x": 3.6944952286,
				"y": 1.927775491,
				"z": -1.8442724293,
				"element": "H" 
			},
			{
				"x": 1.2759348232,
				"y": 4.1444698408,
				"z": 0.7216927032,
				"element": "H" 
			},
			{
				"x": 2.0642589379,
				"y": 2.8200134794,
				"z": 1.5652363497,
				"element": "H" 
			},
			{
				"x": -0.3234989917,
				"y": 2.6941770314,
				"z": -0.2027823753,
				"element": "H" 
			},
			{
				"x": 0.1961514924,
				"y": 1.6124631035,
				"z": 1.0730793526,
				"element": "H" 
			},
			{
				"x": -0.0999668203,
				"y": 1.9463512986,
				"z": -2.5879474921,
				"element": "H" 
			},
			{
				"x": 1.4089822685,
				"y": 2.791685915,
				"z": -2.2808820778,
				"element": "H" 
			},
			{
				"x": 1.4332549674,
				"y": 1.2044324548,
				"z": -3.0566701988,
				"element": "H" 
			},
			{
				"x": 0.1642215169,
				"y": -3.1343100906,
				"z": 0.8881413078,
				"element": "H" 
			},
			{
				"x": 1.0401196343,
				"y": -1.6623407139,
				"z": 2.5465174572,
				"element": "H" 
			},
			{
				"x": 0.1127276324,
				"y": -0.2880373483,
				"z": 1.9571951175,
				"element": "H" 
			},
			{
				"x": -1.2519786277,
				"y": -1.1513306683,
				"z": 3.8457043503,
				"element": "H" 
			},
			{
				"x": -1.0412102645,
				"y": -2.8116907494,
				"z": 3.2763950955,
				"element": "H" 
			},
			{
				"x": -2.5590635138,
				"y": -0.5831250539,
				"z": 1.881792833,
				"element": "H" 
			},
			{
				"x": -4.1704902427,
				"y": -2.186278806,
				"z": 1.9234013644,
				"element": "H" 
			}
		],
		 "valence_orbital": [ 
			{
				"type": "occ",
				"energy": -0.2888,
				"method": "rhf"
			},
			{
				"type": "occ",
				"energy": -0.28057,
				"method": "rhf"
			},
			{
				"type": "occ",
				"energy": -0.27913,
				"method": "rhf"
			},
			{
				"type": "occ",
				"energy": -0.25473,
				"method": "rhf"
			},
			{
				"type": "occ",
				"energy": -0.23192,
				"method": "rhf"
			},
			{
				"type": "unocc",
				"energy": -0.00964,
				"method": "rhf"
			},
			{
				"type": "unocc",
				"energy": 0.05847,
				"method": "rhf"
			},
			{
				"type": "unocc",
				"energy": 0.06145,
				"method": "rhf"
			},
			{
				"type": "unocc",
				"energy": 0.07289,
				"method": "rhf"
			},
			{
				"type": "unocc",
				"energy": 0.08727,
				"method": "rhf"
			}
		],
		"cosmo_sigma_profile": { 
			"-0.025": 0.0,
			"-0.024": 0.0,
			"-0.023": 0.0,
			"-0.022": 0.0,
			"-0.021": 0.0,
			"-0.02": 0.0,
			"-0.019": 0.0,
			"-0.018": 0.0,
			"-0.017": 0.0,
			"-0.016": 0.0,
			"-0.015": 0.104673226943,
			"-0.014": 0.683389778908,
			"-0.013": 1.02623406028,
			"-0.012": 0.617855028433,
			"-0.011": 0.910395764186,
			"-0.01": 0.933287665405,
			"-0.009": 1.31234887831,
			"-0.008": 1.54310951066,
			"-0.007": 1.33688221512,
			"-0.006": 2.75417694098,
			"-0.005": 8.99351929565,
			"-0.004": 13.3291294012,
			"-0.003": 25.7850330008,
			"-0.002": 58.9354224033,
			"-0.001": 66.5917527969,
			"0.0": 50.0948695963,
			"0.001": 34.7913512782,
			"0.002": 17.5309512433,
			"0.003": 4.09386107299,
			"0.004": 2.97399276185,
			"0.005": 2.17386061812,
			"0.006": 2.81777534061,
			"0.007": 3.14171224883,
			"0.008": 2.50217004761,
			"0.009": 3.29675543734,
			"0.01": 2.99248506464,
			"0.011": 3.65545414212,
			"0.012": 4.91004744594,
			"0.013": 6.08464649338,
			"0.014": 3.19091243444,
			"0.015": 1.08782472025,
			"0.016": 0.0,
			"0.017": 0.0,
			"0.018": 0.0,
			"0.019": 0.0,
			"0.02": 0.0,
			"0.021": 0.0,
			"0.022": 0.0,
			"0.023": 0.0,
			"0.024": 0.0,
			"0.025": 0.0
		}
	}
}
