{
	 "smiles": "CC(O)[C@H](NC(=O)OC(C)(C)C)C(O)=O", 
	 "Tm": 352.15, 
	 "num_atms": 32, 
	 "gaussian": { 
		 "optdone": 1, 
		 "sigma_profile": "yes", 
		 "theory": "DFT", 
		 "functional": "B3LYP", 
		 "basiset": "6-31G**", 
		 "properties": { 
			 "R2extent": 3639.2176, 
			 "electric_dipole_moment_norm": 2.73388184456, 
			 "electric_quadrupole_moment_norm": 13.5206283404, 
			 "total_energy": -784.118095531, 
			 "HOMO_LUMO_gap": 0.25247, 
			 "cosmo_polarized_energy": -17.63, 
			 "cosmo_cavitation_energy": 34.1, 
			 "cosmo_dispersion_energy": -22.63, 
			 "cosmo_repulsion_energy": 1.79, 
			 "cosmo_total_nonelectrostatic_energy": 13.26, 
			 "SMD_solvation_energy": 7.89 
		},
		"coords": [
			{
				"x": 2.458176111,
				"y": 1.7639180828,
				"z": 2.0754993395,
				"element": "C" 
			},
			{
				"x": 1.3830773523,
				"y": 0.9185312708,
				"z": 1.4000572036,
				"element": "C" 
			},
			{
				"x": 0.571314166,
				"y": 0.4100991452,
				"z": 2.4472394749,
				"element": "O" 
			},
			{
				"x": 0.4745291731,
				"y": 1.7260515095,
				"z": 0.4229957811,
				"element": "C" 
			},
			{
				"x": -0.7832870343,
				"y": 1.0224115487,
				"z": 0.1614993021,
				"element": "N" 
			},
			{
				"x": -0.944285159,
				"y": 0.0469120219,
				"z": -0.8135546911,
				"element": "C" 
			},
			{
				"x": -2.0355086967,
				"y": -0.2776832632,
				"z": -1.2400133355,
				"element": "O" 
			},
			{
				"x": 0.2487636903,
				"y": -0.4883952179,
				"z": -1.1418780086,
				"element": "O" 
			},
			{
				"x": 0.3624795113,
				"y": -1.4877696492,
				"z": -2.2248192001,
				"element": "C" 
			},
			{
				"x": -0.3916404048,
				"y": -2.761882355,
				"z": -1.8342317808,
				"element": "C" 
			},
			{
				"x": -0.1444860986,
				"y": -0.8834879384,
				"z": -3.5378636797,
				"element": "C" 
			},
			{
				"x": 1.8707513054,
				"y": -1.7399064313,
				"z": -2.2834783175,
				"element": "C" 
			},
			{
				"x": 1.097756689,
				"y": 2.1885686227,
				"z": -0.9038079022,
				"element": "C" 
			},
			{
				"x": 2.4465871623,
				"y": 2.2468324131,
				"z": -0.8809488523,
				"element": "O" 
			},
			{
				"x": 0.4515782218,
				"y": 2.5116672621,
				"z": -1.8744853495,
				"element": "O" 
			},
			{
				"x": 2.9676350883,
				"y": 1.1495097533,
				"z": 2.8226348132,
				"element": "H" 
			},
			{
				"x": 2.0004881595,
				"y": 2.6109240306,
				"z": 2.5985009537,
				"element": "H" 
			},
			{
				"x": 3.192884285,
				"y": 2.135549132,
				"z": 1.3617196218,
				"element": "H" 
			},
			{
				"x": 1.8502933006,
				"y": 0.0984324802,
				"z": 0.8369719408,
				"element": "H" 
			},
			{
				"x": -0.2244626292,
				"y": 0.0499379767,
				"z": 2.0276671566,
				"element": "H" 
			},
			{
				"x": 0.1940096413,
				"y": 2.6455447177,
				"z": 0.9526805828,
				"element": "H" 
			},
			{
				"x": -1.6318527149,
				"y": 1.5597824322,
				"z": 0.2694899954,
				"element": "H" 
			},
			{
				"x": -0.214848553,
				"y": -3.536112133,
				"z": -2.5879099447,
				"element": "H" 
			},
			{
				"x": -0.0323759728,
				"y": -3.1379167399,
				"z": -0.8710678841,
				"element": "H" 
			},
			{
				"x": -1.4634351751,
				"y": -2.5751214463,
				"z": -1.7651381909,
				"element": "H" 
			},
			{
				"x": 0.3579473802,
				"y": 0.0678328574,
				"z": -3.7362797938,
				"element": "H" 
			},
			{
				"x": 0.0729239204,
				"y": -1.569437009,
				"z": -4.3629170943,
				"element": "H" 
			},
			{
				"x": -1.2200012812,
				"y": -0.7087038526,
				"z": -3.5001061231,
				"element": "H" 
			},
			{
				"x": 2.0978808888,
				"y": -2.4677769744,
				"z": -3.0678291259,
				"element": "H" 
			},
			{
				"x": 2.2358169468,
				"y": -2.1335757643,
				"z": -1.3303501984,
				"element": "H" 
			},
			{
				"x": 2.4093529028,
				"y": -0.8135123891,
				"z": -2.5030941502,
				"element": "H" 
			},
			{
				"x": 2.7130378233,
				"y": 2.5850759068,
				"z": -1.7531825427,
				"element": "H" 
			}
		],
		 "valence_orbital": [ 
			{
				"type": "occ",
				"energy": -0.29782,
				"method": "rhf"
			},
			{
				"type": "occ",
				"energy": -0.28918,
				"method": "rhf"
			},
			{
				"type": "occ",
				"energy": -0.2801,
				"method": "rhf"
			},
			{
				"type": "occ",
				"energy": -0.27023,
				"method": "rhf"
			},
			{
				"type": "occ",
				"energy": -0.25948,
				"method": "rhf"
			},
			{
				"type": "unocc",
				"energy": -0.00701,
				"method": "rhf"
			},
			{
				"type": "unocc",
				"energy": 0.03846,
				"method": "rhf"
			},
			{
				"type": "unocc",
				"energy": 0.0608,
				"method": "rhf"
			},
			{
				"type": "unocc",
				"energy": 0.07137,
				"method": "rhf"
			},
			{
				"type": "unocc",
				"energy": 0.08374,
				"method": "rhf"
			}
		],
		"cosmo_sigma_profile": { 
			"-0.025": 0.0,
			"-0.024": 0.0,
			"-0.023": 0.0,
			"-0.022": 0.0,
			"-0.021": 0.0,
			"-0.02": 0.0,
			"-0.019": 0.15294051176,
			"-0.018": 1.09522104199,
			"-0.017": 0.769433196609,
			"-0.016": 0.869413828633,
			"-0.015": 1.08353944674,
			"-0.014": 2.13393681062,
			"-0.013": 1.87940141721,
			"-0.012": 1.91369601591,
			"-0.011": 2.86929817794,
			"-0.01": 2.07186959004,
			"-0.009": 3.86032647729,
			"-0.008": 5.10351057578,
			"-0.007": 4.28149728219,
			"-0.006": 3.42089453949,
			"-0.005": 5.88081023877,
			"-0.004": 17.8264769866,
			"-0.003": 20.9172991175,
			"-0.002": 23.2246872683,
			"-0.001": 25.6259446131,
			"0.0": 36.4814187447,
			"0.001": 25.3509382591,
			"0.002": 10.5388477972,
			"0.003": 12.2580489924,
			"0.004": 7.40944095003,
			"0.005": 6.29580589849,
			"0.006": 4.64864734093,
			"0.007": 4.57135193535,
			"0.008": 2.87940416136,
			"0.009": 5.00751063108,
			"0.01": 4.39528767958,
			"0.011": 6.9205237672,
			"0.012": 5.54177467871,
			"0.013": 4.82144774712,
			"0.014": 2.38146829967,
			"0.015": 0.16343912271,
			"0.016": 0.0,
			"0.017": 0.0,
			"0.018": 0.0,
			"0.019": 0.0,
			"0.02": 0.0,
			"0.021": 0.0,
			"0.022": 0.0,
			"0.023": 0.0,
			"0.024": 0.0,
			"0.025": 0.0
		}
	}
}
