{
	 "smiles": "NC(CC1=CNC2=CC=C(O)C=C12)C(O)=O", 
	 "Tm": 572.15, 
	 "num_atms": 28, 
	 "gaussian": { 
		 "optdone": 1, 
		 "sigma_profile": "yes", 
		 "theory": "DFT", 
		 "functional": "B3LYP", 
		 "basiset": "6-31G**", 
		 "properties": { 
			 "R2extent": 4342.365, 
			 "electric_dipole_moment_norm": 3.10543375392, 
			 "electric_quadrupole_moment_norm": 22.8759885032, 
			 "total_energy": -761.586021809, 
			 "HOMO_LUMO_gap": 0.18463, 
			 "cosmo_polarized_energy": -23.26, 
			 "cosmo_cavitation_energy": 32.06, 
			 "cosmo_dispersion_energy": -22.5, 
			 "cosmo_repulsion_energy": 1.76, 
			 "cosmo_total_nonelectrostatic_energy": 11.32, 
			 "SMD_solvation_energy": 5.08 
		},
		"coords": [
			{
				"x": 1.9686146931,
				"y": 0.7907321288,
				"z": -0.09935208,
				"element": "N" 
			},
			{
				"x": 1.0560508523,
				"y": 1.4269440565,
				"z": -1.035646568,
				"element": "C" 
			},
			{
				"x": -0.4635147251,
				"y": 1.076416485,
				"z": -0.8831458813,
				"element": "C" 
			},
			{
				"x": -0.8032372953,
				"y": -0.3757273494,
				"z": -1.0586702107,
				"element": "C" 
			},
			{
				"x": -1.1526030413,
				"y": -0.9909173491,
				"z": -2.2398510404,
				"element": "C" 
			},
			{
				"x": -1.3722584647,
				"y": -2.3346125892,
				"z": -2.0301876068,
				"element": "N" 
			},
			{
				"x": -1.1705969386,
				"y": -2.62245733,
				"z": -0.6931000965,
				"element": "C" 
			},
			{
				"x": -1.2806102492,
				"y": -3.8284802,
				"z": 0.0069616095,
				"element": "C" 
			},
			{
				"x": -1.0315554422,
				"y": -3.8169834374,
				"z": 1.3712244266,
				"element": "C" 
			},
			{
				"x": -0.68052627,
				"y": -2.6184368786,
				"z": 2.0319399079,
				"element": "C" 
			},
			{
				"x": -0.4627946843,
				"y": -2.7171398431,
				"z": 3.3837790184,
				"element": "O" 
			},
			{
				"x": -0.5666803065,
				"y": -1.4198612332,
				"z": 1.337568048,
				"element": "C" 
			},
			{
				"x": -0.8103169612,
				"y": -1.4080813517,
				"z": -0.0504047575,
				"element": "C" 
			},
			{
				"x": 1.5108313403,
				"y": 1.0860795696,
				"z": -2.446103038,
				"element": "C" 
			},
			{
				"x": 0.954509053,
				"y": 1.9145847386,
				"z": -3.3666722382,
				"element": "O" 
			},
			{
				"x": 2.2422733354,
				"y": 0.1722954963,
				"z": -2.7524905766,
				"element": "O" 
			},
			{
				"x": 2.0859120209,
				"y": -0.1868587991,
				"z": -0.3532799564,
				"element": "H" 
			},
			{
				"x": 1.5869911428,
				"y": 0.8231692397,
				"z": 0.841113796,
				"element": "H" 
			},
			{
				"x": 1.1373291539,
				"y": 2.5168692218,
				"z": -0.9281961046,
				"element": "H" 
			},
			{
				"x": -0.7697434463,
				"y": 1.4144889362,
				"z": 0.1151003606,
				"element": "H" 
			},
			{
				"x": -1.0256226292,
				"y": 1.6860176893,
				"z": -1.5994209034,
				"element": "H" 
			},
			{
				"x": -1.2666001442,
				"y": -0.5617566958,
				"z": -3.225674289,
				"element": "H" 
			},
			{
				"x": -1.6311679295,
				"y": -3.0000843987,
				"z": -2.7393438253,
				"element": "H" 
			},
			{
				"x": -1.5537902065,
				"y": -4.7517005339,
				"z": -0.4962119545,
				"element": "H" 
			},
			{
				"x": -1.1027800553,
				"y": -4.7247413644,
				"z": 1.9604484067,
				"element": "H" 
			},
			{
				"x": -0.2337832043,
				"y": -1.8445335826,
				"z": 3.7277997448,
				"element": "H" 
			},
			{
				"x": -0.298515497,
				"y": -0.5059593629,
				"z": 1.8640846594,
				"element": "H" 
			},
			{
				"x": 1.280485899,
				"y": 1.609634737,
				"z": -4.2300688505,
				"element": "H" 
			}
		],
		 "valence_orbital": [ 
			{
				"type": "occ",
				"energy": -0.27694,
				"method": "rhf"
			},
			{
				"type": "occ",
				"energy": -0.27003,
				"method": "rhf"
			},
			{
				"type": "occ",
				"energy": -0.23708,
				"method": "rhf"
			},
			{
				"type": "occ",
				"energy": -0.20415,
				"method": "rhf"
			},
			{
				"type": "occ",
				"energy": -0.19607,
				"method": "rhf"
			},
			{
				"type": "unocc",
				"energy": -0.01144,
				"method": "rhf"
			},
			{
				"type": "unocc",
				"energy": 0.01007,
				"method": "rhf"
			},
			{
				"type": "unocc",
				"energy": 0.03896,
				"method": "rhf"
			},
			{
				"type": "unocc",
				"energy": 0.05507,
				"method": "rhf"
			},
			{
				"type": "unocc",
				"energy": 0.07082,
				"method": "rhf"
			}
		],
		"cosmo_sigma_profile": { 
			"-0.025": 0.0,
			"-0.024": 0.0,
			"-0.023": 0.0,
			"-0.022": 0.0,
			"-0.021": 0.0,
			"-0.02": 0.0,
			"-0.019": 0.0335755666252,
			"-0.018": 0.736942405186,
			"-0.017": 1.06412241655,
			"-0.016": 2.58796086825,
			"-0.015": 3.12923952758,
			"-0.014": 3.37727669591,
			"-0.013": 2.74171485644,
			"-0.012": 3.11044646017,
			"-0.011": 2.68772927287,
			"-0.01": 3.56986013983,
			"-0.009": 4.29601287984,
			"-0.008": 7.1520278814,
			"-0.007": 8.51407933352,
			"-0.006": 10.0408107224,
			"-0.005": 11.7051759016,
			"-0.004": 16.5681680541,
			"-0.003": 14.3011701034,
			"-0.002": 14.5598311265,
			"-0.001": 12.0601537781,
			"0.0": 10.2217631788,
			"0.001": 10.1728292032,
			"0.002": 9.31899264996,
			"0.003": 9.92774403134,
			"0.004": 12.1594051171,
			"0.005": 17.8180694815,
			"0.006": 19.1218278405,
			"0.007": 9.61383496134,
			"0.008": 5.19622268232,
			"0.009": 4.78427468738,
			"0.01": 3.81118937357,
			"0.011": 8.26555995235,
			"0.012": 5.85501818397,
			"0.013": 0.825533839362,
			"0.014": 0.693467971865,
			"0.015": 0.666855565846,
			"0.016": 0.451146141673,
			"0.017": 0.803777389737,
			"0.018": 0.586206320613,
			"0.019": 0.213933710407,
			"0.02": 0.0,
			"0.021": 0.0,
			"0.022": 0.0,
			"0.023": 0.0,
			"0.024": 0.0,
			"0.025": 0.0
		}
	}
}
