{
	 "smiles": "[O-][N+](=O)C1=CC=C(OC(F)(F)F)C=C1", 
	 "Tm": 288.15, 
	 "num_atms": 18, 
	 "gaussian": { 
		 "optdone": 1, 
		 "sigma_profile": "yes", 
		 "theory": "DFT", 
		 "functional": "B3LYP", 
		 "basiset": "6-31G**", 
		 "properties": { 
			 "R2extent": 4166.0911, 
			 "electric_dipole_moment_norm": 3.02904978665, 
			 "electric_quadrupole_moment_norm": 18.4749368954, 
			 "total_energy": -848.998633052, 
			 "HOMO_LUMO_gap": 0.1833, 
			 "cosmo_polarized_energy": -7.51, 
			 "cosmo_cavitation_energy": 25.18, 
			 "cosmo_dispersion_energy": -18.24, 
			 "cosmo_repulsion_energy": 1.37, 
			 "cosmo_total_nonelectrostatic_energy": 8.3, 
			 "SMD_solvation_energy": 8.24 
		},
		"coords": [
			{
				"x": -0.2993777591,
				"y": -2.0386948438,
				"z": 3.5314256901,
				"element": "O" 
			},
			{
				"x": 0.3909597078,
				"y": -1.023447919,
				"z": 3.4449360356,
				"element": "N" 
			},
			{
				"x": 0.9113504766,
				"y": -0.4437977554,
				"z": 4.3977470115,
				"element": "O" 
			},
			{
				"x": 0.6095812493,
				"y": -0.4632298463,
				"z": 2.1055391346,
				"element": "C" 
			},
			{
				"x": 0.0344653173,
				"y": -1.0950814944,
				"z": 1.002912186,
				"element": "C" 
			},
			{
				"x": 0.2452428011,
				"y": -0.5601292852,
				"z": -0.2602311864,
				"element": "C" 
			},
			{
				"x": 1.0237499079,
				"y": 0.5928976207,
				"z": -0.4035338599,
				"element": "C" 
			},
			{
				"x": 1.1557298686,
				"y": 1.0226917977,
				"z": -1.7152054424,
				"element": "O" 
			},
			{
				"x": 1.8808796735,
				"y": 2.1317555518,
				"z": -2.0331704906,
				"element": "C" 
			},
			{
				"x": 1.3956300485,
				"y": 3.2421668925,
				"z": -1.4494182199,
				"element": "F" 
			},
			{
				"x": 3.17165655,
				"y": 2.0170286489,
				"z": -1.672594102,
				"element": "F" 
			},
			{
				"x": 1.8158482619,
				"y": 2.2776894201,
				"z": -3.3519693582,
				"element": "F" 
			},
			{
				"x": 1.5989798387,
				"y": 1.2240383895,
				"z": 0.703881983,
				"element": "C" 
			},
			{
				"x": 1.3855022768,
				"y": 0.6846770078,
				"z": 1.9695633444,
				"element": "C" 
			},
			{
				"x": -0.5627091381,
				"y": -1.9860997401,
				"z": 1.1491892713,
				"element": "H" 
			},
			{
				"x": -0.1823508196,
				"y": -1.0180480723,
				"z": -1.1449312394,
				"element": "H" 
			},
			{
				"x": 2.2011215701,
				"y": 2.1154232929,
				"z": 0.5951552669,
				"element": "H" 
			},
			{
				"x": 1.8135401686,
				"y": 1.1436603346,
				"z": 2.8518039754,
				"element": "H" 
			}
		],
		 "valence_orbital": [ 
			{
				"type": "occ",
				"energy": -0.31529,
				"method": "rhf"
			},
			{
				"type": "occ",
				"energy": -0.31308,
				"method": "rhf"
			},
			{
				"type": "occ",
				"energy": -0.29647,
				"method": "rhf"
			},
			{
				"type": "occ",
				"energy": -0.29356,
				"method": "rhf"
			},
			{
				"type": "occ",
				"energy": -0.27794,
				"method": "rhf"
			},
			{
				"type": "unocc",
				"energy": -0.09464,
				"method": "rhf"
			},
			{
				"type": "unocc",
				"energy": -0.04216,
				"method": "rhf"
			},
			{
				"type": "unocc",
				"energy": -0.00623,
				"method": "rhf"
			},
			{
				"type": "unocc",
				"energy": 0.0655,
				"method": "rhf"
			},
			{
				"type": "unocc",
				"energy": 0.12148,
				"method": "rhf"
			}
		],
		"cosmo_sigma_profile": { 
			"-0.025": 0.0,
			"-0.024": 0.0,
			"-0.023": 0.0,
			"-0.022": 0.0,
			"-0.021": 0.0,
			"-0.02": 0.0,
			"-0.019": 0.0,
			"-0.018": 0.0,
			"-0.017": 0.0,
			"-0.016": 0.0,
			"-0.015": 0.0,
			"-0.014": 0.0,
			"-0.013": 0.0,
			"-0.012": 0.0,
			"-0.011": 0.0,
			"-0.01": 0.0,
			"-0.009": 1.52185822043,
			"-0.008": 6.47595973102,
			"-0.007": 7.64484444919,
			"-0.006": 6.79169853404,
			"-0.005": 6.63184849416,
			"-0.004": 7.65426380236,
			"-0.003": 10.565772526,
			"-0.002": 18.1816955675,
			"-0.001": 24.7768801484,
			"0.0": 25.5072207547,
			"0.001": 33.495843606,
			"0.002": 16.6513212495,
			"0.003": 3.75292286534,
			"0.004": 4.38267681508,
			"0.005": 3.098532301,
			"0.006": 3.86511023013,
			"0.007": 8.28180160248,
			"0.008": 7.22082613493,
			"0.009": 4.29277880262,
			"0.01": 2.44370244606,
			"0.011": 0.0953896421286,
			"0.012": 0.0,
			"0.013": 0.0,
			"0.014": 0.0,
			"0.015": 0.0,
			"0.016": 0.0,
			"0.017": 0.0,
			"0.018": 0.0,
			"0.019": 0.0,
			"0.02": 0.0,
			"0.021": 0.0,
			"0.022": 0.0,
			"0.023": 0.0,
			"0.024": 0.0,
			"0.025": 0.0
		}
	}
}
