{
	 "smiles": "CC(CN(C(C)=O)C1=C(I)C(N)=C(I)C=C1I)C(O)=O", 
	 "Tm": 497.15, 
	 "num_atms": 33, 
	 "gaussian": { 
		 "optdone": 1, 
		 "sigma_profile": "no", 
		 "theory": "DFT", 
		 "functional": "B3LYP", 
		 "basiset": "6-31G**", 
		 "properties": { 
			 "R2extent": 6848.3774, 
			 "electric_dipole_moment_norm": 3.6867093254, 
			 "electric_quadrupole_moment_norm": 24.4947381641, 
			 "total_energy": -834.457645565, 
			 "HOMO_LUMO_gap": 0.14407, 
			 "cosmo_polarized_energy": -231471.66, 
			 "cosmo_cavitation_energy": 44.26, 
			 "cosmo_dispersion_energy": -32.61, 
			 "cosmo_repulsion_energy": 2.45, 
			 "cosmo_total_nonelectrostatic_energy": 14.1, 
			 "SMD_solvation_energy": 7.09 
		},
		"coords": [
			{
				"x": 0.6037833566,
				"y": -0.6110981651,
				"z": -3.0823925686,
				"element": "C" 
			},
			{
				"x": -0.6043484322,
				"y": -0.235196137,
				"z": -2.2011030175,
				"element": "C" 
			},
			{
				"x": -0.4830310737,
				"y": -0.6819677611,
				"z": -0.7303568748,
				"element": "C" 
			},
			{
				"x": 0.450006589,
				"y": 0.1081641552,
				"z": 0.1103128928,
				"element": "N" 
			},
			{
				"x": 0.7081766342,
				"y": -0.2687352557,
				"z": 1.4327966161,
				"element": "C" 
			},
			{
				"x": 0.2043524053,
				"y": -1.6325403766,
				"z": 1.8694621435,
				"element": "C" 
			},
			{
				"x": 1.3278904165,
				"y": 0.4622378591,
				"z": 2.1875098263,
				"element": "O" 
			},
			{
				"x": 0.8807094037,
				"y": 1.4190602007,
				"z": -0.2578875,
				"element": "C" 
			},
			{
				"x": 2.2176776818,
				"y": 1.653814803,
				"z": -0.6300134303,
				"element": "C" 
			},
			{
				"x": 3.6096497495,
				"y": 0.0491114865,
				"z": -0.5639624556,
				"element": "I" 
			},
			{
				"x": 2.699944481,
				"y": 2.9321992256,
				"z": -1.0114518553,
				"element": "C" 
			},
			{
				"x": 4.0136063189,
				"y": 3.1553623303,
				"z": -1.3212617722,
				"element": "N" 
			},
			{
				"x": 1.7471767016,
				"y": 3.9789426066,
				"z": -1.0227793006,
				"element": "C" 
			},
			{
				"x": 2.3129249955,
				"y": 5.9368382844,
				"z": -1.6205880311,
				"element": "I" 
			},
			{
				"x": 0.4304320029,
				"y": 3.7813347781,
				"z": -0.6336331589,
				"element": "C" 
			},
			{
				"x": 0.0010933466,
				"y": 2.514995827,
				"z": -0.2385127393,
				"element": "C" 
			},
			{
				"x": -1.9846325819,
				"y": 2.3423764553,
				"z": 0.4780346194,
				"element": "I" 
			},
			{
				"x": -1.85336003,
				"y": -0.8423839078,
				"z": -2.8252680442,
				"element": "C" 
			},
			{
				"x": -2.0138822872,
				"y": -2.1498640885,
				"z": -2.4929015666,
				"element": "O" 
			},
			{
				"x": -2.6103551882,
				"y": -0.2672456168,
				"z": -3.5733596283,
				"element": "O" 
			},
			{
				"x": 0.7773432215,
				"y": -1.6915417136,
				"z": -3.0644841777,
				"element": "H" 
			},
			{
				"x": 1.5093827649,
				"y": -0.1132434244,
				"z": -2.7350955136,
				"element": "H" 
			},
			{
				"x": 0.4242456395,
				"y": -0.3068926769,
				"z": -4.1177789818,
				"element": "H" 
			},
			{
				"x": -0.7640712888,
				"y": 0.8436537688,
				"z": -2.2555588796,
				"element": "H" 
			},
			{
				"x": -0.1533035866,
				"y": -1.7237851124,
				"z": -0.7167611937,
				"element": "H" 
			},
			{
				"x": -1.4814304281,
				"y": -0.6551014378,
				"z": -0.2793296106,
				"element": "H" 
			},
			{
				"x": 0.4844464182,
				"y": -1.7614634006,
				"z": 2.9143451812,
				"element": "H" 
			},
			{
				"x": -0.882620024,
				"y": -1.7184882226,
				"z": 1.773828795,
				"element": "H" 
			},
			{
				"x": 0.6548038968,
				"y": -2.4340535092,
				"z": 1.2743404505,
				"element": "H" 
			},
			{
				"x": 4.6078610564,
				"y": 2.3606136706,
				"z": -1.499532423,
				"element": "H" 
			},
			{
				"x": 4.2526823361,
				"y": 4.015971591,
				"z": -1.7894303542,
				"element": "H" 
			},
			{
				"x": -0.2604987696,
				"y": 4.6143040926,
				"z": -0.6271753788,
				"element": "H" 
			},
			{
				"x": -2.8109557262,
				"y": -2.4512803285,
				"z": -2.9611120688,
				"element": "H" 
			}
		],
		 "valence_orbital": [ 
			{
				"type": "occ",
				"energy": -0.27184,
				"method": "rhf"
			},
			{
				"type": "occ",
				"energy": -0.25771,
				"method": "rhf"
			},
			{
				"type": "occ",
				"energy": -0.25105,
				"method": "rhf"
			},
			{
				"type": "occ",
				"energy": -0.24785,
				"method": "rhf"
			},
			{
				"type": "occ",
				"energy": -0.21979,
				"method": "rhf"
			},
			{
				"type": "unocc",
				"energy": -0.07572,
				"method": "rhf"
			},
			{
				"type": "unocc",
				"energy": -0.04006,
				"method": "rhf"
			},
			{
				"type": "unocc",
				"energy": -0.0345,
				"method": "rhf"
			},
			{
				"type": "unocc",
				"energy": -0.03165,
				"method": "rhf"
			},
			{
				"type": "unocc",
				"energy": -0.02009,
				"method": "rhf"
			}
		],
		"cosmo_sigma_profile": { 
			"0.0": 0.0,
			"0.0": 0.0,
			"0.0": 0.0,
			"0.0": 0.0,
			"0.0": 0.0,
			"0.0": 0.0,
			"0.0": 0.0,
			"0.0": 0.0,
			"0.0": 0.0,
			"0.0": 0.0,
			"0.0": 0.0,
			"0.0": 0.0,
			"0.0": 0.0,
			"0.0": 0.0,
			"0.0": 0.0,
			"0.0": 0.0,
			"0.0": 0.0,
			"0.0": 0.0,
			"0.0": 0.0,
			"0.0": 0.0,
			"0.0": 0.0,
			"0.0": 0.0,
			"0.0": 0.0,
			"0.0": 0.0,
			"0.0": 0.0,
			"0.0": 0.0,
			"0.0": 0.0,
			"0.0": 0.0,
			"0.0": 0.0,
			"0.0": 0.0,
			"0.0": 0.0,
			"0.0": 0.0,
			"0.0": 0.0,
			"0.0": 0.0,
			"0.0": 0.0,
			"0.0": 0.0,
			"0.0": 0.0,
			"0.0": 0.0,
			"0.0": 0.0,
			"0.0": 0.0,
			"0.0": 0.0,
			"0.0": 0.0,
			"0.0": 0.0,
			"0.0": 0.0,
			"0.0": 0.0,
			"0.0": 0.0,
			"0.0": 0.0,
			"0.0": 0.0,
			"0.0": 0.0,
			"0.0": 0.0,
			"0.0": 0.0
		}
	}
}
