{
	 "smiles": "OC1=C2CC3=CC=CC(CC4=CC=CC(CC5=C(O)C(CC1=CC=C2)=CC=C5)=C4O)=C3O", 
	 "Tm": 590.15, 
	 "num_atms": 56, 
	 "gaussian": { 
		 "optdone": 1, 
		 "sigma_profile": "yes", 
		 "theory": "DFT", 
		 "functional": "B3LYP", 
		 "basiset": "6-31G**", 
		 "properties": { 
			 "R2extent": 11392.2922, 
			 "electric_dipole_moment_norm": 1.07386335723, 
			 "electric_quadrupole_moment_norm": 9.80243227317, 
			 "total_energy": -1382.37486067, 
			 "HOMO_LUMO_gap": 0.19726, 
			 "cosmo_polarized_energy": -14.35, 
			 "cosmo_cavitation_energy": 53.24, 
			 "cosmo_dispersion_energy": -35.8, 
			 "cosmo_repulsion_energy": 2.53, 
			 "cosmo_total_nonelectrostatic_energy": 19.96, 
			 "SMD_solvation_energy": 7.63 
		},
		"coords": [
			{
				"x": 0.2043557509,
				"y": -0.0079452426,
				"z": 2.4297347026,
				"element": "O" 
			},
			{
				"x": 0.7373332982,
				"y": -1.091679291,
				"z": 1.7471975871,
				"element": "C" 
			},
			{
				"x": -0.0709992583,
				"y": -2.1355657033,
				"z": 1.2641026614,
				"element": "C" 
			},
			{
				"x": -1.5799029085,
				"y": -2.208635306,
				"z": 1.4859856813,
				"element": "C" 
			},
			{
				"x": -2.3720030926,
				"y": -0.9119698873,
				"z": 1.4280594147,
				"element": "C" 
			},
			{
				"x": -3.0750624944,
				"y": -0.4506806094,
				"z": 2.5506537742,
				"element": "C" 
			},
			{
				"x": -3.8011714711,
				"y": 0.7395227544,
				"z": 2.5071857403,
				"element": "C" 
			},
			{
				"x": -3.8298782434,
				"y": 1.4756463209,
				"z": 1.3252199101,
				"element": "C" 
			},
			{
				"x": -3.1641320622,
				"y": 1.0458488254,
				"z": 0.1723671657,
				"element": "C" 
			},
			{
				"x": -3.2689075986,
				"y": 1.8558453706,
				"z": -1.1129620389,
				"element": "C" 
			},
			{
				"x": -1.961401485,
				"y": 2.1586309019,
				"z": -1.8298888086,
				"element": "C" 
			},
			{
				"x": -1.7655121217,
				"y": 1.784942545,
				"z": -3.1655376721,
				"element": "C" 
			},
			{
				"x": -0.5594680369,
				"y": 2.0512837805,
				"z": -3.817554359,
				"element": "C" 
			},
			{
				"x": 0.4591620539,
				"y": 2.7050927327,
				"z": -3.1294428075,
				"element": "C" 
			},
			{
				"x": 0.3000684257,
				"y": 3.1123087999,
				"z": -1.7991684613,
				"element": "C" 
			},
			{
				"x": 1.4329001672,
				"y": 3.8358414652,
				"z": -1.078912829,
				"element": "C" 
			},
			{
				"x": 2.5268078589,
				"y": 2.9017811285,
				"z": -0.5842798564,
				"element": "C" 
			},
			{
				"x": 2.3031017753,
				"y": 2.0528423361,
				"z": 0.5146828546,
				"element": "C" 
			},
			{
				"x": 1.1169293983,
				"y": 2.2177170211,
				"z": 1.1888570339,
				"element": "O" 
			},
			{
				"x": 3.2574663397,
				"y": 1.1009754093,
				"z": 0.9155384102,
				"element": "C" 
			},
			{
				"x": 2.9767761452,
				"y": 0.1018670731,
				"z": 2.0313429037,
				"element": "C" 
			},
			{
				"x": 2.1302276753,
				"y": -1.079133885,
				"z": 1.5677706761,
				"element": "C" 
			},
			{
				"x": 2.7203323685,
				"y": -2.1607857363,
				"z": 0.9088239829,
				"element": "C" 
			},
			{
				"x": 1.9482142199,
				"y": -3.2139005358,
				"z": 0.4238160955,
				"element": "C" 
			},
			{
				"x": 0.5664738271,
				"y": -3.1876078533,
				"z": 0.5964015039,
				"element": "C" 
			},
			{
				"x": 4.4713905136,
				"y": 1.0540498477,
				"z": 0.2190039404,
				"element": "C" 
			},
			{
				"x": 4.7333977396,
				"y": 1.9131227814,
				"z": -0.8450911943,
				"element": "C" 
			},
			{
				"x": 3.7551881609,
				"y": 2.822889912,
				"z": -1.2452997776,
				"element": "C" 
			},
			{
				"x": -0.9216538899,
				"y": 2.8351854568,
				"z": -1.1558149262,
				"element": "C" 
			},
			{
				"x": -1.1649174251,
				"y": 3.2261409326,
				"z": 0.1264215007,
				"element": "O" 
			},
			{
				"x": -2.4414390064,
				"y": -0.161821063,
				"z": 0.2333312231,
				"element": "C" 
			},
			{
				"x": -1.785701553,
				"y": -0.6830404065,
				"z": -0.841268589,
				"element": "O" 
			},
			{
				"x": -0.7684324388,
				"y": -0.0227876566,
				"z": 2.3601625341,
				"element": "H" 
			},
			{
				"x": -1.9808580503,
				"y": -2.903456901,
				"z": 0.7399024765,
				"element": "H" 
			},
			{
				"x": -1.7695931881,
				"y": -2.6687445304,
				"z": 2.4650346013,
				"element": "H" 
			},
			{
				"x": -3.0397912107,
				"y": -1.0348045202,
				"z": 3.4672276872,
				"element": "H" 
			},
			{
				"x": -4.3333444253,
				"y": 1.0900292207,
				"z": 3.3857733076,
				"element": "H" 
			},
			{
				"x": -4.3771369904,
				"y": 2.4136759837,
				"z": 1.2873692874,
				"element": "H" 
			},
			{
				"x": -3.9259499623,
				"y": 1.3287969516,
				"z": -1.8179377488,
				"element": "H" 
			},
			{
				"x": -3.7732454717,
				"y": 2.7971095224,
				"z": -0.86853872,
				"element": "H" 
			},
			{
				"x": -2.5689033187,
				"y": 1.2770703574,
				"z": -3.6947813714,
				"element": "H" 
			},
			{
				"x": -0.4194649888,
				"y": 1.753248734,
				"z": -4.85196311,
				"element": "H" 
			},
			{
				"x": 1.4019468841,
				"y": 2.9115480563,
				"z": -3.630044099,
				"element": "H" 
			},
			{
				"x": 1.0243721661,
				"y": 4.4236923467,
				"z": -0.2508838866,
				"element": "H" 
			},
			{
				"x": 1.8837657136,
				"y": 4.5519070176,
				"z": -1.7735921968,
				"element": "H" 
			},
			{
				"x": 0.8608625993,
				"y": 1.4283804447,
				"z": 1.7172302429,
				"element": "H" 
			},
			{
				"x": 3.9355242546,
				"y": -0.2799381738,
				"z": 2.3953457952,
				"element": "H" 
			},
			{
				"x": 2.4972909778,
				"y": 0.5960442041,
				"z": 2.8819304915,
				"element": "H" 
			},
			{
				"x": 3.7978142234,
				"y": -2.165185467,
				"z": 0.7665722048,
				"element": "H" 
			},
			{
				"x": 2.4180352996,
				"y": -4.0453488097,
				"z": -0.0925699249,
				"element": "H" 
			},
			{
				"x": -0.0420642887,
				"y": -3.999764439,
				"z": 0.2071094807,
				"element": "H" 
			},
			{
				"x": 5.2223521473,
				"y": 0.3312103836,
				"z": 0.5280949156,
				"element": "H" 
			},
			{
				"x": 5.6863292732,
				"y": 1.8686266899,
				"z": -1.363388863,
				"element": "H" 
			},
			{
				"x": 3.9415590755,
				"y": 3.4848076725,
				"z": -2.0874103059,
				"element": "H" 
			},
			{
				"x": -0.3442691387,
				"y": 3.0835486872,
				"z": 0.6410526175,
				"element": "H" 
			},
			{
				"x": -1.6493742127,
				"y": 0.00606435,
				"z": -1.5123708583,
				"element": "H" 
			}
		],
		 "valence_orbital": [ 
			{
				"type": "occ",
				"energy": -0.23109,
				"method": "rhf"
			},
			{
				"type": "occ",
				"energy": -0.22569,
				"method": "rhf"
			},
			{
				"type": "occ",
				"energy": -0.22082,
				"method": "rhf"
			},
			{
				"type": "occ",
				"energy": -0.21892,
				"method": "rhf"
			},
			{
				"type": "occ",
				"energy": -0.21246,
				"method": "rhf"
			},
			{
				"type": "unocc",
				"energy": -0.0152,
				"method": "rhf"
			},
			{
				"type": "unocc",
				"energy": -0.00596,
				"method": "rhf"
			},
			{
				"type": "unocc",
				"energy": -0.00339,
				"method": "rhf"
			},
			{
				"type": "unocc",
				"energy": 0.00084,
				"method": "rhf"
			},
			{
				"type": "unocc",
				"energy": 0.00583,
				"method": "rhf"
			}
		],
		"cosmo_sigma_profile": { 
			"-0.025": 0.0,
			"-0.024": 0.0,
			"-0.023": 0.0,
			"-0.022": 0.0,
			"-0.021": 0.0,
			"-0.02": 0.0,
			"-0.019": 0.0,
			"-0.018": 0.0,
			"-0.017": 0.0,
			"-0.016": 0.0,
			"-0.015": 0.0,
			"-0.014": 0.0,
			"-0.013": 0.0,
			"-0.012": 0.0,
			"-0.011": 0.0,
			"-0.01": 0.0,
			"-0.009": 0.0,
			"-0.008": 0.211235280978,
			"-0.007": 3.1722003693,
			"-0.006": 19.6089781275,
			"-0.005": 45.6464022659,
			"-0.004": 40.4655595052,
			"-0.003": 41.2048799953,
			"-0.002": 32.5732336352,
			"-0.001": 32.1737134829,
			"0.0": 27.5472813536,
			"0.001": 24.8080930005,
			"0.002": 25.1188198652,
			"0.003": 27.443353677,
			"0.004": 28.6044192623,
			"0.005": 31.0206137932,
			"0.006": 21.4750470071,
			"0.007": 7.46599907958,
			"0.008": 4.76826858515,
			"0.009": 4.59359482234,
			"0.01": 3.24549187665,
			"0.011": 1.46501301121,
			"0.012": 0.895138656515,
			"0.013": 0.202178036282,
			"0.014": 0.0,
			"0.015": 0.0,
			"0.016": 0.0,
			"0.017": 0.0,
			"0.018": 0.0,
			"0.019": 0.0,
			"0.02": 0.0,
			"0.021": 0.0,
			"0.022": 0.0,
			"0.023": 0.0,
			"0.024": 0.0,
			"0.025": 0.0
		}
	}
}
