{
	 "smiles": "OP(=O)(OC1=CC=CC=C1)OC1=CC=CC=C1", 
	 "Tm": 339.95, 
	 "num_atms": 28, 
	 "gaussian": { 
		 "optdone": 1, 
		 "sigma_profile": "yes", 
		 "theory": "DFT", 
		 "functional": "B3LYP", 
		 "basiset": "6-31G**", 
		 "properties": { 
			 "R2extent": 5531.4382, 
			 "electric_dipole_moment_norm": 3.36395189918, 
			 "electric_quadrupole_moment_norm": 8.78180622936, 
			 "total_energy": -1106.22979323, 
			 "HOMO_LUMO_gap": 0.23459, 
			 "cosmo_polarized_energy": -14.87, 
			 "cosmo_cavitation_energy": 34.8, 
			 "cosmo_dispersion_energy": -24.59, 
			 "cosmo_repulsion_energy": 1.91, 
			 "cosmo_total_nonelectrostatic_energy": 12.12, 
			 "SMD_solvation_energy": 8.06 
		},
		"coords": [
			{
				"x": -1.5866945327,
				"y": -1.1298406509,
				"z": -2.0657323084,
				"element": "O" 
			},
			{
				"x": -0.3833558322,
				"y": -1.2531922817,
				"z": -0.9904595509,
				"element": "P" 
			},
			{
				"x": 0.3991825409,
				"y": -2.499104934,
				"z": -1.0904925908,
				"element": "O" 
			},
			{
				"x": 0.3792109129,
				"y": 0.1595637033,
				"z": -1.158446326,
				"element": "O" 
			},
			{
				"x": 1.0842552328,
				"y": 0.5049093411,
				"z": -2.3188111416,
				"element": "C" 
			},
			{
				"x": 2.0674410276,
				"y": -0.3329794915,
				"z": -2.8440732535,
				"element": "C" 
			},
			{
				"x": 2.7749306163,
				"y": 0.0922313011,
				"z": -3.9703763609,
				"element": "C" 
			},
			{
				"x": 2.5102822642,
				"y": 1.3344584484,
				"z": -4.5501363729,
				"element": "C" 
			},
			{
				"x": 1.5264305167,
				"y": 2.1605731903,
				"z": -4.0017523263,
				"element": "C" 
			},
			{
				"x": 0.8046297416,
				"y": 1.748004225,
				"z": -2.8814365955,
				"element": "C" 
			},
			{
				"x": -1.0491934103,
				"y": -1.0430272436,
				"z": 0.4561424559,
				"element": "O" 
			},
			{
				"x": -1.84302559,
				"y": 0.0551115555,
				"z": 0.812957397,
				"element": "C" 
			},
			{
				"x": -3.2192436613,
				"y": -0.0034119185,
				"z": 0.6082818531,
				"element": "C" 
			},
			{
				"x": -4.0107800347,
				"y": 1.0640956515,
				"z": 1.0352860697,
				"element": "C" 
			},
			{
				"x": -3.4281747839,
				"y": 2.1688833678,
				"z": 1.6596492406,
				"element": "C" 
			},
			{
				"x": -2.0461008393,
				"y": 2.2068502722,
				"z": 1.8586974659,
				"element": "C" 
			},
			{
				"x": -1.2430165547,
				"y": 1.14691295,
				"z": 1.4358820341,
				"element": "C" 
			},
			{
				"x": -1.7163620983,
				"y": -1.984264402,
				"z": -2.5018413559,
				"element": "H" 
			},
			{
				"x": 2.2640659913,
				"y": -1.291575712,
				"z": -2.3774087526,
				"element": "H" 
			},
			{
				"x": 3.5414588962,
				"y": -0.5526369494,
				"z": -4.3899809682,
				"element": "H" 
			},
			{
				"x": 3.0688010615,
				"y": 1.6583710446,
				"z": -5.4230593601,
				"element": "H" 
			},
			{
				"x": 1.3158749255,
				"y": 3.1286764826,
				"z": -4.446577725,
				"element": "H" 
			},
			{
				"x": 0.0341927132,
				"y": 2.3695156243,
				"z": -2.4379669068,
				"element": "H" 
			},
			{
				"x": -3.652150697,
				"y": -0.8723410262,
				"z": 0.1256620135,
				"element": "H" 
			},
			{
				"x": -5.0851010574,
				"y": 1.0280773968,
				"z": 0.8809138136,
				"element": "H" 
			},
			{
				"x": -4.0486257235,
				"y": 2.9954879491,
				"z": 1.9923164069,
				"element": "H" 
			},
			{
				"x": -1.5885243936,
				"y": 3.0624080886,
				"z": 2.3465391837,
				"element": "H" 
			},
			{
				"x": -0.1685072322,
				"y": 1.1536440175,
				"z": 1.5795239612,
				"element": "H" 
			}
		],
		 "valence_orbital": [ 
			{
				"type": "occ",
				"energy": -0.29695,
				"method": "rhf"
			},
			{
				"type": "occ",
				"energy": -0.25998,
				"method": "rhf"
			},
			{
				"type": "occ",
				"energy": -0.25805,
				"method": "rhf"
			},
			{
				"type": "occ",
				"energy": -0.25068,
				"method": "rhf"
			},
			{
				"type": "occ",
				"energy": -0.24531,
				"method": "rhf"
			},
			{
				"type": "unocc",
				"energy": -0.01072,
				"method": "rhf"
			},
			{
				"type": "unocc",
				"energy": -0.0097,
				"method": "rhf"
			},
			{
				"type": "unocc",
				"energy": -0.0071,
				"method": "rhf"
			},
			{
				"type": "unocc",
				"energy": -0.00297,
				"method": "rhf"
			},
			{
				"type": "unocc",
				"energy": 0.04487,
				"method": "rhf"
			}
		],
		"cosmo_sigma_profile": { 
			"-0.025": 0.0,
			"-0.024": 0.0,
			"-0.023": 0.0,
			"-0.022": 0.0,
			"-0.021": 0.0,
			"-0.02": 0.263536254151,
			"-0.019": 1.14613608265,
			"-0.018": 1.08014859857,
			"-0.017": 0.627867524956,
			"-0.016": 0.667400669746,
			"-0.015": 0.835088628324,
			"-0.014": 0.82301135307,
			"-0.013": 0.920712286289,
			"-0.012": 0.717137216333,
			"-0.011": 0.891779118897,
			"-0.01": 0.809119509185,
			"-0.009": 0.481260856882,
			"-0.008": 0.942979060737,
			"-0.007": 5.38294173841,
			"-0.006": 18.548444063,
			"-0.005": 20.6718732159,
			"-0.004": 22.9029807043,
			"-0.003": 15.4217290249,
			"-0.002": 16.9052774833,
			"-0.001": 13.9478163159,
			"0.0": 16.9075978703,
			"0.001": 17.4218434651,
			"0.002": 22.4776025036,
			"0.003": 24.8648575024,
			"0.004": 29.6669916218,
			"0.005": 15.4458905435,
			"0.006": 3.79764211315,
			"0.007": 3.83073307847,
			"0.008": 3.31190547181,
			"0.009": 2.1867252674,
			"0.01": 1.70194348129,
			"0.011": 1.79961661783,
			"0.012": 1.99538589009,
			"0.013": 5.25694425285,
			"0.014": 1.94982113984,
			"0.015": 0.0,
			"0.016": 0.0,
			"0.017": 0.0,
			"0.018": 0.0,
			"0.019": 0.0,
			"0.02": 0.0,
			"0.021": 0.0,
			"0.022": 0.0,
			"0.023": 0.0,
			"0.024": 0.0,
			"0.025": 0.0
		}
	}
}
