{
	 "smiles": "CC1=C(CC(O)=O)N=C(O1)C1=CC=CO1", 
	 "Tm": 450.15, 
	 "num_atms": 24, 
	 "gaussian": { 
		 "optdone": 1, 
		 "sigma_profile": "yes", 
		 "theory": "DFT", 
		 "functional": "B3LYP", 
		 "basiset": "6-31G**", 
		 "properties": { 
			 "R2extent": 4538.7086, 
			 "electric_dipole_moment_norm": 3.69910677191, 
			 "electric_quadrupole_moment_norm": 19.4977867088, 
			 "total_energy": -742.118303144, 
			 "HOMO_LUMO_gap": 0.1706, 
			 "cosmo_polarized_energy": -16.15, 
			 "cosmo_cavitation_energy": 30.35, 
			 "cosmo_dispersion_energy": -21.6, 
			 "cosmo_repulsion_energy": 1.73, 
			 "cosmo_total_nonelectrostatic_energy": 10.47, 
			 "SMD_solvation_energy": 6.24 
		},
		"coords": [
			{
				"x": -1.6136428425,
				"y": -0.7054322279,
				"z": -2.4776086633,
				"element": "C" 
			},
			{
				"x": -0.6903746822,
				"y": -0.8545849257,
				"z": -1.3239876962,
				"element": "C" 
			},
			{
				"x": 0.4579747046,
				"y": -1.5468557679,
				"z": -1.0776240561,
				"element": "C" 
			},
			{
				"x": 1.2370739972,
				"y": -2.4544279279,
				"z": -1.9770658797,
				"element": "C" 
			},
			{
				"x": 1.1874819309,
				"y": -3.9270469104,
				"z": -1.5922035272,
				"element": "C" 
			},
			{
				"x": -0.0672465284,
				"y": -4.3328606877,
				"z": -1.2843857238,
				"element": "O" 
			},
			{
				"x": 2.1366235995,
				"y": -4.6764578398,
				"z": -1.5958049404,
				"element": "O" 
			},
			{
				"x": 0.8800642041,
				"y": -1.3023248831,
				"z": 0.2240615513,
				"element": "N" 
			},
			{
				"x": -0.0112725991,
				"y": -0.4870388984,
				"z": 0.707866485,
				"element": "C" 
			},
			{
				"x": -1.0026106611,
				"y": -0.1629671589,
				"z": -0.173506444,
				"element": "O" 
			},
			{
				"x": -0.0889485453,
				"y": 0.1099176146,
				"z": 2.0173810138,
				"element": "C" 
			},
			{
				"x": -0.9935195749,
				"y": 0.9687607362,
				"z": 2.5882395434,
				"element": "C" 
			},
			{
				"x": -0.5327771888,
				"y": 1.203269109,
				"z": 3.9192564515,
				"element": "C" 
			},
			{
				"x": 0.6112485148,
				"y": 0.4733239182,
				"z": 4.0579772429,
				"element": "C" 
			},
			{
				"x": 0.8960510594,
				"y": -0.1979347444,
				"z": 2.910520465,
				"element": "O" 
			},
			{
				"x": -2.6165579596,
				"y": -1.0759099316,
				"z": -2.2362372931,
				"element": "H" 
			},
			{
				"x": -1.7109837397,
				"y": 0.3436225176,
				"z": -2.7793516527,
				"element": "H" 
			},
			{
				"x": -1.2420128553,
				"y": -1.2742005163,
				"z": -3.3328732211,
				"element": "H" 
			},
			{
				"x": 0.8601359706,
				"y": -2.3797740329,
				"z": -3.0040462285,
				"element": "H" 
			},
			{
				"x": 2.2925523275,
				"y": -2.1731685641,
				"z": -1.9898245143,
				"element": "H" 
			},
			{
				"x": 0.0053188493,
				"y": -5.2771919405,
				"z": -1.0657432194,
				"element": "H" 
			},
			{
				"x": -1.8723423436,
				"y": 1.3752920734,
				"z": 2.1104512347,
				"element": "H" 
			},
			{
				"x": -0.9916819481,
				"y": 1.830052671,
				"z": 4.6699552319,
				"element": "H" 
			},
			{
				"x": 1.3084463107,
				"y": 0.3293383174,
				"z": 4.8685538402,
				"element": "H" 
			}
		],
		 "valence_orbital": [ 
			{
				"type": "occ",
				"energy": -0.28847,
				"method": "rhf"
			},
			{
				"type": "occ",
				"energy": -0.28602,
				"method": "rhf"
			},
			{
				"type": "occ",
				"energy": -0.2787,
				"method": "rhf"
			},
			{
				"type": "occ",
				"energy": -0.26209,
				"method": "rhf"
			},
			{
				"type": "occ",
				"energy": -0.20679,
				"method": "rhf"
			},
			{
				"type": "unocc",
				"energy": -0.03619,
				"method": "rhf"
			},
			{
				"type": "unocc",
				"energy": 0.00963,
				"method": "rhf"
			},
			{
				"type": "unocc",
				"energy": 0.03454,
				"method": "rhf"
			},
			{
				"type": "unocc",
				"energy": 0.05339,
				"method": "rhf"
			},
			{
				"type": "unocc",
				"energy": 0.07724,
				"method": "rhf"
			}
		],
		"cosmo_sigma_profile": { 
			"-0.025": 0.0,
			"-0.024": 0.0,
			"-0.023": 0.0,
			"-0.022": 0.0,
			"-0.021": 0.0,
			"-0.02": 0.0,
			"-0.019": 0.127242981975,
			"-0.018": 0.650410119952,
			"-0.017": 0.883387450335,
			"-0.016": 1.13160177859,
			"-0.015": 0.680665396038,
			"-0.014": 0.629770890405,
			"-0.013": 0.33225241893,
			"-0.012": 0.848004652219,
			"-0.011": 0.952198557336,
			"-0.01": 1.37754458808,
			"-0.009": 2.76913056346,
			"-0.008": 7.73230010658,
			"-0.007": 9.4443779317,
			"-0.006": 11.1127582211,
			"-0.005": 14.597750093,
			"-0.004": 15.47320843,
			"-0.003": 14.9286551186,
			"-0.002": 17.5935896433,
			"-0.001": 16.4664914204,
			"0.0": 16.7408186752,
			"0.001": 18.0173121026,
			"0.002": 17.1548402203,
			"0.003": 12.7388922971,
			"0.004": 12.1422226484,
			"0.005": 8.74538858816,
			"0.006": 5.25341293281,
			"0.007": 6.08467687821,
			"0.008": 5.20002497893,
			"0.009": 4.68893498261,
			"0.01": 4.2193350307,
			"0.011": 5.53911219268,
			"0.012": 5.12206679341,
			"0.013": 1.59485629772,
			"0.014": 0.93964063027,
			"0.015": 0.697819955839,
			"0.016": 0.272084931099,
			"0.017": 0.0,
			"0.018": 0.0,
			"0.019": 0.0,
			"0.02": 0.0,
			"0.021": 0.0,
			"0.022": 0.0,
			"0.023": 0.0,
			"0.024": 0.0,
			"0.025": 0.0
		}
	}
}
