{
	 "smiles": "CCOC1=NC=C(C=C1)S(N)(=O)=O", 
	 "Tm": 407.15, 
	 "num_atms": 23, 
	 "gaussian": { 
		 "optdone": 1, 
		 "sigma_profile": "yes", 
		 "theory": "DFT", 
		 "functional": "B3LYP", 
		 "basiset": "6-31G**", 
		 "properties": { 
			 "R2extent": 4402.2865, 
			 "electric_dipole_moment_norm": 6.04416226205, 
			 "electric_quadrupole_moment_norm": 29.2915938438, 
			 "total_energy": -1006.06273609, 
			 "HOMO_LUMO_gap": 0.20839, 
			 "cosmo_polarized_energy": -19.19, 
			 "cosmo_cavitation_energy": 28.84, 
			 "cosmo_dispersion_energy": -21.81, 
			 "cosmo_repulsion_energy": 1.71, 
			 "cosmo_total_nonelectrostatic_energy": 8.74, 
			 "SMD_solvation_energy": 4.22 
		},
		"coords": [
			{
				"x": 1.6130583053,
				"y": -3.8063801345,
				"z": 1.1004712599,
				"element": "C" 
			},
			{
				"x": 1.6660983797,
				"y": -2.395168433,
				"z": 0.5463487337,
				"element": "C" 
			},
			{
				"x": 0.4854709961,
				"y": -1.7099790107,
				"z": 1.018488485,
				"element": "O" 
			},
			{
				"x": 0.3172721849,
				"y": -0.4265364429,
				"z": 0.6637832634,
				"element": "C" 
			},
			{
				"x": 1.2232010726,
				"y": 0.1663061763,
				"z": -0.1136720573,
				"element": "N" 
			},
			{
				"x": 1.0152568374,
				"y": 1.4471073845,
				"z": -0.4481659561,
				"element": "C" 
			},
			{
				"x": -0.0995716461,
				"y": 2.1672469472,
				"z": -0.028392036,
				"element": "C" 
			},
			{
				"x": -1.0400547735,
				"y": 1.540252369,
				"z": 0.8064494044,
				"element": "C" 
			},
			{
				"x": -0.8347184992,
				"y": 0.2214653081,
				"z": 1.1606775877,
				"element": "C" 
			},
			{
				"x": -0.3236519754,
				"y": 3.869114707,
				"z": -0.5336373998,
				"element": "S" 
			},
			{
				"x": -1.223166695,
				"y": 3.8558181515,
				"z": -1.9544141591,
				"element": "N" 
			},
			{
				"x": -1.1827044223,
				"y": 4.5036173165,
				"z": 0.46466097,
				"element": "O" 
			},
			{
				"x": 0.9902232615,
				"y": 4.3872176906,
				"z": -0.9088250313,
				"element": "O" 
			},
			{
				"x": 2.4916883673,
				"y": -4.3672377389,
				"z": 0.7673959107,
				"element": "H" 
			},
			{
				"x": 1.6044215132,
				"y": -3.79678074,
				"z": 2.1940772751,
				"element": "H" 
			},
			{
				"x": 0.7177622697,
				"y": -4.3299110179,
				"z": 0.7530985389,
				"element": "H" 
			},
			{
				"x": 2.5545708067,
				"y": -1.8529898657,
				"z": 0.8854023206,
				"element": "H" 
			},
			{
				"x": 1.6738718388,
				"y": -2.3835488695,
				"z": -0.5484303417,
				"element": "H" 
			},
			{
				"x": 1.776540653,
				"y": 1.9231526352,
				"z": -1.0608344288,
				"element": "H" 
			},
			{
				"x": -1.8935722953,
				"y": 2.0977726838,
				"z": 1.1783030621,
				"element": "H" 
			},
			{
				"x": -1.5155871852,
				"y": -0.3181861316,
				"z": 1.8085248389,
				"element": "H" 
			},
			{
				"x": -0.7337575704,
				"y": 3.4208551108,
				"z": -2.7299446821,
				"element": "H" 
			},
			{
				"x": -2.1657514239,
				"y": 3.5023919042,
				"z": -1.8254655583,
				"element": "H" 
			}
		],
		 "valence_orbital": [ 
			{
				"type": "occ",
				"energy": -0.31245,
				"method": "rhf"
			},
			{
				"type": "occ",
				"energy": -0.30609,
				"method": "rhf"
			},
			{
				"type": "occ",
				"energy": -0.30255,
				"method": "rhf"
			},
			{
				"type": "occ",
				"energy": -0.28014,
				"method": "rhf"
			},
			{
				"type": "occ",
				"energy": -0.25072,
				"method": "rhf"
			},
			{
				"type": "unocc",
				"energy": -0.04233,
				"method": "rhf"
			},
			{
				"type": "unocc",
				"energy": -0.0361,
				"method": "rhf"
			},
			{
				"type": "unocc",
				"energy": 0.05057,
				"method": "rhf"
			},
			{
				"type": "unocc",
				"energy": 0.07958,
				"method": "rhf"
			},
			{
				"type": "unocc",
				"energy": 0.08799,
				"method": "rhf"
			}
		],
		"cosmo_sigma_profile": { 
			"-0.025": 0.0,
			"-0.024": 0.0,
			"-0.023": 0.0,
			"-0.022": 0.0,
			"-0.021": 0.0,
			"-0.02": 0.0,
			"-0.019": 0.0,
			"-0.018": 0.0,
			"-0.017": 0.0,
			"-0.016": 0.242608184464,
			"-0.015": 2.47140639696,
			"-0.014": 2.91459787936,
			"-0.013": 2.58714892853,
			"-0.012": 3.17372404251,
			"-0.011": 2.6909768056,
			"-0.01": 2.35626301594,
			"-0.009": 2.25179736448,
			"-0.008": 4.19603717249,
			"-0.007": 7.46031075593,
			"-0.006": 6.11942409783,
			"-0.005": 9.68895749534,
			"-0.004": 16.0422125466,
			"-0.003": 17.0236412646,
			"-0.002": 16.1024011531,
			"-0.001": 19.5391585391,
			"0.0": 23.4104920009,
			"0.001": 14.3048003896,
			"0.002": 8.20195888042,
			"0.003": 6.44964069036,
			"0.004": 5.70831139552,
			"0.005": 4.71482062472,
			"0.006": 6.83654160056,
			"0.007": 6.5740706522,
			"0.008": 7.06060796307,
			"0.009": 5.2874587516,
			"0.01": 9.21353968563,
			"0.011": 10.9238663013,
			"0.012": 5.16783368868,
			"0.013": 0.202811193614,
			"0.014": 0.0,
			"0.015": 0.0,
			"0.016": 0.0,
			"0.017": 0.0,
			"0.018": 0.0,
			"0.019": 0.0,
			"0.02": 0.0,
			"0.021": 0.0,
			"0.022": 0.0,
			"0.023": 0.0,
			"0.024": 0.0,
			"0.025": 0.0
		}
	}
}
