{
	 "smiles": "CC(C)C1=NN=C(N)O1", 
	 "Tm": 458.15, 
	 "num_atms": 18, 
	 "gaussian": { 
		 "optdone": 1, 
		 "sigma_profile": "yes", 
		 "theory": "DFT", 
		 "functional": "B3LYP", 
		 "basiset": "6-31G**", 
		 "properties": { 
			 "R2extent": 1732.847, 
			 "electric_dipole_moment_norm": 3.76405663746, 
			 "electric_quadrupole_moment_norm": 13.2520590864, 
			 "total_energy": -435.415539651, 
			 "HOMO_LUMO_gap": 0.24235, 
			 "cosmo_polarized_energy": -14.85, 
			 "cosmo_cavitation_energy": 21.94, 
			 "cosmo_dispersion_energy": -16.08, 
			 "cosmo_repulsion_energy": 1.36, 
			 "cosmo_total_nonelectrostatic_energy": 7.22, 
			 "SMD_solvation_energy": 2.47 
		},
		"coords": [
			{
				"x": -2.0884454695,
				"y": -0.2529516208,
				"z": -2.5622904282,
				"element": "C" 
			},
			{
				"x": -1.3540555594,
				"y": 0.1984468692,
				"z": -1.2852820925,
				"element": "C" 
			},
			{
				"x": -0.5763297757,
				"y": 1.5080345163,
				"z": -1.5174522722,
				"element": "C" 
			},
			{
				"x": -0.4373760445,
				"y": -0.8829654514,
				"z": -0.7934149244,
				"element": "C" 
			},
			{
				"x": 0.5821265824,
				"y": -1.4186824563,
				"z": -1.3725961084,
				"element": "N" 
			},
			{
				"x": 1.1128525415,
				"y": -2.3734034749,
				"z": -0.4875702623,
				"element": "N" 
			},
			{
				"x": 0.3423431632,
				"y": -2.3349311096,
				"z": 0.5568305723,
				"element": "C" 
			},
			{
				"x": 0.3783428141,
				"y": -3.1260567726,
				"z": 1.6763476074,
				"element": "N" 
			},
			{
				"x": -0.6615757356,
				"y": -1.4241771506,
				"z": 0.4603792779,
				"element": "O" 
			},
			{
				"x": -2.676303256,
				"y": -1.1585299517,
				"z": -2.385048528,
				"element": "H" 
			},
			{
				"x": -1.3697275122,
				"y": -0.4668068814,
				"z": -3.3585135389,
				"element": "H" 
			},
			{
				"x": -2.7665717735,
				"y": 0.5338035457,
				"z": -2.9081691603,
				"element": "H" 
			},
			{
				"x": -2.0935441277,
				"y": 0.3627205486,
				"z": -0.4929171734,
				"element": "H" 
			},
			{
				"x": 0.198842982,
				"y": 1.360453478,
				"z": -2.274825163,
				"element": "H" 
			},
			{
				"x": -0.0908130306,
				"y": 1.8522020887,
				"z": -0.5991641497,
				"element": "H" 
			},
			{
				"x": -1.2535770698,
				"y": 2.2960174678,
				"z": -1.8622979609,
				"element": "H" 
			},
			{
				"x": 1.2482696432,
				"y": -3.6334063622,
				"z": 1.7655408755,
				"element": "H" 
			},
			{
				"x": 0.081541628,
				"y": -2.674767283,
				"z": 2.5310434291,
				"element": "H" 
			}
		],
		 "valence_orbital": [ 
			{
				"type": "occ",
				"energy": -0.33931,
				"method": "rhf"
			},
			{
				"type": "occ",
				"energy": -0.32648,
				"method": "rhf"
			},
			{
				"type": "occ",
				"energy": -0.305,
				"method": "rhf"
			},
			{
				"type": "occ",
				"energy": -0.26371,
				"method": "rhf"
			},
			{
				"type": "occ",
				"energy": -0.22765,
				"method": "rhf"
			},
			{
				"type": "unocc",
				"energy": 0.0147,
				"method": "rhf"
			},
			{
				"type": "unocc",
				"energy": 0.0533,
				"method": "rhf"
			},
			{
				"type": "unocc",
				"energy": 0.07044,
				"method": "rhf"
			},
			{
				"type": "unocc",
				"energy": 0.09051,
				"method": "rhf"
			},
			{
				"type": "unocc",
				"energy": 0.11871,
				"method": "rhf"
			}
		],
		"cosmo_sigma_profile": { 
			"-0.025": 0.0,
			"-0.024": 0.0,
			"-0.023": 0.0,
			"-0.022": 0.0,
			"-0.021": 0.0,
			"-0.02": 0.0,
			"-0.019": 0.0,
			"-0.018": 0.0,
			"-0.017": 0.0,
			"-0.016": 0.018536583058,
			"-0.015": 1.29074286485,
			"-0.014": 2.95491097376,
			"-0.013": 2.25025931345,
			"-0.012": 2.17399684754,
			"-0.011": 2.99909233354,
			"-0.01": 1.74371683544,
			"-0.009": 2.33266931164,
			"-0.008": 1.89389239318,
			"-0.007": 1.60135638237,
			"-0.006": 1.31536975695,
			"-0.005": 3.92148303722,
			"-0.004": 13.7254351237,
			"-0.003": 21.3596557444,
			"-0.002": 18.9798403995,
			"-0.001": 15.2251025245,
			"0.0": 17.2209130286,
			"0.001": 11.8071275638,
			"0.002": 4.62909441544,
			"0.003": 4.87175894851,
			"0.004": 5.00915246217,
			"0.005": 4.61067956054,
			"0.006": 4.15815956451,
			"0.007": 1.97721849044,
			"0.008": 1.98294040274,
			"0.009": 2.65426246457,
			"0.01": 2.63549385692,
			"0.011": 3.20448269601,
			"0.012": 2.65542437757,
			"0.013": 3.5289267637,
			"0.014": 3.19557700864,
			"0.015": 2.04253273236,
			"0.016": 2.01531399332,
			"0.017": 0.336285420937,
			"0.018": 0.0,
			"0.019": 0.0,
			"0.02": 0.0,
			"0.021": 0.0,
			"0.022": 0.0,
			"0.023": 0.0,
			"0.024": 0.0,
			"0.025": 0.0
		}
	}
}
