{
	 "smiles": "CC1=CC2=C(C=C1)C(=CN2)C1=CCNCC1", 
	 "Tm": 452.15, 
	 "num_atms": 32, 
	 "gaussian": { 
		 "optdone": 1, 
		 "sigma_profile": "yes", 
		 "theory": "DFT", 
		 "functional": "B3LYP", 
		 "basiset": "6-31G**", 
		 "properties": { 
			 "R2extent": 4676.4407, 
			 "electric_dipole_moment_norm": 2.40065248006, 
			 "electric_quadrupole_moment_norm": 13.8393745881, 
			 "total_energy": -652.62732357, 
			 "HOMO_LUMO_gap": 0.17888, 
			 "cosmo_polarized_energy": -11.82, 
			 "cosmo_cavitation_energy": 33.61, 
			 "cosmo_dispersion_energy": -24.94, 
			 "cosmo_repulsion_energy": 1.94, 
			 "cosmo_total_nonelectrostatic_energy": 10.62, 
			 "SMD_solvation_energy": 2.67 
		},
		"coords": [
			{
				"x": 1.3699292999,
				"y": 4.5066018386,
				"z": -1.9592530665,
				"element": "C" 
			},
			{
				"x": 1.1731532415,
				"y": 3.1402175448,
				"z": -1.3442235418,
				"element": "C" 
			},
			{
				"x": 2.1822952678,
				"y": 2.1826722984,
				"z": -1.3921668495,
				"element": "C" 
			},
			{
				"x": 1.9451866101,
				"y": 0.9317459594,
				"z": -0.8109591871,
				"element": "C" 
			},
			{
				"x": 0.7185696378,
				"y": 0.5961534721,
				"z": -0.1770470328,
				"element": "C" 
			},
			{
				"x": -0.2840887162,
				"y": 1.5835672496,
				"z": -0.1284540887,
				"element": "C" 
			},
			{
				"x": -0.051097644,
				"y": 2.8227313089,
				"z": -0.7064173914,
				"element": "C" 
			},
			{
				"x": 0.8443199305,
				"y": -0.764263968,
				"z": 0.3117833911,
				"element": "C" 
			},
			{
				"x": 2.1067167384,
				"y": -1.1807063448,
				"z": -0.0524270822,
				"element": "C" 
			},
			{
				"x": 2.7720736275,
				"y": -0.1683032292,
				"z": -0.7137358817,
				"element": "N" 
			},
			{
				"x": -0.1452558408,
				"y": -1.5808319937,
				"z": 1.0355848243,
				"element": "C" 
			},
			{
				"x": 0.2208378131,
				"y": -2.4562127281,
				"z": 1.9890072359,
				"element": "C" 
			},
			{
				"x": -0.7362051335,
				"y": -3.3639421205,
				"z": 2.713842386,
				"element": "C" 
			},
			{
				"x": -2.1259048053,
				"y": -2.9730869075,
				"z": 2.4846653586,
				"element": "N" 
			},
			{
				"x": -2.394662288,
				"y": -2.7026157899,
				"z": 1.0737858933,
				"element": "C" 
			},
			{
				"x": -1.6111236851,
				"y": -1.4568787469,
				"z": 0.6524333023,
				"element": "C" 
			},
			{
				"x": 2.3695652222,
				"y": 4.612281671,
				"z": -2.3906130815,
				"element": "H" 
			},
			{
				"x": 1.241739628,
				"y": 5.3024963965,
				"z": -1.2160041438,
				"element": "H" 
			},
			{
				"x": 0.6417186469,
				"y": 4.6955191662,
				"z": -2.7572395122,
				"element": "H" 
			},
			{
				"x": 3.1337930606,
				"y": 2.4051809402,
				"z": -1.8693955923,
				"element": "H" 
			},
			{
				"x": -1.2338451207,
				"y": 1.3853050571,
				"z": 0.3569899704,
				"element": "H" 
			},
			{
				"x": -0.8299431471,
				"y": 3.5805461052,
				"z": -0.6679003493,
				"element": "H" 
			},
			{
				"x": 2.5722648275,
				"y": -2.1452822159,
				"z": 0.0901414702,
				"element": "H" 
			},
			{
				"x": 3.6917647928,
				"y": -0.2436432042,
				"z": -1.1160123953,
				"element": "H" 
			},
			{
				"x": 1.2674867794,
				"y": -2.5390895153,
				"z": 2.2739599075,
				"element": "H" 
			},
			{
				"x": -0.5342965402,
				"y": -3.3221276013,
				"z": 3.7934237719,
				"element": "H" 
			},
			{
				"x": -0.5229085321,
				"y": -4.410346098,
				"z": 2.4064802165,
				"element": "H" 
			},
			{
				"x": -2.7466094607,
				"y": -3.6992552381,
				"z": 2.8291666606,
				"element": "H" 
			},
			{
				"x": -3.469752366,
				"y": -2.5338454789,
				"z": 0.9483761445,
				"element": "H" 
			},
			{
				"x": -2.1154290891,
				"y": -3.5440539661,
				"z": 0.4098543136,
				"element": "H" 
			},
			{
				"x": -1.7036936354,
				"y": -1.3016550011,
				"z": -0.4289271795,
				"element": "H" 
			},
			{
				"x": -2.0533991198,
				"y": -0.5786788603,
				"z": 1.1403815289,
				"element": "H" 
			}
		],
		 "valence_orbital": [ 
			{
				"type": "occ",
				"energy": -0.27546,
				"method": "rhf"
			},
			{
				"type": "occ",
				"energy": -0.23394,
				"method": "rhf"
			},
			{
				"type": "occ",
				"energy": -0.21289,
				"method": "rhf"
			},
			{
				"type": "occ",
				"energy": -0.2109,
				"method": "rhf"
			},
			{
				"type": "occ",
				"energy": -0.18315,
				"method": "rhf"
			},
			{
				"type": "unocc",
				"energy": -0.00427,
				"method": "rhf"
			},
			{
				"type": "unocc",
				"energy": 0.02215,
				"method": "rhf"
			},
			{
				"type": "unocc",
				"energy": 0.032,
				"method": "rhf"
			},
			{
				"type": "unocc",
				"energy": 0.08283,
				"method": "rhf"
			},
			{
				"type": "unocc",
				"energy": 0.09107,
				"method": "rhf"
			}
		],
		"cosmo_sigma_profile": { 
			"-0.025": 0.0,
			"-0.024": 0.0,
			"-0.023": 0.0,
			"-0.022": 0.0,
			"-0.021": 0.0,
			"-0.02": 0.0,
			"-0.019": 0.0,
			"-0.018": 0.0,
			"-0.017": 0.0,
			"-0.016": 0.203863533959,
			"-0.015": 1.4011969223,
			"-0.014": 1.54144478608,
			"-0.013": 1.26663898553,
			"-0.012": 1.02900048399,
			"-0.011": 1.20988827569,
			"-0.01": 2.16959132139,
			"-0.009": 2.92817503977,
			"-0.008": 2.61872550051,
			"-0.007": 4.21145725692,
			"-0.006": 4.99097816529,
			"-0.005": 7.77898573895,
			"-0.004": 16.9826327338,
			"-0.003": 24.0137613362,
			"-0.002": 29.5259034117,
			"-0.001": 32.9395176216,
			"0.0": 26.459954715,
			"0.001": 15.8155090143,
			"0.002": 12.7900033044,
			"0.003": 10.3801394532,
			"0.004": 11.7712288354,
			"0.005": 15.1315162553,
			"0.006": 16.0422104158,
			"0.007": 11.783576015,
			"0.008": 3.15215983491,
			"0.009": 0.549837520805,
			"0.01": 1.0693998815,
			"0.011": 0.98031153391,
			"0.012": 0.782759994468,
			"0.013": 0.358642706148,
			"0.014": 0.518147152231,
			"0.015": 0.780928416961,
			"0.016": 0.538942432726,
			"0.017": 0.441042463706,
			"0.018": 0.40503643652,
			"0.019": 0.113864082947,
			"0.02": 0.0,
			"0.021": 0.0,
			"0.022": 0.0,
			"0.023": 0.0,
			"0.024": 0.0,
			"0.025": 0.0
		}
	}
}
