{
	 "smiles": "CC1=CC=C(C=C1C)C(=O)N(NC(=O)C1=CC=CC=C1)C(C)(C)C", 
	 "Tm": 499.15, 
	 "num_atms": 48, 
	 "gaussian": { 
		 "optdone": 1, 
		 "sigma_profile": "yes", 
		 "theory": "DFT", 
		 "functional": "B3LYP", 
		 "basiset": "6-31G**", 
		 "properties": { 
			 "R2extent": 8296.2908, 
			 "electric_dipole_moment_norm": 1.48897452631, 
			 "electric_quadrupole_moment_norm": 19.4738106602, 
			 "total_energy": -1036.556632, 
			 "HOMO_LUMO_gap": 0.18509, 
			 "cosmo_polarized_energy": -14.72, 
			 "cosmo_cavitation_energy": 48.12, 
			 "cosmo_dispersion_energy": -31.55, 
			 "cosmo_repulsion_energy": 2.38, 
			 "cosmo_total_nonelectrostatic_energy": 18.94, 
			 "SMD_solvation_energy": 9.84 
		},
		"coords": [
			{
				"x": -3.2583307396,
				"y": -4.2695355156,
				"z": -1.0788303058,
				"element": "C" 
			},
			{
				"x": -2.6340471945,
				"y": -2.9043253834,
				"z": -0.9265736286,
				"element": "C" 
			},
			{
				"x": -3.053435702,
				"y": -1.8409251719,
				"z": -1.7337572773,
				"element": "C" 
			},
			{
				"x": -2.4994716787,
				"y": -0.5707264304,
				"z": -1.6082825679,
				"element": "C" 
			},
			{
				"x": -1.4743140311,
				"y": -0.336940515,
				"z": -0.6826009732,
				"element": "C" 
			},
			{
				"x": -1.0574437794,
				"y": -1.3980731869,
				"z": 0.1335436888,
				"element": "C" 
			},
			{
				"x": -1.6253290293,
				"y": -2.6708309086,
				"z": 0.0335745505,
				"element": "C" 
			},
			{
				"x": -1.154084655,
				"y": -3.7783916248,
				"z": 0.946265934,
				"element": "C" 
			},
			{
				"x": -0.9973892508,
				"y": 1.0885318411,
				"z": -0.5870598641,
				"element": "C" 
			},
			{
				"x": -1.7995251737,
				"y": 1.9999034004,
				"z": -0.7597176378,
				"element": "O" 
			},
			{
				"x": 0.3561639031,
				"y": 1.3623405684,
				"z": -0.3229299887,
				"element": "N" 
			},
			{
				"x": 1.2470930964,
				"y": 0.3336577589,
				"z": -0.6175998603,
				"element": "N" 
			},
			{
				"x": 2.1821028617,
				"y": -0.2749160843,
				"z": 0.2037791095,
				"element": "C" 
			},
			{
				"x": 3.0269818445,
				"y": -0.9749561838,
				"z": -0.3469323631,
				"element": "O" 
			},
			{
				"x": 2.1654722504,
				"y": -0.1291840854,
				"z": 1.7023193765,
				"element": "C" 
			},
			{
				"x": 1.1352826459,
				"y": 0.4351865268,
				"z": 2.473996799,
				"element": "C" 
			},
			{
				"x": 1.2370958977,
				"y": 0.4710168938,
				"z": 3.8658418603,
				"element": "C" 
			},
			{
				"x": 2.3641983625,
				"y": -0.0450348644,
				"z": 4.5057776175,
				"element": "C" 
			},
			{
				"x": 3.3931121574,
				"y": -0.6085102911,
				"z": 3.7468479174,
				"element": "C" 
			},
			{
				"x": 3.2913004443,
				"y": -0.6545765853,
				"z": 2.3598312137,
				"element": "C" 
			},
			{
				"x": 0.875180261,
				"y": 2.7908369072,
				"z": -0.4879829459,
				"element": "C" 
			},
			{
				"x": 0.1711872595,
				"y": 3.7089538393,
				"z": 0.5285667814,
				"element": "C" 
			},
			{
				"x": 2.3834328181,
				"y": 2.8179940133,
				"z": -0.1926615287,
				"element": "C" 
			},
			{
				"x": 0.6391149483,
				"y": 3.2678795235,
				"z": -1.9343541235,
				"element": "C" 
			},
			{
				"x": -2.5100477305,
				"y": -5.0293473846,
				"z": -1.3351727238,
				"element": "H" 
			},
			{
				"x": -3.7358080893,
				"y": -4.6012642854,
				"z": -0.1487770918,
				"element": "H" 
			},
			{
				"x": -4.0188258367,
				"y": -4.2706006726,
				"z": -1.8638512888,
				"element": "H" 
			},
			{
				"x": -3.8359953197,
				"y": -2.011291918,
				"z": -2.4688621331,
				"element": "H" 
			},
			{
				"x": -2.8561004617,
				"y": 0.2523691642,
				"z": -2.2176536278,
				"element": "H" 
			},
			{
				"x": -0.2927045313,
				"y": -1.2397420516,
				"z": 0.8836574676,
				"element": "H" 
			},
			{
				"x": -0.7428516525,
				"y": -4.6218823201,
				"z": 0.378630926,
				"element": "H" 
			},
			{
				"x": -1.9740973372,
				"y": -4.1780706318,
				"z": 1.5552905597,
				"element": "H" 
			},
			{
				"x": -0.3745141254,
				"y": -3.4248044796,
				"z": 1.6255609618,
				"element": "H" 
			},
			{
				"x": 1.4365116758,
				"y": 0.1468309753,
				"z": -1.5982838399,
				"element": "H" 
			},
			{
				"x": 0.2573969235,
				"y": 0.847429022,
				"z": 1.9970623434,
				"element": "H" 
			},
			{
				"x": 0.4300482967,
				"y": 0.9054876824,
				"z": 4.4484506297,
				"element": "H" 
			},
			{
				"x": 2.4400359208,
				"y": -0.0102177905,
				"z": 5.588898743,
				"element": "H" 
			},
			{
				"x": 4.2728949547,
				"y": -1.0151816201,
				"z": 4.2369599239,
				"element": "H" 
			},
			{
				"x": 4.0720454312,
				"y": -1.0998129565,
				"z": 1.7538399739,
				"element": "H" 
			},
			{
				"x": -0.9018233469,
				"y": 3.7540231573,
				"z": 0.3540530797,
				"element": "H" 
			},
			{
				"x": 0.5856096962,
				"y": 4.7188200132,
				"z": 0.4424922661,
				"element": "H" 
			},
			{
				"x": 0.3534423547,
				"y": 3.3591017364,
				"z": 1.5495326991,
				"element": "H" 
			},
			{
				"x": 2.6085464435,
				"y": 2.4637639236,
				"z": 0.8161743231,
				"element": "H" 
			},
			{
				"x": 2.9650475556,
				"y": 2.2305369154,
				"z": -0.907049817,
				"element": "H" 
			},
			{
				"x": 2.7224823163,
				"y": 3.855346927,
				"z": -0.2644768162,
				"element": "H" 
			},
			{
				"x": 1.0561552142,
				"y": 4.2716859367,
				"z": -2.0646458932,
				"element": "H" 
			},
			{
				"x": -0.4243048841,
				"y": 3.3000070671,
				"z": -2.1714719418,
				"element": "H" 
			},
			{
				"x": 1.1445090155,
				"y": 2.6077391485,
				"z": -2.6492205076,
				"element": "H" 
			}
		],
		 "valence_orbital": [ 
			{
				"type": "occ",
				"energy": -0.2599,
				"method": "rhf"
			},
			{
				"type": "occ",
				"energy": -0.25738,
				"method": "rhf"
			},
			{
				"type": "occ",
				"energy": -0.24873,
				"method": "rhf"
			},
			{
				"type": "occ",
				"energy": -0.24292,
				"method": "rhf"
			},
			{
				"type": "occ",
				"energy": -0.23254,
				"method": "rhf"
			},
			{
				"type": "unocc",
				"energy": -0.04745,
				"method": "rhf"
			},
			{
				"type": "unocc",
				"energy": -0.03253,
				"method": "rhf"
			},
			{
				"type": "unocc",
				"energy": -0.01132,
				"method": "rhf"
			},
			{
				"type": "unocc",
				"energy": 0.00209,
				"method": "rhf"
			},
			{
				"type": "unocc",
				"energy": 0.03858,
				"method": "rhf"
			}
		],
		"cosmo_sigma_profile": { 
			"-0.025": 0.0,
			"-0.024": 0.0,
			"-0.023": 0.0,
			"-0.022": 0.0,
			"-0.021": 0.0,
			"-0.02": 0.0,
			"-0.019": 0.0,
			"-0.018": 0.0,
			"-0.017": 0.0,
			"-0.016": 0.0,
			"-0.015": 0.0,
			"-0.014": 0.0761287114733,
			"-0.013": 0.967427424098,
			"-0.012": 0.673495687752,
			"-0.011": 1.0061678977,
			"-0.01": 1.7886452541,
			"-0.009": 1.54798835699,
			"-0.008": 1.65296122554,
			"-0.007": 2.31139669876,
			"-0.006": 9.30268522812,
			"-0.005": 18.8836391473,
			"-0.004": 39.4529894253,
			"-0.003": 35.2298578871,
			"-0.002": 37.7291193711,
			"-0.001": 39.7338705328,
			"0.0": 45.8786793825,
			"0.001": 35.4991560634,
			"0.002": 19.781118311,
			"0.003": 19.9014755843,
			"0.004": 21.0461368741,
			"0.005": 13.7190961094,
			"0.006": 4.92302827014,
			"0.007": 4.11274533566,
			"0.008": 2.54749039249,
			"0.009": 1.94557099562,
			"0.01": 3.63549808069,
			"0.011": 2.97693624348,
			"0.012": 4.8378121513,
			"0.013": 7.20163658094,
			"0.014": 1.04362672991,
			"0.015": 0.0,
			"0.016": 0.0,
			"0.017": 0.0,
			"0.018": 0.0,
			"0.019": 0.0,
			"0.02": 0.0,
			"0.021": 0.0,
			"0.022": 0.0,
			"0.023": 0.0,
			"0.024": 0.0,
			"0.025": 0.0
		}
	}
}
