{
	 "smiles": "CCC1=NOC(N)=C1", 
	 "Tm": 323.15, 
	 "num_atms": 16, 
	 "gaussian": { 
		 "optdone": 1, 
		 "sigma_profile": "yes", 
		 "theory": "DFT", 
		 "functional": "B3LYP", 
		 "basiset": "6-31G**", 
		 "properties": { 
			 "R2extent": 1336.0556, 
			 "electric_dipole_moment_norm": 3.65665899559, 
			 "electric_quadrupole_moment_norm": 14.6786342263, 
			 "total_energy": -380.03679381, 
			 "HOMO_LUMO_gap": 0.23187, 
			 "cosmo_polarized_energy": -12.49, 
			 "cosmo_cavitation_energy": 19.89, 
			 "cosmo_dispersion_energy": -14.83, 
			 "cosmo_repulsion_energy": 1.27, 
			 "cosmo_total_nonelectrostatic_energy": 6.33, 
			 "SMD_solvation_energy": 3.56 
		},
		"coords": [
			{
				"x": 1.1974069399,
				"y": 1.2882203515,
				"z": 1.0657907913,
				"element": "C" 
			},
			{
				"x": 0.4436389568,
				"y": -0.0509145999,
				"z": 1.111342056,
				"element": "C" 
			},
			{
				"x": -0.5935875085,
				"y": -0.1796942025,
				"z": 0.0319948846,
				"element": "C" 
			},
			{
				"x": -1.8634639282,
				"y": -0.2576667482,
				"z": 0.3658968132,
				"element": "N" 
			},
			{
				"x": -2.5616075753,
				"y": -0.3555006441,
				"z": -0.8707041494,
				"element": "O" 
			},
			{
				"x": -1.6694793724,
				"y": -0.3283897733,
				"z": -1.8740575943,
				"element": "C" 
			},
			{
				"x": -2.191407145,
				"y": -0.3585022838,
				"z": -3.1464180691,
				"element": "N" 
			},
			{
				"x": -0.3963299185,
				"y": -0.2199349992,
				"z": -1.3791527123,
				"element": "C" 
			},
			{
				"x": 1.9404349558,
				"y": 1.3395844648,
				"z": 1.8678527596,
				"element": "H" 
			},
			{
				"x": 1.7212762602,
				"y": 1.4209237315,
				"z": 0.1136541913,
				"element": "H" 
			},
			{
				"x": 0.5064457176,
				"y": 2.1278624312,
				"z": 1.1869759769,
				"element": "H" 
			},
			{
				"x": 1.1586358722,
				"y": -0.8782305747,
				"z": 1.0184904882,
				"element": "H" 
			},
			{
				"x": -0.0588817629,
				"y": -0.1685971418,
				"z": 2.0762972632,
				"element": "H" 
			},
			{
				"x": -1.5670238972,
				"y": -0.7125469797,
				"z": -3.8566007586,
				"element": "H" 
			},
			{
				"x": -3.1236188463,
				"y": -0.7466822435,
				"z": -3.2038637131,
				"element": "H" 
			},
			{
				"x": 0.5305612518,
				"y": -0.1706307882,
				"z": -1.9288982276,
				"element": "H" 
			}
		],
		 "valence_orbital": [ 
			{
				"type": "occ",
				"energy": -0.34517,
				"method": "rhf"
			},
			{
				"type": "occ",
				"energy": -0.33214,
				"method": "rhf"
			},
			{
				"type": "occ",
				"energy": -0.28938,
				"method": "rhf"
			},
			{
				"type": "occ",
				"energy": -0.27327,
				"method": "rhf"
			},
			{
				"type": "occ",
				"energy": -0.21366,
				"method": "rhf"
			},
			{
				"type": "unocc",
				"energy": 0.01821,
				"method": "rhf"
			},
			{
				"type": "unocc",
				"energy": 0.06133,
				"method": "rhf"
			},
			{
				"type": "unocc",
				"energy": 0.08009,
				"method": "rhf"
			},
			{
				"type": "unocc",
				"energy": 0.10628,
				"method": "rhf"
			},
			{
				"type": "unocc",
				"energy": 0.11287,
				"method": "rhf"
			}
		],
		"cosmo_sigma_profile": { 
			"-0.025": 0.0,
			"-0.024": 0.0,
			"-0.023": 0.0,
			"-0.022": 0.0,
			"-0.021": 0.0,
			"-0.02": 0.0,
			"-0.019": 0.0,
			"-0.018": 0.0,
			"-0.017": 0.0,
			"-0.016": 0.0,
			"-0.015": 0.281234604795,
			"-0.014": 2.45764715761,
			"-0.013": 2.98401479842,
			"-0.012": 1.84024169964,
			"-0.011": 2.9121668099,
			"-0.01": 2.95319892481,
			"-0.009": 1.73155595995,
			"-0.008": 1.79470189889,
			"-0.007": 3.74840232263,
			"-0.006": 3.49092501318,
			"-0.005": 3.68800994132,
			"-0.004": 8.68939083653,
			"-0.003": 14.5481195976,
			"-0.002": 13.1404833606,
			"-0.001": 15.8181019794,
			"0.0": 12.3082874198,
			"0.001": 9.75101146981,
			"0.002": 6.82188737766,
			"0.003": 7.25421899805,
			"0.004": 6.90755997725,
			"0.005": 5.50895754101,
			"0.006": 3.64784606084,
			"0.007": 2.96903024599,
			"0.008": 3.07770356031,
			"0.009": 5.759359334,
			"0.01": 2.58260942464,
			"0.011": 2.9757043699,
			"0.012": 1.82322872727,
			"0.013": 1.88324851519,
			"0.014": 1.30187369911,
			"0.015": 1.19592999025,
			"0.016": 0.812539643693,
			"0.017": 0.0,
			"0.018": 0.0,
			"0.019": 0.0,
			"0.02": 0.0,
			"0.021": 0.0,
			"0.022": 0.0,
			"0.023": 0.0,
			"0.024": 0.0,
			"0.025": 0.0
		}
	}
}
