{
	 "smiles": "CC1=CC(C)=C(C(O)=O)C(C)=C1", 
	 "Tm": 426.15, 
	 "num_atms": 24, 
	 "gaussian": { 
		 "optdone": 1, 
		 "sigma_profile": "yes", 
		 "theory": "DFT", 
		 "functional": "B3LYP", 
		 "basiset": "6-31G**", 
		 "properties": { 
			 "R2extent": 2649.2901, 
			 "electric_dipole_moment_norm": 1.83000404644, 
			 "electric_quadrupole_moment_norm": 9.7652064182, 
			 "total_energy": -538.778164442, 
			 "HOMO_LUMO_gap": 0.20236, 
			 "cosmo_polarized_energy": -8.36, 
			 "cosmo_cavitation_energy": 26.82, 
			 "cosmo_dispersion_energy": -19.64, 
			 "cosmo_repulsion_energy": 1.56, 
			 "cosmo_total_nonelectrostatic_energy": 8.75, 
			 "SMD_solvation_energy": 5.74 
		},
		"coords": [
			{
				"x": -0.0502685671,
				"y": 0.3806578179,
				"z": 2.6270577022,
				"element": "C" 
			},
			{
				"x": 0.1964719545,
				"y": 0.195975693,
				"z": 1.1494012763,
				"element": "C" 
			},
			{
				"x": 0.9862139913,
				"y": 1.0982166901,
				"z": 0.4336626348,
				"element": "C" 
			},
			{
				"x": 1.2160075278,
				"y": 0.9630301974,
				"z": -0.9379726732,
				"element": "C" 
			},
			{
				"x": 2.102034208,
				"y": 1.9849802795,
				"z": -1.6151380747,
				"element": "C" 
			},
			{
				"x": 0.6025482258,
				"y": -0.1138190658,
				"z": -1.6278253317,
				"element": "C" 
			},
			{
				"x": 0.8585949827,
				"y": -0.2422173296,
				"z": -3.0908813951,
				"element": "C" 
			},
			{
				"x": -0.1848696779,
				"y": -0.7629763567,
				"z": -3.7900990779,
				"element": "O" 
			},
			{
				"x": 1.877841926,
				"y": 0.0945933642,
				"z": -3.6644009108,
				"element": "O" 
			},
			{
				"x": -0.1996573858,
				"y": -1.0463619722,
				"z": -0.9230835759,
				"element": "C" 
			},
			{
				"x": -0.8589059668,
				"y": -2.2491113601,
				"z": -1.5655733724,
				"element": "C" 
			},
			{
				"x": -0.3736483652,
				"y": -0.8719436692,
				"z": 0.4529920755,
				"element": "C" 
			},
			{
				"x": -0.9370503869,
				"y": 1.0029743312,
				"z": 2.8016275799,
				"element": "H" 
			},
			{
				"x": 0.7945005371,
				"y": 0.8752476658,
				"z": 3.115584028,
				"element": "H" 
			},
			{
				"x": -0.2220882976,
				"y": -0.5769731875,
				"z": 3.1273613432,
				"element": "H" 
			},
			{
				"x": 1.4462822472,
				"y": 1.9322805532,
				"z": 0.958181791,
				"element": "H" 
			},
			{
				"x": 1.6422764599,
				"y": 2.3969632143,
				"z": -2.5176267035,
				"element": "H" 
			},
			{
				"x": 2.314968281,
				"y": 2.8085527146,
				"z": -0.9281960536,
				"element": "H" 
			},
			{
				"x": 3.0475693063,
				"y": 1.53950462,
				"z": -1.9345168773,
				"element": "H" 
			},
			{
				"x": 0.1219526576,
				"y": -0.7975291683,
				"z": -4.7118828895,
				"element": "H" 
			},
			{
				"x": -1.2264279875,
				"y": -2.9287458546,
				"z": -0.7922004984,
				"element": "H" 
			},
			{
				"x": -1.7037952633,
				"y": -1.9553505449,
				"z": -2.1945116397,
				"element": "H" 
			},
			{
				"x": -0.1704893849,
				"y": -2.8041449916,
				"z": -2.2081462861,
				"element": "H" 
			},
			{
				"x": -0.974361022,
				"y": -1.5972036408,
				"z": 0.9967869288,
				"element": "H" 
			}
		],
		 "valence_orbital": [ 
			{
				"type": "occ",
				"energy": -0.33414,
				"method": "rhf"
			},
			{
				"type": "occ",
				"energy": -0.31092,
				"method": "rhf"
			},
			{
				"type": "occ",
				"energy": -0.27006,
				"method": "rhf"
			},
			{
				"type": "occ",
				"energy": -0.24111,
				"method": "rhf"
			},
			{
				"type": "occ",
				"energy": -0.23915,
				"method": "rhf"
			},
			{
				"type": "unocc",
				"energy": -0.03679,
				"method": "rhf"
			},
			{
				"type": "unocc",
				"energy": 0.00151,
				"method": "rhf"
			},
			{
				"type": "unocc",
				"energy": 0.04971,
				"method": "rhf"
			},
			{
				"type": "unocc",
				"energy": 0.08347,
				"method": "rhf"
			},
			{
				"type": "unocc",
				"energy": 0.10311,
				"method": "rhf"
			}
		],
		"cosmo_sigma_profile": { 
			"-0.025": 0.0,
			"-0.024": 0.0,
			"-0.023": 0.0,
			"-0.022": 0.0,
			"-0.021": 0.0,
			"-0.02": 0.0,
			"-0.019": 0.0,
			"-0.018": 0.439208958895,
			"-0.017": 0.71669739357,
			"-0.016": 1.07019096316,
			"-0.015": 0.509919649931,
			"-0.014": 0.580394955332,
			"-0.013": 0.278713344435,
			"-0.012": 0.815884185523,
			"-0.011": 0.882251265835,
			"-0.01": 1.19781616947,
			"-0.009": 0.544720294345,
			"-0.008": 0.269652274506,
			"-0.007": 0.792363930508,
			"-0.006": 1.4601534654,
			"-0.005": 8.03847089615,
			"-0.004": 19.7884977167,
			"-0.003": 19.9624249402,
			"-0.002": 21.1850617481,
			"-0.001": 22.6850107012,
			"0.0": 26.9933967517,
			"0.001": 18.4771524021,
			"0.002": 10.6963691652,
			"0.003": 11.1749740488,
			"0.004": 12.4451024976,
			"0.005": 11.5783631248,
			"0.006": 2.95661195295,
			"0.007": 2.61558931396,
			"0.008": 2.15608774125,
			"0.009": 2.11139731792,
			"0.01": 1.68328420131,
			"0.011": 2.6826482088,
			"0.012": 3.88686730273,
			"0.013": 0.494291603654,
			"0.014": 0.0,
			"0.015": 0.0,
			"0.016": 0.0,
			"0.017": 0.0,
			"0.018": 0.0,
			"0.019": 0.0,
			"0.02": 0.0,
			"0.021": 0.0,
			"0.022": 0.0,
			"0.023": 0.0,
			"0.024": 0.0,
			"0.025": 0.0
		}
	}
}
