{
	 "smiles": "CC1=CC2=C(NC(=O)C2=O)C(C)=C1", 
	 "Tm": 518.15, 
	 "num_atms": 22, 
	 "gaussian": { 
		 "optdone": 1, 
		 "sigma_profile": "yes", 
		 "theory": "DFT", 
		 "functional": "B3LYP", 
		 "basiset": "6-31G**", 
		 "properties": { 
			 "R2extent": 2906.4726, 
			 "electric_dipole_moment_norm": 6.48199801759, 
			 "electric_quadrupole_moment_norm": 16.5038415522, 
			 "total_energy": -591.703092283, 
			 "HOMO_LUMO_gap": 0.13621, 
			 "cosmo_polarized_energy": -15.19, 
			 "cosmo_cavitation_energy": 26.66, 
			 "cosmo_dispersion_energy": -19.31, 
			 "cosmo_repulsion_energy": 1.52, 
			 "cosmo_total_nonelectrostatic_energy": 8.87, 
			 "SMD_solvation_energy": 5.93 
		},
		"coords": [
			{
				"x": -1.7066582137,
				"y": -1.9284752684,
				"z": -2.096375284,
				"element": "C" 
			},
			{
				"x": -0.4938962817,
				"y": -1.2722823069,
				"z": -1.4774295359,
				"element": "C" 
			},
			{
				"x": -0.6154929463,
				"y": -0.1532955626,
				"z": -0.647524664,
				"element": "C" 
			},
			{
				"x": 0.5342551392,
				"y": 0.4271273144,
				"z": -0.1168565826,
				"element": "C" 
			},
			{
				"x": 1.8075174424,
				"y": -0.0945905096,
				"z": -0.4013013087,
				"element": "C" 
			},
			{
				"x": 2.8014718437,
				"y": 0.6578073343,
				"z": 0.2491303566,
				"element": "N" 
			},
			{
				"x": 2.2637414899,
				"y": 1.700073632,
				"z": 0.9880216411,
				"element": "C" 
			},
			{
				"x": 2.8658220905,
				"y": 2.5139894326,
				"z": 1.6511097855,
				"element": "O" 
			},
			{
				"x": 0.7110171962,
				"y": 1.5862853058,
				"z": 0.771826587,
				"element": "C" 
			},
			{
				"x": -0.1052134493,
				"y": 2.3333403384,
				"z": 1.2664381932,
				"element": "O" 
			},
			{
				"x": 1.9737577645,
				"y": -1.2113054,
				"z": -1.222023177,
				"element": "C" 
			},
			{
				"x": 3.3384872761,
				"y": -1.777217777,
				"z": -1.525450109,
				"element": "C" 
			},
			{
				"x": 0.7957717364,
				"y": -1.7707181923,
				"z": -1.739677314,
				"element": "C" 
			},
			{
				"x": -1.7809715584,
				"y": -1.7033900979,
				"z": -3.1672980754,
				"element": "H" 
			},
			{
				"x": -1.668396333,
				"y": -3.0184457775,
				"z": -1.9972817369,
				"element": "H" 
			},
			{
				"x": -2.629118135,
				"y": -1.5812789338,
				"z": -1.6233449347,
				"element": "H" 
			},
			{
				"x": -1.5879779786,
				"y": 0.2685811879,
				"z": -0.4098313994,
				"element": "H" 
			},
			{
				"x": 3.793293281,
				"y": 0.479752697,
				"z": 0.1996496389,
				"element": "H" 
			},
			{
				"x": 3.9796731763,
				"y": -1.0410131791,
				"z": -2.0261148305,
				"element": "H" 
			},
			{
				"x": 3.2652335269,
				"y": -2.648438199,
				"z": -2.1807045024,
				"element": "H" 
			},
			{
				"x": 3.8575348396,
				"y": -2.0940016271,
				"z": -0.6122024783,
				"element": "H" 
			},
			{
				"x": 0.8905480933,
				"y": -2.6445044112,
				"z": -2.3817602694,
				"element": "H" 
			}
		],
		 "valence_orbital": [ 
			{
				"type": "occ",
				"energy": -0.31685,
				"method": "rhf"
			},
			{
				"type": "occ",
				"energy": -0.30558,
				"method": "rhf"
			},
			{
				"type": "occ",
				"energy": -0.26701,
				"method": "rhf"
			},
			{
				"type": "occ",
				"energy": -0.24214,
				"method": "rhf"
			},
			{
				"type": "occ",
				"energy": -0.22875,
				"method": "rhf"
			},
			{
				"type": "unocc",
				"energy": -0.09254,
				"method": "rhf"
			},
			{
				"type": "unocc",
				"energy": -0.01607,
				"method": "rhf"
			},
			{
				"type": "unocc",
				"energy": 0.01064,
				"method": "rhf"
			},
			{
				"type": "unocc",
				"energy": 0.0637,
				"method": "rhf"
			},
			{
				"type": "unocc",
				"energy": 0.08786,
				"method": "rhf"
			}
		],
		"cosmo_sigma_profile": { 
			"-0.025": 0.0,
			"-0.024": 0.0,
			"-0.023": 0.0,
			"-0.022": 0.0,
			"-0.021": 0.0,
			"-0.02": 0.0,
			"-0.019": 0.0,
			"-0.018": 0.0,
			"-0.017": 0.0300211896945,
			"-0.016": 0.548253435192,
			"-0.015": 1.29948224602,
			"-0.014": 0.494600625563,
			"-0.013": 0.838425436895,
			"-0.012": 0.938923121646,
			"-0.011": 1.18915892706,
			"-0.01": 1.87719066859,
			"-0.009": 1.45277306299,
			"-0.008": 1.40390778173,
			"-0.007": 3.68255021623,
			"-0.006": 8.80597891552,
			"-0.005": 14.5320126635,
			"-0.004": 18.962371574,
			"-0.003": 16.2845022162,
			"-0.002": 18.8199199315,
			"-0.001": 21.8905456049,
			"0.0": 22.2767241341,
			"0.001": 12.5204750609,
			"0.002": 10.495967169,
			"0.003": 11.3427882373,
			"0.004": 4.84621807808,
			"0.005": 2.74140853657,
			"0.006": 1.67473684366,
			"0.007": 3.15129130215,
			"0.008": 3.67881055581,
			"0.009": 4.14984739674,
			"0.01": 6.8858250932,
			"0.011": 9.80672317516,
			"0.012": 5.26562163005,
			"0.013": 0.585481887115,
			"0.014": 0.0,
			"0.015": 0.0,
			"0.016": 0.0,
			"0.017": 0.0,
			"0.018": 0.0,
			"0.019": 0.0,
			"0.02": 0.0,
			"0.021": 0.0,
			"0.022": 0.0,
			"0.023": 0.0,
			"0.024": 0.0,
			"0.025": 0.0
		}
	}
}
