{
	 "smiles": "CN1C=NC(=C1Cl)S(Cl)(=O)=O", 
	 "Tm": 328.15, 
	 "num_atms": 15, 
	 "gaussian": { 
		 "optdone": 1, 
		 "sigma_profile": "yes", 
		 "theory": "DFT", 
		 "functional": "B3LYP", 
		 "basiset": "6-31G**", 
		 "properties": { 
			 "R2extent": 3013.454, 
			 "electric_dipole_moment_norm": 8.51569643247, 
			 "electric_quadrupole_moment_norm": 8.45667240172, 
			 "total_energy": -1733.26542826, 
			 "HOMO_LUMO_gap": 0.18917, 
			 "cosmo_polarized_energy": -16.8, 
			 "cosmo_cavitation_energy": 25.04, 
			 "cosmo_dispersion_energy": -18.86, 
			 "cosmo_repulsion_energy": 1.47, 
			 "cosmo_total_nonelectrostatic_energy": 7.66, 
			 "SMD_solvation_energy": 1.76 
		},
		"coords": [
			{
				"x": 0.1265119493,
				"y": 0.1794638913,
				"z": 2.6884934849,
				"element": "C" 
			},
			{
				"x": 0.3575384577,
				"y": -0.4959224079,
				"z": 1.4168091257,
				"element": "N" 
			},
			{
				"x": 1.0484963287,
				"y": -1.6669046202,
				"z": 1.2175461067,
				"element": "C" 
			},
			{
				"x": 1.0924460128,
				"y": -2.017112445,
				"z": -0.0442212701,
				"element": "N" 
			},
			{
				"x": 0.4106919252,
				"y": -1.0378466954,
				"z": -0.7057493792,
				"element": "C" 
			},
			{
				"x": -0.0669908591,
				"y": -0.0834066229,
				"z": 0.1760605938,
				"element": "C" 
			},
			{
				"x": -0.9796524306,
				"y": 1.3496931302,
				"z": -0.0227916214,
				"element": "Cl" 
			},
			{
				"x": 0.218103492,
				"y": -1.1053847981,
				"z": -2.4593480613,
				"element": "S" 
			},
			{
				"x": -1.3181713748,
				"y": -2.5696648485,
				"z": -2.6510584542,
				"element": "Cl" 
			},
			{
				"x": -0.3586883228,
				"y": 0.1553042167,
				"z": -2.9070572909,
				"element": "O" 
			},
			{
				"x": 1.4085644001,
				"y": -1.6818429438,
				"z": -3.0608662344,
				"element": "O" 
			},
			{
				"x": 0.5892415165,
				"y": -0.4141915592,
				"z": 3.4774909615,
				"element": "H" 
			},
			{
				"x": 0.5731383811,
				"y": 1.1763923444,
				"z": 2.678610655,
				"element": "H" 
			},
			{
				"x": -0.9444634367,
				"y": 0.2672801285,
				"z": 2.8846928203,
				"element": "H" 
			},
			{
				"x": 1.4942339606,
				"y": -2.2094567701,
				"z": 2.0400885636,
				"element": "H" 
			}
		],
		 "valence_orbital": [ 
			{
				"type": "occ",
				"energy": -0.33241,
				"method": "rhf"
			},
			{
				"type": "occ",
				"energy": -0.31216,
				"method": "rhf"
			},
			{
				"type": "occ",
				"energy": -0.31036,
				"method": "rhf"
			},
			{
				"type": "occ",
				"energy": -0.30539,
				"method": "rhf"
			},
			{
				"type": "occ",
				"energy": -0.26839,
				"method": "rhf"
			},
			{
				"type": "unocc",
				"energy": -0.07922,
				"method": "rhf"
			},
			{
				"type": "unocc",
				"energy": -0.02433,
				"method": "rhf"
			},
			{
				"type": "unocc",
				"energy": -0.00032,
				"method": "rhf"
			},
			{
				"type": "unocc",
				"energy": 0.00594,
				"method": "rhf"
			},
			{
				"type": "unocc",
				"energy": 0.05916,
				"method": "rhf"
			}
		],
		"cosmo_sigma_profile": { 
			"-0.025": 0.0,
			"-0.024": 0.0,
			"-0.023": 0.0,
			"-0.022": 0.0,
			"-0.021": 0.0,
			"-0.02": 0.0,
			"-0.019": 0.0,
			"-0.018": 0.0,
			"-0.017": 0.0,
			"-0.016": 0.0,
			"-0.015": 0.0,
			"-0.014": 0.0,
			"-0.013": 0.00692733399495,
			"-0.012": 1.05374221503,
			"-0.011": 2.98628972235,
			"-0.01": 2.9722295384,
			"-0.009": 2.72271486217,
			"-0.008": 5.53829919741,
			"-0.007": 9.49104753816,
			"-0.006": 10.6680210295,
			"-0.005": 15.129310373,
			"-0.004": 12.9779741267,
			"-0.003": 12.0157308578,
			"-0.002": 10.5625217255,
			"-0.001": 10.4793888149,
			"0.0": 11.9508265054,
			"0.001": 12.6485259107,
			"0.002": 13.7526297791,
			"0.003": 17.922353204,
			"0.004": 10.8832454416,
			"0.005": 4.86254629307,
			"0.006": 4.95751507291,
			"0.007": 8.06204025945,
			"0.008": 12.9284196152,
			"0.009": 6.37235782362,
			"0.01": 1.78368515633,
			"0.011": 0.996708561025,
			"0.012": 0.722129690544,
			"0.013": 1.34217283381,
			"0.014": 0.410279794182,
			"0.015": 0.0,
			"0.016": 0.0,
			"0.017": 0.0,
			"0.018": 0.0,
			"0.019": 0.0,
			"0.02": 0.0,
			"0.021": 0.0,
			"0.022": 0.0,
			"0.023": 0.0,
			"0.024": 0.0,
			"0.025": 0.0
		}
	}
}
