{
	 "smiles": "CN1CC(C2=CC=CC=C2)C2=CC=CC(N)=C2C1", 
	 "Tm": 452.15, 
	 "num_atms": 36, 
	 "gaussian": { 
		 "optdone": 1, 
		 "sigma_profile": "yes", 
		 "theory": "DFT", 
		 "functional": "B3LYP", 
		 "basiset": "6-31G**", 
		 "properties": { 
			 "R2extent": 4870.254, 
			 "electric_dipole_moment_norm": 1.79989416078, 
			 "electric_quadrupole_moment_norm": 9.46496931215, 
			 "total_energy": -730.056343543, 
			 "HOMO_LUMO_gap": 0.19855, 
			 "cosmo_polarized_energy": -11.39, 
			 "cosmo_cavitation_energy": 36.84, 
			 "cosmo_dispersion_energy": -25.99, 
			 "cosmo_repulsion_energy": 2.01, 
			 "cosmo_total_nonelectrostatic_energy": 12.86, 
			 "SMD_solvation_energy": 4.8 
		},
		"coords": [
			{
				"x": -0.8737895802,
				"y": -2.6751964379,
				"z": -2.1151241735,
				"element": "C" 
			},
			{
				"x": -0.2781922501,
				"y": -1.4653739947,
				"z": -1.5719222586,
				"element": "N" 
			},
			{
				"x": -0.4988341888,
				"y": -0.2982397493,
				"z": -2.4161451521,
				"element": "C" 
			},
			{
				"x": -0.1522765976,
				"y": 0.9944576461,
				"z": -1.6511752983,
				"element": "C" 
			},
			{
				"x": -1.2567155018,
				"y": 1.4091955751,
				"z": -0.6825532792,
				"element": "C" 
			},
			{
				"x": -1.5027008268,
				"y": 0.7038089711,
				"z": 0.5049989681,
				"element": "C" 
			},
			{
				"x": -2.5373491532,
				"y": 1.0866358112,
				"z": 1.3581237366,
				"element": "C" 
			},
			{
				"x": -3.343147588,
				"y": 2.1844712387,
				"z": 1.0456747437,
				"element": "C" 
			},
			{
				"x": -3.1061743172,
				"y": 2.896188645,
				"z": -0.1301641687,
				"element": "C" 
			},
			{
				"x": -2.0711568299,
				"y": 2.5085942934,
				"z": -0.9841683312,
				"element": "C" 
			},
			{
				"x": 1.214347526,
				"y": 0.8726476291,
				"z": -0.9859435388,
				"element": "C" 
			},
			{
				"x": 1.8750182637,
				"y": 2.0344391968,
				"z": -0.563521064,
				"element": "C" 
			},
			{
				"x": 3.138214657,
				"y": 1.9497865153,
				"z": 0.0122999691,
				"element": "C" 
			},
			{
				"x": 3.755462329,
				"y": 0.7110852905,
				"z": 0.1714178427,
				"element": "C" 
			},
			{
				"x": 3.1108224021,
				"y": -0.4606549509,
				"z": -0.2467202993,
				"element": "C" 
			},
			{
				"x": 3.7732151731,
				"y": -1.6924636087,
				"z": -0.1576983341,
				"element": "N" 
			},
			{
				"x": 1.8190339867,
				"y": -0.3802324255,
				"z": -0.8201882655,
				"element": "C" 
			},
			{
				"x": 1.1384679533,
				"y": -1.6492546301,
				"z": -1.286806439,
				"element": "C" 
			},
			{
				"x": -0.4428304268,
				"y": -2.9762887371,
				"z": -3.0899049719,
				"element": "H" 
			},
			{
				"x": -0.729186232,
				"y": -3.5054543054,
				"z": -1.4152520371,
				"element": "H" 
			},
			{
				"x": -1.9499867814,
				"y": -2.5290673384,
				"z": -2.2485761251,
				"element": "H" 
			},
			{
				"x": -1.5519375282,
				"y": -0.2749687839,
				"z": -2.7137506904,
				"element": "H" 
			},
			{
				"x": 0.1036649258,
				"y": -0.3467880952,
				"z": -3.3460585618,
				"element": "H" 
			},
			{
				"x": -0.0757946655,
				"y": 1.7919579822,
				"z": -2.4014711493,
				"element": "H" 
			},
			{
				"x": -0.8827649885,
				"y": -0.1513473537,
				"z": 0.7492403177,
				"element": "H" 
			},
			{
				"x": -2.7135763868,
				"y": 0.5273093618,
				"z": 2.2731523627,
				"element": "H" 
			},
			{
				"x": -4.1453203737,
				"y": 2.4832939025,
				"z": 1.7147050768,
				"element": "H" 
			},
			{
				"x": -3.7227101586,
				"y": 3.7543950345,
				"z": -0.3836633033,
				"element": "H" 
			},
			{
				"x": -1.8927496798,
				"y": 3.0693792001,
				"z": -1.8992417683,
				"element": "H" 
			},
			{
				"x": 1.3913003561,
				"y": 2.9989017536,
				"z": -0.6897965967,
				"element": "H" 
			},
			{
				"x": 3.6503588713,
				"y": 2.8502997832,
				"z": 0.3397858867,
				"element": "H" 
			},
			{
				"x": 4.745819399,
				"y": 0.6442523622,
				"z": 0.615930602,
				"element": "H" 
			},
			{
				"x": 3.1798904531,
				"y": -2.4999945252,
				"z": -0.0234327095,
				"element": "H" 
			},
			{
				"x": 4.5469356515,
				"y": -1.6972028507,
				"z": 0.4935308797,
				"element": "H" 
			},
			{
				"x": 1.6859596694,
				"y": -2.0484130567,
				"z": -2.1689314084,
				"element": "H" 
			},
			{
				"x": 1.2135824375,
				"y": -2.4274593492,
				"z": -0.5113504616,
				"element": "H" 
			}
		],
		 "valence_orbital": [ 
			{
				"type": "occ",
				"energy": -0.23931,
				"method": "rhf"
			},
			{
				"type": "occ",
				"energy": -0.23671,
				"method": "rhf"
			},
			{
				"type": "occ",
				"energy": -0.22665,
				"method": "rhf"
			},
			{
				"type": "occ",
				"energy": -0.21241,
				"method": "rhf"
			},
			{
				"type": "occ",
				"energy": -0.19594,
				"method": "rhf"
			},
			{
				"type": "unocc",
				"energy": 0.00261,
				"method": "rhf"
			},
			{
				"type": "unocc",
				"energy": 0.0093,
				"method": "rhf"
			},
			{
				"type": "unocc",
				"energy": 0.01883,
				"method": "rhf"
			},
			{
				"type": "unocc",
				"energy": 0.02125,
				"method": "rhf"
			},
			{
				"type": "unocc",
				"energy": 0.0728,
				"method": "rhf"
			}
		],
		"cosmo_sigma_profile": { 
			"-0.025": 0.0,
			"-0.024": 0.0,
			"-0.023": 0.0,
			"-0.022": 0.0,
			"-0.021": 0.0,
			"-0.02": 0.0,
			"-0.019": 0.0,
			"-0.018": 0.0,
			"-0.017": 0.0,
			"-0.016": 0.0,
			"-0.015": 0.0,
			"-0.014": 0.0,
			"-0.013": 0.0,
			"-0.012": 1.86377577175,
			"-0.011": 2.57892543755,
			"-0.01": 2.70395692233,
			"-0.009": 3.14833151131,
			"-0.008": 3.35185565927,
			"-0.007": 2.65180611718,
			"-0.006": 3.97175713585,
			"-0.005": 14.5606706304,
			"-0.004": 23.7491323804,
			"-0.003": 28.4132387904,
			"-0.002": 33.8054061723,
			"-0.001": 32.3364278655,
			"0.0": 24.395318882,
			"0.001": 13.498112611,
			"0.002": 13.5960904471,
			"0.003": 14.1387276184,
			"0.004": 13.0842266932,
			"0.005": 14.3947725505,
			"0.006": 18.8306930756,
			"0.007": 14.0617072623,
			"0.008": 4.6552806727,
			"0.009": 1.50621628372,
			"0.01": 1.23257720249,
			"0.011": 1.18058318157,
			"0.012": 0.935878024817,
			"0.013": 0.468679703477,
			"0.014": 0.59011996532,
			"0.015": 0.371842163227,
			"0.016": 0.0138715063069,
			"0.017": 0.0,
			"0.018": 0.0,
			"0.019": 0.0,
			"0.02": 0.0,
			"0.021": 0.0,
			"0.022": 0.0,
			"0.023": 0.0,
			"0.024": 0.0,
			"0.025": 0.0
		}
	}
}
