{
	 "smiles": "O=C1CCCCCN1C1=CC=CC=C1", 
	 "Tm": 330.15, 
	 "num_atms": 29, 
	 "gaussian": { 
		 "optdone": 1, 
		 "sigma_profile": "yes", 
		 "theory": "DFT", 
		 "functional": "B3LYP", 
		 "basiset": "6-31G**", 
		 "properties": { 
			 "R2extent": 3156.6459, 
			 "electric_dipole_moment_norm": 3.59086973448, 
			 "electric_quadrupole_moment_norm": 10.9979865089, 
			 "total_energy": -596.306461435, 
			 "HOMO_LUMO_gap": 0.20932, 
			 "cosmo_polarized_energy": -10.8, 
			 "cosmo_cavitation_energy": 29.54, 
			 "cosmo_dispersion_energy": -21.93, 
			 "cosmo_repulsion_energy": 1.71, 
			 "cosmo_total_nonelectrostatic_energy": 9.32, 
			 "SMD_solvation_energy": 4.79 
		},
		"coords": [
			{
				"x": 0.2930541178,
				"y": 2.3891242966,
				"z": 1.7791601609,
				"element": "O" 
			},
			{
				"x": -0.2108780698,
				"y": 1.9272694646,
				"z": 0.7645043905,
				"element": "C" 
			},
			{
				"x": -1.2858432033,
				"y": 2.6959707609,
				"z": -0.0053749243,
				"element": "C" 
			},
			{
				"x": -2.7119848777,
				"y": 2.0804440925,
				"z": 0.0858846526,
				"element": "C" 
			},
			{
				"x": -2.7539773197,
				"y": 0.5611972779,
				"z": 0.3173091214,
				"element": "C" 
			},
			{
				"x": -2.0043906823,
				"y": -0.2811709172,
				"z": -0.7246207243,
				"element": "C" 
			},
			{
				"x": -0.545322794,
				"y": 0.1720679539,
				"z": -0.9567592216,
				"element": "C" 
			},
			{
				"x": 0.1417630754,
				"y": 0.6843936107,
				"z": 0.2414038363,
				"element": "N" 
			},
			{
				"x": 1.1044515607,
				"y": -0.1483278752,
				"z": 0.8933378445,
				"element": "C" 
			},
			{
				"x": 0.896698677,
				"y": -1.5340403864,
				"z": 0.9598351187,
				"element": "C" 
			},
			{
				"x": 1.8488645344,
				"y": -2.3671149417,
				"z": 1.5482368365,
				"element": "C" 
			},
			{
				"x": 3.0150984427,
				"y": -1.8304090706,
				"z": 2.0916502904,
				"element": "C" 
			},
			{
				"x": 3.219447483,
				"y": -0.4500501497,
				"z": 2.0355682267,
				"element": "C" 
			},
			{
				"x": 2.2802910936,
				"y": 0.3894036013,
				"z": 1.440001457,
				"element": "C" 
			},
			{
				"x": -0.9833626425,
				"y": 2.7954236996,
				"z": -1.0534404649,
				"element": "H" 
			},
			{
				"x": -1.2827140679,
				"y": 3.7000807419,
				"z": 0.4217699937,
				"element": "H" 
			},
			{
				"x": -3.2446338164,
				"y": 2.5596903947,
				"z": 0.9141663706,
				"element": "H" 
			},
			{
				"x": -3.2669292672,
				"y": 2.335239841,
				"z": -0.8252369007,
				"element": "H" 
			},
			{
				"x": -3.8000024011,
				"y": 0.2349976793,
				"z": 0.3526007503,
				"element": "H" 
			},
			{
				"x": -2.3372388182,
				"y": 0.3446030066,
				"z": 1.3084350484,
				"element": "H" 
			},
			{
				"x": -2.5252259551,
				"y": -0.2454162425,
				"z": -1.6903147302,
				"element": "H" 
			},
			{
				"x": -2.0247967171,
				"y": -1.3293817511,
				"z": -0.4025792324,
				"element": "H" 
			},
			{
				"x": 0.0532707387,
				"y": -0.6526008997,
				"z": -1.3473974689,
				"element": "H" 
			},
			{
				"x": -0.5205736445,
				"y": 0.9505443931,
				"z": -1.7245790551,
				"element": "H" 
			},
			{
				"x": -0.0160933381,
				"y": -1.9668646305,
				"z": 0.5639061901,
				"element": "H" 
			},
			{
				"x": 1.667805259,
				"y": -3.4375463382,
				"z": 1.5881401533,
				"element": "H" 
			},
			{
				"x": 3.7539464223,
				"y": -2.4773282305,
				"z": 2.5550811986,
				"element": "H" 
			},
			{
				"x": 4.1241508986,
				"y": -0.0173498206,
				"z": 2.4533083973,
				"element": "H" 
			},
			{
				"x": 2.4454253118,
				"y": 1.4572504391,
				"z": 1.4071026848,
				"element": "H" 
			}
		],
		 "valence_orbital": [ 
			{
				"type": "occ",
				"energy": -0.32423,
				"method": "rhf"
			},
			{
				"type": "occ",
				"energy": -0.27671,
				"method": "rhf"
			},
			{
				"type": "occ",
				"energy": -0.24934,
				"method": "rhf"
			},
			{
				"type": "occ",
				"energy": -0.2373,
				"method": "rhf"
			},
			{
				"type": "occ",
				"energy": -0.21489,
				"method": "rhf"
			},
			{
				"type": "unocc",
				"energy": -0.00557,
				"method": "rhf"
			},
			{
				"type": "unocc",
				"energy": 0.0036,
				"method": "rhf"
			},
			{
				"type": "unocc",
				"energy": 0.03725,
				"method": "rhf"
			},
			{
				"type": "unocc",
				"energy": 0.06906,
				"method": "rhf"
			},
			{
				"type": "unocc",
				"energy": 0.08937,
				"method": "rhf"
			}
		],
		"cosmo_sigma_profile": { 
			"-0.025": 0.0,
			"-0.024": 0.0,
			"-0.023": 0.0,
			"-0.022": 0.0,
			"-0.021": 0.0,
			"-0.02": 0.0,
			"-0.019": 0.0,
			"-0.018": 0.0,
			"-0.017": 0.0,
			"-0.016": 0.0,
			"-0.015": 0.0,
			"-0.014": 0.0,
			"-0.013": 0.0,
			"-0.012": 0.0,
			"-0.011": 0.0,
			"-0.01": 0.0,
			"-0.009": 0.0,
			"-0.008": 0.0134528201077,
			"-0.007": 1.6949251509,
			"-0.006": 8.18167738302,
			"-0.005": 14.8137216344,
			"-0.004": 20.8330959428,
			"-0.003": 32.3043441315,
			"-0.002": 30.0131285545,
			"-0.001": 31.430672441,
			"0.0": 19.005860423,
			"0.001": 11.0393173165,
			"0.002": 8.31599965357,
			"0.003": 8.07806817727,
			"0.004": 8.57128247184,
			"0.005": 9.79215685986,
			"0.006": 8.8619338372,
			"0.007": 2.47306638352,
			"0.008": 1.87284261572,
			"0.009": 1.30002021254,
			"0.01": 1.63731415176,
			"0.011": 1.93444201604,
			"0.012": 2.09153616309,
			"0.013": 3.6098346928,
			"0.014": 3.69009436324,
			"0.015": 0.827172044875,
			"0.016": 0.0,
			"0.017": 0.0,
			"0.018": 0.0,
			"0.019": 0.0,
			"0.02": 0.0,
			"0.021": 0.0,
			"0.022": 0.0,
			"0.023": 0.0,
			"0.024": 0.0,
			"0.025": 0.0
		}
	}
}
