{
	 "smiles": "C1CC(CCN1)N1C=CN=C1", 
	 "Tm": 409.15, 
	 "num_atms": 24, 
	 "gaussian": { 
		 "optdone": 1, 
		 "sigma_profile": "yes", 
		 "theory": "DFT", 
		 "functional": "B3LYP", 
		 "basiset": "6-31G**", 
		 "properties": { 
			 "R2extent": 2628.8952, 
			 "electric_dipole_moment_norm": 4.01436453128, 
			 "electric_quadrupole_moment_norm": 17.9241853567, 
			 "total_energy": -476.925882514, 
			 "HOMO_LUMO_gap": 0.25424, 
			 "cosmo_polarized_energy": -12.11, 
			 "cosmo_cavitation_energy": 24.81, 
			 "cosmo_dispersion_energy": -18.62, 
			 "cosmo_repulsion_energy": 1.47, 
			 "cosmo_total_nonelectrostatic_energy": 7.67, 
			 "SMD_solvation_energy": 0.7 
		},
		"coords": [
			{
				"x": 0.8211661743,
				"y": 0.7335921092,
				"z": -0.5572975839,
				"element": "C" 
			},
			{
				"x": 1.40533923,
				"y": 1.2125728928,
				"z": 0.7771085708,
				"element": "C" 
			},
			{
				"x": 0.637207687,
				"y": 0.6887287204,
				"z": 2.0113527176,
				"element": "C" 
			},
			{
				"x": -0.8884342879,
				"y": 0.8269568088,
				"z": 1.8089594833,
				"element": "C" 
			},
			{
				"x": -1.3674464789,
				"y": 0.3652688078,
				"z": 0.4274677757,
				"element": "C" 
			},
			{
				"x": -0.6043914845,
				"y": 1.0622676532,
				"z": -0.6093289327,
				"element": "N" 
			},
			{
				"x": 1.0502452939,
				"y": -0.6611955952,
				"z": 2.4251871116,
				"element": "N" 
			},
			{
				"x": 0.9542591821,
				"y": -1.8735345543,
				"z": 1.7603125546,
				"element": "C" 
			},
			{
				"x": 1.493830492,
				"y": -2.809355191,
				"z": 2.6091452106,
				"element": "C" 
			},
			{
				"x": 1.9207685971,
				"y": -2.2215931256,
				"z": 3.7761070379,
				"element": "N" 
			},
			{
				"x": 1.6403393526,
				"y": -0.9446012808,
				"z": 3.6297211794,
				"element": "C" 
			},
			{
				"x": 1.0220931623,
				"y": -0.3456719154,
				"z": -0.6892335515,
				"element": "H" 
			},
			{
				"x": 1.3294245223,
				"y": 1.2501593753,
				"z": -1.3787665061,
				"element": "H" 
			},
			{
				"x": 1.3418898561,
				"y": 2.3067211532,
				"z": 0.7955706337,
				"element": "H" 
			},
			{
				"x": 2.4621328376,
				"y": 0.9381694912,
				"z": 0.8571812042,
				"element": "H" 
			},
			{
				"x": 0.9155439861,
				"y": 1.3159877263,
				"z": 2.864357614,
				"element": "H" 
			},
			{
				"x": -1.4156710089,
				"y": 0.2862919374,
				"z": 2.6015708673,
				"element": "H" 
			},
			{
				"x": -1.1343425116,
				"y": 1.8904363476,
				"z": 1.9093102637,
				"element": "H" 
			},
			{
				"x": -1.2937961709,
				"y": -0.7354626176,
				"z": 0.3533993205,
				"element": "H" 
			},
			{
				"x": -2.4270610917,
				"y": 0.6175115034,
				"z": 0.3110113185,
				"element": "H" 
			},
			{
				"x": -0.9792486625,
				"y": 0.8379184031,
				"z": -1.5263389785,
				"element": "H" 
			},
			{
				"x": 0.5263823115,
				"y": -1.9642118886,
				"z": 0.7766918522,
				"element": "H" 
			},
			{
				"x": 1.5965219128,
				"y": -3.8729068304,
				"z": 2.4405652658,
				"element": "H" 
			},
			{
				"x": 1.8373470994,
				"y": -0.1673499306,
				"z": 4.3569455713,
				"element": "H" 
			}
		],
		 "valence_orbital": [ 
			{
				"type": "occ",
				"energy": -0.32858,
				"method": "rhf"
			},
			{
				"type": "occ",
				"energy": -0.25869,
				"method": "rhf"
			},
			{
				"type": "occ",
				"energy": -0.25582,
				"method": "rhf"
			},
			{
				"type": "occ",
				"energy": -0.23025,
				"method": "rhf"
			},
			{
				"type": "occ",
				"energy": -0.21814,
				"method": "rhf"
			},
			{
				"type": "unocc",
				"energy": 0.0361,
				"method": "rhf"
			},
			{
				"type": "unocc",
				"energy": 0.06629,
				"method": "rhf"
			},
			{
				"type": "unocc",
				"energy": 0.07422,
				"method": "rhf"
			},
			{
				"type": "unocc",
				"energy": 0.0837,
				"method": "rhf"
			},
			{
				"type": "unocc",
				"energy": 0.10857,
				"method": "rhf"
			}
		],
		"cosmo_sigma_profile": { 
			"-0.025": 0.0,
			"-0.024": 0.0,
			"-0.023": 0.0,
			"-0.022": 0.0,
			"-0.021": 0.0,
			"-0.02": 0.0,
			"-0.019": 0.0,
			"-0.018": 0.0,
			"-0.017": 0.0,
			"-0.016": 0.0,
			"-0.015": 0.0,
			"-0.014": 0.0,
			"-0.013": 0.0,
			"-0.012": 0.0,
			"-0.011": 0.0158826617677,
			"-0.01": 1.05603040776,
			"-0.009": 1.60571310398,
			"-0.008": 4.43344814982,
			"-0.007": 6.03948407213,
			"-0.006": 7.04329804377,
			"-0.005": 9.84886708345,
			"-0.004": 17.1645702934,
			"-0.003": 24.3025754568,
			"-0.002": 25.3810318746,
			"-0.001": 24.0852013699,
			"0.0": 14.7592929014,
			"0.001": 5.55985956509,
			"0.002": 5.88137436471,
			"0.003": 5.67626266311,
			"0.004": 4.99123791721,
			"0.005": 4.94648507812,
			"0.006": 6.82271283852,
			"0.007": 3.70480771065,
			"0.008": 2.09780817716,
			"0.009": 2.26561228451,
			"0.01": 2.23970617605,
			"0.011": 2.12600740282,
			"0.012": 2.07469488356,
			"0.013": 2.40882968022,
			"0.014": 1.50156323117,
			"0.015": 1.07561781211,
			"0.016": 1.81460559857,
			"0.017": 1.84240792898,
			"0.018": 1.26376428003,
			"0.019": 0.207255094713,
			"0.02": 0.0,
			"0.021": 0.0,
			"0.022": 0.0,
			"0.023": 0.0,
			"0.024": 0.0,
			"0.025": 0.0
		}
	}
}
