{
	 "smiles": "CS(=O)(=O)OCCCCOS(C)(=O)=O", 
	 "Tm": 389.15, 
	 "num_atms": 28, 
	 "gaussian": { 
		 "optdone": 1, 
		 "sigma_profile": "yes", 
		 "theory": "DFT", 
		 "functional": "B3LYP", 
		 "basiset": "6-31G**", 
		 "properties": { 
			 "R2extent": 5816.7227, 
			 "electric_dipole_moment_norm": 5.45578975585, 
			 "electric_quadrupole_moment_norm": 33.0743677516, 
			 "total_energy": -1484.6659997, 
			 "HOMO_LUMO_gap": 0.32859, 
			 "cosmo_polarized_energy": -22.56, 
			 "cosmo_cavitation_energy": 34.77, 
			 "cosmo_dispersion_energy": -25.03, 
			 "cosmo_repulsion_energy": 1.94, 
			 "cosmo_total_nonelectrostatic_energy": 11.68, 
			 "SMD_solvation_energy": 4.75 
		},
		"coords": [
			{
				"x": -2.295453437,
				"y": 1.334638911,
				"z": 4.2621824092,
				"element": "C" 
			},
			{
				"x": -1.4432492299,
				"y": 1.9422661238,
				"z": 2.8067215324,
				"element": "S" 
			},
			{
				"x": -0.0064822112,
				"y": 2.008399367,
				"z": 3.0655706104,
				"element": "O" 
			},
			{
				"x": -2.1427442029,
				"y": 3.1080265004,
				"z": 2.2696467148,
				"element": "O" 
			},
			{
				"x": -1.7599771214,
				"y": 0.6421837102,
				"z": 1.8530877132,
				"element": "O" 
			},
			{
				"x": -1.3087345845,
				"y": 0.7676222781,
				"z": 0.4711640664,
				"element": "C" 
			},
			{
				"x": -1.6086878316,
				"y": -0.5524874046,
				"z": -0.2231797972,
				"element": "C" 
			},
			{
				"x": -0.8719261,
				"y": -1.7704818738,
				"z": 0.3571018761,
				"element": "C" 
			},
			{
				"x": 0.637861627,
				"y": -1.7540561439,
				"z": 0.1697560706,
				"element": "C" 
			},
			{
				"x": 0.8959589109,
				"y": -1.7688856671,
				"z": -1.2662898578,
				"element": "O" 
			},
			{
				"x": 2.480876294,
				"y": -1.6640905552,
				"z": -1.687036095,
				"element": "S" 
			},
			{
				"x": 2.2323450623,
				"y": -1.8589121889,
				"z": -3.4517125424,
				"element": "C" 
			},
			{
				"x": 3.1928139176,
				"y": -2.8236054792,
				"z": -1.1528210257,
				"element": "O" 
			},
			{
				"x": 2.9646508927,
				"y": -0.3150861362,
				"z": -1.4009089617,
				"element": "O" 
			},
			{
				"x": -3.3484850605,
				"y": 1.1948128377,
				"z": 4.0192550412,
				"element": "H" 
			},
			{
				"x": -2.1758590646,
				"y": 2.099045864,
				"z": 5.0314496278,
				"element": "H" 
			},
			{
				"x": -1.8315056871,
				"y": 0.3998638306,
				"z": 4.5762266252,
				"element": "H" 
			},
			{
				"x": -1.8517399199,
				"y": 1.5929288203,
				"z": 0.001325097,
				"element": "H" 
			},
			{
				"x": -0.2394557437,
				"y": 1.0030027518,
				"z": 0.4698484453,
				"element": "H" 
			},
			{
				"x": -1.3497483373,
				"y": -0.4342577887,
				"z": -1.2813407207,
				"element": "H" 
			},
			{
				"x": -2.6887511415,
				"y": -0.7309499561,
				"z": -0.1776120515,
				"element": "H" 
			},
			{
				"x": -1.2687424506,
				"y": -2.682512945,
				"z": -0.1024564895,
				"element": "H" 
			},
			{
				"x": -1.0696005834,
				"y": -1.8436242914,
				"z": 1.4324257287,
				"element": "H" 
			},
			{
				"x": 1.0994011627,
				"y": -0.8598802816,
				"z": 0.6012287972,
				"element": "H" 
			},
			{
				"x": 1.1005128471,
				"y": -2.6394213034,
				"z": 0.6156639998,
				"element": "H" 
			},
			{
				"x": 1.7757966534,
				"y": -2.8309622561,
				"z": -3.6364529965,
				"element": "H" 
			},
			{
				"x": 3.2207790419,
				"y": -1.8042613972,
				"z": -3.9104151958,
				"element": "H" 
			},
			{
				"x": 1.5992462974,
				"y": -1.0470153266,
				"z": -3.8090286212,
				"element": "H" 
			}
		],
		 "valence_orbital": [ 
			{
				"type": "occ",
				"energy": -0.32055,
				"method": "rhf"
			},
			{
				"type": "occ",
				"energy": -0.3186,
				"method": "rhf"
			},
			{
				"type": "occ",
				"energy": -0.31858,
				"method": "rhf"
			},
			{
				"type": "occ",
				"energy": -0.29156,
				"method": "rhf"
			},
			{
				"type": "occ",
				"energy": -0.29104,
				"method": "rhf"
			},
			{
				"type": "unocc",
				"energy": 0.03755,
				"method": "rhf"
			},
			{
				"type": "unocc",
				"energy": 0.04596,
				"method": "rhf"
			},
			{
				"type": "unocc",
				"energy": 0.05992,
				"method": "rhf"
			},
			{
				"type": "unocc",
				"energy": 0.06343,
				"method": "rhf"
			},
			{
				"type": "unocc",
				"energy": 0.08927,
				"method": "rhf"
			}
		],
		"cosmo_sigma_profile": { 
			"-0.025": 0.0,
			"-0.024": 0.0,
			"-0.023": 0.0,
			"-0.022": 0.0,
			"-0.021": 0.0,
			"-0.02": 0.0,
			"-0.019": 0.0,
			"-0.018": 0.0,
			"-0.017": 0.0,
			"-0.016": 0.0,
			"-0.015": 0.0,
			"-0.014": 0.0,
			"-0.013": 0.0,
			"-0.012": 0.0,
			"-0.011": 0.275944644677,
			"-0.01": 3.55712092096,
			"-0.009": 10.2078045435,
			"-0.008": 8.92237508701,
			"-0.007": 11.9238668814,
			"-0.006": 16.2222842743,
			"-0.005": 28.5600541544,
			"-0.004": 30.3278693443,
			"-0.003": 19.8492771471,
			"-0.002": 14.0899006644,
			"-0.001": 12.628873763,
			"0.0": 7.61124920489,
			"0.001": 9.86656562238,
			"0.002": 10.382288259,
			"0.003": 9.50980269715,
			"0.004": 5.85298627077,
			"0.005": 5.9301851453,
			"0.006": 5.54780981914,
			"0.007": 6.07872842757,
			"0.008": 6.68509176028,
			"0.009": 8.34470458998,
			"0.01": 22.1324367761,
			"0.011": 17.5004815569,
			"0.012": 1.26129354255,
			"0.013": 0.0,
			"0.014": 0.0,
			"0.015": 0.0,
			"0.016": 0.0,
			"0.017": 0.0,
			"0.018": 0.0,
			"0.019": 0.0,
			"0.02": 0.0,
			"0.021": 0.0,
			"0.022": 0.0,
			"0.023": 0.0,
			"0.024": 0.0,
			"0.025": 0.0
		}
	}
}
