{
	 "smiles": "CCOCCC(=O)OCC", 
	 "Tm": 198.15, 
	 "num_atms": 24, 
	 "gaussian": { 
		 "optdone": 1, 
		 "sigma_profile": "yes", 
		 "theory": "DFT", 
		 "functional": "B3LYP", 
		 "basiset": "6-31G**", 
		 "properties": { 
			 "R2extent": 2289.7382, 
			 "electric_dipole_moment_norm": 0.91025772724, 
			 "electric_quadrupole_moment_norm": 10.3107372016, 
			 "total_energy": -500.86443701, 
			 "HOMO_LUMO_gap": 0.27005, 
			 "cosmo_polarized_energy": -8.51, 
			 "cosmo_cavitation_energy": 27.28, 
			 "cosmo_dispersion_energy": -19.12, 
			 "cosmo_repulsion_energy": 1.64, 
			 "cosmo_total_nonelectrostatic_energy": 9.8, 
			 "SMD_solvation_energy": 5.92 
		},
		"coords": [
			{
				"x": 0.4524728559,
				"y": 3.0481346301,
				"z": -1.0494231047,
				"element": "C" 
			},
			{
				"x": 1.2820102692,
				"y": 2.4101782116,
				"z": 0.052709955,
				"element": "C" 
			},
			{
				"x": 1.2632506595,
				"y": 1.0039309358,
				"z": -0.1287505108,
				"element": "O" 
			},
			{
				"x": 2.0072776853,
				"y": 0.3035098964,
				"z": 0.8496252529,
				"element": "C" 
			},
			{
				"x": 1.7984377021,
				"y": -1.1857080456,
				"z": 0.6152406782,
				"element": "C" 
			},
			{
				"x": 0.3814976879,
				"y": -1.6136042688,
				"z": 0.956400972,
				"element": "C" 
			},
			{
				"x": -0.2567092877,
				"y": -1.1914344954,
				"z": 1.8977502565,
				"element": "O" 
			},
			{
				"x": -0.0630474083,
				"y": -2.5585002635,
				"z": 0.1007880763,
				"element": "O" 
			},
			{
				"x": -1.3933693181,
				"y": -3.0768716179,
				"z": 0.3449467163,
				"element": "C" 
			},
			{
				"x": -2.4535770033,
				"y": -2.2003362745,
				"z": -0.3045771209,
				"element": "C" 
			},
			{
				"x": 0.4435903766,
				"y": 4.1371453723,
				"z": -0.9398453302,
				"element": "H" 
			},
			{
				"x": -0.5790023095,
				"y": 2.6863789362,
				"z": -1.0094488572,
				"element": "H" 
			},
			{
				"x": 0.8644332953,
				"y": 2.8011109699,
				"z": -2.0322568171,
				"element": "H" 
			},
			{
				"x": 0.8754648924,
				"y": 2.669960837,
				"z": 1.0443047576,
				"element": "H" 
			},
			{
				"x": 2.320043283,
				"y": 2.7841472751,
				"z": 0.020768467,
				"element": "H" 
			},
			{
				"x": 3.0792559028,
				"y": 0.5516730789,
				"z": 0.7754244886,
				"element": "H" 
			},
			{
				"x": 1.6656002069,
				"y": 0.5659951328,
				"z": 1.86209813,
				"element": "H" 
			},
			{
				"x": 2.4768274512,
				"y": -1.7542493967,
				"z": 1.264070442,
				"element": "H" 
			},
			{
				"x": 2.0295746482,
				"y": -1.4495099817,
				"z": -0.4193149505,
				"element": "H" 
			},
			{
				"x": -1.3788331405,
				"y": -4.0787238763,
				"z": -0.0912520207,
				"element": "H" 
			},
			{
				"x": -1.5507418183,
				"y": -3.1514868772,
				"z": 1.4236744778,
				"element": "H" 
			},
			{
				"x": -2.4628005622,
				"y": -1.2085160602,
				"z": 0.1535385573,
				"element": "H" 
			},
			{
				"x": -2.2663303958,
				"y": -2.0929867341,
				"z": -1.3769734454,
				"element": "H" 
			},
			{
				"x": -3.4425256726,
				"y": -2.6515373842,
				"z": -0.1704990701,
				"element": "H" 
			}
		],
		 "valence_orbital": [ 
			{
				"type": "occ",
				"energy": -0.33463,
				"method": "rhf"
			},
			{
				"type": "occ",
				"energy": -0.31473,
				"method": "rhf"
			},
			{
				"type": "occ",
				"energy": -0.29323,
				"method": "rhf"
			},
			{
				"type": "occ",
				"energy": -0.26614,
				"method": "rhf"
			},
			{
				"type": "occ",
				"energy": -0.25208,
				"method": "rhf"
			},
			{
				"type": "unocc",
				"energy": 0.01797,
				"method": "rhf"
			},
			{
				"type": "unocc",
				"energy": 0.0944,
				"method": "rhf"
			},
			{
				"type": "unocc",
				"energy": 0.11175,
				"method": "rhf"
			},
			{
				"type": "unocc",
				"energy": 0.11889,
				"method": "rhf"
			},
			{
				"type": "unocc",
				"energy": 0.12884,
				"method": "rhf"
			}
		],
		"cosmo_sigma_profile": { 
			"-0.025": 0.0,
			"-0.024": 0.0,
			"-0.023": 0.0,
			"-0.022": 0.0,
			"-0.021": 0.0,
			"-0.02": 0.0,
			"-0.019": 0.0,
			"-0.018": 0.0,
			"-0.017": 0.0,
			"-0.016": 0.0,
			"-0.015": 0.0,
			"-0.014": 0.0,
			"-0.013": 0.0,
			"-0.012": 0.0,
			"-0.011": 0.0,
			"-0.01": 0.0,
			"-0.009": 0.0,
			"-0.008": 0.0,
			"-0.007": 2.20278162543,
			"-0.006": 4.39191309735,
			"-0.005": 8.71564306998,
			"-0.004": 20.4909493852,
			"-0.003": 36.2446842561,
			"-0.002": 32.1105326989,
			"-0.001": 21.3349507589,
			"0.0": 21.2109255127,
			"0.001": 14.3537548897,
			"0.002": 5.57473560398,
			"0.003": 5.81136789252,
			"0.004": 4.37869672653,
			"0.005": 4.39137954233,
			"0.006": 4.2864031438,
			"0.007": 5.63679683305,
			"0.008": 3.5582429143,
			"0.009": 5.31422826398,
			"0.01": 2.55998128173,
			"0.011": 3.6682845871,
			"0.012": 4.95183182303,
			"0.013": 0.966575161367,
			"0.014": 0.0,
			"0.015": 0.0,
			"0.016": 0.0,
			"0.017": 0.0,
			"0.018": 0.0,
			"0.019": 0.0,
			"0.02": 0.0,
			"0.021": 0.0,
			"0.022": 0.0,
			"0.023": 0.0,
			"0.024": 0.0,
			"0.025": 0.0
		}
	}
}
