{
	 "smiles": "OC1=C2CCC(=O)C2=CC=C1", 
	 "Tm": 516.15, 
	 "num_atms": 19, 
	 "gaussian": { 
		 "optdone": 1, 
		 "sigma_profile": "yes", 
		 "theory": "DFT", 
		 "functional": "B3LYP", 
		 "basiset": "6-31G**", 
		 "properties": { 
			 "R2extent": 2154.7284, 
			 "electric_dipole_moment_norm": 3.16087756169, 
			 "electric_quadrupole_moment_norm": 12.4295647563, 
			 "total_energy": -498.230302972, 
			 "HOMO_LUMO_gap": 0.17918, 
			 "cosmo_polarized_energy": -12.74, 
			 "cosmo_cavitation_energy": 22.61, 
			 "cosmo_dispersion_energy": -17.02, 
			 "cosmo_repulsion_energy": 1.36, 
			 "cosmo_total_nonelectrostatic_energy": 6.95, 
			 "SMD_solvation_energy": 4.31 
		},
		"coords": [
			{
				"x": 0.4354647254,
				"y": -1.2439553312,
				"z": -2.5384422922,
				"element": "O" 
			},
			{
				"x": -0.1158455719,
				"y": -0.08114235,
				"z": -2.0774795964,
				"element": "C" 
			},
			{
				"x": -0.7809236118,
				"y": 0.0164404168,
				"z": -0.8514757154,
				"element": "C" 
			},
			{
				"x": -1.026158764,
				"y": -1.0721786937,
				"z": 0.1776189251,
				"element": "C" 
			},
			{
				"x": -1.8068144522,
				"y": -0.3573550727,
				"z": 1.3086554161,
				"element": "C" 
			},
			{
				"x": -1.9682466433,
				"y": 1.1082410558,
				"z": 0.8659031273,
				"element": "C" 
			},
			{
				"x": -2.5314982692,
				"y": 1.9801992896,
				"z": 1.4994229378,
				"element": "O" 
			},
			{
				"x": -1.3149646338,
				"y": 1.2469841692,
				"z": -0.4583757037,
				"element": "C" 
			},
			{
				"x": -1.2109534525,
				"y": 2.3944387288,
				"z": -1.2467710259,
				"element": "C" 
			},
			{
				"x": -0.5455328383,
				"y": 2.2831741265,
				"z": -2.466447089,
				"element": "C" 
			},
			{
				"x": -0.0031559503,
				"y": 1.0604272487,
				"z": -2.8796227079,
				"element": "C" 
			},
			{
				"x": 0.2865291568,
				"y": -1.9460705719,
				"z": -1.8923084596,
				"element": "H" 
			},
			{
				"x": -0.0839540949,
				"y": -1.4987459438,
				"z": 0.5463812422,
				"element": "H" 
			},
			{
				"x": -1.6032414507,
				"y": -1.9050454589,
				"z": -0.2454621083,
				"element": "H" 
			},
			{
				"x": -2.7973508426,
				"y": -0.7902873243,
				"z": 1.4794533294,
				"element": "H" 
			},
			{
				"x": -1.2824781063,
				"y": -0.384994306,
				"z": 2.2689046857,
				"element": "H" 
			},
			{
				"x": -1.6397210757,
				"y": 3.3304666185,
				"z": -0.9045217229,
				"element": "H" 
			},
			{
				"x": -0.4407698976,
				"y": 3.1499860665,
				"z": -3.1123667162,
				"element": "H" 
			},
			{
				"x": 0.5152157731,
				"y": 0.972717332,
				"z": -3.8292665262,
				"element": "H" 
			}
		],
		 "valence_orbital": [ 
			{
				"type": "occ",
				"energy": -0.35549,
				"method": "rhf"
			},
			{
				"type": "occ",
				"energy": -0.33065,
				"method": "rhf"
			},
			{
				"type": "occ",
				"energy": -0.25718,
				"method": "rhf"
			},
			{
				"type": "occ",
				"energy": -0.24229,
				"method": "rhf"
			},
			{
				"type": "occ",
				"energy": -0.23136,
				"method": "rhf"
			},
			{
				"type": "unocc",
				"energy": -0.05218,
				"method": "rhf"
			},
			{
				"type": "unocc",
				"energy": -0.00406,
				"method": "rhf"
			},
			{
				"type": "unocc",
				"energy": 0.05218,
				"method": "rhf"
			},
			{
				"type": "unocc",
				"energy": 0.05246,
				"method": "rhf"
			},
			{
				"type": "unocc",
				"energy": 0.09457,
				"method": "rhf"
			}
		],
		"cosmo_sigma_profile": { 
			"-0.025": 0.0,
			"-0.024": 0.0,
			"-0.023": 0.0,
			"-0.022": 0.0,
			"-0.021": 0.0,
			"-0.02": 0.0,
			"-0.019": 0.0,
			"-0.018": 0.0,
			"-0.017": 0.513797831049,
			"-0.016": 0.686844999362,
			"-0.015": 0.769823838733,
			"-0.014": 1.42347534175,
			"-0.013": 0.724196671764,
			"-0.012": 1.19299775216,
			"-0.011": 1.14524593844,
			"-0.01": 1.45267277229,
			"-0.009": 1.64804224669,
			"-0.008": 1.14582149784,
			"-0.007": 2.10449230012,
			"-0.006": 10.640743388,
			"-0.005": 16.7217076344,
			"-0.004": 18.1724938474,
			"-0.003": 12.622615952,
			"-0.002": 11.459856471,
			"-0.001": 9.82090726119,
			"0.0": 8.48002147788,
			"0.001": 8.06619588462,
			"0.002": 11.8949175066,
			"0.003": 12.9751504854,
			"0.004": 12.1377170326,
			"0.005": 5.43905988728,
			"0.006": 2.55517395785,
			"0.007": 3.15082025766,
			"0.008": 2.89950503114,
			"0.009": 3.34859607418,
			"0.01": 3.78838344367,
			"0.011": 4.08088185391,
			"0.012": 5.49460315648,
			"0.013": 2.96882132468,
			"0.014": 0.372582518787,
			"0.015": 0.0,
			"0.016": 0.0,
			"0.017": 0.0,
			"0.018": 0.0,
			"0.019": 0.0,
			"0.02": 0.0,
			"0.021": 0.0,
			"0.022": 0.0,
			"0.023": 0.0,
			"0.024": 0.0,
			"0.025": 0.0
		}
	}
}
