{
	 "smiles": "CC1=NNC2=C1C=C(C=N2)[N+]([O-])=O", 
	 "Tm": 463.15, 
	 "num_atms": 19, 
	 "gaussian": { 
		 "optdone": 1, 
		 "sigma_profile": "yes", 
		 "theory": "DFT", 
		 "functional": "B3LYP", 
		 "basiset": "6-31G**", 
		 "properties": { 
			 "R2extent": 3878.9665, 
			 "electric_dipole_moment_norm": 3.74279330714, 
			 "electric_quadrupole_moment_norm": 19.5560711208, 
			 "total_energy": -639.704125232, 
			 "HOMO_LUMO_gap": 0.16629, 
			 "cosmo_polarized_energy": -12.53, 
			 "cosmo_cavitation_energy": 24.57, 
			 "cosmo_dispersion_energy": -18.32, 
			 "cosmo_repulsion_energy": 1.44, 
			 "cosmo_total_nonelectrostatic_energy": 7.68, 
			 "SMD_solvation_energy": 3.87 
		},
		"coords": [
			{
				"x": 0.9626926094,
				"y": 1.3959004143,
				"z": 2.6987477389,
				"element": "C" 
			},
			{
				"x": 0.0897647761,
				"y": 0.7425999511,
				"z": 1.6758299711,
				"element": "C" 
			},
			{
				"x": -0.1689844071,
				"y": -0.5531644142,
				"z": 1.7215301071,
				"element": "N" 
			},
			{
				"x": -0.9840117024,
				"y": -0.83394182,
				"z": 0.6621411323,
				"element": "N" 
			},
			{
				"x": -1.2632214242,
				"y": 0.2660777428,
				"z": -0.0795350676,
				"element": "C" 
			},
			{
				"x": -0.5749801673,
				"y": 1.340421743,
				"z": 0.5499531528,
				"element": "C" 
			},
			{
				"x": -0.6980625995,
				"y": 2.6049984402,
				"z": -0.0239774807,
				"element": "C" 
			},
			{
				"x": -1.4905373681,
				"y": 2.6786862996,
				"z": -1.1638645585,
				"element": "C" 
			},
			{
				"x": -2.1314742142,
				"y": 1.5399861252,
				"z": -1.7062749841,
				"element": "C" 
			},
			{
				"x": -2.0289680304,
				"y": 0.3260215797,
				"z": -1.1774075635,
				"element": "N" 
			},
			{
				"x": -1.6692986014,
				"y": 3.9711549701,
				"z": -1.8251675883,
				"element": "N" 
			},
			{
				"x": -1.1006504247,
				"y": 4.9467239933,
				"z": -1.3331079797,
				"element": "O" 
			},
			{
				"x": -2.3766829602,
				"y": 4.0048544892,
				"z": -2.8324583694,
				"element": "O" 
			},
			{
				"x": 1.3066177289,
				"y": 0.6508879429,
				"z": 3.4187380713,
				"element": "H" 
			},
			{
				"x": 0.4220811749,
				"y": 2.1801930393,
				"z": 3.2401706038,
				"element": "H" 
			},
			{
				"x": 1.8387392953,
				"y": 1.862107636,
				"z": 2.2343125273,
				"element": "H" 
			},
			{
				"x": -1.3047444922,
				"y": -1.7776864218,
				"z": 0.5091198152,
				"element": "H" 
			},
			{
				"x": -0.2209258817,
				"y": 3.4964475978,
				"z": 0.3658925485,
				"element": "H" 
			},
			{
				"x": -2.738653311,
				"y": 1.6540306914,
				"z": -2.5978420766,
				"element": "H" 
			}
		],
		 "valence_orbital": [ 
			{
				"type": "occ",
				"energy": -0.3104,
				"method": "rhf"
			},
			{
				"type": "occ",
				"energy": -0.29567,
				"method": "rhf"
			},
			{
				"type": "occ",
				"energy": -0.29021,
				"method": "rhf"
			},
			{
				"type": "occ",
				"energy": -0.27831,
				"method": "rhf"
			},
			{
				"type": "occ",
				"energy": -0.25976,
				"method": "rhf"
			},
			{
				"type": "unocc",
				"energy": -0.09347,
				"method": "rhf"
			},
			{
				"type": "unocc",
				"energy": -0.06549,
				"method": "rhf"
			},
			{
				"type": "unocc",
				"energy": 0.00573,
				"method": "rhf"
			},
			{
				"type": "unocc",
				"energy": 0.02905,
				"method": "rhf"
			},
			{
				"type": "unocc",
				"energy": 0.07469,
				"method": "rhf"
			}
		],
		"cosmo_sigma_profile": { 
			"-0.025": 0.0,
			"-0.024": 0.0,
			"-0.023": 0.0,
			"-0.022": 0.0,
			"-0.021": 0.0,
			"-0.02": 0.0,
			"-0.019": 0.0,
			"-0.018": 0.117581331159,
			"-0.017": 1.30344054819,
			"-0.016": 1.27572156947,
			"-0.015": 1.38359737449,
			"-0.014": 0.7030320242,
			"-0.013": 0.546008365451,
			"-0.012": 1.07469272733,
			"-0.011": 1.14076740553,
			"-0.01": 0.477355795808,
			"-0.009": 1.27429082785,
			"-0.008": 3.15794263177,
			"-0.007": 4.18012679541,
			"-0.006": 7.4040269809,
			"-0.005": 12.8359387771,
			"-0.004": 13.2598946519,
			"-0.003": 16.2235362227,
			"-0.002": 22.9550543684,
			"-0.001": 22.1963073313,
			"0.0": 12.2425388718,
			"0.001": 7.75173361194,
			"0.002": 7.11827198641,
			"0.003": 4.89158704376,
			"0.004": 4.85435568764,
			"0.005": 5.50210598495,
			"0.006": 7.60201680229,
			"0.007": 9.77215259174,
			"0.008": 8.43550557818,
			"0.009": 6.33221883069,
			"0.01": 4.63636751454,
			"0.011": 1.84787532402,
			"0.012": 1.7018884977,
			"0.013": 1.84684031642,
			"0.014": 1.15545094661,
			"0.015": 0.306212320336,
			"0.016": 0.0,
			"0.017": 0.0,
			"0.018": 0.0,
			"0.019": 0.0,
			"0.02": 0.0,
			"0.021": 0.0,
			"0.022": 0.0,
			"0.023": 0.0,
			"0.024": 0.0,
			"0.025": 0.0
		}
	}
}
