{
	 "smiles": "CC(C)(C)NC(=S)NN", 
	 "Tm": 412.65, 
	 "num_atms": 22, 
	 "gaussian": { 
		 "optdone": 1, 
		 "sigma_profile": "yes", 
		 "theory": "DFT", 
		 "functional": "B3LYP", 
		 "basiset": "6-31G**", 
		 "properties": { 
			 "R2extent": 2757.3791, 
			 "electric_dipole_moment_norm": 5.14670946334, 
			 "electric_quadrupole_moment_norm": 21.6924809471, 
			 "total_energy": -760.80033351, 
			 "HOMO_LUMO_gap": 0.20887, 
			 "cosmo_polarized_energy": -15.51, 
			 "cosmo_cavitation_energy": 25.26, 
			 "cosmo_dispersion_energy": -18.56, 
			 "cosmo_repulsion_energy": 1.49, 
			 "cosmo_total_nonelectrostatic_energy": 8.19, 
			 "SMD_solvation_energy": 3.82 
		},
		"coords": [
			{
				"x": -0.4054864121,
				"y": -0.7015751195,
				"z": 2.374859889,
				"element": "C" 
			},
			{
				"x": -0.5724180547,
				"y": -0.1111297248,
				"z": 0.9627176359,
				"element": "C" 
			},
			{
				"x": -0.2128790425,
				"y": 1.3891392583,
				"z": 1.0111087287,
				"element": "C" 
			},
			{
				"x": 0.3497277064,
				"y": -0.8826636485,
				"z": -0.0051346618,
				"element": "C" 
			},
			{
				"x": -2.0014915432,
				"y": -0.3130634265,
				"z": 0.6232424005,
				"element": "N" 
			},
			{
				"x": -2.7367054895,
				"y": -0.0012780528,
				"z": -0.480318633,
				"element": "C" 
			},
			{
				"x": -4.3856111141,
				"y": -0.3796678069,
				"z": -0.5455345397,
				"element": "S" 
			},
			{
				"x": -2.1074118065,
				"y": 0.6170359419,
				"z": -1.5152440672,
				"element": "N" 
			},
			{
				"x": -2.7382394509,
				"y": 0.9961814747,
				"z": -2.7119253813,
				"element": "N" 
			},
			{
				"x": 0.6294410234,
				"y": -0.5951337192,
				"z": 2.710145427,
				"element": "H" 
			},
			{
				"x": -0.6573346868,
				"y": -1.7672606697,
				"z": 2.3850472852,
				"element": "H" 
			},
			{
				"x": -1.0496493262,
				"y": -0.183959086,
				"z": 3.0934304512,
				"element": "H" 
			},
			{
				"x": -0.3070674461,
				"y": 1.8846908683,
				"z": 0.0409842009,
				"element": "H" 
			},
			{
				"x": -0.8673543588,
				"y": 1.9135767923,
				"z": 1.7129929146,
				"element": "H" 
			},
			{
				"x": 0.8225989275,
				"y": 1.5152611152,
				"z": 1.342798234,
				"element": "H" 
			},
			{
				"x": 0.0882680514,
				"y": -1.9445444394,
				"z": -0.0127459906,
				"element": "H" 
			},
			{
				"x": 0.2888709121,
				"y": -0.5218730452,
				"z": -1.0355312346,
				"element": "H" 
			},
			{
				"x": 1.3923014893,
				"y": -0.7850088863,
				"z": 0.3136989995,
				"element": "H" 
			},
			{
				"x": -2.5698955976,
				"y": -0.7670165101,
				"z": 1.3239718337,
				"element": "H" 
			},
			{
				"x": -1.1279193026,
				"y": 0.8430792024,
				"z": -1.4802275396,
				"element": "H" 
			},
			{
				"x": -3.1713497916,
				"y": 0.1579299596,
				"z": -3.1023891239,
				"element": "H" 
			},
			{
				"x": -3.5258946868,
				"y": 1.5952795223,
				"z": -2.4601468284,
				"element": "H" 
			}
		],
		 "valence_orbital": [ 
			{
				"type": "occ",
				"energy": -0.34659,
				"method": "rhf"
			},
			{
				"type": "occ",
				"energy": -0.28128,
				"method": "rhf"
			},
			{
				"type": "occ",
				"energy": -0.26003,
				"method": "rhf"
			},
			{
				"type": "occ",
				"energy": -0.2074,
				"method": "rhf"
			},
			{
				"type": "occ",
				"energy": -0.20005,
				"method": "rhf"
			},
			{
				"type": "unocc",
				"energy": 0.00882,
				"method": "rhf"
			},
			{
				"type": "unocc",
				"energy": 0.04963,
				"method": "rhf"
			},
			{
				"type": "unocc",
				"energy": 0.07441,
				"method": "rhf"
			},
			{
				"type": "unocc",
				"energy": 0.09557,
				"method": "rhf"
			},
			{
				"type": "unocc",
				"energy": 0.09821,
				"method": "rhf"
			}
		],
		"cosmo_sigma_profile": { 
			"-0.025": 0.0,
			"-0.024": 0.0,
			"-0.023": 0.0,
			"-0.022": 0.0,
			"-0.021": 0.0,
			"-0.02": 0.0,
			"-0.019": 0.0,
			"-0.018": 0.0,
			"-0.017": 0.0,
			"-0.016": 0.0,
			"-0.015": 0.0793566581932,
			"-0.014": 0.572634202277,
			"-0.013": 1.08134637312,
			"-0.012": 1.26783307403,
			"-0.011": 2.15325960902,
			"-0.01": 3.85837091212,
			"-0.009": 3.73126413466,
			"-0.008": 5.00581196398,
			"-0.007": 3.82182165845,
			"-0.006": 4.45465510603,
			"-0.005": 7.48740820985,
			"-0.004": 20.2375140708,
			"-0.003": 19.2867471597,
			"-0.002": 16.6846278899,
			"-0.001": 21.3963430666,
			"0.0": 23.8927566147,
			"0.001": 9.19915225827,
			"0.002": 4.51652699036,
			"0.003": 3.52870609617,
			"0.004": 3.64379795502,
			"0.005": 4.14778995938,
			"0.006": 3.4829728093,
			"0.007": 3.52612185036,
			"0.008": 3.88796679792,
			"0.009": 4.37246691143,
			"0.01": 5.36624801516,
			"0.011": 6.89239580959,
			"0.012": 7.48326651085,
			"0.013": 2.08883656582,
			"0.014": 0.842233969034,
			"0.015": 0.478636383912,
			"0.016": 0.583932255079,
			"0.017": 0.0,
			"0.018": 0.0,
			"0.019": 0.0,
			"0.02": 0.0,
			"0.021": 0.0,
			"0.022": 0.0,
			"0.023": 0.0,
			"0.024": 0.0,
			"0.025": 0.0
		}
	}
}
