{
	 "smiles": "COC(=O)C1=C(CBr)C(C(=O)OC)=C(N)S1", 
	 "Tm": 437.15, 
	 "num_atms": 26, 
	 "gaussian": { 
		 "optdone": 1, 
		 "sigma_profile": "yes", 
		 "theory": "DFT", 
		 "functional": "B3LYP", 
		 "basiset": "6-31G**", 
		 "properties": { 
			 "R2extent": 5407.3991, 
			 "electric_dipole_moment_norm": 2.17133106642, 
			 "electric_quadrupole_moment_norm": 15.0543012844, 
			 "total_energy": -3674.2431895, 
			 "HOMO_LUMO_gap": 0.15617, 
			 "cosmo_polarized_energy": -14.71, 
			 "cosmo_cavitation_energy": 34.1, 
			 "cosmo_dispersion_energy": -24.88, 
			 "cosmo_repulsion_energy": 1.91, 
			 "cosmo_total_nonelectrostatic_energy": 11.14, 
			 "SMD_solvation_energy": 7.38 
		},
		"coords": [
			{
				"x": -1.0312990289,
				"y": 2.8329385553,
				"z": 3.6532499755,
				"element": "C" 
			},
			{
				"x": -0.6734827485,
				"y": 1.8767478955,
				"z": 2.6407101031,
				"element": "O" 
			},
			{
				"x": -1.0107620916,
				"y": 0.59599433,
				"z": 2.918159172,
				"element": "C" 
			},
			{
				"x": -1.5615456582,
				"y": 0.263582389,
				"z": 3.9553959148,
				"element": "O" 
			},
			{
				"x": -0.6610253798,
				"y": -0.3617108802,
				"z": 1.8666514564,
				"element": "C" 
			},
			{
				"x": -0.0643314938,
				"y": -0.2566083863,
				"z": 0.6256694613,
				"element": "C" 
			},
			{
				"x": 0.4258727599,
				"y": 1.0379438163,
				"z": 0.066322986,
				"element": "C" 
			},
			{
				"x": -0.9248288728,
				"y": 1.8555215625,
				"z": -1.1678619231,
				"element": "Br" 
			},
			{
				"x": 0.031312471,
				"y": -1.527323527,
				"z": -0.051211108,
				"element": "C" 
			},
			{
				"x": 0.5860371655,
				"y": -1.8390676732,
				"z": -1.368637905,
				"element": "C" 
			},
			{
				"x": 0.568828889,
				"y": -2.9615764699,
				"z": -1.8737373674,
				"element": "O" 
			},
			{
				"x": 1.1382868456,
				"y": -0.7885755437,
				"z": -2.0097983097,
				"element": "O" 
			},
			{
				"x": 1.6496966064,
				"y": -1.0599979412,
				"z": -3.3250899852,
				"element": "C" 
			},
			{
				"x": -0.5153511706,
				"y": -2.5755178609,
				"z": 0.7140841174,
				"element": "C" 
			},
			{
				"x": -0.5685375351,
				"y": -3.8738701286,
				"z": 0.3671636025,
				"element": "N" 
			},
			{
				"x": -1.1279344421,
				"y": -2.0203826394,
				"z": 2.2444242625,
				"element": "S" 
			},
			{
				"x": -0.7093765479,
				"y": 3.799413097,
				"z": 3.2662932887,
				"element": "H" 
			},
			{
				"x": -2.1105835928,
				"y": 2.8261964605,
				"z": 3.8214807312,
				"element": "H" 
			},
			{
				"x": -0.5247632624,
				"y": 2.605257075,
				"z": 4.5943330977,
				"element": "H" 
			},
			{
				"x": 1.3052454978,
				"y": 0.9097441088,
				"z": -0.5539529514,
				"element": "H" 
			},
			{
				"x": 0.5694717745,
				"y": 1.784497188,
				"z": 0.8373397406,
				"element": "H" 
			},
			{
				"x": 0.8568771812,
				"y": -1.4391273393,
				"z": -3.9736861871,
				"element": "H" 
			},
			{
				"x": 2.4553112495,
				"y": -1.796899781,
				"z": -3.2811327922,
				"element": "H" 
			},
			{
				"x": 2.0210653698,
				"y": -0.1042281549,
				"z": -3.6936222044,
				"element": "H" 
			},
			{
				"x": -0.2407505106,
				"y": -4.0958104187,
				"z": -0.5691516484,
				"element": "H" 
			},
			{
				"x": -1.047333475,
				"y": -4.5517397336,
				"z": 0.9362044723,
				"element": "H" 
			}
		],
		 "valence_orbital": [ 
			{
				"type": "occ",
				"energy": -0.27648,
				"method": "rhf"
			},
			{
				"type": "occ",
				"energy": -0.27188,
				"method": "rhf"
			},
			{
				"type": "occ",
				"energy": -0.26331,
				"method": "rhf"
			},
			{
				"type": "occ",
				"energy": -0.25854,
				"method": "rhf"
			},
			{
				"type": "occ",
				"energy": -0.21493,
				"method": "rhf"
			},
			{
				"type": "unocc",
				"energy": -0.05876,
				"method": "rhf"
			},
			{
				"type": "unocc",
				"energy": -0.02831,
				"method": "rhf"
			},
			{
				"type": "unocc",
				"energy": 0.00414,
				"method": "rhf"
			},
			{
				"type": "unocc",
				"energy": 0.01767,
				"method": "rhf"
			},
			{
				"type": "unocc",
				"energy": 0.07447,
				"method": "rhf"
			}
		],
		"cosmo_sigma_profile": { 
			"-0.025": 0.0,
			"-0.024": 0.0,
			"-0.023": 0.0,
			"-0.022": 0.0,
			"-0.021": 0.0,
			"-0.02": 0.0,
			"-0.019": 0.0,
			"-0.018": 0.0,
			"-0.017": 0.0,
			"-0.016": 0.834133384835,
			"-0.015": 1.64886415148,
			"-0.014": 1.27969753049,
			"-0.013": 1.62411075821,
			"-0.012": 0.943263100916,
			"-0.011": 2.32121057183,
			"-0.01": 1.6320823778,
			"-0.009": 1.89587465359,
			"-0.008": 1.29632238563,
			"-0.007": 2.67116257374,
			"-0.006": 12.9708879781,
			"-0.005": 17.7264503973,
			"-0.004": 22.61959552,
			"-0.003": 23.2221975246,
			"-0.002": 18.0726545232,
			"-0.001": 17.139083174,
			"0.0": 23.3837977319,
			"0.001": 25.1596993444,
			"0.002": 18.3439776436,
			"0.003": 16.4433135683,
			"0.004": 12.8801027979,
			"0.005": 12.3251259077,
			"0.006": 15.7179745957,
			"0.007": 4.97498061484,
			"0.008": 2.94705379703,
			"0.009": 3.39305146431,
			"0.01": 3.70676207315,
			"0.011": 4.83400148692,
			"0.012": 5.10461190717,
			"0.013": 0.118486102403,
			"0.014": 0.0,
			"0.015": 0.0,
			"0.016": 0.0,
			"0.017": 0.0,
			"0.018": 0.0,
			"0.019": 0.0,
			"0.02": 0.0,
			"0.021": 0.0,
			"0.022": 0.0,
			"0.023": 0.0,
			"0.024": 0.0,
			"0.025": 0.0
		}
	}
}
