{
	 "smiles": "COC(=O)C1=NSN=C1C(O)=O", 
	 "Tm": 356.15, 
	 "num_atms": 16, 
	 "gaussian": { 
		 "optdone": 1, 
		 "sigma_profile": "yes", 
		 "theory": "DFT", 
		 "functional": "B3LYP", 
		 "basiset": "6-31G**", 
		 "properties": { 
			 "R2extent": 2795.9149, 
			 "electric_dipole_moment_norm": 2.78137070704, 
			 "electric_quadrupole_moment_norm": 9.78862198524, 
			 "total_energy": -1001.50645471, 
			 "HOMO_LUMO_gap": 0.19472, 
			 "cosmo_polarized_energy": -13.73, 
			 "cosmo_cavitation_energy": 24.27, 
			 "cosmo_dispersion_energy": -18.15, 
			 "cosmo_repulsion_energy": 1.43, 
			 "cosmo_total_nonelectrostatic_energy": 7.55, 
			 "SMD_solvation_energy": 4.22 
		},
		"coords": [
			{
				"x": -2.3306510999,
				"y": -0.4011557683,
				"z": -3.2279497022,
				"element": "C" 
			},
			{
				"x": -0.9838227622,
				"y": 0.0211646092,
				"z": -2.9422006531,
				"element": "O" 
			},
			{
				"x": -0.5358914187,
				"y": -0.2958319734,
				"z": -1.7233705845,
				"element": "C" 
			},
			{
				"x": -1.1755230081,
				"y": -0.8854681865,
				"z": -0.8750899601,
				"element": "O" 
			},
			{
				"x": 0.869498156,
				"y": 0.1480221487,
				"z": -1.4925532168,
				"element": "C" 
			},
			{
				"x": 1.6350915286,
				"y": 0.6359791672,
				"z": -2.4516794943,
				"element": "N" 
			},
			{
				"x": 3.1121060831,
				"y": 0.9456859561,
				"z": -1.7849682994,
				"element": "S" 
			},
			{
				"x": 2.7853944807,
				"y": 0.4471185141,
				"z": -0.2334842254,
				"element": "N" 
			},
			{
				"x": 1.533292673,
				"y": 0.0420488967,
				"z": -0.218109269,
				"element": "C" 
			},
			{
				"x": 0.9482742811,
				"y": -0.5032177074,
				"z": 1.0594057042,
				"element": "C" 
			},
			{
				"x": 0.0744860989,
				"y": 0.3638551575,
				"z": 1.5998588861,
				"element": "O" 
			},
			{
				"x": 1.2562767274,
				"y": -1.5650002523,
				"z": 1.5411373385,
				"element": "O" 
			},
			{
				"x": -3.0322131314,
				"y": 0.0646444985,
				"z": -2.5318157201,
				"element": "H" 
			},
			{
				"x": -2.5256345307,
				"y": -0.0746022731,
				"z": -4.2484499987,
				"element": "H" 
			},
			{
				"x": -2.4155224035,
				"y": -1.4872646674,
				"z": -3.1457889688,
				"element": "H" 
			},
			{
				"x": -0.2905616742,
				"y": -0.0659781193,
				"z": 2.3925581636,
				"element": "H" 
			}
		],
		 "valence_orbital": [ 
			{
				"type": "occ",
				"energy": -0.32121,
				"method": "rhf"
			},
			{
				"type": "occ",
				"energy": -0.31795,
				"method": "rhf"
			},
			{
				"type": "occ",
				"energy": -0.30122,
				"method": "rhf"
			},
			{
				"type": "occ",
				"energy": -0.29767,
				"method": "rhf"
			},
			{
				"type": "occ",
				"energy": -0.2823,
				"method": "rhf"
			},
			{
				"type": "unocc",
				"energy": -0.08758,
				"method": "rhf"
			},
			{
				"type": "unocc",
				"energy": -0.04189,
				"method": "rhf"
			},
			{
				"type": "unocc",
				"energy": -0.02077,
				"method": "rhf"
			},
			{
				"type": "unocc",
				"energy": 0.01058,
				"method": "rhf"
			},
			{
				"type": "unocc",
				"energy": 0.0543,
				"method": "rhf"
			}
		],
		"cosmo_sigma_profile": { 
			"-0.025": 0.0,
			"-0.024": 0.0,
			"-0.023": 0.0,
			"-0.022": 0.0,
			"-0.021": 0.0,
			"-0.02": 0.104845558892,
			"-0.019": 0.985107112834,
			"-0.018": 0.96854318183,
			"-0.017": 0.946354068514,
			"-0.016": 1.10908089139,
			"-0.015": 0.36277544254,
			"-0.014": 0.25342310938,
			"-0.013": 0.79303215361,
			"-0.012": 1.29436657759,
			"-0.011": 0.662135611901,
			"-0.01": 0.549306730271,
			"-0.009": 0.663283619703,
			"-0.008": 1.02306687348,
			"-0.007": 5.05477013802,
			"-0.006": 13.7267574788,
			"-0.005": 17.3196143941,
			"-0.004": 20.0935934923,
			"-0.003": 17.4592712873,
			"-0.002": 16.4255762794,
			"-0.001": 9.44726258885,
			"0.0": 6.15916192962,
			"0.001": 7.67547400821,
			"0.002": 6.129060555,
			"0.003": 6.73362504559,
			"0.004": 6.17210738561,
			"0.005": 7.18021950758,
			"0.006": 8.30836805818,
			"0.007": 7.59304430023,
			"0.008": 7.49918535723,
			"0.009": 7.95858817154,
			"0.01": 9.79255838867,
			"0.011": 6.36442104996,
			"0.012": 0.751431785961,
			"0.013": 0.0,
			"0.014": 0.0,
			"0.015": 0.0,
			"0.016": 0.0,
			"0.017": 0.0,
			"0.018": 0.0,
			"0.019": 0.0,
			"0.02": 0.0,
			"0.021": 0.0,
			"0.022": 0.0,
			"0.023": 0.0,
			"0.024": 0.0,
			"0.025": 0.0
		}
	}
}
