{
	 "smiles": "N#CC(=CC1=CN=CC=C1)C1N=C2C=CC=CC2=N1", 
	 "Tm": 502.15, 
	 "num_atms": 29, 
	 "gaussian": { 
		 "optdone": 1, 
		 "sigma_profile": "yes", 
		 "theory": "DFT", 
		 "functional": "B3LYP", 
		 "basiset": "6-31G**", 
		 "properties": { 
			 "R2extent": 7217.0825, 
			 "electric_dipole_moment_norm": 4.5475104112, 
			 "electric_quadrupole_moment_norm": 27.1514409257, 
			 "total_energy": -796.54603898, 
			 "HOMO_LUMO_gap": 0.13318, 
			 "cosmo_polarized_energy": -15.99, 
			 "cosmo_cavitation_energy": 35.31, 
			 "cosmo_dispersion_energy": -25.03, 
			 "cosmo_repulsion_energy": 1.9, 
			 "cosmo_total_nonelectrostatic_energy": 12.17, 
			 "SMD_solvation_energy": -0.42 
		},
		"coords": [
			{
				"x": -0.7473484704,
				"y": -2.6091321869,
				"z": 3.8210059067,
				"element": "N" 
			},
			{
				"x": -0.6442257394,
				"y": -2.2013814991,
				"z": 2.7349052855,
				"element": "C" 
			},
			{
				"x": -0.5390199691,
				"y": -1.7225015866,
				"z": 1.392181272,
				"element": "C" 
			},
			{
				"x": -0.7980214604,
				"y": -0.4459641538,
				"z": 1.0215063845,
				"element": "C" 
			},
			{
				"x": -1.1984008333,
				"y": 0.7210895603,
				"z": 1.804954381,
				"element": "C" 
			},
			{
				"x": -1.415683899,
				"y": 1.919036644,
				"z": 1.0918531935,
				"element": "C" 
			},
			{
				"x": -1.7820959035,
				"y": 3.0779691547,
				"z": 1.6382472281,
				"element": "N" 
			},
			{
				"x": -1.9547038064,
				"y": 3.0976596549,
				"z": 2.9664997507,
				"element": "C" 
			},
			{
				"x": -1.7692837745,
				"y": 1.9781693648,
				"z": 3.7806086836,
				"element": "C" 
			},
			{
				"x": -1.3867375457,
				"y": 0.7743991977,
				"z": 3.199498754,
				"element": "C" 
			},
			{
				"x": -0.1310383838,
				"y": -2.7872652526,
				"z": 0.373747037,
				"element": "C" 
			},
			{
				"x": 0.0005758561,
				"y": -2.2748814582,
				"z": -0.9829587985,
				"element": "N" 
			},
			{
				"x": 1.1803245907,
				"y": -2.6696922814,
				"z": -1.3567254083,
				"element": "C" 
			},
			{
				"x": 1.8513805791,
				"y": -2.4817183059,
				"z": -2.620399045,
				"element": "C" 
			},
			{
				"x": 3.1050221122,
				"y": -2.9926396264,
				"z": -2.7435627042,
				"element": "C" 
			},
			{
				"x": 3.7735714164,
				"y": -3.7128608211,
				"z": -1.6668570616,
				"element": "C" 
			},
			{
				"x": 3.1914595824,
				"y": -3.9281199,
				"z": -0.4581336556,
				"element": "C" 
			},
			{
				"x": 1.8595130467,
				"y": -3.406587588,
				"z": -0.2599053722,
				"element": "C" 
			},
			{
				"x": 1.0989051494,
				"y": -3.4706819858,
				"z": 0.7889774265,
				"element": "N" 
			},
			{
				"x": -0.6997596466,
				"y": -0.2591591325,
				"z": -0.0443905346,
				"element": "H" 
			},
			{
				"x": -1.2802400449,
				"y": 1.923121772,
				"z": 0.0102164332,
				"element": "H" 
			},
			{
				"x": -2.2540501453,
				"y": 4.0510512973,
				"z": 3.3980033475,
				"element": "H" 
			},
			{
				"x": -1.9222369085,
				"y": 2.050089017,
				"z": 4.8527408863,
				"element": "H" 
			},
			{
				"x": -1.2387574601,
				"y": -0.1022675847,
				"z": 3.8177111178,
				"element": "H" 
			},
			{
				"x": -0.9168398678,
				"y": -3.5629526458,
				"z": 0.3481989804,
				"element": "H" 
			},
			{
				"x": 1.3568055641,
				"y": -1.9484208326,
				"z": -3.4250251474,
				"element": "H" 
			},
			{
				"x": 3.6467584973,
				"y": -2.8700482098,
				"z": -3.6771551479,
				"element": "H" 
			},
			{
				"x": 4.7755311863,
				"y": -4.0859469899,
				"z": -1.8582511605,
				"element": "H" 
			},
			{
				"x": 3.686796278,
				"y": -4.4660636214,
				"z": 0.3428079677,
				"element": "H" 
			}
		],
		 "valence_orbital": [ 
			{
				"type": "occ",
				"energy": -0.28763,
				"method": "rhf"
			},
			{
				"type": "occ",
				"energy": -0.28647,
				"method": "rhf"
			},
			{
				"type": "occ",
				"energy": -0.26132,
				"method": "rhf"
			},
			{
				"type": "occ",
				"energy": -0.24956,
				"method": "rhf"
			},
			{
				"type": "occ",
				"energy": -0.24443,
				"method": "rhf"
			},
			{
				"type": "unocc",
				"energy": -0.11125,
				"method": "rhf"
			},
			{
				"type": "unocc",
				"energy": -0.07547,
				"method": "rhf"
			},
			{
				"type": "unocc",
				"energy": -0.02674,
				"method": "rhf"
			},
			{
				"type": "unocc",
				"energy": 0.00042,
				"method": "rhf"
			},
			{
				"type": "unocc",
				"energy": 0.00295,
				"method": "rhf"
			}
		],
		"cosmo_sigma_profile": { 
			"-0.025": 0.0,
			"-0.024": 0.0,
			"-0.023": 0.0,
			"-0.022": 0.0,
			"-0.021": 0.0,
			"-0.02": 0.0,
			"-0.019": 0.0,
			"-0.018": 0.0,
			"-0.017": 0.0,
			"-0.016": 0.0,
			"-0.015": 0.0,
			"-0.014": 0.0,
			"-0.013": 0.0,
			"-0.012": 0.0,
			"-0.011": 0.0,
			"-0.01": 0.3361067136,
			"-0.009": 3.11084044321,
			"-0.008": 7.65296977948,
			"-0.007": 18.3253756446,
			"-0.006": 18.930886281,
			"-0.005": 16.0544495665,
			"-0.004": 14.9041404471,
			"-0.003": 18.6387382214,
			"-0.002": 20.8206339759,
			"-0.001": 24.6572563631,
			"0.0": 27.8127826158,
			"0.001": 30.9925587638,
			"0.002": 17.5739983821,
			"0.003": 8.31904839452,
			"0.004": 6.05953253898,
			"0.005": 6.2145244618,
			"0.006": 5.23167275349,
			"0.007": 6.12464282411,
			"0.008": 6.42476107907,
			"0.009": 6.11028991942,
			"0.01": 5.35832344029,
			"0.011": 5.03390212456,
			"0.012": 4.87603614294,
			"0.013": 3.16000774397,
			"0.014": 2.08000641741,
			"0.015": 1.25726250978,
			"0.016": 0.55706775882,
			"0.017": 0.0187577543715,
			"0.018": 0.0,
			"0.019": 0.0,
			"0.02": 0.0,
			"0.021": 0.0,
			"0.022": 0.0,
			"0.023": 0.0,
			"0.024": 0.0,
			"0.025": 0.0
		}
	}
}
