{
	 "smiles": "CN(CC(O)=O)C1=C(C=O)C=C(C=C1)C(F)(F)F", 
	 "Tm": 380.15, 
	 "num_atms": 28, 
	 "gaussian": { 
		 "optdone": 1, 
		 "sigma_profile": "yes", 
		 "theory": "DFT", 
		 "functional": "B3LYP", 
		 "basiset": "6-31G**", 
		 "properties": { 
			 "R2extent": 6099.2112, 
			 "electric_dipole_moment_norm": 3.96202118747, 
			 "electric_quadrupole_moment_norm": 23.3805358208, 
			 "total_energy": -1005.12989866, 
			 "HOMO_LUMO_gap": 0.16466, 
			 "cosmo_polarized_energy": -19.03, 
			 "cosmo_cavitation_energy": 34.21, 
			 "cosmo_dispersion_energy": -23.15, 
			 "cosmo_repulsion_energy": 1.72, 
			 "cosmo_total_nonelectrostatic_energy": 12.78, 
			 "SMD_solvation_energy": 9.75 
		},
		"coords": [
			{
				"x": -2.3340416078,
				"y": 0.0692344303,
				"z": 0.9038121716,
				"element": "C" 
			},
			{
				"x": -1.2503557204,
				"y": 0.8625736307,
				"z": 0.3017602778,
				"element": "N" 
			},
			{
				"x": -1.7163833692,
				"y": 1.9963588529,
				"z": -0.5056483555,
				"element": "C" 
			},
			{
				"x": -1.9891526722,
				"y": 3.2406556556,
				"z": 0.3624937196,
				"element": "C" 
			},
			{
				"x": -1.4491920259,
				"y": 3.1773733072,
				"z": 1.5912372276,
				"element": "O" 
			},
			{
				"x": -2.6117750169,
				"y": 4.1891655002,
				"z": -0.0446257732,
				"element": "O" 
			},
			{
				"x": -0.1332206599,
				"y": 0.0938450774,
				"z": -0.1840869508,
				"element": "C" 
			},
			{
				"x": -0.083164902,
				"y": -0.5334769245,
				"z": -1.4496842621,
				"element": "C" 
			},
			{
				"x": -1.2252488784,
				"y": -0.5430822979,
				"z": -2.4055882878,
				"element": "C" 
			},
			{
				"x": -1.1697531712,
				"y": -1.0579956119,
				"z": -3.5056464829,
				"element": "O" 
			},
			{
				"x": 1.0735578881,
				"y": -1.2297168745,
				"z": -1.8342596058,
				"element": "C" 
			},
			{
				"x": 2.158520499,
				"y": -1.3378351806,
				"z": -0.9744368044,
				"element": "C" 
			},
			{
				"x": 2.100304055,
				"y": -0.7464137301,
				"z": 0.2929238972,
				"element": "C" 
			},
			{
				"x": 0.9666384423,
				"y": -0.0367250386,
				"z": 0.6743079215,
				"element": "C" 
			},
			{
				"x": 3.4151294763,
				"y": -2.0473996036,
				"z": -1.4095478839,
				"element": "C" 
			},
			{
				"x": 3.1738730998,
				"y": -2.9461574588,
				"z": -2.3841874458,
				"element": "F" 
			},
			{
				"x": 4.3319867363,
				"y": -1.1752084693,
				"z": -1.8844117611,
				"element": "F" 
			},
			{
				"x": 3.9924659803,
				"y": -2.702009404,
				"z": -0.3775631866,
				"element": "F" 
			},
			{
				"x": -2.9391630309,
				"y": -0.4652616617,
				"z": 0.1556952656,
				"element": "H" 
			},
			{
				"x": -1.9100350686,
				"y": -0.6636557571,
				"z": 1.5938299756,
				"element": "H" 
			},
			{
				"x": -2.9930484622,
				"y": 0.7335642683,
				"z": 1.4706582707,
				"element": "H" 
			},
			{
				"x": -2.6331197349,
				"y": 1.7931944609,
				"z": -1.073269023,
				"element": "H" 
			},
			{
				"x": -0.9419247586,
				"y": 2.2749960383,
				"z": -1.2267201371,
				"element": "H" 
			},
			{
				"x": -1.0169457188,
				"y": 2.2966106228,
				"z": 1.6332163754,
				"element": "H" 
			},
			{
				"x": -2.161779484,
				"y": -0.0686624062,
				"z": -2.0590868303,
				"element": "H" 
			},
			{
				"x": 1.0831477059,
				"y": -1.6969008638,
				"z": -2.8128676069,
				"element": "H" 
			},
			{
				"x": 2.9407267491,
				"y": -0.8374562693,
				"z": 0.9728923615,
				"element": "H" 
			},
			{
				"x": 0.9238536498,
				"y": 0.4392857075,
				"z": 1.648802933,
				"element": "H" 
			}
		],
		 "valence_orbital": [ 
			{
				"type": "occ",
				"energy": -0.29929,
				"method": "rhf"
			},
			{
				"type": "occ",
				"energy": -0.29434,
				"method": "rhf"
			},
			{
				"type": "occ",
				"energy": -0.29092,
				"method": "rhf"
			},
			{
				"type": "occ",
				"energy": -0.27855,
				"method": "rhf"
			},
			{
				"type": "occ",
				"energy": -0.25812,
				"method": "rhf"
			},
			{
				"type": "unocc",
				"energy": -0.09346,
				"method": "rhf"
			},
			{
				"type": "unocc",
				"energy": -0.05247,
				"method": "rhf"
			},
			{
				"type": "unocc",
				"energy": 0.0029,
				"method": "rhf"
			},
			{
				"type": "unocc",
				"energy": 0.00452,
				"method": "rhf"
			},
			{
				"type": "unocc",
				"energy": 0.05088,
				"method": "rhf"
			}
		],
		"cosmo_sigma_profile": { 
			"-0.025": 0.0,
			"-0.024": 0.0,
			"-0.023": 0.0,
			"-0.022": 0.0,
			"-0.021": 0.0,
			"-0.02": 0.0,
			"-0.019": 0.0,
			"-0.018": 0.0,
			"-0.017": 0.0,
			"-0.016": 0.0,
			"-0.015": 0.0,
			"-0.014": 0.0,
			"-0.013": 0.0,
			"-0.012": 0.0398965124746,
			"-0.011": 0.741481635376,
			"-0.01": 1.20860708806,
			"-0.009": 5.82441602516,
			"-0.008": 11.6139245249,
			"-0.007": 14.2102240775,
			"-0.006": 15.2891521664,
			"-0.005": 16.7665468987,
			"-0.004": 17.658237211,
			"-0.003": 17.9424689859,
			"-0.002": 17.0022879611,
			"-0.001": 14.6844027795,
			"0.0": 20.6053502261,
			"0.001": 18.7647760959,
			"0.002": 24.4348842647,
			"0.003": 24.9530554645,
			"0.004": 4.20817893889,
			"0.005": 3.09241482727,
			"0.006": 2.77954123084,
			"0.007": 4.02874837049,
			"0.008": 5.2951816819,
			"0.009": 5.36660742869,
			"0.01": 8.32597307443,
			"0.011": 8.06944543711,
			"0.012": 7.54648690893,
			"0.013": 2.6040180734,
			"0.014": 0.0976269286984,
			"0.015": 0.0,
			"0.016": 0.0,
			"0.017": 0.0,
			"0.018": 0.0,
			"0.019": 0.0,
			"0.02": 0.0,
			"0.021": 0.0,
			"0.022": 0.0,
			"0.023": 0.0,
			"0.024": 0.0,
			"0.025": 0.0
		}
	}
}
