{
	 "smiles": "FC1=CC=C(C=C1)C1CC(=O)CC(=O)C1", 
	 "Tm": 449.15, 
	 "num_atms": 26, 
	 "gaussian": { 
		 "optdone": 1, 
		 "sigma_profile": "yes", 
		 "theory": "DFT", 
		 "functional": "B3LYP", 
		 "basiset": "6-31G**", 
		 "properties": { 
			 "R2extent": 3682.318, 
			 "electric_dipole_moment_norm": 4.22629047156, 
			 "electric_quadrupole_moment_norm": 7.6016094684, 
			 "total_energy": -714.183802254, 
			 "HOMO_LUMO_gap": 0.19935, 
			 "cosmo_polarized_energy": -14.95, 
			 "cosmo_cavitation_energy": 29.61, 
			 "cosmo_dispersion_energy": -20.84, 
			 "cosmo_repulsion_energy": 1.6, 
			 "cosmo_total_nonelectrostatic_energy": 10.37, 
			 "SMD_solvation_energy": 6.27 
		},
		"coords": [
			{
				"x": -4.643217769,
				"y": 1.8842481626,
				"z": -0.5864723535,
				"element": "F" 
			},
			{
				"x": -3.4676635485,
				"y": 1.2655904342,
				"z": -0.8201373911,
				"element": "C" 
			},
			{
				"x": -3.3992703708,
				"y": -0.1195460888,
				"z": -0.7078160228,
				"element": "C" 
			},
			{
				"x": -2.181570929,
				"y": -0.7473504348,
				"z": -0.9534924485,
				"element": "C" 
			},
			{
				"x": -1.0330403073,
				"y": -0.018637362,
				"z": -1.305394947,
				"element": "C" 
			},
			{
				"x": -1.1463486378,
				"y": 1.3736883176,
				"z": -1.4175430914,
				"element": "C" 
			},
			{
				"x": -2.3603080417,
				"y": 2.0221567183,
				"z": -1.1740957238,
				"element": "C" 
			},
			{
				"x": 0.2661137483,
				"y": -0.7854234691,
				"z": -1.5489442368,
				"element": "C" 
			},
			{
				"x": 1.3609703502,
				"y": 0.0152871241,
				"z": -2.2915997682,
				"element": "C" 
			},
			{
				"x": 2.0640525459,
				"y": 1.0543829678,
				"z": -1.4261168101,
				"element": "C" 
			},
			{
				"x": 2.2730578461,
				"y": 2.190302627,
				"z": -1.8023641956,
				"element": "O" 
			},
			{
				"x": 2.5107579308,
				"y": 0.5749375623,
				"z": -0.0467022059,
				"element": "C" 
			},
			{
				"x": 1.4811596006,
				"y": -0.3134180872,
				"z": 0.6526012931,
				"element": "C" 
			},
			{
				"x": 1.2151715039,
				"y": -0.1784691892,
				"z": 1.8279214512,
				"element": "O" 
			},
			{
				"x": 0.8441411057,
				"y": -1.3757333184,
				"z": -0.2304489815,
				"element": "C" 
			},
			{
				"x": -4.2868667706,
				"y": -0.6817598503,
				"z": -0.4386084372,
				"element": "H" 
			},
			{
				"x": -2.1255018896,
				"y": -1.830456339,
				"z": -0.874420749,
				"element": "H" 
			},
			{
				"x": -0.2944567313,
				"y": 1.9798736314,
				"z": -1.7040702056,
				"element": "H" 
			},
			{
				"x": -2.4504071718,
				"y": 3.0995835216,
				"z": -1.259400045,
				"element": "H" 
			},
			{
				"x": 0.0141814044,
				"y": -1.6416395808,
				"z": -2.186024231,
				"element": "H" 
			},
			{
				"x": 0.9715119471,
				"y": 0.5114973828,
				"z": -3.1833583723,
				"element": "H" 
			},
			{
				"x": 2.1326830998,
				"y": -0.6954610569,
				"z": -2.6213846861,
				"element": "H" 
			},
			{
				"x": 2.780755509,
				"y": 1.4238620304,
				"z": 0.5830355944,
				"element": "H" 
			},
			{
				"x": 3.4095719351,
				"y": -0.0428958232,
				"z": -0.2006406178,
				"element": "H" 
			},
			{
				"x": 0.0764553431,
				"y": -1.8912913614,
				"z": 0.3495309626,
				"element": "H" 
			},
			{
				"x": 1.6244682973,
				"y": -2.107428519,
				"z": -0.4872537809,
				"element": "H" 
			}
		],
		 "valence_orbital": [ 
			{
				"type": "occ",
				"energy": -0.34052,
				"method": "rhf"
			},
			{
				"type": "occ",
				"energy": -0.26713,
				"method": "rhf"
			},
			{
				"type": "occ",
				"energy": -0.26428,
				"method": "rhf"
			},
			{
				"type": "occ",
				"energy": -0.25162,
				"method": "rhf"
			},
			{
				"type": "occ",
				"energy": -0.24303,
				"method": "rhf"
			},
			{
				"type": "unocc",
				"energy": -0.04368,
				"method": "rhf"
			},
			{
				"type": "unocc",
				"energy": -0.01879,
				"method": "rhf"
			},
			{
				"type": "unocc",
				"energy": -0.01467,
				"method": "rhf"
			},
			{
				"type": "unocc",
				"energy": -0.00485,
				"method": "rhf"
			},
			{
				"type": "unocc",
				"energy": 0.07181,
				"method": "rhf"
			}
		],
		"cosmo_sigma_profile": { 
			"-0.025": 0.0,
			"-0.024": 0.0,
			"-0.023": 0.0,
			"-0.022": 0.0,
			"-0.021": 0.0,
			"-0.02": 0.0,
			"-0.019": 0.0,
			"-0.018": 0.0,
			"-0.017": 0.0,
			"-0.016": 0.0,
			"-0.015": 0.0,
			"-0.014": 0.0,
			"-0.013": 0.0,
			"-0.012": 0.0,
			"-0.011": 0.130812924137,
			"-0.01": 2.71160619448,
			"-0.009": 4.53113679085,
			"-0.008": 4.57611976758,
			"-0.007": 9.62540552859,
			"-0.006": 16.4302448581,
			"-0.005": 20.5440626376,
			"-0.004": 18.2261303101,
			"-0.003": 17.1094810479,
			"-0.002": 15.9126987197,
			"-0.001": 9.53004286482,
			"0.0": 10.7813792032,
			"0.001": 14.5134410081,
			"0.002": 14.190990502,
			"0.003": 13.7244013116,
			"0.004": 20.1360197172,
			"0.005": 9.48326327642,
			"0.006": 2.29306213277,
			"0.007": 2.53980126725,
			"0.008": 3.14166414881,
			"0.009": 3.60093352164,
			"0.01": 5.06728705946,
			"0.011": 8.43998921164,
			"0.012": 6.37396792764,
			"0.013": 1.26739319353,
			"0.014": 0.0,
			"0.015": 0.0,
			"0.016": 0.0,
			"0.017": 0.0,
			"0.018": 0.0,
			"0.019": 0.0,
			"0.02": 0.0,
			"0.021": 0.0,
			"0.022": 0.0,
			"0.023": 0.0,
			"0.024": 0.0,
			"0.025": 0.0
		}
	}
}
