{
	 "smiles": "COC1=CC=C(C=C1)C(O)C(C)(C)C(O)=O", 
	 "Tm": 389.15, 
	 "num_atms": 32, 
	 "gaussian": { 
		 "optdone": 1, 
		 "sigma_profile": "yes", 
		 "theory": "DFT", 
		 "functional": "B3LYP", 
		 "basiset": "6-31G**", 
		 "properties": { 
			 "R2extent": 4465.3871, 
			 "electric_dipole_moment_norm": 4.82055819693, 
			 "electric_quadrupole_moment_norm": 19.3571652894, 
			 "total_energy": -767.821624793, 
			 "HOMO_LUMO_gap": 0.21138, 
			 "cosmo_polarized_energy": -16.5, 
			 "cosmo_cavitation_energy": 33.76, 
			 "cosmo_dispersion_energy": -23.8, 
			 "cosmo_repulsion_energy": 1.84, 
			 "cosmo_total_nonelectrostatic_energy": 11.81, 
			 "SMD_solvation_energy": 7.59 
		},
		"coords": [
			{
				"x": -2.1259869643,
				"y": -0.9355376441,
				"z": -4.4683411456,
				"element": "C" 
			},
			{
				"x": -1.5171202663,
				"y": 0.2205057172,
				"z": -3.9110280625,
				"element": "O" 
			},
			{
				"x": -1.3384672703,
				"y": 0.2710371066,
				"z": -2.5622490197,
				"element": "C" 
			},
			{
				"x": -1.7346623243,
				"y": -0.7299186866,
				"z": -1.6661990959,
				"element": "C" 
			},
			{
				"x": -1.4994716103,
				"y": -0.5716683641,
				"z": -0.2990699785,
				"element": "C" 
			},
			{
				"x": -0.8717221294,
				"y": 0.5753886483,
				"z": 0.2046739525,
				"element": "C" 
			},
			{
				"x": -0.4920149479,
				"y": 1.5723604668,
				"z": -0.7092079321,
				"element": "C" 
			},
			{
				"x": -0.7145495421,
				"y": 1.4281270362,
				"z": -2.0718060078,
				"element": "C" 
			},
			{
				"x": -0.6170359693,
				"y": 0.7749324328,
				"z": 1.6871544086,
				"element": "C" 
			},
			{
				"x": -1.8259933644,
				"y": 0.5616050335,
				"z": 2.4601056185,
				"element": "O" 
			},
			{
				"x": 0.5050311496,
				"y": -0.1027040847,
				"z": 2.3247763026,
				"element": "C" 
			},
			{
				"x": 1.8266283444,
				"y": 0.1386616733,
				"z": 1.5820655231,
				"element": "C" 
			},
			{
				"x": 0.6685167618,
				"y": 0.2971539758,
				"z": 3.8135077252,
				"element": "C" 
			},
			{
				"x": 0.1787059455,
				"y": -1.616452465,
				"z": 2.2923220975,
				"element": "C" 
			},
			{
				"x": -1.0702178286,
				"y": -1.9609253862,
				"z": 2.6787741008,
				"element": "O" 
			},
			{
				"x": 0.9917046135,
				"y": -2.4627671662,
				"z": 2.0033798657,
				"element": "O" 
			},
			{
				"x": -2.1571834425,
				"y": -0.7684601955,
				"z": -5.5458761963,
				"element": "H" 
			},
			{
				"x": -3.1487319886,
				"y": -1.0738226663,
				"z": -4.0951402707,
				"element": "H" 
			},
			{
				"x": -1.5415552266,
				"y": -1.8403108697,
				"z": -4.2595724377,
				"element": "H" 
			},
			{
				"x": -2.2190359451,
				"y": -1.6333774994,
				"z": -2.016646151,
				"element": "H" 
			},
			{
				"x": -1.807892853,
				"y": -1.3639167972,
				"z": 0.375355805,
				"element": "H" 
			},
			{
				"x": -0.0127469338,
				"y": 2.4775606922,
				"z": -0.3444158683,
				"element": "H" 
			},
			{
				"x": -0.4201815052,
				"y": 2.1980535281,
				"z": -2.7772968022,
				"element": "H" 
			},
			{
				"x": -0.3011674645,
				"y": 1.8174288775,
				"z": 1.8368218314,
				"element": "H" 
			},
			{
				"x": -2.5730164826,
				"y": 0.8572892157,
				"z": 1.922607632,
				"element": "H" 
			},
			{
				"x": 1.7621559678,
				"y": -0.1693585949,
				"z": 0.5365669052,
				"element": "H" 
			},
			{
				"x": 2.0964521663,
				"y": 1.1999759489,
				"z": 1.6178010055,
				"element": "H" 
			},
			{
				"x": 2.6251898569,
				"y": -0.4405384666,
				"z": 2.0486415995,
				"element": "H" 
			},
			{
				"x": 0.9530774487,
				"y": 1.35256286,
				"z": 3.8876171407,
				"element": "H" 
			},
			{
				"x": -0.2529270351,
				"y": 0.1539482315,
				"z": 4.3814373087,
				"element": "H" 
			},
			{
				"x": 1.4583498125,
				"y": -0.3004139433,
				"z": 4.2779389036,
				"element": "H" 
			},
			{
				"x": -1.5981309726,
				"y": -1.1386186147,
				"z": 2.7892012422,
				"element": "H" 
			}
		],
		 "valence_orbital": [ 
			{
				"type": "occ",
				"energy": -0.3012,
				"method": "rhf"
			},
			{
				"type": "occ",
				"energy": -0.29359,
				"method": "rhf"
			},
			{
				"type": "occ",
				"energy": -0.26296,
				"method": "rhf"
			},
			{
				"type": "occ",
				"energy": -0.25118,
				"method": "rhf"
			},
			{
				"type": "occ",
				"energy": -0.22826,
				"method": "rhf"
			},
			{
				"type": "unocc",
				"energy": -0.01688,
				"method": "rhf"
			},
			{
				"type": "unocc",
				"energy": -0.00715,
				"method": "rhf"
			},
			{
				"type": "unocc",
				"energy": 0.02729,
				"method": "rhf"
			},
			{
				"type": "unocc",
				"energy": 0.06689,
				"method": "rhf"
			},
			{
				"type": "unocc",
				"energy": 0.08269,
				"method": "rhf"
			}
		],
		"cosmo_sigma_profile": { 
			"-0.025": 0.0,
			"-0.024": 0.0,
			"-0.023": 0.0,
			"-0.022": 0.0,
			"-0.021": 0.0,
			"-0.02": 0.0,
			"-0.019": 0.0,
			"-0.018": 0.0,
			"-0.017": 0.00649019423251,
			"-0.016": 1.09489337863,
			"-0.015": 0.639198887117,
			"-0.014": 0.638776233785,
			"-0.013": 0.857631624082,
			"-0.012": 1.05667831047,
			"-0.011": 0.540298843631,
			"-0.01": 1.02404343139,
			"-0.009": 0.790902989892,
			"-0.008": 1.44303797977,
			"-0.007": 2.68752727616,
			"-0.006": 15.3988328598,
			"-0.005": 23.1593968852,
			"-0.004": 26.2140105041,
			"-0.003": 27.2726860338,
			"-0.002": 20.6437041785,
			"-0.001": 17.8312561693,
			"0.0": 20.598232362,
			"0.001": 15.624746536,
			"0.002": 11.219115678,
			"0.003": 12.8483377688,
			"0.004": 14.0763369879,
			"0.005": 10.0115098263,
			"0.006": 4.42297718423,
			"0.007": 3.93750961448,
			"0.008": 4.73214758193,
			"0.009": 5.22773982587,
			"0.01": 4.68671743465,
			"0.011": 5.52275787054,
			"0.012": 6.4699147182,
			"0.013": 3.61228295137,
			"0.014": 0.669678591801,
			"0.015": 0.0,
			"0.016": 0.0,
			"0.017": 0.0,
			"0.018": 0.0,
			"0.019": 0.0,
			"0.02": 0.0,
			"0.021": 0.0,
			"0.022": 0.0,
			"0.023": 0.0,
			"0.024": 0.0,
			"0.025": 0.0
		}
	}
}
