{
	 "smiles": "OC(=O)C1CN(CC2=CC=CC=C2)C(=O)C1", 
	 "Tm": 415.15, 
	 "num_atms": 29, 
	 "gaussian": { 
		 "optdone": 1, 
		 "sigma_profile": "yes", 
		 "theory": "DFT", 
		 "functional": "B3LYP", 
		 "basiset": "6-31G**", 
		 "properties": { 
			 "R2extent": 4511.9754, 
			 "electric_dipole_moment_norm": 4.59499258432, 
			 "electric_quadrupole_moment_norm": 17.2555503216, 
			 "total_energy": -745.561581415, 
			 "HOMO_LUMO_gap": 0.23228, 
			 "cosmo_polarized_energy": -18.97, 
			 "cosmo_cavitation_energy": 32.36, 
			 "cosmo_dispersion_energy": -22.34, 
			 "cosmo_repulsion_energy": 1.74, 
			 "cosmo_total_nonelectrostatic_energy": 11.75, 
			 "SMD_solvation_energy": 6.93 
		},
		"coords": [
			{
				"x": 0.0620604829,
				"y": -1.4734253635,
				"z": -2.5333774702,
				"element": "O" 
			},
			{
				"x": -0.3425607897,
				"y": -2.6586840271,
				"z": -2.0139705105,
				"element": "C" 
			},
			{
				"x": 0.1637411108,
				"y": -3.692150339,
				"z": -2.3746191571,
				"element": "O" 
			},
			{
				"x": -1.4778293573,
				"y": -2.6022301383,
				"z": -0.9878346277,
				"element": "C" 
			},
			{
				"x": -1.3071979253,
				"y": -1.4536720363,
				"z": 0.0371457894,
				"element": "C" 
			},
			{
				"x": -2.0078187129,
				"y": -0.338109438,
				"z": -0.5969082617,
				"element": "N" 
			},
			{
				"x": -2.0029397906,
				"y": 1.0089297704,
				"z": -0.0299208779,
				"element": "C" 
			},
			{
				"x": -0.6833981814,
				"y": 1.7238757629,
				"z": -0.2445528167,
				"element": "C" 
			},
			{
				"x": 0.1772946558,
				"y": 1.9922144061,
				"z": 0.8248418681,
				"element": "C" 
			},
			{
				"x": 1.3993296157,
				"y": 2.6350761009,
				"z": 0.6107717469,
				"element": "C" 
			},
			{
				"x": 1.7732804676,
				"y": 3.0127360008,
				"z": -0.6788207411,
				"element": "C" 
			},
			{
				"x": 0.9191544242,
				"y": 2.7512096252,
				"z": -1.75388708,
				"element": "C" 
			},
			{
				"x": -0.3017046629,
				"y": 2.113820138,
				"z": -1.5372525106,
				"element": "C" 
			},
			{
				"x": -2.9949144186,
				"y": -0.7535351801,
				"z": -1.4768881856,
				"element": "C" 
			},
			{
				"x": -3.8243617322,
				"y": -0.0301026678,
				"z": -1.9974929823,
				"element": "O" 
			},
			{
				"x": -2.831268088,
				"y": -2.2617641134,
				"z": -1.6611497996,
				"element": "C" 
			},
			{
				"x": -0.4261269881,
				"y": -0.732243397,
				"z": -2.1349347272,
				"element": "H" 
			},
			{
				"x": -1.4926286894,
				"y": -3.578277783,
				"z": -0.5029485914,
				"element": "H" 
			},
			{
				"x": -1.7680393884,
				"y": -1.7139314634,
				"z": 1.0015694723,
				"element": "H" 
			},
			{
				"x": -0.2595769041,
				"y": -1.1986672618,
				"z": 0.2255857958,
				"element": "H" 
			},
			{
				"x": -2.2347660139,
				"y": 0.9538890954,
				"z": 1.0420825798,
				"element": "H" 
			},
			{
				"x": -2.8224343636,
				"y": 1.5376899335,
				"z": -0.5259136342,
				"element": "H" 
			},
			{
				"x": -0.1115447354,
				"y": 1.700914871,
				"z": 1.8321120327,
				"element": "H" 
			},
			{
				"x": 2.057570214,
				"y": 2.8375048188,
				"z": 1.4507330173,
				"element": "H" 
			},
			{
				"x": 2.7236484964,
				"y": 3.5105076695,
				"z": -0.847263743,
				"element": "H" 
			},
			{
				"x": 1.2019717476,
				"y": 3.0493932333,
				"z": -2.7591665363,
				"element": "H" 
			},
			{
				"x": -0.9733335894,
				"y": 1.9272842823,
				"z": -2.372542523,
				"element": "H" 
			},
			{
				"x": -3.6627832153,
				"y": -2.7590454438,
				"z": -1.1488529251,
				"element": "H" 
			},
			{
				"x": -2.8928236685,
				"y": -2.5333070555,
				"z": -2.7173446009,
				"element": "H" 
			}
		],
		 "valence_orbital": [ 
			{
				"type": "occ",
				"energy": -0.27343,
				"method": "rhf"
			},
			{
				"type": "occ",
				"energy": -0.27225,
				"method": "rhf"
			},
			{
				"type": "occ",
				"energy": -0.26689,
				"method": "rhf"
			},
			{
				"type": "occ",
				"energy": -0.26317,
				"method": "rhf"
			},
			{
				"type": "occ",
				"energy": -0.25333,
				"method": "rhf"
			},
			{
				"type": "unocc",
				"energy": -0.02105,
				"method": "rhf"
			},
			{
				"type": "unocc",
				"energy": -0.01704,
				"method": "rhf"
			},
			{
				"type": "unocc",
				"energy": 0.00234,
				"method": "rhf"
			},
			{
				"type": "unocc",
				"energy": 0.01226,
				"method": "rhf"
			},
			{
				"type": "unocc",
				"energy": 0.06439,
				"method": "rhf"
			}
		],
		"cosmo_sigma_profile": { 
			"-0.025": 0.0,
			"-0.024": 0.0,
			"-0.023": 0.0,
			"-0.022": 0.0,
			"-0.021": 0.0,
			"-0.02": 0.0,
			"-0.019": 0.0,
			"-0.018": 0.0,
			"-0.017": 0.0,
			"-0.016": 0.0,
			"-0.015": 0.0,
			"-0.014": 0.0,
			"-0.013": 0.0,
			"-0.012": 0.0,
			"-0.011": 0.048872741006,
			"-0.01": 0.93335480536,
			"-0.009": 1.31310915681,
			"-0.008": 2.80574884759,
			"-0.007": 14.3640833028,
			"-0.006": 28.8456591187,
			"-0.005": 24.6996993787,
			"-0.004": 25.3329592329,
			"-0.003": 23.8064505755,
			"-0.002": 13.8378478386,
			"-0.001": 10.9015481856,
			"0.0": 10.2524287002,
			"0.001": 9.39674839235,
			"0.002": 8.32096245419,
			"0.003": 10.8492009575,
			"0.004": 10.9471394686,
			"0.005": 11.319146098,
			"0.006": 6.0142833306,
			"0.007": 3.35963218918,
			"0.008": 3.43779584927,
			"0.009": 5.25293637884,
			"0.01": 6.02126161243,
			"0.011": 7.5548738423,
			"0.012": 8.27508789618,
			"0.013": 7.25806141705,
			"0.014": 1.31603176672,
			"0.015": 0.0,
			"0.016": 0.0,
			"0.017": 0.0,
			"0.018": 0.0,
			"0.019": 0.0,
			"0.02": 0.0,
			"0.021": 0.0,
			"0.022": 0.0,
			"0.023": 0.0,
			"0.024": 0.0,
			"0.025": 0.0
		}
	}
}
