{
	 "smiles": "CC1=C(C(C)=C(C=C1)[N+]([O-])=O)S(Cl)(=O)=O", 
	 "Tm": 336.15, 
	 "num_atms": 23, 
	 "gaussian": { 
		 "optdone": 1, 
		 "sigma_profile": "yes", 
		 "theory": "DFT", 
		 "functional": "B3LYP", 
		 "basiset": "6-31G**", 
		 "properties": { 
			 "R2extent": 4538.4067, 
			 "electric_dipole_moment_norm": 3.77903093531, 
			 "electric_quadrupole_moment_norm": 23.0701890049, 
			 "total_energy": -1523.52222344, 
			 "HOMO_LUMO_gap": 0.18309, 
			 "cosmo_polarized_energy": -11.5, 
			 "cosmo_cavitation_energy": 29.83, 
			 "cosmo_dispersion_energy": -22.25, 
			 "cosmo_repulsion_energy": 1.67, 
			 "cosmo_total_nonelectrostatic_energy": 9.25, 
			 "SMD_solvation_energy": 6.31 
		},
		"coords": [
			{
				"x": -1.6360067222,
				"y": -2.1134042543,
				"z": 2.5811259631,
				"element": "C" 
			},
			{
				"x": -0.8020028563,
				"y": -0.9893293022,
				"z": 2.0093542035,
				"element": "C" 
			},
			{
				"x": -0.0334546415,
				"y": -1.0486486213,
				"z": 0.8205338758,
				"element": "C" 
			},
			{
				"x": 0.7819919179,
				"y": 0.0167987451,
				"z": 0.3524492228,
				"element": "C" 
			},
			{
				"x": 1.577731329,
				"y": -0.0220076176,
				"z": -0.9347031112,
				"element": "C" 
			},
			{
				"x": 0.7531885091,
				"y": 1.1752963121,
				"z": 1.1510941792,
				"element": "C" 
			},
			{
				"x": -0.035149261,
				"y": 1.2976536755,
				"z": 2.2907226653,
				"element": "C" 
			},
			{
				"x": -0.7866548472,
				"y": 0.2182443175,
				"z": 2.7181331588,
				"element": "C" 
			},
			{
				"x": 1.5801744944,
				"y": 2.3645249895,
				"z": 0.8506519294,
				"element": "N" 
			},
			{
				"x": 2.7464898239,
				"y": 2.1916979677,
				"z": 0.5033099362,
				"element": "O" 
			},
			{
				"x": 1.0500031752,
				"y": 3.4602781203,
				"z": 1.0228088472,
				"element": "O" 
			},
			{
				"x": -0.1066702464,
				"y": -2.6082637241,
				"z": -0.113103912,
				"element": "S" 
			},
			{
				"x": 1.1720707619,
				"y": -3.842617693,
				"z": 1.088007774,
				"element": "Cl" 
			},
			{
				"x": 0.5561441529,
				"y": -2.5142209177,
				"z": -1.4044903453,
				"element": "O" 
			},
			{
				"x": -1.4455751724,
				"y": -3.1733508467,
				"z": -0.0138720194,
				"element": "O" 
			},
			{
				"x": -1.085292159,
				"y": -3.0548463709,
				"z": 2.6355503012,
				"element": "H" 
			},
			{
				"x": -2.5213720444,
				"y": -2.3003957725,
				"z": 1.9694526682,
				"element": "H" 
			},
			{
				"x": -1.9562520166,
				"y": -1.845472622,
				"z": 3.5899644876,
				"element": "H" 
			},
			{
				"x": 2.3527313298,
				"y": -0.7912079342,
				"z": -0.8955644085,
				"element": "H" 
			},
			{
				"x": 0.9301551415,
				"y": -0.2706291515,
				"z": -1.7753158665,
				"element": "H" 
			},
			{
				"x": 2.063862257,
				"y": 0.9293514562,
				"z": -1.121952793,
				"element": "H" 
			},
			{
				"x": -0.032095945,
				"y": 2.2345469393,
				"z": 2.8345272281,
				"element": "H" 
			},
			{
				"x": -1.3752169807,
				"y": 0.300302305,
				"z": 3.6257160154,
				"element": "H" 
			}
		],
		 "valence_orbital": [ 
			{
				"type": "occ",
				"energy": -0.32482,
				"method": "rhf"
			},
			{
				"type": "occ",
				"energy": -0.3227,
				"method": "rhf"
			},
			{
				"type": "occ",
				"energy": -0.31714,
				"method": "rhf"
			},
			{
				"type": "occ",
				"energy": -0.30003,
				"method": "rhf"
			},
			{
				"type": "occ",
				"energy": -0.28648,
				"method": "rhf"
			},
			{
				"type": "unocc",
				"energy": -0.10339,
				"method": "rhf"
			},
			{
				"type": "unocc",
				"energy": -0.10071,
				"method": "rhf"
			},
			{
				"type": "unocc",
				"energy": -0.06159,
				"method": "rhf"
			},
			{
				"type": "unocc",
				"energy": -0.03652,
				"method": "rhf"
			},
			{
				"type": "unocc",
				"energy": 0.03152,
				"method": "rhf"
			}
		],
		"cosmo_sigma_profile": { 
			"-0.025": 0.0,
			"-0.024": 0.0,
			"-0.023": 0.0,
			"-0.022": 0.0,
			"-0.021": 0.0,
			"-0.02": 0.0,
			"-0.019": 0.0,
			"-0.018": 0.0,
			"-0.017": 0.0,
			"-0.016": 0.0,
			"-0.015": 0.0,
			"-0.014": 0.0,
			"-0.013": 0.0,
			"-0.012": 0.0,
			"-0.011": 0.0,
			"-0.01": 0.124310585673,
			"-0.009": 3.06457806108,
			"-0.008": 8.6238756575,
			"-0.007": 8.73747224275,
			"-0.006": 8.45381490755,
			"-0.005": 12.2568917281,
			"-0.004": 15.7694357045,
			"-0.003": 18.2361877073,
			"-0.002": 29.5188306472,
			"-0.001": 22.0744964579,
			"0.0": 15.9840312838,
			"0.001": 11.7640421778,
			"0.002": 12.2453327822,
			"0.003": 14.4110550221,
			"0.004": 10.0602853079,
			"0.005": 8.44100120775,
			"0.006": 8.60031276353,
			"0.007": 14.8699831766,
			"0.008": 12.4004744101,
			"0.009": 5.22998604647,
			"0.01": 0.426778143327,
			"0.011": 0.0,
			"0.012": 0.0,
			"0.013": 0.0,
			"0.014": 0.0,
			"0.015": 0.0,
			"0.016": 0.0,
			"0.017": 0.0,
			"0.018": 0.0,
			"0.019": 0.0,
			"0.02": 0.0,
			"0.021": 0.0,
			"0.022": 0.0,
			"0.023": 0.0,
			"0.024": 0.0,
			"0.025": 0.0
		}
	}
}
