{
	 "smiles": "C1=CC=C2N=CC=NC2=C1", 
	 "Tm": 302.15, 
	 "num_atms": 16, 
	 "gaussian": { 
		 "optdone": 1, 
		 "sigma_profile": "yes", 
		 "theory": "DFT", 
		 "functional": "B3LYP", 
		 "basiset": "6-31G**", 
		 "properties": { 
			 "R2extent": 1648.0787, 
			 "electric_dipole_moment_norm": 0.600786684273, 
			 "electric_quadrupole_moment_norm": 8.89340696415, 
			 "total_energy": -417.964853499, 
			 "HOMO_LUMO_gap": 0.17527, 
			 "cosmo_polarized_energy": -6.67, 
			 "cosmo_cavitation_energy": 20.1, 
			 "cosmo_dispersion_energy": -15.38, 
			 "cosmo_repulsion_energy": 1.22, 
			 "cosmo_total_nonelectrostatic_energy": 5.94, 
			 "SMD_solvation_energy": 0.47 
		},
		"coords": [
			{
				"x": -2.4647001908,
				"y": 0.5572446168,
				"z": -0.6334078864,
				"element": "C" 
			},
			{
				"x": -1.2251750153,
				"y": 0.4213485973,
				"z": -1.3115387595,
				"element": "C" 
			},
			{
				"x": -0.0665494571,
				"y": 0.167999036,
				"z": -0.6125142772,
				"element": "C" 
			},
			{
				"x": -0.1049101638,
				"y": 0.0402703637,
				"z": 0.8003092627,
				"element": "C" 
			},
			{
				"x": 1.0490993844,
				"y": -0.2110254513,
				"z": 1.4843989662,
				"element": "N" 
			},
			{
				"x": 0.9401676063,
				"y": -0.3173978465,
				"z": 2.7919198203,
				"element": "C" 
			},
			{
				"x": -0.3014587741,
				"y": -0.1811854086,
				"z": 3.4712151788,
				"element": "C" 
			},
			{
				"x": -1.431875685,
				"y": 0.0611087057,
				"z": 2.8417400415,
				"element": "N" 
			},
			{
				"x": -1.3546240879,
				"y": 0.1773189222,
				"z": 1.4840197733,
				"element": "C" 
			},
			{
				"x": -2.5322742686,
				"y": 0.4383487602,
				"z": 0.7364611263,
				"element": "C" 
			},
			{
				"x": -3.3654510674,
				"y": 0.7569917242,
				"z": -1.2063689422,
				"element": "H" 
			},
			{
				"x": -1.1968045323,
				"y": 0.5192424554,
				"z": -2.3928099976,
				"element": "H" 
			},
			{
				"x": 0.8939456173,
				"y": 0.0596443161,
				"z": -1.1059792956,
				"element": "H" 
			},
			{
				"x": 1.8495295345,
				"y": -0.5178954717,
				"z": 3.3569916718,
				"element": "H" 
			},
			{
				"x": -0.3410462409,
				"y": -0.2775655934,
				"z": 4.5554609784,
				"element": "H" 
			},
			{
				"x": -3.4665726592,
				"y": 0.537752274,
				"z": 1.2796023393,
				"element": "H" 
			}
		],
		 "valence_orbital": [ 
			{
				"type": "occ",
				"energy": -0.3405,
				"method": "rhf"
			},
			{
				"type": "occ",
				"energy": -0.30813,
				"method": "rhf"
			},
			{
				"type": "occ",
				"energy": -0.26051,
				"method": "rhf"
			},
			{
				"type": "occ",
				"energy": -0.24676,
				"method": "rhf"
			},
			{
				"type": "occ",
				"energy": -0.24628,
				"method": "rhf"
			},
			{
				"type": "unocc",
				"energy": -0.07101,
				"method": "rhf"
			},
			{
				"type": "unocc",
				"energy": -0.02486,
				"method": "rhf"
			},
			{
				"type": "unocc",
				"energy": 0.00833,
				"method": "rhf"
			},
			{
				"type": "unocc",
				"energy": 0.07871,
				"method": "rhf"
			},
			{
				"type": "unocc",
				"energy": 0.09419,
				"method": "rhf"
			}
		],
		"cosmo_sigma_profile": { 
			"-0.025": 0.0,
			"-0.024": 0.0,
			"-0.023": 0.0,
			"-0.022": 0.0,
			"-0.021": 0.0,
			"-0.02": 0.0,
			"-0.019": 0.0,
			"-0.018": 0.0,
			"-0.017": 0.0,
			"-0.016": 0.0,
			"-0.015": 0.0,
			"-0.014": 0.0,
			"-0.013": 0.0,
			"-0.012": 0.0,
			"-0.011": 0.0,
			"-0.01": 0.0,
			"-0.009": 0.0,
			"-0.008": 1.90012306369,
			"-0.007": 8.38152707078,
			"-0.006": 11.8524458093,
			"-0.005": 12.0855634841,
			"-0.004": 11.0165059591,
			"-0.003": 8.70706936333,
			"-0.002": 11.2231257422,
			"-0.001": 13.2738145838,
			"0.0": 11.5135918249,
			"0.001": 13.3013498619,
			"0.002": 16.8623882147,
			"0.003": 14.3020847429,
			"0.004": 7.21405613072,
			"0.005": 2.49484281959,
			"0.006": 2.9517507859,
			"0.007": 2.40882994066,
			"0.008": 2.31383476707,
			"0.009": 1.87819573015,
			"0.01": 1.47976486772,
			"0.011": 1.76758138567,
			"0.012": 1.95228965221,
			"0.013": 1.2138393249,
			"0.014": 1.62329092916,
			"0.015": 0.844335096379,
			"0.016": 0.0347705510775,
			"0.017": 0.0,
			"0.018": 0.0,
			"0.019": 0.0,
			"0.02": 0.0,
			"0.021": 0.0,
			"0.022": 0.0,
			"0.023": 0.0,
			"0.024": 0.0,
			"0.025": 0.0
		}
	}
}
