{
	 "smiles": "CC1=NC(=CC(Cl)=N1)N1C=CN=C1", 
	 "Tm": 388.15, 
	 "num_atms": 20, 
	 "gaussian": { 
		 "optdone": 1, 
		 "sigma_profile": "yes", 
		 "theory": "DFT", 
		 "functional": "B3LYP", 
		 "basiset": "6-31G**", 
		 "properties": { 
			 "R2extent": 4227.5352, 
			 "electric_dipole_moment_norm": 1.60771388313, 
			 "electric_quadrupole_moment_norm": 11.5777769533, 
			 "total_energy": -988.265549039, 
			 "HOMO_LUMO_gap": 0.17998, 
			 "cosmo_polarized_energy": -11.09, 
			 "cosmo_cavitation_energy": 26.79, 
			 "cosmo_dispersion_energy": -19.96, 
			 "cosmo_repulsion_energy": 1.56, 
			 "cosmo_total_nonelectrostatic_energy": 8.4, 
			 "SMD_solvation_energy": 1.27 
		},
		"coords": [
			{
				"x": 3.5034116697,
				"y": 1.2982558202,
				"z": -2.6535990609,
				"element": "C" 
			},
			{
				"x": 2.021463532,
				"y": 1.2882010046,
				"z": -2.4067752536,
				"element": "C" 
			},
			{
				"x": 1.5352447927,
				"y": 0.3357020449,
				"z": -1.6027224465,
				"element": "N" 
			},
			{
				"x": 0.2192366577,
				"y": 0.3469244731,
				"z": -1.3663260197,
				"element": "C" 
			},
			{
				"x": -0.6334720575,
				"y": 1.3051513832,
				"z": -1.9271451912,
				"element": "C" 
			},
			{
				"x": -0.0024225837,
				"y": 2.2368371951,
				"z": -2.7431750089,
				"element": "C" 
			},
			{
				"x": -0.9750307362,
				"y": 3.4837459698,
				"z": -3.5012087985,
				"element": "Cl" 
			},
			{
				"x": 1.2949917875,
				"y": 2.2534965625,
				"z": -2.997421503,
				"element": "N" 
			},
			{
				"x": -0.261913037,
				"y": -0.6626498503,
				"z": -0.52170608,
				"element": "N" 
			},
			{
				"x": 0.5100336748,
				"y": -1.6562155776,
				"z": 0.0785478079,
				"element": "C" 
			},
			{
				"x": -0.3664289067,
				"y": -2.4082079749,
				"z": 0.8044376705,
				"element": "C" 
			},
			{
				"x": -1.659679985,
				"y": -1.9228321742,
				"z": 0.6818261101,
				"element": "N" 
			},
			{
				"x": -1.5670329059,
				"y": -0.8890097863,
				"z": -0.1096897411,
				"element": "C" 
			},
			{
				"x": 3.7220232303,
				"y": 1.7252020916,
				"z": -3.633702259,
				"element": "H" 
			},
			{
				"x": 3.911122876,
				"y": 0.2891354849,
				"z": -2.5741745379,
				"element": "H" 
			},
			{
				"x": 3.9984860649,
				"y": 1.9217055709,
				"z": -1.8993567912,
				"element": "H" 
			},
			{
				"x": -1.6997456293,
				"y": 1.3348942585,
				"z": -1.7556586824,
				"element": "H" 
			},
			{
				"x": 1.5727903726,
				"y": -1.7020544642,
				"z": -0.0847734281,
				"element": "H" 
			},
			{
				"x": -0.1500334785,
				"y": -3.2748402106,
				"z": 1.4129216464,
				"element": "H" 
			},
			{
				"x": -2.3912453385,
				"y": -0.2655418211,
				"z": -0.4228984329,
				"element": "H" 
			}
		],
		 "valence_orbital": [ 
			{
				"type": "occ",
				"energy": -0.29602,
				"method": "rhf"
			},
			{
				"type": "occ",
				"energy": -0.28859,
				"method": "rhf"
			},
			{
				"type": "occ",
				"energy": -0.27529,
				"method": "rhf"
			},
			{
				"type": "occ",
				"energy": -0.27517,
				"method": "rhf"
			},
			{
				"type": "occ",
				"energy": -0.24348,
				"method": "rhf"
			},
			{
				"type": "unocc",
				"energy": -0.0635,
				"method": "rhf"
			},
			{
				"type": "unocc",
				"energy": -0.05122,
				"method": "rhf"
			},
			{
				"type": "unocc",
				"energy": 0.01694,
				"method": "rhf"
			},
			{
				"type": "unocc",
				"energy": 0.02398,
				"method": "rhf"
			},
			{
				"type": "unocc",
				"energy": 0.05811,
				"method": "rhf"
			}
		],
		"cosmo_sigma_profile": { 
			"-0.025": 0.0,
			"-0.024": 0.0,
			"-0.023": 0.0,
			"-0.022": 0.0,
			"-0.021": 0.0,
			"-0.02": 0.0,
			"-0.019": 0.0,
			"-0.018": 0.0,
			"-0.017": 0.0,
			"-0.016": 0.0,
			"-0.015": 0.0,
			"-0.014": 0.0564554394175,
			"-0.013": 0.938072002711,
			"-0.012": 1.76226094224,
			"-0.011": 1.52498045786,
			"-0.01": 2.42372679897,
			"-0.009": 1.94737752189,
			"-0.008": 2.93274178523,
			"-0.007": 5.00638025931,
			"-0.006": 7.34001556842,
			"-0.005": 11.3279188996,
			"-0.004": 14.5324407094,
			"-0.003": 19.9557571538,
			"-0.002": 24.1643372139,
			"-0.001": 20.1747231787,
			"0.0": 13.9497749221,
			"0.001": 12.731906789,
			"0.002": 14.3290478462,
			"0.003": 16.0771486323,
			"0.004": 14.0266612725,
			"0.005": 6.41176918611,
			"0.006": 4.76909012853,
			"0.007": 4.55893923154,
			"0.008": 3.86111374497,
			"0.009": 2.69730136058,
			"0.01": 1.1759972037,
			"0.011": 2.27106520951,
			"0.012": 1.99947807992,
			"0.013": 1.45824956052,
			"0.014": 1.58155886863,
			"0.015": 0.884853275062,
			"0.016": 0.966000877857,
			"0.017": 0.730091688564,
			"0.018": 0.0,
			"0.019": 0.0,
			"0.02": 0.0,
			"0.021": 0.0,
			"0.022": 0.0,
			"0.023": 0.0,
			"0.024": 0.0,
			"0.025": 0.0
		}
	}
}
