{
	 "smiles": "CN1N=CC(=C1C(O)=O)[N+]([O-])=O", 
	 "Tm": 433.15, 
	 "num_atms": 17, 
	 "gaussian": { 
		 "optdone": 1, 
		 "sigma_profile": "yes", 
		 "theory": "DFT", 
		 "functional": "B3LYP", 
		 "basiset": "6-31G**", 
		 "properties": { 
			 "R2extent": 2162.499, 
			 "electric_dipole_moment_norm": 3.85720336384, 
			 "electric_quadrupole_moment_norm": 12.0051313191, 
			 "total_energy": -658.572184089, 
			 "HOMO_LUMO_gap": 0.18817, 
			 "cosmo_polarized_energy": -14.17, 
			 "cosmo_cavitation_energy": 23.02, 
			 "cosmo_dispersion_energy": -16.75, 
			 "cosmo_repulsion_energy": 1.34, 
			 "cosmo_total_nonelectrostatic_energy": 7.62, 
			 "SMD_solvation_energy": 6.85 
		},
		"coords": [
			{
				"x": 0.1842202228,
				"y": 0.5277112454,
				"z": -2.4459964687,
				"element": "C" 
			},
			{
				"x": 0.4370199126,
				"y": 0.4481489337,
				"z": -1.0083187568,
				"element": "N" 
			},
			{
				"x": 1.5957845684,
				"y": -0.0979790672,
				"z": -0.5882567714,
				"element": "N" 
			},
			{
				"x": 1.5541586594,
				"y": -0.0577049217,
				"z": 0.7403120403,
				"element": "C" 
			},
			{
				"x": 0.3535584039,
				"y": 0.5231992464,
				"z": 1.1774163849,
				"element": "C" 
			},
			{
				"x": -0.3644663186,
				"y": 0.8419855313,
				"z": 0.0204325625,
				"element": "C" 
			},
			{
				"x": -1.7031154991,
				"y": 1.4212030469,
				"z": -0.2425972667,
				"element": "C" 
			},
			{
				"x": -2.5833257523,
				"y": 1.1530453731,
				"z": 0.7304971253,
				"element": "O" 
			},
			{
				"x": -1.9778866235,
				"y": 2.0313564644,
				"z": -1.257311395,
				"element": "O" 
			},
			{
				"x": 0.0407272626,
				"y": 0.8027775618,
				"z": 2.5550947364,
				"element": "N" 
			},
			{
				"x": 0.6551308484,
				"y": 0.1425063577,
				"z": 3.3964136238,
				"element": "O" 
			},
			{
				"x": -0.7755610716,
				"y": 1.6883895995,
				"z": 2.8011348924,
				"element": "O" 
			},
			{
				"x": 1.0293660556,
				"y": 0.0408153815,
				"z": -2.9292944721,
				"element": "H" 
			},
			{
				"x": 0.1032057142,
				"y": 1.5692254947,
				"z": -2.7572023764,
				"element": "H" 
			},
			{
				"x": -0.7446490257,
				"y": 0.0131987672,
				"z": -2.6988189777,
				"element": "H" 
			},
			{
				"x": 2.3730154827,
				"y": -0.4211879285,
				"z": 1.3425546267,
				"element": "H" 
			},
			{
				"x": -3.4125828397,
				"y": 1.6009089137,
				"z": 0.4911404926,
				"element": "H" 
			}
		],
		 "valence_orbital": [ 
			{
				"type": "occ",
				"energy": -0.30846,
				"method": "rhf"
			},
			{
				"type": "occ",
				"energy": -0.30679,
				"method": "rhf"
			},
			{
				"type": "occ",
				"energy": -0.30049,
				"method": "rhf"
			},
			{
				"type": "occ",
				"energy": -0.28976,
				"method": "rhf"
			},
			{
				"type": "occ",
				"energy": -0.28187,
				"method": "rhf"
			},
			{
				"type": "unocc",
				"energy": -0.0937,
				"method": "rhf"
			},
			{
				"type": "unocc",
				"energy": -0.04682,
				"method": "rhf"
			},
			{
				"type": "unocc",
				"energy": 0.01636,
				"method": "rhf"
			},
			{
				"type": "unocc",
				"energy": 0.06007,
				"method": "rhf"
			},
			{
				"type": "unocc",
				"energy": 0.07567,
				"method": "rhf"
			}
		],
		"cosmo_sigma_profile": { 
			"-0.025": 0.0,
			"-0.024": 0.0,
			"-0.023": 0.0,
			"-0.022": 0.0,
			"-0.021": 0.0,
			"-0.02": 0.352603188647,
			"-0.019": 0.879739532078,
			"-0.018": 1.07292247164,
			"-0.017": 0.684450058321,
			"-0.016": 1.03569437785,
			"-0.015": 0.746421631235,
			"-0.014": 0.340527316843,
			"-0.013": 0.790947628298,
			"-0.012": 0.802243063557,
			"-0.011": 0.343378227428,
			"-0.01": 1.72636096667,
			"-0.009": 3.07845363443,
			"-0.008": 4.33667659275,
			"-0.007": 7.46286740877,
			"-0.006": 9.86209356434,
			"-0.005": 10.9545253457,
			"-0.004": 16.1269286134,
			"-0.003": 14.3582985914,
			"-0.002": 11.2280551506,
			"-0.001": 9.59977473216,
			"0.0": 7.3457044053,
			"0.001": 7.14871399221,
			"0.002": 5.54669365265,
			"0.003": 6.53754305604,
			"0.004": 6.85538214771,
			"0.005": 5.961276284,
			"0.006": 6.99941263207,
			"0.007": 10.9058382768,
			"0.008": 12.3803961029,
			"0.009": 9.1385762541,
			"0.01": 6.48329505922,
			"0.011": 2.20621041668,
			"0.012": 0.716959539138,
			"0.013": 0.36992382414,
			"0.014": 0.0,
			"0.015": 0.0,
			"0.016": 0.0,
			"0.017": 0.0,
			"0.018": 0.0,
			"0.019": 0.0,
			"0.02": 0.0,
			"0.021": 0.0,
			"0.022": 0.0,
			"0.023": 0.0,
			"0.024": 0.0,
			"0.025": 0.0
		}
	}
}
