{
	 "smiles": "COC(=O)C(NC(=O)COC(=O)CC1=CC(NC2=C(Cl)C=CC=CC2Cl)C=CC=C1)C(C)C", 
	 "Tm": 790.15, 
	 "num_atms": 61, 
	 "gaussian": { 
		 "optdone": 1, 
		 "sigma_profile": "yes", 
		 "theory": "DFT", 
		 "functional": "B3LYP", 
		 "basiset": "6-31G**", 
		 "properties": { 
			 "R2extent": 17262.2209, 
			 "electric_dipole_moment_norm": 1.95103410016, 
			 "electric_quadrupole_moment_norm": 31.2410290783, 
			 "total_energy": -2337.39272104, 
			 "HOMO_LUMO_gap": 0.14978, 
			 "cosmo_polarized_energy": -22.73, 
			 "cosmo_cavitation_energy": 66.51, 
			 "cosmo_dispersion_energy": -39.27, 
			 "cosmo_repulsion_energy": 2.94, 
			 "cosmo_total_nonelectrostatic_energy": 30.18, 
			 "SMD_solvation_energy": 11.98 
		},
		"coords": [
			{
				"x": 4.0079510369,
				"y": 0.6348074672,
				"z": -0.3406502597,
				"element": "C" 
			},
			{
				"x": 3.5370582756,
				"y": -0.5356384029,
				"z": -1.0389873287,
				"element": "O" 
			},
			{
				"x": 2.2933849496,
				"y": -0.9387286406,
				"z": -0.7480153985,
				"element": "C" 
			},
			{
				"x": 1.5785101123,
				"y": -0.408650613,
				"z": 0.0817542742,
				"element": "O" 
			},
			{
				"x": 1.8675677336,
				"y": -2.1355515079,
				"z": -1.597219919,
				"element": "C" 
			},
			{
				"x": 0.9962732554,
				"y": -2.9726882671,
				"z": -0.7922500851,
				"element": "N" 
			},
			{
				"x": 1.3175322446,
				"y": -4.2447291422,
				"z": -0.4340245092,
				"element": "C" 
			},
			{
				"x": 2.3193867952,
				"y": -4.8446692408,
				"z": -0.8019642725,
				"element": "O" 
			},
			{
				"x": 0.3290910096,
				"y": -4.9356541082,
				"z": 0.5053691255,
				"element": "C" 
			},
			{
				"x": -0.914032374,
				"y": -4.2155251299,
				"z": 0.5933061291,
				"element": "O" 
			},
			{
				"x": -1.413913388,
				"y": -3.9455389051,
				"z": 1.833203351,
				"element": "C" 
			},
			{
				"x": -0.9092332993,
				"y": -4.3249795193,
				"z": 2.8623535208,
				"element": "O" 
			},
			{
				"x": -2.675425262,
				"y": -3.1010276119,
				"z": 1.723511114,
				"element": "C" 
			},
			{
				"x": -2.4106116146,
				"y": -1.7421867657,
				"z": 1.0764576886,
				"element": "C" 
			},
			{
				"x": -2.150141906,
				"y": -0.67842572,
				"z": 1.8721479829,
				"element": "C" 
			},
			{
				"x": -1.6812791732,
				"y": 0.662332643,
				"z": 1.3557512026,
				"element": "C" 
			},
			{
				"x": -1.3232858207,
				"y": 1.5194424061,
				"z": 2.4929846225,
				"element": "N" 
			},
			{
				"x": -0.4545203408,
				"y": 2.5887089609,
				"z": 2.4344554447,
				"element": "C" 
			},
			{
				"x": -0.7321278075,
				"y": 3.7847510591,
				"z": 3.0655529024,
				"element": "C" 
			},
			{
				"x": -2.3803314589,
				"y": 3.9896387788,
				"z": 3.7307071994,
				"element": "Cl" 
			},
			{
				"x": 0.1023901061,
				"y": 4.9196880508,
				"z": 3.280193473,
				"element": "C" 
			},
			{
				"x": 1.4689807162,
				"y": 4.9832434976,
				"z": 3.2577545296,
				"element": "C" 
			},
			{
				"x": 2.357094882,
				"y": 3.8881821936,
				"z": 3.0359179711,
				"element": "C" 
			},
			{
				"x": 2.0658596725,
				"y": 2.714776797,
				"z": 2.4188493911,
				"element": "C" 
			},
			{
				"x": 0.8265622471,
				"y": 2.3682234759,
				"z": 1.6885709375,
				"element": "C" 
			},
			{
				"x": 0.7455150878,
				"y": 3.2530432587,
				"z": -0.005183322,
				"element": "Cl" 
			},
			{
				"x": -2.8001427179,
				"y": 1.2579659114,
				"z": 0.5196071056,
				"element": "C" 
			},
			{
				"x": -3.2227339826,
				"y": 0.6955400572,
				"z": -0.6308690319,
				"element": "C" 
			},
			{
				"x": -2.8209322318,
				"y": -0.6009240386,
				"z": -1.1287111386,
				"element": "C" 
			},
			{
				"x": -2.4576196226,
				"y": -1.6795833668,
				"z": -0.3763313421,
				"element": "C" 
			},
			{
				"x": 1.159866812,
				"y": -1.6764744095,
				"z": -2.9088860763,
				"element": "C" 
			},
			{
				"x": 2.0088554939,
				"y": -0.690324755,
				"z": -3.7249364352,
				"element": "C" 
			},
			{
				"x": 0.7798604113,
				"y": -2.8969619546,
				"z": -3.7587033172,
				"element": "C" 
			},
			{
				"x": 4.9835944919,
				"y": 0.8569275673,
				"z": -0.771397263,
				"element": "H" 
			},
			{
				"x": 3.3199424971,
				"y": 1.471190273,
				"z": -0.4818894292,
				"element": "H" 
			},
			{
				"x": 4.1058105576,
				"y": 0.4196940977,
				"z": 0.7264551333,
				"element": "H" 
			},
			{
				"x": 2.7504132335,
				"y": -2.7314828456,
				"z": -1.8422412151,
				"element": "H" 
			},
			{
				"x": 0.1871668711,
				"y": -2.5368864619,
				"z": -0.3708546398,
				"element": "H" 
			},
			{
				"x": 0.7720256004,
				"y": -5.0303197501,
				"z": 1.499958124,
				"element": "H" 
			},
			{
				"x": 0.1294332582,
				"y": -5.9356266642,
				"z": 0.1127957269,
				"element": "H" 
			},
			{
				"x": -3.4158310211,
				"y": -3.6649450462,
				"z": 1.1455444946,
				"element": "H" 
			},
			{
				"x": -3.0559762529,
				"y": -2.9761339307,
				"z": 2.7383217261,
				"element": "H" 
			},
			{
				"x": -2.2320514242,
				"y": -0.7808930146,
				"z": 2.9527061775,
				"element": "H" 
			},
			{
				"x": -0.8001780006,
				"y": 0.5121687602,
				"z": 0.7215948937,
				"element": "H" 
			},
			{
				"x": -2.1153607184,
				"y": 1.6946783916,
				"z": 3.1011222437,
				"element": "H" 
			},
			{
				"x": -0.4288831427,
				"y": 5.8237459078,
				"z": 3.5629755273,
				"element": "H" 
			},
			{
				"x": 1.9173083087,
				"y": 5.9368202295,
				"z": 3.5234299407,
				"element": "H" 
			},
			{
				"x": 3.3725812458,
				"y": 4.0096506166,
				"z": 3.4095125941,
				"element": "H" 
			},
			{
				"x": 2.8365786948,
				"y": 1.9492266724,
				"z": 2.3859223285,
				"element": "H" 
			},
			{
				"x": 0.8908691171,
				"y": 1.3314483833,
				"z": 1.3734571454,
				"element": "H" 
			},
			{
				"x": -3.2367700057,
				"y": 2.191498601,
				"z": 0.8673727179,
				"element": "H" 
			},
			{
				"x": -3.9423999422,
				"y": 1.2423873354,
				"z": -1.2375356354,
				"element": "H" 
			},
			{
				"x": -2.9425296276,
				"y": -0.7662727183,
				"z": -2.1977543892,
				"element": "H" 
			},
			{
				"x": -2.3185916945,
				"y": -2.6239311592,
				"z": -0.8973297112,
				"element": "H" 
			},
			{
				"x": 0.237455939,
				"y": -1.1636806164,
				"z": -2.6004237313,
				"element": "H" 
			},
			{
				"x": 1.4929046509,
				"y": -0.4399560553,
				"z": -4.6571487851,
				"element": "H" 
			},
			{
				"x": 2.9794244676,
				"y": -1.1263775142,
				"z": -3.9864369753,
				"element": "H" 
			},
			{
				"x": 2.1953771433,
				"y": 0.244627233,
				"z": -3.190326591,
				"element": "H" 
			},
			{
				"x": 0.2223309267,
				"y": -2.5820118375,
				"z": -4.6467245572,
				"element": "H" 
			},
			{
				"x": 0.158049594,
				"y": -3.6012928744,
				"z": -3.2004544305,
				"element": "H" 
			},
			{
				"x": 1.6745953904,
				"y": -3.4323360384,
				"z": -4.0960669503,
				"element": "H" 
			}
		],
		 "valence_orbital": [ 
			{
				"type": "occ",
				"energy": -0.26054,
				"method": "rhf"
			},
			{
				"type": "occ",
				"energy": -0.25494,
				"method": "rhf"
			},
			{
				"type": "occ",
				"energy": -0.25252,
				"method": "rhf"
			},
			{
				"type": "occ",
				"energy": -0.23318,
				"method": "rhf"
			},
			{
				"type": "occ",
				"energy": -0.20258,
				"method": "rhf"
			},
			{
				"type": "unocc",
				"energy": -0.0528,
				"method": "rhf"
			},
			{
				"type": "unocc",
				"energy": -0.05038,
				"method": "rhf"
			},
			{
				"type": "unocc",
				"energy": -0.0294,
				"method": "rhf"
			},
			{
				"type": "unocc",
				"energy": -0.01003,
				"method": "rhf"
			},
			{
				"type": "unocc",
				"energy": -0.0073,
				"method": "rhf"
			}
		],
		"cosmo_sigma_profile": { 
			"-0.025": 0.0,
			"-0.024": 0.0,
			"-0.023": 0.0,
			"-0.022": 0.0,
			"-0.021": 0.0,
			"-0.02": 0.0,
			"-0.019": 0.0,
			"-0.018": 0.0,
			"-0.017": 0.0,
			"-0.016": 0.0,
			"-0.015": 0.0,
			"-0.014": 0.0,
			"-0.013": 0.0,
			"-0.012": 0.143560298098,
			"-0.011": 1.2553030895,
			"-0.01": 0.862540466455,
			"-0.009": 1.61755384038,
			"-0.008": 3.51183400268,
			"-0.007": 12.0106681837,
			"-0.006": 27.6019698948,
			"-0.005": 35.7075258517,
			"-0.004": 40.2964283422,
			"-0.003": 52.112365687,
			"-0.002": 46.7361447288,
			"-0.001": 45.7414211089,
			"0.0": 41.9744436212,
			"0.001": 40.2878642449,
			"0.002": 34.9743344308,
			"0.003": 32.1708822644,
			"0.004": 29.7284343623,
			"0.005": 22.6887202772,
			"0.006": 16.2359105978,
			"0.007": 13.6269456434,
			"0.008": 6.68285659751,
			"0.009": 3.82075567366,
			"0.01": 4.12885514842,
			"0.011": 5.50014858204,
			"0.012": 3.0881900274,
			"0.013": 5.41768660457,
			"0.014": 2.42407470285,
			"0.015": 0.00773366625074,
			"0.016": 0.0,
			"0.017": 0.0,
			"0.018": 0.0,
			"0.019": 0.0,
			"0.02": 0.0,
			"0.021": 0.0,
			"0.022": 0.0,
			"0.023": 0.0,
			"0.024": 0.0,
			"0.025": 0.0
		}
	}
}
