{
	 "smiles": "FC(F)(F)OC1=CC=C(NC(=O)CN2CCNCC2)C=C1", 
	 "Tm": 360.15, 
	 "num_atms": 37, 
	 "gaussian": { 
		 "optdone": 1, 
		 "sigma_profile": "yes", 
		 "theory": "DFT", 
		 "functional": "B3LYP", 
		 "basiset": "6-31G**", 
		 "properties": { 
			 "R2extent": 12612.6859, 
			 "electric_dipole_moment_norm": 5.484204936, 
			 "electric_quadrupole_moment_norm": 5.62961371233, 
			 "total_energy": -1119.25481313, 
			 "HOMO_LUMO_gap": 0.2023, 
			 "cosmo_polarized_energy": -13.26, 
			 "cosmo_cavitation_energy": 40.77, 
			 "cosmo_dispersion_energy": -29.17, 
			 "cosmo_repulsion_energy": 2.17, 
			 "cosmo_total_nonelectrostatic_energy": 13.76, 
			 "SMD_solvation_energy": 5.63 
		},
		"coords": [
			{
				"x": -6.0972301507,
				"y": -4.5490494276,
				"z": -3.131447736,
				"element": "F" 
			},
			{
				"x": -5.314683616,
				"y": -3.5006862684,
				"z": -2.8767087201,
				"element": "C" 
			},
			{
				"x": -4.6343110497,
				"y": -3.1945075557,
				"z": -4.0013992295,
				"element": "F" 
			},
			{
				"x": -6.1016941589,
				"y": -2.4417694826,
				"z": -2.5921726958,
				"element": "F" 
			},
			{
				"x": -4.5031088934,
				"y": -3.8386808081,
				"z": -1.8511593549,
				"element": "O" 
			},
			{
				"x": -3.5545339703,
				"y": -2.9391901231,
				"z": -1.3469850615,
				"element": "C" 
			},
			{
				"x": -2.7914124923,
				"y": -3.4364663352,
				"z": -0.2929211198,
				"element": "C" 
			},
			{
				"x": -1.811772823,
				"y": -2.6492961044,
				"z": 0.3040347264,
				"element": "C" 
			},
			{
				"x": -1.590754732,
				"y": -1.3422804654,
				"z": -0.1617344752,
				"element": "C" 
			},
			{
				"x": -0.6213524781,
				"y": -0.4860828236,
				"z": 0.3882536691,
				"element": "N" 
			},
			{
				"x": 0.2577257728,
				"y": -0.7216443648,
				"z": 1.4084983197,
				"element": "C" 
			},
			{
				"x": 0.3595086052,
				"y": -1.7599734584,
				"z": 2.0499398294,
				"element": "O" 
			},
			{
				"x": 1.1277184325,
				"y": 0.502407522,
				"z": 1.7500345255,
				"element": "C" 
			},
			{
				"x": 1.1834408779,
				"y": 1.4966085468,
				"z": 0.677076997,
				"element": "N" 
			},
			{
				"x": 1.2891625593,
				"y": 2.8966359633,
				"z": 1.1214317941,
				"element": "C" 
			},
			{
				"x": 2.7033585969,
				"y": 3.2832843207,
				"z": 1.5729202139,
				"element": "C" 
			},
			{
				"x": 3.6309697247,
				"y": 3.0117685423,
				"z": 0.4732482398,
				"element": "N" 
			},
			{
				"x": 3.6276531262,
				"y": 1.5935373625,
				"z": 0.1078864161,
				"element": "C" 
			},
			{
				"x": 2.212761975,
				"y": 1.2047557978,
				"z": -0.3410048803,
				"element": "C" 
			},
			{
				"x": -2.3679762369,
				"y": -0.8580586682,
				"z": -1.2233037422,
				"element": "C" 
			},
			{
				"x": -3.3499996768,
				"y": -1.64466422,
				"z": -1.8217948359,
				"element": "C" 
			},
			{
				"x": -2.974005872,
				"y": -4.4475917704,
				"z": 0.0550739475,
				"element": "H" 
			},
			{
				"x": -1.2156839443,
				"y": -3.0277624504,
				"z": 1.1226406246,
				"element": "H" 
			},
			{
				"x": -0.5168827178,
				"y": 0.4464685345,
				"z": -0.0058178321,
				"element": "H" 
			},
			{
				"x": 0.6778023101,
				"y": 0.9603989078,
				"z": 2.6387122552,
				"element": "H" 
			},
			{
				"x": 2.1015447654,
				"y": 0.1063411686,
				"z": 2.0677728585,
				"element": "H" 
			},
			{
				"x": 0.564153166,
				"y": 3.0694062149,
				"z": 1.9233740632,
				"element": "H" 
			},
			{
				"x": 1.012861712,
				"y": 3.5352926045,
				"z": 0.2735334361,
				"element": "H" 
			},
			{
				"x": 2.7334047314,
				"y": 4.3527072897,
				"z": 1.810398659,
				"element": "H" 
			},
			{
				"x": 2.9567203597,
				"y": 2.7324618601,
				"z": 2.4998346509,
				"element": "H" 
			},
			{
				"x": 4.5698895022,
				"y": 3.3061114119,
				"z": 0.7250423549,
				"element": "H" 
			},
			{
				"x": 3.9485490183,
				"y": 0.9348040537,
				"z": 0.9374325335,
				"element": "H" 
			},
			{
				"x": 4.3278178032,
				"y": 1.4348383475,
				"z": -0.7197940988,
				"element": "H" 
			},
			{
				"x": 2.1652967158,
				"y": 0.141213466,
				"z": -0.5960845594,
				"element": "H" 
			},
			{
				"x": 1.9653835445,
				"y": 1.7784752373,
				"z": -1.2421371938,
				"element": "H" 
			},
			{
				"x": -2.2066275194,
				"y": 0.1519233291,
				"z": -1.5913267832,
				"element": "H" 
			},
			{
				"x": -3.9334929676,
				"y": -1.2418361547,
				"z": -2.638647796,
				"element": "H" 
			}
		],
		 "valence_orbital": [ 
			{
				"type": "occ",
				"energy": -0.26002,
				"method": "rhf"
			},
			{
				"type": "occ",
				"energy": -0.25997,
				"method": "rhf"
			},
			{
				"type": "occ",
				"energy": -0.24299,
				"method": "rhf"
			},
			{
				"type": "occ",
				"energy": -0.22045,
				"method": "rhf"
			},
			{
				"type": "occ",
				"energy": -0.21527,
				"method": "rhf"
			},
			{
				"type": "unocc",
				"energy": -0.01297,
				"method": "rhf"
			},
			{
				"type": "unocc",
				"energy": -0.01016,
				"method": "rhf"
			},
			{
				"type": "unocc",
				"energy": 0.04337,
				"method": "rhf"
			},
			{
				"type": "unocc",
				"energy": 0.06495,
				"method": "rhf"
			},
			{
				"type": "unocc",
				"energy": 0.08116,
				"method": "rhf"
			}
		],
		"cosmo_sigma_profile": { 
			"-0.025": 0.0,
			"-0.024": 0.0,
			"-0.023": 0.0,
			"-0.022": 0.0,
			"-0.021": 0.0,
			"-0.02": 0.0,
			"-0.019": 0.0,
			"-0.018": 0.0,
			"-0.017": 0.0,
			"-0.016": 0.0,
			"-0.015": 0.0,
			"-0.014": 0.0,
			"-0.013": 0.0,
			"-0.012": 0.159440182885,
			"-0.011": 0.838195399106,
			"-0.01": 2.15769900001,
			"-0.009": 2.51328435104,
			"-0.008": 2.90490605726,
			"-0.007": 6.36298342439,
			"-0.006": 12.0373594706,
			"-0.005": 13.4292261323,
			"-0.004": 22.1992570594,
			"-0.003": 29.5483383207,
			"-0.002": 34.4135247075,
			"-0.001": 29.5913138709,
			"0.0": 25.6242331893,
			"0.001": 29.7950098075,
			"0.002": 45.1373680106,
			"0.003": 20.9423479767,
			"0.004": 14.2770378809,
			"0.005": 3.97875361073,
			"0.006": 3.33136071834,
			"0.007": 3.33475869547,
			"0.008": 2.09884991166,
			"0.009": 1.27583086203,
			"0.01": 2.67188018567,
			"0.011": 2.10215500091,
			"0.012": 3.1423357722,
			"0.013": 3.66280260764,
			"0.014": 2.65072690795,
			"0.015": 0.702170034715,
			"0.016": 0.52542275235,
			"0.017": 0.218383318787,
			"0.018": 0.433972941495,
			"0.019": 0.0,
			"0.02": 0.0,
			"0.021": 0.0,
			"0.022": 0.0,
			"0.023": 0.0,
			"0.024": 0.0,
			"0.025": 0.0
		}
	}
}
