{
	 "smiles": "COC1=CC2=C(NC=C2C(O)=O)C=C1", 
	 "Tm": 453.15, 
	 "num_atms": 23, 
	 "gaussian": { 
		 "optdone": 1, 
		 "sigma_profile": "yes", 
		 "theory": "DFT", 
		 "functional": "B3LYP", 
		 "basiset": "6-31G**", 
		 "properties": { 
			 "R2extent": 4156.538, 
			 "electric_dipole_moment_norm": 4.95971414499, 
			 "electric_quadrupole_moment_norm": 41.6012275702, 
			 "total_energy": -666.912670845, 
			 "HOMO_LUMO_gap": 0.18509, 
			 "cosmo_polarized_energy": -19.95, 
			 "cosmo_cavitation_energy": 27.35, 
			 "cosmo_dispersion_energy": -20.28, 
			 "cosmo_repulsion_energy": 1.58, 
			 "cosmo_total_nonelectrostatic_energy": 8.65, 
			 "SMD_solvation_energy": 6.4 
		},
		"coords": [
			{
				"x": 0.5651749331,
				"y": -2.3991011072,
				"z": 1.8744309526,
				"element": "C" 
			},
			{
				"x": -0.3672118154,
				"y": -1.4240961125,
				"z": 1.4384315766,
				"element": "O" 
			},
			{
				"x": 0.0886969407,
				"y": -0.3959787097,
				"z": 0.6621769439,
				"element": "C" 
			},
			{
				"x": 1.4145639152,
				"y": -0.2357927521,
				"z": 0.2659874013,
				"element": "C" 
			},
			{
				"x": 1.7491530906,
				"y": 0.8741817214,
				"z": -0.5390345734,
				"element": "C" 
			},
			{
				"x": 0.7270215607,
				"y": 1.7667337656,
				"z": -0.9467038552,
				"element": "C" 
			},
			{
				"x": 1.3124666965,
				"y": 2.726481727,
				"z": -1.7616488884,
				"element": "N" 
			},
			{
				"x": 2.6481926465,
				"y": 2.4722409207,
				"z": -1.8802080391,
				"element": "C" 
			},
			{
				"x": 2.9760611664,
				"y": 1.3549944898,
				"z": -1.137097866,
				"element": "C" 
			},
			{
				"x": 4.3562979457,
				"y": 0.8541027949,
				"z": -1.0330320266,
				"element": "C" 
			},
			{
				"x": 4.6105489437,
				"y": 0.0301801053,
				"z": 0.0294116699,
				"element": "O" 
			},
			{
				"x": 5.2460375156,
				"y": 1.1342563197,
				"z": -1.8050242993,
				"element": "O" 
			},
			{
				"x": -0.6042643918,
				"y": 1.6038522172,
				"z": -0.5492159867,
				"element": "C" 
			},
			{
				"x": -0.9099813499,
				"y": 0.5243530692,
				"z": 0.2617269477,
				"element": "C" 
			},
			{
				"x": 1.0243713796,
				"y": -2.9279511392,
				"z": 1.028956247,
				"element": "H" 
			},
			{
				"x": -0.0007395149,
				"y": -3.1106998598,
				"z": 2.4774422024,
				"element": "H" 
			},
			{
				"x": 1.3578192319,
				"y": -1.9545282142,
				"z": 2.4909077844,
				"element": "H" 
			},
			{
				"x": 2.1625713613,
				"y": -0.9754885082,
				"z": 0.5256139581,
				"element": "H" 
			},
			{
				"x": 0.8279153496,
				"y": 3.4958172834,
				"z": -2.1957884624,
				"element": "H" 
			},
			{
				"x": 3.3017982134,
				"y": 3.0987342939,
				"z": -2.4689014237,
				"element": "H" 
			},
			{
				"x": 3.8734985712,
				"y": 0.0766806365,
				"z": 0.6548154334,
				"element": "H" 
			},
			{
				"x": -1.3797235654,
				"y": 2.2949936117,
				"z": -0.8663536617,
				"element": "H" 
			},
			{
				"x": -1.9252688242,
				"y": 0.3482334469,
				"z": 0.5996079651,
				"element": "H" 
			}
		],
		 "valence_orbital": [ 
			{
				"type": "occ",
				"energy": -0.30512,
				"method": "rhf"
			},
			{
				"type": "occ",
				"energy": -0.28986,
				"method": "rhf"
			},
			{
				"type": "occ",
				"energy": -0.26027,
				"method": "rhf"
			},
			{
				"type": "occ",
				"energy": -0.223,
				"method": "rhf"
			},
			{
				"type": "occ",
				"energy": -0.21629,
				"method": "rhf"
			},
			{
				"type": "unocc",
				"energy": -0.0312,
				"method": "rhf"
			},
			{
				"type": "unocc",
				"energy": -0.00357,
				"method": "rhf"
			},
			{
				"type": "unocc",
				"energy": 0.01923,
				"method": "rhf"
			},
			{
				"type": "unocc",
				"energy": 0.06479,
				"method": "rhf"
			},
			{
				"type": "unocc",
				"energy": 0.07216,
				"method": "rhf"
			}
		],
		"cosmo_sigma_profile": { 
			"-0.025": 0.0,
			"-0.024": 0.0,
			"-0.023": 0.0,
			"-0.022": 0.0,
			"-0.021": 0.0,
			"-0.02": 0.0,
			"-0.019": 0.0,
			"-0.018": 0.0,
			"-0.017": 0.509423058533,
			"-0.016": 1.90641466157,
			"-0.015": 2.26969787408,
			"-0.014": 2.59690174657,
			"-0.013": 1.8125004319,
			"-0.012": 2.29681960319,
			"-0.011": 2.8068595823,
			"-0.01": 2.45781951187,
			"-0.009": 4.06352179862,
			"-0.008": 4.21656501978,
			"-0.007": 6.30610677299,
			"-0.006": 9.94146392476,
			"-0.005": 14.6136567839,
			"-0.004": 13.529834912,
			"-0.003": 14.7636349576,
			"-0.002": 10.5411731076,
			"-0.001": 8.46996638348,
			"0.0": 9.99032119854,
			"0.001": 10.6740814428,
			"0.002": 13.0950171166,
			"0.003": 14.571273818,
			"0.004": 17.2184894562,
			"0.005": 11.9600413557,
			"0.006": 3.79601575516,
			"0.007": 4.41823907804,
			"0.008": 3.42348779285,
			"0.009": 4.14482349237,
			"0.01": 5.48924478741,
			"0.011": 4.8711220296,
			"0.012": 5.98498353449,
			"0.013": 4.63201772323,
			"0.014": 1.35295619423,
			"0.015": 0.0,
			"0.016": 0.0,
			"0.017": 0.0,
			"0.018": 0.0,
			"0.019": 0.0,
			"0.02": 0.0,
			"0.021": 0.0,
			"0.022": 0.0,
			"0.023": 0.0,
			"0.024": 0.0,
			"0.025": 0.0
		}
	}
}
