{
	 "smiles": "NC(=O)C1=CC(N)=C(C=C1)N1CCCCC1", 
	 "Tm": 442.15, 
	 "num_atms": 33, 
	 "gaussian": { 
		 "optdone": 1, 
		 "sigma_profile": "yes", 
		 "theory": "DFT", 
		 "functional": "B3LYP", 
		 "basiset": "6-31G**", 
		 "properties": { 
			 "R2extent": 4980.077, 
			 "electric_dipole_moment_norm": 4.93579998379, 
			 "electric_quadrupole_moment_norm": 28.6620243654, 
			 "total_energy": -707.026968895, 
			 "HOMO_LUMO_gap": 0.16691, 
			 "cosmo_polarized_energy": -17.36, 
			 "cosmo_cavitation_energy": 33.62, 
			 "cosmo_dispersion_energy": -24.83, 
			 "cosmo_repulsion_energy": 1.94, 
			 "cosmo_total_nonelectrostatic_energy": 10.73, 
			 "SMD_solvation_energy": 5.11 
		},
		"coords": [
			{
				"x": -4.2984661039,
				"y": -3.6893504287,
				"z": 0.5889074235,
				"element": "N" 
			},
			{
				"x": -2.9817435139,
				"y": -3.8554311361,
				"z": 0.2087070484,
				"element": "C" 
			},
			{
				"x": -2.5502406154,
				"y": -4.9543503656,
				"z": -0.1213628816,
				"element": "O" 
			},
			{
				"x": -2.129564372,
				"y": -2.6239425763,
				"z": 0.199047135,
				"element": "C" 
			},
			{
				"x": -2.6539731873,
				"y": -1.3238705852,
				"z": 0.2263726703,
				"element": "C" 
			},
			{
				"x": -1.8215703235,
				"y": -0.2017162586,
				"z": 0.2241348307,
				"element": "C" 
			},
			{
				"x": -2.3535789939,
				"y": 1.0941666676,
				"z": 0.2671433796,
				"element": "N" 
			},
			{
				"x": -0.4099931905,
				"y": -0.3738304614,
				"z": 0.152434572,
				"element": "C" 
			},
			{
				"x": 0.0958544659,
				"y": -1.6819070602,
				"z": 0.143058749,
				"element": "C" 
			},
			{
				"x": -0.7431594168,
				"y": -2.7929043528,
				"z": 0.1647629884,
				"element": "C" 
			},
			{
				"x": 0.3998968729,
				"y": 0.7909374045,
				"z": 0.1689949953,
				"element": "N" 
			},
			{
				"x": 1.7619564004,
				"y": 0.7063891781,
				"z": 0.7088163146,
				"element": "C" 
			},
			{
				"x": 2.8531097408,
				"y": 0.3717019355,
				"z": -0.3277463875,
				"element": "C" 
			},
			{
				"x": 2.7589326715,
				"y": 1.3030609834,
				"z": -1.5456402947,
				"element": "C" 
			},
			{
				"x": 1.3292189992,
				"y": 1.3105260632,
				"z": -2.1049292179,
				"element": "C" 
			},
			{
				"x": 0.3232959857,
				"y": 1.6845123861,
				"z": -1.0062386292,
				"element": "C" 
			},
			{
				"x": -4.5486886746,
				"y": -2.9244466164,
				"z": 1.1963586173,
				"element": "H" 
			},
			{
				"x": -4.8072320334,
				"y": -4.5518616104,
				"z": 0.7221078126,
				"element": "H" 
			},
			{
				"x": -3.7296146839,
				"y": -1.1643827309,
				"z": 0.2361297613,
				"element": "H" 
			},
			{
				"x": -3.2863370625,
				"y": 1.1377546955,
				"z": 0.6572820711,
				"element": "H" 
			},
			{
				"x": -1.7242757401,
				"y": 1.7423577254,
				"z": 0.7299468833,
				"element": "H" 
			},
			{
				"x": 1.1680481428,
				"y": -1.8363226707,
				"z": 0.1080985048,
				"element": "H" 
			},
			{
				"x": -0.3417314836,
				"y": -3.7995417065,
				"z": 0.1381068216,
				"element": "H" 
			},
			{
				"x": 1.9946810932,
				"y": 1.6900693747,
				"z": 1.1441834076,
				"element": "H" 
			},
			{
				"x": 1.7644549588,
				"y": -0.0135292681,
				"z": 1.5320902216,
				"element": "H" 
			},
			{
				"x": 2.7520484862,
				"y": -0.6675320263,
				"z": -0.662273993,
				"element": "H" 
			},
			{
				"x": 3.8371713752,
				"y": 0.4553621973,
				"z": 0.1499201519,
				"element": "H" 
			},
			{
				"x": 3.0323378849,
				"y": 2.325133215,
				"z": -1.2450315341,
				"element": "H" 
			},
			{
				"x": 3.4780799212,
				"y": 1.0006083658,
				"z": -2.3153419199,
				"element": "H" 
			},
			{
				"x": 1.0764422651,
				"y": 0.3190144332,
				"z": -2.5027505435,
				"element": "H" 
			},
			{
				"x": 1.241023009,
				"y": 2.0212953052,
				"z": -2.9359008112,
				"element": "H" 
			},
			{
				"x": -0.698876105,
				"y": 1.6768597055,
				"z": -1.3881454649,
				"element": "H" 
			},
			{
				"x": 0.5355932277,
				"y": 2.7081702181,
				"z": -0.6617426823,
				"element": "H" 
			}
		],
		 "valence_orbital": [ 
			{
				"type": "occ",
				"energy": -0.263,
				"method": "rhf"
			},
			{
				"type": "occ",
				"energy": -0.26207,
				"method": "rhf"
			},
			{
				"type": "occ",
				"energy": -0.2385,
				"method": "rhf"
			},
			{
				"type": "occ",
				"energy": -0.21921,
				"method": "rhf"
			},
			{
				"type": "occ",
				"energy": -0.18876,
				"method": "rhf"
			},
			{
				"type": "unocc",
				"energy": -0.02185,
				"method": "rhf"
			},
			{
				"type": "unocc",
				"energy": 0.01258,
				"method": "rhf"
			},
			{
				"type": "unocc",
				"energy": 0.06892,
				"method": "rhf"
			},
			{
				"type": "unocc",
				"energy": 0.08178,
				"method": "rhf"
			},
			{
				"type": "unocc",
				"energy": 0.08895,
				"method": "rhf"
			}
		],
		"cosmo_sigma_profile": { 
			"-0.025": 0.0,
			"-0.024": 0.0,
			"-0.023": 0.0,
			"-0.022": 0.0,
			"-0.021": 0.0,
			"-0.02": 0.0,
			"-0.019": 0.0,
			"-0.018": 0.0,
			"-0.017": 0.0,
			"-0.016": 0.0,
			"-0.015": 0.0,
			"-0.014": 0.440995814364,
			"-0.013": 2.36902199499,
			"-0.012": 3.45850314308,
			"-0.011": 4.34486968468,
			"-0.01": 3.5395875154,
			"-0.009": 5.19437302215,
			"-0.008": 5.2154011458,
			"-0.007": 5.02885215855,
			"-0.006": 4.10210894204,
			"-0.005": 6.19109695922,
			"-0.004": 9.48084696022,
			"-0.003": 22.0850950808,
			"-0.002": 32.089339886,
			"-0.001": 32.3193989718,
			"0.0": 26.1608234592,
			"0.001": 19.0495241949,
			"0.002": 11.2896401888,
			"0.003": 9.5924441146,
			"0.004": 10.1204147244,
			"0.005": 12.5227332693,
			"0.006": 10.4797216365,
			"0.007": 4.77203875753,
			"0.008": 3.16043503313,
			"0.009": 1.98127627174,
			"0.01": 2.72572841842,
			"0.011": 1.76650866659,
			"0.012": 2.74309899488,
			"0.013": 3.89187553068,
			"0.014": 5.43424992045,
			"0.015": 1.31742036182,
			"0.016": 0.0,
			"0.017": 0.0,
			"0.018": 0.0,
			"0.019": 0.0,
			"0.02": 0.0,
			"0.021": 0.0,
			"0.022": 0.0,
			"0.023": 0.0,
			"0.024": 0.0,
			"0.025": 0.0
		}
	}
}
