{
	 "smiles": "COC1=C(C=C(C)C=C1)N1CC(CC1=O)C(O)=O", 
	 "Tm": 445.15, 
	 "num_atms": 33, 
	 "gaussian": { 
		 "optdone": 1, 
		 "sigma_profile": "yes", 
		 "theory": "DFT", 
		 "functional": "B3LYP", 
		 "basiset": "6-31G**", 
		 "properties": { 
			 "R2extent": 5416.2525, 
			 "electric_dipole_moment_norm": 3.55895800621, 
			 "electric_quadrupole_moment_norm": 12.6159794217, 
			 "total_energy": -860.089160161, 
			 "HOMO_LUMO_gap": 0.20373, 
			 "cosmo_polarized_energy": -18.93, 
			 "cosmo_cavitation_energy": 36.24, 
			 "cosmo_dispersion_energy": -25.21, 
			 "cosmo_repulsion_energy": 1.98, 
			 "cosmo_total_nonelectrostatic_energy": 13.0, 
			 "SMD_solvation_energy": 8.38 
		},
		"coords": [
			{
				"x": 1.6289984827,
				"y": 1.5259185595,
				"z": -3.423722302,
				"element": "C" 
			},
			{
				"x": 0.5072957147,
				"y": 1.2208334815,
				"z": -2.5917590191,
				"element": "O" 
			},
			{
				"x": -0.1701385202,
				"y": 0.0680364219,
				"z": -2.8726405962,
				"element": "C" 
			},
			{
				"x": -0.3988603934,
				"y": -0.8454909138,
				"z": -1.8257529331,
				"element": "C" 
			},
			{
				"x": -1.1959398888,
				"y": -1.9721351166,
				"z": -2.0527397941,
				"element": "C" 
			},
			{
				"x": -1.7573774854,
				"y": -2.2372052632,
				"z": -3.3054780148,
				"element": "C" 
			},
			{
				"x": -2.5847626761,
				"y": -3.4796659555,
				"z": -3.5407158816,
				"element": "C" 
			},
			{
				"x": -1.4950390153,
				"y": -1.3344343508,
				"z": -4.3436612034,
				"element": "C" 
			},
			{
				"x": -0.7134775616,
				"y": -0.2006580003,
				"z": -4.1329175125,
				"element": "C" 
			},
			{
				"x": 0.1595471098,
				"y": -0.6060241856,
				"z": -0.5427101672,
				"element": "N" 
			},
			{
				"x": -0.6359429943,
				"y": -0.6594403718,
				"z": 0.6825947086,
				"element": "C" 
			},
			{
				"x": 0.3013292546,
				"y": -0.0252194169,
				"z": 1.7430770341,
				"element": "C" 
			},
			{
				"x": 1.7102265714,
				"y": -0.278930221,
				"z": 1.1918961134,
				"element": "C" 
			},
			{
				"x": 1.5176839889,
				"y": -0.4718317203,
				"z": -0.3127841359,
				"element": "C" 
			},
			{
				"x": 2.3978959545,
				"y": -0.5289311607,
				"z": -1.1520773535,
				"element": "O" 
			},
			{
				"x": 0.0381137969,
				"y": 1.4634032075,
				"z": 1.947367812,
				"element": "C" 
			},
			{
				"x": -1.2720892465,
				"y": 1.7075376277,
				"z": 2.192863353,
				"element": "O" 
			},
			{
				"x": 0.8726016352,
				"y": 2.3392968352,
				"z": 1.9421049004,
				"element": "O" 
			},
			{
				"x": 2.0637338212,
				"y": 2.4406112722,
				"z": -3.0167010451,
				"element": "H" 
			},
			{
				"x": 2.3647929789,
				"y": 0.7184927516,
				"z": -3.3748181201,
				"element": "H" 
			},
			{
				"x": 1.3313109666,
				"y": 1.7089032229,
				"z": -4.4636879801,
				"element": "H" 
			},
			{
				"x": -1.3633758923,
				"y": -2.6676538499,
				"z": -1.234408106,
				"element": "H" 
			},
			{
				"x": -1.9729184673,
				"y": -4.2981128479,
				"z": -3.9406131272,
				"element": "H" 
			},
			{
				"x": -3.0422460525,
				"y": -3.8386806489,
				"z": -2.6139159193,
				"element": "H" 
			},
			{
				"x": -3.3870958491,
				"y": -3.2944827292,
				"z": -4.2618835693,
				"element": "H" 
			},
			{
				"x": -1.9180927234,
				"y": -1.5126357588,
				"z": -5.3291796277,
				"element": "H" 
			},
			{
				"x": -0.5497239576,
				"y": 0.5038087129,
				"z": -4.9419749876,
				"element": "H" 
			},
			{
				"x": -0.8805002466,
				"y": -1.6939072896,
				"z": 0.9618272382,
				"element": "H" 
			},
			{
				"x": -1.5727199338,
				"y": -0.1115202853,
				"z": 0.563440797,
				"element": "H" 
			},
			{
				"x": 0.1332320903,
				"y": -0.4962350638,
				"z": 2.7178936239,
				"element": "H" 
			},
			{
				"x": 2.1553686474,
				"y": -1.1902582705,
				"z": 1.6051748553,
				"element": "H" 
			},
			{
				"x": 2.3915855732,
				"y": 0.5515616413,
				"z": 1.3824960917,
				"element": "H" 
			},
			{
				"x": -1.348815682,
				"y": 2.6670496861,
				"z": 2.3279048681,
				"element": "H" 
			}
		],
		 "valence_orbital": [ 
			{
				"type": "occ",
				"energy": -0.27908,
				"method": "rhf"
			},
			{
				"type": "occ",
				"energy": -0.26988,
				"method": "rhf"
			},
			{
				"type": "occ",
				"energy": -0.24459,
				"method": "rhf"
			},
			{
				"type": "occ",
				"energy": -0.23242,
				"method": "rhf"
			},
			{
				"type": "occ",
				"energy": -0.21258,
				"method": "rhf"
			},
			{
				"type": "unocc",
				"energy": -0.00885,
				"method": "rhf"
			},
			{
				"type": "unocc",
				"energy": -0.00221,
				"method": "rhf"
			},
			{
				"type": "unocc",
				"energy": 0.0063,
				"method": "rhf"
			},
			{
				"type": "unocc",
				"energy": 0.03735,
				"method": "rhf"
			},
			{
				"type": "unocc",
				"energy": 0.06859,
				"method": "rhf"
			}
		],
		"cosmo_sigma_profile": { 
			"-0.025": 0.0,
			"-0.024": 0.0,
			"-0.023": 0.0,
			"-0.022": 0.0,
			"-0.021": 0.0,
			"-0.02": 0.0,
			"-0.019": 0.0973492404889,
			"-0.018": 0.801665635247,
			"-0.017": 1.1587273697,
			"-0.016": 0.45557699619,
			"-0.015": 1.21425482226,
			"-0.014": 0.758149252352,
			"-0.013": 0.292950609466,
			"-0.012": 0.762671160876,
			"-0.011": 0.681427999627,
			"-0.01": 0.67265238739,
			"-0.009": 0.415342049424,
			"-0.008": 2.78512396391,
			"-0.007": 7.51948092268,
			"-0.006": 20.0994559139,
			"-0.005": 19.6301017503,
			"-0.004": 25.1527939383,
			"-0.003": 26.3103994959,
			"-0.002": 27.1527310222,
			"-0.001": 17.6021655949,
			"0.0": 19.6927915062,
			"0.001": 15.8282161951,
			"0.002": 10.1374026073,
			"0.003": 10.4600206157,
			"0.004": 13.8087849774,
			"0.005": 14.2483383889,
			"0.006": 7.24014443581,
			"0.007": 6.52635371838,
			"0.008": 6.94104426885,
			"0.009": 5.04564652273,
			"0.01": 5.23204090431,
			"0.011": 7.55301613679,
			"0.012": 3.83747385619,
			"0.013": 3.36661040099,
			"0.014": 1.98268291435,
			"0.015": 0.591780904837,
			"0.016": 0.0,
			"0.017": 0.0,
			"0.018": 0.0,
			"0.019": 0.0,
			"0.02": 0.0,
			"0.021": 0.0,
			"0.022": 0.0,
			"0.023": 0.0,
			"0.024": 0.0,
			"0.025": 0.0
		}
	}
}
