{
	 "smiles": "NS(=O)(=O)C1=CN=C(Cl)S1", 
	 "Tm": 402.15, 
	 "num_atms": 13, 
	 "gaussian": { 
		 "optdone": 1, 
		 "sigma_profile": "yes", 
		 "theory": "DFT", 
		 "functional": "B3LYP", 
		 "basiset": "6-31G**", 
		 "properties": { 
			 "R2extent": 4738.9915, 
			 "electric_dipole_moment_norm": 4.25416938309, 
			 "electric_quadrupole_moment_norm": 19.3439205641, 
			 "total_energy": -1632.54259173, 
			 "HOMO_LUMO_gap": 0.19884, 
			 "cosmo_polarized_energy": -17.33, 
			 "cosmo_cavitation_energy": 23.08, 
			 "cosmo_dispersion_energy": -18.26, 
			 "cosmo_repulsion_energy": 1.4, 
			 "cosmo_total_nonelectrostatic_energy": 6.22, 
			 "SMD_solvation_energy": 1.58 
		},
		"coords": [
			{
				"x": -1.4177034094,
				"y": 0.1439210928,
				"z": -2.3640494744,
				"element": "N" 
			},
			{
				"x": -0.173204656,
				"y": -0.694246695,
				"z": -3.0956360078,
				"element": "S" 
			},
			{
				"x": 0.0749268481,
				"y": -0.0131130507,
				"z": -4.3611481854,
				"element": "O" 
			},
			{
				"x": -0.5119221134,
				"y": -2.1076929212,
				"z": -2.9794654369,
				"element": "O" 
			},
			{
				"x": 1.2790159754,
				"y": -0.4645803258,
				"z": -2.0897353772,
				"element": "C" 
			},
			{
				"x": 1.7686699144,
				"y": -1.3491316001,
				"z": -1.1669625524,
				"element": "C" 
			},
			{
				"x": 2.9026993611,
				"y": -0.9536395361,
				"z": -0.500934056,
				"element": "N" 
			},
			{
				"x": 3.2757591607,
				"y": 0.2153919076,
				"z": -0.9156145062,
				"element": "C" 
			},
			{
				"x": 4.6662858099,
				"y": 1.0411528256,
				"z": -0.3140662561,
				"element": "Cl" 
			},
			{
				"x": 2.2964746456,
				"y": 0.950828554,
				"z": -2.1700777221,
				"element": "S" 
			},
			{
				"x": -1.679731526,
				"y": -0.2155787729,
				"z": -1.4525002352,
				"element": "H" 
			},
			{
				"x": -1.3179821989,
				"y": 1.1524140517,
				"z": -2.4051871674,
				"element": "H" 
			},
			{
				"x": 1.3265121885,
				"y": -2.31492553,
				"z": -0.9558230229,
				"element": "H" 
			}
		],
		 "valence_orbital": [ 
			{
				"type": "occ",
				"energy": -0.33353,
				"method": "rhf"
			},
			{
				"type": "occ",
				"energy": -0.32434,
				"method": "rhf"
			},
			{
				"type": "occ",
				"energy": -0.31584,
				"method": "rhf"
			},
			{
				"type": "occ",
				"energy": -0.30916,
				"method": "rhf"
			},
			{
				"type": "occ",
				"energy": -0.27428,
				"method": "rhf"
			},
			{
				"type": "unocc",
				"energy": -0.07544,
				"method": "rhf"
			},
			{
				"type": "unocc",
				"energy": -0.03018,
				"method": "rhf"
			},
			{
				"type": "unocc",
				"energy": -0.00268,
				"method": "rhf"
			},
			{
				"type": "unocc",
				"energy": 0.00249,
				"method": "rhf"
			},
			{
				"type": "unocc",
				"energy": 0.04248,
				"method": "rhf"
			}
		],
		"cosmo_sigma_profile": { 
			"-0.025": 0.0,
			"-0.024": 0.0,
			"-0.023": 0.0,
			"-0.022": 0.0,
			"-0.021": 0.0,
			"-0.02": 0.0,
			"-0.019": 0.0,
			"-0.018": 0.0,
			"-0.017": 0.0,
			"-0.016": 1.54276535417,
			"-0.015": 2.93294644924,
			"-0.014": 2.80324264835,
			"-0.013": 3.71227866641,
			"-0.012": 2.84860612317,
			"-0.011": 2.06905029172,
			"-0.01": 2.37255971741,
			"-0.009": 3.18162132892,
			"-0.008": 3.79616054261,
			"-0.007": 2.94081374268,
			"-0.006": 3.01837812965,
			"-0.005": 6.80789196346,
			"-0.004": 10.5980659779,
			"-0.003": 12.6445712377,
			"-0.002": 14.6736727685,
			"-0.001": 15.8978363174,
			"0.0": 12.4573922715,
			"0.001": 13.5991459297,
			"0.002": 11.7984175626,
			"0.003": 7.51600121263,
			"0.004": 5.14168748296,
			"0.005": 4.52782878847,
			"0.006": 5.42762613972,
			"0.007": 5.41159779355,
			"0.008": 5.5073983444,
			"0.009": 7.14244147331,
			"0.01": 11.5463383702,
			"0.011": 7.26832017472,
			"0.012": 0.753607099821,
			"0.013": 0.284141802205,
			"0.014": 0.0,
			"0.015": 0.0,
			"0.016": 0.0,
			"0.017": 0.0,
			"0.018": 0.0,
			"0.019": 0.0,
			"0.02": 0.0,
			"0.021": 0.0,
			"0.022": 0.0,
			"0.023": 0.0,
			"0.024": 0.0,
			"0.025": 0.0
		}
	}
}
