{
	 "smiles": "O=C(N1CCCCC1)C1=CC=CC=C1", 
	 "Tm": 322.15, 
	 "num_atms": 29, 
	 "gaussian": { 
		 "optdone": 1, 
		 "sigma_profile": "yes", 
		 "theory": "DFT", 
		 "functional": "B3LYP", 
		 "basiset": "6-31G**", 
		 "properties": { 
			 "R2extent": 3698.2368, 
			 "electric_dipole_moment_norm": 3.48693962236, 
			 "electric_quadrupole_moment_norm": 9.63195490594, 
			 "total_energy": -596.316205308, 
			 "HOMO_LUMO_gap": 0.20471, 
			 "cosmo_polarized_energy": -9.94, 
			 "cosmo_cavitation_energy": 30.4, 
			 "cosmo_dispersion_energy": -22.15, 
			 "cosmo_repulsion_energy": 1.75, 
			 "cosmo_total_nonelectrostatic_energy": 10.0, 
			 "SMD_solvation_energy": 4.65 
		},
		"coords": [
			{
				"x": 1.8401356516,
				"y": -2.1776601027,
				"z": 0.0921392272,
				"element": "O" 
			},
			{
				"x": 1.0705984015,
				"y": -1.3684750542,
				"z": 0.6075263252,
				"element": "C" 
			},
			{
				"x": -0.291183742,
				"y": -1.586270081,
				"z": 0.6608432016,
				"element": "N" 
			},
			{
				"x": -1.194478234,
				"y": -1.0020450086,
				"z": 1.6577067614,
				"element": "C" 
			},
			{
				"x": -2.5489088597,
				"y": -0.6529495904,
				"z": 1.0289978695,
				"element": "C" 
			},
			{
				"x": -3.1614340609,
				"y": -1.8797335834,
				"z": 0.3364982653,
				"element": "C" 
			},
			{
				"x": -2.1629547985,
				"y": -2.5012812445,
				"z": -0.6513429184,
				"element": "C" 
			},
			{
				"x": -0.8182850112,
				"y": -2.7974900392,
				"z": 0.0235306699,
				"element": "C" 
			},
			{
				"x": 1.6139077807,
				"y": -0.0702295656,
				"z": 1.1459564802,
				"element": "C" 
			},
			{
				"x": 2.8270301803,
				"y": -0.1116679727,
				"z": 1.8465006205,
				"element": "C" 
			},
			{
				"x": 3.4198484987,
				"y": 1.0645222239,
				"z": 2.3011070978,
				"element": "C" 
			},
			{
				"x": 2.8224931,
				"y": 2.2992427232,
				"z": 2.0338707247,
				"element": "C" 
			},
			{
				"x": 1.6308735052,
				"y": 2.3515973374,
				"z": 1.308572805,
				"element": "C" 
			},
			{
				"x": 1.0264889027,
				"y": 1.1725222181,
				"z": 0.8698651832,
				"element": "C" 
			},
			{
				"x": -0.7284488333,
				"y": -0.12639731,
				"z": 2.1068798087,
				"element": "H" 
			},
			{
				"x": -1.3517066343,
				"y": -1.7369771772,
				"z": 2.4651373492,
				"element": "H" 
			},
			{
				"x": -3.2204280564,
				"y": -0.2707595279,
				"z": 1.8068208711,
				"element": "H" 
			},
			{
				"x": -2.4069507374,
				"y": 0.1536062222,
				"z": 0.2978201862,
				"element": "H" 
			},
			{
				"x": -4.0916046149,
				"y": -1.6075681154,
				"z": -0.1749793003,
				"element": "H" 
			},
			{
				"x": -3.4285221524,
				"y": -2.6255436275,
				"z": 1.0987546381,
				"element": "H" 
			},
			{
				"x": -2.5655409711,
				"y": -3.4290255553,
				"z": -1.0743717479,
				"element": "H" 
			},
			{
				"x": -1.9936678006,
				"y": -1.8121561325,
				"z": -1.4885674156,
				"element": "H" 
			},
			{
				"x": -0.0708493436,
				"y": -3.1486302022,
				"z": -0.6873046351,
				"element": "H" 
			},
			{
				"x": -0.9453492034,
				"y": -3.586333299,
				"z": 0.7828161944,
				"element": "H" 
			},
			{
				"x": 3.2973226892,
				"y": -1.0745360673,
				"z": 2.0172256579,
				"element": "H" 
			},
			{
				"x": 4.3533238723,
				"y": 1.0202519332,
				"z": 2.8548011455,
				"element": "H" 
			},
			{
				"x": 3.2893348337,
				"y": 3.2168192257,
				"z": 2.3804988087,
				"element": "H" 
			},
			{
				"x": 1.1740768046,
				"y": 3.3100216011,
				"z": 1.0787603855,
				"element": "H" 
			},
			{
				"x": 0.109478833,
				"y": 1.2176457716,
				"z": 0.2896357406,
				"element": "H" 
			}
		],
		 "valence_orbital": [ 
			{
				"type": "occ",
				"energy": -0.32326,
				"method": "rhf"
			},
			{
				"type": "occ",
				"energy": -0.26081,
				"method": "rhf"
			},
			{
				"type": "occ",
				"energy": -0.25392,
				"method": "rhf"
			},
			{
				"type": "occ",
				"energy": -0.23999,
				"method": "rhf"
			},
			{
				"type": "occ",
				"energy": -0.22993,
				"method": "rhf"
			},
			{
				"type": "unocc",
				"energy": -0.02522,
				"method": "rhf"
			},
			{
				"type": "unocc",
				"energy": -0.00487,
				"method": "rhf"
			},
			{
				"type": "unocc",
				"energy": 0.04857,
				"method": "rhf"
			},
			{
				"type": "unocc",
				"energy": 0.08214,
				"method": "rhf"
			},
			{
				"type": "unocc",
				"energy": 0.09648,
				"method": "rhf"
			}
		],
		"cosmo_sigma_profile": { 
			"-0.025": 0.0,
			"-0.024": 0.0,
			"-0.023": 0.0,
			"-0.022": 0.0,
			"-0.021": 0.0,
			"-0.02": 0.0,
			"-0.019": 0.0,
			"-0.018": 0.0,
			"-0.017": 0.0,
			"-0.016": 0.0,
			"-0.015": 0.0,
			"-0.014": 0.0,
			"-0.013": 0.0,
			"-0.012": 0.0,
			"-0.011": 0.0,
			"-0.01": 0.0,
			"-0.009": 0.0,
			"-0.008": 0.0,
			"-0.007": 0.311114957872,
			"-0.006": 6.20040828668,
			"-0.005": 10.2832752366,
			"-0.004": 20.784302387,
			"-0.003": 32.7809280997,
			"-0.002": 39.4794216999,
			"-0.001": 30.8209928978,
			"0.0": 23.1667538397,
			"0.001": 14.1596291644,
			"0.002": 10.1667189078,
			"0.003": 9.73721099016,
			"0.004": 10.3608956032,
			"0.005": 9.67194264021,
			"0.006": 2.38584172991,
			"0.007": 1.52857800812,
			"0.008": 1.64728785343,
			"0.009": 1.91559437256,
			"0.01": 1.28075491197,
			"0.011": 2.24348287378,
			"0.012": 1.37600562885,
			"0.013": 3.50245411061,
			"0.014": 4.31766179124,
			"0.015": 0.906753515614,
			"0.016": 0.0,
			"0.017": 0.0,
			"0.018": 0.0,
			"0.019": 0.0,
			"0.02": 0.0,
			"0.021": 0.0,
			"0.022": 0.0,
			"0.023": 0.0,
			"0.024": 0.0,
			"0.025": 0.0
		}
	}
}
