{
	 "smiles": "CC12CCC3C(CCC4CC(O)CCC34C)C1CCC2=O", 
	 "Tm": 458.15, 
	 "num_atms": 51, 
	 "gaussian": { 
		 "optdone": 1, 
		 "sigma_profile": "yes", 
		 "theory": "DFT", 
		 "functional": "B3LYP", 
		 "basiset": "6-31G**", 
		 "properties": { 
			 "R2extent": 6898.3057, 
			 "electric_dipole_moment_norm": 2.81999427127, 
			 "electric_quadrupole_moment_norm": 19.621342252, 
			 "total_energy": -892.560302601, 
			 "HOMO_LUMO_gap": 0.21739, 
			 "cosmo_polarized_energy": -12.07, 
			 "cosmo_cavitation_energy": 43.65, 
			 "cosmo_dispersion_energy": -30.4, 
			 "cosmo_repulsion_energy": 2.26, 
			 "cosmo_total_nonelectrostatic_energy": 15.51, 
			 "SMD_solvation_energy": 6.23 
		},
		"coords": [
			{
				"x": -2.957126148,
				"y": -0.6703255689,
				"z": -1.8589214169,
				"element": "C" 
			},
			{
				"x": -1.9278608589,
				"y": 0.4786606594,
				"z": -1.8501769113,
				"element": "C" 
			},
			{
				"x": -2.2941632166,
				"y": 1.5425492621,
				"z": -0.8010240648,
				"element": "C" 
			},
			{
				"x": -2.1761933109,
				"y": 1.0122325298,
				"z": 0.6440651994,
				"element": "C" 
			},
			{
				"x": -1.0092254537,
				"y": 0.0043603282,
				"z": 0.8690491282,
				"element": "C" 
			},
			{
				"x": 0.1033723078,
				"y": 0.2365195115,
				"z": -0.18992073,
				"element": "C" 
			},
			{
				"x": 1.3771581097,
				"y": -0.6368908974,
				"z": 0.0059284996,
				"element": "C" 
			},
			{
				"x": 1.5372930374,
				"y": -1.2353673332,
				"z": 1.4164144848,
				"element": "C" 
			},
			{
				"x": 1.0166759024,
				"y": -0.2920883621,
				"z": 2.5082525375,
				"element": "C" 
			},
			{
				"x": 1.8273519424,
				"y": 1.0243835334,
				"z": 2.5068569226,
				"element": "C" 
			},
			{
				"x": 1.3080370868,
				"y": 2.0705942514,
				"z": 3.4841139039,
				"element": "C" 
			},
			{
				"x": 2.1181506352,
				"y": 3.2323348192,
				"z": 3.3180574135,
				"element": "O" 
			},
			{
				"x": -0.1705672399,
				"y": 2.3405828284,
				"z": 3.2041107077,
				"element": "C" 
			},
			{
				"x": -0.971826456,
				"y": 1.039756212,
				"z": 3.3323410557,
				"element": "C" 
			},
			{
				"x": -0.5370073377,
				"y": -0.1189928005,
				"z": 2.3899450474,
				"element": "C" 
			},
			{
				"x": -1.2203945491,
				"y": -1.389198773,
				"z": 2.9569266278,
				"element": "C" 
			},
			{
				"x": -0.4563743617,
				"y": 0.0139563893,
				"z": -1.6226860085,
				"element": "C" 
			},
			{
				"x": 0.3863941347,
				"y": 0.7411590126,
				"z": -2.708489308,
				"element": "C" 
			},
			{
				"x": -0.5580309677,
				"y": 0.9347041477,
				"z": -3.9002904747,
				"element": "C" 
			},
			{
				"x": -1.9312162707,
				"y": 1.1093661082,
				"z": -3.2588848297,
				"element": "C" 
			},
			{
				"x": -2.8914705391,
				"y": 1.6509665697,
				"z": -3.765417729,
				"element": "O" 
			},
			{
				"x": -2.6782610018,
				"y": -1.4450350013,
				"z": -2.5822362989,
				"element": "H" 
			},
			{
				"x": -3.9411446606,
				"y": -0.2841314189,
				"z": -2.1418613758,
				"element": "H" 
			},
			{
				"x": -3.0408529625,
				"y": -1.149500416,
				"z": -0.8795243942,
				"element": "H" 
			},
			{
				"x": -1.6214261045,
				"y": 2.401094525,
				"z": -0.9237599726,
				"element": "H" 
			},
			{
				"x": -3.3031728976,
				"y": 1.9216635274,
				"z": -0.9933152782,
				"element": "H" 
			},
			{
				"x": -3.1187125664,
				"y": 0.5410533352,
				"z": 0.9467372268,
				"element": "H" 
			},
			{
				"x": -2.0608085304,
				"y": 1.8852529479,
				"z": 1.2889819099,
				"element": "H" 
			},
			{
				"x": -1.4105071315,
				"y": -0.9886879208,
				"z": 0.6281209775,
				"element": "H" 
			},
			{
				"x": 0.4053090395,
				"y": 1.2901831845,
				"z": -0.1190076451,
				"element": "H" 
			},
			{
				"x": 1.3730069984,
				"y": -1.4595240165,
				"z": -0.7193123462,
				"element": "H" 
			},
			{
				"x": 2.2582491166,
				"y": -0.0340285139,
				"z": -0.2400958792,
				"element": "H" 
			},
			{
				"x": 0.9986196348,
				"y": -2.1878920025,
				"z": 1.4762063833,
				"element": "H" 
			},
			{
				"x": 2.5921211076,
				"y": -1.4753245815,
				"z": 1.5974155459,
				"element": "H" 
			},
			{
				"x": 1.1945449191,
				"y": -0.7686144709,
				"z": 3.4839190099,
				"element": "H" 
			},
			{
				"x": 1.8263894086,
				"y": 1.4920960857,
				"z": 1.5167176549,
				"element": "H" 
			},
			{
				"x": 2.875389812,
				"y": 0.7992694475,
				"z": 2.7388909887,
				"element": "H" 
			},
			{
				"x": 1.4054178209,
				"y": 1.6855796376,
				"z": 4.5154502617,
				"element": "H" 
			},
			{
				"x": 1.7863719704,
				"y": 3.9114771469,
				"z": 3.9198430975,
				"element": "H" 
			},
			{
				"x": -0.255600541,
				"y": 2.7772930937,
				"z": 2.2011303482,
				"element": "H" 
			},
			{
				"x": -0.560829098,
				"y": 3.0872551862,
				"z": 3.9101420415,
				"element": "H" 
			},
			{
				"x": -0.8376642505,
				"y": 0.6764698598,
				"z": 4.3611042414,
				"element": "H" 
			},
			{
				"x": -2.0446279989,
				"y": 1.2312944079,
				"z": 3.235211071,
				"element": "H" 
			},
			{
				"x": -0.9545478891,
				"y": -1.5509570579,
				"z": 4.0075206651,
				"element": "H" 
			},
			{
				"x": -0.943142835,
				"y": -2.2897392342,
				"z": 2.4003321273,
				"element": "H" 
			},
			{
				"x": -2.3113120863,
				"y": -1.2954256009,
				"z": 2.902175034,
				"element": "H" 
			},
			{
				"x": -0.4166646818,
				"y": -1.0653505543,
				"z": -1.8266567346,
				"element": "H" 
			},
			{
				"x": 1.2968917495,
				"y": 0.1917078305,
				"z": -2.9638956988,
				"element": "H" 
			},
			{
				"x": 0.701528198,
				"y": 1.7220098938,
				"z": -2.3298947492,
				"element": "H" 
			},
			{
				"x": -0.6028620208,
				"y": 0.0274199662,
				"z": -4.5203431443,
				"element": "H" 
			},
			{
				"x": -0.3173789647,
				"y": 1.768628286,
				"z": -4.564345123,
				"element": "H" 
			}
		],
		 "valence_orbital": [ 
			{
				"type": "occ",
				"energy": -0.2846,
				"method": "rhf"
			},
			{
				"type": "occ",
				"energy": -0.28092,
				"method": "rhf"
			},
			{
				"type": "occ",
				"energy": -0.27436,
				"method": "rhf"
			},
			{
				"type": "occ",
				"energy": -0.26015,
				"method": "rhf"
			},
			{
				"type": "occ",
				"energy": -0.23007,
				"method": "rhf"
			},
			{
				"type": "unocc",
				"energy": -0.01268,
				"method": "rhf"
			},
			{
				"type": "unocc",
				"energy": 0.06484,
				"method": "rhf"
			},
			{
				"type": "unocc",
				"energy": 0.07125,
				"method": "rhf"
			},
			{
				"type": "unocc",
				"energy": 0.07779,
				"method": "rhf"
			},
			{
				"type": "unocc",
				"energy": 0.08938,
				"method": "rhf"
			}
		],
		"cosmo_sigma_profile": { 
			"-0.025": 0.0,
			"-0.024": 0.0,
			"-0.023": 0.0,
			"-0.022": 0.0,
			"-0.021": 0.0,
			"-0.02": 0.0,
			"-0.019": 0.0,
			"-0.018": 0.0,
			"-0.017": 0.0,
			"-0.016": 0.0,
			"-0.015": 0.289989222603,
			"-0.014": 1.0084064636,
			"-0.013": 1.14872254331,
			"-0.012": 0.646441277057,
			"-0.011": 0.801494091936,
			"-0.01": 1.09423635826,
			"-0.009": 0.647815521785,
			"-0.008": 1.16574129317,
			"-0.007": 1.01269786337,
			"-0.006": 2.44231000339,
			"-0.005": 6.94416561432,
			"-0.004": 10.5391181046,
			"-0.003": 25.4574050055,
			"-0.002": 70.4138144908,
			"-0.001": 65.5074814933,
			"0.0": 49.277260032,
			"0.001": 36.0165181625,
			"0.002": 14.3561044419,
			"0.003": 3.85888955165,
			"0.004": 3.28037584498,
			"0.005": 3.64393065684,
			"0.006": 3.16073529043,
			"0.007": 3.25007327203,
			"0.008": 2.82601200614,
			"0.009": 2.89649707661,
			"0.01": 2.77090389454,
			"0.011": 4.52248341456,
			"0.012": 5.56370383172,
			"0.013": 4.71470675622,
			"0.014": 2.07624629393,
			"0.015": 1.74450847704,
			"0.016": 0.0,
			"0.017": 0.0,
			"0.018": 0.0,
			"0.019": 0.0,
			"0.02": 0.0,
			"0.021": 0.0,
			"0.022": 0.0,
			"0.023": 0.0,
			"0.024": 0.0,
			"0.025": 0.0
		}
	}
}
