{
	 "smiles": "COC1=C(C=CC(N)=C1)S(=O)(=O)NC1=C(Cl)C=C(Cl)C=C1", 
	 "Tm": 473.15, 
	 "num_atms": 33, 
	 "gaussian": { 
		 "optdone": 1, 
		 "sigma_profile": "yes", 
		 "theory": "DFT", 
		 "functional": "B3LYP", 
		 "basiset": "6-31G**", 
		 "properties": { 
			 "R2extent": 8517.6925, 
			 "electric_dipole_moment_norm": 7.72445359168, 
			 "electric_quadrupole_moment_norm": 24.8833153308, 
			 "total_energy": -2156.28626772, 
			 "HOMO_LUMO_gap": 0.19276, 
			 "cosmo_polarized_energy": -21.1, 
			 "cosmo_cavitation_energy": 42.08, 
			 "cosmo_dispersion_energy": -29.36, 
			 "cosmo_repulsion_energy": 2.22, 
			 "cosmo_total_nonelectrostatic_energy": 14.94, 
			 "SMD_solvation_energy": 6.25 
		},
		"coords": [
			{
				"x": -1.522371421,
				"y": -2.9817363815,
				"z": -1.1875940322,
				"element": "C" 
			},
			{
				"x": -1.5251519629,
				"y": -1.7836944946,
				"z": -0.4196032885,
				"element": "O" 
			},
			{
				"x": -0.4631511039,
				"y": -1.5092972016,
				"z": 0.3789105318,
				"element": "C" 
			},
			{
				"x": -0.5411575684,
				"y": -0.3240698683,
				"z": 1.1439403182,
				"element": "C" 
			},
			{
				"x": 0.5260640592,
				"y": 0.0347339932,
				"z": 1.9703413165,
				"element": "C" 
			},
			{
				"x": 1.6607585442,
				"y": -0.7583223578,
				"z": 2.0571331315,
				"element": "C" 
			},
			{
				"x": 1.7459930368,
				"y": -1.9436680252,
				"z": 1.303517331,
				"element": "C" 
			},
			{
				"x": 2.888419422,
				"y": -2.7209398064,
				"z": 1.3424224375,
				"element": "N" 
			},
			{
				"x": 0.6755671345,
				"y": -2.3082971092,
				"z": 0.4625876612,
				"element": "C" 
			},
			{
				"x": -2.0045600541,
				"y": 0.6901267429,
				"z": 1.139906637,
				"element": "S" 
			},
			{
				"x": -3.184262137,
				"y": -0.1074156032,
				"z": 1.4620967221,
				"element": "O" 
			},
			{
				"x": -1.6821033723,
				"y": 1.9037158831,
				"z": 1.8950493878,
				"element": "O" 
			},
			{
				"x": -2.2673354462,
				"y": 1.1484316309,
				"z": -0.482335737,
				"element": "N" 
			},
			{
				"x": -1.3483315516,
				"y": 1.8646239712,
				"z": -1.2695481411,
				"element": "C" 
			},
			{
				"x": -1.2020058342,
				"y": 1.5751346052,
				"z": -2.6398129628,
				"element": "C" 
			},
			{
				"x": -2.1440235046,
				"y": 0.2780080629,
				"z": -3.3732607132,
				"element": "Cl" 
			},
			{
				"x": -0.3397646602,
				"y": 2.2981742887,
				"z": -3.4602925346,
				"element": "C" 
			},
			{
				"x": 0.4122022861,
				"y": 3.3285248955,
				"z": -2.9039391109,
				"element": "C" 
			},
			{
				"x": 1.513251139,
				"y": 4.2384843057,
				"z": -3.925470354,
				"element": "Cl" 
			},
			{
				"x": 0.2911719132,
				"y": 3.645562493,
				"z": -1.5520078217,
				"element": "C" 
			},
			{
				"x": -0.5897036158,
				"y": 2.927999846,
				"z": -0.7501104668,
				"element": "C" 
			},
			{
				"x": -2.4734426019,
				"y": -2.9942809562,
				"z": -1.7197942536,
				"element": "H" 
			},
			{
				"x": -1.4545337985,
				"y": -3.8650626609,
				"z": -0.5421267207,
				"element": "H" 
			},
			{
				"x": -0.7002923699,
				"y": -2.9894244671,
				"z": -1.9127067815,
				"element": "H" 
			},
			{
				"x": 0.4441615938,
				"y": 0.9464129501,
				"z": 2.5511629675,
				"element": "H" 
			},
			{
				"x": 2.4830951469,
				"y": -0.4665398297,
				"z": 2.7032682494,
				"element": "H" 
			},
			{
				"x": 2.8039280578,
				"y": -3.6820325937,
				"z": 1.046934265,
				"element": "H" 
			},
			{
				"x": 3.4990188261,
				"y": -2.5926991331,
				"z": 2.1355300479,
				"element": "H" 
			},
			{
				"x": 0.7542832122,
				"y": -3.2144878218,
				"z": -0.1263912409,
				"element": "H" 
			},
			{
				"x": -2.7434586008,
				"y": 0.3918098268,
				"z": -0.9641415434,
				"element": "H" 
			},
			{
				"x": -0.257054769,
				"y": 2.0526132517,
				"z": -4.5117731977,
				"element": "H" 
			},
			{
				"x": 0.8699846732,
				"y": 4.4592147606,
				"z": -1.129958042,
				"element": "H" 
			},
			{
				"x": -0.7088946727,
				"y": 3.1870968028,
				"z": 0.2943659385,
				"element": "H" 
			}
		],
		 "valence_orbital": [ 
			{
				"type": "occ",
				"energy": -0.29617,
				"method": "rhf"
			},
			{
				"type": "occ",
				"energy": -0.26238,
				"method": "rhf"
			},
			{
				"type": "occ",
				"energy": -0.25083,
				"method": "rhf"
			},
			{
				"type": "occ",
				"energy": -0.23072,
				"method": "rhf"
			},
			{
				"type": "occ",
				"energy": -0.22085,
				"method": "rhf"
			},
			{
				"type": "unocc",
				"energy": -0.02809,
				"method": "rhf"
			},
			{
				"type": "unocc",
				"energy": -0.0226,
				"method": "rhf"
			},
			{
				"type": "unocc",
				"energy": -0.0161,
				"method": "rhf"
			},
			{
				"type": "unocc",
				"energy": -0.00741,
				"method": "rhf"
			},
			{
				"type": "unocc",
				"energy": 0.00315,
				"method": "rhf"
			}
		],
		"cosmo_sigma_profile": { 
			"-0.025": 0.0,
			"-0.024": 0.0,
			"-0.023": 0.0,
			"-0.022": 0.0,
			"-0.021": 0.0,
			"-0.02": 0.0,
			"-0.019": 0.0,
			"-0.018": 0.0,
			"-0.017": 0.0,
			"-0.016": 0.0,
			"-0.015": 0.0,
			"-0.014": 0.521710568258,
			"-0.013": 2.85829660297,
			"-0.012": 3.08695327718,
			"-0.011": 3.24136640845,
			"-0.01": 3.77636909435,
			"-0.009": 4.57445397496,
			"-0.008": 6.68415375456,
			"-0.007": 9.34044685485,
			"-0.006": 18.2009845723,
			"-0.005": 17.9598549077,
			"-0.004": 17.5285485421,
			"-0.003": 17.7233939794,
			"-0.002": 16.689917172,
			"-0.001": 21.7202647923,
			"0.0": 27.3360986347,
			"0.001": 34.6907715971,
			"0.002": 33.2175991465,
			"0.003": 27.6951042241,
			"0.004": 25.2724106566,
			"0.005": 9.98798839158,
			"0.006": 5.08779657806,
			"0.007": 4.67521173276,
			"0.008": 4.578050343,
			"0.009": 4.26776968951,
			"0.01": 8.27345393634,
			"0.011": 10.5154924579,
			"0.012": 1.89364555941,
			"0.013": 0.0,
			"0.014": 0.0,
			"0.015": 0.0,
			"0.016": 0.0,
			"0.017": 0.0,
			"0.018": 0.0,
			"0.019": 0.0,
			"0.02": 0.0,
			"0.021": 0.0,
			"0.022": 0.0,
			"0.023": 0.0,
			"0.024": 0.0,
			"0.025": 0.0
		}
	}
}
