{
	 "smiles": "CC1=CC(=NO1)N1C(=O)NC=C1C", 
	 "Tm": 408.15, 
	 "num_atms": 22, 
	 "gaussian": { 
		 "optdone": 1, 
		 "sigma_profile": "yes", 
		 "theory": "DFT", 
		 "functional": "B3LYP", 
		 "basiset": "6-31G**", 
		 "properties": { 
			 "R2extent": 3894.5269, 
			 "electric_dipole_moment_norm": 1.56936864694, 
			 "electric_quadrupole_moment_norm": 19.1329388088, 
			 "total_energy": -624.946398118, 
			 "HOMO_LUMO_gap": 0.18968, 
			 "cosmo_polarized_energy": -13.52, 
			 "cosmo_cavitation_energy": 26.17, 
			 "cosmo_dispersion_energy": -19.7, 
			 "cosmo_repulsion_energy": 1.56, 
			 "cosmo_total_nonelectrostatic_energy": 8.03, 
			 "SMD_solvation_energy": 6.17 
		},
		"coords": [
			{
				"x": -1.5641749789,
				"y": 3.4002899842,
				"z": -0.8947608482,
				"element": "C" 
			},
			{
				"x": -0.6389977533,
				"y": 2.4284240588,
				"z": -0.2489578009,
				"element": "C" 
			},
			{
				"x": 0.2892350569,
				"y": 2.5398674721,
				"z": 0.7400330268,
				"element": "C" 
			},
			{
				"x": 0.8065197967,
				"y": 1.213012178,
				"z": 0.8551746401,
				"element": "C" 
			},
			{
				"x": 0.2378227441,
				"y": 0.3763172602,
				"z": 0.0080813119,
				"element": "N" 
			},
			{
				"x": -0.6856158074,
				"y": 1.1537735188,
				"z": -0.6969772581,
				"element": "O" 
			},
			{
				"x": 1.7975607941,
				"y": 0.7741582785,
				"z": 1.735998236,
				"element": "N" 
			},
			{
				"x": 2.4278329403,
				"y": 1.6451762652,
				"z": 2.6568934543,
				"element": "C" 
			},
			{
				"x": 2.2295217351,
				"y": 2.840482819,
				"z": 2.8280794618,
				"element": "O" 
			},
			{
				"x": 3.3203230727,
				"y": 0.8316153821,
				"z": 3.3187379348,
				"element": "N" 
			},
			{
				"x": 3.2577815436,
				"y": -0.4785542384,
				"z": 2.8434096634,
				"element": "C" 
			},
			{
				"x": 2.3263394325,
				"y": -0.5390795523,
				"z": 1.8673120595,
				"element": "C" 
			},
			{
				"x": 1.9036860897,
				"y": -1.7219353079,
				"z": 1.0618737235,
				"element": "C" 
			},
			{
				"x": -1.3695191918,
				"y": 3.4695292986,
				"z": -1.9701719216,
				"element": "H" 
			},
			{
				"x": -1.4361255426,
				"y": 4.3898931761,
				"z": -0.4523729316,
				"element": "H" 
			},
			{
				"x": -2.6069356988,
				"y": 3.0914980891,
				"z": -0.7663414954,
				"element": "H" 
			},
			{
				"x": 0.5844059571,
				"y": 3.4006029396,
				"z": 1.3135658526,
				"element": "H" 
			},
			{
				"x": 3.9174921398,
				"y": 1.1903687735,
				"z": 4.0448313074,
				"element": "H" 
			},
			{
				"x": 3.8813988969,
				"y": -1.2647356778,
				"z": 3.2375663622,
				"element": "H" 
			},
			{
				"x": 0.8400364621,
				"y": -1.9428863939,
				"z": 1.1864111914,
				"element": "H" 
			},
			{
				"x": 2.4849980834,
				"y": -2.5895741835,
				"z": 1.3864830078,
				"element": "H" 
			},
			{
				"x": 2.0670142277,
				"y": -1.56774414,
				"z": -0.0082689778,
				"element": "H" 
			}
		],
		 "valence_orbital": [ 
			{
				"type": "occ",
				"energy": -0.29903,
				"method": "rhf"
			},
			{
				"type": "occ",
				"energy": -0.26697,
				"method": "rhf"
			},
			{
				"type": "occ",
				"energy": -0.26425,
				"method": "rhf"
			},
			{
				"type": "occ",
				"energy": -0.25029,
				"method": "rhf"
			},
			{
				"type": "occ",
				"energy": -0.1991,
				"method": "rhf"
			},
			{
				"type": "unocc",
				"energy": -0.00942,
				"method": "rhf"
			},
			{
				"type": "unocc",
				"energy": 0.03471,
				"method": "rhf"
			},
			{
				"type": "unocc",
				"energy": 0.05295,
				"method": "rhf"
			},
			{
				"type": "unocc",
				"energy": 0.07703,
				"method": "rhf"
			},
			{
				"type": "unocc",
				"energy": 0.09476,
				"method": "rhf"
			}
		],
		"cosmo_sigma_profile": { 
			"-0.025": 0.0,
			"-0.024": 0.0,
			"-0.023": 0.0,
			"-0.022": 0.0,
			"-0.021": 0.0,
			"-0.02": 0.0,
			"-0.019": 0.0,
			"-0.018": 0.0,
			"-0.017": 0.109483879923,
			"-0.016": 1.44270855325,
			"-0.015": 1.36051046085,
			"-0.014": 0.806172907714,
			"-0.013": 0.844818611883,
			"-0.012": 1.43159981917,
			"-0.011": 0.77198903994,
			"-0.01": 1.37358549231,
			"-0.009": 2.78549491076,
			"-0.008": 3.01037470778,
			"-0.007": 2.94462161328,
			"-0.006": 10.8205725971,
			"-0.005": 11.2291382694,
			"-0.004": 13.8247966848,
			"-0.003": 13.850948767,
			"-0.002": 17.4228031823,
			"-0.001": 20.6281698341,
			"0.0": 19.3490729846,
			"0.001": 16.2125850187,
			"0.002": 12.8149687311,
			"0.003": 10.5430859048,
			"0.004": 6.2620469324,
			"0.005": 4.58099319431,
			"0.006": 4.14612600069,
			"0.007": 4.66808564551,
			"0.008": 5.92364635993,
			"0.009": 4.60757559202,
			"0.01": 2.79665312988,
			"0.011": 2.98094478908,
			"0.012": 2.64438771177,
			"0.013": 3.54351572548,
			"0.014": 2.82728846997,
			"0.015": 0.274632976197,
			"0.016": 0.0,
			"0.017": 0.0,
			"0.018": 0.0,
			"0.019": 0.0,
			"0.02": 0.0,
			"0.021": 0.0,
			"0.022": 0.0,
			"0.023": 0.0,
			"0.024": 0.0,
			"0.025": 0.0
		}
	}
}
