{
	 "smiles": "CCOC1=C(OC(F)F)C=CC(C=O)=C1", 
	 "Tm": 304.15, 
	 "num_atms": 25, 
	 "gaussian": { 
		 "optdone": 1, 
		 "sigma_profile": "yes", 
		 "theory": "DFT", 
		 "functional": "B3LYP", 
		 "basiset": "6-31G**", 
		 "properties": { 
			 "R2extent": 3725.2971, 
			 "electric_dipole_moment_norm": 3.88695041517, 
			 "electric_quadrupole_moment_norm": 13.4050869147, 
			 "total_energy": -812.416685272, 
			 "HOMO_LUMO_gap": 0.16965, 
			 "cosmo_polarized_energy": -11.57, 
			 "cosmo_cavitation_energy": 30.39, 
			 "cosmo_dispersion_energy": -21.08, 
			 "cosmo_repulsion_energy": 1.64, 
			 "cosmo_total_nonelectrostatic_energy": 10.94, 
			 "SMD_solvation_energy": 7.95 
		},
		"coords": [
			{
				"x": -0.2761210106,
				"y": 2.3848912409,
				"z": -1.9767084134,
				"element": "C" 
			},
			{
				"x": 1.0337505839,
				"y": 1.6154977883,
				"z": -1.8498530661,
				"element": "C" 
			},
			{
				"x": 1.3367871699,
				"y": 1.2735181082,
				"z": -0.4919806126,
				"element": "O" 
			},
			{
				"x": 0.7054595529,
				"y": 0.2293274488,
				"z": 0.0989627898,
				"element": "C" 
			},
			{
				"x": 0.9675492991,
				"y": 0.0449132389,
				"z": 1.4730220632,
				"element": "C" 
			},
			{
				"x": 1.8721114837,
				"y": 0.90633264,
				"z": 2.0903645502,
				"element": "O" 
			},
			{
				"x": 1.3511054626,
				"y": 1.953558153,
				"z": 2.803101245,
				"element": "C" 
			},
			{
				"x": 0.4813656196,
				"y": 2.6837528734,
				"z": 2.0599479748,
				"element": "F" 
			},
			{
				"x": 0.6541029029,
				"y": 1.5138757033,
				"z": 3.8893021387,
				"element": "F" 
			},
			{
				"x": 0.4039788315,
				"y": -1.0066074845,
				"z": 2.1898821894,
				"element": "C" 
			},
			{
				"x": -0.4426827602,
				"y": -1.9078569516,
				"z": 1.5518966868,
				"element": "C" 
			},
			{
				"x": -0.7166005921,
				"y": -1.741167415,
				"z": 0.1901688179,
				"element": "C" 
			},
			{
				"x": -1.6158633706,
				"y": -2.6861397145,
				"z": -0.5106782848,
				"element": "C" 
			},
			{
				"x": -2.1600670766,
				"y": -3.6400663185,
				"z": 0.0111170047,
				"element": "O" 
			},
			{
				"x": -0.146982728,
				"y": -0.6814086755,
				"z": -0.5317879536,
				"element": "C" 
			},
			{
				"x": -1.1361759432,
				"y": 1.7780851371,
				"z": -1.6807775552,
				"element": "H" 
			},
			{
				"x": -0.2520605562,
				"y": 3.2737566153,
				"z": -1.3404942685,
				"element": "H" 
			},
			{
				"x": -0.4234362273,
				"y": 2.7028700432,
				"z": -3.0140903001,
				"element": "H" 
			},
			{
				"x": 1.0443251922,
				"y": 0.7178222923,
				"z": -2.4810494448,
				"element": "H" 
			},
			{
				"x": 1.8752724284,
				"y": 2.24067618,
				"z": -2.1591110482,
				"element": "H" 
			},
			{
				"x": 2.1829104263,
				"y": 2.5805127211,
				"z": 3.1314031424,
				"element": "H" 
			},
			{
				"x": 0.6451305147,
				"y": -1.1005157367,
				"z": 3.2424660174,
				"element": "H" 
			},
			{
				"x": -0.8981512849,
				"y": -2.7360159836,
				"z": 2.0833151687,
				"element": "H" 
			},
			{
				"x": -1.7708551253,
				"y": -2.4619215634,
				"z": -1.5906213415,
				"element": "H" 
			},
			{
				"x": -0.3835527929,
				"y": -0.5802903406,
				"z": -1.5856975001,
				"element": "H" 
			}
		],
		 "valence_orbital": [ 
			{
				"type": "occ",
				"energy": -0.33012,
				"method": "rhf"
			},
			{
				"type": "occ",
				"energy": -0.32435,
				"method": "rhf"
			},
			{
				"type": "occ",
				"energy": -0.2669,
				"method": "rhf"
			},
			{
				"type": "occ",
				"energy": -0.25681,
				"method": "rhf"
			},
			{
				"type": "occ",
				"energy": -0.23415,
				"method": "rhf"
			},
			{
				"type": "unocc",
				"energy": -0.0645,
				"method": "rhf"
			},
			{
				"type": "unocc",
				"energy": -0.01029,
				"method": "rhf"
			},
			{
				"type": "unocc",
				"energy": 0.04032,
				"method": "rhf"
			},
			{
				"type": "unocc",
				"energy": 0.07445,
				"method": "rhf"
			},
			{
				"type": "unocc",
				"energy": 0.09266,
				"method": "rhf"
			}
		],
		"cosmo_sigma_profile": { 
			"-0.025": 0.0,
			"-0.024": 0.0,
			"-0.023": 0.0,
			"-0.022": 0.0,
			"-0.021": 0.0,
			"-0.02": 0.0,
			"-0.019": 0.0,
			"-0.018": 0.0,
			"-0.017": 0.0,
			"-0.016": 0.0,
			"-0.015": 0.0,
			"-0.014": 0.0,
			"-0.013": 0.0,
			"-0.012": 0.0,
			"-0.011": 1.427823915,
			"-0.01": 2.46076686543,
			"-0.009": 3.05511557721,
			"-0.008": 5.13951714123,
			"-0.007": 6.98076031142,
			"-0.006": 12.1160706681,
			"-0.005": 14.1142605897,
			"-0.004": 18.1119875137,
			"-0.003": 18.0275661776,
			"-0.002": 15.7824035301,
			"-0.001": 14.8132632534,
			"0.0": 17.7084255122,
			"0.001": 20.2447095409,
			"0.002": 21.0580531348,
			"0.003": 18.6429928384,
			"0.004": 18.8815205403,
			"0.005": 5.09555467141,
			"0.006": 3.6894552881,
			"0.007": 4.13725265926,
			"0.008": 5.32775659721,
			"0.009": 3.47101860014,
			"0.01": 3.72622153372,
			"0.011": 4.87225862815,
			"0.012": 2.62370508177,
			"0.013": 0.595798749538,
			"0.014": 0.0,
			"0.015": 0.0,
			"0.016": 0.0,
			"0.017": 0.0,
			"0.018": 0.0,
			"0.019": 0.0,
			"0.02": 0.0,
			"0.021": 0.0,
			"0.022": 0.0,
			"0.023": 0.0,
			"0.024": 0.0,
			"0.025": 0.0
		}
	}
}
