{
	 "smiles": "CN(CC1=NC2=C(N=C1)N=C(N)N=C2N)C1=CC=C(C=C1)C(=O)N[C@@H](CCC(O)=O)C(O)=O", 
	 "Tm": 469.15, 
	 "num_atms": 55, 
	 "gaussian": { 
		 "optdone": 1, 
		 "sigma_profile": "yes", 
		 "theory": "DFT", 
		 "functional": "B3LYP", 
		 "basiset": "6-31G**", 
		 "properties": { 
			 "R2extent": 17456.0467, 
			 "electric_dipole_moment_norm": 8.7081045429, 
			 "electric_quadrupole_moment_norm": 31.9398443201, 
			 "total_energy": -1589.61483411, 
			 "HOMO_LUMO_gap": 0.12019, 
			 "cosmo_polarized_energy": -34.79, 
			 "cosmo_cavitation_energy": 58.19, 
			 "cosmo_dispersion_energy": -38.49, 
			 "cosmo_repulsion_energy": 2.84, 
			 "cosmo_total_nonelectrostatic_energy": 22.54, 
			 "SMD_solvation_energy": 5.88 
		},
		"coords": [
			{
				"x": 2.5080487011,
				"y": 0.3085677388,
				"z": -4.0734331684,
				"element": "C" 
			},
			{
				"x": 2.8544022912,
				"y": 0.5894734804,
				"z": -2.6863939654,
				"element": "N" 
			},
			{
				"x": 3.550647548,
				"y": -0.5251855222,
				"z": -2.0100019072,
				"element": "C" 
			},
			{
				"x": 2.6479823815,
				"y": -1.7003969294,
				"z": -1.6701879254,
				"element": "C" 
			},
			{
				"x": 2.6033114898,
				"y": -2.726892541,
				"z": -2.5160382318,
				"element": "N" 
			},
			{
				"x": 1.7497649892,
				"y": -3.7247561883,
				"z": -2.2293468756,
				"element": "C" 
			},
			{
				"x": 0.8957053558,
				"y": -3.7250805705,
				"z": -1.0948424896,
				"element": "C" 
			},
			{
				"x": 0.9558536096,
				"y": -2.6646117611,
				"z": -0.2380154023,
				"element": "N" 
			},
			{
				"x": 1.8109829777,
				"y": -1.6950870479,
				"z": -0.5180431653,
				"element": "C" 
			},
			{
				"x": 0.0332322259,
				"y": -4.722409689,
				"z": -0.8298423262,
				"element": "N" 
			},
			{
				"x": 0.0375267582,
				"y": -5.7256347869,
				"z": -1.7117072309,
				"element": "C" 
			},
			{
				"x": -0.8067320588,
				"y": -6.7573754895,
				"z": -1.4704731825,
				"element": "N" 
			},
			{
				"x": 0.7997883292,
				"y": -5.8594874558,
				"z": -2.8368616017,
				"element": "N" 
			},
			{
				"x": 1.6462280091,
				"y": -4.8785928819,
				"z": -3.0990021883,
				"element": "C" 
			},
			{
				"x": 2.4306644616,
				"y": -4.9364589988,
				"z": -4.1916503396,
				"element": "N" 
			},
			{
				"x": 1.8924820516,
				"y": 1.2629238282,
				"z": -1.8982948319,
				"element": "C" 
			},
			{
				"x": 0.5632622439,
				"y": 1.4586542447,
				"z": -2.3148472254,
				"element": "C" 
			},
			{
				"x": -0.3815192595,
				"y": 1.9898302024,
				"z": -1.437649747,
				"element": "C" 
			},
			{
				"x": -0.0386593675,
				"y": 2.3195521576,
				"z": -0.1244469575,
				"element": "C" 
			},
			{
				"x": 1.311242092,
				"y": 2.2386711009,
				"z": 0.2533524068,
				"element": "C" 
			},
			{
				"x": 2.2626103411,
				"y": 1.7415482883,
				"z": -0.6239751824,
				"element": "C" 
			},
			{
				"x": -1.1379511866,
				"y": 2.6075347687,
				"z": 0.8515595684,
				"element": "C" 
			},
			{
				"x": -2.2127635385,
				"y": 3.1096298841,
				"z": 0.5302420691,
				"element": "O" 
			},
			{
				"x": -0.8630941363,
				"y": 2.1682822788,
				"z": 2.1230551773,
				"element": "N" 
			},
			{
				"x": -1.887601471,
				"y": 2.0910252597,
				"z": 3.1362728816,
				"element": "C" 
			},
			{
				"x": -1.8340710764,
				"y": 0.7337345578,
				"z": 3.8807174905,
				"element": "C" 
			},
			{
				"x": -2.0406966032,
				"y": -0.497032006,
				"z": 2.9862796591,
				"element": "C" 
			},
			{
				"x": -0.8095625147,
				"y": -0.998950303,
				"z": 2.2402894446,
				"element": "C" 
			},
			{
				"x": -1.0799496551,
				"y": -2.0962151191,
				"z": 1.5484616335,
				"element": "O" 
			},
			{
				"x": 0.2943695873,
				"y": -0.4659707123,
				"z": 2.2743046858,
				"element": "O" 
			},
			{
				"x": -1.7596987825,
				"y": 3.2343034468,
				"z": 4.1470506001,
				"element": "C" 
			},
			{
				"x": -2.8849827648,
				"y": 3.333845106,
				"z": 4.9006920946,
				"element": "O" 
			},
			{
				"x": -0.8012972241,
				"y": 3.9527383545,
				"z": 4.302102617,
				"element": "O" 
			},
			{
				"x": 1.7152082832,
				"y": -0.4463766449,
				"z": -4.1980359199,
				"element": "H" 
			},
			{
				"x": 2.1853599716,
				"y": 1.2320811755,
				"z": -4.5610846162,
				"element": "H" 
			},
			{
				"x": 3.4003377847,
				"y": -0.0543826547,
				"z": -4.5910902024,
				"element": "H" 
			},
			{
				"x": 4.0285723782,
				"y": -0.1479148706,
				"z": -1.1037782429,
				"element": "H" 
			},
			{
				"x": 4.341846599,
				"y": -0.8804004462,
				"z": -2.6755308237,
				"element": "H" 
			},
			{
				"x": 1.8356282156,
				"y": -0.8688758522,
				"z": 0.188176398,
				"element": "H" 
			},
			{
				"x": -0.9017956819,
				"y": -7.4847697612,
				"z": -2.1584437954,
				"element": "H" 
			},
			{
				"x": -1.4574892798,
				"y": -6.6805771364,
				"z": -0.7066489017,
				"element": "H" 
			},
			{
				"x": 3.0707270192,
				"y": -4.1788185491,
				"z": -4.370630517,
				"element": "H" 
			},
			{
				"x": 2.373897522,
				"y": -5.733835352,
				"z": -4.8034771872,
				"element": "H" 
			},
			{
				"x": 0.244256314,
				"y": 1.1435335074,
				"z": -3.3014205082,
				"element": "H" 
			},
			{
				"x": -1.4181905354,
				"y": 2.0932442942,
				"z": -1.7424429119,
				"element": "H" 
			},
			{
				"x": 1.6193836711,
				"y": 2.5700080795,
				"z": 1.2404789143,
				"element": "H" 
			},
			{
				"x": 3.3021103052,
				"y": 1.6986295729,
				"z": -0.3154269288,
				"element": "H" 
			},
			{
				"x": -0.0823248168,
				"y": 1.5323451571,
				"z": 2.2423843106,
				"element": "H" 
			},
			{
				"x": -2.8589862206,
				"y": 2.2084828464,
				"z": 2.6418426198,
				"element": "H" 
			},
			{
				"x": -0.871639542,
				"y": 0.6480502087,
				"z": 4.3988805753,
				"element": "H" 
			},
			{
				"x": -2.6115600525,
				"y": 0.7490709176,
				"z": 4.64947835,
				"element": "H" 
			},
			{
				"x": -2.3992371023,
				"y": -1.3401226272,
				"z": 3.5885067172,
				"element": "H" 
			},
			{
				"x": -2.8258157683,
				"y": -0.3202583051,
				"z": 2.2408823577,
				"element": "H" 
			},
			{
				"x": -0.2865977209,
				"y": -2.3734097811,
				"z": 0.9968893561,
				"element": "H" 
			},
			{
				"x": -2.726817148,
				"y": 4.0608195262,
				"z": 5.5259645727,
				"element": "H" 
			}
		],
		 "valence_orbital": [ 
			{
				"type": "occ",
				"energy": -0.24892,
				"method": "rhf"
			},
			{
				"type": "occ",
				"energy": -0.23955,
				"method": "rhf"
			},
			{
				"type": "occ",
				"energy": -0.23542,
				"method": "rhf"
			},
			{
				"type": "occ",
				"energy": -0.23023,
				"method": "rhf"
			},
			{
				"type": "occ",
				"energy": -0.2033,
				"method": "rhf"
			},
			{
				"type": "unocc",
				"energy": -0.08311,
				"method": "rhf"
			},
			{
				"type": "unocc",
				"energy": -0.03586,
				"method": "rhf"
			},
			{
				"type": "unocc",
				"energy": -0.01609,
				"method": "rhf"
			},
			{
				"type": "unocc",
				"energy": -0.00345,
				"method": "rhf"
			},
			{
				"type": "unocc",
				"energy": 0.0089,
				"method": "rhf"
			}
		],
		"cosmo_sigma_profile": { 
			"-0.025": 0.0,
			"-0.024": 0.0,
			"-0.023": 0.0,
			"-0.022": 0.0,
			"-0.021": 0.0,
			"-0.02": 0.0,
			"-0.019": 0.0,
			"-0.018": 1.08247422474,
			"-0.017": 0.619813465015,
			"-0.016": 0.874716808345,
			"-0.015": 1.71688380619,
			"-0.014": 3.94896759505,
			"-0.013": 4.3217705884,
			"-0.012": 4.35715997955,
			"-0.011": 4.30479995782,
			"-0.01": 4.51728470236,
			"-0.009": 4.80783106035,
			"-0.008": 5.12933258828,
			"-0.007": 10.5964923436,
			"-0.006": 21.2668760067,
			"-0.005": 28.9085896316,
			"-0.004": 33.04596463,
			"-0.003": 36.7875711447,
			"-0.002": 35.7859193626,
			"-0.001": 29.014019038,
			"0.0": 27.9579691052,
			"0.001": 28.0906704243,
			"0.002": 25.3228395197,
			"0.003": 25.9284033351,
			"0.004": 25.5850527702,
			"0.005": 18.7641023981,
			"0.006": 12.5862427862,
			"0.007": 9.67488798166,
			"0.008": 9.5038850732,
			"0.009": 9.01081298645,
			"0.01": 9.52633015193,
			"0.011": 10.1890144847,
			"0.012": 8.59472674356,
			"0.013": 5.2278171699,
			"0.014": 4.62924333285,
			"0.015": 0.296268372542,
			"0.016": 0.0,
			"0.017": 0.0,
			"0.018": 0.0,
			"0.019": 0.0,
			"0.02": 0.0,
			"0.021": 0.0,
			"0.022": 0.0,
			"0.023": 0.0,
			"0.024": 0.0,
			"0.025": 0.0
		}
	}
}
