{
	 "smiles": "CC1=CC=C(C=N1)C(N)=O", 
	 "Tm": 470.15, 
	 "num_atms": 18, 
	 "gaussian": { 
		 "optdone": 1, 
		 "sigma_profile": "yes", 
		 "theory": "DFT", 
		 "functional": "B3LYP", 
		 "basiset": "6-31G**", 
		 "properties": { 
			 "R2extent": 2204.2324, 
			 "electric_dipole_moment_norm": 2.06516252629, 
			 "electric_quadrupole_moment_norm": 17.197424176, 
			 "total_energy": -456.314170874, 
			 "HOMO_LUMO_gap": 0.20543, 
			 "cosmo_polarized_energy": -13.7, 
			 "cosmo_cavitation_energy": 22.27, 
			 "cosmo_dispersion_energy": -16.6, 
			 "cosmo_repulsion_energy": 1.35, 
			 "cosmo_total_nonelectrostatic_energy": 7.02, 
			 "SMD_solvation_energy": 3.41 
		},
		"coords": [
			{
				"x": 2.9742693134,
				"y": -1.6944400942,
				"z": 1.3462624624,
				"element": "C" 
			},
			{
				"x": 1.5950296419,
				"y": -1.6096439078,
				"z": 0.742489716,
				"element": "C" 
			},
			{
				"x": 0.4753200779,
				"y": -2.1346719774,
				"z": 1.4106610284,
				"element": "C" 
			},
			{
				"x": -0.7771274281,
				"y": -2.0275995699,
				"z": 0.8258937431,
				"element": "C" 
			},
			{
				"x": -0.8983574477,
				"y": -1.3897546755,
				"z": -0.4157238896,
				"element": "C" 
			},
			{
				"x": 0.2764037059,
				"y": -0.9210257319,
				"z": -1.0119863585,
				"element": "C" 
			},
			{
				"x": 1.490584761,
				"y": -1.0186835157,
				"z": -0.4585590584,
				"element": "N" 
			},
			{
				"x": -2.263081663,
				"y": -1.2858337909,
				"z": -1.0298097393,
				"element": "C" 
			},
			{
				"x": -2.3979410859,
				"y": -0.4075592014,
				"z": -2.0764974302,
				"element": "N" 
			},
			{
				"x": -3.2002621807,
				"y": -1.9664826156,
				"z": -0.6302474519,
				"element": "O" 
			},
			{
				"x": 3.0120595177,
				"y": -1.1897731658,
				"z": 2.3184249967,
				"element": "H" 
			},
			{
				"x": 3.2687196452,
				"y": -2.7370255851,
				"z": 1.5126172166,
				"element": "H" 
			},
			{
				"x": 3.698495321,
				"y": -1.2272096574,
				"z": 0.6776044212,
				"element": "H" 
			},
			{
				"x": 0.5973946097,
				"y": -2.6189997941,
				"z": 2.3752200852,
				"element": "H" 
			},
			{
				"x": -1.670633217,
				"y": -2.4237021999,
				"z": 1.2973229429,
				"element": "H" 
			},
			{
				"x": 0.2541315123,
				"y": -0.4649919674,
				"z": -2.0010482789,
				"element": "H" 
			},
			{
				"x": -1.7473039798,
				"y": 0.3512410312,
				"z": -2.2044009078,
				"element": "H" 
			},
			{
				"x": -3.3410011039,
				"y": -0.267843581,
				"z": -2.4091234979,
				"element": "H" 
			}
		],
		 "valence_orbital": [ 
			{
				"type": "occ",
				"energy": -0.29028,
				"method": "rhf"
			},
			{
				"type": "occ",
				"energy": -0.27658,
				"method": "rhf"
			},
			{
				"type": "occ",
				"energy": -0.26618,
				"method": "rhf"
			},
			{
				"type": "occ",
				"energy": -0.25934,
				"method": "rhf"
			},
			{
				"type": "occ",
				"energy": -0.24932,
				"method": "rhf"
			},
			{
				"type": "unocc",
				"energy": -0.04389,
				"method": "rhf"
			},
			{
				"type": "unocc",
				"energy": -0.02634,
				"method": "rhf"
			},
			{
				"type": "unocc",
				"energy": 0.05011,
				"method": "rhf"
			},
			{
				"type": "unocc",
				"energy": 0.07615,
				"method": "rhf"
			},
			{
				"type": "unocc",
				"energy": 0.10872,
				"method": "rhf"
			}
		],
		"cosmo_sigma_profile": { 
			"-0.025": 0.0,
			"-0.024": 0.0,
			"-0.023": 0.0,
			"-0.022": 0.0,
			"-0.021": 0.0,
			"-0.02": 0.0,
			"-0.019": 0.0,
			"-0.018": 0.0,
			"-0.017": 0.0,
			"-0.016": 0.0,
			"-0.015": 0.298866391351,
			"-0.014": 2.12859025961,
			"-0.013": 2.32014152772,
			"-0.012": 2.17208076886,
			"-0.011": 2.9459813171,
			"-0.01": 2.61653787091,
			"-0.009": 2.55289456705,
			"-0.008": 2.65399625567,
			"-0.007": 3.46351420671,
			"-0.006": 6.00643530211,
			"-0.005": 9.84443016784,
			"-0.004": 12.8661935244,
			"-0.003": 11.7860910992,
			"-0.002": 10.8433377279,
			"-0.001": 14.9883749908,
			"0.0": 15.4834949281,
			"0.001": 14.9595825972,
			"0.002": 13.538640121,
			"0.003": 5.74720041233,
			"0.004": 5.00011718754,
			"0.005": 4.27593687738,
			"0.006": 2.97382035643,
			"0.007": 3.78936740735,
			"0.008": 2.88245949994,
			"0.009": 2.05033388924,
			"0.01": 2.86025977502,
			"0.011": 2.04932353895,
			"0.012": 3.0891913894,
			"0.013": 5.56387027323,
			"0.014": 4.3631622926,
			"0.015": 0.597608585502,
			"0.016": 0.464333061482,
			"0.017": 0.0,
			"0.018": 0.0,
			"0.019": 0.0,
			"0.02": 0.0,
			"0.021": 0.0,
			"0.022": 0.0,
			"0.023": 0.0,
			"0.024": 0.0,
			"0.025": 0.0
		}
	}
}
