{
	 "smiles": "ClC1=NC2=C(CN1)C=NN2C1=CC=CC=C1", 
	 "Tm": 463.15, 
	 "num_atms": 25, 
	 "gaussian": { 
		 "optdone": 1, 
		 "sigma_profile": "yes", 
		 "theory": "DFT", 
		 "functional": "B3LYP", 
		 "basiset": "6-31G**", 
		 "properties": { 
			 "R2extent": 5269.53, 
			 "electric_dipole_moment_norm": 3.81970949419, 
			 "electric_quadrupole_moment_norm": 17.6651819416, 
			 "total_energy": -1103.76317982, 
			 "HOMO_LUMO_gap": 0.17581, 
			 "cosmo_polarized_energy": -12.63, 
			 "cosmo_cavitation_energy": 30.6, 
			 "cosmo_dispersion_energy": -23.34, 
			 "cosmo_repulsion_energy": 1.81, 
			 "cosmo_total_nonelectrostatic_energy": 9.07, 
			 "SMD_solvation_energy": 2.78 
		},
		"coords": [
			{
				"x": -1.4177414763,
				"y": -1.6822104768,
				"z": 4.4938464306,
				"element": "Cl" 
			},
			{
				"x": -0.4021583316,
				"y": -1.2251803479,
				"z": 3.1307734228,
				"element": "C" 
			},
			{
				"x": -0.9230640373,
				"y": -1.194037528,
				"z": 1.9596570802,
				"element": "N" 
			},
			{
				"x": -0.0154459365,
				"y": -0.8194077482,
				"z": 0.9811592164,
				"element": "C" 
			},
			{
				"x": 1.3183557245,
				"y": -0.5004928434,
				"z": 1.1720172133,
				"element": "C" 
			},
			{
				"x": 1.9316099598,
				"y": -0.536072404,
				"z": 2.5390959666,
				"element": "C" 
			},
			{
				"x": 0.8762529367,
				"y": -0.9445529605,
				"z": 3.4901459533,
				"element": "N" 
			},
			{
				"x": 1.7991991945,
				"y": -0.1926764709,
				"z": -0.112326431,
				"element": "C" 
			},
			{
				"x": 0.8466152143,
				"y": -0.3087401079,
				"z": -1.0329616254,
				"element": "N" 
			},
			{
				"x": -0.2769404023,
				"y": -0.695888887,
				"z": -0.3622087572,
				"element": "N" 
			},
			{
				"x": -1.481544579,
				"y": -0.9034496591,
				"z": -1.1013426425,
				"element": "C" 
			},
			{
				"x": -2.6681297924,
				"y": -1.3033774024,
				"z": -0.4729105029,
				"element": "C" 
			},
			{
				"x": -3.8176669544,
				"y": -1.4926289376,
				"z": -1.2409077519,
				"element": "C" 
			},
			{
				"x": -3.8015686204,
				"y": -1.2898942542,
				"z": -2.6205575789,
				"element": "C" 
			},
			{
				"x": -2.6132876731,
				"y": -0.8913751503,
				"z": -3.2361852113,
				"element": "C" 
			},
			{
				"x": -1.4553181282,
				"y": -0.6970468146,
				"z": -2.4877436431,
				"element": "C" 
			},
			{
				"x": 2.7663290773,
				"y": -1.2502991024,
				"z": 2.6004224905,
				"element": "H" 
			},
			{
				"x": 2.327350725,
				"y": 0.4450398825,
				"z": 2.8414479071,
				"element": "H" 
			},
			{
				"x": 1.1152421607,
				"y": -1.02118348,
				"z": 4.4665153571,
				"element": "H" 
			},
			{
				"x": 2.793808508,
				"y": 0.1085837329,
				"z": -0.4155314848,
				"element": "H" 
			},
			{
				"x": -2.6879224473,
				"y": -1.4624014208,
				"z": 0.5962073355,
				"element": "H" 
			},
			{
				"x": -4.7336725464,
				"y": -1.8027683904,
				"z": -0.7461684328,
				"element": "H" 
			},
			{
				"x": -4.7019149243,
				"y": -1.4400768506,
				"z": -3.20884814,
				"element": "H" 
			},
			{
				"x": -2.582403071,
				"y": -0.7288006931,
				"z": -4.3098094977,
				"element": "H" 
			},
			{
				"x": -0.5297845804,
				"y": -0.3883616853,
				"z": -2.9553866735,
				"element": "H" 
			}
		],
		 "valence_orbital": [ 
			{
				"type": "occ",
				"energy": -0.28607,
				"method": "rhf"
			},
			{
				"type": "occ",
				"energy": -0.2817,
				"method": "rhf"
			},
			{
				"type": "occ",
				"energy": -0.24383,
				"method": "rhf"
			},
			{
				"type": "occ",
				"energy": -0.21672,
				"method": "rhf"
			},
			{
				"type": "occ",
				"energy": -0.2109,
				"method": "rhf"
			},
			{
				"type": "unocc",
				"energy": -0.03509,
				"method": "rhf"
			},
			{
				"type": "unocc",
				"energy": 0.0038,
				"method": "rhf"
			},
			{
				"type": "unocc",
				"energy": 0.00926,
				"method": "rhf"
			},
			{
				"type": "unocc",
				"energy": 0.01326,
				"method": "rhf"
			},
			{
				"type": "unocc",
				"energy": 0.04986,
				"method": "rhf"
			}
		],
		"cosmo_sigma_profile": { 
			"-0.025": 0.0,
			"-0.024": 0.0,
			"-0.023": 0.0,
			"-0.022": 0.0,
			"-0.021": 0.0,
			"-0.02": 0.0,
			"-0.019": 0.0,
			"-0.018": 0.0,
			"-0.017": 0.0418030989806,
			"-0.016": 0.824960068226,
			"-0.015": 1.32715672151,
			"-0.014": 1.08806834855,
			"-0.013": 1.15154244238,
			"-0.012": 0.431795695561,
			"-0.011": 1.16774668333,
			"-0.01": 1.48966698699,
			"-0.009": 0.977602886982,
			"-0.008": 1.74314662063,
			"-0.007": 4.22968086418,
			"-0.006": 13.6831382405,
			"-0.005": 16.4740457004,
			"-0.004": 17.2239160326,
			"-0.003": 15.150093501,
			"-0.002": 15.828067168,
			"-0.001": 15.8882963587,
			"0.0": 14.9299073964,
			"0.001": 19.4319310013,
			"0.002": 21.1135568764,
			"0.003": 25.3238872993,
			"0.004": 20.3038824956,
			"0.005": 16.4173806732,
			"0.006": 8.26090633249,
			"0.007": 4.75400890249,
			"0.008": 3.46363558365,
			"0.009": 1.30177160293,
			"0.01": 1.57175355925,
			"0.011": 1.95279033483,
			"0.012": 1.10519934405,
			"0.013": 0.135496731354,
			"0.014": 0.0,
			"0.015": 0.0,
			"0.016": 0.0,
			"0.017": 0.0,
			"0.018": 0.0,
			"0.019": 0.0,
			"0.02": 0.0,
			"0.021": 0.0,
			"0.022": 0.0,
			"0.023": 0.0,
			"0.024": 0.0,
			"0.025": 0.0
		}
	}
}
