{
	 "smiles": "OC(=O)C1=CC(=C(Cl)C=C1)S(Cl)(=O)=O", 
	 "Tm": 417.15, 
	 "num_atms": 18, 
	 "gaussian": { 
		 "optdone": 1, 
		 "sigma_profile": "yes", 
		 "theory": "DFT", 
		 "functional": "B3LYP", 
		 "basiset": "6-31G**", 
		 "properties": { 
			 "R2extent": 5010.0902, 
			 "electric_dipole_moment_norm": 2.64024165939, 
			 "electric_quadrupole_moment_norm": 20.991658071, 
			 "total_energy": -1888.54697029, 
			 "HOMO_LUMO_gap": 0.18556, 
			 "cosmo_polarized_energy": -17.59, 
			 "cosmo_cavitation_energy": 28.39, 
			 "cosmo_dispersion_energy": -21.32, 
			 "cosmo_repulsion_energy": 1.63, 
			 "cosmo_total_nonelectrostatic_energy": 8.7, 
			 "SMD_solvation_energy": 4.62 
		},
		"coords": [
			{
				"x": -2.4072432474,
				"y": 2.7592415961,
				"z": -1.1961639967,
				"element": "O" 
			},
			{
				"x": -1.8123692599,
				"y": 1.7366097339,
				"z": -1.8548338086,
				"element": "C" 
			},
			{
				"x": -1.6125977958,
				"y": 1.8079974715,
				"z": -3.0434891501,
				"element": "O" 
			},
			{
				"x": -1.4163013257,
				"y": 0.5302388709,
				"z": -1.0485657449,
				"element": "C" 
			},
			{
				"x": -1.2739761291,
				"y": 0.547430468,
				"z": 0.3399085081,
				"element": "C" 
			},
			{
				"x": -0.8800172981,
				"y": -0.6061145013,
				"z": 1.023179535,
				"element": "C" 
			},
			{
				"x": -0.6265704884,
				"y": -1.7967849663,
				"z": 0.3239594367,
				"element": "C" 
			},
			{
				"x": -0.167597249,
				"y": -3.2736040585,
				"z": 1.1123215218,
				"element": "Cl" 
			},
			{
				"x": -0.757880246,
				"y": -1.8044719269,
				"z": -1.0690262641,
				"element": "C" 
			},
			{
				"x": -1.1374947516,
				"y": -0.6527668394,
				"z": -1.7460303744,
				"element": "C" 
			},
			{
				"x": -0.67541077,
				"y": -0.4177263952,
				"z": 2.8048750919,
				"element": "S" 
			},
			{
				"x": -2.3003989095,
				"y": -1.5621431613,
				"z": 3.5356397959,
				"element": "Cl" 
			},
			{
				"x": -0.9779355429,
				"y": 0.9699239431,
				"z": 3.1356338492,
				"element": "O" 
			},
			{
				"x": 0.547902155,
				"y": -1.0623247886,
				"z": 3.2531542334,
				"element": "O" 
			},
			{
				"x": -2.6523196839,
				"y": 2.507141381,
				"z": -0.2952358834,
				"element": "H" 
			},
			{
				"x": -1.4258669889,
				"y": 1.4484434373,
				"z": 0.9247328795,
				"element": "H" 
			},
			{
				"x": -0.5558553415,
				"y": -2.7228028977,
				"z": -1.6086629253,
				"element": "H" 
			},
			{
				"x": -1.2263671275,
				"y": -0.6484873667,
				"z": -2.826896704,
				"element": "H" 
			}
		],
		 "valence_orbital": [ 
			{
				"type": "occ",
				"energy": -0.33845,
				"method": "rhf"
			},
			{
				"type": "occ",
				"energy": -0.32945,
				"method": "rhf"
			},
			{
				"type": "occ",
				"energy": -0.31566,
				"method": "rhf"
			},
			{
				"type": "occ",
				"energy": -0.30195,
				"method": "rhf"
			},
			{
				"type": "occ",
				"energy": -0.29255,
				"method": "rhf"
			},
			{
				"type": "unocc",
				"energy": -0.10699,
				"method": "rhf"
			},
			{
				"type": "unocc",
				"energy": -0.08833,
				"method": "rhf"
			},
			{
				"type": "unocc",
				"energy": -0.06968,
				"method": "rhf"
			},
			{
				"type": "unocc",
				"energy": -0.01141,
				"method": "rhf"
			},
			{
				"type": "unocc",
				"energy": 0.00696,
				"method": "rhf"
			}
		],
		"cosmo_sigma_profile": { 
			"-0.025": 0.0,
			"-0.024": 0.0,
			"-0.023": 0.0,
			"-0.022": 0.0,
			"-0.021": 0.0536543860715,
			"-0.02": 0.72014840853,
			"-0.019": 1.25244442745,
			"-0.018": 0.873345822461,
			"-0.017": 1.09780037794,
			"-0.016": 1.29598479609,
			"-0.015": 1.19129070283,
			"-0.014": 0.787782725587,
			"-0.013": 0.790195037736,
			"-0.012": 1.26040696155,
			"-0.011": 1.05214842893,
			"-0.01": 1.758118697,
			"-0.009": 3.95959410704,
			"-0.008": 6.08691563509,
			"-0.007": 6.44812676929,
			"-0.006": 6.59530236609,
			"-0.005": 8.95657306923,
			"-0.004": 11.4178273673,
			"-0.003": 17.9856365434,
			"-0.002": 19.7281654375,
			"-0.001": 17.6542389836,
			"0.0": 12.3834974002,
			"0.001": 14.9216936337,
			"0.002": 20.4446639733,
			"0.003": 16.3255978712,
			"0.004": 6.49254313133,
			"0.005": 5.94815090197,
			"0.006": 6.21595051011,
			"0.007": 11.2585777759,
			"0.008": 11.6243788779,
			"0.009": 5.30223017403,
			"0.01": 4.9506496953,
			"0.011": 4.78576529658,
			"0.012": 1.96152242499,
			"0.013": 0.194991289819,
			"0.014": 0.0,
			"0.015": 0.0,
			"0.016": 0.0,
			"0.017": 0.0,
			"0.018": 0.0,
			"0.019": 0.0,
			"0.02": 0.0,
			"0.021": 0.0,
			"0.022": 0.0,
			"0.023": 0.0,
			"0.024": 0.0,
			"0.025": 0.0
		}
	}
}
