{
	 "smiles": "CC(C)(C)C(=O)NC1=C(C=NC=C1)C(O)=O", 
	 "Tm": 525.15, 
	 "num_atms": 30, 
	 "gaussian": { 
		 "optdone": 1, 
		 "sigma_profile": "yes", 
		 "theory": "DFT", 
		 "functional": "B3LYP", 
		 "basiset": "6-31G**", 
		 "properties": { 
			 "R2extent": 4315.4017, 
			 "electric_dipole_moment_norm": 0.769509181232, 
			 "electric_quadrupole_moment_norm": 10.5021036497, 
			 "total_energy": -762.824910949, 
			 "HOMO_LUMO_gap": 0.18489, 
			 "cosmo_polarized_energy": -15.3, 
			 "cosmo_cavitation_energy": 32.89, 
			 "cosmo_dispersion_energy": -23.29, 
			 "cosmo_repulsion_energy": 1.78, 
			 "cosmo_total_nonelectrostatic_energy": 11.38, 
			 "SMD_solvation_energy": 5.71 
		},
		"coords": [
			{
				"x": -2.0053286627,
				"y": 2.5869077231,
				"z": -1.0995557666,
				"element": "C" 
			},
			{
				"x": -1.5017156254,
				"y": 1.1495557287,
				"z": -0.8945177206,
				"element": "C" 
			},
			{
				"x": -2.5483239174,
				"y": 0.3411674939,
				"z": -0.0916102686,
				"element": "C" 
			},
			{
				"x": -1.2617384428,
				"y": 0.4814928074,
				"z": -2.2691530013,
				"element": "C" 
			},
			{
				"x": -0.1746654042,
				"y": 1.2107802973,
				"z": -0.1047469788,
				"element": "C" 
			},
			{
				"x": 0.3303490269,
				"y": 2.2593882686,
				"z": 0.2654504372,
				"element": "O" 
			},
			{
				"x": 0.3928970559,
				"y": -0.0347211281,
				"z": 0.144831878,
				"element": "N" 
			},
			{
				"x": 1.5551975136,
				"y": -0.332743052,
				"z": 0.8331261218,
				"element": "C" 
			},
			{
				"x": 1.9965156041,
				"y": -1.6883149627,
				"z": 0.9042933366,
				"element": "C" 
			},
			{
				"x": 3.1402817461,
				"y": -1.9575385616,
				"z": 1.6733550725,
				"element": "C" 
			},
			{
				"x": 3.8814504838,
				"y": -1.0501967975,
				"z": 2.3007780438,
				"element": "N" 
			},
			{
				"x": 3.4760891352,
				"y": 0.2255884407,
				"z": 2.1746260649,
				"element": "C" 
			},
			{
				"x": 2.347032279,
				"y": 0.6350338017,
				"z": 1.4796422133,
				"element": "C" 
			},
			{
				"x": 1.2604235062,
				"y": -2.781347728,
				"z": 0.2142914132,
				"element": "C" 
			},
			{
				"x": 1.8876027821,
				"y": -3.9686191754,
				"z": 0.0659145913,
				"element": "O" 
			},
			{
				"x": 0.1277123548,
				"y": -2.669851656,
				"z": -0.2303765534,
				"element": "O" 
			},
			{
				"x": -1.2797534582,
				"y": 3.1845119534,
				"z": -1.6570022346,
				"element": "H" 
			},
			{
				"x": -2.175273683,
				"y": 3.0866935849,
				"z": -0.1426904861,
				"element": "H" 
			},
			{
				"x": -2.9470563435,
				"y": 2.5717527028,
				"z": -1.6574959413,
				"element": "H" 
			},
			{
				"x": -2.2586437022,
				"y": -0.705378239,
				"z": 0.0450379043,
				"element": "H" 
			},
			{
				"x": -3.5040881509,
				"y": 0.3488801753,
				"z": -0.6258588237,
				"element": "H" 
			},
			{
				"x": -2.7133511291,
				"y": 0.7808810168,
				"z": 0.8974206944,
				"element": "H" 
			},
			{
				"x": -0.9431702876,
				"y": -0.561733948,
				"z": -2.1806199987,
				"element": "H" 
			},
			{
				"x": -0.5027417087,
				"y": 1.0221093428,
				"z": -2.8440644042,
				"element": "H" 
			},
			{
				"x": -2.1912056162,
				"y": 0.491993394,
				"z": -2.8478723023,
				"element": "H" 
			},
			{
				"x": -0.0955958481,
				"y": -0.8669130465,
				"z": -0.1840628461,
				"element": "H" 
			},
			{
				"x": 3.46338586,
				"y": -2.9895506379,
				"z": 1.8209740799,
				"element": "H" 
			},
			{
				"x": 4.0926137464,
				"y": 0.9699791882,
				"z": 2.6745827842,
				"element": "H" 
			},
			{
				"x": 2.0631689344,
				"y": 1.6755688022,
				"z": 1.4296502875,
				"element": "H" 
			},
			{
				"x": 2.8204319515,
				"y": -3.9007757891,
				"z": 0.3117524037,
				"element": "H" 
			}
		],
		 "valence_orbital": [ 
			{
				"type": "occ",
				"energy": -0.30738,
				"method": "rhf"
			},
			{
				"type": "occ",
				"energy": -0.284,
				"method": "rhf"
			},
			{
				"type": "occ",
				"energy": -0.273,
				"method": "rhf"
			},
			{
				"type": "occ",
				"energy": -0.25851,
				"method": "rhf"
			},
			{
				"type": "occ",
				"energy": -0.25466,
				"method": "rhf"
			},
			{
				"type": "unocc",
				"energy": -0.06977,
				"method": "rhf"
			},
			{
				"type": "unocc",
				"energy": -0.04091,
				"method": "rhf"
			},
			{
				"type": "unocc",
				"energy": 0.02468,
				"method": "rhf"
			},
			{
				"type": "unocc",
				"energy": 0.03083,
				"method": "rhf"
			},
			{
				"type": "unocc",
				"energy": 0.05208,
				"method": "rhf"
			}
		],
		"cosmo_sigma_profile": { 
			"-0.025": 0.0,
			"-0.024": 0.0,
			"-0.023": 0.0,
			"-0.022": 0.0,
			"-0.021": 0.0,
			"-0.02": 0.387789694376,
			"-0.019": 0.740246256583,
			"-0.018": 1.10666210922,
			"-0.017": 0.693879447508,
			"-0.016": 0.977615238463,
			"-0.015": 0.809356240353,
			"-0.014": 1.03472932729,
			"-0.013": 1.55139009662,
			"-0.012": 1.46990372107,
			"-0.011": 0.728210569662,
			"-0.01": 1.05489892488,
			"-0.009": 1.46837063191,
			"-0.008": 1.66270685273,
			"-0.007": 4.2878910962,
			"-0.006": 5.78259252761,
			"-0.005": 5.71622365884,
			"-0.004": 17.2435585992,
			"-0.003": 28.5917689599,
			"-0.002": 28.5337681825,
			"-0.001": 33.2096317382,
			"0.0": 31.7226127858,
			"0.001": 22.1316226459,
			"0.002": 10.0264312604,
			"0.003": 6.38188401079,
			"0.004": 4.8530186695,
			"0.005": 5.63399651674,
			"0.006": 5.48723294911,
			"0.007": 4.73649194521,
			"0.008": 5.50735233298,
			"0.009": 6.22393641593,
			"0.01": 6.28329251357,
			"0.011": 4.81213375662,
			"0.012": 5.31132227104,
			"0.013": 2.16262193219,
			"0.014": 0.872573421866,
			"0.015": 0.814091782445,
			"0.016": 0.4872674019,
			"0.017": 0.0256833866959,
			"0.018": 0.0,
			"0.019": 0.0,
			"0.02": 0.0,
			"0.021": 0.0,
			"0.022": 0.0,
			"0.023": 0.0,
			"0.024": 0.0,
			"0.025": 0.0
		}
	}
}
