{
	 "smiles": "COC1=CC=C(C=C1)C1=NN(C(=C1)C(O)=O)C1=CC=CC=C1", 
	 "Tm": 464.15, 
	 "num_atms": 36, 
	 "gaussian": { 
		 "optdone": 1, 
		 "sigma_profile": "yes", 
		 "theory": "DFT", 
		 "functional": "B3LYP", 
		 "basiset": "6-31G**", 
		 "properties": { 
			 "R2extent": 10464.4267, 
			 "electric_dipole_moment_norm": 5.59966107367, 
			 "electric_quadrupole_moment_norm": 21.2913770142, 
			 "total_energy": -991.401399523, 
			 "HOMO_LUMO_gap": 0.15153, 
			 "cosmo_polarized_energy": -17.19, 
			 "cosmo_cavitation_energy": 41.08, 
			 "cosmo_dispersion_energy": -29.45, 
			 "cosmo_repulsion_energy": 2.21, 
			 "cosmo_total_nonelectrostatic_energy": 13.84, 
			 "SMD_solvation_energy": 7.91 
		},
		"coords": [
			{
				"x": 6.3013200614,
				"y": -1.3607549119,
				"z": 0.3422925328,
				"element": "C" 
			},
			{
				"x": 5.4941061954,
				"y": -0.2291616229,
				"z": 0.6271789198,
				"element": "O" 
			},
			{
				"x": 4.1815553813,
				"y": -0.2618992081,
				"z": 0.2588783454,
				"element": "C" 
			},
			{
				"x": 3.5598380361,
				"y": -1.3375964754,
				"z": -0.3887897705,
				"element": "C" 
			},
			{
				"x": 2.2076165575,
				"y": -1.2586298999,
				"z": -0.7182297819,
				"element": "C" 
			},
			{
				"x": 1.4465466347,
				"y": -0.1214483146,
				"z": -0.4160010089,
				"element": "C" 
			},
			{
				"x": 2.0871272571,
				"y": 0.9481224332,
				"z": 0.2350313731,
				"element": "C" 
			},
			{
				"x": 3.4320738846,
				"y": 0.8830393348,
				"z": 0.5682822476,
				"element": "C" 
			},
			{
				"x": 0.0211421086,
				"y": -0.0533348601,
				"z": -0.7701769482,
				"element": "C" 
			},
			{
				"x": -0.5853386024,
				"y": -1.0820624039,
				"z": -1.379767576,
				"element": "N" 
			},
			{
				"x": -1.8711795181,
				"y": -0.7061380799,
				"z": -1.5632666133,
				"element": "N" 
			},
			{
				"x": -2.1020887795,
				"y": 0.5669938696,
				"z": -1.0766422388,
				"element": "C" 
			},
			{
				"x": -0.8982037183,
				"y": 1.000350018,
				"z": -0.5537127408,
				"element": "C" 
			},
			{
				"x": -3.3202435272,
				"y": 1.4156131936,
				"z": -1.1772255061,
				"element": "C" 
			},
			{
				"x": -4.3018534499,
				"y": 1.0544981314,
				"z": -2.0381553556,
				"element": "O" 
			},
			{
				"x": -3.4203927241,
				"y": 2.4355912213,
				"z": -0.5357399949,
				"element": "O" 
			},
			{
				"x": -2.7695840867,
				"y": -1.6498937997,
				"z": -2.1417318488,
				"element": "C" 
			},
			{
				"x": -2.3760185642,
				"y": -2.3380830745,
				"z": -3.2960614423,
				"element": "C" 
			},
			{
				"x": -3.2341969748,
				"y": -3.280063034,
				"z": -3.8579494665,
				"element": "C" 
			},
			{
				"x": -4.4831943865,
				"y": -3.5319927143,
				"z": -3.2826404775,
				"element": "C" 
			},
			{
				"x": -4.8666353892,
				"y": -2.8484910249,
				"z": -2.128446643,
				"element": "C" 
			},
			{
				"x": -4.0081317568,
				"y": -1.9153733142,
				"z": -1.5432715986,
				"element": "C" 
			},
			{
				"x": 5.9308599083,
				"y": -2.2609657957,
				"z": 0.8494006294,
				"element": "H" 
			},
			{
				"x": 7.2976518683,
				"y": -1.122347678,
				"z": 0.7176726503,
				"element": "H" 
			},
			{
				"x": 6.3596724289,
				"y": -1.5559244884,
				"z": -0.7362906046,
				"element": "H" 
			},
			{
				"x": 4.1142788028,
				"y": -2.2343854419,
				"z": -0.6387758883,
				"element": "H" 
			},
			{
				"x": 1.7276133886,
				"y": -2.0931883118,
				"z": -1.218131695,
				"element": "H" 
			},
			{
				"x": 1.528254085,
				"y": 1.8444103696,
				"z": 0.4863011584,
				"element": "H" 
			},
			{
				"x": 3.9278867474,
				"y": 1.7070769429,
				"z": 1.070568031,
				"element": "H" 
			},
			{
				"x": -0.7373135227,
				"y": 1.969544573,
				"z": -0.1089633922,
				"element": "H" 
			},
			{
				"x": -4.0944380753,
				"y": 0.2231827231,
				"z": -2.492653993,
				"element": "H" 
			},
			{
				"x": -1.4031902117,
				"y": -2.1300335815,
				"z": -3.7262129863,
				"element": "H" 
			},
			{
				"x": -2.9294549738,
				"y": -3.8136687326,
				"z": -4.7530484887,
				"element": "H" 
			},
			{
				"x": -5.1508438289,
				"y": -4.2623232149,
				"z": -3.7291534316,
				"element": "H" 
			},
			{
				"x": -5.827587669,
				"y": -3.0509455653,
				"z": -1.6659028354,
				"element": "H" 
			},
			{
				"x": -4.2853535867,
				"y": -1.4130172622,
				"z": -0.6226635613,
				"element": "H" 
			}
		],
		 "valence_orbital": [ 
			{
				"type": "occ",
				"energy": -0.27445,
				"method": "rhf"
			},
			{
				"type": "occ",
				"energy": -0.26518,
				"method": "rhf"
			},
			{
				"type": "occ",
				"energy": -0.25666,
				"method": "rhf"
			},
			{
				"type": "occ",
				"energy": -0.25067,
				"method": "rhf"
			},
			{
				"type": "occ",
				"energy": -0.20645,
				"method": "rhf"
			},
			{
				"type": "unocc",
				"energy": -0.05492,
				"method": "rhf"
			},
			{
				"type": "unocc",
				"energy": -0.0291,
				"method": "rhf"
			},
			{
				"type": "unocc",
				"energy": -0.0215,
				"method": "rhf"
			},
			{
				"type": "unocc",
				"energy": -0.01306,
				"method": "rhf"
			},
			{
				"type": "unocc",
				"energy": -0.00065,
				"method": "rhf"
			}
		],
		"cosmo_sigma_profile": { 
			"-0.025": 0.0,
			"-0.024": 0.0,
			"-0.023": 0.0,
			"-0.022": 0.0,
			"-0.021": 0.0,
			"-0.02": 0.0,
			"-0.019": 0.0,
			"-0.018": 0.0,
			"-0.017": 0.0,
			"-0.016": 0.0,
			"-0.015": 0.0,
			"-0.014": 0.509569976723,
			"-0.013": 1.19134983713,
			"-0.012": 1.08848255759,
			"-0.011": 0.888665941312,
			"-0.01": 0.557387536542,
			"-0.009": 2.38344414669,
			"-0.008": 5.83481037893,
			"-0.007": 10.3303260342,
			"-0.006": 21.6553113427,
			"-0.005": 29.1126211396,
			"-0.004": 25.8788450788,
			"-0.003": 23.5192237644,
			"-0.002": 19.2016651617,
			"-0.001": 17.5717932469,
			"0.0": 17.143409816,
			"0.001": 19.111318242,
			"0.002": 26.5234904892,
			"0.003": 28.574721245,
			"0.004": 20.9207101254,
			"0.005": 16.2443987604,
			"0.006": 6.69598459675,
			"0.007": 5.19143153189,
			"0.008": 5.70413857825,
			"0.009": 6.58270328583,
			"0.01": 7.06358421836,
			"0.011": 6.30778608516,
			"0.012": 3.45851185543,
			"0.013": 0.615201817221,
			"0.014": 0.0,
			"0.015": 0.0,
			"0.016": 0.0,
			"0.017": 0.0,
			"0.018": 0.0,
			"0.019": 0.0,
			"0.02": 0.0,
			"0.021": 0.0,
			"0.022": 0.0,
			"0.023": 0.0,
			"0.024": 0.0,
			"0.0": 0.0
		}
	}
}
