{
	 "smiles": "COC1=CC(C)=C(C=C1)N1C=CN=C1S", 
	 "Tm": 512.15, 
	 "num_atms": 27, 
	 "gaussian": { 
		 "optdone": 1, 
		 "sigma_profile": "yes", 
		 "theory": "DFT", 
		 "functional": "B3LYP", 
		 "basiset": "6-31G**", 
		 "properties": { 
			 "R2extent": 4539.4019, 
			 "electric_dipole_moment_norm": 3.94001741367, 
			 "electric_quadrupole_moment_norm": 10.2782606053, 
			 "total_energy": -1009.29685771, 
			 "HOMO_LUMO_gap": 0.19112, 
			 "cosmo_polarized_energy": -11.3, 
			 "cosmo_cavitation_energy": 32.65, 
			 "cosmo_dispersion_energy": -23.2, 
			 "cosmo_repulsion_energy": 1.78, 
			 "cosmo_total_nonelectrostatic_energy": 11.23, 
			 "SMD_solvation_energy": 5.04 
		},
		"coords": [
			{
				"x": 3.7110366973,
				"y": 0.4593721033,
				"z": -1.1858087748,
				"element": "C" 
			},
			{
				"x": 2.7674095476,
				"y": -0.5497269444,
				"z": -0.8573266562,
				"element": "O" 
			},
			{
				"x": 1.4629957347,
				"y": -0.1901273991,
				"z": -0.7050784436,
				"element": "C" 
			},
			{
				"x": 0.5847762939,
				"y": -1.2337032506,
				"z": -0.3731563463,
				"element": "C" 
			},
			{
				"x": -0.7770739887,
				"y": -1.0113260011,
				"z": -0.187477445,
				"element": "C" 
			},
			{
				"x": -1.7050557292,
				"y": -2.1431814212,
				"z": 0.1784249607,
				"element": "C" 
			},
			{
				"x": -1.2573377703,
				"y": 0.3067165352,
				"z": -0.343480335,
				"element": "C" 
			},
			{
				"x": -0.3898271562,
				"y": 1.3454477023,
				"z": -0.6742437772,
				"element": "C" 
			},
			{
				"x": 0.9735012699,
				"y": 1.1118334052,
				"z": -0.8582863181,
				"element": "C" 
			},
			{
				"x": -2.6529979536,
				"y": 0.5882860653,
				"z": -0.1773409676,
				"element": "N" 
			},
			{
				"x": -3.6206222153,
				"y": 0.6076720129,
				"z": -1.1790775211,
				"element": "C" 
			},
			{
				"x": -4.7992669694,
				"y": 0.9025383465,
				"z": -0.54982575,
				"element": "C" 
			},
			{
				"x": -4.6044825222,
				"y": 1.0698106181,
				"z": 0.8067338408,
				"element": "N" 
			},
			{
				"x": -3.3179624385,
				"y": 0.8744871546,
				"z": 0.9900816003,
				"element": "C" 
			},
			{
				"x": -2.4580369714,
				"y": 0.9624325058,
				"z": 2.5404116378,
				"element": "S" 
			},
			{
				"x": 3.480828549,
				"y": 0.9297132224,
				"z": -2.1502583041,
				"element": "H" 
			},
			{
				"x": 4.6769604837,
				"y": -0.0430194972,
				"z": -1.2532137826,
				"element": "H" 
			},
			{
				"x": 3.7602757004,
				"y": 1.2342561796,
				"z": -0.4103918069,
				"element": "H" 
			},
			{
				"x": 0.9986302312,
				"y": -2.2312087584,
				"z": -0.2639758029,
				"element": "H" 
			},
			{
				"x": -1.1867290271,
				"y": -3.1034662898,
				"z": 0.1250865076,
				"element": "H" 
			},
			{
				"x": -2.0905338432,
				"y": -2.0205114634,
				"z": 1.1966824752,
				"element": "H" 
			},
			{
				"x": -2.5723467222,
				"y": -2.180177295,
				"z": -0.4882275257,
				"element": "H" 
			},
			{
				"x": -0.7900020716,
				"y": 2.348186085,
				"z": -0.7871327467,
				"element": "H" 
			},
			{
				"x": 1.6277305731,
				"y": 1.9360246295,
				"z": -1.1138384973,
				"element": "H" 
			},
			{
				"x": -3.3598943916,
				"y": 0.4162739443,
				"z": -2.2082418535,
				"element": "H" 
			},
			{
				"x": -5.7813038642,
				"y": 1.0091068942,
				"z": -0.9895848672,
				"element": "H" 
			},
			{
				"x": -3.5937714463,
				"y": 1.1852909159,
				"z": 3.2270464991,
				"element": "H" 
			}
		],
		 "valence_orbital": [ 
			{
				"type": "occ",
				"energy": -0.26857,
				"method": "rhf"
			},
			{
				"type": "occ",
				"energy": -0.26718,
				"method": "rhf"
			},
			{
				"type": "occ",
				"energy": -0.25578,
				"method": "rhf"
			},
			{
				"type": "occ",
				"energy": -0.22895,
				"method": "rhf"
			},
			{
				"type": "occ",
				"energy": -0.20314,
				"method": "rhf"
			},
			{
				"type": "unocc",
				"energy": -0.01202,
				"method": "rhf"
			},
			{
				"type": "unocc",
				"energy": -0.00757,
				"method": "rhf"
			},
			{
				"type": "unocc",
				"energy": 0.02598,
				"method": "rhf"
			},
			{
				"type": "unocc",
				"energy": 0.03313,
				"method": "rhf"
			},
			{
				"type": "unocc",
				"energy": 0.07311,
				"method": "rhf"
			}
		],
		"cosmo_sigma_profile": { 
			"-0.025": 0.0,
			"-0.024": 0.0,
			"-0.023": 0.0,
			"-0.022": 0.0,
			"-0.021": 0.0,
			"-0.02": 0.0,
			"-0.019": 0.0,
			"-0.018": 0.0,
			"-0.017": 0.0,
			"-0.016": 0.0,
			"-0.015": 0.0,
			"-0.014": 0.0,
			"-0.013": 0.0,
			"-0.012": 0.147620444749,
			"-0.011": 1.36175514243,
			"-0.01": 1.49356712697,
			"-0.009": 1.33784308311,
			"-0.008": 2.91198006134,
			"-0.007": 5.27830253958,
			"-0.006": 15.4725659897,
			"-0.005": 20.0941444469,
			"-0.004": 19.7844240552,
			"-0.003": 23.3138648548,
			"-0.002": 18.1214930444,
			"-0.001": 19.0337107414,
			"0.0": 20.8642410916,
			"0.001": 16.7597110729,
			"0.002": 18.3996863776,
			"0.003": 20.544551718,
			"0.004": 18.8788674992,
			"0.005": 11.3830709979,
			"0.006": 6.0050522196,
			"0.007": 5.02140255939,
			"0.008": 3.5299239462,
			"0.009": 3.27048854403,
			"0.01": 2.40967232836,
			"0.011": 1.18272482295,
			"0.012": 1.16627629855,
			"0.013": 1.16759402192,
			"0.014": 1.13412743697,
			"0.015": 0.793259734776,
			"0.016": 0.92733896698,
			"0.017": 0.647928237603,
			"0.018": 0.0372766080515,
			"0.019": 0.0,
			"0.02": 0.0,
			"0.021": 0.0,
			"0.022": 0.0,
			"0.023": 0.0,
			"0.024": 0.0,
			"0.025": 0.0
		}
	}
}
