{
	 "smiles": "CC(C)(C)OC(=O)NC(CO)C1=CC=CC=C1", 
	 "Tm": 411.15, 
	 "num_atms": 36, 
	 "gaussian": { 
		 "optdone": 1, 
		 "sigma_profile": "yes", 
		 "theory": "DFT", 
		 "functional": "B3LYP", 
		 "basiset": "6-31G**", 
		 "properties": { 
			 "R2extent": 5279.8336, 
			 "electric_dipole_moment_norm": 3.89803120306, 
			 "electric_quadrupole_moment_norm": 15.6028535691, 
			 "total_energy": -787.292762724, 
			 "HOMO_LUMO_gap": 0.23548, 
			 "cosmo_polarized_energy": -12.68, 
			 "cosmo_cavitation_energy": 37.31, 
			 "cosmo_dispersion_energy": -26.05, 
			 "cosmo_repulsion_energy": 2.06, 
			 "cosmo_total_nonelectrostatic_energy": 13.32, 
			 "SMD_solvation_energy": 6.45 
		},
		"coords": [
			{
				"x": -3.3670710677,
				"y": -0.122336112,
				"z": -2.2065858742,
				"element": "C" 
			},
			{
				"x": -2.0618082436,
				"y": -0.9075807616,
				"z": -2.0529633505,
				"element": "C" 
			},
			{
				"x": -1.0600341084,
				"y": -0.514596969,
				"z": -3.1435098004,
				"element": "C" 
			},
			{
				"x": -2.3340996421,
				"y": -2.4149240618,
				"z": -2.0247275857,
				"element": "C" 
			},
			{
				"x": -1.5773124339,
				"y": -0.4565347991,
				"z": -0.7352355116,
				"element": "O" 
			},
			{
				"x": -0.4314220083,
				"y": -0.933889541,
				"z": -0.2011252943,
				"element": "C" 
			},
			{
				"x": 0.3202386628,
				"y": -1.7352521716,
				"z": -0.7566500849,
				"element": "O" 
			},
			{
				"x": -0.2662641394,
				"y": -0.4079286837,
				"z": 1.0431481204,
				"element": "N" 
			},
			{
				"x": 0.9237121509,
				"y": -0.4756775671,
				"z": 1.9146302379,
				"element": "C" 
			},
			{
				"x": 1.5833399192,
				"y": -1.8791931088,
				"z": 1.970637157,
				"element": "C" 
			},
			{
				"x": 2.4059084093,
				"y": -2.2208316739,
				"z": 0.8888818277,
				"element": "O" 
			},
			{
				"x": 1.9147791141,
				"y": 0.6488207714,
				"z": 1.6493684871,
				"element": "C" 
			},
			{
				"x": 2.2675938162,
				"y": 1.5199015665,
				"z": 2.6865971301,
				"element": "C" 
			},
			{
				"x": 3.184421348,
				"y": 2.5524660262,
				"z": 2.4771688162,
				"element": "C" 
			},
			{
				"x": 3.7574234945,
				"y": 2.7280806736,
				"z": 1.2180509061,
				"element": "C" 
			},
			{
				"x": 3.4107879429,
				"y": 1.8647723508,
				"z": 0.1753007756,
				"element": "C" 
			},
			{
				"x": 2.4990016282,
				"y": 0.8317720623,
				"z": 0.3871600339,
				"element": "C" 
			},
			{
				"x": -3.1759611794,
				"y": 0.9543307465,
				"z": -2.1793341855,
				"element": "H" 
			},
			{
				"x": -3.8404356372,
				"y": -0.3661137369,
				"z": -3.1621596199,
				"element": "H" 
			},
			{
				"x": -4.064522307,
				"y": -0.3699992111,
				"z": -1.4011654498,
				"element": "H" 
			},
			{
				"x": -0.8524039457,
				"y": 0.559179819,
				"z": -3.0994144302,
				"element": "H" 
			},
			{
				"x": -0.123550829,
				"y": -1.0614298346,
				"z": -3.0333240587,
				"element": "H" 
			},
			{
				"x": -1.4849324517,
				"y": -0.7376476715,
				"z": -4.1275344792,
				"element": "H" 
			},
			{
				"x": -3.0184701877,
				"y": -2.6625154111,
				"z": -1.2071310783,
				"element": "H" 
			},
			{
				"x": -2.8053933698,
				"y": -2.718810225,
				"z": -2.9649435501,
				"element": "H" 
			},
			{
				"x": -1.4103550335,
				"y": -2.9796481183,
				"z": -1.8971463222,
				"element": "H" 
			},
			{
				"x": -0.9348704287,
				"y": 0.3146413046,
				"z": 1.2707534994,
				"element": "H" 
			},
			{
				"x": 0.5176315875,
				"y": -0.3235521064,
				"z": 2.922433805,
				"element": "H" 
			},
			{
				"x": 2.2200232852,
				"y": -1.8815689881,
				"z": 2.8622264352,
				"element": "H" 
			},
			{
				"x": 0.7787285364,
				"y": -2.6150015625,
				"z": 2.1374585043,
				"element": "H" 
			},
			{
				"x": 1.8174464636,
				"y": -2.240702157,
				"z": 0.1108053957,
				"element": "H" 
			},
			{
				"x": 1.8205705765,
				"y": 1.3905622312,
				"z": 3.6702175983,
				"element": "H" 
			},
			{
				"x": 3.4441815706,
				"y": 3.2191818687,
				"z": 3.2946882938,
				"element": "H" 
			},
			{
				"x": 4.4688701735,
				"y": 3.5313085683,
				"z": 1.0484335369,
				"element": "H" 
			},
			{
				"x": 3.8573952139,
				"y": 1.9931962797,
				"z": -0.8067455235,
				"element": "H" 
			},
			{
				"x": 2.2468531198,
				"y": 0.1587202038,
				"z": -0.4240643616,
				"element": "H" 
			}
		],
		 "valence_orbital": [ 
			{
				"type": "occ",
				"energy": -0.27387,
				"method": "rhf"
			},
			{
				"type": "occ",
				"energy": -0.26864,
				"method": "rhf"
			},
			{
				"type": "occ",
				"energy": -0.25225,
				"method": "rhf"
			},
			{
				"type": "occ",
				"energy": -0.24104,
				"method": "rhf"
			},
			{
				"type": "occ",
				"energy": -0.2379,
				"method": "rhf"
			},
			{
				"type": "unocc",
				"energy": -0.00242,
				"method": "rhf"
			},
			{
				"type": "unocc",
				"energy": 0.00341,
				"method": "rhf"
			},
			{
				"type": "unocc",
				"energy": 0.04278,
				"method": "rhf"
			},
			{
				"type": "unocc",
				"energy": 0.07129,
				"method": "rhf"
			},
			{
				"type": "unocc",
				"energy": 0.08512,
				"method": "rhf"
			}
		],
		"cosmo_sigma_profile": { 
			"-0.025": 0.0,
			"-0.024": 0.0,
			"-0.023": 0.0,
			"-0.022": 0.0,
			"-0.021": 0.0,
			"-0.02": 0.0,
			"-0.019": 0.0,
			"-0.018": 0.0,
			"-0.017": 0.0,
			"-0.016": 0.0,
			"-0.015": 0.00580681087045,
			"-0.014": 0.925976282084,
			"-0.013": 0.906474822653,
			"-0.012": 1.10717339951,
			"-0.011": 0.667652777431,
			"-0.01": 1.23389526531,
			"-0.009": 0.851789839136,
			"-0.008": 1.2525214855,
			"-0.007": 2.58844355465,
			"-0.006": 7.90416462301,
			"-0.005": 13.973851566,
			"-0.004": 25.7143963792,
			"-0.003": 30.9886301617,
			"-0.002": 27.3251267018,
			"-0.001": 30.8973985104,
			"0.0": 34.4653749641,
			"0.001": 26.8802678236,
			"0.002": 13.9821310774,
			"0.003": 11.1033230851,
			"0.004": 14.2101902067,
			"0.005": 11.4480627264,
			"0.006": 12.4154399643,
			"0.007": 5.38927632725,
			"0.008": 2.84213416437,
			"0.009": 3.2026575347,
			"0.01": 2.00791388897,
			"0.011": 1.35306795738,
			"0.012": 0.966048521171,
			"0.013": 1.61943814716,
			"0.014": 1.91678502819,
			"0.015": 1.84138164983,
			"0.016": 0.28009625617,
			"0.017": 0.0,
			"0.018": 0.0,
			"0.019": 0.0,
			"0.02": 0.0,
			"0.021": 0.0,
			"0.022": 0.0,
			"0.023": 0.0,
			"0.024": 0.0,
			"0.025": 0.0
		}
	}
}
