{
	 "smiles": "COC1OC(CNC(=O)N(CCCl)N=O)C(O)C(O)C1O", 
	 "Tm": 384.15, 
	 "num_atms": 39, 
	 "gaussian": { 
		 "optdone": 1, 
		 "sigma_profile": "yes", 
		 "theory": "DFT", 
		 "functional": "B3LYP", 
		 "basiset": "6-31G**", 
		 "properties": { 
			 "R2extent": 8992.9253, 
			 "electric_dipole_moment_norm": 5.52604461165, 
			 "electric_quadrupole_moment_norm": 37.201945951, 
			 "total_energy": -1542.82653777, 
			 "HOMO_LUMO_gap": 0.17969, 
			 "cosmo_polarized_energy": -29.46, 
			 "cosmo_cavitation_energy": 42.37, 
			 "cosmo_dispersion_energy": -28.29, 
			 "cosmo_repulsion_energy": 2.18, 
			 "cosmo_total_nonelectrostatic_energy": 16.26, 
			 "SMD_solvation_energy": 7.47 
		},
		"coords": [
			{
				"x": -3.2357909189,
				"y": 0.3331051695,
				"z": 0.7002541846,
				"element": "C" 
			},
			{
				"x": -2.0341134621,
				"y": 0.3611481398,
				"z": 1.4833011297,
				"element": "O" 
			},
			{
				"x": -1.1817062896,
				"y": 1.4657445645,
				"z": 1.1813274408,
				"element": "C" 
			},
			{
				"x": -0.5098503255,
				"y": 1.2656097208,
				"z": -0.0451789789,
				"element": "O" 
			},
			{
				"x": 0.7691040599,
				"y": 0.611053626,
				"z": -0.0118536541,
				"element": "C" 
			},
			{
				"x": 0.980744422,
				"y": -0.0496150644,
				"z": -1.3807524427,
				"element": "C" 
			},
			{
				"x": 0.0634061321,
				"y": -1.1484923457,
				"z": -1.6506979685,
				"element": "N" 
			},
			{
				"x": -0.9822220046,
				"y": -0.9638227911,
				"z": -2.52179918,
				"element": "C" 
			},
			{
				"x": -1.1276697676,
				"y": -0.0067003238,
				"z": -3.2509504378,
				"element": "O" 
			},
			{
				"x": -1.9084998173,
				"y": -2.0654548453,
				"z": -2.5137861756,
				"element": "N" 
			},
			{
				"x": -1.6156999826,
				"y": -3.4176103427,
				"z": -2.0403597286,
				"element": "C" 
			},
			{
				"x": -0.5079386627,
				"y": -4.1281417275,
				"z": -2.8137271352,
				"element": "C" 
			},
			{
				"x": -0.9498911363,
				"y": -4.4080524878,
				"z": -4.5436930621,
				"element": "Cl" 
			},
			{
				"x": -3.1464653117,
				"y": -1.7452137016,
				"z": -3.0360972979,
				"element": "N" 
			},
			{
				"x": -3.9458962939,
				"y": -2.656175763,
				"z": -3.0483444108,
				"element": "O" 
			},
			{
				"x": 0.9126664615,
				"y": -0.336628463,
				"z": 1.1909793741,
				"element": "C" 
			},
			{
				"x": -0.0445550072,
				"y": -1.4057953368,
				"z": 1.1825417262,
				"element": "O" 
			},
			{
				"x": 0.7850202185,
				"y": 0.4727818549,
				"z": 2.5100173592,
				"element": "C" 
			},
			{
				"x": 0.3635921218,
				"y": -0.3661718354,
				"z": 3.5719030956,
				"element": "O" 
			},
			{
				"x": -0.1993785617,
				"y": 1.6766400194,
				"z": 2.3438905092,
				"element": "C" 
			},
			{
				"x": -0.8637451543,
				"y": 1.9606704545,
				"z": 3.5437192775,
				"element": "O" 
			},
			{
				"x": -3.0139863782,
				"y": 0.2938299192,
				"z": -0.3711564492,
				"element": "H" 
			},
			{
				"x": -3.8451912513,
				"y": 1.2187061279,
				"z": 0.914153737,
				"element": "H" 
			},
			{
				"x": -3.7862427487,
				"y": -0.5607365046,
				"z": 0.998791931,
				"element": "H" 
			},
			{
				"x": -1.8059138101,
				"y": 2.3557207167,
				"z": 1.0459119675,
				"element": "H" 
			},
			{
				"x": 1.5593814473,
				"y": 1.3733991382,
				"z": 0.093059187,
				"element": "H" 
			},
			{
				"x": 2.0158797054,
				"y": -0.4092539538,
				"z": -1.4343272194,
				"element": "H" 
			},
			{
				"x": 0.8343961319,
				"y": 0.6967554023,
				"z": -2.1634469214,
				"element": "H" 
			},
			{
				"x": -0.0708353147,
				"y": -1.7739467173,
				"z": -0.8648944727,
				"element": "H" 
			},
			{
				"x": -1.3467900634,
				"y": -3.4030183487,
				"z": -0.9758282262,
				"element": "H" 
			},
			{
				"x": -2.5581657933,
				"y": -3.961453646,
				"z": -2.135007134,
				"element": "H" 
			},
			{
				"x": 0.4187180398,
				"y": -3.5538371236,
				"z": -2.8133561349,
				"element": "H" 
			},
			{
				"x": -0.325396577,
				"y": -5.1074615289,
				"z": -2.367143738,
				"element": "H" 
			},
			{
				"x": 1.8925198788,
				"y": -0.8225502702,
				"z": 1.1482188136,
				"element": "H" 
			},
			{
				"x": -0.9285789172,
				"y": -0.968307649,
				"z": 1.2159031988,
				"element": "H" 
			},
			{
				"x": 1.7676157148,
				"y": 0.8753796599,
				"z": 2.7808983966,
				"element": "H" 
			},
			{
				"x": -0.0106336451,
				"y": -1.1592618413,
				"z": 3.1503191895,
				"element": "H" 
			},
			{
				"x": 0.389030031,
				"y": 2.5601864908,
				"z": 2.0630836839,
				"element": "H" 
			},
			{
				"x": -0.9080171697,
				"y": 1.1090716074,
				"z": 4.0121265663,
				"element": "H" 
			}
		],
		 "valence_orbital": [ 
			{
				"type": "occ",
				"energy": -0.28919,
				"method": "rhf"
			},
			{
				"type": "occ",
				"energy": -0.28108,
				"method": "rhf"
			},
			{
				"type": "occ",
				"energy": -0.27318,
				"method": "rhf"
			},
			{
				"type": "occ",
				"energy": -0.26795,
				"method": "rhf"
			},
			{
				"type": "occ",
				"energy": -0.24395,
				"method": "rhf"
			},
			{
				"type": "unocc",
				"energy": -0.06426,
				"method": "rhf"
			},
			{
				"type": "unocc",
				"energy": 0.01699,
				"method": "rhf"
			},
			{
				"type": "unocc",
				"energy": 0.03107,
				"method": "rhf"
			},
			{
				"type": "unocc",
				"energy": 0.03993,
				"method": "rhf"
			},
			{
				"type": "unocc",
				"energy": 0.06062,
				"method": "rhf"
			}
		],
		"cosmo_sigma_profile": { 
			"-0.025": 0.0,
			"-0.024": 0.0,
			"-0.023": 0.0,
			"-0.022": 0.0,
			"-0.021": 0.0,
			"-0.02": 0.0,
			"-0.019": 0.0,
			"-0.018": 0.0,
			"-0.017": 0.0,
			"-0.016": 0.0,
			"-0.015": 0.0,
			"-0.014": 0.0,
			"-0.013": 0.0,
			"-0.012": 0.131373845273,
			"-0.011": 0.753309389551,
			"-0.01": 2.66078917528,
			"-0.009": 4.46258554857,
			"-0.008": 12.4812664944,
			"-0.007": 24.0947022487,
			"-0.006": 31.7194394583,
			"-0.005": 27.5600071029,
			"-0.004": 22.800013948,
			"-0.003": 25.0884156932,
			"-0.002": 15.0091153348,
			"-0.001": 13.6194834261,
			"0.0": 13.2028434716,
			"0.001": 13.6638457817,
			"0.002": 12.2634034437,
			"0.003": 11.1912772359,
			"0.004": 14.9759563238,
			"0.005": 13.4263316009,
			"0.006": 15.9218562654,
			"0.007": 10.9263662999,
			"0.008": 8.97770878018,
			"0.009": 8.26577545455,
			"0.01": 8.4293242925,
			"0.011": 5.59171518048,
			"0.012": 8.08547364463,
			"0.013": 5.98893865018,
			"0.014": 2.87568320411,
			"0.015": 0.183385273405,
			"0.016": 0.0,
			"0.017": 0.0,
			"0.018": 0.0,
			"0.019": 0.0,
			"0.02": 0.0,
			"0.021": 0.0,
			"0.022": 0.0,
			"0.023": 0.0,
			"0.024": 0.0,
			"0.025": 0.0
		}
	}
}
