{
	 "smiles": "NC1=CC=C(CN2CCOC2=O)C=C1", 
	 "Tm": 373.15, 
	 "num_atms": 26, 
	 "gaussian": { 
		 "optdone": 1, 
		 "sigma_profile": "yes", 
		 "theory": "DFT", 
		 "functional": "B3LYP", 
		 "basiset": "6-31G**", 
		 "properties": { 
			 "R2extent": 3812.1917, 
			 "electric_dipole_moment_norm": 5.74148794826, 
			 "electric_quadrupole_moment_norm": 20.9792149195, 
			 "total_energy": -648.26533286, 
			 "HOMO_LUMO_gap": 0.20263, 
			 "cosmo_polarized_energy": -17.51, 
			 "cosmo_cavitation_energy": 29.34, 
			 "cosmo_dispersion_energy": -21.31, 
			 "cosmo_repulsion_energy": 1.69, 
			 "cosmo_total_nonelectrostatic_energy": 9.72, 
			 "SMD_solvation_energy": 4.94 
		},
		"coords": [
			{
				"x": 0.8677766684,
				"y": -2.6931408809,
				"z": -3.159203956,
				"element": "N" 
			},
			{
				"x": 1.1322985878,
				"y": -2.0603677199,
				"z": -1.944542301,
				"element": "C" 
			},
			{
				"x": 0.9630739144,
				"y": -2.7378273548,
				"z": -0.7259559279,
				"element": "C" 
			},
			{
				"x": 1.287689407,
				"y": -2.1154735,
				"z": 0.4779075658,
				"element": "C" 
			},
			{
				"x": 1.7886907229,
				"y": -0.8097672963,
				"z": 0.5135627352,
				"element": "C" 
			},
			{
				"x": 2.1297899234,
				"y": -0.1275306482,
				"z": 1.8238420469,
				"element": "C" 
			},
			{
				"x": 1.1858146255,
				"y": 0.9168735597,
				"z": 2.223396954,
				"element": "N" 
			},
			{
				"x": -0.2203908908,
				"y": 0.6531760607,
				"z": 2.4758150981,
				"element": "C" 
			},
			{
				"x": -0.7239893836,
				"y": 2.0836115195,
				"z": 2.730646235,
				"element": "C" 
			},
			{
				"x": 0.2204621359,
				"y": 2.9287325801,
				"z": 2.0528132273,
				"element": "O" 
			},
			{
				"x": 1.3694057722,
				"y": 2.2197636107,
				"z": 1.8123416614,
				"element": "C" 
			},
			{
				"x": 2.3608580836,
				"y": 2.7110612599,
				"z": 1.3207830502,
				"element": "O" 
			},
			{
				"x": 1.9567541032,
				"y": -0.136477901,
				"z": -0.7070010705,
				"element": "C" 
			},
			{
				"x": 1.6347410437,
				"y": -0.7457175377,
				"z": -1.913938227,
				"element": "C" 
			},
			{
				"x": 0.6777223809,
				"y": -2.0758311069,
				"z": -3.9363215574,
				"element": "H" 
			},
			{
				"x": 0.21251604,
				"y": -3.4610668707,
				"z": -3.1148284971,
				"element": "H" 
			},
			{
				"x": 0.5829420642,
				"y": -3.7566533656,
				"z": -0.7264101115,
				"element": "H" 
			},
			{
				"x": 1.1521104382,
				"y": -2.6635411771,
				"z": 1.4081824999,
				"element": "H" 
			},
			{
				"x": 2.1797501059,
				"y": -0.8670638823,
				"z": 2.6312116303,
				"element": "H" 
			},
			{
				"x": 3.1025054953,
				"y": 0.3673815833,
				"z": 1.7618423079,
				"element": "H" 
			},
			{
				"x": -0.3633787111,
				"y": 0.0005861437,
				"z": 3.3438244164,
				"element": "H" 
			},
			{
				"x": -0.7059598101,
				"y": 0.1853541615,
				"z": 1.6074603622,
				"element": "H" 
			},
			{
				"x": -0.7161635274,
				"y": 2.331151366,
				"z": 3.7983203893,
				"element": "H" 
			},
			{
				"x": -1.7181567655,
				"y": 2.2766074658,
				"z": 2.3228982228,
				"element": "H" 
			},
			{
				"x": 2.3453584972,
				"y": 0.878424802,
				"z": -0.7038522513,
				"element": "H" 
			},
			{
				"x": 1.7819790786,
				"y": -0.2084648715,
				"z": -2.8478945031,
				"element": "H" 
			}
		],
		 "valence_orbital": [ 
			{
				"type": "occ",
				"energy": -0.2861,
				"method": "rhf"
			},
			{
				"type": "occ",
				"energy": -0.26948,
				"method": "rhf"
			},
			{
				"type": "occ",
				"energy": -0.24927,
				"method": "rhf"
			},
			{
				"type": "occ",
				"energy": -0.24232,
				"method": "rhf"
			},
			{
				"type": "occ",
				"energy": -0.20309,
				"method": "rhf"
			},
			{
				"type": "unocc",
				"energy": -0.00046,
				"method": "rhf"
			},
			{
				"type": "unocc",
				"energy": 0.01006,
				"method": "rhf"
			},
			{
				"type": "unocc",
				"energy": 0.05515,
				"method": "rhf"
			},
			{
				"type": "unocc",
				"energy": 0.07901,
				"method": "rhf"
			},
			{
				"type": "unocc",
				"energy": 0.08426,
				"method": "rhf"
			}
		],
		"cosmo_sigma_profile": { 
			"-0.025": 0.0,
			"-0.024": 0.0,
			"-0.023": 0.0,
			"-0.022": 0.0,
			"-0.021": 0.0,
			"-0.02": 0.0,
			"-0.019": 0.0,
			"-0.018": 0.0,
			"-0.017": 0.0,
			"-0.016": 0.0,
			"-0.015": 0.0,
			"-0.014": 0.0,
			"-0.013": 0.149982701311,
			"-0.012": 2.57123370893,
			"-0.011": 2.59699989356,
			"-0.01": 2.39744911281,
			"-0.009": 3.69284829296,
			"-0.008": 3.20550258082,
			"-0.007": 6.43136679979,
			"-0.006": 16.2813521292,
			"-0.005": 24.7114992667,
			"-0.004": 18.6266212867,
			"-0.003": 17.1302873653,
			"-0.002": 13.5120183877,
			"-0.001": 12.6219406339,
			"0.0": 12.616813454,
			"0.001": 9.83408466877,
			"0.002": 9.80245487779,
			"0.003": 9.10271962447,
			"0.004": 10.2097343309,
			"0.005": 9.77631422618,
			"0.006": 11.8402719261,
			"0.007": 6.69795718965,
			"0.008": 3.77433545839,
			"0.009": 3.08027143486,
			"0.01": 5.15413223832,
			"0.011": 3.84623435493,
			"0.012": 3.97454549377,
			"0.013": 5.7228980206,
			"0.014": 2.32960706369,
			"0.015": 0.155682850958,
			"0.016": 0.0,
			"0.017": 0.0,
			"0.018": 0.0,
			"0.019": 0.0,
			"0.02": 0.0,
			"0.021": 0.0,
			"0.022": 0.0,
			"0.023": 0.0,
			"0.024": 0.0,
			"0.025": 0.0
		}
	}
}
