{
	 "smiles": "OC(=O)C1=CC2=C(N1)C=C(Br)C=C2F", 
	 "Tm": 504.15, 
	 "num_atms": 19, 
	 "gaussian": { 
		 "optdone": 1, 
		 "sigma_profile": "yes", 
		 "theory": "DFT", 
		 "functional": "B3LYP", 
		 "basiset": "6-31G**", 
		 "properties": { 
			 "R2extent": 5923.4051, 
			 "electric_dipole_moment_norm": 1.58405667197, 
			 "electric_quadrupole_moment_norm": 17.1107420853, 
			 "total_energy": -3222.42347614, 
			 "HOMO_LUMO_gap": 0.1646, 
			 "cosmo_polarized_energy": -15.12, 
			 "cosmo_cavitation_energy": 27.33, 
			 "cosmo_dispersion_energy": -20.56, 
			 "cosmo_repulsion_energy": 1.58, 
			 "cosmo_total_nonelectrostatic_energy": 8.35, 
			 "SMD_solvation_energy": 4.84 
		},
		"coords": [
			{
				"x": -1.3675605557,
				"y": -2.6487542097,
				"z": -2.8536785559,
				"element": "O" 
			},
			{
				"x": -0.2423671036,
				"y": -1.9010476059,
				"z": -2.9240208927,
				"element": "C" 
			},
			{
				"x": 0.46036078,
				"y": -1.9236644741,
				"z": -3.9123390186,
				"element": "O" 
			},
			{
				"x": 0.0878456076,
				"y": -1.0641630765,
				"z": -1.7557024316,
				"element": "C" 
			},
			{
				"x": -0.5164837383,
				"y": -0.8502322793,
				"z": -0.5325308014,
				"element": "C" 
			},
			{
				"x": 0.3031084129,
				"y": 0.0838177772,
				"z": 0.1662456513,
				"element": "C" 
			},
			{
				"x": 1.4029508968,
				"y": 0.4115041274,
				"z": -0.6789317883,
				"element": "C" 
			},
			{
				"x": 1.2391983216,
				"y": -0.3028808295,
				"z": -1.8351040952,
				"element": "N" 
			},
			{
				"x": 2.410120086,
				"y": 1.3114490526,
				"z": -0.2972639352,
				"element": "C" 
			},
			{
				"x": 2.2855081525,
				"y": 1.8775640777,
				"z": 0.960608291,
				"element": "C" 
			},
			{
				"x": 3.6155694411,
				"y": 3.1119202829,
				"z": 1.5538842591,
				"element": "Br" 
			},
			{
				"x": 1.2161751575,
				"y": 1.5868754734,
				"z": 1.8359368481,
				"element": "C" 
			},
			{
				"x": 0.2450512476,
				"y": 0.697488046,
				"z": 1.4262367698,
				"element": "C" 
			},
			{
				"x": -0.7846176724,
				"y": 0.4036837295,
				"z": 2.2424730656,
				"element": "F" 
			},
			{
				"x": -1.8135017359,
				"y": -2.5192883991,
				"z": -2.0047999083,
				"element": "H" 
			},
			{
				"x": -1.4296306517,
				"y": -1.2931970871,
				"z": -0.1599705081,
				"element": "H" 
			},
			{
				"x": 1.830054196,
				"y": -0.3164238031,
				"z": -2.6541447916,
				"element": "H" 
			},
			{
				"x": 3.2426696029,
				"y": 1.554920891,
				"z": -0.9457062894,
				"element": "H" 
			},
			{
				"x": 1.1521495551,
				"y": 2.0491283065,
				"z": 2.8124081313,
				"element": "H" 
			}
		],
		 "valence_orbital": [ 
			{
				"type": "occ",
				"energy": -0.29658,
				"method": "rhf"
			},
			{
				"type": "occ",
				"energy": -0.29516,
				"method": "rhf"
			},
			{
				"type": "occ",
				"energy": -0.29233,
				"method": "rhf"
			},
			{
				"type": "occ",
				"energy": -0.25084,
				"method": "rhf"
			},
			{
				"type": "occ",
				"energy": -0.231,
				"method": "rhf"
			},
			{
				"type": "unocc",
				"energy": -0.0664,
				"method": "rhf"
			},
			{
				"type": "unocc",
				"energy": -0.00586,
				"method": "rhf"
			},
			{
				"type": "unocc",
				"energy": -0.00474,
				"method": "rhf"
			},
			{
				"type": "unocc",
				"energy": 0.00217,
				"method": "rhf"
			},
			{
				"type": "unocc",
				"energy": 0.04222,
				"method": "rhf"
			}
		],
		"cosmo_sigma_profile": { 
			"-0.025": 0.0,
			"-0.024": 0.0,
			"-0.023": 0.0,
			"-0.022": 0.0,
			"-0.021": 0.0,
			"-0.02": 0.0,
			"-0.019": 0.592420212159,
			"-0.018": 1.329938268,
			"-0.017": 1.21928891103,
			"-0.016": 1.66174610708,
			"-0.015": 1.6159672578,
			"-0.014": 1.72715303088,
			"-0.013": 2.64130170517,
			"-0.012": 2.14104045041,
			"-0.011": 2.35058266966,
			"-0.01": 2.24577693113,
			"-0.009": 3.14831864852,
			"-0.008": 4.38347482953,
			"-0.007": 5.50817991327,
			"-0.006": 4.53693256072,
			"-0.005": 5.78443748943,
			"-0.004": 7.55098617711,
			"-0.003": 9.69921482065,
			"-0.002": 10.1529827359,
			"-0.001": 13.1307466826,
			"0.0": 17.2541745472,
			"0.001": 27.4154021095,
			"0.002": 27.0721553495,
			"0.003": 20.3563433993,
			"0.004": 19.9280925159,
			"0.005": 5.61194748129,
			"0.006": 2.17627844177,
			"0.007": 2.51475752544,
			"0.008": 2.74964474965,
			"0.009": 3.63183008958,
			"0.01": 4.87426786227,
			"0.011": 4.60211219804,
			"0.012": 2.86583108079,
			"0.013": 1.19281071383,
			"0.014": 0.000108961816937,
			"0.015": 0.0,
			"0.016": 0.0,
			"0.017": 0.0,
			"0.018": 0.0,
			"0.019": 0.0,
			"0.02": 0.0,
			"0.021": 0.0,
			"0.022": 0.0,
			"0.023": 0.0,
			"0.024": 0.0,
			"0.025": 0.0
		}
	}
}
