{
	 "smiles": "NCC1=NN(C=C1)C1=CC=C(F)C=C1", 
	 "Tm": 330.15, 
	 "num_atms": 24, 
	 "gaussian": { 
		 "optdone": 1, 
		 "sigma_profile": "yes", 
		 "theory": "DFT", 
		 "functional": "B3LYP", 
		 "basiset": "6-31G**", 
		 "properties": { 
			 "R2extent": 4758.1312, 
			 "electric_dipole_moment_norm": 2.37238490343, 
			 "electric_quadrupole_moment_norm": 15.9850365802, 
			 "total_energy": -651.153795339, 
			 "HOMO_LUMO_gap": 0.19688, 
			 "cosmo_polarized_energy": -10.28, 
			 "cosmo_cavitation_energy": 28.82, 
			 "cosmo_dispersion_energy": -20.9, 
			 "cosmo_repulsion_energy": 1.62, 
			 "cosmo_total_nonelectrostatic_energy": 9.54, 
			 "SMD_solvation_energy": 3.69 
		},
		"coords": [
			{
				"x": 3.4174481851,
				"y": -0.8000566337,
				"z": 0.7060333553,
				"element": "N" 
			},
			{
				"x": 3.4895690129,
				"y": 0.4982094602,
				"z": 1.3706459235,
				"element": "C" 
			},
			{
				"x": 2.1682196376,
				"y": 1.1678567916,
				"z": 1.6804617868,
				"element": "C" 
			},
			{
				"x": 1.0216619294,
				"y": 0.6015142558,
				"z": 1.3143566663,
				"element": "N" 
			},
			{
				"x": 0.0460183077,
				"y": 1.4557782005,
				"z": 1.7285572139,
				"element": "N" 
			},
			{
				"x": 0.5720076605,
				"y": 2.5500927984,
				"z": 2.35745777,
				"element": "C" 
			},
			{
				"x": 1.9399312939,
				"y": 2.4033977818,
				"z": 2.3434006272,
				"element": "C" 
			},
			{
				"x": -1.3178154463,
				"y": 1.1427273337,
				"z": 1.5020922233,
				"element": "C" 
			},
			{
				"x": -2.2906560206,
				"y": 2.1495519568,
				"z": 1.5098406544,
				"element": "C" 
			},
			{
				"x": -3.6317771807,
				"y": 1.8279215705,
				"z": 1.3070337557,
				"element": "C" 
			},
			{
				"x": -3.9807703011,
				"y": 0.5025059471,
				"z": 1.0785001017,
				"element": "C" 
			},
			{
				"x": -5.277580222,
				"y": 0.1903198797,
				"z": 0.8747492286,
				"element": "F" 
			},
			{
				"x": -3.0262774525,
				"y": -0.508566525,
				"z": 1.0484537816,
				"element": "C" 
			},
			{
				"x": -1.6894268294,
				"y": -0.1869199584,
				"z": 1.2662578622,
				"element": "C" 
			},
			{
				"x": 2.8756790049,
				"y": -0.6948932734,
				"z": -0.1496816717,
				"element": "H" 
			},
			{
				"x": 2.8613595808,
				"y": -1.4286160055,
				"z": 1.2825969001,
				"element": "H" 
			},
			{
				"x": 4.0915138912,
				"y": 1.1728170304,
				"z": 0.7474165985,
				"element": "H" 
			},
			{
				"x": 4.0555266316,
				"y": 0.3798913309,
				"z": 2.3039853734,
				"element": "H" 
			},
			{
				"x": -0.0548696765,
				"y": 3.3187541219,
				"z": 2.7827905736,
				"element": "H" 
			},
			{
				"x": 2.6715914916,
				"y": 3.08115095,
				"z": 2.7584293016,
				"element": "H" 
			},
			{
				"x": -2.0085535412,
				"y": 3.1867594424,
				"z": 1.6527823775,
				"element": "H" 
			},
			{
				"x": -4.3998648554,
				"y": 2.5933253328,
				"z": 1.3088753702,
				"element": "H" 
			},
			{
				"x": -3.3350097901,
				"y": -1.5317080001,
				"z": 0.8639721978,
				"element": "H" 
			},
			{
				"x": -0.9220253116,
				"y": -0.9504137883,
				"z": 1.2524920286,
				"element": "H" 
			}
		],
		 "valence_orbital": [ 
			{
				"type": "occ",
				"energy": -0.28234,
				"method": "rhf"
			},
			{
				"type": "occ",
				"energy": -0.26992,
				"method": "rhf"
			},
			{
				"type": "occ",
				"energy": -0.25331,
				"method": "rhf"
			},
			{
				"type": "occ",
				"energy": -0.236,
				"method": "rhf"
			},
			{
				"type": "occ",
				"energy": -0.22085,
				"method": "rhf"
			},
			{
				"type": "unocc",
				"energy": -0.02397,
				"method": "rhf"
			},
			{
				"type": "unocc",
				"energy": -0.01971,
				"method": "rhf"
			},
			{
				"type": "unocc",
				"energy": 0.03823,
				"method": "rhf"
			},
			{
				"type": "unocc",
				"energy": 0.06141,
				"method": "rhf"
			},
			{
				"type": "unocc",
				"energy": 0.07827,
				"method": "rhf"
			}
		],
		"cosmo_sigma_profile": { 
			"-0.025": 0.0,
			"-0.024": 0.0,
			"-0.023": 0.0,
			"-0.022": 0.0,
			"-0.021": 0.0,
			"-0.02": 0.0,
			"-0.019": 0.0,
			"-0.018": 0.0,
			"-0.017": 0.0,
			"-0.016": 0.0,
			"-0.015": 0.0,
			"-0.014": 0.0,
			"-0.013": 0.0,
			"-0.012": 0.0,
			"-0.011": 0.0,
			"-0.01": 0.499310075777,
			"-0.009": 4.42600173002,
			"-0.008": 5.59496493704,
			"-0.007": 9.86879001166,
			"-0.006": 11.7843083653,
			"-0.005": 13.6014179228,
			"-0.004": 16.4374213324,
			"-0.003": 17.0512001649,
			"-0.002": 13.1740563074,
			"-0.001": 12.3837563192,
			"0.0": 14.0124538209,
			"0.001": 18.9870338804,
			"0.002": 19.4895697219,
			"0.003": 23.2023726718,
			"0.004": 20.7572494217,
			"0.005": 10.2571345153,
			"0.006": 3.67544858084,
			"0.007": 3.14674697529,
			"0.008": 2.11313463485,
			"0.009": 1.40622204888,
			"0.01": 1.33773270608,
			"0.011": 1.35309067742,
			"0.012": 0.957039630335,
			"0.013": 0.85568020192,
			"0.014": 0.487474675541,
			"0.015": 0.413349133867,
			"0.016": 0.869189197325,
			"0.017": 0.537822924704,
			"0.018": 0.851444927748,
			"0.019": 0.535982287335,
			"0.02": 0.227897754426,
			"0.021": 0.0,
			"0.022": 0.0,
			"0.023": 0.0,
			"0.024": 0.0,
			"0.025": 0.0
		}
	}
}
