{
	 "smiles": "NC1=C(C=NN1C1=CC=CC=C1Cl)C#N", 
	 "Tm": 411.15, 
	 "num_atms": 22, 
	 "gaussian": { 
		 "optdone": 1, 
		 "sigma_profile": "yes", 
		 "theory": "DFT", 
		 "functional": "B3LYP", 
		 "basiset": "6-31G**", 
		 "properties": { 
			 "R2extent": 3657.3476, 
			 "electric_dipole_moment_norm": 6.10148167661, 
			 "electric_quadrupole_moment_norm": 11.491319171, 
			 "total_energy": -1064.44078423, 
			 "HOMO_LUMO_gap": 0.18513, 
			 "cosmo_polarized_energy": -15.22, 
			 "cosmo_cavitation_energy": 29.49, 
			 "cosmo_dispersion_energy": -20.78, 
			 "cosmo_repulsion_energy": 1.62, 
			 "cosmo_total_nonelectrostatic_energy": 10.32, 
			 "SMD_solvation_energy": 5.5 
		},
		"coords": [
			{
				"x": 0.3316836157,
				"y": 1.6819107143,
				"z": 0.6029466045,
				"element": "N" 
			},
			{
				"x": -0.0633320209,
				"y": 0.3783143621,
				"z": 0.7811996079,
				"element": "C" 
			},
			{
				"x": -0.5978638244,
				"y": -0.2403425342,
				"z": 1.9174853746,
				"element": "C" 
			},
			{
				"x": -0.672489625,
				"y": -1.6201901779,
				"z": 1.5744662343,
				"element": "C" 
			},
			{
				"x": -0.2440118944,
				"y": -1.8554015273,
				"z": 0.3526030572,
				"element": "N" 
			},
			{
				"x": 0.1203240319,
				"y": -0.6133047052,
				"z": -0.1400492393,
				"element": "N" 
			},
			{
				"x": 0.780608436,
				"y": -0.5510287655,
				"z": -1.3964217604,
				"element": "C" 
			},
			{
				"x": 1.9252474241,
				"y": -1.3362654054,
				"z": -1.582414312,
				"element": "C" 
			},
			{
				"x": 2.5998686271,
				"y": -1.3318552586,
				"z": -2.7987874203,
				"element": "C" 
			},
			{
				"x": 2.1407543525,
				"y": -0.531789834,
				"z": -3.8472213539,
				"element": "C" 
			},
			{
				"x": 0.9971603868,
				"y": 0.2467061518,
				"z": -3.683175439,
				"element": "C" 
			},
			{
				"x": 0.3135015192,
				"y": 0.2254388562,
				"z": -2.4666814265,
				"element": "C" 
			},
			{
				"x": -1.166508308,
				"y": 1.1646421384,
				"z": -2.3260420123,
				"element": "Cl" 
			},
			{
				"x": -0.9674099012,
				"y": 0.4219950605,
				"z": 3.1092260073,
				"element": "C" 
			},
			{
				"x": -1.2619447465,
				"y": 1.0034602681,
				"z": 4.0760634946,
				"element": "N" 
			},
			{
				"x": 0.0376072043,
				"y": 2.2908073438,
				"z": 1.3562929329,
				"element": "H" 
			},
			{
				"x": 0.1456606146,
				"y": 2.0799174833,
				"z": -0.3088228529,
				"element": "H" 
			},
			{
				"x": -1.0380202612,
				"y": -2.4309383121,
				"z": 2.1899644644,
				"element": "H" 
			},
			{
				"x": 2.2604472375,
				"y": -1.9497187871,
				"z": -0.7539146764,
				"element": "H" 
			},
			{
				"x": 3.4855903693,
				"y": -1.9459573727,
				"z": -2.9251872528,
				"element": "H" 
			},
			{
				"x": 2.6650700066,
				"y": -0.5168853996,
				"z": -4.7975364602,
				"element": "H" 
			},
			{
				"x": 0.6175567557,
				"y": 0.8582857013,
				"z": -4.4938935716,
				"element": "H" 
			}
		],
		 "valence_orbital": [ 
			{
				"type": "occ",
				"energy": -0.30134,
				"method": "rhf"
			},
			{
				"type": "occ",
				"energy": -0.29504,
				"method": "rhf"
			},
			{
				"type": "occ",
				"energy": -0.27305,
				"method": "rhf"
			},
			{
				"type": "occ",
				"energy": -0.25629,
				"method": "rhf"
			},
			{
				"type": "occ",
				"energy": -0.22791,
				"method": "rhf"
			},
			{
				"type": "unocc",
				"energy": -0.04278,
				"method": "rhf"
			},
			{
				"type": "unocc",
				"energy": -0.03519,
				"method": "rhf"
			},
			{
				"type": "unocc",
				"energy": -0.0007,
				"method": "rhf"
			},
			{
				"type": "unocc",
				"energy": 0.00428,
				"method": "rhf"
			},
			{
				"type": "unocc",
				"energy": 0.01517,
				"method": "rhf"
			}
		],
		"cosmo_sigma_profile": { 
			"-0.025": 0.0,
			"-0.024": 0.0,
			"-0.023": 0.0,
			"-0.022": 0.0,
			"-0.021": 0.0,
			"-0.02": 0.0,
			"-0.019": 0.0,
			"-0.018": 0.0,
			"-0.017": 0.0,
			"-0.016": 0.0,
			"-0.015": 0.16441017158,
			"-0.014": 1.14155036503,
			"-0.013": 1.12225270547,
			"-0.012": 2.41087289554,
			"-0.011": 1.98696028351,
			"-0.01": 2.23815179131,
			"-0.009": 4.59429971343,
			"-0.008": 5.96776786447,
			"-0.007": 12.1696026974,
			"-0.006": 12.4158452059,
			"-0.005": 11.2999390401,
			"-0.004": 10.9516532959,
			"-0.003": 11.6291680294,
			"-0.002": 13.0085563549,
			"-0.001": 16.021606895,
			"0.0": 20.1771756864,
			"0.001": 22.8682195916,
			"0.002": 23.683368265,
			"0.003": 18.0460674097,
			"0.004": 7.34732824156,
			"0.005": 4.83307555534,
			"0.006": 4.95321277143,
			"0.007": 3.70322264129,
			"0.008": 4.44914411464,
			"0.009": 6.08193312772,
			"0.01": 4.58857204183,
			"0.011": 4.53107728764,
			"0.012": 3.71133355818,
			"0.013": 3.3857550429,
			"0.014": 1.25630021388,
			"0.015": 0.145877215937,
			"0.016": 0.0,
			"0.017": 0.0,
			"0.018": 0.0,
			"0.019": 0.0,
			"0.02": 0.0,
			"0.021": 0.0,
			"0.022": 0.0,
			"0.023": 0.0,
			"0.024": 0.0,
			"0.025": 0.0
		}
	}
}
