{
	 "smiles": "NC(=O)NC1=NC=CC=C1", 
	 "Tm": 447.15, 
	 "num_atms": 17, 
	 "gaussian": { 
		 "optdone": 1, 
		 "sigma_profile": "yes", 
		 "theory": "DFT", 
		 "functional": "B3LYP", 
		 "basiset": "6-31G**", 
		 "properties": { 
			 "R2extent": 1706.8247, 
			 "electric_dipole_moment_norm": 4.22877203926, 
			 "electric_quadrupole_moment_norm": 11.7925292177, 
			 "total_energy": -472.370408845, 
			 "HOMO_LUMO_gap": 0.19602, 
			 "cosmo_polarized_energy": -13.11, 
			 "cosmo_cavitation_energy": 21.27, 
			 "cosmo_dispersion_energy": -16.27, 
			 "cosmo_repulsion_energy": 1.33, 
			 "cosmo_total_nonelectrostatic_energy": 6.33, 
			 "SMD_solvation_energy": 4.14 
		},
		"coords": [
			{
				"x": 0.3621022826,
				"y": -1.2106294315,
				"z": 2.4551643841,
				"element": "N" 
			},
			{
				"x": 0.739765338,
				"y": 0.0756198884,
				"z": 2.2623379321,
				"element": "C" 
			},
			{
				"x": 1.4838751313,
				"y": 0.7145545506,
				"z": 2.9945035431,
				"element": "O" 
			},
			{
				"x": 0.2156351126,
				"y": 0.7091198639,
				"z": 1.1112529403,
				"element": "N" 
			},
			{
				"x": -0.6327759567,
				"y": 0.270233767,
				"z": 0.1061829783,
				"element": "C" 
			},
			{
				"x": -1.1005746404,
				"y": -0.9864653181,
				"z": 0.1469510346,
				"element": "N" 
			},
			{
				"x": -1.9201722552,
				"y": -1.3913061824,
				"z": -0.8352194485,
				"element": "C" 
			},
			{
				"x": -2.3159670806,
				"y": -0.5874812979,
				"z": -1.8954081403,
				"element": "C" 
			},
			{
				"x": -1.8247662754,
				"y": 0.7240089324,
				"z": -1.9335227657,
				"element": "C" 
			},
			{
				"x": -0.9775869057,
				"y": 1.164915848,
				"z": -0.9315070421,
				"element": "C" 
			},
			{
				"x": 0.7287997646,
				"y": -1.6721097636,
				"z": 3.2705281125,
				"element": "H" 
			},
			{
				"x": -0.2611862143,
				"y": -1.6584739189,
				"z": 1.7900630435,
				"element": "H" 
			},
			{
				"x": 0.54950501,
				"y": 1.6602583327,
				"z": 1.0501890077,
				"element": "H" 
			},
			{
				"x": -2.2721761255,
				"y": -2.4178533897,
				"z": -0.7570371565,
				"element": "H" 
			},
			{
				"x": -2.9812881157,
				"y": -0.9689426774,
				"z": -2.6616697481,
				"element": "H" 
			},
			{
				"x": -2.1030290773,
				"y": 1.3950860005,
				"z": -2.7410259911,
				"element": "H" 
			},
			{
				"x": -0.5813599924,
				"y": 2.175864796,
				"z": -0.9346826837,
				"element": "H" 
			}
		],
		 "valence_orbital": [ 
			{
				"type": "occ",
				"energy": -0.29701,
				"method": "rhf"
			},
			{
				"type": "occ",
				"energy": -0.27923,
				"method": "rhf"
			},
			{
				"type": "occ",
				"energy": -0.25512,
				"method": "rhf"
			},
			{
				"type": "occ",
				"energy": -0.25419,
				"method": "rhf"
			},
			{
				"type": "occ",
				"energy": -0.22905,
				"method": "rhf"
			},
			{
				"type": "unocc",
				"energy": -0.03303,
				"method": "rhf"
			},
			{
				"type": "unocc",
				"energy": -0.01344,
				"method": "rhf"
			},
			{
				"type": "unocc",
				"energy": 0.07669,
				"method": "rhf"
			},
			{
				"type": "unocc",
				"energy": 0.07936,
				"method": "rhf"
			},
			{
				"type": "unocc",
				"energy": 0.1008,
				"method": "rhf"
			}
		],
		"cosmo_sigma_profile": { 
			"-0.025": 0.0,
			"-0.024": 0.0,
			"-0.023": 0.0,
			"-0.022": 0.0,
			"-0.021": 0.0,
			"-0.02": 0.0,
			"-0.019": 0.0,
			"-0.018": 0.0,
			"-0.017": 0.0,
			"-0.016": 0.0,
			"-0.015": 0.260850092513,
			"-0.014": 1.83090332437,
			"-0.013": 2.53180898397,
			"-0.012": 1.68902421159,
			"-0.011": 2.19058232196,
			"-0.01": 1.64113315788,
			"-0.009": 2.03066848533,
			"-0.008": 3.16303630242,
			"-0.007": 7.93131903767,
			"-0.006": 10.6629667658,
			"-0.005": 10.4763519362,
			"-0.004": 8.47491858146,
			"-0.003": 6.8934799564,
			"-0.002": 8.03251811269,
			"-0.001": 6.91940681116,
			"0.0": 7.91223045729,
			"0.001": 18.0218855397,
			"0.002": 17.3219593713,
			"0.003": 17.2443005063,
			"0.004": 7.91672410507,
			"0.005": 4.58034498033,
			"0.006": 3.20962496613,
			"0.007": 0.877544646851,
			"0.008": 1.1756666732,
			"0.009": 1.77007220137,
			"0.01": 1.1437161511,
			"0.011": 0.744929406016,
			"0.012": 1.38291917988,
			"0.013": 2.45775892668,
			"0.014": 6.70158665074,
			"0.015": 2.80926137129,
			"0.016": 0.0379099363953,
			"0.017": 0.0,
			"0.018": 0.0,
			"0.019": 0.0,
			"0.02": 0.0,
			"0.021": 0.0,
			"0.022": 0.0,
			"0.023": 0.0,
			"0.024": 0.0,
			"0.025": 0.0
		}
	}
}
