{
	 "smiles": "[O-][N+](=O)C1=C(Cl)C=C(Cl)C(=C1)C(F)(F)F", 
	 "Tm": 328.15, 
	 "num_atms": 17, 
	 "gaussian": { 
		 "optdone": 1, 
		 "sigma_profile": "yes", 
		 "theory": "DFT", 
		 "functional": "B3LYP", 
		 "basiset": "6-31G**", 
		 "properties": { 
			 "R2extent": 4799.1894, 
			 "electric_dipole_moment_norm": 2.6217495113, 
			 "electric_quadrupole_moment_norm": 8.85204429214, 
			 "total_energy": -1692.93835039, 
			 "HOMO_LUMO_gap": 0.18128, 
			 "cosmo_polarized_energy": -7.76, 
			 "cosmo_cavitation_energy": 27.6, 
			 "cosmo_dispersion_energy": -19.94, 
			 "cosmo_repulsion_energy": 1.5, 
			 "cosmo_total_nonelectrostatic_energy": 9.16, 
			 "SMD_solvation_energy": 7.6 
		},
		"coords": [
			{
				"x": -1.6061715278,
				"y": 0.4604744202,
				"z": 1.7560150251,
				"element": "O" 
			},
			{
				"x": -1.5721187778,
				"y": -0.0600021649,
				"z": 0.6417751052,
				"element": "N" 
			},
			{
				"x": -2.5156089867,
				"y": -0.608350247,
				"z": 0.0843791137,
				"element": "O" 
			},
			{
				"x": -0.2908915383,
				"y": 0.0216123102,
				"z": -0.0835022972,
				"element": "C" 
			},
			{
				"x": 0.1230262982,
				"y": -0.9199574189,
				"z": -1.037221412,
				"element": "C" 
			},
			{
				"x": -0.7628679156,
				"y": -2.3572983305,
				"z": -1.4380815945,
				"element": "Cl" 
			},
			{
				"x": 1.3510049809,
				"y": -0.7297433298,
				"z": -1.6755530585,
				"element": "C" 
			},
			{
				"x": 2.1429065507,
				"y": 0.3783351897,
				"z": -1.3848190835,
				"element": "C" 
			},
			{
				"x": 3.6494967899,
				"y": 0.5407285352,
				"z": -2.2441133015,
				"element": "Cl" 
			},
			{
				"x": 1.7335061881,
				"y": 1.3194465134,
				"z": -0.4247244811,
				"element": "C" 
			},
			{
				"x": 0.519088607,
				"y": 1.1143392651,
				"z": 0.2201705975,
				"element": "C" 
			},
			{
				"x": 2.5635178143,
				"y": 2.5353249202,
				"z": -0.0697172984,
				"element": "C" 
			},
			{
				"x": 1.952758547,
				"y": 3.2775779986,
				"z": 0.8762897488,
				"element": "F" 
			},
			{
				"x": 3.7720992112,
				"y": 2.1855601719,
				"z": 0.4094240977,
				"element": "F" 
			},
			{
				"x": 2.7601500877,
				"y": 3.3283272889,
				"z": -1.1400807051,
				"element": "F" 
			},
			{
				"x": 1.6889065846,
				"y": -1.4566399534,
				"z": -2.4034931419,
				"element": "H" 
			},
			{
				"x": 0.1792970864,
				"y": 1.8089648311,
				"z": 0.9766526857,
				"element": "H" 
			}
		],
		 "valence_orbital": [ 
			{
				"type": "occ",
				"energy": -0.32694,
				"method": "rhf"
			},
			{
				"type": "occ",
				"energy": -0.32339,
				"method": "rhf"
			},
			{
				"type": "occ",
				"energy": -0.3111,
				"method": "rhf"
			},
			{
				"type": "occ",
				"energy": -0.29835,
				"method": "rhf"
			},
			{
				"type": "occ",
				"energy": -0.2913,
				"method": "rhf"
			},
			{
				"type": "unocc",
				"energy": -0.11002,
				"method": "rhf"
			},
			{
				"type": "unocc",
				"energy": -0.06952,
				"method": "rhf"
			},
			{
				"type": "unocc",
				"energy": -0.04188,
				"method": "rhf"
			},
			{
				"type": "unocc",
				"energy": -0.02051,
				"method": "rhf"
			},
			{
				"type": "unocc",
				"energy": 0.01657,
				"method": "rhf"
			}
		],
		"cosmo_sigma_profile": { 
			"-0.025": 0.0,
			"-0.024": 0.0,
			"-0.023": 0.0,
			"-0.022": 0.0,
			"-0.021": 0.0,
			"-0.02": 0.0,
			"-0.019": 0.0,
			"-0.018": 0.0,
			"-0.017": 0.0,
			"-0.016": 0.0,
			"-0.015": 0.0,
			"-0.014": 0.0,
			"-0.013": 0.0,
			"-0.012": 0.0,
			"-0.011": 0.0480564005352,
			"-0.01": 1.25619230918,
			"-0.009": 2.57063065641,
			"-0.008": 3.99751557945,
			"-0.007": 5.10948821889,
			"-0.006": 6.90406400459,
			"-0.005": 8.18938547842,
			"-0.004": 15.3930931245,
			"-0.003": 24.4569663889,
			"-0.002": 18.0825284757,
			"-0.001": 13.8392491146,
			"0.0": 13.3841090121,
			"0.001": 21.8359998303,
			"0.002": 41.7983850857,
			"0.003": 19.2118083599,
			"0.004": 2.91499531583,
			"0.005": 3.64039752384,
			"0.006": 7.16865613303,
			"0.007": 10.4413781754,
			"0.008": 4.67353885872,
			"0.009": 2.59942349728,
			"0.01": 0.0545062408111,
			"0.011": 0.0,
			"0.012": 0.0,
			"0.013": 0.0,
			"0.014": 0.0,
			"0.015": 0.0,
			"0.016": 0.0,
			"0.017": 0.0,
			"0.018": 0.0,
			"0.019": 0.0,
			"0.02": 0.0,
			"0.021": 0.0,
			"0.022": 0.0,
			"0.023": 0.0,
			"0.024": 0.0,
			"0.025": 0.0
		}
	}
}
