{
	 "smiles": "NC(=O)C1=CC(CCO)=C(NC1=O)C(F)(F)F", 
	 "Tm": 504.15, 
	 "num_atms": 26, 
	 "gaussian": { 
		 "optdone": 1, 
		 "sigma_profile": "yes", 
		 "theory": "DFT", 
		 "functional": "B3LYP", 
		 "basiset": "6-31G**", 
		 "properties": { 
			 "R2extent": 4326.2485, 
			 "electric_dipole_moment_norm": 1.88013827683, 
			 "electric_quadrupole_moment_norm": 8.02323378632, 
			 "total_energy": -983.105218709, 
			 "HOMO_LUMO_gap": 0.16099, 
			 "cosmo_polarized_energy": -19.53, 
			 "cosmo_cavitation_energy": 31.06, 
			 "cosmo_dispersion_energy": -22.34, 
			 "cosmo_repulsion_energy": 1.69, 
			 "cosmo_total_nonelectrostatic_energy": 10.41, 
			 "SMD_solvation_energy": 7.32 
		},
		"coords": [
			{
				"x": -3.934469101,
				"y": 1.5420529539,
				"z": -0.1696726605,
				"element": "N" 
			},
			{
				"x": -3.1278958315,
				"y": 0.6081260834,
				"z": -0.7260469571,
				"element": "C" 
			},
			{
				"x": -3.5166584422,
				"y": -0.2707841744,
				"z": -1.4917364585,
				"element": "O" 
			},
			{
				"x": -1.6683619328,
				"y": 0.7016693545,
				"z": -0.3434513221,
				"element": "C" 
			},
			{
				"x": -0.8158646132,
				"y": -0.223102989,
				"z": -0.8856848693,
				"element": "C" 
			},
			{
				"x": 0.5886234767,
				"y": -0.2658354733,
				"z": -0.6296080658,
				"element": "C" 
			},
			{
				"x": 1.4295612885,
				"y": -1.3452112504,
				"z": -1.2785839553,
				"element": "C" 
			},
			{
				"x": 1.2004462929,
				"y": -2.7439107899,
				"z": -0.6713089625,
				"element": "C" 
			},
			{
				"x": 1.7032675376,
				"y": -2.8733557231,
				"z": 0.6443613453,
				"element": "O" 
			},
			{
				"x": 1.0692047672,
				"y": 0.7013332802,
				"z": 0.2201122616,
				"element": "C" 
			},
			{
				"x": 0.2281340781,
				"y": 1.6304007923,
				"z": 0.7665780798,
				"element": "N" 
			},
			{
				"x": -1.1520136144,
				"y": 1.7240652061,
				"z": 0.5567208379,
				"element": "C" 
			},
			{
				"x": -1.7818309159,
				"y": 2.6237374342,
				"z": 1.1241350944,
				"element": "O" 
			},
			{
				"x": 2.5267664567,
				"y": 0.8387057163,
				"z": 0.619385471,
				"element": "C" 
			},
			{
				"x": 2.9645594002,
				"y": -0.2542013351,
				"z": 1.2685026622,
				"element": "F" 
			},
			{
				"x": 2.7024354471,
				"y": 1.899203486,
				"z": 1.442528618,
				"element": "F" 
			},
			{
				"x": 3.3201160386,
				"y": 1.0248165143,
				"z": -0.4514881742,
				"element": "F" 
			},
			{
				"x": -3.5418372335,
				"y": 2.2404857777,
				"z": 0.4547809566,
				"element": "H" 
			},
			{
				"x": -4.9152790237,
				"y": 1.5133358121,
				"z": -0.4012164118,
				"element": "H" 
			},
			{
				"x": -1.2640291664,
				"y": -0.9534653997,
				"z": -1.5552050934,
				"element": "H" 
			},
			{
				"x": 2.4935241659,
				"y": -1.1105081142,
				"z": -1.2204267146,
				"element": "H" 
			},
			{
				"x": 1.1688520191,
				"y": -1.3877991246,
				"z": -2.3435921666,
				"element": "H" 
			},
			{
				"x": 0.1305544835,
				"y": -3.0018109683,
				"z": -0.7256541699,
				"element": "H" 
			},
			{
				"x": 1.7422891992,
				"y": -3.4806702214,
				"z": -1.2723641365,
				"element": "H" 
			},
			{
				"x": 1.2359601673,
				"y": -2.2457504919,
				"z": 1.2106170606,
				"element": "H" 
			},
			{
				"x": 0.6105450559,
				"y": 2.3375736443,
				"z": 1.3840177306,
				"element": "H" 
			}
		],
		 "valence_orbital": [ 
			{
				"type": "occ",
				"energy": -0.28428,
				"method": "rhf"
			},
			{
				"type": "occ",
				"energy": -0.27977,
				"method": "rhf"
			},
			{
				"type": "occ",
				"energy": -0.26344,
				"method": "rhf"
			},
			{
				"type": "occ",
				"energy": -0.2563,
				"method": "rhf"
			},
			{
				"type": "occ",
				"energy": -0.24563,
				"method": "rhf"
			},
			{
				"type": "unocc",
				"energy": -0.08464,
				"method": "rhf"
			},
			{
				"type": "unocc",
				"energy": -0.02428,
				"method": "rhf"
			},
			{
				"type": "unocc",
				"energy": 0.03262,
				"method": "rhf"
			},
			{
				"type": "unocc",
				"energy": 0.07279,
				"method": "rhf"
			},
			{
				"type": "unocc",
				"energy": 0.07841,
				"method": "rhf"
			}
		],
		"cosmo_sigma_profile": { 
			"-0.025": 0.0,
			"-0.024": 0.0,
			"-0.023": 0.0,
			"-0.022": 0.0,
			"-0.021": 0.0,
			"-0.02": 0.0,
			"-0.019": 0.0,
			"-0.018": 0.0,
			"-0.017": 0.0,
			"-0.016": 0.0,
			"-0.015": 0.947913550245,
			"-0.014": 1.90523698478,
			"-0.013": 2.35489726271,
			"-0.012": 3.20809544423,
			"-0.011": 3.62945480375,
			"-0.01": 3.80284181683,
			"-0.009": 4.07683314054,
			"-0.008": 4.89282501346,
			"-0.007": 7.65329481671,
			"-0.006": 8.98978174413,
			"-0.005": 13.7095751458,
			"-0.004": 17.1469937065,
			"-0.003": 16.5795246932,
			"-0.002": 19.2162354695,
			"-0.001": 16.7782036495,
			"0.0": 16.0514449744,
			"0.001": 21.7495317729,
			"0.002": 21.3855895218,
			"0.003": 8.91906794782,
			"0.004": 5.35069200371,
			"0.005": 3.53378597745,
			"0.006": 4.51206352618,
			"0.007": 3.85181931749,
			"0.008": 3.63188196872,
			"0.009": 4.11930456543,
			"0.01": 3.65327692835,
			"0.011": 4.58032748969,
			"0.012": 5.7788746389,
			"0.013": 7.41129566536,
			"0.014": 6.27655367726,
			"0.015": 1.26794789467,
			"0.016": 0.0,
			"0.017": 0.0,
			"0.018": 0.0,
			"0.019": 0.0,
			"0.02": 0.0,
			"0.021": 0.0,
			"0.022": 0.0,
			"0.023": 0.0,
			"0.024": 0.0,
			"0.025": 0.0
		}
	}
}
