{
	 "smiles": "CC(C)C1=CC=C(SC(C(O)=O)C2=CC=CC=C2)C=C1", 
	 "Tm": 373.15, 
	 "num_atms": 38, 
	 "gaussian": { 
		 "optdone": 1, 
		 "sigma_profile": "yes", 
		 "theory": "DFT", 
		 "functional": "B3LYP", 
		 "basiset": "6-31G**", 
		 "properties": { 
			 "R2extent": 7138.9756, 
			 "electric_dipole_moment_norm": 1.17631007392, 
			 "electric_quadrupole_moment_norm": 12.3795730346, 
			 "total_energy": -1207.31739278, 
			 "HOMO_LUMO_gap": 0.19173, 
			 "cosmo_polarized_energy": -12.34, 
			 "cosmo_cavitation_energy": 42.53, 
			 "cosmo_dispersion_energy": -28.41, 
			 "cosmo_repulsion_energy": 2.18, 
			 "cosmo_total_nonelectrostatic_energy": 16.31, 
			 "SMD_solvation_energy": 7.54 
		},
		"coords": [
			{
				"x": -2.2226044651,
				"y": -0.4453878543,
				"z": -3.1761965432,
				"element": "C" 
			},
			{
				"x": -1.1142426011,
				"y": 0.6193791313,
				"z": -3.281720508,
				"element": "C" 
			},
			{
				"x": -0.2798208953,
				"y": 0.4255427788,
				"z": -4.5621054326,
				"element": "C" 
			},
			{
				"x": -0.2399014516,
				"y": 0.6495500564,
				"z": -2.0355949175,
				"element": "C" 
			},
			{
				"x": -0.1824038849,
				"y": 1.7956081445,
				"z": -1.2315330266,
				"element": "C" 
			},
			{
				"x": 0.6171996249,
				"y": 1.8430776464,
				"z": -0.0901158579,
				"element": "C" 
			},
			{
				"x": 1.3793014216,
				"y": 0.727476482,
				"z": 0.278798965,
				"element": "C" 
			},
			{
				"x": 2.4819296942,
				"y": 0.7936877832,
				"z": 1.6861493483,
				"element": "S" 
			},
			{
				"x": 1.4117194163,
				"y": 0.2607126682,
				"z": 3.1494396428,
				"element": "C" 
			},
			{
				"x": 0.5225504506,
				"y": 1.4335648896,
				"z": 3.5154257972,
				"element": "C" 
			},
			{
				"x": 1.0523182644,
				"y": 2.1361544127,
				"z": 4.544148841,
				"element": "O" 
			},
			{
				"x": -0.5126698185,
				"y": 1.7592571136,
				"z": 2.9725594671,
				"element": "O" 
			},
			{
				"x": 0.7172955562,
				"y": -1.0667392537,
				"z": 2.967560325,
				"element": "C" 
			},
			{
				"x": -0.5359923746,
				"y": -1.1918752855,
				"z": 2.3501375657,
				"element": "C" 
			},
			{
				"x": -1.1208445641,
				"y": -2.450660741,
				"z": 2.1986067295,
				"element": "C" 
			},
			{
				"x": -0.4662699978,
				"y": -3.5968400672,
				"z": 2.6502759326,
				"element": "C" 
			},
			{
				"x": 0.784644925,
				"y": -3.4807529122,
				"z": 3.260994642,
				"element": "C" 
			},
			{
				"x": 1.3689025514,
				"y": -2.2256140597,
				"z": 3.4177589014,
				"element": "C" 
			},
			{
				"x": 1.33078047,
				"y": -0.426559107,
				"z": -0.5169168295,
				"element": "C" 
			},
			{
				"x": 0.5318833718,
				"y": -0.4597788277,
				"z": -1.6575919925,
				"element": "C" 
			},
			{
				"x": -1.8002042614,
				"y": -1.4544134443,
				"z": -3.1160886209,
				"element": "H" 
			},
			{
				"x": -2.8396835152,
				"y": -0.2884839462,
				"z": -2.2861303498,
				"element": "H" 
			},
			{
				"x": -2.8755505254,
				"y": -0.4104787739,
				"z": -4.0551048595,
				"element": "H" 
			},
			{
				"x": -1.6046386003,
				"y": 1.5989893432,
				"z": -3.3533671571,
				"element": "H" 
			},
			{
				"x": 0.486341558,
				"y": 1.2010997171,
				"z": -4.6576753945,
				"element": "H" 
			},
			{
				"x": -0.9206112759,
				"y": 0.4671541041,
				"z": -5.4496147582,
				"element": "H" 
			},
			{
				"x": 0.226737464,
				"y": -0.5458238895,
				"z": -4.5637247875,
				"element": "H" 
			},
			{
				"x": -0.770940996,
				"y": 2.6680946398,
				"z": -1.5047153447,
				"element": "H" 
			},
			{
				"x": 0.6473918769,
				"y": 2.7401949876,
				"z": 0.5180332764,
				"element": "H" 
			},
			{
				"x": 2.1722075735,
				"y": 0.1696958577,
				"z": 3.9278054788,
				"element": "H" 
			},
			{
				"x": 0.4584850804,
				"y": 2.8922950308,
				"z": 4.6891425586,
				"element": "H" 
			},
			{
				"x": -1.0517613193,
				"y": -0.3036186204,
				"z": 2.0072499668,
				"element": "H" 
			},
			{
				"x": -2.0945428444,
				"y": -2.5322849433,
				"z": 1.7237881542,
				"element": "H" 
			},
			{
				"x": -0.9268246407,
				"y": -4.5733802864,
				"z": 2.5303806583,
				"element": "H" 
			},
			{
				"x": 1.3024471884,
				"y": -4.3656281813,
				"z": 3.6200591404,
				"element": "H" 
			},
			{
				"x": 2.3430686827,
				"y": -2.1406093352,
				"z": 3.8931214626,
				"element": "H" 
			},
			{
				"x": 1.9223794951,
				"y": -1.292074463,
				"z": -0.2374796747,
				"element": "H" 
			},
			{
				"x": 0.5115233662,
				"y": -1.3644307951,
				"z": -2.2593607991,
				"element": "H" 
			}
		],
		 "valence_orbital": [ 
			{
				"type": "occ",
				"energy": -0.25331,
				"method": "rhf"
			},
			{
				"type": "occ",
				"energy": -0.2519,
				"method": "rhf"
			},
			{
				"type": "occ",
				"energy": -0.2447,
				"method": "rhf"
			},
			{
				"type": "occ",
				"energy": -0.23861,
				"method": "rhf"
			},
			{
				"type": "occ",
				"energy": -0.22796,
				"method": "rhf"
			},
			{
				"type": "unocc",
				"energy": -0.03623,
				"method": "rhf"
			},
			{
				"type": "unocc",
				"energy": -0.00718,
				"method": "rhf"
			},
			{
				"type": "unocc",
				"energy": -0.0007,
				"method": "rhf"
			},
			{
				"type": "unocc",
				"energy": 0.00271,
				"method": "rhf"
			},
			{
				"type": "unocc",
				"energy": 0.01254,
				"method": "rhf"
			}
		],
		"cosmo_sigma_profile": { 
			"-0.025": 0.0,
			"-0.024": 0.0,
			"-0.023": 0.0,
			"-0.022": 0.0,
			"-0.021": 0.0,
			"-0.02": 0.0,
			"-0.019": 0.0589281346186,
			"-0.018": 0.99263656404,
			"-0.017": 0.906962828536,
			"-0.016": 0.719288315504,
			"-0.015": 0.621190173917,
			"-0.014": 0.855438365775,
			"-0.013": 0.601971009351,
			"-0.012": 0.604487417819,
			"-0.011": 1.0438042507,
			"-0.01": 0.983072210144,
			"-0.009": 0.7325596654,
			"-0.008": 2.73538653131,
			"-0.007": 3.43767453041,
			"-0.006": 9.68811921357,
			"-0.005": 20.430412759,
			"-0.004": 23.1272475663,
			"-0.003": 29.9001017577,
			"-0.002": 28.6923944654,
			"-0.001": 29.0149449439,
			"0.0": 28.69286874,
			"0.001": 31.363478591,
			"0.002": 25.0682529368,
			"0.003": 20.4361984738,
			"0.004": 26.5144455459,
			"0.005": 23.264161026,
			"0.006": 8.22030104132,
			"0.007": 5.41676089748,
			"0.008": 4.93810493152,
			"0.009": 3.24222397004,
			"0.01": 1.93772436025,
			"0.011": 2.64095996141,
			"0.012": 1.12369978515,
			"0.013": 0.0,
			"0.014": 0.0,
			"0.015": 0.0,
			"0.016": 0.0,
			"0.017": 0.0,
			"0.018": 0.0,
			"0.019": 0.0,
			"0.02": 0.0,
			"0.021": 0.0,
			"0.022": 0.0,
			"0.023": 0.0,
			"0.024": 0.0,
			"0.025": 0.0
		}
	}
}
