{
	 "smiles": "OCCNC1=C(C=C(C=C1)N(CCO)CCO)[N+]([O-])=O", 
	 "Tm": 368.65, 
	 "num_atms": 39, 
	 "gaussian": { 
		 "optdone": 1, 
		 "sigma_profile": "yes", 
		 "theory": "DFT", 
		 "functional": "B3LYP", 
		 "basiset": "6-31G**", 
		 "properties": { 
			 "R2extent": 7764.7748, 
			 "electric_dipole_moment_norm": 5.43028106639, 
			 "electric_quadrupole_moment_norm": 17.9247683544, 
			 "total_energy": -1008.95977845, 
			 "HOMO_LUMO_gap": 0.10583, 
			 "cosmo_polarized_energy": -25.63, 
			 "cosmo_cavitation_energy": 41.78, 
			 "cosmo_dispersion_energy": -28.85, 
			 "cosmo_repulsion_energy": 2.27, 
			 "cosmo_total_nonelectrostatic_energy": 15.2, 
			 "SMD_solvation_energy": 8.43 
		},
		"coords": [
			{
				"x": -1.3502118521,
				"y": -4.5360625162,
				"z": -2.2788667322,
				"element": "O" 
			},
			{
				"x": -2.2438177712,
				"y": -4.2204382674,
				"z": -1.2290994829,
				"element": "C" 
			},
			{
				"x": -1.5439342019,
				"y": -4.2523950109,
				"z": 0.1368898813,
				"element": "C" 
			},
			{
				"x": -0.4187366368,
				"y": -3.3318360012,
				"z": 0.2033181227,
				"element": "N" 
			},
			{
				"x": -0.4947232717,
				"y": -2.0261925966,
				"z": 0.6197689943,
				"element": "C" 
			},
			{
				"x": 0.6471157577,
				"y": -1.2158759178,
				"z": 0.8851121672,
				"element": "C" 
			},
			{
				"x": 0.540838858,
				"y": 0.1239472972,
				"z": 1.288644536,
				"element": "C" 
			},
			{
				"x": -0.6989176626,
				"y": 0.7299470112,
				"z": 1.498804276,
				"element": "C" 
			},
			{
				"x": -1.8396569557,
				"y": -0.0648543853,
				"z": 1.2283629318,
				"element": "C" 
			},
			{
				"x": -1.7383728183,
				"y": -1.3763022279,
				"z": 0.8004616082,
				"element": "C" 
			},
			{
				"x": -0.8151969646,
				"y": 2.0461971184,
				"z": 1.9635019251,
				"element": "N" 
			},
			{
				"x": 0.2634958922,
				"y": 2.6825309538,
				"z": 2.70647601,
				"element": "C" 
			},
			{
				"x": 1.1128367003,
				"y": 3.6813715009,
				"z": 1.9200926041,
				"element": "C" 
			},
			{
				"x": 1.7929786538,
				"y": 2.9833910422,
				"z": 0.8910159943,
				"element": "O" 
			},
			{
				"x": -2.0502681764,
				"y": 2.794225782,
				"z": 1.7943550697,
				"element": "C" 
			},
			{
				"x": -2.3307882513,
				"y": 3.2144590172,
				"z": 0.3411834644,
				"element": "C" 
			},
			{
				"x": -3.5095595074,
				"y": 4.0012344262,
				"z": 0.2442784523,
				"element": "O" 
			},
			{
				"x": 1.9979587981,
				"y": -1.727229015,
				"z": 0.7426358928,
				"element": "N" 
			},
			{
				"x": 2.9458565331,
				"y": -0.9855266578,
				"z": 1.0032090262,
				"element": "O" 
			},
			{
				"x": 2.1631718417,
				"y": -2.9062714284,
				"z": 0.3619716501,
				"element": "O" 
			},
			{
				"x": -0.6140394649,
				"y": -3.9112060614,
				"z": -2.2070937341,
				"element": "H" 
			},
			{
				"x": -2.7171580032,
				"y": -3.2377978987,
				"z": -1.3867733883,
				"element": "H" 
			},
			{
				"x": -3.0367566376,
				"y": -4.9759202241,
				"z": -1.2500032773,
				"element": "H" 
			},
			{
				"x": -2.2624472929,
				"y": -4.0568129466,
				"z": 0.9441845138,
				"element": "H" 
			},
			{
				"x": -1.1446857574,
				"y": -5.2591244992,
				"z": 0.2940764727,
				"element": "H" 
			},
			{
				"x": 0.5239660737,
				"y": -3.7014415939,
				"z": 0.2030129163,
				"element": "H" 
			},
			{
				"x": 1.4592919983,
				"y": 0.6832036506,
				"z": 1.3908181209,
				"element": "H" 
			},
			{
				"x": -2.8347063101,
				"y": 0.3463545965,
				"z": 1.3543641738,
				"element": "H" 
			},
			{
				"x": -2.6514594458,
				"y": -1.923202544,
				"z": 0.6000089783,
				"element": "H" 
			},
			{
				"x": -0.1663688367,
				"y": 3.2165531031,
				"z": 3.56571147,
				"element": "H" 
			},
			{
				"x": 0.9179921072,
				"y": 1.906132718,
				"z": 3.113348961,
				"element": "H" 
			},
			{
				"x": 0.466749201,
				"y": 4.4754626107,
				"z": 1.5112974951,
				"element": "H" 
			},
			{
				"x": 1.8149586396,
				"y": 4.159173615,
				"z": 2.6235137702,
				"element": "H" 
			},
			{
				"x": 2.3524678085,
				"y": 3.6031114695,
				"z": 0.4078911042,
				"element": "H" 
			},
			{
				"x": -1.9858940405,
				"y": 3.702236634,
				"z": 2.4002786814,
				"element": "H" 
			},
			{
				"x": -2.917023223,
				"y": 2.2368233609,
				"z": 2.1855418233,
				"element": "H" 
			},
			{
				"x": -2.3724944163,
				"y": 2.3299306139,
				"z": -0.3108849634,
				"element": "H" 
			},
			{
				"x": -1.509081703,
				"y": 3.8397076423,
				"z": -0.0203519466,
				"element": "H" 
			},
			{
				"x": -4.2687796617,
				"y": 3.4248956286,
				"z": 0.3990424372,
				"element": "H" 
			}
		],
		 "valence_orbital": [ 
			{
				"type": "occ",
				"energy": -0.27546,
				"method": "rhf"
			},
			{
				"type": "occ",
				"energy": -0.27109,
				"method": "rhf"
			},
			{
				"type": "occ",
				"energy": -0.26608,
				"method": "rhf"
			},
			{
				"type": "occ",
				"energy": -0.24749,
				"method": "rhf"
			},
			{
				"type": "occ",
				"energy": -0.18146,
				"method": "rhf"
			},
			{
				"type": "unocc",
				"energy": -0.07563,
				"method": "rhf"
			},
			{
				"type": "unocc",
				"energy": 0.00327,
				"method": "rhf"
			},
			{
				"type": "unocc",
				"energy": 0.02176,
				"method": "rhf"
			},
			{
				"type": "unocc",
				"energy": 0.0556,
				"method": "rhf"
			},
			{
				"type": "unocc",
				"energy": 0.06136,
				"method": "rhf"
			}
		],
		"cosmo_sigma_profile": { 
			"-0.025": 0.0,
			"-0.024": 0.0,
			"-0.023": 0.0,
			"-0.022": 0.0,
			"-0.021": 0.0,
			"-0.02": 0.0,
			"-0.019": 0.0,
			"-0.018": 0.0,
			"-0.017": 0.0,
			"-0.016": 0.667875706546,
			"-0.015": 2.32806074056,
			"-0.014": 2.12502601679,
			"-0.013": 2.70013485263,
			"-0.012": 2.53278069967,
			"-0.011": 2.76699086552,
			"-0.01": 2.62880320551,
			"-0.009": 3.64698987961,
			"-0.008": 5.57260287864,
			"-0.007": 7.9132058216,
			"-0.006": 13.4829985497,
			"-0.005": 20.7789425564,
			"-0.004": 29.260151226,
			"-0.003": 35.9245635125,
			"-0.002": 28.5471808346,
			"-0.001": 21.136562616,
			"0.0": 15.829919063,
			"0.001": 13.3417801943,
			"0.002": 12.8509668585,
			"0.003": 16.0758327825,
			"0.004": 13.1841804191,
			"0.005": 7.45709356182,
			"0.006": 6.99714629821,
			"0.007": 7.95815926541,
			"0.008": 9.0998009001,
			"0.009": 11.6312926023,
			"0.01": 7.85564548586,
			"0.011": 8.76158177904,
			"0.012": 4.3621658423,
			"0.013": 3.48747912257,
			"0.014": 4.95559029294,
			"0.015": 1.17985228674,
			"0.016": 0.0,
			"0.017": 0.0,
			"0.018": 0.0,
			"0.019": 0.0,
			"0.02": 0.0,
			"0.021": 0.0,
			"0.022": 0.0,
			"0.023": 0.0,
			"0.024": 0.0,
			"0.025": 0.0
		}
	}
}
