{
	 "smiles": "CC1=CC(C)=C(CS(=O)(=O)CC2=C(C)C=C(C)C=C2C)C(C)=C1", 
	 "Tm": 571.15, 
	 "num_atms": 49, 
	 "gaussian": { 
		 "optdone": 1, 
		 "sigma_profile": "yes", 
		 "theory": "DFT", 
		 "functional": "B3LYP", 
		 "basiset": "6-31G**", 
		 "properties": { 
			 "R2extent": 10442.0551, 
			 "electric_dipole_moment_norm": 4.34754277035, 
			 "electric_quadrupole_moment_norm": 15.753040013, 
			 "total_energy": -1326.42113784, 
			 "HOMO_LUMO_gap": 0.19896, 
			 "cosmo_polarized_energy": -16.61, 
			 "cosmo_cavitation_energy": 49.21, 
			 "cosmo_dispersion_energy": -33.55, 
			 "cosmo_repulsion_energy": 2.51, 
			 "cosmo_total_nonelectrostatic_energy": 18.17, 
			 "SMD_solvation_energy": 7.67 
		},
		"coords": [
			{
				"x": -5.7332703503,
				"y": -0.7497098687,
				"z": 3.2252279593,
				"element": "C" 
			},
			{
				"x": -4.5755173742,
				"y": -0.1592231074,
				"z": 2.4558729377,
				"element": "C" 
			},
			{
				"x": -3.637407946,
				"y": -0.9800840209,
				"z": 1.8251744493,
				"element": "C" 
			},
			{
				"x": -2.544400242,
				"y": -0.4583419766,
				"z": 1.1271424624,
				"element": "C" 
			},
			{
				"x": -1.5622490882,
				"y": -1.4109312789,
				"z": 0.4817647622,
				"element": "C" 
			},
			{
				"x": -2.38493744,
				"y": 0.9436133018,
				"z": 1.056109324,
				"element": "C" 
			},
			{
				"x": -1.2084869169,
				"y": 1.5314897625,
				"z": 0.3194191139,
				"element": "C" 
			},
			{
				"x": -1.5626961788,
				"y": 1.8764342539,
				"z": -1.4597980402,
				"element": "S" 
			},
			{
				"x": -2.4353927799,
				"y": 3.0620678132,
				"z": -1.5599303763,
				"element": "O" 
			},
			{
				"x": -1.9824621258,
				"y": 0.6113783603,
				"z": -2.0924678625,
				"element": "O" 
			},
			{
				"x": 0.0656044769,
				"y": 2.4049095528,
				"z": -2.1774579693,
				"element": "C" 
			},
			{
				"x": 1.1907955433,
				"y": 1.4059545697,
				"z": -2.1511809422,
				"element": "C" 
			},
			{
				"x": 1.2785671589,
				"y": 0.4048070815,
				"z": -3.148744084,
				"element": "C" 
			},
			{
				"x": 0.3010108597,
				"y": 0.33010091,
				"z": -4.3008657381,
				"element": "C" 
			},
			{
				"x": 2.3248622816,
				"y": -0.5200805679,
				"z": -3.0913849899,
				"element": "C" 
			},
			{
				"x": 3.2977292415,
				"y": -0.4852635812,
				"z": -2.0887390051,
				"element": "C" 
			},
			{
				"x": 4.3927714846,
				"y": -1.5231793891,
				"z": -2.0311565424,
				"element": "C" 
			},
			{
				"x": 3.2223533424,
				"y": 0.539019426,
				"z": -1.1430740736,
				"element": "C" 
			},
			{
				"x": 2.1953754156,
				"y": 1.4892327488,
				"z": -1.1585158518,
				"element": "C" 
			},
			{
				"x": 2.236992286,
				"y": 2.6059235247,
				"z": -0.1353244638,
				"element": "C" 
			},
			{
				"x": -3.3180719061,
				"y": 1.793558658,
				"z": 1.6910101586,
				"element": "C" 
			},
			{
				"x": -3.1799733219,
				"y": 3.3002921975,
				"z": 1.6627941578,
				"element": "C" 
			},
			{
				"x": -4.3942007198,
				"y": 1.2237718946,
				"z": 2.3776425459,
				"element": "C" 
			},
			{
				"x": -6.0434586643,
				"y": -1.711388444,
				"z": 2.8055213551,
				"element": "H" 
			},
			{
				"x": -6.5995017805,
				"y": -0.0813082505,
				"z": 3.2199197683,
				"element": "H" 
			},
			{
				"x": -5.4637164081,
				"y": -0.9246098915,
				"z": 4.274649454,
				"element": "H" 
			},
			{
				"x": -3.7591612524,
				"y": -2.0598472084,
				"z": 1.8730771748,
				"element": "H" 
			},
			{
				"x": -1.8763890989,
				"y": -2.4463848834,
				"z": 0.6356625606,
				"element": "H" 
			},
			{
				"x": -1.4823633768,
				"y": -1.2337986185,
				"z": -0.5941345226,
				"element": "H" 
			},
			{
				"x": -0.5569984311,
				"y": -1.3106289785,
				"z": 0.911701363,
				"element": "H" 
			},
			{
				"x": -0.9005374059,
				"y": 2.4941112085,
				"z": 0.7324430634,
				"element": "H" 
			},
			{
				"x": -0.3495581642,
				"y": 0.8575954211,
				"z": 0.3023619419,
				"element": "H" 
			},
			{
				"x": -0.239431532,
				"y": 2.6738619975,
				"z": -3.1929047164,
				"element": "H" 
			},
			{
				"x": 0.2986311381,
				"y": 3.3311404461,
				"z": -1.6497390909,
				"element": "H" 
			},
			{
				"x": -0.7231934472,
				"y": 0.1757851852,
				"z": -3.953850814,
				"element": "H" 
			},
			{
				"x": 0.3118556285,
				"y": 1.2542695502,
				"z": -4.8934243488,
				"element": "H" 
			},
			{
				"x": 0.5672998494,
				"y": -0.4883751049,
				"z": -4.9743660264,
				"element": "H" 
			},
			{
				"x": 2.3840005488,
				"y": -1.2867581469,
				"z": -3.8605460665,
				"element": "H" 
			},
			{
				"x": 5.2742046086,
				"y": -1.147721521,
				"z": -1.5030837908,
				"element": "H" 
			},
			{
				"x": 4.7030162079,
				"y": -1.8338452774,
				"z": -3.0336294853,
				"element": "H" 
			},
			{
				"x": 4.0548451766,
				"y": -2.4241197791,
				"z": -1.5037478979,
				"element": "H" 
			},
			{
				"x": 3.9903080626,
				"y": 0.6109828337,
				"z": -0.3762635141,
				"element": "H" 
			},
			{
				"x": 3.1327465535,
				"y": 2.5202332613,
				"z": 0.4845742025,
				"element": "H" 
			},
			{
				"x": 1.3759003189,
				"y": 2.6002889983,
				"z": 0.5406570126,
				"element": "H" 
			},
			{
				"x": 2.2655712948,
				"y": 3.5933471383,
				"z": -0.6112530507,
				"element": "H" 
			},
			{
				"x": -4.0181801792,
				"y": 3.7708611531,
				"z": 2.1828028574,
				"element": "H" 
			},
			{
				"x": -2.2615524937,
				"y": 3.6312353965,
				"z": 2.1662262285,
				"element": "H" 
			},
			{
				"x": -3.1525927323,
				"y": 3.6830984951,
				"z": 0.6390238665,
				"element": "H" 
			},
			{
				"x": -5.1124401221,
				"y": 1.8819347549,
				"z": 2.8613045436,
				"element": "H" 
			}
		],
		 "valence_orbital": [ 
			{
				"type": "occ",
				"energy": -0.2867,
				"method": "rhf"
			},
			{
				"type": "occ",
				"energy": -0.24237,
				"method": "rhf"
			},
			{
				"type": "occ",
				"energy": -0.23859,
				"method": "rhf"
			},
			{
				"type": "occ",
				"energy": -0.23159,
				"method": "rhf"
			},
			{
				"type": "occ",
				"energy": -0.22407,
				"method": "rhf"
			},
			{
				"type": "unocc",
				"energy": -0.02511,
				"method": "rhf"
			},
			{
				"type": "unocc",
				"energy": -0.00665,
				"method": "rhf"
			},
			{
				"type": "unocc",
				"energy": -0.00172,
				"method": "rhf"
			},
			{
				"type": "unocc",
				"energy": 0.00936,
				"method": "rhf"
			},
			{
				"type": "unocc",
				"energy": 0.06419,
				"method": "rhf"
			}
		],
		"cosmo_sigma_profile": { 
			"-0.025": 0.0,
			"-0.024": 0.0,
			"-0.023": 0.0,
			"-0.022": 0.0,
			"-0.021": 0.0,
			"-0.02": 0.0,
			"-0.019": 0.0,
			"-0.018": 0.0,
			"-0.017": 0.0,
			"-0.016": 0.0,
			"-0.015": 0.0,
			"-0.014": 0.0,
			"-0.013": 0.000557024922202,
			"-0.012": 0.272370544559,
			"-0.011": 0.547648897599,
			"-0.01": 0.663116523846,
			"-0.009": 1.12147550001,
			"-0.008": 3.7279833284,
			"-0.007": 7.98001299821,
			"-0.006": 8.82373294152,
			"-0.005": 20.5054718346,
			"-0.004": 41.8874749881,
			"-0.003": 34.9058699357,
			"-0.002": 35.9429283241,
			"-0.001": 36.3999539239,
			"0.0": 50.183670881,
			"0.001": 33.2032294095,
			"0.002": 16.8030277265,
			"0.003": 15.654972346,
			"0.004": 17.461716005,
			"0.005": 18.5712210878,
			"0.006": 14.797292909,
			"0.007": 4.4106704832,
			"0.008": 3.44557117497,
			"0.009": 2.87941674262,
			"0.01": 4.73271378423,
			"0.011": 4.2504866033,
			"0.012": 6.06301964448,
			"0.013": 1.99567014006,
			"0.014": 0.0,
			"0.015": 0.0,
			"0.016": 0.0,
			"0.017": 0.0,
			"0.018": 0.0,
			"0.019": 0.0,
			"0.02": 0.0,
			"0.021": 0.0,
			"0.022": 0.0,
			"0.023": 0.0,
			"0.024": 0.0,
			"0.025": 0.0
		}
	}
}
