{
	 "smiles": "CC(C)(C)OOC(=O)C1=CC=CC=C1", 
	 "Tm": 280.65, 
	 "num_atms": 28, 
	 "gaussian": { 
		 "optdone": 1, 
		 "sigma_profile": "yes", 
		 "theory": "DFT", 
		 "functional": "B3LYP", 
		 "basiset": "6-31G**", 
		 "properties": { 
			 "R2extent": 4568.474, 
			 "electric_dipole_moment_norm": 2.65551802291, 
			 "electric_quadrupole_moment_norm": 15.2271845976, 
			 "total_energy": -653.216408883, 
			 "HOMO_LUMO_gap": 0.21326, 
			 "cosmo_polarized_energy": -9.33, 
			 "cosmo_cavitation_energy": 31.58, 
			 "cosmo_dispersion_energy": -22.01, 
			 "cosmo_repulsion_energy": 1.73, 
			 "cosmo_total_nonelectrostatic_energy": 11.3, 
			 "SMD_solvation_energy": 6.18 
		},
		"coords": [
			{
				"x": 2.1543818524,
				"y": -1.8697195281,
				"z": 2.6312892252,
				"element": "C" 
			},
			{
				"x": 1.0314352659,
				"y": -1.7166141055,
				"z": 1.5973158304,
				"element": "C" 
			},
			{
				"x": 1.5516379447,
				"y": -1.9204071604,
				"z": 0.170945301,
				"element": "C" 
			},
			{
				"x": -0.1484640914,
				"y": -2.6378583899,
				"z": 1.9185095903,
				"element": "C" 
			},
			{
				"x": 0.6692515969,
				"y": -0.322256107,
				"z": 1.8011768666,
				"element": "O" 
			},
			{
				"x": -0.4030261068,
				"y": 0.0346734489,
				"z": 0.8919095627,
				"element": "O" 
			},
			{
				"x": -1.5443344495,
				"y": 0.3618500993,
				"z": 1.5831312651,
				"element": "C" 
			},
			{
				"x": -1.6942263675,
				"y": 0.2239227364,
				"z": 2.7728026171,
				"element": "O" 
			},
			{
				"x": -2.5738851843,
				"y": 0.8972654465,
				"z": 0.6419898629,
				"element": "C" 
			},
			{
				"x": -2.3124653017,
				"y": 1.1639460818,
				"z": -0.7102052539,
				"element": "C" 
			},
			{
				"x": -3.3256096649,
				"y": 1.665191694,
				"z": -1.5260737341,
				"element": "C" 
			},
			{
				"x": -4.5979747248,
				"y": 1.9023600345,
				"z": -1.0004591117,
				"element": "C" 
			},
			{
				"x": -4.8592052458,
				"y": 1.6400829865,
				"z": 0.3470859611,
				"element": "C" 
			},
			{
				"x": -3.8508602037,
				"y": 1.1403191196,
				"z": 1.1670660595,
				"element": "C" 
			},
			{
				"x": 2.5609077106,
				"y": -2.884040659,
				"z": 2.5824985991,
				"element": "H" 
			},
			{
				"x": 1.775997448,
				"y": -1.6922931104,
				"z": 3.6413889561,
				"element": "H" 
			},
			{
				"x": 2.9633483315,
				"y": -1.1615179288,
				"z": 2.4316621797,
				"element": "H" 
			},
			{
				"x": 2.3808510694,
				"y": -1.2374163079,
				"z": -0.0351572555,
				"element": "H" 
			},
			{
				"x": 1.9061988921,
				"y": -2.9476491215,
				"z": 0.0386731231,
				"element": "H" 
			},
			{
				"x": 0.7610677014,
				"y": -1.7364440846,
				"z": -0.5608251704,
				"element": "H" 
			},
			{
				"x": -0.5564564661,
				"y": -2.4030590607,
				"z": 2.9042408135,
				"element": "H" 
			},
			{
				"x": 0.1774894437,
				"y": -3.6828041846,
				"z": 1.9067820251,
				"element": "H" 
			},
			{
				"x": -0.9453760012,
				"y": -2.5289737738,
				"z": 1.1777416017,
				"element": "H" 
			},
			{
				"x": -1.3226266794,
				"y": 0.9856151812,
				"z": -1.1140634874,
				"element": "H" 
			},
			{
				"x": -3.1213974385,
				"y": 1.8737734728,
				"z": -2.5720865564,
				"element": "H" 
			},
			{
				"x": -5.3843742485,
				"y": 2.2934499672,
				"z": -1.6397827166,
				"element": "H" 
			},
			{
				"x": -5.84738392,
				"y": 1.8265141712,
				"z": 0.7570195429,
				"element": "H" 
			},
			{
				"x": -4.0273011629,
				"y": 0.9325890823,
				"z": 2.2169243032,
				"element": "H" 
			}
		],
		 "valence_orbital": [ 
			{
				"type": "occ",
				"energy": -0.30699,
				"method": "rhf"
			},
			{
				"type": "occ",
				"energy": -0.27668,
				"method": "rhf"
			},
			{
				"type": "occ",
				"energy": -0.26904,
				"method": "rhf"
			},
			{
				"type": "occ",
				"energy": -0.26163,
				"method": "rhf"
			},
			{
				"type": "occ",
				"energy": -0.26072,
				"method": "rhf"
			},
			{
				"type": "unocc",
				"energy": -0.04746,
				"method": "rhf"
			},
			{
				"type": "unocc",
				"energy": -0.01057,
				"method": "rhf"
			},
			{
				"type": "unocc",
				"energy": 0.0117,
				"method": "rhf"
			},
			{
				"type": "unocc",
				"energy": 0.05646,
				"method": "rhf"
			},
			{
				"type": "unocc",
				"energy": 0.08384,
				"method": "rhf"
			}
		],
		"cosmo_sigma_profile": { 
			"-0.025": 0.0,
			"-0.024": 0.0,
			"-0.023": 0.0,
			"-0.022": 0.0,
			"-0.021": 0.0,
			"-0.02": 0.0,
			"-0.019": 0.0,
			"-0.018": 0.0,
			"-0.017": 0.0,
			"-0.016": 0.0,
			"-0.015": 0.0,
			"-0.014": 0.0,
			"-0.013": 0.0,
			"-0.012": 0.0,
			"-0.011": 0.0,
			"-0.01": 0.0,
			"-0.009": 0.0,
			"-0.008": 0.0,
			"-0.007": 2.5784676527,
			"-0.006": 9.27455960127,
			"-0.005": 13.8268877142,
			"-0.004": 24.7613430003,
			"-0.003": 24.6212930378,
			"-0.002": 25.4720977562,
			"-0.001": 25.7316146028,
			"0.0": 31.3731374375,
			"0.001": 20.16201395,
			"0.002": 14.9665347668,
			"0.003": 15.2139426344,
			"0.004": 12.2221052115,
			"0.005": 3.81949191288,
			"0.006": 4.11580835348,
			"0.007": 2.15187828606,
			"0.008": 4.12855718894,
			"0.009": 3.42923200669,
			"0.01": 3.43257932013,
			"0.011": 4.25436953784,
			"0.012": 2.09823273246,
			"0.013": 1.01653042477,
			"0.014": 0.527443867402,
			"0.015": 0.0,
			"0.016": 0.0,
			"0.017": 0.0,
			"0.018": 0.0,
			"0.019": 0.0,
			"0.02": 0.0,
			"0.021": 0.0,
			"0.022": 0.0,
			"0.023": 0.0,
			"0.024": 0.0,
			"0.025": 0.0
		}
	}
}
