{
	 "smiles": "CC(CC(=O)C1=CC(Br)=CC=C1)C(O)=O", 
	 "Tm": 369.15, 
	 "num_atms": 26, 
	 "gaussian": { 
		 "optdone": 1, 
		 "sigma_profile": "yes", 
		 "theory": "DFT", 
		 "functional": "B3LYP", 
		 "basiset": "6-31G**", 
		 "properties": { 
			 "R2extent": 5952.6099, 
			 "electric_dipole_moment_norm": 2.36990787585, 
			 "electric_quadrupole_moment_norm": 13.0325512694, 
			 "total_energy": -3222.8957673, 
			 "HOMO_LUMO_gap": 0.18345, 
			 "cosmo_polarized_energy": -14.68, 
			 "cosmo_cavitation_energy": 33.02, 
			 "cosmo_dispersion_energy": -22.97, 
			 "cosmo_repulsion_energy": 1.83, 
			 "cosmo_total_nonelectrostatic_energy": 11.87, 
			 "SMD_solvation_energy": 6.0 
		},
		"coords": [
			{
				"x": -3.0391445241,
				"y": -0.314653824,
				"z": -1.4781888925,
				"element": "C" 
			},
			{
				"x": -1.7189139964,
				"y": 0.2819265735,
				"z": -0.975792035,
				"element": "C" 
			},
			{
				"x": -0.5309998703,
				"y": -0.6812001113,
				"z": -1.2677397363,
				"element": "C" 
			},
			{
				"x": 0.8028487178,
				"y": -0.1933947191,
				"z": -0.7108689276,
				"element": "C" 
			},
			{
				"x": 1.5937114638,
				"y": 0.3825103938,
				"z": -1.4421516002,
				"element": "O" 
			},
			{
				"x": 1.1320687596,
				"y": -0.4046563514,
				"z": 0.7404465892,
				"element": "C" 
			},
			{
				"x": 0.2867528732,
				"y": -1.0997801449,
				"z": 1.6178987163,
				"element": "C" 
			},
			{
				"x": 0.6598777253,
				"y": -1.2558182769,
				"z": 2.9507350175,
				"element": "C" 
			},
			{
				"x": -0.4978650814,
				"y": -2.2051317807,
				"z": 4.1400267146,
				"element": "Br" 
			},
			{
				"x": 1.8593709033,
				"y": -0.7359041778,
				"z": 3.4331704305,
				"element": "C" 
			},
			{
				"x": 2.6991651764,
				"y": -0.0446398953,
				"z": 2.5551626015,
				"element": "C" 
			},
			{
				"x": 2.34117454,
				"y": 0.1213493847,
				"z": 1.2215214702,
				"element": "C" 
			},
			{
				"x": -1.4498473447,
				"y": 1.6163700045,
				"z": -1.6598149941,
				"element": "C" 
			},
			{
				"x": -0.8605270619,
				"y": 2.5012938019,
				"z": -0.8232185182,
				"element": "O" 
			},
			{
				"x": -1.7039079752,
				"y": 1.8713615629,
				"z": -2.8157774489,
				"element": "O" 
			},
			{
				"x": -3.2229945193,
				"y": -1.2881624322,
				"z": -1.0136089327,
				"element": "H" 
			},
			{
				"x": -3.0107479257,
				"y": -0.440150156,
				"z": -2.5634217784,
				"element": "H" 
			},
			{
				"x": -3.8815970893,
				"y": 0.3409697376,
				"z": -1.2389264799,
				"element": "H" 
			},
			{
				"x": -1.7718986285,
				"y": 0.464754636,
				"z": 0.1023841173,
				"element": "H" 
			},
			{
				"x": -0.4076062752,
				"y": -0.7724036,
				"z": -2.3501328604,
				"element": "H" 
			},
			{
				"x": -0.7840000604,
				"y": -1.6694931337,
				"z": -0.8700060031,
				"element": "H" 
			},
			{
				"x": -0.6518241687,
				"y": -1.5214116633,
				"z": 1.2802986639,
				"element": "H" 
			},
			{
				"x": 2.1313224052,
				"y": -0.869642078,
				"z": 4.474062975,
				"element": "H" 
			},
			{
				"x": 3.635563215,
				"y": 0.3633125503,
				"z": 2.9237572555,
				"element": "H" 
			},
			{
				"x": 2.9790506749,
				"y": 0.6543694336,
				"z": 0.525389093,
				"element": "H" 
			},
			{
				"x": -0.6602319333,
				"y": 3.2905242659,
				"z": -1.3552054374,
				"element": "H" 
			}
		],
		 "valence_orbital": [ 
			{
				"type": "occ",
				"energy": -0.29792,
				"method": "rhf"
			},
			{
				"type": "occ",
				"energy": -0.27944,
				"method": "rhf"
			},
			{
				"type": "occ",
				"energy": -0.27487,
				"method": "rhf"
			},
			{
				"type": "occ",
				"energy": -0.25776,
				"method": "rhf"
			},
			{
				"type": "occ",
				"energy": -0.25426,
				"method": "rhf"
			},
			{
				"type": "unocc",
				"energy": -0.07081,
				"method": "rhf"
			},
			{
				"type": "unocc",
				"energy": -0.02674,
				"method": "rhf"
			},
			{
				"type": "unocc",
				"energy": -0.00392,
				"method": "rhf"
			},
			{
				"type": "unocc",
				"energy": 0.00442,
				"method": "rhf"
			},
			{
				"type": "unocc",
				"energy": 0.02353,
				"method": "rhf"
			}
		],
		"cosmo_sigma_profile": { 
			"-0.025": 0.0,
			"-0.024": 0.0,
			"-0.023": 0.0,
			"-0.022": 0.0,
			"-0.021": 0.0,
			"-0.02": 0.0,
			"-0.019": 0.0227142162941,
			"-0.018": 0.825680223956,
			"-0.017": 1.13950328104,
			"-0.016": 0.503741372651,
			"-0.015": 0.838262807995,
			"-0.014": 1.00562389819,
			"-0.013": 0.425825035978,
			"-0.012": 0.470125681819,
			"-0.011": 1.1490042595,
			"-0.01": 0.756347141479,
			"-0.009": 2.13763611163,
			"-0.008": 4.43218605979,
			"-0.007": 7.78168805815,
			"-0.006": 11.714181674,
			"-0.005": 16.7782839193,
			"-0.004": 19.0521998751,
			"-0.003": 19.5630645806,
			"-0.002": 17.4830128917,
			"-0.001": 17.5210973611,
			"0.0": 19.5121895167,
			"0.001": 23.041180793,
			"0.002": 24.8427433134,
			"0.003": 14.6169521901,
			"0.004": 15.9234036833,
			"0.005": 9.42411393589,
			"0.006": 3.77508963947,
			"0.007": 4.24283131114,
			"0.008": 4.35489947234,
			"0.009": 3.85498335611,
			"0.01": 4.30584919832,
			"0.011": 7.4412031696,
			"0.012": 5.91007103868,
			"0.013": 0.411632936669,
			"0.014": 0.0,
			"0.015": 0.0,
			"0.016": 0.0,
			"0.017": 0.0,
			"0.018": 0.0,
			"0.019": 0.0,
			"0.02": 0.0,
			"0.021": 0.0,
			"0.022": 0.0,
			"0.023": 0.0,
			"0.024": 0.0,
			"0.025": 0.0
		}
	}
}
