{
	 "smiles": "FC1=CC2=C(N=CC=C2)C(CBr)=C1", 
	 "Tm": 370.15, 
	 "num_atms": 20, 
	 "gaussian": { 
		 "optdone": 1, 
		 "sigma_profile": "yes", 
		 "theory": "DFT", 
		 "functional": "B3LYP", 
		 "basiset": "6-31G**", 
		 "properties": { 
			 "R2extent": 5313.14, 
			 "electric_dipole_moment_norm": 3.37649709759, 
			 "electric_quadrupole_moment_norm": 18.4876394256, 
			 "total_energy": -3111.28370521, 
			 "HOMO_LUMO_gap": 0.16804, 
			 "cosmo_polarized_energy": -8.63, 
			 "cosmo_cavitation_energy": 27.01, 
			 "cosmo_dispersion_energy": -19.9, 
			 "cosmo_repulsion_energy": 1.54, 
			 "cosmo_total_nonelectrostatic_energy": 8.65, 
			 "SMD_solvation_energy": 2.76 
		},
		"coords": [
			{
				"x": 1.2424887472,
				"y": 2.935392389,
				"z": -0.4683809389,
				"element": "F" 
			},
			{
				"x": 1.235199412,
				"y": 1.6416966512,
				"z": -0.0912524265,
				"element": "C" 
			},
			{
				"x": 0.9497362325,
				"y": 1.3154544227,
				"z": 1.2096225127,
				"element": "C" 
			},
			{
				"x": 0.9406263275,
				"y": -0.0530141326,
				"z": 1.5807988598,
				"element": "C" 
			},
			{
				"x": 1.2284315599,
				"y": -1.0616719805,
				"z": 0.6050550788,
				"element": "C" 
			},
			{
				"x": 1.2161250652,
				"y": -2.3897562919,
				"z": 0.9064758643,
				"element": "N" 
			},
			{
				"x": 0.9429630295,
				"y": -2.7471020417,
				"z": 2.1449752817,
				"element": "C" 
			},
			{
				"x": 0.6566012745,
				"y": -1.8306870812,
				"z": 3.187077991,
				"element": "C" 
			},
			{
				"x": 0.652178506,
				"y": -0.4865915314,
				"z": 2.9010637188,
				"element": "C" 
			},
			{
				"x": 1.5319347407,
				"y": -0.6689368644,
				"z": -0.7402184422,
				"element": "C" 
			},
			{
				"x": 1.8438825288,
				"y": -1.7082122634,
				"z": -1.7648397021,
				"element": "C" 
			},
			{
				"x": 3.8164607231,
				"y": -2.0355132691,
				"z": -1.9041404394,
				"element": "Br" 
			},
			{
				"x": 1.5266474182,
				"y": 0.6725502336,
				"z": -1.069760894,
				"element": "C" 
			},
			{
				"x": 0.7341526064,
				"y": 2.0934298224,
				"z": 1.9345499264,
				"element": "H" 
			},
			{
				"x": 0.9412775233,
				"y": -3.8165530709,
				"z": 2.3512317579,
				"element": "H" 
			},
			{
				"x": 0.4418052187,
				"y": -2.1967383364,
				"z": 4.1859049744,
				"element": "H" 
			},
			{
				"x": 0.4313536066,
				"y": 0.2513113988,
				"z": 3.6677878958,
				"element": "H" 
			},
			{
				"x": 1.549874685,
				"y": -1.4068081292,
				"z": -2.7679732607,
				"element": "H" 
			},
			{
				"x": 1.4296997679,
				"y": -2.675207784,
				"z": -1.4965453077,
				"element": "H" 
			},
			{
				"x": 1.758561027,
				"y": 1.0042578591,
				"z": -2.0768324501,
				"element": "H" 
			}
		],
		 "valence_orbital": [ 
			{
				"type": "occ",
				"energy": -0.27321,
				"method": "rhf"
			},
			{
				"type": "occ",
				"energy": -0.26659,
				"method": "rhf"
			},
			{
				"type": "occ",
				"energy": -0.26242,
				"method": "rhf"
			},
			{
				"type": "occ",
				"energy": -0.25828,
				"method": "rhf"
			},
			{
				"type": "occ",
				"energy": -0.23892,
				"method": "rhf"
			},
			{
				"type": "unocc",
				"energy": -0.07088,
				"method": "rhf"
			},
			{
				"type": "unocc",
				"energy": -0.02539,
				"method": "rhf"
			},
			{
				"type": "unocc",
				"energy": -0.01918,
				"method": "rhf"
			},
			{
				"type": "unocc",
				"energy": 0.0358,
				"method": "rhf"
			},
			{
				"type": "unocc",
				"energy": 0.07987,
				"method": "rhf"
			}
		],
		"cosmo_sigma_profile": { 
			"-0.025": 0.0,
			"-0.024": 0.0,
			"-0.023": 0.0,
			"-0.022": 0.0,
			"-0.021": 0.0,
			"-0.02": 0.0,
			"-0.019": 0.0,
			"-0.018": 0.0,
			"-0.017": 0.0,
			"-0.016": 0.0,
			"-0.015": 0.0,
			"-0.014": 0.0,
			"-0.013": 0.0,
			"-0.012": 0.0,
			"-0.011": 0.0,
			"-0.01": 0.0,
			"-0.009": 0.352860131733,
			"-0.008": 8.7209789276,
			"-0.007": 10.4999626728,
			"-0.006": 13.0213003946,
			"-0.005": 11.6296476857,
			"-0.004": 11.3310776587,
			"-0.003": 9.99303155701,
			"-0.002": 10.3462296029,
			"-0.001": 12.548502535,
			"0.0": 21.2428415694,
			"0.001": 27.8186370841,
			"0.002": 19.4140697329,
			"0.003": 12.6373596819,
			"0.004": 17.7534734591,
			"0.005": 8.73035554073,
			"0.006": 13.0921207231,
			"0.007": 6.51408446844,
			"0.008": 1.80932919215,
			"0.009": 0.892233489508,
			"0.01": 1.26948105634,
			"0.011": 0.954620508862,
			"0.012": 0.161528897222,
			"0.013": 0.0,
			"0.014": 0.0,
			"0.015": 0.0,
			"0.016": 0.0,
			"0.017": 0.0,
			"0.018": 0.0,
			"0.019": 0.0,
			"0.02": 0.0,
			"0.021": 0.0,
			"0.022": 0.0,
			"0.023": 0.0,
			"0.024": 0.0,
			"0.025": 0.0
		}
	}
}
