{
	 "smiles": "CC(C)(C)OC(=O)NC1=CC=C(CN)C=C1", 
	 "Tm": 364.65, 
	 "num_atms": 34, 
	 "gaussian": { 
		 "optdone": 1, 
		 "sigma_profile": "yes", 
		 "theory": "DFT", 
		 "functional": "B3LYP", 
		 "basiset": "6-31G**", 
		 "properties": { 
			 "R2extent": 5627.6716, 
			 "electric_dipole_moment_norm": 2.19081038203, 
			 "electric_quadrupole_moment_norm": 16.9670864891, 
			 "total_energy": -728.113004678, 
			 "HOMO_LUMO_gap": 0.20764, 
			 "cosmo_polarized_energy": -12.65, 
			 "cosmo_cavitation_energy": 36.34, 
			 "cosmo_dispersion_energy": -25.65, 
			 "cosmo_repulsion_energy": 2.02, 
			 "cosmo_total_nonelectrostatic_energy": 12.71, 
			 "SMD_solvation_energy": 6.33 
		},
		"coords": [
			{
				"x": 1.3777454181,
				"y": -2.5861075582,
				"z": -3.5032815295,
				"element": "C" 
			},
			{
				"x": 2.0407037417,
				"y": -1.5744147115,
				"z": -2.5633615648,
				"element": "C" 
			},
			{
				"x": 1.9130914537,
				"y": -0.1530871513,
				"z": -3.1172280541,
				"element": "C" 
			},
			{
				"x": 3.5059078953,
				"y": -1.9158854615,
				"z": -2.2751271984,
				"element": "C" 
			},
			{
				"x": 1.2843597402,
				"y": -1.492970136,
				"z": -1.2969034074,
				"element": "O" 
			},
			{
				"x": 1.1662563566,
				"y": -2.5701405517,
				"z": -0.499567952,
				"element": "C" 
			},
			{
				"x": 1.6328367579,
				"y": -3.6793909769,
				"z": -0.7080452125,
				"element": "O" 
			},
			{
				"x": 0.4343847357,
				"y": -2.3169138356,
				"z": 0.6427571763,
				"element": "N" 
			},
			{
				"x": -0.2104117576,
				"y": -1.1804021177,
				"z": 1.1738841845,
				"element": "C" 
			},
			{
				"x": -0.3009520758,
				"y": 0.0668364077,
				"z": 0.5364822175,
				"element": "C" 
			},
			{
				"x": -0.9701515073,
				"y": 1.119007681,
				"z": 1.1595507123,
				"element": "C" 
			},
			{
				"x": -1.5689662043,
				"y": 0.9746200764,
				"z": 2.4160976826,
				"element": "C" 
			},
			{
				"x": -2.262708166,
				"y": 2.1388162067,
				"z": 3.0959790098,
				"element": "C" 
			},
			{
				"x": -2.9752508776,
				"y": 2.9831540108,
				"z": 2.1310652469,
				"element": "N" 
			},
			{
				"x": -1.4825552643,
				"y": -0.2756469326,
				"z": 3.0377117178,
				"element": "C" 
			},
			{
				"x": -0.81287178,
				"y": -1.334864405,
				"z": 2.4337281735,
				"element": "C" 
			},
			{
				"x": 1.4501491289,
				"y": -3.5975274316,
				"z": -3.1035405547,
				"element": "H" 
			},
			{
				"x": 0.322306621,
				"y": -2.3348811234,
				"z": -3.6484302518,
				"element": "H" 
			},
			{
				"x": 1.8715191397,
				"y": -2.55425324,
				"z": -4.4799659535,
				"element": "H" 
			},
			{
				"x": 2.4432762755,
				"y": -0.075161916,
				"z": -4.0709756477,
				"element": "H" 
			},
			{
				"x": 0.8633099261,
				"y": 0.1053954432,
				"z": -3.2845107624,
				"element": "H" 
			},
			{
				"x": 2.3438465008,
				"y": 0.5738042439,
				"z": -2.422445004,
				"element": "H" 
			},
			{
				"x": 3.9306862755,
				"y": -1.1985635688,
				"z": -1.5658278865,
				"element": "H" 
			},
			{
				"x": 4.0832087038,
				"y": -1.8575178861,
				"z": -3.2035870513,
				"element": "H" 
			},
			{
				"x": 3.6000479242,
				"y": -2.9206433631,
				"z": -1.8632812114,
				"element": "H" 
			},
			{
				"x": 0.3840689761,
				"y": -3.1505645862,
				"z": 1.2113607542,
				"element": "H" 
			},
			{
				"x": 0.1472098223,
				"y": 0.2099548992,
				"z": -0.4353053085,
				"element": "H" 
			},
			{
				"x": -1.0451502708,
				"y": 2.0779729728,
				"z": 0.6564791435,
				"element": "H" 
			},
			{
				"x": -2.8972446262,
				"y": 1.742132528,
				"z": 3.9081723449,
				"element": "H" 
			},
			{
				"x": -1.5113710502,
				"y": 2.7755724605,
				"z": 3.5844453702,
				"element": "H" 
			},
			{
				"x": -3.7500555761,
				"y": 2.463266974,
				"z": 1.7255065219,
				"element": "H" 
			},
			{
				"x": -3.3755063017,
				"y": 3.7895815036,
				"z": 2.6032552652,
				"element": "H" 
			},
			{
				"x": -1.9456602808,
				"y": -0.4283944707,
				"z": 4.0099486048,
				"element": "H" 
			},
			{
				"x": -0.7610596546,
				"y": -2.2970839837,
				"z": 2.9385604246,
				"element": "H" 
			}
		],
		 "valence_orbital": [ 
			{
				"type": "occ",
				"energy": -0.28939,
				"method": "rhf"
			},
			{
				"type": "occ",
				"energy": -0.26674,
				"method": "rhf"
			},
			{
				"type": "occ",
				"energy": -0.24606,
				"method": "rhf"
			},
			{
				"type": "occ",
				"energy": -0.23718,
				"method": "rhf"
			},
			{
				"type": "occ",
				"energy": -0.20705,
				"method": "rhf"
			},
			{
				"type": "unocc",
				"energy": 0.00059,
				"method": "rhf"
			},
			{
				"type": "unocc",
				"energy": 0.00301,
				"method": "rhf"
			},
			{
				"type": "unocc",
				"energy": 0.06532,
				"method": "rhf"
			},
			{
				"type": "unocc",
				"energy": 0.07971,
				"method": "rhf"
			},
			{
				"type": "unocc",
				"energy": 0.08746,
				"method": "rhf"
			}
		],
		"cosmo_sigma_profile": { 
			"-0.025": 0.0,
			"-0.024": 0.0,
			"-0.023": 0.0,
			"-0.022": 0.0,
			"-0.021": 0.0,
			"-0.02": 0.0,
			"-0.019": 0.0,
			"-0.018": 0.0,
			"-0.017": 0.0,
			"-0.016": 0.0,
			"-0.015": 0.167037243192,
			"-0.014": 1.09979976614,
			"-0.013": 1.0403722746,
			"-0.012": 1.12099215181,
			"-0.011": 0.775261774959,
			"-0.01": 2.37646864567,
			"-0.009": 4.12935309699,
			"-0.008": 3.56314653511,
			"-0.007": 3.17562556688,
			"-0.006": 5.69778159167,
			"-0.005": 8.39716547382,
			"-0.004": 21.839510476,
			"-0.003": 29.1930423662,
			"-0.002": 27.790307173,
			"-0.001": 31.6083039271,
			"0.0": 32.9808465412,
			"0.001": 24.4786496312,
			"0.002": 14.2342447475,
			"0.003": 13.5902885186,
			"0.004": 13.6026491375,
			"0.005": 11.7401131662,
			"0.006": 10.2997935505,
			"0.007": 2.85877731596,
			"0.008": 2.4828293412,
			"0.009": 2.86102308802,
			"0.01": 1.81040997845,
			"0.011": 1.88272712048,
			"0.012": 3.08029915074,
			"0.013": 3.97844927055,
			"0.014": 1.23043869113,
			"0.015": 0.532886411576,
			"0.016": 0.363630847697,
			"0.017": 0.576525818461,
			"0.018": 0.0,
			"0.019": 0.0,
			"0.02": 0.0,
			"0.021": 0.0,
			"0.022": 0.0,
			"0.023": 0.0,
			"0.024": 0.0,
			"0.025": 0.0
		}
	}
}
