{
	 "smiles": "CC1=NOC(=N1)C1=CC=C(C=O)C=C1", 
	 "Tm": 407.15, 
	 "num_atms": 22, 
	 "gaussian": { 
		 "optdone": 1, 
		 "sigma_profile": "yes", 
		 "theory": "DFT", 
		 "functional": "B3LYP", 
		 "basiset": "6-31G**", 
		 "properties": { 
			 "R2extent": 4354.3388, 
			 "electric_dipole_moment_norm": 3.03501701313, 
			 "electric_quadrupole_moment_norm": 8.93424990248, 
			 "total_energy": -645.79901708, 
			 "HOMO_LUMO_gap": 0.16776, 
			 "cosmo_polarized_energy": -10.87, 
			 "cosmo_cavitation_energy": 27.86, 
			 "cosmo_dispersion_energy": -20.4, 
			 "cosmo_repulsion_energy": 1.58, 
			 "cosmo_total_nonelectrostatic_energy": 9.05, 
			 "SMD_solvation_energy": 4.19 
		},
		"coords": [
			{
				"x": 0.4482531888,
				"y": 2.3262391328,
				"z": -3.0997395274,
				"element": "C" 
			},
			{
				"x": 0.2164091983,
				"y": 1.0445822112,
				"z": -2.3629060958,
				"element": "C" 
			},
			{
				"x": 0.4854201324,
				"y": -0.1294408606,
				"z": -2.8873784161,
				"element": "N" 
			},
			{
				"x": 0.123064442,
				"y": -1.0296361588,
				"z": -1.8719919322,
				"element": "O" 
			},
			{
				"x": -0.3274749242,
				"y": -0.2903522997,
				"z": -0.8423727152,
				"element": "C" 
			},
			{
				"x": -0.2940488173,
				"y": 0.9939514784,
				"z": -1.0855305315,
				"element": "N" 
			},
			{
				"x": -0.7812624956,
				"y": -0.9651498342,
				"z": 0.3719280419,
				"element": "C" 
			},
			{
				"x": -1.2507063799,
				"y": -0.1896368086,
				"z": 1.4441795255,
				"element": "C" 
			},
			{
				"x": -1.6858922616,
				"y": -0.8160507729,
				"z": 2.6062772513,
				"element": "C" 
			},
			{
				"x": -1.6576231502,
				"y": -2.2135161288,
				"z": 2.7104859816,
				"element": "C" 
			},
			{
				"x": -2.1239588148,
				"y": -2.8725452726,
				"z": 3.9542068191,
				"element": "C" 
			},
			{
				"x": -2.1349134624,
				"y": -4.0751343811,
				"z": 4.1314313295,
				"element": "O" 
			},
			{
				"x": -1.1877744852,
				"y": -2.9857734237,
				"z": 1.6367879362,
				"element": "C" 
			},
			{
				"x": -0.7515090931,
				"y": -2.3685108224,
				"z": 0.4731198079,
				"element": "C" 
			},
			{
				"x": -0.134903376,
				"y": 2.3535460013,
				"z": -4.0244115436,
				"element": "H" 
			},
			{
				"x": 1.502943441,
				"y": 2.4350246154,
				"z": -3.3673695579,
				"element": "H" 
			},
			{
				"x": 0.1531552571,
				"y": 3.1647801024,
				"z": -2.4681350294,
				"element": "H" 
			},
			{
				"x": -1.2653360219,
				"y": 0.8902350161,
				"z": 1.3456974422,
				"element": "H" 
			},
			{
				"x": -2.0508882473,
				"y": -0.2225835028,
				"z": 3.4411086762,
				"element": "H" 
			},
			{
				"x": -2.4767969842,
				"y": -2.1736163811,
				"z": 4.7447110271,
				"element": "H" 
			},
			{
				"x": -1.1757674406,
				"y": -4.0658483205,
				"z": 1.7418324468,
				"element": "H" 
			},
			{
				"x": -0.3868897052,
				"y": -2.9577635898,
				"z": -0.3613309364,
				"element": "H" 
			}
		],
		 "valence_orbital": [ 
			{
				"type": "occ",
				"energy": -0.31055,
				"method": "rhf"
			},
			{
				"type": "occ",
				"energy": -0.30234,
				"method": "rhf"
			},
			{
				"type": "occ",
				"energy": -0.28024,
				"method": "rhf"
			},
			{
				"type": "occ",
				"energy": -0.26542,
				"method": "rhf"
			},
			{
				"type": "occ",
				"energy": -0.25972,
				"method": "rhf"
			},
			{
				"type": "unocc",
				"energy": -0.09196,
				"method": "rhf"
			},
			{
				"type": "unocc",
				"energy": -0.03011,
				"method": "rhf"
			},
			{
				"type": "unocc",
				"energy": -0.02214,
				"method": "rhf"
			},
			{
				"type": "unocc",
				"energy": 0.02008,
				"method": "rhf"
			},
			{
				"type": "unocc",
				"energy": 0.07003,
				"method": "rhf"
			}
		],
		"cosmo_sigma_profile": { 
			"-0.025": 0.0,
			"-0.024": 0.0,
			"-0.023": 0.0,
			"-0.022": 0.0,
			"-0.021": 0.0,
			"-0.02": 0.0,
			"-0.019": 0.0,
			"-0.018": 0.0,
			"-0.017": 0.0,
			"-0.016": 0.0,
			"-0.015": 0.0,
			"-0.014": 0.0,
			"-0.013": 0.0,
			"-0.012": 0.0,
			"-0.011": 0.0,
			"-0.01": 0.0,
			"-0.009": 0.595924303827,
			"-0.008": 3.7108433619,
			"-0.007": 9.74347063035,
			"-0.006": 14.6881395543,
			"-0.005": 13.7420047105,
			"-0.004": 17.5824484935,
			"-0.003": 18.7380675587,
			"-0.002": 23.105908166,
			"-0.001": 18.5789206453,
			"0.0": 16.3934820252,
			"0.001": 20.6460338699,
			"0.002": 12.9541675649,
			"0.003": 5.84170272229,
			"0.004": 5.46586314066,
			"0.005": 4.99351193096,
			"0.006": 6.81437426579,
			"0.007": 5.46542840584,
			"0.008": 3.32480869019,
			"0.009": 5.1902529273,
			"0.01": 5.10774447695,
			"0.011": 6.40683694259,
			"0.012": 4.03846026123,
			"0.013": 1.24805492658,
			"0.014": 0.0312179690729,
			"0.015": 0.0,
			"0.016": 0.0,
			"0.017": 0.0,
			"0.018": 0.0,
			"0.019": 0.0,
			"0.02": 0.0,
			"0.021": 0.0,
			"0.022": 0.0,
			"0.023": 0.0,
			"0.024": 0.0,
			"0.025": 0.0
		}
	}
}
