{
	 "smiles": "CN1C=C(C=C1C(O)=O)C1=CSC(C)=N1", 
	 "Tm": 445.15, 
	 "num_atms": 25, 
	 "gaussian": { 
		 "optdone": 1, 
		 "sigma_profile": "yes", 
		 "theory": "DFT", 
		 "functional": "B3LYP", 
		 "basiset": "6-31G**", 
		 "properties": { 
			 "R2extent": 5025.0654, 
			 "electric_dipole_moment_norm": 4.4314448716, 
			 "electric_quadrupole_moment_norm": 22.5307240918, 
			 "total_energy": -1045.23517294, 
			 "HOMO_LUMO_gap": 0.17698, 
			 "cosmo_polarized_energy": -16.82, 
			 "cosmo_cavitation_energy": 31.42, 
			 "cosmo_dispersion_energy": -23.44, 
			 "cosmo_repulsion_energy": 1.77, 
			 "cosmo_total_nonelectrostatic_energy": 9.75, 
			 "SMD_solvation_energy": 5.34 
		},
		"coords": [
			{
				"x": -0.86642616,
				"y": -1.9204574129,
				"z": 2.9630006664,
				"element": "C" 
			},
			{
				"x": -0.4338082302,
				"y": -1.1474524291,
				"z": 1.8012967439,
				"element": "N" 
			},
			{
				"x": 0.1276481387,
				"y": 0.0900499215,
				"z": 1.871516912,
				"element": "C" 
			},
			{
				"x": 0.4211061276,
				"y": 0.5418731068,
				"z": 0.5867290901,
				"element": "C" 
			},
			{
				"x": 0.0084744604,
				"y": -0.4853399596,
				"z": -0.2937755992,
				"element": "C" 
			},
			{
				"x": -0.5197923381,
				"y": -1.5230148387,
				"z": 0.4670676588,
				"element": "C" 
			},
			{
				"x": -1.0760325521,
				"y": -2.8184155416,
				"z": 0.0606224671,
				"element": "C" 
			},
			{
				"x": -1.1781094714,
				"y": -3.0253488117,
				"z": -1.2798252707,
				"element": "O" 
			},
			{
				"x": -1.43568733,
				"y": -3.6869082276,
				"z": 0.8304015908,
				"element": "O" 
			},
			{
				"x": 1.0315869411,
				"y": 1.8080066867,
				"z": 0.1884594,
				"element": "C" 
			},
			{
				"x": 1.4538669301,
				"y": 2.8210134765,
				"z": 1.0112826851,
				"element": "C" 
			},
			{
				"x": 2.1121697246,
				"y": 4.1238577513,
				"z": 0.0778475506,
				"element": "S" 
			},
			{
				"x": 1.7705071244,
				"y": 3.2033475274,
				"z": -1.3874636334,
				"element": "C" 
			},
			{
				"x": 2.0971509313,
				"y": 3.7365352988,
				"z": -2.7492080623,
				"element": "C" 
			},
			{
				"x": 1.2211884088,
				"y": 2.047178287,
				"z": -1.1652053982,
				"element": "N" 
			},
			{
				"x": -0.3182342919,
				"y": -2.8612057864,
				"z": 3.0247673431,
				"element": "H" 
			},
			{
				"x": -0.6777148498,
				"y": -1.3198245729,
				"z": 3.854581734,
				"element": "H" 
			},
			{
				"x": -1.9293081092,
				"y": -2.155634142,
				"z": 2.8939250083,
				"element": "H" 
			},
			{
				"x": 0.2790591022,
				"y": 0.5657543121,
				"z": 2.8298828834,
				"element": "H" 
			},
			{
				"x": 0.1174003706,
				"y": -0.4378494071,
				"z": -1.3688338642,
				"element": "H" 
			},
			{
				"x": -0.9073624576,
				"y": -2.2343608823,
				"z": -1.766036191,
				"element": "H" 
			},
			{
				"x": 1.4173912188,
				"y": 2.874492527,
				"z": 2.0897300761,
				"element": "H" 
			},
			{
				"x": 1.7968313112,
				"y": 2.9959357114,
				"z": -3.4925965194,
				"element": "H" 
			},
			{
				"x": 3.1694327627,
				"y": 3.9303024943,
				"z": -2.8584031768,
				"element": "H" 
			},
			{
				"x": 1.5677622378,
				"y": 4.6735649111,
				"z": -2.9516640946,
				"element": "H" 
			}
		],
		 "valence_orbital": [ 
			{
				"type": "occ",
				"energy": -0.27637,
				"method": "rhf"
			},
			{
				"type": "occ",
				"energy": -0.27473,
				"method": "rhf"
			},
			{
				"type": "occ",
				"energy": -0.26824,
				"method": "rhf"
			},
			{
				"type": "occ",
				"energy": -0.24314,
				"method": "rhf"
			},
			{
				"type": "occ",
				"energy": -0.20959,
				"method": "rhf"
			},
			{
				"type": "unocc",
				"energy": -0.03261,
				"method": "rhf"
			},
			{
				"type": "unocc",
				"energy": -0.02666,
				"method": "rhf"
			},
			{
				"type": "unocc",
				"energy": 0.0153,
				"method": "rhf"
			},
			{
				"type": "unocc",
				"energy": 0.01537,
				"method": "rhf"
			},
			{
				"type": "unocc",
				"energy": 0.06476,
				"method": "rhf"
			}
		],
		"cosmo_sigma_profile": { 
			"-0.025": 0.0,
			"-0.024": 0.0,
			"-0.023": 0.0,
			"-0.022": 0.0,
			"-0.021": 0.0,
			"-0.02": 0.0,
			"-0.019": 0.0124128454056,
			"-0.018": 0.635212419504,
			"-0.017": 1.10546604615,
			"-0.016": 0.667185637263,
			"-0.015": 1.13123371688,
			"-0.014": 0.838113360604,
			"-0.013": 1.25519932526,
			"-0.012": 0.667423832938,
			"-0.011": 1.00370161305,
			"-0.01": 1.04017279916,
			"-0.009": 5.44700733979,
			"-0.008": 6.81555022275,
			"-0.007": 6.05252698137,
			"-0.006": 9.63787312524,
			"-0.005": 15.1239874064,
			"-0.004": 17.9856246308,
			"-0.003": 19.4746363051,
			"-0.002": 19.8198728903,
			"-0.001": 16.446543285,
			"0.0": 13.3888600798,
			"0.001": 14.7425308961,
			"0.002": 15.5430548501,
			"0.003": 19.307546685,
			"0.004": 19.4017577846,
			"0.005": 9.30752792602,
			"0.006": 4.40838146146,
			"0.007": 4.29479236863,
			"0.008": 4.01781970595,
			"0.009": 4.46661503588,
			"0.01": 4.51200918222,
			"0.011": 6.09017577311,
			"0.012": 4.74172907286,
			"0.013": 2.89522612586,
			"0.014": 0.978983881564,
			"0.015": 0.0,
			"0.016": 0.0,
			"0.017": 0.0,
			"0.018": 0.0,
			"0.019": 0.0,
			"0.02": 0.0,
			"0.021": 0.0,
			"0.022": 0.0,
			"0.023": 0.0,
			"0.024": 0.0,
			"0.025": 0.0
		}
	}
}
