{
	 "smiles": "OC(=O)C1=C(N=NC2=C1C=CC=C2)C1=CC=CC=C1", 
	 "Tm": 489.15, 
	 "num_atms": 29, 
	 "gaussian": { 
		 "optdone": 1, 
		 "sigma_profile": "yes", 
		 "theory": "DFT", 
		 "functional": "B3LYP", 
		 "basiset": "6-31G**", 
		 "properties": { 
			 "R2extent": 5523.2493, 
			 "electric_dipole_moment_norm": 3.60363788553, 
			 "electric_quadrupole_moment_norm": 29.169978271, 
			 "total_energy": -837.543613474, 
			 "HOMO_LUMO_gap": 0.14685, 
			 "cosmo_polarized_energy": -19.46, 
			 "cosmo_cavitation_energy": 33.78, 
			 "cosmo_dispersion_energy": -24.35, 
			 "cosmo_repulsion_energy": 1.84, 
			 "cosmo_total_nonelectrostatic_energy": 11.27, 
			 "SMD_solvation_energy": 4.56 
		},
		"coords": [
			{
				"x": 2.0632657326,
				"y": -0.3023956027,
				"z": 0.8097515068,
				"element": "O" 
			},
			{
				"x": 0.7069494684,
				"y": -0.1807789233,
				"z": 0.723981841,
				"element": "C" 
			},
			{
				"x": 0.0832233877,
				"y": 0.3490579163,
				"z": 1.6043483182,
				"element": "O" 
			},
			{
				"x": 0.0849150671,
				"y": -0.7931812798,
				"z": -0.5065252716,
				"element": "C" 
			},
			{
				"x": -0.5833568415,
				"y": -0.0357984619,
				"z": -1.4660704157,
				"element": "C" 
			},
			{
				"x": -1.2828846793,
				"y": -0.6327065319,
				"z": -2.4894132896,
				"element": "N" 
			},
			{
				"x": -1.326484197,
				"y": -1.9209306594,
				"z": -2.6268177985,
				"element": "N" 
			},
			{
				"x": -0.6469927433,
				"y": -2.7269506748,
				"z": -1.7571294718,
				"element": "C" 
			},
			{
				"x": 0.0837871514,
				"y": -2.2075457918,
				"z": -0.6494538574,
				"element": "C" 
			},
			{
				"x": 0.7255387281,
				"y": -3.1228450948,
				"z": 0.2327058572,
				"element": "C" 
			},
			{
				"x": 0.6455331654,
				"y": -4.476745949,
				"z": -0.0037419898,
				"element": "C" 
			},
			{
				"x": -0.0742052132,
				"y": -4.9872723087,
				"z": -1.1155023813,
				"element": "C" 
			},
			{
				"x": -0.7128009143,
				"y": -4.1274584782,
				"z": -1.9769598652,
				"element": "C" 
			},
			{
				"x": -0.6145162329,
				"y": 1.4466494625,
				"z": -1.5041910924,
				"element": "C" 
			},
			{
				"x": -1.7592003233,
				"y": 2.0960298992,
				"z": -1.9974258272,
				"element": "C" 
			},
			{
				"x": -1.8124008079,
				"y": 3.4861150848,
				"z": -2.0576311529,
				"element": "C" 
			},
			{
				"x": -0.7205661638,
				"y": 4.251314038,
				"z": -1.6411550794,
				"element": "C" 
			},
			{
				"x": 0.4284195772,
				"y": 3.6158761033,
				"z": -1.1679551333,
				"element": "C" 
			},
			{
				"x": 0.4827547782,
				"y": 2.2249445867,
				"z": -1.1020980393,
				"element": "C" 
			},
			{
				"x": 2.4057142127,
				"y": -0.7295594269,
				"z": 0.0101417882,
				"element": "H" 
			},
			{
				"x": 1.276682471,
				"y": -2.7509819279,
				"z": 1.0905957503,
				"element": "H" 
			},
			{
				"x": 1.1382845506,
				"y": -5.1678199464,
				"z": 0.6737801306,
				"element": "H" 
			},
			{
				"x": -0.12172062,
				"y": -6.0598968458,
				"z": -1.2755495173,
				"element": "H" 
			},
			{
				"x": -1.2818681845,
				"y": -4.4754852108,
				"z": -2.8325807542,
				"element": "H" 
			},
			{
				"x": -2.5981177167,
				"y": 1.4959965101,
				"z": -2.3304868437,
				"element": "H" 
			},
			{
				"x": -2.7083098605,
				"y": 3.9734622319,
				"z": -2.431013075,
				"element": "H" 
			},
			{
				"x": -0.762658933,
				"y": 5.3355078055,
				"z": -1.6905155951,
				"element": "H" 
			},
			{
				"x": 1.2879197693,
				"y": 4.2015015816,
				"z": -0.8558164421,
				"element": "H" 
			},
			{
				"x": 1.3946953716,
				"y": 1.7503978941,
				"z": -0.7546722993,
				"element": "H" 
			}
		],
		 "valence_orbital": [ 
			{
				"type": "occ",
				"energy": -0.29056,
				"method": "rhf"
			},
			{
				"type": "occ",
				"energy": -0.26627,
				"method": "rhf"
			},
			{
				"type": "occ",
				"energy": -0.25463,
				"method": "rhf"
			},
			{
				"type": "occ",
				"energy": -0.23749,
				"method": "rhf"
			},
			{
				"type": "occ",
				"energy": -0.23598,
				"method": "rhf"
			},
			{
				"type": "unocc",
				"energy": -0.08913,
				"method": "rhf"
			},
			{
				"type": "unocc",
				"energy": -0.05618,
				"method": "rhf"
			},
			{
				"type": "unocc",
				"energy": -0.02065,
				"method": "rhf"
			},
			{
				"type": "unocc",
				"energy": -0.0071,
				"method": "rhf"
			},
			{
				"type": "unocc",
				"energy": 0.00215,
				"method": "rhf"
			}
		],
		"cosmo_sigma_profile": { 
			"-0.025": 0.0,
			"-0.024": 0.0,
			"-0.023": 0.0,
			"-0.022": 0.0,
			"-0.021": 0.0,
			"-0.02": 0.272227969286,
			"-0.019": 0.783554993345,
			"-0.018": 0.838169250414,
			"-0.017": 1.10928340599,
			"-0.016": 1.00381804094,
			"-0.015": 0.513874990492,
			"-0.014": 1.05736472561,
			"-0.013": 1.12080233921,
			"-0.012": 1.2971672282,
			"-0.011": 1.066969612,
			"-0.01": 1.03350003266,
			"-0.009": 0.996768393854,
			"-0.008": 2.45852617517,
			"-0.007": 10.7602011193,
			"-0.006": 17.4142522537,
			"-0.005": 18.9206896434,
			"-0.004": 19.8084120691,
			"-0.003": 15.3417513417,
			"-0.002": 16.6862328251,
			"-0.001": 19.378546448,
			"0.0": 18.0576495366,
			"0.001": 19.36624986,
			"0.002": 19.8664185141,
			"0.003": 13.1021558589,
			"0.004": 14.4551207613,
			"0.005": 13.1366371203,
			"0.006": 4.87433106597,
			"0.007": 4.73903720725,
			"0.008": 5.49215249409,
			"0.009": 7.1923501754,
			"0.01": 6.86450939308,
			"0.011": 6.32732215842,
			"0.012": 2.92483989332,
			"0.013": 2.55679941063,
			"0.014": 1.30203935755,
			"0.015": 0.420081058453,
			"0.016": 0.0,
			"0.017": 0.0,
			"0.018": 0.0,
			"0.019": 0.0,
			"0.02": 0.0,
			"0.021": 0.0,
			"0.022": 0.0,
			"0.023": 0.0,
			"0.024": 0.0,
			"0.025": 0.0
		}
	}
}
