{
	 "smiles": "COC(=O)C1=C(N)C=C(F)C=C1", 
	 "Tm": 336.15, 
	 "num_atms": 20, 
	 "gaussian": { 
		 "optdone": 1, 
		 "sigma_profile": "yes", 
		 "theory": "DFT", 
		 "functional": "B3LYP", 
		 "basiset": "6-31G**", 
		 "properties": { 
			 "R2extent": 4208.0546, 
			 "electric_dipole_moment_norm": 3.53105817143, 
			 "electric_quadrupole_moment_norm": 3.40831066659, 
			 "total_energy": -614.723779689, 
			 "HOMO_LUMO_gap": 0.17746, 
			 "cosmo_polarized_energy": -10.34, 
			 "cosmo_cavitation_energy": 24.64, 
			 "cosmo_dispersion_energy": -18.26, 
			 "cosmo_repulsion_energy": 1.43, 
			 "cosmo_total_nonelectrostatic_energy": 7.8, 
			 "SMD_solvation_energy": 6.2 
		},
		"coords": [
			{
				"x": -1.5380504286,
				"y": 1.9275050976,
				"z": -0.1859657879,
				"element": "C" 
			},
			{
				"x": -1.0976589597,
				"y": 0.5851099931,
				"z": -0.450904891,
				"element": "O" 
			},
			{
				"x": -2.1011978645,
				"y": -0.3289131612,
				"z": -0.6254546688,
				"element": "C" 
			},
			{
				"x": -3.2698479105,
				"y": 0.0039284154,
				"z": -0.5621585,
				"element": "O" 
			},
			{
				"x": -1.6297309377,
				"y": -1.7051860938,
				"z": -0.8990499444,
				"element": "C" 
			},
			{
				"x": -0.2685907276,
				"y": -2.1336411925,
				"z": -0.9396905995,
				"element": "C" 
			},
			{
				"x": 0.7921842869,
				"y": -1.3110721879,
				"z": -0.6624800209,
				"element": "N" 
			},
			{
				"x": -0.0070576405,
				"y": -3.488502569,
				"z": -1.2416436782,
				"element": "C" 
			},
			{
				"x": -1.0492191297,
				"y": -4.3618742696,
				"z": -1.4795824577,
				"element": "C" 
			},
			{
				"x": -0.7552103034,
				"y": -5.6455748736,
				"z": -1.7641174308,
				"element": "F" 
			},
			{
				"x": -2.3890460194,
				"y": -3.972481639,
				"z": -1.4373437992,
				"element": "C" 
			},
			{
				"x": -2.6499714943,
				"y": -2.6450926918,
				"z": -1.145746887,
				"element": "C" 
			},
			{
				"x": -2.1427015043,
				"y": 1.9602199534,
				"z": 0.7230625065,
				"element": "H" 
			},
			{
				"x": -0.6288486585,
				"y": 2.5166081173,
				"z": -0.0635307014,
				"element": "H" 
			},
			{
				"x": -2.133750212,
				"y": 2.3079470875,
				"z": -1.0189216849,
				"element": "H" 
			},
			{
				"x": 0.6226606687,
				"y": -0.3183158622,
				"z": -0.6271326558,
				"element": "H" 
			},
			{
				"x": 1.7114422829,
				"y": -1.6223603742,
				"z": -0.931194614,
				"element": "H" 
			},
			{
				"x": 1.0129787013,
				"y": -3.8568073674,
				"z": -1.2795840115,
				"element": "H" 
			},
			{
				"x": -3.1755229709,
				"y": -4.6920881232,
				"z": -1.6297488783,
				"element": "H" 
			},
			{
				"x": -3.6707611783,
				"y": -2.2820082589,
				"z": -1.1029112953,
				"element": "H" 
			}
		],
		 "valence_orbital": [ 
			{
				"type": "occ",
				"energy": -0.3161,
				"method": "rhf"
			},
			{
				"type": "occ",
				"energy": -0.30174,
				"method": "rhf"
			},
			{
				"type": "occ",
				"energy": -0.27402,
				"method": "rhf"
			},
			{
				"type": "occ",
				"energy": -0.24941,
				"method": "rhf"
			},
			{
				"type": "occ",
				"energy": -0.21235,
				"method": "rhf"
			},
			{
				"type": "unocc",
				"energy": -0.03489,
				"method": "rhf"
			},
			{
				"type": "unocc",
				"energy": 0.00512,
				"method": "rhf"
			},
			{
				"type": "unocc",
				"energy": 0.06432,
				"method": "rhf"
			},
			{
				"type": "unocc",
				"energy": 0.08203,
				"method": "rhf"
			},
			{
				"type": "unocc",
				"energy": 0.10274,
				"method": "rhf"
			}
		],
		"cosmo_sigma_profile": { 
			"-0.025": 0.0,
			"-0.024": 0.0,
			"-0.023": 0.0,
			"-0.022": 0.0,
			"-0.021": 0.0,
			"-0.02": 0.0,
			"-0.019": 0.0,
			"-0.018": 0.0,
			"-0.017": 0.0,
			"-0.016": 0.0,
			"-0.015": 0.0,
			"-0.014": 0.517454226764,
			"-0.013": 1.55677693665,
			"-0.012": 1.26484088935,
			"-0.011": 1.77005184631,
			"-0.01": 1.55942536844,
			"-0.009": 2.49442346344,
			"-0.008": 2.83167685738,
			"-0.007": 4.7818786357,
			"-0.006": 9.40189542472,
			"-0.005": 11.4770812691,
			"-0.004": 13.7872913739,
			"-0.003": 13.3590093688,
			"-0.002": 11.4287343519,
			"-0.001": 10.6895408708,
			"0.0": 11.8553370171,
			"0.001": 17.0047566044,
			"0.002": 17.0970010705,
			"0.003": 20.3096322232,
			"0.004": 19.237443423,
			"0.005": 4.92762619401,
			"0.006": 3.1209845454,
			"0.007": 1.82325891198,
			"0.008": 2.36616087395,
			"0.009": 1.71441406291,
			"0.01": 2.51280712139,
			"0.011": 2.26778153532,
			"0.012": 4.45712198854,
			"0.013": 1.1353312131,
			"0.014": 0.0,
			"0.015": 0.0,
			"0.016": 0.0,
			"0.017": 0.0,
			"0.018": 0.0,
			"0.019": 0.0,
			"0.02": 0.0,
			"0.021": 0.0,
			"0.022": 0.0,
			"0.023": 0.0,
			"0.024": 0.0,
			"0.025": 0.0
		}
	}
}
