{
	 "smiles": "[O-][N+](=O)C1=CC(=C(C=C1)C(Cl)=CC1=CC=C(C=C(Cl)C2=CC=C(C=C2[N+]([O-])=O)[N+]([O-])=O)C=C1)[N+]([O-])=O", 
	 "Tm": 518.15, 
	 "num_atms": 48, 
	 "gaussian": { 
		 "optdone": 1, 
		 "sigma_profile": "yes", 
		 "theory": "DFT", 
		 "functional": "B3LYP", 
		 "basiset": "6-31G**", 
		 "properties": { 
			 "R2extent": 22662.7848, 
			 "electric_dipole_moment_norm": 6.67654786997, 
			 "electric_quadrupole_moment_norm": 27.5147524072, 
			 "total_energy": -2586.2972006, 
			 "HOMO_LUMO_gap": 0.11518, 
			 "cosmo_polarized_energy": -26.43, 
			 "cosmo_cavitation_energy": 61.81, 
			 "cosmo_dispersion_energy": -39.55, 
			 "cosmo_repulsion_energy": 3.01, 
			 "cosmo_total_nonelectrostatic_energy": 25.27, 
			 "SMD_solvation_energy": 18.29 
		},
		"coords": [
			{
				"x": -5.5175519154,
				"y": -1.689771736,
				"z": 1.2233987678,
				"element": "O" 
			},
			{
				"x": -5.19472431,
				"y": -0.8844452041,
				"z": 0.3548741203,
				"element": "N" 
			},
			{
				"x": -5.479737503,
				"y": -0.9686005356,
				"z": -0.837499517,
				"element": "O" 
			},
			{
				"x": -4.3967350257,
				"y": 0.2837300447,
				"z": 0.775282084,
				"element": "C" 
			},
			{
				"x": -4.0387009479,
				"y": 0.4035083943,
				"z": 2.1105532679,
				"element": "C" 
			},
			{
				"x": -3.3004248764,
				"y": 1.5180969901,
				"z": 2.4951177532,
				"element": "C" 
			},
			{
				"x": -2.8819203296,
				"y": 2.4952657159,
				"z": 1.5735131869,
				"element": "C" 
			},
			{
				"x": -3.2695267802,
				"y": 2.3245695556,
				"z": 0.2331830116,
				"element": "C" 
			},
			{
				"x": -4.0264913842,
				"y": 1.2318785438,
				"z": -0.1756105947,
				"element": "C" 
			},
			{
				"x": -2.0569707734,
				"y": 3.6804350431,
				"z": 1.9309011383,
				"element": "C" 
			},
			{
				"x": -2.9980220319,
				"y": 5.1727159706,
				"z": 1.9664685049,
				"element": "Cl" 
			},
			{
				"x": -0.7400360613,
				"y": 3.7363261898,
				"z": 2.1859096239,
				"element": "C" 
			},
			{
				"x": 0.2562914553,
				"y": 2.6565040065,
				"z": 2.206312276,
				"element": "C" 
			},
			{
				"x": 0.1454039553,
				"y": 1.4441863527,
				"z": 1.4987848354,
				"element": "C" 
			},
			{
				"x": 1.1435624082,
				"y": 0.4795941142,
				"z": 1.5681050209,
				"element": "C" 
			},
			{
				"x": 2.3001790066,
				"y": 0.6860047071,
				"z": 2.3412403994,
				"element": "C" 
			},
			{
				"x": 3.3692736269,
				"y": -0.3174795207,
				"z": 2.4532663463,
				"element": "C" 
			},
			{
				"x": 3.8060580446,
				"y": -1.1388952677,
				"z": 1.4854949838,
				"element": "C" 
			},
			{
				"x": 5.0437324323,
				"y": -2.3377128783,
				"z": 1.8695116849,
				"element": "Cl" 
			},
			{
				"x": 3.4817431382,
				"y": -1.068289472,
				"z": 0.0363416251,
				"element": "C" 
			},
			{
				"x": 3.8776204633,
				"y": 0.0820914559,
				"z": -0.6673186178,
				"element": "C" 
			},
			{
				"x": 3.7011443392,
				"y": 0.1965135636,
				"z": -2.0425025389,
				"element": "C" 
			},
			{
				"x": 3.138306978,
				"y": -0.8716130685,
				"z": -2.7356537848,
				"element": "C" 
			},
			{
				"x": 2.741016365,
				"y": -2.0363678746,
				"z": -2.0919407952,
				"element": "C" 
			},
			{
				"x": 2.9051888978,
				"y": -2.1109751817,
				"z": -0.7141367571,
				"element": "C" 
			},
			{
				"x": 2.383807922,
				"y": -3.3267539277,
				"z": -0.0577431935,
				"element": "N" 
			},
			{
				"x": 1.9999642134,
				"y": -3.2168841714,
				"z": 1.1042688041,
				"element": "O" 
			},
			{
				"x": 2.3392339364,
				"y": -4.3524674068,
				"z": -0.7297189737,
				"element": "O" 
			},
			{
				"x": 2.9545811815,
				"y": -0.7676296044,
				"z": -4.1950772338,
				"element": "N" 
			},
			{
				"x": 3.3182964512,
				"y": 0.2754510982,
				"z": -4.7340252927,
				"element": "O" 
			},
			{
				"x": 2.4493358543,
				"y": -1.7275009597,
				"z": -4.7709398216,
				"element": "O" 
			},
			{
				"x": 2.4063190803,
				"y": 1.8885580505,
				"z": 3.0627990959,
				"element": "C" 
			},
			{
				"x": 1.4161507667,
				"y": 2.8583247739,
				"z": 2.9804992529,
				"element": "C" 
			},
			{
				"x": -2.9927955187,
				"y": 1.6309834684,
				"z": 3.9374532423,
				"element": "N" 
			},
			{
				"x": -2.8562019642,
				"y": 2.7574937417,
				"z": 4.4024019911,
				"element": "O" 
			},
			{
				"x": -2.9230665906,
				"y": 0.5817813597,
				"z": 4.5729809751,
				"element": "O" 
			},
			{
				"x": -4.3294975148,
				"y": -0.3444328109,
				"z": 2.8359192857,
				"element": "H" 
			},
			{
				"x": -2.9616429132,
				"y": 3.0685308504,
				"z": -0.4936845107,
				"element": "H" 
			},
			{
				"x": -4.3274042618,
				"y": 1.0999673257,
				"z": -1.207418905,
				"element": "H" 
			},
			{
				"x": -0.3539229335,
				"y": 4.7151095849,
				"z": 2.4593563709,
				"element": "H" 
			},
			{
				"x": -0.7222221739,
				"y": 1.2520976058,
				"z": 0.8790897647,
				"element": "H" 
			},
			{
				"x": 1.0134547462,
				"y": -0.462991134,
				"z": 1.0478426838,
				"element": "H" 
			},
			{
				"x": 3.8430506485,
				"y": -0.4066441446,
				"z": 3.4278498669,
				"element": "H" 
			},
			{
				"x": 4.342895937,
				"y": 0.8899046935,
				"z": -0.1142029856,
				"element": "H" 
			},
			{
				"x": 4.003172637,
				"y": 1.0847576846,
				"z": -2.5831597945,
				"element": "H" 
			},
			{
				"x": 2.3058429673,
				"y": -2.8591204461,
				"z": -2.6431961475,
				"element": "H" 
			},
			{
				"x": 3.2818338954,
				"y": 2.0663777891,
				"z": 3.6812508114,
				"element": "H" 
			},
			{
				"x": 1.5273344614,
				"y": 3.7847166702,
				"z": 3.5370586886,
				"element": "H" 
			}
		],
		 "valence_orbital": [ 
			{
				"type": "occ",
				"energy": -0.30552,
				"method": "rhf"
			},
			{
				"type": "occ",
				"energy": -0.30482,
				"method": "rhf"
			},
			{
				"type": "occ",
				"energy": -0.28173,
				"method": "rhf"
			},
			{
				"type": "occ",
				"energy": -0.27893,
				"method": "rhf"
			},
			{
				"type": "occ",
				"energy": -0.23932,
				"method": "rhf"
			},
			{
				"type": "unocc",
				"energy": -0.12414,
				"method": "rhf"
			},
			{
				"type": "unocc",
				"energy": -0.12165,
				"method": "rhf"
			},
			{
				"type": "unocc",
				"energy": -0.10726,
				"method": "rhf"
			},
			{
				"type": "unocc",
				"energy": -0.10594,
				"method": "rhf"
			},
			{
				"type": "unocc",
				"energy": -0.07976,
				"method": "rhf"
			}
		],
		"cosmo_sigma_profile": { 
			"-0.025": 0.0,
			"-0.024": 0.0,
			"-0.023": 0.0,
			"-0.022": 0.0,
			"-0.021": 0.0,
			"-0.02": 0.0,
			"-0.019": 0.0,
			"-0.018": 0.0,
			"-0.017": 0.0,
			"-0.016": 0.0,
			"-0.015": 0.0,
			"-0.014": 0.0,
			"-0.013": 0.0,
			"-0.012": 0.0,
			"-0.011": 0.0,
			"-0.01": 0.832468931974,
			"-0.009": 7.73665928229,
			"-0.008": 17.7590472501,
			"-0.007": 21.3058627087,
			"-0.006": 27.6627785473,
			"-0.005": 30.2240146662,
			"-0.004": 35.2984819081,
			"-0.003": 40.8065628081,
			"-0.002": 33.7853080276,
			"-0.001": 30.6198236745,
			"0.0": 26.3253768803,
			"0.001": 30.7173322736,
			"0.002": 27.7420172188,
			"0.003": 34.6452437983,
			"0.004": 28.0507118236,
			"0.005": 18.5774905763,
			"0.006": 28.1056184442,
			"0.007": 33.9636304047,
			"0.008": 17.1847502882,
			"0.009": 11.0089695509,
			"0.01": 0.777543359106,
			"0.011": 0.0,
			"0.012": 0.0,
			"0.013": 0.0,
			"0.014": 0.0,
			"0.015": 0.0,
			"0.016": 0.0,
			"0.017": 0.0,
			"0.018": 0.0,
			"0.019": 0.0,
			"0.02": 0.0,
			"0.021": 0.0,
			"0.022": 0.0,
			"0.023": 0.0,
			"0.024": 0.0,
			"0.025": 0.0
		}
	}
}
