{
	 "smiles": "ClC1=C2C3=C(CCC3)SC2=NC(=N1)C1=CN=CC=C1", 
	 "Tm": 419.15, 
	 "num_atms": 29, 
	 "gaussian": { 
		 "optdone": 1, 
		 "sigma_profile": "yes", 
		 "theory": "DFT", 
		 "functional": "B3LYP", 
		 "basiset": "6-31G**", 
		 "properties": { 
			 "R2extent": 8133.2164, 
			 "electric_dipole_moment_norm": 4.89897812712, 
			 "electric_quadrupole_moment_norm": 23.2731269846, 
			 "total_energy": -1562.1581947, 
			 "HOMO_LUMO_gap": 0.15527, 
			 "cosmo_polarized_energy": -8.96, 
			 "cosmo_cavitation_energy": 36.21, 
			 "cosmo_dispersion_energy": -27.48, 
			 "cosmo_repulsion_energy": 2.05, 
			 "cosmo_total_nonelectrostatic_energy": 10.78, 
			 "SMD_solvation_energy": 0.88 
		},
		"coords": [
			{
				"x": 2.4208339059,
				"y": 3.0250610873,
				"z": -2.1620246114,
				"element": "Cl" 
			},
			{
				"x": 1.6375928728,
				"y": 1.5974123831,
				"z": -1.4940750671,
				"element": "C" 
			},
			{
				"x": 1.256136484,
				"y": 1.5814505199,
				"z": -0.1426835277,
				"element": "C" 
			},
			{
				"x": 1.3461046793,
				"y": 2.4968653332,
				"z": 0.9559383292,
				"element": "C" 
			},
			{
				"x": 0.8081447207,
				"y": 1.9874167821,
				"z": 2.0991878102,
				"element": "C" 
			},
			{
				"x": 0.8295555547,
				"y": 2.946942708,
				"z": 3.2540417991,
				"element": "C" 
			},
			{
				"x": 1.7980633111,
				"y": 4.0478577779,
				"z": 2.7219312163,
				"element": "C" 
			},
			{
				"x": 1.8340492541,
				"y": 3.9094415547,
				"z": 1.1690104797,
				"element": "C" 
			},
			{
				"x": 0.1564168944,
				"y": 0.3719708697,
				"z": 1.936065073,
				"element": "S" 
			},
			{
				"x": 0.6302796413,
				"y": 0.3591579815,
				"z": 0.235425988,
				"element": "C" 
			},
			{
				"x": 0.420921568,
				"y": -0.6744105247,
				"z": -0.5660382024,
				"element": "N" 
			},
			{
				"x": 0.8388456681,
				"y": -0.5211108492,
				"z": -1.83098623,
				"element": "C" 
			},
			{
				"x": 1.4405594668,
				"y": 0.5924054695,
				"z": -2.3129458639,
				"element": "N" 
			},
			{
				"x": 0.6298839901,
				"y": -1.6423976278,
				"z": -2.7708114805,
				"element": "C" 
			},
			{
				"x": 1.0414099913,
				"y": -1.5533463219,
				"z": -4.1117301142,
				"element": "C" 
			},
			{
				"x": 0.8795629026,
				"y": -2.5329734062,
				"z": -5.0062981078,
				"element": "N" 
			},
			{
				"x": 0.2891902954,
				"y": -3.6599315772,
				"z": -4.5869123019,
				"element": "C" 
			},
			{
				"x": -0.1583933153,
				"y": -3.8563395421,
				"z": -3.2784741065,
				"element": "C" 
			},
			{
				"x": 0.0144386514,
				"y": -2.8315237712,
				"z": -2.3550921931,
				"element": "C" 
			},
			{
				"x": -0.1766461618,
				"y": 3.3430773309,
				"z": 3.4482287097,
				"element": "H" 
			},
			{
				"x": 1.1804935987,
				"y": 2.4991762173,
				"z": 4.1899093856,
				"element": "H" 
			},
			{
				"x": 1.4997112817,
				"y": 5.0487742001,
				"z": 3.0437852245,
				"element": "H" 
			},
			{
				"x": 2.7996538334,
				"y": 3.8616831522,
				"z": 3.1214224036,
				"element": "H" 
			},
			{
				"x": 2.8336352699,
				"y": 4.0869113498,
				"z": 0.7623033108,
				"element": "H" 
			},
			{
				"x": 1.1641270299,
				"y": 4.6280814887,
				"z": 0.6793652558,
				"element": "H" 
			},
			{
				"x": 1.5210780244,
				"y": -0.6438913533,
				"z": -4.4619336948,
				"element": "H" 
			},
			{
				"x": 0.1683363794,
				"y": -4.4434305872,
				"z": -5.3332383208,
				"element": "H" 
			},
			{
				"x": -0.6304755578,
				"y": -4.7916930297,
				"z": -2.9945750432,
				"element": "H" 
			},
			{
				"x": -0.3140102344,
				"y": -2.9301376153,
				"z": -1.3262961202,
				"element": "H" 
			}
		],
		 "valence_orbital": [ 
			{
				"type": "occ",
				"energy": -0.27875,
				"method": "rhf"
			},
			{
				"type": "occ",
				"energy": -0.27216,
				"method": "rhf"
			},
			{
				"type": "occ",
				"energy": -0.26121,
				"method": "rhf"
			},
			{
				"type": "occ",
				"energy": -0.25054,
				"method": "rhf"
			},
			{
				"type": "occ",
				"energy": -0.2258,
				"method": "rhf"
			},
			{
				"type": "unocc",
				"energy": -0.07053,
				"method": "rhf"
			},
			{
				"type": "unocc",
				"energy": -0.04782,
				"method": "rhf"
			},
			{
				"type": "unocc",
				"energy": -0.01836,
				"method": "rhf"
			},
			{
				"type": "unocc",
				"energy": -0.00356,
				"method": "rhf"
			},
			{
				"type": "unocc",
				"energy": 9e-05,
				"method": "rhf"
			}
		],
		"cosmo_sigma_profile": { 
			"-0.025": 0.0,
			"-0.024": 0.0,
			"-0.023": 0.0,
			"-0.022": 0.0,
			"-0.021": 0.0,
			"-0.02": 0.0,
			"-0.019": 0.0,
			"-0.018": 0.0,
			"-0.017": 0.0,
			"-0.016": 0.0,
			"-0.015": 0.0,
			"-0.014": 0.0,
			"-0.013": 0.0,
			"-0.012": 0.0,
			"-0.011": 0.0,
			"-0.01": 0.0,
			"-0.009": 0.0,
			"-0.008": 0.14216496344,
			"-0.007": 3.45615364505,
			"-0.006": 6.24071631458,
			"-0.005": 13.5166374745,
			"-0.004": 22.1658154201,
			"-0.003": 28.7646579208,
			"-0.002": 34.9270857316,
			"-0.001": 32.5806378862,
			"0.0": 33.5822226745,
			"0.001": 37.4532685689,
			"0.002": 26.0450813955,
			"0.003": 17.4151859634,
			"0.004": 12.1283031401,
			"0.005": 6.22392660824,
			"0.006": 4.02848844653,
			"0.007": 5.54062738916,
			"0.008": 3.34300989037,
			"0.009": 1.71126583199,
			"0.01": 1.00156091378,
			"0.011": 1.04243538063,
			"0.012": 0.873529942283,
			"0.013": 0.626266368243,
			"0.014": 0.983673301509,
			"0.015": 1.10231809188,
			"0.016": 0.621701713285,
			"0.017": 0.184507749488,
			"0.018": 0.0,
			"0.019": 0.0,
			"0.02": 0.0,
			"0.021": 0.0,
			"0.022": 0.0,
			"0.023": 0.0,
			"0.024": 0.0,
			"0.025": 0.0
		}
	}
}
