{
	 "smiles": "CC(C)CC(O)C(O)=O", 
	 "Tm": 349.65, 
	 "num_atms": 21, 
	 "gaussian": { 
		 "optdone": 1, 
		 "sigma_profile": "yes", 
		 "theory": "DFT", 
		 "functional": "B3LYP", 
		 "basiset": "6-31G**", 
		 "properties": { 
			 "R2extent": 1866.6907, 
			 "electric_dipole_moment_norm": 2.24901798348, 
			 "electric_quadrupole_moment_norm": 6.66790659128, 
			 "total_energy": -461.559750847, 
			 "HOMO_LUMO_gap": 0.25952, 
			 "cosmo_polarized_energy": -9.19, 
			 "cosmo_cavitation_energy": 22.82, 
			 "cosmo_dispersion_energy": -16.59, 
			 "cosmo_repulsion_energy": 1.37, 
			 "cosmo_total_nonelectrostatic_energy": 7.6, 
			 "SMD_solvation_energy": 4.94 
		},
		"coords": [
			{
				"x": -0.3492872213,
				"y": -1.4969496481,
				"z": 3.0464804211,
				"element": "C" 
			},
			{
				"x": 0.2053296043,
				"y": -0.6041064664,
				"z": 1.9242417673,
				"element": "C" 
			},
			{
				"x": -0.9208704128,
				"y": 0.1789140005,
				"z": 1.2321826797,
				"element": "C" 
			},
			{
				"x": 1.1250331061,
				"y": -1.3666575595,
				"z": 0.93954713,
				"element": "C" 
			},
			{
				"x": 0.4879599038,
				"y": -2.3254165534,
				"z": -0.087799681,
				"element": "C" 
			},
			{
				"x": -0.3368459181,
				"y": -3.2920900401,
				"z": 0.5211653683,
				"element": "O" 
			},
			{
				"x": -0.29119012,
				"y": -1.647177435,
				"z": -1.2096808259,
				"element": "C" 
			},
			{
				"x": 0.3948967638,
				"y": -0.6726960445,
				"z": -1.8340505723,
				"element": "O" 
			},
			{
				"x": -1.4037317804,
				"y": -2.0007593149,
				"z": -1.5498494521,
				"element": "O" 
			},
			{
				"x": 0.460200934,
				"y": -2.010563355,
				"z": 3.5770586936,
				"element": "H" 
			},
			{
				"x": -0.8986074522,
				"y": -0.8945481957,
				"z": 3.778980956,
				"element": "H" 
			},
			{
				"x": -1.018989578,
				"y": -2.261629921,
				"z": 2.6483616451,
				"element": "H" 
			},
			{
				"x": 0.8643969546,
				"y": 0.1361714555,
				"z": 2.4014873963,
				"element": "H" 
			},
			{
				"x": -1.4493691572,
				"y": 0.8088385708,
				"z": 1.9555364515,
				"element": "H" 
			},
			{
				"x": -1.6619908691,
				"y": -0.4941513661,
				"z": 0.7882575052,
				"element": "H" 
			},
			{
				"x": -0.5352707765,
				"y": 0.8319979901,
				"z": 0.4416734307,
				"element": "H" 
			},
			{
				"x": 1.8346909702,
				"y": -1.963340526,
				"z": 1.5246096275,
				"element": "H" 
			},
			{
				"x": 1.7236595231,
				"y": -0.6473037328,
				"z": 0.368411801,
				"element": "H" 
			},
			{
				"x": 1.3294223623,
				"y": -2.8191503758,
				"z": -0.6090603256,
				"element": "H" 
			},
			{
				"x": -1.1280012116,
				"y": -3.3628247877,
				"z": -0.0388803308,
				"element": "H" 
			},
			{
				"x": -0.1747356249,
				"y": -0.3465566949,
				"z": -2.5513736856,
				"element": "H" 
			}
		],
		 "valence_orbital": [ 
			{
				"type": "occ",
				"energy": -0.32556,
				"method": "rhf"
			},
			{
				"type": "occ",
				"energy": -0.3235,
				"method": "rhf"
			},
			{
				"type": "occ",
				"energy": -0.31809,
				"method": "rhf"
			},
			{
				"type": "occ",
				"energy": -0.29423,
				"method": "rhf"
			},
			{
				"type": "occ",
				"energy": -0.26508,
				"method": "rhf"
			},
			{
				"type": "unocc",
				"energy": -0.00556,
				"method": "rhf"
			},
			{
				"type": "unocc",
				"energy": 0.05928,
				"method": "rhf"
			},
			{
				"type": "unocc",
				"energy": 0.08393,
				"method": "rhf"
			},
			{
				"type": "unocc",
				"energy": 0.11606,
				"method": "rhf"
			},
			{
				"type": "unocc",
				"energy": 0.13416,
				"method": "rhf"
			}
		],
		"cosmo_sigma_profile": { 
			"-0.025": 0.0,
			"-0.024": 0.0,
			"-0.023": 0.0,
			"-0.022": 0.0,
			"-0.021": 0.0,
			"-0.02": 0.0,
			"-0.019": 0.537634015677,
			"-0.018": 1.12620303002,
			"-0.017": 0.675324464143,
			"-0.016": 0.741002806645,
			"-0.015": 0.842035424459,
			"-0.014": 0.630122584641,
			"-0.013": 0.882864380309,
			"-0.012": 0.646569776903,
			"-0.011": 1.37830400134,
			"-0.01": 1.16651222641,
			"-0.009": 0.878552586503,
			"-0.008": 1.7129639969,
			"-0.007": 2.03561603346,
			"-0.006": 3.61757552353,
			"-0.005": 4.25585383487,
			"-0.004": 6.69521808044,
			"-0.003": 10.7991826326,
			"-0.002": 21.036657798,
			"-0.001": 24.0571268063,
			"0.0": 21.678219849,
			"0.001": 18.7045152883,
			"0.002": 13.858708245,
			"0.003": 6.22403218014,
			"0.004": 4.15010113018,
			"0.005": 2.80907772138,
			"0.006": 3.27476029692,
			"0.007": 3.56489838571,
			"0.008": 4.28161296066,
			"0.009": 2.94330126394,
			"0.01": 3.68842622354,
			"0.011": 3.49825250661,
			"0.012": 1.61991963461,
			"0.013": 1.35162456258,
			"0.014": 0.814532653062,
			"0.015": 0.133835554202,
			"0.016": 0.0,
			"0.017": 0.0,
			"0.018": 0.0,
			"0.019": 0.0,
			"0.02": 0.0,
			"0.021": 0.0,
			"0.022": 0.0,
			"0.023": 0.0,
			"0.024": 0.0,
			"0.025": 0.0
		}
	}
}
