{
	 "smiles": "CCOC(=O)C1=C(C)C2=C(S1)N=CN=C2Cl", 
	 "Tm": 387.15, 
	 "num_atms": 25, 
	 "gaussian": { 
		 "optdone": 1, 
		 "sigma_profile": "yes", 
		 "theory": "DFT", 
		 "functional": "B3LYP", 
		 "basiset": "6-31G**", 
		 "properties": { 
			 "R2extent": 5257.7655, 
			 "electric_dipole_moment_norm": 3.60805005924, 
			 "electric_quadrupole_moment_norm": 11.7239071802, 
			 "total_energy": -1504.83220332, 
			 "HOMO_LUMO_gap": 0.16665, 
			 "cosmo_polarized_energy": -9.26, 
			 "cosmo_cavitation_energy": 32.45, 
			 "cosmo_dispersion_energy": -24.37, 
			 "cosmo_repulsion_energy": 1.84, 
			 "cosmo_total_nonelectrostatic_energy": 9.93, 
			 "SMD_solvation_energy": 3.15 
		},
		"coords": [
			{
				"x": 4.4531492309,
				"y": -0.0605549963,
				"z": 1.6280469986,
				"element": "C" 
			},
			{
				"x": 3.3225523692,
				"y": -0.7416835797,
				"z": 2.3826768455,
				"element": "C" 
			},
			{
				"x": 2.0779911062,
				"y": -0.6879820544,
				"z": 1.6335475682,
				"element": "O" 
			},
			{
				"x": 1.3471321055,
				"y": 0.4347925505,
				"z": 1.7701028984,
				"element": "C" 
			},
			{
				"x": 1.6715916405,
				"y": 1.37252202,
				"z": 2.4771849146,
				"element": "O" 
			},
			{
				"x": 0.0866410612,
				"y": 0.4510668823,
				"z": 0.9898462555,
				"element": "C" 
			},
			{
				"x": -0.4959262759,
				"y": -0.4526048955,
				"z": 0.1272866281,
				"element": "C" 
			},
			{
				"x": 0.0696779778,
				"y": -1.7920317184,
				"z": -0.2596850348,
				"element": "C" 
			},
			{
				"x": -1.7533952273,
				"y": 0.0681377739,
				"z": -0.3724265678,
				"element": "C" 
			},
			{
				"x": -2.0594214846,
				"y": 1.3581284144,
				"z": 0.1445529637,
				"element": "C" 
			},
			{
				"x": -0.8334166447,
				"y": 1.9377299584,
				"z": 1.2294471877,
				"element": "S" 
			},
			{
				"x": -3.1507708554,
				"y": 2.0713880336,
				"z": -0.145991375,
				"element": "N" 
			},
			{
				"x": -3.9834917045,
				"y": 1.4784737831,
				"z": -0.9920382397,
				"element": "C" 
			},
			{
				"x": -3.8286477081,
				"y": 0.2668087856,
				"z": -1.5591278098,
				"element": "N" 
			},
			{
				"x": -2.7449467555,
				"y": -0.4138675349,
				"z": -1.2550786183,
				"element": "C" 
			},
			{
				"x": -2.609752105,
				"y": -1.9867764017,
				"z": -2.0294311667,
				"element": "Cl" 
			},
			{
				"x": 5.3904472731,
				"y": -0.1858533174,
				"z": 2.1801127648,
				"element": "H" 
			},
			{
				"x": 4.5797060085,
				"y": -0.49880282,
				"z": 0.6338170818,
				"element": "H" 
			},
			{
				"x": 4.2578293009,
				"y": 1.0092051471,
				"z": 1.5239348946,
				"element": "H" 
			},
			{
				"x": 3.507695557,
				"y": -1.8105575346,
				"z": 2.5089516411,
				"element": "H" 
			},
			{
				"x": 3.1610663751,
				"y": -0.2806436359,
				"z": 3.3591976408,
				"element": "H" 
			},
			{
				"x": 1.0258765957,
				"y": -1.9664684878,
				"z": 0.224709132,
				"element": "H" 
			},
			{
				"x": -0.6202980694,
				"y": -2.594754897,
				"z": 0.0175944247,
				"element": "H" 
			},
			{
				"x": 0.2035091074,
				"y": -1.8528599047,
				"z": -1.3437969456,
				"element": "H" 
			},
			{
				"x": -4.8869988784,
				"y": 2.0196884296,
				"z": -1.2603340825,
				"element": "H" 
			}
		],
		 "valence_orbital": [ 
			{
				"type": "occ",
				"energy": -0.31396,
				"method": "rhf"
			},
			{
				"type": "occ",
				"energy": -0.29432,
				"method": "rhf"
			},
			{
				"type": "occ",
				"energy": -0.27882,
				"method": "rhf"
			},
			{
				"type": "occ",
				"energy": -0.27491,
				"method": "rhf"
			},
			{
				"type": "occ",
				"energy": -0.24948,
				"method": "rhf"
			},
			{
				"type": "unocc",
				"energy": -0.08283,
				"method": "rhf"
			},
			{
				"type": "unocc",
				"energy": -0.0481,
				"method": "rhf"
			},
			{
				"type": "unocc",
				"energy": -0.01483,
				"method": "rhf"
			},
			{
				"type": "unocc",
				"energy": 0.00285,
				"method": "rhf"
			},
			{
				"type": "unocc",
				"energy": 0.03145,
				"method": "rhf"
			}
		],
		"cosmo_sigma_profile": { 
			"-0.025": 0.0,
			"-0.024": 0.0,
			"-0.023": 0.0,
			"-0.022": 0.0,
			"-0.021": 0.0,
			"-0.02": 0.0,
			"-0.019": 0.0,
			"-0.018": 0.0,
			"-0.017": 0.0,
			"-0.016": 0.0,
			"-0.015": 0.0,
			"-0.014": 0.0,
			"-0.013": 0.0,
			"-0.012": 0.0,
			"-0.011": 0.0,
			"-0.01": 0.0,
			"-0.009": 1.12157596941,
			"-0.008": 1.89383175687,
			"-0.007": 1.98802596183,
			"-0.006": 4.50120341825,
			"-0.005": 14.3696570605,
			"-0.004": 22.2337746159,
			"-0.003": 29.6822760993,
			"-0.002": 31.7683225866,
			"-0.001": 35.0455834331,
			"0.0": 29.1162353057,
			"0.001": 19.5410033731,
			"0.002": 16.3217622713,
			"0.003": 14.6144203067,
			"0.004": 8.15783386781,
			"0.005": 5.22501781039,
			"0.006": 5.08716603048,
			"0.007": 3.20899270084,
			"0.008": 3.88868866645,
			"0.009": 3.8130238353,
			"0.01": 3.92499708014,
			"0.011": 5.49957142999,
			"0.012": 1.94191620929,
			"0.013": 1.43798799638,
			"0.014": 0.0391099813582,
			"0.015": 0.0,
			"0.016": 0.0,
			"0.017": 0.0,
			"0.018": 0.0,
			"0.019": 0.0,
			"0.02": 0.0,
			"0.021": 0.0,
			"0.022": 0.0,
			"0.023": 0.0,
			"0.024": 0.0,
			"0.025": 0.0
		}
	}
}
