{
	 "smiles": "BrC1=CC=CC=C1", 
	 "Tm": 242.35, 
	 "num_atms": 12, 
	 "gaussian": { 
		 "optdone": 1, 
		 "sigma_profile": "yes", 
		 "theory": "DFT", 
		 "functional": "B3LYP", 
		 "basiset": "6-31G**", 
		 "properties": { 
			 "R2extent": 3953.6542, 
			 "electric_dipole_moment_norm": 1.8233121894, 
			 "electric_quadrupole_moment_norm": 7.03520142853, 
			 "total_energy": -2803.05523718, 
			 "HOMO_LUMO_gap": 0.22897, 
			 "cosmo_polarized_energy": -3.58, 
			 "cosmo_cavitation_energy": 18.08, 
			 "cosmo_dispersion_energy": -14.08, 
			 "cosmo_repulsion_energy": 1.18, 
			 "cosmo_total_nonelectrostatic_energy": 5.18, 
			 "SMD_solvation_energy": 2.04 
		},
		"coords": [
			{
				"x": 1.5631674609,
				"y": 2.6362313879,
				"z": 3.835848791,
				"element": "Br" 
			},
			{
				"x": 1.0628716301,
				"y": 1.2943040268,
				"z": 2.5666281676,
				"element": "C" 
			},
			{
				"x": 1.9127977548,
				"y": 1.0159919505,
				"z": 1.4972907791,
				"element": "C" 
			},
			{
				"x": 1.5409805562,
				"y": 0.0357796219,
				"z": 0.5754125461,
				"element": "C" 
			},
			{
				"x": 0.3363033947,
				"y": -0.6543929046,
				"z": 0.7232705095,
				"element": "C" 
			},
			{
				"x": -0.5019089342,
				"y": -0.361756701,
				"z": 1.8008789691,
				"element": "C" 
			},
			{
				"x": -0.143768696,
				"y": 0.6158045588,
				"z": 2.7309531383,
				"element": "C" 
			},
			{
				"x": 2.8466554116,
				"y": 1.5558111779,
				"z": 1.3887797838,
				"element": "H" 
			},
			{
				"x": 2.19944027,
				"y": -0.1849647483,
				"z": -0.2595187334,
				"element": "H" 
			},
			{
				"x": 0.0524705405,
				"y": -1.4156108054,
				"z": 0.0031539893,
				"element": "H" 
			},
			{
				"x": -1.440848965,
				"y": -0.8933524271,
				"z": 1.924150407,
				"element": "H" 
			},
			{
				"x": -0.7896604236,
				"y": 0.8482548627,
				"z": 3.5700516526,
				"element": "H" 
			}
		],
		 "valence_orbital": [ 
			{
				"type": "occ",
				"energy": -0.35331,
				"method": "rhf"
			},
			{
				"type": "occ",
				"energy": -0.3119,
				"method": "rhf"
			},
			{
				"type": "occ",
				"energy": -0.2858,
				"method": "rhf"
			},
			{
				"type": "occ",
				"energy": -0.26311,
				"method": "rhf"
			},
			{
				"type": "occ",
				"energy": -0.24245,
				"method": "rhf"
			},
			{
				"type": "unocc",
				"energy": -0.01348,
				"method": "rhf"
			},
			{
				"type": "unocc",
				"energy": -0.01348,
				"method": "rhf"
			},
			{
				"type": "unocc",
				"energy": 0.00788,
				"method": "rhf"
			},
			{
				"type": "unocc",
				"energy": 0.10217,
				"method": "rhf"
			},
			{
				"type": "unocc",
				"energy": 0.13576,
				"method": "rhf"
			}
		],
		"cosmo_sigma_profile": { 
			"-0.025": 0.0,
			"-0.024": 0.0,
			"-0.023": 0.0,
			"-0.022": 0.0,
			"-0.021": 0.0,
			"-0.02": 0.0,
			"-0.019": 0.0,
			"-0.018": 0.0,
			"-0.017": 0.0,
			"-0.016": 0.0,
			"-0.015": 0.0,
			"-0.014": 0.0,
			"-0.013": 0.0,
			"-0.012": 0.0,
			"-0.011": 0.0,
			"-0.01": 0.0,
			"-0.009": 0.0,
			"-0.008": 0.0,
			"-0.007": 3.55902006787,
			"-0.006": 10.0659073124,
			"-0.005": 11.2799990716,
			"-0.004": 11.1994444929,
			"-0.003": 9.25351667051,
			"-0.002": 8.39244063574,
			"-0.001": 8.73489427891,
			"0.0": 9.85103728033,
			"0.001": 10.1557463699,
			"0.002": 15.6974231373,
			"0.003": 16.6756802465,
			"0.004": 21.8447550472,
			"0.005": 11.873365958,
			"0.006": 0.078859941877,
			"0.007": 0.0,
			"0.008": 0.0,
			"0.009": 0.0,
			"0.01": 0.0,
			"0.011": 0.0,
			"0.012": 0.0,
			"0.013": 0.0,
			"0.014": 0.0,
			"0.015": 0.0,
			"0.016": 0.0,
			"0.017": 0.0,
			"0.018": 0.0,
			"0.019": 0.0,
			"0.02": 0.0,
			"0.021": 0.0,
			"0.022": 0.0,
			"0.023": 0.0,
			"0.024": 0.0,
			"0.025": 0.0
		}
	}
}
