{
	 "smiles": "OCC1CCN(CC1)C1=NC=C(C=C1)[N+]([O-])=O", 
	 "Tm": 397.15, 
	 "num_atms": 32, 
	 "gaussian": { 
		 "optdone": 1, 
		 "sigma_profile": "yes", 
		 "theory": "DFT", 
		 "functional": "B3LYP", 
		 "basiset": "6-31G**", 
		 "properties": { 
			 "R2extent": 7876.0644, 
			 "electric_dipole_moment_norm": 6.59307558731, 
			 "electric_quadrupole_moment_norm": 50.2842874348, 
			 "total_energy": -818.033135222, 
			 "HOMO_LUMO_gap": 0.14803, 
			 "cosmo_polarized_energy": -16.82, 
			 "cosmo_cavitation_energy": 34.49, 
			 "cosmo_dispersion_energy": -25.28, 
			 "cosmo_repulsion_energy": 1.95, 
			 "cosmo_total_nonelectrostatic_energy": 11.16, 
			 "SMD_solvation_energy": 6.12 
		},
		"coords": [
			{
				"x": -0.4418184368,
				"y": -1.7156496117,
				"z": -3.6593567654,
				"element": "O" 
			},
			{
				"x": -0.2203194931,
				"y": -0.3770935142,
				"z": -3.2365708235,
				"element": "C" 
			},
			{
				"x": -0.2229717637,
				"y": -0.2125375948,
				"z": -1.7120455878,
				"element": "C" 
			},
			{
				"x": 0.0810800273,
				"y": 1.2531347549,
				"z": -1.299662906,
				"element": "C" 
			},
			{
				"x": -0.7543688019,
				"y": 1.7034709317,
				"z": -0.0884767013,
				"element": "C" 
			},
			{
				"x": -0.8756733053,
				"y": 0.6320099874,
				"z": 0.9050658856,
				"element": "N" 
			},
			{
				"x": -1.4573393358,
				"y": -0.6356734439,
				"z": 0.4466361572,
				"element": "C" 
			},
			{
				"x": -1.5412561792,
				"y": -0.6818598681,
				"z": -1.0826936443,
				"element": "C" 
			},
			{
				"x": -0.5624176878,
				"y": 0.8257730926,
				"z": 2.2192475624,
				"element": "C" 
			},
			{
				"x": -0.0260350896,
				"y": 2.0238475379,
				"z": 2.5588690392,
				"element": "N" 
			},
			{
				"x": 0.3088952103,
				"y": 2.2430942016,
				"z": 3.82317502,
				"element": "C" 
			},
			{
				"x": 0.1312463872,
				"y": 1.2932556685,
				"z": 4.8312546003,
				"element": "C" 
			},
			{
				"x": -0.4321977206,
				"y": 0.0544335979,
				"z": 4.5053967096,
				"element": "C" 
			},
			{
				"x": -0.7866382036,
				"y": -0.1893167005,
				"z": 3.1953924469,
				"element": "C" 
			},
			{
				"x": 0.5167905508,
				"y": 1.5903180757,
				"z": 6.1944874764,
				"element": "N" 
			},
			{
				"x": 1.0039443912,
				"y": 2.7007900352,
				"z": 6.4277215445,
				"element": "O" 
			},
			{
				"x": 0.3366918995,
				"y": 0.7139605738,
				"z": 7.0461732461,
				"element": "O" 
			},
			{
				"x": 0.3317558449,
				"y": -2.2374911492,
				"z": -3.4092497938,
				"element": "H" 
			},
			{
				"x": -1.0390280433,
				"y": 0.2098341777,
				"z": -3.6700448522,
				"element": "H" 
			},
			{
				"x": 0.7182444235,
				"y": 0.0253681629,
				"z": -3.6501801384,
				"element": "H" 
			},
			{
				"x": 0.5759582766,
				"y": -0.8554705056,
				"z": -1.3103309244,
				"element": "H" 
			},
			{
				"x": -0.1369118912,
				"y": 1.9369956701,
				"z": -2.1307485073,
				"element": "H" 
			},
			{
				"x": 1.1468624108,
				"y": 1.364042935,
				"z": -1.0751423256,
				"element": "H" 
			},
			{
				"x": -1.7609405053,
				"y": 1.999583703,
				"z": -0.4138946522,
				"element": "H" 
			},
			{
				"x": -0.3056786425,
				"y": 2.5617761188,
				"z": 0.4066910334,
				"element": "H" 
			},
			{
				"x": -2.4520166482,
				"y": -0.7880678675,
				"z": 0.8916416853,
				"element": "H" 
			},
			{
				"x": -0.8202335255,
				"y": -1.4612550757,
				"z": 0.7913410493,
				"element": "H" 
			},
			{
				"x": -1.7660985177,
				"y": -1.7037693874,
				"z": -1.3996925274,
				"element": "H" 
			},
			{
				"x": -2.3681110659,
				"y": -0.0561320407,
				"z": -1.441761242,
				"element": "H" 
			},
			{
				"x": 0.7386285671,
				"y": 3.2101751873,
				"z": 4.0669408011,
				"element": "H" 
			},
			{
				"x": -0.5834440848,
				"y": -0.6835906708,
				"z": 5.2840883553,
				"element": "H" 
			},
			{
				"x": -1.2366990474,
				"y": -1.1358569819,
				"z": 2.927928779,
				"element": "H" 
			}
		],
		 "valence_orbital": [ 
			{
				"type": "occ",
				"energy": -0.29159,
				"method": "rhf"
			},
			{
				"type": "occ",
				"energy": -0.27973,
				"method": "rhf"
			},
			{
				"type": "occ",
				"energy": -0.27665,
				"method": "rhf"
			},
			{
				"type": "occ",
				"energy": -0.26834,
				"method": "rhf"
			},
			{
				"type": "occ",
				"energy": -0.22164,
				"method": "rhf"
			},
			{
				"type": "unocc",
				"energy": -0.07361,
				"method": "rhf"
			},
			{
				"type": "unocc",
				"energy": -0.03379,
				"method": "rhf"
			},
			{
				"type": "unocc",
				"energy": 0.01722,
				"method": "rhf"
			},
			{
				"type": "unocc",
				"energy": 0.05743,
				"method": "rhf"
			},
			{
				"type": "unocc",
				"energy": 0.07286,
				"method": "rhf"
			}
		],
		"cosmo_sigma_profile": { 
			"-0.025": 0.0,
			"-0.024": 0.0,
			"-0.023": 0.0,
			"-0.022": 0.0,
			"-0.021": 0.0,
			"-0.02": 0.0,
			"-0.019": 0.0,
			"-0.018": 0.0,
			"-0.017": 0.0,
			"-0.016": 0.0702901487519,
			"-0.015": 0.811808266098,
			"-0.014": 1.37995755509,
			"-0.013": 0.678703209916,
			"-0.012": 0.637178981522,
			"-0.011": 1.00151920452,
			"-0.01": 1.22176722423,
			"-0.009": 1.11494017632,
			"-0.008": 2.02680868103,
			"-0.007": 5.78407361547,
			"-0.006": 7.22194960374,
			"-0.005": 13.8038591374,
			"-0.004": 27.5839223637,
			"-0.003": 35.9674379724,
			"-0.002": 30.2843397654,
			"-0.001": 23.9163520237,
			"0.0": 24.7745415668,
			"0.001": 14.1475653298,
			"0.002": 10.8209667283,
			"0.003": 6.28519095446,
			"0.004": 6.38706940653,
			"0.005": 5.02391646084,
			"0.006": 4.73746702461,
			"0.007": 7.00866285923,
			"0.008": 11.3936605266,
			"0.009": 9.24755437388,
			"0.01": 7.66457557235,
			"0.011": 4.39999199267,
			"0.012": 1.31712997826,
			"0.013": 1.22217685462,
			"0.014": 2.26455862703,
			"0.015": 0.67205357451,
			"0.016": 0.0,
			"0.017": 0.0,
			"0.018": 0.0,
			"0.019": 0.0,
			"0.02": 0.0,
			"0.021": 0.0,
			"0.022": 0.0,
			"0.023": 0.0,
			"0.024": 0.0,
			"0.025": 0.0
		}
	}
}
