{
	 "smiles": "OC(=O)C1=CC(NC2=NC=CC=N2)=CC=C1", 
	 "Tm": 544.15, 
	 "num_atms": 25, 
	 "gaussian": { 
		 "optdone": 1, 
		 "sigma_profile": "yes", 
		 "theory": "DFT", 
		 "functional": "B3LYP", 
		 "basiset": "6-31G**", 
		 "properties": { 
			 "R2extent": 4849.9049, 
			 "electric_dipole_moment_norm": 1.71433594724, 
			 "electric_quadrupole_moment_norm": 14.6914870275, 
			 "total_energy": -739.323976543, 
			 "HOMO_LUMO_gap": 0.16604, 
			 "cosmo_polarized_energy": -14.96, 
			 "cosmo_cavitation_energy": 30.42, 
			 "cosmo_dispersion_energy": -22.47, 
			 "cosmo_repulsion_energy": 1.73, 
			 "cosmo_total_nonelectrostatic_energy": 9.67, 
			 "SMD_solvation_energy": 4.39 
		},
		"coords": [
			{
				"x": -3.849410361,
				"y": -0.7929520459,
				"z": 3.3529168946,
				"element": "O" 
			},
			{
				"x": -3.0098442308,
				"y": -0.6090440198,
				"z": 2.3006433412,
				"element": "C" 
			},
			{
				"x": -3.3586455694,
				"y": -0.8321910378,
				"z": 1.1583110952,
				"element": "O" 
			},
			{
				"x": -1.6639549824,
				"y": -0.1195769313,
				"z": 2.7084578892,
				"element": "C" 
			},
			{
				"x": -0.7307007167,
				"y": 0.0985257952,
				"z": 1.6875699253,
				"element": "C" 
			},
			{
				"x": 0.5533304689,
				"y": 0.5591274676,
				"z": 2.0090500578,
				"element": "C" 
			},
			{
				"x": 1.5634225752,
				"y": 0.8106879075,
				"z": 1.070969642,
				"element": "N" 
			},
			{
				"x": 1.604576734,
				"y": 0.6968798664,
				"z": -0.2987664339,
				"element": "C" 
			},
			{
				"x": 0.5259996929,
				"y": 0.2721244595,
				"z": -0.9742926156,
				"element": "N" 
			},
			{
				"x": 0.661868257,
				"y": 0.1940418173,
				"z": -2.3017288165,
				"element": "C" 
			},
			{
				"x": 1.838474734,
				"y": 0.526981245,
				"z": -2.9654186045,
				"element": "C" 
			},
			{
				"x": 2.8929453228,
				"y": 0.9562838135,
				"z": -2.155217909,
				"element": "C" 
			},
			{
				"x": 2.7975788674,
				"y": 1.0475520744,
				"z": -0.8317631436,
				"element": "N" 
			},
			{
				"x": 0.8734660716,
				"y": 0.7922582876,
				"z": 3.3608579139,
				"element": "C" 
			},
			{
				"x": -0.0632524597,
				"y": 0.5714270523,
				"z": 4.3649400503,
				"element": "C" 
			},
			{
				"x": -1.3420085334,
				"y": 0.1132645245,
				"z": 4.0510709908,
				"element": "C" 
			},
			{
				"x": -4.6827960093,
				"y": -1.1084500456,
				"z": 2.9670267939,
				"element": "H" 
			},
			{
				"x": -1.0064590835,
				"y": -0.0895158516,
				"z": 0.660429298,
				"element": "H" 
			},
			{
				"x": 2.4437010891,
				"y": 1.1406000723,
				"z": 1.4421562291,
				"element": "H" 
			},
			{
				"x": -0.214331419,
				"y": -0.1508779155,
				"z": -2.8481575471,
				"element": "H" 
			},
			{
				"x": 1.9315672357,
				"y": 0.4578569867,
				"z": -4.0424641923,
				"element": "H" 
			},
			{
				"x": 3.8525628668,
				"y": 1.2380916496,
				"z": -2.5865640309,
				"element": "H" 
			},
			{
				"x": 1.8676177319,
				"y": 1.1498458517,
				"z": 3.6197596463,
				"element": "H" 
			},
			{
				"x": 0.2095430597,
				"y": 0.7591208349,
				"z": 5.3990968489,
				"element": "H" 
			},
			{
				"x": -2.0781513417,
				"y": -0.0616618583,
				"z": 4.8260166768,
				"element": "H" 
			}
		],
		 "valence_orbital": [ 
			{
				"type": "occ",
				"energy": -0.27548,
				"method": "rhf"
			},
			{
				"type": "occ",
				"energy": -0.27026,
				"method": "rhf"
			},
			{
				"type": "occ",
				"energy": -0.25704,
				"method": "rhf"
			},
			{
				"type": "occ",
				"energy": -0.2527,
				"method": "rhf"
			},
			{
				"type": "occ",
				"energy": -0.21075,
				"method": "rhf"
			},
			{
				"type": "unocc",
				"energy": -0.04471,
				"method": "rhf"
			},
			{
				"type": "unocc",
				"energy": -0.03741,
				"method": "rhf"
			},
			{
				"type": "unocc",
				"energy": -0.02226,
				"method": "rhf"
			},
			{
				"type": "unocc",
				"energy": 0.02013,
				"method": "rhf"
			},
			{
				"type": "unocc",
				"energy": 0.06754,
				"method": "rhf"
			}
		],
		"cosmo_sigma_profile": { 
			"-0.025": 0.0,
			"-0.024": 0.0,
			"-0.023": 0.0,
			"-0.022": 0.0,
			"-0.021": 0.0,
			"-0.02": 0.0,
			"-0.019": 0.0499396334722,
			"-0.018": 0.84179795947,
			"-0.017": 0.737790750366,
			"-0.016": 0.920667473686,
			"-0.015": 0.833915594422,
			"-0.014": 1.38642734014,
			"-0.013": 2.14398299742,
			"-0.012": 1.61044409222,
			"-0.011": 2.03470185855,
			"-0.01": 2.02150424634,
			"-0.009": 1.44409151146,
			"-0.008": 3.01305402164,
			"-0.007": 11.661557203,
			"-0.006": 13.1736507573,
			"-0.005": 12.306790196,
			"-0.004": 10.7997456316,
			"-0.003": 8.9862558259,
			"-0.002": 13.6147506904,
			"-0.001": 14.357999008,
			"0.0": 18.4424428555,
			"0.001": 22.3315879039,
			"0.002": 24.0630740682,
			"0.003": 20.3659137534,
			"0.004": 15.7787622616,
			"0.005": 8.03764668491,
			"0.006": 7.41369631372,
			"0.007": 6.62051094211,
			"0.008": 3.76536400886,
			"0.009": 1.67231482418,
			"0.01": 2.99359302148,
			"0.011": 5.06224739734,
			"0.012": 5.02492497179,
			"0.013": 1.05474372383,
			"0.014": 0.253905225577,
			"0.015": 0.0,
			"0.016": 0.0,
			"0.017": 0.0,
			"0.018": 0.0,
			"0.019": 0.0,
			"0.02": 0.0,
			"0.021": 0.0,
			"0.022": 0.0,
			"0.023": 0.0,
			"0.024": 0.0,
			"0.025": 0.0
		}
	}
}
