{
	 "smiles": "C=CCOCC=C", 
	 "Tm": 267.15, 
	 "num_atms": 17, 
	 "gaussian": { 
		 "optdone": 1, 
		 "sigma_profile": "yes", 
		 "theory": "DFT", 
		 "functional": "B3LYP", 
		 "basiset": "6-31G**", 
		 "properties": { 
			 "R2extent": 1462.1832, 
			 "electric_dipole_moment_norm": 1.14215778245, 
			 "electric_quadrupole_moment_norm": 3.66324344536, 
			 "total_energy": -309.820925902, 
			 "HOMO_LUMO_gap": 0.25647, 
			 "cosmo_polarized_energy": -4.73, 
			 "cosmo_cavitation_energy": 20.9, 
			 "cosmo_dispersion_energy": -14.68, 
			 "cosmo_repulsion_energy": 1.27, 
			 "cosmo_total_nonelectrostatic_energy": 7.49, 
			 "SMD_solvation_energy": 5.11 
		},
		"coords": [
			{
				"x": 1.0654080844,
				"y": -0.6809708678,
				"z": -2.8390111395,
				"element": "C" 
			},
			{
				"x": 1.5497898962,
				"y": -1.2878216611,
				"z": -1.7556116376,
				"element": "C" 
			},
			{
				"x": 0.8507109942,
				"y": -2.3960352269,
				"z": -1.0119756096,
				"element": "C" 
			},
			{
				"x": 0.7395027332,
				"y": -2.1499406373,
				"z": 0.383703904,
				"element": "O" 
			},
			{
				"x": -0.186997355,
				"y": -1.1191679197,
				"z": 0.7086010026,
				"element": "C" 
			},
			{
				"x": -0.3275655568,
				"y": -1.0590151558,
				"z": 2.2004951116,
				"element": "C" 
			},
			{
				"x": -0.2410167548,
				"y": 0.0593131967,
				"z": 2.91901606,
				"element": "C" 
			},
			{
				"x": 1.6185453048,
				"y": 0.0966148023,
				"z": -3.3577207726,
				"element": "H" 
			},
			{
				"x": 0.0963324107,
				"y": -0.948473765,
				"z": -3.2551927963,
				"element": "H" 
			},
			{
				"x": 2.5204409689,
				"y": -0.9986208976,
				"z": -1.352956983,
				"element": "H" 
			},
			{
				"x": 1.4323088936,
				"y": -3.3229119003,
				"z": -1.0896046187,
				"element": "H" 
			},
			{
				"x": -0.1406872779,
				"y": -2.5830260761,
				"z": -1.4580011257,
				"element": "H" 
			},
			{
				"x": -1.1658000331,
				"y": -1.3494508839,
				"z": 0.2478490333,
				"element": "H" 
			},
			{
				"x": 0.1356335176,
				"y": -0.1465087419,
				"z": 0.3087484362,
				"element": "H" 
			},
			{
				"x": -0.5317900421,
				"y": -2.0121195288,
				"z": 2.6864586366,
				"element": "H" 
			},
			{
				"x": -0.3844586829,
				"y": 0.0594360302,
				"z": 3.9954171225,
				"element": "H" 
			},
			{
				"x": -0.0272571007,
				"y": 1.019899233,
				"z": 2.4558853763,
				"element": "H" 
			}
		],
		 "valence_orbital": [ 
			{
				"type": "occ",
				"energy": -0.34675,
				"method": "rhf"
			},
			{
				"type": "occ",
				"energy": -0.31194,
				"method": "rhf"
			},
			{
				"type": "occ",
				"energy": -0.2671,
				"method": "rhf"
			},
			{
				"type": "occ",
				"energy": -0.26592,
				"method": "rhf"
			},
			{
				"type": "occ",
				"energy": -0.25005,
				"method": "rhf"
			},
			{
				"type": "unocc",
				"energy": 0.00642,
				"method": "rhf"
			},
			{
				"type": "unocc",
				"energy": 0.01788,
				"method": "rhf"
			},
			{
				"type": "unocc",
				"energy": 0.11055,
				"method": "rhf"
			},
			{
				"type": "unocc",
				"energy": 0.12108,
				"method": "rhf"
			},
			{
				"type": "unocc",
				"energy": 0.12693,
				"method": "rhf"
			}
		],
		"cosmo_sigma_profile": { 
			"-0.025": 0.0,
			"-0.024": 0.0,
			"-0.023": 0.0,
			"-0.022": 0.0,
			"-0.021": 0.0,
			"-0.02": 0.0,
			"-0.019": 0.0,
			"-0.018": 0.0,
			"-0.017": 0.0,
			"-0.016": 0.0,
			"-0.015": 0.0,
			"-0.014": 0.0,
			"-0.013": 0.0,
			"-0.012": 0.0,
			"-0.011": 0.0,
			"-0.01": 0.0,
			"-0.009": 0.0,
			"-0.008": 0.0,
			"-0.007": 0.0,
			"-0.006": 0.916459609581,
			"-0.005": 11.8169762915,
			"-0.004": 20.0870650457,
			"-0.003": 21.0288145508,
			"-0.002": 20.9987575185,
			"-0.001": 16.278914454,
			"0.0": 12.5435460259,
			"0.001": 10.2308962723,
			"0.002": 10.6018528964,
			"0.003": 8.12858156452,
			"0.004": 7.96932338123,
			"0.005": 7.41101834466,
			"0.006": 4.57222955351,
			"0.007": 3.43181708413,
			"0.008": 1.66649035458,
			"0.009": 1.01326198707,
			"0.01": 1.21311654773,
			"0.011": 1.6872307329,
			"0.012": 1.29973685978,
			"0.013": 1.50662229696,
			"0.014": 0.114817319158,
			"0.015": 0.0,
			"0.016": 0.0,
			"0.017": 0.0,
			"0.018": 0.0,
			"0.019": 0.0,
			"0.02": 0.0,
			"0.021": 0.0,
			"0.022": 0.0,
			"0.023": 0.0,
			"0.024": 0.0,
			"0.025": 0.0
		}
	}
}
