{
	 "smiles": "OC(=O)CN1C=CC(=N1)C(F)(F)F", 
	 "Tm": 334.15, 
	 "num_atms": 18, 
	 "gaussian": { 
		 "optdone": 1, 
		 "sigma_profile": "yes", 
		 "theory": "DFT", 
		 "functional": "B3LYP", 
		 "basiset": "6-31G**", 
		 "properties": { 
			 "R2extent": 3766.8016, 
			 "electric_dipole_moment_norm": 5.00845045298, 
			 "electric_quadrupole_moment_norm": 20.4384919434, 
			 "total_energy": -791.111407206, 
			 "HOMO_LUMO_gap": 0.23626, 
			 "cosmo_polarized_energy": -14.13, 
			 "cosmo_cavitation_energy": 24.75, 
			 "cosmo_dispersion_energy": -17.52, 
			 "cosmo_repulsion_energy": 1.34, 
			 "cosmo_total_nonelectrostatic_energy": 8.57, 
			 "SMD_solvation_energy": 6.51 
		},
		"coords": [
			{
				"x": -3.3095573639,
				"y": 1.9254872117,
				"z": 1.8316163418,
				"element": "O" 
			},
			{
				"x": -3.8229476837,
				"y": 1.2540064696,
				"z": 0.8007832621,
				"element": "C" 
			},
			{
				"x": -4.9373536555,
				"y": 1.4394513994,
				"z": 0.3760275974,
				"element": "O" 
			},
			{
				"x": -2.9578139694,
				"y": 0.1280164025,
				"z": 0.1916045028,
				"element": "C" 
			},
			{
				"x": -1.5156682749,
				"y": 0.344379255,
				"z": 0.2432344362,
				"element": "N" 
			},
			{
				"x": -0.6001598454,
				"y": 0.1961966238,
				"z": -0.7492374368,
				"element": "C" 
			},
			{
				"x": 0.6371189701,
				"y": 0.4900805699,
				"z": -0.2051899155,
				"element": "C" 
			},
			{
				"x": 0.3589288837,
				"y": 0.8125893671,
				"z": 1.135065526,
				"element": "C" 
			},
			{
				"x": -0.9442801309,
				"y": 0.7151302958,
				"z": 1.4056981768,
				"element": "N" 
			},
			{
				"x": 1.3286621829,
				"y": 1.1904023645,
				"z": 2.212730498,
				"element": "C" 
			},
			{
				"x": 0.8589555767,
				"y": 2.1945031067,
				"z": 2.9751344391,
				"element": "F" 
			},
			{
				"x": 2.4984387,
				"y": 1.5843263034,
				"z": 1.6666906788,
				"element": "F" 
			},
			{
				"x": 1.5946175449,
				"y": 0.1523549745,
				"z": 3.0328872051,
				"element": "F" 
			},
			{
				"x": -2.3887172187,
				"y": 1.6185351027,
				"z": 2.015770087,
				"element": "H" 
			},
			{
				"x": -3.2028460147,
				"y": -0.7995101409,
				"z": 0.7227491266,
				"element": "H" 
			},
			{
				"x": -3.2537834392,
				"y": 0.0146520606,
				"z": -0.8503847677,
				"element": "H" 
			},
			{
				"x": -0.8924332953,
				"y": -0.0996852767,
				"z": -1.7458558159,
				"element": "H" 
			},
			{
				"x": 1.5957390333,
				"y": 0.4850839105,
				"z": -0.6990239418,
				"element": "H" 
			}
		],
		 "valence_orbital": [ 
			{
				"type": "occ",
				"energy": -0.3397,
				"method": "rhf"
			},
			{
				"type": "occ",
				"energy": -0.31775,
				"method": "rhf"
			},
			{
				"type": "occ",
				"energy": -0.30498,
				"method": "rhf"
			},
			{
				"type": "occ",
				"energy": -0.29207,
				"method": "rhf"
			},
			{
				"type": "occ",
				"energy": -0.27223,
				"method": "rhf"
			},
			{
				"type": "unocc",
				"energy": -0.03597,
				"method": "rhf"
			},
			{
				"type": "unocc",
				"energy": 0.0011,
				"method": "rhf"
			},
			{
				"type": "unocc",
				"energy": 0.0172,
				"method": "rhf"
			},
			{
				"type": "unocc",
				"energy": 0.06558,
				"method": "rhf"
			},
			{
				"type": "unocc",
				"energy": 0.10306,
				"method": "rhf"
			}
		],
		"cosmo_sigma_profile": { 
			"-0.025": 0.0,
			"-0.024": 0.0,
			"-0.023": 0.0,
			"-0.022": 0.0,
			"-0.021": 0.0,
			"-0.02": 0.0,
			"-0.019": 0.0,
			"-0.018": 0.0,
			"-0.017": 0.0,
			"-0.016": 0.0,
			"-0.015": 0.0,
			"-0.014": 0.0,
			"-0.013": 0.0,
			"-0.012": 0.69673508976,
			"-0.011": 2.73038215612,
			"-0.01": 5.88290263621,
			"-0.009": 6.91683501655,
			"-0.008": 7.62626613805,
			"-0.007": 7.82138467664,
			"-0.006": 8.83703025534,
			"-0.005": 8.74468854862,
			"-0.004": 7.41383410315,
			"-0.003": 7.76278792685,
			"-0.002": 7.55116678672,
			"-0.001": 8.78943314346,
			"0.0": 13.1748869153,
			"0.001": 16.3250965414,
			"0.002": 31.486647014,
			"0.003": 23.7775584432,
			"0.004": 2.90865683759,
			"0.005": 2.1736201835,
			"0.006": 2.71704282604,
			"0.007": 3.13106995949,
			"0.008": 2.43241894205,
			"0.009": 4.09606601001,
			"0.01": 4.7656716536,
			"0.011": 5.4574997488,
			"0.012": 4.50634555269,
			"0.013": 1.1823507378,
			"0.014": 0.0,
			"0.015": 0.0,
			"0.016": 0.0,
			"0.017": 0.0,
			"0.018": 0.0,
			"0.019": 0.0,
			"0.02": 0.0,
			"0.021": 0.0,
			"0.022": 0.0,
			"0.023": 0.0,
			"0.024": 0.0,
			"0.025": 0.0
		}
	}
}
