{
	 "smiles": "O=CC1=CN=C(N=C1)N1CCOCC1", 
	 "Tm": 421.15, 
	 "num_atms": 25, 
	 "gaussian": { 
		 "optdone": 1, 
		 "sigma_profile": "yes", 
		 "theory": "DFT", 
		 "functional": "B3LYP", 
		 "basiset": "6-31G**", 
		 "properties": { 
			 "R2extent": 4125.2383, 
			 "electric_dipole_moment_norm": 3.09519236397, 
			 "electric_quadrupole_moment_norm": 20.2887505401, 
			 "total_energy": -664.263365684, 
			 "HOMO_LUMO_gap": 0.1708, 
			 "cosmo_polarized_energy": -12.37, 
			 "cosmo_cavitation_energy": 28.34, 
			 "cosmo_dispersion_energy": -21.26, 
			 "cosmo_repulsion_energy": 1.67, 
			 "cosmo_total_nonelectrostatic_energy": 8.75, 
			 "SMD_solvation_energy": 3.11 
		},
		"coords": [
			{
				"x": -0.2662946373,
				"y": -2.3772844518,
				"z": 4.8454276648,
				"element": "O" 
			},
			{
				"x": -0.02869353,
				"y": -1.3594169694,
				"z": 4.2170795843,
				"element": "C" 
			},
			{
				"x": -0.0399327406,
				"y": -1.2606796194,
				"z": 2.7552248443,
				"element": "C" 
			},
			{
				"x": -0.3389878771,
				"y": -2.3615585782,
				"z": 1.9314590395,
				"element": "C" 
			},
			{
				"x": -0.3498337972,
				"y": -2.2962100169,
				"z": 0.6103651218,
				"element": "N" 
			},
			{
				"x": -0.0612329435,
				"y": -1.0820053708,
				"z": 0.0674661732,
				"element": "C" 
			},
			{
				"x": 0.2350926904,
				"y": 0.04838878,
				"z": 0.7586882736,
				"element": "N" 
			},
			{
				"x": 0.2443242614,
				"y": -0.0664939936,
				"z": 2.079841606,
				"element": "C" 
			},
			{
				"x": -0.0702866353,
				"y": -0.9928575431,
				"z": -1.2851621927,
				"element": "N" 
			},
			{
				"x": 0.2550094939,
				"y": 0.2627585494,
				"z": -1.970873267,
				"element": "C" 
			},
			{
				"x": 0.742128977,
				"y": -0.0477182621,
				"z": -3.3825987016,
				"element": "C" 
			},
			{
				"x": -0.2151076591,
				"y": -0.753266684,
				"z": -4.1658367637,
				"element": "O" 
			},
			{
				"x": -1.0599800282,
				"y": -1.6293784673,
				"z": -3.4228965272,
				"element": "C" 
			},
			{
				"x": -0.4214750617,
				"y": -2.1363590142,
				"z": -2.1336768788,
				"element": "C" 
			},
			{
				"x": 0.2200532207,
				"y": -0.4095077072,
				"z": 4.7426272163,
				"element": "H" 
			},
			{
				"x": -0.572383068,
				"y": -3.3219558098,
				"z": 2.3878897804,
				"element": "H" 
			},
			{
				"x": 0.4869265703,
				"y": 0.83740843,
				"z": 2.6413654912,
				"element": "H" 
			},
			{
				"x": 1.0275386537,
				"y": 0.7900744489,
				"z": -1.4077384425,
				"element": "H" 
			},
			{
				"x": -0.6247642976,
				"y": 0.9198333152,
				"z": -2.0071354928,
				"element": "H" 
			},
			{
				"x": 1.6822692209,
				"y": -0.618381563,
				"z": -3.3245386916,
				"element": "H" 
			},
			{
				"x": 0.9546180312,
				"y": 0.8876501829,
				"z": -3.9097609103,
				"element": "H" 
			},
			{
				"x": -2.0066391366,
				"y": -1.1216897702,
				"z": -3.181704515,
				"element": "H" 
			},
			{
				"x": -1.2940576572,
				"y": -2.4783297203,
				"z": -4.0736989666,
				"element": "H" 
			},
			{
				"x": 0.4709700496,
				"y": -2.7359537647,
				"z": -2.3601705522,
				"element": "H" 
			},
			{
				"x": -1.1143620999,
				"y": -2.7812664004,
				"z": -1.5914428933,
				"element": "H" 
			}
		],
		 "valence_orbital": [ 
			{
				"type": "occ",
				"energy": -0.31158,
				"method": "rhf"
			},
			{
				"type": "occ",
				"energy": -0.26347,
				"method": "rhf"
			},
			{
				"type": "occ",
				"energy": -0.2545,
				"method": "rhf"
			},
			{
				"type": "occ",
				"energy": -0.25142,
				"method": "rhf"
			},
			{
				"type": "occ",
				"energy": -0.22932,
				"method": "rhf"
			},
			{
				"type": "unocc",
				"energy": -0.05852,
				"method": "rhf"
			},
			{
				"type": "unocc",
				"energy": -0.04355,
				"method": "rhf"
			},
			{
				"type": "unocc",
				"energy": 0.03486,
				"method": "rhf"
			},
			{
				"type": "unocc",
				"energy": 0.07735,
				"method": "rhf"
			},
			{
				"type": "unocc",
				"energy": 0.10449,
				"method": "rhf"
			}
		],
		"cosmo_sigma_profile": { 
			"-0.025": 0.0,
			"-0.024": 0.0,
			"-0.023": 0.0,
			"-0.022": 0.0,
			"-0.021": 0.0,
			"-0.02": 0.0,
			"-0.019": 0.0,
			"-0.018": 0.0,
			"-0.017": 0.0,
			"-0.016": 0.0,
			"-0.015": 0.0,
			"-0.014": 0.0,
			"-0.013": 0.0,
			"-0.012": 0.0,
			"-0.011": 0.0,
			"-0.01": 0.0,
			"-0.009": 0.648220479825,
			"-0.008": 3.88319089691,
			"-0.007": 4.52167794761,
			"-0.006": 10.8547246784,
			"-0.005": 26.5728733389,
			"-0.004": 28.1027296425,
			"-0.003": 19.3838793999,
			"-0.002": 18.277950191,
			"-0.001": 21.0650482667,
			"0.0": 15.9714307272,
			"0.001": 8.22727127493,
			"0.002": 7.09344679207,
			"0.003": 7.22913168129,
			"0.004": 5.0478747323,
			"0.005": 5.26918408003,
			"0.006": 6.28996307317,
			"0.007": 4.54521296857,
			"0.008": 5.09873317296,
			"0.009": 4.62558829797,
			"0.01": 5.40983444461,
			"0.011": 6.15093445065,
			"0.012": 6.60633093008,
			"0.013": 3.56987195553,
			"0.014": 0.353848283953,
			"0.015": 0.0,
			"0.016": 0.0,
			"0.017": 0.0,
			"0.018": 0.0,
			"0.019": 0.0,
			"0.02": 0.0,
			"0.021": 0.0,
			"0.022": 0.0,
			"0.023": 0.0,
			"0.024": 0.0,
			"0.025": 0.0
		}
	}
}
