{
	 "smiles": "COC1=CC2=C(CCCC(=O)N2)C=C1", 
	 "Tm": 401.15, 
	 "num_atms": 27, 
	 "gaussian": { 
		 "optdone": 1, 
		 "sigma_profile": "yes", 
		 "theory": "DFT", 
		 "functional": "B3LYP", 
		 "basiset": "6-31G**", 
		 "properties": { 
			 "R2extent": 3603.9451, 
			 "electric_dipole_moment_norm": 4.35333675931, 
			 "electric_quadrupole_moment_norm": 14.8373095732, 
			 "total_energy": -632.214784389, 
			 "HOMO_LUMO_gap": 0.20026, 
			 "cosmo_polarized_energy": -12.27, 
			 "cosmo_cavitation_energy": 29.25, 
			 "cosmo_dispersion_energy": -21.96, 
			 "cosmo_repulsion_energy": 1.71, 
			 "cosmo_total_nonelectrostatic_energy": 9.0, 
			 "SMD_solvation_energy": 5.75 
		},
		"coords": [
			{
				"x": 5.2785282373,
				"y": 0.1075947513,
				"z": -0.7497516913,
				"element": "C" 
			},
			{
				"x": 4.2771214399,
				"y": -0.2435619386,
				"z": 0.1918772377,
				"element": "O" 
			},
			{
				"x": 2.9769690376,
				"y": -0.2403262792,
				"z": -0.2231264988,
				"element": "C" 
			},
			{
				"x": 2.0345006404,
				"y": -0.5819540666,
				"z": 0.7496980189,
				"element": "C" 
			},
			{
				"x": 0.6647442616,
				"y": -0.6209621035,
				"z": 0.4610185113,
				"element": "C" 
			},
			{
				"x": 0.2136030481,
				"y": -0.3135189909,
				"z": -0.8422177831,
				"element": "C" 
			},
			{
				"x": -1.241174963,
				"y": -0.3576390446,
				"z": -1.2450851475,
				"element": "C" 
			},
			{
				"x": -2.1756508953,
				"y": 0.40563598,
				"z": -0.2938377119,
				"element": "C" 
			},
			{
				"x": -2.5681196908,
				"y": -0.4053326922,
				"z": 0.9399525726,
				"element": "C" 
			},
			{
				"x": -1.4987966663,
				"y": -0.9198612933,
				"z": 1.8910019738,
				"element": "C" 
			},
			{
				"x": -1.8204384699,
				"y": -1.304749489,
				"z": 3.0090144456,
				"element": "O" 
			},
			{
				"x": -0.1623937054,
				"y": -1.0162039874,
				"z": 1.5353329674,
				"element": "N" 
			},
			{
				"x": 1.1802086019,
				"y": 0.0404365535,
				"z": -1.7866263958,
				"element": "C" 
			},
			{
				"x": 2.547971525,
				"y": 0.0817833336,
				"z": -1.5137700441,
				"element": "C" 
			},
			{
				"x": 5.2951978503,
				"y": -0.5848942679,
				"z": -1.6012300485,
				"element": "H" 
			},
			{
				"x": 6.2287125669,
				"y": 0.0435682998,
				"z": -0.2172923422,
				"element": "H" 
			},
			{
				"x": 5.1428187996,
				"y": 1.1307806808,
				"z": -1.1232531471,
				"element": "H" 
			},
			{
				"x": 2.3936096345,
				"y": -0.812064188,
				"z": 1.7484447862,
				"element": "H" 
			},
			{
				"x": -1.5863300182,
				"y": -1.4004814983,
				"z": -1.3169038323,
				"element": "H" 
			},
			{
				"x": -1.3256917576,
				"y": 0.0567057027,
				"z": -2.2549860727,
				"element": "H" 
			},
			{
				"x": -1.7111691751,
				"y": 1.3556681517,
				"z": -0.003868432,
				"element": "H" 
			},
			{
				"x": -3.1004319645,
				"y": 0.6625954413,
				"z": -0.8233580699,
				"element": "H" 
			},
			{
				"x": -3.2571073141,
				"y": 0.1587442051,
				"z": 1.575609713,
				"element": "H" 
			},
			{
				"x": -3.1255891142,
				"y": -1.2978427373,
				"z": 0.6239890628,
				"element": "H" 
			},
			{
				"x": 0.3494872623,
				"y": -1.3762898459,
				"z": 2.3329564928,
				"element": "H" 
			},
			{
				"x": 0.8452774193,
				"y": 0.2875768674,
				"z": -2.7910082746,
				"element": "H" 
			},
			{
				"x": 3.2457434097,
				"y": 0.3585924554,
				"z": -2.2940802903,
				"element": "H" 
			}
		],
		 "valence_orbital": [ 
			{
				"type": "occ",
				"energy": -0.32354,
				"method": "rhf"
			},
			{
				"type": "occ",
				"energy": -0.2906,
				"method": "rhf"
			},
			{
				"type": "occ",
				"energy": -0.24813,
				"method": "rhf"
			},
			{
				"type": "occ",
				"energy": -0.22667,
				"method": "rhf"
			},
			{
				"type": "occ",
				"energy": -0.21139,
				"method": "rhf"
			},
			{
				"type": "unocc",
				"energy": -0.01113,
				"method": "rhf"
			},
			{
				"type": "unocc",
				"energy": 0.00249,
				"method": "rhf"
			},
			{
				"type": "unocc",
				"energy": 0.04568,
				"method": "rhf"
			},
			{
				"type": "unocc",
				"energy": 0.08021,
				"method": "rhf"
			},
			{
				"type": "unocc",
				"energy": 0.09496,
				"method": "rhf"
			}
		],
		"cosmo_sigma_profile": { 
			"-0.025": 0.0,
			"-0.024": 0.0,
			"-0.023": 0.0,
			"-0.022": 0.0,
			"-0.021": 0.0,
			"-0.02": 0.0,
			"-0.019": 0.0,
			"-0.018": 0.0,
			"-0.017": 0.0,
			"-0.016": 0.0,
			"-0.015": 0.0,
			"-0.014": 0.262939343163,
			"-0.013": 1.16998153203,
			"-0.012": 1.04507973935,
			"-0.011": 0.858112987517,
			"-0.01": 0.973934368654,
			"-0.009": 1.25084113688,
			"-0.008": 0.978369982106,
			"-0.007": 1.66964827695,
			"-0.006": 7.51068835948,
			"-0.005": 20.9976529212,
			"-0.004": 25.1893198281,
			"-0.003": 29.8343293617,
			"-0.002": 21.9305013693,
			"-0.001": 17.95591976,
			"0.0": 13.4762987693,
			"0.001": 9.63380988222,
			"0.002": 10.7995304581,
			"0.003": 10.0021236429,
			"0.004": 11.8755020535,
			"0.005": 11.8139261622,
			"0.006": 6.631878584,
			"0.007": 2.70493428357,
			"0.008": 2.82715692086,
			"0.009": 2.80767070169,
			"0.01": 2.36109781475,
			"0.011": 2.14125792,
			"0.012": 1.62273935095,
			"0.013": 4.8086539852,
			"0.014": 4.33991625879,
			"0.015": 1.03774823861,
			"0.016": 0.0,
			"0.017": 0.0,
			"0.018": 0.0,
			"0.019": 0.0,
			"0.02": 0.0,
			"0.021": 0.0,
			"0.022": 0.0,
			"0.023": 0.0,
			"0.024": 0.0,
			"0.025": 0.0
		}
	}
}
