{
	 "smiles": "CC(OC1=CC(C)=C(Cl)C=C1)C(O)=O", 
	 "Tm": 361.15, 
	 "num_atms": 25, 
	 "gaussian": { 
		 "optdone": 1, 
		 "sigma_profile": "yes", 
		 "theory": "DFT", 
		 "functional": "B3LYP", 
		 "basiset": "6-31G**", 
		 "properties": { 
			 "R2extent": 4688.6728, 
			 "electric_dipole_moment_norm": 3.71736242651, 
			 "electric_quadrupole_moment_norm": 12.0431581207, 
			 "total_energy": -1073.57024598, 
			 "HOMO_LUMO_gap": 0.21223, 
			 "cosmo_polarized_energy": -12.4, 
			 "cosmo_cavitation_energy": 30.74, 
			 "cosmo_dispersion_energy": -22.02, 
			 "cosmo_repulsion_energy": 1.75, 
			 "cosmo_total_nonelectrostatic_energy": 10.48, 
			 "SMD_solvation_energy": 6.32 
		},
		"coords": [
			{
				"x": -3.1765448055,
				"y": 1.8708746006,
				"z": -1.0615248302,
				"element": "C" 
			},
			{
				"x": -1.8037969408,
				"y": 1.54944592,
				"z": -0.4736784279,
				"element": "C" 
			},
			{
				"x": -1.8082334342,
				"y": 0.1618312629,
				"z": -0.107522214,
				"element": "O" 
			},
			{
				"x": -0.9556896003,
				"y": -0.2653909148,
				"z": 0.8937831119,
				"element": "C" 
			},
			{
				"x": -1.2454414745,
				"y": -1.524602617,
				"z": 1.4279519472,
				"element": "C" 
			},
			{
				"x": -0.4590976514,
				"y": -2.0945291538,
				"z": 2.4315949258,
				"element": "C" 
			},
			{
				"x": -0.7929758081,
				"y": -3.4522544442,
				"z": 2.9930014405,
				"element": "C" 
			},
			{
				"x": 0.6389928912,
				"y": -1.3450078365,
				"z": 2.8892326032,
				"element": "C" 
			},
			{
				"x": 1.6754401217,
				"y": -1.9936437183,
				"z": 4.1574129491,
				"element": "Cl" 
			},
			{
				"x": 0.9381033247,
				"y": -0.0923948585,
				"z": 2.3646662929,
				"element": "C" 
			},
			{
				"x": 0.1436012944,
				"y": 0.4598685602,
				"z": 1.3574583028,
				"element": "C" 
			},
			{
				"x": -0.7032291798,
				"y": 1.8412438978,
				"z": -1.5080303639,
				"element": "C" 
			},
			{
				"x": -0.2711874949,
				"y": 0.7640353872,
				"z": -2.1910774782,
				"element": "O" 
			},
			{
				"x": -0.2975921977,
				"y": 2.9565936535,
				"z": -1.7233755118,
				"element": "O" 
			},
			{
				"x": -3.952485285,
				"y": 1.7033066612,
				"z": -0.3108702712,
				"element": "H" 
			},
			{
				"x": -3.3831903496,
				"y": 1.2344116414,
				"z": -1.9268534879,
				"element": "H" 
			},
			{
				"x": -3.2020269156,
				"y": 2.9155572566,
				"z": -1.3799985652,
				"element": "H" 
			},
			{
				"x": -1.6141144046,
				"y": 2.1751820479,
				"z": 0.4035098728,
				"element": "H" 
			},
			{
				"x": -2.1100356471,
				"y": -2.0588374889,
				"z": 1.0466189366,
				"element": "H" 
			},
			{
				"x": 0.0366642753,
				"y": -4.1531044927,
				"z": 2.8523363197,
				"element": "H" 
			},
			{
				"x": -1.6797021499,
				"y": -3.8662274798,
				"z": 2.5074126026,
				"element": "H" 
			},
			{
				"x": -0.9821228391,
				"y": -3.3996580773,
				"z": 4.0703615674,
				"element": "H" 
			},
			{
				"x": 1.7973434446,
				"y": 0.4545568791,
				"z": 2.7364065821,
				"element": "H" 
			},
			{
				"x": 0.4060121849,
				"y": 1.4289158078,
				"z": 0.9494870779,
				"element": "H" 
			},
			{
				"x": -0.7147913588,
				"y": -0.0192724943,
				"z": -1.819703382,
				"element": "H" 
			}
		],
		 "valence_orbital": [ 
			{
				"type": "occ",
				"energy": -0.32012,
				"method": "rhf"
			},
			{
				"type": "occ",
				"energy": -0.31566,
				"method": "rhf"
			},
			{
				"type": "occ",
				"energy": -0.27483,
				"method": "rhf"
			},
			{
				"type": "occ",
				"energy": -0.26556,
				"method": "rhf"
			},
			{
				"type": "occ",
				"energy": -0.23537,
				"method": "rhf"
			},
			{
				"type": "unocc",
				"energy": -0.02314,
				"method": "rhf"
			},
			{
				"type": "unocc",
				"energy": -0.01288,
				"method": "rhf"
			},
			{
				"type": "unocc",
				"energy": 0.00041,
				"method": "rhf"
			},
			{
				"type": "unocc",
				"energy": 0.02769,
				"method": "rhf"
			},
			{
				"type": "unocc",
				"energy": 0.07231,
				"method": "rhf"
			}
		],
		"cosmo_sigma_profile": { 
			"-0.025": 0.0,
			"-0.024": 0.0,
			"-0.023": 0.0,
			"-0.022": 0.0,
			"-0.021": 0.0,
			"-0.02": 0.0,
			"-0.019": 0.0,
			"-0.018": 0.0,
			"-0.017": 0.0,
			"-0.016": 0.18588742661,
			"-0.015": 0.516580862528,
			"-0.014": 0.708025143897,
			"-0.013": 0.775175931207,
			"-0.012": 0.358539877919,
			"-0.011": 1.07203005777,
			"-0.01": 1.30563707786,
			"-0.009": 1.19733503181,
			"-0.008": 4.21472306592,
			"-0.007": 7.85410366677,
			"-0.006": 12.0693424006,
			"-0.005": 15.6545187163,
			"-0.004": 17.4178591846,
			"-0.003": 16.3813838424,
			"-0.002": 20.0694686022,
			"-0.001": 23.2686174379,
			"0.0": 17.5051068345,
			"0.001": 14.0034583874,
			"0.002": 16.8693376634,
			"0.003": 21.6631600841,
			"0.004": 15.1412889475,
			"0.005": 9.2454067349,
			"0.006": 3.0165284724,
			"0.007": 2.75469605226,
			"0.008": 4.11617426427,
			"0.009": 4.04552378537,
			"0.01": 4.30713869866,
			"0.011": 4.58270489675,
			"0.012": 4.78338193307,
			"0.013": 0.863392172159,
			"0.014": 0.0,
			"0.015": 0.0,
			"0.016": 0.0,
			"0.017": 0.0,
			"0.018": 0.0,
			"0.019": 0.0,
			"0.02": 0.0,
			"0.021": 0.0,
			"0.022": 0.0,
			"0.023": 0.0,
			"0.024": 0.0,
			"0.025": 0.0
		}
	}
}
