{
	 "smiles": "CC1=CC(Br)=CC(C)=C1NC(=O)CCCCl", 
	 "Tm": 413.15, 
	 "num_atms": 31, 
	 "gaussian": { 
		 "optdone": 1, 
		 "sigma_profile": "yes", 
		 "theory": "DFT", 
		 "functional": "B3LYP", 
		 "basiset": "6-31G**", 
		 "properties": { 
			 "R2extent": 12304.1323, 
			 "electric_dipole_moment_norm": 5.09538014872, 
			 "electric_quadrupole_moment_norm": 18.0928836298, 
			 "total_energy": -3627.93127174, 
			 "HOMO_LUMO_gap": 0.21021, 
			 "cosmo_polarized_energy": -15.99, 
			 "cosmo_cavitation_energy": 38.05, 
			 "cosmo_dispersion_energy": -27.0, 
			 "cosmo_repulsion_energy": 2.14, 
			 "cosmo_total_nonelectrostatic_energy": 13.19, 
			 "SMD_solvation_energy": 5.28 
		},
		"coords": [
			{
				"x": -1.6839657216,
				"y": 0.8056917642,
				"z": 2.0763828874,
				"element": "C" 
			},
			{
				"x": -1.5743755125,
				"y": 2.0771885316,
				"z": 1.2681948283,
				"element": "C" 
			},
			{
				"x": -2.3988194994,
				"y": 3.1655702737,
				"z": 1.5649014475,
				"element": "C" 
			},
			{
				"x": -2.3068842259,
				"y": 4.3284902995,
				"z": 0.8074232121,
				"element": "C" 
			},
			{
				"x": -3.4491179346,
				"y": 5.8063126639,
				"z": 1.2171027324,
				"element": "Br" 
			},
			{
				"x": -1.3943171206,
				"y": 4.437805308,
				"z": -0.234673524,
				"element": "C" 
			},
			{
				"x": -0.5413958614,
				"y": 3.3714386009,
				"z": -0.5450040705,
				"element": "C" 
			},
			{
				"x": 0.4722775041,
				"y": 3.5246239051,
				"z": -1.6491336815,
				"element": "C" 
			},
			{
				"x": -0.652772162,
				"y": 2.1865970677,
				"z": 0.2076792012,
				"element": "C" 
			},
			{
				"x": 0.2066049033,
				"y": 1.0772780806,
				"z": -0.0535421766,
				"element": "N" 
			},
			{
				"x": 0.2489871529,
				"y": 0.3561195986,
				"z": -1.2280905928,
				"element": "C" 
			},
			{
				"x": -0.3926129456,
				"y": 0.6591636025,
				"z": -2.2237629263,
				"element": "O" 
			},
			{
				"x": 1.1898796205,
				"y": -0.8521327552,
				"z": -1.1768618245,
				"element": "C" 
			},
			{
				"x": 1.1801076553,
				"y": -1.6925416868,
				"z": -2.4612323199,
				"element": "C" 
			},
			{
				"x": 1.8349048625,
				"y": -0.9712310668,
				"z": -3.6338923322,
				"element": "C" 
			},
			{
				"x": 1.9153954272,
				"y": -2.0441139917,
				"z": -5.1007191452,
				"element": "Cl" 
			},
			{
				"x": -0.7849695975,
				"y": 0.6207767597,
				"z": 2.680078042,
				"element": "H" 
			},
			{
				"x": -2.5281053857,
				"y": 0.8570456504,
				"z": 2.7677265272,
				"element": "H" 
			},
			{
				"x": -1.8261410887,
				"y": -0.0675640108,
				"z": 1.4307927899,
				"element": "H" 
			},
			{
				"x": -3.1158347221,
				"y": 3.0982225012,
				"z": 2.3754349984,
				"element": "H" 
			},
			{
				"x": -1.328941721,
				"y": 5.3586886634,
				"z": -0.8033352618,
				"element": "H" 
			},
			{
				"x": 1.4502548268,
				"y": 3.140514649,
				"z": -1.339840028,
				"element": "H" 
			},
			{
				"x": 0.5879273864,
				"y": 4.5751897625,
				"z": -1.9264189284,
				"element": "H" 
			},
			{
				"x": 0.1679660829,
				"y": 2.9556139453,
				"z": -2.5325060563,
				"element": "H" 
			},
			{
				"x": 0.6454540518,
				"y": 0.6493381466,
				"z": 0.7506599972,
				"element": "H" 
			},
			{
				"x": 0.8988818099,
				"y": -1.4844248157,
				"z": -0.3275178653,
				"element": "H" 
			},
			{
				"x": 2.2053442061,
				"y": -0.4974421736,
				"z": -0.9523286228,
				"element": "H" 
			},
			{
				"x": 1.7113642315,
				"y": -2.6311411479,
				"z": -2.273301536,
				"element": "H" 
			},
			{
				"x": 0.1492573247,
				"y": -1.9437622672,
				"z": -2.7261858447,
				"element": "H" 
			},
			{
				"x": 1.2637736719,
				"y": -0.0903755574,
				"z": -3.9210984064,
				"element": "H" 
			},
			{
				"x": 2.866472781,
				"y": -0.6884403012,
				"z": -3.4110315205,
				"element": "H" 
			}
		],
		 "valence_orbital": [ 
			{
				"type": "occ",
				"energy": -0.28698,
				"method": "rhf"
			},
			{
				"type": "occ",
				"energy": -0.28338,
				"method": "rhf"
			},
			{
				"type": "occ",
				"energy": -0.26656,
				"method": "rhf"
			},
			{
				"type": "occ",
				"energy": -0.25373,
				"method": "rhf"
			},
			{
				"type": "occ",
				"energy": -0.23329,
				"method": "rhf"
			},
			{
				"type": "unocc",
				"energy": -0.02308,
				"method": "rhf"
			},
			{
				"type": "unocc",
				"energy": -0.01216,
				"method": "rhf"
			},
			{
				"type": "unocc",
				"energy": 0.00704,
				"method": "rhf"
			},
			{
				"type": "unocc",
				"energy": 0.01163,
				"method": "rhf"
			},
			{
				"type": "unocc",
				"energy": 0.02642,
				"method": "rhf"
			}
		],
		"cosmo_sigma_profile": { 
			"-0.025": 0.0,
			"-0.024": 0.0,
			"-0.023": 0.0,
			"-0.022": 0.0,
			"-0.021": 0.0,
			"-0.02": 0.0,
			"-0.019": 0.0,
			"-0.018": 0.0,
			"-0.017": 0.0,
			"-0.016": 0.0,
			"-0.015": 0.0423787311064,
			"-0.014": 0.835423501248,
			"-0.013": 1.36660304121,
			"-0.012": 1.3448407713,
			"-0.011": 1.80965395795,
			"-0.01": 1.94087629238,
			"-0.009": 1.14288662153,
			"-0.008": 2.24131062693,
			"-0.007": 5.25182866306,
			"-0.006": 15.4912199103,
			"-0.005": 16.1665341404,
			"-0.004": 24.5720013359,
			"-0.003": 24.6956725373,
			"-0.002": 24.5063533533,
			"-0.001": 23.9563897039,
			"0.0": 25.5412738019,
			"0.001": 21.7520336291,
			"0.002": 18.0342114988,
			"0.003": 21.6795951186,
			"0.004": 24.3722591542,
			"0.005": 16.1753729824,
			"0.006": 9.85681599137,
			"0.007": 11.1700071452,
			"0.008": 1.48053572936,
			"0.009": 0.969217082241,
			"0.01": 2.31946592497,
			"0.011": 1.54454708955,
			"0.012": 1.75187722587,
			"0.013": 3.24089494834,
			"0.014": 0.322895763349,
			"0.015": 0.0,
			"0.016": 0.0,
			"0.017": 0.0,
			"0.018": 0.0,
			"0.019": 0.0,
			"0.02": 0.0,
			"0.021": 0.0,
			"0.022": 0.0,
			"0.023": 0.0,
			"0.024": 0.0,
			"0.025": 0.0
		}
	}
}
