{
	 "smiles": "NC1=CC(Cl)=C(C=C1)C#N", 
	 "Tm": 391.15, 
	 "num_atms": 15, 
	 "gaussian": { 
		 "optdone": 1, 
		 "sigma_profile": "yes", 
		 "theory": "DFT", 
		 "functional": "B3LYP", 
		 "basiset": "6-31G**", 
		 "properties": { 
			 "R2extent": 2417.5187, 
			 "electric_dipole_moment_norm": 7.55862123472, 
			 "electric_quadrupole_moment_norm": 8.45775362611, 
			 "total_energy": -839.440187493, 
			 "HOMO_LUMO_gap": 0.18863, 
			 "cosmo_polarized_energy": -15.8, 
			 "cosmo_cavitation_energy": 22.29, 
			 "cosmo_dispersion_energy": -16.12, 
			 "cosmo_repulsion_energy": 1.32, 
			 "cosmo_total_nonelectrostatic_energy": 7.48, 
			 "SMD_solvation_energy": 4.89 
		},
		"coords": [
			{
				"x": 3.1918250309,
				"y": -2.1176086303,
				"z": -0.1794466423,
				"element": "N" 
			},
			{
				"x": 2.0990279668,
				"y": -1.3234065779,
				"z": -0.4598834959,
				"element": "C" 
			},
			{
				"x": 1.627259957,
				"y": -1.201312469,
				"z": -1.7809648244,
				"element": "C" 
			},
			{
				"x": 0.558564464,
				"y": -0.3648276934,
				"z": -2.0677231961,
				"element": "C" 
			},
			{
				"x": 0.0083966456,
				"y": -0.2507456074,
				"z": -3.7236199763,
				"element": "Cl" 
			},
			{
				"x": -0.0835203969,
				"y": 0.3805873122,
				"z": -1.0593857225,
				"element": "C" 
			},
			{
				"x": 0.3995318492,
				"y": 0.2486839819,
				"z": 0.2575249486,
				"element": "C" 
			},
			{
				"x": 1.4648564509,
				"y": -0.5818605134,
				"z": 0.557859775,
				"element": "C" 
			},
			{
				"x": -1.1871341621,
				"y": 1.2449607499,
				"z": -1.3293864338,
				"element": "C" 
			},
			{
				"x": -2.0888770796,
				"y": 1.95885195,
				"z": -1.5081949228,
				"element": "N" 
			},
			{
				"x": 3.4401422785,
				"y": -2.8248866347,
				"z": -0.8546921915,
				"element": "H" 
			},
			{
				"x": 3.3260327522,
				"y": -2.3989177303,
				"z": 0.780042292,
				"element": "H" 
			},
			{
				"x": 2.0995718001,
				"y": -1.7575204198,
				"z": -2.583624301,
				"element": "H" 
			},
			{
				"x": -0.0845253451,
				"y": 0.8149952828,
				"z": 1.0461339131,
				"element": "H" 
			},
			{
				"x": 1.8184477885,
				"y": -0.6610930005,
				"z": 1.5816607781,
				"element": "H" 
			}
		],
		 "valence_orbital": [ 
			{
				"type": "occ",
				"energy": -0.32756,
				"method": "rhf"
			},
			{
				"type": "occ",
				"energy": -0.31752,
				"method": "rhf"
			},
			{
				"type": "occ",
				"energy": -0.30918,
				"method": "rhf"
			},
			{
				"type": "occ",
				"energy": -0.26607,
				"method": "rhf"
			},
			{
				"type": "occ",
				"energy": -0.22911,
				"method": "rhf"
			},
			{
				"type": "unocc",
				"energy": -0.04048,
				"method": "rhf"
			},
			{
				"type": "unocc",
				"energy": -0.02816,
				"method": "rhf"
			},
			{
				"type": "unocc",
				"energy": 0.01957,
				"method": "rhf"
			},
			{
				"type": "unocc",
				"energy": 0.04192,
				"method": "rhf"
			},
			{
				"type": "unocc",
				"energy": 0.0553,
				"method": "rhf"
			}
		],
		"cosmo_sigma_profile": { 
			"-0.025": 0.0,
			"-0.024": 0.0,
			"-0.023": 0.0,
			"-0.022": 0.0,
			"-0.021": 0.0,
			"-0.02": 0.0,
			"-0.019": 0.0,
			"-0.018": 0.0,
			"-0.017": 0.0,
			"-0.016": 0.0,
			"-0.015": 0.0342409108819,
			"-0.014": 1.97013297281,
			"-0.013": 3.66345198685,
			"-0.012": 2.76653172723,
			"-0.011": 3.65364795124,
			"-0.01": 3.3710994513,
			"-0.009": 2.96574530075,
			"-0.008": 5.52353606164,
			"-0.007": 6.89554348781,
			"-0.006": 6.65562889286,
			"-0.005": 5.44989935321,
			"-0.004": 5.11142598571,
			"-0.003": 6.1682139981,
			"-0.002": 6.66301486893,
			"-0.001": 10.9794783512,
			"0.0": 13.692671215,
			"0.001": 17.2468358553,
			"0.002": 20.7612599234,
			"0.003": 15.2334338169,
			"0.004": 10.842075067,
			"0.005": 4.21888266728,
			"0.006": 3.77744281931,
			"0.007": 3.27737602885,
			"0.008": 3.98937277728,
			"0.009": 4.15662128712,
			"0.01": 3.82665994143,
			"0.011": 3.78912377339,
			"0.012": 2.44811652007,
			"0.013": 2.2282654439,
			"0.014": 0.439067270299,
			"0.015": 0.0,
			"0.016": 0.0,
			"0.017": 0.0,
			"0.018": 0.0,
			"0.019": 0.0,
			"0.02": 0.0,
			"0.021": 0.0,
			"0.022": 0.0,
			"0.023": 0.0,
			"0.024": 0.0,
			"0.025": 0.0
		}
	}
}
