{
	 "smiles": "CCOC(=O)C1=C(N)SC2=C1CCN(C2)C(=O)OC(C)(C)C", 
	 "Tm": 426.15, 
	 "num_atms": 44, 
	 "gaussian": { 
		 "optdone": 1, 
		 "sigma_profile": "yes", 
		 "theory": "DFT", 
		 "functional": "B3LYP", 
		 "basiset": "6-31G**", 
		 "properties": { 
			 "R2extent": 12245.7269, 
			 "electric_dipole_moment_norm": 2.59219946378, 
			 "electric_quadrupole_moment_norm": 13.9580416374, 
			 "total_energy": -1393.49812224, 
			 "HOMO_LUMO_gap": 0.17518, 
			 "cosmo_polarized_energy": -14.02, 
			 "cosmo_cavitation_energy": 46.64, 
			 "cosmo_dispersion_energy": -32.92, 
			 "cosmo_repulsion_energy": 2.51, 
			 "cosmo_total_nonelectrostatic_energy": 16.23, 
			 "SMD_solvation_energy": 8.44 
		},
		"coords": [
			{
				"x": -0.7156052868,
				"y": -0.2020781679,
				"z": 5.0831883788,
				"element": "C" 
			},
			{
				"x": -1.376723348,
				"y": -1.5571865164,
				"z": 4.9131714708,
				"element": "C" 
			},
			{
				"x": -1.3490476619,
				"y": -1.8800999879,
				"z": 3.5058326591,
				"element": "O" 
			},
			{
				"x": -1.8894893851,
				"y": -3.074948667,
				"z": 3.1636134523,
				"element": "C" 
			},
			{
				"x": -2.3734483643,
				"y": -3.8260773136,
				"z": 4.0123120917,
				"element": "O" 
			},
			{
				"x": -1.8348589389,
				"y": -3.3667829497,
				"z": 1.7376549453,
				"element": "C" 
			},
			{
				"x": -2.3295577257,
				"y": -4.5900180387,
				"z": 1.2776841576,
				"element": "C" 
			},
			{
				"x": -2.8237671835,
				"y": -5.6091578529,
				"z": 2.0249979691,
				"element": "N" 
			},
			{
				"x": -2.1761139711,
				"y": -4.7345825839,
				"z": -0.4595619491,
				"element": "S" 
			},
			{
				"x": -1.450942276,
				"y": -3.1305272453,
				"z": -0.566891958,
				"element": "C" 
			},
			{
				"x": -1.3405938573,
				"y": -2.535607432,
				"z": 0.6512369768,
				"element": "C" 
			},
			{
				"x": -0.7644430808,
				"y": -1.1426916509,
				"z": 0.7573040774,
				"element": "C" 
			},
			{
				"x": -0.7768568778,
				"y": -0.4501293074,
				"z": -0.6134486682,
				"element": "C" 
			},
			{
				"x": -0.2628738154,
				"y": -1.3312079659,
				"z": -1.6602695217,
				"element": "N" 
			},
			{
				"x": -1.0252768156,
				"y": -2.5530756833,
				"z": -1.8903276551,
				"element": "C" 
			},
			{
				"x": 0.9187242667,
				"y": -1.1587819383,
				"z": -2.335119769,
				"element": "C" 
			},
			{
				"x": 1.3371372557,
				"y": -1.942424992,
				"z": -3.1773221652,
				"element": "O" 
			},
			{
				"x": 1.539130864,
				"y": -0.015655456,
				"z": -1.9510673859,
				"element": "O" 
			},
			{
				"x": 2.8087091542,
				"y": 0.3959381553,
				"z": -2.5693188281,
				"element": "C" 
			},
			{
				"x": 3.8970153185,
				"y": -0.6435346097,
				"z": -2.279842007,
				"element": "C" 
			},
			{
				"x": 2.613004364,
				"y": 0.6306000897,
				"z": -4.0710959563,
				"element": "C" 
			},
			{
				"x": 3.1140543641,
				"y": 1.7134368422,
				"z": -1.850974326,
				"element": "C" 
			},
			{
				"x": -1.2549343565,
				"y": 0.5711742995,
				"z": 4.5280996884,
				"element": "H" 
			},
			{
				"x": 0.3186452939,
				"y": -0.2235809145,
				"z": 4.7277153607,
				"element": "H" 
			},
			{
				"x": -0.7096003891,
				"y": 0.0772058664,
				"z": 6.1414620055,
				"element": "H" 
			},
			{
				"x": -2.4156235343,
				"y": -1.5528716446,
				"z": 5.2580380088,
				"element": "H" 
			},
			{
				"x": -0.8521478132,
				"y": -2.3414299285,
				"z": 5.4678429517,
				"element": "H" 
			},
			{
				"x": -3.3932007775,
				"y": -6.3186768643,
				"z": 1.5928858269,
				"element": "H" 
			},
			{
				"x": -2.9710359234,
				"y": -5.3724781835,
				"z": 3.0028576,
				"element": "H" 
			},
			{
				"x": -1.3366204488,
				"y": -0.5463058086,
				"z": 1.4728514593,
				"element": "H" 
			},
			{
				"x": 0.260804226,
				"y": -1.1872621437,
				"z": 1.146989645,
				"element": "H" 
			},
			{
				"x": -0.1826620184,
				"y": 0.4605933433,
				"z": -0.5985215954,
				"element": "H" 
			},
			{
				"x": -1.8094005509,
				"y": -0.1779823675,
				"z": -0.8737386383,
				"element": "H" 
			},
			{
				"x": -0.3848171761,
				"y": -3.2382495538,
				"z": -2.4506781389,
				"element": "H" 
			},
			{
				"x": -1.9026851246,
				"y": -2.3393155308,
				"z": -2.5234289673,
				"element": "H" 
			},
			{
				"x": 3.6724152435,
				"y": -1.5897535695,
				"z": -2.7718900111,
				"element": "H" 
			},
			{
				"x": 4.8626893746,
				"y": -0.2746674141,
				"z": -2.6409735785,
				"element": "H" 
			},
			{
				"x": 3.980785297,
				"y": -0.8146499443,
				"z": -1.2018053018,
				"element": "H" 
			},
			{
				"x": 2.374428902,
				"y": -0.3014068223,
				"z": -4.5834211721,
				"element": "H" 
			},
			{
				"x": 3.5301911297,
				"y": 1.0473129,
				"z": -4.5000886108,
				"element": "H" 
			},
			{
				"x": 1.8031117628,
				"y": 1.347423065,
				"z": -4.2407298728,
				"element": "H" 
			},
			{
				"x": 3.2087445875,
				"y": 1.5528864236,
				"z": -0.7729455386,
				"element": "H" 
			},
			{
				"x": 4.0531855442,
				"y": 2.1347127187,
				"z": -2.2217863021,
				"element": "H" 
			},
			{
				"x": 2.3162497527,
				"y": 2.4420153451,
				"z": -2.023190808,
				"element": "H" 
			}
		],
		 "valence_orbital": [ 
			{
				"type": "occ",
				"energy": -0.2708,
				"method": "rhf"
			},
			{
				"type": "occ",
				"energy": -0.25689,
				"method": "rhf"
			},
			{
				"type": "occ",
				"energy": -0.24888,
				"method": "rhf"
			},
			{
				"type": "occ",
				"energy": -0.23393,
				"method": "rhf"
			},
			{
				"type": "occ",
				"energy": -0.19313,
				"method": "rhf"
			},
			{
				"type": "unocc",
				"energy": -0.01795,
				"method": "rhf"
			},
			{
				"type": "unocc",
				"energy": 0.00963,
				"method": "rhf"
			},
			{
				"type": "unocc",
				"energy": 0.01875,
				"method": "rhf"
			},
			{
				"type": "unocc",
				"energy": 0.05836,
				"method": "rhf"
			},
			{
				"type": "unocc",
				"energy": 0.08201,
				"method": "rhf"
			}
		],
		"cosmo_sigma_profile": { 
			"-0.025": 0.0,
			"-0.024": 0.0,
			"-0.023": 0.0,
			"-0.022": 0.0,
			"-0.021": 0.0,
			"-0.02": 0.0,
			"-0.019": 0.0,
			"-0.018": 0.0,
			"-0.017": 0.0,
			"-0.016": 0.0,
			"-0.015": 0.51612244978,
			"-0.014": 1.60826029265,
			"-0.013": 1.17638520612,
			"-0.012": 1.47041325182,
			"-0.011": 1.26945871213,
			"-0.01": 1.4525747748,
			"-0.009": 2.04673682394,
			"-0.008": 1.73284792882,
			"-0.007": 1.75527308188,
			"-0.006": 2.98519153155,
			"-0.005": 11.167235141,
			"-0.004": 33.2533180753,
			"-0.003": 41.7371946218,
			"-0.002": 36.4383295283,
			"-0.001": 38.2856682494,
			"0.0": 42.2698283415,
			"0.001": 40.1031304684,
			"0.002": 26.0925201929,
			"0.003": 21.0695862544,
			"0.004": 18.9025666213,
			"0.005": 11.3740218847,
			"0.006": 5.51217797165,
			"0.007": 4.27495832274,
			"0.008": 2.95721605621,
			"0.009": 3.39666068743,
			"0.01": 2.92801734631,
			"0.011": 3.21021124526,
			"0.012": 3.96800971744,
			"0.013": 3.60146120119,
			"0.014": 1.16297672935,
			"0.015": 0.0,
			"0.016": 0.0,
			"0.017": 0.0,
			"0.018": 0.0,
			"0.019": 0.0,
			"0.02": 0.0,
			"0.021": 0.0,
			"0.022": 0.0,
			"0.023": 0.0,
			"0.024": 0.0,
			"0.025": 0.0
		}
	}
}
