{
	 "smiles": "CC(Cl)C(=O)NC1=CC(F)=C(C)C=C1", 
	 "Tm": 376.15, 
	 "num_atms": 25, 
	 "gaussian": { 
		 "optdone": 1, 
		 "sigma_profile": "yes", 
		 "theory": "DFT", 
		 "functional": "B3LYP", 
		 "basiset": "6-31G**", 
		 "properties": { 
			 "R2extent": 5639.2548, 
			 "electric_dipole_moment_norm": 0.522117582542, 
			 "electric_quadrupole_moment_norm": 8.08580687316, 
			 "total_energy": -1077.73164748, 
			 "HOMO_LUMO_gap": 0.2007, 
			 "cosmo_polarized_energy": -9.27, 
			 "cosmo_cavitation_energy": 30.89, 
			 "cosmo_dispersion_energy": -22.4, 
			 "cosmo_repulsion_energy": 1.75, 
			 "cosmo_total_nonelectrostatic_energy": 10.24, 
			 "SMD_solvation_energy": 5.9 
		},
		"coords": [
			{
				"x": 5.0946394971,
				"y": 1.3416837045,
				"z": 1.2241373486,
				"element": "C" 
			},
			{
				"x": 3.9501675199,
				"y": 1.4366137691,
				"z": 2.2288739652,
				"element": "C" 
			},
			{
				"x": 3.3061746343,
				"y": 3.1585524279,
				"z": 2.2796511546,
				"element": "Cl" 
			},
			{
				"x": 2.8825065581,
				"y": 0.3592974364,
				"z": 1.9510505201,
				"element": "C" 
			},
			{
				"x": 3.2503531085,
				"y": -0.8066964786,
				"z": 2.0261195272,
				"element": "O" 
			},
			{
				"x": 1.6292323392,
				"y": 0.782945105,
				"z": 1.631029517,
				"element": "N" 
			},
			{
				"x": 0.4918357727,
				"y": 0.0029196178,
				"z": 1.3264648356,
				"element": "C" 
			},
			{
				"x": -0.6948535434,
				"y": 0.6960720322,
				"z": 1.0419839344,
				"element": "C" 
			},
			{
				"x": -1.8375475034,
				"y": -0.0236467456,
				"z": 0.7358750963,
				"element": "C" 
			},
			{
				"x": -2.9717645537,
				"y": 0.6632385346,
				"z": 0.4642185325,
				"element": "F" 
			},
			{
				"x": -1.8814968682,
				"y": -1.418641577,
				"z": 0.692623366,
				"element": "C" 
			},
			{
				"x": -3.1607511865,
				"y": -2.1378308026,
				"z": 0.3522164441,
				"element": "C" 
			},
			{
				"x": -0.6818509684,
				"y": -2.0768509419,
				"z": 0.9812789935,
				"element": "C" 
			},
			{
				"x": 0.4968423132,
				"y": -1.3982104382,
				"z": 1.2952318466,
				"element": "C" 
			},
			{
				"x": 5.4673242048,
				"y": 0.3143669335,
				"z": 1.227153578,
				"element": "H" 
			},
			{
				"x": 4.7513398993,
				"y": 1.5900543463,
				"z": 0.2162167345,
				"element": "H" 
			},
			{
				"x": 5.904618858,
				"y": 2.0208162267,
				"z": 1.4977892491,
				"element": "H" 
			},
			{
				"x": 4.3131905623,
				"y": 1.2532407117,
				"z": 3.2415793921,
				"element": "H" 
			},
			{
				"x": 1.4932979063,
				"y": 1.7856628386,
				"z": 1.6287354527,
				"element": "H" 
			},
			{
				"x": -0.7411524768,
				"y": 1.7806694614,
				"z": 1.0554181718,
				"element": "H" 
			},
			{
				"x": -3.957651013,
				"y": -1.8951926744,
				"z": 1.0637655594,
				"element": "H" 
			},
			{
				"x": -3.5267274405,
				"y": -1.8549539713,
				"z": -0.6408936743,
				"element": "H" 
			},
			{
				"x": -3.0117642168,
				"y": -3.220329945,
				"z": 0.364362192,
				"element": "H" 
			},
			{
				"x": -0.6671224462,
				"y": -3.1633819632,
				"z": 0.9601897134,
				"element": "H" 
			},
			{
				"x": 1.4083590433,
				"y": -1.934697608,
				"z": 1.5143285496,
				"element": "H" 
			}
		],
		 "valence_orbital": [ 
			{
				"type": "occ",
				"energy": -0.31655,
				"method": "rhf"
			},
			{
				"type": "occ",
				"energy": -0.30419,
				"method": "rhf"
			},
			{
				"type": "occ",
				"energy": -0.26586,
				"method": "rhf"
			},
			{
				"type": "occ",
				"energy": -0.25091,
				"method": "rhf"
			},
			{
				"type": "occ",
				"energy": -0.22466,
				"method": "rhf"
			},
			{
				"type": "unocc",
				"energy": -0.02396,
				"method": "rhf"
			},
			{
				"type": "unocc",
				"energy": -0.00346,
				"method": "rhf"
			},
			{
				"type": "unocc",
				"energy": 0.00482,
				"method": "rhf"
			},
			{
				"type": "unocc",
				"energy": 0.03607,
				"method": "rhf"
			},
			{
				"type": "unocc",
				"energy": 0.08236,
				"method": "rhf"
			}
		],
		"cosmo_sigma_profile": { 
			"-0.025": 0.0,
			"-0.024": 0.0,
			"-0.023": 0.0,
			"-0.022": 0.0,
			"-0.021": 0.0,
			"-0.02": 0.0,
			"-0.019": 0.0,
			"-0.018": 0.0,
			"-0.017": 0.0,
			"-0.016": 0.0,
			"-0.015": 0.0,
			"-0.014": 0.120401373611,
			"-0.013": 0.956630096299,
			"-0.012": 0.75730992326,
			"-0.011": 0.956697359202,
			"-0.01": 1.3866190749,
			"-0.009": 2.581998754,
			"-0.008": 4.17215128594,
			"-0.007": 3.78137289028,
			"-0.006": 7.39168795464,
			"-0.005": 13.534309351,
			"-0.004": 20.3931242828,
			"-0.003": 17.4541963525,
			"-0.002": 18.2311674816,
			"-0.001": 22.5386599671,
			"0.0": 21.7273113233,
			"0.001": 19.7830782286,
			"0.002": 17.8301337743,
			"0.003": 20.2784529451,
			"0.004": 21.3753358659,
			"0.005": 15.8108968181,
			"0.006": 4.11056231171,
			"0.007": 1.40573372737,
			"0.008": 1.61926473651,
			"0.009": 1.99149235649,
			"0.01": 1.39928870919,
			"0.011": 1.98326576567,
			"0.012": 3.13897110034,
			"0.013": 0.968789039209,
			"0.014": 0.0,
			"0.015": 0.0,
			"0.016": 0.0,
			"0.017": 0.0,
			"0.018": 0.0,
			"0.019": 0.0,
			"0.02": 0.0,
			"0.021": 0.0,
			"0.022": 0.0,
			"0.023": 0.0,
			"0.024": 0.0,
			"0.025": 0.0
		}
	}
}
