{
	 "smiles": "CCCC1=CC=C(C=C1)C(C)=NO", 
	 "Tm": 322.15, 
	 "num_atms": 28, 
	 "gaussian": { 
		 "optdone": 1, 
		 "sigma_profile": "yes", 
		 "theory": "DFT", 
		 "functional": "B3LYP", 
		 "basiset": "6-31G**", 
		 "properties": { 
			 "R2extent": 4861.4976, 
			 "electric_dipole_moment_norm": 0.514133533238, 
			 "electric_quadrupole_moment_norm": 5.92136563725, 
			 "total_energy": -558.149482583, 
			 "HOMO_LUMO_gap": 0.18413, 
			 "cosmo_polarized_energy": -7.83, 
			 "cosmo_cavitation_energy": 30.75, 
			 "cosmo_dispersion_energy": -22.06, 
			 "cosmo_repulsion_energy": 1.77, 
			 "cosmo_total_nonelectrostatic_energy": 10.46, 
			 "SMD_solvation_energy": 5.35 
		},
		"coords": [
			{
				"x": 4.1309557305,
				"y": -0.1619119224,
				"z": 0.0618278463,
				"element": "C" 
			},
			{
				"x": 3.1559670979,
				"y": 0.4545656273,
				"z": 1.0688723927,
				"element": "C" 
			},
			{
				"x": 1.820368832,
				"y": 0.9190826243,
				"z": 0.4451263818,
				"element": "C" 
			},
			{
				"x": 0.9727724075,
				"y": -0.207434674,
				"z": -0.1061032482,
				"element": "C" 
			},
			{
				"x": 0.8822869619,
				"y": -0.4562499193,
				"z": -1.4788471455,
				"element": "C" 
			},
			{
				"x": 0.1127957986,
				"y": -1.5097159553,
				"z": -1.9764405182,
				"element": "C" 
			},
			{
				"x": -0.598095475,
				"y": -2.355445958,
				"z": -1.1126793779,
				"element": "C" 
			},
			{
				"x": -0.510513993,
				"y": -2.1044724114,
				"z": 0.2706884646,
				"element": "C" 
			},
			{
				"x": 0.2566959307,
				"y": -1.0550585005,
				"z": 0.7570556013,
				"element": "C" 
			},
			{
				"x": -1.4197972624,
				"y": -3.4758912214,
				"z": -1.6401047462,
				"element": "C" 
			},
			{
				"x": -1.4978609655,
				"y": -3.714164399,
				"z": -3.1268928632,
				"element": "C" 
			},
			{
				"x": -2.0306723507,
				"y": -4.1933708222,
				"z": -0.7609185321,
				"element": "N" 
			},
			{
				"x": -2.7864169522,
				"y": -5.2317398033,
				"z": -1.325482559,
				"element": "O" 
			},
			{
				"x": 5.0600587549,
				"y": -0.4708669512,
				"z": 0.5517757054,
				"element": "H" 
			},
			{
				"x": 4.3930077808,
				"y": 0.5559365994,
				"z": -0.7244534449,
				"element": "H" 
			},
			{
				"x": 3.699113498,
				"y": -1.0426238237,
				"z": -0.4237275714,
				"element": "H" 
			},
			{
				"x": 3.6281610909,
				"y": 1.3180694815,
				"z": 1.5544952634,
				"element": "H" 
			},
			{
				"x": 2.9444536382,
				"y": -0.2692085576,
				"z": 1.8663850574,
				"element": "H" 
			},
			{
				"x": 2.0311012788,
				"y": 1.6423450787,
				"z": -0.3526060931,
				"element": "H" 
			},
			{
				"x": 1.2479342543,
				"y": 1.4581208736,
				"z": 1.2107208474,
				"element": "H" 
			},
			{
				"x": 1.4179493014,
				"y": 0.1849763505,
				"z": -2.174541885,
				"element": "H" 
			},
			{
				"x": 0.0709423375,
				"y": -1.6634780262,
				"z": -3.04945474,
				"element": "H" 
			},
			{
				"x": -1.0588372809,
				"y": -2.7443996341,
				"z": 0.9525176124,
				"element": "H" 
			},
			{
				"x": 0.2995097842,
				"y": -0.8815959506,
				"z": 1.8301358586,
				"element": "H" 
			},
			{
				"x": -0.5007088314,
				"y": -3.9041659642,
				"z": -3.5384704649,
				"element": "H" 
			},
			{
				"x": -2.1364667822,
				"y": -4.5667567541,
				"z": -3.3480408649,
				"element": "H" 
			},
			{
				"x": -1.8984900668,
				"y": -2.8314796782,
				"z": -3.6369104066,
				"element": "H" 
			},
			{
				"x": -3.1624145181,
				"y": -5.6507657089,
				"z": -0.5406265704,
				"element": "H" 
			}
		],
		 "valence_orbital": [ 
			{
				"type": "occ",
				"energy": -0.32177,
				"method": "rhf"
			},
			{
				"type": "occ",
				"energy": -0.27364,
				"method": "rhf"
			},
			{
				"type": "occ",
				"energy": -0.26722,
				"method": "rhf"
			},
			{
				"type": "occ",
				"energy": -0.2467,
				"method": "rhf"
			},
			{
				"type": "occ",
				"energy": -0.21527,
				"method": "rhf"
			},
			{
				"type": "unocc",
				"energy": -0.03114,
				"method": "rhf"
			},
			{
				"type": "unocc",
				"energy": 0.00239,
				"method": "rhf"
			},
			{
				"type": "unocc",
				"energy": 0.05123,
				"method": "rhf"
			},
			{
				"type": "unocc",
				"energy": 0.07947,
				"method": "rhf"
			},
			{
				"type": "unocc",
				"energy": 0.09451,
				"method": "rhf"
			}
		],
		"cosmo_sigma_profile": { 
			"-0.025": 0.0,
			"-0.024": 0.0,
			"-0.023": 0.0,
			"-0.022": 0.0,
			"-0.021": 0.0,
			"-0.02": 0.0,
			"-0.019": 0.0,
			"-0.018": 0.0,
			"-0.017": 0.865682365233,
			"-0.016": 0.843416215829,
			"-0.015": 0.88945829736,
			"-0.014": 1.12330505228,
			"-0.013": 0.672803031712,
			"-0.012": 0.24351041425,
			"-0.011": 0.623925308522,
			"-0.01": 0.266864111906,
			"-0.009": 0.753798332643,
			"-0.008": 0.968267915771,
			"-0.007": 1.01456664938,
			"-0.006": 2.20847737031,
			"-0.005": 11.9219473666,
			"-0.004": 14.5931741551,
			"-0.003": 23.0200252351,
			"-0.002": 24.7026720104,
			"-0.001": 29.2591663079,
			"0.0": 27.5842627939,
			"0.001": 24.0346112731,
			"0.002": 14.4915693175,
			"0.003": 11.2026106311,
			"0.004": 13.5193634315,
			"0.005": 13.7984699799,
			"0.006": 8.10951743936,
			"0.007": 4.81476213991,
			"0.008": 4.03143399653,
			"0.009": 3.4008430805,
			"0.01": 2.35938958371,
			"0.011": 0.0834281417126,
			"0.012": 0.0,
			"0.013": 0.0,
			"0.014": 0.0,
			"0.015": 0.0,
			"0.016": 0.0,
			"0.017": 0.0,
			"0.018": 0.0,
			"0.019": 0.0,
			"0.02": 0.0,
			"0.021": 0.0,
			"0.022": 0.0,
			"0.023": 0.0,
			"0.024": 0.0,
			"0.025": 0.0
		}
	}
}
