{
	 "smiles": "CC(=O)N1CCC(O)C1", 
	 "Tm": 351.15, 
	 "num_atms": 20, 
	 "gaussian": { 
		 "optdone": 1, 
		 "sigma_profile": "yes", 
		 "theory": "DFT", 
		 "functional": "B3LYP", 
		 "basiset": "6-31G**", 
		 "properties": { 
			 "R2extent": 2323.7014, 
			 "electric_dipole_moment_norm": 2.92622671029, 
			 "electric_quadrupole_moment_norm": 20.0941875668, 
			 "total_energy": -440.474017074, 
			 "HOMO_LUMO_gap": 0.2665, 
			 "cosmo_polarized_energy": -13.94, 
			 "cosmo_cavitation_energy": 22.19, 
			 "cosmo_dispersion_energy": -16.46, 
			 "cosmo_repulsion_energy": 1.37, 
			 "cosmo_total_nonelectrostatic_energy": 7.1, 
			 "SMD_solvation_energy": 3.64 
		},
		"coords": [
			{
				"x": -2.2826106945,
				"y": -0.0087660331,
				"z": -4.0556104927,
				"element": "C" 
			},
			{
				"x": -2.6107677757,
				"y": -0.5286272647,
				"z": -2.663925643,
				"element": "C" 
			},
			{
				"x": -3.5979178772,
				"y": -1.2244139582,
				"z": -2.438327706,
				"element": "O" 
			},
			{
				"x": -1.7495564652,
				"y": -0.1719712586,
				"z": -1.6636318718,
				"element": "N" 
			},
			{
				"x": -0.4914069031,
				"y": 0.5727834876,
				"z": -1.8007849443,
				"element": "C" 
			},
			{
				"x": -0.0691092643,
				"y": 0.8046074202,
				"z": -0.3414864089,
				"element": "C" 
			},
			{
				"x": -0.5896129911,
				"y": -0.4443848403,
				"z": 0.3772120949,
				"element": "C" 
			},
			{
				"x": 0.3490720494,
				"y": -1.4829613567,
				"z": 0.1111316862,
				"element": "O" 
			},
			{
				"x": -1.9417716863,
				"y": -0.6925503496,
				"z": -0.3071631387,
				"element": "C" 
			},
			{
				"x": -1.2826324633,
				"y": -0.3192960273,
				"z": -4.3773652244,
				"element": "H" 
			},
			{
				"x": -2.3126346656,
				"y": 1.0860667193,
				"z": -4.0874436736,
				"element": "H" 
			},
			{
				"x": -3.0244506794,
				"y": -0.4054860694,
				"z": -4.7482199127,
				"element": "H" 
			},
			{
				"x": 0.2646505286,
				"y": -0.0199524801,
				"z": -2.3317823114,
				"element": "H" 
			},
			{
				"x": -0.6377183459,
				"y": 1.5102792298,
				"z": -2.3466112366,
				"element": "H" 
			},
			{
				"x": 1.0104004132,
				"y": 0.9181936501,
				"z": -0.2212143998,
				"element": "H" 
			},
			{
				"x": -0.5636160703,
				"y": 1.6941929155,
				"z": 0.0627132033,
				"element": "H" 
			},
			{
				"x": -0.7070137836,
				"y": -0.2886290616,
				"z": 1.4592394014,
				"element": "H" 
			},
			{
				"x": -0.0334479731,
				"y": -2.3191578929,
				"z": 0.4066070596,
				"element": "H" 
			},
			{
				"x": -2.2202044301,
				"y": -1.7512072821,
				"z": -0.3390086737,
				"element": "H" 
			},
			{
				"x": -2.7541509225,
				"y": -0.160419548,
				"z": 0.2060721922,
				"element": "H" 
			}
		],
		 "valence_orbital": [ 
			{
				"type": "occ",
				"energy": -0.34163,
				"method": "rhf"
			},
			{
				"type": "occ",
				"energy": -0.32952,
				"method": "rhf"
			},
			{
				"type": "occ",
				"energy": -0.2793,
				"method": "rhf"
			},
			{
				"type": "occ",
				"energy": -0.23573,
				"method": "rhf"
			},
			{
				"type": "occ",
				"energy": -0.23092,
				"method": "rhf"
			},
			{
				"type": "unocc",
				"energy": 0.03558,
				"method": "rhf"
			},
			{
				"type": "unocc",
				"energy": 0.06392,
				"method": "rhf"
			},
			{
				"type": "unocc",
				"energy": 0.09545,
				"method": "rhf"
			},
			{
				"type": "unocc",
				"energy": 0.11019,
				"method": "rhf"
			},
			{
				"type": "unocc",
				"energy": 0.11688,
				"method": "rhf"
			}
		],
		"cosmo_sigma_profile": { 
			"-0.025": 0.0,
			"-0.024": 0.0,
			"-0.023": 0.0,
			"-0.022": 0.0,
			"-0.021": 0.0,
			"-0.02": 0.0,
			"-0.019": 0.0,
			"-0.018": 0.0,
			"-0.017": 0.0,
			"-0.016": 0.230159316263,
			"-0.015": 1.37394371813,
			"-0.014": 0.511729908613,
			"-0.013": 0.796639031453,
			"-0.012": 1.5521758594,
			"-0.011": 1.11538996544,
			"-0.01": 1.08364842031,
			"-0.009": 0.862545026643,
			"-0.008": 0.617232733884,
			"-0.007": 1.69150692312,
			"-0.006": 3.82493850236,
			"-0.005": 14.5303862129,
			"-0.004": 26.6611086931,
			"-0.003": 21.5636015737,
			"-0.002": 18.0179022475,
			"-0.001": 15.3317520895,
			"0.0": 9.0144323302,
			"0.001": 4.99558178014,
			"0.002": 5.18933369949,
			"0.003": 3.85609336825,
			"0.004": 2.97586779158,
			"0.005": 3.10321226624,
			"0.006": 2.65287018905,
			"0.007": 3.04215974388,
			"0.008": 2.93473250382,
			"0.009": 3.00257593697,
			"0.01": 1.95512203401,
			"0.011": 2.16767664972,
			"0.012": 3.52344606799,
			"0.013": 3.33453570892,
			"0.014": 5.90600261526,
			"0.015": 4.04687849736,
			"0.016": 0.770930080888,
			"0.017": 0.0,
			"0.018": 0.0,
			"0.019": 0.0,
			"0.02": 0.0,
			"0.021": 0.0,
			"0.022": 0.0,
			"0.023": 0.0,
			"0.024": 0.0,
			"0.025": 0.0
		}
	}
}
