{
	 "smiles": "CC(NC(C)=O)C1=CC=CC=C1", 
	 "Tm": 375.15, 
	 "num_atms": 25, 
	 "gaussian": { 
		 "optdone": 1, 
		 "sigma_profile": "yes", 
		 "theory": "DFT", 
		 "functional": "B3LYP", 
		 "basiset": "6-31G**", 
		 "properties": { 
			 "R2extent": 2862.7474, 
			 "electric_dipole_moment_norm": 3.27898656447, 
			 "electric_quadrupole_moment_norm": 6.73169833474, 
			 "total_energy": -518.897733116, 
			 "HOMO_LUMO_gap": 0.23702, 
			 "cosmo_polarized_energy": -11.91, 
			 "cosmo_cavitation_energy": 27.66, 
			 "cosmo_dispersion_energy": -19.91, 
			 "cosmo_repulsion_energy": 1.61, 
			 "cosmo_total_nonelectrostatic_energy": 9.36, 
			 "SMD_solvation_energy": 5.07 
		},
		"coords": [
			{
				"x": -1.8802547154,
				"y": 0.6551861099,
				"z": 0.951227406,
				"element": "C" 
			},
			{
				"x": -0.6412070757,
				"y": 0.2380404607,
				"z": 0.1432083701,
				"element": "C" 
			},
			{
				"x": 0.4320604281,
				"y": -0.2987421713,
				"z": 1.0058030054,
				"element": "N" 
			},
			{
				"x": 0.3091020743,
				"y": -1.2758999386,
				"z": 1.953270114,
				"element": "C" 
			},
			{
				"x": 1.6130937239,
				"y": -1.6755395363,
				"z": 2.6350803758,
				"element": "C" 
			},
			{
				"x": -0.7528075778,
				"y": -1.8102108436,
				"z": 2.2593878722,
				"element": "O" 
			},
			{
				"x": -0.9736039206,
				"y": -0.6722798988,
				"z": -1.0368197451,
				"element": "C" 
			},
			{
				"x": -0.741736449,
				"y": -0.2236620514,
				"z": -2.3426178136,
				"element": "C" 
			},
			{
				"x": -1.0506407739,
				"y": -1.0249507415,
				"z": -3.4442701826,
				"element": "C" 
			},
			{
				"x": -1.5950069038,
				"y": -2.2940229968,
				"z": -3.2498554011,
				"element": "C" 
			},
			{
				"x": -1.8287625962,
				"y": -2.7522994493,
				"z": -1.9504833261,
				"element": "C" 
			},
			{
				"x": -1.5250531001,
				"y": -1.9501161212,
				"z": -0.8507224639,
				"element": "C" 
			},
			{
				"x": -1.5954578393,
				"y": 1.3554093529,
				"z": 1.7429147311,
				"element": "H" 
			},
			{
				"x": -2.361090321,
				"y": -0.2066520385,
				"z": 1.4121541863,
				"element": "H" 
			},
			{
				"x": -2.5928289436,
				"y": 1.1518648765,
				"z": 0.2860603126,
				"element": "H" 
			},
			{
				"x": -0.209189602,
				"y": 1.1535191042,
				"z": -0.2774937834,
				"element": "H" 
			},
			{
				"x": 1.3708672829,
				"y": -0.0289190638,
				"z": 0.7539986396,
				"element": "H" 
			},
			{
				"x": 1.4542324897,
				"y": -1.6657207059,
				"z": 3.7159138433,
				"element": "H" 
			},
			{
				"x": 2.4620666862,
				"y": -1.0303187279,
				"z": 2.3922706328,
				"element": "H" 
			},
			{
				"x": 1.8573455097,
				"y": -2.7035942441,
				"z": 2.3507296864,
				"element": "H" 
			},
			{
				"x": -0.3172755915,
				"y": 0.7656236981,
				"z": -2.5018728168,
				"element": "H" 
			},
			{
				"x": -0.8641985056,
				"y": -0.6575319024,
				"z": -4.449672706,
				"element": "H" 
			},
			{
				"x": -1.8360432998,
				"y": -2.922083189,
				"z": -4.1029220794,
				"element": "H" 
			},
			{
				"x": -2.252722713,
				"y": -3.7401824729,
				"z": -1.7920014585,
				"element": "H" 
			},
			{
				"x": -1.7005882664,
				"y": -2.3103175091,
				"z": 0.1575126008,
				"element": "H" 
			}
		],
		 "valence_orbital": [ 
			{
				"type": "occ",
				"energy": -0.32902,
				"method": "rhf"
			},
			{
				"type": "occ",
				"energy": -0.25568,
				"method": "rhf"
			},
			{
				"type": "occ",
				"energy": -0.24507,
				"method": "rhf"
			},
			{
				"type": "occ",
				"energy": -0.24125,
				"method": "rhf"
			},
			{
				"type": "occ",
				"energy": -0.23778,
				"method": "rhf"
			},
			{
				"type": "unocc",
				"energy": -0.00076,
				"method": "rhf"
			},
			{
				"type": "unocc",
				"energy": 0.00399,
				"method": "rhf"
			},
			{
				"type": "unocc",
				"energy": 0.03108,
				"method": "rhf"
			},
			{
				"type": "unocc",
				"energy": 0.06506,
				"method": "rhf"
			},
			{
				"type": "unocc",
				"energy": 0.10085,
				"method": "rhf"
			}
		],
		"cosmo_sigma_profile": { 
			"-0.025": 0.0,
			"-0.024": 0.0,
			"-0.023": 0.0,
			"-0.022": 0.0,
			"-0.021": 0.0,
			"-0.02": 0.0,
			"-0.019": 0.0,
			"-0.018": 0.0,
			"-0.017": 0.0,
			"-0.016": 0.0,
			"-0.015": 0.0,
			"-0.014": 0.965162373212,
			"-0.013": 1.19454815351,
			"-0.012": 1.42514446695,
			"-0.011": 1.50842304176,
			"-0.01": 1.01448705499,
			"-0.009": 1.97875068023,
			"-0.008": 1.16761239176,
			"-0.007": 2.62788023491,
			"-0.006": 6.98491886784,
			"-0.005": 16.1298433731,
			"-0.004": 14.6362499337,
			"-0.003": 23.3017274305,
			"-0.002": 19.0962470048,
			"-0.001": 20.9985277931,
			"0.0": 16.3656982919,
			"0.001": 16.1235533175,
			"0.002": 11.6481738885,
			"0.003": 12.02434357,
			"0.004": 10.2882757676,
			"0.005": 10.2798510412,
			"0.006": 10.5732511352,
			"0.007": 3.6470690445,
			"0.008": 2.09418819769,
			"0.009": 1.46313357336,
			"0.01": 1.29836930787,
			"0.011": 0.834001999838,
			"0.012": 1.5685024577,
			"0.013": 2.27470885054,
			"0.014": 2.42450628687,
			"0.015": 2.05722107677,
			"0.016": 0.29333241655,
			"0.017": 0.0,
			"0.018": 0.0,
			"0.019": 0.0,
			"0.02": 0.0,
			"0.021": 0.0,
			"0.022": 0.0,
			"0.023": 0.0,
			"0.024": 0.0,
			"0.025": 0.0
		}
	}
}
