{
	 "smiles": "CC1=C(Br)SC(=C1)C(O)=O", 
	 "Tm": 445.15, 
	 "num_atms": 15, 
	 "gaussian": { 
		 "optdone": 1, 
		 "sigma_profile": "yes", 
		 "theory": "DFT", 
		 "functional": "B3LYP", 
		 "basiset": "6-31G**", 
		 "properties": { 
			 "R2extent": 4377.1362, 
			 "electric_dipole_moment_norm": 2.95879688049, 
			 "electric_quadrupole_moment_norm": 7.02042119961, 
			 "total_energy": -3351.69428223, 
			 "HOMO_LUMO_gap": 0.17574, 
			 "cosmo_polarized_energy": -8.75, 
			 "cosmo_cavitation_energy": 23.81, 
			 "cosmo_dispersion_energy": -18.32, 
			 "cosmo_repulsion_energy": 1.45, 
			 "cosmo_total_nonelectrostatic_energy": 6.93, 
			 "SMD_solvation_energy": 4.08 
		},
		"coords": [
			{
				"x": 0.2350838792,
				"y": -3.166017268,
				"z": 1.4803125956,
				"element": "C" 
			},
			{
				"x": 0.786574962,
				"y": -1.8583555773,
				"z": 0.9838808393,
				"element": "C" 
			},
			{
				"x": 2.1019666313,
				"y": -1.6322900939,
				"z": 0.6382928287,
				"element": "C" 
			},
			{
				"x": 3.4916388092,
				"y": -2.9039878945,
				"z": 0.7107265849,
				"element": "Br" 
			},
			{
				"x": 2.4287101729,
				"y": -0.0175998932,
				"z": 0.1006785743,
				"element": "S" 
			},
			{
				"x": 0.7536941842,
				"y": 0.400336618,
				"z": 0.336056768,
				"element": "C" 
			},
			{
				"x": 0.0239899518,
				"y": -0.6687126909,
				"z": 0.8013230422,
				"element": "C" 
			},
			{
				"x": 0.3168828245,
				"y": 1.7649128301,
				"z": 0.0332624345,
				"element": "C" 
			},
			{
				"x": -1.0084234138,
				"y": 1.9443386997,
				"z": 0.2624615621,
				"element": "O" 
			},
			{
				"x": 1.0416608042,
				"y": 2.6510374019,
				"z": -0.3784643255,
				"element": "O" 
			},
			{
				"x": 0.3803024906,
				"y": -3.9638800482,
				"z": 0.7443885372,
				"element": "H" 
			},
			{
				"x": 0.7330319581,
				"y": -3.4831248756,
				"z": 2.4026755625,
				"element": "H" 
			},
			{
				"x": -0.8351410914,
				"y": -3.0819155521,
				"z": 1.6835708146,
				"element": "H" 
			},
			{
				"x": -1.0378897414,
				"y": -0.6007432959,
				"z": 1.0076111897,
				"element": "H" 
			},
			{
				"x": -1.1923824215,
				"y": 2.87010164,
				"z": 0.0326229919,
				"element": "H" 
			}
		],
		 "valence_orbital": [ 
			{
				"type": "occ",
				"energy": -0.3192,
				"method": "rhf"
			},
			{
				"type": "occ",
				"energy": -0.30463,
				"method": "rhf"
			},
			{
				"type": "occ",
				"energy": -0.28445,
				"method": "rhf"
			},
			{
				"type": "occ",
				"energy": -0.26592,
				"method": "rhf"
			},
			{
				"type": "occ",
				"energy": -0.2395,
				"method": "rhf"
			},
			{
				"type": "unocc",
				"energy": -0.06376,
				"method": "rhf"
			},
			{
				"type": "unocc",
				"energy": -0.0085,
				"method": "rhf"
			},
			{
				"type": "unocc",
				"energy": 0.01536,
				"method": "rhf"
			},
			{
				"type": "unocc",
				"energy": 0.021,
				"method": "rhf"
			},
			{
				"type": "unocc",
				"energy": 0.07729,
				"method": "rhf"
			}
		],
		"cosmo_sigma_profile": { 
			"-0.025": 0.0,
			"-0.024": 0.0,
			"-0.023": 0.0,
			"-0.022": 0.0,
			"-0.021": 0.0,
			"-0.02": 0.0,
			"-0.019": 0.17333795618,
			"-0.018": 0.881257863865,
			"-0.017": 1.06450542878,
			"-0.016": 0.751298034629,
			"-0.015": 0.778302881604,
			"-0.014": 0.554791788086,
			"-0.013": 0.242604022589,
			"-0.012": 1.06195309864,
			"-0.011": 1.21571646809,
			"-0.01": 0.436394024773,
			"-0.009": 0.500167766821,
			"-0.008": 1.82518690387,
			"-0.007": 2.54348830465,
			"-0.006": 5.24365513851,
			"-0.005": 7.52222711956,
			"-0.004": 8.2546088163,
			"-0.003": 12.0941323568,
			"-0.002": 15.6510292636,
			"-0.001": 21.8302970715,
			"0.0": 21.4931704433,
			"0.001": 28.3330860769,
			"0.002": 21.9102574859,
			"0.003": 14.049205388,
			"0.004": 4.7153195958,
			"0.005": 2.63288519813,
			"0.006": 2.33366031699,
			"0.007": 4.18194448627,
			"0.008": 2.21661838777,
			"0.009": 1.33897202889,
			"0.01": 2.25498061662,
			"0.011": 4.60479702932,
			"0.012": 2.95990664177,
			"0.013": 0.0143225465684,
			"0.014": 0.0,
			"0.015": 0.0,
			"0.016": 0.0,
			"0.017": 0.0,
			"0.018": 0.0,
			"0.019": 0.0,
			"0.02": 0.0,
			"0.021": 0.0,
			"0.022": 0.0,
			"0.023": 0.0,
			"0.024": 0.0,
			"0.025": 0.0
		}
	}
}
