{
	 "smiles": "CN1C(O)=NN=C1S", 
	 "Tm": 490.15, 
	 "num_atms": 13, 
	 "gaussian": { 
		 "optdone": 1, 
		 "sigma_profile": "yes", 
		 "theory": "DFT", 
		 "functional": "B3LYP", 
		 "basiset": "6-31G**", 
		 "properties": { 
			 "R2extent": 1314.5353, 
			 "electric_dipole_moment_norm": 3.67580581642, 
			 "electric_quadrupole_moment_norm": 9.64898358792, 
			 "total_energy": -754.962036373, 
			 "HOMO_LUMO_gap": 0.22369, 
			 "cosmo_polarized_energy": -15.81, 
			 "cosmo_cavitation_energy": 19.1, 
			 "cosmo_dispersion_energy": -14.87, 
			 "cosmo_repulsion_energy": 1.19, 
			 "cosmo_total_nonelectrostatic_energy": 5.42, 
			 "SMD_solvation_energy": 1.73 
		},
		"coords": [
			{
				"x": 1.824006465,
				"y": 0.5769232604,
				"z": 0.9358202784,
				"element": "C" 
			},
			{
				"x": 0.4882836256,
				"y": 0.0370879686,
				"z": 1.1354286206,
				"element": "N" 
			},
			{
				"x": 0.0645083665,
				"y": -0.8265092099,
				"z": 2.1089156064,
				"element": "C" 
			},
			{
				"x": 0.9329455405,
				"y": -1.2759126111,
				"z": 3.0315481989,
				"element": "O" 
			},
			{
				"x": -1.2016853493,
				"y": -1.1141496253,
				"z": 2.003494763,
				"element": "N" 
			},
			{
				"x": -1.6750381402,
				"y": -0.4087701097,
				"z": 0.8950746609,
				"element": "N" 
			},
			{
				"x": -0.6633403939,
				"y": 0.2577520651,
				"z": 0.4054620647,
				"element": "C" 
			},
			{
				"x": -0.6794393245,
				"y": 1.3256433455,
				"z": -1.004688643,
				"element": "S" 
			},
			{
				"x": 2.2139774232,
				"y": 0.2848646982,
				"z": -0.0435342883,
				"element": "H" 
			},
			{
				"x": 1.812327979,
				"y": 1.6682326385,
				"z": 1.0094863247,
				"element": "H" 
			},
			{
				"x": 2.4730992643,
				"y": 0.1737597007,
				"z": 1.7130822336,
				"element": "H" 
			},
			{
				"x": 0.4322941344,
				"y": -1.8653113721,
				"z": 3.6153470379,
				"element": "H" 
			},
			{
				"x": -1.9898395905,
				"y": 1.1146892509,
				"z": -1.2296368577,
				"element": "H" 
			}
		],
		 "valence_orbital": [ 
			{
				"type": "occ",
				"energy": -0.30934,
				"method": "rhf"
			},
			{
				"type": "occ",
				"energy": -0.29998,
				"method": "rhf"
			},
			{
				"type": "occ",
				"energy": -0.2877,
				"method": "rhf"
			},
			{
				"type": "occ",
				"energy": -0.25956,
				"method": "rhf"
			},
			{
				"type": "occ",
				"energy": -0.21953,
				"method": "rhf"
			},
			{
				"type": "unocc",
				"energy": 0.00416,
				"method": "rhf"
			},
			{
				"type": "unocc",
				"energy": 0.02724,
				"method": "rhf"
			},
			{
				"type": "unocc",
				"energy": 0.05464,
				"method": "rhf"
			},
			{
				"type": "unocc",
				"energy": 0.06164,
				"method": "rhf"
			},
			{
				"type": "unocc",
				"energy": 0.06909,
				"method": "rhf"
			}
		],
		"cosmo_sigma_profile": { 
			"-0.025": 0.0,
			"-0.024": 0.0,
			"-0.023": 0.0,
			"-0.022": 0.0,
			"-0.021": 0.0,
			"-0.02": 0.1449684686,
			"-0.019": 0.916296589121,
			"-0.018": 1.16636771069,
			"-0.017": 0.880678987238,
			"-0.016": 0.252656005974,
			"-0.015": 0.301309375428,
			"-0.014": 0.291862744033,
			"-0.013": 1.40046898707,
			"-0.012": 2.50515231019,
			"-0.011": 1.99338587415,
			"-0.01": 1.58237032982,
			"-0.009": 1.92356442236,
			"-0.008": 2.3607542247,
			"-0.007": 6.80918952846,
			"-0.006": 8.65991470361,
			"-0.005": 11.0245946698,
			"-0.004": 14.4678676375,
			"-0.003": 9.78463770669,
			"-0.002": 6.90149753127,
			"-0.001": 6.94651026729,
			"0.0": 7.48952549527,
			"0.001": 7.60731763589,
			"0.002": 8.07026417416,
			"0.003": 5.9559268118,
			"0.004": 6.97995395183,
			"0.005": 4.81961605289,
			"0.006": 5.33263971645,
			"0.007": 5.15733930854,
			"0.008": 2.19481494041,
			"0.009": 1.77188729475,
			"0.01": 1.88952425766,
			"0.011": 2.14093711442,
			"0.012": 2.43817647031,
			"0.013": 3.68490201917,
			"0.014": 3.28931243952,
			"0.015": 2.79521562625,
			"0.016": 2.3904870715,
			"0.017": 0.483731527165,
			"0.018": 0.0,
			"0.019": 0.0,
			"0.02": 0.0,
			"0.021": 0.0,
			"0.022": 0.0,
			"0.023": 0.0,
			"0.024": 0.0,
			"0.025": 0.0
		}
	}
}
