{
	 "smiles": "CC(C(O)=O)=C(C1=CC=CC=C1)C1=CC=CC=C1", 
	 "Tm": 436.15, 
	 "num_atms": 32, 
	 "gaussian": { 
		 "optdone": 1, 
		 "sigma_profile": "yes", 
		 "theory": "DFT", 
		 "functional": "B3LYP", 
		 "basiset": "6-31G**", 
		 "properties": { 
			 "R2extent": 5081.3972, 
			 "electric_dipole_moment_norm": 2.24354504524, 
			 "electric_quadrupole_moment_norm": 12.6022978262, 
			 "total_energy": -768.591731704, 
			 "HOMO_LUMO_gap": 0.17262, 
			 "cosmo_polarized_energy": -11.41, 
			 "cosmo_cavitation_energy": 35.74, 
			 "cosmo_dispersion_energy": -24.4, 
			 "cosmo_repulsion_energy": 1.92, 
			 "cosmo_total_nonelectrostatic_energy": 13.26, 
			 "SMD_solvation_energy": 7.15 
		},
		"coords": [
			{
				"x": 2.4871960418,
				"y": -1.654746984,
				"z": -2.1022321591,
				"element": "C" 
			},
			{
				"x": 1.8213909563,
				"y": -0.4566999799,
				"z": -1.4650250541,
				"element": "C" 
			},
			{
				"x": 2.8208176959,
				"y": 0.536269096,
				"z": -0.9585340095,
				"element": "C" 
			},
			{
				"x": 2.4688934712,
				"y": 1.8276921407,
				"z": -1.1634112323,
				"element": "O" 
			},
			{
				"x": 3.8955538481,
				"y": 0.2344226518,
				"z": -0.4734968469,
				"element": "O" 
			},
			{
				"x": 0.4811823287,
				"y": -0.3059243523,
				"z": -1.291226218,
				"element": "C" 
			},
			{
				"x": -0.1118583084,
				"y": 0.7396491963,
				"z": -0.4058501871,
				"element": "C" 
			},
			{
				"x": 0.3426864707,
				"y": 0.9110414589,
				"z": 0.9118732547,
				"element": "C" 
			},
			{
				"x": -0.2330973176,
				"y": 1.8686247495,
				"z": 1.7466290091,
				"element": "C" 
			},
			{
				"x": -1.2758244707,
				"y": 2.6701312725,
				"z": 1.2792359963,
				"element": "C" 
			},
			{
				"x": -1.7459544258,
				"y": 2.5003004747,
				"z": -0.0254225456,
				"element": "C" 
			},
			{
				"x": -1.1780160469,
				"y": 1.5361053917,
				"z": -0.8556955118,
				"element": "C" 
			},
			{
				"x": -0.5023747601,
				"y": -1.2322768406,
				"z": -1.9266186264,
				"element": "C" 
			},
			{
				"x": -1.5320254741,
				"y": -1.811781345,
				"z": -1.1643700263,
				"element": "C" 
			},
			{
				"x": -2.4600348838,
				"y": -2.6687851239,
				"z": -1.7528250464,
				"element": "C" 
			},
			{
				"x": -2.3927272238,
				"y": -2.9459433681,
				"z": -3.1204050402,
				"element": "C" 
			},
			{
				"x": -1.3888442563,
				"y": -2.361277492,
				"z": -3.8940965928,
				"element": "C" 
			},
			{
				"x": -0.4512916409,
				"y": -1.5146706968,
				"z": -3.3021925978,
				"element": "C" 
			},
			{
				"x": 2.9296051105,
				"y": -1.405008734,
				"z": -3.074968671,
				"element": "H" 
			},
			{
				"x": 3.3106567596,
				"y": -1.9776940474,
				"z": -1.4584631263,
				"element": "H" 
			},
			{
				"x": 1.7925291611,
				"y": -2.4821222289,
				"z": -2.2453930223,
				"element": "H" 
			},
			{
				"x": 3.192410957,
				"y": 2.358128029,
				"z": -0.7888986209,
				"element": "H" 
			},
			{
				"x": 1.143980998,
				"y": 0.2790212685,
				"z": 1.2839933642,
				"element": "H" 
			},
			{
				"x": 0.1283870533,
				"y": 1.9822504056,
				"z": 2.7648111012,
				"element": "H" 
			},
			{
				"x": -1.7256048895,
				"y": 3.4154677738,
				"z": 1.9289655293,
				"element": "H" 
			},
			{
				"x": -2.5594068,
				"y": 3.1179234285,
				"z": -0.3956126554,
				"element": "H" 
			},
			{
				"x": -1.5519174901,
				"y": 1.4028167359,
				"z": -1.8663445707,
				"element": "H" 
			},
			{
				"x": -1.5955554312,
				"y": -1.5905931167,
				"z": -0.103362773,
				"element": "H" 
			},
			{
				"x": -3.2398331284,
				"y": -3.1175592885,
				"z": -1.1440683338,
				"element": "H" 
			},
			{
				"x": -3.1214870075,
				"y": -3.6072269769,
				"z": -3.580241752,
				"element": "H" 
			},
			{
				"x": -1.3370964428,
				"y": -2.5594297044,
				"z": -4.960951196,
				"element": "H" 
			},
			{
				"x": 0.3188591456,
				"y": -1.0505037941,
				"z": -3.9105018391,
				"element": "H" 
			}
		],
		 "valence_orbital": [ 
			{
				"type": "occ",
				"energy": -0.26659,
				"method": "rhf"
			},
			{
				"type": "occ",
				"energy": -0.25859,
				"method": "rhf"
			},
			{
				"type": "occ",
				"energy": -0.25277,
				"method": "rhf"
			},
			{
				"type": "occ",
				"energy": -0.24962,
				"method": "rhf"
			},
			{
				"type": "occ",
				"energy": -0.22315,
				"method": "rhf"
			},
			{
				"type": "unocc",
				"energy": -0.05053,
				"method": "rhf"
			},
			{
				"type": "unocc",
				"energy": -0.01202,
				"method": "rhf"
			},
			{
				"type": "unocc",
				"energy": -0.00824,
				"method": "rhf"
			},
			{
				"type": "unocc",
				"energy": 0.00292,
				"method": "rhf"
			},
			{
				"type": "unocc",
				"energy": 0.02067,
				"method": "rhf"
			}
		],
		"cosmo_sigma_profile": { 
			"-0.025": 0.0,
			"-0.024": 0.0,
			"-0.023": 0.0,
			"-0.022": 0.0,
			"-0.021": 0.0,
			"-0.02": 0.0,
			"-0.019": 0.0,
			"-0.018": 0.378461346934,
			"-0.017": 0.926481076619,
			"-0.016": 1.10476692533,
			"-0.015": 0.454836344407,
			"-0.014": 0.408385265229,
			"-0.013": 0.897363279859,
			"-0.012": 1.16884448862,
			"-0.011": 0.616050286915,
			"-0.01": 0.509139980562,
			"-0.009": 0.561054455855,
			"-0.008": 0.518341877017,
			"-0.007": 0.598411004277,
			"-0.006": 11.0510952243,
			"-0.005": 21.5266361068,
			"-0.004": 26.672028979,
			"-0.003": 27.0570107109,
			"-0.002": 22.0921297133,
			"-0.001": 23.4934372339,
			"0.0": 24.1210994679,
			"0.001": 18.1554577763,
			"0.002": 18.8325370141,
			"0.003": 18.0330091457,
			"0.004": 18.1770362112,
			"0.005": 17.7026044754,
			"0.006": 6.84803002345,
			"0.007": 3.60964198296,
			"0.008": 4.1445534116,
			"0.009": 3.57099891607,
			"0.01": 2.85421797441,
			"0.011": 3.00523481696,
			"0.012": 5.08309710395,
			"0.013": 0.694904086183,
			"0.014": 0.0,
			"0.015": 0.0,
			"0.016": 0.0,
			"0.017": 0.0,
			"0.018": 0.0,
			"0.019": 0.0,
			"0.02": 0.0,
			"0.021": 0.0,
			"0.022": 0.0,
			"0.023": 0.0,
			"0.024": 0.0,
			"0.025": 0.0
		}
	}
}
