{
	 "smiles": "CC1=C(I)C=CN=C1Cl", 
	 "Tm": 380.15, 
	 "num_atms": 14, 
	 "gaussian": { 
		 "optdone": 1, 
		 "sigma_profile": "no", 
		 "theory": "DFT", 
		 "functional": "B3LYP", 
		 "basiset": "6-31G**", 
		 "properties": { 
			 "R2extent": 2397.4908, 
			 "electric_dipole_moment_norm": 2.2061896156, 
			 "electric_quadrupole_moment_norm": 13.0649541783, 
			 "total_energy": -757.979637613, 
			 "HOMO_LUMO_gap": 0.20854, 
			 "cosmo_polarized_energy": -85119.77, 
			 "cosmo_cavitation_energy": 22.56, 
			 "cosmo_dispersion_energy": -18.39, 
			 "cosmo_repulsion_energy": 1.46, 
			 "cosmo_total_nonelectrostatic_energy": 5.62, 
			 "SMD_solvation_energy": 1.6 
		},
		"coords": [
			{
				"x": -0.2741241871,
				"y": 1.8974328922,
				"z": -0.9856086482,
				"element": "C" 
			},
			{
				"x": -0.5007448341,
				"y": 0.4489566396,
				"z": -1.32396953,
				"element": "C" 
			},
			{
				"x": -0.5016637645,
				"y": -0.5654111107,
				"z": -0.3528564132,
				"element": "C" 
			},
			{
				"x": -0.1764059165,
				"y": -0.1111004989,
				"z": 1.6953512695,
				"element": "I" 
			},
			{
				"x": -0.7143698886,
				"y": -1.9020295789,
				"z": -0.690823059,
				"element": "C" 
			},
			{
				"x": -0.9275064603,
				"y": -2.2022960837,
				"z": -2.0318768239,
				"element": "C" 
			},
			{
				"x": -0.9358265163,
				"y": -1.2731454379,
				"z": -2.9925650183,
				"element": "N" 
			},
			{
				"x": -0.731384741,
				"y": -0.019419268,
				"z": -2.6377804384,
				"element": "C" 
			},
			{
				"x": -0.7614417431,
				"y": 1.1327610865,
				"z": -3.9805906489,
				"element": "Cl" 
			},
			{
				"x": -0.3115964839,
				"y": 2.5238134381,
				"z": -1.8745462035,
				"element": "H" 
			},
			{
				"x": -1.0321546004,
				"y": 2.2511490099,
				"z": -0.2788406266,
				"element": "H" 
			},
			{
				"x": 0.700756208,
				"y": 2.0330670403,
				"z": -0.5055403283,
				"element": "H" 
			},
			{
				"x": -0.7148138603,
				"y": -2.6831298347,
				"z": 0.0594828829,
				"element": "H" 
			},
			{
				"x": -1.0984232118,
				"y": -3.2281482939,
				"z": -2.3497364141,
				"element": "H" 
			}
		],
		 "valence_orbital": [ 
			{
				"type": "occ",
				"energy": -0.31736,
				"method": "rhf"
			},
			{
				"type": "occ",
				"energy": -0.28653,
				"method": "rhf"
			},
			{
				"type": "occ",
				"energy": -0.2766,
				"method": "rhf"
			},
			{
				"type": "occ",
				"energy": -0.26773,
				"method": "rhf"
			},
			{
				"type": "occ",
				"energy": -0.26482,
				"method": "rhf"
			},
			{
				"type": "unocc",
				"energy": -0.05628,
				"method": "rhf"
			},
			{
				"type": "unocc",
				"energy": -0.04869,
				"method": "rhf"
			},
			{
				"type": "unocc",
				"energy": -0.03279,
				"method": "rhf"
			},
			{
				"type": "unocc",
				"energy": 0.0315,
				"method": "rhf"
			},
			{
				"type": "unocc",
				"energy": 0.03284,
				"method": "rhf"
			}
		],
		"cosmo_sigma_profile": { 
			"0.0": 0.0,
			"0.0": 0.0,
			"0.0": 0.0,
			"0.0": 0.0,
			"0.0": 0.0,
			"0.0": 0.0,
			"0.0": 0.0,
			"0.0": 0.0,
			"0.0": 0.0,
			"0.0": 0.0,
			"0.0": 0.0,
			"0.0": 0.0,
			"0.0": 0.0,
			"0.0": 0.0,
			"0.0": 0.0,
			"0.0": 0.0,
			"0.0": 0.0,
			"0.0": 0.0,
			"0.0": 0.0,
			"0.0": 0.0,
			"0.0": 0.0,
			"0.0": 0.0,
			"0.0": 0.0,
			"0.0": 0.0,
			"0.0": 0.0,
			"0.0": 0.0,
			"0.0": 0.0,
			"0.0": 0.0,
			"0.0": 0.0,
			"0.0": 0.0,
			"0.0": 0.0,
			"0.0": 0.0,
			"0.0": 0.0,
			"0.0": 0.0,
			"0.0": 0.0,
			"0.0": 0.0,
			"0.0": 0.0,
			"0.0": 0.0,
			"0.0": 0.0,
			"0.0": 0.0,
			"0.0": 0.0,
			"0.0": 0.0,
			"0.0": 0.0,
			"0.0": 0.0,
			"0.0": 0.0,
			"0.0": 0.0,
			"0.0": 0.0,
			"0.0": 0.0,
			"0.0": 0.0,
			"0.0": 0.0,
			"0.0": 0.0
		}
	}
}
