{
	 "smiles": "OC(=O)C1=CC=C(O1)C1=C(Cl)C=C(C=C1)[N+]([O-])=O", 
	 "Tm": 525.15, 
	 "num_atms": 24, 
	 "gaussian": { 
		 "optdone": 1, 
		 "sigma_profile": "yes", 
		 "theory": "DFT", 
		 "functional": "B3LYP", 
		 "basiset": "6-31G**", 
		 "properties": { 
			 "R2extent": 7010.4968, 
			 "electric_dipole_moment_norm": 1.50782977819, 
			 "electric_quadrupole_moment_norm": 41.4925060025, 
			 "total_energy": -1313.7360946, 
			 "HOMO_LUMO_gap": 0.13823, 
			 "cosmo_polarized_energy": -17.41, 
			 "cosmo_cavitation_energy": 32.66, 
			 "cosmo_dispersion_energy": -23.82, 
			 "cosmo_repulsion_energy": 1.81, 
			 "cosmo_total_nonelectrostatic_energy": 10.65, 
			 "SMD_solvation_energy": 9.24 
		},
		"coords": [
			{
				"x": 1.2833048967,
				"y": -3.357305058,
				"z": -2.966401477,
				"element": "O" 
			},
			{
				"x": 1.2558343198,
				"y": -2.0936977971,
				"z": -3.4527758016,
				"element": "C" 
			},
			{
				"x": 1.4671104637,
				"y": -1.8520552374,
				"z": -4.6176948685,
				"element": "O" 
			},
			{
				"x": 0.9529795706,
				"y": -1.0344405018,
				"z": -2.4731380125,
				"element": "C" 
			},
			{
				"x": 0.8009415589,
				"y": 0.3158457497,
				"z": -2.6203684509,
				"element": "C" 
			},
			{
				"x": 0.4909051872,
				"y": 0.8292562183,
				"z": -1.3335079504,
				"element": "C" 
			},
			{
				"x": 0.4745299448,
				"y": -0.2386308357,
				"z": -0.4611978781,
				"element": "C" 
			},
			{
				"x": 0.7606343093,
				"y": -1.3861363228,
				"z": -1.1635528124,
				"element": "O" 
			},
			{
				"x": 0.2855511835,
				"y": -0.4165772031,
				"z": 0.9746524811,
				"element": "C" 
			},
			{
				"x": -0.326361294,
				"y": 0.5306115931,
				"z": 1.829067734,
				"element": "C" 
			},
			{
				"x": -0.9696650353,
				"y": 2.0484845098,
				"z": 1.2336255673,
				"element": "Cl" 
			},
			{
				"x": -0.4709815822,
				"y": 0.2929464069,
				"z": 3.1922225442,
				"element": "C" 
			},
			{
				"x": -0.0049060789,
				"y": -0.9044572284,
				"z": 3.721541121,
				"element": "C" 
			},
			{
				"x": 0.6008559824,
				"y": -1.8716702592,
				"z": 2.9237115964,
				"element": "C" 
			},
			{
				"x": 0.7388889892,
				"y": -1.6167628927,
				"z": 1.5687706211,
				"element": "C" 
			},
			{
				"x": -0.1603133232,
				"y": -1.1490044861,
				"z": 5.1632101606,
				"element": "N" 
			},
			{
				"x": -0.6950590462,
				"y": -0.2688669525,
				"z": 5.8355379751,
				"element": "O" 
			},
			{
				"x": 0.2556244727,
				"y": -2.2202628629,
				"z": 5.6015444723,
				"element": "O" 
			},
			{
				"x": 1.0694381428,
				"y": -3.3539455078,
				"z": -2.0208014083,
				"element": "H" 
			},
			{
				"x": 0.9001219758,
				"y": 0.8610412469,
				"z": -3.5468563337,
				"element": "H" 
			},
			{
				"x": 0.3184317439,
				"y": 1.8611936096,
				"z": -1.0789031104,
				"element": "H" 
			},
			{
				"x": -0.944149044,
				"y": 1.0202352136,
				"z": 3.8385706087,
				"element": "H" 
			},
			{
				"x": 0.9560392427,
				"y": -2.7916993368,
				"z": 3.3696732347,
				"element": "H" 
			},
			{
				"x": 1.2204434201,
				"y": -2.3535020656,
				"z": 0.9382699871,
				"element": "H" 
			}
		],
		 "valence_orbital": [ 
			{
				"type": "occ",
				"energy": -0.31531,
				"method": "rhf"
			},
			{
				"type": "occ",
				"energy": -0.30629,
				"method": "rhf"
			},
			{
				"type": "occ",
				"energy": -0.29189,
				"method": "rhf"
			},
			{
				"type": "occ",
				"energy": -0.28912,
				"method": "rhf"
			},
			{
				"type": "occ",
				"energy": -0.25353,
				"method": "rhf"
			},
			{
				"type": "unocc",
				"energy": -0.1153,
				"method": "rhf"
			},
			{
				"type": "unocc",
				"energy": -0.06857,
				"method": "rhf"
			},
			{
				"type": "unocc",
				"energy": -0.0519,
				"method": "rhf"
			},
			{
				"type": "unocc",
				"energy": -0.02474,
				"method": "rhf"
			},
			{
				"type": "unocc",
				"energy": -0.00281,
				"method": "rhf"
			}
		],
		"cosmo_sigma_profile": { 
			"-0.025": 0.0,
			"-0.024": 0.0,
			"-0.023": 0.0,
			"-0.022": 0.0,
			"-0.021": 0.0,
			"-0.02": 0.0,
			"-0.019": 0.0,
			"-0.018": 0.0,
			"-0.017": 0.421165422794,
			"-0.016": 0.809869701247,
			"-0.015": 0.393747598809,
			"-0.014": 0.738834403132,
			"-0.013": 0.903075194618,
			"-0.012": 0.951502986909,
			"-0.011": 1.47327305218,
			"-0.01": 0.983293636884,
			"-0.009": 3.55063656488,
			"-0.008": 8.8191515682,
			"-0.007": 9.33430641782,
			"-0.006": 9.7975331408,
			"-0.005": 11.6035247122,
			"-0.004": 14.628665515,
			"-0.003": 17.8222584717,
			"-0.002": 27.6415679658,
			"-0.001": 31.9889078595,
			"0.0": 20.98862084,
			"0.001": 17.3854539244,
			"0.002": 12.225926209,
			"0.003": 10.1610609597,
			"0.004": 7.38460102139,
			"0.005": 4.97142338886,
			"0.006": 5.64517574015,
			"0.007": 12.8451864765,
			"0.008": 8.85001934803,
			"0.009": 7.67265750242,
			"0.01": 6.43076231819,
			"0.011": 5.54032145816,
			"0.012": 3.79210804144,
			"0.013": 0.555489920302,
			"0.014": 0.0,
			"0.015": 0.0,
			"0.016": 0.0,
			"0.017": 0.0,
			"0.018": 0.0,
			"0.019": 0.0,
			"0.02": 0.0,
			"0.021": 0.0,
			"0.022": 0.0,
			"0.023": 0.0,
			"0.024": 0.0,
			"0.025": 0.0
		}
	}
}
