{
	 "smiles": "COC1=C(OC(C)C)C(Cl)=CC(C=CC(O)=O)=C1", 
	 "Tm": 387.15, 
	 "num_atms": 33, 
	 "gaussian": { 
		 "optdone": 1, 
		 "sigma_profile": "yes", 
		 "theory": "DFT", 
		 "functional": "B3LYP", 
		 "basiset": "6-31G**", 
		 "properties": { 
			 "R2extent": 7643.1876, 
			 "electric_dipole_moment_norm": 5.92144206254, 
			 "electric_quadrupole_moment_norm": 26.5849108108, 
			 "total_energy": -1265.48754219, 
			 "HOMO_LUMO_gap": 0.16116, 
			 "cosmo_polarized_energy": -18.23, 
			 "cosmo_cavitation_energy": 39.12, 
			 "cosmo_dispersion_energy": -26.9, 
			 "cosmo_repulsion_energy": 2.1, 
			 "cosmo_total_nonelectrostatic_energy": 14.33, 
			 "SMD_solvation_energy": 8.71 
		},
		"coords": [
			{
				"x": -3.6050418545,
				"y": 1.0443134368,
				"z": 1.0363559877,
				"element": "C" 
			},
			{
				"x": -2.3608361951,
				"y": 0.6851669741,
				"z": 1.6530064879,
				"element": "O" 
			},
			{
				"x": -1.245919528,
				"y": 0.8123643201,
				"z": 0.8666343474,
				"element": "C" 
			},
			{
				"x": -1.0363000653,
				"y": -0.0436162024,
				"z": -0.2414921225,
				"element": "C" 
			},
			{
				"x": -1.9955742349,
				"y": -0.9432738363,
				"z": -0.5932405815,
				"element": "O" 
			},
			{
				"x": -1.7556601182,
				"y": -2.3498322376,
				"z": -0.2700132389,
				"element": "C" 
			},
			{
				"x": -2.0507541288,
				"y": -2.6149170848,
				"z": 1.2027091412,
				"element": "C" 
			},
			{
				"x": -2.6431312271,
				"y": -3.1440597872,
				"z": -1.2161111117,
				"element": "C" 
			},
			{
				"x": 0.1431393314,
				"y": 0.1282777609,
				"z": -0.9847389857,
				"element": "C" 
			},
			{
				"x": 0.4157786954,
				"y": -0.8532035592,
				"z": -2.4131687151,
				"element": "Cl" 
			},
			{
				"x": 1.0991119021,
				"y": 1.0746038142,
				"z": -0.6280647609,
				"element": "C" 
			},
			{
				"x": 0.9011443137,
				"y": 1.8986305024,
				"z": 0.4916145096,
				"element": "C" 
			},
			{
				"x": 1.9404723105,
				"y": 2.8685675333,
				"z": 0.8294027328,
				"element": "C" 
			},
			{
				"x": 1.9687490637,
				"y": 3.723969956,
				"z": 1.867719984,
				"element": "C" 
			},
			{
				"x": 3.1291741417,
				"y": 4.6357524856,
				"z": 2.0357063362,
				"element": "C" 
			},
			{
				"x": 3.0787926198,
				"y": 5.4639031459,
				"z": 3.1172629402,
				"element": "O" 
			},
			{
				"x": 4.0819703848,
				"y": 4.6805240831,
				"z": 1.2903855366,
				"element": "O" 
			},
			{
				"x": -0.2928004402,
				"y": 1.7595380921,
				"z": 1.2212943298,
				"element": "C" 
			},
			{
				"x": -3.8155623297,
				"y": 0.4131857802,
				"z": 0.1694582184,
				"element": "H" 
			},
			{
				"x": -3.5955357243,
				"y": 2.0990104622,
				"z": 0.7340000964,
				"element": "H" 
			},
			{
				"x": -4.3720628596,
				"y": 0.8953567619,
				"z": 1.7986164401,
				"element": "H" 
			},
			{
				"x": -0.7027836815,
				"y": -2.5679340058,
				"z": -0.4831906838,
				"element": "H" 
			},
			{
				"x": -3.1022757383,
				"y": -2.414162447,
				"z": 1.4284809402,
				"element": "H" 
			},
			{
				"x": -1.8385691939,
				"y": -3.6626666704,
				"z": 1.4410274631,
				"element": "H" 
			},
			{
				"x": -1.4367037235,
				"y": -1.9865172967,
				"z": 1.8525428159,
				"element": "H" 
			},
			{
				"x": -2.3923609885,
				"y": -2.9213591371,
				"z": -2.2560746715,
				"element": "H" 
			},
			{
				"x": -3.6963231633,
				"y": -2.8948672237,
				"z": -1.0509614186,
				"element": "H" 
			},
			{
				"x": -2.5127434772,
				"y": -4.2169742634,
				"z": -1.0452322415,
				"element": "H" 
			},
			{
				"x": 1.9991481967,
				"y": 1.1726265824,
				"z": -1.2252132462,
				"element": "H" 
			},
			{
				"x": 2.801125725,
				"y": 2.9045156212,
				"z": 0.1632808525,
				"element": "H" 
			},
			{
				"x": 1.1601678319,
				"y": 3.7645708466,
				"z": 2.5947156502,
				"element": "H" 
			},
			{
				"x": 2.2655233243,
				"y": 5.3145553817,
				"z": 3.6187729185,
				"element": "H" 
			},
			{
				"x": -0.5035591688,
				"y": 2.3778502109,
				"z": 2.0868140491,
				"element": "H" 
			}
		],
		 "valence_orbital": [ 
			{
				"type": "occ",
				"energy": -0.29355,
				"method": "rhf"
			},
			{
				"type": "occ",
				"energy": -0.28065,
				"method": "rhf"
			},
			{
				"type": "occ",
				"energy": -0.26982,
				"method": "rhf"
			},
			{
				"type": "occ",
				"energy": -0.25333,
				"method": "rhf"
			},
			{
				"type": "occ",
				"energy": -0.2362,
				"method": "rhf"
			},
			{
				"type": "unocc",
				"energy": -0.07504,
				"method": "rhf"
			},
			{
				"type": "unocc",
				"energy": -0.02112,
				"method": "rhf"
			},
			{
				"type": "unocc",
				"energy": 0.01086,
				"method": "rhf"
			},
			{
				"type": "unocc",
				"energy": 0.01912,
				"method": "rhf"
			},
			{
				"type": "unocc",
				"energy": 0.05695,
				"method": "rhf"
			}
		],
		"cosmo_sigma_profile": { 
			"-0.025": 0.0,
			"-0.024": 0.0,
			"-0.023": 0.0,
			"-0.022": 0.0,
			"-0.021": 0.0,
			"-0.02": 0.0138841484018,
			"-0.019": 0.815610561392,
			"-0.018": 1.29700033648,
			"-0.017": 1.22169104243,
			"-0.016": 1.18071845929,
			"-0.015": 1.08126882241,
			"-0.014": 0.738577972098,
			"-0.013": 0.65133588893,
			"-0.012": 1.24454569986,
			"-0.011": 1.22295296256,
			"-0.01": 2.0392556391,
			"-0.009": 2.96865112555,
			"-0.008": 5.05786211506,
			"-0.007": 4.50500021967,
			"-0.006": 5.97302796159,
			"-0.005": 10.1102198982,
			"-0.004": 20.2706976333,
			"-0.003": 30.7592609188,
			"-0.002": 27.8049714373,
			"-0.001": 26.5854127333,
			"0.0": 32.6754496842,
			"0.001": 31.1128368803,
			"0.002": 28.1041999245,
			"0.003": 13.6963491503,
			"0.004": 13.011592561,
			"0.005": 7.63637896006,
			"0.006": 5.85895319251,
			"0.007": 4.64342379456,
			"0.008": 3.54664420847,
			"0.009": 5.54740955731,
			"0.01": 5.0419110383,
			"0.011": 5.992530194,
			"0.012": 6.0888214429,
			"0.013": 2.9881096216,
			"0.014": 0.511276944265,
			"0.015": 0.0,
			"0.016": 0.0,
			"0.017": 0.0,
			"0.018": 0.0,
			"0.019": 0.0,
			"0.02": 0.0,
			"0.021": 0.0,
			"0.022": 0.0,
			"0.023": 0.0,
			"0.024": 0.0,
			"0.025": 0.0
		}
	}
}
