{
	 "smiles": "NC1=CC=C(C=C1)C1=CC=CC=C1", 
	 "Tm": 326.65, 
	 "num_atms": 24, 
	 "gaussian": { 
		 "optdone": 1, 
		 "sigma_profile": "yes", 
		 "theory": "DFT", 
		 "functional": "B3LYP", 
		 "basiset": "6-31G**", 
		 "properties": { 
			 "R2extent": 3098.0755, 
			 "electric_dipole_moment_norm": 2.15187044452, 
			 "electric_quadrupole_moment_norm": 14.0790744646, 
			 "total_energy": -518.669478656, 
			 "HOMO_LUMO_gap": 0.17848, 
			 "cosmo_polarized_energy": -9.8, 
			 "cosmo_cavitation_energy": 27.55, 
			 "cosmo_dispersion_energy": -20.45, 
			 "cosmo_repulsion_energy": 1.6, 
			 "cosmo_total_nonelectrostatic_energy": 8.7, 
			 "SMD_solvation_energy": 4.41 
		},
		"coords": [
			{
				"x": 1.1937829494,
				"y": 4.1323664278,
				"z": 0.4912821268,
				"element": "N" 
			},
			{
				"x": 0.6770288034,
				"y": 2.8513225188,
				"z": 0.2902461848,
				"element": "C" 
			},
			{
				"x": -0.524832934,
				"y": 2.6589711064,
				"z": -0.4123138882,
				"element": "C" 
			},
			{
				"x": -1.0054749726,
				"y": 1.3778738595,
				"z": -0.6591824375,
				"element": "C" 
			},
			{
				"x": -0.3177763333,
				"y": 0.2333694069,
				"z": -0.2203104299,
				"element": "C" 
			},
			{
				"x": 0.8829759958,
				"y": 0.4378718302,
				"z": 0.4809730342,
				"element": "C" 
			},
			{
				"x": 1.3738144337,
				"y": 1.7140167598,
				"z": 0.7332406267,
				"element": "C" 
			},
			{
				"x": -0.8375220858,
				"y": -1.1303131947,
				"z": -0.4842863915,
				"element": "C" 
			},
			{
				"x": -1.4907014912,
				"y": -1.4369425873,
				"z": -1.6915109921,
				"element": "C" 
			},
			{
				"x": -1.982699162,
				"y": -2.7177079281,
				"z": -1.9388667188,
				"element": "C" 
			},
			{
				"x": -1.828366446,
				"y": -3.7280269448,
				"z": -0.9875991719,
				"element": "C" 
			},
			{
				"x": -1.1792886412,
				"y": -3.4414857983,
				"z": 0.2149262545,
				"element": "C" 
			},
			{
				"x": -0.6935512765,
				"y": -2.1587140184,
				"z": 0.4642400231,
				"element": "C" 
			},
			{
				"x": 0.5127456873,
				"y": 4.8788871403,
				"z": 0.4682990192,
				"element": "H" 
			},
			{
				"x": 1.8251401714,
				"y": 4.2230925152,
				"z": 1.2753875177,
				"element": "H" 
			},
			{
				"x": -1.0864114577,
				"y": 3.5231204501,
				"z": -0.7596057576,
				"element": "H" 
			},
			{
				"x": -1.9519617314,
				"y": 1.2643182383,
				"z": -1.1799420156,
				"element": "H" 
			},
			{
				"x": 1.4581017858,
				"y": -0.4207052247,
				"z": 0.8156252384,
				"element": "H" 
			},
			{
				"x": 2.3143054496,
				"y": 1.8360548356,
				"z": 1.2654486403,
				"element": "H" 
			},
			{
				"x": -1.5895428338,
				"y": -0.6688272457,
				"z": -2.4530774222,
				"element": "H" 
			},
			{
				"x": -2.4778840183,
				"y": -2.9296581714,
				"z": -2.8826332712,
				"element": "H" 
			},
			{
				"x": -2.2091722445,
				"y": -4.7266909673,
				"z": -1.1811430875,
				"element": "H" 
			},
			{
				"x": -1.0602047808,
				"y": -4.2164193772,
				"z": 0.9673499575,
				"element": "H" 
			},
			{
				"x": -0.2183048673,
				"y": -1.9417736313,
				"z": 1.4165529608,
				"element": "H" 
			}
		],
		 "valence_orbital": [ 
			{
				"type": "occ",
				"energy": -0.30777,
				"method": "rhf"
			},
			{
				"type": "occ",
				"energy": -0.2464,
				"method": "rhf"
			},
			{
				"type": "occ",
				"energy": -0.24514,
				"method": "rhf"
			},
			{
				"type": "occ",
				"energy": -0.24226,
				"method": "rhf"
			},
			{
				"type": "occ",
				"energy": -0.19148,
				"method": "rhf"
			},
			{
				"type": "unocc",
				"energy": -0.013,
				"method": "rhf"
			},
			{
				"type": "unocc",
				"energy": 0.00224,
				"method": "rhf"
			},
			{
				"type": "unocc",
				"energy": 0.00773,
				"method": "rhf"
			},
			{
				"type": "unocc",
				"energy": 0.04434,
				"method": "rhf"
			},
			{
				"type": "unocc",
				"energy": 0.08153,
				"method": "rhf"
			}
		],
		"cosmo_sigma_profile": { 
			"-0.025": 0.0,
			"-0.024": 0.0,
			"-0.023": 0.0,
			"-0.022": 0.0,
			"-0.021": 0.0,
			"-0.02": 0.0,
			"-0.019": 0.0,
			"-0.018": 0.0,
			"-0.017": 0.0,
			"-0.016": 0.0,
			"-0.015": 0.0,
			"-0.014": 0.0,
			"-0.013": 0.238905079075,
			"-0.012": 2.65493859853,
			"-0.011": 2.36304924714,
			"-0.01": 3.04413819857,
			"-0.009": 3.14143643379,
			"-0.008": 3.20072960392,
			"-0.007": 2.92028649404,
			"-0.006": 5.86653073756,
			"-0.005": 17.0347464167,
			"-0.004": 19.4264936647,
			"-0.003": 19.8872806848,
			"-0.002": 13.4568099816,
			"-0.001": 11.9770714131,
			"0.0": 11.6028360098,
			"0.001": 10.5399628691,
			"0.002": 12.019564316,
			"0.003": 14.0401143324,
			"0.004": 15.5920893253,
			"0.005": 18.3238328807,
			"0.006": 19.7686845947,
			"0.007": 7.65674041557,
			"0.008": 0.812058087065,
			"0.009": 0.454273443685,
			"0.01": 0.773189705941,
			"0.011": 0.932896374557,
			"0.012": 0.780490821842,
			"0.013": 0.603697078108,
			"0.014": 0.483047619693,
			"0.015": 0.217367271187,
			"0.016": 0.0,
			"0.017": 0.0,
			"0.018": 0.0,
			"0.019": 0.0,
			"0.02": 0.0,
			"0.021": 0.0,
			"0.022": 0.0,
			"0.023": 0.0,
			"0.024": 0.0,
			"0.025": 0.0
		}
	}
}
