{
	 "smiles": "CN(C(=O)CCl)C1=CC=CC=C1", 
	 "Tm": 333.65, 
	 "num_atms": 22, 
	 "gaussian": { 
		 "optdone": 1, 
		 "sigma_profile": "yes", 
		 "theory": "DFT", 
		 "functional": "B3LYP", 
		 "basiset": "6-31G**", 
		 "properties": { 
			 "R2extent": 3749.6306, 
			 "electric_dipole_moment_norm": 3.3498851846, 
			 "electric_quadrupole_moment_norm": 12.0278667257, 
			 "total_energy": -939.154602826, 
			 "HOMO_LUMO_gap": 0.19411, 
			 "cosmo_polarized_energy": -11.39, 
			 "cosmo_cavitation_energy": 26.96, 
			 "cosmo_dispersion_energy": -19.74, 
			 "cosmo_repulsion_energy": 1.57, 
			 "cosmo_total_nonelectrostatic_energy": 8.79, 
			 "SMD_solvation_energy": 4.88 
		},
		"coords": [
			{
				"x": 1.5082714265,
				"y": 0.0779690629,
				"z": -0.0173861722,
				"element": "C" 
			},
			{
				"x": 0.6734287416,
				"y": 0.7108274644,
				"z": -1.0450767705,
				"element": "N" 
			},
			{
				"x": 1.1991429331,
				"y": 1.1608208995,
				"z": -2.2399292008,
				"element": "C" 
			},
			{
				"x": 0.5256677207,
				"y": 1.6140104925,
				"z": -3.1538228856,
				"element": "O" 
			},
			{
				"x": 2.7170408975,
				"y": 1.058684645,
				"z": -2.4316214449,
				"element": "C" 
			},
			{
				"x": 3.6149096163,
				"y": 2.3609078983,
				"z": -1.5337795046,
				"element": "Cl" 
			},
			{
				"x": -0.74478968,
				"y": 0.7171086414,
				"z": -0.8328745991,
				"element": "C" 
			},
			{
				"x": -1.3550326491,
				"y": -0.3863473615,
				"z": -0.2218862136,
				"element": "C" 
			},
			{
				"x": -2.7269113671,
				"y": -0.3808851335,
				"z": 0.0334735773,
				"element": "C" 
			},
			{
				"x": -3.5048405709,
				"y": 0.7192530302,
				"z": -0.3243866367,
				"element": "C" 
			},
			{
				"x": -2.8965530886,
				"y": 1.8167496583,
				"z": -0.9377450272,
				"element": "C" 
			},
			{
				"x": -1.5264627441,
				"y": 1.8248319185,
				"z": -1.1904937598,
				"element": "C" 
			},
			{
				"x": 1.6658777197,
				"y": -0.992068965,
				"z": -0.2040631575,
				"element": "H" 
			},
			{
				"x": 1.0132194717,
				"y": 0.1891829584,
				"z": 0.9480977714,
				"element": "H" 
			},
			{
				"x": 2.4751288913,
				"y": 0.5757489079,
				"z": 0.0490288961,
				"element": "H" 
			},
			{
				"x": 3.1411781167,
				"y": 0.1049569676,
				"z": -2.1154146184,
				"element": "H" 
			},
			{
				"x": 2.9060202484,
				"y": 1.2235093687,
				"z": -3.4895510277,
				"element": "H" 
			},
			{
				"x": -0.7650277369,
				"y": -1.2565848323,
				"z": 0.0463936761,
				"element": "H" 
			},
			{
				"x": -3.1842320433,
				"y": -1.244618457,
				"z": 0.507401832,
				"element": "H" 
			},
			{
				"x": -4.5728476079,
				"y": 0.7226874169,
				"z": -0.1284951486,
				"element": "H" 
			},
			{
				"x": -3.4909739884,
				"y": 2.6814157861,
				"z": -1.2183730849,
				"element": "H" 
			},
			{
				"x": -1.0636143074,
				"y": 2.6769396327,
				"z": -1.6693965007,
				"element": "H" 
			}
		],
		 "valence_orbital": [ 
			{
				"type": "occ",
				"energy": -0.3087,
				"method": "rhf"
			},
			{
				"type": "occ",
				"energy": -0.28709,
				"method": "rhf"
			},
			{
				"type": "occ",
				"energy": -0.26247,
				"method": "rhf"
			},
			{
				"type": "occ",
				"energy": -0.24974,
				"method": "rhf"
			},
			{
				"type": "occ",
				"energy": -0.22732,
				"method": "rhf"
			},
			{
				"type": "unocc",
				"energy": -0.03321,
				"method": "rhf"
			},
			{
				"type": "unocc",
				"energy": -0.00322,
				"method": "rhf"
			},
			{
				"type": "unocc",
				"energy": 0.00429,
				"method": "rhf"
			},
			{
				"type": "unocc",
				"energy": 0.05227,
				"method": "rhf"
			},
			{
				"type": "unocc",
				"energy": 0.08156,
				"method": "rhf"
			}
		],
		"cosmo_sigma_profile": { 
			"-0.025": 0.0,
			"-0.024": 0.0,
			"-0.023": 0.0,
			"-0.022": 0.0,
			"-0.021": 0.0,
			"-0.02": 0.0,
			"-0.019": 0.0,
			"-0.018": 0.0,
			"-0.017": 0.0,
			"-0.016": 0.0,
			"-0.015": 0.0,
			"-0.014": 0.0,
			"-0.013": 0.0,
			"-0.012": 0.0,
			"-0.011": 0.0,
			"-0.01": 0.0,
			"-0.009": 2.07989235215,
			"-0.008": 5.11489811433,
			"-0.007": 5.68265920472,
			"-0.006": 15.0399718742,
			"-0.005": 19.2840466351,
			"-0.004": 20.5004803917,
			"-0.003": 16.5425647529,
			"-0.002": 11.6474511813,
			"-0.001": 12.7655371891,
			"0.0": 11.410431853,
			"0.001": 13.6298816333,
			"0.002": 13.0237984854,
			"0.003": 12.7353152208,
			"0.004": 15.3338571545,
			"0.005": 17.6123080755,
			"0.006": 8.11698509219,
			"0.007": 2.11552209969,
			"0.008": 1.2689601979,
			"0.009": 1.55116906605,
			"0.01": 1.53355071641,
			"0.011": 2.31912022389,
			"0.012": 3.42333594938,
			"0.013": 3.89972739024,
			"0.014": 0.348599246378,
			"0.015": 0.0,
			"0.016": 0.0,
			"0.017": 0.0,
			"0.018": 0.0,
			"0.019": 0.0,
			"0.02": 0.0,
			"0.021": 0.0,
			"0.022": 0.0,
			"0.023": 0.0,
			"0.024": 0.0,
			"0.0": 0.0
		}
	}
}
