{
	 "smiles": "COC1=C(F)C=C(F)C=N1", 
	 "Tm": 311.15, 
	 "num_atms": 15, 
	 "gaussian": { 
		 "optdone": 1, 
		 "sigma_profile": "yes", 
		 "theory": "DFT", 
		 "functional": "B3LYP", 
		 "basiset": "6-31G**", 
		 "properties": { 
			 "R2extent": 2015.1804, 
			 "electric_dipole_moment_norm": 0.727839831282, 
			 "electric_quadrupole_moment_norm": 6.99943923111, 
			 "total_energy": -561.274518393, 
			 "HOMO_LUMO_gap": 0.19855, 
			 "cosmo_polarized_energy": -5.06, 
			 "cosmo_cavitation_energy": 20.61, 
			 "cosmo_dispersion_energy": -15.12, 
			 "cosmo_repulsion_energy": 1.19, 
			 "cosmo_total_nonelectrostatic_energy": 6.68, 
			 "SMD_solvation_energy": 4.73 
		},
		"coords": [
			{
				"x": -4.0021226613,
				"y": -0.2288551815,
				"z": -0.4412162727,
				"element": "C" 
			},
			{
				"x": -2.9693963043,
				"y": -0.9952924726,
				"z": 0.1857785558,
				"element": "O" 
			},
			{
				"x": -1.8710910975,
				"y": -0.3205344044,
				"z": 0.5792568037,
				"element": "C" 
			},
			{
				"x": -0.8465518728,
				"y": -1.0693795034,
				"z": 1.1990695454,
				"element": "C" 
			},
			{
				"x": -1.001805999,
				"y": -2.390955223,
				"z": 1.3681586126,
				"element": "F" 
			},
			{
				"x": 0.3032032247,
				"y": -0.4381384834,
				"z": 1.6249038251,
				"element": "C" 
			},
			{
				"x": 0.3898067881,
				"y": 0.9404208041,
				"z": 1.4129858435,
				"element": "C" 
			},
			{
				"x": 1.4927965298,
				"y": 1.6034053907,
				"z": 1.811026904,
				"element": "F" 
			},
			{
				"x": -0.6484124508,
				"y": 1.6186646093,
				"z": 0.7995731156,
				"element": "C" 
			},
			{
				"x": -1.761442704,
				"y": 0.9845317948,
				"z": 0.3915953853,
				"element": "N" 
			},
			{
				"x": -4.3832356202,
				"y": 0.5442526461,
				"z": 0.2324785414,
				"element": "H" 
			},
			{
				"x": -3.6366963223,
				"y": 0.2534799516,
				"z": -1.3526030165,
				"element": "H" 
			},
			{
				"x": -4.7875882635,
				"y": -0.9465496607,
				"z": -0.6795001487,
				"element": "H" 
			},
			{
				"x": 1.1021610697,
				"y": -0.9926101144,
				"z": 2.1028764257,
				"element": "H" 
			},
			{
				"x": -0.5855243167,
				"y": 2.6901598469,
				"z": 0.6327158798,
				"element": "H" 
			}
		],
		 "valence_orbital": [ 
			{
				"type": "occ",
				"energy": -0.35361,
				"method": "rhf"
			},
			{
				"type": "occ",
				"energy": -0.33066,
				"method": "rhf"
			},
			{
				"type": "occ",
				"energy": -0.29162,
				"method": "rhf"
			},
			{
				"type": "occ",
				"energy": -0.28224,
				"method": "rhf"
			},
			{
				"type": "occ",
				"energy": -0.23156,
				"method": "rhf"
			},
			{
				"type": "unocc",
				"energy": -0.03301,
				"method": "rhf"
			},
			{
				"type": "unocc",
				"energy": -0.00046,
				"method": "rhf"
			},
			{
				"type": "unocc",
				"energy": 0.08063,
				"method": "rhf"
			},
			{
				"type": "unocc",
				"energy": 0.11186,
				"method": "rhf"
			},
			{
				"type": "unocc",
				"energy": 0.12355,
				"method": "rhf"
			}
		],
		"cosmo_sigma_profile": { 
			"-0.025": 0.0,
			"-0.024": 0.0,
			"-0.023": 0.0,
			"-0.022": 0.0,
			"-0.021": 0.0,
			"-0.02": 0.0,
			"-0.019": 0.0,
			"-0.018": 0.0,
			"-0.017": 0.0,
			"-0.016": 0.0,
			"-0.015": 0.0,
			"-0.014": 0.0,
			"-0.013": 0.0,
			"-0.012": 0.0,
			"-0.011": 0.0,
			"-0.01": 0.597079756223,
			"-0.009": 1.97804558902,
			"-0.008": 2.67234584806,
			"-0.007": 3.547884631,
			"-0.006": 5.41250859509,
			"-0.005": 9.1680814552,
			"-0.004": 10.078524764,
			"-0.003": 12.1471193339,
			"-0.002": 14.4155912071,
			"-0.001": 20.0897583939,
			"0.0": 16.7254307075,
			"0.001": 9.60143580299,
			"0.002": 9.03392557649,
			"0.003": 15.2344066892,
			"0.004": 16.7979827619,
			"0.005": 3.46527221408,
			"0.006": 3.24002874436,
			"0.007": 3.86405517894,
			"0.008": 2.62455308695,
			"0.009": 2.43460455887,
			"0.01": 1.38487590031,
			"0.011": 0.595095636884,
			"0.012": 0.571013685095,
			"0.013": 0.0,
			"0.014": 0.0,
			"0.015": 0.0,
			"0.016": 0.0,
			"0.017": 0.0,
			"0.018": 0.0,
			"0.019": 0.0,
			"0.02": 0.0,
			"0.021": 0.0,
			"0.022": 0.0,
			"0.023": 0.0,
			"0.024": 0.0,
			"0.025": 0.0
		}
	}
}
