{
	 "smiles": "OC1=NC=CC(Cl)=C1", 
	 "Tm": 451.15, 
	 "num_atms": 12, 
	 "gaussian": { 
		 "optdone": 1, 
		 "sigma_profile": "yes", 
		 "theory": "DFT", 
		 "functional": "B3LYP", 
		 "basiset": "6-31G**", 
		 "properties": { 
			 "R2extent": 1189.4631, 
			 "electric_dipole_moment_norm": 1.70521267295, 
			 "electric_quadrupole_moment_norm": 14.7059787291, 
			 "total_energy": -783.102826374, 
			 "HOMO_LUMO_gap": 0.21503, 
			 "cosmo_polarized_energy": -11.51, 
			 "cosmo_cavitation_energy": 18.3, 
			 "cosmo_dispersion_energy": -14.05, 
			 "cosmo_repulsion_energy": 1.17, 
			 "cosmo_total_nonelectrostatic_energy": 5.42, 
			 "SMD_solvation_energy": 1.94 
		},
		"coords": [
			{
				"x": -1.9055653701,
				"y": 1.7226541673,
				"z": 0.4089593641,
				"element": "O" 
			},
			{
				"x": -0.6980332599,
				"y": 1.1124461648,
				"z": 0.3230833901,
				"element": "C" 
			},
			{
				"x": 0.3199423327,
				"y": 1.8362341064,
				"z": 0.7784866199,
				"element": "N" 
			},
			{
				"x": 1.5372577254,
				"y": 1.2867046345,
				"z": 0.7198669211,
				"element": "C" 
			},
			{
				"x": 1.8085440033,
				"y": 0.0152767316,
				"z": 0.2170194312,
				"element": "C" 
			},
			{
				"x": 0.7186697563,
				"y": -0.7175642298,
				"z": -0.252596577,
				"element": "C" 
			},
			{
				"x": 0.9580386054,
				"y": -2.3258336649,
				"z": -0.9035922703,
				"element": "Cl" 
			},
			{
				"x": -0.5618782287,
				"y": -0.182194655,
				"z": -0.2091293215,
				"element": "C" 
			},
			{
				"x": -2.5893576209,
				"y": 1.1360004978,
				"z": 0.0601628798,
				"element": "H" 
			},
			{
				"x": 2.3527413929,
				"y": 1.8998347844,
				"z": 1.0988869486,
				"element": "H" 
			},
			{
				"x": 2.8146569323,
				"y": -0.3839768492,
				"z": 0.191979661,
				"element": "H" 
			},
			{
				"x": -1.4147162686,
				"y": -0.7458816879,
				"z": -0.5724270471,
				"element": "H" 
			}
		],
		 "valence_orbital": [ 
			{
				"type": "occ",
				"energy": -0.34344,
				"method": "rhf"
			},
			{
				"type": "occ",
				"energy": -0.32595,
				"method": "rhf"
			},
			{
				"type": "occ",
				"energy": -0.27914,
				"method": "rhf"
			},
			{
				"type": "occ",
				"energy": -0.27286,
				"method": "rhf"
			},
			{
				"type": "occ",
				"energy": -0.25016,
				"method": "rhf"
			},
			{
				"type": "unocc",
				"energy": -0.03513,
				"method": "rhf"
			},
			{
				"type": "unocc",
				"energy": -0.01088,
				"method": "rhf"
			},
			{
				"type": "unocc",
				"energy": 0.01707,
				"method": "rhf"
			},
			{
				"type": "unocc",
				"energy": 0.05923,
				"method": "rhf"
			},
			{
				"type": "unocc",
				"energy": 0.12747,
				"method": "rhf"
			}
		],
		"cosmo_sigma_profile": { 
			"-0.025": 0.0,
			"-0.024": 0.0,
			"-0.023": 0.0,
			"-0.022": 0.0,
			"-0.021": 0.0,
			"-0.02": 0.0,
			"-0.019": 0.633427842188,
			"-0.018": 1.49391317049,
			"-0.017": 1.26464361894,
			"-0.016": 0.718905704438,
			"-0.015": 1.42339510781,
			"-0.014": 0.794946289306,
			"-0.013": 0.840286488084,
			"-0.012": 1.53957526293,
			"-0.011": 1.08094672387,
			"-0.01": 0.723175202694,
			"-0.009": 1.72910106885,
			"-0.008": 2.71300207053,
			"-0.007": 6.04190721637,
			"-0.006": 5.84957467026,
			"-0.005": 5.12506605443,
			"-0.004": 4.19410795603,
			"-0.003": 6.04044251938,
			"-0.002": 6.15389037008,
			"-0.001": 8.78767318171,
			"0.0": 16.4756420362,
			"0.001": 18.7222588726,
			"0.002": 12.3034204505,
			"0.003": 10.2124037922,
			"0.004": 11.2966748751,
			"0.005": 2.05251738722,
			"0.006": 1.98184835114,
			"0.007": 2.85107553648,
			"0.008": 1.55992891121,
			"0.009": 2.31469952813,
			"0.01": 2.64255241228,
			"0.011": 2.49077512063,
			"0.012": 2.53714318131,
			"0.013": 1.82474655792,
			"0.014": 1.2492278111,
			"0.015": 1.10409095129,
			"0.016": 0.582565777408,
			"0.017": 0.0,
			"0.018": 0.0,
			"0.019": 0.0,
			"0.02": 0.0,
			"0.021": 0.0,
			"0.022": 0.0,
			"0.023": 0.0,
			"0.024": 0.0,
			"0.025": 0.0
		}
	}
}
