{
	 "smiles": "NNC1=NN=C(C=C1)C1=CC=CC=C1", 
	 "Tm": 418.15, 
	 "num_atms": 24, 
	 "gaussian": { 
		 "optdone": 1, 
		 "sigma_profile": "yes", 
		 "theory": "DFT", 
		 "functional": "B3LYP", 
		 "basiset": "6-31G**", 
		 "properties": { 
			 "R2extent": 4403.9475, 
			 "electric_dipole_moment_norm": 3.00087572052, 
			 "electric_quadrupole_moment_norm": 9.46993201296, 
			 "total_energy": -606.033464717, 
			 "HOMO_LUMO_gap": 0.1658, 
			 "cosmo_polarized_energy": -15.24, 
			 "cosmo_cavitation_energy": 28.33, 
			 "cosmo_dispersion_energy": -21.27, 
			 "cosmo_repulsion_energy": 1.66, 
			 "cosmo_total_nonelectrostatic_energy": 8.73, 
			 "SMD_solvation_energy": 3.67 
		},
		"coords": [
			{
				"x": -2.955518489,
				"y": 2.5025793595,
				"z": 1.4690273581,
				"element": "N" 
			},
			{
				"x": -3.0953222462,
				"y": 1.0987793577,
				"z": 1.5476817263,
				"element": "N" 
			},
			{
				"x": -2.0133432495,
				"y": 0.2639560495,
				"z": 1.3552766202,
				"element": "C" 
			},
			{
				"x": -0.8000678738,
				"y": 0.8348056299,
				"z": 1.3387154469,
				"element": "N" 
			},
			{
				"x": 0.287234591,
				"y": 0.083279516,
				"z": 1.184420447,
				"element": "N" 
			},
			{
				"x": 0.2013091053,
				"y": -1.2444881273,
				"z": 1.0448260638,
				"element": "C" 
			},
			{
				"x": -1.0574725979,
				"y": -1.8933247245,
				"z": 1.0663949404,
				"element": "C" 
			},
			{
				"x": -2.1887050519,
				"y": -1.1321428204,
				"z": 1.2174393882,
				"element": "C" 
			},
			{
				"x": 1.4808726853,
				"y": -1.9800945856,
				"z": 0.8831535953,
				"element": "C" 
			},
			{
				"x": 2.688861583,
				"y": -1.3793865699,
				"z": 1.2782914708,
				"element": "C" 
			},
			{
				"x": 3.8974382895,
				"y": -2.0560701305,
				"z": 1.1375730538,
				"element": "C" 
			},
			{
				"x": 3.9278644496,
				"y": -3.344987353,
				"z": 0.5985851015,
				"element": "C" 
			},
			{
				"x": 2.7362841795,
				"y": -3.9484211865,
				"z": 0.1949355955,
				"element": "C" 
			},
			{
				"x": 1.5245357222,
				"y": -3.2720248053,
				"z": 0.3340070142,
				"element": "C" 
			},
			{
				"x": -2.2073909326,
				"y": 2.7056331666,
				"z": 0.8034545509,
				"element": "H" 
			},
			{
				"x": -2.5964361876,
				"y": 2.8177117963,
				"z": 2.3691356376,
				"element": "H" 
			},
			{
				"x": -3.9845420066,
				"y": 0.7752648686,
				"z": 1.1936193286,
				"element": "H" 
			},
			{
				"x": -1.1283451552,
				"y": -2.9725195141,
				"z": 0.9863914074,
				"element": "H" 
			},
			{
				"x": -3.1795954005,
				"y": -1.576664487,
				"z": 1.2519307096,
				"element": "H" 
			},
			{
				"x": 2.6569985716,
				"y": -0.3783007089,
				"z": 1.6927499024,
				"element": "H" 
			},
			{
				"x": 4.8200703946,
				"y": -1.57710923,
				"z": 1.4532863427,
				"element": "H" 
			},
			{
				"x": 4.8715209021,
				"y": -3.8720547917,
				"z": 0.491153718,
				"element": "H" 
			},
			{
				"x": 2.7482374334,
				"y": -4.9451755372,
				"z": -0.2369148773,
				"element": "H" 
			},
			{
				"x": 0.613511284,
				"y": -3.7509451723,
				"z": -0.0121345418,
				"element": "H" 
			}
		],
		 "valence_orbital": [ 
			{
				"type": "occ",
				"energy": -0.27698,
				"method": "rhf"
			},
			{
				"type": "occ",
				"energy": -0.25688,
				"method": "rhf"
			},
			{
				"type": "occ",
				"energy": -0.24875,
				"method": "rhf"
			},
			{
				"type": "occ",
				"energy": -0.22533,
				"method": "rhf"
			},
			{
				"type": "occ",
				"energy": -0.21287,
				"method": "rhf"
			},
			{
				"type": "unocc",
				"energy": -0.04707,
				"method": "rhf"
			},
			{
				"type": "unocc",
				"energy": -0.03208,
				"method": "rhf"
			},
			{
				"type": "unocc",
				"energy": 0.00239,
				"method": "rhf"
			},
			{
				"type": "unocc",
				"energy": 0.03317,
				"method": "rhf"
			},
			{
				"type": "unocc",
				"energy": 0.08386,
				"method": "rhf"
			}
		],
		"cosmo_sigma_profile": { 
			"-0.025": 0.0,
			"-0.024": 0.0,
			"-0.023": 0.0,
			"-0.022": 0.0,
			"-0.021": 0.0,
			"-0.02": 0.0,
			"-0.019": 0.0,
			"-0.018": 0.0,
			"-0.017": 0.0,
			"-0.016": 0.0,
			"-0.015": 0.0,
			"-0.014": 1.00291102466,
			"-0.013": 1.65626869217,
			"-0.012": 1.36129683011,
			"-0.011": 2.50424353742,
			"-0.01": 2.15013132496,
			"-0.009": 4.99295301467,
			"-0.008": 7.41561718534,
			"-0.007": 7.65309589663,
			"-0.006": 10.4944024116,
			"-0.005": 13.3489316942,
			"-0.004": 15.1070896833,
			"-0.003": 14.6256970232,
			"-0.002": 11.4869158407,
			"-0.001": 11.5367406186,
			"0.0": 17.7819329923,
			"0.001": 16.7365569423,
			"0.002": 14.0846757325,
			"0.003": 12.4789143972,
			"0.004": 13.2817335711,
			"0.005": 15.5944988113,
			"0.006": 7.35950339649,
			"0.007": 3.05850834977,
			"0.008": 2.62607485833,
			"0.009": 2.2371854679,
			"0.01": 2.49158896967,
			"0.011": 2.81889081723,
			"0.012": 2.03791636024,
			"0.013": 2.11486476995,
			"0.014": 3.32388744825,
			"0.015": 2.32669050623,
			"0.016": 0.491723099556,
			"0.017": 0.415208183352,
			"0.018": 0.0205981647083,
			"0.019": 0.0,
			"0.02": 0.0,
			"0.021": 0.0,
			"0.022": 0.0,
			"0.023": 0.0,
			"0.024": 0.0,
			"0.025": 0.0
		}
	}
}
