{
	 "smiles": "ClC1=C2C=CC=CC2=C2C=CC=CC2=C1", 
	 "Tm": 321.15, 
	 "num_atms": 24, 
	 "gaussian": { 
		 "optdone": 1, 
		 "sigma_profile": "yes", 
		 "theory": "DFT", 
		 "functional": "B3LYP", 
		 "basiset": "6-31G**", 
		 "properties": { 
			 "R2extent": 3732.1872, 
			 "electric_dipole_moment_norm": 1.95715020374, 
			 "electric_quadrupole_moment_norm": 12.4539193586, 
			 "total_energy": -999.132150421, 
			 "HOMO_LUMO_gap": 0.16939, 
			 "cosmo_polarized_energy": -5.71, 
			 "cosmo_cavitation_energy": 28.79, 
			 "cosmo_dispersion_energy": -21.87, 
			 "cosmo_repulsion_energy": 1.64, 
			 "cosmo_total_nonelectrostatic_energy": 8.56, 
			 "SMD_solvation_energy": 4.06 
		},
		"coords": [
			{
				"x": -1.3859982825,
				"y": 1.6641506308,
				"z": -2.6429099794,
				"element": "Cl" 
			},
			{
				"x": -1.0981971229,
				"y": 0.7497825864,
				"z": -1.163372092,
				"element": "C" 
			},
			{
				"x": -0.8563041669,
				"y": -0.6693648745,
				"z": -1.2432685398,
				"element": "C" 
			},
			{
				"x": -0.8396380916,
				"y": -1.3688398611,
				"z": -2.4718320499,
				"element": "C" 
			},
			{
				"x": -0.60480828,
				"y": -2.7290139156,
				"z": -2.5138607248,
				"element": "C" 
			},
			{
				"x": -0.377872775,
				"y": -3.4366740379,
				"z": -1.320839332,
				"element": "C" 
			},
			{
				"x": -0.3895986698,
				"y": -2.77345996,
				"z": -0.1083012706,
				"element": "C" 
			},
			{
				"x": -0.6262989991,
				"y": -1.381269242,
				"z": -0.0230908716,
				"element": "C" 
			},
			{
				"x": -0.6409190372,
				"y": -0.6718280185,
				"z": 1.2500545247,
				"element": "C" 
			},
			{
				"x": -0.4221929665,
				"y": -1.3073638448,
				"z": 2.4948858224,
				"element": "C" 
			},
			{
				"x": -0.4445463894,
				"y": -0.5965143713,
				"z": 3.681433309,
				"element": "C" 
			},
			{
				"x": -0.6879430765,
				"y": 0.7897998559,
				"z": 3.6775870567,
				"element": "C" 
			},
			{
				"x": -0.9052179346,
				"y": 1.4399138144,
				"z": 2.4792733603,
				"element": "C" 
			},
			{
				"x": -0.886580447,
				"y": 0.7315863346,
				"z": 1.2546933835,
				"element": "C" 
			},
			{
				"x": -1.1136718722,
				"y": 1.4192244775,
				"z": 0.018852849,
				"element": "C" 
			},
			{
				"x": -1.0151911253,
				"y": -0.8186400379,
				"z": -3.3885667153,
				"element": "H" 
			},
			{
				"x": -0.5959590864,
				"y": -3.2485384339,
				"z": -3.4673040282,
				"element": "H" 
			},
			{
				"x": -0.1927376579,
				"y": -4.5064256842,
				"z": -1.3488700606,
				"element": "H" 
			},
			{
				"x": -0.2117726185,
				"y": -3.3428995486,
				"z": 0.7965200024,
				"element": "H" 
			},
			{
				"x": -0.2319050369,
				"y": -2.3737914936,
				"z": 2.5335912262,
				"element": "H" 
			},
			{
				"x": -0.2729066007,
				"y": -1.113422688,
				"z": 4.6210102906,
				"element": "H" 
			},
			{
				"x": -0.7044137947,
				"y": 1.3430993229,
				"z": 4.6118191606,
				"element": "H" 
			},
			{
				"x": -1.0945282882,
				"y": 2.5099383598,
				"z": 2.4595136727,
				"element": "H" 
			},
			{
				"x": -1.29939768,
				"y": 2.4879506293,
				"z": 0.0381810062,
				"element": "H" 
			}
		],
		 "valence_orbital": [ 
			{
				"type": "occ",
				"energy": -0.30084,
				"method": "rhf"
			},
			{
				"type": "occ",
				"energy": -0.28667,
				"method": "rhf"
			},
			{
				"type": "occ",
				"energy": -0.26576,
				"method": "rhf"
			},
			{
				"type": "occ",
				"energy": -0.2299,
				"method": "rhf"
			},
			{
				"type": "occ",
				"energy": -0.21711,
				"method": "rhf"
			},
			{
				"type": "unocc",
				"energy": -0.04772,
				"method": "rhf"
			},
			{
				"type": "unocc",
				"energy": -0.03906,
				"method": "rhf"
			},
			{
				"type": "unocc",
				"energy": 0.00022,
				"method": "rhf"
			},
			{
				"type": "unocc",
				"energy": 0.03011,
				"method": "rhf"
			},
			{
				"type": "unocc",
				"energy": 0.03267,
				"method": "rhf"
			}
		],
		"cosmo_sigma_profile": { 
			"-0.025": 0.0,
			"-0.024": 0.0,
			"-0.023": 0.0,
			"-0.022": 0.0,
			"-0.021": 0.0,
			"-0.02": 0.0,
			"-0.019": 0.0,
			"-0.018": 0.0,
			"-0.017": 0.0,
			"-0.016": 0.0,
			"-0.015": 0.0,
			"-0.014": 0.0,
			"-0.013": 0.0,
			"-0.012": 0.0,
			"-0.011": 0.0,
			"-0.01": 0.0,
			"-0.009": 0.480843862197,
			"-0.008": 1.77656632155,
			"-0.007": 5.75164714016,
			"-0.006": 12.9859200193,
			"-0.005": 16.5585045958,
			"-0.004": 17.9631395912,
			"-0.003": 12.0758203577,
			"-0.002": 13.6949381887,
			"-0.001": 12.8358142643,
			"0.0": 13.4846535031,
			"0.001": 22.4907829706,
			"0.002": 30.0902617496,
			"0.003": 30.7902618392,
			"0.004": 28.312597303,
			"0.005": 15.2952813074,
			"0.006": 0.0491751321672,
			"0.007": 0.0,
			"0.008": 0.0,
			"0.009": 0.0,
			"0.01": 0.0,
			"0.011": 0.0,
			"0.012": 0.0,
			"0.013": 0.0,
			"0.014": 0.0,
			"0.015": 0.0,
			"0.016": 0.0,
			"0.017": 0.0,
			"0.018": 0.0,
			"0.019": 0.0,
			"0.02": 0.0,
			"0.021": 0.0,
			"0.022": 0.0,
			"0.023": 0.0,
			"0.024": 0.0,
			"0.025": 0.0
		}
	}
}
