{
	 "smiles": "CC1=C(NC(=O)CC#N)C=CC=C1", 
	 "Tm": 407.15, 
	 "num_atms": 23, 
	 "gaussian": { 
		 "optdone": 1, 
		 "sigma_profile": "yes", 
		 "theory": "DFT", 
		 "functional": "B3LYP", 
		 "basiset": "6-31G**", 
		 "properties": { 
			 "R2extent": 2330.3408, 
			 "electric_dipole_moment_norm": 4.10204831395, 
			 "electric_quadrupole_moment_norm": 11.7893524076, 
			 "total_energy": -571.814606859, 
			 "HOMO_LUMO_gap": 0.22608, 
			 "cosmo_polarized_energy": -15.29, 
			 "cosmo_cavitation_energy": 27.86, 
			 "cosmo_dispersion_energy": -18.8, 
			 "cosmo_repulsion_energy": 1.5, 
			 "cosmo_total_nonelectrostatic_energy": 10.56, 
			 "SMD_solvation_energy": 7.06 
		},
		"coords": [
			{
				"x": -0.5104426703,
				"y": -2.2879049112,
				"z": -0.801821914,
				"element": "C" 
			},
			{
				"x": -0.1133115101,
				"y": -0.8842813856,
				"z": -1.1853537883,
				"element": "C" 
			},
			{
				"x": -0.3383886983,
				"y": 0.202879381,
				"z": -0.3186107684,
				"element": "C" 
			},
			{
				"x": -1.0027006786,
				"y": -0.009636106,
				"z": 0.9331778175,
				"element": "N" 
			},
			{
				"x": -0.4942453821,
				"y": 0.0901805435,
				"z": 2.201603214,
				"element": "C" 
			},
			{
				"x": -1.1917068703,
				"y": -0.0039779625,
				"z": 3.1963638101,
				"element": "O" 
			},
			{
				"x": 1.0330722287,
				"y": 0.3024953261,
				"z": 2.3239540018,
				"element": "C" 
			},
			{
				"x": 1.7871420629,
				"y": -0.8839209269,
				"z": 1.9186925296,
				"element": "C" 
			},
			{
				"x": 2.3641669308,
				"y": -1.8400704759,
				"z": 1.6014807985,
				"element": "N" 
			},
			{
				"x": 0.0413974606,
				"y": 1.5002703971,
				"z": -0.6808801103,
				"element": "C" 
			},
			{
				"x": 0.6785028514,
				"y": 1.7354509986,
				"z": -1.8983654565,
				"element": "C" 
			},
			{
				"x": 0.9104027152,
				"y": 0.6686113889,
				"z": -2.7664104544,
				"element": "C" 
			},
			{
				"x": 0.5106318444,
				"y": -0.6198535646,
				"z": -2.4111288006,
				"element": "C" 
			},
			{
				"x": 0.0466357247,
				"y": -2.623256325,
				"z": 0.0793037742,
				"element": "H" 
			},
			{
				"x": -1.576867828,
				"y": -2.3624170439,
				"z": -0.5608503865,
				"element": "H" 
			},
			{
				"x": -0.3032740497,
				"y": -2.9844158038,
				"z": -1.6177624455,
				"element": "H" 
			},
			{
				"x": -1.9924721507,
				"y": -0.229199343,
				"z": 0.9241527403,
				"element": "H" 
			},
			{
				"x": 1.2271075886,
				"y": 0.5163533918,
				"z": 3.3772930737,
				"element": "H" 
			},
			{
				"x": 1.3667554357,
				"y": 1.153645275,
				"z": 1.7228085128,
				"element": "H" 
			},
			{
				"x": -0.1818363209,
				"y": 2.321309328,
				"z": -0.0052962102,
				"element": "H" 
			},
			{
				"x": 0.975736852,
				"y": 2.7435975795,
				"z": -2.1703934032,
				"element": "H" 
			},
			{
				"x": 1.3992195507,
				"y": 0.8379684552,
				"z": -3.7212763812,
				"element": "H" 
			},
			{
				"x": 0.6949749134,
				"y": -1.446028216,
				"z": -3.0923801535,
				"element": "H" 
			}
		],
		 "valence_orbital": [ 
			{
				"type": "occ",
				"energy": -0.32993,
				"method": "rhf"
			},
			{
				"type": "occ",
				"energy": -0.2878,
				"method": "rhf"
			},
			{
				"type": "occ",
				"energy": -0.26854,
				"method": "rhf"
			},
			{
				"type": "occ",
				"energy": -0.26098,
				"method": "rhf"
			},
			{
				"type": "occ",
				"energy": -0.25211,
				"method": "rhf"
			},
			{
				"type": "unocc",
				"energy": -0.02603,
				"method": "rhf"
			},
			{
				"type": "unocc",
				"energy": -0.0162,
				"method": "rhf"
			},
			{
				"type": "unocc",
				"energy": -0.00205,
				"method": "rhf"
			},
			{
				"type": "unocc",
				"energy": 0.03457,
				"method": "rhf"
			},
			{
				"type": "unocc",
				"energy": 0.04478,
				"method": "rhf"
			}
		],
		"cosmo_sigma_profile": { 
			"-0.025": 0.0,
			"-0.024": 0.0,
			"-0.023": 0.0,
			"-0.022": 0.0,
			"-0.021": 0.0,
			"-0.02": 0.0,
			"-0.019": 0.0,
			"-0.018": 0.0,
			"-0.017": 0.0,
			"-0.016": 0.0,
			"-0.015": 0.369306817942,
			"-0.014": 0.918433892838,
			"-0.013": 0.791121080408,
			"-0.012": 1.13170609875,
			"-0.011": 0.669330585101,
			"-0.01": 2.01847775086,
			"-0.009": 5.97559060133,
			"-0.008": 6.30323743586,
			"-0.007": 7.53733744775,
			"-0.006": 13.0119697689,
			"-0.005": 15.2393970163,
			"-0.004": 15.6204362684,
			"-0.003": 13.6926956813,
			"-0.002": 14.2495801019,
			"-0.001": 16.691910213,
			"0.0": 17.0854476075,
			"0.001": 11.025546297,
			"0.002": 9.23239149232,
			"0.003": 11.7316094038,
			"0.004": 12.5353938761,
			"0.005": 9.9155028841,
			"0.006": 4.16018550805,
			"0.007": 3.38880572156,
			"0.008": 4.30805737408,
			"0.009": 3.76926201403,
			"0.01": 4.08790790344,
			"0.011": 4.2002177998,
			"0.012": 7.22805692946,
			"0.013": 5.28747430674,
			"0.014": 0.28696426952,
			"0.015": 0.0,
			"0.016": 0.0,
			"0.017": 0.0,
			"0.018": 0.0,
			"0.019": 0.0,
			"0.02": 0.0,
			"0.021": 0.0,
			"0.022": 0.0,
			"0.023": 0.0,
			"0.024": 0.0,
			"0.0": 0.0
		}
	}
}
