{
	 "smiles": "NC(=O)C1=C(N)C=CC=C1F", 
	 "Tm": 389.15, 
	 "num_atms": 18, 
	 "gaussian": { 
		 "optdone": 1, 
		 "sigma_profile": "yes", 
		 "theory": "DFT", 
		 "functional": "B3LYP", 
		 "basiset": "6-31G**", 
		 "properties": { 
			 "R2extent": 2649.3284, 
			 "electric_dipole_moment_norm": 1.40395734266, 
			 "electric_quadrupole_moment_norm": 11.7384170338, 
			 "total_energy": -555.5558216, 
			 "HOMO_LUMO_gap": 0.17121, 
			 "cosmo_polarized_energy": -10.45, 
			 "cosmo_cavitation_energy": 21.85, 
			 "cosmo_dispersion_energy": -16.93, 
			 "cosmo_repulsion_energy": 1.33, 
			 "cosmo_total_nonelectrostatic_energy": 6.25, 
			 "SMD_solvation_energy": 4.6 
		},
		"coords": [
			{
				"x": 0.0853942532,
				"y": 1.8899082962,
				"z": 0.2332256089,
				"element": "N" 
			},
			{
				"x": -1.1009751905,
				"y": 1.2261632344,
				"z": 0.1765896834,
				"element": "C" 
			},
			{
				"x": -1.9253972967,
				"y": 1.5380824543,
				"z": -0.6977784621,
				"element": "O" 
			},
			{
				"x": -1.3706657789,
				"y": 0.1443414819,
				"z": 1.1732672798,
				"element": "C" 
			},
			{
				"x": -2.6369107547,
				"y": -0.5329739151,
				"z": 1.1584468178,
				"element": "C" 
			},
			{
				"x": -3.6192037647,
				"y": -0.1789074831,
				"z": 0.2893787936,
				"element": "N" 
			},
			{
				"x": -2.8743320914,
				"y": -1.5782444913,
				"z": 2.0851065662,
				"element": "C" 
			},
			{
				"x": -1.9158658858,
				"y": -1.9541665855,
				"z": 3.0064862969,
				"element": "C" 
			},
			{
				"x": -0.6746057802,
				"y": -1.3085637364,
				"z": 3.0516740045,
				"element": "C" 
			},
			{
				"x": -0.4488077147,
				"y": -0.2938315468,
				"z": 2.1428739332,
				"element": "C" 
			},
			{
				"x": 0.7777455495,
				"y": 0.303661083,
				"z": 2.22045272,
				"element": "F" 
			},
			{
				"x": 0.2296860231,
				"y": 2.5998051823,
				"z": -0.4673196769,
				"element": "H" 
			},
			{
				"x": 0.8025031827,
				"y": 1.6687330047,
				"z": 0.9013128085,
				"element": "H" 
			},
			{
				"x": -3.3777462317,
				"y": 0.5061992293,
				"z": -0.4214915975,
				"element": "H" 
			},
			{
				"x": -4.4393512964,
				"y": -0.7563217427,
				"z": 0.2132725264,
				"element": "H" 
			},
			{
				"x": -3.8370170621,
				"y": -2.081131558,
				"z": 2.0600343909,
				"element": "H" 
			},
			{
				"x": -2.1276707248,
				"y": -2.7587865898,
				"z": 3.7045196037,
				"element": "H" 
			},
			{
				"x": 0.0994205641,
				"y": -1.5742663176,
				"z": 3.7610487029,
				"element": "H" 
			}
		],
		 "valence_orbital": [ 
			{
				"type": "occ",
				"energy": -0.31105,
				"method": "rhf"
			},
			{
				"type": "occ",
				"energy": -0.26255,
				"method": "rhf"
			},
			{
				"type": "occ",
				"energy": -0.25566,
				"method": "rhf"
			},
			{
				"type": "occ",
				"energy": -0.25294,
				"method": "rhf"
			},
			{
				"type": "occ",
				"energy": -0.20254,
				"method": "rhf"
			},
			{
				"type": "unocc",
				"energy": -0.03133,
				"method": "rhf"
			},
			{
				"type": "unocc",
				"energy": 0.01535,
				"method": "rhf"
			},
			{
				"type": "unocc",
				"energy": 0.06609,
				"method": "rhf"
			},
			{
				"type": "unocc",
				"energy": 0.08729,
				"method": "rhf"
			},
			{
				"type": "unocc",
				"energy": 0.09316,
				"method": "rhf"
			}
		],
		"cosmo_sigma_profile": { 
			"-0.025": 0.0,
			"-0.024": 0.0,
			"-0.023": 0.0,
			"-0.022": 0.0,
			"-0.021": 0.0,
			"-0.02": 0.0,
			"-0.019": 0.0,
			"-0.018": 0.0,
			"-0.017": 0.0,
			"-0.016": 0.0,
			"-0.015": 0.0,
			"-0.014": 0.44159498949,
			"-0.013": 2.28424313307,
			"-0.012": 2.88532833808,
			"-0.011": 2.69723871457,
			"-0.01": 3.39659300973,
			"-0.009": 2.97735840449,
			"-0.008": 3.23881401366,
			"-0.007": 6.11894092378,
			"-0.006": 8.16073686858,
			"-0.005": 8.16815153142,
			"-0.004": 8.20774690401,
			"-0.003": 6.89756760476,
			"-0.002": 7.81929154742,
			"-0.001": 9.1099361541,
			"0.0": 10.2512791034,
			"0.001": 13.2694343566,
			"0.002": 15.075637482,
			"0.003": 18.6385675264,
			"0.004": 17.4284892487,
			"0.005": 9.6048963165,
			"0.006": 2.57791505463,
			"0.007": 1.80278828145,
			"0.008": 2.74880164037,
			"0.009": 1.69317387965,
			"0.01": 1.57144123157,
			"0.011": 1.4863063337,
			"0.012": 1.46713679665,
			"0.013": 2.51797068363,
			"0.014": 1.86823354434,
			"0.015": 0.179637059298,
			"0.016": 0.0,
			"0.017": 0.0,
			"0.018": 0.0,
			"0.019": 0.0,
			"0.02": 0.0,
			"0.021": 0.0,
			"0.022": 0.0,
			"0.023": 0.0,
			"0.024": 0.0,
			"0.025": 0.0
		}
	}
}
