{
	 "smiles": "ClCC(=O)NCC1=CC=CO1", 
	 "Tm": 355.15, 
	 "num_atms": 19, 
	 "gaussian": { 
		 "optdone": 1, 
		 "sigma_profile": "yes", 
		 "theory": "DFT", 
		 "functional": "B3LYP", 
		 "basiset": "6-31G**", 
		 "properties": { 
			 "R2extent": 3425.9378, 
			 "electric_dipole_moment_norm": 1.75496700824, 
			 "electric_quadrupole_moment_norm": 6.09925460528, 
			 "total_energy": -936.945850733, 
			 "HOMO_LUMO_gap": 0.23149, 
			 "cosmo_polarized_energy": -10.57, 
			 "cosmo_cavitation_energy": 25.62, 
			 "cosmo_dispersion_energy": -18.56, 
			 "cosmo_repulsion_energy": 1.53, 
			 "cosmo_total_nonelectrostatic_energy": 8.59, 
			 "SMD_solvation_energy": 5.19 
		},
		"coords": [
			{
				"x": 1.4471403046,
				"y": 2.4660373698,
				"z": -2.9924565674,
				"element": "Cl" 
			},
			{
				"x": 2.7113221043,
				"y": 1.2210049428,
				"z": -2.6006705074,
				"element": "C" 
			},
			{
				"x": 2.8546450684,
				"y": 0.8170826373,
				"z": -1.1311153942,
				"element": "C" 
			},
			{
				"x": 3.7039322523,
				"y": -0.0261514417,
				"z": -0.8673476016,
				"element": "O" 
			},
			{
				"x": 2.0537360732,
				"y": 1.4220273045,
				"z": -0.2230918708,
				"element": "N" 
			},
			{
				"x": 2.0786113532,
				"y": 1.0482698105,
				"z": 1.1909245387,
				"element": "C" 
			},
			{
				"x": 0.8318497167,
				"y": 0.3646217204,
				"z": 1.6432605982,
				"element": "C" 
			},
			{
				"x": 0.5275774509,
				"y": -0.9223278215,
				"z": 1.9748448141,
				"element": "C" 
			},
			{
				"x": -0.8677194061,
				"y": -0.9401826202,
				"z": 2.3076189214,
				"element": "C" 
			},
			{
				"x": -1.309696162,
				"y": 0.3367543101,
				"z": 2.149573128,
				"element": "C" 
			},
			{
				"x": -0.2888062949,
				"y": 1.1483163272,
				"z": 1.7474251522,
				"element": "O" 
			},
			{
				"x": 2.4718704615,
				"y": 0.3279322164,
				"z": -3.1780184036,
				"element": "H" 
			},
			{
				"x": 3.6681255536,
				"y": 1.6160043076,
				"z": -2.9424471891,
				"element": "H" 
			},
			{
				"x": 1.3450046513,
				"y": 2.0650217006,
				"z": -0.5475931665,
				"element": "H" 
			},
			{
				"x": 2.2545865529,
				"y": 1.9479122051,
				"z": 1.7928823316,
				"element": "H" 
			},
			{
				"x": 2.9296875735,
				"y": 0.3770817109,
				"z": 1.317603756,
				"element": "H" 
			},
			{
				"x": 1.2141914911,
				"y": -1.7568068083,
				"z": 1.9783269006,
				"element": "H" 
			},
			{
				"x": -1.4559786922,
				"y": -1.7902796817,
				"z": 2.6217342136,
				"element": "H" 
			},
			{
				"x": -2.2680800525,
				"y": 0.8152818102,
				"z": 2.2786463463,
				"element": "H" 
			}
		],
		 "valence_orbital": [ 
			{
				"type": "occ",
				"energy": -0.31119,
				"method": "rhf"
			},
			{
				"type": "occ",
				"energy": -0.28196,
				"method": "rhf"
			},
			{
				"type": "occ",
				"energy": -0.26713,
				"method": "rhf"
			},
			{
				"type": "occ",
				"energy": -0.26146,
				"method": "rhf"
			},
			{
				"type": "occ",
				"energy": -0.22911,
				"method": "rhf"
			},
			{
				"type": "unocc",
				"energy": 0.00238,
				"method": "rhf"
			},
			{
				"type": "unocc",
				"energy": 0.01398,
				"method": "rhf"
			},
			{
				"type": "unocc",
				"energy": 0.02055,
				"method": "rhf"
			},
			{
				"type": "unocc",
				"energy": 0.06692,
				"method": "rhf"
			},
			{
				"type": "unocc",
				"energy": 0.10219,
				"method": "rhf"
			}
		],
		"cosmo_sigma_profile": { 
			"-0.025": 0.0,
			"-0.024": 0.0,
			"-0.023": 0.0,
			"-0.022": 0.0,
			"-0.021": 0.0,
			"-0.02": 0.0,
			"-0.019": 0.0,
			"-0.018": 0.0,
			"-0.017": 0.0,
			"-0.016": 0.0,
			"-0.015": 0.0,
			"-0.014": 0.0,
			"-0.013": 0.0,
			"-0.012": 0.220049174929,
			"-0.011": 0.556437967336,
			"-0.01": 0.989984198974,
			"-0.009": 4.59309151846,
			"-0.008": 6.57182410611,
			"-0.007": 8.88647232297,
			"-0.006": 15.164091092,
			"-0.005": 13.308798508,
			"-0.004": 13.8802145892,
			"-0.003": 12.6710269777,
			"-0.002": 12.2668353693,
			"-0.001": 11.4813428651,
			"0.0": 9.96067345207,
			"0.001": 14.1395739891,
			"0.002": 13.4267259838,
			"0.003": 13.0001602485,
			"0.004": 13.1648741715,
			"0.005": 15.9559443511,
			"0.006": 8.44135078295,
			"0.007": 1.89326429945,
			"0.008": 2.08952857065,
			"0.009": 1.85354171058,
			"0.01": 1.43372687371,
			"0.011": 1.41337866768,
			"0.012": 2.42578373711,
			"0.013": 5.63611180786,
			"0.014": 1.24792866301,
			"0.015": 0.0,
			"0.016": 0.0,
			"0.017": 0.0,
			"0.018": 0.0,
			"0.019": 0.0,
			"0.02": 0.0,
			"0.021": 0.0,
			"0.022": 0.0,
			"0.023": 0.0,
			"0.024": 0.0,
			"0.025": 0.0
		}
	}
}
