{
	 "smiles": "[O-][N+](=O)C1=CC=C(C=C1)C1=CC=CC=C1", 
	 "Tm": 387.15, 
	 "num_atms": 24, 
	 "gaussian": { 
		 "optdone": 1, 
		 "sigma_profile": "yes", 
		 "theory": "DFT", 
		 "functional": "B3LYP", 
		 "basiset": "6-31G**", 
		 "properties": { 
			 "R2extent": 4604.4512, 
			 "electric_dipole_moment_norm": 5.46080261592, 
			 "electric_quadrupole_moment_norm": 17.3875469193, 
			 "total_energy": -667.808981267, 
			 "HOMO_LUMO_gap": 0.15662, 
			 "cosmo_polarized_energy": -9.26, 
			 "cosmo_cavitation_energy": 29.04, 
			 "cosmo_dispersion_energy": -21.31, 
			 "cosmo_repulsion_energy": 1.64, 
			 "cosmo_total_nonelectrostatic_energy": 9.36, 
			 "SMD_solvation_energy": 7.04 
		},
		"coords": [
			{
				"x": -1.7709608628,
				"y": 0.7529994162,
				"z": 4.3986152251,
				"element": "O" 
			},
			{
				"x": -1.904189174,
				"y": -0.3208407631,
				"z": 3.8109380229,
				"element": "N" 
			},
			{
				"x": -2.6131645164,
				"y": -1.2491092225,
				"z": 4.2007015071,
				"element": "O" 
			},
			{
				"x": -1.1648882288,
				"y": -0.5077585207,
				"z": 2.5557551948,
				"element": "C" 
			},
			{
				"x": -0.3563956547,
				"y": 0.5248951665,
				"z": 2.0838644086,
				"element": "C" 
			},
			{
				"x": 0.3389889331,
				"y": 0.3403057279,
				"z": 0.8944069634,
				"element": "C" 
			},
			{
				"x": 0.2402256157,
				"y": -0.8630104599,
				"z": 0.1703851524,
				"element": "C" 
			},
			{
				"x": -0.5856940641,
				"y": -1.8824728484,
				"z": 0.6807943129,
				"element": "C" 
			},
			{
				"x": -1.2899099565,
				"y": -1.7132254446,
				"z": 1.8673264994,
				"element": "C" 
			},
			{
				"x": 0.9869836729,
				"y": -1.0518556147,
				"z": -1.0974684627,
				"element": "C" 
			},
			{
				"x": 2.2843192054,
				"y": -0.5338114138,
				"z": -1.2531664499,
				"element": "C" 
			},
			{
				"x": 2.9861598148,
				"y": -0.7126953859,
				"z": -2.4439813746,
				"element": "C" 
			},
			{
				"x": 2.4046303835,
				"y": -1.4103935531,
				"z": -3.5044239706,
				"element": "C" 
			},
			{
				"x": 1.1159655746,
				"y": -1.9292333495,
				"z": -3.3642571811,
				"element": "C" 
			},
			{
				"x": 0.414634323,
				"y": -1.753246858,
				"z": -2.1727116555,
				"element": "C" 
			},
			{
				"x": -0.2937027085,
				"y": 1.4496434286,
				"z": 2.6436728351,
				"element": "H" 
			},
			{
				"x": 0.9482735898,
				"y": 1.1496012419,
				"z": 0.5055338269,
				"element": "H" 
			},
			{
				"x": -0.6552761417,
				"y": -2.8282146412,
				"z": 0.1534065801,
				"element": "H" 
			},
			{
				"x": -1.921023941,
				"y": -2.4942687634,
				"z": 2.2724765296,
				"element": "H" 
			},
			{
				"x": 2.7560634166,
				"y": -0.0126736705,
				"z": -0.4254350298,
				"element": "H" 
			},
			{
				"x": 3.9915137816,
				"y": -0.3132056006,
				"z": -2.5406929347,
				"element": "H" 
			},
			{
				"x": 2.9512781933,
				"y": -1.5486595848,
				"z": -4.4325564076,
				"element": "H" 
			},
			{
				"x": 0.6520974471,
				"y": -2.465663615,
				"z": -4.1869058269,
				"element": "H" 
			},
			{
				"x": -0.597028703,
				"y": -2.1378056715,
				"z": -2.0837777649,
				"element": "H" 
			}
		],
		 "valence_orbital": [ 
			{
				"type": "occ",
				"energy": -0.29732,
				"method": "rhf"
			},
			{
				"type": "occ",
				"energy": -0.28735,
				"method": "rhf"
			},
			{
				"type": "occ",
				"energy": -0.27746,
				"method": "rhf"
			},
			{
				"type": "occ",
				"energy": -0.26506,
				"method": "rhf"
			},
			{
				"type": "occ",
				"energy": -0.24614,
				"method": "rhf"
			},
			{
				"type": "unocc",
				"energy": -0.08952,
				"method": "rhf"
			},
			{
				"type": "unocc",
				"energy": -0.02843,
				"method": "rhf"
			},
			{
				"type": "unocc",
				"energy": -0.02758,
				"method": "rhf"
			},
			{
				"type": "unocc",
				"energy": -0.01598,
				"method": "rhf"
			},
			{
				"type": "unocc",
				"energy": 0.0227,
				"method": "rhf"
			}
		],
		"cosmo_sigma_profile": { 
			"-0.025": 0.0,
			"-0.024": 0.0,
			"-0.023": 0.0,
			"-0.022": 0.0,
			"-0.021": 0.0,
			"-0.02": 0.0,
			"-0.019": 0.0,
			"-0.018": 0.0,
			"-0.017": 0.0,
			"-0.016": 0.0,
			"-0.015": 0.0,
			"-0.014": 0.0,
			"-0.013": 0.0,
			"-0.012": 0.0,
			"-0.011": 0.0,
			"-0.01": 0.0,
			"-0.009": 0.0,
			"-0.008": 0.840881900425,
			"-0.007": 6.84219405516,
			"-0.006": 18.9612147055,
			"-0.005": 18.7085574374,
			"-0.004": 17.8111399128,
			"-0.003": 16.0138926787,
			"-0.002": 14.4318169474,
			"-0.001": 17.123920418,
			"0.0": 16.9312759765,
			"0.001": 22.4437564815,
			"0.002": 20.4670097723,
			"0.003": 11.3634578713,
			"0.004": 12.2760967566,
			"0.005": 11.5006151792,
			"0.006": 4.34188578999,
			"0.007": 6.80557545747,
			"0.008": 8.67387205832,
			"0.009": 4.56641938331,
			"0.01": 3.31385611771,
			"0.011": 0.370034110462,
			"0.012": 0.0,
			"0.013": 0.0,
			"0.014": 0.0,
			"0.015": 0.0,
			"0.016": 0.0,
			"0.017": 0.0,
			"0.018": 0.0,
			"0.019": 0.0,
			"0.02": 0.0,
			"0.021": 0.0,
			"0.022": 0.0,
			"0.023": 0.0,
			"0.024": 0.0,
			"0.025": 0.0
		}
	}
}
