{
	 "smiles": "CN(CCO)C1=NC2=C(N1C)C(=O)N(C)C(=O)N2C", 
	 "Tm": 378.15, 
	 "num_atms": 36, 
	 "gaussian": { 
		 "optdone": 1, 
		 "sigma_profile": "yes", 
		 "theory": "DFT", 
		 "functional": "B3LYP", 
		 "basiset": "6-31G**", 
		 "properties": { 
			 "R2extent": 6092.2616, 
			 "electric_dipole_moment_norm": 4.16610112815, 
			 "electric_quadrupole_moment_norm": 14.2309433278, 
			 "total_energy": -928.876962064, 
			 "HOMO_LUMO_gap": 0.18006, 
			 "cosmo_polarized_energy": -18.16, 
			 "cosmo_cavitation_energy": 38.17, 
			 "cosmo_dispersion_energy": -27.02, 
			 "cosmo_repulsion_energy": 2.09, 
			 "cosmo_total_nonelectrostatic_energy": 13.24, 
			 "SMD_solvation_energy": 6.32 
		},
		"coords": [
			{
				"x": 1.8482889623,
				"y": -2.5830667996,
				"z": -1.1367558534,
				"element": "C" 
			},
			{
				"x": 0.6213867042,
				"y": -2.3814231782,
				"z": -0.3501546078,
				"element": "N" 
			},
			{
				"x": -0.3397930465,
				"y": -3.4848924452,
				"z": -0.4987353298,
				"element": "C" 
			},
			{
				"x": -1.2704549041,
				"y": -3.6108061579,
				"z": 0.7042096964,
				"element": "C" 
			},
			{
				"x": -2.0269244951,
				"y": -4.7969867011,
				"z": 0.4978479724,
				"element": "O" 
			},
			{
				"x": 0.0658535181,
				"y": -1.1076229193,
				"z": -0.4232981225,
				"element": "C" 
			},
			{
				"x": -1.1281983552,
				"y": -0.815671175,
				"z": -0.9543054099,
				"element": "N" 
			},
			{
				"x": -1.25871015,
				"y": 0.5211543465,
				"z": -0.7581689575,
				"element": "C" 
			},
			{
				"x": -0.1614201106,
				"y": 1.0633980345,
				"z": -0.1226983095,
				"element": "C" 
			},
			{
				"x": 0.6934539116,
				"y": -0.014014282,
				"z": 0.1071217696,
				"element": "N" 
			},
			{
				"x": 1.9264184232,
				"y": 0.0213833745,
				"z": 0.8825263712,
				"element": "C" 
			},
			{
				"x": -0.0506732919,
				"y": 2.4465808535,
				"z": 0.2166039985,
				"element": "C" 
			},
			{
				"x": 0.8842321307,
				"y": 2.9900836364,
				"z": 0.8045809053,
				"element": "O" 
			},
			{
				"x": -1.1977467392,
				"y": 3.1721707136,
				"z": -0.2091030004,
				"element": "N" 
			},
			{
				"x": -1.2366385495,
				"y": 4.6120826895,
				"z": 0.0645988902,
				"element": "C" 
			},
			{
				"x": -2.3274675405,
				"y": 2.6619050144,
				"z": -0.8701795604,
				"element": "C" 
			},
			{
				"x": -3.256845599,
				"y": 3.3924618438,
				"z": -1.187908395,
				"element": "O" 
			},
			{
				"x": -2.3309381043,
				"y": 1.291690852,
				"z": -1.1402484417,
				"element": "N" 
			},
			{
				"x": -3.4734284096,
				"y": 0.6899259612,
				"z": -1.8237991189,
				"element": "C" 
			},
			{
				"x": 1.6370918839,
				"y": -2.6850265845,
				"z": -2.2119943817,
				"element": "H" 
			},
			{
				"x": 2.5329929577,
				"y": -1.7447701597,
				"z": -1.0025168427,
				"element": "H" 
			},
			{
				"x": 2.3506779476,
				"y": -3.4903186702,
				"z": -0.7909621142,
				"element": "H" 
			},
			{
				"x": -0.9361570705,
				"y": -3.3845321681,
				"z": -1.4147145885,
				"element": "H" 
			},
			{
				"x": 0.2386867952,
				"y": -4.4100659227,
				"z": -0.5732277788,
				"element": "H" 
			},
			{
				"x": -0.6653365194,
				"y": -3.6647778337,
				"z": 1.6229836204,
				"element": "H" 
			},
			{
				"x": -1.915338607,
				"y": -2.7245591667,
				"z": 0.7701105989,
				"element": "H" 
			},
			{
				"x": -2.7129919682,
				"y": -4.8378076736,
				"z": 1.1743478351,
				"element": "H" 
			},
			{
				"x": 1.8778561174,
				"y": 0.8712367182,
				"z": 1.5621389758,
				"element": "H" 
			},
			{
				"x": 2.8018198926,
				"y": 0.1518193119,
				"z": 0.2374556079,
				"element": "H" 
			},
			{
				"x": 2.0203399538,
				"y": -0.9166269924,
				"z": 1.4340287215,
				"element": "H" 
			},
			{
				"x": -1.3306062443,
				"y": 5.1681855879,
				"z": -0.8706032473,
				"element": "H" 
			},
			{
				"x": -0.3095289243,
				"y": 4.8689549902,
				"z": 0.5722546144,
				"element": "H" 
			},
			{
				"x": -2.0975550409,
				"y": 4.8516244437,
				"z": 0.6926220401,
				"element": "H" 
			},
			{
				"x": -3.9776234727,
				"y": -0.0236062001,
				"z": -1.1657902475,
				"element": "H" 
			},
			{
				"x": -4.1535049566,
				"y": 1.4955480642,
				"z": -2.092043732,
				"element": "H" 
			},
			{
				"x": -3.1350170991,
				"y": 0.160268594,
				"z": -2.7176235782,
				"element": "H" 
			}
		],
		 "valence_orbital": [ 
			{
				"type": "occ",
				"energy": -0.27168,
				"method": "rhf"
			},
			{
				"type": "occ",
				"energy": -0.26158,
				"method": "rhf"
			},
			{
				"type": "occ",
				"energy": -0.25293,
				"method": "rhf"
			},
			{
				"type": "occ",
				"energy": -0.25084,
				"method": "rhf"
			},
			{
				"type": "occ",
				"energy": -0.20301,
				"method": "rhf"
			},
			{
				"type": "unocc",
				"energy": -0.02295,
				"method": "rhf"
			},
			{
				"type": "unocc",
				"energy": 0.02905,
				"method": "rhf"
			},
			{
				"type": "unocc",
				"energy": 0.04136,
				"method": "rhf"
			},
			{
				"type": "unocc",
				"energy": 0.06651,
				"method": "rhf"
			},
			{
				"type": "unocc",
				"energy": 0.07922,
				"method": "rhf"
			}
		],
		"cosmo_sigma_profile": { 
			"-0.025": 0.0,
			"-0.024": 0.0,
			"-0.023": 0.0,
			"-0.022": 0.0,
			"-0.021": 0.0,
			"-0.02": 0.0,
			"-0.019": 0.0,
			"-0.018": 0.0,
			"-0.017": 0.0,
			"-0.016": 0.679602240533,
			"-0.015": 0.917434355511,
			"-0.014": 0.924151586194,
			"-0.013": 1.36036155484,
			"-0.012": 0.472079503746,
			"-0.011": 0.977968237802,
			"-0.01": 0.445556266256,
			"-0.009": 0.492225661469,
			"-0.008": 1.54538143067,
			"-0.007": 3.77728782527,
			"-0.006": 10.1413144319,
			"-0.005": 19.7885226306,
			"-0.004": 29.7359290731,
			"-0.003": 41.2338702052,
			"-0.002": 47.0448266573,
			"-0.001": 27.6773190978,
			"0.0": 16.7710917612,
			"0.001": 11.7168044384,
			"0.002": 8.37350934167,
			"0.003": 9.10459528536,
			"0.004": 8.03719828208,
			"0.005": 6.88041517827,
			"0.006": 6.02605733595,
			"0.007": 6.66442387866,
			"0.008": 4.49494856418,
			"0.009": 4.55308688569,
			"0.01": 5.47041693932,
			"0.011": 5.99644261167,
			"0.012": 7.63723144949,
			"0.013": 9.58107555589,
			"0.014": 2.03565021269,
			"0.015": 0.0432022722807,
			"0.016": 0.0,
			"0.017": 0.0,
			"0.018": 0.0,
			"0.019": 0.0,
			"0.02": 0.0,
			"0.021": 0.0,
			"0.022": 0.0,
			"0.023": 0.0,
			"0.024": 0.0,
			"0.025": 0.0
		}
	}
}
