{
	 "smiles": "CC1=C(C)C2=C(N1)C=CC(=C2)[N+]([O-])=O", 
	 "Tm": 462.15, 
	 "num_atms": 24, 
	 "gaussian": { 
		 "optdone": 1, 
		 "sigma_profile": "yes", 
		 "theory": "DFT", 
		 "functional": "B3LYP", 
		 "basiset": "6-31G**", 
		 "properties": { 
			 "R2extent": 3684.1065, 
			 "electric_dipole_moment_norm": 7.97899122133, 
			 "electric_quadrupole_moment_norm": 14.9088052194, 
			 "total_energy": -646.965629751, 
			 "HOMO_LUMO_gap": 0.14482, 
			 "cosmo_polarized_energy": -14.26, 
			 "cosmo_cavitation_energy": 28.39, 
			 "cosmo_dispersion_energy": -20.71, 
			 "cosmo_repulsion_energy": 1.62, 
			 "cosmo_total_nonelectrostatic_energy": 9.3, 
			 "SMD_solvation_energy": 6.8 
		},
		"coords": [
			{
				"x": 1.9320504509,
				"y": -0.0033395455,
				"z": 3.5657651056,
				"element": "C" 
			},
			{
				"x": 0.9765633258,
				"y": -0.163229781,
				"z": 2.422590968,
				"element": "C" 
			},
			{
				"x": -0.2957768933,
				"y": -0.6854317028,
				"z": 2.3899397852,
				"element": "C" 
			},
			{
				"x": -1.0741855339,
				"y": -1.2480395757,
				"z": 3.540706585,
				"element": "C" 
			},
			{
				"x": -0.7463654369,
				"y": -0.5890736151,
				"z": 1.0239034287,
				"element": "C" 
			},
			{
				"x": 0.3056923872,
				"y": 0.0056017123,
				"z": 0.2663989806,
				"element": "C" 
			},
			{
				"x": 1.3328035005,
				"y": 0.2510564329,
				"z": 1.1407200478,
				"element": "N" 
			},
			{
				"x": 0.1986762066,
				"y": 0.2467454748,
				"z": -1.1091305345,
				"element": "C" 
			},
			{
				"x": -0.9821091296,
				"y": -0.1132275829,
				"z": -1.7394422539,
				"element": "C" 
			},
			{
				"x": -2.0219324037,
				"y": -0.7005726951,
				"z": -0.9924722964,
				"element": "C" 
			},
			{
				"x": -1.931650148,
				"y": -0.9467200939,
				"z": 0.3736280149,
				"element": "C" 
			},
			{
				"x": -3.2566258119,
				"y": -1.0690146616,
				"z": -1.6891934725,
				"element": "N" 
			},
			{
				"x": -4.1626328537,
				"y": -1.5825217708,
				"z": -1.0285789514,
				"element": "O" 
			},
			{
				"x": -3.3247300377,
				"y": -0.8458704434,
				"z": -2.9002466198,
				"element": "O" 
			},
			{
				"x": 1.5141114163,
				"y": 0.6327442763,
				"z": 4.3533894844,
				"element": "H" 
			},
			{
				"x": 2.8700006877,
				"y": 0.4547650583,
				"z": 3.237643635,
				"element": "H" 
			},
			{
				"x": 2.1797727005,
				"y": -0.9682502951,
				"z": 4.020966904,
				"element": "H" 
			},
			{
				"x": -2.0092902549,
				"y": -0.6982820547,
				"z": 3.7027843083,
				"element": "H" 
			},
			{
				"x": -0.50201749,
				"y": -1.204146224,
				"z": 4.4715940853,
				"element": "H" 
			},
			{
				"x": -1.345467479,
				"y": -2.2969627098,
				"z": 3.3701746785,
				"element": "H" 
			},
			{
				"x": 2.2175696412,
				"y": 0.6688279123,
				"z": 0.9002357728,
				"element": "H" 
			},
			{
				"x": 1.0102200938,
				"y": 0.7005695682,
				"z": -1.6699483323,
				"element": "H" 
			},
			{
				"x": -1.1290685643,
				"y": 0.0458442631,
				"z": -2.7995655625,
				"element": "H" 
			},
			{
				"x": -2.7674083735,
				"y": -1.4014719469,
				"z": 0.8909362392,
				"element": "H" 
			}
		],
		 "valence_orbital": [ 
			{
				"type": "occ",
				"energy": -0.28976,
				"method": "rhf"
			},
			{
				"type": "occ",
				"energy": -0.28473,
				"method": "rhf"
			},
			{
				"type": "occ",
				"energy": -0.27157,
				"method": "rhf"
			},
			{
				"type": "occ",
				"energy": -0.23973,
				"method": "rhf"
			},
			{
				"type": "occ",
				"energy": -0.21286,
				"method": "rhf"
			},
			{
				"type": "unocc",
				"energy": -0.06804,
				"method": "rhf"
			},
			{
				"type": "unocc",
				"energy": -0.02176,
				"method": "rhf"
			},
			{
				"type": "unocc",
				"energy": 0.03341,
				"method": "rhf"
			},
			{
				"type": "unocc",
				"energy": 0.05345,
				"method": "rhf"
			},
			{
				"type": "unocc",
				"energy": 0.06148,
				"method": "rhf"
			}
		],
		"cosmo_sigma_profile": { 
			"-0.025": 0.0,
			"-0.024": 0.0,
			"-0.023": 0.0,
			"-0.022": 0.0,
			"-0.021": 0.0,
			"-0.02": 0.0,
			"-0.019": 0.0,
			"-0.018": 0.0,
			"-0.017": 0.0,
			"-0.016": 0.494583281212,
			"-0.015": 1.57910358131,
			"-0.014": 1.45090541378,
			"-0.013": 1.48546203326,
			"-0.012": 1.18575586469,
			"-0.011": 1.7026137273,
			"-0.01": 1.57997583754,
			"-0.009": 1.58840444223,
			"-0.008": 1.85079199327,
			"-0.007": 3.62410740009,
			"-0.006": 5.68206641734,
			"-0.005": 9.12994850653,
			"-0.004": 15.0111373888,
			"-0.003": 22.8211944621,
			"-0.002": 19.3151208041,
			"-0.001": 19.8509576767,
			"0.0": 19.1003132114,
			"0.001": 15.7673412209,
			"0.002": 14.0950703406,
			"0.003": 20.9056789943,
			"0.004": 12.3052605692,
			"0.005": 5.23368749296,
			"0.006": 3.47683375615,
			"0.007": 3.27180107661,
			"0.008": 9.062222211,
			"0.009": 7.11171659487,
			"0.01": 4.63132608886,
			"0.011": 2.67266935723,
			"0.012": 0.0658894757199,
			"0.013": 0.0,
			"0.014": 0.0,
			"0.015": 0.0,
			"0.016": 0.0,
			"0.017": 0.0,
			"0.018": 0.0,
			"0.019": 0.0,
			"0.02": 0.0,
			"0.021": 0.0,
			"0.022": 0.0,
			"0.023": 0.0,
			"0.024": 0.0,
			"0.025": 0.0
		}
	}
}
