{
	 "smiles": "CCCCCCCCC(=O)OCC", 
	 "Tm": 236.45, 
	 "num_atms": 35, 
	 "gaussian": { 
		 "optdone": 1, 
		 "sigma_profile": "yes", 
		 "theory": "DFT", 
		 "functional": "B3LYP", 
		 "basiset": "6-31G**", 
		 "properties": { 
			 "R2extent": 5690.2298, 
			 "electric_dipole_moment_norm": 1.71928460704, 
			 "electric_quadrupole_moment_norm": 10.5775410389, 
			 "total_energy": -582.917859279, 
			 "HOMO_LUMO_gap": 0.28285, 
			 "cosmo_polarized_energy": -6.37, 
			 "cosmo_cavitation_energy": 36.26, 
			 "cosmo_dispersion_energy": -25.51, 
			 "cosmo_repulsion_energy": 2.12, 
			 "cosmo_total_nonelectrostatic_energy": 12.87, 
			 "SMD_solvation_energy": 6.49 
		},
		"coords": [
			{
				"x": -3.8023855619,
				"y": 0.7676856281,
				"z": -3.2381220433,
				"element": "C" 
			},
			{
				"x": -3.6050954541,
				"y": 1.1078171864,
				"z": -1.7572417036,
				"element": "C" 
			},
			{
				"x": -2.9528036344,
				"y": -0.0316919431,
				"z": -0.9611592008,
				"element": "C" 
			},
			{
				"x": -2.7477088088,
				"y": 0.2812615711,
				"z": 0.5336561412,
				"element": "C" 
			},
			{
				"x": -1.6368406155,
				"y": 1.3060443195,
				"z": 0.8643416905,
				"element": "C" 
			},
			{
				"x": -0.2615257451,
				"y": 0.7069300616,
				"z": 1.2084523359,
				"element": "C" 
			},
			{
				"x": 0.4242144856,
				"y": -0.0703592956,
				"z": 0.0759329443,
				"element": "C" 
			},
			{
				"x": 1.8239396719,
				"y": -0.5711093747,
				"z": 0.4493885954,
				"element": "C" 
			},
			{
				"x": 2.8535709657,
				"y": 0.5394756647,
				"z": 0.5572492703,
				"element": "C" 
			},
			{
				"x": 2.7279254535,
				"y": 1.6645367648,
				"z": 0.1202407919,
				"element": "O" 
			},
			{
				"x": 3.9680100496,
				"y": 0.1067314156,
				"z": 1.1882696554,
				"element": "O" 
			},
			{
				"x": 5.0407375755,
				"y": 1.0691636285,
				"z": 1.3072877149,
				"element": "C" 
			},
			{
				"x": 6.1824302303,
				"y": 0.3914955777,
				"z": 2.0412510893,
				"element": "C" 
			},
			{
				"x": -4.434423003,
				"y": -0.1195946097,
				"z": -3.3605500224,
				"element": "H" 
			},
			{
				"x": -2.8441760194,
				"y": 0.5587434489,
				"z": -3.7276752699,
				"element": "H" 
			},
			{
				"x": -4.2784838938,
				"y": 1.5919016998,
				"z": -3.7794962398,
				"element": "H" 
			},
			{
				"x": -4.5762017079,
				"y": 1.3500785809,
				"z": -1.3036755892,
				"element": "H" 
			},
			{
				"x": -2.9973271547,
				"y": 2.0179669321,
				"z": -1.6738642415,
				"element": "H" 
			},
			{
				"x": -1.9948679503,
				"y": -0.2933089438,
				"z": -1.4286533679,
				"element": "H" 
			},
			{
				"x": -3.5863218055,
				"y": -0.9251014868,
				"z": -1.0512856987,
				"element": "H" 
			},
			{
				"x": -2.5405612165,
				"y": -0.6527098231,
				"z": 1.0738351111,
				"element": "H" 
			},
			{
				"x": -3.7036371774,
				"y": 0.6451365754,
				"z": 0.9334812254,
				"element": "H" 
			},
			{
				"x": -1.5217022111,
				"y": 2.0165907511,
				"z": 0.035233506,
				"element": "H" 
			},
			{
				"x": -1.9547859903,
				"y": 1.9082298204,
				"z": 1.7242909662,
				"element": "H" 
			},
			{
				"x": -0.3702972166,
				"y": 0.0450589998,
				"z": 2.0805807184,
				"element": "H" 
			},
			{
				"x": 0.401263947,
				"y": 1.5236483268,
				"z": 1.518143395,
				"element": "H" 
			},
			{
				"x": 0.5054036825,
				"y": 0.5691474498,
				"z": -0.8104977731,
				"element": "H" 
			},
			{
				"x": -0.1836401362,
				"y": -0.9371214302,
				"z": -0.2066852674,
				"element": "H" 
			},
			{
				"x": 1.8168647425,
				"y": -1.130695984,
				"z": 1.3918243537,
				"element": "H" 
			},
			{
				"x": 2.198644799,
				"y": -1.2716385746,
				"z": -0.3090282958,
				"element": "H" 
			},
			{
				"x": 5.333967931,
				"y": 1.3991220381,
				"z": 0.3054198821,
				"element": "H" 
			},
			{
				"x": 4.6696696079,
				"y": 1.947617999,
				"z": 1.8447729249,
				"element": "H" 
			},
			{
				"x": 6.536434786,
				"y": -0.4848253861,
				"z": 1.4905647527,
				"element": "H" 
			},
			{
				"x": 7.0186707303,
				"y": 1.0887565408,
				"z": 2.1529831992,
				"element": "H" 
			},
			{
				"x": 5.8691366441,
				"y": 0.0675158708,
				"z": 3.0379344497,
				"element": "H" 
			}
		],
		 "valence_orbital": [ 
			{
				"type": "occ",
				"energy": -0.30617,
				"method": "rhf"
			},
			{
				"type": "occ",
				"energy": -0.30363,
				"method": "rhf"
			},
			{
				"type": "occ",
				"energy": -0.30107,
				"method": "rhf"
			},
			{
				"type": "occ",
				"energy": -0.29462,
				"method": "rhf"
			},
			{
				"type": "occ",
				"energy": -0.26566,
				"method": "rhf"
			},
			{
				"type": "unocc",
				"energy": 0.01719,
				"method": "rhf"
			},
			{
				"type": "unocc",
				"energy": 0.08979,
				"method": "rhf"
			},
			{
				"type": "unocc",
				"energy": 0.0993,
				"method": "rhf"
			},
			{
				"type": "unocc",
				"energy": 0.10438,
				"method": "rhf"
			},
			{
				"type": "unocc",
				"energy": 0.11335,
				"method": "rhf"
			}
		],
		"cosmo_sigma_profile": { 
			"-0.025": 0.0,
			"-0.024": 0.0,
			"-0.023": 0.0,
			"-0.022": 0.0,
			"-0.021": 0.0,
			"-0.02": 0.0,
			"-0.019": 0.0,
			"-0.018": 0.0,
			"-0.017": 0.0,
			"-0.016": 0.0,
			"-0.015": 0.0,
			"-0.014": 0.0,
			"-0.013": 0.0,
			"-0.012": 0.0,
			"-0.011": 0.0,
			"-0.01": 0.0,
			"-0.009": 0.0,
			"-0.008": 0.0,
			"-0.007": 0.0,
			"-0.006": 1.76425968003,
			"-0.005": 8.01041864416,
			"-0.004": 15.2139489407,
			"-0.003": 21.5579324491,
			"-0.002": 42.0921223565,
			"-0.001": 54.4780482011,
			"0.0": 47.8153107952,
			"0.001": 38.1539310519,
			"0.002": 18.7368772841,
			"0.003": 3.73175940547,
			"0.004": 3.10839968342,
			"0.005": 3.38718361074,
			"0.006": 3.47699287513,
			"0.007": 2.60941006309,
			"0.008": 3.23591485793,
			"0.009": 2.06714797134,
			"0.01": 1.79044985262,
			"0.011": 2.2984542526,
			"0.012": 4.0676061565,
			"0.013": 1.85650478336,
			"0.014": 0.0,
			"0.015": 0.0,
			"0.016": 0.0,
			"0.017": 0.0,
			"0.018": 0.0,
			"0.019": 0.0,
			"0.02": 0.0,
			"0.021": 0.0,
			"0.022": 0.0,
			"0.023": 0.0,
			"0.024": 0.0,
			"0.025": 0.0
		}
	}
}
