{
	 "smiles": "NC1=C2C=C(C=CC2=NS1)[N+]([O-])=O", 
	 "Tm": 472.15, 
	 "num_atms": 18, 
	 "gaussian": { 
		 "optdone": 1, 
		 "sigma_profile": "yes", 
		 "theory": "DFT", 
		 "functional": "B3LYP", 
		 "basiset": "6-31G**", 
		 "properties": { 
			 "R2extent": 3277.806, 
			 "electric_dipole_moment_norm": 5.70437339153, 
			 "electric_quadrupole_moment_norm": 22.8093377376, 
			 "total_energy": -982.528867232, 
			 "HOMO_LUMO_gap": 0.12801, 
			 "cosmo_polarized_energy": -19.47, 
			 "cosmo_cavitation_energy": 25.01, 
			 "cosmo_dispersion_energy": -19.31, 
			 "cosmo_repulsion_energy": 1.46, 
			 "cosmo_total_nonelectrostatic_energy": 7.16, 
			 "SMD_solvation_energy": 4.76 
		},
		"coords": [
			{
				"x": 1.6154280437,
				"y": -2.3392383444,
				"z": -2.2680294445,
				"element": "N" 
			},
			{
				"x": 1.7926508542,
				"y": -1.8768949344,
				"z": -0.9989367545,
				"element": "C" 
			},
			{
				"x": 1.3386285575,
				"y": -0.6647356212,
				"z": -0.4496046713,
				"element": "C" 
			},
			{
				"x": 0.6329346753,
				"y": 0.3905289316,
				"z": -1.0700710285,
				"element": "C" 
			},
			{
				"x": 0.306268554,
				"y": 1.4835037795,
				"z": -0.3052113973,
				"element": "C" 
			},
			{
				"x": 0.6488271022,
				"y": 1.5870228703,
				"z": 1.0787484522,
				"element": "C" 
			},
			{
				"x": 1.3289656744,
				"y": 0.5769077505,
				"z": 1.6980123008,
				"element": "C" 
			},
			{
				"x": 1.6999551848,
				"y": -0.5908184291,
				"z": 0.9523748867,
				"element": "C" 
			},
			{
				"x": 2.3626505786,
				"y": -1.6199475394,
				"z": 1.4728083311,
				"element": "N" 
			},
			{
				"x": 2.5882364763,
				"y": -2.7616398915,
				"z": 0.2581230839,
				"element": "S" 
			},
			{
				"x": -0.4221844088,
				"y": 2.5828611046,
				"z": -0.9345646194,
				"element": "N" 
			},
			{
				"x": -0.7063376746,
				"y": 2.4805373436,
				"z": -2.1314876983,
				"element": "O" 
			},
			{
				"x": -0.7110115373,
				"y": 3.553275306,
				"z": -0.2315987345,
				"element": "O" 
			},
			{
				"x": 2.1763621002,
				"y": -3.1114463841,
				"z": -2.5939205575,
				"element": "H" 
			},
			{
				"x": 1.3536404886,
				"y": -1.6732412463,
				"z": -2.9802250448,
				"element": "H" 
			},
			{
				"x": 0.3373117064,
				"y": 0.3703575586,
				"z": -2.1129773719,
				"element": "H" 
			},
			{
				"x": 0.3532244054,
				"y": 2.4820839343,
				"z": 1.6111129918,
				"element": "H" 
			},
			{
				"x": 1.5983492193,
				"y": 0.6335838113,
				"z": 2.7467472758,
				"element": "H" 
			}
		],
		 "valence_orbital": [ 
			{
				"type": "occ",
				"energy": -0.29997,
				"method": "rhf"
			},
			{
				"type": "occ",
				"energy": -0.2898,
				"method": "rhf"
			},
			{
				"type": "occ",
				"energy": -0.28362,
				"method": "rhf"
			},
			{
				"type": "occ",
				"energy": -0.27249,
				"method": "rhf"
			},
			{
				"type": "occ",
				"energy": -0.21878,
				"method": "rhf"
			},
			{
				"type": "unocc",
				"energy": -0.09077,
				"method": "rhf"
			},
			{
				"type": "unocc",
				"energy": -0.0579,
				"method": "rhf"
			},
			{
				"type": "unocc",
				"energy": -0.01503,
				"method": "rhf"
			},
			{
				"type": "unocc",
				"energy": 0.01577,
				"method": "rhf"
			},
			{
				"type": "unocc",
				"energy": 0.02744,
				"method": "rhf"
			}
		],
		"cosmo_sigma_profile": { 
			"-0.025": 0.0,
			"-0.024": 0.0,
			"-0.023": 0.0,
			"-0.022": 0.0,
			"-0.021": 0.0,
			"-0.02": 0.0,
			"-0.019": 0.0,
			"-0.018": 0.0,
			"-0.017": 0.0432463797226,
			"-0.016": 2.06478933974,
			"-0.015": 4.35202813771,
			"-0.014": 3.23953878727,
			"-0.013": 3.7973929261,
			"-0.012": 2.99286820545,
			"-0.011": 2.17408859298,
			"-0.01": 2.49125713266,
			"-0.009": 2.1995498054,
			"-0.008": 1.95372526912,
			"-0.007": 4.4828379471,
			"-0.006": 5.48516497886,
			"-0.005": 6.27572385264,
			"-0.004": 8.18581885061,
			"-0.003": 7.55466750843,
			"-0.002": 11.2491510716,
			"-0.001": 15.7975843994,
			"0.0": 22.6778274854,
			"0.001": 18.7810492542,
			"0.002": 16.0737066162,
			"0.003": 9.34256180039,
			"0.004": 4.77311180331,
			"0.005": 5.77704385794,
			"0.006": 5.08404003484,
			"0.007": 6.35962191847,
			"0.008": 11.0553167385,
			"0.009": 6.20280915542,
			"0.01": 5.73845309432,
			"0.011": 2.74708678621,
			"0.012": 1.39275946335,
			"0.013": 0.997797091104,
			"0.014": 1.2455064725,
			"0.015": 0.920714083853,
			"0.016": 0.196601814153,
			"0.017": 0.0,
			"0.018": 0.0,
			"0.019": 0.0,
			"0.02": 0.0,
			"0.021": 0.0,
			"0.022": 0.0,
			"0.023": 0.0,
			"0.024": 0.0,
			"0.025": 0.0
		}
	}
}
