{
	 "smiles": "CN1C(C)=NN=C1C1=CC=C(C=C1)C(O)=O", 
	 "Tm": 543.15, 
	 "num_atms": 27, 
	 "gaussian": { 
		 "optdone": 1, 
		 "sigma_profile": "yes", 
		 "theory": "DFT", 
		 "functional": "B3LYP", 
		 "basiset": "6-31G**", 
		 "properties": { 
			 "R2extent": 5044.051, 
			 "electric_dipole_moment_norm": 8.59126138934, 
			 "electric_quadrupole_moment_norm": 20.755295784, 
			 "total_energy": -740.500556059, 
			 "HOMO_LUMO_gap": 0.17182, 
			 "cosmo_polarized_energy": -28.13, 
			 "cosmo_cavitation_energy": 31.52, 
			 "cosmo_dispersion_energy": -22.98, 
			 "cosmo_repulsion_energy": 1.76, 
			 "cosmo_total_nonelectrostatic_energy": 10.3, 
			 "SMD_solvation_energy": 4.53 
		},
		"coords": [
			{
				"x": 0.3050919484,
				"y": 2.792453363,
				"z": 2.1918856343,
				"element": "C" 
			},
			{
				"x": 0.256350036,
				"y": 2.9271253814,
				"z": 0.7430889222,
				"element": "N" 
			},
			{
				"x": 0.321836976,
				"y": 4.1067017693,
				"z": 0.0376243923,
				"element": "C" 
			},
			{
				"x": 0.5515970399,
				"y": 5.4492876399,
				"z": 0.644245342,
				"element": "C" 
			},
			{
				"x": 0.1461167166,
				"y": 3.878402913,
				"z": -1.2465345871,
				"element": "N" 
			},
			{
				"x": -0.0441042852,
				"y": 2.5312341973,
				"z": -1.4086917487,
				"element": "N" 
			},
			{
				"x": 0.0262131504,
				"y": 1.9613822662,
				"z": -0.2202220293,
				"element": "C" 
			},
			{
				"x": -0.1371091036,
				"y": 0.5185926118,
				"z": -0.0065042837,
				"element": "C" 
			},
			{
				"x": 0.5094429816,
				"y": -0.1877795415,
				"z": 1.021167963,
				"element": "C" 
			},
			{
				"x": 0.3236534562,
				"y": -1.5616719727,
				"z": 1.1607865795,
				"element": "C" 
			},
			{
				"x": -0.500112653,
				"y": -2.2641974655,
				"z": 0.2719378654,
				"element": "C" 
			},
			{
				"x": -1.1098947431,
				"y": -1.5675980372,
				"z": -0.7825776058,
				"element": "C" 
			},
			{
				"x": -0.9407709354,
				"y": -0.1971949561,
				"z": -0.9153857015,
				"element": "C" 
			},
			{
				"x": -0.7309687872,
				"y": -3.7424025873,
				"z": 0.3607329213,
				"element": "C" 
			},
			{
				"x": -0.4848627722,
				"y": -4.33005777,
				"z": 1.56385372,
				"element": "O" 
			},
			{
				"x": -1.1169857843,
				"y": -4.4104156829,
				"z": -0.5690135681,
				"element": "O" 
			},
			{
				"x": 1.3245821005,
				"y": 2.6062296021,
				"z": 2.5461434712,
				"element": "H" 
			},
			{
				"x": -0.3375572383,
				"y": 1.9697599849,
				"z": 2.5080384599,
				"element": "H" 
			},
			{
				"x": -0.0590658957,
				"y": 3.7129856519,
				"z": 2.6512260187,
				"element": "H" 
			},
			{
				"x": 1.5002070212,
				"y": 5.4981624024,
				"z": 1.190674231,
				"element": "H" 
			},
			{
				"x": -0.2495844836,
				"y": 5.732356912,
				"z": 1.3373586072,
				"element": "H" 
			},
			{
				"x": 0.5779845107,
				"y": 6.1820743819,
				"z": -0.1633323725,
				"element": "H" 
			},
			{
				"x": 1.1937809709,
				"y": 0.3195183886,
				"z": 1.6918196494,
				"element": "H" 
			},
			{
				"x": 0.8739551711,
				"y": -2.0828017325,
				"z": 1.9406676004,
				"element": "H" 
			},
			{
				"x": -1.7209718138,
				"y": -2.1253580935,
				"z": -1.4838944592,
				"element": "H" 
			},
			{
				"x": -1.4162902946,
				"y": 0.3462614426,
				"z": -1.7240330905,
				"element": "H" 
			},
			{
				"x": -0.3496332897,
				"y": -3.6553510689,
				"z": 2.2431380687,
				"element": "H" 
			}
		],
		 "valence_orbital": [ 
			{
				"type": "occ",
				"energy": -0.29416,
				"method": "rhf"
			},
			{
				"type": "occ",
				"energy": -0.27847,
				"method": "rhf"
			},
			{
				"type": "occ",
				"energy": -0.27392,
				"method": "rhf"
			},
			{
				"type": "occ",
				"energy": -0.25276,
				"method": "rhf"
			},
			{
				"type": "occ",
				"energy": -0.23875,
				"method": "rhf"
			},
			{
				"type": "unocc",
				"energy": -0.06693,
				"method": "rhf"
			},
			{
				"type": "unocc",
				"energy": -0.02873,
				"method": "rhf"
			},
			{
				"type": "unocc",
				"energy": 0.01018,
				"method": "rhf"
			},
			{
				"type": "unocc",
				"energy": 0.03407,
				"method": "rhf"
			},
			{
				"type": "unocc",
				"energy": 0.05241,
				"method": "rhf"
			}
		],
		"cosmo_sigma_profile": { 
			"-0.025": 0.0,
			"-0.024": 0.0,
			"-0.023": 0.0,
			"-0.022": 0.0,
			"-0.021": 0.0,
			"-0.02": 0.0,
			"-0.019": 0.400107313676,
			"-0.018": 0.558929366815,
			"-0.017": 1.13495820389,
			"-0.016": 0.969681444607,
			"-0.015": 0.962184502477,
			"-0.014": 0.681212929801,
			"-0.013": 1.20248970233,
			"-0.012": 1.4469022557,
			"-0.011": 1.34128775352,
			"-0.01": 1.21199154778,
			"-0.009": 1.41923763778,
			"-0.008": 6.74983947269,
			"-0.007": 13.3638776885,
			"-0.006": 19.4720962283,
			"-0.005": 22.1507897907,
			"-0.004": 20.1068471705,
			"-0.003": 14.9461320832,
			"-0.002": 14.9920554452,
			"-0.001": 15.3108411567,
			"0.0": 12.5904480287,
			"0.001": 11.8049314604,
			"0.002": 16.9839872308,
			"0.003": 8.6443890973,
			"0.004": 5.01869687582,
			"0.005": 4.53283455061,
			"0.006": 4.85192852617,
			"0.007": 4.53416652398,
			"0.008": 4.48539752318,
			"0.009": 5.26345396938,
			"0.01": 6.8538132458,
			"0.011": 7.42944345858,
			"0.012": 7.10263551619,
			"0.013": 3.9208036403,
			"0.014": 3.27648680875,
			"0.015": 2.94493459616,
			"0.016": 2.04839321258,
			"0.017": 1.17115278959,
			"0.018": 0.1561290594,
			"0.019": 0.0,
			"0.02": 0.0,
			"0.021": 0.0,
			"0.022": 0.0,
			"0.023": 0.0,
			"0.024": 0.0,
			"0.025": 0.0
		}
	}
}
