{
	 "smiles": "BrC1=CC2=C(SC=C2)C=C1", 
	 "Tm": 320.65, 
	 "num_atms": 15, 
	 "gaussian": { 
		 "optdone": 1, 
		 "sigma_profile": "yes", 
		 "theory": "DFT", 
		 "functional": "B3LYP", 
		 "basiset": "6-31G**", 
		 "properties": { 
			 "R2extent": 3871.1307, 
			 "electric_dipole_moment_norm": 1.73082655688, 
			 "electric_quadrupole_moment_norm": 9.11494524668, 
			 "total_energy": -3277.45523665, 
			 "HOMO_LUMO_gap": 0.18931, 
			 "cosmo_polarized_energy": -4.96, 
			 "cosmo_cavitation_energy": 22.94, 
			 "cosmo_dispersion_energy": -18.26, 
			 "cosmo_repulsion_energy": 1.41, 
			 "cosmo_total_nonelectrostatic_energy": 6.09, 
			 "SMD_solvation_energy": 2.48 
		},
		"coords": [
			{
				"x": -1.6939568985,
				"y": -2.6574726154,
				"z": 0.5124686633,
				"element": "Br" 
			},
			{
				"x": -1.5127124814,
				"y": -0.7839150837,
				"z": 0.1648832712,
				"element": "C" 
			},
			{
				"x": -2.1872059443,
				"y": 0.1219714729,
				"z": 0.9664366252,
				"element": "C" 
			},
			{
				"x": -2.0449670521,
				"y": 1.4964949643,
				"z": 0.6997061625,
				"element": "C" 
			},
			{
				"x": -1.2190365845,
				"y": 1.9092832954,
				"z": -0.3767756111,
				"element": "C" 
			},
			{
				"x": -1.1936894805,
				"y": 3.6588016583,
				"z": -0.5181705915,
				"element": "S" 
			},
			{
				"x": -2.275425488,
				"y": 3.811497042,
				"z": 0.8484878488,
				"element": "C" 
			},
			{
				"x": -2.6376580465,
				"y": 2.6171453119,
				"z": 1.3837854651,
				"element": "C" 
			},
			{
				"x": -0.5453337802,
				"y": 0.9802552713,
				"z": -1.1758875448,
				"element": "C" 
			},
			{
				"x": -0.6944937929,
				"y": -0.3738949166,
				"z": -0.9016384264,
				"element": "C" 
			},
			{
				"x": -2.812402661,
				"y": -0.2209953252,
				"z": 1.7832329578,
				"element": "H" 
			},
			{
				"x": -2.5788384039,
				"y": 4.7978230963,
				"z": 1.1729719353,
				"element": "H" 
			},
			{
				"x": -3.3017785024,
				"y": 2.5182758896,
				"z": 2.2348099777,
				"element": "H" 
			},
			{
				"x": 0.085558699,
				"y": 1.3020448414,
				"z": -1.998573346,
				"element": "H" 
			},
			{
				"x": -0.1842595827,
				"y": -1.1158149024,
				"z": -1.5044373871,
				"element": "H" 
			}
		],
		 "valence_orbital": [ 
			{
				"type": "occ",
				"energy": -0.30295,
				"method": "rhf"
			},
			{
				"type": "occ",
				"energy": -0.28724,
				"method": "rhf"
			},
			{
				"type": "occ",
				"energy": -0.2864,
				"method": "rhf"
			},
			{
				"type": "occ",
				"energy": -0.23704,
				"method": "rhf"
			},
			{
				"type": "occ",
				"energy": -0.22607,
				"method": "rhf"
			},
			{
				"type": "unocc",
				"energy": -0.03676,
				"method": "rhf"
			},
			{
				"type": "unocc",
				"energy": -0.01411,
				"method": "rhf"
			},
			{
				"type": "unocc",
				"energy": 0.00268,
				"method": "rhf"
			},
			{
				"type": "unocc",
				"energy": 0.02085,
				"method": "rhf"
			},
			{
				"type": "unocc",
				"energy": 0.0385,
				"method": "rhf"
			}
		],
		"cosmo_sigma_profile": { 
			"-0.025": 0.0,
			"-0.024": 0.0,
			"-0.023": 0.0,
			"-0.022": 0.0,
			"-0.021": 0.0,
			"-0.02": 0.0,
			"-0.019": 0.0,
			"-0.018": 0.0,
			"-0.017": 0.0,
			"-0.016": 0.0,
			"-0.015": 0.0,
			"-0.014": 0.0,
			"-0.013": 0.0,
			"-0.012": 0.0,
			"-0.011": 0.0,
			"-0.01": 0.0,
			"-0.009": 1.50995069355,
			"-0.008": 3.29993723676,
			"-0.007": 10.5168548078,
			"-0.006": 10.7820776754,
			"-0.005": 8.59408333965,
			"-0.004": 9.24415753662,
			"-0.003": 9.20864248587,
			"-0.002": 9.62864532626,
			"-0.001": 10.3882867685,
			"0.0": 11.3435907483,
			"0.001": 13.8199299975,
			"0.002": 24.3693784154,
			"0.003": 34.6240266882,
			"0.004": 21.3282669183,
			"0.005": 11.9904561674,
			"0.006": 0.158855451543,
			"0.007": 0.0,
			"0.008": 0.0,
			"0.009": 0.0,
			"0.01": 0.0,
			"0.011": 0.0,
			"0.012": 0.0,
			"0.013": 0.0,
			"0.014": 0.0,
			"0.015": 0.0,
			"0.016": 0.0,
			"0.017": 0.0,
			"0.018": 0.0,
			"0.019": 0.0,
			"0.02": 0.0,
			"0.021": 0.0,
			"0.022": 0.0,
			"0.023": 0.0,
			"0.024": 0.0,
			"0.025": 0.0
		}
	}
}
