{
	 "smiles": "CCOC(=O)C(=CC1=CC=C(O1)C1=CC=CC=C1OC)C#N", 
	 "Tm": 393.15, 
	 "num_atms": 37, 
	 "gaussian": { 
		 "optdone": 1, 
		 "sigma_profile": "yes", 
		 "theory": "DFT", 
		 "functional": "B3LYP", 
		 "basiset": "6-31G**", 
		 "properties": { 
			 "R2extent": 10674.1047, 
			 "electric_dipole_moment_norm": 5.05516532272, 
			 "electric_quadrupole_moment_norm": 23.5897996085, 
			 "total_energy": -1012.46321395, 
			 "HOMO_LUMO_gap": 0.11999, 
			 "cosmo_polarized_energy": -16.35, 
			 "cosmo_cavitation_energy": 43.14, 
			 "cosmo_dispersion_energy": -29.91, 
			 "cosmo_repulsion_energy": 2.26, 
			 "cosmo_total_nonelectrostatic_energy": 15.49, 
			 "SMD_solvation_energy": 10.68 
		},
		"coords": [
			{
				"x": -2.2939316654,
				"y": -2.2420180472,
				"z": 7.0341642571,
				"element": "C" 
			},
			{
				"x": -1.7600533373,
				"y": -0.8294665347,
				"z": 6.8502142208,
				"element": "C" 
			},
			{
				"x": -1.5319871724,
				"y": -0.5322681115,
				"z": 5.4517972313,
				"element": "O" 
			},
			{
				"x": -0.3464155952,
				"y": -0.9120782901,
				"z": 4.9388370993,
				"element": "C" 
			},
			{
				"x": 0.5308218556,
				"y": -1.4725981374,
				"z": 5.5712428082,
				"element": "O" 
			},
			{
				"x": -0.2339833676,
				"y": -0.5563430537,
				"z": 3.4965274456,
				"element": "C" 
			},
			{
				"x": 0.933143844,
				"y": -0.8879119007,
				"z": 2.8613854534,
				"element": "C" 
			},
			{
				"x": 1.3149931304,
				"y": -0.6756390421,
				"z": 1.5152450557,
				"element": "C" 
			},
			{
				"x": 2.4811354135,
				"y": -0.9944441878,
				"z": 0.8390486454,
				"element": "C" 
			},
			{
				"x": 2.3240499724,
				"y": -0.5515975426,
				"z": -0.4900371977,
				"element": "C" 
			},
			{
				"x": 1.0634355277,
				"y": 0.0222938683,
				"z": -0.5733458386,
				"element": "C" 
			},
			{
				"x": 0.4581584364,
				"y": -0.0561626305,
				"z": 0.6443405994,
				"element": "O" 
			},
			{
				"x": 0.2833579975,
				"y": 0.658055519,
				"z": -1.6226439681,
				"element": "C" 
			},
			{
				"x": -1.0080189543,
				"y": 1.1389125258,
				"z": -1.3308275014,
				"element": "C" 
			},
			{
				"x": -1.7869868746,
				"y": 1.7531922935,
				"z": -2.3057271314,
				"element": "C" 
			},
			{
				"x": -1.285304067,
				"y": 1.8986474262,
				"z": -3.5985242453,
				"element": "C" 
			},
			{
				"x": -0.0090813024,
				"y": 1.4324288918,
				"z": -3.9187391567,
				"element": "C" 
			},
			{
				"x": 0.7791038701,
				"y": 0.8140795557,
				"z": -2.9436728931,
				"element": "C" 
			},
			{
				"x": 2.0330600468,
				"y": 0.3357231412,
				"z": -3.1864436122,
				"element": "O" 
			},
			{
				"x": 2.575824294,
				"y": 0.4682910668,
				"z": -4.4932300065,
				"element": "C" 
			},
			{
				"x": -1.3271904957,
				"y": 0.0996921425,
				"z": 2.8563426305,
				"element": "C" 
			},
			{
				"x": -2.2194356771,
				"y": 0.6346174971,
				"z": 2.3321455391,
				"element": "N" 
			},
			{
				"x": -3.204211239,
				"y": -2.3930087567,
				"z": 6.4468275814,
				"element": "H" 
			},
			{
				"x": -1.5468252401,
				"y": -2.9781437004,
				"z": 6.7275807363,
				"element": "H" 
			},
			{
				"x": -2.5320567844,
				"y": -2.4131602333,
				"z": 8.0893311152,
				"element": "H" 
			},
			{
				"x": -0.8254498641,
				"y": -0.6849304075,
				"z": 7.3973807932,
				"element": "H" 
			},
			{
				"x": -2.4887334275,
				"y": -0.0801964139,
				"z": 7.1674950074,
				"element": "H" 
			},
			{
				"x": 1.6706503105,
				"y": -1.3853625828,
				"z": 3.4858431049,
				"element": "H" 
			},
			{
				"x": 3.3408653806,
				"y": -1.4905443616,
				"z": 1.2676038681,
				"element": "H" 
			},
			{
				"x": 3.0287542766,
				"y": -0.6313789395,
				"z": -1.2993175834,
				"element": "H" 
			},
			{
				"x": -1.3940366522,
				"y": 1.0234967181,
				"z": -0.323645929,
				"element": "H" 
			},
			{
				"x": -2.7785583304,
				"y": 2.1147140813,
				"z": -2.0542403222,
				"element": "H" 
			},
			{
				"x": -1.8833936864,
				"y": 2.3764797696,
				"z": -4.3689799404,
				"element": "H" 
			},
			{
				"x": 0.3644350852,
				"y": 1.5539015668,
				"z": -4.9278579035,
				"element": "H" 
			},
			{
				"x": 1.9718607936,
				"y": -0.0669258249,
				"z": -5.2359172991,
				"element": "H" 
			},
			{
				"x": 3.5706362582,
				"y": 0.0228245592,
				"z": -4.4502397146,
				"element": "H" 
			},
			{
				"x": 2.66346724,
				"y": 1.5211280759,
				"z": -4.7875629493,
				"element": "H" 
			}
		],
		 "valence_orbital": [ 
			{
				"type": "occ",
				"energy": -0.29543,
				"method": "rhf"
			},
			{
				"type": "occ",
				"energy": -0.2728,
				"method": "rhf"
			},
			{
				"type": "occ",
				"energy": -0.26677,
				"method": "rhf"
			},
			{
				"type": "occ",
				"energy": -0.23864,
				"method": "rhf"
			},
			{
				"type": "occ",
				"energy": -0.20598,
				"method": "rhf"
			},
			{
				"type": "unocc",
				"energy": -0.08599,
				"method": "rhf"
			},
			{
				"type": "unocc",
				"energy": -0.02354,
				"method": "rhf"
			},
			{
				"type": "unocc",
				"energy": 0.00329,
				"method": "rhf"
			},
			{
				"type": "unocc",
				"energy": 0.03093,
				"method": "rhf"
			},
			{
				"type": "unocc",
				"energy": 0.04214,
				"method": "rhf"
			}
		],
		"cosmo_sigma_profile": { 
			"-0.025": 0.0,
			"-0.024": 0.0,
			"-0.023": 0.0,
			"-0.022": 0.0,
			"-0.021": 0.0,
			"-0.02": 0.0,
			"-0.019": 0.0,
			"-0.018": 0.0,
			"-0.017": 0.0,
			"-0.016": 0.0,
			"-0.015": 0.0,
			"-0.014": 0.0,
			"-0.013": 0.0,
			"-0.012": 0.0,
			"-0.011": 0.0,
			"-0.01": 0.236497965819,
			"-0.009": 3.03921203812,
			"-0.008": 3.60879228581,
			"-0.007": 6.05197424718,
			"-0.006": 19.2298824259,
			"-0.005": 22.9517285601,
			"-0.004": 30.1718375776,
			"-0.003": 29.5394248003,
			"-0.002": 23.98675919,
			"-0.001": 33.1700585837,
			"0.0": 32.7902685041,
			"0.001": 28.0538234933,
			"0.002": 24.3396342858,
			"0.003": 21.2807343546,
			"0.004": 17.3702752908,
			"0.005": 12.3393893768,
			"0.006": 5.11453155072,
			"0.007": 5.07102170413,
			"0.008": 6.70257581096,
			"0.009": 4.91989333235,
			"0.01": 4.57172960276,
			"0.011": 5.49193651068,
			"0.012": 4.57091289656,
			"0.013": 1.58923215764,
			"0.014": 0.188645175084,
			"0.015": 0.0,
			"0.016": 0.0,
			"0.017": 0.0,
			"0.018": 0.0,
			"0.019": 0.0,
			"0.02": 0.0,
			"0.021": 0.0,
			"0.022": 0.0,
			"0.023": 0.0,
			"0.024": 0.0,
			"0.025": 0.0
		}
	}
}
