{
	 "smiles": "CC1=NN(C(=O)C1)C1=NC(C)=CC(C)=N1", 
	 "Tm": 383.15, 
	 "num_atms": 27, 
	 "gaussian": { 
		 "optdone": 1, 
		 "sigma_profile": "yes", 
		 "theory": "DFT", 
		 "functional": "B3LYP", 
		 "basiset": "6-31G**", 
		 "properties": { 
			 "R2extent": 3765.4029, 
			 "electric_dipole_moment_norm": 1.77486571041, 
			 "electric_quadrupole_moment_norm": 24.9106447391, 
			 "total_energy": -682.52252562, 
			 "HOMO_LUMO_gap": 0.19549, 
			 "cosmo_polarized_energy": -19.14, 
			 "cosmo_cavitation_energy": 31.57, 
			 "cosmo_dispersion_energy": -22.91, 
			 "cosmo_repulsion_energy": 1.84, 
			 "cosmo_total_nonelectrostatic_energy": 10.5, 
			 "SMD_solvation_energy": 3.62 
		},
		"coords": [
			{
				"x": 2.2679591645,
				"y": -3.9183145126,
				"z": -1.5312385519,
				"element": "C" 
			},
			{
				"x": 1.6798139209,
				"y": -2.9908424392,
				"z": -0.5195539469,
				"element": "C" 
			},
			{
				"x": 1.2839500781,
				"y": -1.810512625,
				"z": -0.8444858297,
				"element": "N" 
			},
			{
				"x": 0.7829442075,
				"y": -1.1775757044,
				"z": 0.3014530646,
				"element": "N" 
			},
			{
				"x": 0.8560433958,
				"y": -1.9989113704,
				"z": 1.4529934797,
				"element": "C" 
			},
			{
				"x": 0.5095552228,
				"y": -1.7478985352,
				"z": 2.5824338133,
				"element": "O" 
			},
			{
				"x": 1.4822303867,
				"y": -3.2954435725,
				"z": 0.9347064118,
				"element": "C" 
			},
			{
				"x": 0.2879122027,
				"y": 0.1375954659,
				"z": 0.1869577606,
				"element": "C" 
			},
			{
				"x": -0.1757658934,
				"y": 0.6913804204,
				"z": 1.3089361911,
				"element": "N" 
			},
			{
				"x": -0.6467412372,
				"y": 1.9417156876,
				"z": 1.2025765211,
				"element": "C" 
			},
			{
				"x": -1.173455613,
				"y": 2.5790675574,
				"z": 2.4623244256,
				"element": "C" 
			},
			{
				"x": -0.6452837734,
				"y": 2.6141088887,
				"z": -0.0221986793,
				"element": "C" 
			},
			{
				"x": -0.1349452633,
				"y": 1.935913897,
				"z": -1.1327071482,
				"element": "C" 
			},
			{
				"x": -0.08871691,
				"y": 2.5726158337,
				"z": -2.4982083502,
				"element": "C" 
			},
			{
				"x": 0.3370763247,
				"y": 0.6855359139,
				"z": -1.0310432853,
				"element": "N" 
			},
			{
				"x": 2.2908599467,
				"y": -3.4351326594,
				"z": -2.5099578825,
				"element": "H" 
			},
			{
				"x": 3.2885426472,
				"y": -4.2073389674,
				"z": -1.2523818818,
				"element": "H" 
			},
			{
				"x": 1.6822723465,
				"y": -4.84276615,
				"z": -1.6036613364,
				"element": "H" 
			},
			{
				"x": 2.4163160731,
				"y": -3.5075059869,
				"z": 1.4675444015,
				"element": "H" 
			},
			{
				"x": 0.8108765763,
				"y": -4.1425955936,
				"z": 1.1164294253,
				"element": "H" 
			},
			{
				"x": -2.226557132,
				"y": 2.8592610509,
				"z": 2.3475325811,
				"element": "H" 
			},
			{
				"x": -1.0790671019,
				"y": 1.8807544784,
				"z": 3.2947145641,
				"element": "H" 
			},
			{
				"x": -0.6192424918,
				"y": 3.4944545362,
				"z": 2.6981664717,
				"element": "H" 
			},
			{
				"x": -1.026605986,
				"y": 3.6266633624,
				"z": -0.1087001429,
				"element": "H" 
			},
			{
				"x": 0.3438772587,
				"y": 1.874900917,
				"z": -3.2162841964,
				"element": "H" 
			},
			{
				"x": 0.5133123584,
				"y": 3.4880301319,
				"z": -2.4824738007,
				"element": "H" 
			},
			{
				"x": -1.0937607086,
				"y": 2.8525399753,
				"z": -2.8331740796,
				"element": "H" 
			}
		],
		 "valence_orbital": [ 
			{
				"type": "occ",
				"energy": -0.28634,
				"method": "rhf"
			},
			{
				"type": "occ",
				"energy": -0.28105,
				"method": "rhf"
			},
			{
				"type": "occ",
				"energy": -0.25712,
				"method": "rhf"
			},
			{
				"type": "occ",
				"energy": -0.23033,
				"method": "rhf"
			},
			{
				"type": "occ",
				"energy": -0.22315,
				"method": "rhf"
			},
			{
				"type": "unocc",
				"energy": -0.02766,
				"method": "rhf"
			},
			{
				"type": "unocc",
				"energy": -0.02314,
				"method": "rhf"
			},
			{
				"type": "unocc",
				"energy": -0.01543,
				"method": "rhf"
			},
			{
				"type": "unocc",
				"energy": 0.05319,
				"method": "rhf"
			},
			{
				"type": "unocc",
				"energy": 0.0917,
				"method": "rhf"
			}
		],
		"cosmo_sigma_profile": { 
			"-0.025": 0.0,
			"-0.024": 0.0,
			"-0.023": 0.0,
			"-0.022": 0.0,
			"-0.021": 0.0,
			"-0.02": 0.0,
			"-0.019": 0.0,
			"-0.018": 0.0,
			"-0.017": 0.0,
			"-0.016": 0.0,
			"-0.015": 0.0,
			"-0.014": 0.0,
			"-0.013": 0.0,
			"-0.012": 0.0,
			"-0.011": 0.0,
			"-0.01": 0.0,
			"-0.009": 1.86801490103,
			"-0.008": 5.96057006976,
			"-0.007": 7.02894715371,
			"-0.006": 14.3922989188,
			"-0.005": 22.4862628771,
			"-0.004": 24.8958378321,
			"-0.003": 23.0527059606,
			"-0.002": 24.0427552763,
			"-0.001": 28.6083289719,
			"0.0": 21.9524137428,
			"0.001": 11.2332228799,
			"0.002": 8.83973588309,
			"0.003": 5.65983627958,
			"0.004": 4.34012547883,
			"0.005": 4.71285317861,
			"0.006": 3.48818350362,
			"0.007": 3.56030125147,
			"0.008": 3.81938804462,
			"0.009": 2.90916747089,
			"0.01": 4.05728715391,
			"0.011": 4.27658899246,
			"0.012": 5.85321936577,
			"0.013": 3.00378526858,
			"0.014": 2.23548624929,
			"0.015": 2.88880290315,
			"0.016": 1.3858644367,
			"0.017": 1.44837035582,
			"0.018": 1.53971054082,
			"0.019": 0.898034619469,
			"0.02": 0.453822441537,
			"0.021": 0.0171313117445,
			"0.022": 0.0,
			"0.023": 0.0,
			"0.024": 0.0,
			"0.025": 0.0
		}
	}
}
