{
	 "smiles": "C[C@]12CCC3C(CC[C@H]4C[C@@H](O)CC[C@]34C)C1CC[C@@]2(O)C#C", 
	 "Tm": 530.15, 
	 "num_atms": 55, 
	 "gaussian": { 
		 "optdone": 1, 
		 "sigma_profile": "yes", 
		 "theory": "DFT", 
		 "functional": "B3LYP", 
		 "basiset": "6-31G**", 
		 "properties": { 
			 "R2extent": 9354.6039, 
			 "electric_dipole_moment_norm": 2.56227706738, 
			 "electric_quadrupole_moment_norm": 10.1248554607, 
			 "total_energy": -969.902112021, 
			 "HOMO_LUMO_gap": 0.29111, 
			 "cosmo_polarized_energy": -12.5, 
			 "cosmo_cavitation_energy": 47.35, 
			 "cosmo_dispersion_energy": -32.68, 
			 "cosmo_repulsion_energy": 2.4, 
			 "cosmo_total_nonelectrostatic_energy": 17.07, 
			 "SMD_solvation_energy": 7.72 
		},
		"coords": [
			{
				"x": -1.0954261617,
				"y": -1.6002163725,
				"z": 2.3211727659,
				"element": "C" 
			},
			{
				"x": -0.485464371,
				"y": -2.0580346558,
				"z": 0.9849693984,
				"element": "C" 
			},
			{
				"x": 1.0554541893,
				"y": -2.1059039515,
				"z": 1.0969781217,
				"element": "C" 
			},
			{
				"x": 1.7230477464,
				"y": -0.7140245514,
				"z": 1.2377375401,
				"element": "C" 
			},
			{
				"x": 0.935370612,
				"y": 0.422643088,
				"z": 0.5404854882,
				"element": "C" 
			},
			{
				"x": 0.2351205205,
				"y": -0.1917423582,
				"z": -0.6996285003,
				"element": "C" 
			},
			{
				"x": -0.2803620798,
				"y": 0.8834110318,
				"z": -1.6628897934,
				"element": "C" 
			},
			{
				"x": 0.8658955181,
				"y": 1.7748175784,
				"z": -2.1924733834,
				"element": "C" 
			},
			{
				"x": 2.1088123555,
				"y": 1.7934928267,
				"z": -1.2738085202,
				"element": "C" 
			},
			{
				"x": 3.0385536586,
				"y": 2.9632920903,
				"z": -1.6460362144,
				"element": "C" 
			},
			{
				"x": 4.3027598487,
				"y": 3.0195102338,
				"z": -0.7831917524,
				"element": "C" 
			},
			{
				"x": 5.08993042,
				"y": 4.1754388664,
				"z": -1.0631116525,
				"element": "O" 
			},
			{
				"x": 3.9349550254,
				"y": 3.0624913921,
				"z": 0.6967857566,
				"element": "C" 
			},
			{
				"x": 3.0465308197,
				"y": 1.8658809618,
				"z": 1.0721298422,
				"element": "C" 
			},
			{
				"x": 1.737751725,
				"y": 1.7613223021,
				"z": 0.2397546408,
				"element": "C" 
			},
			{
				"x": 0.8325958164,
				"y": 2.9582171539,
				"z": 0.6232206813,
				"element": "C" 
			},
			{
				"x": -0.8922942786,
				"y": -1.1508049112,
				"z": -0.2448456122,
				"element": "C" 
			},
			{
				"x": -1.3489822805,
				"y": -2.1189060109,
				"z": -1.3776501393,
				"element": "C" 
			},
			{
				"x": -0.883639432,
				"y": -3.5168934947,
				"z": -0.9449208501,
				"element": "C" 
			},
			{
				"x": -1.05086999,
				"y": -3.4730032263,
				"z": 0.5873435402,
				"element": "C" 
			},
			{
				"x": -2.4555268867,
				"y": -3.4516650038,
				"z": 0.8994922751,
				"element": "O" 
			},
			{
				"x": -0.4176539959,
				"y": -4.6068062532,
				"z": 1.276344297,
				"element": "C" 
			},
			{
				"x": 0.0606450552,
				"y": -5.571563978,
				"z": 1.8256848974,
				"element": "C" 
			},
			{
				"x": -2.1774771481,
				"y": -1.4840269535,
				"z": 2.2424038383,
				"element": "H" 
			},
			{
				"x": -0.6683595481,
				"y": -0.6483398043,
				"z": 2.6476559338,
				"element": "H" 
			},
			{
				"x": -0.8940749902,
				"y": -2.3401086446,
				"z": 3.1038286337,
				"element": "H" 
			},
			{
				"x": 1.3426569914,
				"y": -2.7372988533,
				"z": 1.9435387555,
				"element": "H" 
			},
			{
				"x": 1.4625220646,
				"y": -2.6013224448,
				"z": 0.2087515483,
				"element": "H" 
			},
			{
				"x": 2.7268360046,
				"y": -0.7982949349,
				"z": 0.8080447455,
				"element": "H" 
			},
			{
				"x": 1.8674878684,
				"y": -0.4693415792,
				"z": 2.2955143664,
				"element": "H" 
			},
			{
				"x": 0.1298976804,
				"y": 0.7175125995,
				"z": 1.2252123528,
				"element": "H" 
			},
			{
				"x": 0.981964064,
				"y": -0.7877496399,
				"z": -1.2486777152,
				"element": "H" 
			},
			{
				"x": -0.8112090469,
				"y": 0.4206112304,
				"z": -2.5024756018,
				"element": "H" 
			},
			{
				"x": -1.0295140207,
				"y": 1.4903298802,
				"z": -1.1389868696,
				"element": "H" 
			},
			{
				"x": 1.1809209343,
				"y": 1.4304243911,
				"z": -3.1854245439,
				"element": "H" 
			},
			{
				"x": 0.5000846322,
				"y": 2.7991580848,
				"z": -2.3344361935,
				"element": "H" 
			},
			{
				"x": 2.6739875053,
				"y": 0.8674349897,
				"z": -1.4622847961,
				"element": "H" 
			},
			{
				"x": 2.512515183,
				"y": 3.9206356237,
				"z": -1.539968019,
				"element": "H" 
			},
			{
				"x": 3.3153394432,
				"y": 2.8794142693,
				"z": -2.707672208,
				"element": "H" 
			},
			{
				"x": 4.8967498282,
				"y": 2.1054633573,
				"z": -0.9669813281,
				"element": "H" 
			},
			{
				"x": 5.3042621994,
				"y": 4.1651816062,
				"z": -2.0051280013,
				"element": "H" 
			},
			{
				"x": 3.4373286789,
				"y": 4.0174149346,
				"z": 0.9015607173,
				"element": "H" 
			},
			{
				"x": 4.8507300259,
				"y": 3.0537275352,
				"z": 1.2984802119,
				"element": "H" 
			},
			{
				"x": 3.6457194905,
				"y": 0.9601219316,
				"z": 0.9315836948,
				"element": "H" 
			},
			{
				"x": 2.8022876624,
				"y": 1.9081080309,
				"z": 2.140656878,
				"element": "H" 
			},
			{
				"x": 1.2851899155,
				"y": 3.9230197778,
				"z": 0.3799188793,
				"element": "H" 
			},
			{
				"x": -0.138879717,
				"y": 2.919550581,
				"z": 0.1248384705,
				"element": "H" 
			},
			{
				"x": 0.6432840789,
				"y": 2.9500126856,
				"z": 1.7027934301,
				"element": "H" 
			},
			{
				"x": -1.7417455754,
				"y": -0.526466333,
				"z": 0.0589435617,
				"element": "H" 
			},
			{
				"x": -0.942090884,
				"y": -1.8394265992,
				"z": -2.3545094492,
				"element": "H" 
			},
			{
				"x": -2.4384477579,
				"y": -2.1104753035,
				"z": -1.4637987393,
				"element": "H" 
			},
			{
				"x": -1.4670616284,
				"y": -4.3324319191,
				"z": -1.3859893548,
				"element": "H" 
			},
			{
				"x": 0.1651032653,
				"y": -3.6929469216,
				"z": -1.2053126876,
				"element": "H" 
			},
			{
				"x": -2.8028785736,
				"y": -4.3330833902,
				"z": 0.707777904,
				"element": "H" 
			},
			{
				"x": 0.4878675391,
				"y": -6.4149609457,
				"z": 2.3170987585,
				"element": "H" 
			}
		],
		 "valence_orbital": [ 
			{
				"type": "occ",
				"energy": -0.27422,
				"method": "rhf"
			},
			{
				"type": "occ",
				"energy": -0.26829,
				"method": "rhf"
			},
			{
				"type": "occ",
				"energy": -0.26637,
				"method": "rhf"
			},
			{
				"type": "occ",
				"energy": -0.25772,
				"method": "rhf"
			},
			{
				"type": "occ",
				"energy": -0.25414,
				"method": "rhf"
			},
			{
				"type": "unocc",
				"energy": 0.03697,
				"method": "rhf"
			},
			{
				"type": "unocc",
				"energy": 0.04905,
				"method": "rhf"
			},
			{
				"type": "unocc",
				"energy": 0.07162,
				"method": "rhf"
			},
			{
				"type": "unocc",
				"energy": 0.08003,
				"method": "rhf"
			},
			{
				"type": "unocc",
				"energy": 0.0809,
				"method": "rhf"
			}
		],
		"cosmo_sigma_profile": { 
			"-0.025": 0.0,
			"-0.024": 0.0,
			"-0.023": 0.0,
			"-0.022": 0.0,
			"-0.021": 0.0,
			"-0.02": 0.0,
			"-0.019": 0.0,
			"-0.018": 0.0,
			"-0.017": 0.0,
			"-0.016": 0.0904542069623,
			"-0.015": 1.06779703801,
			"-0.014": 1.66988843763,
			"-0.013": 1.93447368182,
			"-0.012": 1.66930743943,
			"-0.011": 3.09910954993,
			"-0.01": 3.13769631942,
			"-0.009": 2.26633034516,
			"-0.008": 2.90091682666,
			"-0.007": 3.49259583261,
			"-0.006": 2.71492606619,
			"-0.005": 4.02685001625,
			"-0.004": 6.31975530873,
			"-0.003": 18.4568783665,
			"-0.002": 51.2484297869,
			"-0.001": 70.896275468,
			"0.0": 57.2796397187,
			"0.001": 44.7798926736,
			"0.002": 24.6525144526,
			"0.003": 9.37636730108,
			"0.004": 8.22487539239,
			"0.005": 8.95102833671,
			"0.006": 8.68717291571,
			"0.007": 5.55502577398,
			"0.008": 3.83139181628,
			"0.009": 3.42099568886,
			"0.01": 2.05261049991,
			"0.011": 3.53255048687,
			"0.012": 2.11287128581,
			"0.013": 2.06036055961,
			"0.014": 1.80365153945,
			"0.015": 1.54118888357,
			"0.016": 0.000441540637288,
			"0.017": 0.0,
			"0.018": 0.0,
			"0.019": 0.0,
			"0.02": 0.0,
			"0.021": 0.0,
			"0.022": 0.0,
			"0.023": 0.0,
			"0.024": 0.0,
			"0.025": 0.0
		}
	}
}
