{
	 "smiles": "CN1C=CN=C1C(=O)OCC(F)(F)F", 
	 "Tm": 357.15, 
	 "num_atms": 21, 
	 "gaussian": { 
		 "optdone": 1, 
		 "sigma_profile": "yes", 
		 "theory": "DFT", 
		 "functional": "B3LYP", 
		 "basiset": "6-31G**", 
		 "properties": { 
			 "R2extent": 3508.3837, 
			 "electric_dipole_moment_norm": 3.93128869583, 
			 "electric_quadrupole_moment_norm": 10.4436409298, 
			 "total_energy": -830.439186073, 
			 "HOMO_LUMO_gap": 0.19722, 
			 "cosmo_polarized_energy": -13.16, 
			 "cosmo_cavitation_energy": 27.58, 
			 "cosmo_dispersion_energy": -19.32, 
			 "cosmo_repulsion_energy": 1.47, 
			 "cosmo_total_nonelectrostatic_energy": 9.72, 
			 "SMD_solvation_energy": 5.84 
		},
		"coords": [
			{
				"x": 0.4946845141,
				"y": 1.4688085383,
				"z": 3.116183672,
				"element": "C" 
			},
			{
				"x": 1.3440842365,
				"y": 0.5917741405,
				"z": 2.3122592115,
				"element": "N" 
			},
			{
				"x": 2.7108547402,
				"y": 0.5751493491,
				"z": 2.3358469015,
				"element": "C" 
			},
			{
				"x": 3.1044862004,
				"y": -0.3916916788,
				"z": 1.4292594724,
				"element": "C" 
			},
			{
				"x": 2.0189080292,
				"y": -0.967716903,
				"z": 0.8489803631,
				"element": "N" 
			},
			{
				"x": 0.9668201728,
				"y": -0.3648543453,
				"z": 1.3912221355,
				"element": "C" 
			},
			{
				"x": -0.4416587458,
				"y": -0.6389833881,
				"z": 1.0909436029,
				"element": "C" 
			},
			{
				"x": -1.3820146638,
				"y": -0.0830108223,
				"z": 1.6299127581,
				"element": "O" 
			},
			{
				"x": -0.5689943247,
				"y": -1.6069985794,
				"z": 0.1463418636,
				"element": "O" 
			},
			{
				"x": -1.8964544945,
				"y": -1.9237697973,
				"z": -0.2574243904,
				"element": "C" 
			},
			{
				"x": -2.1984818051,
				"y": -1.2710115496,
				"z": -1.5965486478,
				"element": "C" 
			},
			{
				"x": -2.0758510347,
				"y": 0.0678138556,
				"z": -1.5335520521,
				"element": "F" 
			},
			{
				"x": -3.4684984625,
				"y": -1.5622168519,
				"z": -1.9545173707,
				"element": "F" 
			},
			{
				"x": -1.3824919403,
				"y": -1.714072641,
				"z": -2.5686018687,
				"element": "F" 
			},
			{
				"x": -0.1516431289,
				"y": 0.8814368249,
				"z": 3.7696901933,
				"element": "H" 
			},
			{
				"x": 1.1416658454,
				"y": 2.1106095591,
				"z": 3.7160601622,
				"element": "H" 
			},
			{
				"x": -0.1386967955,
				"y": 2.0806263057,
				"z": 2.4728065862,
				"element": "H" 
			},
			{
				"x": 3.2724531549,
				"y": 1.2365332937,
				"z": 2.9786377017,
				"element": "H" 
			},
			{
				"x": 4.1120253752,
				"y": -0.6904711241,
				"z": 1.1748069478,
				"element": "H" 
			},
			{
				"x": -2.6243451825,
				"y": -1.5745274692,
				"z": 0.4766680267,
				"element": "H" 
			},
			{
				"x": -1.9540516906,
				"y": -3.0074267168,
				"z": -0.3746752688,
				"element": "H" 
			}
		],
		 "valence_orbital": [ 
			{
				"type": "occ",
				"energy": -0.3146,
				"method": "rhf"
			},
			{
				"type": "occ",
				"energy": -0.296,
				"method": "rhf"
			},
			{
				"type": "occ",
				"energy": -0.28669,
				"method": "rhf"
			},
			{
				"type": "occ",
				"energy": -0.27634,
				"method": "rhf"
			},
			{
				"type": "occ",
				"energy": -0.24299,
				"method": "rhf"
			},
			{
				"type": "unocc",
				"energy": -0.04577,
				"method": "rhf"
			},
			{
				"type": "unocc",
				"energy": 0.04418,
				"method": "rhf"
			},
			{
				"type": "unocc",
				"energy": 0.08635,
				"method": "rhf"
			},
			{
				"type": "unocc",
				"energy": 0.09183,
				"method": "rhf"
			},
			{
				"type": "unocc",
				"energy": 0.09578,
				"method": "rhf"
			}
		],
		"cosmo_sigma_profile": { 
			"-0.025": 0.0,
			"-0.024": 0.0,
			"-0.023": 0.0,
			"-0.022": 0.0,
			"-0.021": 0.0,
			"-0.02": 0.0,
			"-0.019": 0.0,
			"-0.018": 0.0,
			"-0.017": 0.0,
			"-0.016": 0.0,
			"-0.015": 0.0,
			"-0.014": 0.0,
			"-0.013": 0.0,
			"-0.012": 0.0,
			"-0.011": 0.0,
			"-0.01": 2.47343961587,
			"-0.009": 6.0037184876,
			"-0.008": 6.4821764173,
			"-0.007": 9.4338937478,
			"-0.006": 12.0136011686,
			"-0.005": 13.0039645714,
			"-0.004": 15.3473050909,
			"-0.003": 15.6604467438,
			"-0.002": 11.093946444,
			"-0.001": 9.74923394764,
			"0.0": 11.5104151351,
			"0.001": 13.0147193282,
			"0.002": 30.6418122233,
			"0.003": 26.0684640422,
			"0.004": 6.27976603484,
			"0.005": 4.5705361014,
			"0.006": 3.89589280964,
			"0.007": 3.57962494776,
			"0.008": 2.25190692323,
			"0.009": 3.35639874441,
			"0.01": 3.75706882848,
			"0.011": 3.39908377817,
			"0.012": 1.60510429721,
			"0.013": 1.30043822597,
			"0.014": 1.35544260563,
			"0.015": 0.880627739532,
			"0.016": 1.39962728523,
			"0.017": 0.588746189441,
			"0.018": 0.0167900954114,
			"0.019": 0.0,
			"0.02": 0.0,
			"0.021": 0.0,
			"0.022": 0.0,
			"0.023": 0.0,
			"0.024": 0.0,
			"0.025": 0.0
		}
	}
}
