{
	 "smiles": "COC(=O)C1=CC(=CC(=C1)C(=O)OC)C(=O)OC", 
	 "Tm": 418.65, 
	 "num_atms": 30, 
	 "gaussian": { 
		 "optdone": 1, 
		 "sigma_profile": "yes", 
		 "theory": "DFT", 
		 "functional": "B3LYP", 
		 "basiset": "6-31G**", 
		 "properties": { 
			 "R2extent": 6472.3468, 
			 "electric_dipole_moment_norm": 3.29657568091, 
			 "electric_quadrupole_moment_norm": 20.9527128198, 
			 "total_energy": -915.885642105, 
			 "HOMO_LUMO_gap": 0.21023, 
			 "cosmo_polarized_energy": -13.82, 
			 "cosmo_cavitation_energy": 36.37, 
			 "cosmo_dispersion_energy": -25.89, 
			 "cosmo_repulsion_energy": 2.02, 
			 "cosmo_total_nonelectrostatic_energy": 12.5, 
			 "SMD_solvation_energy": 11.09 
		},
		"coords": [
			{
				"x": -5.1285994145,
				"y": 0.5009545381,
				"z": 1.7685958645,
				"element": "C" 
			},
			{
				"x": -3.7504589571,
				"y": 0.4344844967,
				"z": 1.3676785973,
				"element": "O" 
			},
			{
				"x": -3.4913320992,
				"y": 0.8918392006,
				"z": 0.1227211998,
				"element": "C" 
			},
			{
				"x": -4.3466728888,
				"y": 1.3310133158,
				"z": -0.6191353644,
				"element": "O" 
			},
			{
				"x": -2.0427561003,
				"y": 0.7936790086,
				"z": -0.2275521142,
				"element": "C" 
			},
			{
				"x": -1.6457438288,
				"y": 1.2367907455,
				"z": -1.4926767957,
				"element": "C" 
			},
			{
				"x": -0.3018355224,
				"y": 1.1684422535,
				"z": -1.8736393972,
				"element": "C" 
			},
			{
				"x": 0.6470958195,
				"y": 0.654624918,
				"z": -0.9843803717,
				"element": "C" 
			},
			{
				"x": 0.2527670776,
				"y": 0.2102717963,
				"z": 0.2827254975,
				"element": "C" 
			},
			{
				"x": -1.0923054983,
				"y": 0.2792947519,
				"z": 0.6624478413,
				"element": "C" 
			},
			{
				"x": 1.3108635216,
				"y": -0.3280236429,
				"z": 1.1883321511,
				"element": "C" 
			},
			{
				"x": 2.4877053828,
				"y": -0.4044965852,
				"z": 0.8957865972,
				"element": "O" 
			},
			{
				"x": 0.814636309,
				"y": -0.7252907779,
				"z": 2.380268798,
				"element": "O" 
			},
			{
				"x": 1.7825978881,
				"y": -1.2547544996,
				"z": 3.3006496483,
				"element": "C" 
			},
			{
				"x": 0.0626000409,
				"y": 1.6567058064,
				"z": -3.2377589397,
				"element": "C" 
			},
			{
				"x": -0.7328115955,
				"y": 2.1087711421,
				"z": -4.0366606783,
				"element": "O" 
			},
			{
				"x": 1.3841253043,
				"y": 1.5390778716,
				"z": -3.4872657739,
				"element": "O" 
			},
			{
				"x": 1.8057204024,
				"y": 1.9908258022,
				"z": -4.7844087047,
				"element": "C" 
			},
			{
				"x": -5.1595593129,
				"y": 0.0991036172,
				"z": 2.7810923207,
				"element": "H" 
			},
			{
				"x": -5.7525303252,
				"y": -0.0952260851,
				"z": 1.0982044576,
				"element": "H" 
			},
			{
				"x": -5.483349412,
				"y": 1.5344299597,
				"z": 1.7532542082,
				"element": "H" 
			},
			{
				"x": -2.382523729,
				"y": 1.6350015739,
				"z": -2.181115636,
				"element": "H" 
			},
			{
				"x": 1.6925137747,
				"y": 0.5935787661,
				"z": -1.2610574205,
				"element": "H" 
			},
			{
				"x": -1.3972809977,
				"y": -0.0641931027,
				"z": 1.6421744676,
				"element": "H" 
			},
			{
				"x": 1.2212000055,
				"y": -1.5217523829,
				"z": 4.1956763771,
				"element": "H" 
			},
			{
				"x": 2.5425808839,
				"y": -0.5044402677,
				"z": 3.5321726837,
				"element": "H" 
			},
			{
				"x": 2.2737001697,
				"y": -2.1343850811,
				"z": 2.8773069666,
				"element": "H" 
			},
			{
				"x": 1.5736064136,
				"y": 3.0505865265,
				"z": -4.9156024421,
				"element": "H" 
			},
			{
				"x": 1.3048469078,
				"y": 1.4205939444,
				"z": -5.5706294615,
				"element": "H" 
			},
			{
				"x": 2.8823997803,
				"y": 1.82619239,
				"z": -4.8165045765,
				"element": "H" 
			}
		],
		 "valence_orbital": [ 
			{
				"type": "occ",
				"energy": -0.28705,
				"method": "rhf"
			},
			{
				"type": "occ",
				"energy": -0.27901,
				"method": "rhf"
			},
			{
				"type": "occ",
				"energy": -0.27727,
				"method": "rhf"
			},
			{
				"type": "occ",
				"energy": -0.27479,
				"method": "rhf"
			},
			{
				"type": "occ",
				"energy": -0.27291,
				"method": "rhf"
			},
			{
				"type": "unocc",
				"energy": -0.06268,
				"method": "rhf"
			},
			{
				"type": "unocc",
				"energy": -0.06253,
				"method": "rhf"
			},
			{
				"type": "unocc",
				"energy": -0.01168,
				"method": "rhf"
			},
			{
				"type": "unocc",
				"energy": 0.07436,
				"method": "rhf"
			},
			{
				"type": "unocc",
				"energy": 0.07546,
				"method": "rhf"
			}
		],
		"cosmo_sigma_profile": { 
			"-0.025": 0.0,
			"-0.024": 0.0,
			"-0.023": 0.0,
			"-0.022": 0.0,
			"-0.021": 0.0,
			"-0.02": 0.0,
			"-0.019": 0.0,
			"-0.018": 0.0,
			"-0.017": 0.0,
			"-0.016": 0.0,
			"-0.015": 0.0,
			"-0.014": 0.0,
			"-0.013": 0.0,
			"-0.012": 0.0,
			"-0.011": 0.0,
			"-0.01": 0.0,
			"-0.009": 0.0,
			"-0.008": 0.0,
			"-0.007": 3.54528971842,
			"-0.006": 16.7895049485,
			"-0.005": 21.0320707554,
			"-0.004": 30.9881702858,
			"-0.003": 37.3784097948,
			"-0.002": 26.000170595,
			"-0.001": 32.8679754428,
			"0.0": 25.7420271129,
			"0.001": 13.0567301401,
			"0.002": 12.2169638478,
			"0.003": 9.90180109929,
			"0.004": 10.41212206,
			"0.005": 8.08966242353,
			"0.006": 4.18257965166,
			"0.007": 4.17225084627,
			"0.008": 4.258906539,
			"0.009": 5.29193512257,
			"0.01": 6.23663999459,
			"0.011": 12.1424372533,
			"0.012": 5.9577918342,
			"0.013": 0.0,
			"0.014": 0.0,
			"0.015": 0.0,
			"0.016": 0.0,
			"0.017": 0.0,
			"0.018": 0.0,
			"0.019": 0.0,
			"0.02": 0.0,
			"0.021": 0.0,
			"0.022": 0.0,
			"0.023": 0.0,
			"0.024": 0.0,
			"0.025": 0.0
		}
	}
}
