{
	 "smiles": "CC(C)(C)OC(=O)NC1=CSC=C1", 
	 "Tm": 412.15, 
	 "num_atms": 26, 
	 "gaussian": { 
		 "optdone": 1, 
		 "sigma_profile": "yes", 
		 "theory": "DFT", 
		 "functional": "B3LYP", 
		 "basiset": "6-31G**", 
		 "properties": { 
			 "R2extent": 3923.1457, 
			 "electric_dipole_moment_norm": 1.63055390282, 
			 "electric_quadrupole_moment_norm": 7.73063848915, 
			 "total_energy": -954.197526215, 
			 "HOMO_LUMO_gap": 0.19939, 
			 "cosmo_polarized_energy": -9.51, 
			 "cosmo_cavitation_energy": 30.41, 
			 "cosmo_dispersion_energy": -22.15, 
			 "cosmo_repulsion_energy": 1.69, 
			 "cosmo_total_nonelectrostatic_energy": 9.96, 
			 "SMD_solvation_energy": 6.56 
		},
		"coords": [
			{
				"x": 2.0986512947,
				"y": 2.0478781457,
				"z": -1.0945842742,
				"element": "C" 
			},
			{
				"x": 1.8403849771,
				"y": 0.5473848097,
				"z": -0.936484754,
				"element": "C" 
			},
			{
				"x": 1.5814607535,
				"y": -0.1060370084,
				"z": -2.2974794504,
				"element": "C" 
			},
			{
				"x": 2.9862636678,
				"y": -0.124015495,
				"z": -0.1732240915,
				"element": "C" 
			},
			{
				"x": 0.6082154163,
				"y": 0.5187241978,
				"z": -0.1217986548,
				"element": "O" 
			},
			{
				"x": 0.0521437281,
				"y": -0.6540930174,
				"z": 0.2358548779,
				"element": "C" 
			},
			{
				"x": 0.4634071032,
				"y": -1.7684134551,
				"z": -0.0455717898,
				"element": "O" 
			},
			{
				"x": -1.0894511875,
				"y": -0.4897282195,
				"z": 0.991935015,
				"element": "N" 
			},
			{
				"x": -1.7785173308,
				"y": 0.6441256559,
				"z": 1.4568835362,
				"element": "C" 
			},
			{
				"x": -2.9225382378,
				"y": 0.5150779497,
				"z": 2.2101734132,
				"element": "C" 
			},
			{
				"x": -3.5772855016,
				"y": 2.055476169,
				"z": 2.6565222969,
				"element": "S" 
			},
			{
				"x": -2.3041527537,
				"y": 2.8814445863,
				"z": 1.8246527535,
				"element": "C" 
			},
			{
				"x": -1.4242184842,
				"y": 2.0186044006,
				"z": 1.2362046339,
				"element": "C" 
			},
			{
				"x": 1.2599291573,
				"y": 2.5347544329,
				"z": -1.6010547773,
				"element": "H" 
			},
			{
				"x": 3.0015443508,
				"y": 2.2106300136,
				"z": -1.6903798313,
				"element": "H" 
			},
			{
				"x": 2.2402703362,
				"y": 2.5222133244,
				"z": -0.1188950476,
				"element": "H" 
			},
			{
				"x": 0.7286192153,
				"y": 0.3699041856,
				"z": -2.7916996284,
				"element": "H" 
			},
			{
				"x": 1.3788684453,
				"y": -1.1713781763,
				"z": -2.1878429419,
				"element": "H" 
			},
			{
				"x": 2.4603211674,
				"y": 0.0237241974,
				"z": -2.93732425,
				"element": "H" 
			},
			{
				"x": 2.7978970087,
				"y": -1.1895880266,
				"z": -0.0424517926,
				"element": "H" 
			},
			{
				"x": 3.1106861638,
				"y": 0.3392727509,
				"z": 0.8106414989,
				"element": "H" 
			},
			{
				"x": 3.9201517654,
				"y": 0.0051910133,
				"z": -0.7298218239,
				"element": "H" 
			},
			{
				"x": -1.4825203927,
				"y": -1.3851527682,
				"z": 1.2437680877,
				"element": "H" 
			},
			{
				"x": -3.4102005688,
				"y": -0.3976173106,
				"z": 2.5231719305,
				"element": "H" 
			},
			{
				"x": -2.2739460547,
				"y": 3.9619006002,
				"z": 1.8149394345,
				"element": "H" 
			},
			{
				"x": -0.5605840391,
				"y": 2.329117044,
				"z": 0.6696656296,
				"element": "H" 
			}
		],
		 "valence_orbital": [ 
			{
				"type": "occ",
				"energy": -0.31257,
				"method": "rhf"
			},
			{
				"type": "occ",
				"energy": -0.2935,
				"method": "rhf"
			},
			{
				"type": "occ",
				"energy": -0.26954,
				"method": "rhf"
			},
			{
				"type": "occ",
				"energy": -0.24337,
				"method": "rhf"
			},
			{
				"type": "occ",
				"energy": -0.21042,
				"method": "rhf"
			},
			{
				"type": "unocc",
				"energy": -0.01103,
				"method": "rhf"
			},
			{
				"type": "unocc",
				"energy": 0.03153,
				"method": "rhf"
			},
			{
				"type": "unocc",
				"energy": 0.03641,
				"method": "rhf"
			},
			{
				"type": "unocc",
				"energy": 0.07565,
				"method": "rhf"
			},
			{
				"type": "unocc",
				"energy": 0.08123,
				"method": "rhf"
			}
		],
		"cosmo_sigma_profile": { 
			"-0.025": 0.0,
			"-0.024": 0.0,
			"-0.023": 0.0,
			"-0.022": 0.0,
			"-0.021": 0.0,
			"-0.02": 0.0,
			"-0.019": 0.0,
			"-0.018": 0.0,
			"-0.017": 0.0,
			"-0.016": 0.0,
			"-0.015": 0.664105377318,
			"-0.014": 1.02055971349,
			"-0.013": 1.13967615336,
			"-0.012": 0.949197195947,
			"-0.011": 0.956614498296,
			"-0.01": 1.26725307156,
			"-0.009": 2.00649817104,
			"-0.008": 4.50118195011,
			"-0.007": 3.22210721197,
			"-0.006": 4.35642685919,
			"-0.005": 5.74563540228,
			"-0.004": 17.1564588331,
			"-0.003": 21.7954229467,
			"-0.002": 20.9445686348,
			"-0.001": 23.5043211784,
			"0.0": 30.7426519687,
			"0.001": 24.7880140417,
			"0.002": 14.9740527768,
			"0.003": 14.1310220468,
			"0.004": 17.5301237686,
			"0.005": 14.1859240654,
			"0.006": 3.43949808192,
			"0.007": 1.49321205412,
			"0.008": 0.741023494628,
			"0.009": 1.42730212798,
			"0.01": 1.5807315571,
			"0.011": 1.75316290035,
			"0.012": 2.08407957827,
			"0.013": 3.43077552126,
			"0.014": 0.690155686702,
			"0.015": 0.0,
			"0.016": 0.0,
			"0.017": 0.0,
			"0.018": 0.0,
			"0.019": 0.0,
			"0.02": 0.0,
			"0.021": 0.0,
			"0.022": 0.0,
			"0.023": 0.0,
			"0.024": 0.0,
			"0.025": 0.0
		}
	}
}
