{
	 "smiles": "CCC(C)(C)Cl", 
	 "Tm": 199.65, 
	 "num_atms": 17, 
	 "gaussian": { 
		 "optdone": 1, 
		 "sigma_profile": "yes", 
		 "theory": "DFT", 
		 "functional": "B3LYP", 
		 "basiset": "6-31G**", 
		 "properties": { 
			 "R2extent": 987.0643, 
			 "electric_dipole_moment_norm": 2.39398995821, 
			 "electric_quadrupole_moment_norm": 5.23485161776, 
			 "total_energy": -657.379849027, 
			 "HOMO_LUMO_gap": 0.30557, 
			 "cosmo_polarized_energy": -4.03, 
			 "cosmo_cavitation_energy": 19.99, 
			 "cosmo_dispersion_energy": -14.62, 
			 "cosmo_repulsion_energy": 1.24, 
			 "cosmo_total_nonelectrostatic_energy": 6.61, 
			 "SMD_solvation_energy": 3.34 
		},
		"coords": [
			{
				"x": 1.1656060458,
				"y": -1.3164276845,
				"z": 0.1796042969,
				"element": "C" 
			},
			{
				"x": -0.3208633291,
				"y": -1.0859411154,
				"z": 0.4627862776,
				"element": "C" 
			},
			{
				"x": -1.0185308749,
				"y": 0.0259099681,
				"z": -0.3411834139,
				"element": "C" 
			},
			{
				"x": -2.4939691967,
				"y": 0.1263664902,
				"z": 0.0490465128,
				"element": "C" 
			},
			{
				"x": -0.3219314361,
				"y": 1.3820030845,
				"z": -0.2279979467,
				"element": "C" 
			},
			{
				"x": -0.9809135718,
				"y": -0.4572528665,
				"z": -2.1446371353,
				"element": "Cl" 
			},
			{
				"x": 1.7732088736,
				"y": -0.4426721094,
				"z": 0.4342891797,
				"element": "H" 
			},
			{
				"x": 1.3340571831,
				"y": -1.552913619,
				"z": -0.8744423317,
				"element": "H" 
			},
			{
				"x": 1.5343889893,
				"y": -2.1561559537,
				"z": 0.7768990779,
				"element": "H" 
			},
			{
				"x": -0.4540344477,
				"y": -0.8274862826,
				"z": 1.5232090203,
				"element": "H" 
			},
			{
				"x": -0.8746009193,
				"y": -2.0176285965,
				"z": 0.3015618839,
				"element": "H" 
			},
			{
				"x": -2.5722914864,
				"y": 0.4292580033,
				"z": 1.1001164176,
				"element": "H" 
			},
			{
				"x": -3.0002430155,
				"y": -0.8349895886,
				"z": -0.0703674901,
				"element": "H" 
			},
			{
				"x": -3.0127175603,
				"y": 0.8693590762,
				"z": -0.5618143376,
				"element": "H" 
			},
			{
				"x": -0.2983740945,
				"y": 1.6901855516,
				"z": 0.8244904006,
				"element": "H" 
			},
			{
				"x": 0.7040659868,
				"y": 1.3436179371,
				"z": -0.5985493439,
				"element": "H" 
			},
			{
				"x": -0.8623571463,
				"y": 2.1434677052,
				"z": -0.795911068,
				"element": "H" 
			}
		],
		 "valence_orbital": [ 
			{
				"type": "occ",
				"energy": -0.34451,
				"method": "rhf"
			},
			{
				"type": "occ",
				"energy": -0.33858,
				"method": "rhf"
			},
			{
				"type": "occ",
				"energy": -0.3362,
				"method": "rhf"
			},
			{
				"type": "occ",
				"energy": -0.2851,
				"method": "rhf"
			},
			{
				"type": "occ",
				"energy": -0.28398,
				"method": "rhf"
			},
			{
				"type": "unocc",
				"energy": 0.02159,
				"method": "rhf"
			},
			{
				"type": "unocc",
				"energy": 0.07801,
				"method": "rhf"
			},
			{
				"type": "unocc",
				"energy": 0.12065,
				"method": "rhf"
			},
			{
				"type": "unocc",
				"energy": 0.13508,
				"method": "rhf"
			},
			{
				"type": "unocc",
				"energy": 0.1422,
				"method": "rhf"
			}
		],
		"cosmo_sigma_profile": { 
			"-0.025": 0.0,
			"-0.024": 0.0,
			"-0.023": 0.0,
			"-0.022": 0.0,
			"-0.021": 0.0,
			"-0.02": 0.0,
			"-0.019": 0.0,
			"-0.018": 0.0,
			"-0.017": 0.0,
			"-0.016": 0.0,
			"-0.015": 0.0,
			"-0.014": 0.0,
			"-0.013": 0.0,
			"-0.012": 0.0,
			"-0.011": 0.0,
			"-0.01": 0.0,
			"-0.009": 0.0,
			"-0.008": 0.0,
			"-0.007": 0.0,
			"-0.006": 0.153449789116,
			"-0.005": 4.08756952685,
			"-0.004": 14.0848909479,
			"-0.003": 20.5065646556,
			"-0.002": 20.5459410892,
			"-0.001": 23.5636622017,
			"0.0": 21.8834607087,
			"0.001": 12.9011976899,
			"0.002": 6.58229701106,
			"0.003": 5.12795989755,
			"0.004": 4.89795262666,
			"0.005": 5.27300072659,
			"0.006": 5.56716582416,
			"0.007": 8.14507482327,
			"0.008": 3.21684084568,
			"0.009": 0.0,
			"0.01": 0.0,
			"0.011": 0.0,
			"0.012": 0.0,
			"0.013": 0.0,
			"0.014": 0.0,
			"0.015": 0.0,
			"0.016": 0.0,
			"0.017": 0.0,
			"0.018": 0.0,
			"0.019": 0.0,
			"0.02": 0.0,
			"0.021": 0.0,
			"0.022": 0.0,
			"0.023": 0.0,
			"0.024": 0.0,
			"0.025": 0.0
		}
	}
}
