{
	 "smiles": "CC[C@H](C1=CC2=C(C=CC=C2)[C@H](C)N=N1)C(C)(C)C", 
	 "Tm": 386.5, 
	 "num_atms": 43, 
	 "gaussian": { 
		 "optdone": 1, 
		 "sigma_profile": "yes", 
		 "theory": "DFT", 
		 "functional": "B3LYP", 
		 "basiset": "6-31G**", 
		 "properties": { 
			 "R2extent": 5995.0761, 
			 "electric_dipole_moment_norm": 2.48175041654, 
			 "electric_quadrupole_moment_norm": 10.5280142254, 
			 "total_energy": -771.740141149, 
			 "HOMO_LUMO_gap": 0.15271, 
			 "cosmo_polarized_energy": -8.65, 
			 "cosmo_cavitation_energy": 42.17, 
			 "cosmo_dispersion_energy": -28.27, 
			 "cosmo_repulsion_energy": 2.16, 
			 "cosmo_total_nonelectrostatic_energy": 16.06, 
			 "SMD_solvation_energy": 4.12 
		},
		"coords": [
			{
				"x": -0.3956841987,
				"y": -0.294440079,
				"z": -3.4983268177,
				"element": "C" 
			},
			{
				"x": -1.0966901087,
				"y": -0.9186211464,
				"z": -2.2858472749,
				"element": "C" 
			},
			{
				"x": -1.1914914222,
				"y": 0.0304492695,
				"z": -1.0672782569,
				"element": "C" 
			},
			{
				"x": 0.1958868013,
				"y": 0.329799872,
				"z": -0.5024966021,
				"element": "C" 
			},
			{
				"x": 1.1004555965,
				"y": -0.6303899143,
				"z": -0.1408786879,
				"element": "C" 
			},
			{
				"x": 2.4185495185,
				"y": -0.4248157289,
				"z": 0.4267104281,
				"element": "C" 
			},
			{
				"x": 3.1719594316,
				"y": 0.749922079,
				"z": 0.1686944882,
				"element": "C" 
			},
			{
				"x": 4.4048725234,
				"y": 0.9307432662,
				"z": 0.8120440513,
				"element": "C" 
			},
			{
				"x": 4.9222572596,
				"y": -0.0510017348,
				"z": 1.650059964,
				"element": "C" 
			},
			{
				"x": 4.2106272092,
				"y": -1.2398006183,
				"z": 1.8629148468,
				"element": "C" 
			},
			{
				"x": 2.9780618317,
				"y": -1.4225304833,
				"z": 1.2557183673,
				"element": "C" 
			},
			{
				"x": 2.5979903523,
				"y": 1.7328472401,
				"z": -0.814864381,
				"element": "C" 
			},
			{
				"x": 3.5071293366,
				"y": 2.8731311809,
				"z": -1.256410859,
				"element": "C" 
			},
			{
				"x": 1.3978481067,
				"y": 2.3409643723,
				"z": -0.145796079,
				"element": "N" 
			},
			{
				"x": 0.3438940506,
				"y": 1.6760372187,
				"z": -0.1203636008,
				"element": "N" 
			},
			{
				"x": -2.2654368457,
				"y": -0.4127222298,
				"z": 0.0089758886,
				"element": "C" 
			},
			{
				"x": -3.6736187513,
				"y": -0.2921915579,
				"z": -0.6152936223,
				"element": "C" 
			},
			{
				"x": -2.0568232212,
				"y": -1.8622113052,
				"z": 0.4894876816,
				"element": "C" 
			},
			{
				"x": -2.2165216671,
				"y": 0.5251831044,
				"z": 1.2321918543,
				"element": "C" 
			},
			{
				"x": 0.6394025816,
				"y": -0.0216270147,
				"z": -3.2698829014,
				"element": "H" 
			},
			{
				"x": -0.3752612642,
				"y": -0.9930985297,
				"z": -4.3411458973,
				"element": "H" 
			},
			{
				"x": -0.9137008601,
				"y": 0.6124333469,
				"z": -3.8302225166,
				"element": "H" 
			},
			{
				"x": -0.5799492474,
				"y": -1.8438978634,
				"z": -2.0061350435,
				"element": "H" 
			},
			{
				"x": -2.1058983661,
				"y": -1.2185110838,
				"z": -2.5849786035,
				"element": "H" 
			},
			{
				"x": -1.5552963315,
				"y": 0.9982090837,
				"z": -1.4387844664,
				"element": "H" 
			},
			{
				"x": 0.7705599228,
				"y": -1.66539897,
				"z": -0.1931504617,
				"element": "H" 
			},
			{
				"x": 4.977120221,
				"y": 1.8340937836,
				"z": 0.6306541844,
				"element": "H" 
			},
			{
				"x": 5.888497926,
				"y": 0.0970147898,
				"z": 2.1234999501,
				"element": "H" 
			},
			{
				"x": 4.6201519387,
				"y": -2.012932712,
				"z": 2.5063962589,
				"element": "H" 
			},
			{
				"x": 2.4124616652,
				"y": -2.3334711681,
				"z": 1.4341377452,
				"element": "H" 
			},
			{
				"x": 2.2392442654,
				"y": 1.1702229981,
				"z": -1.6906778019,
				"element": "H" 
			},
			{
				"x": 2.9800590311,
				"y": 3.5075465078,
				"z": -1.9742957908,
				"element": "H" 
			},
			{
				"x": 4.4139200007,
				"y": 2.4916490965,
				"z": -1.7352066832,
				"element": "H" 
			},
			{
				"x": 3.7904813552,
				"y": 3.5023230847,
				"z": -0.4080415059,
				"element": "H" 
			},
			{
				"x": -3.8263137317,
				"y": -0.9809449507,
				"z": -1.4516785646,
				"element": "H" 
			},
			{
				"x": -4.4380715045,
				"y": -0.521367637,
				"z": 0.1351558678,
				"element": "H" 
			},
			{
				"x": -3.8597707199,
				"y": 0.7254256013,
				"z": -0.9768580947,
				"element": "H" 
			},
			{
				"x": -2.8390220335,
				"y": -2.1321466009,
				"z": 1.2077500753,
				"element": "H" 
			},
			{
				"x": -2.1067625019,
				"y": -2.5829955598,
				"z": -0.3331216026,
				"element": "H" 
			},
			{
				"x": -1.0961849331,
				"y": -1.9866498232,
				"z": 0.9983072828,
				"element": "H" 
			},
			{
				"x": -1.2682233904,
				"y": 0.4451438303,
				"z": 1.7700988003,
				"element": "H" 
			},
			{
				"x": -3.0214767304,
				"y": 0.2681074613,
				"z": 1.9300808321,
				"element": "H" 
			},
			{
				"x": -2.3377330961,
				"y": 1.572519524,
				"z": 0.9404575489,
				"element": "H" 
			}
		],
		 "valence_orbital": [ 
			{
				"type": "occ",
				"energy": -0.30147,
				"method": "rhf"
			},
			{
				"type": "occ",
				"energy": -0.28841,
				"method": "rhf"
			},
			{
				"type": "occ",
				"energy": -0.25828,
				"method": "rhf"
			},
			{
				"type": "occ",
				"energy": -0.22783,
				"method": "rhf"
			},
			{
				"type": "occ",
				"energy": -0.21178,
				"method": "rhf"
			},
			{
				"type": "unocc",
				"energy": -0.05907,
				"method": "rhf"
			},
			{
				"type": "unocc",
				"energy": -0.01321,
				"method": "rhf"
			},
			{
				"type": "unocc",
				"energy": -0.00299,
				"method": "rhf"
			},
			{
				"type": "unocc",
				"energy": 0.05075,
				"method": "rhf"
			},
			{
				"type": "unocc",
				"energy": 0.07928,
				"method": "rhf"
			}
		],
		"cosmo_sigma_profile": { 
			"-0.025": 0.0,
			"-0.024": 0.0,
			"-0.023": 0.0,
			"-0.022": 0.0,
			"-0.021": 0.0,
			"-0.02": 0.0,
			"-0.019": 0.0,
			"-0.018": 0.0,
			"-0.017": 0.0,
			"-0.016": 0.0,
			"-0.015": 0.0,
			"-0.014": 0.0,
			"-0.013": 0.0,
			"-0.012": 0.0,
			"-0.011": 0.0,
			"-0.01": 0.0,
			"-0.009": 0.0,
			"-0.008": 0.0,
			"-0.007": 0.369104919274,
			"-0.006": 8.09441762877,
			"-0.005": 13.9421644431,
			"-0.004": 21.8758718874,
			"-0.003": 28.341419385,
			"-0.002": 49.2657677037,
			"-0.001": 39.9565051025,
			"0.0": 41.7304124236,
			"0.001": 40.1695987033,
			"0.002": 31.0251864355,
			"0.003": 12.6523063097,
			"0.004": 12.9721292154,
			"0.005": 9.90416984731,
			"0.006": 2.43360454975,
			"0.007": 2.09170922722,
			"0.008": 2.23847545019,
			"0.009": 1.77530979342,
			"0.01": 2.04593750003,
			"0.011": 2.08490941667,
			"0.012": 2.6361975984,
			"0.013": 1.43094257275,
			"0.014": 1.09383287094,
			"0.015": 0.548485349194,
			"0.016": 0.0276180148946,
			"0.017": 0.0,
			"0.018": 0.0,
			"0.019": 0.0,
			"0.02": 0.0,
			"0.021": 0.0,
			"0.022": 0.0,
			"0.023": 0.0,
			"0.024": 0.0,
			"0.025": 0.0
		}
	}
}
