{
	 "smiles": "BrC1=CC2=C(NC3=C2CNCC3)C=C1", 
	 "Tm": 490.15, 
	 "num_atms": 25, 
	 "gaussian": { 
		 "optdone": 1, 
		 "sigma_profile": "yes", 
		 "theory": "DFT", 
		 "functional": "B3LYP", 
		 "basiset": "6-31G**", 
		 "properties": { 
			 "R2extent": 7690.9704, 
			 "electric_dipole_moment_norm": 4.78492945089, 
			 "electric_quadrupole_moment_norm": 16.35988947, 
			 "total_energy": -3106.71247358, 
			 "HOMO_LUMO_gap": 0.18677, 
			 "cosmo_polarized_energy": -12.0, 
			 "cosmo_cavitation_energy": 29.7, 
			 "cosmo_dispersion_energy": -22.78, 
			 "cosmo_repulsion_energy": 1.79, 
			 "cosmo_total_nonelectrostatic_energy": 8.7, 
			 "SMD_solvation_energy": 0.2 
		},
		"coords": [
			{
				"x": -5.1802666361,
				"y": -2.9315357539,
				"z": -1.4247288997,
				"element": "Br" 
			},
			{
				"x": -4.0941464124,
				"y": -1.400796957,
				"z": -1.0240067335,
				"element": "C" 
			},
			{
				"x": -2.8269685921,
				"y": -1.5937339729,
				"z": -0.4935791067,
				"element": "C" 
			},
			{
				"x": -2.048934578,
				"y": -0.4588582509,
				"z": -0.2075071393,
				"element": "C" 
			},
			{
				"x": -2.5863139849,
				"y": 0.8345953115,
				"z": -0.4717384206,
				"element": "C" 
			},
			{
				"x": -1.6290922058,
				"y": 1.7607879733,
				"z": -0.1040006726,
				"element": "N" 
			},
			{
				"x": -0.5133934481,
				"y": 1.0944139887,
				"z": 0.3768296532,
				"element": "C" 
			},
			{
				"x": -0.7328271496,
				"y": -0.2600960707,
				"z": 0.3383839432,
				"element": "C" 
			},
			{
				"x": 0.3156912651,
				"y": -1.2407380518,
				"z": 0.7983812743,
				"element": "C" 
			},
			{
				"x": 1.3949449558,
				"y": -0.6006199053,
				"z": 1.5688999528,
				"element": "N" 
			},
			{
				"x": 1.8415165786,
				"y": 0.6610756913,
				"z": 0.9761437737,
				"element": "C" 
			},
			{
				"x": 0.7389090628,
				"y": 1.7465322215,
				"z": 0.8697958563,
				"element": "C" 
			},
			{
				"x": -3.864234634,
				"y": 1.0118758979,
				"z": -1.0063619081,
				"element": "C" 
			},
			{
				"x": -4.6204366234,
				"y": -0.122825844,
				"z": -1.2832185177,
				"element": "C" 
			},
			{
				"x": -2.4541134151,
				"y": -2.5949424422,
				"z": -0.3088244877,
				"element": "H" 
			},
			{
				"x": -1.7207649494,
				"y": 2.7603903684,
				"z": -0.1856865737,
				"element": "H" 
			},
			{
				"x": -0.1232428988,
				"y": -2.0297470458,
				"z": 1.4206984114,
				"element": "H" 
			},
			{
				"x": 0.7681771912,
				"y": -1.7524136398,
				"z": -0.0643471089,
				"element": "H" 
			},
			{
				"x": 1.0574654975,
				"y": -0.4191139315,
				"z": 2.5120333954,
				"element": "H" 
			},
			{
				"x": 2.6859228476,
				"y": 1.0434094083,
				"z": 1.5590974533,
				"element": "H" 
			},
			{
				"x": 2.2193541734,
				"y": 0.4383831393,
				"z": -0.0293924765,
				"element": "H" 
			},
			{
				"x": 1.0643732575,
				"y": 2.5514270628,
				"z": 0.1962017319,
				"element": "H" 
			},
			{
				"x": 0.5729939416,
				"y": 2.2139366107,
				"z": 1.8523983023,
				"element": "H" 
			},
			{
				"x": -4.2653130522,
				"y": 2.0017764577,
				"z": -1.2046096445,
				"element": "H" 
			},
			{
				"x": -5.6166001911,
				"y": -0.0275822651,
				"z": -1.6987620583,
				"element": "H" 
			}
		],
		 "valence_orbital": [ 
			{
				"type": "occ",
				"energy": -0.27437,
				"method": "rhf"
			},
			{
				"type": "occ",
				"energy": -0.27404,
				"method": "rhf"
			},
			{
				"type": "occ",
				"energy": -0.22682,
				"method": "rhf"
			},
			{
				"type": "occ",
				"energy": -0.21371,
				"method": "rhf"
			},
			{
				"type": "occ",
				"energy": -0.20184,
				"method": "rhf"
			},
			{
				"type": "unocc",
				"energy": -0.01507,
				"method": "rhf"
			},
			{
				"type": "unocc",
				"energy": 0.01811,
				"method": "rhf"
			},
			{
				"type": "unocc",
				"energy": 0.01942,
				"method": "rhf"
			},
			{
				"type": "unocc",
				"energy": 0.06143,
				"method": "rhf"
			},
			{
				"type": "unocc",
				"energy": 0.07757,
				"method": "rhf"
			}
		],
		"cosmo_sigma_profile": { 
			"-0.025": 0.0,
			"-0.024": 0.0,
			"-0.023": 0.0,
			"-0.022": 0.0,
			"-0.021": 0.0,
			"-0.02": 0.0,
			"-0.019": 0.0,
			"-0.018": 0.0,
			"-0.017": 0.0,
			"-0.016": 0.186945307026,
			"-0.015": 1.2609214615,
			"-0.014": 1.43056469258,
			"-0.013": 0.646557272049,
			"-0.012": 1.78984807657,
			"-0.011": 1.00706281769,
			"-0.01": 1.98109626833,
			"-0.009": 2.88659508319,
			"-0.008": 2.43625904286,
			"-0.007": 4.79186961626,
			"-0.006": 7.6504300866,
			"-0.005": 8.70069979652,
			"-0.004": 19.8501913644,
			"-0.003": 22.920577957,
			"-0.002": 22.15221866,
			"-0.001": 17.5502139654,
			"0.0": 12.5998234126,
			"0.001": 10.4402552131,
			"0.002": 12.5844703736,
			"0.003": 15.5448461335,
			"0.004": 21.9097285825,
			"0.005": 29.7183185642,
			"0.006": 10.4202363707,
			"0.007": 1.09682149247,
			"0.008": 0.567322200189,
			"0.009": 0.95249592011,
			"0.01": 0.69347741194,
			"0.011": 0.517852237603,
			"0.012": 0.598281631548,
			"0.013": 0.868672080868,
			"0.014": 0.50925778802,
			"0.015": 0.546476875036,
			"0.016": 0.453168933232,
			"0.017": 0.633902966897,
			"0.018": 0.485549485435,
			"0.019": 0.145107340436,
			"0.02": 0.0,
			"0.021": 0.0,
			"0.022": 0.0,
			"0.023": 0.0,
			"0.024": 0.0,
			"0.025": 0.0
		}
	}
}
