{
	 "smiles": "CC1=C2C(NC=C2C=O)=CC=C1", 
	 "Tm": 462.15, 
	 "num_atms": 21, 
	 "gaussian": { 
		 "optdone": 1, 
		 "sigma_profile": "yes", 
		 "theory": "DFT", 
		 "functional": "B3LYP", 
		 "basiset": "6-31G**", 
		 "properties": { 
			 "R2extent": 2247.4753, 
			 "electric_dipole_moment_norm": 4.00557893568, 
			 "electric_quadrupole_moment_norm": 18.1524126223, 
			 "total_energy": -516.466935218, 
			 "HOMO_LUMO_gap": 0.17216, 
			 "cosmo_polarized_energy": -13.56, 
			 "cosmo_cavitation_energy": 24.76, 
			 "cosmo_dispersion_energy": -18.26, 
			 "cosmo_repulsion_energy": 1.43, 
			 "cosmo_total_nonelectrostatic_energy": 7.92, 
			 "SMD_solvation_energy": 5.16 
		},
		"coords": [
			{
				"x": 1.6033176907,
				"y": 1.3646911408,
				"z": 2.6575419754,
				"element": "C" 
			},
			{
				"x": 0.6532830938,
				"y": 0.502145511,
				"z": 1.8645771916,
				"element": "C" 
			},
			{
				"x": 0.4854780866,
				"y": 0.6519320328,
				"z": 0.4673483496,
				"element": "C" 
			},
			{
				"x": -0.430303483,
				"y": -0.2014227516,
				"z": -0.2056718484,
				"element": "C" 
			},
			{
				"x": -0.4113535767,
				"y": 0.1429548016,
				"z": -1.5507058248,
				"element": "N" 
			},
			{
				"x": 0.4660201553,
				"y": 1.1640866262,
				"z": -1.752498155,
				"element": "C" 
			},
			{
				"x": 1.0512486126,
				"y": 1.5238830982,
				"z": -0.5506949244,
				"element": "C" 
			},
			{
				"x": 2.0377994729,
				"y": 2.5980711326,
				"z": -0.4698035944,
				"element": "C" 
			},
			{
				"x": 2.4147024181,
				"y": 3.2486143563,
				"z": -1.4353083302,
				"element": "O" 
			},
			{
				"x": -1.1805983549,
				"y": -1.1879504807,
				"z": 0.4387184896,
				"element": "C" 
			},
			{
				"x": -1.0001301312,
				"y": -1.3171211007,
				"z": 1.8086429348,
				"element": "C" 
			},
			{
				"x": -0.0996394289,
				"y": -0.4850430759,
				"z": 2.4995750943,
				"element": "C" 
			},
			{
				"x": 1.5866285717,
				"y": 1.0916799539,
				"z": 3.7160921473,
				"element": "H" 
			},
			{
				"x": 1.34339781,
				"y": 2.4271736305,
				"z": 2.5826902639,
				"element": "H" 
			},
			{
				"x": 2.6354620182,
				"y": 1.2616604807,
				"z": 2.3024480614,
				"element": "H" 
			},
			{
				"x": -0.9648327341,
				"y": -0.2979253205,
				"z": -2.2686268559,
				"element": "H" 
			},
			{
				"x": 0.6384861962,
				"y": 1.5902624968,
				"z": -2.7297886629,
				"element": "H" 
			},
			{
				"x": 2.4474357466,
				"y": 2.8101832656,
				"z": 0.5374962845,
				"element": "H" 
			},
			{
				"x": -1.8719019074,
				"y": -1.822977716,
				"z": -0.1074527816,
				"element": "H" 
			},
			{
				"x": -1.5590711956,
				"y": -2.0686601237,
				"z": 2.3578607567,
				"element": "H" 
			},
			{
				"x": 0.0148709392,
				"y": -0.6159379579,
				"z": 3.5724594285,
				"element": "H" 
			}
		],
		 "valence_orbital": [ 
			{
				"type": "occ",
				"energy": -0.33585,
				"method": "rhf"
			},
			{
				"type": "occ",
				"energy": -0.27713,
				"method": "rhf"
			},
			{
				"type": "occ",
				"energy": -0.23781,
				"method": "rhf"
			},
			{
				"type": "occ",
				"energy": -0.2336,
				"method": "rhf"
			},
			{
				"type": "occ",
				"energy": -0.21296,
				"method": "rhf"
			},
			{
				"type": "unocc",
				"energy": -0.0408,
				"method": "rhf"
			},
			{
				"type": "unocc",
				"energy": -0.00568,
				"method": "rhf"
			},
			{
				"type": "unocc",
				"energy": 0.02014,
				"method": "rhf"
			},
			{
				"type": "unocc",
				"energy": 0.06712,
				"method": "rhf"
			},
			{
				"type": "unocc",
				"energy": 0.09737,
				"method": "rhf"
			}
		],
		"cosmo_sigma_profile": { 
			"-0.025": 0.0,
			"-0.024": 0.0,
			"-0.023": 0.0,
			"-0.022": 0.0,
			"-0.021": 0.0,
			"-0.02": 0.0,
			"-0.019": 0.0,
			"-0.018": 0.0,
			"-0.017": 0.4775566729,
			"-0.016": 1.92074572439,
			"-0.015": 1.31297157367,
			"-0.014": 1.68977175205,
			"-0.013": 1.27602747986,
			"-0.012": 1.14390845409,
			"-0.011": 1.27066371326,
			"-0.01": 1.47973607353,
			"-0.009": 2.9170316192,
			"-0.008": 2.79223739662,
			"-0.007": 2.51574121628,
			"-0.006": 4.45343108031,
			"-0.005": 12.2017366932,
			"-0.004": 18.3613394442,
			"-0.003": 14.0247659144,
			"-0.002": 12.9315444717,
			"-0.001": 13.3766683354,
			"0.0": 13.0274636971,
			"0.001": 12.5491759931,
			"0.002": 13.0218914037,
			"0.003": 14.4363677095,
			"0.004": 11.6405530784,
			"0.005": 10.3465024598,
			"0.006": 8.84280443793,
			"0.007": 2.73922929698,
			"0.008": 1.43531309831,
			"0.009": 1.95919750835,
			"0.01": 1.82720469761,
			"0.011": 1.66858586597,
			"0.012": 4.28031276915,
			"0.013": 4.20106848159,
			"0.014": 1.55043467707,
			"0.015": 0.176321736366,
			"0.016": 0.0,
			"0.017": 0.0,
			"0.018": 0.0,
			"0.019": 0.0,
			"0.02": 0.0,
			"0.021": 0.0,
			"0.022": 0.0,
			"0.023": 0.0,
			"0.024": 0.0,
			"0.025": 0.0
		}
	}
}
