{
	 "smiles": "COC1=CC=C(C=C1)C1(CCCCC1)C(O)=O", 
	 "Tm": 447.15, 
	 "num_atms": 35, 
	 "gaussian": { 
		 "optdone": 1, 
		 "sigma_profile": "yes", 
		 "theory": "DFT", 
		 "functional": "B3LYP", 
		 "basiset": "6-31G**", 
		 "properties": { 
			 "R2extent": 5361.9484, 
			 "electric_dipole_moment_norm": 2.76958476671, 
			 "electric_quadrupole_moment_norm": 7.9354210071, 
			 "total_energy": -770.018321335, 
			 "HOMO_LUMO_gap": 0.20891, 
			 "cosmo_polarized_energy": -11.27, 
			 "cosmo_cavitation_energy": 35.5, 
			 "cosmo_dispersion_energy": -25.56, 
			 "cosmo_repulsion_energy": 1.99, 
			 "cosmo_total_nonelectrostatic_energy": 11.94, 
			 "SMD_solvation_energy": 7.08 
		},
		"coords": [
			{
				"x": -0.8691494862,
				"y": 2.4119517284,
				"z": 4.4636156193,
				"element": "C" 
			},
			{
				"x": -1.7491460453,
				"y": 1.9459344208,
				"z": 3.4539655649,
				"element": "O" 
			},
			{
				"x": -1.2266624361,
				"y": 1.6621552841,
				"z": 2.225155054,
				"element": "C" 
			},
			{
				"x": -2.1406922052,
				"y": 1.2125967711,
				"z": 1.2601035687,
				"element": "C" 
			},
			{
				"x": -1.704588945,
				"y": 0.891451757,
				"z": -0.0163977796,
				"element": "C" 
			},
			{
				"x": -0.3488110436,
				"y": 0.9977798209,
				"z": -0.3848252199,
				"element": "C" 
			},
			{
				"x": 0.5407472177,
				"y": 1.4693253569,
				"z": 0.5827102961,
				"element": "C" 
			},
			{
				"x": 0.1199141131,
				"y": 1.7938962277,
				"z": 1.8779885816,
				"element": "C" 
			},
			{
				"x": 0.0724476671,
				"y": 0.6332349527,
				"z": -1.8267897043,
				"element": "C" 
			},
			{
				"x": 1.6026737698,
				"y": 0.7747299276,
				"z": -2.0635803293,
				"element": "C" 
			},
			{
				"x": 2.0424298091,
				"y": 0.0210990756,
				"z": -3.3259064704,
				"element": "C" 
			},
			{
				"x": 1.8761091602,
				"y": -1.5070297517,
				"z": -3.1366984584,
				"element": "C" 
			},
			{
				"x": 0.7637309032,
				"y": -1.8290616464,
				"z": -2.1150715475,
				"element": "C" 
			},
			{
				"x": -0.3836572202,
				"y": -0.8171812697,
				"z": -2.2104805046,
				"element": "C" 
			},
			{
				"x": -0.6902215725,
				"y": 1.6301436501,
				"z": -2.7189562753,
				"element": "C" 
			},
			{
				"x": -0.1507681013,
				"y": 2.8736256224,
				"z": -2.7003105652,
				"element": "O" 
			},
			{
				"x": -1.6963872033,
				"y": 1.3867075551,
				"z": -3.3523669399,
				"element": "O" 
			},
			{
				"x": -1.4844117701,
				"y": 2.5727696081,
				"z": 5.3503271217,
				"element": "H" 
			},
			{
				"x": -0.0897634214,
				"y": 1.6741483894,
				"z": 4.6949229469,
				"element": "H" 
			},
			{
				"x": -0.3912546347,
				"y": 3.358838423,
				"z": 4.1802460812,
				"element": "H" 
			},
			{
				"x": -3.1869165671,
				"y": 1.1267929954,
				"z": 1.5353205184,
				"element": "H" 
			},
			{
				"x": -2.4345116042,
				"y": 0.563417046,
				"z": -0.7509765922,
				"element": "H" 
			},
			{
				"x": 1.5904558066,
				"y": 1.6003886754,
				"z": 0.3470602832,
				"element": "H" 
			},
			{
				"x": 0.8507067118,
				"y": 2.1484514466,
				"z": 2.59532439,
				"element": "H" 
			},
			{
				"x": 1.8784443481,
				"y": 1.8301888033,
				"z": -2.1134714424,
				"element": "H" 
			},
			{
				"x": 2.1343592138,
				"y": 0.347366956,
				"z": -1.2068672504,
				"element": "H" 
			},
			{
				"x": 3.0823284108,
				"y": 0.2670639956,
				"z": -3.5661655687,
				"element": "H" 
			},
			{
				"x": 1.445363011,
				"y": 0.3645127741,
				"z": -4.1805284972,
				"element": "H" 
			},
			{
				"x": 2.8214377957,
				"y": -1.9491415368,
				"z": -2.8003550067,
				"element": "H" 
			},
			{
				"x": 1.6430265211,
				"y": -1.9737513344,
				"z": -4.1008683971,
				"element": "H" 
			},
			{
				"x": 1.1714008481,
				"y": -1.8241880384,
				"z": -1.0962861603,
				"element": "H" 
			},
			{
				"x": 0.3787134564,
				"y": -2.8412655534,
				"z": -2.2808424429,
				"element": "H" 
			},
			{
				"x": -1.2150067299,
				"y": -1.1257720781,
				"z": -1.5727358453,
				"element": "H" 
			},
			{
				"x": -0.775187442,
				"y": -0.8055187002,
				"z": -3.2320306799,
				"element": "H" 
			},
			{
				"x": -0.7393523355,
				"y": 3.422838646,
				"z": -3.2445283483,
				"element": "H" 
			}
		],
		 "valence_orbital": [ 
			{
				"type": "occ",
				"energy": -0.30103,
				"method": "rhf"
			},
			{
				"type": "occ",
				"energy": -0.29602,
				"method": "rhf"
			},
			{
				"type": "occ",
				"energy": -0.26826,
				"method": "rhf"
			},
			{
				"type": "occ",
				"energy": -0.24829,
				"method": "rhf"
			},
			{
				"type": "occ",
				"energy": -0.21401,
				"method": "rhf"
			},
			{
				"type": "unocc",
				"energy": -0.0051,
				"method": "rhf"
			},
			{
				"type": "unocc",
				"energy": 0.00221,
				"method": "rhf"
			},
			{
				"type": "unocc",
				"energy": 0.02981,
				"method": "rhf"
			},
			{
				"type": "unocc",
				"energy": 0.07646,
				"method": "rhf"
			},
			{
				"type": "unocc",
				"energy": 0.09139,
				"method": "rhf"
			}
		],
		"cosmo_sigma_profile": { 
			"-0.025": 0.0,
			"-0.024": 0.0,
			"-0.023": 0.0,
			"-0.022": 0.0,
			"-0.021": 0.0,
			"-0.02": 0.0,
			"-0.019": 0.0,
			"-0.018": 0.565402726229,
			"-0.017": 1.05403544144,
			"-0.016": 0.4971787624,
			"-0.015": 1.28741719316,
			"-0.014": 0.38994243374,
			"-0.013": 0.375276541434,
			"-0.012": 0.426345215772,
			"-0.011": 1.43109720076,
			"-0.01": 0.987593834682,
			"-0.009": 0.268584174343,
			"-0.008": 0.434195027502,
			"-0.007": 0.991408272746,
			"-0.006": 7.08963320144,
			"-0.005": 16.3565338741,
			"-0.004": 18.1197467337,
			"-0.003": 27.3276289899,
			"-0.002": 30.3940137563,
			"-0.001": 34.6076968537,
			"0.0": 27.397080088,
			"0.001": 25.4473214632,
			"0.002": 11.0586424132,
			"0.003": 11.7260642578,
			"0.004": 12.9027980021,
			"0.005": 14.190115795,
			"0.006": 8.47032815523,
			"0.007": 4.51048405625,
			"0.008": 4.5963294071,
			"0.009": 3.87876806812,
			"0.01": 3.16610399425,
			"0.011": 3.17008132373,
			"0.012": 4.32570689548,
			"0.013": 0.342667759196,
			"0.014": 0.0,
			"0.015": 0.0,
			"0.016": 0.0,
			"0.017": 0.0,
			"0.018": 0.0,
			"0.019": 0.0,
			"0.02": 0.0,
			"0.021": 0.0,
			"0.022": 0.0,
			"0.023": 0.0,
			"0.024": 0.0,
			"0.025": 0.0
		}
	}
}
