{
	 "smiles": "CNC(=O)COC1=CC(Br)=CC=C1", 
	 "Tm": 368.15, 
	 "num_atms": 23, 
	 "gaussian": { 
		 "optdone": 1, 
		 "sigma_profile": "yes", 
		 "theory": "DFT", 
		 "functional": "B3LYP", 
		 "basiset": "6-31G**", 
		 "properties": { 
			 "R2extent": 6203.6934, 
			 "electric_dipole_moment_norm": 1.38961655503, 
			 "electric_quadrupole_moment_norm": 14.8068118604, 
			 "total_energy": -3125.59179533, 
			 "HOMO_LUMO_gap": 0.21446, 
			 "cosmo_polarized_energy": -11.65, 
			 "cosmo_cavitation_energy": 29.54, 
			 "cosmo_dispersion_energy": -21.68, 
			 "cosmo_repulsion_energy": 1.76, 
			 "cosmo_total_nonelectrostatic_energy": 9.62, 
			 "SMD_solvation_energy": 4.62 
		},
		"coords": [
			{
				"x": 0.4197710783,
				"y": 1.326795055,
				"z": -2.5541078618,
				"element": "C" 
			},
			{
				"x": -0.525578937,
				"y": 0.4532171124,
				"z": -1.8831054351,
				"element": "N" 
			},
			{
				"x": -1.7486824596,
				"y": 0.8757612505,
				"z": -1.4727204338,
				"element": "C" 
			},
			{
				"x": -2.1994943567,
				"y": 2.0027265888,
				"z": -1.640116554,
				"element": "O" 
			},
			{
				"x": -2.608322459,
				"y": -0.2056633878,
				"z": -0.8037777588,
				"element": "C" 
			},
			{
				"x": -1.872333205,
				"y": -1.3018245446,
				"z": -0.2657036894,
				"element": "O" 
			},
			{
				"x": -1.2858989107,
				"y": -1.1525827726,
				"z": 0.9675222514,
				"element": "C" 
			},
			{
				"x": -0.7507652961,
				"y": -2.3276971885,
				"z": 1.5129872959,
				"element": "C" 
			},
			{
				"x": -0.129864092,
				"y": -2.2725447944,
				"z": 2.7538413864,
				"element": "C" 
			},
			{
				"x": 0.5987197439,
				"y": -3.8775783146,
				"z": 3.4957918186,
				"element": "Br" 
			},
			{
				"x": -0.0279246529,
				"y": -1.0807476383,
				"z": 3.4733734373,
				"element": "C" 
			},
			{
				"x": -0.5660030588,
				"y": 0.0752307379,
				"z": 2.9120622567,
				"element": "C" 
			},
			{
				"x": -1.1936429804,
				"y": 0.057842792,
				"z": 1.6634735666,
				"element": "C" 
			},
			{
				"x": 1.3390465508,
				"y": 1.4408941901,
				"z": -1.9691475064,
				"element": "H" 
			},
			{
				"x": 0.6789170169,
				"y": 0.9406547409,
				"z": -3.5459311685,
				"element": "H" 
			},
			{
				"x": -0.0571005145,
				"y": 2.3013785492,
				"z": -2.6647901523,
				"element": "H" 
			},
			{
				"x": -0.2668339171,
				"y": -0.4985925953,
				"z": -1.666354821,
				"element": "H" 
			},
			{
				"x": -3.2631365176,
				"y": -0.6409380425,
				"z": -1.5647960783,
				"element": "H" 
			},
			{
				"x": -3.2378132482,
				"y": 0.2743006141,
				"z": -0.0490583823,
				"element": "H" 
			},
			{
				"x": -0.8364429618,
				"y": -3.2561994838,
				"z": 0.9618105657,
				"element": "H" 
			},
			{
				"x": 0.4591577856,
				"y": -1.0611369464,
				"z": 4.4406620081,
				"element": "H" 
			},
			{
				"x": -0.4927240052,
				"y": 1.0139896421,
				"z": 3.4530361458,
				"element": "H" 
			},
			{
				"x": -1.5858506029,
				"y": 0.9784144358,
				"z": 1.2482491092,
				"element": "H" 
			}
		],
		 "valence_orbital": [ 
			{
				"type": "occ",
				"energy": -0.28921,
				"method": "rhf"
			},
			{
				"type": "occ",
				"energy": -0.26163,
				"method": "rhf"
			},
			{
				"type": "occ",
				"energy": -0.25923,
				"method": "rhf"
			},
			{
				"type": "occ",
				"energy": -0.24977,
				"method": "rhf"
			},
			{
				"type": "occ",
				"energy": -0.23496,
				"method": "rhf"
			},
			{
				"type": "unocc",
				"energy": -0.0205,
				"method": "rhf"
			},
			{
				"type": "unocc",
				"energy": -0.00715,
				"method": "rhf"
			},
			{
				"type": "unocc",
				"energy": 0.0035,
				"method": "rhf"
			},
			{
				"type": "unocc",
				"energy": 0.02027,
				"method": "rhf"
			},
			{
				"type": "unocc",
				"energy": 0.09041,
				"method": "rhf"
			}
		],
		"cosmo_sigma_profile": { 
			"-0.025": 0.0,
			"-0.024": 0.0,
			"-0.023": 0.0,
			"-0.022": 0.0,
			"-0.021": 0.0,
			"-0.02": 0.0,
			"-0.019": 0.0,
			"-0.018": 0.0,
			"-0.017": 0.0,
			"-0.016": 0.0,
			"-0.015": 0.0,
			"-0.014": 0.047605501806,
			"-0.013": 0.523442182538,
			"-0.012": 0.89301775976,
			"-0.011": 0.981619528095,
			"-0.01": 0.78700024334,
			"-0.009": 1.0294738579,
			"-0.008": 3.62505314861,
			"-0.007": 9.07983518457,
			"-0.006": 13.4894199697,
			"-0.005": 16.900654431,
			"-0.004": 19.0919831572,
			"-0.003": 16.7820251779,
			"-0.002": 17.1364744989,
			"-0.001": 15.7709335141,
			"0.0": 13.2493239755,
			"0.001": 16.029555047,
			"0.002": 22.3414863841,
			"0.003": 19.8073706298,
			"0.004": 20.1689217361,
			"0.005": 9.39979724308,
			"0.006": 2.07483716193,
			"0.007": 2.85607570624,
			"0.008": 1.73432120686,
			"0.009": 1.12132999305,
			"0.01": 1.19435897608,
			"0.011": 1.97336535358,
			"0.012": 1.67921097401,
			"0.013": 3.66192396594,
			"0.014": 4.63282339208,
			"0.015": 0.553546553204,
			"0.016": 0.0,
			"0.017": 0.0,
			"0.018": 0.0,
			"0.019": 0.0,
			"0.02": 0.0,
			"0.021": 0.0,
			"0.022": 0.0,
			"0.023": 0.0,
			"0.024": 0.0,
			"0.025": 0.0
		}
	}
}
