{
	 "smiles": "NC1=CC(F)=CC=C1N1C=CN=C1", 
	 "Tm": 400.15, 
	 "num_atms": 21, 
	 "gaussian": { 
		 "optdone": 1, 
		 "sigma_profile": "yes", 
		 "theory": "DFT", 
		 "functional": "B3LYP", 
		 "basiset": "6-31G**", 
		 "properties": { 
			 "R2extent": 3092.4431, 
			 "electric_dipole_moment_norm": 2.81885889324, 
			 "electric_quadrupole_moment_norm": 19.2041506105, 
			 "total_energy": -611.858436404, 
			 "HOMO_LUMO_gap": 0.2014, 
			 "cosmo_polarized_energy": -12.82, 
			 "cosmo_cavitation_energy": 25.89, 
			 "cosmo_dispersion_energy": -18.61, 
			 "cosmo_repulsion_energy": 1.43, 
			 "cosmo_total_nonelectrostatic_energy": 8.71, 
			 "SMD_solvation_energy": 4.21 
		},
		"coords": [
			{
				"x": 1.2741725418,
				"y": -1.329737526,
				"z": 0.2336335177,
				"element": "N" 
			},
			{
				"x": 0.11942706,
				"y": -1.0737449141,
				"z": 0.9542265725,
				"element": "C" 
			},
			{
				"x": 0.1388007158,
				"y": -1.0539407349,
				"z": 2.3593834362,
				"element": "C" 
			},
			{
				"x": -1.022023043,
				"y": -0.7614844919,
				"z": 3.0587637726,
				"element": "C" 
			},
			{
				"x": -0.970130271,
				"y": -0.7575378595,
				"z": 4.4061683585,
				"element": "F" 
			},
			{
				"x": -2.2305946759,
				"y": -0.4764544369,
				"z": 2.4314090398,
				"element": "C" 
			},
			{
				"x": -2.2480030921,
				"y": -0.483726211,
				"z": 1.038707344,
				"element": "C" 
			},
			{
				"x": -1.1005376601,
				"y": -0.7779246141,
				"z": 0.3007911696,
				"element": "C" 
			},
			{
				"x": -1.160781338,
				"y": -0.8046783216,
				"z": -1.1270457368,
				"element": "N" 
			},
			{
				"x": -1.928217918,
				"y": -1.6582458559,
				"z": -1.9073603154,
				"element": "C" 
			},
			{
				"x": -1.6982977445,
				"y": -1.2801402301,
				"z": -3.2053111132,
				"element": "C" 
			},
			{
				"x": -0.8190047483,
				"y": -0.2200872375,
				"z": -3.2571530196,
				"element": "N" 
			},
			{
				"x": -0.5212432868,
				"y": 0.0429051111,
				"z": -2.0045263654,
				"element": "C" 
			},
			{
				"x": 1.1443850954,
				"y": -1.6276623689,
				"z": -0.7232305241,
				"element": "H" 
			},
			{
				"x": 1.9976569836,
				"y": -1.836950505,
				"z": 0.7217061808,
				"element": "H" 
			},
			{
				"x": 1.0506204849,
				"y": -1.268634068,
				"z": 2.9068290336,
				"element": "H" 
			},
			{
				"x": -3.1125151063,
				"y": -0.2507956856,
				"z": 3.0184170982,
				"element": "H" 
			},
			{
				"x": -3.1631560629,
				"y": -0.2562877764,
				"z": 0.5012407776,
				"element": "H" 
			},
			{
				"x": -2.5304701472,
				"y": -2.4347326135,
				"z": -1.4617115853,
				"element": "H" 
			},
			{
				"x": -2.1133367992,
				"y": -1.7121819231,
				"z": -4.1055880205,
				"element": "H" 
			},
			{
				"x": 0.1362490118,
				"y": 0.8261422628,
				"z": -1.6528496208,
				"element": "H" 
			}
		],
		 "valence_orbital": [ 
			{
				"type": "occ",
				"energy": -0.28466,
				"method": "rhf"
			},
			{
				"type": "occ",
				"energy": -0.26744,
				"method": "rhf"
			},
			{
				"type": "occ",
				"energy": -0.25156,
				"method": "rhf"
			},
			{
				"type": "occ",
				"energy": -0.23041,
				"method": "rhf"
			},
			{
				"type": "occ",
				"energy": -0.21838,
				"method": "rhf"
			},
			{
				"type": "unocc",
				"energy": -0.01698,
				"method": "rhf"
			},
			{
				"type": "unocc",
				"energy": -0.00227,
				"method": "rhf"
			},
			{
				"type": "unocc",
				"energy": 0.02826,
				"method": "rhf"
			},
			{
				"type": "unocc",
				"energy": 0.06501,
				"method": "rhf"
			},
			{
				"type": "unocc",
				"energy": 0.07929,
				"method": "rhf"
			}
		],
		"cosmo_sigma_profile": { 
			"-0.025": 0.0,
			"-0.024": 0.0,
			"-0.023": 0.0,
			"-0.022": 0.0,
			"-0.021": 0.0,
			"-0.02": 0.0,
			"-0.019": 0.0,
			"-0.018": 0.0,
			"-0.017": 0.0,
			"-0.016": 0.0,
			"-0.015": 0.0,
			"-0.014": 0.245115129576,
			"-0.013": 1.4874739588,
			"-0.012": 2.34170471502,
			"-0.011": 2.51567091369,
			"-0.01": 2.79874705738,
			"-0.009": 3.32964537628,
			"-0.008": 5.58821405072,
			"-0.007": 8.42610014544,
			"-0.006": 11.6032984502,
			"-0.005": 10.7266601044,
			"-0.004": 12.0771266004,
			"-0.003": 11.5178017937,
			"-0.002": 9.35747709792,
			"-0.001": 11.3272675191,
			"0.0": 12.2824287563,
			"0.001": 15.1310490031,
			"0.002": 15.0841092273,
			"0.003": 17.8370477351,
			"0.004": 20.8721438774,
			"0.005": 10.2360286975,
			"0.006": 4.11494793565,
			"0.007": 2.84956183465,
			"0.008": 1.41577790034,
			"0.009": 2.76952960265,
			"0.01": 2.5867761606,
			"0.011": 1.4341360341,
			"0.012": 1.4065737264,
			"0.013": 1.25536757133,
			"0.014": 0.85897622599,
			"0.015": 1.56405224101,
			"0.016": 1.00349990257,
			"0.017": 1.01974308861,
			"0.018": 0.741417116111,
			"0.019": 0.0280965155349,
			"0.02": 0.0,
			"0.021": 0.0,
			"0.022": 0.0,
			"0.023": 0.0,
			"0.024": 0.0,
			"0.025": 0.0
		}
	}
}
