{
	 "smiles": "CC1=C(C=O)C2=C(O1)C=CC=C2", 
	 "Tm": 343.15, 
	 "num_atms": 20, 
	 "gaussian": { 
		 "optdone": 1, 
		 "sigma_profile": "yes", 
		 "theory": "DFT", 
		 "functional": "B3LYP", 
		 "basiset": "6-31G**", 
		 "properties": { 
			 "R2extent": 2338.195, 
			 "electric_dipole_moment_norm": 2.43575663809, 
			 "electric_quadrupole_moment_norm": 9.04026673279, 
			 "total_energy": -536.324108438, 
			 "HOMO_LUMO_gap": 0.17565, 
			 "cosmo_polarized_energy": -7.68, 
			 "cosmo_cavitation_energy": 24.53, 
			 "cosmo_dispersion_energy": -18.0, 
			 "cosmo_repulsion_energy": 1.41, 
			 "cosmo_total_nonelectrostatic_energy": 7.94, 
			 "SMD_solvation_energy": 5.52 
		},
		"coords": [
			{
				"x": -2.6267954792,
				"y": -0.6045907909,
				"z": 2.2724659594,
				"element": "C" 
			},
			{
				"x": -1.8019691175,
				"y": -0.5374143622,
				"z": 1.0383713474,
				"element": "C" 
			},
			{
				"x": -0.5776508362,
				"y": -1.082283864,
				"z": 0.7180475018,
				"element": "C" 
			},
			{
				"x": 0.2252968787,
				"y": -1.909161641,
				"z": 1.6088822647,
				"element": "C" 
			},
			{
				"x": -0.0972746927,
				"y": -2.2156044962,
				"z": 2.7484695326,
				"element": "O" 
			},
			{
				"x": -0.2888017723,
				"y": -0.6628733049,
				"z": -0.6423573289,
				"element": "C" 
			},
			{
				"x": -1.3909557558,
				"y": 0.115819915,
				"z": -1.0296943539,
				"element": "C" 
			},
			{
				"x": -2.3056556937,
				"y": 0.1858810975,
				"z": -0.0001632285,
				"element": "O" 
			},
			{
				"x": -1.5224623674,
				"y": 0.7189395729,
				"z": -2.2722786887,
				"element": "C" 
			},
			{
				"x": -0.4730243867,
				"y": 0.5173621906,
				"z": -3.1694080217,
				"element": "C" 
			},
			{
				"x": 0.6467510019,
				"y": -0.256677081,
				"z": -2.8159998418,
				"element": "C" 
			},
			{
				"x": 0.7541779695,
				"y": -0.8519042361,
				"z": -1.5604905292,
				"element": "C" 
			},
			{
				"x": -2.069266519,
				"y": -0.2112422862,
				"z": 3.1279074792,
				"element": "H" 
			},
			{
				"x": -2.8664662997,
				"y": -1.6438395462,
				"z": 2.5171194369,
				"element": "H" 
			},
			{
				"x": -3.5489182269,
				"y": -0.0353636565,
				"z": 2.140906521,
				"element": "H" 
			},
			{
				"x": 1.1882263699,
				"y": -2.2630634476,
				"z": 1.1818211467,
				"element": "H" 
			},
			{
				"x": -2.3948090851,
				"y": 1.3119165428,
				"z": -2.5241377449,
				"element": "H" 
			},
			{
				"x": -0.5226553841,
				"y": 0.9660105009,
				"z": -4.1566560616,
				"element": "H" 
			},
			{
				"x": 1.4450687397,
				"y": -0.3925290555,
				"z": -3.5394576389,
				"element": "H" 
			},
			{
				"x": 1.6261846566,
				"y": -1.4460820514,
				"z": -1.3054477517,
				"element": "H" 
			}
		],
		 "valence_orbital": [ 
			{
				"type": "occ",
				"energy": -0.34987,
				"method": "rhf"
			},
			{
				"type": "occ",
				"energy": -0.2958,
				"method": "rhf"
			},
			{
				"type": "occ",
				"energy": -0.25061,
				"method": "rhf"
			},
			{
				"type": "occ",
				"energy": -0.24885,
				"method": "rhf"
			},
			{
				"type": "occ",
				"energy": -0.22752,
				"method": "rhf"
			},
			{
				"type": "unocc",
				"energy": -0.05187,
				"method": "rhf"
			},
			{
				"type": "unocc",
				"energy": -0.01664,
				"method": "rhf"
			},
			{
				"type": "unocc",
				"energy": 0.00424,
				"method": "rhf"
			},
			{
				"type": "unocc",
				"energy": 0.08668,
				"method": "rhf"
			},
			{
				"type": "unocc",
				"energy": 0.08673,
				"method": "rhf"
			}
		],
		"cosmo_sigma_profile": { 
			"-0.025": 0.0,
			"-0.024": 0.0,
			"-0.023": 0.0,
			"-0.022": 0.0,
			"-0.021": 0.0,
			"-0.02": 0.0,
			"-0.019": 0.0,
			"-0.018": 0.0,
			"-0.017": 0.0,
			"-0.016": 0.0,
			"-0.015": 0.0,
			"-0.014": 0.0,
			"-0.013": 0.0,
			"-0.012": 0.0,
			"-0.011": 0.0,
			"-0.01": 0.0,
			"-0.009": 0.0,
			"-0.008": 0.204634084235,
			"-0.007": 4.20883336381,
			"-0.006": 14.2805213142,
			"-0.005": 15.9147154349,
			"-0.004": 16.9234015781,
			"-0.003": 15.8825204532,
			"-0.002": 19.1354323809,
			"-0.001": 15.4772104543,
			"0.0": 13.8109535293,
			"0.001": 13.9721681524,
			"0.002": 12.8608861697,
			"0.003": 11.4311381101,
			"0.004": 12.0271266383,
			"0.005": 10.5232020969,
			"0.006": 3.64057983357,
			"0.007": 2.5981312764,
			"0.008": 1.91561124958,
			"0.009": 1.90948556425,
			"0.01": 1.61095597716,
			"0.011": 2.61685872442,
			"0.012": 3.5935339573,
			"0.013": 1.80631247412,
			"0.014": 0.434192528743,
			"0.015": 0.0,
			"0.016": 0.0,
			"0.017": 0.0,
			"0.018": 0.0,
			"0.019": 0.0,
			"0.02": 0.0,
			"0.021": 0.0,
			"0.022": 0.0,
			"0.023": 0.0,
			"0.024": 0.0,
			"0.025": 0.0
		}
	}
}
