{
	 "smiles": "CC1=C(SC(=N1)C1=CC=C(Cl)C=C1)C(Cl)=O", 
	 "Tm": 455.15, 
	 "num_atms": 23, 
	 "gaussian": { 
		 "optdone": 1, 
		 "sigma_profile": "yes", 
		 "theory": "DFT", 
		 "functional": "B3LYP", 
		 "basiset": "6-31G**", 
		 "properties": { 
			 "R2extent": 7371.9913, 
			 "electric_dipole_moment_norm": 2.84160657551, 
			 "electric_quadrupole_moment_norm": 16.9400122689, 
			 "total_energy": -1871.95227713, 
			 "HOMO_LUMO_gap": 0.14347, 
			 "cosmo_polarized_energy": -7.66, 
			 "cosmo_cavitation_energy": 33.39, 
			 "cosmo_dispersion_energy": -25.1, 
			 "cosmo_repulsion_energy": 1.91, 
			 "cosmo_total_nonelectrostatic_energy": 10.2, 
			 "SMD_solvation_energy": 4.42 
		},
		"coords": [
			{
				"x": -3.0865105123,
				"y": -1.347131163,
				"z": 0.0363574505,
				"element": "C" 
			},
			{
				"x": -1.9552221037,
				"y": -0.3655207515,
				"z": -0.0039477972,
				"element": "C" 
			},
			{
				"x": -2.0668163664,
				"y": 1.0059129768,
				"z": -0.2251376265,
				"element": "C" 
			},
			{
				"x": -0.4877071119,
				"y": 1.7481276439,
				"z": -0.1852592913,
				"element": "S" 
			},
			{
				"x": 0.2025979198,
				"y": 0.1698955583,
				"z": 0.1241143395,
				"element": "C" 
			},
			{
				"x": -0.681690121,
				"y": -0.806708566,
				"z": 0.1877301778,
				"element": "N" 
			},
			{
				"x": 1.6413901283,
				"y": -0.0467424844,
				"z": 0.2972930827,
				"element": "C" 
			},
			{
				"x": 2.5719233319,
				"y": 1.0036331675,
				"z": 0.2276107516,
				"element": "C" 
			},
			{
				"x": 3.9316417808,
				"y": 0.7645740038,
				"z": 0.3962798198,
				"element": "C" 
			},
			{
				"x": 4.3690630696,
				"y": -0.5391094777,
				"z": 0.637601212,
				"element": "C" 
			},
			{
				"x": 6.0804990429,
				"y": -0.8468035358,
				"z": 0.8508044715,
				"element": "Cl" 
			},
			{
				"x": 3.464671757,
				"y": -1.6006047055,
				"z": 0.7116056476,
				"element": "C" 
			},
			{
				"x": 2.1077813692,
				"y": -1.3513081376,
				"z": 0.5416688346,
				"element": "C" 
			},
			{
				"x": -3.3121084422,
				"y": 1.7096578984,
				"z": -0.4542346756,
				"element": "C" 
			},
			{
				"x": -3.1068774098,
				"y": 3.5152435131,
				"z": -0.7116397377,
				"element": "Cl" 
			},
			{
				"x": -4.4100490054,
				"y": 1.2303630493,
				"z": -0.4873248289,
				"element": "O" 
			},
			{
				"x": -2.6885008535,
				"y": -2.3442941099,
				"z": 0.2282614596,
				"element": "H" 
			},
			{
				"x": -3.8081698635,
				"y": -1.0834707273,
				"z": 0.8152602789,
				"element": "H" 
			},
			{
				"x": -3.6400456307,
				"y": -1.3479366705,
				"z": -0.9073672143,
				"element": "H" 
			},
			{
				"x": 2.2406452872,
				"y": 2.0210725613,
				"z": 0.0402591832,
				"element": "H" 
			},
			{
				"x": 4.6469639144,
				"y": 1.577214363,
				"z": 0.341909144,
				"element": "H" 
			},
			{
				"x": 3.8225152846,
				"y": -2.6065949123,
				"z": 0.8998341405,
				"element": "H" 
			},
			{
				"x": 1.3884045347,
				"y": -2.1603694937,
				"z": 0.5951211776,
				"element": "H" 
			}
		],
		 "valence_orbital": [ 
			{
				"type": "occ",
				"energy": -0.29723,
				"method": "rhf"
			},
			{
				"type": "occ",
				"energy": -0.29257,
				"method": "rhf"
			},
			{
				"type": "occ",
				"energy": -0.29008,
				"method": "rhf"
			},
			{
				"type": "occ",
				"energy": -0.28354,
				"method": "rhf"
			},
			{
				"type": "occ",
				"energy": -0.24373,
				"method": "rhf"
			},
			{
				"type": "unocc",
				"energy": -0.10026,
				"method": "rhf"
			},
			{
				"type": "unocc",
				"energy": -0.04161,
				"method": "rhf"
			},
			{
				"type": "unocc",
				"energy": -0.03179,
				"method": "rhf"
			},
			{
				"type": "unocc",
				"energy": -0.01269,
				"method": "rhf"
			},
			{
				"type": "unocc",
				"energy": 0.01631,
				"method": "rhf"
			}
		],
		"cosmo_sigma_profile": { 
			"-0.025": 0.0,
			"-0.024": 0.0,
			"-0.023": 0.0,
			"-0.022": 0.0,
			"-0.021": 0.0,
			"-0.02": 0.0,
			"-0.019": 0.0,
			"-0.018": 0.0,
			"-0.017": 0.0,
			"-0.016": 0.0,
			"-0.015": 0.0,
			"-0.014": 0.0,
			"-0.013": 0.0,
			"-0.012": 0.0,
			"-0.011": 0.0,
			"-0.01": 0.0,
			"-0.009": 0.533354495553,
			"-0.008": 4.56704097842,
			"-0.007": 7.28450733746,
			"-0.006": 8.70807239661,
			"-0.005": 11.5853542529,
			"-0.004": 15.4398352552,
			"-0.003": 20.9773633553,
			"-0.002": 24.77020664,
			"-0.001": 28.6240426772,
			"0.0": 25.6261184736,
			"0.001": 34.5639667106,
			"0.002": 28.1954597264,
			"0.003": 18.6322012863,
			"0.004": 20.3232190293,
			"0.005": 8.76620013902,
			"0.006": 3.35556917562,
			"0.007": 3.68152670472,
			"0.008": 4.58622117875,
			"0.009": 4.53254052541,
			"0.01": 0.84868088849,
			"0.011": 0.0,
			"0.012": 0.0,
			"0.013": 0.0,
			"0.014": 0.0,
			"0.015": 0.0,
			"0.016": 0.0,
			"0.017": 0.0,
			"0.018": 0.0,
			"0.019": 0.0,
			"0.02": 0.0,
			"0.021": 0.0,
			"0.022": 0.0,
			"0.023": 0.0,
			"0.024": 0.0,
			"0.025": 0.0
		}
	}
}
