{
	 "smiles": "ClC1=CC=C(CC2=C(NN=C2N=CC2=CC=C3OCOC3=C2)N=CC2=CC=C3OCOC3=C2)C=C1", 
	 "Tm": 480.15, 
	 "num_atms": 54, 
	 "gaussian": { 
		 "optdone": 1, 
		 "sigma_profile": "yes", 
		 "theory": "DFT", 
		 "functional": "B3LYP", 
		 "basiset": "6-31G**", 
		 "properties": { 
			 "R2extent": 30818.6827, 
			 "electric_dipole_moment_norm": 1.7792051287, 
			 "electric_quadrupole_moment_norm": 47.6811031544, 
			 "total_energy": -1982.23283578, 
			 "HOMO_LUMO_gap": 0.13495, 
			 "cosmo_polarized_energy": -20.11, 
			 "cosmo_cavitation_energy": 62.74, 
			 "cosmo_dispersion_energy": -43.79, 
			 "cosmo_repulsion_energy": 3.27, 
			 "cosmo_total_nonelectrostatic_energy": 22.22, 
			 "SMD_solvation_energy": 8.65 
		},
		"coords": [
			{
				"x": 3.400986461,
				"y": 4.0885552247,
				"z": 0.2380249169,
				"element": "Cl" 
			},
			{
				"x": 2.7364256509,
				"y": 2.4639521397,
				"z": 0.104074741,
				"element": "C" 
			},
			{
				"x": 3.3690042324,
				"y": 1.4074369925,
				"z": 0.7557426142,
				"element": "C" 
			},
			{
				"x": 2.8293769444,
				"y": 0.1246348729,
				"z": 0.6452434171,
				"element": "C" 
			},
			{
				"x": 1.6704662276,
				"y": -0.1195826022,
				"z": -0.1035908851,
				"element": "C" 
			},
			{
				"x": 1.129884693,
				"y": -1.537604039,
				"z": -0.2451558996,
				"element": "C" 
			},
			{
				"x": -0.3639497661,
				"y": -1.6805726452,
				"z": -0.2831684001,
				"element": "C" 
			},
			{
				"x": -1.30640464,
				"y": -1.6708683621,
				"z": 0.7556919572,
				"element": "C" 
			},
			{
				"x": -2.5082624995,
				"y": -1.9368376268,
				"z": 0.1581016315,
				"element": "N" 
			},
			{
				"x": -2.4427928622,
				"y": -2.0943606851,
				"z": -1.1692499782,
				"element": "N" 
			},
			{
				"x": -1.1349253402,
				"y": -1.9472529128,
				"z": -1.44702875,
				"element": "C" 
			},
			{
				"x": -0.5813772685,
				"y": -2.0513559747,
				"z": -2.7198143667,
				"element": "N" 
			},
			{
				"x": -1.3436187794,
				"y": -2.2585928076,
				"z": -3.7350891304,
				"element": "C" 
			},
			{
				"x": -0.8243907966,
				"y": -2.3824933284,
				"z": -5.0973270566,
				"element": "C" 
			},
			{
				"x": 0.550690005,
				"y": -2.2740342961,
				"z": -5.3691299672,
				"element": "C" 
			},
			{
				"x": 1.0548752665,
				"y": -2.3890411521,
				"z": -6.6696277214,
				"element": "C" 
			},
			{
				"x": 0.1353614726,
				"y": -2.6136884819,
				"z": -7.68105292,
				"element": "C" 
			},
			{
				"x": 0.3704146999,
				"y": -2.7752985896,
				"z": -9.0211155417,
				"element": "O" 
			},
			{
				"x": -0.920379256,
				"y": -2.8873522184,
				"z": -9.6376015298,
				"element": "C" 
			},
			{
				"x": -1.9030689444,
				"y": -2.9617786954,
				"z": -8.6000583633,
				"element": "O" 
			},
			{
				"x": -1.2300350416,
				"y": -2.7233763272,
				"z": -7.4244428545,
				"element": "C" 
			},
			{
				"x": -1.7431835216,
				"y": -2.6141214973,
				"z": -6.1509387457,
				"element": "C" 
			},
			{
				"x": -1.3110890111,
				"y": -1.5301880886,
				"z": 2.1255750353,
				"element": "N" 
			},
			{
				"x": -0.3108888339,
				"y": -1.011662684,
				"z": 2.752615469,
				"element": "C" 
			},
			{
				"x": -0.2781062593,
				"y": -0.8899350992,
				"z": 4.2082189726,
				"element": "C" 
			},
			{
				"x": -1.320946249,
				"y": -1.3880229066,
				"z": 5.009083649,
				"element": "C" 
			},
			{
				"x": -1.2964531408,
				"y": -1.2709026328,
				"z": 6.4032572888,
				"element": "C" 
			},
			{
				"x": -0.195742357,
				"y": -0.6404452235,
				"z": 6.9603631246,
				"element": "C" 
			},
			{
				"x": 0.071270952,
				"y": -0.4146751418,
				"z": 8.2834668225,
				"element": "O" 
			},
			{
				"x": 1.2883785735,
				"y": 0.345901565,
				"z": 8.3179764353,
				"element": "C" 
			},
			{
				"x": 1.8078075185,
				"y": 0.4105341837,
				"z": 6.9859121075,
				"element": "O" 
			},
			{
				"x": 0.8453961477,
				"y": -0.1442382801,
				"z": 6.1767114905,
				"element": "C" 
			},
			{
				"x": 0.8388600483,
				"y": -0.2516306993,
				"z": 4.8040453315,
				"element": "C" 
			},
			{
				"x": 1.0583102246,
				"y": 0.9640039068,
				"z": -0.7470246286,
				"element": "C" 
			},
			{
				"x": 1.58255878,
				"y": 2.2525034915,
				"z": -0.6498767992,
				"element": "C" 
			},
			{
				"x": 4.26599854,
				"y": 1.5849612996,
				"z": 1.3390470828,
				"element": "H" 
			},
			{
				"x": 3.3257353406,
				"y": -0.7014738085,
				"z": 1.1493467488,
				"element": "H" 
			},
			{
				"x": 1.5459187252,
				"y": -2.1534762936,
				"z": 0.5624752078,
				"element": "H" 
			},
			{
				"x": 1.5097414916,
				"y": -1.9589018839,
				"z": -1.1840397939,
				"element": "H" 
			},
			{
				"x": -3.3920524614,
				"y": -1.9967272752,
				"z": 0.6422219223,
				"element": "H" 
			},
			{
				"x": -2.4304454068,
				"y": -2.3523539701,
				"z": -3.6208531051,
				"element": "H" 
			},
			{
				"x": 1.2207833288,
				"y": -2.0942797155,
				"z": -4.5361747479,
				"element": "H" 
			},
			{
				"x": 2.1146962632,
				"y": -2.3068989737,
				"z": -6.8827477506,
				"element": "H" 
			},
			{
				"x": -0.95570346,
				"y": -3.7995356179,
				"z": -10.2425258159,
				"element": "H" 
			},
			{
				"x": -1.1049389029,
				"y": -2.0002074334,
				"z": -10.2589024396,
				"element": "H" 
			},
			{
				"x": -2.8075306716,
				"y": -2.7031051336,
				"z": -5.9602603463,
				"element": "H" 
			},
			{
				"x": 0.5629226437,
				"y": -0.6132963724,
				"z": 2.2269602068,
				"element": "H" 
			},
			{
				"x": -2.1567690312,
				"y": -1.8707449667,
				"z": 4.5155150244,
				"element": "H" 
			},
			{
				"x": -2.0972633287,
				"y": -1.654932415,
				"z": 7.0249070202,
				"element": "H" 
			},
			{
				"x": 1.0729579999,
				"y": 1.3599259394,
				"z": 8.6807729206,
				"element": "H" 
			},
			{
				"x": 2.0110779353,
				"y": -0.1558007549,
				"z": 8.9698850632,
				"element": "H" 
			},
			{
				"x": 1.6513871465,
				"y": 0.1398677857,
				"z": 4.2009620792,
				"element": "H" 
			},
			{
				"x": 0.15899496,
				"y": 0.7976253097,
				"z": -1.3319137284,
				"element": "H" 
			},
			{
				"x": 1.1017355569,
				"y": 3.0850449008,
				"z": -1.1518870144,
				"element": "H" 
			}
		],
		 "valence_orbital": [ 
			{
				"type": "occ",
				"energy": -0.23914,
				"method": "rhf"
			},
			{
				"type": "occ",
				"energy": -0.23317,
				"method": "rhf"
			},
			{
				"type": "occ",
				"energy": -0.23148,
				"method": "rhf"
			},
			{
				"type": "occ",
				"energy": -0.20542,
				"method": "rhf"
			},
			{
				"type": "occ",
				"energy": -0.19686,
				"method": "rhf"
			},
			{
				"type": "unocc",
				"energy": -0.06191,
				"method": "rhf"
			},
			{
				"type": "unocc",
				"energy": -0.05215,
				"method": "rhf"
			},
			{
				"type": "unocc",
				"energy": -0.01156,
				"method": "rhf"
			},
			{
				"type": "unocc",
				"energy": -0.00833,
				"method": "rhf"
			},
			{
				"type": "unocc",
				"energy": -0.00699,
				"method": "rhf"
			}
		],
		"cosmo_sigma_profile": { 
			"-0.025": 0.0,
			"-0.024": 0.0,
			"-0.023": 0.0,
			"-0.022": 0.0,
			"-0.021": 0.0,
			"-0.02": 0.0,
			"-0.019": 0.0,
			"-0.018": 0.0,
			"-0.017": 0.10512870298,
			"-0.016": 0.883345902659,
			"-0.015": 1.39476309291,
			"-0.014": 0.76975352054,
			"-0.013": 0.737368766977,
			"-0.012": 0.696541809615,
			"-0.011": 0.863402868875,
			"-0.01": 0.82396009452,
			"-0.009": 0.894081950089,
			"-0.008": 11.0952428583,
			"-0.007": 25.7294266901,
			"-0.006": 28.7976977847,
			"-0.005": 33.0214624994,
			"-0.004": 25.7596406193,
			"-0.003": 26.0517839953,
			"-0.002": 26.762538141,
			"-0.001": 29.4813396521,
			"0.0": 33.790331687,
			"0.001": 40.7344418525,
			"0.002": 53.8770557514,
			"0.003": 52.9995664142,
			"0.004": 43.3576306198,
			"0.005": 21.3517777795,
			"0.006": 12.129738581,
			"0.007": 9.84652882562,
			"0.008": 10.4056793422,
			"0.009": 8.52795347031,
			"0.01": 2.19401522283,
			"0.011": 1.48178487151,
			"0.012": 0.910454517542,
			"0.013": 1.08966359764,
			"0.014": 0.564015065173,
			"0.015": 0.0275740903997,
			"0.016": 0.0,
			"0.017": 0.0,
			"0.018": 0.0,
			"0.019": 0.0,
			"0.02": 0.0,
			"0.021": 0.0,
			"0.022": 0.0,
			"0.023": 0.0,
			"0.024": 0.0,
			"0.025": 0.0
		}
	}
}
