{
	 "smiles": "CN(C)C1=CC(=C(Br)C=C1)S(Cl)(=O)=O", 
	 "Tm": 385.15, 
	 "num_atms": 23, 
	 "gaussian": { 
		 "optdone": 1, 
		 "sigma_profile": "yes", 
		 "theory": "DFT", 
		 "functional": "B3LYP", 
		 "basiset": "6-31G**", 
		 "properties": { 
			 "R2extent": 7436.8724, 
			 "electric_dipole_moment_norm": 7.74299063153, 
			 "electric_quadrupole_moment_norm": 12.6982901857, 
			 "total_energy": -3945.17380767, 
			 "HOMO_LUMO_gap": 0.13262, 
			 "cosmo_polarized_energy": -11.59, 
			 "cosmo_cavitation_energy": 31.62, 
			 "cosmo_dispersion_energy": -23.75, 
			 "cosmo_repulsion_energy": 1.81, 
			 "cosmo_total_nonelectrostatic_energy": 9.68, 
			 "SMD_solvation_energy": 2.98 
		},
		"coords": [
			{
				"x": 0.9920173959,
				"y": 1.9427319111,
				"z": -0.8768313121,
				"element": "C" 
			},
			{
				"x": -0.148769467,
				"y": 1.5038156016,
				"z": -0.0872981636,
				"element": "N" 
			},
			{
				"x": -1.2773292408,
				"y": 2.3996323426,
				"z": 0.105253351,
				"element": "C" 
			},
			{
				"x": -0.2456932201,
				"y": 0.1865779136,
				"z": 0.3055853533,
				"element": "C" 
			},
			{
				"x": 0.794987169,
				"y": -0.7315711752,
				"z": 0.0448396028,
				"element": "C" 
			},
			{
				"x": 0.7005653504,
				"y": -2.0580965418,
				"z": 0.4643594155,
				"element": "C" 
			},
			{
				"x": -0.4252403033,
				"y": -2.5400006918,
				"z": 1.1435103296,
				"element": "C" 
			},
			{
				"x": -0.6541939196,
				"y": -4.3359622285,
				"z": 1.7169310569,
				"element": "Br" 
			},
			{
				"x": -1.4589669032,
				"y": -1.6349345222,
				"z": 1.3914587452,
				"element": "C" 
			},
			{
				"x": -1.3817390922,
				"y": -0.3086579028,
				"z": 0.9879697144,
				"element": "C" 
			},
			{
				"x": 2.1518442099,
				"y": -3.0602986714,
				"z": 0.0916302145,
				"element": "S" 
			},
			{
				"x": 1.4061938246,
				"y": -4.3482001627,
				"z": -1.4297152311,
				"element": "Cl" 
			},
			{
				"x": 3.1428221188,
				"y": -2.2123953553,
				"z": -0.5628341556,
				"element": "O" 
			},
			{
				"x": 2.5095657802,
				"y": -3.8990777281,
				"z": 1.2256141275,
				"element": "O" 
			},
			{
				"x": 1.0578895909,
				"y": 1.4208348699,
				"z": -1.8420318305,
				"element": "H" 
			},
			{
				"x": 1.9350346572,
				"y": 1.7847761621,
				"z": -0.339409558,
				"element": "H" 
			},
			{
				"x": 0.8990013773,
				"y": 3.0106819287,
				"z": -1.0749389272,
				"element": "H" 
			},
			{
				"x": -2.1706798929,
				"y": 2.0734646784,
				"z": -0.4469873869,
				"element": "H" 
			},
			{
				"x": -1.0072356778,
				"y": 3.3950622779,
				"z": -0.247749621,
				"element": "H" 
			},
			{
				"x": -1.544916713,
				"y": 2.4849778547,
				"z": 1.1659168105,
				"element": "H" 
			},
			{
				"x": 1.6891195487,
				"y": -0.430326815,
				"z": -0.4813231163,
				"element": "H" 
			},
			{
				"x": -2.3444417002,
				"y": -1.9844708033,
				"z": 1.9104463278,
				"element": "H" 
			},
			{
				"x": -2.2188348928,
				"y": 0.3421370574,
				"z": 1.2066042532,
				"element": "H" 
			}
		],
		 "valence_orbital": [ 
			{
				"type": "occ",
				"energy": -0.30676,
				"method": "rhf"
			},
			{
				"type": "occ",
				"energy": -0.29039,
				"method": "rhf"
			},
			{
				"type": "occ",
				"energy": -0.28799,
				"method": "rhf"
			},
			{
				"type": "occ",
				"energy": -0.28093,
				"method": "rhf"
			},
			{
				"type": "occ",
				"energy": -0.21501,
				"method": "rhf"
			},
			{
				"type": "unocc",
				"energy": -0.08239,
				"method": "rhf"
			},
			{
				"type": "unocc",
				"energy": -0.04128,
				"method": "rhf"
			},
			{
				"type": "unocc",
				"energy": -0.02088,
				"method": "rhf"
			},
			{
				"type": "unocc",
				"energy": -0.00174,
				"method": "rhf"
			},
			{
				"type": "unocc",
				"energy": 0.0641,
				"method": "rhf"
			}
		],
		"cosmo_sigma_profile": { 
			"-0.025": 0.0,
			"-0.024": 0.0,
			"-0.023": 0.0,
			"-0.022": 0.0,
			"-0.021": 0.0,
			"-0.02": 0.0,
			"-0.019": 0.0,
			"-0.018": 0.0,
			"-0.017": 0.0,
			"-0.016": 0.0,
			"-0.015": 0.0,
			"-0.014": 0.0,
			"-0.013": 0.0,
			"-0.012": 0.0,
			"-0.011": 0.0,
			"-0.01": 0.0,
			"-0.009": 0.0,
			"-0.008": 1.76783485913,
			"-0.007": 7.89763755869,
			"-0.006": 11.4240113888,
			"-0.005": 18.1404959376,
			"-0.004": 19.2266954495,
			"-0.003": 21.2605858351,
			"-0.002": 24.4813023637,
			"-0.001": 17.0637192247,
			"0.0": 17.5402340369,
			"0.001": 25.5433403351,
			"0.002": 21.7098670205,
			"0.003": 23.813570259,
			"0.004": 17.4587973635,
			"0.005": 3.99948742437,
			"0.006": 4.79726524863,
			"0.007": 5.65766248509,
			"0.008": 11.1276163348,
			"0.009": 4.99902570892,
			"0.01": 0.0,
			"0.011": 0.0,
			"0.012": 0.0,
			"0.013": 0.0,
			"0.014": 0.0,
			"0.015": 0.0,
			"0.016": 0.0,
			"0.017": 0.0,
			"0.018": 0.0,
			"0.019": 0.0,
			"0.02": 0.0,
			"0.021": 0.0,
			"0.022": 0.0,
			"0.023": 0.0,
			"0.024": 0.0,
			"0.025": 0.0
		}
	}
}
