{
	 "smiles": "CCCCCCCC1=CC=C(C=C1)C1=CC=CC=C1", 
	 "Tm": 300.15, 
	 "num_atms": 43, 
	 "gaussian": { 
		 "optdone": 1, 
		 "sigma_profile": "yes", 
		 "theory": "DFT", 
		 "functional": "B3LYP", 
		 "basiset": "6-31G**", 
		 "properties": { 
			 "R2extent": 12090.6021, 
			 "electric_dipole_moment_norm": 0.566013886755, 
			 "electric_quadrupole_moment_norm": 6.64837070266, 
			 "total_energy": -738.523968989, 
			 "HOMO_LUMO_gap": 0.193, 
			 "cosmo_polarized_energy": -5.35, 
			 "cosmo_cavitation_energy": 44.76, 
			 "cosmo_dispersion_energy": -31.52, 
			 "cosmo_repulsion_energy": 2.47, 
			 "cosmo_total_nonelectrostatic_energy": 15.7, 
			 "SMD_solvation_energy": 6.43 
		},
		"coords": [
			{
				"x": -0.1471409219,
				"y": -6.4744161041,
				"z": 1.0671737063,
				"element": "C" 
			},
			{
				"x": -1.5700303054,
				"y": -6.1284115465,
				"z": 0.6116982907,
				"element": "C" 
			},
			{
				"x": -2.1424964066,
				"y": -4.8412169867,
				"z": 1.2281898893,
				"element": "C" 
			},
			{
				"x": -1.4239140379,
				"y": -3.5514218,
				"z": 0.8066038534,
				"element": "C" 
			},
			{
				"x": -2.0716450706,
				"y": -2.2883823992,
				"z": 1.3926003009,
				"element": "C" 
			},
			{
				"x": -1.4383984265,
				"y": -0.9640669198,
				"z": 0.9365057174,
				"element": "C" 
			},
			{
				"x": 0.0055004721,
				"y": -0.7407010909,
				"z": 1.4354611456,
				"element": "C" 
			},
			{
				"x": 0.5690305925,
				"y": 0.5996524772,
				"z": 1.0171114237,
				"element": "C" 
			},
			{
				"x": 1.264579608,
				"y": 0.7485180138,
				"z": -0.1901999536,
				"element": "C" 
			},
			{
				"x": 1.7509621509,
				"y": 1.9891894951,
				"z": -0.5963597597,
				"element": "C" 
			},
			{
				"x": 1.5622307877,
				"y": 3.135689415,
				"z": 0.1931400526,
				"element": "C" 
			},
			{
				"x": 0.8668802738,
				"y": 2.985498637,
				"z": 1.4046924937,
				"element": "C" 
			},
			{
				"x": 0.3812009355,
				"y": 1.7429725082,
				"z": 1.805561053,
				"element": "C" 
			},
			{
				"x": 2.0833399818,
				"y": 4.4587479447,
				"z": -0.2350484444,
				"element": "C" 
			},
			{
				"x": 3.3236027791,
				"y": 4.5717230115,
				"z": -0.8868402606,
				"element": "C" 
			},
			{
				"x": 3.811920312,
				"y": 5.813720998,
				"z": -1.2903780613,
				"element": "C" 
			},
			{
				"x": 3.072251859,
				"y": 6.9730335581,
				"z": -1.0490749009,
				"element": "C" 
			},
			{
				"x": 1.8390472059,
				"y": 6.8775057922,
				"z": -0.4014108451,
				"element": "C" 
			},
			{
				"x": 1.3501677685,
				"y": 5.6348965012,
				"z": -0.0004767724,
				"element": "C" 
			},
			{
				"x": 0.5769126811,
				"y": -5.7106512258,
				"z": 0.7653559603,
				"element": "H" 
			},
			{
				"x": -0.094382204,
				"y": -6.5672620687,
				"z": 2.1583945252,
				"element": "H" 
			},
			{
				"x": 0.1835783551,
				"y": -7.4257999092,
				"z": 0.6375119616,
				"element": "H" 
			},
			{
				"x": -1.5929258449,
				"y": -6.0445996049,
				"z": -0.4836799885,
				"element": "H" 
			},
			{
				"x": -2.236098822,
				"y": -6.963401568,
				"z": 0.8642830376,
				"element": "H" 
			},
			{
				"x": -3.2028436863,
				"y": -4.7590160432,
				"z": 0.9525470628,
				"element": "H" 
			},
			{
				"x": -2.1211450057,
				"y": -4.9257799718,
				"z": 2.3245168848,
				"element": "H" 
			},
			{
				"x": -1.4244003838,
				"y": -3.4804902104,
				"z": -0.2912092647,
				"element": "H" 
			},
			{
				"x": -0.3708187289,
				"y": -3.601908682,
				"z": 1.1086046145,
				"element": "H" 
			},
			{
				"x": -2.046210517,
				"y": -2.34333006,
				"z": 2.490654088,
				"element": "H" 
			},
			{
				"x": -3.1348950855,
				"y": -2.2784295602,
				"z": 1.1166388783,
				"element": "H" 
			},
			{
				"x": -2.0583438978,
				"y": -0.1297128646,
				"z": 1.2881496279,
				"element": "H" 
			},
			{
				"x": -1.450192293,
				"y": -0.9076876453,
				"z": -0.1604280526,
				"element": "H" 
			},
			{
				"x": 0.6539894923,
				"y": -1.539782266,
				"z": 1.0584841435,
				"element": "H" 
			},
			{
				"x": 0.0171306227,
				"y": -0.8194139009,
				"z": 2.5304544991,
				"element": "H" 
			},
			{
				"x": 1.4233098672,
				"y": -0.1204240947,
				"z": -0.824979822,
				"element": "H" 
			},
			{
				"x": 2.2659170587,
				"y": 2.0754876462,
				"z": -1.5488537375,
				"element": "H" 
			},
			{
				"x": 0.7322569248,
				"y": 3.8463991284,
				"z": 2.053223942,
				"element": "H" 
			},
			{
				"x": -0.1415596177,
				"y": 1.6559558207,
				"z": 2.7554980009,
				"element": "H" 
			},
			{
				"x": 3.920061505,
				"y": 3.6797713528,
				"z": -1.0548598654,
				"element": "H" 
			},
			{
				"x": 4.776865793,
				"y": 5.8767248059,
				"z": -1.7858058921,
				"element": "H" 
			},
			{
				"x": 3.4529250529,
				"y": 7.9408635081,
				"z": -1.3624008187,
				"element": "H" 
			},
			{
				"x": 1.2507202845,
				"y": 7.7719226935,
				"z": -0.2158556038,
				"element": "H" 
			},
			{
				"x": 0.3772588914,
				"y": 5.5693332153,
				"z": 0.4778068903,
				"element": "H" 
			}
		],
		 "valence_orbital": [ 
			{
				"type": "occ",
				"energy": -0.30397,
				"method": "rhf"
			},
			{
				"type": "occ",
				"energy": -0.26422,
				"method": "rhf"
			},
			{
				"type": "occ",
				"energy": -0.24713,
				"method": "rhf"
			},
			{
				"type": "occ",
				"energy": -0.24599,
				"method": "rhf"
			},
			{
				"type": "occ",
				"energy": -0.21588,
				"method": "rhf"
			},
			{
				"type": "unocc",
				"energy": -0.02288,
				"method": "rhf"
			},
			{
				"type": "unocc",
				"energy": -0.00052,
				"method": "rhf"
			},
			{
				"type": "unocc",
				"energy": 0.00352,
				"method": "rhf"
			},
			{
				"type": "unocc",
				"energy": 0.03295,
				"method": "rhf"
			},
			{
				"type": "unocc",
				"energy": 0.08812,
				"method": "rhf"
			}
		],
		"cosmo_sigma_profile": { 
			"-0.025": 0.0,
			"-0.024": 0.0,
			"-0.023": 0.0,
			"-0.022": 0.0,
			"-0.021": 0.0,
			"-0.02": 0.0,
			"-0.019": 0.0,
			"-0.018": 0.0,
			"-0.017": 0.0,
			"-0.016": 0.0,
			"-0.015": 0.0,
			"-0.014": 0.0,
			"-0.013": 0.0,
			"-0.012": 0.0,
			"-0.011": 0.0,
			"-0.01": 0.0,
			"-0.009": 0.0,
			"-0.008": 0.0,
			"-0.007": 0.0,
			"-0.006": 3.11223047431,
			"-0.005": 18.5316324039,
			"-0.004": 19.4324926691,
			"-0.003": 27.0444137185,
			"-0.002": 40.5017794844,
			"-0.001": 49.4015517593,
			"0.0": 55.040884373,
			"0.001": 45.0594920485,
			"0.002": 25.6628681146,
			"0.003": 16.4794402133,
			"0.004": 16.5468802104,
			"0.005": 16.5658852393,
			"0.006": 16.2158733856,
			"0.007": 1.10624929084,
			"0.008": 0.0,
			"0.009": 0.0,
			"0.01": 0.0,
			"0.011": 0.0,
			"0.012": 0.0,
			"0.013": 0.0,
			"0.014": 0.0,
			"0.015": 0.0,
			"0.016": 0.0,
			"0.017": 0.0,
			"0.018": 0.0,
			"0.019": 0.0,
			"0.02": 0.0,
			"0.021": 0.0,
			"0.022": 0.0,
			"0.023": 0.0,
			"0.024": 0.0,
			"0.025": 0.0
		}
	}
}
