{
	 "smiles": "COC(=O)C1=C(C)C2=C(O1)C=CC=C2", 
	 "Tm": 344.15, 
	 "num_atms": 24, 
	 "gaussian": { 
		 "optdone": 1, 
		 "sigma_profile": "yes", 
		 "theory": "DFT", 
		 "functional": "B3LYP", 
		 "basiset": "6-31G**", 
		 "properties": { 
			 "R2extent": 3939.1412, 
			 "electric_dipole_moment_norm": 3.00166216953, 
			 "electric_quadrupole_moment_norm": 14.2691026095, 
			 "total_energy": -650.87260071, 
			 "HOMO_LUMO_gap": 0.17238, 
			 "cosmo_polarized_energy": -9.81, 
			 "cosmo_cavitation_energy": 28.5, 
			 "cosmo_dispersion_energy": -20.77, 
			 "cosmo_repulsion_energy": 1.62, 
			 "cosmo_total_nonelectrostatic_energy": 9.35, 
			 "SMD_solvation_energy": 6.84 
		},
		"coords": [
			{
				"x": -2.8718935947,
				"y": -0.5285828662,
				"z": 2.389799692,
				"element": "C" 
			},
			{
				"x": -1.9660822246,
				"y": -0.0297745951,
				"z": 1.3934404229,
				"element": "O" 
			},
			{
				"x": -1.0180090596,
				"y": 0.8215117516,
				"z": 1.8629584576,
				"element": "C" 
			},
			{
				"x": -0.9207723726,
				"y": 1.1516094519,
				"z": 3.026290734,
				"element": "O" 
			},
			{
				"x": -0.1407074478,
				"y": 1.2785597147,
				"z": 0.7779040651,
				"element": "C" 
			},
			{
				"x": -0.0992193287,
				"y": 1.0177365416,
				"z": -0.5698595823,
				"element": "C" 
			},
			{
				"x": -0.9965079654,
				"y": 0.1315475252,
				"z": -1.3814016325,
				"element": "C" 
			},
			{
				"x": 1.0137932758,
				"y": 1.789263067,
				"z": -1.0676275317,
				"element": "C" 
			},
			{
				"x": 1.552903503,
				"y": 2.458517709,
				"z": 0.0477826078,
				"element": "C" 
			},
			{
				"x": 0.853618289,
				"y": 2.1503079773,
				"z": 1.1709361835,
				"element": "O" 
			},
			{
				"x": 2.651089759,
				"y": 3.3113205468,
				"z": -0.0235956491,
				"element": "C" 
			},
			{
				"x": 3.217894626,
				"y": 3.4851391614,
				"z": -1.2829894536,
				"element": "C" 
			},
			{
				"x": 2.7017420007,
				"y": 2.8291710734,
				"z": -2.4206387409,
				"element": "C" 
			},
			{
				"x": 1.6046970683,
				"y": 1.9817351965,
				"z": -2.3288137055,
				"element": "C" 
			},
			{
				"x": -2.3303932903,
				"y": -1.0809022785,
				"z": 3.1620354679,
				"element": "H" 
			},
			{
				"x": -3.4157153889,
				"y": 0.292919084,
				"z": 2.8631025268,
				"element": "H" 
			},
			{
				"x": -3.5590639385,
				"y": -1.1870430234,
				"z": 1.8585891314,
				"element": "H" 
			},
			{
				"x": -2.0391811368,
				"y": 0.4562066414,
				"z": -1.319051914,
				"element": "H" 
			},
			{
				"x": -0.9657794909,
				"y": -0.9015358065,
				"z": -1.0232707755,
				"element": "H" 
			},
			{
				"x": -0.6964070186,
				"y": 0.1398935805,
				"z": -2.4321084407,
				"element": "H" 
			},
			{
				"x": 3.0358784842,
				"y": 3.8081232454,
				"z": 0.8600900738,
				"element": "H" 
			},
			{
				"x": 4.0767711913,
				"y": 4.1403684576,
				"z": -1.3927683383,
				"element": "H" 
			},
			{
				"x": 3.1743803062,
				"y": 2.9929386884,
				"z": -3.3843705294,
				"element": "H" 
			},
			{
				"x": 1.2150637541,
				"y": 1.4815691559,
				"z": -3.2105330694,
				"element": "H" 
			}
		],
		 "valence_orbital": [ 
			{
				"type": "occ",
				"energy": -0.30166,
				"method": "rhf"
			},
			{
				"type": "occ",
				"energy": -0.29045,
				"method": "rhf"
			},
			{
				"type": "occ",
				"energy": -0.27467,
				"method": "rhf"
			},
			{
				"type": "occ",
				"energy": -0.24225,
				"method": "rhf"
			},
			{
				"type": "occ",
				"energy": -0.22551,
				"method": "rhf"
			},
			{
				"type": "unocc",
				"energy": -0.05313,
				"method": "rhf"
			},
			{
				"type": "unocc",
				"energy": 0.00501,
				"method": "rhf"
			},
			{
				"type": "unocc",
				"energy": 0.02228,
				"method": "rhf"
			},
			{
				"type": "unocc",
				"energy": 0.08813,
				"method": "rhf"
			},
			{
				"type": "unocc",
				"energy": 0.09516,
				"method": "rhf"
			}
		],
		"cosmo_sigma_profile": { 
			"-0.025": 0.0,
			"-0.024": 0.0,
			"-0.023": 0.0,
			"-0.022": 0.0,
			"-0.021": 0.0,
			"-0.02": 0.0,
			"-0.019": 0.0,
			"-0.018": 0.0,
			"-0.017": 0.0,
			"-0.016": 0.0,
			"-0.015": 0.0,
			"-0.014": 0.0,
			"-0.013": 0.0,
			"-0.012": 0.0,
			"-0.011": 0.0,
			"-0.01": 0.0,
			"-0.009": 0.0,
			"-0.008": 0.280483255446,
			"-0.007": 3.56222116382,
			"-0.006": 13.0797162736,
			"-0.005": 19.4904591274,
			"-0.004": 20.6382305889,
			"-0.003": 20.9221783709,
			"-0.002": 18.2432953268,
			"-0.001": 20.820125286,
			"0.0": 20.5455547728,
			"0.001": 15.918902785,
			"0.002": 15.0582443024,
			"0.003": 15.0856520772,
			"0.004": 14.456314718,
			"0.005": 6.82910792278,
			"0.006": 2.78401570117,
			"0.007": 1.55621543375,
			"0.008": 2.54406189521,
			"0.009": 2.57107904409,
			"0.01": 2.54488143476,
			"0.011": 3.82398512176,
			"0.012": 5.49687456199,
			"0.013": 1.48659809996,
			"0.014": 0.030893047141,
			"0.015": 0.0,
			"0.016": 0.0,
			"0.017": 0.0,
			"0.018": 0.0,
			"0.019": 0.0,
			"0.02": 0.0,
			"0.021": 0.0,
			"0.022": 0.0,
			"0.023": 0.0,
			"0.024": 0.0,
			"0.025": 0.0
		}
	}
}
