{
	 "smiles": "CC1=NC(=CC(Cl)=N1)C1=CC=NC=C1", 
	 "Tm": 385.15, 
	 "num_atms": 22, 
	 "gaussian": { 
		 "optdone": 1, 
		 "sigma_profile": "yes", 
		 "theory": "DFT", 
		 "functional": "B3LYP", 
		 "basiset": "6-31G**", 
		 "properties": { 
			 "R2extent": 4017.7627, 
			 "electric_dipole_moment_norm": 0.317461509478, 
			 "electric_quadrupole_moment_norm": 14.890603061, 
			 "total_energy": -1010.33806336, 
			 "HOMO_LUMO_gap": 0.18222, 
			 "cosmo_polarized_energy": -9.49, 
			 "cosmo_cavitation_energy": 28.65, 
			 "cosmo_dispersion_energy": -21.32, 
			 "cosmo_repulsion_energy": 1.67, 
			 "cosmo_total_nonelectrostatic_energy": 9.01, 
			 "SMD_solvation_energy": 0.89 
		},
		"coords": [
			{
				"x": 1.1195852571,
				"y": 3.5620195409,
				"z": -1.5540750833,
				"element": "C" 
			},
			{
				"x": 0.7716962014,
				"y": 2.5835115198,
				"z": -0.4676249726,
				"element": "C" 
			},
			{
				"x": -0.0059980242,
				"y": 1.5457848592,
				"z": -0.7796747184,
				"element": "N" 
			},
			{
				"x": -0.3175779715,
				"y": 0.6725964607,
				"z": 0.1995066251,
				"element": "C" 
			},
			{
				"x": 0.1721476988,
				"y": 0.845618354,
				"z": 1.4974235218,
				"element": "C" 
			},
			{
				"x": 0.9706534123,
				"y": 1.9700525022,
				"z": 1.6992001541,
				"element": "C" 
			},
			{
				"x": 1.6242467739,
				"y": 2.2662575828,
				"z": 3.3032228992,
				"element": "Cl" 
			},
			{
				"x": 1.277734081,
				"y": 2.8381322582,
				"z": 0.7575331034,
				"element": "N" 
			},
			{
				"x": -1.1875971314,
				"y": -0.4726448081,
				"z": -0.1786369699,
				"element": "C" 
			},
			{
				"x": -1.8032960879,
				"y": -1.300707092,
				"z": 0.7700441807,
				"element": "C" 
			},
			{
				"x": -2.6006341823,
				"y": -2.3567272227,
				"z": 0.3307822021,
				"element": "C" 
			},
			{
				"x": -2.822079383,
				"y": -2.6397463208,
				"z": -0.9585759744,
				"element": "N" 
			},
			{
				"x": -2.2355570041,
				"y": -1.8412765323,
				"z": -1.8604798152,
				"element": "C" 
			},
			{
				"x": -1.4235675534,
				"y": -0.7583040494,
				"z": -1.530279848,
				"element": "C" 
			},
			{
				"x": 2.2063458778,
				"y": 3.6491411401,
				"z": -1.6490448023,
				"element": "H" 
			},
			{
				"x": 0.7410435807,
				"y": 4.5570731989,
				"z": -1.2984593349,
				"element": "H" 
			},
			{
				"x": 0.6904814912,
				"y": 3.2427907007,
				"z": -2.5039097705,
				"element": "H" 
			},
			{
				"x": -0.0310431109,
				"y": 0.1543029936,
				"z": 2.3034160982,
				"element": "H" 
			},
			{
				"x": -1.6902742891,
				"y": -1.1301449803,
				"z": 1.8352937731,
				"element": "H" 
			},
			{
				"x": -3.0880534337,
				"y": -3.0061927387,
				"z": 1.0556143202,
				"element": "H" 
			},
			{
				"x": -2.4251469029,
				"y": -2.0797870063,
				"z": -2.9053977978,
				"element": "H" 
			},
			{
				"x": -0.9750092999,
				"y": -0.1374503602,
				"z": -2.2962777906,
				"element": "H" 
			}
		],
		 "valence_orbital": [ 
			{
				"type": "occ",
				"energy": -0.29234,
				"method": "rhf"
			},
			{
				"type": "occ",
				"energy": -0.27397,
				"method": "rhf"
			},
			{
				"type": "occ",
				"energy": -0.2731,
				"method": "rhf"
			},
			{
				"type": "occ",
				"energy": -0.27029,
				"method": "rhf"
			},
			{
				"type": "occ",
				"energy": -0.26338,
				"method": "rhf"
			},
			{
				"type": "unocc",
				"energy": -0.08116,
				"method": "rhf"
			},
			{
				"type": "unocc",
				"energy": -0.04533,
				"method": "rhf"
			},
			{
				"type": "unocc",
				"energy": -0.01785,
				"method": "rhf"
			},
			{
				"type": "unocc",
				"energy": -0.00108,
				"method": "rhf"
			},
			{
				"type": "unocc",
				"energy": 0.022,
				"method": "rhf"
			}
		],
		"cosmo_sigma_profile": { 
			"-0.025": 0.0,
			"-0.024": 0.0,
			"-0.023": 0.0,
			"-0.022": 0.0,
			"-0.021": 0.0,
			"-0.02": 0.0,
			"-0.019": 0.0,
			"-0.018": 0.0,
			"-0.017": 0.0,
			"-0.016": 0.0,
			"-0.015": 0.0,
			"-0.014": 0.0,
			"-0.013": 0.0,
			"-0.012": 0.00186544776862,
			"-0.011": 0.724638291005,
			"-0.01": 2.01856948428,
			"-0.009": 1.91671380799,
			"-0.008": 2.4171611901,
			"-0.007": 4.6808964151,
			"-0.006": 11.114232322,
			"-0.005": 11.9424570802,
			"-0.004": 13.6320520531,
			"-0.003": 20.1809213051,
			"-0.002": 24.9413630015,
			"-0.001": 24.148877106,
			"0.0": 17.7700176919,
			"0.001": 22.1273751124,
			"0.002": 19.4357149005,
			"0.003": 14.1691512281,
			"0.004": 10.750503706,
			"0.005": 5.98175952634,
			"0.006": 4.71540662537,
			"0.007": 3.95612524378,
			"0.008": 3.64679061188,
			"0.009": 3.06280972826,
			"0.01": 2.07518984967,
			"0.011": 2.02232774148,
			"0.012": 1.84095555072,
			"0.013": 1.22856078815,
			"0.014": 1.2304574572,
			"0.015": 0.778023409484,
			"0.016": 0.730461172332,
			"0.017": 0.0944273393008,
			"0.018": 0.0,
			"0.019": 0.0,
			"0.02": 0.0,
			"0.021": 0.0,
			"0.022": 0.0,
			"0.023": 0.0,
			"0.024": 0.0,
			"0.025": 0.0
		}
	}
}
