{
	 "smiles": "CCOC(=O)CCCOC1=CC=C(Cl)C=C1C", 
	 "Tm": 272.15, 
	 "num_atms": 34, 
	 "gaussian": { 
		 "optdone": 1, 
		 "sigma_profile": "yes", 
		 "theory": "DFT", 
		 "functional": "B3LYP", 
		 "basiset": "6-31G**", 
		 "properties": { 
			 "R2extent": 7743.7574, 
			 "electric_dipole_moment_norm": 5.40070581406, 
			 "electric_quadrupole_moment_norm": 18.0806545415, 
			 "total_energy": -1191.51742956, 
			 "HOMO_LUMO_gap": 0.20635, 
			 "cosmo_polarized_energy": -9.47, 
			 "cosmo_cavitation_energy": 38.71, 
			 "cosmo_dispersion_energy": -27.61, 
			 "cosmo_repulsion_energy": 2.2, 
			 "cosmo_total_nonelectrostatic_energy": 13.3, 
			 "SMD_solvation_energy": 7.26 
		},
		"coords": [
			{
				"x": 0.7319466962,
				"y": 5.8542578493,
				"z": 1.2673475884,
				"element": "C" 
			},
			{
				"x": 1.5730994461,
				"y": 4.907695923,
				"z": 2.1095326474,
				"element": "C" 
			},
			{
				"x": 2.2463575483,
				"y": 3.923603497,
				"z": 1.2827193802,
				"element": "O" 
			},
			{
				"x": 1.5506598311,
				"y": 2.8137340044,
				"z": 0.9683520312,
				"element": "C" 
			},
			{
				"x": 0.4142152017,
				"y": 2.5972432349,
				"z": 1.3431075633,
				"element": "O" 
			},
			{
				"x": 2.3760667042,
				"y": 1.8918205536,
				"z": 0.0873997236,
				"element": "C" 
			},
			{
				"x": 1.6634756415,
				"y": 0.5819699804,
				"z": -0.2607306846,
				"element": "C" 
			},
			{
				"x": 1.5549348386,
				"y": -0.3676185775,
				"z": 0.9360914028,
				"element": "C" 
			},
			{
				"x": 0.8775604961,
				"y": -1.5785505501,
				"z": 0.6037480095,
				"element": "O" 
			},
			{
				"x": -0.4926810826,
				"y": -1.6096780405,
				"z": 0.599636788,
				"element": "C" 
			},
			{
				"x": -1.3137928343,
				"y": -0.5130542544,
				"z": 0.8819635589,
				"element": "C" 
			},
			{
				"x": -2.7041905468,
				"y": -0.6603455068,
				"z": 0.8653097574,
				"element": "C" 
			},
			{
				"x": -3.2569670062,
				"y": -1.8981123912,
				"z": 0.5640734091,
				"element": "C" 
			},
			{
				"x": -5.009186317,
				"y": -2.09377858,
				"z": 0.538034078,
				"element": "Cl" 
			},
			{
				"x": -2.4411068439,
				"y": -2.9938991025,
				"z": 0.2769392723,
				"element": "C" 
			},
			{
				"x": -1.0524585974,
				"y": -2.8683911197,
				"z": 0.2898087872,
				"element": "C" 
			},
			{
				"x": -0.1529302924,
				"y": -4.0394564149,
				"z": -0.0125445423,
				"element": "C" 
			},
			{
				"x": -0.0858237091,
				"y": 5.3153087425,
				"z": 0.7826766747,
				"element": "H" 
			},
			{
				"x": 0.298688965,
				"y": 6.6317233242,
				"z": 1.9052062399,
				"element": "H" 
			},
			{
				"x": 1.3416049374,
				"y": 6.3404739047,
				"z": 0.5001483064,
				"element": "H" 
			},
			{
				"x": 0.9612651617,
				"y": 4.3858362009,
				"z": 2.8489288451,
				"element": "H" 
			},
			{
				"x": 2.3854080396,
				"y": 5.4343185812,
				"z": 2.6156457579,
				"element": "H" 
			},
			{
				"x": 3.3356932281,
				"y": 1.7133458841,
				"z": 0.5892123845,
				"element": "H" 
			},
			{
				"x": 2.6246856539,
				"y": 2.4515220515,
				"z": -0.82201611,
				"element": "H" 
			},
			{
				"x": 2.2119543971,
				"y": 0.071441975,
				"z": -1.0594029658,
				"element": "H" 
			},
			{
				"x": 0.6644501254,
				"y": 0.8040669382,
				"z": -0.6462906299,
				"element": "H" 
			},
			{
				"x": 1.0717434268,
				"y": 0.1225308182,
				"z": 1.7876976988,
				"element": "H" 
			},
			{
				"x": 2.5544596178,
				"y": -0.6848598455,
				"z": 1.2523879895,
				"element": "H" 
			},
			{
				"x": -0.895596147,
				"y": 0.461838262,
				"z": 1.1060077941,
				"element": "H" 
			},
			{
				"x": -3.3431861695,
				"y": 0.1882988325,
				"z": 1.0826824171,
				"element": "H" 
			},
			{
				"x": -2.8907654456,
				"y": -3.9536042117,
				"z": 0.0435291383,
				"element": "H" 
			},
			{
				"x": 0.5133103234,
				"y": -4.2537164692,
				"z": 0.8302210485,
				"element": "H" 
			},
			{
				"x": 0.4924166729,
				"y": -3.8317360758,
				"z": -0.8730690096,
				"element": "H" 
			},
			{
				"x": -0.7383119615,
				"y": -4.936929418,
				"z": -0.2280543499,
				"element": "H" 
			}
		],
		 "valence_orbital": [ 
			{
				"type": "occ",
				"energy": -0.29793,
				"method": "rhf"
			},
			{
				"type": "occ",
				"energy": -0.29157,
				"method": "rhf"
			},
			{
				"type": "occ",
				"energy": -0.28407,
				"method": "rhf"
			},
			{
				"type": "occ",
				"energy": -0.24399,
				"method": "rhf"
			},
			{
				"type": "occ",
				"energy": -0.20722,
				"method": "rhf"
			},
			{
				"type": "unocc",
				"energy": -0.00087,
				"method": "rhf"
			},
			{
				"type": "unocc",
				"energy": 0.00164,
				"method": "rhf"
			},
			{
				"type": "unocc",
				"energy": 0.0127,
				"method": "rhf"
			},
			{
				"type": "unocc",
				"energy": 0.04393,
				"method": "rhf"
			},
			{
				"type": "unocc",
				"energy": 0.08174,
				"method": "rhf"
			}
		],
		"cosmo_sigma_profile": { 
			"-0.025": 0.0,
			"-0.024": 0.0,
			"-0.023": 0.0,
			"-0.022": 0.0,
			"-0.021": 0.0,
			"-0.02": 0.0,
			"-0.019": 0.0,
			"-0.018": 0.0,
			"-0.017": 0.0,
			"-0.016": 0.0,
			"-0.015": 0.0,
			"-0.014": 0.0,
			"-0.013": 0.0,
			"-0.012": 0.0,
			"-0.011": 0.0,
			"-0.01": 0.0,
			"-0.009": 0.0,
			"-0.008": 0.0,
			"-0.007": 2.07795768621,
			"-0.006": 13.1287776343,
			"-0.005": 18.0560471429,
			"-0.004": 28.4860331096,
			"-0.003": 33.3626132661,
			"-0.002": 30.6260722249,
			"-0.001": 25.4542832093,
			"0.0": 29.9458154817,
			"0.001": 20.7616404559,
			"0.002": 19.6722212044,
			"0.003": 21.7878387963,
			"0.004": 22.4690734279,
			"0.005": 20.7091163519,
			"0.006": 6.5470214573,
			"0.007": 3.38733622932,
			"0.008": 3.80557281399,
			"0.009": 3.57645779945,
			"0.01": 1.58434083338,
			"0.011": 1.20384827326,
			"0.012": 0.788854449898,
			"0.013": 0.0,
			"0.014": 0.0,
			"0.015": 0.0,
			"0.016": 0.0,
			"0.017": 0.0,
			"0.018": 0.0,
			"0.019": 0.0,
			"0.02": 0.0,
			"0.021": 0.0,
			"0.022": 0.0,
			"0.023": 0.0,
			"0.024": 0.0,
			"0.025": 0.0
		}
	}
}
