{
	 "smiles": "NC1CCN(C1=O)C1=CC(Cl)=CC=C1", 
	 "Tm": 373.15, 
	 "num_atms": 25, 
	 "gaussian": { 
		 "optdone": 1, 
		 "sigma_profile": "yes", 
		 "theory": "DFT", 
		 "functional": "B3LYP", 
		 "basiset": "6-31G**", 
		 "properties": { 
			 "R2extent": 4769.2275, 
			 "electric_dipole_moment_norm": 1.69073889468, 
			 "electric_quadrupole_moment_norm": 13.8568570578, 
			 "total_energy": -1032.62680472, 
			 "HOMO_LUMO_gap": 0.20253, 
			 "cosmo_polarized_energy": -12.67, 
			 "cosmo_cavitation_energy": 29.69, 
			 "cosmo_dispersion_energy": -22.02, 
			 "cosmo_repulsion_energy": 1.73, 
			 "cosmo_total_nonelectrostatic_energy": 9.4, 
			 "SMD_solvation_energy": 3.46 
		},
		"coords": [
			{
				"x": -1.8064098629,
				"y": -0.9621260492,
				"z": -2.1152556271,
				"element": "N" 
			},
			{
				"x": -1.3126240366,
				"y": 0.4190260443,
				"z": -2.0369164508,
				"element": "C" 
			},
			{
				"x": -0.0906382753,
				"y": 0.6614050376,
				"z": -2.9277739274,
				"element": "C" 
			},
			{
				"x": 1.1182294477,
				"y": 0.5066939728,
				"z": -1.9861245644,
				"element": "C" 
			},
			{
				"x": 0.5789206747,
				"y": 0.7950952136,
				"z": -0.6488431836,
				"element": "N" 
			},
			{
				"x": -0.8114231502,
				"y": 0.771849151,
				"z": -0.6268261027,
				"element": "C" 
			},
			{
				"x": -1.533056694,
				"y": 0.928175286,
				"z": 0.3462492768,
				"element": "O" 
			},
			{
				"x": 1.4304914131,
				"y": 0.9354421053,
				"z": 0.4714836912,
				"element": "C" 
			},
			{
				"x": 2.8053757289,
				"y": 0.6820857683,
				"z": 0.3194530925,
				"element": "C" 
			},
			{
				"x": 3.6569138985,
				"y": 0.8298055587,
				"z": 1.4116638938,
				"element": "C" 
			},
			{
				"x": 5.3735295037,
				"y": 0.5047341117,
				"z": 1.1891573767,
				"element": "Cl" 
			},
			{
				"x": 3.1910846091,
				"y": 1.2218248714,
				"z": 2.6622611571,
				"element": "C" 
			},
			{
				"x": 1.823541034,
				"y": 1.4669538688,
				"z": 2.799951104,
				"element": "C" 
			},
			{
				"x": 0.9420499519,
				"y": 1.3316626922,
				"z": 1.7313143451,
				"element": "C" 
			},
			{
				"x": -2.5578517385,
				"y": -1.0770844111,
				"z": -1.4371239556,
				"element": "H" 
			},
			{
				"x": -1.0739481975,
				"y": -1.6119955074,
				"z": -1.8320759579,
				"element": "H" 
			},
			{
				"x": -2.1485770096,
				"y": 1.0785897552,
				"z": -2.2853637292,
				"element": "H" 
			},
			{
				"x": -0.1167793511,
				"y": 1.6793443806,
				"z": -3.3268048702,
				"element": "H" 
			},
			{
				"x": -0.0568343094,
				"y": -0.0321213228,
				"z": -3.7707342617,
				"element": "H" 
			},
			{
				"x": 1.922658225,
				"y": 1.2069981206,
				"z": -2.2296662009,
				"element": "H" 
			},
			{
				"x": 1.5408429139,
				"y": -0.5068983195,
				"z": -2.0161731575,
				"element": "H" 
			},
			{
				"x": 3.2222856018,
				"y": 0.3662071107,
				"z": -0.6270839115,
				"element": "H" 
			},
			{
				"x": 3.8740414734,
				"y": 1.3307300308,
				"z": 3.496571164,
				"element": "H" 
			},
			{
				"x": 1.4341674901,
				"y": 1.7740705226,
				"z": 3.7661816811,
				"element": "H" 
			},
			{
				"x": -0.1142893408,
				"y": 1.5169320078,
				"z": 1.8558791182,
				"element": "H" 
			}
		],
		 "valence_orbital": [ 
			{
				"type": "occ",
				"energy": -0.29942,
				"method": "rhf"
			},
			{
				"type": "occ",
				"energy": -0.28119,
				"method": "rhf"
			},
			{
				"type": "occ",
				"energy": -0.25179,
				"method": "rhf"
			},
			{
				"type": "occ",
				"energy": -0.2371,
				"method": "rhf"
			},
			{
				"type": "occ",
				"energy": -0.22778,
				"method": "rhf"
			},
			{
				"type": "unocc",
				"energy": -0.02525,
				"method": "rhf"
			},
			{
				"type": "unocc",
				"energy": -0.01278,
				"method": "rhf"
			},
			{
				"type": "unocc",
				"energy": 0.0267,
				"method": "rhf"
			},
			{
				"type": "unocc",
				"energy": 0.02963,
				"method": "rhf"
			},
			{
				"type": "unocc",
				"energy": 0.06648,
				"method": "rhf"
			}
		],
		"cosmo_sigma_profile": { 
			"-0.025": 0.0,
			"-0.024": 0.0,
			"-0.023": 0.0,
			"-0.022": 0.0,
			"-0.021": 0.0,
			"-0.02": 0.0,
			"-0.019": 0.0,
			"-0.018": 0.0,
			"-0.017": 0.0,
			"-0.016": 0.0,
			"-0.015": 0.0,
			"-0.014": 0.0,
			"-0.013": 0.0,
			"-0.012": 0.0,
			"-0.011": 0.318341937253,
			"-0.01": 3.17854672007,
			"-0.009": 2.82071611336,
			"-0.008": 4.67823740255,
			"-0.007": 7.52797881824,
			"-0.006": 13.8623965788,
			"-0.005": 21.5838627432,
			"-0.004": 20.5796464259,
			"-0.003": 15.1013025161,
			"-0.002": 14.0410682895,
			"-0.001": 13.2109848964,
			"0.0": 12.0732338377,
			"0.001": 14.4827518043,
			"0.002": 18.4319459686,
			"0.003": 19.5968854553,
			"0.004": 20.7358987148,
			"0.005": 11.217668293,
			"0.006": 2.8841496427,
			"0.007": 2.04296863212,
			"0.008": 1.51159346707,
			"0.009": 2.23135435001,
			"0.01": 2.54470794282,
			"0.011": 2.07073958209,
			"0.012": 4.02177838821,
			"0.013": 2.9375277106,
			"0.014": 1.81891806468,
			"0.015": 0.230083485464,
			"0.016": 0.509379630142,
			"0.017": 0.581124506752,
			"0.018": 0.682400133116,
			"0.019": 0.0695254481778,
			"0.02": 0.0,
			"0.021": 0.0,
			"0.022": 0.0,
			"0.023": 0.0,
			"0.024": 0.0,
			"0.025": 0.0
		}
	}
}
