{
	 "smiles": "C1=CC=C(C=C1)C1=CC=C2C=C3C=CC(=NC3=CC2=N1)C1=CC=CC=C1", 
	 "Tm": 552.15, 
	 "num_atms": 42, 
	 "gaussian": { 
		 "optdone": 1, 
		 "sigma_profile": "yes", 
		 "theory": "DFT", 
		 "functional": "B3LYP", 
		 "basiset": "6-31G**", 
		 "properties": { 
			 "R2extent": 16750.1523, 
			 "electric_dipole_moment_norm": 2.84141857705, 
			 "electric_quadrupole_moment_norm": 17.4372277507, 
			 "total_energy": -1033.73017555, 
			 "HOMO_LUMO_gap": 0.12756, 
			 "cosmo_polarized_energy": -13.89, 
			 "cosmo_cavitation_energy": 46.31, 
			 "cosmo_dispersion_energy": -34.11, 
			 "cosmo_repulsion_energy": 2.47, 
			 "cosmo_total_nonelectrostatic_energy": 14.67, 
			 "SMD_solvation_energy": 4.8 
		},
		"coords": [
			{
				"x": 5.6603858416,
				"y": -4.3675248855,
				"z": 1.3933080785,
				"element": "C" 
			},
			{
				"x": 5.0227600902,
				"y": -4.6325258861,
				"z": 0.1808862602,
				"element": "C" 
			},
			{
				"x": 3.9116641801,
				"y": -3.8834827037,
				"z": -0.2061737664,
				"element": "C" 
			},
			{
				"x": 3.4157952642,
				"y": -2.8567929571,
				"z": 0.6143569606,
				"element": "C" 
			},
			{
				"x": 4.0608851265,
				"y": -2.607809792,
				"z": 1.8385649836,
				"element": "C" 
			},
			{
				"x": 5.1724586251,
				"y": -3.352485509,
				"z": 2.221274226,
				"element": "C" 
			},
			{
				"x": 2.2312312986,
				"y": -2.0411793528,
				"z": 0.232177315,
				"element": "C" 
			},
			{
				"x": 1.7893342663,
				"y": -1.9762880763,
				"z": -1.1358604101,
				"element": "C" 
			},
			{
				"x": 0.6982287053,
				"y": -1.2214523042,
				"z": -1.4583211167,
				"element": "C" 
			},
			{
				"x": 0.007271824,
				"y": -0.5003079782,
				"z": -0.4405727274,
				"element": "C" 
			},
			{
				"x": -1.1184346176,
				"y": 0.2935836168,
				"z": -0.6846922575,
				"element": "C" 
			},
			{
				"x": -1.7463737223,
				"y": 0.9869675358,
				"z": 0.3555028519,
				"element": "C" 
			},
			{
				"x": -2.9022139473,
				"y": 1.8020330897,
				"z": 0.1738319358,
				"element": "C" 
			},
			{
				"x": -3.4540578773,
				"y": 2.4479355889,
				"z": 1.2427451485,
				"element": "C" 
			},
			{
				"x": -2.8607132053,
				"y": 2.3035900998,
				"z": 2.5458564792,
				"element": "C" 
			},
			{
				"x": -1.8004465129,
				"y": 1.5463993504,
				"z": 2.7521196442,
				"element": "N" 
			},
			{
				"x": -1.2279096431,
				"y": 0.8846449075,
				"z": 1.698472469,
				"element": "C" 
			},
			{
				"x": -0.1009904029,
				"y": 0.088119879,
				"z": 1.9403746743,
				"element": "C" 
			},
			{
				"x": 0.5291840186,
				"y": -0.6081127021,
				"z": 0.9006334459,
				"element": "C" 
			},
			{
				"x": 1.6245152541,
				"y": -1.3755439347,
				"z": 1.1959677538,
				"element": "N" 
			},
			{
				"x": -3.4386491448,
				"y": 2.99623623,
				"z": 3.7293783817,
				"element": "C" 
			},
			{
				"x": -3.1085259429,
				"y": 2.5498150026,
				"z": 5.0210972702,
				"element": "C" 
			},
			{
				"x": -3.635833864,
				"y": 3.1758679583,
				"z": 6.1465246106,
				"element": "C" 
			},
			{
				"x": -4.498954358,
				"y": 4.2665410216,
				"z": 6.0073812406,
				"element": "C" 
			},
			{
				"x": -4.8258541992,
				"y": 4.7268317386,
				"z": 4.7314366232,
				"element": "C" 
			},
			{
				"x": -4.3020441895,
				"y": 4.0970159623,
				"z": 3.6025524412,
				"element": "C" 
			},
			{
				"x": 6.5278697444,
				"y": -4.9487432581,
				"z": 1.6927334988,
				"element": "H" 
			},
			{
				"x": 5.3861031559,
				"y": -5.4272572181,
				"z": -0.4643835648,
				"element": "H" 
			},
			{
				"x": 3.4182319008,
				"y": -4.1243393468,
				"z": -1.1422533622,
				"element": "H" 
			},
			{
				"x": 3.6691306825,
				"y": -1.822239091,
				"z": 2.4745846754,
				"element": "H" 
			},
			{
				"x": 5.6618478573,
				"y": -3.1406666423,
				"z": 3.1677727244,
				"element": "H" 
			},
			{
				"x": 2.3357342064,
				"y": -2.5025422705,
				"z": -1.9094424589,
				"element": "H" 
			},
			{
				"x": 0.3520970611,
				"y": -1.1525081902,
				"z": -2.4866896379,
				"element": "H" 
			},
			{
				"x": -1.5105721865,
				"y": 0.372767261,
				"z": -1.6964821773,
				"element": "H" 
			},
			{
				"x": -3.3390056372,
				"y": 1.8912485438,
				"z": -0.8178115735,
				"element": "H" 
			},
			{
				"x": -4.3494326397,
				"y": 3.0447242932,
				"z": 1.1159193752,
				"element": "H" 
			},
			{
				"x": 0.2896505311,
				"y": 0.0092245725,
				"z": 2.9483311431,
				"element": "H" 
			},
			{
				"x": -2.4332726776,
				"y": 1.7070967393,
				"z": 5.1157894988,
				"element": "H" 
			},
			{
				"x": -3.3746720103,
				"y": 2.8120950928,
				"z": 7.1363181517,
				"element": "H" 
			},
			{
				"x": -4.9099648343,
				"y": 4.7550946974,
				"z": 6.8862345208,
				"element": "H" 
			},
			{
				"x": -5.4858139978,
				"y": 5.5813595202,
				"z": 4.6121643339,
				"element": "H" 
			},
			{
				"x": -4.5517440234,
				"y": 4.4883093972,
				"z": 2.6215923365,
				"element": "H" 
			}
		],
		 "valence_orbital": [ 
			{
				"type": "occ",
				"energy": -0.24957,
				"method": "rhf"
			},
			{
				"type": "occ",
				"energy": -0.24864,
				"method": "rhf"
			},
			{
				"type": "occ",
				"energy": -0.24802,
				"method": "rhf"
			},
			{
				"type": "occ",
				"energy": -0.22346,
				"method": "rhf"
			},
			{
				"type": "occ",
				"energy": -0.20946,
				"method": "rhf"
			},
			{
				"type": "unocc",
				"energy": -0.0819,
				"method": "rhf"
			},
			{
				"type": "unocc",
				"energy": -0.0435,
				"method": "rhf"
			},
			{
				"type": "unocc",
				"energy": -0.02023,
				"method": "rhf"
			},
			{
				"type": "unocc",
				"energy": -0.00982,
				"method": "rhf"
			},
			{
				"type": "unocc",
				"energy": 0.00075,
				"method": "rhf"
			}
		],
		"cosmo_sigma_profile": { 
			"-0.025": 0.0,
			"-0.024": 0.0,
			"-0.023": 0.0,
			"-0.022": 0.0,
			"-0.021": 0.0,
			"-0.02": 0.0,
			"-0.019": 0.0,
			"-0.018": 0.0,
			"-0.017": 0.0,
			"-0.016": 0.0,
			"-0.015": 0.0,
			"-0.014": 0.0,
			"-0.013": 0.0,
			"-0.012": 0.0,
			"-0.011": 0.0,
			"-0.01": 0.0,
			"-0.009": 0.110674903179,
			"-0.008": 4.98325174852,
			"-0.007": 14.4757162732,
			"-0.006": 20.7401155306,
			"-0.005": 26.0116768987,
			"-0.004": 27.7431160628,
			"-0.003": 24.4846621541,
			"-0.002": 19.6836792332,
			"-0.001": 19.3314045891,
			"0.0": 25.1384156572,
			"0.001": 40.7504959559,
			"0.002": 43.3972278306,
			"0.003": 32.1509060316,
			"0.004": 26.4063662376,
			"0.005": 26.7397902253,
			"0.006": 6.7561089981,
			"0.007": 3.84187959571,
			"0.008": 3.92946686861,
			"0.009": 2.6646619522,
			"0.01": 1.37217198676,
			"0.011": 2.07024035178,
			"0.012": 1.26007928669,
			"0.013": 0.250121292554,
			"0.014": 0.0,
			"0.015": 0.0,
			"0.016": 0.0,
			"0.017": 0.0,
			"0.018": 0.0,
			"0.019": 0.0,
			"0.02": 0.0,
			"0.021": 0.0,
			"0.022": 0.0,
			"0.023": 0.0,
			"0.024": 0.0,
			"0.025": 0.0
		}
	}
}
