{
	 "smiles": "COC1=CC2=C(C=C1C=O)C(OC)=CC=C2", 
	 "Tm": 410.15, 
	 "num_atms": 28, 
	 "gaussian": { 
		 "optdone": 1, 
		 "sigma_profile": "yes", 
		 "theory": "DFT", 
		 "functional": "B3LYP", 
		 "basiset": "6-31G**", 
		 "properties": { 
			 "R2extent": 4591.9682, 
			 "electric_dipole_moment_norm": 4.48419980041, 
			 "electric_quadrupole_moment_norm": 19.5643718818, 
			 "total_energy": -728.26665557, 
			 "HOMO_LUMO_gap": 0.1447, 
			 "cosmo_polarized_energy": -11.92, 
			 "cosmo_cavitation_energy": 31.93, 
			 "cosmo_dispersion_energy": -23.29, 
			 "cosmo_repulsion_energy": 1.79, 
			 "cosmo_total_nonelectrostatic_energy": 10.43, 
			 "SMD_solvation_energy": 7.82 
		},
		"coords": [
			{
				"x": -3.2263581517,
				"y": 3.4224069229,
				"z": 1.5589376114,
				"element": "C" 
			},
			{
				"x": -2.0602811427,
				"y": 3.0975113122,
				"z": 0.8165793407,
				"element": "O" 
			},
			{
				"x": -1.4894547297,
				"y": 1.8749729388,
				"z": 1.0047742275,
				"element": "C" 
			},
			{
				"x": -1.9672405472,
				"y": 0.9155312615,
				"z": 1.8752262529,
				"element": "C" 
			},
			{
				"x": -1.3108867497,
				"y": -0.3375538815,
				"z": 2.0126051412,
				"element": "C" 
			},
			{
				"x": -0.1386157451,
				"y": -0.5984527391,
				"z": 1.2328287385,
				"element": "C" 
			},
			{
				"x": 0.3274672278,
				"y": 0.3991715689,
				"z": 0.3515973072,
				"element": "C" 
			},
			{
				"x": -0.3170915148,
				"y": 1.616926871,
				"z": 0.2232788565,
				"element": "C" 
			},
			{
				"x": 0.2230475723,
				"y": 2.6230537797,
				"z": -0.7202934928,
				"element": "C" 
			},
			{
				"x": 1.2179111831,
				"y": 2.4429750896,
				"z": -1.4036649947,
				"element": "O" 
			},
			{
				"x": 0.5236075996,
				"y": -1.8633870968,
				"z": 1.3718627149,
				"element": "C" 
			},
			{
				"x": 1.6266034283,
				"y": -2.0213968626,
				"z": 0.5928768,
				"element": "O" 
			},
			{
				"x": 2.3407712793,
				"y": -3.2459465248,
				"z": 0.6701796361,
				"element": "C" 
			},
			{
				"x": 0.0356236883,
				"y": -2.8162669992,
				"z": 2.2468921431,
				"element": "C" 
			},
			{
				"x": -1.1248464976,
				"y": -2.5377732197,
				"z": 3.0082927569,
				"element": "C" 
			},
			{
				"x": -1.7874332831,
				"y": -1.3368564218,
				"z": 2.9027608135,
				"element": "C" 
			},
			{
				"x": -4.0500480403,
				"y": 2.7336404051,
				"z": 1.3335920321,
				"element": "H" 
			},
			{
				"x": -3.5051593778,
				"y": 4.4317986912,
				"z": 1.2536995579,
				"element": "H" 
			},
			{
				"x": -3.030948944,
				"y": 3.4096751952,
				"z": 2.6384234149,
				"element": "H" 
			},
			{
				"x": -2.8527872449,
				"y": 1.0951184665,
				"z": 2.4733850031,
				"element": "H" 
			},
			{
				"x": 1.2124807357,
				"y": 0.2274937482,
				"z": -0.2503255461,
				"element": "H" 
			},
			{
				"x": -0.3374579296,
				"y": 3.5743178932,
				"z": -0.7761005752,
				"element": "H" 
			},
			{
				"x": 2.7312339211,
				"y": -3.4194535,
				"z": 1.6807369255,
				"element": "H" 
			},
			{
				"x": 1.7125641038,
				"y": -4.0959142317,
				"z": 0.375735422,
				"element": "H" 
			},
			{
				"x": 3.1733023525,
				"y": -3.1523888795,
				"z": -0.0281794407,
				"element": "H" 
			},
			{
				"x": 0.5264564671,
				"y": -3.7747066239,
				"z": 2.3607739902,
				"element": "H" 
			},
			{
				"x": -1.4928571233,
				"y": -3.2992055974,
				"z": 3.6903851679,
				"element": "H" 
			},
			{
				"x": -2.6764025373,
				"y": -1.140691566,
				"z": 3.4949401953,
				"element": "H" 
			}
		],
		 "valence_orbital": [ 
			{
				"type": "occ",
				"energy": -0.30285,
				"method": "rhf"
			},
			{
				"type": "occ",
				"energy": -0.26445,
				"method": "rhf"
			},
			{
				"type": "occ",
				"energy": -0.23882,
				"method": "rhf"
			},
			{
				"type": "occ",
				"energy": -0.23087,
				"method": "rhf"
			},
			{
				"type": "occ",
				"energy": -0.20504,
				"method": "rhf"
			},
			{
				"type": "unocc",
				"energy": -0.06034,
				"method": "rhf"
			},
			{
				"type": "unocc",
				"energy": -0.01622,
				"method": "rhf"
			},
			{
				"type": "unocc",
				"energy": 0.02057,
				"method": "rhf"
			},
			{
				"type": "unocc",
				"energy": 0.04629,
				"method": "rhf"
			},
			{
				"type": "unocc",
				"energy": 0.08877,
				"method": "rhf"
			}
		],
		"cosmo_sigma_profile": { 
			"-0.025": 0.0,
			"-0.024": 0.0,
			"-0.023": 0.0,
			"-0.022": 0.0,
			"-0.021": 0.0,
			"-0.02": 0.0,
			"-0.019": 0.0,
			"-0.018": 0.0,
			"-0.017": 0.0,
			"-0.016": 0.0,
			"-0.015": 0.0,
			"-0.014": 0.0,
			"-0.013": 0.0,
			"-0.012": 0.0,
			"-0.011": 0.0,
			"-0.01": 0.0,
			"-0.009": 0.0,
			"-0.008": 0.0,
			"-0.007": 2.70819843106,
			"-0.006": 19.7422318049,
			"-0.005": 25.6320362764,
			"-0.004": 25.8769332182,
			"-0.003": 23.2138904445,
			"-0.002": 15.2053959936,
			"-0.001": 13.1158897103,
			"0.0": 12.2218657445,
			"0.001": 15.4257692844,
			"0.002": 26.0986357408,
			"0.003": 23.4228402089,
			"0.004": 16.4678049646,
			"0.005": 12.1436987615,
			"0.006": 5.80947562857,
			"0.007": 3.10715425302,
			"0.008": 1.51587759495,
			"0.009": 1.89823392869,
			"0.01": 2.5051087467,
			"0.011": 3.49413072761,
			"0.012": 3.9942574338,
			"0.013": 1.45989662139,
			"0.014": 0.0751661106964,
			"0.015": 0.0,
			"0.016": 0.0,
			"0.017": 0.0,
			"0.018": 0.0,
			"0.019": 0.0,
			"0.02": 0.0,
			"0.021": 0.0,
			"0.022": 0.0,
			"0.023": 0.0,
			"0.024": 0.0,
			"0.025": 0.0
		}
	}
}
