{
	 "smiles": "NCCS(=O)(=O)N1CCSCC1", 
	 "Tm": 333.15, 
	 "num_atms": 26, 
	 "gaussian": { 
		 "optdone": 1, 
		 "sigma_profile": "yes", 
		 "theory": "DFT", 
		 "functional": "B3LYP", 
		 "basiset": "6-31G**", 
		 "properties": { 
			 "R2extent": 3524.9341, 
			 "electric_dipole_moment_norm": 4.02944545068, 
			 "electric_quadrupole_moment_norm": 15.2527081625, 
			 "total_energy": -1293.32106935, 
			 "HOMO_LUMO_gap": 0.25691, 
			 "cosmo_polarized_energy": -20.53, 
			 "cosmo_cavitation_energy": 30.27, 
			 "cosmo_dispersion_energy": -22.75, 
			 "cosmo_repulsion_energy": 1.74, 
			 "cosmo_total_nonelectrostatic_energy": 9.26, 
			 "SMD_solvation_energy": 1.4 
		},
		"coords": [
			{
				"x": -2.8488041054,
				"y": -0.7580738934,
				"z": -2.2752075766,
				"element": "N" 
			},
			{
				"x": -2.5103527964,
				"y": -0.7885176848,
				"z": -0.8571885287,
				"element": "C" 
			},
			{
				"x": -1.0234616022,
				"y": -0.5124143273,
				"z": -0.5473274898,
				"element": "C" 
			},
			{
				"x": -0.6798529683,
				"y": -0.5639224995,
				"z": 1.2402072996,
				"element": "S" 
			},
			{
				"x": -0.949676442,
				"y": -1.9339675386,
				"z": 1.6866238132,
				"element": "O" 
			},
			{
				"x": -1.3545843857,
				"y": 0.5921503941,
				"z": 1.8398643167,
				"element": "O" 
			},
			{
				"x": 0.9657602406,
				"y": -0.3188006803,
				"z": 1.4198016015,
				"element": "N" 
			},
			{
				"x": 1.8633454338,
				"y": -1.4544736814,
				"z": 1.1315049574,
				"element": "C" 
			},
			{
				"x": 3.3055092543,
				"y": -1.0929813503,
				"z": 1.4738456695,
				"element": "C" 
			},
			{
				"x": 3.980849999,
				"y": 0.2530409669,
				"z": 0.4137257296,
				"element": "S" 
			},
			{
				"x": 2.4867652298,
				"y": 1.3416201368,
				"z": 0.3340030635,
				"element": "C" 
			},
			{
				"x": 1.5041051628,
				"y": 1.0486004941,
				"z": 1.4672824397,
				"element": "C" 
			},
			{
				"x": -2.6325486781,
				"y": 0.1484557387,
				"z": -2.6816629467,
				"element": "H" 
			},
			{
				"x": -2.3151449266,
				"y": -1.452641809,
				"z": -2.7915399909,
				"element": "H" 
			},
			{
				"x": -3.1234074186,
				"y": -0.0485121569,
				"z": -0.3339824196,
				"element": "H" 
			},
			{
				"x": -2.7783148188,
				"y": -1.7687303012,
				"z": -0.4521385288,
				"element": "H" 
			},
			{
				"x": -0.3780373864,
				"y": -1.2625177493,
				"z": -1.0162706232,
				"element": "H" 
			},
			{
				"x": -0.7242831564,
				"y": 0.482849335,
				"z": -0.8922469047,
				"element": "H" 
			},
			{
				"x": 1.5388583616,
				"y": -2.3076802865,
				"z": 1.7330801037,
				"element": "H" 
			},
			{
				"x": 1.815504432,
				"y": -1.7489962068,
				"z": 0.0725368155,
				"element": "H" 
			},
			{
				"x": 3.9463382006,
				"y": -1.9592133898,
				"z": 1.2921487615,
				"element": "H" 
			},
			{
				"x": 3.3958293334,
				"y": -0.8250885138,
				"z": 2.5300612427,
				"element": "H" 
			},
			{
				"x": 2.0020593355,
				"y": 1.2160894216,
				"z": -0.6389553652,
				"element": "H" 
			},
			{
				"x": 2.8399292156,
				"y": 2.3737079178,
				"z": 0.408842568,
				"element": "H" 
			},
			{
				"x": 1.9965580373,
				"y": 1.2120264182,
				"z": 2.4334000873,
				"element": "H" 
			},
			{
				"x": 0.6588564485,
				"y": 1.7390912458,
				"z": 1.4291919047,
				"element": "H" 
			}
		],
		 "valence_orbital": [ 
			{
				"type": "occ",
				"energy": -0.30353,
				"method": "rhf"
			},
			{
				"type": "occ",
				"energy": -0.29993,
				"method": "rhf"
			},
			{
				"type": "occ",
				"energy": -0.26454,
				"method": "rhf"
			},
			{
				"type": "occ",
				"energy": -0.24186,
				"method": "rhf"
			},
			{
				"type": "occ",
				"energy": -0.23369,
				"method": "rhf"
			},
			{
				"type": "unocc",
				"energy": 0.02322,
				"method": "rhf"
			},
			{
				"type": "unocc",
				"energy": 0.03822,
				"method": "rhf"
			},
			{
				"type": "unocc",
				"energy": 0.05161,
				"method": "rhf"
			},
			{
				"type": "unocc",
				"energy": 0.06593,
				"method": "rhf"
			},
			{
				"type": "unocc",
				"energy": 0.07371,
				"method": "rhf"
			}
		],
		"cosmo_sigma_profile": { 
			"-0.025": 0.0,
			"-0.024": 0.0,
			"-0.023": 0.0,
			"-0.022": 0.0,
			"-0.021": 0.0,
			"-0.02": 0.0,
			"-0.019": 0.0,
			"-0.018": 0.0,
			"-0.017": 0.0,
			"-0.016": 0.0,
			"-0.015": 0.0,
			"-0.014": 0.0,
			"-0.013": 0.0,
			"-0.012": 0.0,
			"-0.011": 0.185618754466,
			"-0.01": 2.79786328807,
			"-0.009": 4.1561499503,
			"-0.008": 7.1925447847,
			"-0.007": 13.6197299753,
			"-0.006": 18.2866838031,
			"-0.005": 27.130197117,
			"-0.004": 24.6045528319,
			"-0.003": 18.0329739397,
			"-0.002": 14.06638009,
			"-0.001": 9.06847400983,
			"0.0": 6.517162437,
			"0.001": 7.2588394362,
			"0.002": 7.40077644852,
			"0.003": 6.88518456521,
			"0.004": 7.45064655283,
			"0.005": 7.17767792841,
			"0.006": 7.31544135724,
			"0.007": 6.17391917149,
			"0.008": 6.39049833928,
			"0.009": 5.58786108564,
			"0.01": 7.65460721212,
			"0.011": 10.3587296466,
			"0.012": 7.16849462808,
			"0.013": 1.69580612228,
			"0.014": 0.704248514562,
			"0.015": 0.124042077177,
			"0.016": 0.938968999881,
			"0.017": 0.777335571229,
			"0.018": 0.57157583653,
			"0.019": 0.40211834032,
			"0.02": 0.0,
			"0.021": 0.0,
			"0.022": 0.0,
			"0.023": 0.0,
			"0.024": 0.0,
			"0.025": 0.0
		}
	}
}
