{
	 "smiles": "NS(=O)(=O)C1=CN(CC2=CC=CC=C2)N=C1", 
	 "Tm": 431.15, 
	 "num_atms": 27, 
	 "gaussian": { 
		 "optdone": 1, 
		 "sigma_profile": "yes", 
		 "theory": "DFT", 
		 "functional": "B3LYP", 
		 "basiset": "6-31G**", 
		 "properties": { 
			 "R2extent": 6059.2687, 
			 "electric_dipole_moment_norm": 4.58592296599, 
			 "electric_quadrupole_moment_norm": 24.7148331514, 
			 "total_energy": -1100.48996114, 
			 "HOMO_LUMO_gap": 0.23604, 
			 "cosmo_polarized_energy": -19.63, 
			 "cosmo_cavitation_energy": 33.41, 
			 "cosmo_dispersion_energy": -24.24, 
			 "cosmo_repulsion_energy": 1.86, 
			 "cosmo_total_nonelectrostatic_energy": 11.04, 
			 "SMD_solvation_energy": 4.74 
		},
		"coords": [
			{
				"x": -4.2913536585,
				"y": -1.1941320768,
				"z": -0.0893961929,
				"element": "N" 
			},
			{
				"x": -4.3065375934,
				"y": 0.4408230784,
				"z": -0.5362444898,
				"element": "S" 
			},
			{
				"x": -5.2966981708,
				"y": 0.5273235472,
				"z": -1.6111693296,
				"element": "O" 
			},
			{
				"x": -4.3964353726,
				"y": 1.2927985308,
				"z": 0.6557710133,
				"element": "O" 
			},
			{
				"x": -2.6923631329,
				"y": 0.6653589296,
				"z": -1.1890824591,
				"element": "C" 
			},
			{
				"x": -1.7586069263,
				"y": 1.5654543987,
				"z": -0.7026888713,
				"element": "C" 
			},
			{
				"x": -0.6916151168,
				"y": 1.4813802579,
				"z": -1.5271105723,
				"element": "N" 
			},
			{
				"x": 0.5943858978,
				"y": 2.1696861873,
				"z": -1.4060381716,
				"element": "C" 
			},
			{
				"x": 1.5660021301,
				"y": 1.4798400481,
				"z": -0.4665599121,
				"element": "C" 
			},
			{
				"x": 1.9480414679,
				"y": 0.1501819159,
				"z": -0.6924990552,
				"element": "C" 
			},
			{
				"x": 2.8524176411,
				"y": -0.4753723387,
				"z": 0.1638073562,
				"element": "C" 
			},
			{
				"x": 3.3894818508,
				"y": 0.2204734956,
				"z": 1.2508732565,
				"element": "C" 
			},
			{
				"x": 3.0151626125,
				"y": 1.5443242016,
				"z": 1.4793128843,
				"element": "C" 
			},
			{
				"x": 2.104113818,
				"y": 2.1693650086,
				"z": 0.6243055101,
				"element": "C" 
			},
			{
				"x": -0.8704236984,
				"y": 0.5701555419,
				"z": -2.5197204309,
				"element": "N" 
			},
			{
				"x": -2.0871269005,
				"y": 0.0762073128,
				"z": -2.3236746,
				"element": "C" 
			},
			{
				"x": -5.217780526,
				"y": -1.5758431675,
				"z": -0.266420034,
				"element": "H" 
			},
			{
				"x": -4.0385631913,
				"y": -1.2926219441,
				"z": 0.8911739137,
				"element": "H" 
			},
			{
				"x": -1.8022595622,
				"y": 2.2317451512,
				"z": 0.1452513654,
				"element": "H" 
			},
			{
				"x": 0.994281774,
				"y": 2.2190238843,
				"z": -2.4220552733,
				"element": "H" 
			},
			{
				"x": 0.3983718234,
				"y": 3.1918829811,
				"z": -1.0709582717,
				"element": "H" 
			},
			{
				"x": 1.5262546684,
				"y": -0.3889993283,
				"z": -1.5360157041,
				"element": "H" 
			},
			{
				"x": 3.1417371838,
				"y": -1.5064169653,
				"z": -0.0181848216,
				"element": "H" 
			},
			{
				"x": 4.0958829638,
				"y": -0.2685582433,
				"z": 1.915359511,
				"element": "H" 
			},
			{
				"x": 3.4265728849,
				"y": 2.0908813173,
				"z": 2.3229476099,
				"element": "H" 
			},
			{
				"x": 1.8128768921,
				"y": 3.2011871097,
				"z": 0.8069239001,
				"element": "H" 
			},
			{
				"x": -2.493119759,
				"y": -0.670848834,
				"z": -2.9906081311,
				"element": "H" 
			}
		],
		 "valence_orbital": [ 
			{
				"type": "occ",
				"energy": -0.29189,
				"method": "rhf"
			},
			{
				"type": "occ",
				"energy": -0.27395,
				"method": "rhf"
			},
			{
				"type": "occ",
				"energy": -0.26298,
				"method": "rhf"
			},
			{
				"type": "occ",
				"energy": -0.2614,
				"method": "rhf"
			},
			{
				"type": "occ",
				"energy": -0.25598,
				"method": "rhf"
			},
			{
				"type": "unocc",
				"energy": -0.01994,
				"method": "rhf"
			},
			{
				"type": "unocc",
				"energy": -0.01315,
				"method": "rhf"
			},
			{
				"type": "unocc",
				"energy": -0.0042,
				"method": "rhf"
			},
			{
				"type": "unocc",
				"energy": 0.0164,
				"method": "rhf"
			},
			{
				"type": "unocc",
				"energy": 0.06491,
				"method": "rhf"
			}
		],
		"cosmo_sigma_profile": { 
			"-0.025": 0.0,
			"-0.024": 0.0,
			"-0.023": 0.0,
			"-0.022": 0.0,
			"-0.021": 0.0,
			"-0.02": 0.0,
			"-0.019": 0.0,
			"-0.018": 0.0,
			"-0.017": 0.0,
			"-0.016": 0.0,
			"-0.015": 1.6463941019,
			"-0.014": 2.42436732585,
			"-0.013": 2.45872335044,
			"-0.012": 2.70839693327,
			"-0.011": 2.75585347298,
			"-0.01": 4.3550201723,
			"-0.009": 4.87669528856,
			"-0.008": 6.65972601442,
			"-0.007": 8.79149854584,
			"-0.006": 13.2375247485,
			"-0.005": 16.2017916348,
			"-0.004": 18.2496945795,
			"-0.003": 16.3153473878,
			"-0.002": 12.8876675401,
			"-0.001": 14.3038349042,
			"0.0": 13.7466028455,
			"0.001": 17.7788387945,
			"0.002": 15.6886975486,
			"0.003": 16.5996659334,
			"0.004": 12.0578805852,
			"0.005": 13.8893008228,
			"0.006": 8.14336320308,
			"0.007": 4.49221411418,
			"0.008": 5.37587137277,
			"0.009": 4.67443822964,
			"0.01": 7.13301169256,
			"0.011": 12.9335776626,
			"0.012": 5.54411251171,
			"0.013": 0.596254988762,
			"0.014": 0.426909298552,
			"0.015": 0.0324674596796,
			"0.016": 0.0,
			"0.017": 0.0,
			"0.018": 0.0,
			"0.019": 0.0,
			"0.02": 0.0,
			"0.021": 0.0,
			"0.022": 0.0,
			"0.023": 0.0,
			"0.024": 0.0,
			"0.025": 0.0
		}
	}
}
