{
	 "smiles": "CC1=NNC2=C1C(=O)N(C1=CC=CC=C1)C1=CC=CC=C21", 
	 "Tm": 435.15, 
	 "num_atms": 34, 
	 "gaussian": { 
		 "optdone": 1, 
		 "sigma_profile": "yes", 
		 "theory": "DFT", 
		 "functional": "B3LYP", 
		 "basiset": "6-31G**", 
		 "properties": { 
			 "R2extent": 5984.9188, 
			 "electric_dipole_moment_norm": 4.36844683269, 
			 "electric_quadrupole_moment_norm": 10.5151576222, 
			 "total_energy": -895.143342119, 
			 "HOMO_LUMO_gap": 0.17235, 
			 "cosmo_polarized_energy": -18.08, 
			 "cosmo_cavitation_energy": 38.04, 
			 "cosmo_dispersion_energy": -26.95, 
			 "cosmo_repulsion_energy": 2.03, 
			 "cosmo_total_nonelectrostatic_energy": 13.12, 
			 "SMD_solvation_energy": 5.67 
		},
		"coords": [
			{
				"x": 0.7108982637,
				"y": -1.1731017357,
				"z": 4.0094022714,
				"element": "C" 
			},
			{
				"x": 1.3883112221,
				"y": -1.2948108718,
				"z": 2.6826157182,
				"element": "C" 
			},
			{
				"x": 2.4514607164,
				"y": -2.0739526088,
				"z": 2.5143320902,
				"element": "N" 
			},
			{
				"x": 2.7984185005,
				"y": -1.9407534212,
				"z": 1.1995939785,
				"element": "N" 
			},
			{
				"x": 1.9819435815,
				"y": -1.0952277141,
				"z": 0.5251486272,
				"element": "C" 
			},
			{
				"x": 1.0488597128,
				"y": -0.6523030424,
				"z": 1.4559190615,
				"element": "C" 
			},
			{
				"x": -0.0049244857,
				"y": 0.2772308079,
				"z": 1.1104004073,
				"element": "C" 
			},
			{
				"x": -0.857070086,
				"y": 0.7066023038,
				"z": 1.8783340836,
				"element": "O" 
			},
			{
				"x": 0.0159446383,
				"y": 0.6811811979,
				"z": -0.2552759109,
				"element": "N" 
			},
			{
				"x": -1.0188073822,
				"y": 1.6096304129,
				"z": -0.6463490873,
				"element": "C" 
			},
			{
				"x": -2.2409017824,
				"y": 1.1278711114,
				"z": -1.1185151127,
				"element": "C" 
			},
			{
				"x": -3.2386322848,
				"y": 2.0266747212,
				"z": -1.497252883,
				"element": "C" 
			},
			{
				"x": -3.0155663515,
				"y": 3.4018810271,
				"z": -1.4026548802,
				"element": "C" 
			},
			{
				"x": -1.7927004993,
				"y": 3.8786637484,
				"z": -0.9260392172,
				"element": "C" 
			},
			{
				"x": -0.7921904561,
				"y": 2.9833773201,
				"z": -0.5462714518,
				"element": "C" 
			},
			{
				"x": 0.9520495917,
				"y": 0.2433175857,
				"z": -1.20897099,
				"element": "C" 
			},
			{
				"x": 0.8972947271,
				"y": 0.6964312321,
				"z": -2.5411328618,
				"element": "C" 
			},
			{
				"x": 1.8263709529,
				"y": 0.2583673155,
				"z": -3.4767980249,
				"element": "C" 
			},
			{
				"x": 2.8386205881,
				"y": -0.6420970662,
				"z": -3.1221716338,
				"element": "C" 
			},
			{
				"x": 2.907541014,
				"y": -1.0985920963,
				"z": -1.8144654476,
				"element": "C" 
			},
			{
				"x": 1.9809905586,
				"y": -0.6717649578,
				"z": -0.84867824,
				"element": "C" 
			},
			{
				"x": -0.3383540243,
				"y": -1.4755496218,
				"z": 3.9396609096,
				"element": "H" 
			},
			{
				"x": 1.2190712176,
				"y": -1.7988149747,
				"z": 4.7460155869,
				"element": "H" 
			},
			{
				"x": 0.7134315408,
				"y": -0.1344228353,
				"z": 4.3535872044,
				"element": "H" 
			},
			{
				"x": 3.5928560279,
				"y": -2.4563338636,
				"z": 0.8566102713,
				"element": "H" 
			},
			{
				"x": -2.4031494996,
				"y": 0.0564727777,
				"z": -1.1803623017,
				"element": "H" 
			},
			{
				"x": -4.1904579154,
				"y": 1.6521068995,
				"z": -1.8619898111,
				"element": "H" 
			},
			{
				"x": -3.7938955611,
				"y": 4.1001032394,
				"z": -1.696275287,
				"element": "H" 
			},
			{
				"x": -1.6176580203,
				"y": 4.9474000928,
				"z": -0.8456108141,
				"element": "H" 
			},
			{
				"x": 0.1604608977,
				"y": 3.339981974,
				"z": -0.1676824706,
				"element": "H" 
			},
			{
				"x": 0.1229754935,
				"y": 1.3927417752,
				"z": -2.8364784766,
				"element": "H" 
			},
			{
				"x": 1.7595688691,
				"y": 0.6247535787,
				"z": -4.496928321,
				"element": "H" 
			},
			{
				"x": 3.5601400715,
				"y": -0.9791422448,
				"z": -3.8592323877,
				"element": "H" 
			},
			{
				"x": 3.6888001625,
				"y": -1.7975220668,
				"z": -1.5273845989,
				"element": "H" 
			}
		],
		 "valence_orbital": [ 
			{
				"type": "occ",
				"energy": -0.25807,
				"method": "rhf"
			},
			{
				"type": "occ",
				"energy": -0.25307,
				"method": "rhf"
			},
			{
				"type": "occ",
				"energy": -0.24839,
				"method": "rhf"
			},
			{
				"type": "occ",
				"energy": -0.23905,
				"method": "rhf"
			},
			{
				"type": "occ",
				"energy": -0.21491,
				"method": "rhf"
			},
			{
				"type": "unocc",
				"energy": -0.04256,
				"method": "rhf"
			},
			{
				"type": "unocc",
				"energy": -0.01308,
				"method": "rhf"
			},
			{
				"type": "unocc",
				"energy": -0.01147,
				"method": "rhf"
			},
			{
				"type": "unocc",
				"energy": -0.00684,
				"method": "rhf"
			},
			{
				"type": "unocc",
				"energy": 0.01369,
				"method": "rhf"
			}
		],
		"cosmo_sigma_profile": { 
			"-0.025": 0.0,
			"-0.024": 0.0,
			"-0.023": 0.0,
			"-0.022": 0.0,
			"-0.021": 0.0,
			"-0.02": 0.0,
			"-0.019": 0.0,
			"-0.018": 0.0,
			"-0.017": 0.511512583281,
			"-0.016": 1.45496060621,
			"-0.015": 1.23998909745,
			"-0.014": 1.76298367197,
			"-0.013": 1.0319974426,
			"-0.012": 1.47415636391,
			"-0.011": 1.57839630833,
			"-0.01": 1.23310259796,
			"-0.009": 1.00697575205,
			"-0.008": 1.10894101642,
			"-0.007": 5.19015947826,
			"-0.006": 16.6100626837,
			"-0.005": 19.6263797947,
			"-0.004": 25.7991866394,
			"-0.003": 19.9167478535,
			"-0.002": 22.2491565723,
			"-0.001": 23.9429157909,
			"0.0": 27.1739552211,
			"0.001": 24.9778858278,
			"0.002": 23.0162724248,
			"0.003": 19.6640658541,
			"0.004": 18.7073671312,
			"0.005": 11.2049485902,
			"0.006": 4.69406968054,
			"0.007": 2.98521271226,
			"0.008": 3.55700590351,
			"0.009": 3.59802600735,
			"0.01": 2.86672510462,
			"0.011": 3.50137905788,
			"0.012": 3.71598169351,
			"0.013": 4.60827950736,
			"0.014": 4.19179917567,
			"0.015": 0.970248552579,
			"0.016": 0.201861097623,
			"0.017": 0.0,
			"0.018": 0.0,
			"0.019": 0.0,
			"0.02": 0.0,
			"0.021": 0.0,
			"0.022": 0.0,
			"0.023": 0.0,
			"0.024": 0.0,
			"0.025": 0.0
		}
	}
}
