{
	 "smiles": "CC(O)C1=CC=CC(N)=C1", 
	 "Tm": 341.15, 
	 "num_atms": 21, 
	 "gaussian": { 
		 "optdone": 1, 
		 "sigma_profile": "yes", 
		 "theory": "DFT", 
		 "functional": "B3LYP", 
		 "basiset": "6-31G**", 
		 "properties": { 
			 "R2extent": 1782.9186, 
			 "electric_dipole_moment_norm": 3.04417514936, 
			 "electric_quadrupole_moment_norm": 7.38569541953, 
			 "total_energy": -441.45825195, 
			 "HOMO_LUMO_gap": 0.20298, 
			 "cosmo_polarized_energy": -11.43, 
			 "cosmo_cavitation_energy": 24.06, 
			 "cosmo_dispersion_energy": -17.59, 
			 "cosmo_repulsion_energy": 1.45, 
			 "cosmo_total_nonelectrostatic_energy": 7.93, 
			 "SMD_solvation_energy": 4.13 
		},
		"coords": [
			{
				"x": 1.0432781285,
				"y": 2.4517701091,
				"z": 0.9415525184,
				"element": "C" 
			},
			{
				"x": 0.5776633803,
				"y": 1.2047171095,
				"z": 1.6948949891,
				"element": "C" 
			},
			{
				"x": 1.7477241136,
				"y": 0.6364343996,
				"z": 2.281849171,
				"element": "O" 
			},
			{
				"x": -0.1455929633,
				"y": 0.2212703327,
				"z": 0.7848284451,
				"element": "C" 
			},
			{
				"x": 0.5753800509,
				"y": -0.7341095726,
				"z": 0.0574637947,
				"element": "C" 
			},
			{
				"x": -0.1056251252,
				"y": -1.6054361916,
				"z": -0.7941189409,
				"element": "C" 
			},
			{
				"x": -1.4895551232,
				"y": -1.5376151678,
				"z": -0.9325000717,
				"element": "C" 
			},
			{
				"x": -2.2251374627,
				"y": -0.5842168851,
				"z": -0.2069960424,
				"element": "C" 
			},
			{
				"x": -3.6076800506,
				"y": -0.471174038,
				"z": -0.3750861743,
				"element": "N" 
			},
			{
				"x": -1.5347116563,
				"y": 0.2848717585,
				"z": 0.6536718198,
				"element": "C" 
			},
			{
				"x": 0.190706247,
				"y": 2.9796205338,
				"z": 0.5051747647,
				"element": "H" 
			},
			{
				"x": 1.567877293,
				"y": 3.1265622213,
				"z": 1.6245714476,
				"element": "H" 
			},
			{
				"x": 1.7272784851,
				"y": 2.1689873543,
				"z": 0.136105722,
				"element": "H" 
			},
			{
				"x": -0.1239303998,
				"y": 1.5198166036,
				"z": 2.4860616333,
				"element": "H" 
			},
			{
				"x": 1.4923145917,
				"y": -0.2060929553,
				"z": 2.6806667723,
				"element": "H" 
			},
			{
				"x": 1.653066931,
				"y": -0.7883415016,
				"z": 0.1686009735,
				"element": "H" 
			},
			{
				"x": 0.4479369915,
				"y": -2.3513470704,
				"z": -1.3584613227,
				"element": "H" 
			},
			{
				"x": -2.0084103186,
				"y": -2.220256724,
				"z": -1.6012058427,
				"element": "H" 
			},
			{
				"x": -4.0995834148,
				"y": -0.041052526,
				"z": 0.3960688473,
				"element": "H" 
			},
			{
				"x": -4.0705836813,
				"y": -1.3116312655,
				"z": -0.6928825483,
				"element": "H" 
			},
			{
				"x": -2.0956160167,
				"y": 1.0217234754,
				"z": 1.2268400445,
				"element": "H" 
			}
		],
		 "valence_orbital": [ 
			{
				"type": "occ",
				"energy": -0.31587,
				"method": "rhf"
			},
			{
				"type": "occ",
				"energy": -0.30289,
				"method": "rhf"
			},
			{
				"type": "occ",
				"energy": -0.26695,
				"method": "rhf"
			},
			{
				"type": "occ",
				"energy": -0.23729,
				"method": "rhf"
			},
			{
				"type": "occ",
				"energy": -0.20035,
				"method": "rhf"
			},
			{
				"type": "unocc",
				"energy": 0.00263,
				"method": "rhf"
			},
			{
				"type": "unocc",
				"energy": 0.0192,
				"method": "rhf"
			},
			{
				"type": "unocc",
				"energy": 0.08108,
				"method": "rhf"
			},
			{
				"type": "unocc",
				"energy": 0.09274,
				"method": "rhf"
			},
			{
				"type": "unocc",
				"energy": 0.11221,
				"method": "rhf"
			}
		],
		"cosmo_sigma_profile": { 
			"-0.025": 0.0,
			"-0.024": 0.0,
			"-0.023": 0.0,
			"-0.022": 0.0,
			"-0.021": 0.0,
			"-0.02": 0.0,
			"-0.019": 0.0,
			"-0.018": 0.0,
			"-0.017": 0.0,
			"-0.016": 0.0,
			"-0.015": 0.599256948037,
			"-0.014": 0.605934074017,
			"-0.013": 1.0570357808,
			"-0.012": 2.83778381434,
			"-0.011": 3.38234649084,
			"-0.01": 3.64120776109,
			"-0.009": 3.263756967,
			"-0.008": 3.20973610827,
			"-0.007": 4.48483059844,
			"-0.006": 4.78189632864,
			"-0.005": 7.91110503407,
			"-0.004": 12.1140139171,
			"-0.003": 16.2360120989,
			"-0.002": 14.5124698151,
			"-0.001": 14.9085611755,
			"0.0": 13.9707934661,
			"0.001": 13.4370612206,
			"0.002": 8.6871579826,
			"0.003": 7.0771348558,
			"0.004": 7.24794287114,
			"0.005": 9.20552667563,
			"0.006": 9.33272125567,
			"0.007": 9.62530769173,
			"0.008": 3.28773994304,
			"0.009": 2.24511170291,
			"0.01": 1.71782997439,
			"0.011": 1.45485268441,
			"0.012": 2.50666847032,
			"0.013": 2.15468493295,
			"0.014": 2.51285728228,
			"0.015": 0.566971557323,
			"0.016": 0.0,
			"0.017": 0.0,
			"0.018": 0.0,
			"0.019": 0.0,
			"0.02": 0.0,
			"0.021": 0.0,
			"0.022": 0.0,
			"0.023": 0.0,
			"0.024": 0.0,
			"0.025": 0.0
		}
	}
}
