{
	 "smiles": "ON=CC1=CC=C(C=C1)[N+]([O-])=O", 
	 "Tm": 402.15, 
	 "num_atms": 18, 
	 "gaussian": { 
		 "optdone": 1, 
		 "sigma_profile": "yes", 
		 "theory": "DFT", 
		 "functional": "B3LYP", 
		 "basiset": "6-31G**", 
		 "properties": { 
			 "R2extent": 2814.1838, 
			 "electric_dipole_moment_norm": 4.36835503365, 
			 "electric_quadrupole_moment_norm": 10.7944870906, 
			 "total_energy": -605.37111678, 
			 "HOMO_LUMO_gap": 0.15784, 
			 "cosmo_polarized_energy": -11.48, 
			 "cosmo_cavitation_energy": 23.67, 
			 "cosmo_dispersion_energy": -17.58, 
			 "cosmo_repulsion_energy": 1.39, 
			 "cosmo_total_nonelectrostatic_energy": 7.49, 
			 "SMD_solvation_energy": 6.56 
		},
		"coords": [
			{
				"x": -2.177468029,
				"y": 3.5438486148,
				"z": -1.3193628463,
				"element": "O" 
			},
			{
				"x": -1.2705637552,
				"y": 3.4809617074,
				"z": -2.3756245865,
				"element": "N" 
			},
			{
				"x": -0.5787271357,
				"y": 2.3974884046,
				"z": -2.4149112555,
				"element": "C" 
			},
			{
				"x": -0.5427379007,
				"y": 1.1959662231,
				"z": -1.5702679956,
				"element": "C" 
			},
			{
				"x": -1.3462108806,
				"y": 0.9795379473,
				"z": -0.4306449031,
				"element": "C" 
			},
			{
				"x": -1.230204063,
				"y": -0.1987618987,
				"z": 0.2994556166,
				"element": "C" 
			},
			{
				"x": -0.3115522096,
				"y": -1.1643965367,
				"z": -0.1062644073,
				"element": "C" 
			},
			{
				"x": 0.498567602,
				"y": -0.9855308816,
				"z": -1.2261290321,
				"element": "C" 
			},
			{
				"x": 0.3753230991,
				"y": 0.1937250547,
				"z": -1.9481315774,
				"element": "C" 
			},
			{
				"x": -0.1918912643,
				"y": -2.4093293216,
				"z": 0.6686033564,
				"element": "N" 
			},
			{
				"x": -0.9191598263,
				"y": -2.5412964968,
				"z": 1.6523727999,
				"element": "O" 
			},
			{
				"x": 0.6284986496,
				"y": -3.2426531039,
				"z": 0.284601223,
				"element": "O" 
			},
			{
				"x": -2.5916326656,
				"y": 4.4068247431,
				"z": -1.4539621194,
				"element": "H" 
			},
			{
				"x": 0.1130782701,
				"y": 2.3980453334,
				"z": -3.2563014131,
				"element": "H" 
			},
			{
				"x": -2.055250837,
				"y": 1.7336252065,
				"z": -0.1237468757,
				"element": "H" 
			},
			{
				"x": -1.838970292,
				"y": -0.3809162785,
				"z": 1.1761698811,
				"element": "H" 
			},
			{
				"x": 1.2003336891,
				"y": -1.7599667963,
				"z": -1.5086061705,
				"element": "H" 
			},
			{
				"x": 0.9999675491,
				"y": 0.3473280793,
				"z": -2.8233496946,
				"element": "H" 
			}
		],
		 "valence_orbital": [ 
			{
				"type": "occ",
				"energy": -0.3089,
				"method": "rhf"
			},
			{
				"type": "occ",
				"energy": -0.29259,
				"method": "rhf"
			},
			{
				"type": "occ",
				"energy": -0.29061,
				"method": "rhf"
			},
			{
				"type": "occ",
				"energy": -0.282,
				"method": "rhf"
			},
			{
				"type": "occ",
				"energy": -0.2574,
				"method": "rhf"
			},
			{
				"type": "unocc",
				"energy": -0.09956,
				"method": "rhf"
			},
			{
				"type": "unocc",
				"energy": -0.03795,
				"method": "rhf"
			},
			{
				"type": "unocc",
				"energy": -0.02979,
				"method": "rhf"
			},
			{
				"type": "unocc",
				"energy": 0.04395,
				"method": "rhf"
			},
			{
				"type": "unocc",
				"energy": 0.05167,
				"method": "rhf"
			}
		],
		"cosmo_sigma_profile": { 
			"-0.025": 0.0,
			"-0.024": 0.0,
			"-0.023": 0.0,
			"-0.022": 0.0,
			"-0.021": 0.0,
			"-0.02": 0.0,
			"-0.019": 0.0484368752712,
			"-0.018": 0.72027383078,
			"-0.017": 1.08442434436,
			"-0.016": 1.07043151318,
			"-0.015": 0.731615020234,
			"-0.014": 0.995655946378,
			"-0.013": 0.638842850597,
			"-0.012": 0.0196112062053,
			"-0.011": 0.631046417311,
			"-0.01": 1.01505016466,
			"-0.009": 3.12373780518,
			"-0.008": 5.93476401417,
			"-0.007": 7.20834085505,
			"-0.006": 9.8400803111,
			"-0.005": 8.05858227306,
			"-0.004": 9.30478687509,
			"-0.003": 7.62299610262,
			"-0.002": 11.124194554,
			"-0.001": 12.9783239914,
			"0.0": 17.5268676922,
			"0.001": 22.0763237079,
			"0.002": 10.854123165,
			"0.003": 6.22405783903,
			"0.004": 8.01789582181,
			"0.005": 6.2619319284,
			"0.006": 7.05821964043,
			"0.007": 10.5035620585,
			"0.008": 8.62905435862,
			"0.009": 5.1204052655,
			"0.01": 3.63753503851,
			"0.011": 0.944215563076,
			"0.012": 0.817070223977,
			"0.013": 0.429576477358,
			"0.014": 0.0,
			"0.015": 0.0,
			"0.016": 0.0,
			"0.017": 0.0,
			"0.018": 0.0,
			"0.019": 0.0,
			"0.02": 0.0,
			"0.021": 0.0,
			"0.022": 0.0,
			"0.023": 0.0,
			"0.024": 0.0,
			"0.025": 0.0
		}
	}
}
