{
	 "smiles": "CC(Cl)C1=NC(=NO1)C1=NN=CN1", 
	 "Tm": 461.15, 
	 "num_atms": 19, 
	 "gaussian": { 
		 "optdone": 1, 
		 "sigma_profile": "yes", 
		 "theory": "DFT", 
		 "functional": "B3LYP", 
		 "basiset": "6-31G**", 
		 "properties": { 
			 "R2extent": 4331.8582, 
			 "electric_dipole_moment_norm": 4.43177634251, 
			 "electric_quadrupole_moment_norm": 32.397289428, 
			 "total_energy": -1041.36250807, 
			 "HOMO_LUMO_gap": 0.19621, 
			 "cosmo_polarized_energy": -21.59, 
			 "cosmo_cavitation_energy": 26.77, 
			 "cosmo_dispersion_energy": -19.76, 
			 "cosmo_repulsion_energy": 1.58, 
			 "cosmo_total_nonelectrostatic_energy": 8.59, 
			 "SMD_solvation_energy": 0.57 
		},
		"coords": [
			{
				"x": 1.9621202902,
				"y": -0.5109239835,
				"z": -3.1125483922,
				"element": "C" 
			},
			{
				"x": 2.6454294576,
				"y": 0.0921073533,
				"z": -1.8903320382,
				"element": "C" 
			},
			{
				"x": 4.0158387824,
				"y": -0.990747564,
				"z": -1.3352588084,
				"element": "Cl" 
			},
			{
				"x": 1.7196938469,
				"y": 0.3221935272,
				"z": -0.7414279993,
				"element": "C" 
			},
			{
				"x": 1.5738337595,
				"y": 1.4178571123,
				"z": -0.0572958267,
				"element": "N" 
			},
			{
				"x": 0.5967226039,
				"y": 1.0604207129,
				"z": 0.8428051374,
				"element": "C" 
			},
			{
				"x": 0.1616051487,
				"y": -0.1765814141,
				"z": 0.7242044726,
				"element": "N" 
			},
			{
				"x": 0.9117784464,
				"y": -0.677764515,
				"z": -0.3425338365,
				"element": "O" 
			},
			{
				"x": 0.0521484189,
				"y": 1.9426432371,
				"z": 1.8622844442,
				"element": "C" 
			},
			{
				"x": 0.3592686683,
				"y": 3.2055924788,
				"z": 2.0757465212,
				"element": "N" 
			},
			{
				"x": -0.4022839703,
				"y": 3.6377530756,
				"z": 3.1357116795,
				"element": "N" 
			},
			{
				"x": -1.1438951084,
				"y": 2.6252241865,
				"z": 3.5287452697,
				"element": "C" 
			},
			{
				"x": -0.8991067099,
				"y": 1.5277037138,
				"z": 2.7591612256,
				"element": "N" 
			},
			{
				"x": 2.687589822,
				"y": -0.6454034467,
				"z": -3.9171003672,
				"element": "H" 
			},
			{
				"x": 1.1740430807,
				"y": 0.1650498449,
				"z": -3.461685138,
				"element": "H" 
			},
			{
				"x": 1.5143556978,
				"y": -1.4777165376,
				"z": -2.8732036818,
				"element": "H" 
			},
			{
				"x": 3.1109391796,
				"y": 1.0509429025,
				"z": -2.116999915,
				"element": "H" 
			},
			{
				"x": -1.8526222307,
				"y": 2.6398345177,
				"z": 4.3438397878,
				"element": "H" 
			},
			{
				"x": -1.3072591836,
				"y": 0.6053147983,
				"z": 2.8163874653,
				"element": "H" 
			}
		],
		 "valence_orbital": [ 
			{
				"type": "occ",
				"energy": -0.3197,
				"method": "rhf"
			},
			{
				"type": "occ",
				"energy": -0.31398,
				"method": "rhf"
			},
			{
				"type": "occ",
				"energy": -0.31243,
				"method": "rhf"
			},
			{
				"type": "occ",
				"energy": -0.26634,
				"method": "rhf"
			},
			{
				"type": "occ",
				"energy": -0.26597,
				"method": "rhf"
			},
			{
				"type": "unocc",
				"energy": -0.06976,
				"method": "rhf"
			},
			{
				"type": "unocc",
				"energy": -0.03523,
				"method": "rhf"
			},
			{
				"type": "unocc",
				"energy": 0.01986,
				"method": "rhf"
			},
			{
				"type": "unocc",
				"energy": 0.03029,
				"method": "rhf"
			},
			{
				"type": "unocc",
				"energy": 0.04989,
				"method": "rhf"
			}
		],
		"cosmo_sigma_profile": { 
			"-0.025": 0.0,
			"-0.024": 0.0,
			"-0.023": 0.0,
			"-0.022": 0.0,
			"-0.021": 0.0,
			"-0.02": 0.0,
			"-0.019": 0.18804921103,
			"-0.018": 1.22750564727,
			"-0.017": 1.26700766262,
			"-0.016": 1.07747445896,
			"-0.015": 0.809810485806,
			"-0.014": 0.864491527168,
			"-0.013": 1.07693969986,
			"-0.012": 1.59505869789,
			"-0.011": 3.67923088713,
			"-0.01": 3.99261927398,
			"-0.009": 4.59807814,
			"-0.008": 5.31312592172,
			"-0.007": 7.44424544389,
			"-0.006": 9.7510281201,
			"-0.005": 11.6364512436,
			"-0.004": 14.4039134632,
			"-0.003": 14.5841606982,
			"-0.002": 17.9038760949,
			"-0.001": 11.6852614028,
			"0.0": 8.55577639084,
			"0.001": 9.09337381361,
			"0.002": 9.18559469466,
			"0.003": 9.2832324145,
			"0.004": 13.4670883616,
			"0.005": 14.7620593503,
			"0.006": 4.60931241693,
			"0.007": 4.24497781565,
			"0.008": 3.17601364611,
			"0.009": 4.31125716723,
			"0.01": 3.80266191847,
			"0.011": 3.99405952301,
			"0.012": 4.48922601781,
			"0.013": 4.70987554051,
			"0.014": 2.91656767039,
			"0.015": 2.32810365434,
			"0.016": 1.35326138293,
			"0.017": 0.0154915609392,
			"0.018": 0.0,
			"0.019": 0.0,
			"0.02": 0.0,
			"0.021": 0.0,
			"0.022": 0.0,
			"0.023": 0.0,
			"0.024": 0.0,
			"0.025": 0.0
		}
	}
}
