{
	 "smiles": "CC1=CC(Cl)=CC=C1OCC(O)=O", 
	 "Tm": 393.15, 
	 "num_atms": 22, 
	 "gaussian": { 
		 "optdone": 1, 
		 "sigma_profile": "yes", 
		 "theory": "DFT", 
		 "functional": "B3LYP", 
		 "basiset": "6-31G**", 
		 "properties": { 
			 "R2extent": 4329.4884, 
			 "electric_dipole_moment_norm": 2.31489594583, 
			 "electric_quadrupole_moment_norm": 9.3226570027, 
			 "total_energy": -1034.25089657, 
			 "HOMO_LUMO_gap": 0.20508, 
			 "cosmo_polarized_energy": -11.92, 
			 "cosmo_cavitation_energy": 28.37, 
			 "cosmo_dispersion_energy": -20.43, 
			 "cosmo_repulsion_energy": 1.66, 
			 "cosmo_total_nonelectrostatic_energy": 9.6, 
			 "SMD_solvation_energy": 6.11 
		},
		"coords": [
			{
				"x": -0.7345856023,
				"y": -1.5505343594,
				"z": 1.4277988004,
				"element": "C" 
			},
			{
				"x": -1.1803174669,
				"y": -0.1218206489,
				"z": 1.2509254477,
				"element": "C" 
			},
			{
				"x": -2.5303536335,
				"y": 0.222997367,
				"z": 1.2042800167,
				"element": "C" 
			},
			{
				"x": -2.9222612409,
				"y": 1.553300563,
				"z": 1.0380872079,
				"element": "C" 
			},
			{
				"x": -4.6368595641,
				"y": 1.9484064134,
				"z": 0.9839210283,
				"element": "Cl" 
			},
			{
				"x": -1.9773010877,
				"y": 2.5628510963,
				"z": 0.9126744184,
				"element": "C" 
			},
			{
				"x": -0.6184128967,
				"y": 2.235928297,
				"z": 0.9568497035,
				"element": "C" 
			},
			{
				"x": -0.2242864936,
				"y": 0.9072599814,
				"z": 1.1266586661,
				"element": "C" 
			},
			{
				"x": 1.083697564,
				"y": 0.4899679976,
				"z": 1.193136889,
				"element": "O" 
			},
			{
				"x": 2.1078943299,
				"y": 1.4549350639,
				"z": 1.1089902376,
				"element": "C" 
			},
			{
				"x": 2.3308927107,
				"y": 2.0558672584,
				"z": -0.2771081496,
				"element": "C" 
			},
			{
				"x": 1.9217925368,
				"y": 1.2456089776,
				"z": -1.2697407205,
				"element": "O" 
			},
			{
				"x": 2.8634277332,
				"y": 3.128680412,
				"z": -0.4523786857,
				"element": "O" 
			},
			{
				"x": -0.1131436827,
				"y": -1.876085461,
				"z": 0.5868151405,
				"element": "H" 
			},
			{
				"x": -0.1245631972,
				"y": -1.6657734691,
				"z": 2.3302587242,
				"element": "H" 
			},
			{
				"x": -1.5942520187,
				"y": -2.2207294415,
				"z": 1.5038625251,
				"element": "H" 
			},
			{
				"x": -3.2844914267,
				"y": -0.5514700887,
				"z": 1.2983689719,
				"element": "H" 
			},
			{
				"x": -2.2872083426,
				"y": 3.5932063062,
				"z": 0.7800395189,
				"element": "H" 
			},
			{
				"x": 0.110176102,
				"y": 3.0315072928,
				"z": 0.8515788153,
				"element": "H" 
			},
			{
				"x": 1.9664781032,
				"y": 2.2828986656,
				"z": 1.8123101369,
				"element": "H" 
			},
			{
				"x": 3.0295518686,
				"y": 0.9330172959,
				"z": 1.3871540075,
				"element": "H" 
			},
			{
				"x": 2.1200257052,
				"y": 1.7098804803,
				"z": -2.1009827,
				"element": "H" 
			}
		],
		 "valence_orbital": [ 
			{
				"type": "occ",
				"energy": -0.31186,
				"method": "rhf"
			},
			{
				"type": "occ",
				"energy": -0.3082,
				"method": "rhf"
			},
			{
				"type": "occ",
				"energy": -0.28721,
				"method": "rhf"
			},
			{
				"type": "occ",
				"energy": -0.25766,
				"method": "rhf"
			},
			{
				"type": "occ",
				"energy": -0.22284,
				"method": "rhf"
			},
			{
				"type": "unocc",
				"energy": -0.01776,
				"method": "rhf"
			},
			{
				"type": "unocc",
				"energy": -0.00386,
				"method": "rhf"
			},
			{
				"type": "unocc",
				"energy": -0.00141,
				"method": "rhf"
			},
			{
				"type": "unocc",
				"energy": 0.03323,
				"method": "rhf"
			},
			{
				"type": "unocc",
				"energy": 0.06265,
				"method": "rhf"
			}
		],
		"cosmo_sigma_profile": { 
			"-0.025": 0.0,
			"-0.024": 0.0,
			"-0.023": 0.0,
			"-0.022": 0.0,
			"-0.021": 0.0,
			"-0.02": 0.0,
			"-0.019": 0.431428696307,
			"-0.018": 0.902212831211,
			"-0.017": 0.830103336745,
			"-0.016": 1.29003193969,
			"-0.015": 0.679169901962,
			"-0.014": 0.50096871775,
			"-0.013": 0.446224227198,
			"-0.012": 1.04149665386,
			"-0.011": 0.771677026113,
			"-0.01": 1.2423131759,
			"-0.009": 3.4182095936,
			"-0.008": 4.79584602672,
			"-0.007": 8.40506749203,
			"-0.006": 11.6973024628,
			"-0.005": 11.3268551095,
			"-0.004": 11.432817691,
			"-0.003": 11.6168824443,
			"-0.002": 13.8684087805,
			"-0.001": 14.4703027638,
			"0.0": 16.8770608341,
			"0.001": 14.6661787871,
			"0.002": 16.1576920465,
			"0.003": 19.8774466447,
			"0.004": 21.452864544,
			"0.005": 12.8192437248,
			"0.006": 4.77781354611,
			"0.007": 4.40010037097,
			"0.008": 3.93919301727,
			"0.009": 3.3786763295,
			"0.01": 2.58344193137,
			"0.011": 5.11306196387,
			"0.012": 2.53640204306,
			"0.013": 0.0285280586949,
			"0.014": 0.0,
			"0.015": 0.0,
			"0.016": 0.0,
			"0.017": 0.0,
			"0.018": 0.0,
			"0.019": 0.0,
			"0.02": 0.0,
			"0.021": 0.0,
			"0.022": 0.0,
			"0.023": 0.0,
			"0.024": 0.0,
			"0.025": 0.0
		}
	}
}
