{
	 "smiles": "OC(=O)CCC#C", 
	 "Tm": 330.05, 
	 "num_atms": 13, 
	 "gaussian": { 
		 "optdone": 1, 
		 "sigma_profile": "yes", 
		 "theory": "DFT", 
		 "functional": "B3LYP", 
		 "basiset": "6-31G**", 
		 "properties": { 
			 "R2extent": 2311.57, 
			 "electric_dipole_moment_norm": 1.76274411359, 
			 "electric_quadrupole_moment_norm": 13.3047267958, 
			 "total_energy": -344.536272124, 
			 "HOMO_LUMO_gap": 0.27019, 
			 "cosmo_polarized_energy": -10.75, 
			 "cosmo_cavitation_energy": 18.3, 
			 "cosmo_dispersion_energy": -12.57, 
			 "cosmo_repulsion_energy": 1.1, 
			 "cosmo_total_nonelectrostatic_energy": 6.82, 
			 "SMD_solvation_energy": 5.81 
		},
		"coords": [
			{
				"x": 0.658635842,
				"y": -4.0107606926,
				"z": -0.7746481828,
				"element": "O" 
			},
			{
				"x": 1.9012158095,
				"y": -3.4937645729,
				"z": -0.6043895357,
				"element": "C" 
			},
			{
				"x": 2.8772923878,
				"y": -3.9476793876,
				"z": -1.156254559,
				"element": "O" 
			},
			{
				"x": 1.9028746945,
				"y": -2.3360134229,
				"z": 0.3733566078,
				"element": "C" 
			},
			{
				"x": 0.7760520101,
				"y": -1.3050929509,
				"z": 0.1405262997,
				"element": "C" 
			},
			{
				"x": 0.8752130008,
				"y": -0.6274460841,
				"z": -1.1522865018,
				"element": "C" 
			},
			{
				"x": 0.9748713733,
				"y": -0.0791869,
				"z": -2.223551352,
				"element": "C" 
			},
			{
				"x": 0.7561148171,
				"y": -4.7423003898,
				"z": -1.4069439068,
				"element": "H" 
			},
			{
				"x": 1.7890325013,
				"y": -2.7572171958,
				"z": 1.380167189,
				"element": "H" 
			},
			{
				"x": 2.8858534291,
				"y": -1.8657972014,
				"z": 0.3149672037,
				"element": "H" 
			},
			{
				"x": 0.8122410924,
				"y": -0.5618900564,
				"z": 0.9465171815,
				"element": "H" 
			},
			{
				"x": -0.1940120186,
				"y": -1.8082233601,
				"z": 0.2182543121,
				"element": "H" 
			},
			{
				"x": 1.0600150606,
				"y": 0.4055722143,
				"z": -3.1683147557,
				"element": "H" 
			}
		],
		 "valence_orbital": [ 
			{
				"type": "occ",
				"energy": -0.38091,
				"method": "rhf"
			},
			{
				"type": "occ",
				"energy": -0.31978,
				"method": "rhf"
			},
			{
				"type": "occ",
				"energy": -0.27756,
				"method": "rhf"
			},
			{
				"type": "occ",
				"energy": -0.2667,
				"method": "rhf"
			},
			{
				"type": "occ",
				"energy": -0.26488,
				"method": "rhf"
			},
			{
				"type": "unocc",
				"energy": 0.00531,
				"method": "rhf"
			},
			{
				"type": "unocc",
				"energy": 0.04661,
				"method": "rhf"
			},
			{
				"type": "unocc",
				"energy": 0.05646,
				"method": "rhf"
			},
			{
				"type": "unocc",
				"energy": 0.0752,
				"method": "rhf"
			},
			{
				"type": "unocc",
				"energy": 0.11863,
				"method": "rhf"
			}
		],
		"cosmo_sigma_profile": { 
			"-0.025": 0.0,
			"-0.024": 0.0,
			"-0.023": 0.0,
			"-0.022": 0.0,
			"-0.021": 0.0,
			"-0.02": 0.0,
			"-0.019": 0.0,
			"-0.018": 0.663973190864,
			"-0.017": 1.03805151154,
			"-0.016": 0.742104372114,
			"-0.015": 0.957653927243,
			"-0.014": 0.531382530829,
			"-0.013": 0.251432389414,
			"-0.012": 1.02488338611,
			"-0.011": 2.06972720968,
			"-0.01": 2.61339709616,
			"-0.009": 1.27895064449,
			"-0.008": 1.97533936551,
			"-0.007": 5.75591561077,
			"-0.006": 8.84015212323,
			"-0.005": 12.0377640533,
			"-0.004": 10.6390193231,
			"-0.003": 9.50736653411,
			"-0.002": 5.69500679977,
			"-0.001": 5.97245257059,
			"0.0": 5.5050078755,
			"0.001": 5.98385509043,
			"0.002": 6.13355015179,
			"0.003": 6.94860992916,
			"0.004": 6.88550217275,
			"0.005": 9.24014633517,
			"0.006": 8.14954935908,
			"0.007": 8.23377665192,
			"0.008": 3.43363687526,
			"0.009": 2.5013079758,
			"0.01": 2.09096019081,
			"0.011": 3.61366806854,
			"0.012": 4.6122195039,
			"0.013": 0.79290537007,
			"0.014": 0.0,
			"0.015": 0.0,
			"0.016": 0.0,
			"0.017": 0.0,
			"0.018": 0.0,
			"0.019": 0.0,
			"0.02": 0.0,
			"0.021": 0.0,
			"0.022": 0.0,
			"0.023": 0.0,
			"0.024": 0.0,
			"0.025": 0.0
		}
	}
}
