{
	 "smiles": "CC(=O)OC1=CC=C(C(C)=O)C(O)=C1", 
	 "Tm": 331.15, 
	 "num_atms": 24, 
	 "gaussian": { 
		 "optdone": 1, 
		 "sigma_profile": "yes", 
		 "theory": "DFT", 
		 "functional": "B3LYP", 
		 "basiset": "6-31G**", 
		 "properties": { 
			 "R2extent": 3953.8981, 
			 "electric_dipole_moment_norm": 4.06535319622, 
			 "electric_quadrupole_moment_norm": 14.8425201273, 
			 "total_energy": -687.995093023, 
			 "HOMO_LUMO_gap": 0.18332, 
			 "cosmo_polarized_energy": -13.68, 
			 "cosmo_cavitation_energy": 28.78, 
			 "cosmo_dispersion_energy": -21.14, 
			 "cosmo_repulsion_energy": 1.67, 
			 "cosmo_total_nonelectrostatic_energy": 9.3, 
			 "SMD_solvation_energy": 7.44 
		},
		"coords": [
			{
				"x": 4.2683177226,
				"y": 1.9299607726,
				"z": 0.4456115911,
				"element": "C" 
			},
			{
				"x": 2.7923336472,
				"y": 2.0357940769,
				"z": 0.1529049749,
				"element": "C" 
			},
			{
				"x": 2.1374043768,
				"y": 3.0495104867,
				"z": 0.208020556,
				"element": "O" 
			},
			{
				"x": 2.3115486373,
				"y": 0.8007347665,
				"z": -0.1853561346,
				"element": "O" 
			},
			{
				"x": 0.9960111416,
				"y": 0.507802385,
				"z": -0.5204843621,
				"element": "C" 
			},
			{
				"x": 0.7809760265,
				"y": -0.8418597664,
				"z": -0.8266367009,
				"element": "C" 
			},
			{
				"x": -0.492964661,
				"y": -1.2530945993,
				"z": -1.1754892494,
				"element": "C" 
			},
			{
				"x": -1.5846639588,
				"y": -0.3670730709,
				"z": -1.2351080462,
				"element": "C" 
			},
			{
				"x": -2.9079756403,
				"y": -0.9599832095,
				"z": -1.6292992236,
				"element": "C" 
			},
			{
				"x": -4.1508801486,
				"y": -0.0987960006,
				"z": -1.7240949673,
				"element": "C" 
			},
			{
				"x": -2.9766031331,
				"y": -2.1573838419,
				"z": -1.8761158335,
				"element": "O" 
			},
			{
				"x": -1.3338394062,
				"y": 0.9844065277,
				"z": -0.9209478796,
				"element": "C" 
			},
			{
				"x": -2.3575353242,
				"y": 1.8846352391,
				"z": -0.9634137859,
				"element": "O" 
			},
			{
				"x": -0.0505484055,
				"y": 1.4252635533,
				"z": -0.564529195,
				"element": "C" 
			},
			{
				"x": 4.6524606576,
				"y": 2.9129377235,
				"z": 0.7153421589,
				"element": "H" 
			},
			{
				"x": 4.7983968044,
				"y": 1.547941692,
				"z": -0.4317701817,
				"element": "H" 
			},
			{
				"x": 4.4390136776,
				"y": 1.2233045595,
				"z": 1.2630574862,
				"element": "H" 
			},
			{
				"x": 1.6139840491,
				"y": -1.5342617818,
				"z": -0.7841727703,
				"element": "H" 
			},
			{
				"x": -0.6949720063,
				"y": -2.2904904063,
				"z": -1.4186121106,
				"element": "H" 
			},
			{
				"x": -4.9833229491,
				"y": -0.7373920761,
				"z": -2.0223983534,
				"element": "H" 
			},
			{
				"x": -4.3675107898,
				"y": 0.3838931768,
				"z": -0.7665496521,
				"element": "H" 
			},
			{
				"x": -4.014002284,
				"y": 0.7088575323,
				"z": -2.4492139334,
				"element": "H" 
			},
			{
				"x": -2.0165611979,
				"y": 2.7564813247,
				"z": -0.7228281141,
				"element": "H" 
			},
			{
				"x": 0.125933164,
				"y": 2.4651109362,
				"z": -0.3265162733,
				"element": "H" 
			}
		],
		 "valence_orbital": [ 
			{
				"type": "occ",
				"energy": -0.32067,
				"method": "rhf"
			},
			{
				"type": "occ",
				"energy": -0.28937,
				"method": "rhf"
			},
			{
				"type": "occ",
				"energy": -0.25442,
				"method": "rhf"
			},
			{
				"type": "occ",
				"energy": -0.24081,
				"method": "rhf"
			},
			{
				"type": "occ",
				"energy": -0.23439,
				"method": "rhf"
			},
			{
				"type": "unocc",
				"energy": -0.05107,
				"method": "rhf"
			},
			{
				"type": "unocc",
				"energy": -0.00584,
				"method": "rhf"
			},
			{
				"type": "unocc",
				"energy": -0.00231,
				"method": "rhf"
			},
			{
				"type": "unocc",
				"energy": 0.04907,
				"method": "rhf"
			},
			{
				"type": "unocc",
				"energy": 0.05839,
				"method": "rhf"
			}
		],
		"cosmo_sigma_profile": { 
			"-0.025": 0.0,
			"-0.024": 0.0,
			"-0.023": 0.0,
			"-0.022": 0.0,
			"-0.021": 0.0,
			"-0.02": 0.0,
			"-0.019": 0.329910280326,
			"-0.018": 1.01061691608,
			"-0.017": 1.11382198785,
			"-0.016": 1.45581391637,
			"-0.015": 0.892816713531,
			"-0.014": 0.692346093462,
			"-0.013": 0.899057015847,
			"-0.012": 0.681589644063,
			"-0.011": 1.09331213578,
			"-0.01": 0.992608394878,
			"-0.009": 0.547929242443,
			"-0.008": 0.842575934897,
			"-0.007": 5.41174911503,
			"-0.006": 9.14749624743,
			"-0.005": 13.0651556238,
			"-0.004": 17.2642063014,
			"-0.003": 17.7758754051,
			"-0.002": 19.528339611,
			"-0.001": 16.9139509975,
			"0.0": 15.8355088039,
			"0.001": 18.8025364589,
			"0.002": 21.4686081921,
			"0.003": 14.7457439636,
			"0.004": 10.4153901079,
			"0.005": 6.06067825467,
			"0.006": 5.91330094302,
			"0.007": 3.57182008056,
			"0.008": 2.49513726702,
			"0.009": 4.14267600131,
			"0.01": 4.32928203647,
			"0.011": 4.44969902379,
			"0.012": 4.68160457961,
			"0.013": 2.30347536354,
			"0.014": 0.477567089933,
			"0.015": 0.0,
			"0.016": 0.0,
			"0.017": 0.0,
			"0.018": 0.0,
			"0.019": 0.0,
			"0.02": 0.0,
			"0.021": 0.0,
			"0.022": 0.0,
			"0.023": 0.0,
			"0.024": 0.0,
			"0.025": 0.0
		}
	}
}
