{
	 "smiles": "BrC1=CC2=C(C=C1)N=C(CC#N)NC2=O", 
	 "Tm": 553.15, 
	 "num_atms": 21, 
	 "gaussian": { 
		 "optdone": 1, 
		 "sigma_profile": "yes", 
		 "theory": "DFT", 
		 "functional": "B3LYP", 
		 "basiset": "6-31G**", 
		 "properties": { 
			 "R2extent": 6831.9509, 
			 "electric_dipole_moment_norm": 4.19685761612, 
			 "electric_quadrupole_moment_norm": 9.04871324222, 
			 "total_energy": -3195.57308121, 
			 "HOMO_LUMO_gap": 0.17999, 
			 "cosmo_polarized_energy": -16.66, 
			 "cosmo_cavitation_energy": 29.62, 
			 "cosmo_dispersion_energy": -21.73, 
			 "cosmo_repulsion_energy": 1.69, 
			 "cosmo_total_nonelectrostatic_energy": 9.57, 
			 "SMD_solvation_energy": 4.17 
		},
		"coords": [
			{
				"x": 2.8647550558,
				"y": -2.7548062315,
				"z": -3.9492941139,
				"element": "Br" 
			},
			{
				"x": 1.7085043261,
				"y": -2.0666386768,
				"z": -2.5971684526,
				"element": "C" 
			},
			{
				"x": 2.0564704804,
				"y": -0.9134397254,
				"z": -1.9147183823,
				"element": "C" 
			},
			{
				"x": 1.192541578,
				"y": -0.4229029193,
				"z": -0.924958408,
				"element": "C" 
			},
			{
				"x": -0.0172414051,
				"y": -1.0896300121,
				"z": -0.6200180086,
				"element": "C" 
			},
			{
				"x": -0.340175617,
				"y": -2.2605053675,
				"z": -1.3323255097,
				"element": "C" 
			},
			{
				"x": 0.5119415647,
				"y": -2.745620274,
				"z": -2.3114062245,
				"element": "C" 
			},
			{
				"x": -0.8980791292,
				"y": -0.6356156252,
				"z": 0.3551496447,
				"element": "N" 
			},
			{
				"x": -0.5731213088,
				"y": 0.4418315788,
				"z": 0.9884190137,
				"element": "C" 
			},
			{
				"x": -1.5605120266,
				"y": 0.9864519019,
				"z": 2.0122808213,
				"element": "C" 
			},
			{
				"x": -0.9593540537,
				"y": 1.8494021151,
				"z": 3.0298356625,
				"element": "C" 
			},
			{
				"x": -0.4536642444,
				"y": 2.548417535,
				"z": 3.8059654605,
				"element": "N" 
			},
			{
				"x": 0.5770493596,
				"y": 1.1545131251,
				"z": 0.7634108974,
				"element": "N" 
			},
			{
				"x": 1.5498935975,
				"y": 0.7971393532,
				"z": -0.1886317366,
				"element": "C" 
			},
			{
				"x": 2.5568087675,
				"y": 1.469857785,
				"z": -0.3348056635,
				"element": "O" 
			},
			{
				"x": 2.9758253141,
				"y": -0.3785756767,
				"z": -2.1217309725,
				"element": "H" 
			},
			{
				"x": -1.2684979166,
				"y": -2.769239876,
				"z": -1.0955527186,
				"element": "H" 
			},
			{
				"x": 0.2620705112,
				"y": -3.6469619869,
				"z": -2.8596592958,
				"element": "H" 
			},
			{
				"x": -2.0569076115,
				"y": 0.1339642813,
				"z": 2.4834364635,
				"element": "H" 
			},
			{
				"x": -2.3375346921,
				"y": 1.5569361838,
				"z": 1.487098519,
				"element": "H" 
			},
			{
				"x": 0.7960274499,
				"y": 1.9729225122,
				"z": 1.3228730037,
				"element": "H" 
			}
		],
		 "valence_orbital": [ 
			{
				"type": "occ",
				"energy": -0.29696,
				"method": "rhf"
			},
			{
				"type": "occ",
				"energy": -0.29216,
				"method": "rhf"
			},
			{
				"type": "occ",
				"energy": -0.28197,
				"method": "rhf"
			},
			{
				"type": "occ",
				"energy": -0.28118,
				"method": "rhf"
			},
			{
				"type": "occ",
				"energy": -0.24163,
				"method": "rhf"
			},
			{
				"type": "unocc",
				"energy": -0.06164,
				"method": "rhf"
			},
			{
				"type": "unocc",
				"energy": -0.05843,
				"method": "rhf"
			},
			{
				"type": "unocc",
				"energy": -0.00329,
				"method": "rhf"
			},
			{
				"type": "unocc",
				"energy": 0.00015,
				"method": "rhf"
			},
			{
				"type": "unocc",
				"energy": 0.00237,
				"method": "rhf"
			}
		],
		"cosmo_sigma_profile": { 
			"-0.025": 0.0,
			"-0.024": 0.0,
			"-0.023": 0.0,
			"-0.022": 0.0,
			"-0.021": 0.0,
			"-0.02": 0.0,
			"-0.019": 0.0,
			"-0.018": 0.0,
			"-0.017": 0.0,
			"-0.016": 0.0,
			"-0.015": 0.277114173374,
			"-0.014": 0.580975995546,
			"-0.013": 1.2193983851,
			"-0.012": 1.4900578183,
			"-0.011": 4.42535678405,
			"-0.01": 6.68225582427,
			"-0.009": 5.49778451447,
			"-0.008": 6.71079245694,
			"-0.007": 10.308694204,
			"-0.006": 11.4495182759,
			"-0.005": 10.8935756712,
			"-0.004": 11.6583165308,
			"-0.003": 11.8096155317,
			"-0.002": 11.4017318089,
			"-0.001": 12.2265868291,
			"0.0": 20.5595672799,
			"0.001": 25.6903923744,
			"0.002": 15.4270396716,
			"0.003": 12.5221673939,
			"0.004": 15.0120060166,
			"0.005": 6.15386464444,
			"0.006": 5.14795851056,
			"0.007": 4.83869652914,
			"0.008": 5.60076680073,
			"0.009": 4.15006364073,
			"0.01": 5.74421487714,
			"0.011": 5.88769911041,
			"0.012": 7.8799613545,
			"0.013": 1.81181952372,
			"0.014": 0.0777513286316,
			"0.015": 0.0,
			"0.016": 0.0,
			"0.017": 0.0,
			"0.018": 0.0,
			"0.019": 0.0,
			"0.02": 0.0,
			"0.021": 0.0,
			"0.022": 0.0,
			"0.023": 0.0,
			"0.024": 0.0,
			"0.025": 0.0
		}
	}
}
