{
	 "smiles": "CCCCCCCCC=CCCCCCCCC#N", 
	 "Tm": 272.15, 
	 "num_atms": 52, 
	 "gaussian": { 
		 "optdone": 1, 
		 "sigma_profile": "yes", 
		 "theory": "DFT", 
		 "functional": "B3LYP", 
		 "basiset": "6-31G**", 
		 "properties": { 
			 "R2extent": 12470.5268, 
			 "electric_dipole_moment_norm": 3.68732083768, 
			 "electric_quadrupole_moment_norm": 30.5183194765, 
			 "total_energy": -760.561616531, 
			 "HOMO_LUMO_gap": 0.2625, 
			 "cosmo_polarized_energy": -9.67, 
			 "cosmo_cavitation_energy": 52.68, 
			 "cosmo_dispersion_energy": -34.2, 
			 "cosmo_repulsion_energy": 2.8, 
			 "cosmo_total_nonelectrostatic_energy": 21.28, 
			 "SMD_solvation_energy": 8.39 
		},
		"coords": [
			{
				"x": 0.8245201759,
				"y": -2.8125666679,
				"z": 4.3963060569,
				"element": "C" 
			},
			{
				"x": 1.3708708646,
				"y": -3.7126126856,
				"z": 3.2829111824,
				"element": "C" 
			},
			{
				"x": 2.8945437996,
				"y": -3.6117118985,
				"z": 3.1259058847,
				"element": "C" 
			},
			{
				"x": 3.4988750621,
				"y": -4.5648881331,
				"z": 2.0795002563,
				"element": "C" 
			},
			{
				"x": 3.0560342372,
				"y": -4.3377655537,
				"z": 0.6226391366,
				"element": "C" 
			},
			{
				"x": 3.4725480936,
				"y": -2.9787620632,
				"z": 0.0397399028,
				"element": "C" 
			},
			{
				"x": 3.1995844471,
				"y": -2.8210430337,
				"z": -1.4661611916,
				"element": "C" 
			},
			{
				"x": 1.7136088764,
				"y": -2.8705365834,
				"z": -1.8916910694,
				"element": "C" 
			},
			{
				"x": 0.8636055062,
				"y": -1.781050356,
				"z": -1.2935872436,
				"element": "C" 
			},
			{
				"x": 0.2903855995,
				"y": -0.7898060324,
				"z": -1.9824973929,
				"element": "C" 
			},
			{
				"x": -0.5432969688,
				"y": 0.3152336608,
				"z": -1.3917934471,
				"element": "C" 
			},
			{
				"x": 0.0687245106,
				"y": 1.7102536649,
				"z": -1.6287033178,
				"element": "C" 
			},
			{
				"x": -0.6845260457,
				"y": 2.8922955324,
				"z": -0.9924961121,
				"element": "C" 
			},
			{
				"x": -2.1129531554,
				"y": 3.1543666321,
				"z": -1.522570737,
				"element": "C" 
			},
			{
				"x": -3.2287655581,
				"y": 2.4758780881,
				"z": -0.7089815782,
				"element": "C" 
			},
			{
				"x": -4.6646146003,
				"y": 2.8106710752,
				"z": -1.14609505,
				"element": "C" 
			},
			{
				"x": -5.1366889621,
				"y": 2.157319133,
				"z": -2.4674285623,
				"element": "C" 
			},
			{
				"x": -4.5686719958,
				"y": 2.7384539913,
				"z": -3.688082196,
				"element": "C" 
			},
			{
				"x": -4.13816607,
				"y": 3.2038785691,
				"z": -4.6608384087,
				"element": "N" 
			},
			{
				"x": 1.2634470406,
				"y": -3.0721322316,
				"z": 5.3665539209,
				"element": "H" 
			},
			{
				"x": -0.2629538693,
				"y": -2.9023365661,
				"z": 4.4887445953,
				"element": "H" 
			},
			{
				"x": 1.0557365879,
				"y": -1.758602669,
				"z": 4.2030322748,
				"element": "H" 
			},
			{
				"x": 0.8787121025,
				"y": -3.4531117973,
				"z": 2.3367334892,
				"element": "H" 
			},
			{
				"x": 1.0981578797,
				"y": -4.7570735999,
				"z": 3.4888130753,
				"element": "H" 
			},
			{
				"x": 3.1657686069,
				"y": -2.5738896669,
				"z": 2.8895302158,
				"element": "H" 
			},
			{
				"x": 3.3613608291,
				"y": -3.8258307591,
				"z": 4.0972091784,
				"element": "H" 
			},
			{
				"x": 3.2541197353,
				"y": -5.5975713942,
				"z": 2.3639699215,
				"element": "H" 
			},
			{
				"x": 4.593931456,
				"y": -4.4898971756,
				"z": 2.1281188808,
				"element": "H" 
			},
			{
				"x": 1.9687932331,
				"y": -4.46324535,
				"z": 0.5449715044,
				"element": "H" 
			},
			{
				"x": 3.4917258957,
				"y": -5.1337760299,
				"z": 0.0027454573,
				"element": "H" 
			},
			{
				"x": 4.5493038424,
				"y": -2.8398574483,
				"z": 0.2094779306,
				"element": "H" 
			},
			{
				"x": 2.9781592206,
				"y": -2.1664064876,
				"z": 0.5868523848,
				"element": "H" 
			},
			{
				"x": 3.7398118413,
				"y": -3.6089018383,
				"z": -2.0090603898,
				"element": "H" 
			},
			{
				"x": 3.6217475085,
				"y": -1.8662847711,
				"z": -1.8040791446,
				"element": "H" 
			},
			{
				"x": 1.2952062748,
				"y": -3.8506182548,
				"z": -1.6226493552,
				"element": "H" 
			},
			{
				"x": 1.6631621027,
				"y": -2.8064609278,
				"z": -2.9854444261,
				"element": "H" 
			},
			{
				"x": 0.7155604816,
				"y": -1.8136989189,
				"z": -0.2125838728,
				"element": "H" 
			},
			{
				"x": 0.4333834001,
				"y": -0.7517638175,
				"z": -3.0649128644,
				"element": "H" 
			},
			{
				"x": -0.6729998329,
				"y": 0.1457115517,
				"z": -0.314670783,
				"element": "H" 
			},
			{
				"x": -1.5469260426,
				"y": 0.2833973078,
				"z": -1.838939535,
				"element": "H" 
			},
			{
				"x": 0.1526862565,
				"y": 1.8829645535,
				"z": -2.7107018383,
				"element": "H" 
			},
			{
				"x": 1.0962065538,
				"y": 1.7033573644,
				"z": -1.2431253549,
				"element": "H" 
			},
			{
				"x": -0.7160397176,
				"y": 2.7618516971,
				"z": 0.0988755964,
				"element": "H" 
			},
			{
				"x": -0.079812987,
				"y": 3.7907736472,
				"z": -1.1654648027,
				"element": "H" 
			},
			{
				"x": -2.3043753048,
				"y": 4.2353510668,
				"z": -1.5100166566,
				"element": "H" 
			},
			{
				"x": -2.1681408614,
				"y": 2.8593851742,
				"z": -2.5767498448,
				"element": "H" 
			},
			{
				"x": -3.1009305116,
				"y": 1.3859720584,
				"z": -0.7118002747,
				"element": "H" 
			},
			{
				"x": -3.1222529812,
				"y": 2.7840688963,
				"z": 0.3397252004,
				"element": "H" 
			},
			{
				"x": -4.7959010048,
				"y": 3.8971463778,
				"z": -1.2161514112,
				"element": "H" 
			},
			{
				"x": -5.3561632374,
				"y": 2.464044773,
				"z": -0.3693722486,
				"element": "H" 
			},
			{
				"x": -4.9076264881,
				"y": 1.0843550637,
				"z": -2.4593319033,
				"element": "H" 
			},
			{
				"x": -6.2268758267,
				"y": 2.2423728327,
				"z": -2.5488750328,
				"element": "H" 
			}
		],
		 "valence_orbital": [ 
			{
				"type": "occ",
				"energy": -0.30666,
				"method": "rhf"
			},
			{
				"type": "occ",
				"energy": -0.30574,
				"method": "rhf"
			},
			{
				"type": "occ",
				"energy": -0.30534,
				"method": "rhf"
			},
			{
				"type": "occ",
				"energy": -0.30152,
				"method": "rhf"
			},
			{
				"type": "occ",
				"energy": -0.23637,
				"method": "rhf"
			},
			{
				"type": "unocc",
				"energy": 0.02613,
				"method": "rhf"
			},
			{
				"type": "unocc",
				"energy": 0.03255,
				"method": "rhf"
			},
			{
				"type": "unocc",
				"energy": 0.04103,
				"method": "rhf"
			},
			{
				"type": "unocc",
				"energy": 0.07182,
				"method": "rhf"
			},
			{
				"type": "unocc",
				"energy": 0.08075,
				"method": "rhf"
			}
		],
		"cosmo_sigma_profile": { 
			"-0.025": 0.0,
			"-0.024": 0.0,
			"-0.023": 0.0,
			"-0.022": 0.0,
			"-0.021": 0.0,
			"-0.02": 0.0,
			"-0.019": 0.0,
			"-0.018": 0.0,
			"-0.017": 0.0,
			"-0.016": 0.0,
			"-0.015": 0.0,
			"-0.014": 0.0,
			"-0.013": 0.0,
			"-0.012": 0.0,
			"-0.011": 0.0,
			"-0.01": 0.0,
			"-0.009": 0.0,
			"-0.008": 1.75740999737,
			"-0.007": 5.12264083665,
			"-0.006": 5.72265586562,
			"-0.005": 7.62338009027,
			"-0.004": 14.8616526256,
			"-0.003": 19.9001344054,
			"-0.002": 62.6580153329,
			"-0.001": 79.3978143587,
			"0.0": 73.763905078,
			"0.001": 61.3841296843,
			"0.002": 26.8410965563,
			"0.003": 6.80040719246,
			"0.004": 7.61269437041,
			"0.005": 5.08999562578,
			"0.006": 5.34727790915,
			"0.007": 4.10156297143,
			"0.008": 2.53747194164,
			"0.009": 3.64034855916,
			"0.01": 2.83253199001,
			"0.011": 3.22089068113,
			"0.012": 2.67516262408,
			"0.013": 2.34340990647,
			"0.014": 1.02714543422,
			"0.015": 0.0,
			"0.016": 0.0,
			"0.017": 0.0,
			"0.018": 0.0,
			"0.019": 0.0,
			"0.02": 0.0,
			"0.021": 0.0,
			"0.022": 0.0,
			"0.023": 0.0,
			"0.024": 0.0,
			"0.025": 0.0
		}
	}
}
