{
	 "smiles": "NC(=O)C1=NC(F)=CC=C1", 
	 "Tm": 408.65, 
	 "num_atms": 15, 
	 "gaussian": { 
		 "optdone": 1, 
		 "sigma_profile": "yes", 
		 "theory": "DFT", 
		 "functional": "B3LYP", 
		 "basiset": "6-31G**", 
		 "properties": { 
			 "R2extent": 2074.3432, 
			 "electric_dipole_moment_norm": 1.96545956204, 
			 "electric_quadrupole_moment_norm": 19.1679845756, 
			 "total_energy": -516.237628746, 
			 "HOMO_LUMO_gap": 0.1927, 
			 "cosmo_polarized_energy": -11.17, 
			 "cosmo_cavitation_energy": 20.37, 
			 "cosmo_dispersion_energy": -15.2, 
			 "cosmo_repulsion_energy": 1.22, 
			 "cosmo_total_nonelectrostatic_energy": 6.39, 
			 "SMD_solvation_energy": 3.97 
		},
		"coords": [
			{
				"x": -1.4572566493,
				"y": -0.1475032597,
				"z": -0.4504736492,
				"element": "N" 
			},
			{
				"x": -0.3766848086,
				"y": -0.954951703,
				"z": -0.3131143497,
				"element": "C" 
			},
			{
				"x": -0.4038814382,
				"y": -2.077340946,
				"z": 0.1799147331,
				"element": "O" 
			},
			{
				"x": 0.9118895805,
				"y": -0.3548840418,
				"z": -0.8294950322,
				"element": "C" 
			},
			{
				"x": 0.8571396867,
				"y": 0.8829816258,
				"z": -1.3568591359,
				"element": "N" 
			},
			{
				"x": 1.9823490226,
				"y": 1.3948248005,
				"z": -1.802407292,
				"element": "C" 
			},
			{
				"x": 1.9076920216,
				"y": 2.6282955038,
				"z": -2.3238948858,
				"element": "F" 
			},
			{
				"x": 3.2255590874,
				"y": 0.7602304083,
				"z": -1.7728523004,
				"element": "C" 
			},
			{
				"x": 3.266119527,
				"y": -0.5183897224,
				"z": -1.2249541343,
				"element": "C" 
			},
			{
				"x": 2.0889316657,
				"y": -1.0941951992,
				"z": -0.7413167928,
				"element": "C" 
			},
			{
				"x": -1.3515660095,
				"y": 0.7648093814,
				"z": -0.8681077992,
				"element": "H" 
			},
			{
				"x": -2.3532028772,
				"y": -0.4774489747,
				"z": -0.1297954161,
				"element": "H" 
			},
			{
				"x": 4.1035446893,
				"y": 1.2601821263,
				"z": -2.1641937061,
				"element": "H" 
			},
			{
				"x": 4.2063011012,
				"y": -1.0592932685,
				"z": -1.1760826007,
				"element": "H" 
			},
			{
				"x": 2.0533654007,
				"y": -2.0842167308,
				"z": -0.3037676386,
				"element": "H" 
			}
		],
		 "valence_orbital": [ 
			{
				"type": "occ",
				"energy": -0.30777,
				"method": "rhf"
			},
			{
				"type": "occ",
				"energy": -0.30487,
				"method": "rhf"
			},
			{
				"type": "occ",
				"energy": -0.27067,
				"method": "rhf"
			},
			{
				"type": "occ",
				"energy": -0.26433,
				"method": "rhf"
			},
			{
				"type": "occ",
				"energy": -0.25257,
				"method": "rhf"
			},
			{
				"type": "unocc",
				"energy": -0.05987,
				"method": "rhf"
			},
			{
				"type": "unocc",
				"energy": -0.02552,
				"method": "rhf"
			},
			{
				"type": "unocc",
				"energy": 0.0608,
				"method": "rhf"
			},
			{
				"type": "unocc",
				"energy": 0.08419,
				"method": "rhf"
			},
			{
				"type": "unocc",
				"energy": 0.10322,
				"method": "rhf"
			}
		],
		"cosmo_sigma_profile": { 
			"-0.025": 0.0,
			"-0.024": 0.0,
			"-0.023": 0.0,
			"-0.022": 0.0,
			"-0.021": 0.0,
			"-0.02": 0.0,
			"-0.019": 0.0,
			"-0.018": 0.0,
			"-0.017": 0.0,
			"-0.016": 0.0,
			"-0.015": 0.289738834602,
			"-0.014": 1.01665163124,
			"-0.013": 1.54816723163,
			"-0.012": 1.72822085559,
			"-0.011": 1.44901078368,
			"-0.01": 2.03396788622,
			"-0.009": 2.78023909657,
			"-0.008": 5.56635529776,
			"-0.007": 7.9789855173,
			"-0.006": 6.89277262188,
			"-0.005": 4.86014779807,
			"-0.004": 6.26098160314,
			"-0.003": 5.76374071105,
			"-0.002": 12.4311521358,
			"-0.001": 15.0772260401,
			"0.0": 14.7512208362,
			"0.001": 16.0293209793,
			"0.002": 7.93940326046,
			"0.003": 10.7604155454,
			"0.004": 10.9388457486,
			"0.005": 4.11365290629,
			"0.006": 3.7129122006,
			"0.007": 2.71600241823,
			"0.008": 2.43271628174,
			"0.009": 1.33354592926,
			"0.01": 1.33769853986,
			"0.011": 1.45568810592,
			"0.012": 2.03936912357,
			"0.013": 5.11058694589,
			"0.014": 3.11930227146,
			"0.015": 0.246153471604,
			"0.016": 0.0,
			"0.017": 0.0,
			"0.018": 0.0,
			"0.019": 0.0,
			"0.02": 0.0,
			"0.021": 0.0,
			"0.022": 0.0,
			"0.023": 0.0,
			"0.024": 0.0,
			"0.025": 0.0
		}
	}
}
