{
	 "smiles": "CC1(NC(=O)NC1=O)C1=CC(N)=CC=C1", 
	 "Tm": 352.15, 
	 "num_atms": 26, 
	 "gaussian": { 
		 "optdone": 1, 
		 "sigma_profile": "yes", 
		 "theory": "DFT", 
		 "functional": "B3LYP", 
		 "basiset": "6-31G**", 
		 "properties": { 
			 "R2extent": 3488.2109, 
			 "electric_dipole_moment_norm": 4.44000139752, 
			 "electric_quadrupole_moment_norm": 17.6268424697, 
			 "total_energy": -702.4407482, 
			 "HOMO_LUMO_gap": 0.19541, 
			 "cosmo_polarized_energy": -20.62, 
			 "cosmo_cavitation_energy": 29.84, 
			 "cosmo_dispersion_energy": -21.46, 
			 "cosmo_repulsion_energy": 1.7, 
			 "cosmo_total_nonelectrostatic_energy": 10.08, 
			 "SMD_solvation_energy": 6.05 
		},
		"coords": [
			{
				"x": -1.5547866899,
				"y": 1.4114841874,
				"z": 0.9166633726,
				"element": "C" 
			},
			{
				"x": -0.5138187635,
				"y": 1.3567761563,
				"z": -0.2176561343,
				"element": "C" 
			},
			{
				"x": 0.3449638879,
				"y": 2.5520979962,
				"z": -0.2261758328,
				"element": "N" 
			},
			{
				"x": 0.3474966783,
				"y": 3.2170544754,
				"z": -1.4284681219,
				"element": "C" 
			},
			{
				"x": 1.0432682791,
				"y": 4.1467213305,
				"z": -1.7789282293,
				"element": "O" 
			},
			{
				"x": -0.6644062795,
				"y": 2.6040897298,
				"z": -2.1960053402,
				"element": "N" 
			},
			{
				"x": -1.2460182479,
				"y": 1.5248029138,
				"z": -1.5735183983,
				"element": "C" 
			},
			{
				"x": -2.1703996887,
				"y": 0.8561903421,
				"z": -1.9902877028,
				"element": "O" 
			},
			{
				"x": 0.3047705783,
				"y": 0.0562629738,
				"z": -0.1412529309,
				"element": "C" 
			},
			{
				"x": 1.2969996047,
				"y": -0.0445823645,
				"z": 0.8421871639,
				"element": "C" 
			},
			{
				"x": 2.0703888425,
				"y": -1.2067725449,
				"z": 0.9853751205,
				"element": "C" 
			},
			{
				"x": 3.0959038751,
				"y": -1.2684246741,
				"z": 1.928725232,
				"element": "N" 
			},
			{
				"x": 1.8253495064,
				"y": -2.287246064,
				"z": 0.1192881301,
				"element": "C" 
			},
			{
				"x": 0.8301328789,
				"y": -2.1914579829,
				"z": -0.8455625849,
				"element": "C" 
			},
			{
				"x": 0.0624621852,
				"y": -1.0317587632,
				"z": -0.9860469026,
				"element": "C" 
			},
			{
				"x": -1.0620588408,
				"y": 1.3181276188,
				"z": 1.8882983142,
				"element": "H" 
			},
			{
				"x": -2.1031220779,
				"y": 2.3575209104,
				"z": 0.8896781179,
				"element": "H" 
			},
			{
				"x": -2.2611937286,
				"y": 0.5861671419,
				"z": 0.8007576209,
				"element": "H" 
			},
			{
				"x": 1.1643729157,
				"y": 2.6351081255,
				"z": 0.3559155607,
				"element": "H" 
			},
			{
				"x": -0.9411741759,
				"y": 2.9517595357,
				"z": -3.1028453776,
				"element": "H" 
			},
			{
				"x": 1.4830679826,
				"y": 0.7830788175,
				"z": 1.5245396413,
				"element": "H" 
			},
			{
				"x": 3.3667279319,
				"y": -2.1999131359,
				"z": 2.211560646,
				"element": "H" 
			},
			{
				"x": 3.0003753331,
				"y": -0.6457703487,
				"z": 2.7188366161,
				"element": "H" 
			},
			{
				"x": 2.4181073569,
				"y": -3.1939072667,
				"z": 0.2106055666,
				"element": "H" 
			},
			{
				"x": 0.644729869,
				"y": -3.0357797683,
				"z": -1.5036291993,
				"element": "H" 
			},
			{
				"x": -0.7211392128,
				"y": -0.983529342,
				"z": -1.7315543477,
				"element": "H" 
			}
		],
		 "valence_orbital": [ 
			{
				"type": "occ",
				"energy": -0.28743,
				"method": "rhf"
			},
			{
				"type": "occ",
				"energy": -0.2713,
				"method": "rhf"
			},
			{
				"type": "occ",
				"energy": -0.25899,
				"method": "rhf"
			},
			{
				"type": "occ",
				"energy": -0.25052,
				"method": "rhf"
			},
			{
				"type": "occ",
				"energy": -0.21155,
				"method": "rhf"
			},
			{
				"type": "unocc",
				"energy": -0.01614,
				"method": "rhf"
			},
			{
				"type": "unocc",
				"energy": -0.00384,
				"method": "rhf"
			},
			{
				"type": "unocc",
				"energy": 0.00838,
				"method": "rhf"
			},
			{
				"type": "unocc",
				"energy": 0.05895,
				"method": "rhf"
			},
			{
				"type": "unocc",
				"energy": 0.0699,
				"method": "rhf"
			}
		],
		"cosmo_sigma_profile": { 
			"-0.025": 0.0,
			"-0.024": 0.0,
			"-0.023": 0.0,
			"-0.022": 0.0,
			"-0.021": 0.0,
			"-0.02": 0.0,
			"-0.019": 0.0,
			"-0.018": 0.0,
			"-0.017": 0.454615308948,
			"-0.016": 1.42324701194,
			"-0.015": 0.966137276995,
			"-0.014": 2.77305011365,
			"-0.013": 2.00206758042,
			"-0.012": 5.2007513704,
			"-0.011": 4.60753944693,
			"-0.01": 5.10079814,
			"-0.009": 4.34332839842,
			"-0.008": 6.52191193283,
			"-0.007": 5.98248357532,
			"-0.006": 7.29338892435,
			"-0.005": 9.96972656742,
			"-0.004": 13.9174603303,
			"-0.003": 15.5946876079,
			"-0.002": 16.123619019,
			"-0.001": 17.9986397323,
			"0.0": 13.2059272499,
			"0.001": 9.25560990247,
			"0.002": 10.0542603611,
			"0.003": 9.8775315354,
			"0.004": 10.9284792164,
			"0.005": 11.2445411529,
			"0.006": 12.2065879493,
			"0.007": 5.21838485479,
			"0.008": 2.81426410751,
			"0.009": 3.90138414293,
			"0.01": 4.05215005939,
			"0.011": 5.6200536199,
			"0.012": 9.5264172469,
			"0.013": 6.90360461259,
			"0.014": 1.04637040428,
			"0.015": 0.119486177968,
			"0.016": 0.0,
			"0.017": 0.0,
			"0.018": 0.0,
			"0.019": 0.0,
			"0.02": 0.0,
			"0.021": 0.0,
			"0.022": 0.0,
			"0.023": 0.0,
			"0.024": 0.0,
			"0.025": 0.0
		}
	}
}
