{
	 "smiles": "NC1=NC2=C(S1)C=C(Br)C=C2", 
	 "Tm": 393.15, 
	 "num_atms": 16, 
	 "gaussian": { 
		 "optdone": 1, 
		 "sigma_profile": "yes", 
		 "theory": "DFT", 
		 "functional": "B3LYP", 
		 "basiset": "6-31G**", 
		 "properties": { 
			 "R2extent": 3920.6419, 
			 "electric_dipole_moment_norm": 3.66779117317, 
			 "electric_quadrupole_moment_norm": 13.8172410195, 
			 "total_energy": -3348.86487383, 
			 "HOMO_LUMO_gap": 0.19137, 
			 "cosmo_polarized_energy": -10.91, 
			 "cosmo_cavitation_energy": 24.42, 
			 "cosmo_dispersion_energy": -19.44, 
			 "cosmo_repulsion_energy": 1.51, 
			 "cosmo_total_nonelectrostatic_energy": 6.5, 
			 "SMD_solvation_energy": 0.79 
		},
		"coords": [
			{
				"x": 3.0326727661,
				"y": -1.6912073597,
				"z": -2.2305611589,
				"element": "N" 
			},
			{
				"x": 2.0335417564,
				"y": -0.967882716,
				"z": -1.6384415297,
				"element": "C" 
			},
			{
				"x": 1.8139176273,
				"y": -0.9392624397,
				"z": -0.3620881328,
				"element": "N" 
			},
			{
				"x": 0.6928554318,
				"y": -0.1775580179,
				"z": -0.074319336,
				"element": "C" 
			},
			{
				"x": 0.0393782542,
				"y": 0.4070500502,
				"z": -1.1879677856,
				"element": "C" 
			},
			{
				"x": 0.8820067849,
				"y": -0.0554097031,
				"z": -2.6639435894,
				"element": "S" 
			},
			{
				"x": -1.0906452269,
				"y": 1.2087953446,
				"z": -1.0485033233,
				"element": "C" 
			},
			{
				"x": -1.5687419624,
				"y": 1.4187428375,
				"z": 0.2435904225,
				"element": "C" 
			},
			{
				"x": -3.1206282498,
				"y": 2.5112197894,
				"z": 0.4876420182,
				"element": "Br" 
			},
			{
				"x": -0.9486823126,
				"y": 0.8548431799,
				"z": 1.3648665202,
				"element": "C" 
			},
			{
				"x": 0.1815128679,
				"y": 0.057390733,
				"z": 1.2079543562,
				"element": "C" 
			},
			{
				"x": 3.7351594051,
				"y": -2.0277391153,
				"z": -1.5859196676,
				"element": "H" 
			},
			{
				"x": 3.3837123132,
				"y": -1.3757333267,
				"z": -3.122348683,
				"element": "H" 
			},
			{
				"x": -1.5871216469,
				"y": 1.6548666065,
				"z": -1.9019075347,
				"element": "H" 
			},
			{
				"x": -1.3530430676,
				"y": 1.0427246101,
				"z": 2.3526230469,
				"element": "H" 
			},
			{
				"x": 0.6742052593,
				"y": -0.3863404727,
				"z": 2.0665243771,
				"element": "H" 
			}
		],
		 "valence_orbital": [ 
			{
				"type": "occ",
				"energy": -0.28459,
				"method": "rhf"
			},
			{
				"type": "occ",
				"energy": -0.28252,
				"method": "rhf"
			},
			{
				"type": "occ",
				"energy": -0.27774,
				"method": "rhf"
			},
			{
				"type": "occ",
				"energy": -0.24092,
				"method": "rhf"
			},
			{
				"type": "occ",
				"energy": -0.21465,
				"method": "rhf"
			},
			{
				"type": "unocc",
				"energy": -0.02328,
				"method": "rhf"
			},
			{
				"type": "unocc",
				"energy": -0.01224,
				"method": "rhf"
			},
			{
				"type": "unocc",
				"energy": -0.01021,
				"method": "rhf"
			},
			{
				"type": "unocc",
				"energy": 0.01492,
				"method": "rhf"
			},
			{
				"type": "unocc",
				"energy": 0.03754,
				"method": "rhf"
			}
		],
		"cosmo_sigma_profile": { 
			"-0.025": 0.0,
			"-0.024": 0.0,
			"-0.023": 0.0,
			"-0.022": 0.0,
			"-0.021": 0.0,
			"-0.02": 0.0,
			"-0.019": 0.0,
			"-0.018": 0.0,
			"-0.017": 0.0,
			"-0.016": 0.060212808781,
			"-0.015": 1.39233486974,
			"-0.014": 2.78186058063,
			"-0.013": 2.30175522207,
			"-0.012": 2.52526042335,
			"-0.011": 3.16193021865,
			"-0.01": 2.04398237781,
			"-0.009": 1.82600259188,
			"-0.008": 3.68879369112,
			"-0.007": 5.47710503524,
			"-0.006": 6.93042187735,
			"-0.005": 7.8282366235,
			"-0.004": 7.56381142793,
			"-0.003": 7.65582973605,
			"-0.002": 8.75634884423,
			"-0.001": 11.1873684348,
			"0.0": 12.6803570858,
			"0.001": 16.2901732169,
			"0.002": 23.4959021872,
			"0.003": 27.3573395532,
			"0.004": 20.8943772979,
			"0.005": 12.2141892966,
			"0.006": 2.87522850073,
			"0.007": 1.80889180482,
			"0.008": 1.58224754976,
			"0.009": 1.6069253981,
			"0.01": 1.78128117254,
			"0.011": 1.10450072856,
			"0.012": 0.685798208005,
			"0.013": 1.00450183085,
			"0.014": 0.969303818251,
			"0.015": 0.40305999555,
			"0.016": 0.0,
			"0.017": 0.0,
			"0.018": 0.0,
			"0.019": 0.0,
			"0.02": 0.0,
			"0.021": 0.0,
			"0.022": 0.0,
			"0.023": 0.0,
			"0.024": 0.0,
			"0.025": 0.0
		}
	}
}
