{
	 "smiles": "[O-][N+](=O)C1=CC(=C(Cl)C=C1)S(=O)(=O)N1CCCC1", 
	 "Tm": 388.15, 
	 "num_atms": 29, 
	 "gaussian": { 
		 "optdone": 1, 
		 "sigma_profile": "yes", 
		 "theory": "DFT", 
		 "functional": "B3LYP", 
		 "basiset": "6-31G**", 
		 "properties": { 
			 "R2extent": 6518.8793, 
			 "electric_dipole_moment_norm": 5.98377730953, 
			 "electric_quadrupole_moment_norm": 20.5722745828, 
			 "total_energy": -1656.28918842, 
			 "HOMO_LUMO_gap": 0.15501, 
			 "cosmo_polarized_energy": -15.13, 
			 "cosmo_cavitation_energy": 35.45, 
			 "cosmo_dispersion_energy": -25.78, 
			 "cosmo_repulsion_energy": 1.94, 
			 "cosmo_total_nonelectrostatic_energy": 11.61, 
			 "SMD_solvation_energy": 6.56 
		},
		"coords": [
			{
				"x": 6.190714965,
				"y": 0.323394421,
				"z": -0.5065886688,
				"element": "O" 
			},
			{
				"x": 5.249124321,
				"y": -0.299839838,
				"z": -0.01819081,
				"element": "N" 
			},
			{
				"x": 5.3232559348,
				"y": -1.0462212035,
				"z": 0.954749531,
				"element": "O" 
			},
			{
				"x": 3.9295579399,
				"y": -0.1334231884,
				"z": -0.6504215075,
				"element": "C" 
			},
			{
				"x": 2.8428955594,
				"y": -0.8298095703,
				"z": -0.1330378441,
				"element": "C" 
			},
			{
				"x": 1.5884378699,
				"y": -0.6714063404,
				"z": -0.7213553867,
				"element": "C" 
			},
			{
				"x": 1.4491910247,
				"y": 0.1840039238,
				"z": -1.8275844322,
				"element": "C" 
			},
			{
				"x": -0.0829433459,
				"y": 0.4410204435,
				"z": -2.6158941469,
				"element": "Cl" 
			},
			{
				"x": 2.5567274046,
				"y": 0.8728284629,
				"z": -2.3327829477,
				"element": "C" 
			},
			{
				"x": 3.8072115464,
				"y": 0.7168709572,
				"z": -1.7456280702,
				"element": "C" 
			},
			{
				"x": 0.2333606493,
				"y": -1.6542838839,
				"z": -0.0114284912,
				"element": "S" 
			},
			{
				"x": -0.3943289794,
				"y": -2.414168163,
				"z": -1.0921013334,
				"element": "O" 
			},
			{
				"x": 0.8308137551,
				"y": -2.3344812885,
				"z": 1.143185717,
				"element": "O" 
			},
			{
				"x": -0.8468955559,
				"y": -0.5050895162,
				"z": 0.5149175651,
				"element": "N" 
			},
			{
				"x": -0.7107965409,
				"y": 0.0183926846,
				"z": 1.8988563784,
				"element": "C" 
			},
			{
				"x": -2.0818244333,
				"y": 0.6576309557,
				"z": 2.1577667216,
				"element": "C" 
			},
			{
				"x": -3.0446627141,
				"y": -0.243494104,
				"z": 1.3680536688,
				"element": "C" 
			},
			{
				"x": -2.2706631181,
				"y": -0.5429116796,
				"z": 0.077211525,
				"element": "C" 
			},
			{
				"x": 2.9641090189,
				"y": -1.4904016574,
				"z": 0.7160850701,
				"element": "H" 
			},
			{
				"x": 2.4279437707,
				"y": 1.5278953964,
				"z": -3.1867045665,
				"element": "H" 
			},
			{
				"x": 4.6784909075,
				"y": 1.2397084922,
				"z": -2.1194981203,
				"element": "H" 
			},
			{
				"x": -0.5071513381,
				"y": -0.7980831755,
				"z": 2.5993879988,
				"element": "H" 
			},
			{
				"x": 0.1124260426,
				"y": 0.7373679059,
				"z": 1.9591835414,
				"element": "H" 
			},
			{
				"x": -2.3103853806,
				"y": 0.7080455055,
				"z": 3.2255721034,
				"element": "H" 
			},
			{
				"x": -2.1048704256,
				"y": 1.677897537,
				"z": 1.7588946873,
				"element": "H" 
			},
			{
				"x": -3.2289226445,
				"y": -1.1721959205,
				"z": 1.9195746964,
				"element": "H" 
			},
			{
				"x": -4.0105151617,
				"y": 0.2284396312,
				"z": 1.1684305966,
				"element": "H" 
			},
			{
				"x": -2.5140579329,
				"y": -1.5078841597,
				"z": -0.367998367,
				"element": "H" 
			},
			{
				"x": -2.4343431387,
				"y": 0.233197372,
				"z": -0.6787551084,
				"element": "H" 
			}
		],
		 "valence_orbital": [ 
			{
				"type": "occ",
				"energy": -0.30984,
				"method": "rhf"
			},
			{
				"type": "occ",
				"energy": -0.30217,
				"method": "rhf"
			},
			{
				"type": "occ",
				"energy": -0.29967,
				"method": "rhf"
			},
			{
				"type": "occ",
				"energy": -0.28623,
				"method": "rhf"
			},
			{
				"type": "occ",
				"energy": -0.25881,
				"method": "rhf"
			},
			{
				"type": "unocc",
				"energy": -0.1038,
				"method": "rhf"
			},
			{
				"type": "unocc",
				"energy": -0.05963,
				"method": "rhf"
			},
			{
				"type": "unocc",
				"energy": -0.02499,
				"method": "rhf"
			},
			{
				"type": "unocc",
				"energy": -0.00186,
				"method": "rhf"
			},
			{
				"type": "unocc",
				"energy": 0.05751,
				"method": "rhf"
			}
		],
		"cosmo_sigma_profile": { 
			"-0.025": 0.0,
			"-0.024": 0.0,
			"-0.023": 0.0,
			"-0.022": 0.0,
			"-0.021": 0.0,
			"-0.02": 0.0,
			"-0.019": 0.0,
			"-0.018": 0.0,
			"-0.017": 0.0,
			"-0.016": 0.0,
			"-0.015": 0.0,
			"-0.014": 0.0,
			"-0.013": 0.0,
			"-0.012": 0.0,
			"-0.011": 0.0,
			"-0.01": 0.442037067697,
			"-0.009": 3.51497431011,
			"-0.008": 4.52719623473,
			"-0.007": 5.01387713613,
			"-0.006": 4.58205949115,
			"-0.005": 13.2742696722,
			"-0.004": 33.7940984883,
			"-0.003": 40.9037285082,
			"-0.002": 38.6843832094,
			"-0.001": 26.7870659967,
			"0.0": 14.570130805,
			"0.001": 10.1033251612,
			"0.002": 11.4593354103,
			"0.003": 10.1280437658,
			"0.004": 6.30659897346,
			"0.005": 7.7538067504,
			"0.006": 7.37435568774,
			"0.007": 13.3465717964,
			"0.008": 9.26846232497,
			"0.009": 7.44748178449,
			"0.01": 8.86829073537,
			"0.011": 5.7301770726,
			"0.012": 0.475069979668,
			"0.013": 0.0,
			"0.014": 0.0,
			"0.015": 0.0,
			"0.016": 0.0,
			"0.017": 0.0,
			"0.018": 0.0,
			"0.019": 0.0,
			"0.02": 0.0,
			"0.021": 0.0,
			"0.022": 0.0,
			"0.023": 0.0,
			"0.024": 0.0,
			"0.025": 0.0
		}
	}
}
