{
	 "smiles": "OC1=C(C=CC=C1F)[N+]([O-])=O", 
	 "Tm": 365.65, 
	 "num_atms": 15, 
	 "gaussian": { 
		 "optdone": 1, 
		 "sigma_profile": "yes", 
		 "theory": "DFT", 
		 "functional": "B3LYP", 
		 "basiset": "6-31G**", 
		 "properties": { 
			 "R2extent": 1879.5322, 
			 "electric_dipole_moment_norm": 3.19931873373, 
			 "electric_quadrupole_moment_norm": 9.30864311809, 
			 "total_energy": -611.20203079, 
			 "HOMO_LUMO_gap": 0.14497, 
			 "cosmo_polarized_energy": -7.74, 
			 "cosmo_cavitation_energy": 20.44, 
			 "cosmo_dispersion_energy": -15.48, 
			 "cosmo_repulsion_energy": 1.21, 
			 "cosmo_total_nonelectrostatic_energy": 6.17, 
			 "SMD_solvation_energy": 6.55 
		},
		"coords": [
			{
				"x": 1.2118591297,
				"y": 1.5349558367,
				"z": -1.0476461746,
				"element": "O" 
			},
			{
				"x": 0.6319621842,
				"y": 0.9133875715,
				"z": -0.0219472732,
				"element": "C" 
			},
			{
				"x": 1.2241715916,
				"y": -0.1025931911,
				"z": 0.7650471238,
				"element": "C" 
			},
			{
				"x": 0.5421098602,
				"y": -0.7090760993,
				"z": 1.8331799479,
				"element": "C" 
			},
			{
				"x": -0.7466023308,
				"y": -0.3106848922,
				"z": 2.1349468919,
				"element": "C" 
			},
			{
				"x": -1.36443448,
				"y": 0.6962173141,
				"z": 1.372676576,
				"element": "C" 
			},
			{
				"x": -0.6843152227,
				"y": 1.283941049,
				"z": 0.3265025827,
				"element": "C" 
			},
			{
				"x": -1.2671696503,
				"y": 2.2454688233,
				"z": -0.405573165,
				"element": "F" 
			},
			{
				"x": 2.5729366911,
				"y": -0.5433594837,
				"z": 0.4757004054,
				"element": "N" 
			},
			{
				"x": 3.0742252907,
				"y": -1.4233187771,
				"z": 1.1636239038,
				"element": "O" 
			},
			{
				"x": 3.1799857394,
				"y": -0.0010503841,
				"z": -0.4773034093,
				"element": "O" 
			},
			{
				"x": 2.1130710136,
				"y": 1.1380476488,
				"z": -1.1269111278,
				"element": "H" 
			},
			{
				"x": 1.0521197364,
				"y": -1.480305655,
				"z": 2.3956977578,
				"element": "H" 
			},
			{
				"x": -1.2825785084,
				"y": -0.7715052691,
				"z": 2.9568663227,
				"element": "H" 
			},
			{
				"x": -2.3745410448,
				"y": 1.0299755083,
				"z": 1.5852396379,
				"element": "H" 
			}
		],
		 "valence_orbital": [ 
			{
				"type": "occ",
				"energy": -0.32969,
				"method": "rhf"
			},
			{
				"type": "occ",
				"energy": -0.32643,
				"method": "rhf"
			},
			{
				"type": "occ",
				"energy": -0.31277,
				"method": "rhf"
			},
			{
				"type": "occ",
				"energy": -0.28762,
				"method": "rhf"
			},
			{
				"type": "occ",
				"energy": -0.25128,
				"method": "rhf"
			},
			{
				"type": "unocc",
				"energy": -0.10631,
				"method": "rhf"
			},
			{
				"type": "unocc",
				"energy": -0.0201,
				"method": "rhf"
			},
			{
				"type": "unocc",
				"energy": -0.00881,
				"method": "rhf"
			},
			{
				"type": "unocc",
				"energy": 0.0572,
				"method": "rhf"
			},
			{
				"type": "unocc",
				"energy": 0.11244,
				"method": "rhf"
			}
		],
		"cosmo_sigma_profile": { 
			"-0.025": 0.0,
			"-0.024": 0.0,
			"-0.023": 0.0,
			"-0.022": 0.0,
			"-0.021": 0.0,
			"-0.02": 0.0,
			"-0.019": 0.0,
			"-0.018": 0.0,
			"-0.017": 0.0,
			"-0.016": 0.0,
			"-0.015": 0.0,
			"-0.014": 0.0,
			"-0.013": 0.0,
			"-0.012": 0.0,
			"-0.011": 0.305686612592,
			"-0.01": 0.601974622074,
			"-0.009": 1.65864254443,
			"-0.008": 5.65594309731,
			"-0.007": 9.93578727283,
			"-0.006": 9.6333120519,
			"-0.005": 8.59905301488,
			"-0.004": 6.9955187492,
			"-0.003": 8.49461514396,
			"-0.002": 13.3486045536,
			"-0.001": 15.0411034995,
			"0.0": 11.5706582654,
			"0.001": 10.5987589222,
			"0.002": 10.0753633312,
			"0.003": 10.4541045013,
			"0.004": 9.33556408613,
			"0.005": 5.30337558645,
			"0.006": 6.62840338536,
			"0.007": 8.13624662952,
			"0.008": 5.84851277089,
			"0.009": 5.5390352769,
			"0.01": 1.37931681031,
			"0.011": 0.0,
			"0.012": 0.0,
			"0.013": 0.0,
			"0.014": 0.0,
			"0.015": 0.0,
			"0.016": 0.0,
			"0.017": 0.0,
			"0.018": 0.0,
			"0.019": 0.0,
			"0.02": 0.0,
			"0.021": 0.0,
			"0.022": 0.0,
			"0.023": 0.0,
			"0.024": 0.0,
			"0.025": 0.0
		}
	}
}
