{
	 "smiles": "COC1=C(C=CC=C1)C1=NN=C(CCl)O1", 
	 "Tm": 360.15, 
	 "num_atms": 24, 
	 "gaussian": { 
		 "optdone": 1, 
		 "sigma_profile": "yes", 
		 "theory": "DFT", 
		 "functional": "B3LYP", 
		 "basiset": "6-31G**", 
		 "properties": { 
			 "R2extent": 5166.4615, 
			 "electric_dipole_moment_norm": 3.46012072766, 
			 "electric_quadrupole_moment_norm": 18.5004142613, 
			 "total_energy": -1106.58608681, 
			 "HOMO_LUMO_gap": 0.18399, 
			 "cosmo_polarized_energy": -12.54, 
			 "cosmo_cavitation_energy": 30.92, 
			 "cosmo_dispersion_energy": -21.96, 
			 "cosmo_repulsion_energy": 1.73, 
			 "cosmo_total_nonelectrostatic_energy": 10.69, 
			 "SMD_solvation_energy": 4.07 
		},
		"coords": [
			{
				"x": 0.7624404172,
				"y": 0.5076761807,
				"z": 0.7699475914,
				"element": "C" 
			},
			{
				"x": 1.111202506,
				"y": 0.3183758584,
				"z": -0.6037120781,
				"element": "O" 
			},
			{
				"x": 0.8976478374,
				"y": -0.9438025601,
				"z": -1.0986260293,
				"element": "C" 
			},
			{
				"x": -0.2178349215,
				"y": -1.2186407704,
				"z": -1.9167292789,
				"element": "C" 
			},
			{
				"x": -0.3511480263,
				"y": -2.504780526,
				"z": -2.475347153,
				"element": "C" 
			},
			{
				"x": 0.5862902311,
				"y": -3.4958680418,
				"z": -2.2153119533,
				"element": "C" 
			},
			{
				"x": 1.6837978297,
				"y": -3.2176727982,
				"z": -1.3941036634,
				"element": "C" 
			},
			{
				"x": 1.8364248252,
				"y": -1.9482278926,
				"z": -0.8430225803,
				"element": "C" 
			},
			{
				"x": -1.2479991038,
				"y": -0.2354485904,
				"z": -2.239660741,
				"element": "C" 
			},
			{
				"x": -2.2008961855,
				"y": -0.3669270102,
				"z": -3.1240556777,
				"element": "N" 
			},
			{
				"x": -2.967269812,
				"y": 0.787019937,
				"z": -3.0623597187,
				"element": "N" 
			},
			{
				"x": -2.4244509621,
				"y": 1.5361261184,
				"z": -2.1534785291,
				"element": "C" 
			},
			{
				"x": -2.8497298634,
				"y": 2.8835719751,
				"z": -1.720095598,
				"element": "C" 
			},
			{
				"x": -3.5172738651,
				"y": 2.886117848,
				"z": -0.0223784663,
				"element": "Cl" 
			},
			{
				"x": -1.3298940106,
				"y": 0.9607613729,
				"z": -1.5868372677,
				"element": "O" 
			},
			{
				"x": 1.0647719996,
				"y": 1.524408367,
				"z": 1.0263447619,
				"element": "H" 
			},
			{
				"x": 1.2903705152,
				"y": -0.2028586,
				"z": 1.4180678759,
				"element": "H" 
			},
			{
				"x": -0.318309286,
				"y": 0.4031931805,
				"z": 0.920959195,
				"element": "H" 
			},
			{
				"x": -1.207644672,
				"y": -2.7008623688,
				"z": -3.1110279223,
				"element": "H" 
			},
			{
				"x": 0.4648766388,
				"y": -4.4818240837,
				"z": -2.6524424272,
				"element": "H" 
			},
			{
				"x": 2.4238813585,
				"y": -3.9861569989,
				"z": -1.1911733524,
				"element": "H" 
			},
			{
				"x": 2.6952506688,
				"y": -1.7044119781,
				"z": -0.2255818797,
				"element": "H" 
			},
			{
				"x": -3.6408514849,
				"y": 3.2315016447,
				"z": -2.3816109243,
				"element": "H" 
			},
			{
				"x": -2.0164526344,
				"y": 3.5868297366,
				"z": -1.7177641832,
				"element": "H" 
			}
		],
		 "valence_orbital": [ 
			{
				"type": "occ",
				"energy": -0.3065,
				"method": "rhf"
			},
			{
				"type": "occ",
				"energy": -0.28473,
				"method": "rhf"
			},
			{
				"type": "occ",
				"energy": -0.28221,
				"method": "rhf"
			},
			{
				"type": "occ",
				"energy": -0.25657,
				"method": "rhf"
			},
			{
				"type": "occ",
				"energy": -0.24376,
				"method": "rhf"
			},
			{
				"type": "unocc",
				"energy": -0.05977,
				"method": "rhf"
			},
			{
				"type": "unocc",
				"energy": -0.02471,
				"method": "rhf"
			},
			{
				"type": "unocc",
				"energy": -0.0126,
				"method": "rhf"
			},
			{
				"type": "unocc",
				"energy": 0.04045,
				"method": "rhf"
			},
			{
				"type": "unocc",
				"energy": 0.05332,
				"method": "rhf"
			}
		],
		"cosmo_sigma_profile": { 
			"-0.025": 0.0,
			"-0.024": 0.0,
			"-0.023": 0.0,
			"-0.022": 0.0,
			"-0.021": 0.0,
			"-0.02": 0.0,
			"-0.019": 0.0,
			"-0.018": 0.0,
			"-0.017": 0.0,
			"-0.016": 0.0,
			"-0.015": 0.0,
			"-0.014": 0.0,
			"-0.013": 0.0,
			"-0.012": 0.0,
			"-0.011": 0.0058856131353,
			"-0.01": 3.09748297781,
			"-0.009": 4.31270121492,
			"-0.008": 4.01386656006,
			"-0.007": 7.72423401975,
			"-0.006": 13.5859860948,
			"-0.005": 19.0504782233,
			"-0.004": 20.3955961476,
			"-0.003": 19.6397713918,
			"-0.002": 17.2924083597,
			"-0.001": 13.3965919205,
			"0.0": 15.9529639041,
			"0.001": 16.5566374592,
			"0.002": 18.2726080866,
			"0.003": 18.8282764922,
			"0.004": 14.1699166282,
			"0.005": 12.861864361,
			"0.006": 6.03368509964,
			"0.007": 2.87958638154,
			"0.008": 3.37093130313,
			"0.009": 3.5768812937,
			"0.01": 4.2327996514,
			"0.011": 4.86612057831,
			"0.012": 3.00854099764,
			"0.013": 1.61899328232,
			"0.014": 1.52453854832,
			"0.015": 0.0687477701761,
			"0.016": 0.0,
			"0.017": 0.0,
			"0.018": 0.0,
			"0.019": 0.0,
			"0.02": 0.0,
			"0.021": 0.0,
			"0.022": 0.0,
			"0.023": 0.0,
			"0.024": 0.0,
			"0.025": 0.0
		}
	}
}
