{
	 "smiles": "CCCCC(CC)CO", 
	 "Tm": 203.15, 
	 "num_atms": 27, 
	 "gaussian": { 
		 "optdone": 1, 
		 "sigma_profile": "yes", 
		 "theory": "DFT", 
		 "functional": "B3LYP", 
		 "basiset": "6-31G**", 
		 "properties": { 
			 "R2extent": 1965.2153, 
			 "electric_dipole_moment_norm": 1.59242138895, 
			 "electric_quadrupole_moment_norm": 5.67114536932, 
			 "total_energy": -390.93167199, 
			 "HOMO_LUMO_gap": 0.33118, 
			 "cosmo_polarized_energy": -5.78, 
			 "cosmo_cavitation_energy": 27.26, 
			 "cosmo_dispersion_energy": -19.36, 
			 "cosmo_repulsion_energy": 1.62, 
			 "cosmo_total_nonelectrostatic_energy": 9.51, 
			 "SMD_solvation_energy": 4.39 
		},
		"coords": [
			{
				"x": -1.0713080135,
				"y": -1.4980253582,
				"z": 3.2304276836,
				"element": "C" 
			},
			{
				"x": -0.4493996162,
				"y": -0.4613009684,
				"z": 2.2895500227,
				"element": "C" 
			},
			{
				"x": -1.4183828255,
				"y": 0.0118543122,
				"z": 1.1945046604,
				"element": "C" 
			},
			{
				"x": -0.842411274,
				"y": 1.0623414008,
				"z": 0.215058947,
				"element": "C" 
			},
			{
				"x": -0.32358013,
				"y": 0.5223151777,
				"z": -1.1363881881,
				"element": "C" 
			},
			{
				"x": -0.0181002531,
				"y": 1.656290753,
				"z": -2.1416690333,
				"element": "C" 
			},
			{
				"x": 1.1034559932,
				"y": 2.6234362875,
				"z": -1.7407819443,
				"element": "C" 
			},
			{
				"x": 0.8684192651,
				"y": -0.4351225495,
				"z": -0.9727705483,
				"element": "C" 
			},
			{
				"x": 1.3836220003,
				"y": -0.9130059097,
				"z": -2.2119595001,
				"element": "O" 
			},
			{
				"x": -0.3676189787,
				"y": -1.8039374066,
				"z": 4.011495745,
				"element": "H" 
			},
			{
				"x": -1.3732548179,
				"y": -2.3991151538,
				"z": 2.6841054066,
				"element": "H" 
			},
			{
				"x": -1.9644619875,
				"y": -1.0989328808,
				"z": 3.7250211454,
				"element": "H" 
			},
			{
				"x": -0.1212627974,
				"y": 0.410724952,
				"z": 2.8713780551,
				"element": "H" 
			},
			{
				"x": 0.4587798486,
				"y": -0.8790673715,
				"z": 1.8377196186,
				"element": "H" 
			},
			{
				"x": -1.7868861739,
				"y": -0.8575488598,
				"z": 0.6309528038,
				"element": "H" 
			},
			{
				"x": -2.3020409781,
				"y": 0.4339505597,
				"z": 1.6907578008,
				"element": "H" 
			},
			{
				"x": -1.6225619379,
				"y": 1.7987901618,
				"z": -0.0143389184,
				"element": "H" 
			},
			{
				"x": -0.0455582432,
				"y": 1.6248652945,
				"z": 0.7197453876,
				"element": "H" 
			},
			{
				"x": -1.1454896526,
				"y": -0.0692076871,
				"z": -1.5753249564,
				"element": "H" 
			},
			{
				"x": -0.9427872315,
				"y": 2.2245538697,
				"z": -2.3082963863,
				"element": "H" 
			},
			{
				"x": 0.2442280675,
				"y": 1.1975977759,
				"z": -3.1008228638,
				"element": "H" 
			},
			{
				"x": 2.0612714727,
				"y": 2.1054841657,
				"z": -1.6291046021,
				"element": "H" 
			},
			{
				"x": 0.8881145185,
				"y": 3.1411325071,
				"z": -0.8002374468,
				"element": "H" 
			},
			{
				"x": 1.2378971378,
				"y": 3.3899816667,
				"z": -2.5110219252,
				"element": "H" 
			},
			{
				"x": 1.7054100017,
				"y": 0.0775863467,
				"z": -0.4862988542,
				"element": "H" 
			},
			{
				"x": 0.5865072423,
				"y": -1.2766146908,
				"z": -0.3229016725,
				"element": "H" 
			},
			{
				"x": 0.6761993634,
				"y": -1.4018263945,
				"z": -2.6527004367,
				"element": "H" 
			}
		],
		 "valence_orbital": [ 
			{
				"type": "occ",
				"energy": -0.32145,
				"method": "rhf"
			},
			{
				"type": "occ",
				"energy": -0.31499,
				"method": "rhf"
			},
			{
				"type": "occ",
				"energy": -0.30997,
				"method": "rhf"
			},
			{
				"type": "occ",
				"energy": -0.29842,
				"method": "rhf"
			},
			{
				"type": "occ",
				"energy": -0.25835,
				"method": "rhf"
			},
			{
				"type": "unocc",
				"energy": 0.07283,
				"method": "rhf"
			},
			{
				"type": "unocc",
				"energy": 0.08645,
				"method": "rhf"
			},
			{
				"type": "unocc",
				"energy": 0.10002,
				"method": "rhf"
			},
			{
				"type": "unocc",
				"energy": 0.11022,
				"method": "rhf"
			},
			{
				"type": "unocc",
				"energy": 0.12411,
				"method": "rhf"
			}
		],
		"cosmo_sigma_profile": { 
			"-0.025": 0.0,
			"-0.024": 0.0,
			"-0.023": 0.0,
			"-0.022": 0.0,
			"-0.021": 0.0,
			"-0.02": 0.0,
			"-0.019": 0.0,
			"-0.018": 0.0,
			"-0.017": 0.0,
			"-0.016": 0.0,
			"-0.015": 0.319083768254,
			"-0.014": 1.00764227719,
			"-0.013": 1.12199022201,
			"-0.012": 0.689002473907,
			"-0.011": 0.869409943427,
			"-0.01": 1.17711997554,
			"-0.009": 0.913914015269,
			"-0.008": 0.832618914955,
			"-0.007": 0.806821228056,
			"-0.006": 0.747642078331,
			"-0.005": 1.63988129516,
			"-0.004": 1.51782285628,
			"-0.003": 9.32440382896,
			"-0.002": 33.6677276744,
			"-0.001": 41.6659294792,
			"0.0": 39.2254070739,
			"0.001": 34.6565441842,
			"0.002": 19.4597637746,
			"0.003": 2.59462757137,
			"0.004": 1.16300329,
			"0.005": 1.22064070226,
			"0.006": 1.35267977497,
			"0.007": 1.46739377897,
			"0.008": 1.46240048139,
			"0.009": 1.1289739756,
			"0.01": 1.10316098872,
			"0.011": 1.23523918032,
			"0.012": 1.12960235282,
			"0.013": 1.55705312107,
			"0.014": 1.89446511093,
			"0.015": 1.47073636791,
			"0.016": 0.0,
			"0.017": 0.0,
			"0.018": 0.0,
			"0.019": 0.0,
			"0.02": 0.0,
			"0.021": 0.0,
			"0.022": 0.0,
			"0.023": 0.0,
			"0.024": 0.0,
			"0.025": 0.0
		}
	}
}
