{
	 "smiles": "OC(=O)CCC1=NN=C(O1)C1=CSC=C1", 
	 "Tm": 433.15, 
	 "num_atms": 23, 
	 "gaussian": { 
		 "optdone": 1, 
		 "sigma_profile": "yes", 
		 "theory": "DFT", 
		 "functional": "B3LYP", 
		 "basiset": "6-31G**", 
		 "properties": { 
			 "R2extent": 6709.2766, 
			 "electric_dipole_moment_norm": 2.86987567152, 
			 "electric_quadrupole_moment_norm": 13.8432392539, 
			 "total_energy": -1081.11992129, 
			 "HOMO_LUMO_gap": 0.18898, 
			 "cosmo_polarized_energy": -17.1, 
			 "cosmo_cavitation_energy": 30.66, 
			 "cosmo_dispersion_energy": -22.83, 
			 "cosmo_repulsion_energy": 1.76, 
			 "cosmo_total_nonelectrostatic_energy": 9.6, 
			 "SMD_solvation_energy": 4.97 
		},
		"coords": [
			{
				"x": 3.0515200805,
				"y": -1.3061436567,
				"z": 2.05041778,
				"element": "O" 
			},
			{
				"x": 2.728098026,
				"y": -0.0684088947,
				"z": 1.616449187,
				"element": "C" 
			},
			{
				"x": 3.3350617274,
				"y": 0.5018679977,
				"z": 0.7366411343,
				"element": "O" 
			},
			{
				"x": 1.5581822194,
				"y": 0.5035416796,
				"z": 2.3922913913,
				"element": "C" 
			},
			{
				"x": 0.9921525997,
				"y": 1.7597653813,
				"z": 1.7278028509,
				"element": "C" 
			},
			{
				"x": 0.2317146283,
				"y": 1.4350110502,
				"z": 0.4867440804,
				"element": "C" 
			},
			{
				"x": -0.1838221118,
				"y": 0.2827448618,
				"z": 0.0671029642,
				"element": "N" 
			},
			{
				"x": -0.8605770509,
				"y": 0.5126632029,
				"z": -1.1312214813,
				"element": "N" 
			},
			{
				"x": -0.8024918344,
				"y": 1.7937282998,
				"z": -1.3442137446,
				"element": "C" 
			},
			{
				"x": -0.1216277833,
				"y": 2.4503192237,
				"z": -0.353468509,
				"element": "O" 
			},
			{
				"x": -1.3459974959,
				"y": 2.5622196232,
				"z": -2.448869444,
				"element": "C" 
			},
			{
				"x": -2.0501992718,
				"y": 1.9898823675,
				"z": -3.4835073148,
				"element": "C" 
			},
			{
				"x": -2.5576205708,
				"y": 3.1699119738,
				"z": -4.6322709802,
				"element": "S" 
			},
			{
				"x": -1.8204622163,
				"y": 4.4522977392,
				"z": -3.7223074469,
				"element": "C" 
			},
			{
				"x": -1.2161436303,
				"y": 3.9846290033,
				"z": -2.5920550363,
				"element": "C" 
			},
			{
				"x": 3.8102164255,
				"y": -1.5932586454,
				"z": 1.5148374841,
				"element": "H" 
			},
			{
				"x": 0.7948181756,
				"y": -0.2713791111,
				"z": 2.4979667208,
				"element": "H" 
			},
			{
				"x": 1.9161367709,
				"y": 0.7398083248,
				"z": 3.4013097863,
				"element": "H" 
			},
			{
				"x": 0.3299517416,
				"y": 2.287265707,
				"z": 2.4254154382,
				"element": "H" 
			},
			{
				"x": 1.8055995193,
				"y": 2.4454068233,
				"z": 1.4712322598,
				"element": "H" 
			},
			{
				"x": -2.284195997,
				"y": 0.9429692679,
				"z": -3.6119752959,
				"element": "H" 
			},
			{
				"x": -1.8772888306,
				"y": 5.4714479623,
				"z": -4.0777006838,
				"element": "H" 
			},
			{
				"x": -0.6941251213,
				"y": 4.6121098185,
				"z": -1.8804211405,
				"element": "H" 
			}
		],
		 "valence_orbital": [ 
			{
				"type": "occ",
				"energy": -0.3014,
				"method": "rhf"
			},
			{
				"type": "occ",
				"energy": -0.28012,
				"method": "rhf"
			},
			{
				"type": "occ",
				"energy": -0.27374,
				"method": "rhf"
			},
			{
				"type": "occ",
				"energy": -0.25727,
				"method": "rhf"
			},
			{
				"type": "occ",
				"energy": -0.23262,
				"method": "rhf"
			},
			{
				"type": "unocc",
				"energy": -0.04364,
				"method": "rhf"
			},
			{
				"type": "unocc",
				"energy": -0.00383,
				"method": "rhf"
			},
			{
				"type": "unocc",
				"energy": 0.00821,
				"method": "rhf"
			},
			{
				"type": "unocc",
				"energy": 0.02153,
				"method": "rhf"
			},
			{
				"type": "unocc",
				"energy": 0.0276,
				"method": "rhf"
			}
		],
		"cosmo_sigma_profile": { 
			"-0.025": 0.0,
			"-0.024": 0.0,
			"-0.023": 0.0,
			"-0.022": 0.0,
			"-0.021": 0.0,
			"-0.02": 0.0,
			"-0.019": 0.0,
			"-0.018": 0.81706740571,
			"-0.017": 1.03877601948,
			"-0.016": 0.580257325179,
			"-0.015": 0.947005027538,
			"-0.014": 0.930425472872,
			"-0.013": 0.720601994875,
			"-0.012": 0.698251402996,
			"-0.011": 0.618340563791,
			"-0.01": 0.98318905136,
			"-0.009": 3.64431809238,
			"-0.008": 6.28193856204,
			"-0.007": 12.2925546781,
			"-0.006": 14.4272270056,
			"-0.005": 16.0814765937,
			"-0.004": 15.8985324809,
			"-0.003": 13.6885243666,
			"-0.002": 15.724319864,
			"-0.001": 12.8862054578,
			"0.0": 13.8815597958,
			"0.001": 17.6334879809,
			"0.002": 22.2790126111,
			"0.003": 19.4111785994,
			"0.004": 9.82776195303,
			"0.005": 5.71528554028,
			"0.006": 3.71506411541,
			"0.007": 5.1425519385,
			"0.008": 4.96901787733,
			"0.009": 5.15249847061,
			"0.01": 4.35083147187,
			"0.011": 6.9583041154,
			"0.012": 5.83501158403,
			"0.013": 2.45272499828,
			"0.014": 1.60995681379,
			"0.015": 0.551003641491,
			"0.016": 0.0,
			"0.017": 0.0,
			"0.018": 0.0,
			"0.019": 0.0,
			"0.02": 0.0,
			"0.021": 0.0,
			"0.022": 0.0,
			"0.023": 0.0,
			"0.024": 0.0,
			"0.025": 0.0
		}
	}
}
