{
	 "smiles": "O=C(NCSCC1=CC=CC=C1)C1=CC=CC=C1", 
	 "Tm": 352.65, 
	 "num_atms": 33, 
	 "gaussian": { 
		 "optdone": 1, 
		 "sigma_profile": "yes", 
		 "theory": "DFT", 
		 "functional": "B3LYP", 
		 "basiset": "6-31G**", 
		 "properties": { 
			 "R2extent": 8545.5665, 
			 "electric_dipole_moment_norm": 2.79297302708, 
			 "electric_quadrupole_moment_norm": 14.106526894, 
			 "total_energy": -1108.82053135, 
			 "HOMO_LUMO_gap": 0.18356, 
			 "cosmo_polarized_energy": -15.2, 
			 "cosmo_cavitation_energy": 39.08, 
			 "cosmo_dispersion_energy": -27.59, 
			 "cosmo_repulsion_energy": 2.1, 
			 "cosmo_total_nonelectrostatic_energy": 13.58, 
			 "SMD_solvation_energy": 5.92 
		},
		"coords": [
			{
				"x": -0.292373609,
				"y": 0.4564640992,
				"z": -3.1275389456,
				"element": "O" 
			},
			{
				"x": -1.46972713,
				"y": 0.1665783768,
				"z": -2.9294599815,
				"element": "C" 
			},
			{
				"x": -2.3005594099,
				"y": 0.9609689801,
				"z": -2.177547655,
				"element": "N" 
			},
			{
				"x": -1.8223293004,
				"y": 2.1292991353,
				"z": -1.4799974699,
				"element": "C" 
			},
			{
				"x": -1.75584329,
				"y": 1.968458238,
				"z": 0.354690258,
				"element": "S" 
			},
			{
				"x": -0.375858584,
				"y": 0.7431913595,
				"z": 0.5227893745,
				"element": "C" 
			},
			{
				"x": -0.1001841999,
				"y": 0.4800646841,
				"z": 1.9812206145,
				"element": "C" 
			},
			{
				"x": -0.7279136712,
				"y": -0.5807437464,
				"z": 2.6475253215,
				"element": "C" 
			},
			{
				"x": -0.4780329763,
				"y": -0.8212127001,
				"z": 3.9989471326,
				"element": "C" 
			},
			{
				"x": 0.4030850154,
				"y": 0.0000642403,
				"z": 4.7046839141,
				"element": "C" 
			},
			{
				"x": 1.0315943873,
				"y": 1.0623622885,
				"z": 4.0514499153,
				"element": "C" 
			},
			{
				"x": 0.7795183722,
				"y": 1.3007213467,
				"z": 2.7005542912,
				"element": "C" 
			},
			{
				"x": -2.0890471349,
				"y": -1.0680934348,
				"z": -3.5231790343,
				"element": "C" 
			},
			{
				"x": -3.2362018032,
				"y": -1.6891583172,
				"z": -3.0084573303,
				"element": "C" 
			},
			{
				"x": -3.7445791571,
				"y": -2.8404788699,
				"z": -3.610389005,
				"element": "C" 
			},
			{
				"x": -3.1130046743,
				"y": -3.3806071057,
				"z": -4.7321088305,
				"element": "C" 
			},
			{
				"x": -1.9621814393,
				"y": -2.7740307745,
				"z": -5.242228732,
				"element": "C" 
			},
			{
				"x": -1.4491493354,
				"y": -1.6296760429,
				"z": -4.636523284,
				"element": "C" 
			},
			{
				"x": -3.2671280469,
				"y": 0.7000036709,
				"z": -2.0593945905,
				"element": "H" 
			},
			{
				"x": -2.4811253847,
				"y": 2.9833638497,
				"z": -1.6611811306,
				"element": "H" 
			},
			{
				"x": -0.8289518434,
				"y": 2.3523006619,
				"z": -1.8710665907,
				"element": "H" 
			},
			{
				"x": -0.6677378899,
				"y": -0.1755578289,
				"z": 0.0084417633,
				"element": "H" 
			},
			{
				"x": 0.5036704614,
				"y": 1.1531059936,
				"z": 0.0192004748,
				"element": "H" 
			},
			{
				"x": -1.4139359883,
				"y": -1.2228232666,
				"z": 2.1007641399,
				"element": "H" 
			},
			{
				"x": -0.9691721537,
				"y": -1.6509018983,
				"z": 4.499542196,
				"element": "H" 
			},
			{
				"x": 0.6006536642,
				"y": -0.1876488748,
				"z": 5.7561822516,
				"element": "H" 
			},
			{
				"x": 1.7201278836,
				"y": 1.7044624029,
				"z": 4.593443523,
				"element": "H" 
			},
			{
				"x": 1.2690610788,
				"y": 2.1293348537,
				"z": 2.195270688,
				"element": "H" 
			},
			{
				"x": -3.7223830369,
				"y": -1.3062394292,
				"z": -2.1150526575,
				"element": "H" 
			},
			{
				"x": -4.628191407,
				"y": -3.3190588412,
				"z": -3.1984535872,
				"element": "H" 
			},
			{
				"x": -3.5115612922,
				"y": -4.2753566347,
				"z": -5.2015987604,
				"element": "H" 
			},
			{
				"x": -1.4637853648,
				"y": -3.1960694039,
				"z": -6.1100413682,
				"element": "H" 
			},
			{
				"x": -0.5491527402,
				"y": -1.1498870122,
				"z": -5.005586905,
				"element": "H" 
			}
		],
		 "valence_orbital": [ 
			{
				"type": "occ",
				"energy": -0.25818,
				"method": "rhf"
			},
			{
				"type": "occ",
				"energy": -0.25273,
				"method": "rhf"
			},
			{
				"type": "occ",
				"energy": -0.24939,
				"method": "rhf"
			},
			{
				"type": "occ",
				"energy": -0.24104,
				"method": "rhf"
			},
			{
				"type": "occ",
				"energy": -0.22376,
				"method": "rhf"
			},
			{
				"type": "unocc",
				"energy": -0.0402,
				"method": "rhf"
			},
			{
				"type": "unocc",
				"energy": -0.01255,
				"method": "rhf"
			},
			{
				"type": "unocc",
				"energy": -0.00828,
				"method": "rhf"
			},
			{
				"type": "unocc",
				"energy": 0.00045,
				"method": "rhf"
			},
			{
				"type": "unocc",
				"energy": 0.03591,
				"method": "rhf"
			}
		],
		"cosmo_sigma_profile": { 
			"-0.025": 0.0,
			"-0.024": 0.0,
			"-0.023": 0.0,
			"-0.022": 0.0,
			"-0.021": 0.0,
			"-0.02": 0.0,
			"-0.019": 0.0,
			"-0.018": 0.0,
			"-0.017": 0.0,
			"-0.016": 0.0,
			"-0.015": 0.563332900936,
			"-0.014": 0.880819099131,
			"-0.013": 1.25195960287,
			"-0.012": 1.01565839316,
			"-0.011": 1.15519321608,
			"-0.01": 1.05274771032,
			"-0.009": 1.66323627386,
			"-0.008": 2.80169512558,
			"-0.007": 5.6767680793,
			"-0.006": 15.930468058,
			"-0.005": 31.0748711716,
			"-0.004": 28.9915615408,
			"-0.003": 24.6295488855,
			"-0.002": 18.5393733993,
			"-0.001": 18.9896441763,
			"0.0": 17.1153157157,
			"0.001": 18.7070206439,
			"0.002": 19.1691129536,
			"0.003": 21.0971871805,
			"0.004": 27.7360006645,
			"0.005": 19.3302633784,
			"0.006": 12.5867004615,
			"0.007": 3.47871369527,
			"0.008": 3.98149560253,
			"0.009": 3.41587250291,
			"0.01": 3.20512159291,
			"0.011": 1.60552204137,
			"0.012": 1.88763308302,
			"0.013": 3.67220035561,
			"0.014": 2.33750032229,
			"0.015": 0.0403947740075,
			"0.016": 0.0,
			"0.017": 0.0,
			"0.018": 0.0,
			"0.019": 0.0,
			"0.02": 0.0,
			"0.021": 0.0,
			"0.022": 0.0,
			"0.023": 0.0,
			"0.024": 0.0,
			"0.025": 0.0
		}
	}
}
