{
	 "smiles": "CC1=CC=C(C=C1)C(=O)C=CC1=CC=C(F)C=C1", 
	 "Tm": 393.15, 
	 "num_atms": 31, 
	 "gaussian": { 
		 "optdone": 1, 
		 "sigma_profile": "yes", 
		 "theory": "DFT", 
		 "functional": "B3LYP", 
		 "basiset": "6-31G**", 
		 "properties": { 
			 "R2extent": 5833.3566, 
			 "electric_dipole_moment_norm": 3.07870053919, 
			 "electric_quadrupole_moment_norm": 18.6887583255, 
			 "total_energy": -792.583199523, 
			 "HOMO_LUMO_gap": 0.16483, 
			 "cosmo_polarized_energy": -10.17, 
			 "cosmo_cavitation_energy": 35.9, 
			 "cosmo_dispersion_energy": -24.4, 
			 "cosmo_repulsion_energy": 1.88, 
			 "cosmo_total_nonelectrostatic_energy": 13.38, 
			 "SMD_solvation_energy": 7.1 
		},
		"coords": [
			{
				"x": 0.5710190604,
				"y": 3.3860665379,
				"z": -2.009706615,
				"element": "C" 
			},
			{
				"x": 0.7962633241,
				"y": 2.2011110508,
				"z": -1.102555367,
				"element": "C" 
			},
			{
				"x": 1.1236291008,
				"y": 0.9426362948,
				"z": -1.6357046105,
				"element": "C" 
			},
			{
				"x": 1.3116203707,
				"y": -0.1569008143,
				"z": -0.8089480997,
				"element": "C" 
			},
			{
				"x": 1.1691846907,
				"y": -0.0355119847,
				"z": 0.5835858687,
				"element": "C" 
			},
			{
				"x": 0.8508512398,
				"y": 1.2183372876,
				"z": 1.1228755839,
				"element": "C" 
			},
			{
				"x": 0.6699199703,
				"y": 2.3191289656,
				"z": 0.2875116118,
				"element": "C" 
			},
			{
				"x": 1.4172658911,
				"y": -1.2443928114,
				"z": 1.4265547604,
				"element": "C" 
			},
			{
				"x": 1.8835969638,
				"y": -2.2693465556,
				"z": 0.9388904904,
				"element": "O" 
			},
			{
				"x": 1.1801902384,
				"y": -1.2036652004,
				"z": 2.9084416101,
				"element": "C" 
			},
			{
				"x": 0.0340249384,
				"y": -0.9992893726,
				"z": 3.5834793729,
				"element": "C" 
			},
			{
				"x": -1.3230320666,
				"y": -0.7636378819,
				"z": 3.0656485377,
				"element": "C" 
			},
			{
				"x": -2.2401351045,
				"y": -0.0516277876,
				"z": 3.8610647553,
				"element": "C" 
			},
			{
				"x": -3.5368117208,
				"y": 0.2041755162,
				"z": 3.4235129254,
				"element": "C" 
			},
			{
				"x": -3.9248724819,
				"y": -0.27906526,
				"z": 2.1785830165,
				"element": "C" 
			},
			{
				"x": -5.1806010067,
				"y": -0.0439189309,
				"z": 1.7475003674,
				"element": "F" 
			},
			{
				"x": -3.060292331,
				"y": -1.0133288143,
				"z": 1.3734693507,
				"element": "C" 
			},
			{
				"x": -1.7652702446,
				"y": -1.2556322365,
				"z": 1.8230798585,
				"element": "C" 
			},
			{
				"x": 1.3083660452,
				"y": 3.416119024,
				"z": -2.8183667387,
				"element": "H" 
			},
			{
				"x": -0.4195854793,
				"y": 3.3382261669,
				"z": -2.4790238853,
				"element": "H" 
			},
			{
				"x": 0.6287754937,
				"y": 4.3296147684,
				"z": -1.4601377057,
				"element": "H" 
			},
			{
				"x": 1.2352983024,
				"y": 0.8323428634,
				"z": -2.7117124171,
				"element": "H" 
			},
			{
				"x": 1.5759554207,
				"y": -1.1275265111,
				"z": -1.2156971996,
				"element": "H" 
			},
			{
				"x": 0.7551690698,
				"y": 1.3336889888,
				"z": 2.19702326,
				"element": "H" 
			},
			{
				"x": 0.4292409851,
				"y": 3.286476312,
				"z": 0.7209716912,
				"element": "H" 
			},
			{
				"x": 2.0658367752,
				"y": -1.471410166,
				"z": 3.4817517733,
				"element": "H" 
			},
			{
				"x": 0.0998345276,
				"y": -1.030300057,
				"z": 4.6711072503,
				"element": "H" 
			},
			{
				"x": -1.9260992624,
				"y": 0.3159717433,
				"z": 4.8343832225,
				"element": "H" 
			},
			{
				"x": -4.2446783763,
				"y": 0.7601212191,
				"z": 4.0285831831,
				"element": "H" 
			},
			{
				"x": -3.4101474873,
				"y": -1.3947842324,
				"z": 0.4204107153,
				"element": "H" 
			},
			{
				"x": -1.1010168468,
				"y": -1.8589781221,
				"z": 1.2145234332,
				"element": "H" 
			}
		],
		 "valence_orbital": [ 
			{
				"type": "occ",
				"energy": -0.26688,
				"method": "rhf"
			},
			{
				"type": "occ",
				"energy": -0.25663,
				"method": "rhf"
			},
			{
				"type": "occ",
				"energy": -0.25301,
				"method": "rhf"
			},
			{
				"type": "occ",
				"energy": -0.24513,
				"method": "rhf"
			},
			{
				"type": "occ",
				"energy": -0.22756,
				"method": "rhf"
			},
			{
				"type": "unocc",
				"energy": -0.06273,
				"method": "rhf"
			},
			{
				"type": "unocc",
				"energy": -0.03318,
				"method": "rhf"
			},
			{
				"type": "unocc",
				"energy": -0.01549,
				"method": "rhf"
			},
			{
				"type": "unocc",
				"energy": -0.00474,
				"method": "rhf"
			},
			{
				"type": "unocc",
				"energy": 0.03166,
				"method": "rhf"
			}
		],
		"cosmo_sigma_profile": { 
			"-0.025": 0.0,
			"-0.024": 0.0,
			"-0.023": 0.0,
			"-0.022": 0.0,
			"-0.021": 0.0,
			"-0.02": 0.0,
			"-0.019": 0.0,
			"-0.018": 0.0,
			"-0.017": 0.0,
			"-0.016": 0.0,
			"-0.015": 0.0,
			"-0.014": 0.0,
			"-0.013": 0.0,
			"-0.012": 0.0,
			"-0.011": 0.0,
			"-0.01": 0.0,
			"-0.009": 0.0,
			"-0.008": 0.523113626233,
			"-0.007": 7.7099732511,
			"-0.006": 14.6197954522,
			"-0.005": 22.2441207159,
			"-0.004": 24.7425656816,
			"-0.003": 20.9094462883,
			"-0.002": 21.2678244776,
			"-0.001": 23.4657880154,
			"0.0": 26.5189138826,
			"0.001": 22.4335462478,
			"0.002": 21.5759020624,
			"0.003": 25.6681229072,
			"0.004": 28.5229669933,
			"0.005": 9.61327777338,
			"0.006": 1.41234901728,
			"0.007": 1.90507315442,
			"0.008": 1.17678140473,
			"0.009": 1.85729158795,
			"0.01": 1.74511837784,
			"0.011": 2.78853815661,
			"0.012": 4.31560723568,
			"0.013": 2.03667861666,
			"0.014": 0.307273167767,
			"0.015": 0.0,
			"0.016": 0.0,
			"0.017": 0.0,
			"0.018": 0.0,
			"0.019": 0.0,
			"0.02": 0.0,
			"0.021": 0.0,
			"0.022": 0.0,
			"0.023": 0.0,
			"0.024": 0.0,
			"0.025": 0.0
		}
	}
}
