{
	 "smiles": "CCCCCCC(=O)CCCCC", 
	 "Tm": 283.15, 
	 "num_atms": 37, 
	 "gaussian": { 
		 "optdone": 1, 
		 "sigma_profile": "yes", 
		 "theory": "DFT", 
		 "functional": "B3LYP", 
		 "basiset": "6-31G**", 
		 "properties": { 
			 "R2extent": 4589.5259, 
			 "electric_dipole_moment_norm": 2.46742732416, 
			 "electric_quadrupole_moment_norm": 3.7316889849, 
			 "total_energy": -546.99642924, 
			 "HOMO_LUMO_gap": 0.22685, 
			 "cosmo_polarized_energy": -6.19, 
			 "cosmo_cavitation_energy": 36.54, 
			 "cosmo_dispersion_energy": -24.98, 
			 "cosmo_repulsion_energy": 2.05, 
			 "cosmo_total_nonelectrostatic_energy": 13.61, 
			 "SMD_solvation_energy": 5.6 
		},
		"coords": [
			{
				"x": 3.0629180888,
				"y": 2.6829944581,
				"z": -1.7002793788,
				"element": "C" 
			},
			{
				"x": 2.437975359,
				"y": 3.2022010714,
				"z": -0.3995061147,
				"element": "C" 
			},
			{
				"x": 1.352429875,
				"y": 2.2876166475,
				"z": 0.1923390477,
				"element": "C" 
			},
			{
				"x": 0.1038833727,
				"y": 2.1414652383,
				"z": -0.6905266031,
				"element": "C" 
			},
			{
				"x": -1.0683444857,
				"y": 1.4082124053,
				"z": -0.0162785108,
				"element": "C" 
			},
			{
				"x": -0.7563314215,
				"y": -0.0348437401,
				"z": 0.4513869806,
				"element": "C" 
			},
			{
				"x": -0.2529683104,
				"y": -0.928659128,
				"z": -0.6752261032,
				"element": "C" 
			},
			{
				"x": 0.9303420571,
				"y": -1.2112105276,
				"z": -0.7665377455,
				"element": "O" 
			},
			{
				"x": -1.2737016912,
				"y": -1.3830670172,
				"z": -1.7171801541,
				"element": "C" 
			},
			{
				"x": -0.8328680246,
				"y": -2.5600313216,
				"z": -2.6017198487,
				"element": "C" 
			},
			{
				"x": -1.1852707432,
				"y": -3.9496949565,
				"z": -2.038734563,
				"element": "C" 
			},
			{
				"x": -0.4874717347,
				"y": -4.3649401332,
				"z": -0.7321287542,
				"element": "C" 
			},
			{
				"x": 1.0263494473,
				"y": -4.5675837596,
				"z": -0.8603638096,
				"element": "C" 
			},
			{
				"x": 2.3303663863,
				"y": 2.6277476286,
				"z": -2.512189325,
				"element": "H" 
			},
			{
				"x": 3.8735383113,
				"y": 3.338341306,
				"z": -2.0359601485,
				"element": "H" 
			},
			{
				"x": 3.4792187257,
				"y": 1.6785534084,
				"z": -1.5633422436,
				"element": "H" 
			},
			{
				"x": 3.2303360581,
				"y": 3.3309945163,
				"z": 0.3489011145,
				"element": "H" 
			},
			{
				"x": 2.0163771398,
				"y": 4.2029172145,
				"z": -0.5693889126,
				"element": "H" 
			},
			{
				"x": 1.0501160983,
				"y": 2.6864863859,
				"z": 1.171227206,
				"element": "H" 
			},
			{
				"x": 1.7839151317,
				"y": 1.2961803084,
				"z": 0.3775908515,
				"element": "H" 
			},
			{
				"x": 0.3715313238,
				"y": 1.6243961465,
				"z": -1.6206453001,
				"element": "H" 
			},
			{
				"x": -0.2462976061,
				"y": 3.1394875293,
				"z": -0.9884486495,
				"element": "H" 
			},
			{
				"x": -1.9249492678,
				"y": 1.3897150087,
				"z": -0.7018800173,
				"element": "H" 
			},
			{
				"x": -1.3959354021,
				"y": 1.9781707903,
				"z": 0.8625303412,
				"element": "H" 
			},
			{
				"x": 0.0140307463,
				"y": -0.0238453167,
				"z": 1.2267056386,
				"element": "H" 
			},
			{
				"x": -1.6670107242,
				"y": -0.468475714,
				"z": 0.8829377038,
				"element": "H" 
			},
			{
				"x": -1.460588814,
				"y": -0.4965686436,
				"z": -2.3421891906,
				"element": "H" 
			},
			{
				"x": -2.2321786718,
				"y": -1.5896371475,
				"z": -1.2230452508,
				"element": "H" 
			},
			{
				"x": -1.3181052114,
				"y": -2.4611774596,
				"z": -3.5797478267,
				"element": "H" 
			},
			{
				"x": 0.2444734223,
				"y": -2.4750548697,
				"z": -2.7766547491,
				"element": "H" 
			},
			{
				"x": -0.9562633073,
				"y": -4.6999522617,
				"z": -2.8080397402,
				"element": "H" 
			},
			{
				"x": -2.273542152,
				"y": -3.9958013418,
				"z": -1.8895065607,
				"element": "H" 
			},
			{
				"x": -0.6912102807,
				"y": -3.6248432217,
				"z": 0.053663502,
				"element": "H" 
			},
			{
				"x": -0.9486921849,
				"y": -5.2986727245,
				"z": -0.3843373309,
				"element": "H" 
			},
			{
				"x": 1.4514242671,
				"y": -4.9389399314,
				"z": 0.0782652745,
				"element": "H" 
			},
			{
				"x": 1.2584499166,
				"y": -5.3012701351,
				"z": -1.641822797,
				"element": "H" 
			},
			{
				"x": 1.5334543063,
				"y": -3.6309107123,
				"z": -1.1051680321,
				"element": "H" 
			}
		],
		 "valence_orbital": [ 
			{
				"type": "occ",
				"energy": -0.31342,
				"method": "rhf"
			},
			{
				"type": "occ",
				"energy": -0.31228,
				"method": "rhf"
			},
			{
				"type": "occ",
				"energy": -0.30972,
				"method": "rhf"
			},
			{
				"type": "occ",
				"energy": -0.30654,
				"method": "rhf"
			},
			{
				"type": "occ",
				"energy": -0.24098,
				"method": "rhf"
			},
			{
				"type": "unocc",
				"energy": -0.01413,
				"method": "rhf"
			},
			{
				"type": "unocc",
				"energy": 0.07002,
				"method": "rhf"
			},
			{
				"type": "unocc",
				"energy": 0.09733,
				"method": "rhf"
			},
			{
				"type": "unocc",
				"energy": 0.10553,
				"method": "rhf"
			},
			{
				"type": "unocc",
				"energy": 0.11274,
				"method": "rhf"
			}
		],
		"cosmo_sigma_profile": { 
			"-0.025": 0.0,
			"-0.024": 0.0,
			"-0.023": 0.0,
			"-0.022": 0.0,
			"-0.021": 0.0,
			"-0.02": 0.0,
			"-0.019": 0.0,
			"-0.018": 0.0,
			"-0.017": 0.0,
			"-0.016": 0.0,
			"-0.015": 0.0,
			"-0.014": 0.0,
			"-0.013": 0.0,
			"-0.012": 0.0,
			"-0.011": 0.0,
			"-0.01": 0.0,
			"-0.009": 0.0,
			"-0.008": 0.0,
			"-0.007": 0.0,
			"-0.006": 0.135013084175,
			"-0.005": 7.12045723551,
			"-0.004": 11.2331680162,
			"-0.003": 19.1630645353,
			"-0.002": 43.5993216918,
			"-0.001": 51.0561352417,
			"0.0": 52.9959748775,
			"0.001": 46.1910537518,
			"0.002": 22.0934915042,
			"0.003": 4.4439731978,
			"0.004": 3.25958341405,
			"0.005": 2.75868461184,
			"0.006": 3.3686972701,
			"0.007": 2.25499290428,
			"0.008": 2.04176507422,
			"0.009": 1.39081357472,
			"0.01": 2.06012066941,
			"0.011": 1.87773501637,
			"0.012": 2.13424875833,
			"0.013": 1.15838602886,
			"0.014": 0.0210127818451,
			"0.015": 0.0,
			"0.016": 0.0,
			"0.017": 0.0,
			"0.018": 0.0,
			"0.019": 0.0,
			"0.02": 0.0,
			"0.021": 0.0,
			"0.022": 0.0,
			"0.023": 0.0,
			"0.024": 0.0,
			"0.025": 0.0
		}
	}
}
