{
	 "smiles": "COC1=C(NS(=O)(=O)C2=CC3=C(OC(N)=N3)C=C2)C=CC=C1", 
	 "Tm": 484.15, 
	 "num_atms": 35, 
	 "gaussian": { 
		 "optdone": 1, 
		 "sigma_profile": "yes", 
		 "theory": "DFT", 
		 "functional": "B3LYP", 
		 "basiset": "6-31G**", 
		 "properties": { 
			 "R2extent": 8452.5809, 
			 "electric_dipole_moment_norm": 6.35526048719, 
			 "electric_quadrupole_moment_norm": 34.0096543339, 
			 "total_energy": -1404.5786696, 
			 "HOMO_LUMO_gap": 0.18798, 
			 "cosmo_polarized_energy": -27.73, 
			 "cosmo_cavitation_energy": 41.29, 
			 "cosmo_dispersion_energy": -29.14, 
			 "cosmo_repulsion_energy": 2.19, 
			 "cosmo_total_nonelectrostatic_energy": 14.35, 
			 "SMD_solvation_energy": 5.31 
		},
		"coords": [
			{
				"x": -4.0974109193,
				"y": -2.3229062076,
				"z": -1.8347977255,
				"element": "C" 
			},
			{
				"x": -2.7689326311,
				"y": -2.3900431801,
				"z": -1.3425421449,
				"element": "O" 
			},
			{
				"x": -1.9060306449,
				"y": -1.3997904388,
				"z": -1.6648973159,
				"element": "C" 
			},
			{
				"x": -0.6313251775,
				"y": -1.4454956926,
				"z": -1.0497026388,
				"element": "C" 
			},
			{
				"x": -0.3380761257,
				"y": -2.5095460854,
				"z": -0.1440606444,
				"element": "N" 
			},
			{
				"x": -0.7470695632,
				"y": -2.3976895305,
				"z": 1.5033238254,
				"element": "S" 
			},
			{
				"x": -0.3449997004,
				"y": -3.6879720626,
				"z": 2.0668154698,
				"element": "O" 
			},
			{
				"x": -2.1147063293,
				"y": -1.8906993691,
				"z": 1.5747909718,
				"element": "O" 
			},
			{
				"x": 0.328784384,
				"y": -1.1421955964,
				"z": 2.2145372292,
				"element": "C" 
			},
			{
				"x": -0.082454556,
				"y": 0.1954155238,
				"z": 2.169578554,
				"element": "C" 
			},
			{
				"x": 0.7946257337,
				"y": 1.1370005631,
				"z": 2.7044922911,
				"element": "C" 
			},
			{
				"x": 2.0166706971,
				"y": 0.7112976581,
				"z": 3.2520490736,
				"element": "C" 
			},
			{
				"x": 2.6729022279,
				"y": 1.8350318288,
				"z": 3.7115213963,
				"element": "O" 
			},
			{
				"x": 1.8026366119,
				"y": 2.8575238227,
				"z": 3.4121204032,
				"element": "C" 
			},
			{
				"x": 2.2424888025,
				"y": 4.1064093248,
				"z": 3.7204735247,
				"element": "N" 
			},
			{
				"x": 0.6910263945,
				"y": 2.5231489446,
				"z": 2.8302949799,
				"element": "N" 
			},
			{
				"x": 2.4325095474,
				"y": -0.6062481689,
				"z": 3.3113073713,
				"element": "C" 
			},
			{
				"x": 1.5524528802,
				"y": -1.5495366694,
				"z": 2.7699464083,
				"element": "C" 
			},
			{
				"x": 0.3275621073,
				"y": -0.4852034687,
				"z": -1.3776783304,
				"element": "C" 
			},
			{
				"x": 0.0511061877,
				"y": 0.526072936,
				"z": -2.2996405142,
				"element": "C" 
			},
			{
				"x": -1.2126558233,
				"y": 0.5836708931,
				"z": -2.8819469444,
				"element": "C" 
			},
			{
				"x": -2.1870655382,
				"y": -0.3671666809,
				"z": -2.5692576558,
				"element": "C" 
			},
			{
				"x": -4.1298067653,
				"y": -2.3914027864,
				"z": -2.9302423619,
				"element": "H" 
			},
			{
				"x": -4.6157811203,
				"y": -3.1810533851,
				"z": -1.405784334,
				"element": "H" 
			},
			{
				"x": -4.5982302337,
				"y": -1.4008503141,
				"z": -1.5148341939,
				"element": "H" 
			},
			{
				"x": 0.5872903536,
				"y": -2.9164923668,
				"z": -0.2379547987,
				"element": "H" 
			},
			{
				"x": -1.0444261484,
				"y": 0.4754194833,
				"z": 1.7585815774,
				"element": "H" 
			},
			{
				"x": 2.9373991626,
				"y": 4.178558111,
				"z": 4.4485039584,
				"element": "H" 
			},
			{
				"x": 1.5311454547,
				"y": 4.8218984185,
				"z": 3.7095005602,
				"element": "H" 
			},
			{
				"x": 3.3771202355,
				"y": -0.8941102419,
				"z": 3.7587155461,
				"element": "H" 
			},
			{
				"x": 1.7926606916,
				"y": -2.6060876744,
				"z": 2.8006127674,
				"element": "H" 
			},
			{
				"x": 1.3006818823,
				"y": -0.5379223996,
				"z": -0.8971039289,
				"element": "H" 
			},
			{
				"x": 0.8092978998,
				"y": 1.2622593274,
				"z": -2.5458603562,
				"element": "H" 
			},
			{
				"x": -1.4508821319,
				"y": 1.3705854624,
				"z": -3.5918515369,
				"element": "H" 
			},
			{
				"x": -3.1585078461,
				"y": -0.3108799785,
				"z": -3.0453104836,
				"element": "H" 
			}
		],
		 "valence_orbital": [ 
			{
				"type": "occ",
				"energy": -0.28855,
				"method": "rhf"
			},
			{
				"type": "occ",
				"energy": -0.25428,
				"method": "rhf"
			},
			{
				"type": "occ",
				"energy": -0.24672,
				"method": "rhf"
			},
			{
				"type": "occ",
				"energy": -0.22612,
				"method": "rhf"
			},
			{
				"type": "occ",
				"energy": -0.21554,
				"method": "rhf"
			},
			{
				"type": "unocc",
				"energy": -0.02756,
				"method": "rhf"
			},
			{
				"type": "unocc",
				"energy": -0.02075,
				"method": "rhf"
			},
			{
				"type": "unocc",
				"energy": -0.00699,
				"method": "rhf"
			},
			{
				"type": "unocc",
				"energy": 0.00952,
				"method": "rhf"
			},
			{
				"type": "unocc",
				"energy": 0.04112,
				"method": "rhf"
			}
		],
		"cosmo_sigma_profile": { 
			"-0.025": 0.0,
			"-0.024": 0.0,
			"-0.023": 0.0,
			"-0.022": 0.0,
			"-0.021": 0.0,
			"-0.02": 0.0,
			"-0.019": 0.0,
			"-0.018": 0.0,
			"-0.017": 0.0,
			"-0.016": 0.362141645347,
			"-0.015": 3.65797294889,
			"-0.014": 3.48342585982,
			"-0.013": 3.19535026984,
			"-0.012": 3.55461660578,
			"-0.011": 4.12581737206,
			"-0.01": 2.983022442,
			"-0.009": 3.19967610057,
			"-0.008": 4.83991476136,
			"-0.007": 8.12255872408,
			"-0.006": 19.8933913557,
			"-0.005": 21.9970446503,
			"-0.004": 24.0366222508,
			"-0.003": 21.1289760993,
			"-0.002": 16.6756236017,
			"-0.001": 17.2872854466,
			"0.0": 18.0866623166,
			"0.001": 20.7281042437,
			"0.002": 24.1345261526,
			"0.003": 18.9277533325,
			"0.004": 15.1498283314,
			"0.005": 14.8171652323,
			"0.006": 8.3974960808,
			"0.007": 5.9476837134,
			"0.008": 7.16360555527,
			"0.009": 6.37134956595,
			"0.01": 9.29257845547,
			"0.011": 10.7524752735,
			"0.012": 6.94469752885,
			"0.013": 2.47736694529,
			"0.014": 1.18282915431,
			"0.015": 0.831080022547,
			"0.016": 0.52806187333,
			"0.017": 0.0,
			"0.018": 0.0,
			"0.019": 0.0,
			"0.02": 0.0,
			"0.021": 0.0,
			"0.022": 0.0,
			"0.023": 0.0,
			"0.024": 0.0,
			"0.025": 0.0
		}
	}
}
