{
	 "smiles": "CC1=CC=C(C=C1)C1=NC(=CS1)C(O)=O", 
	 "Tm": 443.15, 
	 "num_atms": 24, 
	 "gaussian": { 
		 "optdone": 1, 
		 "sigma_profile": "yes", 
		 "theory": "DFT", 
		 "functional": "B3LYP", 
		 "basiset": "6-31G**", 
		 "properties": { 
			 "R2extent": 5799.7348, 
			 "electric_dipole_moment_norm": 6.62672441633, 
			 "electric_quadrupole_moment_norm": 34.8505565232, 
			 "total_energy": -1028.0025109, 
			 "HOMO_LUMO_gap": 0.16439, 
			 "cosmo_polarized_energy": -12.21, 
			 "cosmo_cavitation_energy": 30.56, 
			 "cosmo_dispersion_energy": -22.96, 
			 "cosmo_repulsion_energy": 1.73, 
			 "cosmo_total_nonelectrostatic_energy": 9.33, 
			 "SMD_solvation_energy": 5.66 
		},
		"coords": [
			{
				"x": 3.5190001456,
				"y": 1.6578651939,
				"z": -0.9413287215,
				"element": "C" 
			},
			{
				"x": 2.1490887812,
				"y": 1.2276066595,
				"z": -0.4774359869,
				"element": "C" 
			},
			{
				"x": 0.9919639897,
				"y": 1.8499438156,
				"z": -0.970793009,
				"element": "C" 
			},
			{
				"x": -0.2744986208,
				"y": 1.4423370489,
				"z": -0.5701912945,
				"element": "C" 
			},
			{
				"x": -0.4276212298,
				"y": 0.3889711007,
				"z": 0.3488687056,
				"element": "C" 
			},
			{
				"x": 0.7260411245,
				"y": -0.2347465335,
				"z": 0.8485489018,
				"element": "C" 
			},
			{
				"x": 1.990040896,
				"y": 0.1810600987,
				"z": 0.4407859369,
				"element": "C" 
			},
			{
				"x": -1.7748467707,
				"y": -0.0204106216,
				"z": 0.7577392181,
				"element": "C" 
			},
			{
				"x": -2.8833882242,
				"y": 0.5281384366,
				"z": 0.3297373329,
				"element": "N" 
			},
			{
				"x": -3.9975347934,
				"y": -0.0597129827,
				"z": 0.8815164104,
				"element": "C" 
			},
			{
				"x": -3.762265777,
				"y": -1.0842890103,
				"z": 1.7550511584,
				"element": "C" 
			},
			{
				"x": -2.064063094,
				"y": -1.3397849716,
				"z": 1.9062974072,
				"element": "S" 
			},
			{
				"x": -5.3509036893,
				"y": 0.4428717437,
				"z": 0.5033759009,
				"element": "C" 
			},
			{
				"x": -5.3226165293,
				"y": 1.4638328274,
				"z": -0.3773219668,
				"element": "O" 
			},
			{
				"x": -6.3811771149,
				"y": -0.0155919807,
				"z": 0.9400689132,
				"element": "O" 
			},
			{
				"x": 3.5682045531,
				"y": 2.7406073377,
				"z": -1.0923988448,
				"element": "H" 
			},
			{
				"x": 3.7762866608,
				"y": 1.1858348391,
				"z": -1.8978895689,
				"element": "H" 
			},
			{
				"x": 4.2926974904,
				"y": 1.3786674792,
				"z": -0.2206431587,
				"element": "H" 
			},
			{
				"x": 1.0871505842,
				"y": 2.668695267,
				"z": -1.6795123974,
				"element": "H" 
			},
			{
				"x": -1.1595831523,
				"y": 1.9334766717,
				"z": -0.9584888581,
				"element": "H" 
			},
			{
				"x": 0.6437974441,
				"y": -1.0484798015,
				"z": 1.56410652,
				"element": "H" 
			},
			{
				"x": 2.868866736,
				"y": -0.3149394973,
				"z": 0.8440486292,
				"element": "H" 
			},
			{
				"x": -4.4928042413,
				"y": -1.6718491551,
				"z": 2.2911699725,
				"element": "H" 
			},
			{
				"x": -4.3862351689,
				"y": 1.6512960348,
				"z": -0.5766112008,
				"element": "H" 
			}
		],
		 "valence_orbital": [ 
			{
				"type": "occ",
				"energy": -0.30537,
				"method": "rhf"
			},
			{
				"type": "occ",
				"energy": -0.28937,
				"method": "rhf"
			},
			{
				"type": "occ",
				"energy": -0.26925,
				"method": "rhf"
			},
			{
				"type": "occ",
				"energy": -0.26886,
				"method": "rhf"
			},
			{
				"type": "occ",
				"energy": -0.23591,
				"method": "rhf"
			},
			{
				"type": "unocc",
				"energy": -0.07152,
				"method": "rhf"
			},
			{
				"type": "unocc",
				"energy": -0.03655,
				"method": "rhf"
			},
			{
				"type": "unocc",
				"energy": -0.01799,
				"method": "rhf"
			},
			{
				"type": "unocc",
				"energy": 0.00106,
				"method": "rhf"
			},
			{
				"type": "unocc",
				"energy": 0.02788,
				"method": "rhf"
			}
		],
		"cosmo_sigma_profile": { 
			"-0.025": 0.0,
			"-0.024": 0.0,
			"-0.023": 0.0,
			"-0.022": 0.0,
			"-0.021": 0.0,
			"-0.02": 0.0,
			"-0.019": 0.0,
			"-0.018": 0.0,
			"-0.017": 0.0,
			"-0.016": 0.0,
			"-0.015": 0.0,
			"-0.014": 0.163648108682,
			"-0.013": 0.604098203135,
			"-0.012": 0.636688605371,
			"-0.011": 1.01328800634,
			"-0.01": 2.70533930421,
			"-0.009": 1.89659139402,
			"-0.008": 1.7769503881,
			"-0.007": 4.36110395376,
			"-0.006": 9.20514222962,
			"-0.005": 16.438508829,
			"-0.004": 19.0938287083,
			"-0.003": 17.49300341,
			"-0.002": 20.1715861263,
			"-0.001": 27.2839928993,
			"0.0": 27.694625236,
			"0.001": 19.6587245639,
			"0.002": 15.9196106576,
			"0.003": 13.1271997007,
			"0.004": 14.4261442104,
			"0.005": 6.36952106731,
			"0.006": 2.04818727812,
			"0.007": 2.1778287027,
			"0.008": 3.09184199918,
			"0.009": 3.65854582151,
			"0.01": 5.05369965267,
			"0.011": 4.72723297924,
			"0.012": 5.05733428151,
			"0.013": 1.54003455951,
			"0.014": 0.0644087934252,
			"0.015": 0.0,
			"0.016": 0.0,
			"0.017": 0.0,
			"0.018": 0.0,
			"0.019": 0.0,
			"0.02": 0.0,
			"0.021": 0.0,
			"0.022": 0.0,
			"0.023": 0.0,
			"0.024": 0.0,
			"0.025": 0.0
		}
	}
}
