{
	 "smiles": "CS(=O)(=O)C1=NC(C(O)=O)=C2C=CC=CN12", 
	 "Tm": 533.15, 
	 "num_atms": 24, 
	 "gaussian": { 
		 "optdone": 1, 
		 "sigma_profile": "yes", 
		 "theory": "DFT", 
		 "functional": "B3LYP", 
		 "basiset": "6-31G**", 
		 "properties": { 
			 "R2extent": 4078.7568, 
			 "electric_dipole_moment_norm": 3.95124281461, 
			 "electric_quadrupole_moment_norm": 15.1807693224, 
			 "total_energy": -1156.29880546, 
			 "HOMO_LUMO_gap": 0.16148, 
			 "cosmo_polarized_energy": -21.52, 
			 "cosmo_cavitation_energy": 30.68, 
			 "cosmo_dispersion_energy": -22.64, 
			 "cosmo_repulsion_energy": 1.7, 
			 "cosmo_total_nonelectrostatic_energy": 9.75, 
			 "SMD_solvation_energy": 5.25 
		},
		"coords": [
			{
				"x": -0.189433045,
				"y": 3.3521653808,
				"z": -1.9475510983,
				"element": "C" 
			},
			{
				"x": 0.7334141604,
				"y": 2.8826571588,
				"z": -0.4777798794,
				"element": "S" 
			},
			{
				"x": 2.1698142152,
				"y": 3.1090952266,
				"z": -0.7028726691,
				"element": "O" 
			},
			{
				"x": 0.1004799116,
				"y": 3.4726286876,
				"z": 0.7124019531,
				"element": "O" 
			},
			{
				"x": 0.4587263554,
				"y": 1.116142549,
				"z": -0.4256396483,
				"element": "C" 
			},
			{
				"x": -0.2517770373,
				"y": 0.4381372369,
				"z": -1.2916656527,
				"element": "N" 
			},
			{
				"x": -0.2090954488,
				"y": -0.8677540815,
				"z": -0.8933295365,
				"element": "C" 
			},
			{
				"x": -0.910546324,
				"y": -1.9076457703,
				"z": -1.6527749557,
				"element": "C" 
			},
			{
				"x": -0.7442263973,
				"y": -3.142345153,
				"z": -1.0914260078,
				"element": "O" 
			},
			{
				"x": -1.566414671,
				"y": -1.736480649,
				"z": -2.6572041613,
				"element": "O" 
			},
			{
				"x": 0.5665418114,
				"y": -0.9923709034,
				"z": 0.2744535921,
				"element": "C" 
			},
			{
				"x": 0.9748376378,
				"y": -2.0352072724,
				"z": 1.1405098843,
				"element": "C" 
			},
			{
				"x": 1.7653678399,
				"y": -1.7384543118,
				"z": 2.2220894362,
				"element": "C" 
			},
			{
				"x": 2.1750574167,
				"y": -0.3961385431,
				"z": 2.4770825763,
				"element": "C" 
			},
			{
				"x": 1.7878021209,
				"y": 0.6152548922,
				"z": 1.6497856439,
				"element": "C" 
			},
			{
				"x": 0.9931151745,
				"y": 0.3121814665,
				"z": 0.5636351748,
				"element": "N" 
			},
			{
				"x": -1.2390253323,
				"y": 3.0950184687,
				"z": -1.8097008365,
				"element": "H" 
			},
			{
				"x": 0.2269430521,
				"y": 2.8372880325,
				"z": -2.8125924136,
				"element": "H" 
			},
			{
				"x": -0.0548528917,
				"y": 4.4327414788,
				"z": -2.0284997541,
				"element": "H" 
			},
			{
				"x": -1.2403137444,
				"y": -3.7532963943,
				"z": -1.6605655915,
				"element": "H" 
			},
			{
				"x": 0.6461687649,
				"y": -3.0417699443,
				"z": 0.9178995924,
				"element": "H" 
			},
			{
				"x": 2.0850750988,
				"y": -2.5284071196,
				"z": 2.8934207401,
				"element": "H" 
			},
			{
				"x": 2.7993346957,
				"y": -0.1629239601,
				"z": 3.331559622,
				"element": "H" 
			},
			{
				"x": 2.0577066365,
				"y": 1.6548835245,
				"z": 1.7779639895,
				"element": "H" 
			}
		],
		 "valence_orbital": [ 
			{
				"type": "occ",
				"energy": -0.30651,
				"method": "rhf"
			},
			{
				"type": "occ",
				"energy": -0.2984,
				"method": "rhf"
			},
			{
				"type": "occ",
				"energy": -0.29148,
				"method": "rhf"
			},
			{
				"type": "occ",
				"energy": -0.27807,
				"method": "rhf"
			},
			{
				"type": "occ",
				"energy": -0.2289,
				"method": "rhf"
			},
			{
				"type": "unocc",
				"energy": -0.06742,
				"method": "rhf"
			},
			{
				"type": "unocc",
				"energy": -0.03729,
				"method": "rhf"
			},
			{
				"type": "unocc",
				"energy": -0.01887,
				"method": "rhf"
			},
			{
				"type": "unocc",
				"energy": 0.0377,
				"method": "rhf"
			},
			{
				"type": "unocc",
				"energy": 0.0698,
				"method": "rhf"
			}
		],
		"cosmo_sigma_profile": { 
			"-0.025": 0.0,
			"-0.024": 0.0,
			"-0.023": 0.0,
			"-0.022": 0.0,
			"-0.021": 0.0,
			"-0.02": 0.0,
			"-0.019": 0.00440277020875,
			"-0.018": 0.82784546078,
			"-0.017": 0.776933934172,
			"-0.016": 1.12651073757,
			"-0.015": 0.69105081077,
			"-0.014": 0.381824671987,
			"-0.013": 0.178892992508,
			"-0.012": 0.910306315235,
			"-0.011": 1.59602994797,
			"-0.01": 3.6122013601,
			"-0.009": 6.16662775607,
			"-0.008": 11.7781585888,
			"-0.007": 13.4335535193,
			"-0.006": 12.0299756108,
			"-0.005": 13.1826153383,
			"-0.004": 13.2908753448,
			"-0.003": 13.1351124429,
			"-0.002": 16.7334271293,
			"-0.001": 20.2215577038,
			"0.0": 19.39056415,
			"0.001": 15.980365715,
			"0.002": 8.73587155564,
			"0.003": 5.44627770907,
			"0.004": 5.40999128935,
			"0.005": 5.02187186626,
			"0.006": 4.99288094476,
			"0.007": 4.45286614979,
			"0.008": 5.19684961339,
			"0.009": 4.77985608599,
			"0.01": 11.0518830214,
			"0.011": 14.4705350813,
			"0.012": 6.98909400474,
			"0.013": 2.33899809089,
			"0.014": 1.71430997853,
			"0.015": 0.448971531518,
			"0.016": 0.0,
			"0.017": 0.0,
			"0.018": 0.0,
			"0.019": 0.0,
			"0.02": 0.0,
			"0.021": 0.0,
			"0.022": 0.0,
			"0.023": 0.0,
			"0.024": 0.0,
			"0.025": 0.0
		}
	}
}
