{
	 "smiles": "COC(=O)C1=CC(=C(C=C1)S(N)(=O)=O)[N+]([O-])=O", 
	 "Tm": 413.15, 
	 "num_atms": 25, 
	 "gaussian": { 
		 "optdone": 1, 
		 "sigma_profile": "yes", 
		 "theory": "DFT", 
		 "functional": "B3LYP", 
		 "basiset": "6-31G**", 
		 "properties": { 
			 "R2extent": 5250.9539, 
			 "electric_dipole_moment_norm": 4.22860328004, 
			 "electric_quadrupole_moment_norm": 21.3272357848, 
			 "total_energy": -1268.53397155, 
			 "HOMO_LUMO_gap": 0.17918, 
			 "cosmo_polarized_energy": -18.5, 
			 "cosmo_cavitation_energy": 31.97, 
			 "cosmo_dispersion_energy": -23.92, 
			 "cosmo_repulsion_energy": 1.8, 
			 "cosmo_total_nonelectrostatic_energy": 9.85, 
			 "SMD_solvation_energy": 8.66 
		},
		"coords": [
			{
				"x": 4.7035685754,
				"y": 1.6018538494,
				"z": 2.7558203464,
				"element": "C" 
			},
			{
				"x": 3.5930547059,
				"y": 0.9343940579,
				"z": 2.1281122517,
				"element": "O" 
			},
			{
				"x": 2.7073303092,
				"y": 1.74019359,
				"z": 1.5138349126,
				"element": "C" 
			},
			{
				"x": 2.8058579006,
				"y": 2.9491148359,
				"z": 1.4665905943,
				"element": "O" 
			},
			{
				"x": 1.5815859033,
				"y": 0.9743597334,
				"z": 0.8928018757,
				"element": "C" 
			},
			{
				"x": 1.4958675317,
				"y": -0.4178583799,
				"z": 0.9724077896,
				"element": "C" 
			},
			{
				"x": 0.4340149938,
				"y": -1.0793995565,
				"z": 0.3638953837,
				"element": "C" 
			},
			{
				"x": -0.5711782875,
				"y": -0.3708618216,
				"z": -0.3154516067,
				"element": "C" 
			},
			{
				"x": -0.4838389038,
				"y": 1.0212738444,
				"z": -0.3674841009,
				"element": "C" 
			},
			{
				"x": 0.5888804935,
				"y": 1.6900764241,
				"z": 0.218589406,
				"element": "C" 
			},
			{
				"x": -2.1063787954,
				"y": -1.0764506553,
				"z": -0.992157973,
				"element": "S" 
			},
			{
				"x": -1.5864151046,
				"y": -1.8303220604,
				"z": -2.3948174351,
				"element": "N" 
			},
			{
				"x": -2.6301141342,
				"y": -2.0047802661,
				"z": 0.0077510834,
				"element": "O" 
			},
			{
				"x": -2.9148003455,
				"y": 0.0548709082,
				"z": -1.4540461422,
				"element": "O" 
			},
			{
				"x": 0.4629339768,
				"y": -2.5517491725,
				"z": 0.4450787697,
				"element": "N" 
			},
			{
				"x": 1.0425671873,
				"y": -3.0511245184,
				"z": 1.4025906908,
				"element": "O" 
			},
			{
				"x": -0.0572519816,
				"y": -3.1893323198,
				"z": -0.4696088257,
				"element": "O" 
			},
			{
				"x": 5.3074654675,
				"y": 0.8105835796,
				"z": 3.1981223185,
				"element": "H" 
			},
			{
				"x": 4.3475103394,
				"y": 2.2921331508,
				"z": 3.5239677444,
				"element": "H" 
			},
			{
				"x": 5.2798818501,
				"y": 2.1605759811,
				"z": 2.0148051886,
				"element": "H" 
			},
			{
				"x": 2.2465438125,
				"y": -0.9941105109,
				"z": 1.4963102199,
				"element": "H" 
			},
			{
				"x": -1.2777899271,
				"y": 1.5672805854,
				"z": -0.8633060482,
				"element": "H" 
			},
			{
				"x": 0.6652293003,
				"y": 2.7708088095,
				"z": 0.1707280857,
				"element": "H" 
			},
			{
				"x": -2.3103019833,
				"y": -1.73877391,
				"z": -3.1024477594,
				"element": "H" 
			},
			{
				"x": -1.2932228843,
				"y": -2.7867561784,
				"z": -2.2207867696,
				"element": "H" 
			}
		],
		 "valence_orbital": [ 
			{
				"type": "occ",
				"energy": -0.32176,
				"method": "rhf"
			},
			{
				"type": "occ",
				"energy": -0.30195,
				"method": "rhf"
			},
			{
				"type": "occ",
				"energy": -0.29963,
				"method": "rhf"
			},
			{
				"type": "occ",
				"energy": -0.29724,
				"method": "rhf"
			},
			{
				"type": "occ",
				"energy": -0.29088,
				"method": "rhf"
			},
			{
				"type": "unocc",
				"energy": -0.1117,
				"method": "rhf"
			},
			{
				"type": "unocc",
				"energy": -0.08127,
				"method": "rhf"
			},
			{
				"type": "unocc",
				"energy": -0.03278,
				"method": "rhf"
			},
			{
				"type": "unocc",
				"energy": 0.01673,
				"method": "rhf"
			},
			{
				"type": "unocc",
				"energy": 0.03343,
				"method": "rhf"
			}
		],
		"cosmo_sigma_profile": { 
			"-0.025": 0.0,
			"-0.024": 0.0,
			"-0.023": 0.0,
			"-0.022": 0.0,
			"-0.021": 0.0,
			"-0.02": 0.0,
			"-0.019": 0.0,
			"-0.018": 0.0,
			"-0.017": 0.0,
			"-0.016": 0.390717982684,
			"-0.015": 1.45905500448,
			"-0.014": 1.61816707281,
			"-0.013": 2.6081294092,
			"-0.012": 2.43940286008,
			"-0.011": 1.48143369272,
			"-0.01": 1.87882817291,
			"-0.009": 2.74021691661,
			"-0.008": 5.31705289817,
			"-0.007": 8.37662701005,
			"-0.006": 13.1732383022,
			"-0.005": 15.0210904506,
			"-0.004": 21.8563660383,
			"-0.003": 24.2204157621,
			"-0.002": 22.8385579144,
			"-0.001": 15.3642415819,
			"0.0": 10.8657220791,
			"0.001": 9.4403035222,
			"0.002": 8.8668316752,
			"0.003": 8.84916116876,
			"0.004": 8.52384496665,
			"0.005": 7.92558770137,
			"0.006": 10.3581455601,
			"0.007": 10.4565128242,
			"0.008": 8.98368357945,
			"0.009": 8.93248228611,
			"0.01": 12.2155250695,
			"0.011": 9.52314477984,
			"0.012": 0.54111433331,
			"0.013": 0.0,
			"0.014": 0.0,
			"0.015": 0.0,
			"0.016": 0.0,
			"0.017": 0.0,
			"0.018": 0.0,
			"0.019": 0.0,
			"0.02": 0.0,
			"0.021": 0.0,
			"0.022": 0.0,
			"0.023": 0.0,
			"0.024": 0.0,
			"0.025": 0.0
		}
	}
}
