{
	 "smiles": "ClC1=CC=CC(N2CCN(CCCCOC3=CC=C4CCC(=O)NC4=C3)CC2)=C1Cl", 
	 "Tm": 412.4, 
	 "num_atms": 57, 
	 "gaussian": { 
		 "optdone": 1, 
		 "sigma_profile": "yes", 
		 "theory": "DFT", 
		 "functional": "B3LYP", 
		 "basiset": "6-31G**", 
		 "properties": { 
			 "R2extent": 37915.8607, 
			 "electric_dipole_moment_norm": 4.19150073124, 
			 "electric_quadrupole_moment_norm": 48.8182333819, 
			 "total_energy": -2127.81497286, 
			 "HOMO_LUMO_gap": 0.19209, 
			 "cosmo_polarized_energy": -19.13, 
			 "cosmo_cavitation_energy": 60.96, 
			 "cosmo_dispersion_energy": -43.72, 
			 "cosmo_repulsion_energy": 3.27, 
			 "cosmo_total_nonelectrostatic_energy": 20.51, 
			 "SMD_solvation_energy": 5.9 
		},
		"coords": [
			{
				"x": -7.6376959952,
				"y": 6.9921219987,
				"z": -0.4892784602,
				"element": "Cl" 
			},
			{
				"x": -6.9553971241,
				"y": 5.5204165314,
				"z": 0.1689652237,
				"element": "C" 
			},
			{
				"x": -7.6006088389,
				"y": 4.9280199175,
				"z": 1.2563479559,
				"element": "C" 
			},
			{
				"x": -7.0653670822,
				"y": 3.7716903912,
				"z": 1.8126224787,
				"element": "C" 
			},
			{
				"x": -5.9152310875,
				"y": 3.1963036288,
				"z": 1.2780762672,
				"element": "C" 
			},
			{
				"x": -5.2507220919,
				"y": 3.7687073054,
				"z": 0.1810643164,
				"element": "C" 
			},
			{
				"x": -4.0663273156,
				"y": 3.212917213,
				"z": -0.3491907627,
				"element": "N" 
			},
			{
				"x": -3.2568480344,
				"y": 2.3849324251,
				"z": 0.5420638175,
				"element": "C" 
			},
			{
				"x": -1.8638091301,
				"y": 2.1888468542,
				"z": -0.0588983375,
				"element": "C" 
			},
			{
				"x": -1.9528649423,
				"y": 1.5599278519,
				"z": -1.3749681316,
				"element": "N" 
			},
			{
				"x": -0.6490683691,
				"y": 1.2693785251,
				"z": -1.9797276232,
				"element": "C" 
			},
			{
				"x": 0.184005812,
				"y": 0.2153387024,
				"z": -1.219401144,
				"element": "C" 
			},
			{
				"x": 1.3108084778,
				"y": 0.7830498249,
				"z": -0.3422983503,
				"element": "C" 
			},
			{
				"x": 2.1299367092,
				"y": -0.2916610883,
				"z": 0.3614953491,
				"element": "C" 
			},
			{
				"x": 2.7771816519,
				"y": -1.0783488708,
				"z": -0.6383823813,
				"element": "O" 
			},
			{
				"x": 3.5594649049,
				"y": -2.1258482017,
				"z": -0.247678722,
				"element": "C" 
			},
			{
				"x": 3.7919922494,
				"y": -2.4950132757,
				"z": 1.0820766057,
				"element": "C" 
			},
			{
				"x": 4.6207183178,
				"y": -3.5910106468,
				"z": 1.3461025639,
				"element": "C" 
			},
			{
				"x": 5.224796396,
				"y": -4.325788071,
				"z": 0.3313793296,
				"element": "C" 
			},
			{
				"x": 6.1787727772,
				"y": -5.4726891541,
				"z": 0.5705955003,
				"element": "C" 
			},
			{
				"x": 6.040257916,
				"y": -6.5377880708,
				"z": -0.5274319412,
				"element": "C" 
			},
			{
				"x": 6.1049229386,
				"y": -5.9454234534,
				"z": -1.9279858558,
				"element": "C" 
			},
			{
				"x": 6.5614753078,
				"y": -6.5292033774,
				"z": -2.8977842845,
				"element": "O" 
			},
			{
				"x": 5.5600588803,
				"y": -4.679725184,
				"z": -2.0417126269,
				"element": "N" 
			},
			{
				"x": 4.9641900683,
				"y": -3.9463160748,
				"z": -1.001531454,
				"element": "C" 
			},
			{
				"x": 4.1428784763,
				"y": -2.8588619984,
				"z": -1.2898909285,
				"element": "C" 
			},
			{
				"x": -2.7764743262,
				"y": 2.3798354126,
				"z": -2.2648560812,
				"element": "C" 
			},
			{
				"x": -4.1695973397,
				"y": 2.5882510999,
				"z": -1.6784762709,
				"element": "C" 
			},
			{
				"x": -5.7831536194,
				"y": 4.966136167,
				"z": -0.3606940072,
				"element": "C" 
			},
			{
				"x": -4.9370453277,
				"y": 5.7867202532,
				"z": -1.6517053441,
				"element": "Cl" 
			},
			{
				"x": -8.5015260727,
				"y": 5.3818187756,
				"z": 1.6521636864,
				"element": "H" 
			},
			{
				"x": -7.5586684182,
				"y": 3.3044298205,
				"z": 2.659438935,
				"element": "H" 
			},
			{
				"x": -5.5297435754,
				"y": 2.278872802,
				"z": 1.7071487105,
				"element": "H" 
			},
			{
				"x": -3.7055700998,
				"y": 1.3890453031,
				"z": 0.7084534387,
				"element": "H" 
			},
			{
				"x": -3.1685597694,
				"y": 2.8865442578,
				"z": 1.5103352428,
				"element": "H" 
			},
			{
				"x": -1.3491848611,
				"y": 3.1689574678,
				"z": -0.102633091,
				"element": "H" 
			},
			{
				"x": -1.2928406961,
				"y": 1.5399681603,
				"z": 0.6117458219,
				"element": "H" 
			},
			{
				"x": -0.8578305682,
				"y": 0.8959984506,
				"z": -2.9884078164,
				"element": "H" 
			},
			{
				"x": -0.0498662242,
				"y": 2.193117891,
				"z": -2.1132835494,
				"element": "H" 
			},
			{
				"x": -0.4981021364,
				"y": -0.3987930341,
				"z": -0.6176005399,
				"element": "H" 
			},
			{
				"x": 0.6422605607,
				"y": -0.4642932554,
				"z": -1.9444295363,
				"element": "H" 
			},
			{
				"x": 0.9125731129,
				"y": 1.4539123598,
				"z": 0.4284289006,
				"element": "H" 
			},
			{
				"x": 1.9880066495,
				"y": 1.3872161539,
				"z": -0.9586030625,
				"element": "H" 
			},
			{
				"x": 1.4824409013,
				"y": -0.9317640299,
				"z": 0.9790237101,
				"element": "H" 
			},
			{
				"x": 2.881614289,
				"y": 0.1650855795,
				"z": 1.0205145927,
				"element": "H" 
			},
			{
				"x": 3.3459440064,
				"y": -1.949736554,
				"z": 1.9040793598,
				"element": "H" 
			},
			{
				"x": 4.8060166904,
				"y": -3.8723886497,
				"z": 2.3799722769,
				"element": "H" 
			},
			{
				"x": 6.0083607026,
				"y": -5.917880132,
				"z": 1.5561355228,
				"element": "H" 
			},
			{
				"x": 7.2130433375,
				"y": -5.0977541587,
				"z": 0.5735651259,
				"element": "H" 
			},
			{
				"x": 6.8124195703,
				"y": -7.3069324922,
				"z": -0.4611805794,
				"element": "H" 
			},
			{
				"x": 5.0679056735,
				"y": -7.0417592842,
				"z": -0.4386017601,
				"element": "H" 
			},
			{
				"x": 5.5113838125,
				"y": -4.3224560948,
				"z": -2.9873161441,
				"element": "H" 
			},
			{
				"x": 3.9346448994,
				"y": -2.5665999486,
				"z": -2.3145174542,
				"element": "H" 
			},
			{
				"x": -2.319345701,
				"y": 3.3698329017,
				"z": -2.4553337104,
				"element": "H" 
			},
			{
				"x": -2.8690504138,
				"y": 1.8653713979,
				"z": -3.2283486572,
				"element": "H" 
			},
			{
				"x": -4.6842498375,
				"y": 1.6147438148,
				"z": -1.6044915599,
				"element": "H" 
			},
			{
				"x": -4.7509260915,
				"y": 3.2311258622,
				"z": -2.3402545641,
				"element": "H" 
			}
		],
		 "valence_orbital": [ 
			{
				"type": "occ",
				"energy": -0.24715,
				"method": "rhf"
			},
			{
				"type": "occ",
				"energy": -0.23102,
				"method": "rhf"
			},
			{
				"type": "occ",
				"energy": -0.22134,
				"method": "rhf"
			},
			{
				"type": "occ",
				"energy": -0.21665,
				"method": "rhf"
			},
			{
				"type": "occ",
				"energy": -0.21286,
				"method": "rhf"
			},
			{
				"type": "unocc",
				"energy": -0.02077,
				"method": "rhf"
			},
			{
				"type": "unocc",
				"energy": -0.01536,
				"method": "rhf"
			},
			{
				"type": "unocc",
				"energy": -0.01016,
				"method": "rhf"
			},
			{
				"type": "unocc",
				"energy": -0.00083,
				"method": "rhf"
			},
			{
				"type": "unocc",
				"energy": 0.00577,
				"method": "rhf"
			}
		],
		"cosmo_sigma_profile": { 
			"-0.025": 0.0,
			"-0.024": 0.0,
			"-0.023": 0.0,
			"-0.022": 0.0,
			"-0.021": 0.0,
			"-0.02": 0.0,
			"-0.019": 0.0,
			"-0.018": 0.0,
			"-0.017": 0.0,
			"-0.016": 0.0,
			"-0.015": 0.220086253838,
			"-0.014": 1.04608055976,
			"-0.013": 1.283514043,
			"-0.012": 0.933820904663,
			"-0.011": 1.09801376614,
			"-0.01": 1.45015943614,
			"-0.009": 1.21677418386,
			"-0.008": 1.01470603388,
			"-0.007": 5.51581488775,
			"-0.006": 12.183290117,
			"-0.005": 27.886552343,
			"-0.004": 44.4177628041,
			"-0.003": 52.1453957209,
			"-0.002": 52.5494461908,
			"-0.001": 52.4732968121,
			"0.0": 35.9846421377,
			"0.001": 32.1657019734,
			"0.002": 31.248410704,
			"0.003": 31.7399801082,
			"0.004": 31.0336160546,
			"0.005": 23.3376657736,
			"0.006": 11.4513893103,
			"0.007": 5.43646816621,
			"0.008": 2.68455820272,
			"0.009": 3.6845321585,
			"0.01": 3.62767552131,
			"0.011": 2.1751081216,
			"0.012": 3.01703909655,
			"0.013": 5.88095055691,
			"0.014": 3.94679751539,
			"0.015": 0.680583877649,
			"0.016": 0.15737706755,
			"0.017": 0.0,
			"0.018": 0.0,
			"0.019": 0.0,
			"0.02": 0.0,
			"0.021": 0.0,
			"0.022": 0.0,
			"0.023": 0.0,
			"0.024": 0.0,
			"0.025": 0.0
		}
	}
}
