{
	 "smiles": "CCOC(=O)C(C)O", 
	 "Tm": 247.15, 
	 "num_atms": 18, 
	 "gaussian": { 
		 "optdone": 1, 
		 "sigma_profile": "yes", 
		 "theory": "DFT", 
		 "functional": "B3LYP", 
		 "basiset": "6-31G**", 
		 "properties": { 
			 "R2extent": 1687.3092, 
			 "electric_dipole_moment_norm": 2.54727294376, 
			 "electric_quadrupole_moment_norm": 6.85423862876, 
			 "total_energy": -422.238575501, 
			 "HOMO_LUMO_gap": 0.26352, 
			 "cosmo_polarized_energy": -8.91, 
			 "cosmo_cavitation_energy": 21.54, 
			 "cosmo_dispersion_energy": -15.51, 
			 "cosmo_repulsion_energy": 1.35, 
			 "cosmo_total_nonelectrostatic_energy": 7.37, 
			 "SMD_solvation_energy": 5.02 
		},
		"coords": [
			{
				"x": -2.1249452103,
				"y": -1.0335459176,
				"z": 0.2010752008,
				"element": "C" 
			},
			{
				"x": -0.6689516851,
				"y": -1.2295199284,
				"z": -0.1739475192,
				"element": "C" 
			},
			{
				"x": -0.2570116462,
				"y": -0.0782716694,
				"z": -0.9513220212,
				"element": "O" 
			},
			{
				"x": 1.0302600992,
				"y": -0.0686221319,
				"z": -1.3664319453,
				"element": "C" 
			},
			{
				"x": 1.8234181897,
				"y": -0.9539050018,
				"z": -1.1366223059,
				"element": "O" 
			},
			{
				"x": 1.3261894178,
				"y": 1.1660893091,
				"z": -2.2192284203,
				"element": "C" 
			},
			{
				"x": 1.2790495199,
				"y": 0.7752123714,
				"z": -3.7054435328,
				"element": "C" 
			},
			{
				"x": 0.4776547241,
				"y": 2.2596231926,
				"z": -1.9266566978,
				"element": "O" 
			},
			{
				"x": -2.4722848146,
				"y": -1.8865774311,
				"z": 0.7920766939,
				"element": "H" 
			},
			{
				"x": -2.7537222889,
				"y": -0.9565095822,
				"z": -0.6908121087,
				"element": "H" 
			},
			{
				"x": -2.257416433,
				"y": -0.1263866212,
				"z": 0.7976703508,
				"element": "H" 
			},
			{
				"x": -0.0216231069,
				"y": -1.3039889088,
				"z": 0.7048585422,
				"element": "H" 
			},
			{
				"x": -0.5134859572,
				"y": -2.1301796477,
				"z": -0.775897309,
				"element": "H" 
			},
			{
				"x": 2.3438119311,
				"y": 1.4780262414,
				"z": -1.9629281642,
				"element": "H" 
			},
			{
				"x": 0.2747397218,
				"y": 0.4349313054,
				"z": -3.9808094224,
				"element": "H" 
			},
			{
				"x": 1.9908176145,
				"y": -0.0268205884,
				"z": -3.9214316909,
				"element": "H" 
			},
			{
				"x": 1.5257096591,
				"y": 1.648081652,
				"z": -4.3149829794,
				"element": "H" 
			},
			{
				"x": -0.412009735,
				"y": 1.9026633565,
				"z": -1.7985666707,
				"element": "H" 
			}
		],
		 "valence_orbital": [ 
			{
				"type": "occ",
				"energy": -0.35838,
				"method": "rhf"
			},
			{
				"type": "occ",
				"energy": -0.34831,
				"method": "rhf"
			},
			{
				"type": "occ",
				"energy": -0.30895,
				"method": "rhf"
			},
			{
				"type": "occ",
				"energy": -0.28884,
				"method": "rhf"
			},
			{
				"type": "occ",
				"energy": -0.25727,
				"method": "rhf"
			},
			{
				"type": "unocc",
				"energy": 0.00625,
				"method": "rhf"
			},
			{
				"type": "unocc",
				"energy": 0.0813,
				"method": "rhf"
			},
			{
				"type": "unocc",
				"energy": 0.09741,
				"method": "rhf"
			},
			{
				"type": "unocc",
				"energy": 0.12664,
				"method": "rhf"
			},
			{
				"type": "unocc",
				"energy": 0.13104,
				"method": "rhf"
			}
		],
		"cosmo_sigma_profile": { 
			"-0.025": 0.0,
			"-0.024": 0.0,
			"-0.023": 0.0,
			"-0.022": 0.0,
			"-0.021": 0.0,
			"-0.02": 0.0,
			"-0.019": 0.0,
			"-0.018": 0.0,
			"-0.017": 0.0,
			"-0.016": 0.0,
			"-0.015": 0.0,
			"-0.014": 0.0515137969162,
			"-0.013": 0.329561340893,
			"-0.012": 0.834121994424,
			"-0.011": 0.255611727976,
			"-0.01": 0.57457235668,
			"-0.009": 0.584521187363,
			"-0.008": 1.17402846322,
			"-0.007": 1.31832948259,
			"-0.006": 4.10477618399,
			"-0.005": 11.3045748215,
			"-0.004": 22.2256210668,
			"-0.003": 23.0084285084,
			"-0.002": 17.299185089,
			"-0.001": 17.1788417978,
			"0.0": 16.0574013152,
			"0.001": 7.43594821877,
			"0.002": 6.52087913502,
			"0.003": 4.75792150386,
			"0.004": 2.54547928239,
			"0.005": 1.9876274957,
			"0.006": 3.15529114627,
			"0.007": 2.98397792257,
			"0.008": 2.58416450567,
			"0.009": 2.23757331969,
			"0.01": 2.56805793364,
			"0.011": 5.13437162459,
			"0.012": 5.81113400228,
			"0.013": 2.59244071908,
			"0.014": 1.28055270772,
			"0.015": 0.0,
			"0.016": 0.0,
			"0.017": 0.0,
			"0.018": 0.0,
			"0.019": 0.0,
			"0.02": 0.0,
			"0.021": 0.0,
			"0.022": 0.0,
			"0.023": 0.0,
			"0.024": 0.0,
			"0.025": 0.0
		}
	}
}
