{
	 "smiles": "OC(=O)C1CCN(C1=O)C1=CC=C(Cl)C=C1", 
	 "Tm": 432.15, 
	 "num_atms": 26, 
	 "gaussian": { 
		 "optdone": 1, 
		 "sigma_profile": "yes", 
		 "theory": "DFT", 
		 "functional": "B3LYP", 
		 "basiset": "6-31G**", 
		 "properties": { 
			 "R2extent": 6555.2522, 
			 "electric_dipole_moment_norm": 4.53661072388, 
			 "electric_quadrupole_moment_norm": 16.9617066308, 
			 "total_energy": -1165.84411819, 
			 "HOMO_LUMO_gap": 0.19798, 
			 "cosmo_polarized_energy": -16.99, 
			 "cosmo_cavitation_energy": 31.91, 
			 "cosmo_dispersion_energy": -23.49, 
			 "cosmo_repulsion_energy": 1.84, 
			 "cosmo_total_nonelectrostatic_energy": 10.26, 
			 "SMD_solvation_energy": 6.27 
		},
		"coords": [
			{
				"x": 2.1473609192,
				"y": -2.2114058161,
				"z": 2.0259460912,
				"element": "O" 
			},
			{
				"x": 2.1915160661,
				"y": -2.6679475242,
				"z": 0.7516540492,
				"element": "C" 
			},
			{
				"x": 2.7871861272,
				"y": -3.6682030943,
				"z": 0.4281592418,
				"element": "O" 
			},
			{
				"x": 1.4179951678,
				"y": -1.7684782513,
				"z": -0.1918321707,
				"element": "C" 
			},
			{
				"x": 1.7904136047,
				"y": -0.2780402054,
				"z": -0.1565071348,
				"element": "C" 
			},
			{
				"x": 0.4862902775,
				"y": 0.4274070452,
				"z": -0.560935709,
				"element": "C" 
			},
			{
				"x": -0.5673676083,
				"y": -0.4881841227,
				"z": -0.1077366153,
				"element": "N" 
			},
			{
				"x": -0.0903183743,
				"y": -1.7691318343,
				"z": 0.1240947198,
				"element": "C" 
			},
			{
				"x": -0.7293008127,
				"y": -2.7414840555,
				"z": 0.4819938435,
				"element": "O" 
			},
			{
				"x": -1.9261207053,
				"y": -0.0905926914,
				"z": -0.0688459295,
				"element": "C" 
			},
			{
				"x": -2.9121963778,
				"y": -0.8832316423,
				"z": 0.5469756899,
				"element": "C" 
			},
			{
				"x": -4.2360519331,
				"y": -0.4543404003,
				"z": 0.5800285424,
				"element": "C" 
			},
			{
				"x": -4.5919595839,
				"y": 0.7651779748,
				"z": 0.0058097886,
				"element": "C" 
			},
			{
				"x": -6.2653899105,
				"y": 1.3009608311,
				"z": 0.0564040722,
				"element": "Cl" 
			},
			{
				"x": -3.63033411,
				"y": 1.5617754772,
				"z": -0.6085603293,
				"element": "C" 
			},
			{
				"x": -2.3045318376,
				"y": 1.1333159129,
				"z": -0.6459436062,
				"element": "C" 
			},
			{
				"x": 2.6374095134,
				"y": -2.8553232095,
				"z": 2.5641191267,
				"element": "H" 
			},
			{
				"x": 1.5429923185,
				"y": -2.1930905045,
				"z": -1.1935683213,
				"element": "H" 
			},
			{
				"x": 2.6188319401,
				"y": -0.0260523865,
				"z": -0.8218393729,
				"element": "H" 
			},
			{
				"x": 2.0657583206,
				"y": 0.0057808891,
				"z": 0.8621664154,
				"element": "H" 
			},
			{
				"x": 0.3773880957,
				"y": 1.4019609608,
				"z": -0.0767886039,
				"element": "H" 
			},
			{
				"x": 0.4249539899,
				"y": 0.5792015047,
				"z": -1.6474082243,
				"element": "H" 
			},
			{
				"x": -2.6376631975,
				"y": -1.8319804636,
				"z": 0.9842617785,
				"element": "H" 
			},
			{
				"x": -4.9905970847,
				"y": -1.0702132771,
				"z": 1.0568847415,
				"element": "H" 
			},
			{
				"x": -3.9101196493,
				"y": 2.507816918,
				"z": -1.0584599229,
				"element": "H" 
			},
			{
				"x": -1.5744451558,
				"y": 1.7631019654,
				"z": -1.1398721606,
				"element": "H" 
			}
		],
		 "valence_orbital": [ 
			{
				"type": "occ",
				"energy": -0.29402,
				"method": "rhf"
			},
			{
				"type": "occ",
				"energy": -0.28445,
				"method": "rhf"
			},
			{
				"type": "occ",
				"energy": -0.26819,
				"method": "rhf"
			},
			{
				"type": "occ",
				"energy": -0.26406,
				"method": "rhf"
			},
			{
				"type": "occ",
				"energy": -0.2261,
				"method": "rhf"
			},
			{
				"type": "unocc",
				"energy": -0.02812,
				"method": "rhf"
			},
			{
				"type": "unocc",
				"energy": -0.01694,
				"method": "rhf"
			},
			{
				"type": "unocc",
				"energy": -0.00464,
				"method": "rhf"
			},
			{
				"type": "unocc",
				"energy": 0.02582,
				"method": "rhf"
			},
			{
				"type": "unocc",
				"energy": 0.03069,
				"method": "rhf"
			}
		],
		"cosmo_sigma_profile": { 
			"-0.025": 0.0,
			"-0.024": 0.0,
			"-0.023": 0.0,
			"-0.022": 0.0,
			"-0.021": 0.0,
			"-0.02": 0.0,
			"-0.019": 0.274469417053,
			"-0.018": 0.949136826976,
			"-0.017": 1.05968548988,
			"-0.016": 1.0370710685,
			"-0.015": 0.573275385151,
			"-0.014": 0.289517993156,
			"-0.013": 0.436224981747,
			"-0.012": 1.14901385879,
			"-0.011": 1.15733774107,
			"-0.01": 0.144635094303,
			"-0.009": 0.636229533849,
			"-0.008": 4.70150528618,
			"-0.007": 11.5276504178,
			"-0.006": 18.9111130828,
			"-0.005": 22.2003264917,
			"-0.004": 15.7818418994,
			"-0.003": 14.0953596542,
			"-0.002": 12.1305250024,
			"-0.001": 12.0784480388,
			"0.0": 14.0640547605,
			"0.001": 14.3922940967,
			"0.002": 18.8818400897,
			"0.003": 21.9988196169,
			"0.004": 19.8275096568,
			"0.005": 12.8771337037,
			"0.006": 4.6493180859,
			"0.007": 4.72883932047,
			"0.008": 4.07590682828,
			"0.009": 3.62278774044,
			"0.01": 4.47801723319,
			"0.011": 7.79737390925,
			"0.012": 5.41585019331,
			"0.013": 0.586946882156,
			"0.014": 0.0,
			"0.015": 0.0,
			"0.016": 0.0,
			"0.017": 0.0,
			"0.018": 0.0,
			"0.019": 0.0,
			"0.02": 0.0,
			"0.021": 0.0,
			"0.022": 0.0,
			"0.023": 0.0,
			"0.024": 0.0,
			"0.025": 0.0
		}
	}
}
