{
	 "smiles": "CSC1=NC(=O)N(C2CCCCC2)C2=C1CCC2", 
	 "Tm": 466.15, 
	 "num_atms": 38, 
	 "gaussian": { 
		 "optdone": 1, 
		 "sigma_profile": "yes", 
		 "theory": "DFT", 
		 "functional": "B3LYP", 
		 "basiset": "6-31G**", 
		 "properties": { 
			 "R2extent": 5958.4994, 
			 "electric_dipole_moment_norm": 4.68856901517, 
			 "electric_quadrupole_moment_norm": 11.3154887256, 
			 "total_energy": -1128.48661382, 
			 "HOMO_LUMO_gap": 0.17366, 
			 "cosmo_polarized_energy": -14.85, 
			 "cosmo_cavitation_energy": 38.59, 
			 "cosmo_dispersion_energy": -28.26, 
			 "cosmo_repulsion_energy": 2.15, 
			 "cosmo_total_nonelectrostatic_energy": 12.48, 
			 "SMD_solvation_energy": 4.86 
		},
		"coords": [
			{
				"x": -0.4728435622,
				"y": -3.7314803076,
				"z": -3.636649248,
				"element": "C" 
			},
			{
				"x": 0.8094397936,
				"y": -2.4626002968,
				"z": -3.3678562478,
				"element": "S" 
			},
			{
				"x": 0.1625818103,
				"y": -1.6259981839,
				"z": -1.9426154845,
				"element": "C" 
			},
			{
				"x": -0.9739341423,
				"y": -2.0273001549,
				"z": -1.4273576518,
				"element": "N" 
			},
			{
				"x": -1.5116087272,
				"y": -1.4036424671,
				"z": -0.3229969366,
				"element": "C" 
			},
			{
				"x": -2.5418386888,
				"y": -1.7791911276,
				"z": 0.2195002718,
				"element": "O" 
			},
			{
				"x": -0.8134245835,
				"y": -0.2481722763,
				"z": 0.2045024763,
				"element": "N" 
			},
			{
				"x": -1.4374803893,
				"y": 0.4019998454,
				"z": 1.381397836,
				"element": "C" 
			},
			{
				"x": -1.649430136,
				"y": 1.9179585377,
				"z": 1.2545717654,
				"element": "C" 
			},
			{
				"x": -2.6379466348,
				"y": 2.3836981949,
				"z": 2.3526272877,
				"element": "C" 
			},
			{
				"x": -2.4779829285,
				"y": 1.5878909892,
				"z": 3.6744372892,
				"element": "C" 
			},
			{
				"x": -1.0533256705,
				"y": 1.0367488299,
				"z": 3.8286427887,
				"element": "C" 
			},
			{
				"x": -0.7195164369,
				"y": 0.0305085721,
				"z": 2.7032996934,
				"element": "C" 
			},
			{
				"x": 0.3785532299,
				"y": 0.1199374205,
				"z": -0.3407737791,
				"element": "C" 
			},
			{
				"x": 0.9163292082,
				"y": -0.5452189988,
				"z": -1.414826911,
				"element": "C" 
			},
			{
				"x": 2.2199010541,
				"y": 0.0682928655,
				"z": -1.8625006912,
				"element": "C" 
			},
			{
				"x": 2.5956089791,
				"y": 0.9649579703,
				"z": -0.6550105133,
				"element": "C" 
			},
			{
				"x": 1.2597065925,
				"y": 1.2858794987,
				"z": 0.0600128319,
				"element": "C" 
			},
			{
				"x": -0.146381412,
				"y": -4.3073542142,
				"z": -4.5049549436,
				"element": "H" 
			},
			{
				"x": -1.436287934,
				"y": -3.2606020134,
				"z": -3.8307773623,
				"element": "H" 
			},
			{
				"x": -0.5571203105,
				"y": -4.3743662201,
				"z": -2.7607386654,
				"element": "H" 
			},
			{
				"x": -2.425574387,
				"y": -0.0595547844,
				"z": 1.4010110404,
				"element": "H" 
			},
			{
				"x": -2.0411134033,
				"y": 2.1639281545,
				"z": 0.2617761478,
				"element": "H" 
			},
			{
				"x": -0.7044313749,
				"y": 2.4578637562,
				"z": 1.3670874903,
				"element": "H" 
			},
			{
				"x": -3.6663394727,
				"y": 2.2809291008,
				"z": 1.9887848441,
				"element": "H" 
			},
			{
				"x": -2.4802217484,
				"y": 3.4524819105,
				"z": 2.5363999281,
				"element": "H" 
			},
			{
				"x": -3.1840243146,
				"y": 0.7481589213,
				"z": 3.6916710926,
				"element": "H" 
			},
			{
				"x": -2.7390017578,
				"y": 2.2223088882,
				"z": 4.5282799809,
				"element": "H" 
			},
			{
				"x": -0.9268251905,
				"y": 0.557178596,
				"z": 4.8052666835,
				"element": "H" 
			},
			{
				"x": -0.3419376375,
				"y": 1.8728963039,
				"z": 3.8050550408,
				"element": "H" 
			},
			{
				"x": 0.3648598839,
				"y": -0.0133766011,
				"z": 2.553207376,
				"element": "H" 
			},
			{
				"x": -1.0327493577,
				"y": -0.9803807172,
				"z": 2.9864058346,
				"element": "H" 
			},
			{
				"x": 2.0856883772,
				"y": 0.6610550912,
				"z": -2.778457633,
				"element": "H" 
			},
			{
				"x": 2.9933523556,
				"y": -0.6758546364,
				"z": -2.0809346747,
				"element": "H" 
			},
			{
				"x": 3.136446729,
				"y": 1.8687766948,
				"z": -0.9469180822,
				"element": "H" 
			},
			{
				"x": 3.2403038346,
				"y": 0.4013704916,
				"z": 0.0273062071,
				"element": "H" 
			},
			{
				"x": 0.8214290012,
				"y": 2.2198893313,
				"z": -0.3148772373,
				"element": "H" 
			},
			{
				"x": 1.3759393516,
				"y": 1.4011830351,
				"z": 1.1403021551,
				"element": "H" 
			}
		],
		 "valence_orbital": [ 
			{
				"type": "occ",
				"energy": -0.2994,
				"method": "rhf"
			},
			{
				"type": "occ",
				"energy": -0.25796,
				"method": "rhf"
			},
			{
				"type": "occ",
				"energy": -0.24694,
				"method": "rhf"
			},
			{
				"type": "occ",
				"energy": -0.23581,
				"method": "rhf"
			},
			{
				"type": "occ",
				"energy": -0.21338,
				"method": "rhf"
			},
			{
				"type": "unocc",
				"energy": -0.03972,
				"method": "rhf"
			},
			{
				"type": "unocc",
				"energy": 0.0193,
				"method": "rhf"
			},
			{
				"type": "unocc",
				"energy": 0.035,
				"method": "rhf"
			},
			{
				"type": "unocc",
				"energy": 0.05928,
				"method": "rhf"
			},
			{
				"type": "unocc",
				"energy": 0.0844,
				"method": "rhf"
			}
		],
		"cosmo_sigma_profile": { 
			"-0.025": 0.0,
			"-0.024": 0.0,
			"-0.023": 0.0,
			"-0.022": 0.0,
			"-0.021": 0.0,
			"-0.02": 0.0,
			"-0.019": 0.0,
			"-0.018": 0.0,
			"-0.017": 0.0,
			"-0.016": 0.0,
			"-0.015": 0.0,
			"-0.014": 0.0,
			"-0.013": 0.0,
			"-0.012": 0.0,
			"-0.011": 0.0,
			"-0.01": 0.0,
			"-0.009": 0.0,
			"-0.008": 0.0329788813558,
			"-0.007": 1.73092671228,
			"-0.006": 4.65688203424,
			"-0.005": 12.8408576174,
			"-0.004": 23.1950937113,
			"-0.003": 41.0145471409,
			"-0.002": 52.3507366117,
			"-0.001": 48.9643342827,
			"0.0": 34.2762075319,
			"0.001": 23.47443777,
			"0.002": 8.66536591919,
			"0.003": 5.88373502725,
			"0.004": 7.09426692288,
			"0.005": 5.11017528362,
			"0.006": 5.24248812929,
			"0.007": 4.00807735916,
			"0.008": 3.41745084197,
			"0.009": 1.69706467778,
			"0.01": 1.525376313,
			"0.011": 2.48181534776,
			"0.012": 2.02199422803,
			"0.013": 3.45728593403,
			"0.014": 4.76798297637,
			"0.015": 2.86392606701,
			"0.016": 1.98948258463,
			"0.017": 0.394799068405,
			"0.018": 0.0,
			"0.019": 0.0,
			"0.02": 0.0,
			"0.021": 0.0,
			"0.022": 0.0,
			"0.023": 0.0,
			"0.024": 0.0,
			"0.025": 0.0
		}
	}
}
