{
	 "smiles": "COC1=C(OC)C(Cl)=C(C=O)C=C1", 
	 "Tm": 344.65, 
	 "num_atms": 22, 
	 "gaussian": { 
		 "optdone": 1, 
		 "sigma_profile": "yes", 
		 "theory": "DFT", 
		 "functional": "B3LYP", 
		 "basiset": "6-31G**", 
		 "properties": { 
			 "R2extent": 3096.1113, 
			 "electric_dipole_moment_norm": 5.17914447568, 
			 "electric_quadrupole_moment_norm": 16.411623725, 
			 "total_energy": -1034.20112853, 
			 "HOMO_LUMO_gap": 0.17589, 
			 "cosmo_polarized_energy": -11.0, 
			 "cosmo_cavitation_energy": 27.99, 
			 "cosmo_dispersion_energy": -20.22, 
			 "cosmo_repulsion_energy": 1.6, 
			 "cosmo_total_nonelectrostatic_energy": 9.37, 
			 "SMD_solvation_energy": 7.3 
		},
		"coords": [
			{
				"x": -4.169273351,
				"y": -1.7124287799,
				"z": 0.0638050582,
				"element": "C" 
			},
			{
				"x": -3.1887796872,
				"y": -0.7232479776,
				"z": 0.3584032451,
				"element": "O" 
			},
			{
				"x": -1.9583120269,
				"y": -0.847214394,
				"z": -0.1966730862,
				"element": "C" 
			},
			{
				"x": -1.0523008464,
				"y": 0.1982537823,
				"z": 0.1107748552,
				"element": "C" 
			},
			{
				"x": -1.4567086488,
				"y": 1.2637872684,
				"z": 0.8596278563,
				"element": "O" 
			},
			{
				"x": -1.5766366101,
				"y": 1.0261627217,
				"z": 2.2680593054,
				"element": "C" 
			},
			{
				"x": 0.2360061882,
				"y": 0.152959656,
				"z": -0.4261826099,
				"element": "C" 
			},
			{
				"x": 1.3264925524,
				"y": 1.4662491333,
				"z": -0.0197996909,
				"element": "Cl" 
			},
			{
				"x": 0.6482494192,
				"y": -0.8993267568,
				"z": -1.2684336002,
				"element": "C" 
			},
			{
				"x": 1.9991285881,
				"y": -0.9923705983,
				"z": -1.8702347372,
				"element": "C" 
			},
			{
				"x": 2.3478579958,
				"y": -1.9135186361,
				"z": -2.5887964418,
				"element": "O" 
			},
			{
				"x": -0.2718606031,
				"y": -1.9174226489,
				"z": -1.5464328895,
				"element": "C" 
			},
			{
				"x": -1.5584522082,
				"y": -1.9043342276,
				"z": -1.0243905782,
				"element": "C" 
			},
			{
				"x": -5.0714371536,
				"y": -1.4018061656,
				"z": 0.5915544805,
				"element": "H" 
			},
			{
				"x": -3.8615734851,
				"y": -2.7026695118,
				"z": 0.4207776166,
				"element": "H" 
			},
			{
				"x": -4.3759722241,
				"y": -1.7612406419,
				"z": -1.0117130868,
				"element": "H" 
			},
			{
				"x": -1.8784581966,
				"y": 1.9781066283,
				"z": 2.7078900356,
				"element": "H" 
			},
			{
				"x": -2.3372626175,
				"y": 0.2681358646,
				"z": 2.4781464253,
				"element": "H" 
			},
			{
				"x": -0.6150051381,
				"y": 0.7182549207,
				"z": 2.695102195,
				"element": "H" 
			},
			{
				"x": 2.6926672294,
				"y": -0.165979128,
				"z": -1.6306579382,
				"element": "H" 
			},
			{
				"x": 0.060787208,
				"y": -2.7226985018,
				"z": -2.1933786949,
				"element": "H" 
			},
			{
				"x": -2.2449563844,
				"y": -2.706852007,
				"z": -1.2644477193,
				"element": "H" 
			}
		],
		 "valence_orbital": [ 
			{
				"type": "occ",
				"energy": -0.32041,
				"method": "rhf"
			},
			{
				"type": "occ",
				"energy": -0.28685,
				"method": "rhf"
			},
			{
				"type": "occ",
				"energy": -0.25267,
				"method": "rhf"
			},
			{
				"type": "occ",
				"energy": -0.25024,
				"method": "rhf"
			},
			{
				"type": "occ",
				"energy": -0.23658,
				"method": "rhf"
			},
			{
				"type": "unocc",
				"energy": -0.06069,
				"method": "rhf"
			},
			{
				"type": "unocc",
				"energy": -0.01839,
				"method": "rhf"
			},
			{
				"type": "unocc",
				"energy": 0.02308,
				"method": "rhf"
			},
			{
				"type": "unocc",
				"energy": 0.04179,
				"method": "rhf"
			},
			{
				"type": "unocc",
				"energy": 0.08423,
				"method": "rhf"
			}
		],
		"cosmo_sigma_profile": { 
			"-0.025": 0.0,
			"-0.024": 0.0,
			"-0.023": 0.0,
			"-0.022": 0.0,
			"-0.021": 0.0,
			"-0.02": 0.0,
			"-0.019": 0.0,
			"-0.018": 0.0,
			"-0.017": 0.0,
			"-0.016": 0.0,
			"-0.015": 0.0,
			"-0.014": 0.0,
			"-0.013": 0.0,
			"-0.012": 0.0,
			"-0.011": 0.0,
			"-0.01": 0.0,
			"-0.009": 0.000842241854093,
			"-0.008": 1.36922230349,
			"-0.007": 5.53483000068,
			"-0.006": 14.6008407878,
			"-0.005": 17.1966748866,
			"-0.004": 22.6599569557,
			"-0.003": 21.9507215101,
			"-0.002": 16.7634248377,
			"-0.001": 15.5864027408,
			"0.0": 17.9967790599,
			"0.001": 19.360759744,
			"0.002": 16.2897544881,
			"0.003": 11.0230346326,
			"0.004": 9.54836121411,
			"0.005": 4.96902007241,
			"0.006": 3.95947534426,
			"0.007": 3.59493253807,
			"0.008": 4.39563211791,
			"0.009": 4.59416278121,
			"0.01": 5.12527510156,
			"0.011": 5.48040703613,
			"0.012": 2.84602665936,
			"0.013": 0.873192456312,
			"0.014": 0.00199941630832,
			"0.015": 0.0,
			"0.016": 0.0,
			"0.017": 0.0,
			"0.018": 0.0,
			"0.019": 0.0,
			"0.02": 0.0,
			"0.021": 0.0,
			"0.022": 0.0,
			"0.023": 0.0,
			"0.024": 0.0,
			"0.025": 0.0
		}
	}
}
