{
	 "smiles": "OC(=O)C1=C(Cl)C=NC(NCC2=CC=CC=C2)=N1", 
	 "Tm": 439.15, 
	 "num_atms": 28, 
	 "gaussian": { 
		 "optdone": 1, 
		 "sigma_profile": "yes", 
		 "theory": "DFT", 
		 "functional": "B3LYP", 
		 "basiset": "6-31G**", 
		 "properties": { 
			 "R2extent": 8471.1298, 
			 "electric_dipole_moment_norm": 6.45930575062, 
			 "electric_quadrupole_moment_norm": 33.7483216763, 
			 "total_energy": -1238.21345994, 
			 "HOMO_LUMO_gap": 0.15294, 
			 "cosmo_polarized_energy": -15.64, 
			 "cosmo_cavitation_energy": 35.23, 
			 "cosmo_dispersion_energy": -25.6, 
			 "cosmo_repulsion_energy": 1.99, 
			 "cosmo_total_nonelectrostatic_energy": 11.62, 
			 "SMD_solvation_energy": 4.8 
		},
		"coords": [
			{
				"x": 3.3061056187,
				"y": 3.9519587305,
				"z": 1.2891773994,
				"element": "O" 
			},
			{
				"x": 3.0315727087,
				"y": 4.264972272,
				"z": 0.0142430479,
				"element": "C" 
			},
			{
				"x": 3.5199935345,
				"y": 5.2106338373,
				"z": -0.554019464,
				"element": "O" 
			},
			{
				"x": 2.0430201571,
				"y": 3.2988496946,
				"z": -0.6250838273,
				"element": "C" 
			},
			{
				"x": 1.5721615256,
				"y": 3.3735688845,
				"z": -1.939462593,
				"element": "C" 
			},
			{
				"x": 2.0169705195,
				"y": 4.5854096376,
				"z": -3.1031450243,
				"element": "Cl" 
			},
			{
				"x": 0.6722143699,
				"y": 2.369405898,
				"z": -2.3286071719,
				"element": "C" 
			},
			{
				"x": 0.2652158978,
				"y": 1.3968216994,
				"z": -1.5258412347,
				"element": "N" 
			},
			{
				"x": 0.7593467568,
				"y": 1.4091592415,
				"z": -0.2678322169,
				"element": "C" 
			},
			{
				"x": 0.3463523259,
				"y": 0.4573795291,
				"z": 0.6065929071,
				"element": "N" 
			},
			{
				"x": -0.4963502681,
				"y": -0.6888429934,
				"z": 0.2703304074,
				"element": "C" 
			},
			{
				"x": 0.2811289756,
				"y": -1.9844960075,
				"z": 0.1208341533,
				"element": "C" 
			},
			{
				"x": 0.2121758384,
				"y": -2.9749353443,
				"z": 1.1063211533,
				"element": "C" 
			},
			{
				"x": 0.9412735778,
				"y": -4.1598376871,
				"z": 0.9787372505,
				"element": "C" 
			},
			{
				"x": 1.7493538026,
				"y": -4.3636638535,
				"z": -0.1396360376,
				"element": "C" 
			},
			{
				"x": 1.822956284,
				"y": -3.3806616218,
				"z": -1.130891399,
				"element": "C" 
			},
			{
				"x": 1.0933848116,
				"y": -2.2000155249,
				"z": -1.0020970673,
				"element": "C" 
			},
			{
				"x": 1.6355853835,
				"y": 2.3219896802,
				"z": 0.1973264234,
				"element": "N" 
			},
			{
				"x": 2.7792619437,
				"y": 3.1497463562,
				"z": 1.4925150918,
				"element": "H" 
			},
			{
				"x": 0.2785393191,
				"y": 2.3692684632,
				"z": -3.3430413983,
				"element": "H" 
			},
			{
				"x": 0.8321213469,
				"y": 0.4515101733,
				"z": 1.4918981285,
				"element": "H" 
			},
			{
				"x": -1.2532116581,
				"y": -0.797811201,
				"z": 1.054855531,
				"element": "H" 
			},
			{
				"x": -1.0119834209,
				"y": -0.4356820339,
				"z": -0.6574200899,
				"element": "H" 
			},
			{
				"x": -0.4202916696,
				"y": -2.8215307173,
				"z": 1.9780091448,
				"element": "H" 
			},
			{
				"x": 0.8761012342,
				"y": -4.9208284946,
				"z": 1.7511276099,
				"element": "H" 
			},
			{
				"x": 2.3166370646,
				"y": -5.284184596,
				"z": -0.2421671589,
				"element": "H" 
			},
			{
				"x": 2.4456158652,
				"y": -3.5378759787,
				"z": -2.0070352731,
				"element": "H" 
			},
			{
				"x": 1.145348155,
				"y": -1.4394080433,
				"z": -1.776588292,
				"element": "H" 
			}
		],
		 "valence_orbital": [ 
			{
				"type": "occ",
				"energy": -0.29435,
				"method": "rhf"
			},
			{
				"type": "occ",
				"energy": -0.26308,
				"method": "rhf"
			},
			{
				"type": "occ",
				"energy": -0.26161,
				"method": "rhf"
			},
			{
				"type": "occ",
				"energy": -0.25933,
				"method": "rhf"
			},
			{
				"type": "occ",
				"energy": -0.23642,
				"method": "rhf"
			},
			{
				"type": "unocc",
				"energy": -0.08348,
				"method": "rhf"
			},
			{
				"type": "unocc",
				"energy": -0.03557,
				"method": "rhf"
			},
			{
				"type": "unocc",
				"energy": -0.01555,
				"method": "rhf"
			},
			{
				"type": "unocc",
				"energy": -0.01189,
				"method": "rhf"
			},
			{
				"type": "unocc",
				"energy": 0.02435,
				"method": "rhf"
			}
		],
		"cosmo_sigma_profile": { 
			"-0.025": 0.0,
			"-0.024": 0.0,
			"-0.023": 0.0,
			"-0.022": 0.0,
			"-0.021": 0.0,
			"-0.02": 0.0,
			"-0.019": 0.0,
			"-0.018": 0.0,
			"-0.017": 0.0,
			"-0.016": 0.0,
			"-0.015": 0.0934017496278,
			"-0.014": 1.06311156147,
			"-0.013": 0.84173518,
			"-0.012": 1.75749852898,
			"-0.011": 1.53411142757,
			"-0.01": 1.30425791944,
			"-0.009": 2.92387509032,
			"-0.008": 3.70247213942,
			"-0.007": 3.87463596662,
			"-0.006": 12.9029225339,
			"-0.005": 20.0391062428,
			"-0.004": 23.1901603948,
			"-0.003": 25.9456108072,
			"-0.002": 24.2204957731,
			"-0.001": 20.0925206534,
			"0.0": 18.819478807,
			"0.001": 17.7545693057,
			"0.002": 17.1902406239,
			"0.003": 17.9259872854,
			"0.004": 16.7291206415,
			"0.005": 13.1298374733,
			"0.006": 10.5384025998,
			"0.007": 4.64435015243,
			"0.008": 4.08954300905,
			"0.009": 5.95382919422,
			"0.01": 6.04842343479,
			"0.011": 5.84002184844,
			"0.012": 2.6285448516,
			"0.013": 0.231879993166,
			"0.014": 0.0,
			"0.015": 0.0,
			"0.016": 0.0,
			"0.017": 0.0,
			"0.018": 0.0,
			"0.019": 0.0,
			"0.02": 0.0,
			"0.021": 0.0,
			"0.022": 0.0,
			"0.023": 0.0,
			"0.024": 0.0,
			"0.025": 0.0
		}
	}
}
