{
	 "smiles": "CC1=CC=C(S1)C(=O)NC1CCNCC1", 
	 "Tm": 437.15, 
	 "num_atms": 31, 
	 "gaussian": { 
		 "optdone": 1, 
		 "sigma_profile": "yes", 
		 "theory": "DFT", 
		 "functional": "B3LYP", 
		 "basiset": "6-31G**", 
		 "properties": { 
			 "R2extent": 5365.076, 
			 "electric_dipole_moment_norm": 4.15482201063, 
			 "electric_quadrupole_moment_norm": 21.7539220363, 
			 "total_energy": -1011.72292237, 
			 "HOMO_LUMO_gap": 0.18452, 
			 "cosmo_polarized_energy": -13.66, 
			 "cosmo_cavitation_energy": 34.04, 
			 "cosmo_dispersion_energy": -24.86, 
			 "cosmo_repulsion_energy": 1.92, 
			 "cosmo_total_nonelectrostatic_energy": 11.1, 
			 "SMD_solvation_energy": 3.51 
		},
		"coords": [
			{
				"x": 1.4928757499,
				"y": -2.0945318439,
				"z": -1.8980366783,
				"element": "C" 
			},
			{
				"x": 0.4445252437,
				"y": -2.2449413742,
				"z": -0.8361818583,
				"element": "C" 
			},
			{
				"x": -0.0421071541,
				"y": -3.3997862876,
				"z": -0.2764365219,
				"element": "C" 
			},
			{
				"x": -1.0428176072,
				"y": -3.1779442725,
				"z": 0.7071948855,
				"element": "C" 
			},
			{
				"x": -1.3183456299,
				"y": -1.8498166892,
				"z": 0.9278667817,
				"element": "C" 
			},
			{
				"x": -0.3319431271,
				"y": -0.8531013493,
				"z": -0.1288902847,
				"element": "S" 
			},
			{
				"x": -2.4035695543,
				"y": -1.4129090416,
				"z": 1.8502926149,
				"element": "C" 
			},
			{
				"x": -3.2549267509,
				"y": -2.2310975134,
				"z": 2.198149747,
				"element": "O" 
			},
			{
				"x": -2.4819887878,
				"y": -0.113094384,
				"z": 2.2904417851,
				"element": "N" 
			},
			{
				"x": -1.472440714,
				"y": 0.9412625455,
				"z": 2.3722308612,
				"element": "C" 
			},
			{
				"x": -1.3160447903,
				"y": 1.420367612,
				"z": 3.8349650669,
				"element": "C" 
			},
			{
				"x": -0.6767187956,
				"y": 2.8279227477,
				"z": 3.8924957279,
				"element": "C" 
			},
			{
				"x": 0.150344906,
				"y": 3.0175601341,
				"z": 2.702587428,
				"element": "N" 
			},
			{
				"x": -0.6586301316,
				"y": 3.1817815513,
				"z": 1.4881330469,
				"element": "C" 
			},
			{
				"x": -1.8047656475,
				"y": 2.14115016,
				"z": 1.4677171354,
				"element": "C" 
			},
			{
				"x": 1.110039548,
				"y": -1.5667881024,
				"z": -2.7787466218,
				"element": "H" 
			},
			{
				"x": 2.3652659709,
				"y": -1.538881338,
				"z": -1.5357462362,
				"element": "H" 
			},
			{
				"x": 1.8343741431,
				"y": -3.0817989815,
				"z": -2.2208172328,
				"element": "H" 
			},
			{
				"x": 0.3071432306,
				"y": -4.3837127881,
				"z": -0.5711093507,
				"element": "H" 
			},
			{
				"x": -1.5734451987,
				"y": -3.9552770079,
				"z": 1.2426053109,
				"element": "H" 
			},
			{
				"x": -3.2969333499,
				"y": 0.0049702345,
				"z": 2.8811079821,
				"element": "H" 
			},
			{
				"x": -0.5180663889,
				"y": 0.5201093463,
				"z": 2.0537933389,
				"element": "H" 
			},
			{
				"x": -0.7125439358,
				"y": 0.6922316518,
				"z": 4.3861390405,
				"element": "H" 
			},
			{
				"x": -2.3014633866,
				"y": 1.4489740142,
				"z": 4.3185717027,
				"element": "H" 
			},
			{
				"x": -0.0439421551,
				"y": 2.9192878869,
				"z": 4.7806962766,
				"element": "H" 
			},
			{
				"x": -1.4685123036,
				"y": 3.5953145669,
				"z": 3.9889266838,
				"element": "H" 
			},
			{
				"x": 0.7730382112,
				"y": 3.8107253595,
				"z": 2.8179599009,
				"element": "H" 
			},
			{
				"x": -1.0941320574,
				"y": 4.1931093375,
				"z": 1.3950950558,
				"element": "H" 
			},
			{
				"x": -0.0012230592,
				"y": 3.0354879997,
				"z": 0.6229656522,
				"element": "H" 
			},
			{
				"x": -1.9944197832,
				"y": 1.8019463027,
				"z": 0.4452650046,
				"element": "H" 
			},
			{
				"x": -2.7396266948,
				"y": 2.5931795231,
				"z": 1.8233637555,
				"element": "H" 
			}
		],
		 "valence_orbital": [ 
			{
				"type": "occ",
				"energy": -0.25133,
				"method": "rhf"
			},
			{
				"type": "occ",
				"energy": -0.2469,
				"method": "rhf"
			},
			{
				"type": "occ",
				"energy": -0.23743,
				"method": "rhf"
			},
			{
				"type": "occ",
				"energy": -0.22444,
				"method": "rhf"
			},
			{
				"type": "occ",
				"energy": -0.21984,
				"method": "rhf"
			},
			{
				"type": "unocc",
				"energy": -0.03532,
				"method": "rhf"
			},
			{
				"type": "unocc",
				"energy": 0.02761,
				"method": "rhf"
			},
			{
				"type": "unocc",
				"energy": 0.04531,
				"method": "rhf"
			},
			{
				"type": "unocc",
				"energy": 0.06561,
				"method": "rhf"
			},
			{
				"type": "unocc",
				"energy": 0.08233,
				"method": "rhf"
			}
		],
		"cosmo_sigma_profile": { 
			"-0.025": 0.0,
			"-0.024": 0.0,
			"-0.023": 0.0,
			"-0.022": 0.0,
			"-0.021": 0.0,
			"-0.02": 0.0,
			"-0.019": 0.0,
			"-0.018": 0.0,
			"-0.017": 0.0,
			"-0.016": 0.0,
			"-0.015": 0.0,
			"-0.014": 0.0,
			"-0.013": 0.142206687492,
			"-0.012": 0.82008140774,
			"-0.011": 1.00352336988,
			"-0.01": 2.33146430612,
			"-0.009": 2.55685227795,
			"-0.008": 1.90173674475,
			"-0.007": 3.31353120309,
			"-0.006": 7.13059346322,
			"-0.005": 12.9827061498,
			"-0.004": 16.7149923596,
			"-0.003": 29.8296416071,
			"-0.002": 35.3377552098,
			"-0.001": 37.5594319206,
			"0.0": 26.6527544573,
			"0.001": 15.7590725492,
			"0.002": 11.8738369434,
			"0.003": 15.6827815086,
			"0.004": 13.1562297784,
			"0.005": 5.6920471015,
			"0.006": 2.58948273575,
			"0.007": 2.01157469237,
			"0.008": 1.96463920341,
			"0.009": 2.34441932239,
			"0.01": 2.03743612797,
			"0.011": 2.98249169629,
			"0.012": 1.79541403762,
			"0.013": 3.13558004841,
			"0.014": 6.70333579249,
			"0.015": 1.64329671065,
			"0.016": 0.2771410002,
			"0.017": 0.36014769435,
			"0.018": 0.00121419345057,
			"0.019": 0.0,
			"0.02": 0.0,
			"0.021": 0.0,
			"0.022": 0.0,
			"0.023": 0.0,
			"0.024": 0.0,
			"0.025": 0.0
		}
	}
}
