{
	 "smiles": "OC1COC(O)C(O)C1O", 
	 "Tm": 429.15, 
	 "num_atms": 20, 
	 "gaussian": { 
		 "optdone": 1, 
		 "sigma_profile": "yes", 
		 "theory": "DFT", 
		 "functional": "B3LYP", 
		 "basiset": "6-31G**", 
		 "properties": { 
			 "R2extent": 1643.2965, 
			 "electric_dipole_moment_norm": 1.75165331616, 
			 "electric_quadrupole_moment_norm": 7.89379702615, 
			 "total_energy": -572.640752632, 
			 "HOMO_LUMO_gap": 0.30529, 
			 "cosmo_polarized_energy": -14.43, 
			 "cosmo_cavitation_energy": 21.49, 
			 "cosmo_dispersion_energy": -16.66, 
			 "cosmo_repulsion_energy": 1.35, 
			 "cosmo_total_nonelectrostatic_energy": 6.18, 
			 "SMD_solvation_energy": 3.33 
		},
		"coords": [
			{
				"x": 0.2714404519,
				"y": 1.2971532993,
				"z": 0.306956844,
				"element": "O" 
			},
			{
				"x": -0.4418064766,
				"y": 0.780093794,
				"z": 1.4319850026,
				"element": "C" 
			},
			{
				"x": 0.4521350542,
				"y": 0.0791697947,
				"z": 2.4678292833,
				"element": "C" 
			},
			{
				"x": 0.518934702,
				"y": -1.3506364333,
				"z": 2.3082413494,
				"element": "O" 
			},
			{
				"x": 0.4314938613,
				"y": -1.810438847,
				"z": 0.9840055317,
				"element": "C" 
			},
			{
				"x": 1.4890168485,
				"y": -1.2810312921,
				"z": 0.182610082,
				"element": "O" 
			},
			{
				"x": -0.8817292413,
				"y": -1.4164324342,
				"z": 0.2822035172,
				"element": "C" 
			},
			{
				"x": -1.745633558,
				"y": -2.5405767244,
				"z": 0.3133541327,
				"element": "O" 
			},
			{
				"x": -1.5259323358,
				"y": -0.1913278513,
				"z": 0.9581139322,
				"element": "C" 
			},
			{
				"x": -2.4506772428,
				"y": 0.4338415858,
				"z": 0.0822857577,
				"element": "O" 
			},
			{
				"x": 0.8838345993,
				"y": 0.5982824962,
				"z": 0.0147923761,
				"element": "H" 
			},
			{
				"x": -0.9163835194,
				"y": 1.6502102328,
				"z": 1.8973313384,
				"element": "H" 
			},
			{
				"x": 0.0532454908,
				"y": 0.2282824237,
				"z": 3.4751861028,
				"element": "H" 
			},
			{
				"x": 1.4574643783,
				"y": 0.518696784,
				"z": 2.4292770616,
				"element": "H" 
			},
			{
				"x": 0.4972810778,
				"y": -2.9012047834,
				"z": 1.0516347206,
				"element": "H" 
			},
			{
				"x": 2.3215013052,
				"y": -1.4891117361,
				"z": 0.6303511823,
				"element": "H" 
			},
			{
				"x": -0.6337792259,
				"y": -1.1507115258,
				"z": -0.7555755291,
				"element": "H" 
			},
			{
				"x": -2.589648294,
				"y": -2.2471948469,
				"z": -0.0578464632,
				"element": "H" 
			},
			{
				"x": -2.0967905966,
				"y": -0.553177233,
				"z": 1.8211985637,
				"element": "H" 
			},
			{
				"x": -1.9090672787,
				"y": 0.9771132969,
				"z": -0.5125347859,
				"element": "H" 
			}
		],
		 "valence_orbital": [ 
			{
				"type": "occ",
				"energy": -0.30915,
				"method": "rhf"
			},
			{
				"type": "occ",
				"energy": -0.29292,
				"method": "rhf"
			},
			{
				"type": "occ",
				"energy": -0.28529,
				"method": "rhf"
			},
			{
				"type": "occ",
				"energy": -0.27344,
				"method": "rhf"
			},
			{
				"type": "occ",
				"energy": -0.25091,
				"method": "rhf"
			},
			{
				"type": "unocc",
				"energy": 0.05438,
				"method": "rhf"
			},
			{
				"type": "unocc",
				"energy": 0.08397,
				"method": "rhf"
			},
			{
				"type": "unocc",
				"energy": 0.09482,
				"method": "rhf"
			},
			{
				"type": "unocc",
				"energy": 0.10492,
				"method": "rhf"
			},
			{
				"type": "unocc",
				"energy": 0.11344,
				"method": "rhf"
			}
		],
		"cosmo_sigma_profile": { 
			"-0.025": 0.0,
			"-0.024": 0.0,
			"-0.023": 0.0,
			"-0.022": 0.0,
			"-0.021": 0.0,
			"-0.02": 0.0,
			"-0.019": 0.0,
			"-0.018": 0.0,
			"-0.017": 0.54493384087,
			"-0.016": 1.2651748507,
			"-0.015": 0.906152966504,
			"-0.014": 1.3714232291,
			"-0.013": 2.32405057361,
			"-0.012": 2.03228941631,
			"-0.011": 1.96215359604,
			"-0.01": 1.52560442354,
			"-0.009": 1.89244743246,
			"-0.008": 2.16901322486,
			"-0.007": 4.03702573653,
			"-0.006": 12.722037714,
			"-0.005": 14.9499208309,
			"-0.004": 15.1717569844,
			"-0.003": 12.2561570668,
			"-0.002": 8.15256297366,
			"-0.001": 6.8936117889,
			"0.0": 7.14762340628,
			"0.001": 6.55808310799,
			"0.002": 5.51661963809,
			"0.003": 5.28904195898,
			"0.004": 4.53844827939,
			"0.005": 3.70501316251,
			"0.006": 6.05637203805,
			"0.007": 5.03777218789,
			"0.008": 4.67875412199,
			"0.009": 4.99210913881,
			"0.01": 4.03330574608,
			"0.011": 4.74105511015,
			"0.012": 6.12393358827,
			"0.013": 4.83486356659,
			"0.014": 2.10263942813,
			"0.015": 0.178962394688,
			"0.016": 0.0,
			"0.017": 0.0,
			"0.018": 0.0,
			"0.019": 0.0,
			"0.02": 0.0,
			"0.021": 0.0,
			"0.022": 0.0,
			"0.023": 0.0,
			"0.024": 0.0,
			"0.025": 0.0
		}
	}
}
