{
	 "smiles": "CC1=CNC(=O)N1C1=CC=C(C=C1)C(O)=O", 
	 "Tm": 559.15, 
	 "num_atms": 26, 
	 "gaussian": { 
		 "optdone": 1, 
		 "sigma_profile": "yes", 
		 "theory": "DFT", 
		 "functional": "B3LYP", 
		 "basiset": "6-31G**", 
		 "properties": { 
			 "R2extent": 4461.0946, 
			 "electric_dipole_moment_norm": 7.0453811288, 
			 "electric_quadrupole_moment_norm": 20.9911957918, 
			 "total_energy": -760.395260425, 
			 "HOMO_LUMO_gap": 0.1516, 
			 "cosmo_polarized_energy": -23.09, 
			 "cosmo_cavitation_energy": 30.55, 
			 "cosmo_dispersion_energy": -22.37, 
			 "cosmo_repulsion_energy": 1.73, 
			 "cosmo_total_nonelectrostatic_energy": 9.9, 
			 "SMD_solvation_energy": 7.43 
		},
		"coords": [
			{
				"x": -2.7425991433,
				"y": 1.3207740514,
				"z": -0.152424484,
				"element": "C" 
			},
			{
				"x": -2.1939858876,
				"y": 0.6208375998,
				"z": 1.0472960204,
				"element": "C" 
			},
			{
				"x": -2.7124679445,
				"y": 0.5672145907,
				"z": 2.2947104261,
				"element": "C" 
			},
			{
				"x": -1.8128723762,
				"y": -0.110519908,
				"z": 3.1150985318,
				"element": "N" 
			},
			{
				"x": -0.6823383852,
				"y": -0.4833060047,
				"z": 2.4160824287,
				"element": "C" 
			},
			{
				"x": 0.3052213361,
				"y": -1.0686500274,
				"z": 2.8350031559,
				"element": "O" 
			},
			{
				"x": -0.9376887949,
				"y": -0.0345457044,
				"z": 1.0981816765,
				"element": "N" 
			},
			{
				"x": -0.0384591539,
				"y": -0.2696655741,
				"z": 0.0306895164,
				"element": "C" 
			},
			{
				"x": 1.3418446336,
				"y": -0.1318425539,
				"z": 0.2406833205,
				"element": "C" 
			},
			{
				"x": 2.2268205665,
				"y": -0.3577312659,
				"z": -0.8081167706,
				"element": "C" 
			},
			{
				"x": 1.7627056024,
				"y": -0.7126629926,
				"z": -2.0832621282,
				"element": "C" 
			},
			{
				"x": 0.385143533,
				"y": -0.8808762466,
				"z": -2.2737659287,
				"element": "C" 
			},
			{
				"x": -0.5074526937,
				"y": -0.6684234216,
				"z": -1.2305871372,
				"element": "C" 
			},
			{
				"x": 2.6611495442,
				"y": -0.9680762073,
				"z": -3.2535927892,
				"element": "C" 
			},
			{
				"x": 3.9315608504,
				"y": -0.4879017095,
				"z": -3.1725157264,
				"element": "O" 
			},
			{
				"x": 2.3072152612,
				"y": -1.5649115847,
				"z": -4.2440474189,
				"element": "O" 
			},
			{
				"x": -3.5769792881,
				"y": 1.9546029111,
				"z": 0.1586840009,
				"element": "H" 
			},
			{
				"x": -3.1179771353,
				"y": 0.6373118107,
				"z": -0.9216265317,
				"element": "H" 
			},
			{
				"x": -1.9895553282,
				"y": 1.9609545258,
				"z": -0.6242974906,
				"element": "H" 
			},
			{
				"x": -3.6347231612,
				"y": 0.9821604086,
				"z": 2.6686833983,
				"element": "H" 
			},
			{
				"x": -1.9072620712,
				"y": -0.2980082437,
				"z": 4.0994493984,
				"element": "H" 
			},
			{
				"x": 1.7079802118,
				"y": 0.1220134591,
				"z": 1.2265939432,
				"element": "H" 
			},
			{
				"x": 3.2918690372,
				"y": -0.2809160705,
				"z": -0.6014283415,
				"element": "H" 
			},
			{
				"x": 0.0342937145,
				"y": -1.1967261378,
				"z": -3.2501326091,
				"element": "H" 
			},
			{
				"x": -1.5659038666,
				"y": -0.8385217093,
				"z": -1.3858074317,
				"element": "H" 
			},
			{
				"x": 4.0240609389,
				"y": 0.0891160048,
				"z": -2.4022510292,
				"element": "H" 
			}
		],
		 "valence_orbital": [ 
			{
				"type": "occ",
				"energy": -0.27591,
				"method": "rhf"
			},
			{
				"type": "occ",
				"energy": -0.27176,
				"method": "rhf"
			},
			{
				"type": "occ",
				"energy": -0.26487,
				"method": "rhf"
			},
			{
				"type": "occ",
				"energy": -0.25752,
				"method": "rhf"
			},
			{
				"type": "occ",
				"energy": -0.20417,
				"method": "rhf"
			},
			{
				"type": "unocc",
				"energy": -0.05257,
				"method": "rhf"
			},
			{
				"type": "unocc",
				"energy": -0.02124,
				"method": "rhf"
			},
			{
				"type": "unocc",
				"energy": 0.02495,
				"method": "rhf"
			},
			{
				"type": "unocc",
				"energy": 0.04464,
				"method": "rhf"
			},
			{
				"type": "unocc",
				"energy": 0.05862,
				"method": "rhf"
			}
		],
		"cosmo_sigma_profile": { 
			"-0.025": 0.0,
			"-0.024": 0.0,
			"-0.023": 0.0,
			"-0.022": 0.0,
			"-0.021": 0.0,
			"-0.02": 0.0,
			"-0.019": 0.31172794946,
			"-0.018": 0.999682597718,
			"-0.017": 1.03044042629,
			"-0.016": 1.72539826633,
			"-0.015": 2.35643968256,
			"-0.014": 1.94267109037,
			"-0.013": 2.05447659802,
			"-0.012": 2.20234880698,
			"-0.011": 2.09347976734,
			"-0.01": 2.29722594748,
			"-0.009": 3.88390170446,
			"-0.008": 6.15994965182,
			"-0.007": 6.89575316873,
			"-0.006": 11.918217581,
			"-0.005": 13.7533000934,
			"-0.004": 11.9486154973,
			"-0.003": 14.2475191328,
			"-0.002": 14.7190956152,
			"-0.001": 19.7597411023,
			"0.0": 17.0964914123,
			"0.001": 15.1563375423,
			"0.002": 18.3889254595,
			"0.003": 15.0205069762,
			"0.004": 6.43910561691,
			"0.005": 5.16900010479,
			"0.006": 3.58540733855,
			"0.007": 3.85031276702,
			"0.008": 4.20198991011,
			"0.009": 4.74584287483,
			"0.01": 5.66265208699,
			"0.011": 6.71262236516,
			"0.012": 6.61198858829,
			"0.013": 4.72217020036,
			"0.014": 5.88904302619,
			"0.015": 0.831272056996,
			"0.016": 0.0,
			"0.017": 0.0,
			"0.018": 0.0,
			"0.019": 0.0,
			"0.02": 0.0,
			"0.021": 0.0,
			"0.022": 0.0,
			"0.023": 0.0,
			"0.024": 0.0,
			"0.025": 0.0
		}
	}
}
