{
	 "smiles": "COCOC", 
	 "Tm": 168.15, 
	 "num_atms": 13, 
	 "gaussian": { 
		 "optdone": 1, 
		 "sigma_profile": "yes", 
		 "theory": "DFT", 
		 "functional": "B3LYP", 
		 "basiset": "6-31G**", 
		 "properties": { 
			 "R2extent": 1659.1578, 
			 "electric_dipole_moment_norm": 1.78415152664, 
			 "electric_quadrupole_moment_norm": 4.9691773947, 
			 "total_energy": -269.553707798, 
			 "HOMO_LUMO_gap": 0.34828, 
			 "cosmo_polarized_energy": -5.78, 
			 "cosmo_cavitation_energy": 15.92, 
			 "cosmo_dispersion_energy": -11.99, 
			 "cosmo_repulsion_energy": 1.08, 
			 "cosmo_total_nonelectrostatic_energy": 5.01, 
			 "SMD_solvation_energy": 4.42 
		},
		"coords": [
			{
				"x": 2.7353047658,
				"y": 1.0847196278,
				"z": 0.0042487921,
				"element": "C" 
			},
			{
				"x": 2.2757781289,
				"y": 1.0077970034,
				"z": 1.3364166444,
				"element": "O" 
			},
			{
				"x": 0.8936540595,
				"y": 1.281047674,
				"z": 1.4507727517,
				"element": "C" 
			},
			{
				"x": 0.5202030687,
				"y": 1.2832115928,
				"z": 2.7838128968,
				"element": "O" 
			},
			{
				"x": 1.0855279203,
				"y": 2.3499205964,
				"z": 3.5350145625,
				"element": "C" 
			},
			{
				"x": 3.806512483,
				"y": 0.8722891662,
				"z": 0.017675366,
				"element": "H" 
			},
			{
				"x": 2.2386882685,
				"y": 0.3476736438,
				"z": -0.6469215019,
				"element": "H" 
			},
			{
				"x": 2.5777084473,
				"y": 2.0854556336,
				"z": -0.4297878429,
				"element": "H" 
			},
			{
				"x": 0.6724763223,
				"y": 2.2558513923,
				"z": 0.9673204154,
				"element": "H" 
			},
			{
				"x": 0.2997217563,
				"y": 0.4944215898,
				"z": 0.96040695,
				"element": "H" 
			},
			{
				"x": 0.6578140195,
				"y": 2.2890816144,
				"z": 4.5378301331,
				"element": "H" 
			},
			{
				"x": 0.8284179624,
				"y": 3.3254403934,
				"z": 3.0942136962,
				"element": "H" 
			},
			{
				"x": 2.1755927975,
				"y": 2.265490072,
				"z": 3.5963971367,
				"element": "H" 
			}
		],
		 "valence_orbital": [ 
			{
				"type": "occ",
				"energy": -0.3824,
				"method": "rhf"
			},
			{
				"type": "occ",
				"energy": -0.3315,
				"method": "rhf"
			},
			{
				"type": "occ",
				"energy": -0.32242,
				"method": "rhf"
			},
			{
				"type": "occ",
				"energy": -0.26886,
				"method": "rhf"
			},
			{
				"type": "occ",
				"energy": -0.25683,
				"method": "rhf"
			},
			{
				"type": "unocc",
				"energy": 0.09145,
				"method": "rhf"
			},
			{
				"type": "unocc",
				"energy": 0.11182,
				"method": "rhf"
			},
			{
				"type": "unocc",
				"energy": 0.13825,
				"method": "rhf"
			},
			{
				"type": "unocc",
				"energy": 0.14648,
				"method": "rhf"
			},
			{
				"type": "unocc",
				"energy": 0.15222,
				"method": "rhf"
			}
		],
		"cosmo_sigma_profile": { 
			"-0.025": 0.0,
			"-0.024": 0.0,
			"-0.023": 0.0,
			"-0.022": 0.0,
			"-0.021": 0.0,
			"-0.02": 0.0,
			"-0.019": 0.0,
			"-0.018": 0.0,
			"-0.017": 0.0,
			"-0.016": 0.0,
			"-0.015": 0.0,
			"-0.014": 0.0,
			"-0.013": 0.0,
			"-0.012": 0.0,
			"-0.011": 0.0,
			"-0.01": 0.0,
			"-0.009": 0.0,
			"-0.008": 0.0,
			"-0.007": 0.0,
			"-0.006": 0.508804324928,
			"-0.005": 6.89029497819,
			"-0.004": 24.0787886911,
			"-0.003": 21.5096740878,
			"-0.002": 20.605062663,
			"-0.001": 8.44937391929,
			"0.0": 4.77543243556,
			"0.001": 3.93912940889,
			"0.002": 2.91087487988,
			"0.003": 2.59050448696,
			"0.004": 3.44763961191,
			"0.005": 2.44155728842,
			"0.006": 2.78251083422,
			"0.007": 2.7357725376,
			"0.008": 2.70398662706,
			"0.009": 2.82150017887,
			"0.01": 2.88385932635,
			"0.011": 2.6020651671,
			"0.012": 3.45726503588,
			"0.013": 1.6215593912,
			"0.014": 0.129073736885,
			"0.015": 0.0,
			"0.016": 0.0,
			"0.017": 0.0,
			"0.018": 0.0,
			"0.019": 0.0,
			"0.02": 0.0,
			"0.021": 0.0,
			"0.022": 0.0,
			"0.023": 0.0,
			"0.024": 0.0,
			"0.025": 0.0
		}
	}
}
