{
	 "smiles": "BrCC1=CC2=NSN=C2C=C1", 
	 "Tm": 364.15, 
	 "num_atms": 16, 
	 "gaussian": { 
		 "optdone": 1, 
		 "sigma_profile": "yes", 
		 "theory": "DFT", 
		 "functional": "B3LYP", 
		 "basiset": "6-31G**", 
		 "properties": { 
			 "R2extent": 4324.1486, 
			 "electric_dipole_moment_norm": 1.7545347332, 
			 "electric_quadrupole_moment_norm": 10.3013129328, 
			 "total_energy": -3348.83272623, 
			 "HOMO_LUMO_gap": 0.15617, 
			 "cosmo_polarized_energy": -8.17, 
			 "cosmo_cavitation_energy": 24.47, 
			 "cosmo_dispersion_energy": -19.24, 
			 "cosmo_repulsion_energy": 1.48, 
			 "cosmo_total_nonelectrostatic_energy": 6.71, 
			 "SMD_solvation_energy": -0.47 
		},
		"coords": [
			{
				"x": -0.3286037321,
				"y": 3.615343006,
				"z": -1.8994524135,
				"element": "Br" 
			},
			{
				"x": -0.1114695796,
				"y": 1.8542528914,
				"z": -2.8256604642,
				"element": "C" 
			},
			{
				"x": -0.5431353786,
				"y": 0.7122724123,
				"z": -1.9629022449,
				"element": "C" 
			},
			{
				"x": 0.3891549904,
				"y": -0.155332042,
				"z": -1.4452798839,
				"element": "C" 
			},
			{
				"x": -0.0603005614,
				"y": -1.2517610552,
				"z": -0.6550064268,
				"element": "C" 
			},
			{
				"x": 0.713333086,
				"y": -2.1850416897,
				"z": -0.0862542724,
				"element": "N" 
			},
			{
				"x": -0.3065702195,
				"y": -3.2053420879,
				"z": 0.7024336978,
				"element": "S" 
			},
			{
				"x": -1.7534620386,
				"y": -2.5058657801,
				"z": 0.3511424083,
				"element": "N" 
			},
			{
				"x": -1.4762624075,
				"y": -1.4364814986,
				"z": -0.403584389,
				"element": "C" 
			},
			{
				"x": -2.4193741012,
				"y": -0.5157814641,
				"z": -0.9499486558,
				"element": "C" 
			},
			{
				"x": -1.9479659036,
				"y": 0.5230166936,
				"z": -1.7037654275,
				"element": "C" 
			},
			{
				"x": 0.9422816489,
				"y": 1.8011515699,
				"z": -3.0910431261,
				"element": "H" 
			},
			{
				"x": -0.7183147995,
				"y": 1.9550460494,
				"z": -3.7248390786,
				"element": "H" 
			},
			{
				"x": 1.4516892559,
				"y": -0.0274629558,
				"z": -1.624170449,
				"element": "H" 
			},
			{
				"x": -3.4776554011,
				"y": -0.654928486,
				"z": -0.7592540665,
				"element": "H" 
			},
			{
				"x": -2.6442448584,
				"y": 1.2445144368,
				"z": -2.1214152078,
				"element": "H" 
			}
		],
		 "valence_orbital": [ 
			{
				"type": "occ",
				"energy": -0.30613,
				"method": "rhf"
			},
			{
				"type": "occ",
				"energy": -0.28426,
				"method": "rhf"
			},
			{
				"type": "occ",
				"energy": -0.27889,
				"method": "rhf"
			},
			{
				"type": "occ",
				"energy": -0.2656,
				"method": "rhf"
			},
			{
				"type": "occ",
				"energy": -0.25018,
				"method": "rhf"
			},
			{
				"type": "unocc",
				"energy": -0.09401,
				"method": "rhf"
			},
			{
				"type": "unocc",
				"energy": -0.03387,
				"method": "rhf"
			},
			{
				"type": "unocc",
				"energy": -0.00068,
				"method": "rhf"
			},
			{
				"type": "unocc",
				"energy": 0.00642,
				"method": "rhf"
			},
			{
				"type": "unocc",
				"energy": 0.02609,
				"method": "rhf"
			}
		],
		"cosmo_sigma_profile": { 
			"-0.025": 0.0,
			"-0.024": 0.0,
			"-0.023": 0.0,
			"-0.022": 0.0,
			"-0.021": 0.0,
			"-0.02": 0.0,
			"-0.019": 0.0,
			"-0.018": 0.0,
			"-0.017": 0.0,
			"-0.016": 0.0,
			"-0.015": 0.0,
			"-0.014": 0.0,
			"-0.013": 0.0,
			"-0.012": 0.0,
			"-0.011": 0.0,
			"-0.01": 0.0,
			"-0.009": 1.24254179798,
			"-0.008": 7.75976663199,
			"-0.007": 10.1224068861,
			"-0.006": 8.2471097551,
			"-0.005": 10.4063077025,
			"-0.004": 11.7050063838,
			"-0.003": 13.000806506,
			"-0.002": 16.8817737788,
			"-0.001": 20.0662410668,
			"0.0": 15.2255583418,
			"0.001": 17.8263209152,
			"0.002": 12.3750866634,
			"0.003": 11.6772100095,
			"0.004": 9.07438450396,
			"0.005": 9.59093648307,
			"0.006": 12.8229818125,
			"0.007": 3.04950385406,
			"0.008": 2.61385270182,
			"0.009": 2.21320537917,
			"0.01": 1.51672393515,
			"0.011": 2.23166026044,
			"0.012": 1.94505895321,
			"0.013": 1.39975492333,
			"0.014": 0.00367858529606,
			"0.015": 0.0,
			"0.016": 0.0,
			"0.017": 0.0,
			"0.018": 0.0,
			"0.019": 0.0,
			"0.02": 0.0,
			"0.021": 0.0,
			"0.022": 0.0,
			"0.023": 0.0,
			"0.024": 0.0,
			"0.025": 0.0
		}
	}
}
