{
	 "smiles": "CN1N=C(C)C2=C1N=C(NN)C=C2C", 
	 "Tm": 475.15, 
	 "num_atms": 27, 
	 "gaussian": { 
		 "optdone": 1, 
		 "sigma_profile": "yes", 
		 "theory": "DFT", 
		 "functional": "B3LYP", 
		 "basiset": "6-31G**", 
		 "properties": { 
			 "R2extent": 3802.1696, 
			 "electric_dipole_moment_norm": 1.4608308629, 
			 "electric_quadrupole_moment_norm": 10.9986071418, 
			 "total_energy": -624.531280261, 
			 "HOMO_LUMO_gap": 0.1805, 
			 "cosmo_polarized_energy": -12.16, 
			 "cosmo_cavitation_energy": 30.23, 
			 "cosmo_dispersion_energy": -21.94, 
			 "cosmo_repulsion_energy": 1.73, 
			 "cosmo_total_nonelectrostatic_energy": 10.02, 
			 "SMD_solvation_energy": 3.72 
		},
		"coords": [
			{
				"x": 0.8005403836,
				"y": 4.001144576,
				"z": 1.37859659,
				"element": "C" 
			},
			{
				"x": 0.6700298348,
				"y": 2.564178914,
				"z": 1.4676174325,
				"element": "N" 
			},
			{
				"x": 0.0617934163,
				"y": 1.9850875259,
				"z": 2.5467394463,
				"element": "N" 
			},
			{
				"x": 0.0881420199,
				"y": 0.6743600872,
				"z": 2.3451273404,
				"element": "C" 
			},
			{
				"x": -0.5080740751,
				"y": -0.2459194788,
				"z": 3.3665309444,
				"element": "C" 
			},
			{
				"x": 0.7286233956,
				"y": 0.3697492022,
				"z": 1.1006442142,
				"element": "C" 
			},
			{
				"x": 1.0873059481,
				"y": 1.6302259332,
				"z": 0.5693805798,
				"element": "C" 
			},
			{
				"x": 1.7135105461,
				"y": 1.8816457776,
				"z": -0.5931888608,
				"element": "N" 
			},
			{
				"x": 2.0218017307,
				"y": 0.786997726,
				"z": -1.2875199865,
				"element": "C" 
			},
			{
				"x": 2.7022709655,
				"y": 0.9622805599,
				"z": -2.480453359,
				"element": "N" 
			},
			{
				"x": 2.8070603049,
				"y": 2.2382335848,
				"z": -3.0749279089,
				"element": "N" 
			},
			{
				"x": 1.7133857743,
				"y": -0.543246707,
				"z": -0.8638221406,
				"element": "C" 
			},
			{
				"x": 1.063056125,
				"y": -0.7753501344,
				"z": 0.3340055419,
				"element": "C" 
			},
			{
				"x": 0.7332566026,
				"y": -2.1727624843,
				"z": 0.7898470973,
				"element": "C" 
			},
			{
				"x": 1.3384888448,
				"y": 4.2296224444,
				"z": 0.4577193804,
				"element": "H" 
			},
			{
				"x": 1.3593900587,
				"y": 4.3866867911,
				"z": 2.2363041714,
				"element": "H" 
			},
			{
				"x": -0.184738424,
				"y": 4.476896557,
				"z": 1.3558128781,
				"element": "H" 
			},
			{
				"x": 0.2359250923,
				"y": -0.9424240968,
				"z": 3.7696464591,
				"element": "H" 
			},
			{
				"x": -0.9087290512,
				"y": 0.3446042771,
				"z": 4.1933976239,
				"element": "H" 
			},
			{
				"x": -1.322617986,
				"y": -0.8468442018,
				"z": 2.946293374,
				"element": "H" 
			},
			{
				"x": 2.6077101134,
				"y": 0.2235592542,
				"z": -3.1626990104,
				"element": "H" 
			},
			{
				"x": 3.5668763848,
				"y": 2.7263644229,
				"z": -2.6029594376,
				"element": "H" 
			},
			{
				"x": 1.9653264623,
				"y": 2.7655284821,
				"z": -2.8343397192,
				"element": "H" 
			},
			{
				"x": 2.0061123272,
				"y": -1.3768755358,
				"z": -1.4962127727,
				"element": "H" 
			},
			{
				"x": 1.0698560495,
				"y": -2.9172862913,
				"z": 0.0639763878,
				"element": "H" 
			},
			{
				"x": 1.2083305724,
				"y": -2.3957302535,
				"z": 1.7514912273,
				"element": "H" 
			},
			{
				"x": -0.3460334166,
				"y": -2.297326932,
				"z": 0.930592507,
				"element": "H" 
			}
		],
		 "valence_orbital": [ 
			{
				"type": "occ",
				"energy": -0.28279,
				"method": "rhf"
			},
			{
				"type": "occ",
				"energy": -0.26997,
				"method": "rhf"
			},
			{
				"type": "occ",
				"energy": -0.2607,
				"method": "rhf"
			},
			{
				"type": "occ",
				"energy": -0.21491,
				"method": "rhf"
			},
			{
				"type": "occ",
				"energy": -0.20241,
				"method": "rhf"
			},
			{
				"type": "unocc",
				"energy": -0.02191,
				"method": "rhf"
			},
			{
				"type": "unocc",
				"energy": 0.02599,
				"method": "rhf"
			},
			{
				"type": "unocc",
				"energy": 0.05734,
				"method": "rhf"
			},
			{
				"type": "unocc",
				"energy": 0.09054,
				"method": "rhf"
			},
			{
				"type": "unocc",
				"energy": 0.09453,
				"method": "rhf"
			}
		],
		"cosmo_sigma_profile": { 
			"-0.025": 0.0,
			"-0.024": 0.0,
			"-0.023": 0.0,
			"-0.022": 0.0,
			"-0.021": 0.0,
			"-0.02": 0.0,
			"-0.019": 0.0,
			"-0.018": 0.0,
			"-0.017": 0.0,
			"-0.016": 0.0,
			"-0.015": 0.0,
			"-0.014": 0.0862423389212,
			"-0.013": 1.24210885964,
			"-0.012": 0.943850892007,
			"-0.011": 2.15789829135,
			"-0.01": 2.36169488279,
			"-0.009": 3.81815885157,
			"-0.008": 2.44774679706,
			"-0.007": 3.65288298102,
			"-0.006": 5.23962787167,
			"-0.005": 14.3822509577,
			"-0.004": 22.7220170389,
			"-0.003": 22.1563463319,
			"-0.002": 22.4011442366,
			"-0.001": 20.4042158908,
			"0.0": 18.4059598102,
			"0.001": 11.9558031561,
			"0.002": 13.2625192097,
			"0.003": 17.7891990581,
			"0.004": 14.5194754616,
			"0.005": 7.55524438448,
			"0.006": 6.17770760369,
			"0.007": 5.2416537868,
			"0.008": 4.46541159261,
			"0.009": 2.50424643146,
			"0.01": 1.91817415058,
			"0.011": 1.54541479277,
			"0.012": 2.13250638481,
			"0.013": 1.92776068261,
			"0.014": 1.81032841857,
			"0.015": 0.717819066078,
			"0.016": 1.80176636374,
			"0.017": 0.536293154032,
			"0.018": 0.0,
			"0.019": 0.0,
			"0.02": 0.0,
			"0.021": 0.0,
			"0.022": 0.0,
			"0.023": 0.0,
			"0.024": 0.0,
			"0.025": 0.0
		}
	}
}
