{
	 "smiles": "CC1=CCS(=O)(=O)C1", 
	 "Tm": 336.15, 
	 "num_atms": 16, 
	 "gaussian": { 
		 "optdone": 1, 
		 "sigma_profile": "yes", 
		 "theory": "DFT", 
		 "functional": "B3LYP", 
		 "basiset": "6-31G**", 
		 "properties": { 
			 "R2extent": 1759.5399, 
			 "electric_dipole_moment_norm": 5.2463663654, 
			 "electric_quadrupole_moment_norm": 15.1128151425, 
			 "total_energy": -743.910473395, 
			 "HOMO_LUMO_gap": 0.2634, 
			 "cosmo_polarized_energy": -13.84, 
			 "cosmo_cavitation_energy": 20.31, 
			 "cosmo_dispersion_energy": -15.89, 
			 "cosmo_repulsion_energy": 1.27, 
			 "cosmo_total_nonelectrostatic_energy": 5.68, 
			 "SMD_solvation_energy": 2.8 
		},
		"coords": [
			{
				"x": 2.1400144053,
				"y": -0.2671252315,
				"z": 1.0392384249,
				"element": "C" 
			},
			{
				"x": 0.7008866522,
				"y": -0.5920951375,
				"z": 0.7653415097,
				"element": "C" 
			},
			{
				"x": -0.2165677074,
				"y": 0.27942421,
				"z": 0.3222812204,
				"element": "C" 
			},
			{
				"x": -1.617223975,
				"y": -0.2056672743,
				"z": 0.0975286175,
				"element": "C" 
			},
			{
				"x": -1.5647762783,
				"y": -1.9878912043,
				"z": 0.5536036405,
				"element": "S" 
			},
			{
				"x": -1.7754293354,
				"y": -2.8085670338,
				"z": -0.64888799,
				"element": "O" 
			},
			{
				"x": -2.3711004854,
				"y": -2.2087842726,
				"z": 1.7639401532,
				"element": "O" 
			},
			{
				"x": 0.2193482039,
				"y": -2.0015259104,
				"z": 0.9974432341,
				"element": "C" 
			},
			{
				"x": 2.8070601508,
				"y": -0.8836362768,
				"z": 0.4240478128,
				"element": "H" 
			},
			{
				"x": 2.3973879588,
				"y": -0.470131527,
				"z": 2.0861580894,
				"element": "H" 
			},
			{
				"x": 2.3561696261,
				"y": 0.7840827738,
				"z": 0.8309953588,
				"element": "H" 
			},
			{
				"x": 0.0252403943,
				"y": 1.3200693021,
				"z": 0.1229609859,
				"element": "H" 
			},
			{
				"x": -2.3623688281,
				"y": 0.2744124402,
				"z": 0.7398331671,
				"element": "H" 
			},
			{
				"x": -1.9468605216,
				"y": -0.1445084787,
				"z": -0.9445211064,
				"element": "H" 
			},
			{
				"x": 0.2972410035,
				"y": -2.321298462,
				"z": 2.0416159854,
				"element": "H" 
			},
			{
				"x": 0.7128787362,
				"y": -2.7406579171,
				"z": 0.3581208967,
				"element": "H" 
			}
		],
		 "valence_orbital": [ 
			{
				"type": "occ",
				"energy": -0.31857,
				"method": "rhf"
			},
			{
				"type": "occ",
				"energy": -0.30674,
				"method": "rhf"
			},
			{
				"type": "occ",
				"energy": -0.29351,
				"method": "rhf"
			},
			{
				"type": "occ",
				"energy": -0.28045,
				"method": "rhf"
			},
			{
				"type": "occ",
				"energy": -0.26926,
				"method": "rhf"
			},
			{
				"type": "unocc",
				"energy": -0.00586,
				"method": "rhf"
			},
			{
				"type": "unocc",
				"energy": 0.05667,
				"method": "rhf"
			},
			{
				"type": "unocc",
				"energy": 0.06812,
				"method": "rhf"
			},
			{
				"type": "unocc",
				"energy": 0.06933,
				"method": "rhf"
			},
			{
				"type": "unocc",
				"energy": 0.07564,
				"method": "rhf"
			}
		],
		"cosmo_sigma_profile": { 
			"-0.025": 0.0,
			"-0.024": 0.0,
			"-0.023": 0.0,
			"-0.022": 0.0,
			"-0.021": 0.0,
			"-0.02": 0.0,
			"-0.019": 0.0,
			"-0.018": 0.0,
			"-0.017": 0.0,
			"-0.016": 0.0,
			"-0.015": 0.0,
			"-0.014": 0.0,
			"-0.013": 0.0,
			"-0.012": 0.0,
			"-0.011": 0.0,
			"-0.01": 0.0,
			"-0.009": 0.00672027882467,
			"-0.008": 4.74135228583,
			"-0.007": 10.1016890835,
			"-0.006": 13.5407731673,
			"-0.005": 17.8083783149,
			"-0.004": 17.7129652809,
			"-0.003": 12.3803962815,
			"-0.002": 10.4949303891,
			"-0.001": 11.9443865506,
			"0.0": 8.46903185932,
			"0.001": 4.82401334079,
			"0.002": 4.22761787249,
			"0.003": 4.5569228783,
			"0.004": 2.62419027649,
			"0.005": 1.27067666252,
			"0.006": 1.48707810045,
			"0.007": 2.24819483679,
			"0.008": 1.88496631237,
			"0.009": 3.13092464127,
			"0.01": 4.33115745958,
			"0.011": 9.28627251066,
			"0.012": 11.3665106643,
			"0.013": 1.90373787307,
			"0.014": 0.0,
			"0.015": 0.0,
			"0.016": 0.0,
			"0.017": 0.0,
			"0.018": 0.0,
			"0.019": 0.0,
			"0.02": 0.0,
			"0.021": 0.0,
			"0.022": 0.0,
			"0.023": 0.0,
			"0.024": 0.0,
			"0.025": 0.0
		}
	}
}
