{
	 "smiles": "OCC(CO)(CO)NCCCS(O)(=O)=O", 
	 "Tm": 513.15, 
	 "num_atms": 32, 
	 "gaussian": { 
		 "optdone": 1, 
		 "sigma_profile": "no", 
		 "theory": "DFT", 
		 "functional": "B3LYP", 
		 "basiset": "6-31G**", 
		 "properties": { 
			 "R2extent": 3979.076, 
			 "electric_dipole_moment_norm": 9.4682749226, 
			 "electric_quadrupole_moment_norm": 37.4280766015, 
			 "total_energy": -1181.2012579, 
			 "HOMO_LUMO_gap": 0.26543, 
			 "cosmo_polarized_energy": -33.28, 
			 "cosmo_cavitation_energy": 30.84, 
			 "cosmo_dispersion_energy": -24.01, 
			 "cosmo_repulsion_energy": 1.79, 
			 "cosmo_total_nonelectrostatic_energy": 8.61, 
			 "SMD_solvation_energy": 3.86 
		},
		"coords": [
			{
				"x": -1.6078799763,
				"y": -2.2775359903,
				"z": 0.5052321754,
				"element": "O" 
			},
			{
				"x": -0.8531649077,
				"y": -1.5948906947,
				"z": 1.4837193976,
				"element": "C" 
			},
			{
				"x": 0.4879149991,
				"y": -1.0277651852,
				"z": 0.9587400954,
				"element": "C" 
			},
			{
				"x": 1.3110271001,
				"y": -2.1089736926,
				"z": 0.2253041692,
				"element": "C" 
			},
			{
				"x": 0.6711070751,
				"y": -2.6570031394,
				"z": -0.9034808471,
				"element": "O" 
			},
			{
				"x": 1.2732382041,
				"y": -0.5201235939,
				"z": 2.1866950139,
				"element": "C" 
			},
			{
				"x": 2.3972887015,
				"y": 0.22045544,
				"z": 1.7132262156,
				"element": "O" 
			},
			{
				"x": 0.2859966971,
				"y": 0.2250157802,
				"z": 0.1039709875,
				"element": "N" 
			},
			{
				"x": 0.2092032409,
				"y": 0.1981555808,
				"z": -1.409061297,
				"element": "C" 
			},
			{
				"x": -1.1665689322,
				"y": -0.1087740831,
				"z": -2.0064819459,
				"element": "C" 
			},
			{
				"x": -2.2683378498,
				"y": 0.946587138,
				"z": -1.8316535179,
				"element": "C" 
			},
			{
				"x": -3.0343285447,
				"y": 0.9913201799,
				"z": -0.1778917408,
				"element": "S" 
			},
			{
				"x": -1.8909500465,
				"y": 1.4159224751,
				"z": 0.7414352606,
				"element": "O" 
			},
			{
				"x": -4.1235817559,
				"y": 1.9677135865,
				"z": -0.2315815195,
				"element": "O" 
			},
			{
				"x": -3.4416388166,
				"y": -0.4266080507,
				"z": 0.0879023699,
				"element": "O" 
			},
			{
				"x": -2.3833005982,
				"y": -1.6927903708,
				"z": 0.2912988982,
				"element": "H" 
			},
			{
				"x": -0.5948540816,
				"y": -2.30384651,
				"z": 2.283522232,
				"element": "H" 
			},
			{
				"x": -1.4418370882,
				"y": -0.7839944126,
				"z": 1.9266087785,
				"element": "H" 
			},
			{
				"x": 1.5439174194,
				"y": -2.8824869366,
				"z": 0.9765571588,
				"element": "H" 
			},
			{
				"x": 2.2685809849,
				"y": -1.6894821222,
				"z": -0.1028355236,
				"element": "H" 
			},
			{
				"x": -0.249003739,
				"y": -2.842707726,
				"z": -0.6316756811,
				"element": "H" 
			},
			{
				"x": 1.5890773625,
				"y": -1.3821014092,
				"z": 2.7876950365,
				"element": "H" 
			},
			{
				"x": 0.6186875446,
				"y": 0.1097262156,
				"z": 2.8058516996,
				"element": "H" 
			},
			{
				"x": 2.7761477361,
				"y": 0.7224527221,
				"z": 2.4451720613,
				"element": "H" 
			},
			{
				"x": 1.1034279277,
				"y": 0.7996218977,
				"z": 0.3382772072,
				"element": "H" 
			},
			{
				"x": 0.9318038187,
				"y": -0.527630337,
				"z": -1.7759759489,
				"element": "H" 
			},
			{
				"x": 0.5266540875,
				"y": 1.200934574,
				"z": -1.7146975331,
				"element": "H" 
			},
			{
				"x": -1.5190857401,
				"y": -1.0786951469,
				"z": -1.6523688424,
				"element": "H" 
			},
			{
				"x": -0.9901454904,
				"y": -0.2255303656,
				"z": -3.0825837732,
				"element": "H" 
			},
			{
				"x": -1.911679847,
				"y": 1.9607500918,
				"z": -2.0374418555,
				"element": "H" 
			},
			{
				"x": -3.094132175,
				"y": 0.7357735836,
				"z": -2.5159475748,
				"element": "H" 
			},
			{
				"x": -0.61768331,
				"y": 0.7575105016,
				"z": 0.4485688437,
				"element": "H" 
			}
		],
		 "valence_orbital": [ 
			{
				"type": "occ",
				"energy": -0.28631,
				"method": "rhf"
			},
			{
				"type": "occ",
				"energy": -0.27855,
				"method": "rhf"
			},
			{
				"type": "occ",
				"energy": -0.27218,
				"method": "rhf"
			},
			{
				"type": "occ",
				"energy": -0.26844,
				"method": "rhf"
			},
			{
				"type": "occ",
				"energy": -0.24322,
				"method": "rhf"
			},
			{
				"type": "unocc",
				"energy": 0.02221,
				"method": "rhf"
			},
			{
				"type": "unocc",
				"energy": 0.0574,
				"method": "rhf"
			},
			{
				"type": "unocc",
				"energy": 0.06219,
				"method": "rhf"
			},
			{
				"type": "unocc",
				"energy": 0.07546,
				"method": "rhf"
			},
			{
				"type": "unocc",
				"energy": 0.08831,
				"method": "rhf"
			}
		],
		"cosmo_sigma_profile": { 
			"0.0": 0.0,
			"0.0": 0.0,
			"0.0": 0.0,
			"0.0": 0.0,
			"0.0": 0.0,
			"0.0": 0.0,
			"0.0": 0.0,
			"0.0": 0.0,
			"0.0": 0.0,
			"0.0": 0.0,
			"0.0": 0.0,
			"0.0": 0.0,
			"0.0": 0.0,
			"0.0": 0.0,
			"0.0": 0.0,
			"0.0": 0.0,
			"0.0": 0.0,
			"0.0": 0.0,
			"0.0": 0.0,
			"0.0": 0.0,
			"0.0": 0.0,
			"0.0": 0.0,
			"0.0": 0.0,
			"0.0": 0.0,
			"0.0": 0.0,
			"0.0": 0.0,
			"0.0": 0.0,
			"0.0": 0.0,
			"0.0": 0.0,
			"0.0": 0.0,
			"0.0": 0.0,
			"0.0": 0.0,
			"0.0": 0.0,
			"0.0": 0.0,
			"0.0": 0.0,
			"0.0": 0.0,
			"0.0": 0.0,
			"0.0": 0.0,
			"0.0": 0.0,
			"0.0": 0.0,
			"0.0": 0.0,
			"0.0": 0.0,
			"0.0": 0.0,
			"0.0": 0.0,
			"0.0": 0.0,
			"0.0": 0.0,
			"0.0": 0.0,
			"0.0": 0.0,
			"0.0": 0.0,
			"0.0": 0.0,
			"0.0": 0.0
		}
	}
}
