{
	 "smiles": "COC1=C(NS(=O)(=O)C2=CC(=CC=C2)C(O)=O)C=C(Cl)C=C1", 
	 "Tm": 429.15, 
	 "num_atms": 34, 
	 "gaussian": { 
		 "optdone": 1, 
		 "sigma_profile": "yes", 
		 "theory": "DFT", 
		 "functional": "B3LYP", 
		 "basiset": "6-31G**", 
		 "properties": { 
			 "R2extent": 10611.2294, 
			 "electric_dipole_moment_norm": 5.7411413482, 
			 "electric_quadrupole_moment_norm": 26.1974615967, 
			 "total_energy": -1829.89575135, 
			 "HOMO_LUMO_gap": 0.15866, 
			 "cosmo_polarized_energy": -24.16, 
			 "cosmo_cavitation_energy": 42.6, 
			 "cosmo_dispersion_energy": -29.93, 
			 "cosmo_repulsion_energy": 2.27, 
			 "cosmo_total_nonelectrostatic_energy": 14.94, 
			 "SMD_solvation_energy": 7.92 
		},
		"coords": [
			{
				"x": 0.0281659183,
				"y": -3.0803406362,
				"z": -3.1261130584,
				"element": "C" 
			},
			{
				"x": -0.3725651286,
				"y": -2.0934218632,
				"z": -2.183694713,
				"element": "O" 
			},
			{
				"x": -0.2611242199,
				"y": -2.3788532809,
				"z": -0.8526278676,
				"element": "C" 
			},
			{
				"x": -0.70483493,
				"y": -1.3552599531,
				"z": 0.0143742562,
				"element": "C" 
			},
			{
				"x": -1.1790021432,
				"y": -0.1471176257,
				"z": -0.5598429131,
				"element": "N" 
			},
			{
				"x": -2.7631747019,
				"y": 0.4278399414,
				"z": -0.258031247,
				"element": "S" 
			},
			{
				"x": -3.0862025676,
				"y": 1.1808965143,
				"z": -1.472890457,
				"element": "O" 
			},
			{
				"x": -3.6204323813,
				"y": -0.6408695956,
				"z": 0.2538473886,
				"element": "O" 
			},
			{
				"x": -2.5207036355,
				"y": 1.6047974703,
				"z": 1.0776070891,
				"element": "C" 
			},
			{
				"x": -1.8832675976,
				"y": 2.8157872426,
				"z": 0.8039644808,
				"element": "C" 
			},
			{
				"x": -1.7133347935,
				"y": 3.746308298,
				"z": 1.8331123718,
				"element": "C" 
			},
			{
				"x": -2.2142145852,
				"y": 3.4605106433,
				"z": 3.1132674594,
				"element": "C" 
			},
			{
				"x": -2.8534222559,
				"y": 2.2516193949,
				"z": 3.3694195442,
				"element": "C" 
			},
			{
				"x": -3.0127065537,
				"y": 1.3100168723,
				"z": 2.3480802167,
				"element": "C" 
			},
			{
				"x": -1.0506097274,
				"y": 5.0802954142,
				"z": 1.6296105277,
				"element": "C" 
			},
			{
				"x": -0.2479814116,
				"y": 5.2113880604,
				"z": 0.5434487086,
				"element": "O" 
			},
			{
				"x": -1.2081679403,
				"y": 6.0092946178,
				"z": 2.3850227547,
				"element": "O" 
			},
			{
				"x": -0.6196956285,
				"y": -1.5320793444,
				"z": 1.3932568044,
				"element": "C" 
			},
			{
				"x": -0.1216592387,
				"y": -2.7306888062,
				"z": 1.9046902229,
				"element": "C" 
			},
			{
				"x": -0.0356157589,
				"y": -2.9449861696,
				"z": 3.6473716681,
				"element": "Cl" 
			},
			{
				"x": 0.3191436548,
				"y": -3.7443770934,
				"z": 1.0622669094,
				"element": "C" 
			},
			{
				"x": 0.2554387413,
				"y": -3.5604362315,
				"z": -0.3224045525,
				"element": "C" 
			},
			{
				"x": -0.1653144351,
				"y": -2.6519336149,
				"z": -4.1099532587,
				"element": "H" 
			},
			{
				"x": 1.0964139532,
				"y": -3.3108900576,
				"z": -3.032852288,
				"element": "H" 
			},
			{
				"x": -0.5556026698,
				"y": -4.0011217229,
				"z": -3.0094173083,
				"element": "H" 
			},
			{
				"x": -1.0557042953,
				"y": -0.1311923158,
				"z": -1.5708904099,
				"element": "H" 
			},
			{
				"x": -1.5751795511,
				"y": 3.0246710868,
				"z": -0.2163217994,
				"element": "H" 
			},
			{
				"x": -2.0930123236,
				"y": 4.209169426,
				"z": 3.8885293935,
				"element": "H" 
			},
			{
				"x": -3.2375336519,
				"y": 2.0391650246,
				"z": 4.3619902588,
				"element": "H" 
			},
			{
				"x": -3.5218766071,
				"y": 0.3678735465,
				"z": 2.5191964205,
				"element": "H" 
			},
			{
				"x": -0.0905172091,
				"y": 4.3534837117,
				"z": 0.125835165,
				"element": "H" 
			},
			{
				"x": -0.9334561374,
				"y": -0.7419152654,
				"z": 2.0639220667,
				"element": "H" 
			},
			{
				"x": 0.7110557628,
				"y": -4.6672076931,
				"z": 1.4737867069,
				"element": "H" 
			},
			{
				"x": 0.6004940492,
				"y": -4.3524259957,
				"z": -0.9759605412,
				"element": "H" 
			}
		],
		 "valence_orbital": [ 
			{
				"type": "occ",
				"energy": -0.29431,
				"method": "rhf"
			},
			{
				"type": "occ",
				"energy": -0.29107,
				"method": "rhf"
			},
			{
				"type": "occ",
				"energy": -0.28166,
				"method": "rhf"
			},
			{
				"type": "occ",
				"energy": -0.25874,
				"method": "rhf"
			},
			{
				"type": "occ",
				"energy": -0.22896,
				"method": "rhf"
			},
			{
				"type": "unocc",
				"energy": -0.0703,
				"method": "rhf"
			},
			{
				"type": "unocc",
				"energy": -0.0575,
				"method": "rhf"
			},
			{
				"type": "unocc",
				"energy": -0.029,
				"method": "rhf"
			},
			{
				"type": "unocc",
				"energy": -0.01314,
				"method": "rhf"
			},
			{
				"type": "unocc",
				"energy": 0.01987,
				"method": "rhf"
			}
		],
		"cosmo_sigma_profile": { 
			"-0.025": 0.0,
			"-0.024": 0.0,
			"-0.023": 0.0,
			"-0.022": 0.0,
			"-0.021": 0.0,
			"-0.02": 0.195985627349,
			"-0.019": 0.989572237146,
			"-0.018": 0.945341316425,
			"-0.017": 1.28852342404,
			"-0.016": 1.24834764566,
			"-0.015": 0.747285173297,
			"-0.014": 0.800957289688,
			"-0.013": 1.154521115,
			"-0.012": 1.22255268403,
			"-0.011": 1.50345615801,
			"-0.01": 1.89658826432,
			"-0.009": 1.69152297169,
			"-0.008": 5.89344675503,
			"-0.007": 14.779559759,
			"-0.006": 22.4213958014,
			"-0.005": 23.3964220618,
			"-0.004": 22.2094613706,
			"-0.003": 19.2629549858,
			"-0.002": 19.3064534532,
			"-0.001": 19.9322810915,
			"0.0": 26.2342414413,
			"0.001": 23.0934187313,
			"0.002": 23.6459956072,
			"0.003": 23.5955635388,
			"0.004": 16.5130537712,
			"0.005": 14.9637281303,
			"0.006": 5.81689655771,
			"0.007": 5.88637097688,
			"0.008": 6.94923845037,
			"0.009": 9.3379982086,
			"0.01": 14.5965565689,
			"0.011": 9.40631707971,
			"0.012": 2.80013131079,
			"0.013": 0.478918869048,
			"0.014": 0.0,
			"0.015": 0.0,
			"0.016": 0.0,
			"0.017": 0.0,
			"0.018": 0.0,
			"0.019": 0.0,
			"0.02": 0.0,
			"0.021": 0.0,
			"0.022": 0.0,
			"0.023": 0.0,
			"0.024": 0.0,
			"0.0": 0.0
		}
	}
}
