{
	 "smiles": "O=CC1=C2C=CC=CC2=CC=C1", 
	 "Tm": 306.65, 
	 "num_atms": 20, 
	 "gaussian": { 
		 "optdone": 1, 
		 "sigma_profile": "yes", 
		 "theory": "DFT", 
		 "functional": "B3LYP", 
		 "basiset": "6-31G**", 
		 "properties": { 
			 "R2extent": 2162.3461, 
			 "electric_dipole_moment_norm": 3.20939070386, 
			 "electric_quadrupole_moment_norm": 9.02186322497, 
			 "total_energy": -499.217952993, 
			 "HOMO_LUMO_gap": 0.15408, 
			 "cosmo_polarized_energy": -7.92, 
			 "cosmo_cavitation_energy": 23.8, 
			 "cosmo_dispersion_energy": -17.82, 
			 "cosmo_repulsion_energy": 1.37, 
			 "cosmo_total_nonelectrostatic_energy": 7.36, 
			 "SMD_solvation_energy": 4.82 
		},
		"coords": [
			{
				"x": -1.5035739793,
				"y": 0.6251773661,
				"z": -1.4566350995,
				"element": "O" 
			},
			{
				"x": -1.7095566122,
				"y": 0.4742674984,
				"z": -0.2649068141,
				"element": "C" 
			},
			{
				"x": -0.762713168,
				"y": -0.0216432512,
				"z": 0.7579987488,
				"element": "C" 
			},
			{
				"x": 0.5955798118,
				"y": -0.4152490346,
				"z": 0.4890416353,
				"element": "C" 
			},
			{
				"x": 1.1864981346,
				"y": -0.3715750543,
				"z": -0.8024912099,
				"element": "C" 
			},
			{
				"x": 2.4959013447,
				"y": -0.7642123328,
				"z": -0.9882788108,
				"element": "C" 
			},
			{
				"x": 3.2812464534,
				"y": -1.2184557239,
				"z": 0.0958996959,
				"element": "C" 
			},
			{
				"x": 2.7383878924,
				"y": -1.2728052044,
				"z": 1.3592698427,
				"element": "C" 
			},
			{
				"x": 1.3939581378,
				"y": -0.8768712471,
				"z": 1.5896145567,
				"element": "C" 
			},
			{
				"x": 0.8307167926,
				"y": -0.9319518608,
				"z": 2.8934017414,
				"element": "C" 
			},
			{
				"x": -0.4713483964,
				"y": -0.5500353568,
				"z": 3.1255986313,
				"element": "C" 
			},
			{
				"x": -1.2613231845,
				"y": -0.0957579359,
				"z": 2.0509646275,
				"element": "C" 
			},
			{
				"x": -2.7089843051,
				"y": 0.722584702,
				"z": 0.1588432194,
				"element": "H" 
			},
			{
				"x": 0.5869074258,
				"y": -0.024330485,
				"z": -1.6331352525,
				"element": "H" 
			},
			{
				"x": 2.9301796082,
				"y": -0.7236920963,
				"z": -1.983178483,
				"element": "H" 
			},
			{
				"x": 4.3102720749,
				"y": -1.5231320849,
				"z": -0.0711288519,
				"element": "H" 
			},
			{
				"x": 3.3309729327,
				"y": -1.6200523525,
				"z": 2.2017230729,
				"element": "H" 
			},
			{
				"x": 1.4529957164,
				"y": -1.2846512457,
				"z": 3.7121661978,
				"element": "H" 
			},
			{
				"x": -0.8903324242,
				"y": -0.5965946664,
				"z": 4.1259058091,
				"element": "H" 
			},
			{
				"x": -2.2900842556,
				"y": 0.2060803662,
				"z": 2.2342267431,
				"element": "H" 
			}
		],
		 "valence_orbital": [ 
			{
				"type": "occ",
				"energy": -0.33475,
				"method": "rhf"
			},
			{
				"type": "occ",
				"energy": -0.28992,
				"method": "rhf"
			},
			{
				"type": "occ",
				"energy": -0.25395,
				"method": "rhf"
			},
			{
				"type": "occ",
				"energy": -0.24994,
				"method": "rhf"
			},
			{
				"type": "occ",
				"energy": -0.22774,
				"method": "rhf"
			},
			{
				"type": "unocc",
				"energy": -0.07366,
				"method": "rhf"
			},
			{
				"type": "unocc",
				"energy": -0.01912,
				"method": "rhf"
			},
			{
				"type": "unocc",
				"energy": -0.00974,
				"method": "rhf"
			},
			{
				"type": "unocc",
				"energy": 0.05124,
				"method": "rhf"
			},
			{
				"type": "unocc",
				"energy": 0.08693,
				"method": "rhf"
			}
		],
		"cosmo_sigma_profile": { 
			"-0.025": 0.0,
			"-0.024": 0.0,
			"-0.023": 0.0,
			"-0.022": 0.0,
			"-0.021": 0.0,
			"-0.02": 0.0,
			"-0.019": 0.0,
			"-0.018": 0.0,
			"-0.017": 0.0,
			"-0.016": 0.0,
			"-0.015": 0.0,
			"-0.014": 0.0,
			"-0.013": 0.0,
			"-0.012": 0.0,
			"-0.011": 0.0,
			"-0.01": 0.0,
			"-0.009": 0.0,
			"-0.008": 0.968681824585,
			"-0.007": 8.23436529995,
			"-0.006": 15.2626890719,
			"-0.005": 15.0093005256,
			"-0.004": 14.0073372611,
			"-0.003": 12.3061278223,
			"-0.002": 10.8802431793,
			"-0.001": 11.6298245739,
			"0.0": 11.360622413,
			"0.001": 12.2030776495,
			"0.002": 22.0746525688,
			"0.003": 22.6218749849,
			"0.004": 13.9625569095,
			"0.005": 5.63235937842,
			"0.006": 2.05402315595,
			"0.007": 1.66188949772,
			"0.008": 1.70483382337,
			"0.009": 1.7186593952,
			"0.01": 2.37650113564,
			"0.011": 3.01924923212,
			"0.012": 2.23633825323,
			"0.013": 0.976181152609,
			"0.014": 0.0110273202522,
			"0.015": 0.0,
			"0.016": 0.0,
			"0.017": 0.0,
			"0.018": 0.0,
			"0.019": 0.0,
			"0.02": 0.0,
			"0.021": 0.0,
			"0.022": 0.0,
			"0.023": 0.0,
			"0.024": 0.0,
			"0.025": 0.0
		}
	}
}
