{
	 "smiles": "CCCCOC1=C(SC(C2=NN=C(O2)C2=CC=C(Cl)C=C2)=C1OCCCC)C1=NN=C(O1)C1=CC=C(Cl)C=C1", 
	 "Tm": 451.0, 
	 "num_atms": 65, 
	 "gaussian": { 
		 "optdone": 1, 
		 "sigma_profile": "yes", 
		 "theory": "DFT", 
		 "functional": "B3LYP", 
		 "basiset": "6-31G**", 
		 "properties": { 
			 "R2extent": 40235.3463, 
			 "electric_dipole_moment_norm": 1.10925961344, 
			 "electric_quadrupole_moment_norm": 12.688221689, 
			 "total_energy": -2921.06614194, 
			 "HOMO_LUMO_gap": 0.12958, 
			 "cosmo_polarized_energy": -18.61, 
			 "cosmo_cavitation_energy": 76.17, 
			 "cosmo_dispersion_energy": -51.7, 
			 "cosmo_repulsion_energy": 3.89, 
			 "cosmo_total_nonelectrostatic_energy": 28.36, 
			 "SMD_solvation_energy": 9.08 
		},
		"coords": [
			{
				"x": -3.3767684968,
				"y": -3.1620228221,
				"z": 2.5462749222,
				"element": "C" 
			},
			{
				"x": -3.4838678363,
				"y": -1.8246750494,
				"z": 1.8071991986,
				"element": "C" 
			},
			{
				"x": -2.6798231964,
				"y": -0.7066844156,
				"z": 2.4829415435,
				"element": "C" 
			},
			{
				"x": -2.7789766591,
				"y": 0.6509174306,
				"z": 1.7961344573,
				"element": "C" 
			},
			{
				"x": -2.2727861647,
				"y": 0.6297612668,
				"z": 0.4312242997,
				"element": "O" 
			},
			{
				"x": -0.9679929404,
				"y": 0.3978096879,
				"z": 0.1913555297,
				"element": "C" 
			},
			{
				"x": 0.1544347258,
				"y": 1.0800700304,
				"z": 0.6527948335,
				"element": "C" 
			},
			{
				"x": 1.6311441911,
				"y": 0.4284165284,
				"z": -0.0394597549,
				"element": "S" 
			},
			{
				"x": 0.7344510282,
				"y": -0.7403025917,
				"z": -0.9712945123,
				"element": "C" 
			},
			{
				"x": 1.4031322001,
				"y": -1.67422726,
				"z": -1.8370688058,
				"element": "C" 
			},
			{
				"x": 0.9024377858,
				"y": -2.4682530199,
				"z": -2.7460215511,
				"element": "N" 
			},
			{
				"x": 1.9721726314,
				"y": -3.1447473925,
				"z": -3.3074801374,
				"element": "N" 
			},
			{
				"x": 3.0502513452,
				"y": -2.7173841638,
				"z": -2.7136835533,
				"element": "C" 
			},
			{
				"x": 2.7659467676,
				"y": -1.7761414639,
				"z": -1.7627155941,
				"element": "O" 
			},
			{
				"x": 4.4308144024,
				"y": -3.1147784593,
				"z": -2.9446597484,
				"element": "C" 
			},
			{
				"x": 5.4845895259,
				"y": -2.5530405813,
				"z": -2.2078414365,
				"element": "C" 
			},
			{
				"x": 6.7982347627,
				"y": -2.9482744856,
				"z": -2.4454352707,
				"element": "C" 
			},
			{
				"x": 7.055164316,
				"y": -3.9090996121,
				"z": -3.4239320246,
				"element": "C" 
			},
			{
				"x": 8.7082630021,
				"y": -4.4095787244,
				"z": -3.7261488265,
				"element": "Cl" 
			},
			{
				"x": 6.0188514065,
				"y": -4.4798793656,
				"z": -4.1671909934,
				"element": "C" 
			},
			{
				"x": 4.709424584,
				"y": -4.0814293247,
				"z": -3.9257309464,
				"element": "C" 
			},
			{
				"x": -0.6240915388,
				"y": -0.6472067175,
				"z": -0.7334286685,
				"element": "C" 
			},
			{
				"x": -1.5476862986,
				"y": -1.4929236638,
				"z": -1.2417844663,
				"element": "O" 
			},
			{
				"x": -2.1599262801,
				"y": -1.0899469827,
				"z": -2.493436769,
				"element": "C" 
			},
			{
				"x": -3.0690030463,
				"y": -2.2250506016,
				"z": -2.9363140059,
				"element": "C" 
			},
			{
				"x": -3.7411618166,
				"y": -1.9754525327,
				"z": -4.2963402458,
				"element": "C" 
			},
			{
				"x": -4.7450397934,
				"y": -0.8153273462,
				"z": -4.3110166409,
				"element": "C" 
			},
			{
				"x": 0.2569164818,
				"y": 2.2481477219,
				"z": 1.4849343106,
				"element": "C" 
			},
			{
				"x": -0.6706694247,
				"y": 2.9731645237,
				"z": 2.0535538872,
				"element": "N" 
			},
			{
				"x": -0.0225124429,
				"y": 3.9981219194,
				"z": 2.7212984461,
				"element": "N" 
			},
			{
				"x": 1.2533725092,
				"y": 3.8394486576,
				"z": 2.51630273,
				"element": "C" 
			},
			{
				"x": 1.5090346211,
				"y": 2.7434760349,
				"z": 1.7382663298,
				"element": "O" 
			},
			{
				"x": 2.3578267363,
				"y": 4.6540076478,
				"z": 2.9998120254,
				"element": "C" 
			},
			{
				"x": 3.6885724495,
				"y": 4.3395387677,
				"z": 2.6850262134,
				"element": "C" 
			},
			{
				"x": 4.7299125558,
				"y": 5.1329483649,
				"z": 3.1588411134,
				"element": "C" 
			},
			{
				"x": 4.4356919551,
				"y": 6.2439414027,
				"z": 3.9498535064,
				"element": "C" 
			},
			{
				"x": 5.7443491959,
				"y": 7.2455762899,
				"z": 4.5486334847,
				"element": "Cl" 
			},
			{
				"x": 3.1168128179,
				"y": 6.5728506989,
				"z": 4.2733576922,
				"element": "C" 
			},
			{
				"x": 2.0813151543,
				"y": 5.7773201578,
				"z": 3.7975382202,
				"element": "C" 
			},
			{
				"x": -3.9613127583,
				"y": -3.9407586039,
				"z": 2.0459353747,
				"element": "H" 
			},
			{
				"x": -3.7427961307,
				"y": -3.0813103661,
				"z": 3.5766255913,
				"element": "H" 
			},
			{
				"x": -2.3374961786,
				"y": -3.5073442197,
				"z": 2.5912734082,
				"element": "H" 
			},
			{
				"x": -3.1365519584,
				"y": -1.9420236032,
				"z": 0.775385201,
				"element": "H" 
			},
			{
				"x": -4.5380959365,
				"y": -1.5198801242,
				"z": 1.7489167366,
				"element": "H" 
			},
			{
				"x": -3.0288873669,
				"y": -0.5655224925,
				"z": 3.515789084,
				"element": "H" 
			},
			{
				"x": -1.6234746897,
				"y": -0.9990661608,
				"z": 2.5609655374,
				"element": "H" 
			},
			{
				"x": -2.2686683882,
				"y": 1.4360368168,
				"z": 2.3570546757,
				"element": "H" 
			},
			{
				"x": -3.823767914,
				"y": 0.9455039343,
				"z": 1.6652881168,
				"element": "H" 
			},
			{
				"x": 5.2762158952,
				"y": -1.8073448063,
				"z": -1.4483759938,
				"element": "H" 
			},
			{
				"x": 7.6158858813,
				"y": -2.5174733394,
				"z": -1.8787888574,
				"element": "H" 
			},
			{
				"x": 6.2392613106,
				"y": -5.2252321008,
				"z": -4.9229358036,
				"element": "H" 
			},
			{
				"x": 3.8901083177,
				"y": -4.5119027931,
				"z": -4.4911414261,
				"element": "H" 
			},
			{
				"x": -2.7084354554,
				"y": -0.1558197904,
				"z": -2.3276476618,
				"element": "H" 
			},
			{
				"x": -1.3688409775,
				"y": -0.9207332191,
				"z": -3.2332408943,
				"element": "H" 
			},
			{
				"x": -2.4582765878,
				"y": -3.1330405382,
				"z": -2.9863834238,
				"element": "H" 
			},
			{
				"x": -3.8324904283,
				"y": -2.3913132735,
				"z": -2.1656224969,
				"element": "H" 
			},
			{
				"x": -2.9680973339,
				"y": -1.8042541871,
				"z": -5.0574251823,
				"element": "H" 
			},
			{
				"x": -4.2563392295,
				"y": -2.8964369164,
				"z": -4.5945051942,
				"element": "H" 
			},
			{
				"x": -5.5264312982,
				"y": -0.9604329507,
				"z": -3.5561009692,
				"element": "H" 
			},
			{
				"x": -4.2659239795,
				"y": 0.1482823149,
				"z": -4.1081965155,
				"element": "H" 
			},
			{
				"x": -5.2365359478,
				"y": -0.7350644125,
				"z": -5.2860482956,
				"element": "H" 
			},
			{
				"x": 3.9089169057,
				"y": 3.4743795531,
				"z": 2.0692484277,
				"element": "H" 
			},
			{
				"x": 5.7597013018,
				"y": 4.8943410119,
				"z": 2.91836651,
				"element": "H" 
			},
			{
				"x": 2.9089364988,
				"y": 7.4405809017,
				"z": 4.8890771843,
				"element": "H" 
			},
			{
				"x": 1.0504852319,
				"y": 6.01513881,
				"z": 4.0365280747,
				"element": "H" 
			}
		],
		 "valence_orbital": [ 
			{
				"type": "occ",
				"energy": -0.27807,
				"method": "rhf"
			},
			{
				"type": "occ",
				"energy": -0.26822,
				"method": "rhf"
			},
			{
				"type": "occ",
				"energy": -0.25258,
				"method": "rhf"
			},
			{
				"type": "occ",
				"energy": -0.24313,
				"method": "rhf"
			},
			{
				"type": "occ",
				"energy": -0.21933,
				"method": "rhf"
			},
			{
				"type": "unocc",
				"energy": -0.08975,
				"method": "rhf"
			},
			{
				"type": "unocc",
				"energy": -0.06181,
				"method": "rhf"
			},
			{
				"type": "unocc",
				"energy": -0.04955,
				"method": "rhf"
			},
			{
				"type": "unocc",
				"energy": -0.0294,
				"method": "rhf"
			},
			{
				"type": "unocc",
				"energy": -0.02868,
				"method": "rhf"
			}
		],
		"cosmo_sigma_profile": { 
			"-0.025": 0.0,
			"-0.024": 0.0,
			"-0.023": 0.0,
			"-0.022": 0.0,
			"-0.021": 0.0,
			"-0.02": 0.0,
			"-0.019": 0.0,
			"-0.018": 0.0,
			"-0.017": 0.0,
			"-0.016": 0.0,
			"-0.015": 0.0,
			"-0.014": 0.0,
			"-0.013": 0.0,
			"-0.012": 0.0,
			"-0.011": 0.0,
			"-0.01": 0.0,
			"-0.009": 0.00471364739964,
			"-0.008": 6.31935199735,
			"-0.007": 14.130553412,
			"-0.006": 17.2067895176,
			"-0.005": 18.9896826276,
			"-0.004": 31.0091292946,
			"-0.003": 58.7347539219,
			"-0.002": 72.2350019365,
			"-0.001": 72.1257332248,
			"0.0": 78.8916881958,
			"0.001": 78.0138827673,
			"0.002": 53.9885598664,
			"0.003": 26.2588663253,
			"0.004": 25.7608631141,
			"0.005": 11.1412800387,
			"0.006": 7.82914792494,
			"0.007": 8.00983768371,
			"0.008": 7.3916352793,
			"0.009": 6.86477546766,
			"0.01": 6.8657452504,
			"0.011": 6.70109238062,
			"0.012": 3.27300666806,
			"0.013": 2.21640862357,
			"0.014": 0.525953822299,
			"0.015": 0.0,
			"0.016": 0.0,
			"0.017": 0.0,
			"0.018": 0.0,
			"0.019": 0.0,
			"0.02": 0.0,
			"0.021": 0.0,
			"0.022": 0.0,
			"0.023": 0.0,
			"0.024": 0.0,
			"0.025": 0.0
		}
	}
}
