{
	 "smiles": "NCC1=CN=C(OC2=CC=C(F)C=C2)C=C1", 
	 "Tm": 325.15, 
	 "num_atms": 27, 
	 "gaussian": { 
		 "optdone": 1, 
		 "sigma_profile": "yes", 
		 "theory": "DFT", 
		 "functional": "B3LYP", 
		 "basiset": "6-31G**", 
		 "properties": { 
			 "R2extent": 5463.4221, 
			 "electric_dipole_moment_norm": 3.96814956623, 
			 "electric_quadrupole_moment_norm": 17.6321359234, 
			 "total_energy": -748.449782019, 
			 "HOMO_LUMO_gap": 0.19889, 
			 "cosmo_polarized_energy": -13.31, 
			 "cosmo_cavitation_energy": 32.23, 
			 "cosmo_dispersion_energy": -23.23, 
			 "cosmo_repulsion_energy": 1.81, 
			 "cosmo_total_nonelectrostatic_energy": 10.81, 
			 "SMD_solvation_energy": 3.8 
		},
		"coords": [
			{
				"x": 4.833703687,
				"y": 3.6796904445,
				"z": -0.1464905675,
				"element": "N" 
			},
			{
				"x": 4.4092200942,
				"y": 2.4976891137,
				"z": -0.9015253653,
				"element": "C" 
			},
			{
				"x": 3.1794721558,
				"y": 1.8587240425,
				"z": -0.2893253874,
				"element": "C" 
			},
			{
				"x": 2.9861803716,
				"y": 1.8182325719,
				"z": 1.0966537972,
				"element": "C" 
			},
			{
				"x": 1.9387736659,
				"y": 1.2387021681,
				"z": 1.6940670391,
				"element": "N" 
			},
			{
				"x": 1.0235608909,
				"y": 0.6680580438,
				"z": 0.9200610693,
				"element": "C" 
			},
			{
				"x": -0.0219756884,
				"y": 0.1267799836,
				"z": 1.6304271169,
				"element": "O" 
			},
			{
				"x": -0.9241311814,
				"y": -0.7167403255,
				"z": 1.0046458447,
				"element": "C" 
			},
			{
				"x": -2.2416480469,
				"y": -0.2843193478,
				"z": 0.8484252693,
				"element": "C" 
			},
			{
				"x": -3.1950573277,
				"y": -1.1453959789,
				"z": 0.3036197785,
				"element": "C" 
			},
			{
				"x": -2.8038244005,
				"y": -2.4231699512,
				"z": -0.0798002459,
				"element": "C" 
			},
			{
				"x": -3.7219177318,
				"y": -3.2582221838,
				"z": -0.6107841938,
				"element": "F" 
			},
			{
				"x": -1.4944597062,
				"y": -2.8693825844,
				"z": 0.0708764995,
				"element": "C" 
			},
			{
				"x": -0.5475998359,
				"y": -2.0076917107,
				"z": 0.623135253,
				"element": "C" 
			},
			{
				"x": 1.0892507538,
				"y": 0.6515155547,
				"z": -0.4795871861,
				"element": "C" 
			},
			{
				"x": 2.1890215664,
				"y": 1.2611202371,
				"z": -1.075246584,
				"element": "C" 
			},
			{
				"x": 4.142675921,
				"y": 4.4200494119,
				"z": -0.241163722,
				"element": "H" 
			},
			{
				"x": 5.7076516063,
				"y": 4.0388453461,
				"z": -0.5206505198,
				"element": "H" 
			},
			{
				"x": 4.2088301097,
				"y": 2.6855719781,
				"z": -1.9715700708,
				"element": "H" 
			},
			{
				"x": 5.2422609858,
				"y": 1.7815229353,
				"z": -0.8733500273,
				"element": "H" 
			},
			{
				"x": 3.7158928713,
				"y": 2.2895524058,
				"z": 1.7500878669,
				"element": "H" 
			},
			{
				"x": -2.5091543631,
				"y": 0.7181663513,
				"z": 1.1647612848,
				"element": "H" 
			},
			{
				"x": -4.2273052582,
				"y": -0.8390470571,
				"z": 0.1744456366,
				"element": "H" 
			},
			{
				"x": -1.2339181357,
				"y": -3.8776494799,
				"z": -0.2319848509,
				"element": "H" 
			},
			{
				"x": 0.4776234341,
				"y": -2.3315810864,
				"z": 0.768358946,
				"element": "H" 
			},
			{
				"x": 0.3085716211,
				"y": 0.193738891,
				"z": -1.074478566,
				"element": "H" 
			},
			{
				"x": 2.271201941,
				"y": 1.2770402263,
				"z": -2.1599081148,
				"element": "H" 
			}
		],
		 "valence_orbital": [ 
			{
				"type": "occ",
				"energy": -0.26867,
				"method": "rhf"
			},
			{
				"type": "occ",
				"energy": -0.26268,
				"method": "rhf"
			},
			{
				"type": "occ",
				"energy": -0.2456,
				"method": "rhf"
			},
			{
				"type": "occ",
				"energy": -0.24109,
				"method": "rhf"
			},
			{
				"type": "occ",
				"energy": -0.22481,
				"method": "rhf"
			},
			{
				"type": "unocc",
				"energy": -0.02592,
				"method": "rhf"
			},
			{
				"type": "unocc",
				"energy": -0.01286,
				"method": "rhf"
			},
			{
				"type": "unocc",
				"energy": -0.00573,
				"method": "rhf"
			},
			{
				"type": "unocc",
				"energy": 0.00499,
				"method": "rhf"
			},
			{
				"type": "unocc",
				"energy": 0.08076,
				"method": "rhf"
			}
		],
		"cosmo_sigma_profile": { 
			"-0.025": 0.0,
			"-0.024": 0.0,
			"-0.023": 0.0,
			"-0.022": 0.0,
			"-0.021": 0.0,
			"-0.02": 0.0,
			"-0.019": 0.0,
			"-0.018": 0.0,
			"-0.017": 0.0,
			"-0.016": 0.0,
			"-0.015": 0.0,
			"-0.014": 0.0,
			"-0.013": 0.0,
			"-0.012": 0.0,
			"-0.011": 0.0630724697551,
			"-0.01": 1.88285566386,
			"-0.009": 2.7535282882,
			"-0.008": 4.89379862893,
			"-0.007": 11.360847682,
			"-0.006": 13.356495561,
			"-0.005": 18.0550703703,
			"-0.004": 16.2410153018,
			"-0.003": 18.4968231535,
			"-0.002": 18.2449437156,
			"-0.001": 16.4696337892,
			"0.0": 17.7992003884,
			"0.001": 22.5361816084,
			"0.002": 26.1619192636,
			"0.003": 21.5743070184,
			"0.004": 13.8185440795,
			"0.005": 7.20862341707,
			"0.006": 3.17415097053,
			"0.007": 2.76506872886,
			"0.008": 2.70710120593,
			"0.009": 2.24021783918,
			"0.01": 2.96596299385,
			"0.011": 2.83258477078,
			"0.012": 2.19751698309,
			"0.013": 2.15769828637,
			"0.014": 1.96600248241,
			"0.015": 1.43050954213,
			"0.016": 1.67119631728,
			"0.017": 0.259232348126,
			"0.018": 0.0,
			"0.019": 0.0,
			"0.02": 0.0,
			"0.021": 0.0,
			"0.022": 0.0,
			"0.023": 0.0,
			"0.024": 0.0,
			"0.025": 0.0
		}
	}
}
