{
	 "smiles": "OC1=CC2=C(C=C1Cl)C1(OC(=O)C3=C1C=CC=C3)C1=CC(Cl)=C(O)C=C1O2", 
	 "Tm": 553.15, 
	 "num_atms": 37, 
	 "gaussian": { 
		 "optdone": 1, 
		 "sigma_profile": "yes", 
		 "theory": "DFT", 
		 "functional": "B3LYP", 
		 "basiset": "6-31G**", 
		 "properties": { 
			 "R2extent": 11934.8411, 
			 "electric_dipole_moment_norm": 4.78762505633, 
			 "electric_quadrupole_moment_norm": 18.5515308077, 
			 "total_energy": -2064.6690989, 
			 "HOMO_LUMO_gap": 0.17408, 
			 "cosmo_polarized_energy": -17.74, 
			 "cosmo_cavitation_energy": 45.5, 
			 "cosmo_dispersion_energy": -32.06, 
			 "cosmo_repulsion_energy": 2.42, 
			 "cosmo_total_nonelectrostatic_energy": 15.86, 
			 "SMD_solvation_energy": 8.82 
		},
		"coords": [
			{
				"x": 3.8428767628,
				"y": -3.5494725741,
				"z": 2.9985723221,
				"element": "O" 
			},
			{
				"x": 3.1733757114,
				"y": -2.5714970858,
				"z": 2.35003629,
				"element": "C" 
			},
			{
				"x": 2.2805159808,
				"y": -1.7865398664,
				"z": 3.0741904177,
				"element": "C" 
			},
			{
				"x": 1.5712333331,
				"y": -0.767011791,
				"z": 2.4383210392,
				"element": "C" 
			},
			{
				"x": 1.7191286356,
				"y": -0.5029101378,
				"z": 1.0716370374,
				"element": "C" 
			},
			{
				"x": 2.6198906556,
				"y": -1.2996085354,
				"z": 0.3516827085,
				"element": "C" 
			},
			{
				"x": 3.3304737784,
				"y": -2.3115374422,
				"z": 0.9732768346,
				"element": "C" 
			},
			{
				"x": 4.4578404984,
				"y": -3.3074538302,
				"z": 0.0563029361,
				"element": "Cl" 
			},
			{
				"x": 0.9896894826,
				"y": 0.6414250149,
				"z": 0.3995528264,
				"element": "C" 
			},
			{
				"x": 1.9882005286,
				"y": 1.6689170777,
				"z": 0.0272651534,
				"element": "O" 
			},
			{
				"x": 2.0092200051,
				"y": 1.8990075954,
				"z": -1.3259791295,
				"element": "C" 
			},
			{
				"x": 2.7497145693,
				"y": 2.6982671955,
				"z": -1.8426560019,
				"element": "O" 
			},
			{
				"x": 0.9969906883,
				"y": 1.0120056604,
				"z": -1.9464461103,
				"element": "C" 
			},
			{
				"x": 0.3866620464,
				"y": 0.2644264279,
				"z": -0.9476259369,
				"element": "C" 
			},
			{
				"x": -0.6107897177,
				"y": -0.6562076094,
				"z": -1.2584750756,
				"element": "C" 
			},
			{
				"x": -0.9715578578,
				"y": -0.7985834585,
				"z": -2.6012237541,
				"element": "C" 
			},
			{
				"x": -0.3519236721,
				"y": -0.0407292419,
				"z": -3.6081285638,
				"element": "C" 
			},
			{
				"x": 0.6460453329,
				"y": 0.8792335494,
				"z": -3.28950152,
				"element": "C" 
			},
			{
				"x": -0.00752702,
				"y": 1.2747463556,
				"z": 1.347022797,
				"element": "C" 
			},
			{
				"x": -0.8676404402,
				"y": 2.2905013287,
				"z": 0.9078229275,
				"element": "C" 
			},
			{
				"x": -1.7429389752,
				"y": 2.9106564589,
				"z": 1.7822125088,
				"element": "C" 
			},
			{
				"x": -2.8206960167,
				"y": 4.1843862102,
				"z": 1.2167820655,
				"element": "Cl" 
			},
			{
				"x": -1.7955927426,
				"y": 2.5428947117,
				"z": 3.1422500193,
				"element": "C" 
			},
			{
				"x": -2.6349705262,
				"y": 3.1176701396,
				"z": 4.0312646174,
				"element": "O" 
			},
			{
				"x": -0.9460865312,
				"y": 1.5345017745,
				"z": 3.5886107514,
				"element": "C" 
			},
			{
				"x": -0.0653999737,
				"y": 0.9177610003,
				"z": 2.6992982233,
				"element": "C" 
			},
			{
				"x": 0.7190062353,
				"y": -0.0622174603,
				"z": 3.2444519839,
				"element": "O" 
			},
			{
				"x": 4.4279193937,
				"y": -4.0003853536,
				"z": 2.3699539182,
				"element": "H" 
			},
			{
				"x": 2.1398201249,
				"y": -1.9669158183,
				"z": 4.1331413416,
				"element": "H" 
			},
			{
				"x": 2.7689492616,
				"y": -1.1224073744,
				"z": -0.7075268465,
				"element": "H" 
			},
			{
				"x": -1.0952155482,
				"y": -1.24632299,
				"z": -0.4863963612,
				"element": "H" 
			},
			{
				"x": -1.7467360389,
				"y": -1.5095310554,
				"z": -2.8720898293,
				"element": "H" 
			},
			{
				"x": -0.6556701061,
				"y": -0.1756233658,
				"z": -4.641732303,
				"element": "H" 
			},
			{
				"x": 1.141237213,
				"y": 1.4776809827,
				"z": -4.0475981469,
				"element": "H" 
			},
			{
				"x": -0.8486091804,
				"y": 2.6015921761,
				"z": -0.1306404165,
				"element": "H" 
			},
			{
				"x": -3.152559828,
				"y": 3.8016103242,
				"z": 3.5783980987,
				"element": "H" 
			},
			{
				"x": -0.9680760628,
				"y": 1.2316710068,
				"z": 4.6285731775,
				"element": "H" 
			}
		],
		 "valence_orbital": [ 
			{
				"type": "occ",
				"energy": -0.27436,
				"method": "rhf"
			},
			{
				"type": "occ",
				"energy": -0.26833,
				"method": "rhf"
			},
			{
				"type": "occ",
				"energy": -0.25208,
				"method": "rhf"
			},
			{
				"type": "occ",
				"energy": -0.23868,
				"method": "rhf"
			},
			{
				"type": "occ",
				"energy": -0.23,
				"method": "rhf"
			},
			{
				"type": "unocc",
				"energy": -0.05592,
				"method": "rhf"
			},
			{
				"type": "unocc",
				"energy": -0.03903,
				"method": "rhf"
			},
			{
				"type": "unocc",
				"energy": -0.03332,
				"method": "rhf"
			},
			{
				"type": "unocc",
				"energy": -0.02444,
				"method": "rhf"
			},
			{
				"type": "unocc",
				"energy": -0.01242,
				"method": "rhf"
			}
		],
		"cosmo_sigma_profile": { 
			"-0.025": 0.0,
			"-0.024": 0.0,
			"-0.023": 0.0,
			"-0.022": 0.0,
			"-0.021": 0.0,
			"-0.02": 0.0,
			"-0.019": 0.0,
			"-0.018": 0.0,
			"-0.017": 0.0,
			"-0.016": 0.340025273046,
			"-0.015": 1.5998050084,
			"-0.014": 1.04097571572,
			"-0.013": 0.912184300595,
			"-0.012": 1.37860683774,
			"-0.011": 2.38834942185,
			"-0.01": 2.19821677147,
			"-0.009": 1.59535869596,
			"-0.008": 5.68180273685,
			"-0.007": 17.7146385964,
			"-0.006": 18.88484903,
			"-0.005": 19.0414868466,
			"-0.004": 15.2672845761,
			"-0.003": 17.4941813572,
			"-0.002": 22.1250867281,
			"-0.001": 26.933722839,
			"0.0": 34.0458167752,
			"0.001": 51.3683467896,
			"0.002": 39.3611501995,
			"0.003": 27.1829729886,
			"0.004": 15.6056249072,
			"0.005": 7.47037092886,
			"0.006": 5.76450538015,
			"0.007": 5.8367443209,
			"0.008": 5.81013178395,
			"0.009": 6.91022589604,
			"0.01": 7.17105428401,
			"0.011": 5.34274911858,
			"0.012": 4.30642362514,
			"0.013": 0.924080652188,
			"0.014": 0.0,
			"0.015": 0.0,
			"0.016": 0.0,
			"0.017": 0.0,
			"0.018": 0.0,
			"0.019": 0.0,
			"0.02": 0.0,
			"0.021": 0.0,
			"0.022": 0.0,
			"0.023": 0.0,
			"0.024": 0.0,
			"0.025": 0.0
		}
	}
}
