{
	 "smiles": "OC1=C(F)C=C(Br)C=C1F", 
	 "Tm": 323.15, 
	 "num_atms": 13, 
	 "gaussian": { 
		 "optdone": 1, 
		 "sigma_profile": "yes", 
		 "theory": "DFT", 
		 "functional": "B3LYP", 
		 "basiset": "6-31G**", 
		 "properties": { 
			 "R2extent": 2768.5614, 
			 "electric_dipole_moment_norm": 1.40855120603, 
			 "electric_quadrupole_moment_norm": 5.25776139341, 
			 "total_energy": -3076.72670276, 
			 "HOMO_LUMO_gap": 0.21586, 
			 "cosmo_polarized_energy": -6.34, 
			 "cosmo_cavitation_energy": 21.05, 
			 "cosmo_dispersion_energy": -15.95, 
			 "cosmo_repulsion_energy": 1.25, 
			 "cosmo_total_nonelectrostatic_energy": 6.34, 
			 "SMD_solvation_energy": 3.87 
		},
		"coords": [
			{
				"x": 0.7614159219,
				"y": 0.9288630675,
				"z": -2.6813914517,
				"element": "O" 
			},
			{
				"x": 0.15637876,
				"y": 0.7948141961,
				"z": -1.4756724207,
				"element": "C" 
			},
			{
				"x": 0.1268971594,
				"y": 1.8615914005,
				"z": -0.5717917732,
				"element": "C" 
			},
			{
				"x": 0.7116491917,
				"y": 3.015143141,
				"z": -0.9306807721,
				"element": "F" 
			},
			{
				"x": -0.4848371739,
				"y": 1.756819463,
				"z": 0.6715227564,
				"element": "C" 
			},
			{
				"x": -1.0869253902,
				"y": 0.5498927935,
				"z": 1.0261143276,
				"element": "C" 
			},
			{
				"x": -1.9299664103,
				"y": 0.390564213,
				"z": 2.7288012136,
				"element": "Br" 
			},
			{
				"x": -1.0848797554,
				"y": -0.5433211891,
				"z": 0.160767638,
				"element": "C" 
			},
			{
				"x": -0.4618496958,
				"y": -0.3889563656,
				"z": -1.0679897466,
				"element": "C" 
			},
			{
				"x": -0.4264062223,
				"y": -1.4167052248,
				"z": -1.9541362858,
				"element": "F" 
			},
			{
				"x": 0.6717066054,
				"y": 0.0862509548,
				"z": -3.150382246,
				"element": "H" 
			},
			{
				"x": -0.4816983028,
				"y": 2.610641422,
				"z": 1.3371343232,
				"element": "H" 
			},
			{
				"x": -1.5475846876,
				"y": -1.4866978719,
				"z": 0.4208044375,
				"element": "H" 
			}
		],
		 "valence_orbital": [ 
			{
				"type": "occ",
				"energy": -0.37767,
				"method": "rhf"
			},
			{
				"type": "occ",
				"energy": -0.30252,
				"method": "rhf"
			},
			{
				"type": "occ",
				"energy": -0.29658,
				"method": "rhf"
			},
			{
				"type": "occ",
				"energy": -0.26575,
				"method": "rhf"
			},
			{
				"type": "occ",
				"energy": -0.23413,
				"method": "rhf"
			},
			{
				"type": "unocc",
				"energy": -0.01827,
				"method": "rhf"
			},
			{
				"type": "unocc",
				"energy": -0.01672,
				"method": "rhf"
			},
			{
				"type": "unocc",
				"energy": -0.00939,
				"method": "rhf"
			},
			{
				"type": "unocc",
				"energy": 0.05417,
				"method": "rhf"
			},
			{
				"type": "unocc",
				"energy": 0.11499,
				"method": "rhf"
			}
		],
		"cosmo_sigma_profile": { 
			"-0.025": 0.0,
			"-0.024": 0.0,
			"-0.023": 0.0,
			"-0.022": 0.0,
			"-0.021": 0.0,
			"-0.02": 0.0,
			"-0.019": 0.0,
			"-0.018": 0.163433408136,
			"-0.017": 0.708140475785,
			"-0.016": 0.372825394152,
			"-0.015": 0.851296598623,
			"-0.014": 0.730910873206,
			"-0.013": 0.41905292978,
			"-0.012": 1.0465884784,
			"-0.011": 1.28041785769,
			"-0.01": 1.10969965184,
			"-0.009": 1.90027370159,
			"-0.008": 4.09860651366,
			"-0.007": 4.23338072675,
			"-0.006": 3.90278346206,
			"-0.005": 4.5674000297,
			"-0.004": 6.21514324285,
			"-0.003": 6.09859034458,
			"-0.002": 8.66921344298,
			"-0.001": 18.2978584548,
			"0.0": 17.8877291903,
			"0.001": 19.3981312294,
			"0.002": 17.7926849905,
			"0.003": 20.2286887868,
			"0.004": 19.6731673603,
			"0.005": 4.05649992516,
			"0.006": 2.26107982451,
			"0.007": 2.1021043079,
			"0.008": 1.53263773523,
			"0.009": 2.08792003677,
			"0.01": 1.44148275052,
			"0.011": 0.0,
			"0.012": 0.0,
			"0.013": 0.0,
			"0.014": 0.0,
			"0.015": 0.0,
			"0.016": 0.0,
			"0.017": 0.0,
			"0.018": 0.0,
			"0.019": 0.0,
			"0.02": 0.0,
			"0.021": 0.0,
			"0.022": 0.0,
			"0.023": 0.0,
			"0.024": 0.0,
			"0.025": 0.0
		}
	}
}
