{
	 "smiles": "CC1=NC(CSC2=CC=C(C=C2)C(O)=O)=CS1", 
	 "Tm": 361.65, 
	 "num_atms": 28, 
	 "gaussian": { 
		 "optdone": 1, 
		 "sigma_profile": "yes", 
		 "theory": "DFT", 
		 "functional": "B3LYP", 
		 "basiset": "6-31G**", 
		 "properties": { 
			 "R2extent": 7544.6372, 
			 "electric_dipole_moment_norm": 7.01963006789, 
			 "electric_quadrupole_moment_norm": 24.8354765344, 
			 "total_energy": -1465.48779614, 
			 "HOMO_LUMO_gap": 0.17605, 
			 "cosmo_polarized_energy": -17.88, 
			 "cosmo_cavitation_energy": 36.01, 
			 "cosmo_dispersion_energy": -26.63, 
			 "cosmo_repulsion_energy": 1.98, 
			 "cosmo_total_nonelectrostatic_energy": 11.36, 
			 "SMD_solvation_energy": 5.9 
		},
		"coords": [
			{
				"x": 2.0517185605,
				"y": -0.2257169056,
				"z": -3.7745881771,
				"element": "C" 
			},
			{
				"x": 1.2433234321,
				"y": 0.9969818366,
				"z": -3.4656374925,
				"element": "C" 
			},
			{
				"x": 0.8990930067,
				"y": 1.3694639119,
				"z": -2.2671319763,
				"element": "N" 
			},
			{
				"x": 0.1549904657,
				"y": 2.5348024973,
				"z": -2.2776600518,
				"element": "C" 
			},
			{
				"x": -0.3326723552,
				"y": 3.1190755842,
				"z": -0.9871049942,
				"element": "C" 
			},
			{
				"x": -1.8323076919,
				"y": 2.303597844,
				"z": -0.2565998818,
				"element": "S" 
			},
			{
				"x": -1.1771894448,
				"y": 1.2085502861,
				"z": 0.9900694026,
				"element": "C" 
			},
			{
				"x": -1.9733577464,
				"y": 0.9976076219,
				"z": 2.1296131195,
				"element": "C" 
			},
			{
				"x": -1.5542918556,
				"y": 0.127225457,
				"z": 3.1272003629,
				"element": "C" 
			},
			{
				"x": -0.3330728255,
				"y": -0.5529721055,
				"z": 3.0152064184,
				"element": "C" 
			},
			{
				"x": 0.4629513212,
				"y": -0.326032603,
				"z": 1.8838417432,
				"element": "C" 
			},
			{
				"x": 0.047112447,
				"y": 0.53500291,
				"z": 0.8698652009,
				"element": "C" 
			},
			{
				"x": 0.064850424,
				"y": -1.46068231,
				"z": 4.1358561266,
				"element": "C" 
			},
			{
				"x": 1.0239474484,
				"y": -2.3889009469,
				"z": 3.8634105203,
				"element": "O" 
			},
			{
				"x": -0.4193508282,
				"y": -1.4056477875,
				"z": 5.2426164757,
				"element": "O" 
			},
			{
				"x": -0.0676399197,
				"y": 3.0655398273,
				"z": -3.5173526578,
				"element": "C" 
			},
			{
				"x": 0.6699679763,
				"y": 2.0771763046,
				"z": -4.7345683837,
				"element": "S" 
			},
			{
				"x": 2.9746145327,
				"y": 0.0261346767,
				"z": -4.3071723977,
				"element": "H" 
			},
			{
				"x": 1.4895921757,
				"y": -0.9297256685,
				"z": -4.3971159424,
				"element": "H" 
			},
			{
				"x": 2.3108328329,
				"y": -0.718661151,
				"z": -2.8359465182,
				"element": "H" 
			},
			{
				"x": -0.6345745828,
				"y": 4.1580739481,
				"z": -1.1369980707,
				"element": "H" 
			},
			{
				"x": 0.4505151452,
				"y": 3.1021489651,
				"z": -0.2256550231,
				"element": "H" 
			},
			{
				"x": -2.9124411231,
				"y": 1.53207131,
				"z": 2.2360909461,
				"element": "H" 
			},
			{
				"x": -2.1543007316,
				"y": -0.0306424916,
				"z": 4.0169896537,
				"element": "H" 
			},
			{
				"x": 1.4367852897,
				"y": -0.8009842956,
				"z": 1.7839336504,
				"element": "H" 
			},
			{
				"x": 0.6590765211,
				"y": 0.6662799832,
				"z": -0.0170071756,
				"element": "H" 
			},
			{
				"x": 1.1906572067,
				"y": -2.4236331796,
				"z": 2.9115574407,
				"element": "H" 
			},
			{
				"x": -0.6147296812,
				"y": 3.9611664808,
				"z": -3.775712318,
				"element": "H" 
			}
		],
		 "valence_orbital": [ 
			{
				"type": "occ",
				"energy": -0.28909,
				"method": "rhf"
			},
			{
				"type": "occ",
				"energy": -0.26892,
				"method": "rhf"
			},
			{
				"type": "occ",
				"energy": -0.26394,
				"method": "rhf"
			},
			{
				"type": "occ",
				"energy": -0.25009,
				"method": "rhf"
			},
			{
				"type": "occ",
				"energy": -0.22401,
				"method": "rhf"
			},
			{
				"type": "unocc",
				"energy": -0.04796,
				"method": "rhf"
			},
			{
				"type": "unocc",
				"energy": -0.03891,
				"method": "rhf"
			},
			{
				"type": "unocc",
				"energy": -0.01992,
				"method": "rhf"
			},
			{
				"type": "unocc",
				"energy": 0.0042,
				"method": "rhf"
			},
			{
				"type": "unocc",
				"energy": 0.01346,
				"method": "rhf"
			}
		],
		"cosmo_sigma_profile": { 
			"-0.025": 0.0,
			"-0.024": 0.0,
			"-0.023": 0.0,
			"-0.022": 0.0,
			"-0.021": 0.0,
			"-0.02": 0.0,
			"-0.019": 0.0860474410234,
			"-0.018": 0.982878386461,
			"-0.017": 1.00543186271,
			"-0.016": 1.05435627484,
			"-0.015": 0.773692943692,
			"-0.014": 0.935182182231,
			"-0.013": 0.59343636455,
			"-0.012": 1.6845508372,
			"-0.011": 1.37272022677,
			"-0.01": 1.00753131825,
			"-0.009": 2.76216012485,
			"-0.008": 5.93600910851,
			"-0.007": 7.992231399,
			"-0.006": 14.4912853123,
			"-0.005": 19.0638160783,
			"-0.004": 19.8205402295,
			"-0.003": 18.4254917012,
			"-0.002": 19.4501583067,
			"-0.001": 18.8571105778,
			"0.0": 17.6022900629,
			"0.001": 19.3768020759,
			"0.002": 24.3115816213,
			"0.003": 29.8720517186,
			"0.004": 14.3211966395,
			"0.005": 9.56112266647,
			"0.006": 8.78960184302,
			"0.007": 5.73274455611,
			"0.008": 5.25476430171,
			"0.009": 4.6019602424,
			"0.01": 4.2540637882,
			"0.011": 5.44087968771,
			"0.012": 5.1594447381,
			"0.013": 1.9245432011,
			"0.014": 0.14357104314,
			"0.015": 0.0,
			"0.016": 0.0,
			"0.017": 0.0,
			"0.018": 0.0,
			"0.019": 0.0,
			"0.02": 0.0,
			"0.021": 0.0,
			"0.022": 0.0,
			"0.023": 0.0,
			"0.024": 0.0,
			"0.025": 0.0
		}
	}
}
