{
	 "smiles": "CC1=C(C=C(N)C=C1)N1CCCS1(=O)=O", 
	 "Tm": 402.15, 
	 "num_atms": 29, 
	 "gaussian": { 
		 "optdone": 1, 
		 "sigma_profile": "yes", 
		 "theory": "DFT", 
		 "functional": "B3LYP", 
		 "basiset": "6-31G**", 
		 "properties": { 
			 "R2extent": 4523.1478, 
			 "electric_dipole_moment_norm": 5.1479474638, 
			 "electric_quadrupole_moment_norm": 25.5710284944, 
			 "total_energy": -1047.5749505, 
			 "HOMO_LUMO_gap": 0.19282, 
			 "cosmo_polarized_energy": -19.97, 
			 "cosmo_cavitation_energy": 32.33, 
			 "cosmo_dispersion_energy": -23.46, 
			 "cosmo_repulsion_energy": 1.8, 
			 "cosmo_total_nonelectrostatic_energy": 10.67, 
			 "SMD_solvation_energy": 4.41 
		},
		"coords": [
			{
				"x": 2.1649741858,
				"y": 1.9075962963,
				"z": 1.3693149873,
				"element": "C" 
			},
			{
				"x": 1.3981783087,
				"y": 0.8323043667,
				"z": 0.6405770076,
				"element": "C" 
			},
			{
				"x": -0.0066456662,
				"y": 0.8485733222,
				"z": 0.5522737581,
				"element": "C" 
			},
			{
				"x": -0.7109249538,
				"y": -0.1657158308,
				"z": -0.103081977,
				"element": "C" 
			},
			{
				"x": -0.0318547976,
				"y": -1.2473414781,
				"z": -0.6851316938,
				"element": "C" 
			},
			{
				"x": -0.7362631546,
				"y": -2.2986569688,
				"z": -1.2704448716,
				"element": "N" 
			},
			{
				"x": 1.3705987602,
				"y": -1.2635150747,
				"z": -0.6202419242,
				"element": "C" 
			},
			{
				"x": 2.0562228347,
				"y": -0.2409503431,
				"z": 0.0283651356,
				"element": "C" 
			},
			{
				"x": -0.7202353586,
				"y": 1.9490384383,
				"z": 1.1371916013,
				"element": "N" 
			},
			{
				"x": -0.8796675476,
				"y": 3.20670183,
				"z": 0.384861905,
				"element": "C" 
			},
			{
				"x": -2.029826433,
				"y": 4.0113757631,
				"z": 1.0520565558,
				"element": "C" 
			},
			{
				"x": -2.2518228669,
				"y": 3.4347249751,
				"z": 2.4528950318,
				"element": "C" 
			},
			{
				"x": -2.0347269095,
				"y": 1.6559662869,
				"z": 2.176805482,
				"element": "S" 
			},
			{
				"x": -1.5596739803,
				"y": 0.9290125274,
				"z": 3.3550211964,
				"element": "O" 
			},
			{
				"x": -3.2275822568,
				"y": 1.1627875283,
				"z": 1.4650496044,
				"element": "O" 
			},
			{
				"x": 1.6722183267,
				"y": 2.1725049523,
				"z": 2.3092914266,
				"element": "H" 
			},
			{
				"x": 2.2556689269,
				"y": 2.8289820859,
				"z": 0.7782010708,
				"element": "H" 
			},
			{
				"x": 3.1805037799,
				"y": 1.5711665997,
				"z": 1.5963050721,
				"element": "H" 
			},
			{
				"x": -1.7945568879,
				"y": -0.1157083279,
				"z": -0.1447073889,
				"element": "H" 
			},
			{
				"x": -1.6848806812,
				"y": -2.0869554084,
				"z": -1.5459513157,
				"element": "H" 
			},
			{
				"x": -0.2367428661,
				"y": -2.817773399,
				"z": -1.9786428573,
				"element": "H" 
			},
			{
				"x": 1.9208325587,
				"y": -2.0886432416,
				"z": -1.0656002076,
				"element": "H" 
			},
			{
				"x": 3.1415581259,
				"y": -0.2849473855,
				"z": 0.0760011729,
				"element": "H" 
			},
			{
				"x": -1.1074639771,
				"y": 3.0096941125,
				"z": -0.6693686825,
				"element": "H" 
			},
			{
				"x": 0.065322845,
				"y": 3.7595086384,
				"z": 0.4297614928,
				"element": "H" 
			},
			{
				"x": -2.9482668994,
				"y": 3.8952105484,
				"z": 0.4718383299,
				"element": "H" 
			},
			{
				"x": -1.7911731038,
				"y": 5.0767803962,
				"z": 1.0953650941,
				"element": "H" 
			},
			{
				"x": -3.254828234,
				"y": 3.5978885476,
				"z": 2.849422995,
				"element": "H" 
			},
			{
				"x": -1.4993420782,
				"y": 3.7471902426,
				"z": 3.1802719991,
				"element": "H" 
			}
		],
		 "valence_orbital": [ 
			{
				"type": "occ",
				"energy": -0.29563,
				"method": "rhf"
			},
			{
				"type": "occ",
				"energy": -0.29011,
				"method": "rhf"
			},
			{
				"type": "occ",
				"energy": -0.25542,
				"method": "rhf"
			},
			{
				"type": "occ",
				"energy": -0.23377,
				"method": "rhf"
			},
			{
				"type": "occ",
				"energy": -0.19728,
				"method": "rhf"
			},
			{
				"type": "unocc",
				"energy": -0.00446,
				"method": "rhf"
			},
			{
				"type": "unocc",
				"energy": 0.01517,
				"method": "rhf"
			},
			{
				"type": "unocc",
				"energy": 0.06307,
				"method": "rhf"
			},
			{
				"type": "unocc",
				"energy": 0.06897,
				"method": "rhf"
			},
			{
				"type": "unocc",
				"energy": 0.07604,
				"method": "rhf"
			}
		],
		"cosmo_sigma_profile": { 
			"-0.025": 0.0,
			"-0.024": 0.0,
			"-0.023": 0.0,
			"-0.022": 0.0,
			"-0.021": 0.0,
			"-0.02": 0.0,
			"-0.019": 0.0,
			"-0.018": 0.0,
			"-0.017": 0.0,
			"-0.016": 0.0,
			"-0.015": 0.0,
			"-0.014": 0.0,
			"-0.013": 0.425328926558,
			"-0.012": 2.36795201853,
			"-0.011": 2.88560847571,
			"-0.01": 2.99886785365,
			"-0.009": 4.49007501648,
			"-0.008": 6.76776186691,
			"-0.007": 7.31691397728,
			"-0.006": 11.6781010582,
			"-0.005": 24.7486720502,
			"-0.004": 24.6006393079,
			"-0.003": 19.3270584944,
			"-0.002": 14.7321775678,
			"-0.001": 13.8026915066,
			"0.0": 14.4811938046,
			"0.001": 12.2477612159,
			"0.002": 9.39623562528,
			"0.003": 9.90761033108,
			"0.004": 8.32619526675,
			"0.005": 11.4891125259,
			"0.006": 12.3154135439,
			"0.007": 4.93335509014,
			"0.008": 3.92443593478,
			"0.009": 4.10052383011,
			"0.01": 6.79547606286,
			"0.011": 12.2889060816,
			"0.012": 6.59557447682,
			"0.013": 0.918117076863,
			"0.014": 0.588665352443,
			"0.015": 0.126699664727,
			"0.016": 0.0,
			"0.017": 0.0,
			"0.018": 0.0,
			"0.019": 0.0,
			"0.02": 0.0,
			"0.021": 0.0,
			"0.022": 0.0,
			"0.023": 0.0,
			"0.024": 0.0,
			"0.025": 0.0
		}
	}
}
