{
	 "smiles": "CC(OC1=CC=C(Cl)C=C1C)C(=O)NC1=CC=C2N=C(SCC3=CC=CC=C3)SC2=C1", 
	 "Tm": 441.15, 
	 "num_atms": 52, 
	 "gaussian": { 
		 "optdone": 1, 
		 "sigma_profile": "yes", 
		 "theory": "DFT", 
		 "functional": "B3LYP", 
		 "basiset": "6-31G**", 
		 "properties": { 
			 "R2extent": 32685.89, 
			 "electric_dipole_moment_norm": 5.67584071834, 
			 "electric_quadrupole_moment_norm": 19.1338763485, 
			 "total_energy": -2443.75046528, 
			 "HOMO_LUMO_gap": 0.1703, 
			 "cosmo_polarized_energy": -16.55, 
			 "cosmo_cavitation_energy": 61.45, 
			 "cosmo_dispersion_energy": -43.47, 
			 "cosmo_repulsion_energy": 3.18, 
			 "cosmo_total_nonelectrostatic_energy": 21.15, 
			 "SMD_solvation_energy": 8.2 
		},
		"coords": [
			{
				"x": 2.1728581741,
				"y": -4.8877593434,
				"z": -1.686450486,
				"element": "C" 
			},
			{
				"x": 1.1758030104,
				"y": -3.7847888897,
				"z": -1.3530370665,
				"element": "C" 
			},
			{
				"x": 0.7869901834,
				"y": -3.7437497603,
				"z": 0.035323131,
				"element": "O" 
			},
			{
				"x": 0.4287311858,
				"y": -4.8658536427,
				"z": 0.7581403159,
				"element": "C" 
			},
			{
				"x": -0.2367214102,
				"y": -5.9723170535,
				"z": 0.2244683581,
				"element": "C" 
			},
			{
				"x": -0.5939791492,
				"y": -7.0374892174,
				"z": 1.0543919606,
				"element": "C" 
			},
			{
				"x": -0.2948340834,
				"y": -6.9759372303,
				"z": 2.410504647,
				"element": "C" 
			},
			{
				"x": -0.7443294923,
				"y": -8.3114597796,
				"z": 3.4675831831,
				"element": "Cl" 
			},
			{
				"x": 0.3579416835,
				"y": -5.8674840885,
				"z": 2.9489565131,
				"element": "C" 
			},
			{
				"x": 0.7333426279,
				"y": -4.7980413126,
				"z": 2.1329664475,
				"element": "C" 
			},
			{
				"x": 1.4416353978,
				"y": -3.5951086308,
				"z": 2.7029940269,
				"element": "C" 
			},
			{
				"x": -0.0528855283,
				"y": -3.834188337,
				"z": -2.2874855688,
				"element": "C" 
			},
			{
				"x": -0.4794748549,
				"y": -4.8884006947,
				"z": -2.7474972444,
				"element": "O" 
			},
			{
				"x": -0.6560884112,
				"y": -2.6486499108,
				"z": -2.6393582869,
				"element": "N" 
			},
			{
				"x": -0.3733174477,
				"y": -1.2956299827,
				"z": -2.3143472338,
				"element": "C" 
			},
			{
				"x": -0.0799708423,
				"y": -0.8899711473,
				"z": -0.9968879721,
				"element": "C" 
			},
			{
				"x": 0.1674611787,
				"y": 0.4467925269,
				"z": -0.7071116323,
				"element": "C" 
			},
			{
				"x": 0.0900162426,
				"y": 1.4056550663,
				"z": -1.7243486939,
				"element": "C" 
			},
			{
				"x": 0.2982441571,
				"y": 2.7677770504,
				"z": -1.5628905019,
				"element": "N" 
			},
			{
				"x": 0.1499484581,
				"y": 3.3965958209,
				"z": -2.684018503,
				"element": "C" 
			},
			{
				"x": 0.3278185067,
				"y": 5.1297226674,
				"z": -2.9162060044,
				"element": "S" 
			},
			{
				"x": 0.7523686457,
				"y": 5.6386312552,
				"z": -1.1816913108,
				"element": "C" 
			},
			{
				"x": 0.9543449431,
				"y": 7.1304727652,
				"z": -1.1412576984,
				"element": "C" 
			},
			{
				"x": 2.2214020336,
				"y": 7.6842914845,
				"z": -1.3697260795,
				"element": "C" 
			},
			{
				"x": 2.4094015752,
				"y": 9.0658820046,
				"z": -1.3320432139,
				"element": "C" 
			},
			{
				"x": 1.3303003962,
				"y": 9.912028711,
				"z": -1.0687243476,
				"element": "C" 
			},
			{
				"x": 0.0632371813,
				"y": 9.3702498092,
				"z": -0.8434485302,
				"element": "C" 
			},
			{
				"x": -0.1230527586,
				"y": 7.9884220947,
				"z": -0.881518333,
				"element": "C" 
			},
			{
				"x": -0.2711739201,
				"y": 2.3858105142,
				"z": -4.1012782344,
				"element": "S" 
			},
			{
				"x": -0.233510299,
				"y": 0.988498064,
				"z": -3.0381309969,
				"element": "C" 
			},
			{
				"x": -0.4558768469,
				"y": -0.3507389387,
				"z": -3.3457661533,
				"element": "C" 
			},
			{
				"x": 3.0107206846,
				"y": -4.8469807411,
				"z": -0.9852773038,
				"element": "H" 
			},
			{
				"x": 1.7192708495,
				"y": -5.8776131376,
				"z": -1.6525933893,
				"element": "H" 
			},
			{
				"x": 2.559616992,
				"y": -4.7307197267,
				"z": -2.6978618009,
				"element": "H" 
			},
			{
				"x": 1.6639069007,
				"y": -2.8153717781,
				"z": -1.4852777608,
				"element": "H" 
			},
			{
				"x": -0.4846799194,
				"y": -6.0061652807,
				"z": -0.8294281692,
				"element": "H" 
			},
			{
				"x": -1.10692051,
				"y": -7.9000099934,
				"z": 0.6437986541,
				"element": "H" 
			},
			{
				"x": 0.5833438046,
				"y": -5.8380480245,
				"z": 4.0099833391,
				"element": "H" 
			},
			{
				"x": 1.6808278035,
				"y": -3.7477381071,
				"z": 3.7584201113,
				"element": "H" 
			},
			{
				"x": 2.3706517054,
				"y": -3.3885992931,
				"z": 2.1619537932,
				"element": "H" 
			},
			{
				"x": 0.8248900356,
				"y": -2.6927917738,
				"z": 2.621483887,
				"element": "H" 
			},
			{
				"x": -1.3877434282,
				"y": -2.8027397094,
				"z": -3.3241234387,
				"element": "H" 
			},
			{
				"x": -0.0574648334,
				"y": -1.6314456216,
				"z": -0.2072314918,
				"element": "H" 
			},
			{
				"x": 0.398350697,
				"y": 0.7630061082,
				"z": 0.3045832216,
				"element": "H" 
			},
			{
				"x": 1.6510569368,
				"y": 5.0904660319,
				"z": -0.8942449859,
				"element": "H" 
			},
			{
				"x": -0.0674582554,
				"y": 5.3135538389,
				"z": -0.5391000269,
				"element": "H" 
			},
			{
				"x": 3.0631590495,
				"y": 7.0275953306,
				"z": -1.5743336254,
				"element": "H" 
			},
			{
				"x": 3.3978844855,
				"y": 9.4810799645,
				"z": -1.5058556281,
				"element": "H" 
			},
			{
				"x": 1.4764542799,
				"y": 10.9877985098,
				"z": -1.0370366905,
				"element": "H" 
			},
			{
				"x": -0.7796820892,
				"y": 10.023005725,
				"z": -0.6358793666,
				"element": "H" 
			},
			{
				"x": -1.1103039414,
				"y": 7.568991375,
				"z": -0.7052668691,
				"element": "H" 
			},
			{
				"x": -0.6786117846,
				"y": -0.6692355712,
				"z": -4.3594169505,
				"element": "H" 
			}
		],
		 "valence_orbital": [ 
			{
				"type": "occ",
				"energy": -0.25474,
				"method": "rhf"
			},
			{
				"type": "occ",
				"energy": -0.24985,
				"method": "rhf"
			},
			{
				"type": "occ",
				"energy": -0.24626,
				"method": "rhf"
			},
			{
				"type": "occ",
				"energy": -0.22111,
				"method": "rhf"
			},
			{
				"type": "occ",
				"energy": -0.21695,
				"method": "rhf"
			},
			{
				"type": "unocc",
				"energy": -0.04665,
				"method": "rhf"
			},
			{
				"type": "unocc",
				"energy": -0.02562,
				"method": "rhf"
			},
			{
				"type": "unocc",
				"energy": -0.02108,
				"method": "rhf"
			},
			{
				"type": "unocc",
				"energy": -0.012,
				"method": "rhf"
			},
			{
				"type": "unocc",
				"energy": -0.01166,
				"method": "rhf"
			}
		],
		"cosmo_sigma_profile": { 
			"-0.025": 0.0,
			"-0.024": 0.0,
			"-0.023": 0.0,
			"-0.022": 0.0,
			"-0.021": 0.0,
			"-0.02": 0.0,
			"-0.019": 0.0,
			"-0.018": 0.0,
			"-0.017": 0.0,
			"-0.016": 0.0,
			"-0.015": 0.483007708749,
			"-0.014": 1.08658742983,
			"-0.013": 0.948307701662,
			"-0.012": 1.27462024655,
			"-0.011": 1.16931381171,
			"-0.01": 1.33300629613,
			"-0.009": 1.85339659298,
			"-0.008": 3.81376868831,
			"-0.007": 8.16731699292,
			"-0.006": 25.4501919161,
			"-0.005": 26.4356778423,
			"-0.004": 34.2851747099,
			"-0.003": 34.8574169794,
			"-0.002": 32.6812506551,
			"-0.001": 42.6328750163,
			"0.0": 45.9796557889,
			"0.001": 47.5891374938,
			"0.002": 48.3545961344,
			"0.003": 47.251527944,
			"0.004": 36.4134808098,
			"0.005": 28.2926110611,
			"0.006": 9.32427726602,
			"0.007": 2.86726959092,
			"0.008": 2.4877810244,
			"0.009": 2.17046617943,
			"0.01": 2.27469831265,
			"0.011": 2.26401376435,
			"0.012": 3.3122252304,
			"0.013": 2.51720261067,
			"0.014": 0.126839381297,
			"0.015": 0.0,
			"0.016": 0.0,
			"0.017": 0.0,
			"0.018": 0.0,
			"0.019": 0.0,
			"0.02": 0.0,
			"0.021": 0.0,
			"0.022": 0.0,
			"0.023": 0.0,
			"0.024": 0.0,
			"0.025": 0.0
		}
	}
}
