{
	 "smiles": "CC(C)=CCCC(C)=C/CC[C@@](C)(O)C=C", 
	 "Tm": 298.15, 
	 "num_atms": 42, 
	 "gaussian": { 
		 "optdone": 1, 
		 "sigma_profile": "yes", 
		 "theory": "DFT", 
		 "functional": "B3LYP", 
		 "basiset": "6-31G**", 
		 "properties": { 
			 "R2extent": 5024.722, 
			 "electric_dipole_moment_norm": 1.95704580171, 
			 "electric_quadrupole_moment_norm": 8.11021152005, 
			 "total_energy": -662.4434251, 
			 "HOMO_LUMO_gap": 0.24465, 
			 "cosmo_polarized_energy": -8.78, 
			 "cosmo_cavitation_energy": 42.35, 
			 "cosmo_dispersion_energy": -26.54, 
			 "cosmo_repulsion_energy": 2.08, 
			 "cosmo_total_nonelectrostatic_energy": 17.89, 
			 "SMD_solvation_energy": 7.53 
		},
		"coords": [
			{
				"x": -1.4301522123,
				"y": 1.403574377,
				"z": -2.6685554066,
				"element": "C" 
			},
			{
				"x": -1.8269320393,
				"y": -0.0145722291,
				"z": -2.3297919039,
				"element": "C" 
			},
			{
				"x": -1.5475376725,
				"y": -1.0150698501,
				"z": -3.4247387338,
				"element": "C" 
			},
			{
				"x": -2.3901902257,
				"y": -0.305339801,
				"z": -1.1460942606,
				"element": "C" 
			},
			{
				"x": -2.8729827246,
				"y": -1.633563229,
				"z": -0.6295932963,
				"element": "C" 
			},
			{
				"x": -2.2461647729,
				"y": -2.0346795477,
				"z": 0.7335629029,
				"element": "C" 
			},
			{
				"x": -0.7635546998,
				"y": -2.3427887691,
				"z": 0.6903269904,
				"element": "C" 
			},
			{
				"x": -0.3850781667,
				"y": -3.5749986449,
				"z": -0.1002702251,
				"element": "C" 
			},
			{
				"x": 0.1860798618,
				"y": -1.6244000946,
				"z": 1.3133880309,
				"element": "C" 
			},
			{
				"x": 0.0157644506,
				"y": -0.3791096879,
				"z": 2.1496184328,
				"element": "C" 
			},
			{
				"x": 0.3147403934,
				"y": 0.9552473664,
				"z": 1.4078621502,
				"element": "C" 
			},
			{
				"x": 1.7660842909,
				"y": 1.4801367628,
				"z": 1.4067612587,
				"element": "C" 
			},
			{
				"x": 2.7830639328,
				"y": 0.4296459308,
				"z": 0.9227691126,
				"element": "C" 
			},
			{
				"x": 1.8283205625,
				"y": 2.6211254802,
				"z": 0.5250291871,
				"element": "O" 
			},
			{
				"x": 2.232152848,
				"y": 2.0374972561,
				"z": 2.7397142248,
				"element": "C" 
			},
			{
				"x": 1.5504234716,
				"y": 2.1110183763,
				"z": 3.8815426108,
				"element": "C" 
			},
			{
				"x": -1.9651860571,
				"y": 1.7625229636,
				"z": -3.5580762754,
				"element": "H" 
			},
			{
				"x": -1.63799264,
				"y": 2.0950102797,
				"z": -1.8472179109,
				"element": "H" 
			},
			{
				"x": -0.3599717865,
				"y": 1.4685889876,
				"z": -2.9092698531,
				"element": "H" 
			},
			{
				"x": -1.8291692207,
				"y": -2.0360970408,
				"z": -3.1614418614,
				"element": "H" 
			},
			{
				"x": -0.480804852,
				"y": -1.0161603039,
				"z": -3.6846920526,
				"element": "H" 
			},
			{
				"x": -2.0880703387,
				"y": -0.7451108313,
				"z": -4.3417137457,
				"element": "H" 
			},
			{
				"x": -2.5388594153,
				"y": 0.5241943687,
				"z": -0.4521131289,
				"element": "H" 
			},
			{
				"x": -2.7103938947,
				"y": -2.4301199877,
				"z": -1.3612802543,
				"element": "H" 
			},
			{
				"x": -3.9615027402,
				"y": -1.579139761,
				"z": -0.4813153359,
				"element": "H" 
			},
			{
				"x": -2.77746898,
				"y": -2.9284540367,
				"z": 1.0918205768,
				"element": "H" 
			},
			{
				"x": -2.4572775374,
				"y": -1.2412720048,
				"z": 1.4571732035,
				"element": "H" 
			},
			{
				"x": 0.6873412314,
				"y": -3.7795767273,
				"z": -0.0388241184,
				"element": "H" 
			},
			{
				"x": -0.9213657662,
				"y": -4.4603495659,
				"z": 0.267198083,
				"element": "H" 
			},
			{
				"x": -0.6433732714,
				"y": -3.4741975212,
				"z": -1.1619367096,
				"element": "H" 
			},
			{
				"x": 1.2119585319,
				"y": -1.9745381912,
				"z": 1.2031918377,
				"element": "H" 
			},
			{
				"x": -1.0090100659,
				"y": -0.3261093509,
				"z": 2.530591599,
				"element": "H" 
			},
			{
				"x": 0.6588013724,
				"y": -0.4548450074,
				"z": 3.0345598822,
				"element": "H" 
			},
			{
				"x": 0.006994196,
				"y": 0.8375406604,
				"z": 0.3616641838,
				"element": "H" 
			},
			{
				"x": -0.3108491694,
				"y": 1.7548238144,
				"z": 1.8194083652,
				"element": "H" 
			},
			{
				"x": 2.4892381744,
				"y": 0.0277693237,
				"z": -0.0541514901,
				"element": "H" 
			},
			{
				"x": 2.8696841902,
				"y": -0.4084270917,
				"z": 1.6200304041,
				"element": "H" 
			},
			{
				"x": 3.7680645009,
				"y": 0.8949285839,
				"z": 0.8210922771,
				"element": "H" 
			},
			{
				"x": 1.6339414313,
				"y": 2.3006015785,
				"z": -0.3669340206,
				"element": "H" 
			},
			{
				"x": 3.2492791217,
				"y": 2.4278511274,
				"z": 2.7060313356,
				"element": "H" 
			},
			{
				"x": 0.5296937595,
				"y": 1.7561024654,
				"z": 3.9835184427,
				"element": "H" 
			},
			{
				"x": 1.9985619278,
				"y": 2.5436395721,
				"z": 4.7713554913,
				"element": "H" 
			}
		],
		 "valence_orbital": [ 
			{
				"type": "occ",
				"energy": -0.30633,
				"method": "rhf"
			},
			{
				"type": "occ",
				"energy": -0.26453,
				"method": "rhf"
			},
			{
				"type": "occ",
				"energy": -0.25357,
				"method": "rhf"
			},
			{
				"type": "occ",
				"energy": -0.23146,
				"method": "rhf"
			},
			{
				"type": "occ",
				"energy": -0.22675,
				"method": "rhf"
			},
			{
				"type": "unocc",
				"energy": 0.0179,
				"method": "rhf"
			},
			{
				"type": "unocc",
				"energy": 0.0275,
				"method": "rhf"
			},
			{
				"type": "unocc",
				"energy": 0.0285,
				"method": "rhf"
			},
			{
				"type": "unocc",
				"energy": 0.06918,
				"method": "rhf"
			},
			{
				"type": "unocc",
				"energy": 0.0842,
				"method": "rhf"
			}
		],
		"cosmo_sigma_profile": { 
			"-0.025": 0.0,
			"-0.024": 0.0,
			"-0.023": 0.0,
			"-0.022": 0.0,
			"-0.021": 0.0,
			"-0.02": 0.0,
			"-0.019": 0.0,
			"-0.018": 0.0,
			"-0.017": 0.0,
			"-0.016": 0.0,
			"-0.015": 0.0,
			"-0.014": 0.0389656546745,
			"-0.013": 0.460035536758,
			"-0.012": 0.820979686125,
			"-0.011": 1.23520508599,
			"-0.01": 0.655356571465,
			"-0.009": 1.35873584805,
			"-0.008": 1.50311964661,
			"-0.007": 0.935801422205,
			"-0.006": 1.4117812951,
			"-0.005": 4.45209500811,
			"-0.004": 15.9275194308,
			"-0.003": 41.2767442914,
			"-0.002": 48.3760000811,
			"-0.001": 48.7371917648,
			"0.0": 47.9159662168,
			"0.001": 39.3178157074,
			"0.002": 17.3074360782,
			"0.003": 11.3189496518,
			"0.004": 10.2935440734,
			"0.005": 8.78814711082,
			"0.006": 6.16987335378,
			"0.007": 5.65569030028,
			"0.008": 3.18306610087,
			"0.009": 1.55734913476,
			"0.01": 1.79034651782,
			"0.011": 1.64609903841,
			"0.012": 1.43031128827,
			"0.013": 1.26006107142,
			"0.014": 2.29434228947,
			"0.015": 1.02577600532,
			"0.016": 0.0252288620291,
			"0.017": 0.0,
			"0.018": 0.0,
			"0.019": 0.0,
			"0.02": 0.0,
			"0.021": 0.0,
			"0.022": 0.0,
			"0.023": 0.0,
			"0.024": 0.0,
			"0.025": 0.0
		}
	}
}
