{
	 "smiles": "CC1=CN=C2C(C=CC3=C(C)C(C)=CN=C23)=C1C", 
	 "Tm": 551.15, 
	 "num_atms": 34, 
	 "gaussian": { 
		 "optdone": 1, 
		 "sigma_profile": "yes", 
		 "theory": "DFT", 
		 "functional": "B3LYP", 
		 "basiset": "6-31G**", 
		 "properties": { 
			 "R2extent": 5288.7683, 
			 "electric_dipole_moment_norm": 3.76999665915, 
			 "electric_quadrupole_moment_norm": 18.876417516, 
			 "total_energy": -728.886054693, 
			 "HOMO_LUMO_gap": 0.17062, 
			 "cosmo_polarized_energy": -15.41, 
			 "cosmo_cavitation_energy": 35.7, 
			 "cosmo_dispersion_energy": -26.31, 
			 "cosmo_repulsion_energy": 1.97, 
			 "cosmo_total_nonelectrostatic_energy": 11.35, 
			 "SMD_solvation_energy": 3.09 
		},
		"coords": [
			{
				"x": 1.1702802069,
				"y": -4.9372981993,
				"z": -0.9892414683,
				"element": "C" 
			},
			{
				"x": 0.791903072,
				"y": -3.51544507,
				"z": -0.6461919916,
				"element": "C" 
			},
			{
				"x": -0.5734789969,
				"y": -3.1433781696,
				"z": -0.678524334,
				"element": "C" 
			},
			{
				"x": -1.0497530689,
				"y": -1.9447811182,
				"z": -0.4045102042,
				"element": "N" 
			},
			{
				"x": -0.164363699,
				"y": -0.9821860722,
				"z": -0.0622179204,
				"element": "C" 
			},
			{
				"x": 1.2354955264,
				"y": -1.2298741027,
				"z": 0.0066292464,
				"element": "C" 
			},
			{
				"x": 2.1092843254,
				"y": -0.1539847873,
				"z": 0.3780506406,
				"element": "C" 
			},
			{
				"x": 1.629844819,
				"y": 1.0895491946,
				"z": 0.663761499,
				"element": "C" 
			},
			{
				"x": 0.2270088386,
				"y": 1.3859093533,
				"z": 0.607632316,
				"element": "C" 
			},
			{
				"x": -0.2928636277,
				"y": 2.6804821279,
				"z": 0.9031014424,
				"element": "C" 
			},
			{
				"x": 0.6431753556,
				"y": 3.8006886697,
				"z": 1.2923335441,
				"element": "C" 
			},
			{
				"x": -1.6699326186,
				"y": 2.8701022431,
				"z": 0.8209852628,
				"element": "C" 
			},
			{
				"x": -2.3481884177,
				"y": 4.189284105,
				"z": 1.1077759826,
				"element": "C" 
			},
			{
				"x": -2.4634757335,
				"y": 1.7588782757,
				"z": 0.4478602993,
				"element": "C" 
			},
			{
				"x": -2.0122311806,
				"y": 0.5517066181,
				"z": 0.169098194,
				"element": "N" 
			},
			{
				"x": -0.6776597073,
				"y": 0.3492003005,
				"z": 0.2436796743,
				"element": "C" 
			},
			{
				"x": 1.7186589258,
				"y": -2.5370500097,
				"z": -0.2956610555,
				"element": "C" 
			},
			{
				"x": 3.1993961417,
				"y": -2.8298143975,
				"z": -0.2309675452,
				"element": "C" 
			},
			{
				"x": 1.8407948249,
				"y": -4.9873705888,
				"z": -1.854797115,
				"element": "H" 
			},
			{
				"x": 1.676789659,
				"y": -5.4404448672,
				"z": -0.1576301402,
				"element": "H" 
			},
			{
				"x": 0.2787952023,
				"y": -5.5222376495,
				"z": -1.2315618592,
				"element": "H" 
			},
			{
				"x": -1.3116288493,
				"y": -3.8993651992,
				"z": -0.9514602149,
				"element": "H" 
			},
			{
				"x": 3.1774561933,
				"y": -0.334038658,
				"z": 0.4329888305,
				"element": "H" 
			},
			{
				"x": 2.326193398,
				"y": 1.8738124239,
				"z": 0.9402849633,
				"element": "H" 
			},
			{
				"x": 1.2106510405,
				"y": 3.5490844045,
				"z": 2.1957578078,
				"element": "H" 
			},
			{
				"x": 1.374328073,
				"y": 4.0012499781,
				"z": 0.500699807,
				"element": "H" 
			},
			{
				"x": 0.1074693079,
				"y": 4.7296232488,
				"z": 1.488396702,
				"element": "H" 
			},
			{
				"x": -2.0033584144,
				"y": 4.9838731466,
				"z": 0.436209748,
				"element": "H" 
			},
			{
				"x": -2.1670607286,
				"y": 4.5307307194,
				"z": 2.1333906533,
				"element": "H" 
			},
			{
				"x": -3.4302630554,
				"y": 4.098710402,
				"z": 0.9792262807,
				"element": "H" 
			},
			{
				"x": -3.5444124789,
				"y": 1.8920409652,
				"z": 0.3792271304,
				"element": "H" 
			},
			{
				"x": 3.5982998304,
				"y": -2.6431514257,
				"z": 0.772788346,
				"element": "H" 
			},
			{
				"x": 3.7616204429,
				"y": -2.1917116342,
				"z": -0.9225079654,
				"element": "H" 
			},
			{
				"x": 3.4212253933,
				"y": -3.8662942275,
				"z": -0.4856065564,
				"element": "H" 
			}
		],
		 "valence_orbital": [ 
			{
				"type": "occ",
				"energy": -0.27166,
				"method": "rhf"
			},
			{
				"type": "occ",
				"energy": -0.24602,
				"method": "rhf"
			},
			{
				"type": "occ",
				"energy": -0.22865,
				"method": "rhf"
			},
			{
				"type": "occ",
				"energy": -0.22598,
				"method": "rhf"
			},
			{
				"type": "occ",
				"energy": -0.21877,
				"method": "rhf"
			},
			{
				"type": "unocc",
				"energy": -0.04815,
				"method": "rhf"
			},
			{
				"type": "unocc",
				"energy": -0.03735,
				"method": "rhf"
			},
			{
				"type": "unocc",
				"energy": 0.00367,
				"method": "rhf"
			},
			{
				"type": "unocc",
				"energy": 0.03219,
				"method": "rhf"
			},
			{
				"type": "unocc",
				"energy": 0.07324,
				"method": "rhf"
			}
		],
		"cosmo_sigma_profile": { 
			"-0.025": 0.0,
			"-0.024": 0.0,
			"-0.023": 0.0,
			"-0.022": 0.0,
			"-0.021": 0.0,
			"-0.02": 0.0,
			"-0.019": 0.0,
			"-0.018": 0.0,
			"-0.017": 0.0,
			"-0.016": 0.0,
			"-0.015": 0.0,
			"-0.014": 0.0,
			"-0.013": 0.0,
			"-0.012": 0.0,
			"-0.011": 0.0,
			"-0.01": 0.0,
			"-0.009": 0.0,
			"-0.008": 0.0,
			"-0.007": 0.0306260913594,
			"-0.006": 5.48871204895,
			"-0.005": 23.437162234,
			"-0.004": 36.0736738598,
			"-0.003": 29.0636491126,
			"-0.002": 28.2944729504,
			"-0.001": 32.337112051,
			"0.0": 29.457002242,
			"0.001": 16.8229353803,
			"0.002": 30.0611860914,
			"0.003": 17.1233586464,
			"0.004": 7.776340881,
			"0.005": 4.16085330107,
			"0.006": 2.59098195503,
			"0.007": 1.96319697509,
			"0.008": 2.21152095209,
			"0.009": 1.84469011624,
			"0.01": 2.48234139029,
			"0.011": 0.774897571615,
			"0.012": 0.948844641955,
			"0.013": 1.52548714576,
			"0.014": 1.56824092927,
			"0.015": 1.15769712987,
			"0.016": 0.547553402182,
			"0.017": 1.07154784423,
			"0.018": 1.39298709538,
			"0.019": 0.948564702467,
			"0.02": 0.68060075664,
			"0.021": 0.883380413189,
			"0.022": 0.751133962923,
			"0.023": 0.103509518629,
			"0.024": 0.0,
			"0.025": 0.0
		}
	}
}
