{
	 "smiles": "CC(CC(O)=O)C1=C(F)C=C(F)C=C1", 
	 "Tm": 340.15, 
	 "num_atms": 24, 
	 "gaussian": { 
		 "optdone": 1, 
		 "sigma_profile": "yes", 
		 "theory": "DFT", 
		 "functional": "B3LYP", 
		 "basiset": "6-31G**", 
		 "properties": { 
			 "R2extent": 3274.2782, 
			 "electric_dipole_moment_norm": 1.54294051084, 
			 "electric_quadrupole_moment_norm": 6.10585533156, 
			 "total_energy": -737.231071903, 
			 "HOMO_LUMO_gap": 0.22775, 
			 "cosmo_polarized_energy": -9.75, 
			 "cosmo_cavitation_energy": 28.74, 
			 "cosmo_dispersion_energy": -19.89, 
			 "cosmo_repulsion_energy": 1.54, 
			 "cosmo_total_nonelectrostatic_energy": 10.39, 
			 "SMD_solvation_energy": 6.97 
		},
		"coords": [
			{
				"x": 1.3624784308,
				"y": -0.4842082579,
				"z": 1.5099487222,
				"element": "C" 
			},
			{
				"x": 0.7470494252,
				"y": -0.4858520334,
				"z": 0.0952319567,
				"element": "C" 
			},
			{
				"x": 1.5468935404,
				"y": 0.4613567849,
				"z": -0.8238882603,
				"element": "C" 
			},
			{
				"x": 1.0785116411,
				"y": 0.4943699907,
				"z": -2.2626270889,
				"element": "C" 
			},
			{
				"x": 1.0769575353,
				"y": -0.740703829,
				"z": -2.8209281932,
				"element": "O" 
			},
			{
				"x": 0.750049604,
				"y": 1.4861193532,
				"z": -2.8766831566,
				"element": "O" 
			},
			{
				"x": -0.7440016966,
				"y": -0.1775594006,
				"z": 0.1534500852,
				"element": "C" 
			},
			{
				"x": -1.6258592701,
				"y": -1.1685727844,
				"z": 0.6006941787,
				"element": "C" 
			},
			{
				"x": -1.1169338529,
				"y": -2.3777377558,
				"z": 0.9379133145,
				"element": "F" 
			},
			{
				"x": -2.9959693888,
				"y": -0.9873718946,
				"z": 0.7233261303,
				"element": "C" 
			},
			{
				"x": -3.5079327884,
				"y": 0.2588167611,
				"z": 0.3783314384,
				"element": "C" 
			},
			{
				"x": -4.835448722,
				"y": 0.4640915535,
				"z": 0.4863345832,
				"element": "F" 
			},
			{
				"x": -2.6921023454,
				"y": 1.286627499,
				"z": -0.0745801118,
				"element": "C" 
			},
			{
				"x": -1.3181812713,
				"y": 1.0562387367,
				"z": -0.1814396198,
				"element": "C" 
			},
			{
				"x": 0.8443180116,
				"y": -1.1988327633,
				"z": 2.153830566,
				"element": "H" 
			},
			{
				"x": 1.2859792034,
				"y": 0.507373445,
				"z": 1.9688793262,
				"element": "H" 
			},
			{
				"x": 2.420958783,
				"y": -0.7642303809,
				"z": 1.4746404047,
				"element": "H" 
			},
			{
				"x": 0.8512000571,
				"y": -1.4975076535,
				"z": -0.3113190034,
				"element": "H" 
			},
			{
				"x": 1.5376434792,
				"y": 1.489044961,
				"z": -0.4527593315,
				"element": "H" 
			},
			{
				"x": 2.590562227,
				"y": 0.124796553,
				"z": -0.823862168,
				"element": "H" 
			},
			{
				"x": 0.7584758958,
				"y": -0.6249646821,
				"z": -3.7320119873,
				"element": "H" 
			},
			{
				"x": -3.6370255918,
				"y": -1.7873505324,
				"z": 1.072887732,
				"element": "H" 
			},
			{
				"x": -3.1280529842,
				"y": 2.2422107864,
				"z": -0.3424621834,
				"element": "H" 
			},
			{
				"x": -0.6912699221,
				"y": 1.8566455434,
				"z": -0.558007334,
				"element": "H" 
			}
		],
		 "valence_orbital": [ 
			{
				"type": "occ",
				"energy": -0.34377,
				"method": "rhf"
			},
			{
				"type": "occ",
				"energy": -0.32071,
				"method": "rhf"
			},
			{
				"type": "occ",
				"energy": -0.27655,
				"method": "rhf"
			},
			{
				"type": "occ",
				"energy": -0.26034,
				"method": "rhf"
			},
			{
				"type": "occ",
				"energy": -0.24209,
				"method": "rhf"
			},
			{
				"type": "unocc",
				"energy": -0.01434,
				"method": "rhf"
			},
			{
				"type": "unocc",
				"energy": -0.00501,
				"method": "rhf"
			},
			{
				"type": "unocc",
				"energy": 0.00727,
				"method": "rhf"
			},
			{
				"type": "unocc",
				"energy": 0.07075,
				"method": "rhf"
			},
			{
				"type": "unocc",
				"energy": 0.08012,
				"method": "rhf"
			}
		],
		"cosmo_sigma_profile": { 
			"-0.025": 0.0,
			"-0.024": 0.0,
			"-0.023": 0.0,
			"-0.022": 0.0,
			"-0.021": 0.0,
			"-0.02": 0.0,
			"-0.019": 0.0190919696464,
			"-0.018": 0.829276134257,
			"-0.017": 0.720289514341,
			"-0.016": 1.22369766442,
			"-0.015": 0.745822010261,
			"-0.014": 0.242005728456,
			"-0.013": 0.557600701014,
			"-0.012": 0.667981869912,
			"-0.011": 0.940713577812,
			"-0.01": 0.93841915858,
			"-0.009": 0.906741168444,
			"-0.008": 2.61527988774,
			"-0.007": 4.24261672896,
			"-0.006": 9.74995333489,
			"-0.005": 11.8954100409,
			"-0.004": 12.6023028614,
			"-0.003": 16.1817599297,
			"-0.002": 14.6633918965,
			"-0.001": 16.333842054,
			"0.0": 23.98756699,
			"0.001": 23.3059791818,
			"0.002": 20.9516598093,
			"0.003": 16.2332676823,
			"0.004": 21.6086532257,
			"0.005": 6.03467584766,
			"0.006": 1.92731920839,
			"0.007": 2.52270602915,
			"0.008": 2.63182548148,
			"0.009": 2.30529487827,
			"0.01": 1.92346021526,
			"0.011": 3.4900444883,
			"0.012": 4.18563654221,
			"0.013": 0.56268283098,
			"0.014": 0.0,
			"0.015": 0.0,
			"0.016": 0.0,
			"0.017": 0.0,
			"0.018": 0.0,
			"0.019": 0.0,
			"0.02": 0.0,
			"0.021": 0.0,
			"0.022": 0.0,
			"0.023": 0.0,
			"0.024": 0.0,
			"0.025": 0.0
		}
	}
}
