{
	 "smiles": "COC1=CC=C(CNC2=NC=CS2)C=C1", 
	 "Tm": 421.15, 
	 "num_atms": 27, 
	 "gaussian": { 
		 "optdone": 1, 
		 "sigma_profile": "yes", 
		 "theory": "DFT", 
		 "functional": "B3LYP", 
		 "basiset": "6-31G**", 
		 "properties": { 
			 "R2extent": 5654.0087, 
			 "electric_dipole_moment_norm": 2.74889906144, 
			 "electric_quadrupole_moment_norm": 7.94776863151, 
			 "total_energy": -1009.2941944, 
			 "HOMO_LUMO_gap": 0.19537, 
			 "cosmo_polarized_energy": -11.54, 
			 "cosmo_cavitation_energy": 32.54, 
			 "cosmo_dispersion_energy": -24.15, 
			 "cosmo_repulsion_energy": 1.85, 
			 "cosmo_total_nonelectrostatic_energy": 10.23, 
			 "SMD_solvation_energy": 4.57 
		},
		"coords": [
			{
				"x": -4.3416626343,
				"y": -1.9758879002,
				"z": 1.0556267475,
				"element": "C" 
			},
			{
				"x": -3.113532755,
				"y": -2.5359681117,
				"z": 0.6213736507,
				"element": "O" 
			},
			{
				"x": -1.9987650706,
				"y": -1.7483556252,
				"z": 0.6499119519,
				"element": "C" 
			},
			{
				"x": -1.9744615828,
				"y": -0.4171291088,
				"z": 1.0778519443,
				"element": "C" 
			},
			{
				"x": -0.7652494195,
				"y": 0.286454128,
				"z": 1.0611491715,
				"element": "C" 
			},
			{
				"x": 0.4225229322,
				"y": -0.3054191198,
				"z": 0.628490311,
				"element": "C" 
			},
			{
				"x": 1.7165522954,
				"y": 0.4826531585,
				"z": 0.5948676156,
				"element": "C" 
			},
			{
				"x": 2.1147601598,
				"y": 0.9405791665,
				"z": -0.7447867063,
				"element": "N" 
			},
			{
				"x": 2.8833815322,
				"y": 0.1493553101,
				"z": -1.5567492593,
				"element": "C" 
			},
			{
				"x": 3.5071764169,
				"y": -0.9334604585,
				"z": -1.1763499034,
				"element": "N" 
			},
			{
				"x": 4.2555201642,
				"y": -1.4520977837,
				"z": -2.2136594847,
				"element": "C" 
			},
			{
				"x": 4.2116977871,
				"y": -0.7901005415,
				"z": -3.3989289892,
				"element": "C" 
			},
			{
				"x": 3.1726470606,
				"y": 0.6126954133,
				"z": -3.2476085879,
				"element": "S" 
			},
			{
				"x": 0.3796276908,
				"y": -1.6468016383,
				"z": 0.206207787,
				"element": "C" 
			},
			{
				"x": -0.8111577204,
				"y": -2.358769638,
				"z": 0.2142209022,
				"element": "C" 
			},
			{
				"x": -4.2953716837,
				"y": -1.6610603119,
				"z": 2.1063729227,
				"element": "H" 
			},
			{
				"x": -4.6372222332,
				"y": -1.1172922915,
				"z": 0.4384969192,
				"element": "H" 
			},
			{
				"x": -5.0876267408,
				"y": -2.7653319685,
				"z": 0.9510700457,
				"element": "H" 
			},
			{
				"x": -2.8743564647,
				"y": 0.0766098141,
				"z": 1.4250787039,
				"element": "H" 
			},
			{
				"x": -0.7566342785,
				"y": 1.3197842462,
				"z": 1.4021283624,
				"element": "H" 
			},
			{
				"x": 1.626001987,
				"y": 1.3715831514,
				"z": 1.2284736992,
				"element": "H" 
			},
			{
				"x": 2.5488263023,
				"y": -0.1139226622,
				"z": 0.9731324042,
				"element": "H" 
			},
			{
				"x": 1.4459156043,
				"y": 1.5337709017,
				"z": -1.2160509549,
				"element": "H" 
			},
			{
				"x": 4.8279269235,
				"y": -2.356389914,
				"z": -2.0397018879,
				"element": "H" 
			},
			{
				"x": 4.6991471263,
				"y": -1.0246268337,
				"z": -4.3334055732,
				"element": "H" 
			},
			{
				"x": 1.2950260174,
				"y": -2.1242592603,
				"z": -0.1304016243,
				"element": "H" 
			},
			{
				"x": -0.8513894163,
				"y": -3.3947121221,
				"z": -0.1068101679,
				"element": "H" 
			}
		],
		 "valence_orbital": [ 
			{
				"type": "occ",
				"energy": -0.26888,
				"method": "rhf"
			},
			{
				"type": "occ",
				"energy": -0.26684,
				"method": "rhf"
			},
			{
				"type": "occ",
				"energy": -0.24946,
				"method": "rhf"
			},
			{
				"type": "occ",
				"energy": -0.21868,
				"method": "rhf"
			},
			{
				"type": "occ",
				"energy": -0.19743,
				"method": "rhf"
			},
			{
				"type": "unocc",
				"energy": -0.00206,
				"method": "rhf"
			},
			{
				"type": "unocc",
				"energy": 2e-05,
				"method": "rhf"
			},
			{
				"type": "unocc",
				"energy": 0.01232,
				"method": "rhf"
			},
			{
				"type": "unocc",
				"energy": 0.0157,
				"method": "rhf"
			},
			{
				"type": "unocc",
				"energy": 0.06904,
				"method": "rhf"
			}
		],
		"cosmo_sigma_profile": { 
			"-0.025": 0.0,
			"-0.024": 0.0,
			"-0.023": 0.0,
			"-0.022": 0.0,
			"-0.021": 0.0,
			"-0.02": 0.0,
			"-0.019": 0.0,
			"-0.018": 0.0,
			"-0.017": 0.0,
			"-0.016": 0.0,
			"-0.015": 0.189393019973,
			"-0.014": 0.907338950803,
			"-0.013": 1.16788905878,
			"-0.012": 1.34844089728,
			"-0.011": 1.40883211954,
			"-0.01": 0.72120775228,
			"-0.009": 1.25164473432,
			"-0.008": 3.37018779489,
			"-0.007": 4.32325009002,
			"-0.006": 12.4592697963,
			"-0.005": 22.7274342379,
			"-0.004": 21.1120316917,
			"-0.003": 22.2159584395,
			"-0.002": 16.6286879989,
			"-0.001": 14.0660785325,
			"0.0": 13.1192523887,
			"0.001": 14.5838628769,
			"0.002": 17.5643923218,
			"0.003": 21.3009901823,
			"0.004": 21.7833733495,
			"0.005": 22.3089333439,
			"0.006": 12.1643163441,
			"0.007": 3.43052303805,
			"0.008": 3.28711176237,
			"0.009": 2.9908316205,
			"0.01": 2.29045423664,
			"0.011": 1.26837068894,
			"0.012": 0.688579762308,
			"0.013": 0.813168933352,
			"0.014": 0.231137263066,
			"0.015": 0.0,
			"0.016": 0.0,
			"0.017": 0.0,
			"0.018": 0.0,
			"0.019": 0.0,
			"0.02": 0.0,
			"0.021": 0.0,
			"0.022": 0.0,
			"0.023": 0.0,
			"0.024": 0.0,
			"0.025": 0.0
		}
	}
}
