{
	 "smiles": "CC1(OC(=CC1=O)C(O)=O)C1=CC=CC=C1", 
	 "Tm": 449.15, 
	 "num_atms": 26, 
	 "gaussian": { 
		 "optdone": 1, 
		 "sigma_profile": "yes", 
		 "theory": "DFT", 
		 "functional": "B3LYP", 
		 "basiset": "6-31G**", 
		 "properties": { 
			 "R2extent": 3929.2246, 
			 "electric_dipole_moment_norm": 4.06405639109, 
			 "electric_quadrupole_moment_norm": 14.8723611027, 
			 "total_energy": -764.188643255, 
			 "HOMO_LUMO_gap": 0.15846, 
			 "cosmo_polarized_energy": -14.69, 
			 "cosmo_cavitation_energy": 30.9, 
			 "cosmo_dispersion_energy": -21.57, 
			 "cosmo_repulsion_energy": 1.68, 
			 "cosmo_total_nonelectrostatic_energy": 11.01, 
			 "SMD_solvation_energy": 7.56 
		},
		"coords": [
			{
				"x": -1.7992939221,
				"y": 1.1565296515,
				"z": 0.2075826928,
				"element": "C" 
			},
			{
				"x": -0.898856261,
				"y": 0.1809396344,
				"z": -0.5541834299,
				"element": "C" 
			},
			{
				"x": -0.4790529322,
				"y": -0.8653476075,
				"z": 0.3849443796,
				"element": "O" 
			},
			{
				"x": -0.9356311924,
				"y": -2.0575590594,
				"z": -0.0788715718,
				"element": "C" 
			},
			{
				"x": -1.6463408101,
				"y": -2.0102460089,
				"z": -1.2235396003,
				"element": "C" 
			},
			{
				"x": -1.7206717829,
				"y": -0.6055326595,
				"z": -1.619141613,
				"element": "C" 
			},
			{
				"x": -2.3118950602,
				"y": -0.0886866573,
				"z": -2.5493486098,
				"element": "O" 
			},
			{
				"x": -0.5961863768,
				"y": -3.2517352797,
				"z": 0.7609968853,
				"element": "C" 
			},
			{
				"x": 0.0885851308,
				"y": -2.9687692756,
				"z": 1.8853810683,
				"element": "O" 
			},
			{
				"x": -0.9155370528,
				"y": -4.3720111574,
				"z": 0.4500351062,
				"element": "O" 
			},
			{
				"x": 0.33185298,
				"y": 0.8535525816,
				"z": -1.1515940553,
				"element": "C" 
			},
			{
				"x": 1.6090482129,
				"y": 0.6561903604,
				"z": -0.6146590121,
				"element": "C" 
			},
			{
				"x": 2.7114950136,
				"y": 1.3178550075,
				"z": -1.1589262977,
				"element": "C" 
			},
			{
				"x": 2.5500079033,
				"y": 2.1817703009,
				"z": -2.2418184552,
				"element": "C" 
			},
			{
				"x": 1.2775573562,
				"y": 2.3783526161,
				"z": -2.782180613,
				"element": "C" 
			},
			{
				"x": 0.1729468346,
				"y": 1.7202568798,
				"z": -2.2428168037,
				"element": "C" 
			},
			{
				"x": -1.2271602902,
				"y": 1.6808838426,
				"z": 0.9769496859,
				"element": "H" 
			},
			{
				"x": -2.6340571033,
				"y": 0.6261587451,
				"z": 0.6752300586,
				"element": "H" 
			},
			{
				"x": -2.2034762355,
				"y": 1.8875968837,
				"z": -0.496440945,
				"element": "H" 
			},
			{
				"x": -2.0948937044,
				"y": -2.8494016395,
				"z": -1.7329395707,
				"element": "H" 
			},
			{
				"x": 0.2271357193,
				"y": -2.0081365671,
				"z": 1.9421121027,
				"element": "H" 
			},
			{
				"x": 1.7440368832,
				"y": -0.0159291453,
				"z": 0.224693295,
				"element": "H" 
			},
			{
				"x": 3.6973631087,
				"y": 1.1541423947,
				"z": -0.7333798244,
				"element": "H" 
			},
			{
				"x": 3.408651259,
				"y": 2.6955443131,
				"z": -2.6639921884,
				"element": "H" 
			},
			{
				"x": 1.1420299258,
				"y": 3.0426668785,
				"z": -3.6306778179,
				"element": "H" 
			},
			{
				"x": -0.8098576035,
				"y": 1.8550149674,
				"z": -2.6815148659,
				"element": "H" 
			}
		],
		 "valence_orbital": [ 
			{
				"type": "occ",
				"energy": -0.29841,
				"method": "rhf"
			},
			{
				"type": "occ",
				"energy": -0.27342,
				"method": "rhf"
			},
			{
				"type": "occ",
				"energy": -0.27171,
				"method": "rhf"
			},
			{
				"type": "occ",
				"energy": -0.26114,
				"method": "rhf"
			},
			{
				"type": "occ",
				"energy": -0.25136,
				"method": "rhf"
			},
			{
				"type": "unocc",
				"energy": -0.0929,
				"method": "rhf"
			},
			{
				"type": "unocc",
				"energy": -0.01819,
				"method": "rhf"
			},
			{
				"type": "unocc",
				"energy": -0.01301,
				"method": "rhf"
			},
			{
				"type": "unocc",
				"energy": 0.01472,
				"method": "rhf"
			},
			{
				"type": "unocc",
				"energy": 0.05218,
				"method": "rhf"
			}
		],
		"cosmo_sigma_profile": { 
			"-0.025": 0.0,
			"-0.024": 0.0,
			"-0.023": 0.0,
			"-0.022": 0.0,
			"-0.021": 0.0,
			"-0.02": 0.0,
			"-0.019": 0.0,
			"-0.018": 0.0,
			"-0.017": 0.474384829631,
			"-0.016": 0.285757186723,
			"-0.015": 0.693232842459,
			"-0.014": 0.7912844878,
			"-0.013": 0.589845208534,
			"-0.012": 0.936191801935,
			"-0.011": 0.826320151562,
			"-0.01": 1.79389778861,
			"-0.009": 2.53339287002,
			"-0.008": 3.92183108077,
			"-0.007": 5.30700288453,
			"-0.006": 12.5595446963,
			"-0.005": 17.7649159345,
			"-0.004": 21.5379110695,
			"-0.003": 21.9872516895,
			"-0.002": 20.2677077963,
			"-0.001": 19.6840474089,
			"0.0": 13.6268958661,
			"0.001": 13.4174964856,
			"0.002": 10.272028062,
			"0.003": 12.1731984971,
			"0.004": 12.3017555018,
			"0.005": 13.3415626258,
			"0.006": 5.09591736318,
			"0.007": 4.94311476491,
			"0.008": 6.12334074083,
			"0.009": 6.18358984691,
			"0.01": 7.73619812871,
			"0.011": 7.22836496238,
			"0.012": 2.60550097563,
			"0.013": 0.267647350463,
			"0.014": 0.0,
			"0.015": 0.0,
			"0.016": 0.0,
			"0.017": 0.0,
			"0.018": 0.0,
			"0.019": 0.0,
			"0.02": 0.0,
			"0.021": 0.0,
			"0.022": 0.0,
			"0.023": 0.0,
			"0.024": 0.0,
			"0.025": 0.0
		}
	}
}
