{
	 "smiles": "O=CNC1=CC=C(C=C1)C1=NNC(=O)CC1", 
	 "Tm": 527.15, 
	 "num_atms": 27, 
	 "gaussian": { 
		 "optdone": 1, 
		 "sigma_profile": "yes", 
		 "theory": "DFT", 
		 "functional": "B3LYP", 
		 "basiset": "6-31G**", 
		 "properties": { 
			 "R2extent": 6160.5459, 
			 "electric_dipole_moment_norm": 0.639080785191, 
			 "electric_quadrupole_moment_norm": 38.77285982, 
			 "total_energy": -740.498149077, 
			 "HOMO_LUMO_gap": 0.15843, 
			 "cosmo_polarized_energy": -20.33, 
			 "cosmo_cavitation_energy": 31.64, 
			 "cosmo_dispersion_energy": -23.41, 
			 "cosmo_repulsion_energy": 1.82, 
			 "cosmo_total_nonelectrostatic_energy": 10.05, 
			 "SMD_solvation_energy": 6.69 
		},
		"coords": [
			{
				"x": -1.8417030751,
				"y": -3.1258589229,
				"z": -4.6320729655,
				"element": "O" 
			},
			{
				"x": -1.6802740414,
				"y": -2.8298921206,
				"z": -3.4637180568,
				"element": "C" 
			},
			{
				"x": -1.2042229314,
				"y": -1.6076570756,
				"z": -3.0516256725,
				"element": "N" 
			},
			{
				"x": -0.9760689061,
				"y": -1.1690519897,
				"z": -1.7358161296,
				"element": "C" 
			},
			{
				"x": -0.0427800213,
				"y": -0.1408600922,
				"z": -1.5163631778,
				"element": "C" 
			},
			{
				"x": 0.2111365353,
				"y": 0.3229515282,
				"z": -0.2359262185,
				"element": "C" 
			},
			{
				"x": -0.4442630639,
				"y": -0.2272243726,
				"z": 0.8831105845,
				"element": "C" 
			},
			{
				"x": -1.3778690509,
				"y": -1.2493896631,
				"z": 0.6505416337,
				"element": "C" 
			},
			{
				"x": -1.6568990544,
				"y": -1.7068475935,
				"z": -0.6355296653,
				"element": "C" 
			},
			{
				"x": -0.1688410815,
				"y": 0.2860555172,
				"z": 2.2416359103,
				"element": "C" 
			},
			{
				"x": 0.5090152188,
				"y": 1.3835570879,
				"z": 2.3331773371,
				"element": "N" 
			},
			{
				"x": 0.7578829574,
				"y": 1.8816509877,
				"z": 3.5913043558,
				"element": "N" 
			},
			{
				"x": 0.7476260348,
				"y": 1.189782069,
				"z": 4.7885285319,
				"element": "C" 
			},
			{
				"x": 1.1200798321,
				"y": 1.7093128663,
				"z": 5.8273494309,
				"element": "O" 
			},
			{
				"x": 0.2845968064,
				"y": -0.2464578853,
				"z": 4.6469178914,
				"element": "C" 
			},
			{
				"x": -0.6939363554,
				"y": -0.4160481309,
				"z": 3.4776323195,
				"element": "C" 
			},
			{
				"x": -1.8879351233,
				"y": -3.5202246323,
				"z": -2.6279297789,
				"element": "H" 
			},
			{
				"x": -0.9147506225,
				"y": -1.0001967943,
				"z": -3.8092086701,
				"element": "H" 
			},
			{
				"x": 0.4939725793,
				"y": 0.2826249984,
				"z": -2.361432426,
				"element": "H" 
			},
			{
				"x": 0.9331242348,
				"y": 1.1158871562,
				"z": -0.0780033653,
				"element": "H" 
			},
			{
				"x": -1.9321937152,
				"y": -1.683930203,
				"z": 1.4755679876,
				"element": "H" 
			},
			{
				"x": -2.4221787634,
				"y": -2.4621167563,
				"z": -0.7745500843,
				"element": "H" 
			},
			{
				"x": 1.2093630394,
				"y": 2.7866618259,
				"z": 3.5969177427,
				"element": "H" 
			},
			{
				"x": -0.1476649676,
				"y": -0.5642288672,
				"z": 5.5977896586,
				"element": "H" 
			},
			{
				"x": 1.1828039017,
				"y": -0.8562856678,
				"z": 4.4799623939,
				"element": "H" 
			},
			{
				"x": -0.869547762,
				"y": -1.4771896094,
				"z": 3.2896576703,
				"element": "H" 
			},
			{
				"x": -1.6671726047,
				"y": 0.0247763398,
				"z": 3.7393827624,
				"element": "H" 
			}
		],
		 "valence_orbital": [ 
			{
				"type": "occ",
				"energy": -0.27294,
				"method": "rhf"
			},
			{
				"type": "occ",
				"energy": -0.2673,
				"method": "rhf"
			},
			{
				"type": "occ",
				"energy": -0.26219,
				"method": "rhf"
			},
			{
				"type": "occ",
				"energy": -0.25276,
				"method": "rhf"
			},
			{
				"type": "occ",
				"energy": -0.21732,
				"method": "rhf"
			},
			{
				"type": "unocc",
				"energy": -0.05889,
				"method": "rhf"
			},
			{
				"type": "unocc",
				"energy": -0.02179,
				"method": "rhf"
			},
			{
				"type": "unocc",
				"energy": -0.00379,
				"method": "rhf"
			},
			{
				"type": "unocc",
				"energy": 0.02282,
				"method": "rhf"
			},
			{
				"type": "unocc",
				"energy": 0.05045,
				"method": "rhf"
			}
		],
		"cosmo_sigma_profile": { 
			"-0.025": 0.0,
			"-0.024": 0.0,
			"-0.023": 0.0,
			"-0.022": 0.0,
			"-0.021": 0.0,
			"-0.02": 0.0,
			"-0.019": 0.0,
			"-0.018": 0.0,
			"-0.017": 0.0,
			"-0.016": 0.00184581981793,
			"-0.015": 1.2334619238,
			"-0.014": 2.59715369398,
			"-0.013": 2.06493706927,
			"-0.012": 1.65941410708,
			"-0.011": 2.17155699736,
			"-0.01": 2.038547994,
			"-0.009": 3.44342017438,
			"-0.008": 6.15260476761,
			"-0.007": 9.82840873433,
			"-0.006": 18.2787394804,
			"-0.005": 20.5786912458,
			"-0.004": 18.5248792881,
			"-0.003": 16.8648257471,
			"-0.002": 13.0248936799,
			"-0.001": 12.4122569203,
			"0.0": 12.6555375979,
			"0.001": 11.9911291587,
			"0.002": 13.0203742134,
			"0.003": 13.7082692946,
			"0.004": 17.781961773,
			"0.005": 6.14626885398,
			"0.006": 4.47609134875,
			"0.007": 3.35932028308,
			"0.008": 4.68793406197,
			"0.009": 3.36541887904,
			"0.01": 3.63165631104,
			"0.011": 4.5605311957,
			"0.012": 8.2089028829,
			"0.013": 10.3694524492,
			"0.014": 3.29085852621,
			"0.015": 0.095152274992,
			"0.016": 0.0,
			"0.017": 0.0,
			"0.018": 0.0,
			"0.019": 0.0,
			"0.02": 0.0,
			"0.021": 0.0,
			"0.022": 0.0,
			"0.023": 0.0,
			"0.024": 0.0,
			"0.025": 0.0
		}
	}
}
