{
	 "smiles": "CC1=CC2=C(SC(=C2)C(Cl)=O)C=C1", 
	 "Tm": 332.15, 
	 "num_atms": 20, 
	 "gaussian": { 
		 "optdone": 1, 
		 "sigma_profile": "yes", 
		 "theory": "DFT", 
		 "functional": "B3LYP", 
		 "basiset": "6-31G**", 
		 "properties": { 
			 "R2extent": 5614.5704, 
			 "electric_dipole_moment_norm": 5.37934213822, 
			 "electric_quadrupole_moment_norm": 22.8741375317, 
			 "total_energy": -1318.90188764, 
			 "HOMO_LUMO_gap": 0.15018, 
			 "cosmo_polarized_energy": -7.04, 
			 "cosmo_cavitation_energy": 28.0, 
			 "cosmo_dispersion_energy": -21.18, 
			 "cosmo_repulsion_energy": 1.62, 
			 "cosmo_total_nonelectrostatic_energy": 8.44, 
			 "SMD_solvation_energy": 4.9 
		},
		"coords": [
			{
				"x": 1.9852945215,
				"y": 1.6427833498,
				"z": -2.1545072273,
				"element": "C" 
			},
			{
				"x": 0.8944784685,
				"y": 1.059156866,
				"z": -1.2881383564,
				"element": "C" 
			},
			{
				"x": -0.4430739533,
				"y": 1.1665427374,
				"z": -1.640311567,
				"element": "C" 
			},
			{
				"x": -1.4456225116,
				"y": 0.6131083802,
				"z": -0.8148321629,
				"element": "C" 
			},
			{
				"x": -1.072351257,
				"y": -0.0549611934,
				"z": 0.3800362091,
				"element": "C" 
			},
			{
				"x": -2.4619528971,
				"y": -0.6640515559,
				"z": 1.2527657564,
				"element": "S" 
			},
			{
				"x": -3.5355725532,
				"y": -0.0220100056,
				"z": 0.014939686,
				"element": "C" 
			},
			{
				"x": -2.8611726473,
				"y": 0.615752256,
				"z": -0.996687749,
				"element": "C" 
			},
			{
				"x": -4.9904066749,
				"y": -0.14133121,
				"z": 0.0377782843,
				"element": "C" 
			},
			{
				"x": -5.6378525136,
				"y": -1.0361512084,
				"z": 1.494548008,
				"element": "Cl" 
			},
			{
				"x": -5.7471660647,
				"y": 0.2827670943,
				"z": -0.7858605566,
				"element": "O" 
			},
			{
				"x": 0.2749566448,
				"y": -0.1698074427,
				"z": 0.7462401842,
				"element": "C" 
			},
			{
				"x": 1.2336136214,
				"y": 0.385292519,
				"z": -0.0875907107,
				"element": "C" 
			},
			{
				"x": 1.5727938447,
				"y": 2.1294902198,
				"z": -3.0420490446,
				"element": "H" 
			},
			{
				"x": 2.6832550863,
				"y": 0.8675853907,
				"z": -2.4910490982,
				"element": "H" 
			},
			{
				"x": 2.5727591689,
				"y": 2.3879665677,
				"z": -1.6059392093,
				"element": "H" 
			},
			{
				"x": -0.7279267929,
				"y": 1.6784102394,
				"z": -2.5557629133,
				"element": "H" 
			},
			{
				"x": -3.3754866142,
				"y": 1.0671499087,
				"z": -1.836933492,
				"element": "H" 
			},
			{
				"x": 0.565211233,
				"y": -0.6799485226,
				"z": 1.6593229174,
				"element": "H" 
			},
			{
				"x": 2.2821218906,
				"y": 0.3018556099,
				"z": 0.1871310419,
				"element": "H" 
			}
		],
		 "valence_orbital": [ 
			{
				"type": "occ",
				"energy": -0.31898,
				"method": "rhf"
			},
			{
				"type": "occ",
				"energy": -0.30171,
				"method": "rhf"
			},
			{
				"type": "occ",
				"energy": -0.29491,
				"method": "rhf"
			},
			{
				"type": "occ",
				"energy": -0.25129,
				"method": "rhf"
			},
			{
				"type": "occ",
				"energy": -0.23715,
				"method": "rhf"
			},
			{
				"type": "unocc",
				"energy": -0.08697,
				"method": "rhf"
			},
			{
				"type": "unocc",
				"energy": -0.01729,
				"method": "rhf"
			},
			{
				"type": "unocc",
				"energy": -0.00263,
				"method": "rhf"
			},
			{
				"type": "unocc",
				"energy": -0.00262,
				"method": "rhf"
			},
			{
				"type": "unocc",
				"energy": 0.03315,
				"method": "rhf"
			}
		],
		"cosmo_sigma_profile": { 
			"-0.025": 0.0,
			"-0.024": 0.0,
			"-0.023": 0.0,
			"-0.022": 0.0,
			"-0.021": 0.0,
			"-0.02": 0.0,
			"-0.019": 0.0,
			"-0.018": 0.0,
			"-0.017": 0.0,
			"-0.016": 0.0,
			"-0.015": 0.0,
			"-0.014": 0.0,
			"-0.013": 0.0,
			"-0.012": 0.0,
			"-0.011": 0.0,
			"-0.01": 0.0,
			"-0.009": 0.735163364937,
			"-0.008": 3.10946387995,
			"-0.007": 6.6885596751,
			"-0.006": 8.33454077465,
			"-0.005": 10.2690115807,
			"-0.004": 16.3489073012,
			"-0.003": 15.1757808545,
			"-0.002": 17.4592796945,
			"-0.001": 19.2274136914,
			"0.0": 25.0915285519,
			"0.001": 22.4025617371,
			"0.002": 24.6644380748,
			"0.003": 24.6705344115,
			"0.004": 17.2879718508,
			"0.005": 4.45807511769,
			"0.006": 2.4529183473,
			"0.007": 2.32347149459,
			"0.008": 4.09180662083,
			"0.009": 3.8271487246,
			"0.01": 0.6416443728,
			"0.011": 0.0,
			"0.012": 0.0,
			"0.013": 0.0,
			"0.014": 0.0,
			"0.015": 0.0,
			"0.016": 0.0,
			"0.017": 0.0,
			"0.018": 0.0,
			"0.019": 0.0,
			"0.02": 0.0,
			"0.021": 0.0,
			"0.022": 0.0,
			"0.023": 0.0,
			"0.024": 0.0,
			"0.025": 0.0
		}
	}
}
