{
	 "smiles": "N#CC1=C(OCC2=CC=CC=C2)C=CC=C1", 
	 "Tm": 344.15, 
	 "num_atms": 27, 
	 "gaussian": { 
		 "optdone": 1, 
		 "sigma_profile": "yes", 
		 "theory": "DFT", 
		 "functional": "B3LYP", 
		 "basiset": "6-31G**", 
		 "properties": { 
			 "R2extent": 4691.3463, 
			 "electric_dipole_moment_norm": 5.56176751582, 
			 "electric_quadrupole_moment_norm": 18.0760723754, 
			 "total_energy": -670.069395499, 
			 "HOMO_LUMO_gap": 0.19294, 
			 "cosmo_polarized_energy": -12.53, 
			 "cosmo_cavitation_energy": 32.34, 
			 "cosmo_dispersion_energy": -22.28, 
			 "cosmo_repulsion_energy": 1.75, 
			 "cosmo_total_nonelectrostatic_energy": 11.81, 
			 "SMD_solvation_energy": 6.97 
		},
		"coords": [
			{
				"x": -0.0936460985,
				"y": -3.9071750874,
				"z": -0.9640274424,
				"element": "N" 
			},
			{
				"x": -0.0549720215,
				"y": -2.8750239441,
				"z": -0.4284223038,
				"element": "C" 
			},
			{
				"x": -0.0263923497,
				"y": -1.62221065,
				"z": 0.2634042096,
				"element": "C" 
			},
			{
				"x": 0.4674750666,
				"y": -0.465613218,
				"z": -0.3861335077,
				"element": "C" 
			},
			{
				"x": 0.9011388702,
				"y": -0.6509871817,
				"z": -1.6590017817,
				"element": "O" 
			},
			{
				"x": 1.5206981551,
				"y": 0.4289519442,
				"z": -2.3652019637,
				"element": "C" 
			},
			{
				"x": 0.5427744472,
				"y": 1.4535825056,
				"z": -2.9038800829,
				"element": "C" 
			},
			{
				"x": 0.9165836295,
				"y": 2.799079877,
				"z": -2.9963762713,
				"element": "C" 
			},
			{
				"x": 0.0452518889,
				"y": 3.7408051435,
				"z": -3.5471091903,
				"element": "C" 
			},
			{
				"x": -1.213232647,
				"y": 3.3448611948,
				"z": -4.0020343686,
				"element": "C" 
			},
			{
				"x": -1.5937048308,
				"y": 2.0039979432,
				"z": -3.9073529686,
				"element": "C" 
			},
			{
				"x": -0.7196754624,
				"y": 1.0617259448,
				"z": -3.3656576694,
				"element": "C" 
			},
			{
				"x": 0.4825705759,
				"y": 0.7523663673,
				"z": 0.3022763083,
				"element": "C" 
			},
			{
				"x": 0.0233906919,
				"y": 0.8118461407,
				"z": 1.6191721502,
				"element": "C" 
			},
			{
				"x": -0.4591149905,
				"y": -0.3256217565,
				"z": 2.2681965881,
				"element": "C" 
			},
			{
				"x": -0.4853080351,
				"y": -1.5388650222,
				"z": 1.586694088,
				"element": "C" 
			},
			{
				"x": 2.2823720885,
				"y": 0.9066373984,
				"z": -1.7359627948,
				"element": "H" 
			},
			{
				"x": 2.0403600716,
				"y": -0.0710806644,
				"z": -3.1887222059,
				"element": "H" 
			},
			{
				"x": 1.8944102696,
				"y": 3.1134371071,
				"z": -2.6374715183,
				"element": "H" 
			},
			{
				"x": 0.3469345222,
				"y": 4.7822325404,
				"z": -3.6129447503,
				"element": "H" 
			},
			{
				"x": -1.8949896299,
				"y": 4.0766753744,
				"z": -4.4254399453,
				"element": "H" 
			},
			{
				"x": -2.5727336538,
				"y": 1.690513364,
				"z": -4.2582405671,
				"element": "H" 
			},
			{
				"x": -1.0141287461,
				"y": 0.0193377281,
				"z": -3.2910746564,
				"element": "H" 
			},
			{
				"x": 0.8255219562,
				"y": 1.6543631209,
				"z": -0.1880076976,
				"element": "H" 
			},
			{
				"x": 0.0397689056,
				"y": 1.7659662917,
				"z": 2.1378727485,
				"element": "H" 
			},
			{
				"x": -0.8149093986,
				"y": -0.2674320748,
				"z": 3.2913335445,
				"element": "H" 
			},
			{
				"x": -0.8579432752,
				"y": -2.4378703872,
				"z": 2.0663120489,
				"element": "H" 
			}
		],
		 "valence_orbital": [ 
			{
				"type": "occ",
				"energy": -0.31926,
				"method": "rhf"
			},
			{
				"type": "occ",
				"energy": -0.26457,
				"method": "rhf"
			},
			{
				"type": "occ",
				"energy": -0.26019,
				"method": "rhf"
			},
			{
				"type": "occ",
				"energy": -0.25465,
				"method": "rhf"
			},
			{
				"type": "occ",
				"energy": -0.23739,
				"method": "rhf"
			},
			{
				"type": "unocc",
				"energy": -0.04445,
				"method": "rhf"
			},
			{
				"type": "unocc",
				"energy": -0.01527,
				"method": "rhf"
			},
			{
				"type": "unocc",
				"energy": -0.01261,
				"method": "rhf"
			},
			{
				"type": "unocc",
				"energy": -0.0073,
				"method": "rhf"
			},
			{
				"type": "unocc",
				"energy": 0.04479,
				"method": "rhf"
			}
		],
		"cosmo_sigma_profile": { 
			"-0.025": 0.0,
			"-0.024": 0.0,
			"-0.023": 0.0,
			"-0.022": 0.0,
			"-0.021": 0.0,
			"-0.02": 0.0,
			"-0.019": 0.0,
			"-0.018": 0.0,
			"-0.017": 0.0,
			"-0.016": 0.0,
			"-0.015": 0.0,
			"-0.014": 0.0,
			"-0.013": 0.0,
			"-0.012": 0.0,
			"-0.011": 0.0,
			"-0.01": 0.0,
			"-0.009": 0.0,
			"-0.008": 1.97318667245,
			"-0.007": 10.3697939335,
			"-0.006": 20.5091297916,
			"-0.005": 23.652186004,
			"-0.004": 20.4244436095,
			"-0.003": 17.1217183968,
			"-0.002": 15.7046199575,
			"-0.001": 16.322206002,
			"0.0": 18.7956169936,
			"0.001": 18.7459719106,
			"0.002": 19.0999924708,
			"0.003": 20.0992627778,
			"0.004": 14.2179449818,
			"0.005": 11.2163252735,
			"0.006": 7.39812390629,
			"0.007": 4.59676077509,
			"0.008": 5.22412172548,
			"0.009": 3.86693961824,
			"0.01": 3.49171257956,
			"0.011": 2.7533839482,
			"0.012": 2.70747525062,
			"0.013": 1.98008940037,
			"0.014": 0.236742621639,
			"0.015": 0.0,
			"0.016": 0.0,
			"0.017": 0.0,
			"0.018": 0.0,
			"0.019": 0.0,
			"0.02": 0.0,
			"0.021": 0.0,
			"0.022": 0.0,
			"0.023": 0.0,
			"0.024": 0.0,
			"0.025": 0.0
		}
	}
}
