{
	 "smiles": "CC1=C(C)C(C(O)=O)=C(NC(=O)C2CC2)S1", 
	 "Tm": 423.15, 
	 "num_atms": 29, 
	 "gaussian": { 
		 "optdone": 1, 
		 "sigma_profile": "yes", 
		 "theory": "DFT", 
		 "functional": "B3LYP", 
		 "basiset": "6-31G**", 
		 "properties": { 
			 "R2extent": 5282.4477, 
			 "electric_dipole_moment_norm": 4.49083780825, 
			 "electric_quadrupole_moment_norm": 16.237741084, 
			 "total_energy": -1105.62029739, 
			 "HOMO_LUMO_gap": 0.16165, 
			 "cosmo_polarized_energy": -12.86, 
			 "cosmo_cavitation_energy": 33.58, 
			 "cosmo_dispersion_energy": -24.86, 
			 "cosmo_repulsion_energy": 1.9, 
			 "cosmo_total_nonelectrostatic_energy": 10.62, 
			 "SMD_solvation_energy": 6.94 
		},
		"coords": [
			{
				"x": 2.2531023007,
				"y": 0.4610872695,
				"z": 2.8195471916,
				"element": "C" 
			},
			{
				"x": 0.9525567446,
				"y": 0.8399362638,
				"z": 2.1734152148,
				"element": "C" 
			},
			{
				"x": 0.0453858756,
				"y": 1.8108141677,
				"z": 2.4890883173,
				"element": "C" 
			},
			{
				"x": 0.199798159,
				"y": 2.741960291,
				"z": 3.6639717049,
				"element": "C" 
			},
			{
				"x": -1.0796781648,
				"y": 1.8431962753,
				"z": 1.5645872164,
				"element": "C" 
			},
			{
				"x": -2.2482746379,
				"y": 2.7187611497,
				"z": 1.6197994405,
				"element": "C" 
			},
			{
				"x": -2.2124483355,
				"y": 3.6620679302,
				"z": 2.5916275619,
				"element": "O" 
			},
			{
				"x": -3.2211165321,
				"y": 2.6502350653,
				"z": 0.8699454249,
				"element": "O" 
			},
			{
				"x": -0.9804940106,
				"y": 0.8864847532,
				"z": 0.5497933274,
				"element": "C" 
			},
			{
				"x": -1.933501221,
				"y": 0.6804933196,
				"z": -0.4188644864,
				"element": "N" 
			},
			{
				"x": -2.0073936598,
				"y": -0.1205329392,
				"z": -1.5604632201,
				"element": "C" 
			},
			{
				"x": -3.0962772224,
				"y": -0.2483058612,
				"z": -2.1035772237,
				"element": "O" 
			},
			{
				"x": -0.7730493896,
				"y": -0.7661480625,
				"z": -2.0916359668,
				"element": "C" 
			},
			{
				"x": -0.8304311376,
				"y": -1.2516681108,
				"z": -3.5282881882,
				"element": "C" 
			},
			{
				"x": -0.8642055879,
				"y": -2.2538282702,
				"z": -2.4237382755,
				"element": "C" 
			},
			{
				"x": 0.4639386318,
				"y": -0.0698585272,
				"z": 0.7449932104,
				"element": "S" 
			},
			{
				"x": 3.1056110412,
				"y": 0.6388403372,
				"z": 2.1528727264,
				"element": "H" 
			},
			{
				"x": 2.4198567508,
				"y": 1.0433074144,
				"z": 3.7276301774,
				"element": "H" 
			},
			{
				"x": 2.2728933986,
				"y": -0.5982358245,
				"z": 3.1009879827,
				"element": "H" 
			},
			{
				"x": 0.2351817219,
				"y": 3.7860080681,
				"z": 3.3405507679,
				"element": "H" 
			},
			{
				"x": 1.1132642724,
				"y": 2.526416458,
				"z": 4.2206022824,
				"element": "H" 
			},
			{
				"x": -0.6467869636,
				"y": 2.6569522373,
				"z": 4.3509229316,
				"element": "H" 
			},
			{
				"x": -3.0491794956,
				"y": 4.1484098247,
				"z": 2.5023938243,
				"element": "H" 
			},
			{
				"x": -2.7857727403,
				"y": 1.2211200638,
				"z": -0.2401590271,
				"element": "H" 
			},
			{
				"x": 0.1818140402,
				"y": -0.3956222614,
				"z": -1.7401829018,
				"element": "H" 
			},
			{
				"x": -1.7584144078,
				"y": -1.0517386137,
				"z": -4.0522199894,
				"element": "H" 
			},
			{
				"x": 0.0780115285,
				"y": -1.1490038346,
				"z": -4.1130243374,
				"element": "H" 
			},
			{
				"x": 0.0152159296,
				"y": -2.8584118391,
				"z": -2.2259179165,
				"element": "H" 
			},
			{
				"x": -1.8145068883,
				"y": -2.7316367444,
				"z": -2.2092577699,
				"element": "H" 
			}
		],
		 "valence_orbital": [ 
			{
				"type": "occ",
				"energy": -0.29117,
				"method": "rhf"
			},
			{
				"type": "occ",
				"energy": -0.28366,
				"method": "rhf"
			},
			{
				"type": "occ",
				"energy": -0.26108,
				"method": "rhf"
			},
			{
				"type": "occ",
				"energy": -0.25791,
				"method": "rhf"
			},
			{
				"type": "occ",
				"energy": -0.20884,
				"method": "rhf"
			},
			{
				"type": "unocc",
				"energy": -0.04719,
				"method": "rhf"
			},
			{
				"type": "unocc",
				"energy": 0.00399,
				"method": "rhf"
			},
			{
				"type": "unocc",
				"energy": 0.01179,
				"method": "rhf"
			},
			{
				"type": "unocc",
				"energy": 0.03234,
				"method": "rhf"
			},
			{
				"type": "unocc",
				"energy": 0.07409,
				"method": "rhf"
			}
		],
		"cosmo_sigma_profile": { 
			"-0.025": 0.0,
			"-0.024": 0.0,
			"-0.023": 0.0,
			"-0.022": 0.0,
			"-0.021": 0.0,
			"-0.02": 0.0,
			"-0.019": 0.0,
			"-0.018": 0.701594401895,
			"-0.017": 0.988496781331,
			"-0.016": 0.608928376017,
			"-0.015": 0.869415566425,
			"-0.014": 0.848088023952,
			"-0.013": 0.16111785238,
			"-0.012": 0.472129764462,
			"-0.011": 0.864266297713,
			"-0.01": 0.946557916459,
			"-0.009": 0.789318238084,
			"-0.008": 0.494848511621,
			"-0.007": 1.28305776739,
			"-0.006": 5.77454452649,
			"-0.005": 15.9287639506,
			"-0.004": 18.7259891169,
			"-0.003": 23.7236820705,
			"-0.002": 27.2424998457,
			"-0.001": 33.0695577639,
			"0.0": 30.1049351821,
			"0.001": 25.6069447522,
			"0.002": 20.2008750898,
			"0.003": 15.587563046,
			"0.004": 9.08371646587,
			"0.005": 5.4704562718,
			"0.006": 4.52058784927,
			"0.007": 2.25603033623,
			"0.008": 2.89927549048,
			"0.009": 2.31797816592,
			"0.01": 3.70368330371,
			"0.011": 4.07013458343,
			"0.012": 4.8038080999,
			"0.013": 3.8638835519,
			"0.014": 0.296594982498,
			"0.015": 0.0,
			"0.016": 0.0,
			"0.017": 0.0,
			"0.018": 0.0,
			"0.019": 0.0,
			"0.02": 0.0,
			"0.021": 0.0,
			"0.022": 0.0,
			"0.023": 0.0,
			"0.024": 0.0,
			"0.025": 0.0
		}
	}
}
