{
	 "smiles": "OC(=O)C(OC1=C(Cl)C=C(Br)C=C1)C1=CC=CC=C1", 
	 "Tm": 409.15, 
	 "num_atms": 29, 
	 "gaussian": { 
		 "optdone": 1, 
		 "sigma_profile": "yes", 
		 "theory": "DFT", 
		 "functional": "B3LYP", 
		 "basiset": "6-31G**", 
		 "properties": { 
			 "R2extent": 11579.2533, 
			 "electric_dipole_moment_norm": 2.27522084642, 
			 "electric_quadrupole_moment_norm": 10.0532888086, 
			 "total_energy": -3796.77918798, 
			 "HOMO_LUMO_gap": 0.20296, 
			 "cosmo_polarized_energy": -12.83, 
			 "cosmo_cavitation_energy": 38.18, 
			 "cosmo_dispersion_energy": -27.09, 
			 "cosmo_repulsion_energy": 2.08, 
			 "cosmo_total_nonelectrostatic_energy": 13.18, 
			 "SMD_solvation_energy": 6.09 
		},
		"coords": [
			{
				"x": -1.0906198294,
				"y": -1.8785033047,
				"z": 0.1832932545,
				"element": "O" 
			},
			{
				"x": -1.462544842,
				"y": -0.7089327205,
				"z": -0.364199513,
				"element": "C" 
			},
			{
				"x": -2.5013828026,
				"y": -0.5704176304,
				"z": -0.9623809735,
				"element": "O" 
			},
			{
				"x": -0.4411271242,
				"y": 0.4364317233,
				"z": -0.2033500268,
				"element": "C" 
			},
			{
				"x": 0.3191679502,
				"y": 0.2545923779,
				"z": 0.9946851287,
				"element": "O" 
			},
			{
				"x": -0.2257312161,
				"y": 0.6412947579,
				"z": 2.1919762526,
				"element": "C" 
			},
			{
				"x": 0.6423884441,
				"y": 0.6714727252,
				"z": 3.2979568674,
				"element": "C" 
			},
			{
				"x": 2.3232440216,
				"y": 0.2324351842,
				"z": 3.0950515198,
				"element": "Cl" 
			},
			{
				"x": 0.1845249235,
				"y": 1.0441836532,
				"z": 4.5578294729,
				"element": "C" 
			},
			{
				"x": -1.1562492849,
				"y": 1.3916393607,
				"z": 4.7193127804,
				"element": "C" 
			},
			{
				"x": -1.7845818773,
				"y": 1.9067057811,
				"z": 6.4445649133,
				"element": "Br" 
			},
			{
				"x": -2.0343128467,
				"y": 1.3614061466,
				"z": 3.6413162162,
				"element": "C" 
			},
			{
				"x": -1.5686274723,
				"y": 0.9839843859,
				"z": 2.3805719746,
				"element": "C" 
			},
			{
				"x": 0.5112556573,
				"y": 0.4652067315,
				"z": -1.3938936798,
				"element": "C" 
			},
			{
				"x": 1.8964005082,
				"y": 0.3745280634,
				"z": -1.2272534058,
				"element": "C" 
			},
			{
				"x": 2.7353834183,
				"y": 0.4181613222,
				"z": -2.3435013687,
				"element": "C" 
			},
			{
				"x": 2.2006666283,
				"y": 0.5515003051,
				"z": -3.6244943507,
				"element": "C" 
			},
			{
				"x": 0.8165023787,
				"y": 0.6420490113,
				"z": -3.7899975467,
				"element": "C" 
			},
			{
				"x": -0.0268456286,
				"y": 0.5983619765,
				"z": -2.681429625,
				"element": "C" 
			},
			{
				"x": -0.2387220438,
				"y": -1.7527938472,
				"z": 0.6361398662,
				"element": "H" 
			},
			{
				"x": -1.0053625502,
				"y": 1.3734549846,
				"z": -0.1565322519,
				"element": "H" 
			},
			{
				"x": 0.8703277764,
				"y": 1.0638791593,
				"z": 5.3954871765,
				"element": "H" 
			},
			{
				"x": -3.0771491183,
				"y": 1.6227898827,
				"z": 3.775642902,
				"element": "H" 
			},
			{
				"x": -2.2704709216,
				"y": 0.945311051,
				"z": 1.5558427974,
				"element": "H" 
			},
			{
				"x": 2.3151288382,
				"y": 0.2800096107,
				"z": -0.2323322343,
				"element": "H" 
			},
			{
				"x": 3.8106041715,
				"y": 0.3486850021,
				"z": -2.2062239113,
				"element": "H" 
			},
			{
				"x": 2.8567849318,
				"y": 0.5856121011,
				"z": -4.4892790292,
				"element": "H" 
			},
			{
				"x": 0.3908662119,
				"y": 0.7458242077,
				"z": -4.783702853,
				"element": "H" 
			},
			{
				"x": -1.1033183021,
				"y": 0.6576279977,
				"z": -2.8109003529,
				"element": "H" 
			}
		],
		 "valence_orbital": [ 
			{
				"type": "occ",
				"energy": -0.28671,
				"method": "rhf"
			},
			{
				"type": "occ",
				"energy": -0.27419,
				"method": "rhf"
			},
			{
				"type": "occ",
				"energy": -0.2609,
				"method": "rhf"
			},
			{
				"type": "occ",
				"energy": -0.25562,
				"method": "rhf"
			},
			{
				"type": "occ",
				"energy": -0.24362,
				"method": "rhf"
			},
			{
				"type": "unocc",
				"energy": -0.04066,
				"method": "rhf"
			},
			{
				"type": "unocc",
				"energy": -0.02793,
				"method": "rhf"
			},
			{
				"type": "unocc",
				"energy": -0.02143,
				"method": "rhf"
			},
			{
				"type": "unocc",
				"energy": -0.01602,
				"method": "rhf"
			},
			{
				"type": "unocc",
				"energy": -0.01266,
				"method": "rhf"
			}
		],
		"cosmo_sigma_profile": { 
			"-0.025": 0.0,
			"-0.024": 0.0,
			"-0.023": 0.0,
			"-0.022": 0.0,
			"-0.021": 0.0,
			"-0.02": 0.0,
			"-0.019": 0.0,
			"-0.018": 0.0,
			"-0.017": 0.329267415502,
			"-0.016": 0.635439762099,
			"-0.015": 0.562054626727,
			"-0.014": 0.531016310417,
			"-0.013": 0.606178024988,
			"-0.012": 0.953369970366,
			"-0.011": 1.29818751102,
			"-0.01": 1.42642636405,
			"-0.009": 3.59533914218,
			"-0.008": 7.53381795018,
			"-0.007": 7.2560169733,
			"-0.006": 12.9961591182,
			"-0.005": 16.586069402,
			"-0.004": 19.1271316985,
			"-0.003": 17.6883837014,
			"-0.002": 20.1093626141,
			"-0.001": 19.4344637052,
			"0.0": 27.1660520547,
			"0.001": 33.4372074701,
			"0.002": 30.0754744109,
			"0.003": 24.9642433581,
			"0.004": 28.5114998174,
			"0.005": 13.753495639,
			"0.006": 2.27283844177,
			"0.007": 3.38246113332,
			"0.008": 3.57052205626,
			"0.009": 4.1244273332,
			"0.01": 3.41514366861,
			"0.011": 4.88640951853,
			"0.012": 2.00138568617,
			"0.013": 0.0984092457268,
			"0.014": 0.0,
			"0.015": 0.0,
			"0.016": 0.0,
			"0.017": 0.0,
			"0.018": 0.0,
			"0.019": 0.0,
			"0.02": 0.0,
			"0.021": 0.0,
			"0.022": 0.0,
			"0.023": 0.0,
			"0.024": 0.0,
			"0.025": 0.0
		}
	}
}
