{
	 "smiles": "CCCCOC1=CC=C(C=C1)N=NC1=CC=C(CCCC)C=C1", 
	 "Tm": 338.15, 
	 "num_atms": 49, 
	 "gaussian": { 
		 "optdone": 1, 
		 "sigma_profile": "yes", 
		 "theory": "DFT", 
		 "functional": "B3LYP", 
		 "basiset": "6-31G**", 
		 "properties": { 
			 "R2extent": 17424.3188, 
			 "electric_dipole_moment_norm": 1.53332325685, 
			 "electric_quadrupole_moment_norm": 23.6354780751, 
			 "total_energy": -962.504383461, 
			 "HOMO_LUMO_gap": 0.13394, 
			 "cosmo_polarized_energy": -9.12, 
			 "cosmo_cavitation_energy": 51.53, 
			 "cosmo_dispersion_energy": -35.99, 
			 "cosmo_repulsion_energy": 2.81, 
			 "cosmo_total_nonelectrostatic_energy": 18.34, 
			 "SMD_solvation_energy": 7.07 
		},
		"coords": [
			{
				"x": -8.2141462152,
				"y": -0.8390421693,
				"z": 0.7988170901,
				"element": "C" 
			},
			{
				"x": -7.6319525735,
				"y": -0.7288544475,
				"z": -0.6133656567,
				"element": "C" 
			},
			{
				"x": -6.5871750526,
				"y": -1.811325536,
				"z": -0.9138904583,
				"element": "C" 
			},
			{
				"x": -5.9875940613,
				"y": -1.7067190037,
				"z": -2.3167453597,
				"element": "C" 
			},
			{
				"x": -5.3171228107,
				"y": -0.4612737655,
				"z": -2.5472038535,
				"element": "O" 
			},
			{
				"x": -4.0411422245,
				"y": -0.2749849705,
				"z": -2.1114878963,
				"element": "C" 
			},
			{
				"x": -3.2600864936,
				"y": -1.2434218894,
				"z": -1.4533091389,
				"element": "C" 
			},
			{
				"x": -1.9578603188,
				"y": -0.9426931387,
				"z": -1.0728857131,
				"element": "C" 
			},
			{
				"x": -1.4081908125,
				"y": 0.3227181927,
				"z": -1.3344721642,
				"element": "C" 
			},
			{
				"x": -2.1967811055,
				"y": 1.2834194781,
				"z": -1.9894785214,
				"element": "C" 
			},
			{
				"x": -3.4963566936,
				"y": 0.9930323592,
				"z": -2.3738642614,
				"element": "C" 
			},
			{
				"x": -0.1014815131,
				"y": 0.7270501948,
				"z": -0.9890808924,
				"element": "N" 
			},
			{
				"x": 0.5906610288,
				"y": -0.1470600466,
				"z": -0.3949172082,
				"element": "N" 
			},
			{
				"x": 1.9009045984,
				"y": 0.2652016693,
				"z": -0.0533420762,
				"element": "C" 
			},
			{
				"x": 2.6868491188,
				"y": -0.6872478076,
				"z": 0.6069291861,
				"element": "C" 
			},
			{
				"x": 3.9925824117,
				"y": -0.3835793962,
				"z": 0.9879161849,
				"element": "C" 
			},
			{
				"x": 4.5491898617,
				"y": 0.873108666,
				"z": 0.7172968735,
				"element": "C" 
			},
			{
				"x": 5.9613492836,
				"y": 1.218074551,
				"z": 1.1439789419,
				"element": "C" 
			},
			{
				"x": 6.9655372076,
				"y": 1.5481824064,
				"z": 0.0144040999,
				"element": "C" 
			},
			{
				"x": 7.4557692072,
				"y": 0.3605910248,
				"z": -0.8337614454,
				"element": "C" 
			},
			{
				"x": 6.4546029198,
				"y": -0.1862005103,
				"z": -1.8591916577,
				"element": "C" 
			},
			{
				"x": 3.7452693155,
				"y": 1.8250688898,
				"z": 0.0608977817,
				"element": "C" 
			},
			{
				"x": 2.4441159863,
				"y": 1.5346829849,
				"z": -0.3231769562,
				"element": "C" 
			},
			{
				"x": -7.4311535804,
				"y": -0.7399417331,
				"z": 1.5591552863,
				"element": "H" 
			},
			{
				"x": -8.9573013385,
				"y": -0.0570413149,
				"z": 0.9845609949,
				"element": "H" 
			},
			{
				"x": -8.7043899917,
				"y": -1.8071458015,
				"z": 0.9540580145,
				"element": "H" 
			},
			{
				"x": -7.1734604903,
				"y": 0.2569536004,
				"z": -0.7510628664,
				"element": "H" 
			},
			{
				"x": -8.4418954801,
				"y": -0.7957557537,
				"z": -1.3527313588,
				"element": "H" 
			},
			{
				"x": -7.0437877502,
				"y": -2.806883577,
				"z": -0.822400538,
				"element": "H" 
			},
			{
				"x": -5.7860798134,
				"y": -1.7689357991,
				"z": -0.1655610813,
				"element": "H" 
			},
			{
				"x": -6.7833429035,
				"y": -1.7251084991,
				"z": -3.0681561825,
				"element": "H" 
			},
			{
				"x": -5.3132013196,
				"y": -2.5448464732,
				"z": -2.5302435408,
				"element": "H" 
			},
			{
				"x": -3.660663589,
				"y": -2.2257583548,
				"z": -1.2334036336,
				"element": "H" 
			},
			{
				"x": -1.3455590556,
				"y": -1.6794301787,
				"z": -0.565197885,
				"element": "H" 
			},
			{
				"x": -1.760064794,
				"y": 2.2574619823,
				"z": -2.1864625254,
				"element": "H" 
			},
			{
				"x": -4.1142240131,
				"y": 1.7248817309,
				"z": -2.8832994514,
				"element": "H" 
			},
			{
				"x": 2.2506001595,
				"y": -1.6599970063,
				"z": 0.8119826742,
				"element": "H" 
			},
			{
				"x": 4.5900234774,
				"y": -1.1323578122,
				"z": 1.5019311292,
				"element": "H" 
			},
			{
				"x": 6.3665153091,
				"y": 0.397666439,
				"z": 1.749187759,
				"element": "H" 
			},
			{
				"x": 5.9134927407,
				"y": 2.0906242092,
				"z": 1.8099154014,
				"element": "H" 
			},
			{
				"x": 7.8396172593,
				"y": 2.0119564443,
				"z": 0.4892347598,
				"element": "H" 
			},
			{
				"x": 6.5382315993,
				"y": 2.3162442489,
				"z": -0.6442696151,
				"element": "H" 
			},
			{
				"x": 7.7771645396,
				"y": -0.4487864072,
				"z": -0.1631598046,
				"element": "H" 
			},
			{
				"x": 8.3601793206,
				"y": 0.6806395795,
				"z": -1.3676108019,
				"element": "H" 
			},
			{
				"x": 5.5652811577,
				"y": -0.6070158717,
				"z": -1.384308262,
				"element": "H" 
			},
			{
				"x": 6.1204985941,
				"y": 0.6043621968,
				"z": -2.54091537,
				"element": "H" 
			},
			{
				"x": 6.9146019249,
				"y": -0.9737577515,
				"z": -2.4660048386,
				"element": "H" 
			},
			{
				"x": 4.1524061515,
				"y": 2.812186966,
				"z": -0.1458757045,
				"element": "H" 
			},
			{
				"x": 1.8265708213,
				"y": 2.2691572009,
				"z": -0.8275294578,
				"element": "H" 
			}
		],
		 "valence_orbital": [ 
			{
				"type": "occ",
				"energy": -0.25536,
				"method": "rhf"
			},
			{
				"type": "occ",
				"energy": -0.24881,
				"method": "rhf"
			},
			{
				"type": "occ",
				"energy": -0.24539,
				"method": "rhf"
			},
			{
				"type": "occ",
				"energy": -0.2159,
				"method": "rhf"
			},
			{
				"type": "occ",
				"energy": -0.20371,
				"method": "rhf"
			},
			{
				"type": "unocc",
				"energy": -0.06977,
				"method": "rhf"
			},
			{
				"type": "unocc",
				"energy": -0.00301,
				"method": "rhf"
			},
			{
				"type": "unocc",
				"energy": 0.00094,
				"method": "rhf"
			},
			{
				"type": "unocc",
				"energy": 0.01921,
				"method": "rhf"
			},
			{
				"type": "unocc",
				"energy": 0.0555,
				"method": "rhf"
			}
		],
		"cosmo_sigma_profile": { 
			"-0.025": 0.0,
			"-0.024": 0.0,
			"-0.023": 0.0,
			"-0.022": 0.0,
			"-0.021": 0.0,
			"-0.02": 0.0,
			"-0.019": 0.0,
			"-0.018": 0.0,
			"-0.017": 0.0,
			"-0.016": 0.0,
			"-0.015": 0.0,
			"-0.014": 0.0,
			"-0.013": 0.0,
			"-0.012": 0.0,
			"-0.011": 0.0,
			"-0.01": 0.0,
			"-0.009": 0.0,
			"-0.008": 0.313506192977,
			"-0.007": 2.33254217511,
			"-0.006": 8.56632623616,
			"-0.005": 18.1577048929,
			"-0.004": 25.969576215,
			"-0.003": 35.3056712211,
			"-0.002": 46.522921034,
			"-0.001": 47.5065174692,
			"0.0": 47.1027479153,
			"0.001": 44.8919087057,
			"0.002": 37.2182428626,
			"0.003": 36.8819075668,
			"0.004": 27.729110303,
			"0.005": 10.6765845456,
			"0.006": 4.42330578652,
			"0.007": 3.63972332514,
			"0.008": 4.56463397147,
			"0.009": 2.62526171304,
			"0.01": 0.737965377384,
			"0.011": 0.00828742596466,
			"0.012": 0.0,
			"0.013": 0.0,
			"0.014": 0.0,
			"0.015": 0.0,
			"0.016": 0.0,
			"0.017": 0.0,
			"0.018": 0.0,
			"0.019": 0.0,
			"0.02": 0.0,
			"0.021": 0.0,
			"0.022": 0.0,
			"0.023": 0.0,
			"0.024": 0.0,
			"0.025": 0.0
		}
	}
}
