{
	 "smiles": "NCC(O)COC1=CC=C(C=C1)C(F)(F)F", 
	 "Tm": 372.15, 
	 "num_atms": 28, 
	 "gaussian": { 
		 "optdone": 1, 
		 "sigma_profile": "yes", 
		 "theory": "DFT", 
		 "functional": "B3LYP", 
		 "basiset": "6-31G**", 
		 "properties": { 
			 "R2extent": 6316.7738, 
			 "electric_dipole_moment_norm": 4.71294832244, 
			 "electric_quadrupole_moment_norm": 20.2404467587, 
			 "total_energy": -893.007184478, 
			 "HOMO_LUMO_gap": 0.21497, 
			 "cosmo_polarized_energy": -11.17, 
			 "cosmo_cavitation_energy": 32.78, 
			 "cosmo_dispersion_energy": -23.24, 
			 "cosmo_repulsion_energy": 1.77, 
			 "cosmo_total_nonelectrostatic_energy": 11.32, 
			 "SMD_solvation_energy": 6.23 
		},
		"coords": [
			{
				"x": 4.9418288079,
				"y": 0.9598042709,
				"z": -1.1203080123,
				"element": "N" 
			},
			{
				"x": 3.8041147354,
				"y": 1.4562299231,
				"z": -0.326733785,
				"element": "C" 
			},
			{
				"x": 2.4988485259,
				"y": 1.1108986146,
				"z": -1.0659369276,
				"element": "C" 
			},
			{
				"x": 2.6048871985,
				"y": 1.481744283,
				"z": -2.4264051099,
				"element": "O" 
			},
			{
				"x": 2.1598146941,
				"y": -0.3887932675,
				"z": -1.0011027273,
				"element": "C" 
			},
			{
				"x": 2.0150022205,
				"y": -0.879287022,
				"z": 0.3365234278,
				"element": "O" 
			},
			{
				"x": 0.82915839,
				"y": -0.7405258525,
				"z": 0.9933693619,
				"element": "C" 
			},
			{
				"x": 0.795761967,
				"y": -1.2805853052,
				"z": 2.2900762815,
				"element": "C" 
			},
			{
				"x": -0.3621608857,
				"y": -1.2064465168,
				"z": 3.0494596152,
				"element": "C" 
			},
			{
				"x": -1.5092523485,
				"y": -0.5916448404,
				"z": 2.5304935364,
				"element": "C" 
			},
			{
				"x": -1.4753987213,
				"y": -0.0547243149,
				"z": 1.244119827,
				"element": "C" 
			},
			{
				"x": -0.3150753703,
				"y": -0.1209281017,
				"z": 0.4722798585,
				"element": "C" 
			},
			{
				"x": -2.7743428675,
				"y": -0.5655086599,
				"z": 3.336061283,
				"element": "C" 
			},
			{
				"x": -3.4861414191,
				"y": -1.7117885145,
				"z": 3.2032492735,
				"element": "F" 
			},
			{
				"x": -3.5930179466,
				"y": 0.4449172975,
				"z": 2.9642492543,
				"element": "F" 
			},
			{
				"x": -2.5252494402,
				"y": -0.4207286601,
				"z": 4.6588805069,
				"element": "F" 
			},
			{
				"x": 5.1848235834,
				"y": 0.0091695068,
				"z": -0.8574148382,
				"element": "H" 
			},
			{
				"x": 5.7683394601,
				"y": 1.5270914646,
				"z": -0.9654933177,
				"element": "H" 
			},
			{
				"x": 3.8810433451,
				"y": 2.5464491152,
				"z": -0.2742644958,
				"element": "H" 
			},
			{
				"x": 3.7720471463,
				"y": 1.0703780173,
				"z": 0.7007624289,
				"element": "H" 
			},
			{
				"x": 1.6790343116,
				"y": 1.6868392294,
				"z": -0.6201281016,
				"element": "H" 
			},
			{
				"x": 3.5440300571,
				"y": 1.3139166662,
				"z": -2.6351971727,
				"element": "H" 
			},
			{
				"x": 1.267977072,
				"y": -0.5955111322,
				"z": -1.6013835441,
				"element": "H" 
			},
			{
				"x": 2.9831269614,
				"y": -0.9681376256,
				"z": -1.4304753114,
				"element": "H" 
			},
			{
				"x": 1.6926436938,
				"y": -1.7531533325,
				"z": 2.676209954,
				"element": "H" 
			},
			{
				"x": -0.3785526829,
				"y": -1.6199038768,
				"z": 4.0524436457,
				"element": "H" 
			},
			{
				"x": -2.3574332035,
				"y": 0.431144009,
				"z": 0.8410785382,
				"element": "H" 
			},
			{
				"x": -0.3150572847,
				"y": 0.3163846251,
				"z": -0.5185134486,
				"element": "H" 
			}
		],
		 "valence_orbital": [ 
			{
				"type": "occ",
				"energy": -0.32183,
				"method": "rhf"
			},
			{
				"type": "occ",
				"energy": -0.27733,
				"method": "rhf"
			},
			{
				"type": "occ",
				"energy": -0.26503,
				"method": "rhf"
			},
			{
				"type": "occ",
				"energy": -0.26161,
				"method": "rhf"
			},
			{
				"type": "occ",
				"energy": -0.23018,
				"method": "rhf"
			},
			{
				"type": "unocc",
				"energy": -0.01521,
				"method": "rhf"
			},
			{
				"type": "unocc",
				"energy": -0.01216,
				"method": "rhf"
			},
			{
				"type": "unocc",
				"energy": 0.05627,
				"method": "rhf"
			},
			{
				"type": "unocc",
				"energy": 0.08605,
				"method": "rhf"
			},
			{
				"type": "unocc",
				"energy": 0.10186,
				"method": "rhf"
			}
		],
		"cosmo_sigma_profile": { 
			"-0.025": 0.0,
			"-0.024": 0.0,
			"-0.023": 0.0,
			"-0.022": 0.0,
			"-0.021": 0.0,
			"-0.02": 0.0,
			"-0.019": 0.0,
			"-0.018": 0.0,
			"-0.017": 0.0,
			"-0.016": 0.0,
			"-0.015": 0.0,
			"-0.014": 0.0,
			"-0.013": 0.0,
			"-0.012": 0.0,
			"-0.011": 1.17413041104,
			"-0.01": 3.03641667269,
			"-0.009": 2.84661566748,
			"-0.008": 4.28417849875,
			"-0.007": 8.62642136375,
			"-0.006": 12.2849017194,
			"-0.005": 15.9967853131,
			"-0.004": 16.2680718343,
			"-0.003": 18.8135078521,
			"-0.002": 17.3886897876,
			"-0.001": 15.8919849001,
			"0.0": 13.7936473444,
			"0.001": 17.5634432518,
			"0.002": 25.1090919645,
			"0.003": 44.7627204718,
			"0.004": 17.1830652861,
			"0.005": 3.51778407314,
			"0.006": 3.00200373341,
			"0.007": 2.68377958572,
			"0.008": 3.08617293835,
			"0.009": 2.12770436761,
			"0.01": 1.87000950227,
			"0.011": 1.20382827282,
			"0.012": 1.24785094407,
			"0.013": 1.67464323967,
			"0.014": 1.94040813608,
			"0.015": 1.44312429109,
			"0.016": 0.0,
			"0.017": 0.0,
			"0.018": 0.0,
			"0.019": 0.0,
			"0.02": 0.0,
			"0.021": 0.0,
			"0.022": 0.0,
			"0.023": 0.0,
			"0.024": 0.0,
			"0.025": 0.0
		}
	}
}
