{
	 "smiles": "ClCC(=O)NNC(=O)C1=CC=C(C=C1)C#N", 
	 "Tm": 459.15, 
	 "num_atms": 24, 
	 "gaussian": { 
		 "optdone": 1, 
		 "sigma_profile": "yes", 
		 "theory": "DFT", 
		 "functional": "B3LYP", 
		 "basiset": "6-31G**", 
		 "properties": { 
			 "R2extent": 5978.4987, 
			 "electric_dipole_moment_norm": 0.884761086396, 
			 "electric_quadrupole_moment_norm": 34.6910668645, 
			 "total_energy": -1160.75365519, 
			 "HOMO_LUMO_gap": 0.17669, 
			 "cosmo_polarized_energy": -21.31, 
			 "cosmo_cavitation_energy": 33.09, 
			 "cosmo_dispersion_energy": -22.62, 
			 "cosmo_repulsion_energy": 1.77, 
			 "cosmo_total_nonelectrostatic_energy": 12.24, 
			 "SMD_solvation_energy": 8.64 
		},
		"coords": [
			{
				"x": 2.4671397151,
				"y": -0.8453321918,
				"z": -1.547066198,
				"element": "Cl" 
			},
			{
				"x": 0.9847101626,
				"y": -1.5943905618,
				"z": -2.2847121421,
				"element": "C" 
			},
			{
				"x": 0.4126489841,
				"y": -2.738374408,
				"z": -1.4519492475,
				"element": "C" 
			},
			{
				"x": 0.314123117,
				"y": -3.8650025605,
				"z": -1.8979177973,
				"element": "O" 
			},
			{
				"x": 0.0402150183,
				"y": -2.4433817085,
				"z": -0.1536960588,
				"element": "N" 
			},
			{
				"x": -0.1648468967,
				"y": -1.1345618808,
				"z": 0.2637964051,
				"element": "N" 
			},
			{
				"x": -1.4510226225,
				"y": -0.7705621249,
				"z": 0.6380930555,
				"element": "C" 
			},
			{
				"x": -2.3974428228,
				"y": -1.5303009702,
				"z": 0.4968387733,
				"element": "O" 
			},
			{
				"x": -1.5836721797,
				"y": 0.6020116322,
				"z": 1.225291646,
				"element": "C" 
			},
			{
				"x": -2.7352988766,
				"y": 0.8677797253,
				"z": 1.978706226,
				"element": "C" 
			},
			{
				"x": -2.9293169327,
				"y": 2.1192353492,
				"z": 2.5495301077,
				"element": "C" 
			},
			{
				"x": -1.9688736873,
				"y": 3.1286163086,
				"z": 2.3605454042,
				"element": "C" 
			},
			{
				"x": -0.8220447705,
				"y": 2.873039388,
				"z": 1.5903760294,
				"element": "C" 
			},
			{
				"x": -0.63417024,
				"y": 1.6154355127,
				"z": 1.026007938,
				"element": "C" 
			},
			{
				"x": -2.1623824357,
				"y": 4.4233015824,
				"z": 2.9472891314,
				"element": "C" 
			},
			{
				"x": -2.3180833364,
				"y": 5.4725846908,
				"z": 3.4240726917,
				"element": "N" 
			},
			{
				"x": 0.2555919209,
				"y": -0.7922343188,
				"z": -2.4089250968,
				"element": "H" 
			},
			{
				"x": 1.275261425,
				"y": -2.0048676702,
				"z": -3.2487876574,
				"element": "H" 
			},
			{
				"x": -0.5593683549,
				"y": -3.1349713539,
				"z": 0.2874935645,
				"element": "H" 
			},
			{
				"x": 0.6202872974,
				"y": -0.7267401834,
				"z": 0.7570117026,
				"element": "H" 
			},
			{
				"x": -3.4677700043,
				"y": 0.0776240888,
				"z": 2.101423105,
				"element": "H" 
			},
			{
				"x": -3.8161292101,
				"y": 2.3259226127,
				"z": 3.1387283058,
				"element": "H" 
			},
			{
				"x": -0.0936697491,
				"y": 3.6610921029,
				"z": 1.4334605157,
				"element": "H" 
			},
			{
				"x": 0.2395144789,
				"y": 1.4408769391,
				"z": 0.4055895959,
				"element": "H" 
			}
		],
		 "valence_orbital": [ 
			{
				"type": "occ",
				"energy": -0.29831,
				"method": "rhf"
			},
			{
				"type": "occ",
				"energy": -0.29601,
				"method": "rhf"
			},
			{
				"type": "occ",
				"energy": -0.29009,
				"method": "rhf"
			},
			{
				"type": "occ",
				"energy": -0.28492,
				"method": "rhf"
			},
			{
				"type": "occ",
				"energy": -0.26772,
				"method": "rhf"
			},
			{
				"type": "unocc",
				"energy": -0.09103,
				"method": "rhf"
			},
			{
				"type": "unocc",
				"energy": -0.04605,
				"method": "rhf"
			},
			{
				"type": "unocc",
				"energy": -0.03828,
				"method": "rhf"
			},
			{
				"type": "unocc",
				"energy": -0.00223,
				"method": "rhf"
			},
			{
				"type": "unocc",
				"energy": 0.02133,
				"method": "rhf"
			}
		],
		"cosmo_sigma_profile": { 
			"-0.025": 0.0,
			"-0.024": 0.0,
			"-0.023": 0.0,
			"-0.022": 0.0,
			"-0.021": 0.0,
			"-0.02": 0.0,
			"-0.019": 0.0,
			"-0.018": 0.0,
			"-0.017": 0.0,
			"-0.016": 0.108267080796,
			"-0.015": 0.669319054906,
			"-0.014": 1.27540241366,
			"-0.013": 2.19702763108,
			"-0.012": 2.05352399575,
			"-0.011": 1.24614403217,
			"-0.01": 2.2682752229,
			"-0.009": 6.52241398513,
			"-0.008": 11.557322703,
			"-0.007": 14.8344954342,
			"-0.006": 14.6610452658,
			"-0.005": 12.92046641,
			"-0.004": 12.4670384488,
			"-0.003": 15.9069722511,
			"-0.002": 16.3443514716,
			"-0.001": 16.3691296383,
			"0.0": 20.3965104142,
			"0.001": 22.7002119978,
			"0.002": 10.5455917107,
			"0.003": 8.97218121974,
			"0.004": 9.77142581222,
			"0.005": 12.3981563352,
			"0.006": 6.71345889752,
			"0.007": 4.73817778604,
			"0.008": 5.79820777288,
			"0.009": 7.21776431969,
			"0.01": 6.27308450638,
			"0.011": 9.89014961592,
			"0.012": 10.2613377439,
			"0.013": 1.3762413927,
			"0.014": 0.0,
			"0.015": 0.0,
			"0.016": 0.0,
			"0.017": 0.0,
			"0.018": 0.0,
			"0.019": 0.0,
			"0.02": 0.0,
			"0.021": 0.0,
			"0.022": 0.0,
			"0.023": 0.0,
			"0.024": 0.0,
			"0.025": 0.0
		}
	}
}
