{
	 "smiles": "CC(C)CN1C=NC(=C1)S(N)(=O)=O", 
	 "Tm": 418.15, 
	 "num_atms": 26, 
	 "gaussian": { 
		 "optdone": 1, 
		 "sigma_profile": "yes", 
		 "theory": "DFT", 
		 "functional": "B3LYP", 
		 "basiset": "6-31G**", 
		 "properties": { 
			 "R2extent": 3864.5036, 
			 "electric_dipole_moment_norm": 8.56586962427, 
			 "electric_quadrupole_moment_norm": 23.9218881753, 
			 "total_energy": -987.402597882, 
			 "HOMO_LUMO_gap": 0.24631, 
			 "cosmo_polarized_energy": -23.06, 
			 "cosmo_cavitation_energy": 30.51, 
			 "cosmo_dispersion_energy": -21.96, 
			 "cosmo_repulsion_energy": 1.71, 
			 "cosmo_total_nonelectrostatic_energy": 10.26, 
			 "SMD_solvation_energy": 3.49 
		},
		"coords": [
			{
				"x": -0.4658409821,
				"y": -3.2781827877,
				"z": -0.2253825412,
				"element": "C" 
			},
			{
				"x": -0.4760214409,
				"y": -2.5771770422,
				"z": 1.1401176167,
				"element": "C" 
			},
			{
				"x": 0.9425688419,
				"y": -2.4143349287,
				"z": 1.702799506,
				"element": "C" 
			},
			{
				"x": -1.2499864716,
				"y": -1.2410775371,
				"z": 1.1133381942,
				"element": "C" 
			},
			{
				"x": -0.6724491207,
				"y": -0.2049187239,
				"z": 0.2525842681,
				"element": "N" 
			},
			{
				"x": 0.2127304794,
				"y": 0.7723806519,
				"z": 0.6316875666,
				"element": "C" 
			},
			{
				"x": 0.5657043274,
				"y": 1.5490610235,
				"z": -0.3700756933,
				"element": "N" 
			},
			{
				"x": -0.1206997448,
				"y": 1.0489333947,
				"z": -1.4456159295,
				"element": "C" 
			},
			{
				"x": -0.8925571513,
				"y": -0.0325972454,
				"z": -1.0953061206,
				"element": "C" 
			},
			{
				"x": -0.0384760206,
				"y": 1.8164412959,
				"z": -3.0444213236,
				"element": "S" 
			},
			{
				"x": 1.5962149367,
				"y": 2.1059727352,
				"z": -3.298786177,
				"element": "N" 
			},
			{
				"x": -0.4547200627,
				"y": 0.8004198963,
				"z": -4.0121593493,
				"element": "O" 
			},
			{
				"x": -0.6780008594,
				"y": 3.1268035249,
				"z": -2.9753010721,
				"element": "O" 
			},
			{
				"x": 0.0037444609,
				"y": -4.2635173377,
				"z": -0.1463659205,
				"element": "H" 
			},
			{
				"x": 0.0986519975,
				"y": -2.7029502347,
				"z": -0.9666086671,
				"element": "H" 
			},
			{
				"x": -1.4806877644,
				"y": -3.4246626657,
				"z": -0.6117611205,
				"element": "H" 
			},
			{
				"x": -1.0458946991,
				"y": -3.207394562,
				"z": 1.837979418,
				"element": "H" 
			},
			{
				"x": 1.5613046973,
				"y": -1.7896627296,
				"z": 1.0497478553,
				"element": "H" 
			},
			{
				"x": 0.9321068855,
				"y": -1.9567888803,
				"z": 2.6985206016,
				"element": "H" 
			},
			{
				"x": 1.4350351544,
				"y": -3.3876191189,
				"z": 1.790465019,
				"element": "H" 
			},
			{
				"x": -1.3030393173,
				"y": -0.8232523857,
				"z": 2.1235152633,
				"element": "H" 
			},
			{
				"x": -2.2778606802,
				"y": -1.4093200046,
				"z": 0.7778484182,
				"element": "H" 
			},
			{
				"x": 0.5567112654,
				"y": 0.8652992569,
				"z": 1.6528412254,
				"element": "H" 
			},
			{
				"x": -1.5551416991,
				"y": -0.6582535583,
				"z": -1.6707722726,
				"element": "H" 
			},
			{
				"x": 2.1204408886,
				"y": 1.2370783221,
				"z": -3.3545354975,
				"element": "H" 
			},
			{
				"x": 1.9660620794,
				"y": 2.7203196413,
				"z": -2.5770532677,
				"element": "H" 
			}
		],
		 "valence_orbital": [ 
			{
				"type": "occ",
				"energy": -0.30606,
				"method": "rhf"
			},
			{
				"type": "occ",
				"energy": -0.29227,
				"method": "rhf"
			},
			{
				"type": "occ",
				"energy": -0.28921,
				"method": "rhf"
			},
			{
				"type": "occ",
				"energy": -0.28686,
				"method": "rhf"
			},
			{
				"type": "occ",
				"energy": -0.24894,
				"method": "rhf"
			},
			{
				"type": "unocc",
				"energy": -0.00263,
				"method": "rhf"
			},
			{
				"type": "unocc",
				"energy": 0.0177,
				"method": "rhf"
			},
			{
				"type": "unocc",
				"energy": 0.05466,
				"method": "rhf"
			},
			{
				"type": "unocc",
				"energy": 0.06986,
				"method": "rhf"
			},
			{
				"type": "unocc",
				"energy": 0.08649,
				"method": "rhf"
			}
		],
		"cosmo_sigma_profile": { 
			"-0.025": 0.0,
			"-0.024": 0.0,
			"-0.023": 0.0,
			"-0.022": 0.0,
			"-0.021": 0.0,
			"-0.02": 0.0,
			"-0.019": 0.0,
			"-0.018": 0.0,
			"-0.017": 0.0,
			"-0.016": 0.118257957006,
			"-0.015": 1.18096991115,
			"-0.014": 2.21998532006,
			"-0.013": 3.13618989091,
			"-0.012": 1.73387933674,
			"-0.011": 1.54998840647,
			"-0.01": 2.49238704684,
			"-0.009": 6.14819335549,
			"-0.008": 6.18608043718,
			"-0.007": 8.58631861458,
			"-0.006": 9.2159006108,
			"-0.005": 9.72017589926,
			"-0.004": 15.9970461299,
			"-0.003": 19.8102738021,
			"-0.002": 24.4153148552,
			"-0.001": 18.7356809936,
			"0.0": 17.6688153181,
			"0.001": 17.14391745,
			"0.002": 6.69994913885,
			"0.003": 3.96392901372,
			"0.004": 3.56717673116,
			"0.005": 4.10653744625,
			"0.006": 5.10079138189,
			"0.007": 5.96090991932,
			"0.008": 5.60143865224,
			"0.009": 6.5392308824,
			"0.01": 8.07055635577,
			"0.011": 14.5876924546,
			"0.012": 7.22095960588,
			"0.013": 1.1205048413,
			"0.014": 0.821915133792,
			"0.015": 0.234661881511,
			"0.016": 0.0,
			"0.017": 0.0,
			"0.018": 0.0,
			"0.019": 0.0,
			"0.02": 0.0,
			"0.021": 0.0,
			"0.022": 0.0,
			"0.023": 0.0,
			"0.024": 0.0,
			"0.025": 0.0
		}
	}
}
