{
	 "smiles": "C1OC1C1=CC2=C(C=CC=C2)C=C1", 
	 "Tm": 331.15, 
	 "num_atms": 23, 
	 "gaussian": { 
		 "optdone": 1, 
		 "sigma_profile": "yes", 
		 "theory": "DFT", 
		 "functional": "B3LYP", 
		 "basiset": "6-31G**", 
		 "properties": { 
			 "R2extent": 3564.0694, 
			 "electric_dipole_moment_norm": 1.81424153574, 
			 "electric_quadrupole_moment_norm": 9.00864813221, 
			 "total_energy": -538.494305779, 
			 "HOMO_LUMO_gap": 0.17478, 
			 "cosmo_polarized_energy": -7.54, 
			 "cosmo_cavitation_energy": 26.61, 
			 "cosmo_dispersion_energy": -19.74, 
			 "cosmo_repulsion_energy": 1.53, 
			 "cosmo_total_nonelectrostatic_energy": 8.4, 
			 "SMD_solvation_energy": 4.2 
		},
		"coords": [
			{
				"x": -1.4013873916,
				"y": -1.0225891206,
				"z": -2.48049646,
				"element": "C" 
			},
			{
				"x": -1.644855567,
				"y": 0.3835238688,
				"z": -2.4095470019,
				"element": "O" 
			},
			{
				"x": -0.6396430111,
				"y": -0.1676194992,
				"z": -1.5457183354,
				"element": "C" 
			},
			{
				"x": -0.9101410305,
				"y": -0.1573617434,
				"z": -0.079469444,
				"element": "C" 
			},
			{
				"x": 0.1282158411,
				"y": -0.2966221287,
				"z": 0.8187102658,
				"element": "C" 
			},
			{
				"x": -0.1049503674,
				"y": -0.3282393456,
				"z": 2.2191207873,
				"element": "C" 
			},
			{
				"x": -1.4490212105,
				"y": -0.2013599366,
				"z": 2.6998520613,
				"element": "C" 
			},
			{
				"x": -1.683676156,
				"y": -0.230483277,
				"z": 4.1003572452,
				"element": "C" 
			},
			{
				"x": -0.6408522485,
				"y": -0.3791150346,
				"z": 4.9875398262,
				"element": "C" 
			},
			{
				"x": 0.6880842068,
				"y": -0.5039932411,
				"z": 4.5126896189,
				"element": "C" 
			},
			{
				"x": 0.9488743695,
				"y": -0.4781822002,
				"z": 3.1609033891,
				"element": "C" 
			},
			{
				"x": -2.498386287,
				"y": -0.042828522,
				"z": 1.7533110105,
				"element": "C" 
			},
			{
				"x": -2.2402202343,
				"y": -0.0200530798,
				"z": 0.4038407088,
				"element": "C" 
			},
			{
				"x": -0.9300900167,
				"y": -1.3739521748,
				"z": -3.3988867776,
				"element": "H" 
			},
			{
				"x": -2.1949022612,
				"y": -1.6574508603,
				"z": -2.0862787878,
				"element": "H" 
			},
			{
				"x": 0.3826016209,
				"y": 0.0897915071,
				"z": -1.828949401,
				"element": "H" 
			},
			{
				"x": 1.151155597,
				"y": -0.3869878046,
				"z": 0.4584682301,
				"element": "H" 
			},
			{
				"x": -2.7044090263,
				"y": -0.1328967488,
				"z": 4.4615065478,
				"element": "H" 
			},
			{
				"x": -0.83338052,
				"y": -0.4005217306,
				"z": 6.0562898474,
				"element": "H" 
			},
			{
				"x": 1.5026689022,
				"y": -0.6198800237,
				"z": 5.2218443904,
				"element": "H" 
			},
			{
				"x": 1.9681610806,
				"y": -0.5732846361,
				"z": 2.7949710719,
				"element": "H" 
			},
			{
				"x": -3.5169426958,
				"y": 0.0692352221,
				"z": 2.1165289645,
				"element": "H" 
			},
			{
				"x": -3.0401035944,
				"y": 0.1280705097,
				"z": -0.3145877574,
				"element": "H" 
			}
		],
		 "valence_orbital": [ 
			{
				"type": "occ",
				"energy": -0.3077,
				"method": "rhf"
			},
			{
				"type": "occ",
				"energy": -0.2828,
				"method": "rhf"
			},
			{
				"type": "occ",
				"energy": -0.27455,
				"method": "rhf"
			},
			{
				"type": "occ",
				"energy": -0.23793,
				"method": "rhf"
			},
			{
				"type": "occ",
				"energy": -0.21475,
				"method": "rhf"
			},
			{
				"type": "unocc",
				"energy": -0.03997,
				"method": "rhf"
			},
			{
				"type": "unocc",
				"energy": -0.01303,
				"method": "rhf"
			},
			{
				"type": "unocc",
				"energy": 0.03086,
				"method": "rhf"
			},
			{
				"type": "unocc",
				"energy": 0.08035,
				"method": "rhf"
			},
			{
				"type": "unocc",
				"energy": 0.09806,
				"method": "rhf"
			}
		],
		"cosmo_sigma_profile": { 
			"-0.025": 0.0,
			"-0.024": 0.0,
			"-0.023": 0.0,
			"-0.022": 0.0,
			"-0.021": 0.0,
			"-0.02": 0.0,
			"-0.019": 0.0,
			"-0.018": 0.0,
			"-0.017": 0.0,
			"-0.016": 0.0,
			"-0.015": 0.0,
			"-0.014": 0.0,
			"-0.013": 0.0,
			"-0.012": 0.0,
			"-0.011": 0.0,
			"-0.01": 0.0,
			"-0.009": 0.0,
			"-0.008": 0.0,
			"-0.007": 2.98488457559,
			"-0.006": 16.7888371201,
			"-0.005": 20.7206036417,
			"-0.004": 20.7453911392,
			"-0.003": 17.8735460182,
			"-0.002": 13.8710272892,
			"-0.001": 13.2203541026,
			"0.0": 11.2612785102,
			"0.001": 10.4949241264,
			"0.002": 12.5146527379,
			"0.003": 14.290660283,
			"0.004": 27.1102213359,
			"0.005": 15.6802521768,
			"0.006": 4.0000135489,
			"0.007": 1.56703183208,
			"0.008": 1.25820727508,
			"0.009": 1.65767717999,
			"0.01": 2.33560617711,
			"0.011": 3.02607263523,
			"0.012": 1.42131437942,
			"0.013": 0.179282195519,
			"0.014": 0.0,
			"0.015": 0.0,
			"0.016": 0.0,
			"0.017": 0.0,
			"0.018": 0.0,
			"0.019": 0.0,
			"0.02": 0.0,
			"0.021": 0.0,
			"0.022": 0.0,
			"0.023": 0.0,
			"0.024": 0.0,
			"0.025": 0.0
		}
	}
}
