{
	 "smiles": "CC(=NNC1=CC=CC=C1)C(=O)C1=CC(C(=O)C(C)=N/NC2=CC=CC=C2)=C(C=C1[N+]([O-])=O)[N+]([O-])=O", 
	 "Tm": 507.15, 
	 "num_atms": 56, 
	 "gaussian": { 
		 "optdone": 1, 
		 "sigma_profile": "yes", 
		 "theory": "DFT", 
		 "functional": "B3LYP", 
		 "basiset": "6-31G**", 
		 "properties": { 
			 "R2extent": 21182.2973, 
			 "electric_dipole_moment_norm": 4.71831797784, 
			 "electric_quadrupole_moment_norm": 18.6133910578, 
			 "total_energy": -1706.17213536, 
			 "HOMO_LUMO_gap": 0.0862, 
			 "cosmo_polarized_energy": -24.33, 
			 "cosmo_cavitation_energy": 64.18, 
			 "cosmo_dispersion_energy": -41.37, 
			 "cosmo_repulsion_energy": 3.11, 
			 "cosmo_total_nonelectrostatic_energy": 25.92, 
			 "SMD_solvation_energy": 14.32 
		},
		"coords": [
			{
				"x": 3.1127905381,
				"y": -0.3402410519,
				"z": 2.6462566822,
				"element": "C" 
			},
			{
				"x": 2.345352345,
				"y": -1.158192321,
				"z": 1.6371167029,
				"element": "C" 
			},
			{
				"x": 3.0105694043,
				"y": -2.1212878196,
				"z": 1.0308685514,
				"element": "N" 
			},
			{
				"x": 2.4287183298,
				"y": -2.914879748,
				"z": 0.1610366846,
				"element": "N" 
			},
			{
				"x": 3.1465505344,
				"y": -3.9284543859,
				"z": -0.493436408,
				"element": "C" 
			},
			{
				"x": 2.4531405706,
				"y": -4.737771586,
				"z": -1.4043303263,
				"element": "C" 
			},
			{
				"x": 3.1258323081,
				"y": -5.7555143518,
				"z": -2.0768890296,
				"element": "C" 
			},
			{
				"x": 4.4857882389,
				"y": -5.9738672027,
				"z": -1.8487476325,
				"element": "C" 
			},
			{
				"x": 5.1691902865,
				"y": -5.1621269539,
				"z": -0.9383344371,
				"element": "C" 
			},
			{
				"x": 4.5120640804,
				"y": -4.1404964296,
				"z": -0.2582514812,
				"element": "C" 
			},
			{
				"x": 0.9412624937,
				"y": -0.8892170143,
				"z": 1.3790994815,
				"element": "C" 
			},
			{
				"x": 0.2344759456,
				"y": -1.5253820463,
				"z": 0.5803073909,
				"element": "O" 
			},
			{
				"x": 0.2806565071,
				"y": 0.3417214455,
				"z": 1.9859110649,
				"element": "C" 
			},
			{
				"x": 0.2718813747,
				"y": 1.5011784201,
				"z": 1.2011621249,
				"element": "C" 
			},
			{
				"x": -0.4809616916,
				"y": 2.6333818662,
				"z": 1.5370955012,
				"element": "C" 
			},
			{
				"x": -0.3588899547,
				"y": 3.865081838,
				"z": 0.6442055628,
				"element": "C" 
			},
			{
				"x": 0.5724031402,
				"y": 4.6161203972,
				"z": 0.9005550803,
				"element": "O" 
			},
			{
				"x": -1.2736484764,
				"y": 4.1241579723,
				"z": -0.4939749946,
				"element": "C" 
			},
			{
				"x": -1.1565701706,
				"y": 5.5080090467,
				"z": -1.0828157397,
				"element": "C" 
			},
			{
				"x": -2.1493471023,
				"y": 3.3292058715,
				"z": -1.0422227585,
				"element": "N" 
			},
			{
				"x": -2.3514334563,
				"y": 2.0643368053,
				"z": -0.7006761086,
				"element": "N" 
			},
			{
				"x": -3.2879887221,
				"y": 1.2655601835,
				"z": -1.3799427074,
				"element": "C" 
			},
			{
				"x": -4.2329098376,
				"y": 1.8174048508,
				"z": -2.2543014548,
				"element": "C" 
			},
			{
				"x": -5.1447848733,
				"y": 0.9766326902,
				"z": -2.8884357099,
				"element": "C" 
			},
			{
				"x": -5.1323508669,
				"y": -0.4016667243,
				"z": -2.6575961136,
				"element": "C" 
			},
			{
				"x": -4.1855841439,
				"y": -0.9414889682,
				"z": -1.7845997669,
				"element": "C" 
			},
			{
				"x": -3.2606581642,
				"y": -0.1173049558,
				"z": -1.1470885698,
				"element": "C" 
			},
			{
				"x": -1.2106022241,
				"y": 2.5895251179,
				"z": 2.7338939601,
				"element": "C" 
			},
			{
				"x": -1.2044185364,
				"y": 1.4718876826,
				"z": 3.5576688583,
				"element": "C" 
			},
			{
				"x": -0.4665327865,
				"y": 0.3601981661,
				"z": 3.1703753127,
				"element": "C" 
			},
			{
				"x": -0.4989625483,
				"y": -0.8177694263,
				"z": 4.0572410345,
				"element": "N" 
			},
			{
				"x": -1.2653434866,
				"y": -0.7895173843,
				"z": 5.0140682336,
				"element": "O" 
			},
			{
				"x": 0.2532750489,
				"y": -1.7515217466,
				"z": 3.7794081702,
				"element": "O" 
			},
			{
				"x": -2.0422474473,
				"y": 3.7350106212,
				"z": 3.1552600464,
				"element": "N" 
			},
			{
				"x": -2.1834181522,
				"y": 4.6541820566,
				"z": 2.3520134959,
				"element": "O" 
			},
			{
				"x": -2.5426780374,
				"y": 3.6888665961,
				"z": 4.2743509738,
				"element": "O" 
			},
			{
				"x": 4.1498250881,
				"y": -0.6792658298,
				"z": 2.6607406458,
				"element": "H" 
			},
			{
				"x": 3.1051161544,
				"y": 0.7302600121,
				"z": 2.411807952,
				"element": "H" 
			},
			{
				"x": 2.6989921578,
				"y": -0.4637154047,
				"z": 3.6534910918,
				"element": "H" 
			},
			{
				"x": 1.4322990877,
				"y": -2.7778110277,
				"z": -0.0278696949,
				"element": "H" 
			},
			{
				"x": 1.3941946441,
				"y": -4.5680173303,
				"z": -1.5811119108,
				"element": "H" 
			},
			{
				"x": 2.5826369794,
				"y": -6.3788247853,
				"z": -2.7809012248,
				"element": "H" 
			},
			{
				"x": 5.0081118736,
				"y": -6.7675258583,
				"z": -2.3736613746,
				"element": "H" 
			},
			{
				"x": 6.2271442756,
				"y": -5.3255482628,
				"z": -0.7545119474,
				"element": "H" 
			},
			{
				"x": 5.0327244746,
				"y": -3.5069054814,
				"z": 0.449212153,
				"element": "H" 
			},
			{
				"x": 0.8495916122,
				"y": 1.5121812261,
				"z": 0.2811701271,
				"element": "H" 
			},
			{
				"x": -1.8725050899,
				"y": 5.6154832657,
				"z": -1.898710019,
				"element": "H" 
			},
			{
				"x": -1.3520575721,
				"y": 6.2722337737,
				"z": -0.3232309781,
				"element": "H" 
			},
			{
				"x": -0.1453758483,
				"y": 5.6885020903,
				"z": -1.4614573327,
				"element": "H" 
			},
			{
				"x": -1.7582359529,
				"y": 1.5890872469,
				"z": -0.0299511699,
				"element": "H" 
			},
			{
				"x": -4.2386260283,
				"y": 2.8873717543,
				"z": -2.4224907956,
				"element": "H" 
			},
			{
				"x": -5.8770477498,
				"y": 1.4062870112,
				"z": -3.5660783071,
				"element": "H" 
			},
			{
				"x": -5.8510146241,
				"y": -1.0467690999,
				"z": -3.1532344536,
				"element": "H" 
			},
			{
				"x": -4.1587155212,
				"y": -2.0115904626,
				"z": -1.6011296497,
				"element": "H" 
			},
			{
				"x": -2.5062419078,
				"y": -0.5444488116,
				"z": -0.4891946433,
				"element": "H" 
			},
			{
				"x": -1.775636521,
				"y": 1.4622544628,
				"z": 4.4763598574,
				"element": "H" 
			}
		],
		 "valence_orbital": [ 
			{
				"type": "occ",
				"energy": -0.26435,
				"method": "rhf"
			},
			{
				"type": "occ",
				"energy": -0.26359,
				"method": "rhf"
			},
			{
				"type": "occ",
				"energy": -0.25757,
				"method": "rhf"
			},
			{
				"type": "occ",
				"energy": -0.21977,
				"method": "rhf"
			},
			{
				"type": "occ",
				"energy": -0.21285,
				"method": "rhf"
			},
			{
				"type": "unocc",
				"energy": -0.12665,
				"method": "rhf"
			},
			{
				"type": "unocc",
				"energy": -0.11488,
				"method": "rhf"
			},
			{
				"type": "unocc",
				"energy": -0.0912,
				"method": "rhf"
			},
			{
				"type": "unocc",
				"energy": -0.07981,
				"method": "rhf"
			},
			{
				"type": "unocc",
				"energy": -0.05451,
				"method": "rhf"
			}
		],
		"cosmo_sigma_profile": { 
			"-0.025": 0.0,
			"-0.024": 0.0,
			"-0.023": 0.0,
			"-0.022": 0.0,
			"-0.021": 0.0,
			"-0.02": 0.0,
			"-0.019": 0.0,
			"-0.018": 0.0,
			"-0.017": 0.0,
			"-0.016": 0.0,
			"-0.015": 0.0,
			"-0.014": 0.071207358258,
			"-0.013": 0.523118282509,
			"-0.012": 1.39393162388,
			"-0.011": 3.57736085922,
			"-0.01": 5.95077270041,
			"-0.009": 7.12199053639,
			"-0.008": 9.16731769068,
			"-0.007": 11.4181602425,
			"-0.006": 21.1582043993,
			"-0.005": 34.6018169267,
			"-0.004": 43.903161699,
			"-0.003": 35.3731322473,
			"-0.002": 32.548798016,
			"-0.001": 35.0976491464,
			"0.0": 32.7430153435,
			"0.001": 31.9912400436,
			"0.002": 34.9546252642,
			"0.003": 35.6888275174,
			"0.004": 33.126510046,
			"0.005": 36.116447635,
			"0.006": 27.1099911517,
			"0.007": 15.8436865653,
			"0.008": 11.8376361212,
			"0.009": 5.6258897604,
			"0.01": 3.37554624485,
			"0.011": 4.05271268393,
			"0.012": 0.5420053665,
			"0.013": 0.0,
			"0.014": 0.0,
			"0.015": 0.0,
			"0.016": 0.0,
			"0.017": 0.0,
			"0.018": 0.0,
			"0.019": 0.0,
			"0.02": 0.0,
			"0.021": 0.0,
			"0.022": 0.0,
			"0.023": 0.0,
			"0.024": 0.0,
			"0.025": 0.0
		}
	}
}
