{
	 "smiles": "CC1(CC(=O)NC1=O)C1=CSC=C1", 
	 "Tm": 370.15, 
	 "num_atms": 22, 
	 "gaussian": { 
		 "optdone": 1, 
		 "sigma_profile": "yes", 
		 "theory": "DFT", 
		 "functional": "B3LYP", 
		 "basiset": "6-31G**", 
		 "properties": { 
			 "R2extent": 4524.1077, 
			 "electric_dipole_moment_norm": 1.46114428103, 
			 "electric_quadrupole_moment_norm": 8.89720411028, 
			 "total_energy": -951.785948888, 
			 "HOMO_LUMO_gap": 0.21136, 
			 "cosmo_polarized_energy": -13.65, 
			 "cosmo_cavitation_energy": 27.14, 
			 "cosmo_dispersion_energy": -20.16, 
			 "cosmo_repulsion_energy": 1.55, 
			 "cosmo_total_nonelectrostatic_energy": 8.52, 
			 "SMD_solvation_energy": 6.14 
		},
		"coords": [
			{
				"x": 0.2111841817,
				"y": 1.0900878937,
				"z": 1.1702272311,
				"element": "C" 
			},
			{
				"x": 0.8554069978,
				"y": -0.1358513852,
				"z": 1.8721292331,
				"element": "C" 
			},
			{
				"x": 2.2106234258,
				"y": 0.2456293468,
				"z": 2.5206109044,
				"element": "C" 
			},
			{
				"x": 1.9370205197,
				"y": 0.4149679048,
				"z": 4.0099797535,
				"element": "C" 
			},
			{
				"x": 2.6734593487,
				"y": 0.8584783958,
				"z": 4.8621551217,
				"element": "O" 
			},
			{
				"x": 0.6523895311,
				"y": -0.0752129529,
				"z": 4.2349098089,
				"element": "N" 
			},
			{
				"x": -0.041572011,
				"y": -0.4555486589,
				"z": 3.0942062103,
				"element": "C" 
			},
			{
				"x": -1.1733575012,
				"y": -0.8924542079,
				"z": 3.0913241057,
				"element": "O" 
			},
			{
				"x": 0.9320931124,
				"y": -1.3012590486,
				"z": 0.8962331604,
				"element": "C" 
			},
			{
				"x": 2.0667073478,
				"y": -1.6610252329,
				"z": 0.2119928552,
				"element": "C" 
			},
			{
				"x": 1.7823988038,
				"y": -2.9675833963,
				"z": -0.8895805773,
				"element": "S" 
			},
			{
				"x": 0.1108218279,
				"y": -3.0394063936,
				"z": -0.4347150223,
				"element": "C" 
			},
			{
				"x": -0.1971672709,
				"y": -2.1028496074,
				"z": 0.5094886419,
				"element": "C" 
			},
			{
				"x": -0.796991772,
				"y": 0.8456150322,
				"z": 0.8280604385,
				"element": "H" 
			},
			{
				"x": 0.8142919179,
				"y": 1.3762579255,
				"z": 0.3041783131,
				"element": "H" 
			},
			{
				"x": 0.1471600424,
				"y": 1.9465601522,
				"z": 1.8506640587,
				"element": "H" 
			},
			{
				"x": 2.9520040924,
				"y": -0.5532463261,
				"z": 2.4228673217,
				"element": "H" 
			},
			{
				"x": 2.6549053387,
				"y": 1.1590726641,
				"z": 2.1176766083,
				"element": "H" 
			},
			{
				"x": 0.2358581261,
				"y": -0.111378067,
				"z": 5.1572892349,
				"element": "H" 
			},
			{
				"x": 3.0546459663,
				"y": -1.2267473162,
				"z": 0.2718808348,
				"element": "H" 
			},
			{
				"x": -0.5421554013,
				"y": -3.7751009675,
				"z": -0.8832491735,
				"element": "H" 
			},
			{
				"x": -1.1798266241,
				"y": -1.9857057546,
				"z": 0.9468709368,
				"element": "H" 
			}
		],
		 "valence_orbital": [ 
			{
				"type": "occ",
				"energy": -0.29782,
				"method": "rhf"
			},
			{
				"type": "occ",
				"energy": -0.28966,
				"method": "rhf"
			},
			{
				"type": "occ",
				"energy": -0.26615,
				"method": "rhf"
			},
			{
				"type": "occ",
				"energy": -0.25016,
				"method": "rhf"
			},
			{
				"type": "occ",
				"energy": -0.23858,
				"method": "rhf"
			},
			{
				"type": "unocc",
				"energy": -0.02722,
				"method": "rhf"
			},
			{
				"type": "unocc",
				"energy": -0.01783,
				"method": "rhf"
			},
			{
				"type": "unocc",
				"energy": 0.01928,
				"method": "rhf"
			},
			{
				"type": "unocc",
				"energy": 0.03201,
				"method": "rhf"
			},
			{
				"type": "unocc",
				"energy": 0.05765,
				"method": "rhf"
			}
		],
		"cosmo_sigma_profile": { 
			"-0.025": 0.0,
			"-0.024": 0.0,
			"-0.023": 0.0,
			"-0.022": 0.0,
			"-0.021": 0.0,
			"-0.02": 0.0,
			"-0.019": 0.0,
			"-0.018": 0.0,
			"-0.017": 0.270756699774,
			"-0.016": 1.04844361262,
			"-0.015": 1.39655444022,
			"-0.014": 1.08384902962,
			"-0.013": 0.442973905803,
			"-0.012": 0.74532138932,
			"-0.011": 1.0374136966,
			"-0.01": 1.05465741925,
			"-0.009": 1.16550524863,
			"-0.008": 6.18957758647,
			"-0.007": 11.3198130396,
			"-0.006": 11.6644844248,
			"-0.005": 12.5693541961,
			"-0.004": 16.3877849422,
			"-0.003": 14.6344107516,
			"-0.002": 14.313551154,
			"-0.001": 16.9995203068,
			"0.0": 10.8218872949,
			"0.001": 10.2361031136,
			"0.002": 12.4825910794,
			"0.003": 11.5127769948,
			"0.004": 15.6419925515,
			"0.005": 11.5612776783,
			"0.006": 3.79892391076,
			"0.007": 3.24509691492,
			"0.008": 2.36035799502,
			"0.009": 3.15595096252,
			"0.01": 4.49796956872,
			"0.011": 7.51389511934,
			"0.012": 7.34184729857,
			"0.013": 1.53466000431,
			"0.014": 0.0,
			"0.015": 0.0,
			"0.016": 0.0,
			"0.017": 0.0,
			"0.018": 0.0,
			"0.019": 0.0,
			"0.02": 0.0,
			"0.021": 0.0,
			"0.022": 0.0,
			"0.023": 0.0,
			"0.024": 0.0,
			"0.025": 0.0
		}
	}
}
