{
	 "smiles": "COC1=CC=C2C=CC(=O)OC2=C1", 
	 "Tm": 392.15, 
	 "num_atms": 21, 
	 "gaussian": { 
		 "optdone": 1, 
		 "sigma_profile": "yes", 
		 "theory": "DFT", 
		 "functional": "B3LYP", 
		 "basiset": "6-31G**", 
		 "properties": { 
			 "R2extent": 3269.7199, 
			 "electric_dipole_moment_norm": 4.36041692846, 
			 "electric_quadrupole_moment_norm": 24.9097289347, 
			 "total_energy": -611.549238054, 
			 "HOMO_LUMO_gap": 0.16182, 
			 "cosmo_polarized_energy": -12.2, 
			 "cosmo_cavitation_energy": 25.55, 
			 "cosmo_dispersion_energy": -19.18, 
			 "cosmo_repulsion_energy": 1.49, 
			 "cosmo_total_nonelectrostatic_energy": 7.86, 
			 "SMD_solvation_energy": 6.34 
		},
		"coords": [
			{
				"x": -0.3877579153,
				"y": 2.4576582609,
				"z": 3.4975449073,
				"element": "C" 
			},
			{
				"x": -0.1050119504,
				"y": 2.7253221063,
				"z": 2.1292593395,
				"element": "O" 
			},
			{
				"x": 0.4017180153,
				"y": 1.725627771,
				"z": 1.3651891396,
				"element": "C" 
			},
			{
				"x": 0.6573801349,
				"y": 2.0647086412,
				"z": 0.017836774,
				"element": "C" 
			},
			{
				"x": 1.17401619,
				"y": 1.117708915,
				"z": -0.8431164805,
				"element": "C" 
			},
			{
				"x": 1.4547618124,
				"y": -0.1930286662,
				"z": -0.4029345675,
				"element": "C" 
			},
			{
				"x": 1.992128672,
				"y": -1.236037379,
				"z": -1.2320913755,
				"element": "C" 
			},
			{
				"x": 2.2330080636,
				"y": -2.4705205722,
				"z": -0.7289244291,
				"element": "C" 
			},
			{
				"x": 1.9597144678,
				"y": -2.7925773416,
				"z": 0.6648947956,
				"element": "C" 
			},
			{
				"x": 2.1383843963,
				"y": -3.8569664079,
				"z": 1.2081821625,
				"element": "O" 
			},
			{
				"x": 1.4357499377,
				"y": -1.748779926,
				"z": 1.4428081507,
				"element": "O" 
			},
			{
				"x": 1.191065802,
				"y": -0.5051843884,
				"z": 0.9437814277,
				"element": "C" 
			},
			{
				"x": 0.6683025978,
				"y": 0.4373340291,
				"z": 1.8328497433,
				"element": "C" 
			},
			{
				"x": -1.1407772299,
				"y": 1.6674004067,
				"z": 3.6040222957,
				"element": "H" 
			},
			{
				"x": 0.5180833655,
				"y": 2.1706838568,
				"z": 4.0452492709,
				"element": "H" 
			},
			{
				"x": -0.7796610529,
				"y": 3.3882129402,
				"z": 3.9095072741,
				"element": "H" 
			},
			{
				"x": 0.4380445556,
				"y": 3.0746407168,
				"z": -0.3098590042,
				"element": "H" 
			},
			{
				"x": 1.3711588663,
				"y": 1.3771450201,
				"z": -1.8796445669,
				"element": "H" 
			},
			{
				"x": 2.2034149815,
				"y": -1.0165810305,
				"z": -2.2761069891,
				"element": "H" 
			},
			{
				"x": 2.6373904386,
				"y": -3.2780427068,
				"z": -1.3268707781,
				"element": "H" 
			},
			{
				"x": 0.4876858512,
				"y": 0.1352757546,
				"z": 2.8560229099,
				"element": "H" 
			}
		],
		 "valence_orbital": [ 
			{
				"type": "occ",
				"energy": -0.34463,
				"method": "rhf"
			},
			{
				"type": "occ",
				"energy": -0.29159,
				"method": "rhf"
			},
			{
				"type": "occ",
				"energy": -0.26926,
				"method": "rhf"
			},
			{
				"type": "occ",
				"energy": -0.25388,
				"method": "rhf"
			},
			{
				"type": "occ",
				"energy": -0.22186,
				"method": "rhf"
			},
			{
				"type": "unocc",
				"energy": -0.06004,
				"method": "rhf"
			},
			{
				"type": "unocc",
				"energy": -0.01313,
				"method": "rhf"
			},
			{
				"type": "unocc",
				"energy": 0.01073,
				"method": "rhf"
			},
			{
				"type": "unocc",
				"energy": 0.08488,
				"method": "rhf"
			},
			{
				"type": "unocc",
				"energy": 0.0917,
				"method": "rhf"
			}
		],
		"cosmo_sigma_profile": { 
			"-0.025": 0.0,
			"-0.024": 0.0,
			"-0.023": 0.0,
			"-0.022": 0.0,
			"-0.021": 0.0,
			"-0.02": 0.0,
			"-0.019": 0.0,
			"-0.018": 0.0,
			"-0.017": 0.0,
			"-0.016": 0.0,
			"-0.015": 0.0,
			"-0.014": 0.0,
			"-0.013": 0.0,
			"-0.012": 0.0,
			"-0.011": 0.0,
			"-0.01": 0.0,
			"-0.009": 0.494026745638,
			"-0.008": 4.99851699974,
			"-0.007": 10.6250819223,
			"-0.006": 15.4778682685,
			"-0.005": 15.2890489166,
			"-0.004": 16.7967065656,
			"-0.003": 14.9160616957,
			"-0.002": 10.797314408,
			"-0.001": 12.3425342985,
			"0.0": 14.1076978665,
			"0.001": 18.2360407942,
			"0.002": 19.526544713,
			"0.003": 11.338703997,
			"0.004": 5.86051171585,
			"0.005": 3.93144400123,
			"0.006": 3.73497084314,
			"0.007": 2.82509663476,
			"0.008": 3.68452030881,
			"0.009": 3.38368243878,
			"0.01": 3.41286779227,
			"0.011": 3.25887180153,
			"0.012": 6.22937449691,
			"0.013": 3.53788879335,
			"0.014": 0.351015009087,
			"0.015": 0.0,
			"0.016": 0.0,
			"0.017": 0.0,
			"0.018": 0.0,
			"0.019": 0.0,
			"0.02": 0.0,
			"0.021": 0.0,
			"0.022": 0.0,
			"0.023": 0.0,
			"0.024": 0.0,
			"0.025": 0.0
		}
	}
}
