{
	 "smiles": "CCCCCCCCCCCCCC(=O)NC1=CC=CC=C1", 
	 "Tm": 357.65, 
	 "num_atms": 55, 
	 "gaussian": { 
		 "optdone": 1, 
		 "sigma_profile": "yes", 
		 "theory": "DFT", 
		 "functional": "B3LYP", 
		 "basiset": "6-31G**", 
		 "properties": { 
			 "R2extent": 13354.5619, 
			 "electric_dipole_moment_norm": 3.1109397053, 
			 "electric_quadrupole_moment_norm": 13.6679227489, 
			 "total_energy": -912.051539857, 
			 "HOMO_LUMO_gap": 0.20716, 
			 "cosmo_polarized_energy": -12.31, 
			 "cosmo_cavitation_energy": 55.1, 
			 "cosmo_dispersion_energy": -36.54, 
			 "cosmo_repulsion_energy": 2.91, 
			 "cosmo_total_nonelectrostatic_energy": 21.47, 
			 "SMD_solvation_energy": 7.97 
		},
		"coords": [
			{
				"x": 3.9365970399,
				"y": -0.7553265416,
				"z": -4.6937019372,
				"element": "C" 
			},
			{
				"x": 3.5232465724,
				"y": -1.8539068775,
				"z": -3.7086899958,
				"element": "C" 
			},
			{
				"x": 3.8057857702,
				"y": -1.4831973028,
				"z": -2.2457387944,
				"element": "C" 
			},
			{
				"x": 3.4712913097,
				"y": -2.5821189798,
				"z": -1.2235089198,
				"element": "C" 
			},
			{
				"x": 1.9765308589,
				"y": -2.9091238713,
				"z": -1.092823282,
				"element": "C" 
			},
			{
				"x": 1.6923194152,
				"y": -3.9799093684,
				"z": -0.0274263642,
				"element": "C" 
			},
			{
				"x": 0.2128211969,
				"y": -4.3946545293,
				"z": 0.1299750722,
				"element": "C" 
			},
			{
				"x": -0.6156424714,
				"y": -3.5908825208,
				"z": 1.1519646247,
				"element": "C" 
			},
			{
				"x": -0.8843513355,
				"y": -2.1067156955,
				"z": 0.8467789751,
				"element": "C" 
			},
			{
				"x": -1.7210809632,
				"y": -1.8609922181,
				"z": -0.418358317,
				"element": "C" 
			},
			{
				"x": -2.1648631488,
				"y": -0.4017765733,
				"z": -0.6169226071,
				"element": "C" 
			},
			{
				"x": -1.0125921325,
				"y": 0.5690628067,
				"z": -0.9129296172,
				"element": "C" 
			},
			{
				"x": -1.4657736628,
				"y": 2.0266644336,
				"z": -1.1601316294,
				"element": "C" 
			},
			{
				"x": -2.0547586836,
				"y": 2.6751800236,
				"z": 0.0892153526,
				"element": "C" 
			},
			{
				"x": -3.2171824354,
				"y": 2.4934700736,
				"z": 0.429932454,
				"element": "O" 
			},
			{
				"x": -1.1536434359,
				"y": 3.436083476,
				"z": 0.8055633052,
				"element": "N" 
			},
			{
				"x": -1.3354172364,
				"y": 4.1228027548,
				"z": 2.0255081141,
				"element": "C" 
			},
			{
				"x": -0.2328610459,
				"y": 4.8262008348,
				"z": 2.5376068772,
				"element": "C" 
			},
			{
				"x": -0.3361355778,
				"y": 5.5265290776,
				"z": 3.7361375641,
				"element": "C" 
			},
			{
				"x": -1.5401572763,
				"y": 5.5371592835,
				"z": 4.4430182581,
				"element": "C" 
			},
			{
				"x": -2.6342989534,
				"y": 4.8379645816,
				"z": 3.9319060921,
				"element": "C" 
			},
			{
				"x": -2.5483665656,
				"y": 4.1306937117,
				"z": 2.7322628199,
				"element": "C" 
			},
			{
				"x": 3.3975233768,
				"y": 0.1783896305,
				"z": -4.4951939115,
				"element": "H" 
			},
			{
				"x": 5.0083246912,
				"y": -0.5379847531,
				"z": -4.6183788618,
				"element": "H" 
			},
			{
				"x": 3.7280328903,
				"y": -1.0446112913,
				"z": -5.7289815364,
				"element": "H" 
			},
			{
				"x": 4.0560521214,
				"y": -2.783553509,
				"z": -3.9523484542,
				"element": "H" 
			},
			{
				"x": 2.4561817204,
				"y": -2.0726998011,
				"z": -3.8399622575,
				"element": "H" 
			},
			{
				"x": 3.2497025865,
				"y": -0.5688801775,
				"z": -1.9909492408,
				"element": "H" 
			},
			{
				"x": 4.8692900335,
				"y": -1.2242444714,
				"z": -2.1501530839,
				"element": "H" 
			},
			{
				"x": 3.8503947383,
				"y": -2.2746216835,
				"z": -0.2392237891,
				"element": "H" 
			},
			{
				"x": 4.0211868485,
				"y": -3.4980570392,
				"z": -1.4844408242,
				"element": "H" 
			},
			{
				"x": 1.4294058355,
				"y": -1.985998592,
				"z": -0.8634932998,
				"element": "H" 
			},
			{
				"x": 1.5854042911,
				"y": -3.2623361839,
				"z": -2.0561766607,
				"element": "H" 
			},
			{
				"x": 2.280107691,
				"y": -4.870604712,
				"z": -0.287619595,
				"element": "H" 
			},
			{
				"x": 2.0816718208,
				"y": -3.6433555845,
				"z": 0.9444461157,
				"element": "H" 
			},
			{
				"x": 0.1825789968,
				"y": -5.4425851422,
				"z": 0.4540738118,
				"element": "H" 
			},
			{
				"x": -0.2777251307,
				"y": -4.3791569043,
				"z": -0.8525073895,
				"element": "H" 
			},
			{
				"x": -1.5842835016,
				"y": -4.0951608286,
				"z": 1.2759492906,
				"element": "H" 
			},
			{
				"x": -0.1153267156,
				"y": -3.660717345,
				"z": 2.1277201971,
				"element": "H" 
			},
			{
				"x": 0.066568958,
				"y": -1.563360401,
				"z": 0.7870890939,
				"element": "H" 
			},
			{
				"x": -1.4186723742,
				"y": -1.6753991457,
				"z": 1.7047362203,
				"element": "H" 
			},
			{
				"x": -2.6193532111,
				"y": -2.4915238585,
				"z": -0.3682683549,
				"element": "H" 
			},
			{
				"x": -1.167778799,
				"y": -2.1951948093,
				"z": -1.3064888486,
				"element": "H" 
			},
			{
				"x": -2.877114725,
				"y": -0.3567386163,
				"z": -1.4515072197,
				"element": "H" 
			},
			{
				"x": -2.7177325483,
				"y": -0.058316183,
				"z": 0.2648274108,
				"element": "H" 
			},
			{
				"x": -0.4731001528,
				"y": 0.2269277537,
				"z": -1.8060754121,
				"element": "H" 
			},
			{
				"x": -0.2839947836,
				"y": 0.5581958259,
				"z": -0.0922619675,
				"element": "H" 
			},
			{
				"x": -2.2491680881,
				"y": 2.045151567,
				"z": -1.9240677512,
				"element": "H" 
			},
			{
				"x": -0.6208896858,
				"y": 2.6135500592,
				"z": -1.5414937837,
				"element": "H" 
			},
			{
				"x": -0.2282980984,
				"y": 3.5152417555,
				"z": 0.4093100206,
				"element": "H" 
			},
			{
				"x": 0.7087990761,
				"y": 4.822337674,
				"z": 1.9921518821,
				"element": "H" 
			},
			{
				"x": 0.5278634181,
				"y": 6.0642497525,
				"z": 4.1160397908,
				"element": "H" 
			},
			{
				"x": -1.623143975,
				"y": 6.0829401006,
				"z": 5.3778820363,
				"element": "H" 
			},
			{
				"x": -3.5771200662,
				"y": 4.8385180526,
				"z": 4.4718309279,
				"element": "H" 
			},
			{
				"x": -3.3953544776,
				"y": 3.5899922818,
				"z": 2.3351973986,
				"element": "H" 
			}
		],
		 "valence_orbital": [ 
			{
				"type": "occ",
				"energy": -0.29971,
				"method": "rhf"
			},
			{
				"type": "occ",
				"energy": -0.2965,
				"method": "rhf"
			},
			{
				"type": "occ",
				"energy": -0.24875,
				"method": "rhf"
			},
			{
				"type": "occ",
				"energy": -0.24745,
				"method": "rhf"
			},
			{
				"type": "occ",
				"energy": -0.21811,
				"method": "rhf"
			},
			{
				"type": "unocc",
				"energy": -0.01095,
				"method": "rhf"
			},
			{
				"type": "unocc",
				"energy": 0.00095,
				"method": "rhf"
			},
			{
				"type": "unocc",
				"energy": 0.04252,
				"method": "rhf"
			},
			{
				"type": "unocc",
				"energy": 0.06544,
				"method": "rhf"
			},
			{
				"type": "unocc",
				"energy": 0.07867,
				"method": "rhf"
			}
		],
		"cosmo_sigma_profile": { 
			"-0.025": 0.0,
			"-0.024": 0.0,
			"-0.023": 0.0,
			"-0.022": 0.0,
			"-0.021": 0.0,
			"-0.02": 0.0,
			"-0.019": 0.0,
			"-0.018": 0.0,
			"-0.017": 0.0,
			"-0.016": 0.0,
			"-0.015": 0.508668646263,
			"-0.014": 1.21931934224,
			"-0.013": 1.4042048129,
			"-0.012": 1.91768388307,
			"-0.011": 1.08323664274,
			"-0.01": 1.75328691884,
			"-0.009": 1.83044789636,
			"-0.008": 1.28385311051,
			"-0.007": 2.27356875438,
			"-0.006": 5.50511790533,
			"-0.005": 9.99540368871,
			"-0.004": 13.1736308711,
			"-0.003": 19.6293457575,
			"-0.002": 46.0345341427,
			"-0.001": 79.24010677,
			"0.0": 79.7301460551,
			"0.001": 63.7872676733,
			"0.002": 34.2121543181,
			"0.003": 12.44887131,
			"0.004": 11.7219720284,
			"0.005": 11.9152040065,
			"0.006": 9.86570610052,
			"0.007": 2.96017604181,
			"0.008": 1.47200250881,
			"0.009": 2.34708644538,
			"0.01": 1.2473634032,
			"0.011": 2.15647809959,
			"0.012": 1.88468293402,
			"0.013": 2.50025585584,
			"0.014": 1.49933516208,
			"0.015": 0.26904304657,
			"0.016": 0.0,
			"0.017": 0.0,
			"0.018": 0.0,
			"0.019": 0.0,
			"0.02": 0.0,
			"0.021": 0.0,
			"0.022": 0.0,
			"0.023": 0.0,
			"0.024": 0.0,
			"0.025": 0.0
		}
	}
}
