{
	 "smiles": "CCN(CC)S(=O)(=O)C1=CC(=C(C=C1)N1CCNCC1)[N+]([O-])=O", 
	 "Tm": 405.15, 
	 "num_atms": 45, 
	 "gaussian": { 
		 "optdone": 1, 
		 "sigma_profile": "yes", 
		 "theory": "DFT", 
		 "functional": "B3LYP", 
		 "basiset": "6-31G**", 
		 "properties": { 
			 "R2extent": 10826.9428, 
			 "electric_dipole_moment_norm": 7.79938076068, 
			 "electric_quadrupole_moment_norm": 46.5714407035, 
			 "total_energy": -1464.63998742, 
			 "HOMO_LUMO_gap": 0.14127, 
			 "cosmo_polarized_energy": -22.63, 
			 "cosmo_cavitation_energy": 47.07, 
			 "cosmo_dispersion_energy": -32.48, 
			 "cosmo_repulsion_energy": 2.44, 
			 "cosmo_total_nonelectrostatic_energy": 17.04, 
			 "SMD_solvation_energy": 6.24 
		},
		"coords": [
			{
				"x": -1.2549788346,
				"y": 1.0612952835,
				"z": -3.8982407771,
				"element": "C" 
			},
			{
				"x": -2.0877121338,
				"y": -0.0556442575,
				"z": -3.2707408531,
				"element": "C" 
			},
			{
				"x": -1.2485928426,
				"y": -1.2112318361,
				"z": -2.8924350847,
				"element": "N" 
			},
			{
				"x": -0.7292638368,
				"y": -2.0396304354,
				"z": -4.0138675104,
				"element": "C" 
			},
			{
				"x": 0.7930730476,
				"y": -2.1502399222,
				"z": -3.9961687788,
				"element": "C" 
			},
			{
				"x": -1.836734689,
				"y": -2.1035849475,
				"z": -1.5729007732,
				"element": "S" 
			},
			{
				"x": -3.2998839513,
				"y": -2.2395886863,
				"z": -1.6166705704,
				"element": "O" 
			},
			{
				"x": -0.9869094369,
				"y": -3.2976430462,
				"z": -1.4932828682,
				"element": "O" 
			},
			{
				"x": -1.4488705782,
				"y": -1.0242626122,
				"z": -0.2028158829,
				"element": "C" 
			},
			{
				"x": -2.4674140783,
				"y": -0.5094852885,
				"z": 0.5797845343,
				"element": "C" 
			},
			{
				"x": -2.1622493347,
				"y": 0.313586553,
				"z": 1.6684449574,
				"element": "C" 
			},
			{
				"x": -0.818047854,
				"y": 0.5686883785,
				"z": 2.0721988244,
				"element": "C" 
			},
			{
				"x": 0.1891115759,
				"y": 0.0372529632,
				"z": 1.2163676416,
				"element": "C" 
			},
			{
				"x": -0.1120236967,
				"y": -0.7326694238,
				"z": 0.1116578604,
				"element": "C" 
			},
			{
				"x": -0.4847672454,
				"y": 1.2330409288,
				"z": 3.2236069696,
				"element": "N" 
			},
			{
				"x": 0.8677981106,
				"y": 1.723444264,
				"z": 3.4718970791,
				"element": "C" 
			},
			{
				"x": 1.6760403648,
				"y": 0.7607555446,
				"z": 4.3701634644,
				"element": "C" 
			},
			{
				"x": 0.746982211,
				"y": 0.0757754742,
				"z": 5.2747974153,
				"element": "N" 
			},
			{
				"x": -0.3659840404,
				"y": 0.9312899064,
				"z": 5.6705757999,
				"element": "C" 
			},
			{
				"x": -1.2910232725,
				"y": 1.1309398575,
				"z": 4.4509139164,
				"element": "C" 
			},
			{
				"x": -3.3127729485,
				"y": 1.0042014626,
				"z": 2.2559069915,
				"element": "N" 
			},
			{
				"x": -4.3999050929,
				"y": 0.42404037,
				"z": 2.2433280357,
				"element": "O" 
			},
			{
				"x": -3.1459321546,
				"y": 2.156339886,
				"z": 2.6675429938,
				"element": "O" 
			},
			{
				"x": -1.8996490007,
				"y": 1.9096890441,
				"z": -4.1496565374,
				"element": "H" 
			},
			{
				"x": -0.7621335759,
				"y": 0.7364534516,
				"z": -4.8198770005,
				"element": "H" 
			},
			{
				"x": -0.4837036992,
				"y": 1.4040104488,
				"z": -3.2024570773,
				"element": "H" 
			},
			{
				"x": -2.5673390727,
				"y": 0.3231206895,
				"z": -2.3642542283,
				"element": "H" 
			},
			{
				"x": -2.8965431976,
				"y": -0.3692228064,
				"z": -3.9457397199,
				"element": "H" 
			},
			{
				"x": -1.0680746908,
				"y": -1.5644700167,
				"z": -4.9399428011,
				"element": "H" 
			},
			{
				"x": -1.1755135409,
				"y": -3.0384107427,
				"z": -3.992247864,
				"element": "H" 
			},
			{
				"x": 1.1230277102,
				"y": -2.6625641727,
				"z": -3.0892659571,
				"element": "H" 
			},
			{
				"x": 1.1418871703,
				"y": -2.7265027793,
				"z": -4.8603526528,
				"element": "H" 
			},
			{
				"x": 1.259291967,
				"y": -1.1606108901,
				"z": -4.0305273948,
				"element": "H" 
			},
			{
				"x": -3.5051591275,
				"y": -0.7065805983,
				"z": 0.3402239902,
				"element": "H" 
			},
			{
				"x": 1.2305468678,
				"y": 0.1842171564,
				"z": 1.4717231428,
				"element": "H" 
			},
			{
				"x": 0.6875713044,
				"y": -1.141470617,
				"z": -0.496627467,
				"element": "H" 
			},
			{
				"x": 0.7659123825,
				"y": 2.6934075611,
				"z": 3.9721098519,
				"element": "H" 
			},
			{
				"x": 1.3807034544,
				"y": 1.9227730055,
				"z": 2.530872355,
				"element": "H" 
			},
			{
				"x": 2.4469035536,
				"y": 1.3564454993,
				"z": 4.8907595894,
				"element": "H" 
			},
			{
				"x": 2.1993676479,
				"y": 0.0085398504,
				"z": 3.7670504562,
				"element": "H" 
			},
			{
				"x": 1.2356635963,
				"y": -0.2948985753,
				"z": 6.0824020217,
				"element": "H" 
			},
			{
				"x": -0.9394991251,
				"y": 0.4367436235,
				"z": 6.4600760078,
				"element": "H" 
			},
			{
				"x": -0.0519661896,
				"y": 1.9111407748,
				"z": 6.0756401012,
				"element": "H" 
			},
			{
				"x": -1.941131004,
				"y": 0.2571087439,
				"z": 4.351329162,
				"element": "H" 
			},
			{
				"x": -1.9286027196,
				"y": 2.0118109332,
				"z": 4.5843986371,
				"element": "H" 
			}
		],
		 "valence_orbital": [ 
			{
				"type": "occ",
				"energy": -0.29139,
				"method": "rhf"
			},
			{
				"type": "occ",
				"energy": -0.27321,
				"method": "rhf"
			},
			{
				"type": "occ",
				"energy": -0.24769,
				"method": "rhf"
			},
			{
				"type": "occ",
				"energy": -0.23792,
				"method": "rhf"
			},
			{
				"type": "occ",
				"energy": -0.22111,
				"method": "rhf"
			},
			{
				"type": "unocc",
				"energy": -0.07984,
				"method": "rhf"
			},
			{
				"type": "unocc",
				"energy": -0.03292,
				"method": "rhf"
			},
			{
				"type": "unocc",
				"energy": -0.01478,
				"method": "rhf"
			},
			{
				"type": "unocc",
				"energy": 0.05517,
				"method": "rhf"
			},
			{
				"type": "unocc",
				"energy": 0.06029,
				"method": "rhf"
			}
		],
		"cosmo_sigma_profile": { 
			"-0.025": 0.0,
			"-0.024": 0.0,
			"-0.023": 0.0,
			"-0.022": 0.0,
			"-0.021": 0.0,
			"-0.02": 0.0,
			"-0.019": 0.0,
			"-0.018": 0.0,
			"-0.017": 0.0,
			"-0.016": 0.0,
			"-0.015": 0.0,
			"-0.014": 0.0,
			"-0.013": 0.0,
			"-0.012": 0.0,
			"-0.011": 0.620773394895,
			"-0.01": 1.85993299203,
			"-0.009": 2.15048877098,
			"-0.008": 4.51868846377,
			"-0.007": 7.38597145805,
			"-0.006": 12.5562710261,
			"-0.005": 27.4348768993,
			"-0.004": 37.6305595676,
			"-0.003": 46.0158983927,
			"-0.002": 39.9199276682,
			"-0.001": 32.9065652981,
			"0.0": 29.2940751088,
			"0.001": 23.6753679259,
			"0.002": 13.3395669012,
			"0.003": 9.04687325727,
			"0.004": 8.24906620852,
			"0.005": 7.25372185132,
			"0.006": 6.52252129371,
			"0.007": 8.46684395687,
			"0.008": 13.342551876,
			"0.009": 10.5989686152,
			"0.01": 9.87197458331,
			"0.011": 9.45988100909,
			"0.012": 5.39069924362,
			"0.013": 0.362110657544,
			"0.014": 0.206134955848,
			"0.015": 0.521061167052,
			"0.016": 0.66354173013,
			"0.017": 0.124673280856,
			"0.018": 0.0,
			"0.019": 0.0,
			"0.02": 0.0,
			"0.021": 0.0,
			"0.022": 0.0,
			"0.023": 0.0,
			"0.024": 0.0,
			"0.025": 0.0
		}
	}
}
