{
	 "smiles": "OC(=O)C1=C(ON=C1)C1=CC=CO1", 
	 "Tm": 469.15, 
	 "num_atms": 18, 
	 "gaussian": { 
		 "optdone": 1, 
		 "sigma_profile": "yes", 
		 "theory": "DFT", 
		 "functional": "B3LYP", 
		 "basiset": "6-31G**", 
		 "properties": { 
			 "R2extent": 2380.727, 
			 "electric_dipole_moment_norm": 2.37522106129, 
			 "electric_quadrupole_moment_norm": 19.1550932044, 
			 "total_energy": -663.429327044, 
			 "HOMO_LUMO_gap": 0.16379, 
			 "cosmo_polarized_energy": -17.88, 
			 "cosmo_cavitation_energy": 24.26, 
			 "cosmo_dispersion_energy": -17.74, 
			 "cosmo_repulsion_energy": 1.39, 
			 "cosmo_total_nonelectrostatic_energy": 7.9, 
			 "SMD_solvation_energy": 6.23 
		},
		"coords": [
			{
				"x": 2.0868745215,
				"y": -2.584814063,
				"z": -0.6279515455,
				"element": "O" 
			},
			{
				"x": 1.1224897307,
				"y": -1.6382005347,
				"z": -0.8233407779,
				"element": "C" 
			},
			{
				"x": 0.5730439629,
				"y": -1.5453465598,
				"z": -1.8924686383,
				"element": "O" 
			},
			{
				"x": 0.8095270449,
				"y": -0.8173551513,
				"z": 0.3697244284,
				"element": "C" 
			},
			{
				"x": 0.2603826158,
				"y": 0.4512896143,
				"z": 0.4480315728,
				"element": "C" 
			},
			{
				"x": 0.0648857621,
				"y": 0.7690570242,
				"z": 1.7453251592,
				"element": "O" 
			},
			{
				"x": 0.4605634915,
				"y": -0.2964323683,
				"z": 2.5661765295,
				"element": "N" 
			},
			{
				"x": 0.9012318195,
				"y": -1.2091162935,
				"z": 1.7394657547,
				"element": "C" 
			},
			{
				"x": -0.1002312011,
				"y": 1.476503796,
				"z": -0.4911468706,
				"element": "C" 
			},
			{
				"x": -0.7533838391,
				"y": 2.6737489451,
				"z": -0.3136131353,
				"element": "C" 
			},
			{
				"x": -0.8188010304,
				"y": 3.2835587951,
				"z": -1.5982043552,
				"element": "C" 
			},
			{
				"x": -0.1996906848,
				"y": 2.4203154027,
				"z": -2.4584137717,
				"element": "C" 
			},
			{
				"x": 0.2427750513,
				"y": 1.3209979859,
				"z": -1.8026128147,
				"element": "O" 
			},
			{
				"x": 2.5543348159,
				"y": -2.4239028773,
				"z": 0.2034461437,
				"element": "H" 
			},
			{
				"x": 1.2447218548,
				"y": -2.1532081702,
				"z": 2.1462103618,
				"element": "H" 
			},
			{
				"x": -1.1361033264,
				"y": 3.0539448868,
				"z": 0.6218387674,
				"element": "H" 
			},
			{
				"x": -1.2663995043,
				"y": 4.2335655439,
				"z": -1.8504420896,
				"element": "H" 
			},
			{
				"x": -0.0039210848,
				"y": 2.4409940239,
				"z": -3.5192247187,
				"element": "H" 
			}
		],
		 "valence_orbital": [ 
			{
				"type": "occ",
				"energy": -0.32332,
				"method": "rhf"
			},
			{
				"type": "occ",
				"energy": -0.30504,
				"method": "rhf"
			},
			{
				"type": "occ",
				"energy": -0.29878,
				"method": "rhf"
			},
			{
				"type": "occ",
				"energy": -0.27657,
				"method": "rhf"
			},
			{
				"type": "occ",
				"energy": -0.23451,
				"method": "rhf"
			},
			{
				"type": "unocc",
				"energy": -0.07072,
				"method": "rhf"
			},
			{
				"type": "unocc",
				"energy": -0.01702,
				"method": "rhf"
			},
			{
				"type": "unocc",
				"energy": 0.01706,
				"method": "rhf"
			},
			{
				"type": "unocc",
				"energy": 0.0534,
				"method": "rhf"
			},
			{
				"type": "unocc",
				"energy": 0.05879,
				"method": "rhf"
			}
		],
		"cosmo_sigma_profile": { 
			"-0.025": 0.0,
			"-0.024": 0.0,
			"-0.023": 0.0,
			"-0.022": 0.0,
			"-0.021": 0.0,
			"-0.02": 0.0,
			"-0.019": 0.848565988485,
			"-0.018": 1.36755127365,
			"-0.017": 1.28511613327,
			"-0.016": 1.12127395908,
			"-0.015": 0.81877279693,
			"-0.014": 1.06208694758,
			"-0.013": 1.2167864437,
			"-0.012": 2.16232657279,
			"-0.011": 1.78332675563,
			"-0.01": 3.64226297679,
			"-0.009": 4.558935192,
			"-0.008": 6.26641691916,
			"-0.007": 6.81732159345,
			"-0.006": 6.80167227321,
			"-0.005": 8.65231463233,
			"-0.004": 8.01306246811,
			"-0.003": 9.71315853104,
			"-0.002": 14.0590389188,
			"-0.001": 12.774780654,
			"0.0": 14.0400986809,
			"0.001": 12.6718650357,
			"0.002": 10.9802725517,
			"0.003": 9.35387284157,
			"0.004": 6.2800497141,
			"0.005": 5.46512416765,
			"0.006": 6.77064492033,
			"0.007": 5.62136151648,
			"0.008": 4.74219880682,
			"0.009": 5.09592335606,
			"0.01": 6.72532375347,
			"0.011": 7.49850243663,
			"0.012": 6.55878745574,
			"0.013": 1.66229702673,
			"0.014": 0.0,
			"0.015": 0.0,
			"0.016": 0.0,
			"0.017": 0.0,
			"0.018": 0.0,
			"0.019": 0.0,
			"0.02": 0.0,
			"0.021": 0.0,
			"0.022": 0.0,
			"0.023": 0.0,
			"0.024": 0.0,
			"0.025": 0.0
		}
	}
}
