{
	 "smiles": "O=C1N(CCNCCN2C(=O)C3=C(C=CC=C3)C2=O)C(=O)C2=C1C=CC=C2", 
	 "Tm": 405.15, 
	 "num_atms": 44, 
	 "gaussian": { 
		 "optdone": 1, 
		 "sigma_profile": "yes", 
		 "theory": "DFT", 
		 "functional": "B3LYP", 
		 "basiset": "6-31G**", 
		 "properties": { 
			 "R2extent": 13989.2438, 
			 "electric_dipole_moment_norm": 3.87197600199, 
			 "electric_quadrupole_moment_norm": 31.6459609491, 
			 "total_energy": -1237.58442979, 
			 "HOMO_LUMO_gap": 0.12657, 
			 "cosmo_polarized_energy": -19.68, 
			 "cosmo_cavitation_energy": 49.16, 
			 "cosmo_dispersion_energy": -33.8, 
			 "cosmo_repulsion_energy": 2.51, 
			 "cosmo_total_nonelectrostatic_energy": 17.87, 
			 "SMD_solvation_energy": 7.93 
		},
		"coords": [
			{
				"x": -4.4092166065,
				"y": 0.5894539516,
				"z": 1.377180606,
				"element": "O" 
			},
			{
				"x": -3.9586606721,
				"y": 1.4488145387,
				"z": 0.6447886087,
				"element": "C" 
			},
			{
				"x": -3.4965535274,
				"y": 1.2342588945,
				"z": -0.6655323434,
				"element": "N" 
			},
			{
				"x": -3.5774233567,
				"y": -0.0651692437,
				"z": -1.3311413263,
				"element": "C" 
			},
			{
				"x": -2.5078119081,
				"y": -1.0861930336,
				"z": -0.8941224265,
				"element": "C" 
			},
			{
				"x": -1.2693641954,
				"y": -1.0141809752,
				"z": -1.6574777582,
				"element": "N" 
			},
			{
				"x": -0.3811044459,
				"y": 0.0956758472,
				"z": -1.3255541495,
				"element": "C" 
			},
			{
				"x": 1.0187087694,
				"y": -0.1053773544,
				"z": -1.9189158998,
				"element": "C" 
			},
			{
				"x": 1.9244463515,
				"y": -0.9167891244,
				"z": -1.101028542,
				"element": "N" 
			},
			{
				"x": 1.8727766316,
				"y": -2.307904138,
				"z": -0.9582457051,
				"element": "C" 
			},
			{
				"x": 1.0244039165,
				"y": -3.0425544114,
				"z": -1.4356132926,
				"element": "O" 
			},
			{
				"x": 3.0424195301,
				"y": -2.6802829783,
				"z": -0.1097759538,
				"element": "C" 
			},
			{
				"x": 3.7329603539,
				"y": -1.5126002827,
				"z": 0.2184427538,
				"element": "C" 
			},
			{
				"x": 4.8715631835,
				"y": -1.5404518844,
				"z": 1.0102298791,
				"element": "C" 
			},
			{
				"x": 5.3042674172,
				"y": -2.791369838,
				"z": 1.4709916825,
				"element": "C" 
			},
			{
				"x": 4.6106186157,
				"y": -3.9632858452,
				"z": 1.1421329466,
				"element": "C" 
			},
			{
				"x": 3.4608450736,
				"y": -3.9233952957,
				"z": 0.3417696316,
				"element": "C" 
			},
			{
				"x": 3.0306353262,
				"y": -0.3626128471,
				"z": -0.4223864078,
				"element": "C" 
			},
			{
				"x": 3.3195080293,
				"y": 0.816594225,
				"z": -0.4002068273,
				"element": "O" 
			},
			{
				"x": -3.0921377274,
				"y": 2.4297347439,
				"z": -1.2813218316,
				"element": "C" 
			},
			{
				"x": -2.6806255532,
				"y": 2.5357091759,
				"z": -2.4210623698,
				"element": "O" 
			},
			{
				"x": -3.2706418967,
				"y": 3.4975236479,
				"z": -0.2519434304,
				"element": "C" 
			},
			{
				"x": -3.7878075027,
				"y": 2.909586713,
				"z": 0.9037403602,
				"element": "C" 
			},
			{
				"x": -4.0634310493,
				"y": 3.6585210046,
				"z": 2.038303395,
				"element": "C" 
			},
			{
				"x": -3.801051187,
				"y": 5.0341283958,
				"z": 1.9814556625,
				"element": "C" 
			},
			{
				"x": -3.2820618504,
				"y": 5.6240949973,
				"z": 0.8216701214,
				"element": "C" 
			},
			{
				"x": -3.0083628808,
				"y": 4.858001163,
				"z": -0.3195819106,
				"element": "C" 
			},
			{
				"x": -3.4945456675,
				"y": 0.1179271821,
				"z": -2.4047592553,
				"element": "H" 
			},
			{
				"x": -4.5686860865,
				"y": -0.4713241528,
				"z": -1.1085815354,
				"element": "H" 
			},
			{
				"x": -2.9318195097,
				"y": -2.0812800791,
				"z": -1.0674779159,
				"element": "H" 
			},
			{
				"x": -2.3646011492,
				"y": -0.98998482,
				"z": 0.1975898306,
				"element": "H" 
			},
			{
				"x": -0.7637288569,
				"y": -1.8922790437,
				"z": -1.5720837754,
				"element": "H" 
			},
			{
				"x": -0.7873335177,
				"y": 1.0159930308,
				"z": -1.7598069822,
				"element": "H" 
			},
			{
				"x": -0.2814134743,
				"y": 0.2698262799,
				"z": -0.2364164835,
				"element": "H" 
			},
			{
				"x": 0.929134244,
				"y": -0.5677872171,
				"z": -2.9070377202,
				"element": "H" 
			},
			{
				"x": 1.5201610615,
				"y": 0.8586201118,
				"z": -2.0249492205,
				"element": "H" 
			},
			{
				"x": 5.4008690327,
				"y": -0.6262239264,
				"z": 1.2584288723,
				"element": "H" 
			},
			{
				"x": 6.1917518676,
				"y": -2.8556649542,
				"z": 2.0934088713,
				"element": "H" 
			},
			{
				"x": 4.9714941566,
				"y": -4.9172704673,
				"z": 1.514724759,
				"element": "H" 
			},
			{
				"x": 2.9153251176,
				"y": -4.8244104962,
				"z": 0.0807227344,
				"element": "H" 
			},
			{
				"x": -4.4667306306,
				"y": 3.1907483139,
				"z": 2.9306432764,
				"element": "H" 
			},
			{
				"x": -4.0029845541,
				"y": 5.6548692122,
				"z": 2.849322678,
				"element": "H" 
			},
			{
				"x": -3.0899642656,
				"y": 6.6928276623,
				"z": 0.8087473166,
				"element": "H" 
			},
			{
				"x": -2.6076266068,
				"y": 5.3040833175,
				"z": -1.2240709227,
				"element": "H" 
			}
		],
		 "valence_orbital": [ 
			{
				"type": "occ",
				"energy": -0.27233,
				"method": "rhf"
			},
			{
				"type": "occ",
				"energy": -0.26838,
				"method": "rhf"
			},
			{
				"type": "occ",
				"energy": -0.2646,
				"method": "rhf"
			},
			{
				"type": "occ",
				"energy": -0.26324,
				"method": "rhf"
			},
			{
				"type": "occ",
				"energy": -0.21178,
				"method": "rhf"
			},
			{
				"type": "unocc",
				"energy": -0.08521,
				"method": "rhf"
			},
			{
				"type": "unocc",
				"energy": -0.07924,
				"method": "rhf"
			},
			{
				"type": "unocc",
				"energy": -0.04348,
				"method": "rhf"
			},
			{
				"type": "unocc",
				"energy": -0.03859,
				"method": "rhf"
			},
			{
				"type": "unocc",
				"energy": 0.02493,
				"method": "rhf"
			}
		],
		"cosmo_sigma_profile": { 
			"-0.025": 0.0,
			"-0.024": 0.0,
			"-0.023": 0.0,
			"-0.022": 0.0,
			"-0.021": 0.0,
			"-0.02": 0.0,
			"-0.019": 0.0,
			"-0.018": 0.0,
			"-0.017": 0.0,
			"-0.016": 0.0,
			"-0.015": 0.0,
			"-0.014": 0.0,
			"-0.013": 0.0,
			"-0.012": 0.0,
			"-0.011": 0.0,
			"-0.01": 0.0,
			"-0.009": 0.0,
			"-0.008": 3.23676379358,
			"-0.007": 16.5060919662,
			"-0.006": 22.943516317,
			"-0.005": 31.9174326231,
			"-0.004": 31.891231584,
			"-0.003": 41.7979826089,
			"-0.002": 35.610533992,
			"-0.001": 31.6373007983,
			"0.0": 26.4343280483,
			"0.001": 27.9680374648,
			"0.002": 32.1759956079,
			"0.003": 12.759352085,
			"0.004": 8.90123304347,
			"0.005": 7.48855392814,
			"0.006": 6.41030398193,
			"0.007": 6.3865717922,
			"0.008": 7.99494051917,
			"0.009": 6.96856286965,
			"0.01": 10.4044399556,
			"0.011": 16.3051135487,
			"0.012": 5.99638396929,
			"0.013": 0.418408857207,
			"0.014": 0.553974052232,
			"0.015": 0.260669502257,
			"0.016": 0.421454236354,
			"0.017": 0.135581257646,
			"0.018": 0.0,
			"0.019": 0.0,
			"0.02": 0.0,
			"0.021": 0.0,
			"0.022": 0.0,
			"0.023": 0.0,
			"0.024": 0.0,
			"0.025": 0.0
		}
	}
}
