{
	 "smiles": "CCCCCC=C/CC=C/CCCCCCCC(=O)OC", 
	 "Tm": 238.15, 
	 "num_atms": 55, 
	 "gaussian": { 
		 "optdone": 1, 
		 "sigma_profile": "yes", 
		 "theory": "DFT", 
		 "functional": "B3LYP", 
		 "basiset": "6-31G**", 
		 "properties": { 
			 "R2extent": 9493.1387, 
			 "electric_dipole_moment_norm": 1.52463269019, 
			 "electric_quadrupole_moment_norm": 16.2652428608, 
			 "total_energy": -894.962751057, 
			 "HOMO_LUMO_gap": 0.24814, 
			 "cosmo_polarized_energy": -9.11, 
			 "cosmo_cavitation_energy": 56.08, 
			 "cosmo_dispersion_energy": -33.39, 
			 "cosmo_repulsion_energy": 2.67, 
			 "cosmo_total_nonelectrostatic_energy": 25.36, 
			 "SMD_solvation_energy": 9.29 
		},
		"coords": [
			{
				"x": 5.400882771,
				"y": -1.3338248365,
				"z": 3.6031343595,
				"element": "C" 
			},
			{
				"x": 4.8866079479,
				"y": -2.3785956706,
				"z": 2.605403434,
				"element": "C" 
			},
			{
				"x": 3.7278413485,
				"y": -1.8950478993,
				"z": 1.7172038438,
				"element": "C" 
			},
			{
				"x": 4.095847455,
				"y": -0.7747042364,
				"z": 0.7353313872,
				"element": "C" 
			},
			{
				"x": 2.9219247781,
				"y": -0.3543149487,
				"z": -0.1707231788,
				"element": "C" 
			},
			{
				"x": 3.318205032,
				"y": 0.6926862936,
				"z": -1.1768013456,
				"element": "C" 
			},
			{
				"x": 2.7809503842,
				"y": 1.9014521799,
				"z": -1.3756907513,
				"element": "C" 
			},
			{
				"x": 1.6103766212,
				"y": 2.5371081742,
				"z": -0.6605514573,
				"element": "C" 
			},
			{
				"x": 0.5689980509,
				"y": 3.0331040279,
				"z": -1.6378610429,
				"element": "C" 
			},
			{
				"x": -0.7565197277,
				"y": 2.8573148122,
				"z": -1.6023704189,
				"element": "C" 
			},
			{
				"x": -1.5902537989,
				"y": 2.1252076049,
				"z": -0.583697975,
				"element": "C" 
			},
			{
				"x": -2.46614132,
				"y": 1.0261880879,
				"z": -1.2220004082,
				"element": "C" 
			},
			{
				"x": -3.6131949929,
				"y": 0.5228343081,
				"z": -0.3295277019,
				"element": "C" 
			},
			{
				"x": -3.233248194,
				"y": -0.2345933549,
				"z": 0.9568716011,
				"element": "C" 
			},
			{
				"x": -2.5285040094,
				"y": -1.5926998503,
				"z": 0.7374217067,
				"element": "C" 
			},
			{
				"x": -0.997240687,
				"y": -1.5416517643,
				"z": 0.8454323407,
				"element": "C" 
			},
			{
				"x": -0.3208771252,
				"y": -2.8948980764,
				"z": 0.5526448613,
				"element": "C" 
			},
			{
				"x": -0.4633472945,
				"y": -3.33603473,
				"z": -0.8903521456,
				"element": "C" 
			},
			{
				"x": -1.0071808606,
				"y": -4.3486071211,
				"z": -1.2743790422,
				"element": "O" 
			},
			{
				"x": 0.1080879083,
				"y": -2.4381652612,
				"z": -1.7325996102,
				"element": "O" 
			},
			{
				"x": 0.0263728623,
				"y": -2.7641242579,
				"z": -3.1297575987,
				"element": "C" 
			},
			{
				"x": 5.8189792773,
				"y": -0.4568009045,
				"z": 3.0987324132,
				"element": "H" 
			},
			{
				"x": 6.1880862513,
				"y": -1.7516575952,
				"z": 4.2393328605,
				"element": "H" 
			},
			{
				"x": 4.5945776845,
				"y": -0.9851788205,
				"z": 4.2592559226,
				"element": "H" 
			},
			{
				"x": 5.715003153,
				"y": -2.7126861568,
				"z": 1.9656618767,
				"element": "H" 
			},
			{
				"x": 4.5560297684,
				"y": -3.266491961,
				"z": 3.159444735,
				"element": "H" 
			},
			{
				"x": 2.8994260823,
				"y": -1.5591040271,
				"z": 2.3583385276,
				"element": "H" 
			},
			{
				"x": 3.3430622064,
				"y": -2.7508024763,
				"z": 1.1447308646,
				"element": "H" 
			},
			{
				"x": 4.4535213576,
				"y": 0.1072041002,
				"z": 1.280489355,
				"element": "H" 
			},
			{
				"x": 4.9356159238,
				"y": -1.1065440711,
				"z": 0.1080339711,
				"element": "H" 
			},
			{
				"x": 2.5484263599,
				"y": -1.2408156208,
				"z": -0.7047407303,
				"element": "H" 
			},
			{
				"x": 2.0914046485,
				"y": -0.004272205,
				"z": 0.4524377717,
				"element": "H" 
			},
			{
				"x": 4.1638963351,
				"y": 0.415039406,
				"z": -1.808466125,
				"element": "H" 
			},
			{
				"x": 3.2205294052,
				"y": 2.5235773007,
				"z": -2.1567021823,
				"element": "H" 
			},
			{
				"x": 1.9849282892,
				"y": 3.4020264107,
				"z": -0.0874679139,
				"element": "H" 
			},
			{
				"x": 1.1714325986,
				"y": 1.8540809884,
				"z": 0.0703373908,
				"element": "H" 
			},
			{
				"x": 0.9735658204,
				"y": 3.6113124124,
				"z": -2.4697335254,
				"element": "H" 
			},
			{
				"x": -1.3355348484,
				"y": 3.3039345781,
				"z": -2.4127371781,
				"element": "H" 
			},
			{
				"x": -0.9653031085,
				"y": 1.7048486381,
				"z": 0.2108630824,
				"element": "H" 
			},
			{
				"x": -2.2557439305,
				"y": 2.8530929329,
				"z": -0.0934362348,
				"element": "H" 
			},
			{
				"x": -2.9109957729,
				"y": 1.4313132351,
				"z": -2.1409486189,
				"element": "H" 
			},
			{
				"x": -1.8289226037,
				"y": 0.1930909067,
				"z": -1.5444457229,
				"element": "H" 
			},
			{
				"x": -4.258962167,
				"y": -0.1319397632,
				"z": -0.9304866488,
				"element": "H" 
			},
			{
				"x": -4.2356203762,
				"y": 1.3852900212,
				"z": -0.0525820856,
				"element": "H" 
			},
			{
				"x": -4.1610940261,
				"y": -0.4049545638,
				"z": 1.5162463085,
				"element": "H" 
			},
			{
				"x": -2.614810988,
				"y": 0.4024876846,
				"z": 1.6037513383,
				"element": "H" 
			},
			{
				"x": -2.8191644825,
				"y": -2.0000524081,
				"z": -0.24073565,
				"element": "H" 
			},
			{
				"x": -2.8938873393,
				"y": -2.3176012345,
				"z": 1.4761285614,
				"element": "H" 
			},
			{
				"x": -0.5857425988,
				"y": -0.7885881672,
				"z": 0.1661142635,
				"element": "H" 
			},
			{
				"x": -0.7221317353,
				"y": -1.2306587432,
				"z": 1.8612919935,
				"element": "H" 
			},
			{
				"x": -0.7455552217,
				"y": -3.6884805419,
				"z": 1.1733435159,
				"element": "H" 
			},
			{
				"x": 0.7494008054,
				"y": -2.8227735635,
				"z": 0.7778954209,
				"element": "H" 
			},
			{
				"x": -1.0162524977,
				"y": -2.8587631845,
				"z": -3.4430733427,
				"element": "H" 
			},
			{
				"x": 0.5407092349,
				"y": -3.7064047033,
				"z": -3.3355966305,
				"element": "H" 
			},
			{
				"x": 0.5111393456,
				"y": -1.9402613845,
				"z": -3.6531084418,
				"element": "H" 
			}
		],
		 "valence_orbital": [ 
			{
				"type": "occ",
				"energy": -0.3073,
				"method": "rhf"
			},
			{
				"type": "occ",
				"energy": -0.29841,
				"method": "rhf"
			},
			{
				"type": "occ",
				"energy": -0.26475,
				"method": "rhf"
			},
			{
				"type": "occ",
				"energy": -0.23732,
				"method": "rhf"
			},
			{
				"type": "occ",
				"energy": -0.23612,
				"method": "rhf"
			},
			{
				"type": "unocc",
				"energy": 0.01202,
				"method": "rhf"
			},
			{
				"type": "unocc",
				"energy": 0.01894,
				"method": "rhf"
			},
			{
				"type": "unocc",
				"energy": 0.04522,
				"method": "rhf"
			},
			{
				"type": "unocc",
				"energy": 0.06679,
				"method": "rhf"
			},
			{
				"type": "unocc",
				"energy": 0.08485,
				"method": "rhf"
			}
		],
		"cosmo_sigma_profile": { 
			"-0.025": 0.0,
			"-0.024": 0.0,
			"-0.023": 0.0,
			"-0.022": 0.0,
			"-0.021": 0.0,
			"-0.02": 0.0,
			"-0.019": 0.0,
			"-0.018": 0.0,
			"-0.017": 0.0,
			"-0.016": 0.0,
			"-0.015": 0.0,
			"-0.014": 0.0,
			"-0.013": 0.0,
			"-0.012": 0.0,
			"-0.011": 0.0,
			"-0.01": 0.0,
			"-0.009": 0.0,
			"-0.008": 0.0,
			"-0.007": 0.224038510022,
			"-0.006": 3.45885365529,
			"-0.005": 7.25768055117,
			"-0.004": 19.250871668,
			"-0.003": 40.6383717347,
			"-0.002": 75.2380283617,
			"-0.001": 80.7232741178,
			"0.0": 69.0762407904,
			"0.001": 50.8424200782,
			"0.002": 24.1487884278,
			"0.003": 11.6549238282,
			"0.004": 10.7513398684,
			"0.005": 8.36742024546,
			"0.006": 9.32325697617,
			"0.007": 7.25799879493,
			"0.008": 2.74494652652,
			"0.009": 1.34671308253,
			"0.01": 1.69895732917,
			"0.011": 2.70339759405,
			"0.012": 4.89492433073,
			"0.013": 1.92856895717,
			"0.014": 0.119368913571,
			"0.015": 0.0,
			"0.016": 0.0,
			"0.017": 0.0,
			"0.018": 0.0,
			"0.019": 0.0,
			"0.02": 0.0,
			"0.021": 0.0,
			"0.022": 0.0,
			"0.023": 0.0,
			"0.024": 0.0,
			"0.025": 0.0
		}
	}
}
