{
	 "smiles": "NS(=O)(=O)C1=CC(Cl)=C(C=C1)N1C(=O)CC(C1=O)C1=CC=CC=C1", 
	 "Tm": 479.15, 
	 "num_atms": 37, 
	 "gaussian": { 
		 "optdone": 1, 
		 "sigma_profile": "yes", 
		 "theory": "DFT", 
		 "functional": "B3LYP", 
		 "basiset": "6-31G**", 
		 "properties": { 
			 "R2extent": 14352.4461, 
			 "electric_dipole_moment_norm": 4.76712180042, 
			 "electric_quadrupole_moment_norm": 27.5124179739, 
			 "total_energy": -1886.27045499, 
			 "HOMO_LUMO_gap": 0.19676, 
			 "cosmo_polarized_energy": -25.82, 
			 "cosmo_cavitation_energy": 45.55, 
			 "cosmo_dispersion_energy": -31.66, 
			 "cosmo_repulsion_energy": 2.38, 
			 "cosmo_total_nonelectrostatic_energy": 16.28, 
			 "SMD_solvation_energy": 8.26 
		},
		"coords": [
			{
				"x": 4.9818639543,
				"y": 0.2572352354,
				"z": 4.6421894329,
				"element": "N" 
			},
			{
				"x": 3.4084983523,
				"y": -0.1071552519,
				"z": 5.1440145179,
				"element": "S" 
			},
			{
				"x": 3.1334492802,
				"y": 0.6906017985,
				"z": 6.3413034067,
				"element": "O" 
			},
			{
				"x": 3.2757530952,
				"y": -1.565605239,
				"z": 5.1154157593,
				"element": "O" 
			},
			{
				"x": 2.3936893041,
				"y": 0.5499336994,
				"z": 3.8143251912,
				"element": "C" 
			},
			{
				"x": 1.9152108166,
				"y": 1.8537141025,
				"z": 3.9165935093,
				"element": "C" 
			},
			{
				"x": 1.1388114352,
				"y": 2.3687127098,
				"z": 2.8798570904,
				"element": "C" 
			},
			{
				"x": 0.593622158,
				"y": 4.0246601474,
				"z": 2.9834648842,
				"element": "Cl" 
			},
			{
				"x": 0.8231737104,
				"y": 1.5750734133,
				"z": 1.7661506465,
				"element": "C" 
			},
			{
				"x": 1.314438236,
				"y": 0.2680481099,
				"z": 1.6932294346,
				"element": "C" 
			},
			{
				"x": 2.102554965,
				"y": -0.2544277544,
				"z": 2.7129417529,
				"element": "C" 
			},
			{
				"x": 0.023051547,
				"y": 2.0782719968,
				"z": 0.7034996143,
				"element": "N" 
			},
			{
				"x": -1.352187954,
				"y": 2.3707814232,
				"z": 0.8329506243,
				"element": "C" 
			},
			{
				"x": -2.0044657679,
				"y": 2.1800959273,
				"z": 1.8311882625,
				"element": "O" 
			},
			{
				"x": -1.8134465597,
				"y": 2.95875646,
				"z": -0.4924295534,
				"element": "C" 
			},
			{
				"x": -0.6492776776,
				"y": 2.7508757753,
				"z": -1.4822500337,
				"element": "C" 
			},
			{
				"x": 0.5217263696,
				"y": 2.2857703863,
				"z": -0.5965403422,
				"element": "C" 
			},
			{
				"x": 1.6674577286,
				"y": 2.1040129113,
				"z": -0.933733395,
				"element": "O" 
			},
			{
				"x": -0.8946696266,
				"y": 1.7424018657,
				"z": -2.595871128,
				"element": "C" 
			},
			{
				"x": -1.5622727113,
				"y": 0.5338746874,
				"z": -2.351975184,
				"element": "C" 
			},
			{
				"x": -1.7533381805,
				"y": -0.3916793243,
				"z": -3.3781419099,
				"element": "C" 
			},
			{
				"x": -1.2756812955,
				"y": -0.1245127793,
				"z": -4.6624978865,
				"element": "C" 
			},
			{
				"x": -0.6037635237,
				"y": 1.0725818843,
				"z": -4.912628461,
				"element": "C" 
			},
			{
				"x": -0.4132945528,
				"y": 1.9972123899,
				"z": -3.8849753984,
				"element": "C" 
			},
			{
				"x": 5.4139157694,
				"y": 0.8978602462,
				"z": 5.3025662006,
				"element": "H" 
			},
			{
				"x": 5.516131271,
				"y": -0.6020946289,
				"z": 4.5460047483,
				"element": "H" 
			},
			{
				"x": 2.1361958958,
				"y": 2.4552833868,
				"z": 4.7899489525,
				"element": "H" 
			},
			{
				"x": 1.0647866994,
				"y": -0.3343593585,
				"z": 0.8268787591,
				"element": "H" 
			},
			{
				"x": 2.4681422144,
				"y": -1.273682225,
				"z": 2.6697822428,
				"element": "H" 
			},
			{
				"x": -2.0265199489,
				"y": 4.0201283879,
				"z": -0.328122604,
				"element": "H" 
			},
			{
				"x": -2.7481128594,
				"y": 2.4864148649,
				"z": -0.8008013438,
				"element": "H" 
			},
			{
				"x": -0.3357823895,
				"y": 3.6955836772,
				"z": -1.935735048,
				"element": "H" 
			},
			{
				"x": -1.9399278493,
				"y": 0.3069422622,
				"z": -1.3580744159,
				"element": "H" 
			},
			{
				"x": -2.2755104793,
				"y": -1.3216832285,
				"z": -3.1727901349,
				"element": "H" 
			},
			{
				"x": -1.4268267929,
				"y": -0.8440511151,
				"z": -5.4617088094,
				"element": "H" 
			},
			{
				"x": -0.2282057803,
				"y": 1.2899007651,
				"z": -5.9083083462,
				"element": "H" 
			},
			{
				"x": 0.1139111468,
				"y": 2.9260223912,
				"z": -4.0850210361,
				"element": "H" 
			}
		],
		 "valence_orbital": [ 
			{
				"type": "occ",
				"energy": -0.27726,
				"method": "rhf"
			},
			{
				"type": "occ",
				"energy": -0.27201,
				"method": "rhf"
			},
			{
				"type": "occ",
				"energy": -0.26499,
				"method": "rhf"
			},
			{
				"type": "occ",
				"energy": -0.26273,
				"method": "rhf"
			},
			{
				"type": "occ",
				"energy": -0.25413,
				"method": "rhf"
			},
			{
				"type": "unocc",
				"energy": -0.05737,
				"method": "rhf"
			},
			{
				"type": "unocc",
				"energy": -0.03657,
				"method": "rhf"
			},
			{
				"type": "unocc",
				"energy": -0.02995,
				"method": "rhf"
			},
			{
				"type": "unocc",
				"energy": -0.01727,
				"method": "rhf"
			},
			{
				"type": "unocc",
				"energy": -0.01498,
				"method": "rhf"
			}
		],
		"cosmo_sigma_profile": { 
			"-0.025": 0.0,
			"-0.024": 0.0,
			"-0.023": 0.0,
			"-0.022": 0.0,
			"-0.021": 0.0,
			"-0.02": 0.0,
			"-0.019": 0.0,
			"-0.018": 0.0,
			"-0.017": 0.0,
			"-0.016": 0.0328166263209,
			"-0.015": 1.66969377035,
			"-0.014": 2.61289360311,
			"-0.013": 2.69915376356,
			"-0.012": 2.66098557083,
			"-0.011": 1.71458398577,
			"-0.01": 1.7074783418,
			"-0.009": 3.50706503963,
			"-0.008": 16.3051222168,
			"-0.007": 19.668307782,
			"-0.006": 21.1371260349,
			"-0.005": 20.5829899301,
			"-0.004": 22.426080023,
			"-0.003": 21.4025383145,
			"-0.002": 19.8190097682,
			"-0.001": 22.8841094687,
			"0.0": 24.5533222894,
			"0.001": 19.702409391,
			"0.002": 18.0912327383,
			"0.003": 19.0620567646,
			"0.004": 15.8473666332,
			"0.005": 17.5175204981,
			"0.006": 10.4892368869,
			"0.007": 8.2645677586,
			"0.008": 6.98443330828,
			"0.009": 9.36374788794,
			"0.01": 14.2961928687,
			"0.011": 17.6443321776,
			"0.012": 4.04664520594,
			"0.013": 0.0368956910521,
			"0.014": 0.0,
			"0.015": 0.0,
			"0.016": 0.0,
			"0.017": 0.0,
			"0.018": 0.0,
			"0.019": 0.0,
			"0.02": 0.0,
			"0.021": 0.0,
			"0.022": 0.0,
			"0.023": 0.0,
			"0.024": 0.0,
			"0.025": 0.0
		}
	}
}
