{
	 "smiles": "NC1=CC(=NN1)C1=CC=C(Br)S1", 
	 "Tm": 415.15, 
	 "num_atms": 18, 
	 "gaussian": { 
		 "optdone": 1, 
		 "sigma_profile": "yes", 
		 "theory": "DFT", 
		 "functional": "B3LYP", 
		 "basiset": "6-31G**", 
		 "properties": { 
			 "R2extent": 8778.0254, 
			 "electric_dipole_moment_norm": 5.55322720767, 
			 "electric_quadrupole_moment_norm": 15.1354065291, 
			 "total_energy": -3404.16677357, 
			 "HOMO_LUMO_gap": 0.17055, 
			 "cosmo_polarized_energy": -16.07, 
			 "cosmo_cavitation_energy": 26.93, 
			 "cosmo_dispersion_energy": -21.06, 
			 "cosmo_repulsion_energy": 1.65, 
			 "cosmo_total_nonelectrostatic_energy": 7.52, 
			 "SMD_solvation_energy": 2.23 
		},
		"coords": [
			{
				"x": -1.3549141329,
				"y": -1.1832577386,
				"z": -2.0831799561,
				"element": "N" 
			},
			{
				"x": -0.2889813787,
				"y": -0.8785741031,
				"z": -1.2338613635,
				"element": "C" 
			},
			{
				"x": -0.1717153322,
				"y": -0.8423545723,
				"z": 0.1438192266,
				"element": "C" 
			},
			{
				"x": 1.1522372865,
				"y": -0.3746903194,
				"z": 0.3809871125,
				"element": "C" 
			},
			{
				"x": 1.8069556261,
				"y": -0.1462058107,
				"z": -0.7597584011,
				"element": "N" 
			},
			{
				"x": 0.9087681757,
				"y": -0.4588320796,
				"z": -1.7287684891,
				"element": "N" 
			},
			{
				"x": 1.8085490265,
				"y": -0.1576907753,
				"z": 1.6606290291,
				"element": "C" 
			},
			{
				"x": 1.2931059449,
				"y": -0.2937660894,
				"z": 2.9278322887,
				"element": "C" 
			},
			{
				"x": 2.2259756363,
				"y": 0.0055556331,
				"z": 3.9634767717,
				"element": "C" 
			},
			{
				"x": 3.4438000454,
				"y": 0.3660796725,
				"z": 3.4590716334,
				"element": "C" 
			},
			{
				"x": 4.9769848557,
				"y": 0.8469011541,
				"z": 4.4484682023,
				"element": "Br" 
			},
			{
				"x": 3.4856837344,
				"y": 0.3505898538,
				"z": 1.7187520707,
				"element": "S" 
			},
			{
				"x": -1.1238703038,
				"y": -1.8660541486,
				"z": -2.7973757686,
				"element": "H" 
			},
			{
				"x": -2.1708071153,
				"y": -1.4923534261,
				"z": -1.5704649515,
				"element": "H" 
			},
			{
				"x": -0.918768454,
				"y": -1.1322598889,
				"z": 0.8668453704,
				"element": "H" 
			},
			{
				"x": 1.1406812202,
				"y": -0.2779899303,
				"z": -2.6927026463,
				"element": "H" 
			},
			{
				"x": 0.2701261484,
				"y": -0.5972697101,
				"z": 3.1196074385,
				"element": "H" 
			},
			{
				"x": 2.0061890169,
				"y": -0.0431277212,
				"z": 5.0225224323,
				"element": "H" 
			}
		],
		 "valence_orbital": [ 
			{
				"type": "occ",
				"energy": -0.28715,
				"method": "rhf"
			},
			{
				"type": "occ",
				"energy": -0.27025,
				"method": "rhf"
			},
			{
				"type": "occ",
				"energy": -0.25073,
				"method": "rhf"
			},
			{
				"type": "occ",
				"energy": -0.22235,
				"method": "rhf"
			},
			{
				"type": "occ",
				"energy": -0.20053,
				"method": "rhf"
			},
			{
				"type": "unocc",
				"energy": -0.02998,
				"method": "rhf"
			},
			{
				"type": "unocc",
				"energy": 0.0075,
				"method": "rhf"
			},
			{
				"type": "unocc",
				"energy": 0.03538,
				"method": "rhf"
			},
			{
				"type": "unocc",
				"energy": 0.0364,
				"method": "rhf"
			},
			{
				"type": "unocc",
				"energy": 0.05238,
				"method": "rhf"
			}
		],
		"cosmo_sigma_profile": { 
			"-0.025": 0.0,
			"-0.024": 0.0,
			"-0.023": 0.0,
			"-0.022": 0.0,
			"-0.021": 0.0,
			"-0.02": 0.0,
			"-0.019": 0.0,
			"-0.018": 0.0,
			"-0.017": 0.183864327984,
			"-0.016": 1.3439573033,
			"-0.015": 1.44349788654,
			"-0.014": 1.12340029767,
			"-0.013": 4.5508193577,
			"-0.012": 4.40943124167,
			"-0.011": 3.59956075089,
			"-0.01": 3.75288920038,
			"-0.009": 2.86748901749,
			"-0.008": 3.770359419,
			"-0.007": 8.92488904216,
			"-0.006": 7.7874734552,
			"-0.005": 7.84608206498,
			"-0.004": 7.89429901687,
			"-0.003": 6.742679586,
			"-0.002": 7.82401609453,
			"-0.001": 8.80657308723,
			"0.0": 10.687212101,
			"0.001": 13.8256044222,
			"0.002": 20.0099145137,
			"0.003": 30.0415545027,
			"0.004": 30.6695069599,
			"0.005": 10.181396779,
			"0.006": 5.807679565,
			"0.007": 3.00235433295,
			"0.008": 2.305262055,
			"0.009": 2.72731310635,
			"0.01": 2.09262354575,
			"0.011": 1.35889225404,
			"0.012": 1.67286109071,
			"0.013": 2.21798750636,
			"0.014": 1.49458325137,
			"0.015": 0.279864161403,
			"0.016": 0.0,
			"0.017": 0.0,
			"0.018": 0.0,
			"0.019": 0.0,
			"0.02": 0.0,
			"0.021": 0.0,
			"0.022": 0.0,
			"0.023": 0.0,
			"0.024": 0.0,
			"0.025": 0.0
		}
	}
}
