{
	 "smiles": "FC(F)(F)C1=CC=CC(=C1)N=C=O", 
	 "Tm": 247.15, 
	 "num_atms": 17, 
	 "gaussian": { 
		 "optdone": 1, 
		 "sigma_profile": "yes", 
		 "theory": "DFT", 
		 "functional": "B3LYP", 
		 "basiset": "6-31G**", 
		 "properties": { 
			 "R2extent": 3163.8036, 
			 "electric_dipole_moment_norm": 2.15374983227, 
			 "electric_quadrupole_moment_norm": 9.59448144091, 
			 "total_energy": -736.763885931, 
			 "HOMO_LUMO_gap": 0.20798, 
			 "cosmo_polarized_energy": -5.36, 
			 "cosmo_cavitation_energy": 24.69, 
			 "cosmo_dispersion_energy": -17.23, 
			 "cosmo_repulsion_energy": 1.31, 
			 "cosmo_total_nonelectrostatic_energy": 8.77, 
			 "SMD_solvation_energy": 7.78 
		},
		"coords": [
			{
				"x": -1.1363984018,
				"y": -1.3185175971,
				"z": 2.0687344931,
				"element": "F" 
			},
			{
				"x": -0.2492682459,
				"y": -0.3333487223,
				"z": 1.8091542934,
				"element": "C" 
			},
			{
				"x": 0.9673964276,
				"y": -0.7910098902,
				"z": 2.1835354006,
				"element": "F" 
			},
			{
				"x": -0.5453088935,
				"y": 0.7069361812,
				"z": 2.617657145,
				"element": "F" 
			},
			{
				"x": -0.265363364,
				"y": 0.061483905,
				"z": 0.3550901255,
				"element": "C" 
			},
			{
				"x": -0.5340106317,
				"y": -0.9015335077,
				"z": -0.6209007467,
				"element": "C" 
			},
			{
				"x": -0.4929081652,
				"y": -0.5396674588,
				"z": -1.9673966288,
				"element": "C" 
			},
			{
				"x": -0.1874615799,
				"y": 0.7666549308,
				"z": -2.3413083314,
				"element": "C" 
			},
			{
				"x": 0.0800484828,
				"y": 1.729215827,
				"z": -1.3558093048,
				"element": "C" 
			},
			{
				"x": 0.0406384758,
				"y": 1.3736700232,
				"z": -0.0035313023,
				"element": "C" 
			},
			{
				"x": 0.3857004715,
				"y": 3.0528903377,
				"z": -1.6767452431,
				"element": "N" 
			},
			{
				"x": 0.5220686987,
				"y": 3.7607319576,
				"z": -2.6494214236,
				"element": "C" 
			},
			{
				"x": 0.6829688364,
				"y": 4.5534748881,
				"z": -3.5048213079,
				"element": "O" 
			},
			{
				"x": -0.779885886,
				"y": -1.9159966703,
				"z": -0.3282844819,
				"element": "H" 
			},
			{
				"x": -0.7036108628,
				"y": -1.2796548489,
				"z": -2.7331767149,
				"element": "H" 
			},
			{
				"x": -0.1575045468,
				"y": 1.0482766625,
				"z": -3.3895175151,
				"element": "H" 
			},
			{
				"x": 0.2406991848,
				"y": 2.1244939821,
				"z": 0.7513415428,
				"element": "H" 
			}
		],
		 "valence_orbital": [ 
			{
				"type": "occ",
				"energy": -0.3712,
				"method": "rhf"
			},
			{
				"type": "occ",
				"energy": -0.34064,
				"method": "rhf"
			},
			{
				"type": "occ",
				"energy": -0.3194,
				"method": "rhf"
			},
			{
				"type": "occ",
				"energy": -0.28186,
				"method": "rhf"
			},
			{
				"type": "occ",
				"energy": -0.25275,
				"method": "rhf"
			},
			{
				"type": "unocc",
				"energy": -0.04477,
				"method": "rhf"
			},
			{
				"type": "unocc",
				"energy": -0.03278,
				"method": "rhf"
			},
			{
				"type": "unocc",
				"energy": 0.00067,
				"method": "rhf"
			},
			{
				"type": "unocc",
				"energy": 0.05918,
				"method": "rhf"
			},
			{
				"type": "unocc",
				"energy": 0.09023,
				"method": "rhf"
			}
		],
		"cosmo_sigma_profile": { 
			"-0.025": 0.0,
			"-0.024": 0.0,
			"-0.023": 0.0,
			"-0.022": 0.0,
			"-0.021": 0.0,
			"-0.02": 0.0,
			"-0.019": 0.0,
			"-0.018": 0.0,
			"-0.017": 0.0,
			"-0.016": 0.0,
			"-0.015": 0.0,
			"-0.014": 0.0,
			"-0.013": 0.0,
			"-0.012": 0.0,
			"-0.011": 0.0,
			"-0.01": 0.0,
			"-0.009": 0.615401954772,
			"-0.008": 4.46797607519,
			"-0.007": 7.34893151943,
			"-0.006": 8.88999986817,
			"-0.005": 9.89919724601,
			"-0.004": 8.8195154486,
			"-0.003": 11.5015983715,
			"-0.002": 11.8277269188,
			"-0.001": 12.6643369324,
			"0.0": 17.2392776315,
			"0.001": 21.769434795,
			"0.002": 33.2974900201,
			"0.003": 33.569035996,
			"0.004": 3.64546365732,
			"0.005": 3.28908752246,
			"0.006": 2.99758180693,
			"0.007": 7.44342083151,
			"0.008": 1.10781716026,
			"0.009": 0.0,
			"0.01": 0.0,
			"0.011": 0.0,
			"0.012": 0.0,
			"0.013": 0.0,
			"0.014": 0.0,
			"0.015": 0.0,
			"0.016": 0.0,
			"0.017": 0.0,
			"0.018": 0.0,
			"0.019": 0.0,
			"0.02": 0.0,
			"0.021": 0.0,
			"0.022": 0.0,
			"0.023": 0.0,
			"0.024": 0.0,
			"0.025": 0.0
		}
	}
}
