{
	 "smiles": "ClCCSC1=C2C=CC(Cl)=CC2=NC=C1", 
	 "Tm": 459.15, 
	 "num_atms": 24, 
	 "gaussian": { 
		 "optdone": 1, 
		 "sigma_profile": "yes", 
		 "theory": "DFT", 
		 "functional": "B3LYP", 
		 "basiset": "6-31G**", 
		 "properties": { 
			 "R2extent": 7188.6005, 
			 "electric_dipole_moment_norm": 1.7797776996, 
			 "electric_quadrupole_moment_norm": 22.8666199968, 
			 "total_energy": -1797.92372794, 
			 "HOMO_LUMO_gap": 0.16848, 
			 "cosmo_polarized_energy": -10.95, 
			 "cosmo_cavitation_energy": 33.14, 
			 "cosmo_dispersion_energy": -24.55, 
			 "cosmo_repulsion_energy": 1.89, 
			 "cosmo_total_nonelectrostatic_energy": 10.48, 
			 "SMD_solvation_energy": 2.95 
		},
		"coords": [
			{
				"x": 5.8057791122,
				"y": -1.2838074093,
				"z": 2.5351176476,
				"element": "Cl" 
			},
			{
				"x": 4.1805166668,
				"y": -2.0880018302,
				"z": 2.5870538174,
				"element": "C" 
			},
			{
				"x": 3.0501596637,
				"y": -1.164686161,
				"z": 2.1658824345,
				"element": "C" 
			},
			{
				"x": 3.1897040368,
				"y": -0.6827025584,
				"z": 0.3846373408,
				"element": "S" 
			},
			{
				"x": 1.5468746608,
				"y": 0.0012946115,
				"z": 0.1344415742,
				"element": "C" 
			},
			{
				"x": 0.3892723734,
				"y": -0.8238281706,
				"z": -0.0271281704,
				"element": "C" 
			},
			{
				"x": 0.4097943856,
				"y": -2.2431487738,
				"z": -0.0168820469,
				"element": "C" 
			},
			{
				"x": -0.747994774,
				"y": -2.9730145533,
				"z": -0.1616318017,
				"element": "C" 
			},
			{
				"x": -1.9821365764,
				"y": -2.3004968884,
				"z": -0.3256251867,
				"element": "C" 
			},
			{
				"x": -3.4422207657,
				"y": -3.2591489905,
				"z": -0.5004291161,
				"element": "Cl" 
			},
			{
				"x": -2.0528767331,
				"y": -0.9287441465,
				"z": -0.3599768707,
				"element": "C" 
			},
			{
				"x": -0.8677939454,
				"y": -0.158907406,
				"z": -0.2175150436,
				"element": "C" 
			},
			{
				"x": -0.9924970983,
				"y": 1.1988463685,
				"z": -0.2797154365,
				"element": "N" 
			},
			{
				"x": 0.1046757224,
				"y": 1.91604077,
				"z": -0.1590817268,
				"element": "C" 
			},
			{
				"x": 1.3949017933,
				"y": 1.3700009407,
				"z": 0.054237023,
				"element": "C" 
			},
			{
				"x": 4.2469774847,
				"y": -2.9658212431,
				"z": 1.942413294,
				"element": "H" 
			},
			{
				"x": 4.0315806553,
				"y": -2.4094411281,
				"z": 3.6196040669,
				"element": "H" 
			},
			{
				"x": 2.1058383037,
				"y": -1.7006878773,
				"z": 2.3057444981,
				"element": "H" 
			},
			{
				"x": 3.036167255,
				"y": -0.2634033348,
				"z": 2.7834606626,
				"element": "H" 
			},
			{
				"x": 1.3627444656,
				"y": -2.7516289319,
				"z": 0.0833453571,
				"element": "H" 
			},
			{
				"x": -0.7263255156,
				"y": -4.057075319,
				"z": -0.160332222,
				"element": "H" 
			},
			{
				"x": -2.9903124593,
				"y": -0.4037475032,
				"z": -0.498637317,
				"element": "H" 
			},
			{
				"x": -0.0124186325,
				"y": 2.997471629,
				"z": -0.2184876195,
				"element": "H" 
			},
			{
				"x": 2.2514899211,
				"y": 2.0260379056,
				"z": 0.1640048417,
				"element": "H" 
			}
		],
		 "valence_orbital": [ 
			{
				"type": "occ",
				"energy": -0.30026,
				"method": "rhf"
			},
			{
				"type": "occ",
				"energy": -0.27004,
				"method": "rhf"
			},
			{
				"type": "occ",
				"energy": -0.26276,
				"method": "rhf"
			},
			{
				"type": "occ",
				"energy": -0.24874,
				"method": "rhf"
			},
			{
				"type": "occ",
				"energy": -0.24368,
				"method": "rhf"
			},
			{
				"type": "unocc",
				"energy": -0.0752,
				"method": "rhf"
			},
			{
				"type": "unocc",
				"energy": -0.03431,
				"method": "rhf"
			},
			{
				"type": "unocc",
				"energy": -0.00923,
				"method": "rhf"
			},
			{
				"type": "unocc",
				"energy": 0.01046,
				"method": "rhf"
			},
			{
				"type": "unocc",
				"energy": 0.02334,
				"method": "rhf"
			}
		],
		"cosmo_sigma_profile": { 
			"-0.025": 0.0,
			"-0.024": 0.0,
			"-0.023": 0.0,
			"-0.022": 0.0,
			"-0.021": 0.0,
			"-0.02": 0.0,
			"-0.019": 0.0,
			"-0.018": 0.0,
			"-0.017": 0.0,
			"-0.016": 0.0,
			"-0.015": 0.0,
			"-0.014": 0.0,
			"-0.013": 0.0,
			"-0.012": 0.0,
			"-0.011": 0.0,
			"-0.01": 0.0,
			"-0.009": 0.167699112759,
			"-0.008": 4.77461317461,
			"-0.007": 16.2556832324,
			"-0.006": 19.2031833038,
			"-0.005": 16.5504444119,
			"-0.004": 14.1174845658,
			"-0.003": 12.349415933,
			"-0.002": 12.588158377,
			"-0.001": 18.6511959471,
			"0.0": 26.6671022705,
			"0.001": 30.9181455184,
			"0.002": 22.8077044879,
			"0.003": 15.0354665097,
			"0.004": 20.0822884719,
			"0.005": 12.837696576,
			"0.006": 14.0473249296,
			"0.007": 6.24804242543,
			"0.008": 1.80540795801,
			"0.009": 1.54560671413,
			"0.01": 1.0285646984,
			"0.011": 1.22863760969,
			"0.012": 0.739286911518,
			"0.013": 0.874016108024,
			"0.014": 0.559223718225,
			"0.015": 0.675773149072,
			"0.016": 0.105138999141,
			"0.017": 0.0,
			"0.018": 0.0,
			"0.019": 0.0,
			"0.02": 0.0,
			"0.021": 0.0,
			"0.022": 0.0,
			"0.023": 0.0,
			"0.024": 0.0,
			"0.025": 0.0
		}
	}
}
