{
	 "smiles": "ClC1=CC=C(C=C1)C(C1=CC=C(Cl)C=C1)C(Cl)(Cl)Cl", 
	 "Tm": 382.15, 
	 "num_atms": 28, 
	 "gaussian": { 
		 "optdone": 1, 
		 "sigma_profile": "yes", 
		 "theory": "DFT", 
		 "functional": "B3LYP", 
		 "basiset": "6-31G**", 
		 "properties": { 
			 "R2extent": 9205.6602, 
			 "electric_dipole_moment_norm": 1.05067405507, 
			 "electric_quadrupole_moment_norm": 15.4882146524, 
			 "total_energy": -2839.86104111, 
			 "HOMO_LUMO_gap": 0.19269, 
			 "cosmo_polarized_energy": -8.36, 
			 "cosmo_cavitation_energy": 40.08, 
			 "cosmo_dispersion_energy": -28.21, 
			 "cosmo_repulsion_energy": 2.2, 
			 "cosmo_total_nonelectrostatic_energy": 14.07, 
			 "SMD_solvation_energy": 5.14 
		},
		"coords": [
			{
				"x": -1.1730276107,
				"y": -2.562388257,
				"z": 4.9409680682,
				"element": "Cl" 
			},
			{
				"x": -0.7911597672,
				"y": -1.8097049653,
				"z": 3.4012019817,
				"element": "C" 
			},
			{
				"x": 0.2812613838,
				"y": -0.9241702291,
				"z": 3.3141101701,
				"element": "C" 
			},
			{
				"x": 0.575063517,
				"y": -0.33776668,
				"z": 2.0849627366,
				"element": "C" 
			},
			{
				"x": -0.1836230815,
				"y": -0.6114270111,
				"z": 0.9379123411,
				"element": "C" 
			},
			{
				"x": -1.2562305287,
				"y": -1.5060425053,
				"z": 1.0568840096,
				"element": "C" 
			},
			{
				"x": -1.5604821084,
				"y": -2.1072091766,
				"z": 2.2785911261,
				"element": "C" 
			},
			{
				"x": 0.1932052887,
				"y": 0.1419750705,
				"z": -0.3396244484,
				"element": "C" 
			},
			{
				"x": -0.5968457346,
				"y": 1.4414249075,
				"z": -0.5111085277,
				"element": "C" 
			},
			{
				"x": 0.0861020308,
				"y": 2.628350808,
				"z": -0.8075456961,
				"element": "C" 
			},
			{
				"x": -0.5900029174,
				"y": 3.8395489164,
				"z": -0.948135659,
				"element": "C" 
			},
			{
				"x": -1.9736406559,
				"y": 3.8639115388,
				"z": -0.7870541865,
				"element": "C" 
			},
			{
				"x": -2.8395381939,
				"y": 5.3818586543,
				"z": -0.9582494765,
				"element": "Cl" 
			},
			{
				"x": -2.6791917897,
				"y": 2.700779935,
				"z": -0.4807320416,
				"element": "C" 
			},
			{
				"x": -1.986306246,
				"y": 1.5001276568,
				"z": -0.3396087651,
				"element": "C" 
			},
			{
				"x": 0.25951234,
				"y": -0.7217439465,
				"z": -1.6435440082,
				"element": "C" 
			},
			{
				"x": -1.3581740553,
				"y": -1.164632531,
				"z": -2.3111640229,
				"element": "Cl" 
			},
			{
				"x": 1.19166645,
				"y": -2.2343446185,
				"z": -1.328830286,
				"element": "Cl" 
			},
			{
				"x": 1.1357025929,
				"y": 0.2066255134,
				"z": -2.9277984967,
				"element": "Cl" 
			},
			{
				"x": 0.879018929,
				"y": -0.7013128938,
				"z": 4.1908129203,
				"element": "H" 
			},
			{
				"x": 1.4133061125,
				"y": 0.3510343681,
				"z": 2.022075344,
				"element": "H" 
			},
			{
				"x": -1.8589069784,
				"y": -1.7619288817,
				"z": 0.1942425624,
				"element": "H" 
			},
			{
				"x": -2.3881001836,
				"y": -2.8035598841,
				"z": 2.3554176681,
				"element": "H" 
			},
			{
				"x": 1.2414276592,
				"y": 0.4299788864,
				"z": -0.2127099189,
				"element": "H" 
			},
			{
				"x": 1.1643745464,
				"y": 2.6118510478,
				"z": -0.9346195796,
				"element": "H" 
			},
			{
				"x": -0.0503197516,
				"y": 4.7517373597,
				"z": -1.1764909711,
				"element": "H" 
			},
			{
				"x": -3.7545394891,
				"y": 2.7360919803,
				"z": -0.3468268441,
				"element": "H" 
			},
			{
				"x": -2.5409517586,
				"y": 0.6063349371,
				"z": -0.0786359998,
				"element": "H" 
			}
		],
		 "valence_orbital": [ 
			{
				"type": "occ",
				"energy": -0.31125,
				"method": "rhf"
			},
			{
				"type": "occ",
				"energy": -0.27425,
				"method": "rhf"
			},
			{
				"type": "occ",
				"energy": -0.27202,
				"method": "rhf"
			},
			{
				"type": "occ",
				"energy": -0.26155,
				"method": "rhf"
			},
			{
				"type": "occ",
				"energy": -0.24662,
				"method": "rhf"
			},
			{
				"type": "unocc",
				"energy": -0.05393,
				"method": "rhf"
			},
			{
				"type": "unocc",
				"energy": -0.03317,
				"method": "rhf"
			},
			{
				"type": "unocc",
				"energy": -0.02834,
				"method": "rhf"
			},
			{
				"type": "unocc",
				"energy": -0.02126,
				"method": "rhf"
			},
			{
				"type": "unocc",
				"energy": -0.0191,
				"method": "rhf"
			}
		],
		"cosmo_sigma_profile": { 
			"-0.025": 0.0,
			"-0.024": 0.0,
			"-0.023": 0.0,
			"-0.022": 0.0,
			"-0.021": 0.0,
			"-0.02": 0.0,
			"-0.019": 0.0,
			"-0.018": 0.0,
			"-0.017": 0.0,
			"-0.016": 0.0,
			"-0.015": 0.0,
			"-0.014": 0.0,
			"-0.013": 0.0,
			"-0.012": 0.0,
			"-0.011": 0.0,
			"-0.01": 0.0434647154782,
			"-0.009": 2.04622884155,
			"-0.008": 4.76402831485,
			"-0.007": 13.2155121761,
			"-0.006": 16.1226347625,
			"-0.005": 15.716548846,
			"-0.004": 14.0276508699,
			"-0.003": 17.1961704217,
			"-0.002": 17.9659077466,
			"-0.001": 23.4531231698,
			"0.0": 24.7701144995,
			"0.001": 33.6123543318,
			"0.002": 43.6618159551,
			"0.003": 61.1397761954,
			"0.004": 33.7754876627,
			"0.005": 10.715295473,
			"0.006": 0.0,
			"0.007": 0.0,
			"0.008": 0.0,
			"0.009": 0.0,
			"0.01": 0.0,
			"0.011": 0.0,
			"0.012": 0.0,
			"0.013": 0.0,
			"0.014": 0.0,
			"0.015": 0.0,
			"0.016": 0.0,
			"0.017": 0.0,
			"0.018": 0.0,
			"0.019": 0.0,
			"0.02": 0.0,
			"0.021": 0.0,
			"0.022": 0.0,
			"0.023": 0.0,
			"0.024": 0.0,
			"0.025": 0.0
		}
	}
}
