{
	 "smiles": "CCCCCCCCCCCCOP(O)(=O)OCCCCCCCCCCCC", 
	 "Tm": 332.15, 
	 "num_atms": 80, 
	 "gaussian": { 
		 "optdone": 1, 
		 "sigma_profile": "yes", 
		 "theory": "DFT", 
		 "functional": "B3LYP", 
		 "basiset": "6-31G**", 
		 "properties": { 
			 "R2extent": 25873.697, 
			 "electric_dipole_moment_norm": 0.758718089939, 
			 "electric_quadrupole_moment_norm": 10.1309414997, 
			 "total_energy": -1587.69400952, 
			 "HOMO_LUMO_gap": 0.32939, 
			 "cosmo_polarized_energy": -13.99, 
			 "cosmo_cavitation_energy": 78.98, 
			 "cosmo_dispersion_energy": -49.77, 
			 "cosmo_repulsion_energy": 3.98, 
			 "cosmo_total_nonelectrostatic_energy": 33.19, 
			 "SMD_solvation_energy": 12.33 
		},
		"coords": [
			{
				"x": 5.9902652291,
				"y": 5.2841018831,
				"z": 0.8647637643,
				"element": "C" 
			},
			{
				"x": 5.7986657037,
				"y": 3.8876133381,
				"z": 1.4680860737,
				"element": "C" 
			},
			{
				"x": 5.4023405306,
				"y": 2.8049723369,
				"z": 0.4483041056,
				"element": "C" 
			},
			{
				"x": 4.0533340548,
				"y": 3.0106861455,
				"z": -0.2632127787,
				"element": "C" 
			},
			{
				"x": 2.8283837832,
				"y": 2.9784050736,
				"z": 0.6618618248,
				"element": "C" 
			},
			{
				"x": 1.5004017927,
				"y": 3.0979704588,
				"z": -0.1001832961,
				"element": "C" 
			},
			{
				"x": 0.2380634399,
				"y": 2.9938974298,
				"z": 0.7728712463,
				"element": "C" 
			},
			{
				"x": 0.040904153,
				"y": 4.1595349886,
				"z": 1.754496777,
				"element": "C" 
			},
			{
				"x": -1.2123012405,
				"y": 4.0340426373,
				"z": 2.6387549989,
				"element": "C" 
			},
			{
				"x": -2.5405692287,
				"y": 4.1623603193,
				"z": 1.8757185354,
				"element": "C" 
			},
			{
				"x": -3.7877038156,
				"y": 4.1616519038,
				"z": 2.7746509095,
				"element": "C" 
			},
			{
				"x": -4.0509007737,
				"y": 2.8596595553,
				"z": 3.5230978159,
				"element": "C" 
			},
			{
				"x": -4.3778795123,
				"y": 1.7901912982,
				"z": 2.5939043084,
				"element": "O" 
			},
			{
				"x": -3.3879563353,
				"y": 0.5599454828,
				"z": 2.345398549,
				"element": "P" 
			},
			{
				"x": -4.3279232655,
				"y": -0.7566214069,
				"z": 2.4683547318,
				"element": "O" 
			},
			{
				"x": -2.1741247927,
				"y": 0.5062029351,
				"z": 3.1977993538,
				"element": "O" 
			},
			{
				"x": -3.1980619621,
				"y": 0.6663744011,
				"z": 0.7581808981,
				"element": "O" 
			},
			{
				"x": -2.4148458525,
				"y": -0.3462303732,
				"z": 0.0749661537,
				"element": "C" 
			},
			{
				"x": -2.3360176127,
				"y": 0.0438980988,
				"z": -1.3938145215,
				"element": "C" 
			},
			{
				"x": -1.6054538657,
				"y": -0.9934939735,
				"z": -2.2625440923,
				"element": "C" 
			},
			{
				"x": -0.1085670496,
				"y": -1.1499028369,
				"z": -1.9481165142,
				"element": "C" 
			},
			{
				"x": 0.6544122429,
				"y": -2.0489271916,
				"z": -2.9349671215,
				"element": "C" 
			},
			{
				"x": 0.2361103112,
				"y": -3.5269220606,
				"z": -2.9175429337,
				"element": "C" 
			},
			{
				"x": 1.0944397251,
				"y": -4.3933796415,
				"z": -3.8499996172,
				"element": "C" 
			},
			{
				"x": 0.6687545822,
				"y": -5.8653664376,
				"z": -3.9985333285,
				"element": "C" 
			},
			{
				"x": 0.7545258775,
				"y": -6.7315735825,
				"z": -2.7219841708,
				"element": "C" 
			},
			{
				"x": -0.5280743422,
				"y": -6.7888517174,
				"z": -1.8777794096,
				"element": "C" 
			},
			{
				"x": -0.3940811278,
				"y": -7.6748408451,
				"z": -0.6324659183,
				"element": "C" 
			},
			{
				"x": -1.680698465,
				"y": -7.7543796484,
				"z": 0.1955142345,
				"element": "C" 
			},
			{
				"x": 6.3329433096,
				"y": 5.9971508718,
				"z": 1.6219761232,
				"element": "H" 
			},
			{
				"x": 6.7366325513,
				"y": 5.2682963538,
				"z": 0.061677045,
				"element": "H" 
			},
			{
				"x": 5.0603142695,
				"y": 5.6785341593,
				"z": 0.4419961833,
				"element": "H" 
			},
			{
				"x": 6.7340641205,
				"y": 3.5774233028,
				"z": 1.9514589084,
				"element": "H" 
			},
			{
				"x": 5.0515245756,
				"y": 3.9357182663,
				"z": 2.270436008,
				"element": "H" 
			},
			{
				"x": 5.3861264586,
				"y": 1.8314597058,
				"z": 0.9575337733,
				"element": "H" 
			},
			{
				"x": 6.1927589487,
				"y": 2.7355195547,
				"z": -0.3120132,
				"element": "H" 
			},
			{
				"x": 3.9416387593,
				"y": 2.2252787707,
				"z": -1.0234454119,
				"element": "H" 
			},
			{
				"x": 4.063892821,
				"y": 3.9589255345,
				"z": -0.8175892727,
				"element": "H" 
			},
			{
				"x": 2.8317908008,
				"y": 2.0395639796,
				"z": 1.2350101693,
				"element": "H" 
			},
			{
				"x": 2.9036395162,
				"y": 3.7850839465,
				"z": 1.4009412376,
				"element": "H" 
			},
			{
				"x": 1.4651177993,
				"y": 2.3086556534,
				"z": -0.8644847035,
				"element": "H" 
			},
			{
				"x": 1.4832831646,
				"y": 4.0495471386,
				"z": -0.6515633406,
				"element": "H" 
			},
			{
				"x": 0.2601119581,
				"y": 2.0518738134,
				"z": 1.3389535761,
				"element": "H" 
			},
			{
				"x": -0.6348128768,
				"y": 2.9281043878,
				"z": 0.1113285795,
				"element": "H" 
			},
			{
				"x": 0.9169466967,
				"y": 4.2329913112,
				"z": 2.4105332636,
				"element": "H" 
			},
			{
				"x": 0.0014203383,
				"y": 5.1048176332,
				"z": 1.192760405,
				"element": "H" 
			},
			{
				"x": -1.1765250407,
				"y": 4.8140382455,
				"z": 3.412636055,
				"element": "H" 
			},
			{
				"x": -1.1745399023,
				"y": 3.0710333696,
				"z": 3.1629045356,
				"element": "H" 
			},
			{
				"x": -2.6389125303,
				"y": 3.3579438632,
				"z": 1.138376884,
				"element": "H" 
			},
			{
				"x": -2.5334615295,
				"y": 5.0998162747,
				"z": 1.3033181194,
				"element": "H" 
			},
			{
				"x": -4.6751341773,
				"y": 4.395625462,
				"z": 2.1744438449,
				"element": "H" 
			},
			{
				"x": -3.7027191791,
				"y": 4.9548076122,
				"z": 3.5312973487,
				"element": "H" 
			},
			{
				"x": -4.9257710754,
				"y": 2.9618249183,
				"z": 4.1720460725,
				"element": "H" 
			},
			{
				"x": -3.1964549657,
				"y": 2.5543708813,
				"z": 4.1320693301,
				"element": "H" 
			},
			{
				"x": -4.1708854249,
				"y": -1.1915724159,
				"z": 3.3181087619,
				"element": "H" 
			},
			{
				"x": -2.9118664808,
				"y": -1.3159316482,
				"z": 0.1970001589,
				"element": "H" 
			},
			{
				"x": -1.4260228677,
				"y": -0.396744188,
				"z": 0.5411472158,
				"element": "H" 
			},
			{
				"x": -1.8392695578,
				"y": 1.0188133989,
				"z": -1.4741043418,
				"element": "H" 
			},
			{
				"x": -3.3593892517,
				"y": 0.1790028107,
				"z": -1.7624331707,
				"element": "H" 
			},
			{
				"x": -1.7146318137,
				"y": -0.6954966855,
				"z": -3.3135540248,
				"element": "H" 
			},
			{
				"x": -2.1133692553,
				"y": -1.9624709445,
				"z": -2.1700756468,
				"element": "H" 
			},
			{
				"x": 0.0248900087,
				"y": -1.5452802177,
				"z": -0.9319382547,
				"element": "H" 
			},
			{
				"x": 0.3544682171,
				"y": -0.1533772008,
				"z": -1.9481726731,
				"element": "H" 
			},
			{
				"x": 1.7274791891,
				"y": -1.9846982508,
				"z": -2.7092797823,
				"element": "H" 
			},
			{
				"x": 0.5358058058,
				"y": -1.6504884618,
				"z": -3.9529823954,
				"element": "H" 
			},
			{
				"x": -0.8187364964,
				"y": -3.6226070958,
				"z": -3.2076561605,
				"element": "H" 
			},
			{
				"x": 0.30722694,
				"y": -3.9016050615,
				"z": -1.8878653599,
				"element": "H" 
			},
			{
				"x": 2.1387095442,
				"y": -4.3589275023,
				"z": -3.5071641942,
				"element": "H" 
			},
			{
				"x": 1.093098852,
				"y": -3.934968982,
				"z": -4.8489343115,
				"element": "H" 
			},
			{
				"x": 1.3105869133,
				"y": -6.3120311178,
				"z": -4.7682061859,
				"element": "H" 
			},
			{
				"x": -0.353081824,
				"y": -5.9118176102,
				"z": -4.4014914987,
				"element": "H" 
			},
			{
				"x": 1.0119481818,
				"y": -7.7599572733,
				"z": -3.0086521744,
				"element": "H" 
			},
			{
				"x": 1.5900802772,
				"y": -6.381178884,
				"z": -2.0987687242,
				"element": "H" 
			},
			{
				"x": -0.8281031113,
				"y": -5.7795699079,
				"z": -1.5694603338,
				"element": "H" 
			},
			{
				"x": -1.3487644566,
				"y": -7.1681407746,
				"z": -2.5037790354,
				"element": "H" 
			},
			{
				"x": 0.4226731158,
				"y": -7.2940588724,
				"z": -0.0039299842,
				"element": "H" 
			},
			{
				"x": -0.0925913035,
				"y": -8.6860056917,
				"z": -0.9388636694,
				"element": "H" 
			},
			{
				"x": -1.9884946524,
				"y": -6.7624999609,
				"z": 0.5462244459,
				"element": "H" 
			},
			{
				"x": -2.5074658945,
				"y": -8.1652364065,
				"z": -0.3953147409,
				"element": "H" 
			},
			{
				"x": -1.5527116493,
				"y": -8.3925746371,
				"z": 1.0760639682,
				"element": "H" 
			}
		],
		 "valence_orbital": [ 
			{
				"type": "occ",
				"energy": -0.29781,
				"method": "rhf"
			},
			{
				"type": "occ",
				"energy": -0.29482,
				"method": "rhf"
			},
			{
				"type": "occ",
				"energy": -0.29301,
				"method": "rhf"
			},
			{
				"type": "occ",
				"energy": -0.29024,
				"method": "rhf"
			},
			{
				"type": "occ",
				"energy": -0.28412,
				"method": "rhf"
			},
			{
				"type": "unocc",
				"energy": 0.04527,
				"method": "rhf"
			},
			{
				"type": "unocc",
				"energy": 0.06483,
				"method": "rhf"
			},
			{
				"type": "unocc",
				"energy": 0.08284,
				"method": "rhf"
			},
			{
				"type": "unocc",
				"energy": 0.08539,
				"method": "rhf"
			},
			{
				"type": "unocc",
				"energy": 0.08828,
				"method": "rhf"
			}
		],
		"cosmo_sigma_profile": { 
			"-0.025": 0.0,
			"-0.024": 0.0,
			"-0.023": 0.0,
			"-0.022": 0.0,
			"-0.021": 0.0,
			"-0.02": 0.0110006017385,
			"-0.019": 0.734287827272,
			"-0.018": 0.908074009006,
			"-0.017": 0.901702481723,
			"-0.016": 1.21317762075,
			"-0.015": 0.94266575952,
			"-0.014": 0.263257043026,
			"-0.013": 0.713471951385,
			"-0.012": 0.403943686822,
			"-0.011": 1.11944655041,
			"-0.01": 0.835883800334,
			"-0.009": 0.860887665821,
			"-0.008": 0.424941849831,
			"-0.007": 1.16831705673,
			"-0.006": 1.61747707167,
			"-0.005": 5.68495968993,
			"-0.004": 15.2976709153,
			"-0.003": 28.987048286,
			"-0.002": 76.494793636,
			"-0.001": 125.661316451,
			"0.0": 131.690384996,
			"0.001": 103.277496477,
			"0.002": 47.5287903781,
			"0.003": 7.29252557672,
			"0.004": 7.09351116644,
			"0.005": 6.13739850472,
			"0.006": 4.61276274977,
			"0.007": 4.64851544949,
			"0.008": 5.30671126522,
			"0.009": 5.73447294946,
			"0.01": 4.22868878754,
			"0.011": 2.03066432001,
			"0.012": 1.35844799359,
			"0.013": 1.26806427029,
			"0.014": 3.86377246879,
			"0.015": 1.35791269586,
			"0.016": 0.0,
			"0.017": 0.0,
			"0.018": 0.0,
			"0.019": 0.0,
			"0.02": 0.0,
			"0.021": 0.0,
			"0.022": 0.0,
			"0.023": 0.0,
			"0.024": 0.0,
			"0.025": 0.0
		}
	}
}
