{
	 "smiles": "O=C1N(CC2=CC=CC=C2)C(=O)C2=C1C=CC=C2", 
	 "Tm": 389.15, 
	 "num_atms": 29, 
	 "gaussian": { 
		 "optdone": 1, 
		 "sigma_profile": "yes", 
		 "theory": "DFT", 
		 "functional": "B3LYP", 
		 "basiset": "6-31G**", 
		 "properties": { 
			 "R2extent": 5666.8456, 
			 "electric_dipole_moment_norm": 2.41743974072, 
			 "electric_quadrupole_moment_norm": 16.2876295433, 
			 "total_energy": -783.461576892, 
			 "HOMO_LUMO_gap": 0.16329, 
			 "cosmo_polarized_energy": -10.94, 
			 "cosmo_cavitation_energy": 34.08, 
			 "cosmo_dispersion_energy": -24.02, 
			 "cosmo_repulsion_energy": 1.82, 
			 "cosmo_total_nonelectrostatic_energy": 11.87, 
			 "SMD_solvation_energy": 6.52 
		},
		"coords": [
			{
				"x": 2.600027531,
				"y": -1.440202806,
				"z": -1.4524080153,
				"element": "O" 
			},
			{
				"x": 2.5763085281,
				"y": -0.6383831802,
				"z": -0.5384543423,
				"element": "C" 
			},
			{
				"x": 2.0487603742,
				"y": 0.6598665714,
				"z": -0.6120027628,
				"element": "N" 
			},
			{
				"x": 1.4148689294,
				"y": 1.2143031343,
				"z": -1.8091151769,
				"element": "C" 
			},
			{
				"x": -0.0758756495,
				"y": 0.9416992162,
				"z": -1.8792110073,
				"element": "C" 
			},
			{
				"x": -0.554421548,
				"y": -0.2228342625,
				"z": -2.492874339,
				"element": "C" 
			},
			{
				"x": -1.9251497673,
				"y": -0.4790330901,
				"z": -2.5474656243,
				"element": "C" 
			},
			{
				"x": -2.8297174802,
				"y": 0.4259782754,
				"z": -1.988147917,
				"element": "C" 
			},
			{
				"x": -2.3585069705,
				"y": 1.5864289624,
				"z": -1.3705736293,
				"element": "C" 
			},
			{
				"x": -0.9878413939,
				"y": 1.8430434772,
				"z": -1.31570247,
				"element": "C" 
			},
			{
				"x": 2.1602948059,
				"y": 1.3518620755,
				"z": 0.6036833975,
				"element": "C" 
			},
			{
				"x": 1.7790019888,
				"y": 2.4893168305,
				"z": 0.8024961185,
				"element": "O" 
			},
			{
				"x": 2.8359220107,
				"y": 0.4063807895,
				"z": 1.5426752597,
				"element": "C" 
			},
			{
				"x": 3.0852092877,
				"y": -0.785828631,
				"z": 0.8584709203,
				"element": "C" 
			},
			{
				"x": 3.7099527175,
				"y": -1.8594512273,
				"z": 1.4756469523,
				"element": "C" 
			},
			{
				"x": 4.0824018474,
				"y": -1.70398158,
				"z": 2.8178665085,
				"element": "C" 
			},
			{
				"x": 3.8324068771,
				"y": -0.5085805792,
				"z": 3.5039148594,
				"element": "C" 
			},
			{
				"x": 3.2017217484,
				"y": 0.5709524676,
				"z": 2.8704398816,
				"element": "C" 
			},
			{
				"x": 1.9275072242,
				"y": 0.7721562765,
				"z": -2.6666871447,
				"element": "H" 
			},
			{
				"x": 1.6091370023,
				"y": 2.2893697349,
				"z": -1.7954730243,
				"element": "H" 
			},
			{
				"x": 0.1529235115,
				"y": -0.929956528,
				"z": -2.9173797016,
				"element": "H" 
			},
			{
				"x": -2.2864855487,
				"y": -1.3837473251,
				"z": -3.0282750284,
				"element": "H" 
			},
			{
				"x": -3.8969464923,
				"y": 0.2280564729,
				"z": -2.0337635665,
				"element": "H" 
			},
			{
				"x": -3.0579804674,
				"y": 2.2932597152,
				"z": -0.9331116058,
				"element": "H" 
			},
			{
				"x": -0.6171011045,
				"y": 2.7396395615,
				"z": -0.826562879,
				"element": "H" 
			},
			{
				"x": 3.8990393906,
				"y": -2.7806245908,
				"z": 0.9340003154,
				"element": "H" 
			},
			{
				"x": 4.572776615,
				"y": -2.5223990241,
				"z": 3.3364925093,
				"element": "H" 
			},
			{
				"x": 4.132888329,
				"y": -0.4190900267,
				"z": 4.5436013295,
				"element": "H" 
			},
			{
				"x": 3.0034777035,
				"y": 1.5018992899,
				"z": 3.3917201826,
				"element": "H" 
			}
		],
		 "valence_orbital": [ 
			{
				"type": "occ",
				"energy": -0.27738,
				"method": "rhf"
			},
			{
				"type": "occ",
				"energy": -0.26737,
				"method": "rhf"
			},
			{
				"type": "occ",
				"energy": -0.26616,
				"method": "rhf"
			},
			{
				"type": "occ",
				"energy": -0.24769,
				"method": "rhf"
			},
			{
				"type": "occ",
				"energy": -0.24441,
				"method": "rhf"
			},
			{
				"type": "unocc",
				"energy": -0.08112,
				"method": "rhf"
			},
			{
				"type": "unocc",
				"energy": -0.0403,
				"method": "rhf"
			},
			{
				"type": "unocc",
				"energy": -0.00372,
				"method": "rhf"
			},
			{
				"type": "unocc",
				"energy": 0.00037,
				"method": "rhf"
			},
			{
				"type": "unocc",
				"energy": 0.02865,
				"method": "rhf"
			}
		],
		"cosmo_sigma_profile": { 
			"-0.025": 0.0,
			"-0.024": 0.0,
			"-0.023": 0.0,
			"-0.022": 0.0,
			"-0.021": 0.0,
			"-0.02": 0.0,
			"-0.019": 0.0,
			"-0.018": 0.0,
			"-0.017": 0.0,
			"-0.016": 0.0,
			"-0.015": 0.0,
			"-0.014": 0.0,
			"-0.013": 0.0,
			"-0.012": 0.0,
			"-0.011": 0.0,
			"-0.01": 0.0,
			"-0.009": 0.0,
			"-0.008": 1.67629993087,
			"-0.007": 7.90916748756,
			"-0.006": 15.6136631823,
			"-0.005": 22.6051388313,
			"-0.004": 24.9828626573,
			"-0.003": 26.2383759996,
			"-0.002": 17.9058559568,
			"-0.001": 20.1721501366,
			"0.0": 19.8128610534,
			"0.001": 20.2413723565,
			"0.002": 24.5914594865,
			"0.003": 16.1198168333,
			"0.004": 11.6866071867,
			"0.005": 12.6724659182,
			"0.006": 7.42399802948,
			"0.007": 2.70391861378,
			"0.008": 3.59536066034,
			"0.009": 3.20633255641,
			"0.01": 4.39235604178,
			"0.011": 7.68677169937,
			"0.012": 2.82425785872,
			"0.013": 0.00155946526645,
			"0.014": 0.0,
			"0.015": 0.0,
			"0.016": 0.0,
			"0.017": 0.0,
			"0.018": 0.0,
			"0.019": 0.0,
			"0.02": 0.0,
			"0.021": 0.0,
			"0.022": 0.0,
			"0.023": 0.0,
			"0.024": 0.0,
			"0.025": 0.0
		}
	}
}
