{
	 "smiles": "NC1=C(C=CC=C1)C(=O)NC1CCCC1", 
	 "Tm": 448.15, 
	 "num_atms": 31, 
	 "gaussian": { 
		 "optdone": 1, 
		 "sigma_profile": "yes", 
		 "theory": "DFT", 
		 "functional": "B3LYP", 
		 "basiset": "6-31G**", 
		 "properties": { 
			 "R2extent": 3443.6987, 
			 "electric_dipole_moment_norm": 1.96914840731, 
			 "electric_quadrupole_moment_norm": 15.8864461174, 
			 "total_energy": -651.667938505, 
			 "HOMO_LUMO_gap": 0.17237, 
			 "cosmo_polarized_energy": -11.3, 
			 "cosmo_cavitation_energy": 31.46, 
			 "cosmo_dispersion_energy": -22.95, 
			 "cosmo_repulsion_energy": 1.81, 
			 "cosmo_total_nonelectrostatic_energy": 10.32, 
			 "SMD_solvation_energy": 4.52 
		},
		"coords": [
			{
				"x": 1.6105369555,
				"y": -2.1646383055,
				"z": -0.0861893816,
				"element": "N" 
			},
			{
				"x": 0.3439671039,
				"y": -1.694966935,
				"z": -0.3598967006,
				"element": "C" 
			},
			{
				"x": 0.1391715016,
				"y": -0.4158959402,
				"z": -0.9536780461,
				"element": "C" 
			},
			{
				"x": -1.1703841058,
				"y": 0.0004209727,
				"z": -1.236330734,
				"element": "C" 
			},
			{
				"x": -2.2782368779,
				"y": -0.7729591334,
				"z": -0.9064075819,
				"element": "C" 
			},
			{
				"x": -2.0745896076,
				"y": -2.0011749314,
				"z": -0.2676671787,
				"element": "C" 
			},
			{
				"x": -0.7899336095,
				"y": -2.4531997579,
				"z": -0.0001860442,
				"element": "C" 
			},
			{
				"x": 1.3203440191,
				"y": 0.3992199201,
				"z": -1.3626802007,
				"element": "C" 
			},
			{
				"x": 2.3521111747,
				"y": -0.144238608,
				"z": -1.7840202339,
				"element": "O" 
			},
			{
				"x": 1.2796553814,
				"y": 1.7783120813,
				"z": -1.3392338058,
				"element": "N" 
			},
			{
				"x": 0.6138135906,
				"y": 2.7556980336,
				"z": -0.4564945608,
				"element": "C" 
			},
			{
				"x": -0.6780336667,
				"y": 3.4422728392,
				"z": -1.0178912922,
				"element": "C" 
			},
			{
				"x": -1.7009114227,
				"y": 3.4262099329,
				"z": 0.1413124692,
				"element": "C" 
			},
			{
				"x": -0.8384773083,
				"y": 3.2721294178,
				"z": 1.4092549625,
				"element": "C" 
			},
			{
				"x": 0.2510507578,
				"y": 2.2817661871,
				"z": 0.971523151,
				"element": "C" 
			},
			{
				"x": 2.3322999569,
				"y": -1.7727490505,
				"z": -0.6815115461,
				"element": "H" 
			},
			{
				"x": 1.6840194437,
				"y": -3.1538448179,
				"z": 0.0985211974,
				"element": "H" 
			},
			{
				"x": -1.3121424664,
				"y": 0.9430561923,
				"z": -1.7509645277,
				"element": "H" 
			},
			{
				"x": -3.2794751178,
				"y": -0.431431084,
				"z": -1.1479423926,
				"element": "H" 
			},
			{
				"x": -2.9243083965,
				"y": -2.6196668835,
				"z": 0.0087465671,
				"element": "H" 
			},
			{
				"x": -0.6405262917,
				"y": -3.4181130021,
				"z": 0.478363722,
				"element": "H" 
			},
			{
				"x": 2.1524080134,
				"y": 2.1138771121,
				"z": -1.7285212654,
				"element": "H" 
			},
			{
				"x": 1.3644807104,
				"y": 3.5450917938,
				"z": -0.3424309553,
				"element": "H" 
			},
			{
				"x": -0.4451964969,
				"y": 4.4704176145,
				"z": -1.3152992937,
				"element": "H" 
			},
			{
				"x": -1.0415836298,
				"y": 2.9387840249,
				"z": -1.9167302642,
				"element": "H" 
			},
			{
				"x": -2.3601461286,
				"y": 2.5554806334,
				"z": 0.0486762418,
				"element": "H" 
			},
			{
				"x": -2.3374826636,
				"y": 4.3160960315,
				"z": 0.1588731394,
				"element": "H" 
			},
			{
				"x": -1.4078831262,
				"y": 2.9210684294,
				"z": 2.2752688784,
				"element": "H" 
			},
			{
				"x": -0.3904390218,
				"y": 4.2368981667,
				"z": 1.6821241353,
				"element": "H" 
			},
			{
				"x": 1.1270685958,
				"y": 2.2682358476,
				"z": 1.6273729225,
				"element": "H" 
			},
			{
				"x": -0.1616772671,
				"y": 1.2710432185,
				"z": 0.9499386188,
				"element": "H" 
			}
		],
		 "valence_orbital": [ 
			{
				"type": "occ",
				"energy": -0.30565,
				"method": "rhf"
			},
			{
				"type": "occ",
				"energy": -0.25548,
				"method": "rhf"
			},
			{
				"type": "occ",
				"energy": -0.24732,
				"method": "rhf"
			},
			{
				"type": "occ",
				"energy": -0.23649,
				"method": "rhf"
			},
			{
				"type": "occ",
				"energy": -0.19875,
				"method": "rhf"
			},
			{
				"type": "unocc",
				"energy": -0.02638,
				"method": "rhf"
			},
			{
				"type": "unocc",
				"energy": 0.01392,
				"method": "rhf"
			},
			{
				"type": "unocc",
				"energy": 0.05519,
				"method": "rhf"
			},
			{
				"type": "unocc",
				"energy": 0.06638,
				"method": "rhf"
			},
			{
				"type": "unocc",
				"energy": 0.08326,
				"method": "rhf"
			}
		],
		"cosmo_sigma_profile": { 
			"-0.025": 0.0,
			"-0.024": 0.0,
			"-0.023": 0.0,
			"-0.022": 0.0,
			"-0.021": 0.0,
			"-0.02": 0.0,
			"-0.019": 0.0,
			"-0.018": 0.0,
			"-0.017": 0.0,
			"-0.016": 0.0,
			"-0.015": 0.0,
			"-0.014": 0.0,
			"-0.013": 0.771646248305,
			"-0.012": 2.18235322078,
			"-0.011": 2.57201057641,
			"-0.01": 1.92765968675,
			"-0.009": 2.35951652154,
			"-0.008": 3.62368255487,
			"-0.007": 3.56916614586,
			"-0.006": 6.73123540226,
			"-0.005": 10.8054309296,
			"-0.004": 13.4520545959,
			"-0.003": 23.4802691766,
			"-0.002": 22.0117480934,
			"-0.001": 25.3338940222,
			"0.0": 28.2104364396,
			"0.001": 26.5082924644,
			"0.002": 12.0828993805,
			"0.003": 10.6172739903,
			"0.004": 11.7819249419,
			"0.005": 11.2701134984,
			"0.006": 7.61446276133,
			"0.007": 2.84461322657,
			"0.008": 2.00136359804,
			"0.009": 2.83620455577,
			"0.01": 1.78999106248,
			"0.011": 1.53573175166,
			"0.012": 2.80407135851,
			"0.013": 3.98907791043,
			"0.014": 2.02205866359,
			"0.015": 0.202207940068,
			"0.016": 0.0,
			"0.017": 0.0,
			"0.018": 0.0,
			"0.019": 0.0,
			"0.02": 0.0,
			"0.021": 0.0,
			"0.022": 0.0,
			"0.023": 0.0,
			"0.024": 0.0,
			"0.025": 0.0
		}
	}
}
