{
	 "smiles": "CSC1=CC=C(Br)C=C1", 
	 "Tm": 311.65, 
	 "num_atms": 16, 
	 "gaussian": { 
		 "optdone": 1, 
		 "sigma_profile": "yes", 
		 "theory": "DFT", 
		 "functional": "B3LYP", 
		 "basiset": "6-31G**", 
		 "properties": { 
			 "R2extent": 3267.5188, 
			 "electric_dipole_moment_norm": 1.6269262952, 
			 "electric_quadrupole_moment_norm": 9.90089217091, 
			 "total_energy": -3240.55381685, 
			 "HOMO_LUMO_gap": 0.19818, 
			 "cosmo_polarized_energy": -5.19, 
			 "cosmo_cavitation_energy": 23.91, 
			 "cosmo_dispersion_energy": -18.32, 
			 "cosmo_repulsion_energy": 1.46, 
			 "cosmo_total_nonelectrostatic_energy": 7.05, 
			 "SMD_solvation_energy": 3.03 
		},
		"coords": [
			{
				"x": 2.1354961642,
				"y": 2.3874943844,
				"z": -1.9008968746,
				"element": "C" 
			},
			{
				"x": 0.9480267067,
				"y": 3.1403210983,
				"z": -0.7221715338,
				"element": "S" 
			},
			{
				"x": -0.0311676894,
				"y": 1.706159357,
				"z": -0.267777261,
				"element": "C" 
			},
			{
				"x": 0.114648362,
				"y": 1.1343472981,
				"z": 1.0023123857,
				"element": "C" 
			},
			{
				"x": -0.6677267939,
				"y": 0.0439282498,
				"z": 1.3862887482,
				"element": "C" 
			},
			{
				"x": -1.5932274793,
				"y": -0.4784491883,
				"z": 0.485281471,
				"element": "C" 
			},
			{
				"x": -2.6618534615,
				"y": -1.9770224591,
				"z": 0.998677545,
				"element": "Br" 
			},
			{
				"x": -1.7569269961,
				"y": 0.0756091403,
				"z": -0.7843207374,
				"element": "C" 
			},
			{
				"x": -0.9800795,
				"y": 1.173562512,
				"z": -1.1516129135,
				"element": "C" 
			},
			{
				"x": 2.7485076305,
				"y": 1.6302217086,
				"z": -1.408013513,
				"element": "H" 
			},
			{
				"x": 1.6181006086,
				"y": 1.949978665,
				"z": -2.7572456431,
				"element": "H" 
			},
			{
				"x": 2.7778260992,
				"y": 3.1993539189,
				"z": -2.2501974954,
				"element": "H" 
			},
			{
				"x": 0.843845987,
				"y": 1.5446482753,
				"z": 1.6934775922,
				"element": "H" 
			},
			{
				"x": -0.5545810883,
				"y": -0.3963603102,
				"z": 2.3704663345,
				"element": "H" 
			},
			{
				"x": -2.4883433959,
				"y": -0.3371489559,
				"z": -1.469875205,
				"element": "H" 
			},
			{
				"x": -1.1178451539,
				"y": 1.6246563058,
				"z": -2.1294928997,
				"element": "H" 
			}
		],
		 "valence_orbital": [ 
			{
				"type": "occ",
				"energy": -0.30865,
				"method": "rhf"
			},
			{
				"type": "occ",
				"energy": -0.2909,
				"method": "rhf"
			},
			{
				"type": "occ",
				"energy": -0.26978,
				"method": "rhf"
			},
			{
				"type": "occ",
				"energy": -0.25054,
				"method": "rhf"
			},
			{
				"type": "occ",
				"energy": -0.22838,
				"method": "rhf"
			},
			{
				"type": "unocc",
				"energy": -0.0302,
				"method": "rhf"
			},
			{
				"type": "unocc",
				"energy": -0.02017,
				"method": "rhf"
			},
			{
				"type": "unocc",
				"energy": 0.00268,
				"method": "rhf"
			},
			{
				"type": "unocc",
				"energy": 0.04548,
				"method": "rhf"
			},
			{
				"type": "unocc",
				"energy": 0.07237,
				"method": "rhf"
			}
		],
		"cosmo_sigma_profile": { 
			"-0.025": 0.0,
			"-0.024": 0.0,
			"-0.023": 0.0,
			"-0.022": 0.0,
			"-0.021": 0.0,
			"-0.02": 0.0,
			"-0.019": 0.0,
			"-0.018": 0.0,
			"-0.017": 0.0,
			"-0.016": 0.0,
			"-0.015": 0.0,
			"-0.014": 0.0,
			"-0.013": 0.0,
			"-0.012": 0.0,
			"-0.011": 0.0,
			"-0.01": 0.0,
			"-0.009": 0.0,
			"-0.008": 0.437821909876,
			"-0.007": 5.66463414449,
			"-0.006": 10.995253423,
			"-0.005": 13.2278449346,
			"-0.004": 13.3043485329,
			"-0.003": 13.9629747778,
			"-0.002": 14.9259919405,
			"-0.001": 13.7046084751,
			"0.0": 16.2083428687,
			"0.001": 16.0770215446,
			"0.002": 20.6082778215,
			"0.003": 23.1538259049,
			"0.004": 15.0131018364,
			"0.005": 8.10657321483,
			"0.006": 3.08665265762,
			"0.007": 2.97483208569,
			"0.008": 1.83691621844,
			"0.009": 1.63341284284,
			"0.01": 1.52612876816,
			"0.011": 0.0,
			"0.012": 0.0,
			"0.013": 0.0,
			"0.014": 0.0,
			"0.015": 0.0,
			"0.016": 0.0,
			"0.017": 0.0,
			"0.018": 0.0,
			"0.019": 0.0,
			"0.02": 0.0,
			"0.021": 0.0,
			"0.022": 0.0,
			"0.023": 0.0,
			"0.024": 0.0,
			"0.025": 0.0
		}
	}
}
