{
	 "smiles": "OC1=CC(=NC2=CC=CC=C12)C(F)(F)F", 
	 "Tm": 482.65, 
	 "num_atms": 21, 
	 "gaussian": { 
		 "optdone": 1, 
		 "sigma_profile": "yes", 
		 "theory": "DFT", 
		 "functional": "B3LYP", 
		 "basiset": "6-31G**", 
		 "properties": { 
			 "R2extent": 4863.6499, 
			 "electric_dipole_moment_norm": 5.25214400126, 
			 "electric_quadrupole_moment_norm": 11.8653471824, 
			 "total_energy": -814.184505713, 
			 "HOMO_LUMO_gap": 0.17358, 
			 "cosmo_polarized_energy": -11.96, 
			 "cosmo_cavitation_energy": 26.92, 
			 "cosmo_dispersion_energy": -19.71, 
			 "cosmo_repulsion_energy": 1.46, 
			 "cosmo_total_nonelectrostatic_energy": 8.67, 
			 "SMD_solvation_energy": 4.61 
		},
		"coords": [
			{
				"x": 2.0879204226,
				"y": -0.1117980803,
				"z": -1.9864955591,
				"element": "O" 
			},
			{
				"x": 1.2137986678,
				"y": -0.881779891,
				"z": -1.2970334826,
				"element": "C" 
			},
			{
				"x": 1.3676746174,
				"y": -2.2532941209,
				"z": -1.372645531,
				"element": "C" 
			},
			{
				"x": 0.4643698026,
				"y": -3.0629651464,
				"z": -0.65954767,
				"element": "C" 
			},
			{
				"x": -0.5298302685,
				"y": -2.6224292017,
				"z": 0.0849164955,
				"element": "N" 
			},
			{
				"x": -0.6936170216,
				"y": -1.2747877554,
				"z": 0.1688259423,
				"element": "C" 
			},
			{
				"x": -1.7600736585,
				"y": -0.7788080873,
				"z": 0.9667549423,
				"element": "C" 
			},
			{
				"x": -1.9767461612,
				"y": 0.5737830776,
				"z": 1.0906843202,
				"element": "C" 
			},
			{
				"x": -1.1371343778,
				"y": 1.4979723621,
				"z": 0.4223079757,
				"element": "C" 
			},
			{
				"x": -0.0947738605,
				"y": 1.0513488875,
				"z": -0.3586994176,
				"element": "C" 
			},
			{
				"x": 0.1557551889,
				"y": -0.3382528315,
				"z": -0.5072042456,
				"element": "C" 
			},
			{
				"x": 0.5953545023,
				"y": -4.5760549219,
				"z": -0.7140743569,
				"element": "C" 
			},
			{
				"x": 0.7961834753,
				"y": -5.0941211927,
				"z": 0.5119052683,
				"element": "F" 
			},
			{
				"x": 1.6360343511,
				"y": -4.9566895123,
				"z": -1.4912286366,
				"element": "F" 
			},
			{
				"x": -0.5150591834,
				"y": -5.1450107758,
				"z": -1.2192370463,
				"element": "F" 
			},
			{
				"x": 1.8855746919,
				"y": 0.823668176,
				"z": -1.859543558,
				"element": "H" 
			},
			{
				"x": 2.1643575729,
				"y": -2.6807668169,
				"z": -1.9666728945,
				"element": "H" 
			},
			{
				"x": -2.3868110452,
				"y": -1.5094637392,
				"z": 1.4668358669,
				"element": "H" 
			},
			{
				"x": -2.794916169,
				"y": 0.940424036,
				"z": 1.7032516452,
				"element": "H" 
			},
			{
				"x": -1.317468264,
				"y": 2.5633851224,
				"z": 0.5271433006,
				"element": "H" 
			},
			{
				"x": 0.5314067172,
				"y": 1.7877404116,
				"z": -0.8588433591,
				"element": "H" 
			}
		],
		 "valence_orbital": [ 
			{
				"type": "occ",
				"energy": -0.35458,
				"method": "rhf"
			},
			{
				"type": "occ",
				"energy": -0.29234,
				"method": "rhf"
			},
			{
				"type": "occ",
				"energy": -0.27213,
				"method": "rhf"
			},
			{
				"type": "occ",
				"energy": -0.26829,
				"method": "rhf"
			},
			{
				"type": "occ",
				"energy": -0.23686,
				"method": "rhf"
			},
			{
				"type": "unocc",
				"energy": -0.06328,
				"method": "rhf"
			},
			{
				"type": "unocc",
				"energy": -0.03369,
				"method": "rhf"
			},
			{
				"type": "unocc",
				"energy": 0.01102,
				"method": "rhf"
			},
			{
				"type": "unocc",
				"energy": 0.03865,
				"method": "rhf"
			},
			{
				"type": "unocc",
				"energy": 0.07238,
				"method": "rhf"
			}
		],
		"cosmo_sigma_profile": { 
			"-0.025": 0.0,
			"-0.024": 0.0,
			"-0.023": 0.0,
			"-0.022": 0.0,
			"-0.021": 0.0,
			"-0.02": 0.0,
			"-0.019": 0.427034655649,
			"-0.018": 1.14364654417,
			"-0.017": 0.899986829931,
			"-0.016": 1.06321747838,
			"-0.015": 1.2407999091,
			"-0.014": 0.706521639205,
			"-0.013": 0.709326555725,
			"-0.012": 1.85098445403,
			"-0.011": 1.07966184336,
			"-0.01": 0.478830517312,
			"-0.009": 1.27379562667,
			"-0.008": 1.75232501256,
			"-0.007": 5.50378272269,
			"-0.006": 9.4544808302,
			"-0.005": 9.74298691721,
			"-0.004": 8.84357838459,
			"-0.003": 9.55550030185,
			"-0.002": 10.1069650762,
			"-0.001": 14.6513968902,
			"0.0": 16.6740254177,
			"0.001": 20.7843768621,
			"0.002": 30.0875848516,
			"0.003": 37.3289679048,
			"0.004": 9.45689384074,
			"0.005": 4.63004408498,
			"0.006": 3.39985232266,
			"0.007": 3.36001779931,
			"0.008": 3.95081106004,
			"0.009": 2.80929535232,
			"0.01": 1.44662939107,
			"0.011": 0.866504942651,
			"0.012": 0.860676601995,
			"0.013": 0.794562396351,
			"0.014": 0.23878153779,
			"0.015": 0.0,
			"0.016": 0.0,
			"0.017": 0.0,
			"0.018": 0.0,
			"0.019": 0.0,
			"0.02": 0.0,
			"0.021": 0.0,
			"0.022": 0.0,
			"0.023": 0.0,
			"0.024": 0.0,
			"0.025": 0.0
		}
	}
}
