{
	 "smiles": "OC(=O)C1(CCCC1)C1=CC2=C(OCCO2)C=C1", 
	 "Tm": 439.15, 
	 "num_atms": 34, 
	 "gaussian": { 
		 "optdone": 1, 
		 "sigma_profile": "yes", 
		 "theory": "DFT", 
		 "functional": "B3LYP", 
		 "basiset": "6-31G**", 
		 "properties": { 
			 "R2extent": 5086.2971, 
			 "electric_dipole_moment_norm": 6.34518514308, 
			 "electric_quadrupole_moment_norm": 15.6239459782, 
			 "total_energy": -844.022627768, 
			 "HOMO_LUMO_gap": 0.20711, 
			 "cosmo_polarized_energy": -14.57, 
			 "cosmo_cavitation_energy": 34.68, 
			 "cosmo_dispersion_energy": -25.38, 
			 "cosmo_repulsion_energy": 1.96, 
			 "cosmo_total_nonelectrostatic_energy": 11.26, 
			 "SMD_solvation_energy": 6.67 
		},
		"coords": [
			{
				"x": 2.054527464,
				"y": -1.0934818489,
				"z": 2.7414671696,
				"element": "O" 
			},
			{
				"x": 2.672419442,
				"y": -1.0062432488,
				"z": 1.5419331011,
				"element": "C" 
			},
			{
				"x": 3.8517010247,
				"y": -1.2549473564,
				"z": 1.4484868954,
				"element": "O" 
			},
			{
				"x": 1.795982075,
				"y": -0.6473795322,
				"z": 0.3158017734,
				"element": "C" 
			},
			{
				"x": 2.5783960187,
				"y": 0.282333886,
				"z": -0.6551687216,
				"element": "C" 
			},
			{
				"x": 1.9077083775,
				"y": 0.0632483047,
				"z": -2.0240118508,
				"element": "C" 
			},
			{
				"x": 1.4163365228,
				"y": -1.4120113967,
				"z": -2.0115622941,
				"element": "C" 
			},
			{
				"x": 1.6693984347,
				"y": -1.9219681301,
				"z": -0.5714712346,
				"element": "C" 
			},
			{
				"x": 0.4561089204,
				"y": -0.0171413347,
				"z": 0.7200113045,
				"element": "C" 
			},
			{
				"x": -0.7824510567,
				"y": -0.6051860569,
				"z": 0.4348323303,
				"element": "C" 
			},
			{
				"x": -1.9812745238,
				"y": 0.0072622318,
				"z": 0.8057391809,
				"element": "C" 
			},
			{
				"x": -1.9651849886,
				"y": 1.2406158368,
				"z": 1.4756066108,
				"element": "C" 
			},
			{
				"x": -3.11818008,
				"y": 1.8858962828,
				"z": 1.842004183,
				"element": "O" 
			},
			{
				"x": -4.2885795566,
				"y": 1.3894912543,
				"z": 1.1896974988,
				"element": "C" 
			},
			{
				"x": -4.2906609049,
				"y": -0.1306459121,
				"z": 1.2015820032,
				"element": "C" 
			},
			{
				"x": -3.1556800445,
				"y": -0.6310395033,
				"z": 0.4926677899,
				"element": "O" 
			},
			{
				"x": -0.7383617009,
				"y": 1.8284628752,
				"z": 1.7869002233,
				"element": "C" 
			},
			{
				"x": 0.4515066745,
				"y": 1.2096917639,
				"z": 1.4163837476,
				"element": "C" 
			},
			{
				"x": 1.1278518219,
				"y": -0.820541749,
				"z": 2.6400729312,
				"element": "H" 
			},
			{
				"x": 3.6177515525,
				"y": -0.057974738,
				"z": -0.6663057957,
				"element": "H" 
			},
			{
				"x": 2.5732655541,
				"y": 1.3291267552,
				"z": -0.3390733458,
				"element": "H" 
			},
			{
				"x": 1.0574666092,
				"y": 0.7432686542,
				"z": -2.1397523143,
				"element": "H" 
			},
			{
				"x": 2.596518252,
				"y": 0.2703658067,
				"z": -2.8483815308,
				"element": "H" 
			},
			{
				"x": 0.3558551131,
				"y": -1.4689616154,
				"z": -2.2751042335,
				"element": "H" 
			},
			{
				"x": 1.9541540559,
				"y": -2.0305652157,
				"z": -2.7363409642,
				"element": "H" 
			},
			{
				"x": 0.9149942725,
				"y": -2.6281499529,
				"z": -0.2131623693,
				"element": "H" 
			},
			{
				"x": 2.6331621151,
				"y": -2.4360213923,
				"z": -0.5224993849,
				"element": "H" 
			},
			{
				"x": -0.8585982519,
				"y": -1.552600886,
				"z": -0.0853439402,
				"element": "H" 
			},
			{
				"x": -5.1435165462,
				"y": 1.7926247667,
				"z": 1.7379873885,
				"element": "H" 
			},
			{
				"x": -4.3213846016,
				"y": 1.7558472917,
				"z": 0.1547284786,
				"element": "H" 
			},
			{
				"x": -4.2745768702,
				"y": -0.49683516,
				"z": 2.2371187454,
				"element": "H" 
			},
			{
				"x": -5.1729236378,
				"y": -0.530743764,
				"z": 0.6959998457,
				"element": "H" 
			},
			{
				"x": -0.7398255736,
				"y": 2.7774500951,
				"z": 2.3133658716,
				"element": "H" 
			},
			{
				"x": 1.392194037,
				"y": 1.6903529883,
				"z": 1.6684909069,
				"element": "H" 
			}
		],
		 "valence_orbital": [ 
			{
				"type": "occ",
				"energy": -0.31461,
				"method": "rhf"
			},
			{
				"type": "occ",
				"energy": -0.29863,
				"method": "rhf"
			},
			{
				"type": "occ",
				"energy": -0.26279,
				"method": "rhf"
			},
			{
				"type": "occ",
				"energy": -0.24677,
				"method": "rhf"
			},
			{
				"type": "occ",
				"energy": -0.22101,
				"method": "rhf"
			},
			{
				"type": "unocc",
				"energy": -0.0139,
				"method": "rhf"
			},
			{
				"type": "unocc",
				"energy": -0.00671,
				"method": "rhf"
			},
			{
				"type": "unocc",
				"energy": 0.01774,
				"method": "rhf"
			},
			{
				"type": "unocc",
				"energy": 0.0707,
				"method": "rhf"
			},
			{
				"type": "unocc",
				"energy": 0.08481,
				"method": "rhf"
			}
		],
		"cosmo_sigma_profile": { 
			"-0.025": 0.0,
			"-0.024": 0.0,
			"-0.023": 0.0,
			"-0.022": 0.0,
			"-0.021": 0.0,
			"-0.02": 0.0,
			"-0.019": 0.0,
			"-0.018": 0.0,
			"-0.017": 0.0,
			"-0.016": 0.0,
			"-0.015": 0.0,
			"-0.014": 0.159427536112,
			"-0.013": 0.478904657684,
			"-0.012": 0.264419450904,
			"-0.011": 1.16926976317,
			"-0.01": 0.442071470048,
			"-0.009": 0.974637842765,
			"-0.008": 1.54063429171,
			"-0.007": 10.0248612165,
			"-0.006": 19.678015469,
			"-0.005": 20.1279247217,
			"-0.004": 17.2524946439,
			"-0.003": 20.527700031,
			"-0.002": 27.1134100965,
			"-0.001": 25.8660776411,
			"0.0": 22.95235242,
			"0.001": 20.0479815192,
			"0.002": 13.2879814335,
			"0.003": 13.4278797892,
			"0.004": 9.20675981277,
			"0.005": 6.74341074068,
			"0.006": 4.97094853722,
			"0.007": 4.31031589406,
			"0.008": 6.57705896411,
			"0.009": 4.82490849777,
			"0.01": 7.46215202504,
			"0.011": 4.93132900283,
			"0.012": 5.40773119522,
			"0.013": 2.57196290061,
			"0.014": 0.349576244749,
			"0.015": 0.0,
			"0.016": 0.0,
			"0.017": 0.0,
			"0.018": 0.0,
			"0.019": 0.0,
			"0.02": 0.0,
			"0.021": 0.0,
			"0.022": 0.0,
			"0.023": 0.0,
			"0.024": 0.0,
			"0.025": 0.0
		}
	}
}
