{
	 "smiles": "CC1=CC=C(NN=C2C(=O)OC(C)(C)OC2=O)C=C1", 
	 "Tm": 403.15, 
	 "num_atms": 33, 
	 "gaussian": { 
		 "optdone": 1, 
		 "sigma_profile": "yes", 
		 "theory": "DFT", 
		 "functional": "B3LYP", 
		 "basiset": "6-31G**", 
		 "properties": { 
			 "R2extent": 8016.3201, 
			 "electric_dipole_moment_norm": 3.09114121968, 
			 "electric_quadrupole_moment_norm": 25.5378154034, 
			 "total_energy": -914.223231058, 
			 "HOMO_LUMO_gap": 0.13802, 
			 "cosmo_polarized_energy": -15.97, 
			 "cosmo_cavitation_energy": 37.51, 
			 "cosmo_dispersion_energy": -26.99, 
			 "cosmo_repulsion_energy": 2.08, 
			 "cosmo_total_nonelectrostatic_energy": 12.59, 
			 "SMD_solvation_energy": 7.85 
		},
		"coords": [
			{
				"x": 3.6496577891,
				"y": 4.7590640448,
				"z": 0.3687815621,
				"element": "C" 
			},
			{
				"x": 3.0055511966,
				"y": 3.4095442396,
				"z": 0.1604530457,
				"element": "C" 
			},
			{
				"x": 3.4435559703,
				"y": 2.5401289505,
				"z": -0.845009998,
				"element": "C" 
			},
			{
				"x": 2.8388597938,
				"y": 1.3002432915,
				"z": -1.0444183648,
				"element": "C" 
			},
			{
				"x": 1.7735960125,
				"y": 0.9108586163,
				"z": -0.2271593824,
				"element": "C" 
			},
			{
				"x": 1.1878197265,
				"y": -0.3492621533,
				"z": -0.4583629126,
				"element": "N" 
			},
			{
				"x": 0.196587651,
				"y": -0.7743019144,
				"z": 0.2630745357,
				"element": "N" 
			},
			{
				"x": -0.3382394222,
				"y": -1.96393935,
				"z": 0.0491214239,
				"element": "C" 
			},
			{
				"x": 0.1220816895,
				"y": -2.8820340041,
				"z": -0.9967312067,
				"element": "C" 
			},
			{
				"x": 0.9821583944,
				"y": -2.5993591052,
				"z": -1.8243294312,
				"element": "O" 
			},
			{
				"x": -0.4692423445,
				"y": -4.0975045193,
				"z": -1.0526859287,
				"element": "O" 
			},
			{
				"x": -1.2025446042,
				"y": -4.572388907,
				"z": 0.1020688823,
				"element": "C" 
			},
			{
				"x": -2.134811062,
				"y": -5.6515299421,
				"z": -0.4190130157,
				"element": "C" 
			},
			{
				"x": -0.2138415093,
				"y": -5.0767568747,
				"z": 1.1524798949,
				"element": "C" 
			},
			{
				"x": -2.0346351144,
				"y": -3.552345789,
				"z": 0.6503044049,
				"element": "O" 
			},
			{
				"x": -1.5231337357,
				"y": -2.2920329441,
				"z": 0.8726970828,
				"element": "C" 
			},
			{
				"x": -2.0862779656,
				"y": -1.5502667616,
				"z": 1.6370940533,
				"element": "O" 
			},
			{
				"x": 1.3162390318,
				"y": 1.7613705274,
				"z": 0.7880973953,
				"element": "C" 
			},
			{
				"x": 1.9341734272,
				"y": 2.9926560188,
				"z": 0.9686768786,
				"element": "C" 
			},
			{
				"x": 2.9678397635,
				"y": 5.5722873765,
				"z": 0.0919180145,
				"element": "H" 
			},
			{
				"x": 4.5553064305,
				"y": 4.8673560294,
				"z": -0.2341558024,
				"element": "H" 
			},
			{
				"x": 3.9233930723,
				"y": 4.9136243921,
				"z": 1.418207029,
				"element": "H" 
			},
			{
				"x": 4.2715887184,
				"y": 2.8336245619,
				"z": -1.4844958585,
				"element": "H" 
			},
			{
				"x": 3.193469902,
				"y": 0.6374747536,
				"z": -1.8294964876,
				"element": "H" 
			},
			{
				"x": 1.5201767672,
				"y": -0.9527349509,
				"z": -1.2219572617,
				"element": "H" 
			},
			{
				"x": -2.8070982779,
				"y": -5.223503272,
				"z": -1.1653369638,
				"element": "H" 
			},
			{
				"x": -1.5563177466,
				"y": -6.4567647325,
				"z": -0.8773121714,
				"element": "H" 
			},
			{
				"x": -2.7278148034,
				"y": -6.0558078724,
				"z": 0.4042276751,
				"element": "H" 
			},
			{
				"x": 0.439111378,
				"y": -4.2694301264,
				"z": 1.4957765686,
				"element": "H" 
			},
			{
				"x": -0.7613736299,
				"y": -5.4665957756,
				"z": 2.0138330336,
				"element": "H" 
			},
			{
				"x": 0.406360104,
				"y": -5.8716288957,
				"z": 0.7313232918,
				"element": "H" 
			},
			{
				"x": 0.4895918618,
				"y": 1.4464949798,
				"z": 1.4141042373,
				"element": "H" 
			},
			{
				"x": 1.5763115353,
				"y": 3.648860108,
				"z": 1.7581257763,
				"element": "H" 
			}
		],
		 "valence_orbital": [ 
			{
				"type": "occ",
				"energy": -0.28932,
				"method": "rhf"
			},
			{
				"type": "occ",
				"energy": -0.2823,
				"method": "rhf"
			},
			{
				"type": "occ",
				"energy": -0.26763,
				"method": "rhf"
			},
			{
				"type": "occ",
				"energy": -0.26385,
				"method": "rhf"
			},
			{
				"type": "occ",
				"energy": -0.2227,
				"method": "rhf"
			},
			{
				"type": "unocc",
				"energy": -0.08468,
				"method": "rhf"
			},
			{
				"type": "unocc",
				"energy": -0.01471,
				"method": "rhf"
			},
			{
				"type": "unocc",
				"energy": -0.00523,
				"method": "rhf"
			},
			{
				"type": "unocc",
				"energy": 0.00925,
				"method": "rhf"
			},
			{
				"type": "unocc",
				"energy": 0.08816,
				"method": "rhf"
			}
		],
		"cosmo_sigma_profile": { 
			"-0.025": 0.0,
			"-0.024": 0.0,
			"-0.023": 0.0,
			"-0.022": 0.0,
			"-0.021": 0.0,
			"-0.02": 0.0,
			"-0.019": 0.0,
			"-0.018": 0.0,
			"-0.017": 0.0,
			"-0.016": 0.0,
			"-0.015": 0.0,
			"-0.014": 0.0,
			"-0.013": 0.133382821064,
			"-0.012": 0.781100712017,
			"-0.011": 1.06450508566,
			"-0.01": 0.99857816214,
			"-0.009": 1.52540564117,
			"-0.008": 1.67394585168,
			"-0.007": 2.98257754001,
			"-0.006": 18.8349941463,
			"-0.005": 27.1379611841,
			"-0.004": 29.4128356106,
			"-0.003": 26.0369013741,
			"-0.002": 29.7392868223,
			"-0.001": 27.854352736,
			"0.0": 21.7031699447,
			"0.001": 14.7473929596,
			"0.002": 12.2223583722,
			"0.003": 13.6206941426,
			"0.004": 15.6936794824,
			"0.005": 7.31334192067,
			"0.006": 5.06451834096,
			"0.007": 4.25480786019,
			"0.008": 5.37181201084,
			"0.009": 6.27032788644,
			"0.01": 6.14254718553,
			"0.011": 7.78067286695,
			"0.012": 7.24128818274,
			"0.013": 2.7272517408,
			"0.014": 0.0478962393013,
			"0.015": 0.0,
			"0.016": 0.0,
			"0.017": 0.0,
			"0.018": 0.0,
			"0.019": 0.0,
			"0.02": 0.0,
			"0.021": 0.0,
			"0.022": 0.0,
			"0.023": 0.0,
			"0.024": 0.0,
			"0.025": 0.0
		}
	}
}
