{
	 "smiles": "ClCC(=O)N1CCCCCCC1", 
	 "Tm": 340.15, 
	 "num_atms": 28, 
	 "gaussian": { 
		 "optdone": 1, 
		 "sigma_profile": "yes", 
		 "theory": "DFT", 
		 "functional": "B3LYP", 
		 "basiset": "6-31G**", 
		 "properties": { 
			 "R2extent": 3733.0733, 
			 "electric_dipole_moment_norm": 5.30214903223, 
			 "electric_quadrupole_moment_norm": 18.2320251752, 
			 "total_energy": -942.775401813, 
			 "HOMO_LUMO_gap": 0.25714, 
			 "cosmo_polarized_energy": -13.37, 
			 "cosmo_cavitation_energy": 28.87, 
			 "cosmo_dispersion_energy": -21.43, 
			 "cosmo_repulsion_energy": 1.72, 
			 "cosmo_total_nonelectrostatic_energy": 9.16, 
			 "SMD_solvation_energy": 4.18 
		},
		"coords": [
			{
				"x": 1.6410144928,
				"y": 4.8681464408,
				"z": 1.080933107,
				"element": "Cl" 
			},
			{
				"x": 0.616017866,
				"y": 3.4077106603,
				"z": 0.9221943602,
				"element": "C" 
			},
			{
				"x": 1.4488271263,
				"y": 2.1392922918,
				"z": 0.6421062364,
				"element": "C" 
			},
			{
				"x": 2.6615284133,
				"y": 2.196129026,
				"z": 0.5081992068,
				"element": "O" 
			},
			{
				"x": 0.7368351446,
				"y": 0.962535221,
				"z": 0.5487576655,
				"element": "N" 
			},
			{
				"x": 1.5145232919,
				"y": -0.2765167555,
				"z": 0.401614664,
				"element": "C" 
			},
			{
				"x": 1.37327212,
				"y": -1.0297469386,
				"z": -0.9424650257,
				"element": "C" 
			},
			{
				"x": 1.2114917206,
				"y": -0.178535353,
				"z": -2.2148858184,
				"element": "C" 
			},
			{
				"x": -0.0010010927,
				"y": 0.7786632127,
				"z": -2.2917339372,
				"element": "C" 
			},
			{
				"x": -1.3530100567,
				"y": 0.2868658176,
				"z": -1.7341918727,
				"element": "C" 
			},
			{
				"x": -1.4406634808,
				"y": -0.0695069419,
				"z": -0.230921309,
				"element": "C" 
			},
			{
				"x": -0.7130367798,
				"y": 0.8639111584,
				"z": 0.7507048751,
				"element": "C" 
			},
			{
				"x": 0.0507948336,
				"y": 3.3106098893,
				"z": 1.8510572704,
				"element": "H" 
			},
			{
				"x": -0.0869505162,
				"y": 3.6014068641,
				"z": 0.1087264683,
				"element": "H" 
			},
			{
				"x": 2.5530659878,
				"y": 0.0217151282,
				"z": 0.5423810909,
				"element": "H" 
			},
			{
				"x": 1.2463116165,
				"y": -0.9526493995,
				"z": 1.2254518311,
				"element": "H" 
			},
			{
				"x": 2.2797526049,
				"y": -1.6382542474,
				"z": -1.0537896837,
				"element": "H" 
			},
			{
				"x": 0.5518806085,
				"y": -1.7507422771,
				"z": -0.8924269758,
				"element": "H" 
			},
			{
				"x": 2.1208767383,
				"y": 0.4141039925,
				"z": -2.3734134382,
				"element": "H" 
			},
			{
				"x": 1.1581828374,
				"y": -0.8809043629,
				"z": -3.0569854286,
				"element": "H" 
			},
			{
				"x": 0.2533732218,
				"y": 1.7277545525,
				"z": -1.8132568883,
				"element": "H" 
			},
			{
				"x": -0.1591476981,
				"y": 1.0255467129,
				"z": -3.3495602689,
				"element": "H" 
			},
			{
				"x": -2.0886628807,
				"y": 1.0752659894,
				"z": -1.9424363057,
				"element": "H" 
			},
			{
				"x": -1.690638533,
				"y": -0.5879166049,
				"z": -2.3057809829,
				"element": "H" 
			},
			{
				"x": -1.1092478858,
				"y": -1.0956365153,
				"z": -0.0565109862,
				"element": "H" 
			},
			{
				"x": -2.4978463246,
				"y": -0.0590881594,
				"z": 0.0636796445,
				"element": "H" 
			},
			{
				"x": -1.1506293926,
				"y": 1.8601109185,
				"z": 0.6682225513,
				"element": "H" 
			},
			{
				"x": -0.9193139837,
				"y": 0.5120296796,
				"z": 1.7739299496,
				"element": "H" 
			}
		],
		 "valence_orbital": [ 
			{
				"type": "occ",
				"energy": -0.30991,
				"method": "rhf"
			},
			{
				"type": "occ",
				"energy": -0.29261,
				"method": "rhf"
			},
			{
				"type": "occ",
				"energy": -0.2917,
				"method": "rhf"
			},
			{
				"type": "occ",
				"energy": -0.25436,
				"method": "rhf"
			},
			{
				"type": "occ",
				"energy": -0.23919,
				"method": "rhf"
			},
			{
				"type": "unocc",
				"energy": 0.01795,
				"method": "rhf"
			},
			{
				"type": "unocc",
				"energy": 0.02722,
				"method": "rhf"
			},
			{
				"type": "unocc",
				"energy": 0.06148,
				"method": "rhf"
			},
			{
				"type": "unocc",
				"energy": 0.08423,
				"method": "rhf"
			},
			{
				"type": "unocc",
				"energy": 0.09936,
				"method": "rhf"
			}
		],
		"cosmo_sigma_profile": { 
			"-0.025": 0.0,
			"-0.024": 0.0,
			"-0.023": 0.0,
			"-0.022": 0.0,
			"-0.021": 0.0,
			"-0.02": 0.0,
			"-0.019": 0.0,
			"-0.018": 0.0,
			"-0.017": 0.0,
			"-0.016": 0.0,
			"-0.015": 0.0,
			"-0.014": 0.0,
			"-0.013": 0.0,
			"-0.012": 0.0,
			"-0.011": 0.0,
			"-0.01": 0.00432781366014,
			"-0.009": 2.27207582291,
			"-0.008": 6.67627718197,
			"-0.007": 6.76701326065,
			"-0.006": 4.80425943752,
			"-0.005": 5.1384752603,
			"-0.004": 17.2059328114,
			"-0.003": 22.3649180466,
			"-0.002": 28.8216175781,
			"-0.001": 30.33180587,
			"0.0": 30.0847131809,
			"0.001": 17.360583014,
			"0.002": 6.13016937217,
			"0.003": 4.80384757968,
			"0.004": 4.83993261994,
			"0.005": 7.1523077267,
			"0.006": 8.90560218115,
			"0.007": 3.49047123249,
			"0.008": 2.27244256669,
			"0.009": 1.659752704,
			"0.01": 1.64884209734,
			"0.011": 1.9893369397,
			"0.012": 2.43810363047,
			"0.013": 3.62020717666,
			"0.014": 3.78828667012,
			"0.015": 1.41933496478,
			"0.016": 0.0233614550012,
			"0.017": 0.0,
			"0.018": 0.0,
			"0.019": 0.0,
			"0.02": 0.0,
			"0.021": 0.0,
			"0.022": 0.0,
			"0.023": 0.0,
			"0.024": 0.0,
			"0.025": 0.0
		}
	}
}
