{
	 "smiles": "COC1=C(Br)C=NC(Cl)=N1", 
	 "Tm": 350.15, 
	 "num_atms": 14, 
	 "gaussian": { 
		 "optdone": 1, 
		 "sigma_profile": "yes", 
		 "theory": "DFT", 
		 "functional": "B3LYP", 
		 "basiset": "6-31G**", 
		 "properties": { 
			 "R2extent": 2899.3683, 
			 "electric_dipole_moment_norm": 2.52288554834, 
			 "electric_quadrupole_moment_norm": 8.63224655058, 
			 "total_energy": -3409.25175412, 
			 "HOMO_LUMO_gap": 0.20428, 
			 "cosmo_polarized_energy": -6.89, 
			 "cosmo_cavitation_energy": 23.12, 
			 "cosmo_dispersion_energy": -17.78, 
			 "cosmo_repulsion_energy": 1.47, 
			 "cosmo_total_nonelectrostatic_energy": 6.81, 
			 "SMD_solvation_energy": 1.28 
		},
		"coords": [
			{
				"x": -2.125223341,
				"y": 0.7307705433,
				"z": -2.1324470258,
				"element": "C" 
			},
			{
				"x": -1.1512379744,
				"y": -0.2331395404,
				"z": -1.6945649569,
				"element": "O" 
			},
			{
				"x": -0.8235165973,
				"y": -0.2366304919,
				"z": -0.4054268024,
				"element": "C" 
			},
			{
				"x": 0.1296874806,
				"y": -1.170709384,
				"z": 0.0573941013,
				"element": "C" 
			},
			{
				"x": 0.9524290145,
				"y": -2.4161883346,
				"z": -1.1033316194,
				"element": "Br" 
			},
			{
				"x": 0.4328113869,
				"y": -1.1294089754,
				"z": 1.4074728033,
				"element": "C" 
			},
			{
				"x": -0.1373410842,
				"y": -0.2544750643,
				"z": 2.2553608675,
				"element": "N" 
			},
			{
				"x": -1.0124837421,
				"y": 0.5671485503,
				"z": 1.7033063764,
				"element": "C" 
			},
			{
				"x": -1.7766741749,
				"y": 1.7213580459,
				"z": 2.7755643636,
				"element": "Cl" 
			},
			{
				"x": -1.391006447,
				"y": 0.6317642289,
				"z": 0.4300968199,
				"element": "N" 
			},
			{
				"x": -1.7743478043,
				"y": 1.7479517718,
				"z": -1.9432567304,
				"element": "H" 
			},
			{
				"x": -3.076253995,
				"y": 0.5810419299,
				"z": -1.6160171584,
				"element": "H" 
			},
			{
				"x": -2.2348446887,
				"y": 0.5532243373,
				"z": -3.2016151738,
				"element": "H" 
			},
			{
				"x": 1.1578019668,
				"y": -1.8202076169,
				"z": 1.8290641351,
				"element": "H" 
			}
		],
		 "valence_orbital": [ 
			{
				"type": "occ",
				"energy": -0.32225,
				"method": "rhf"
			},
			{
				"type": "occ",
				"energy": -0.30988,
				"method": "rhf"
			},
			{
				"type": "occ",
				"energy": -0.30733,
				"method": "rhf"
			},
			{
				"type": "occ",
				"energy": -0.27664,
				"method": "rhf"
			},
			{
				"type": "occ",
				"energy": -0.25695,
				"method": "rhf"
			},
			{
				"type": "unocc",
				"energy": -0.05267,
				"method": "rhf"
			},
			{
				"type": "unocc",
				"energy": -0.0397,
				"method": "rhf"
			},
			{
				"type": "unocc",
				"energy": -0.00665,
				"method": "rhf"
			},
			{
				"type": "unocc",
				"energy": 0.03275,
				"method": "rhf"
			},
			{
				"type": "unocc",
				"energy": 0.10074,
				"method": "rhf"
			}
		],
		"cosmo_sigma_profile": { 
			"-0.025": 0.0,
			"-0.024": 0.0,
			"-0.023": 0.0,
			"-0.022": 0.0,
			"-0.021": 0.0,
			"-0.02": 0.0,
			"-0.019": 0.0,
			"-0.018": 0.0,
			"-0.017": 0.0,
			"-0.016": 0.0,
			"-0.015": 0.0,
			"-0.014": 0.0,
			"-0.013": 0.0,
			"-0.012": 0.0,
			"-0.011": 0.0,
			"-0.01": 0.202604731662,
			"-0.009": 1.77921313007,
			"-0.008": 1.84039546808,
			"-0.007": 4.52850812915,
			"-0.006": 9.5418023643,
			"-0.005": 13.2577838447,
			"-0.004": 16.5315217988,
			"-0.003": 16.3768135018,
			"-0.002": 16.5517618473,
			"-0.001": 12.2073161804,
			"0.0": 11.619899783,
			"0.001": 12.7563850698,
			"0.002": 13.4526207584,
			"0.003": 19.6059491251,
			"0.004": 15.2347526853,
			"0.005": 6.73590001511,
			"0.006": 5.50567877547,
			"0.007": 4.53699206755,
			"0.008": 3.44081827383,
			"0.009": 2.49517083947,
			"0.01": 0.910265968681,
			"0.011": 0.932898475352,
			"0.012": 0.778863585026,
			"0.013": 0.9549326667,
			"0.014": 0.0657547458817,
			"0.015": 0.0,
			"0.016": 0.0,
			"0.017": 0.0,
			"0.018": 0.0,
			"0.019": 0.0,
			"0.02": 0.0,
			"0.021": 0.0,
			"0.022": 0.0,
			"0.023": 0.0,
			"0.024": 0.0,
			"0.025": 0.0
		}
	}
}
