{
	 "smiles": "CCOC(=O)C1=CC(C)=NC(Cl)=C1", 
	 "Tm": 339.15, 
	 "num_atms": 23, 
	 "gaussian": { 
		 "optdone": 1, 
		 "sigma_profile": "yes", 
		 "theory": "DFT", 
		 "functional": "B3LYP", 
		 "basiset": "6-31G**", 
		 "properties": { 
			 "R2extent": 3881.0123, 
			 "electric_dipole_moment_norm": 2.63195291371, 
			 "electric_quadrupole_moment_norm": 14.3924762286, 
			 "total_energy": -1014.40032875, 
			 "HOMO_LUMO_gap": 0.18858, 
			 "cosmo_polarized_energy": -8.52, 
			 "cosmo_cavitation_energy": 29.63, 
			 "cosmo_dispersion_energy": -21.55, 
			 "cosmo_repulsion_energy": 1.75, 
			 "cosmo_total_nonelectrostatic_energy": 9.83, 
			 "SMD_solvation_energy": 4.76 
		},
		"coords": [
			{
				"x": 4.0074328294,
				"y": 0.7731883622,
				"z": 1.3213194103,
				"element": "C" 
			},
			{
				"x": 3.1554821571,
				"y": -0.4596568153,
				"z": 1.0932984227,
				"element": "C" 
			},
			{
				"x": 1.7871824892,
				"y": -0.0167249487,
				"z": 0.9149428815,
				"element": "O" 
			},
			{
				"x": 0.879408716,
				"y": -0.9855933094,
				"z": 0.698269645,
				"element": "C" 
			},
			{
				"x": 1.1472909445,
				"y": -2.169295199,
				"z": 0.6474186053,
				"element": "O" 
			},
			{
				"x": -0.5052926797,
				"y": -0.4379493201,
				"z": 0.5252755975,
				"element": "C" 
			},
			{
				"x": -1.5480830242,
				"y": -1.3360599088,
				"z": 0.2923941076,
				"element": "C" 
			},
			{
				"x": -2.8478175722,
				"y": -0.8442806316,
				"z": 0.1283109547,
				"element": "C" 
			},
			{
				"x": -4.0135805189,
				"y": -1.7657120025,
				"z": -0.1256712856,
				"element": "C" 
			},
			{
				"x": -3.1140094839,
				"y": 0.4732753439,
				"z": 0.1900952876,
				"element": "N" 
			},
			{
				"x": -2.1122472685,
				"y": 1.3044950023,
				"z": 0.411387005,
				"element": "C" 
			},
			{
				"x": -2.5154193345,
				"y": 3.0214636,
				"z": 0.4832140395,
				"element": "Cl" 
			},
			{
				"x": -0.7816192225,
				"y": 0.9305315785,
				"z": 0.5894201525,
				"element": "C" 
			},
			{
				"x": 5.0521634846,
				"y": 0.4787132656,
				"z": 1.460909893,
				"element": "H" 
			},
			{
				"x": 3.6815386442,
				"y": 1.3153145559,
				"z": 2.2134541435,
				"element": "H" 
			},
			{
				"x": 3.9534069687,
				"y": 1.4508662676,
				"z": 0.4646733035,
				"element": "H" 
			},
			{
				"x": 3.4603702727,
				"y": -1.0161646355,
				"z": 0.2016361135,
				"element": "H" 
			},
			{
				"x": 3.1899972989,
				"y": -1.1510112922,
				"z": 1.9409822671,
				"element": "H" 
			},
			{
				"x": -1.3338263014,
				"y": -2.3978600337,
				"z": 0.2426247472,
				"element": "H" 
			},
			{
				"x": -3.8633125399,
				"y": -2.3459616904,
				"z": -1.0427975933,
				"element": "H" 
			},
			{
				"x": -4.134218636,
				"y": -2.4821036918,
				"z": 0.6944636898,
				"element": "H" 
			},
			{
				"x": -4.9301359833,
				"y": -1.1826659686,
				"z": -0.222905241,
				"element": "H" 
			},
			{
				"x": -0.0038112402,
				"y": 1.6600914715,
				"z": 0.7677838532,
				"element": "H" 
			}
		],
		 "valence_orbital": [ 
			{
				"type": "occ",
				"energy": -0.31327,
				"method": "rhf"
			},
			{
				"type": "occ",
				"energy": -0.29823,
				"method": "rhf"
			},
			{
				"type": "occ",
				"energy": -0.28825,
				"method": "rhf"
			},
			{
				"type": "occ",
				"energy": -0.27724,
				"method": "rhf"
			},
			{
				"type": "occ",
				"energy": -0.25753,
				"method": "rhf"
			},
			{
				"type": "unocc",
				"energy": -0.06895,
				"method": "rhf"
			},
			{
				"type": "unocc",
				"energy": -0.02756,
				"method": "rhf"
			},
			{
				"type": "unocc",
				"energy": 0.03351,
				"method": "rhf"
			},
			{
				"type": "unocc",
				"energy": 0.03948,
				"method": "rhf"
			},
			{
				"type": "unocc",
				"energy": 0.09137,
				"method": "rhf"
			}
		],
		"cosmo_sigma_profile": { 
			"-0.025": 0.0,
			"-0.024": 0.0,
			"-0.023": 0.0,
			"-0.022": 0.0,
			"-0.021": 0.0,
			"-0.02": 0.0,
			"-0.019": 0.0,
			"-0.018": 0.0,
			"-0.017": 0.0,
			"-0.016": 0.0,
			"-0.015": 0.0,
			"-0.014": 0.0,
			"-0.013": 0.0,
			"-0.012": 0.0,
			"-0.011": 0.0,
			"-0.01": 0.0,
			"-0.009": 0.0,
			"-0.008": 0.240840336993,
			"-0.007": 2.17037613006,
			"-0.006": 5.67084802337,
			"-0.005": 15.9245041748,
			"-0.004": 24.9719254655,
			"-0.003": 23.9321370325,
			"-0.002": 22.8768811136,
			"-0.001": 32.5430043374,
			"0.0": 30.0335804911,
			"0.001": 12.4615784266,
			"0.002": 10.2880449107,
			"0.003": 10.4629530359,
			"0.004": 14.7909481186,
			"0.005": 7.46421752373,
			"0.006": 4.20363406214,
			"0.007": 3.1829815511,
			"0.008": 2.39374441972,
			"0.009": 2.57919290496,
			"0.01": 3.48966873127,
			"0.011": 5.39980104459,
			"0.012": 2.03411130321,
			"0.013": 0.676316373275,
			"0.014": 0.215402085914,
			"0.015": 0.0,
			"0.016": 0.0,
			"0.017": 0.0,
			"0.018": 0.0,
			"0.019": 0.0,
			"0.02": 0.0,
			"0.021": 0.0,
			"0.022": 0.0,
			"0.023": 0.0,
			"0.024": 0.0,
			"0.025": 0.0
		}
	}
}
