{
	 "smiles": "CCOC(=O)C=CC1=CC=CC=C1N", 
	 "Tm": 349.65, 
	 "num_atms": 27, 
	 "gaussian": { 
		 "optdone": 1, 
		 "sigma_profile": "yes", 
		 "theory": "DFT", 
		 "functional": "B3LYP", 
		 "basiset": "6-31G**", 
		 "properties": { 
			 "R2extent": 3364.8909, 
			 "electric_dipole_moment_norm": 3.56739416942, 
			 "electric_quadrupole_moment_norm": 15.3167745048, 
			 "total_energy": -632.203292514, 
			 "HOMO_LUMO_gap": 0.15364, 
			 "cosmo_polarized_energy": -13.0, 
			 "cosmo_cavitation_energy": 31.11, 
			 "cosmo_dispersion_energy": -21.5, 
			 "cosmo_repulsion_energy": 1.74, 
			 "cosmo_total_nonelectrostatic_energy": 11.35, 
			 "SMD_solvation_energy": 6.45 
		},
		"coords": [
			{
				"x": -1.4385078457,
				"y": -2.5113998629,
				"z": 1.6694700198,
				"element": "C" 
			},
			{
				"x": -0.5366989654,
				"y": -1.8278586348,
				"z": 2.6802527323,
				"element": "C" 
			},
			{
				"x": 0.3835262826,
				"y": -0.9937909443,
				"z": 1.9433522921,
				"element": "O" 
			},
			{
				"x": 1.3112294881,
				"y": -0.3469031805,
				"z": 2.6830686528,
				"element": "C" 
			},
			{
				"x": 1.3937009548,
				"y": -0.4596474923,
				"z": 3.8935111817,
				"element": "O" 
			},
			{
				"x": 2.2629401792,
				"y": 0.473604805,
				"z": 1.8991529568,
				"element": "C" 
			},
			{
				"x": 2.2383193843,
				"y": 0.8689498288,
				"z": 0.6087242005,
				"element": "C" 
			},
			{
				"x": 1.2115442053,
				"y": 0.7545660317,
				"z": -0.4356812151,
				"element": "C" 
			},
			{
				"x": -0.1471683163,
				"y": 1.0140706633,
				"z": -0.1919349397,
				"element": "C" 
			},
			{
				"x": -1.0811497734,
				"y": 1.0356226202,
				"z": -1.2221051915,
				"element": "C" 
			},
			{
				"x": -0.659876233,
				"y": 0.792644119,
				"z": -2.5333951197,
				"element": "C" 
			},
			{
				"x": 0.6776750113,
				"y": 0.5248116794,
				"z": -2.8036728095,
				"element": "C" 
			},
			{
				"x": 1.6268642859,
				"y": 0.5030365799,
				"z": -1.7689011203,
				"element": "C" 
			},
			{
				"x": 2.9766887629,
				"y": 0.2752759516,
				"z": -2.0483192787,
				"element": "N" 
			},
			{
				"x": -2.1657845708,
				"y": -3.1441905013,
				"z": 2.1879534706,
				"element": "H" 
			},
			{
				"x": -1.9826575371,
				"y": -1.7759480715,
				"z": 1.0703932135,
				"element": "H" 
			},
			{
				"x": -0.8563927309,
				"y": -3.1404994674,
				"z": 0.9899784708,
				"element": "H" 
			},
			{
				"x": 0.0339637556,
				"y": -2.546379974,
				"z": 3.2771057387,
				"element": "H" 
			},
			{
				"x": -1.1020885713,
				"y": -1.2020443501,
				"z": 3.3789965918,
				"element": "H" 
			},
			{
				"x": 3.1123781719,
				"y": 0.7699542523,
				"z": 2.5076068069,
				"element": "H" 
			},
			{
				"x": 3.1341102893,
				"y": 1.3962829958,
				"z": 0.2733980351,
				"element": "H" 
			},
			{
				"x": -0.4572543792,
				"y": 1.228942268,
				"z": 0.824216514,
				"element": "H" 
			},
			{
				"x": -2.1227082603,
				"y": 1.2556520489,
				"z": -1.0101850494,
				"element": "H" 
			},
			{
				"x": -1.3769079047,
				"y": 0.8084812567,
				"z": -3.3494963878,
				"element": "H" 
			},
			{
				"x": 1.0001119004,
				"y": 0.3260663467,
				"z": -3.8231503521,
				"element": "H" 
			},
			{
				"x": 3.4787036772,
				"y": -0.2581767182,
				"z": -1.3519208585,
				"element": "H" 
			},
			{
				"x": 3.1613387394,
				"y": -0.0661222502,
				"z": -2.981818555,
				"element": "H" 
			}
		],
		 "valence_orbital": [ 
			{
				"type": "occ",
				"energy": -0.29123,
				"method": "rhf"
			},
			{
				"type": "occ",
				"energy": -0.28848,
				"method": "rhf"
			},
			{
				"type": "occ",
				"energy": -0.26275,
				"method": "rhf"
			},
			{
				"type": "occ",
				"energy": -0.23638,
				"method": "rhf"
			},
			{
				"type": "occ",
				"energy": -0.20718,
				"method": "rhf"
			},
			{
				"type": "unocc",
				"energy": -0.05354,
				"method": "rhf"
			},
			{
				"type": "unocc",
				"energy": 0.00974,
				"method": "rhf"
			},
			{
				"type": "unocc",
				"energy": 0.01994,
				"method": "rhf"
			},
			{
				"type": "unocc",
				"energy": 0.07828,
				"method": "rhf"
			},
			{
				"type": "unocc",
				"energy": 0.09051,
				"method": "rhf"
			}
		],
		"cosmo_sigma_profile": { 
			"-0.025": 0.0,
			"-0.024": 0.0,
			"-0.023": 0.0,
			"-0.022": 0.0,
			"-0.021": 0.0,
			"-0.02": 0.0,
			"-0.019": 0.0,
			"-0.018": 0.0,
			"-0.017": 0.0,
			"-0.016": 0.0,
			"-0.015": 0.0,
			"-0.014": 0.0,
			"-0.013": 0.601522581051,
			"-0.012": 2.3785774977,
			"-0.011": 2.67540287724,
			"-0.01": 2.7480552042,
			"-0.009": 3.06792678832,
			"-0.008": 2.62659644595,
			"-0.007": 2.70982832444,
			"-0.006": 7.60664529767,
			"-0.005": 15.8761541956,
			"-0.004": 22.5592244109,
			"-0.003": 24.2173412599,
			"-0.002": 20.6932278967,
			"-0.001": 19.3980012186,
			"0.0": 18.5904196977,
			"0.001": 15.0971639911,
			"0.002": 14.4503610564,
			"0.003": 11.9971737397,
			"0.004": 10.9745586652,
			"0.005": 10.5915330691,
			"0.006": 10.9409597659,
			"0.007": 5.11437903605,
			"0.008": 3.48719883917,
			"0.009": 2.5015504179,
			"0.01": 3.17927625365,
			"0.011": 2.81509476028,
			"0.012": 4.95690877777,
			"0.013": 3.87316763487,
			"0.014": 0.463823239991,
			"0.015": 0.0,
			"0.016": 0.0,
			"0.017": 0.0,
			"0.018": 0.0,
			"0.019": 0.0,
			"0.02": 0.0,
			"0.021": 0.0,
			"0.022": 0.0,
			"0.023": 0.0,
			"0.024": 0.0,
			"0.025": 0.0
		}
	}
}
