{
	 "smiles": "COC1=CC(N2NN=NC2=S)=C(OC)C=C1", 
	 "Tm": 425.15, 
	 "num_atms": 26, 
	 "gaussian": { 
		 "optdone": 1, 
		 "sigma_profile": "yes", 
		 "theory": "DFT", 
		 "functional": "B3LYP", 
		 "basiset": "6-31G**", 
		 "properties": { 
			 "R2extent": 5042.9705, 
			 "electric_dipole_moment_norm": 8.16983906451, 
			 "electric_quadrupole_moment_norm": 38.2435709226, 
			 "total_energy": -1116.51246223, 
			 "HOMO_LUMO_gap": 0.13353, 
			 "cosmo_polarized_energy": -21.39, 
			 "cosmo_cavitation_energy": 31.89, 
			 "cosmo_dispersion_energy": -23.52, 
			 "cosmo_repulsion_energy": 1.77, 
			 "cosmo_total_nonelectrostatic_energy": 10.14, 
			 "SMD_solvation_energy": 4.7 
		},
		"coords": [
			{
				"x": -3.0661061395,
				"y": -0.3137372876,
				"z": 2.4925654865,
				"element": "C" 
			},
			{
				"x": -2.0133168292,
				"y": -1.2022106222,
				"z": 2.1320857562,
				"element": "O" 
			},
			{
				"x": -0.9110020089,
				"y": -0.6789333144,
				"z": 1.5311144661,
				"element": "C" 
			},
			{
				"x": -0.7211753247,
				"y": 0.6848738268,
				"z": 1.2928068465,
				"element": "C" 
			},
			{
				"x": 0.4406976426,
				"y": 1.1276558809,
				"z": 0.6529696833,
				"element": "C" 
			},
			{
				"x": 0.6085888599,
				"y": 2.5148698468,
				"z": 0.3957433939,
				"element": "N" 
			},
			{
				"x": 1.8500974764,
				"y": 3.1099499877,
				"z": 0.5148954944,
				"element": "N" 
			},
			{
				"x": 1.739559364,
				"y": 4.4016759459,
				"z": 0.2250461119,
				"element": "N" 
			},
			{
				"x": 0.5016498639,
				"y": 4.7041575687,
				"z": 0.0755441921,
				"element": "N" 
			},
			{
				"x": -0.2897762907,
				"y": 3.5477958914,
				"z": 0.1741727332,
				"element": "C" 
			},
			{
				"x": -1.9464101054,
				"y": 3.503329926,
				"z": 0.0320118182,
				"element": "S" 
			},
			{
				"x": 1.43550161,
				"y": 0.2092870686,
				"z": 0.2577495935,
				"element": "C" 
			},
			{
				"x": 2.5565947381,
				"y": 0.7175101195,
				"z": -0.3642294676,
				"element": "O" 
			},
			{
				"x": 3.5156184427,
				"y": -0.196877137,
				"z": -0.8895538767,
				"element": "C" 
			},
			{
				"x": 1.2394231921,
				"y": -1.1481838761,
				"z": 0.5224222086,
				"element": "C" 
			},
			{
				"x": 0.077741835,
				"y": -1.5915725215,
				"z": 1.1464055721,
				"element": "C" 
			},
			{
				"x": -2.7407715371,
				"y": 0.407320003,
				"z": 3.2528057016,
				"element": "H" 
			},
			{
				"x": -3.8563130222,
				"y": -0.9408877699,
				"z": 2.9069348282,
				"element": "H" 
			},
			{
				"x": -3.4489597057,
				"y": 0.2306529114,
				"z": 1.6213463885,
				"element": "H" 
			},
			{
				"x": -1.4667259597,
				"y": 1.4202304737,
				"z": 1.5579831215,
				"element": "H" 
			},
			{
				"x": 2.657478519,
				"y": 2.5650002644,
				"z": 0.215260206,
				"element": "H" 
			},
			{
				"x": 3.9920879595,
				"y": -0.778824152,
				"z": -0.0920381557,
				"element": "H" 
			},
			{
				"x": 3.0539893464,
				"y": -0.8756847181,
				"z": -1.6149178869,
				"element": "H" 
			},
			{
				"x": 4.2674862421,
				"y": 0.4133438651,
				"z": -1.3910526088,
				"element": "H" 
			},
			{
				"x": 1.9907912961,
				"y": -1.8728997871,
				"z": 0.2344917488,
				"element": "H" 
			},
			{
				"x": -0.0795494648,
				"y": -2.6470423938,
				"z": 1.3394366446,
				"element": "H" 
			}
		],
		 "valence_orbital": [ 
			{
				"type": "occ",
				"energy": -0.29592,
				"method": "rhf"
			},
			{
				"type": "occ",
				"energy": -0.27531,
				"method": "rhf"
			},
			{
				"type": "occ",
				"energy": -0.23073,
				"method": "rhf"
			},
			{
				"type": "occ",
				"energy": -0.21042,
				"method": "rhf"
			},
			{
				"type": "occ",
				"energy": -0.20729,
				"method": "rhf"
			},
			{
				"type": "unocc",
				"energy": -0.07376,
				"method": "rhf"
			},
			{
				"type": "unocc",
				"energy": -0.02371,
				"method": "rhf"
			},
			{
				"type": "unocc",
				"energy": -0.00209,
				"method": "rhf"
			},
			{
				"type": "unocc",
				"energy": 0.02021,
				"method": "rhf"
			},
			{
				"type": "unocc",
				"energy": 0.05913,
				"method": "rhf"
			}
		],
		"cosmo_sigma_profile": { 
			"-0.025": 0.0,
			"-0.024": 0.0,
			"-0.023": 0.0,
			"-0.022": 0.0,
			"-0.021": 0.0,
			"-0.02": 0.0,
			"-0.019": 0.0,
			"-0.018": 0.0,
			"-0.017": 0.319588374029,
			"-0.016": 0.812112753508,
			"-0.015": 0.593949981751,
			"-0.014": 0.839075826978,
			"-0.013": 0.539014325973,
			"-0.012": 0.538450345748,
			"-0.011": 1.06320816859,
			"-0.01": 1.16205122222,
			"-0.009": 1.55436057126,
			"-0.008": 4.08532882563,
			"-0.007": 10.4413270577,
			"-0.006": 18.7238957864,
			"-0.005": 23.1058743016,
			"-0.004": 23.6341406881,
			"-0.003": 20.9389208472,
			"-0.002": 14.4095700522,
			"-0.001": 13.515185971,
			"0.0": 10.7120370619,
			"0.001": 12.6922993769,
			"0.002": 16.9600476028,
			"0.003": 12.1416191131,
			"0.004": 9.78964594298,
			"0.005": 7.20674209359,
			"0.006": 8.3400712027,
			"0.007": 8.68746179961,
			"0.008": 8.60492267596,
			"0.009": 9.06999069592,
			"0.01": 7.50567414199,
			"0.011": 4.38108454613,
			"0.012": 3.66356685718,
			"0.013": 1.83831987544,
			"0.014": 0.642610072139,
			"0.015": 0.0106085466682,
			"0.016": 0.0,
			"0.017": 0.0,
			"0.018": 0.0,
			"0.019": 0.0,
			"0.02": 0.0,
			"0.021": 0.0,
			"0.022": 0.0,
			"0.023": 0.0,
			"0.024": 0.0,
			"0.025": 0.0
		}
	}
}
