{
	 "smiles": "CCCCCCCCCC", 
	 "Tm": 243.25, 
	 "num_atms": 32, 
	 "gaussian": { 
		 "optdone": 1, 
		 "sigma_profile": "yes", 
		 "theory": "DFT", 
		 "functional": "B3LYP", 
		 "basiset": "6-31G**", 
		 "properties": { 
			 "R2extent": 3233.6457, 
			 "electric_dipole_moment_norm": 0.0821145541302, 
			 "electric_quadrupole_moment_norm": 0.38236682649, 
			 "total_energy": -394.354214913, 
			 "HOMO_LUMO_gap": 0.37228, 
			 "cosmo_polarized_energy": -0.74, 
			 "cosmo_cavitation_energy": 31.53, 
			 "cosmo_dispersion_energy": -22.14, 
			 "cosmo_repulsion_energy": 1.85, 
			 "cosmo_total_nonelectrostatic_energy": 11.24, 
			 "SMD_solvation_energy": 4.56 
		},
		"coords": [
			{
				"x": 2.0502153437,
				"y": -3.2877063911,
				"z": -0.9744020932,
				"element": "C" 
			},
			{
				"x": 2.1213552561,
				"y": -1.7819182483,
				"z": -1.2496754651,
				"element": "C" 
			},
			{
				"x": 1.615339892,
				"y": -0.934666991,
				"z": -0.0737896412,
				"element": "C" 
			},
			{
				"x": 1.7529543545,
				"y": 0.5855884856,
				"z": -0.2675137588,
				"element": "C" 
			},
			{
				"x": 0.9529671108,
				"y": 1.190182105,
				"z": -1.4374156891,
				"element": "C" 
			},
			{
				"x": -0.5756111099,
				"y": 1.0105071421,
				"z": -1.3780591626,
				"element": "C" 
			},
			{
				"x": -1.2488657606,
				"y": 1.7230002308,
				"z": -0.1961653787,
				"element": "C" 
			},
			{
				"x": -2.7702970955,
				"y": 1.523137223,
				"z": -0.0645568202,
				"element": "C" 
			},
			{
				"x": -3.634740649,
				"y": 2.0718170291,
				"z": -1.2222983243,
				"element": "C" 
			},
			{
				"x": -3.934641139,
				"y": 1.0682017132,
				"z": -2.3441371783,
				"element": "C" 
			},
			{
				"x": 1.0204446203,
				"y": -3.605397087,
				"z": -0.7737335815,
				"element": "H" 
			},
			{
				"x": 2.4166766154,
				"y": -3.869913033,
				"z": -1.8263896615,
				"element": "H" 
			},
			{
				"x": 2.6539124798,
				"y": -3.5599380826,
				"z": -0.1009218688,
				"element": "H" 
			},
			{
				"x": 1.540819329,
				"y": -1.5534881401,
				"z": -2.1524203463,
				"element": "H" 
			},
			{
				"x": 3.1588204573,
				"y": -1.4993897881,
				"z": -1.4768419378,
				"element": "H" 
			},
			{
				"x": 2.1730688919,
				"y": -1.2191480191,
				"z": 0.8291626919,
				"element": "H" 
			},
			{
				"x": 0.5677333453,
				"y": -1.1938810595,
				"z": 0.1323181374,
				"element": "H" 
			},
			{
				"x": 2.8143788812,
				"y": 0.8255810181,
				"z": -0.419439136,
				"element": "H" 
			},
			{
				"x": 1.4684176707,
				"y": 1.0855630212,
				"z": 0.666837651,
				"element": "H" 
			},
			{
				"x": 1.1785257772,
				"y": 2.2643615713,
				"z": -1.4889243613,
				"element": "H" 
			},
			{
				"x": 1.3179775387,
				"y": 0.7661986328,
				"z": -2.3813848285,
				"element": "H" 
			},
			{
				"x": -0.994139951,
				"y": 1.3921398923,
				"z": -2.3170475882,
				"element": "H" 
			},
			{
				"x": -0.826619938,
				"y": -0.058787701,
				"z": -1.3502430668,
				"element": "H" 
			},
			{
				"x": -0.7852219982,
				"y": 1.3872880833,
				"z": 0.7403380307,
				"element": "H" 
			},
			{
				"x": -1.0374910119,
				"y": 2.8003088611,
				"z": -0.2655410214,
				"element": "H" 
			},
			{
				"x": -2.9877653696,
				"y": 0.4544005642,
				"z": 0.074729389,
				"element": "H" 
			},
			{
				"x": -3.0820407215,
				"y": 2.0122549701,
				"z": 0.8670121783,
				"element": "H" 
			},
			{
				"x": -4.5926978449,
				"y": 2.4164546183,
				"z": -0.8129736145,
				"element": "H" 
			},
			{
				"x": -3.1540800709,
				"y": 2.9660464803,
				"z": -1.6427220539,
				"element": "H" 
			},
			{
				"x": -4.5666321294,
				"y": 1.5190262769,
				"z": -3.1171491449,
				"element": "H" 
			},
			{
				"x": -4.4668732696,
				"y": 0.1942866536,
				"z": -1.9508984928,
				"element": "H" 
			},
			{
				"x": -3.0250895048,
				"y": 0.7048899686,
				"z": -2.8309538626,
				"element": "H" 
			}
		],
		 "valence_orbital": [ 
			{
				"type": "occ",
				"energy": -0.31595,
				"method": "rhf"
			},
			{
				"type": "occ",
				"energy": -0.3142,
				"method": "rhf"
			},
			{
				"type": "occ",
				"energy": -0.30625,
				"method": "rhf"
			},
			{
				"type": "occ",
				"energy": -0.29729,
				"method": "rhf"
			},
			{
				"type": "occ",
				"energy": -0.29407,
				"method": "rhf"
			},
			{
				"type": "unocc",
				"energy": 0.07821,
				"method": "rhf"
			},
			{
				"type": "unocc",
				"energy": 0.09955,
				"method": "rhf"
			},
			{
				"type": "unocc",
				"energy": 0.10964,
				"method": "rhf"
			},
			{
				"type": "unocc",
				"energy": 0.11015,
				"method": "rhf"
			},
			{
				"type": "unocc",
				"energy": 0.12299,
				"method": "rhf"
			}
		],
		"cosmo_sigma_profile": { 
			"-0.025": 0.0,
			"-0.024": 0.0,
			"-0.023": 0.0,
			"-0.022": 0.0,
			"-0.021": 0.0,
			"-0.02": 0.0,
			"-0.019": 0.0,
			"-0.018": 0.0,
			"-0.017": 0.0,
			"-0.016": 0.0,
			"-0.015": 0.0,
			"-0.014": 0.0,
			"-0.013": 0.0,
			"-0.012": 0.0,
			"-0.011": 0.0,
			"-0.01": 0.0,
			"-0.009": 0.0,
			"-0.008": 0.0,
			"-0.007": 0.0,
			"-0.006": 0.0,
			"-0.005": 0.0,
			"-0.004": 0.0,
			"-0.003": 2.32167135517,
			"-0.002": 28.7251997667,
			"-0.001": 54.0433990606,
			"0.0": 66.9484185896,
			"0.001": 59.0236213498,
			"0.002": 29.0315594527,
			"0.003": 0.799238952522,
			"0.004": 0.0,
			"0.005": 0.0,
			"0.006": 0.0,
			"0.007": 0.0,
			"0.008": 0.0,
			"0.009": 0.0,
			"0.01": 0.0,
			"0.011": 0.0,
			"0.012": 0.0,
			"0.013": 0.0,
			"0.014": 0.0,
			"0.015": 0.0,
			"0.016": 0.0,
			"0.017": 0.0,
			"0.018": 0.0,
			"0.019": 0.0,
			"0.02": 0.0,
			"0.021": 0.0,
			"0.022": 0.0,
			"0.023": 0.0,
			"0.024": 0.0,
			"0.025": 0.0
		}
	}
}
