{
	 "smiles": "OC1OC(=O)C(Br)=C1Br", 
	 "Tm": 396.15, 
	 "num_atms": 11, 
	 "gaussian": { 
		 "optdone": 1, 
		 "sigma_profile": "yes", 
		 "theory": "DFT", 
		 "functional": "B3LYP", 
		 "basiset": "6-31G**", 
		 "properties": { 
			 "R2extent": 3106.6587, 
			 "electric_dipole_moment_norm": 3.72848642481, 
			 "electric_quadrupole_moment_norm": 10.4456022641, 
			 "total_energy": -5522.07834905, 
			 "HOMO_LUMO_gap": 0.19723, 
			 "cosmo_polarized_energy": -12.64, 
			 "cosmo_cavitation_energy": 20.98, 
			 "cosmo_dispersion_energy": -16.32, 
			 "cosmo_repulsion_energy": 1.37, 
			 "cosmo_total_nonelectrostatic_energy": 6.03, 
			 "SMD_solvation_energy": 2.8 
		},
		"coords": [
			{
				"x": -0.8774499718,
				"y": 1.8715842631,
				"z": 0.675920721,
				"element": "O" 
			},
			{
				"x": -0.1496408351,
				"y": 0.8965134918,
				"z": 1.3350703413,
				"element": "C" 
			},
			{
				"x": -0.8528110556,
				"y": -0.3616621302,
				"z": 1.3725714051,
				"element": "O" 
			},
			{
				"x": -0.151177836,
				"y": -1.3299205873,
				"z": 0.6963928207,
				"element": "C" 
			},
			{
				"x": -0.530157497,
				"y": -2.4608644004,
				"z": 0.5769368065,
				"element": "O" 
			},
			{
				"x": 1.1097945799,
				"y": -0.6976313658,
				"z": 0.2008589828,
				"element": "C" 
			},
			{
				"x": 2.3733159701,
				"y": -1.6660973384,
				"z": -0.7632659756,
				"element": "Br" 
			},
			{
				"x": 1.115505084,
				"y": 0.5877678193,
				"z": 0.5651774431,
				"element": "C" 
			},
			{
				"x": 2.3979125637,
				"y": 1.8997575078,
				"z": 0.2457696055,
				"element": "Br" 
			},
			{
				"x": -1.6317972339,
				"y": 2.1187190604,
				"z": 1.2281599214,
				"element": "H" 
			},
			{
				"x": 0.0614062316,
				"y": 1.1670336797,
				"z": 2.3787079281,
				"element": "H" 
			}
		],
		 "valence_orbital": [ 
			{
				"type": "occ",
				"energy": -0.32269,
				"method": "rhf"
			},
			{
				"type": "occ",
				"energy": -0.31958,
				"method": "rhf"
			},
			{
				"type": "occ",
				"energy": -0.30744,
				"method": "rhf"
			},
			{
				"type": "occ",
				"energy": -0.29188,
				"method": "rhf"
			},
			{
				"type": "occ",
				"energy": -0.27141,
				"method": "rhf"
			},
			{
				"type": "unocc",
				"energy": -0.07418,
				"method": "rhf"
			},
			{
				"type": "unocc",
				"energy": -0.02606,
				"method": "rhf"
			},
			{
				"type": "unocc",
				"energy": 0.01523,
				"method": "rhf"
			},
			{
				"type": "unocc",
				"energy": 0.04847,
				"method": "rhf"
			},
			{
				"type": "unocc",
				"energy": 0.06438,
				"method": "rhf"
			}
		],
		"cosmo_sigma_profile": { 
			"-0.025": 0.0,
			"-0.024": 0.0,
			"-0.023": 0.0,
			"-0.022": 0.0,
			"-0.021": 0.0,
			"-0.02": 0.0,
			"-0.019": 0.385588780052,
			"-0.018": 1.44497677226,
			"-0.017": 1.0664461481,
			"-0.016": 0.984557636841,
			"-0.015": 1.24681929092,
			"-0.014": 0.843451639257,
			"-0.013": 0.748866236864,
			"-0.012": 1.20585812408,
			"-0.011": 1.0484843428,
			"-0.01": 3.02185655227,
			"-0.009": 3.91177353025,
			"-0.008": 3.29530225146,
			"-0.007": 4.13233836775,
			"-0.006": 6.20325242799,
			"-0.005": 6.28721994636,
			"-0.004": 6.80480639063,
			"-0.003": 10.0013728715,
			"-0.002": 9.22749180661,
			"-0.001": 12.339618207,
			"0.0": 10.6732253739,
			"0.001": 15.9627615775,
			"0.002": 20.5206181658,
			"0.003": 11.0786739485,
			"0.004": 5.80787637823,
			"0.005": 5.18313285186,
			"0.006": 4.24026337709,
			"0.007": 5.07899624474,
			"0.008": 6.19608772401,
			"0.009": 5.02953704839,
			"0.01": 6.99130205152,
			"0.011": 3.91940677634,
			"0.012": 0.16847949216,
			"0.013": 0.0,
			"0.014": 0.0,
			"0.015": 0.0,
			"0.016": 0.0,
			"0.017": 0.0,
			"0.018": 0.0,
			"0.019": 0.0,
			"0.02": 0.0,
			"0.021": 0.0,
			"0.022": 0.0,
			"0.023": 0.0,
			"0.024": 0.0,
			"0.025": 0.0
		}
	}
}
