{
	 "smiles": "CN(C)CCOC(C1=CC=CC=C1)C1=CC=CC=C1C", 
	 "Tm": 429.65, 
	 "num_atms": 43, 
	 "gaussian": { 
		 "optdone": 1, 
		 "sigma_profile": "yes", 
		 "theory": "DFT", 
		 "functional": "B3LYP", 
		 "basiset": "6-31G**", 
		 "properties": { 
			 "R2extent": 6486.0618, 
			 "electric_dipole_moment_norm": 1.73391325619, 
			 "electric_quadrupole_moment_norm": 6.12947079119, 
			 "total_energy": -829.736968462, 
			 "HOMO_LUMO_gap": 0.18592, 
			 "cosmo_polarized_energy": -8.66, 
			 "cosmo_cavitation_energy": 44.0, 
			 "cosmo_dispersion_energy": -28.74, 
			 "cosmo_repulsion_energy": 2.23, 
			 "cosmo_total_nonelectrostatic_energy": 17.49, 
			 "SMD_solvation_energy": 4.95 
		},
		"coords": [
			{
				"x": -0.4789057905,
				"y": -2.8106371018,
				"z": 0.6510068172,
				"element": "C" 
			},
			{
				"x": -0.1870958905,
				"y": -2.5999713103,
				"z": 2.0620702534,
				"element": "N" 
			},
			{
				"x": 1.2058232215,
				"y": -2.8568453634,
				"z": 2.3871970349,
				"element": "C" 
			},
			{
				"x": -0.7226503813,
				"y": -1.3716358709,
				"z": 2.6353571472,
				"element": "C" 
			},
			{
				"x": -0.1080765664,
				"y": -0.0310967995,
				"z": 2.2106906693,
				"element": "C" 
			},
			{
				"x": -0.505247419,
				"y": 0.272142981,
				"z": 0.8802404581,
				"element": "O" 
			},
			{
				"x": -0.0373582412,
				"y": 1.5307169572,
				"z": 0.39645634,
				"element": "C" 
			},
			{
				"x": 1.4762943487,
				"y": 1.5012900847,
				"z": 0.1691943729,
				"element": "C" 
			},
			{
				"x": 2.3392518105,
				"y": 2.2443437647,
				"z": 0.9823324874,
				"element": "C" 
			},
			{
				"x": 3.7239503676,
				"y": 2.1846932567,
				"z": 0.8008184934,
				"element": "C" 
			},
			{
				"x": 4.2605976843,
				"y": 1.3709772653,
				"z": -0.1962410497,
				"element": "C" 
			},
			{
				"x": 3.4071610996,
				"y": 0.6198711397,
				"z": -1.0103302155,
				"element": "C" 
			},
			{
				"x": 2.0268780388,
				"y": 0.6860036671,
				"z": -0.8298259645,
				"element": "C" 
			},
			{
				"x": -0.8187373598,
				"y": 1.873201801,
				"z": -0.8666922812,
				"element": "C" 
			},
			{
				"x": -1.4927145994,
				"y": 0.8634809236,
				"z": -1.5634114544,
				"element": "C" 
			},
			{
				"x": -2.1973398614,
				"y": 1.1434428095,
				"z": -2.7347996437,
				"element": "C" 
			},
			{
				"x": -2.2397367966,
				"y": 2.4485748544,
				"z": -3.2198424002,
				"element": "C" 
			},
			{
				"x": -1.5793803273,
				"y": 3.4609285172,
				"z": -2.5236254144,
				"element": "C" 
			},
			{
				"x": -0.8641508852,
				"y": 3.2002469004,
				"z": -1.3482495264,
				"element": "C" 
			},
			{
				"x": -0.1754850026,
				"y": 4.3393564707,
				"z": -0.6315466296,
				"element": "C" 
			},
			{
				"x": 0.090843393,
				"y": -2.156131333,
				"z": -0.0293992878,
				"element": "H" 
			},
			{
				"x": -0.2545965121,
				"y": -3.8519272196,
				"z": 0.3896477816,
				"element": "H" 
			},
			{
				"x": -1.5440162986,
				"y": -2.638268418,
				"z": 0.4671799135,
				"element": "H" 
			},
			{
				"x": 1.4598935929,
				"y": -3.8855995774,
				"z": 2.107305129,
				"element": "H" 
			},
			{
				"x": 1.3601390153,
				"y": -2.7561236174,
				"z": 3.4673883388,
				"element": "H" 
			},
			{
				"x": 1.9255561433,
				"y": -2.1901343276,
				"z": 1.8764590832,
				"element": "H" 
			},
			{
				"x": -1.79749562,
				"y": -1.3332368256,
				"z": 2.4204067399,
				"element": "H" 
			},
			{
				"x": -0.6151289054,
				"y": -1.4401662178,
				"z": 3.7269010782,
				"element": "H" 
			},
			{
				"x": 0.9875618222,
				"y": -0.0576661892,
				"z": 2.295178917,
				"element": "H" 
			},
			{
				"x": -0.4681907551,
				"y": 0.7568635775,
				"z": 2.895386702,
				"element": "H" 
			},
			{
				"x": -0.2440615247,
				"y": 2.2986390181,
				"z": 1.1606555084,
				"element": "H" 
			},
			{
				"x": 1.9244589405,
				"y": 2.8758633466,
				"z": 1.7648878346,
				"element": "H" 
			},
			{
				"x": 4.3789196226,
				"y": 2.7705717693,
				"z": 1.4396547905,
				"element": "H" 
			},
			{
				"x": 5.3360820779,
				"y": 1.3213970719,
				"z": -0.3408400031,
				"element": "H" 
			},
			{
				"x": 3.819533117,
				"y": -0.0144316076,
				"z": -1.7900960624,
				"element": "H" 
			},
			{
				"x": 1.365937731,
				"y": 0.1110281347,
				"z": -1.4714986329,
				"element": "H" 
			},
			{
				"x": -1.4729059981,
				"y": -0.1446198773,
				"z": -1.1669398867,
				"element": "H" 
			},
			{
				"x": -2.7132440868,
				"y": 0.3441693355,
				"z": -3.2595388329,
				"element": "H" 
			},
			{
				"x": -2.7865724094,
				"y": 2.6820560176,
				"z": -4.1290925171,
				"element": "H" 
			},
			{
				"x": -1.6197300457,
				"y": 4.4820415804,
				"z": -2.8951190001,
				"element": "H" 
			},
			{
				"x": 0.908617046,
				"y": 4.1934312545,
				"z": -0.5785125009,
				"element": "H" 
			},
			{
				"x": -0.5330099584,
				"y": 4.4478156208,
				"z": 0.4001779679,
				"element": "H" 
			},
			{
				"x": -0.3620678374,
				"y": 5.2868435365,
				"z": -1.143892555,
				"element": "H" 
			}
		],
		 "valence_orbital": [ 
			{
				"type": "occ",
				"energy": -0.25102,
				"method": "rhf"
			},
			{
				"type": "occ",
				"energy": -0.2475,
				"method": "rhf"
			},
			{
				"type": "occ",
				"energy": -0.23659,
				"method": "rhf"
			},
			{
				"type": "occ",
				"energy": -0.2299,
				"method": "rhf"
			},
			{
				"type": "occ",
				"energy": -0.19677,
				"method": "rhf"
			},
			{
				"type": "unocc",
				"energy": -0.01085,
				"method": "rhf"
			},
			{
				"type": "unocc",
				"energy": -0.00406,
				"method": "rhf"
			},
			{
				"type": "unocc",
				"energy": 0.00646,
				"method": "rhf"
			},
			{
				"type": "unocc",
				"energy": 0.01325,
				"method": "rhf"
			},
			{
				"type": "unocc",
				"energy": 0.0811,
				"method": "rhf"
			}
		],
		"cosmo_sigma_profile": { 
			"-0.025": 0.0,
			"-0.024": 0.0,
			"-0.023": 0.0,
			"-0.022": 0.0,
			"-0.021": 0.0,
			"-0.02": 0.0,
			"-0.019": 0.0,
			"-0.018": 0.0,
			"-0.017": 0.0,
			"-0.016": 0.0,
			"-0.015": 0.0,
			"-0.014": 0.0,
			"-0.013": 0.0,
			"-0.012": 0.0,
			"-0.011": 0.0,
			"-0.01": 0.0,
			"-0.009": 0.0,
			"-0.008": 0.0,
			"-0.007": 0.0,
			"-0.006": 4.48534449432,
			"-0.005": 20.6149604301,
			"-0.004": 31.396638114,
			"-0.003": 42.3666317559,
			"-0.002": 37.7320350666,
			"-0.001": 39.7261230014,
			"0.0": 39.9301246932,
			"0.001": 27.1558445193,
			"0.002": 18.8542549041,
			"0.003": 19.3258254844,
			"0.004": 19.7823845249,
			"0.005": 17.0256961456,
			"0.006": 14.4227745137,
			"0.007": 5.10455305501,
			"0.008": 1.92598178737,
			"0.009": 1.78124490056,
			"0.01": 0.967764668589,
			"0.011": 0.551512641596,
			"0.012": 0.664164445308,
			"0.013": 0.815094332394,
			"0.014": 0.513539598546,
			"0.015": 0.419326557136,
			"0.016": 0.315993444799,
			"0.017": 0.00567031708343,
			"0.018": 0.0,
			"0.019": 0.0,
			"0.02": 0.0,
			"0.021": 0.0,
			"0.022": 0.0,
			"0.023": 0.0,
			"0.024": 0.0,
			"0.025": 0.0
		}
	}
}
