{
	 "smiles": "N#CC1=CC(=CC=C1)C1=NC=NN1", 
	 "Tm": 418.15, 
	 "num_atms": 19, 
	 "gaussian": { 
		 "optdone": 1, 
		 "sigma_profile": "yes", 
		 "theory": "DFT", 
		 "functional": "B3LYP", 
		 "basiset": "6-31G**", 
		 "properties": { 
			 "R2extent": 2738.005, 
			 "electric_dipole_moment_norm": 5.56541757912, 
			 "electric_quadrupole_moment_norm": 20.1101007205, 
			 "total_energy": -565.551965617, 
			 "HOMO_LUMO_gap": 0.18365, 
			 "cosmo_polarized_energy": -18.08, 
			 "cosmo_cavitation_energy": 25.36, 
			 "cosmo_dispersion_energy": -18.27, 
			 "cosmo_repulsion_energy": 1.42, 
			 "cosmo_total_nonelectrostatic_energy": 8.51, 
			 "SMD_solvation_energy": 3.51 
		},
		"coords": [
			{
				"x": 1.6596674832,
				"y": 4.1557310481,
				"z": 0.8745434994,
				"element": "N" 
			},
			{
				"x": 1.4898021416,
				"y": 3.011379617,
				"z": 0.9923250892,
				"element": "C" 
			},
			{
				"x": 1.2891602673,
				"y": 1.5981415371,
				"z": 1.146334836,
				"element": "C" 
			},
			{
				"x": 0.4302915593,
				"y": 0.9167873023,
				"z": 0.2754922182,
				"element": "C" 
			},
			{
				"x": 0.2315474127,
				"y": -0.4626322221,
				"z": 0.4223830865,
				"element": "C" 
			},
			{
				"x": 0.9024987459,
				"y": -1.145388142,
				"z": 1.4491525227,
				"element": "C" 
			},
			{
				"x": 1.7571288129,
				"y": -0.4637068974,
				"z": 2.3145931953,
				"element": "C" 
			},
			{
				"x": 1.9573149859,
				"y": 0.9063597372,
				"z": 2.1721473733,
				"element": "C" 
			},
			{
				"x": -0.6762930231,
				"y": -1.1361538543,
				"z": -0.5114112434,
				"element": "C" 
			},
			{
				"x": -1.3403241713,
				"y": -0.5489636622,
				"z": -1.5023186892,
				"element": "N" 
			},
			{
				"x": -2.0315307565,
				"y": -1.572749317,
				"z": -2.0674570315,
				"element": "C" 
			},
			{
				"x": -1.8497727372,
				"y": -2.7597076302,
				"z": -1.503787829,
				"element": "N" 
			},
			{
				"x": -0.9788162914,
				"y": -2.4610854576,
				"z": -0.5088878248,
				"element": "N" 
			},
			{
				"x": -0.0883773571,
				"y": 1.4424951463,
				"z": -0.5176304358,
				"element": "H" 
			},
			{
				"x": 0.7653074021,
				"y": -2.2145254562,
				"z": 1.5839485749,
				"element": "H" 
			},
			{
				"x": 2.2690528625,
				"y": -1.0048937878,
				"z": 3.103788348,
				"element": "H" 
			},
			{
				"x": 2.6203358975,
				"y": 1.4440188482,
				"z": 2.841068716,
				"element": "H" 
			},
			{
				"x": -2.6875412215,
				"y": -1.4455425317,
				"z": -2.9172127052,
				"element": "H" 
			},
			{
				"x": -0.6567520128,
				"y": -3.1973642777,
				"z": 0.1003282994,
				"element": "H" 
			}
		],
		 "valence_orbital": [ 
			{
				"type": "occ",
				"energy": -0.32003,
				"method": "rhf"
			},
			{
				"type": "occ",
				"energy": -0.305,
				"method": "rhf"
			},
			{
				"type": "occ",
				"energy": -0.28963,
				"method": "rhf"
			},
			{
				"type": "occ",
				"energy": -0.2795,
				"method": "rhf"
			},
			{
				"type": "occ",
				"energy": -0.2543,
				"method": "rhf"
			},
			{
				"type": "unocc",
				"energy": -0.07065,
				"method": "rhf"
			},
			{
				"type": "unocc",
				"energy": -0.05257,
				"method": "rhf"
			},
			{
				"type": "unocc",
				"energy": 0.01276,
				"method": "rhf"
			},
			{
				"type": "unocc",
				"energy": 0.03114,
				"method": "rhf"
			},
			{
				"type": "unocc",
				"energy": 0.04091,
				"method": "rhf"
			}
		],
		"cosmo_sigma_profile": { 
			"-0.025": 0.0,
			"-0.024": 0.0,
			"-0.023": 0.0,
			"-0.022": 0.0,
			"-0.021": 0.0,
			"-0.02": 0.0,
			"-0.019": 0.0,
			"-0.018": 0.826296402469,
			"-0.017": 1.80521676213,
			"-0.016": 1.4956377356,
			"-0.015": 1.07582444684,
			"-0.014": 1.04988846848,
			"-0.013": 1.65865643956,
			"-0.012": 1.48227002598,
			"-0.011": 1.28446599221,
			"-0.01": 0.66985786577,
			"-0.009": 2.78016488752,
			"-0.008": 7.1208108363,
			"-0.007": 11.672028289,
			"-0.006": 9.85846969567,
			"-0.005": 7.48297107346,
			"-0.004": 9.441514097,
			"-0.003": 7.37376606745,
			"-0.002": 11.9692998172,
			"-0.001": 15.1688079562,
			"0.0": 18.5477525382,
			"0.001": 21.2227206739,
			"0.002": 12.9731229935,
			"0.003": 5.17619230733,
			"0.004": 5.98632781659,
			"0.005": 5.98952982684,
			"0.006": 5.8523961632,
			"0.007": 3.95587805668,
			"0.008": 7.25947716373,
			"0.009": 5.37128555253,
			"0.01": 4.62534131303,
			"0.011": 5.01206415748,
			"0.012": 4.7838065086,
			"0.013": 3.26753851402,
			"0.014": 1.69877498582,
			"0.015": 0.328263352781,
			"0.016": 0.0,
			"0.017": 0.0,
			"0.018": 0.0,
			"0.019": 0.0,
			"0.02": 0.0,
			"0.021": 0.0,
			"0.022": 0.0,
			"0.023": 0.0,
			"0.024": 0.0,
			"0.025": 0.0
		}
	}
}
