{
	 "smiles": "CS(=O)C1=C(Cl)C=CC=C1N", 
	 "Tm": 381.15, 
	 "num_atms": 19, 
	 "gaussian": { 
		 "optdone": 1, 
		 "sigma_profile": "yes", 
		 "theory": "DFT", 
		 "functional": "B3LYP", 
		 "basiset": "6-31G**", 
		 "properties": { 
			 "R2extent": 2471.2275, 
			 "electric_dipole_moment_norm": 4.89698231669, 
			 "electric_quadrupole_moment_norm": 13.8500047408, 
			 "total_energy": -1259.86353207, 
			 "HOMO_LUMO_gap": 0.18425, 
			 "cosmo_polarized_energy": -16.73, 
			 "cosmo_cavitation_energy": 25.3, 
			 "cosmo_dispersion_energy": -19.27, 
			 "cosmo_repulsion_energy": 1.5, 
			 "cosmo_total_nonelectrostatic_energy": 7.52, 
			 "SMD_solvation_energy": 4.04 
		},
		"coords": [
			{
				"x": -0.1608731685,
				"y": 0.6721858164,
				"z": -3.2296840815,
				"element": "C" 
			},
			{
				"x": 1.240264973,
				"y": 0.1394271312,
				"z": -2.1705061658,
				"element": "S" 
			},
			{
				"x": 1.8201150035,
				"y": -1.1294672804,
				"z": -2.7403841294,
				"element": "O" 
			},
			{
				"x": 0.2818345937,
				"y": -0.1852633122,
				"z": -0.6438792016,
				"element": "C" 
			},
			{
				"x": -0.5518321438,
				"y": -1.2953963023,
				"z": -0.4398053295,
				"element": "C" 
			},
			{
				"x": -0.8739751718,
				"y": -2.4413758482,
				"z": -1.7323648304,
				"element": "Cl" 
			},
			{
				"x": -1.1673623786,
				"y": -1.5376366875,
				"z": 0.785228116,
				"element": "C" 
			},
			{
				"x": -0.9417867142,
				"y": -0.6464634111,
				"z": 1.8359805925,
				"element": "C" 
			},
			{
				"x": -0.1228081391,
				"y": 0.4602279821,
				"z": 1.6694898978,
				"element": "C" 
			},
			{
				"x": 0.5067174766,
				"y": 0.7086137973,
				"z": 0.4350761456,
				"element": "C" 
			},
			{
				"x": 1.2789180444,
				"y": 1.8545474766,
				"z": 0.2848603511,
				"element": "N" 
			},
			{
				"x": 0.2639573989,
				"y": 0.9134826184,
				"z": -4.2065675249,
				"element": "H" 
			},
			{
				"x": -0.6131762121,
				"y": 1.5613973341,
				"z": -2.7832969291,
				"element": "H" 
			},
			{
				"x": -0.8882586889,
				"y": -0.1339222546,
				"z": -3.3262098802,
				"element": "H" 
			},
			{
				"x": -1.8068704124,
				"y": -2.4037792957,
				"z": 0.9058797787,
				"element": "H" 
			},
			{
				"x": -1.4134469503,
				"y": -0.8242343372,
				"z": 2.7979045488,
				"element": "H" 
			},
			{
				"x": 0.0418824285,
				"y": 1.1499456578,
				"z": 2.4929041338,
				"element": "H" 
			},
			{
				"x": 1.6486814668,
				"y": 2.2372035639,
				"z": 1.1434689878,
				"element": "H" 
			},
			{
				"x": 1.9525185943,
				"y": 1.8407073512,
				"z": -0.4692944797,
				"element": "H" 
			}
		],
		 "valence_orbital": [ 
			{
				"type": "occ",
				"energy": -0.31111,
				"method": "rhf"
			},
			{
				"type": "occ",
				"energy": -0.26645,
				"method": "rhf"
			},
			{
				"type": "occ",
				"energy": -0.25866,
				"method": "rhf"
			},
			{
				"type": "occ",
				"energy": -0.22651,
				"method": "rhf"
			},
			{
				"type": "occ",
				"energy": -0.21834,
				"method": "rhf"
			},
			{
				"type": "unocc",
				"energy": -0.03409,
				"method": "rhf"
			},
			{
				"type": "unocc",
				"energy": -0.00508,
				"method": "rhf"
			},
			{
				"type": "unocc",
				"energy": 0.01988,
				"method": "rhf"
			},
			{
				"type": "unocc",
				"energy": 0.04962,
				"method": "rhf"
			},
			{
				"type": "unocc",
				"energy": 0.06008,
				"method": "rhf"
			}
		],
		"cosmo_sigma_profile": { 
			"-0.025": 0.0,
			"-0.024": 0.0,
			"-0.023": 0.0,
			"-0.022": 0.0,
			"-0.021": 0.0,
			"-0.02": 0.0,
			"-0.019": 0.0,
			"-0.018": 0.0,
			"-0.017": 0.0,
			"-0.016": 0.0,
			"-0.015": 0.0,
			"-0.014": 0.289999154274,
			"-0.013": 1.4762997913,
			"-0.012": 1.42683685512,
			"-0.011": 2.96669454118,
			"-0.01": 3.09293119162,
			"-0.009": 2.54644098477,
			"-0.008": 3.36415213105,
			"-0.007": 9.85071108532,
			"-0.006": 11.6988466719,
			"-0.005": 14.8009677323,
			"-0.004": 13.5100620076,
			"-0.003": 13.0931907102,
			"-0.002": 13.6828272772,
			"-0.001": 10.9418441388,
			"0.0": 11.1469127365,
			"0.001": 11.4725738797,
			"0.002": 14.0847186628,
			"0.003": 16.1039647557,
			"0.004": 15.8639547555,
			"0.005": 4.99983114599,
			"0.006": 1.85191140131,
			"0.007": 2.37462353295,
			"0.008": 2.69909025164,
			"0.009": 1.61717438961,
			"0.01": 1.98352489092,
			"0.011": 2.34454314147,
			"0.012": 1.77712315981,
			"0.013": 3.21838867714,
			"0.014": 6.00475041556,
			"0.015": 3.99591513312,
			"0.016": 0.20499301662,
			"0.017": 0.0,
			"0.018": 0.0,
			"0.019": 0.0,
			"0.02": 0.0,
			"0.021": 0.0,
			"0.022": 0.0,
			"0.023": 0.0,
			"0.024": 0.0,
			"0.025": 0.0
		}
	}
}
