{
	 "smiles": "CCOC(=O)C1=CC(Cl)=CC(Cl)=C1", 
	 "Tm": 308.65, 
	 "num_atms": 21, 
	 "gaussian": { 
		 "optdone": 1, 
		 "sigma_profile": "yes", 
		 "theory": "DFT", 
		 "functional": "B3LYP", 
		 "basiset": "6-31G**", 
		 "properties": { 
			 "R2extent": 5009.5398, 
			 "electric_dipole_moment_norm": 2.28441915812, 
			 "electric_quadrupole_moment_norm": 11.0022600442, 
			 "total_energy": -1418.63155857, 
			 "HOMO_LUMO_gap": 0.19484, 
			 "cosmo_polarized_energy": -6.33, 
			 "cosmo_cavitation_energy": 29.5, 
			 "cosmo_dispersion_energy": -21.64, 
			 "cosmo_repulsion_energy": 1.75, 
			 "cosmo_total_nonelectrostatic_energy": 9.61, 
			 "SMD_solvation_energy": 5.62 
		},
		"coords": [
			{
				"x": -4.1416209048,
				"y": -0.1297312953,
				"z": -0.4475086037,
				"element": "C" 
			},
			{
				"x": -3.5881708766,
				"y": 1.2867314078,
				"z": -0.4610941755,
				"element": "C" 
			},
			{
				"x": -2.2193585384,
				"y": 1.3122534714,
				"z": -0.9398397649,
				"element": "O" 
			},
			{
				"x": -1.2561937686,
				"y": 1.0816077231,
				"z": -0.0252867007,
				"element": "C" 
			},
			{
				"x": -1.4686337796,
				"y": 0.8658751089,
				"z": 1.151754875,
				"element": "O" 
			},
			{
				"x": 0.1141176221,
				"y": 1.1267900845,
				"z": -0.625322297,
				"element": "C" 
			},
			{
				"x": 1.197947372,
				"y": 0.9098423881,
				"z": 0.2331186641,
				"element": "C" 
			},
			{
				"x": 2.4869560839,
				"y": 0.9442763355,
				"z": -0.2880552418,
				"element": "C" 
			},
			{
				"x": 3.8571445082,
				"y": 0.674975712,
				"z": 0.7731439351,
				"element": "Cl" 
			},
			{
				"x": 2.7211686801,
				"y": 1.1885608947,
				"z": -1.6422450827,
				"element": "C" 
			},
			{
				"x": 1.6223536732,
				"y": 1.4008578542,
				"z": -2.4751649101,
				"element": "C" 
			},
			{
				"x": 1.8987043333,
				"y": 1.709157675,
				"z": -4.1804498079,
				"element": "Cl" 
			},
			{
				"x": 0.318275983,
				"y": 1.3740619042,
				"z": -1.9879099413,
				"element": "C" 
			},
			{
				"x": -5.1968931585,
				"y": -0.1104704357,
				"z": -0.1559117234,
				"element": "H" 
			},
			{
				"x": -3.5992918197,
				"y": -0.7482939986,
				"z": 0.2715818835,
				"element": "H" 
			},
			{
				"x": -4.0674864274,
				"y": -0.5875888937,
				"z": -1.4381805055,
				"element": "H" 
			},
			{
				"x": -4.1295669421,
				"y": 1.9241946086,
				"z": -1.1636851205,
				"element": "H" 
			},
			{
				"x": -3.6178425013,
				"y": 1.7337733589,
				"z": 0.5350599603,
				"element": "H" 
			},
			{
				"x": 1.0150539372,
				"y": 0.7202601181,
				"z": 1.2836815768,
				"element": "H" 
			},
			{
				"x": 3.729690396,
				"y": 1.2125291632,
				"z": -2.0362670203,
				"element": "H" 
			},
			{
				"x": -0.523053872,
				"y": 1.540636815,
				"z": -2.6475199995,
				"element": "H" 
			}
		],
		 "valence_orbital": [ 
			{
				"type": "occ",
				"energy": -0.32184,
				"method": "rhf"
			},
			{
				"type": "occ",
				"energy": -0.3103,
				"method": "rhf"
			},
			{
				"type": "occ",
				"energy": -0.28667,
				"method": "rhf"
			},
			{
				"type": "occ",
				"energy": -0.27329,
				"method": "rhf"
			},
			{
				"type": "occ",
				"energy": -0.25992,
				"method": "rhf"
			},
			{
				"type": "unocc",
				"energy": -0.06508,
				"method": "rhf"
			},
			{
				"type": "unocc",
				"energy": -0.03129,
				"method": "rhf"
			},
			{
				"type": "unocc",
				"energy": 0.00123,
				"method": "rhf"
			},
			{
				"type": "unocc",
				"energy": 0.03876,
				"method": "rhf"
			},
			{
				"type": "unocc",
				"energy": 0.04321,
				"method": "rhf"
			}
		],
		"cosmo_sigma_profile": { 
			"-0.025": 0.0,
			"-0.024": 0.0,
			"-0.023": 0.0,
			"-0.022": 0.0,
			"-0.021": 0.0,
			"-0.02": 0.0,
			"-0.019": 0.0,
			"-0.018": 0.0,
			"-0.017": 0.0,
			"-0.016": 0.0,
			"-0.015": 0.0,
			"-0.014": 0.0,
			"-0.013": 0.0,
			"-0.012": 0.0,
			"-0.011": 0.0,
			"-0.01": 0.0436835954696,
			"-0.009": 0.889821535075,
			"-0.008": 2.05405874393,
			"-0.007": 3.14004989586,
			"-0.006": 5.70458842312,
			"-0.005": 10.4706257219,
			"-0.004": 15.5411765639,
			"-0.003": 22.0579568066,
			"-0.002": 20.7806012625,
			"-0.001": 26.6815545271,
			"0.0": 40.764242049,
			"0.001": 21.7921700114,
			"0.002": 14.8373743973,
			"0.003": 18.230439608,
			"0.004": 20.6987030534,
			"0.005": 3.82655503432,
			"0.006": 1.87682062064,
			"0.007": 1.14274563164,
			"0.008": 1.11867831459,
			"0.009": 1.86379596965,
			"0.01": 1.88144260312,
			"0.011": 3.58350054394,
			"0.012": 1.46640445544,
			"0.013": 0.0,
			"0.014": 0.0,
			"0.015": 0.0,
			"0.016": 0.0,
			"0.017": 0.0,
			"0.018": 0.0,
			"0.019": 0.0,
			"0.02": 0.0,
			"0.021": 0.0,
			"0.022": 0.0,
			"0.023": 0.0,
			"0.024": 0.0,
			"0.025": 0.0
		}
	}
}
