{
	 "smiles": "N#CCC1=NC(=CS1)C1=CC=C(C=C1)C#N", 
	 "Tm": 451.15, 
	 "num_atms": 23, 
	 "gaussian": { 
		 "optdone": 1, 
		 "sigma_profile": "yes", 
		 "theory": "DFT", 
		 "functional": "B3LYP", 
		 "basiset": "6-31G**", 
		 "properties": { 
			 "R2extent": 6052.0977, 
			 "electric_dipole_moment_norm": 2.79672181312, 
			 "electric_quadrupole_moment_norm": 49.6947079433, 
			 "total_energy": -1023.89813196, 
			 "HOMO_LUMO_gap": 0.16848, 
			 "cosmo_polarized_energy": -17.38, 
			 "cosmo_cavitation_energy": 32.19, 
			 "cosmo_dispersion_energy": -22.82, 
			 "cosmo_repulsion_energy": 1.72, 
			 "cosmo_total_nonelectrostatic_energy": 11.1, 
			 "SMD_solvation_energy": 6.85 
		},
		"coords": [
			{
				"x": 2.308552241,
				"y": 5.541064575,
				"z": -2.8311608948,
				"element": "N" 
			},
			{
				"x": 2.389560921,
				"y": 4.4080484364,
				"z": -2.5957597303,
				"element": "C" 
			},
			{
				"x": 2.5015229304,
				"y": 2.9807235257,
				"z": -2.2855237572,
				"element": "C" 
			},
			{
				"x": 1.4476601045,
				"y": 2.469210289,
				"z": -1.3293618017,
				"element": "C" 
			},
			{
				"x": 1.0539529119,
				"y": 1.2335404356,
				"z": -1.3344560982,
				"element": "N" 
			},
			{
				"x": 0.1333634576,
				"y": 0.9803657197,
				"z": -0.3313077078,
				"element": "C" 
			},
			{
				"x": -0.1660635445,
				"y": 2.0755532005,
				"z": 0.4440683631,
				"element": "C" 
			},
			{
				"x": 0.7158369834,
				"y": 3.4632373776,
				"z": -0.0821575347,
				"element": "S" 
			},
			{
				"x": -0.4241774952,
				"y": -0.377876209,
				"z": -0.1972768241,
				"element": "C" 
			},
			{
				"x": -1.3262612104,
				"y": -0.7103508288,
				"z": 0.82889606,
				"element": "C" 
			},
			{
				"x": -1.8422721968,
				"y": -1.9943170554,
				"z": 0.9381205473,
				"element": "C" 
			},
			{
				"x": -1.4636219864,
				"y": -2.9856385951,
				"z": 0.0157846607,
				"element": "C" 
			},
			{
				"x": -0.5614958756,
				"y": -2.6643739437,
				"z": -1.0120489642,
				"element": "C" 
			},
			{
				"x": -0.0507562395,
				"y": -1.376455404,
				"z": -1.1134618019,
				"element": "C" 
			},
			{
				"x": -1.9934468433,
				"y": -4.3124631523,
				"z": 0.1259007673,
				"element": "C" 
			},
			{
				"x": -2.423921372,
				"y": -5.389706803,
				"z": 0.2161088588,
				"element": "N" 
			},
			{
				"x": 3.5013441387,
				"y": 2.7951033065,
				"z": -1.8709298801,
				"element": "H" 
			},
			{
				"x": 2.4274308398,
				"y": 2.3971259152,
				"z": -3.208827383,
				"element": "H" 
			},
			{
				"x": -0.858591114,
				"y": 2.1531932877,
				"z": 1.2690800852,
				"element": "H" 
			},
			{
				"x": -1.6292035148,
				"y": 0.0371032711,
				"z": 1.554875767,
				"element": "H" 
			},
			{
				"x": -2.5371758858,
				"y": -2.2398415866,
				"z": 1.7340319666,
				"element": "H" 
			},
			{
				"x": -0.2674527731,
				"y": -3.4275928632,
				"z": -1.7247482186,
				"element": "H" 
			},
			{
				"x": 0.6453155232,
				"y": -1.124452899,
				"z": -1.9046464796,
				"element": "H" 
			}
		],
		 "valence_orbital": [ 
			{
				"type": "occ",
				"energy": -0.31333,
				"method": "rhf"
			},
			{
				"type": "occ",
				"energy": -0.30418,
				"method": "rhf"
			},
			{
				"type": "occ",
				"energy": -0.29585,
				"method": "rhf"
			},
			{
				"type": "occ",
				"energy": -0.2807,
				"method": "rhf"
			},
			{
				"type": "occ",
				"energy": -0.24387,
				"method": "rhf"
			},
			{
				"type": "unocc",
				"energy": -0.07539,
				"method": "rhf"
			},
			{
				"type": "unocc",
				"energy": -0.04747,
				"method": "rhf"
			},
			{
				"type": "unocc",
				"energy": -0.02605,
				"method": "rhf"
			},
			{
				"type": "unocc",
				"energy": -0.0141,
				"method": "rhf"
			},
			{
				"type": "unocc",
				"energy": 0.01556,
				"method": "rhf"
			}
		],
		"cosmo_sigma_profile": { 
			"-0.025": 0.0,
			"-0.024": 0.0,
			"-0.023": 0.0,
			"-0.022": 0.0,
			"-0.021": 0.0,
			"-0.02": 0.0,
			"-0.019": 0.0,
			"-0.018": 0.0,
			"-0.017": 0.0,
			"-0.016": 0.0,
			"-0.015": 0.0,
			"-0.014": 0.0,
			"-0.013": 0.0,
			"-0.012": 0.0,
			"-0.011": 2.10819896133,
			"-0.01": 7.87671909559,
			"-0.009": 7.6457161504,
			"-0.008": 10.5182138434,
			"-0.007": 11.69826476,
			"-0.006": 13.0703423435,
			"-0.005": 10.9017491053,
			"-0.004": 10.6769204024,
			"-0.003": 11.0264998252,
			"-0.002": 13.8846139484,
			"-0.001": 19.0352469327,
			"0.0": 20.80204852,
			"0.001": 29.8124856644,
			"0.002": 25.8674879432,
			"0.003": 10.7547892185,
			"0.004": 5.63256333053,
			"0.005": 6.7938420599,
			"0.006": 5.62110118982,
			"0.007": 6.66708714619,
			"0.008": 8.12452678552,
			"0.009": 7.27824526887,
			"0.01": 6.1573675944,
			"0.011": 5.46219984442,
			"0.012": 4.60516903787,
			"0.013": 2.21261573342,
			"0.014": 0.0644304437808,
			"0.015": 0.0,
			"0.016": 0.0,
			"0.017": 0.0,
			"0.018": 0.0,
			"0.019": 0.0,
			"0.02": 0.0,
			"0.021": 0.0,
			"0.022": 0.0,
			"0.023": 0.0,
			"0.024": 0.0,
			"0.025": 0.0
		}
	}
}
