{
	 "smiles": "OC(=O)C1CCN(CC1)C1=C(C=C(C=C1)C(F)(F)F)[N+]([O-])=O", 
	 "Tm": 415.15, 
	 "num_atms": 35, 
	 "gaussian": { 
		 "optdone": 1, 
		 "sigma_profile": "yes", 
		 "theory": "DFT", 
		 "functional": "B3LYP", 
		 "basiset": "6-31G**", 
		 "properties": { 
			 "R2extent": 9168.3586, 
			 "electric_dipole_moment_norm": 6.41175267536, 
			 "electric_quadrupole_moment_norm": 23.8409913307, 
			 "total_energy": -1213.04272521, 
			 "HOMO_LUMO_gap": 0.13843, 
			 "cosmo_polarized_energy": -22.28, 
			 "cosmo_cavitation_energy": 39.4, 
			 "cosmo_dispersion_energy": -27.31, 
			 "cosmo_repulsion_energy": 1.99, 
			 "cosmo_total_nonelectrostatic_energy": 14.08, 
			 "SMD_solvation_energy": 10.21 
		},
		"coords": [
			{
				"x": -0.303212823,
				"y": 0.2375377036,
				"z": -5.0963746997,
				"element": "O" 
			},
			{
				"x": 0.5692659332,
				"y": 0.3688030164,
				"z": -4.0619194209,
				"element": "C" 
			},
			{
				"x": 1.6124769128,
				"y": -0.2370689788,
				"z": -4.0808469445,
				"element": "O" 
			},
			{
				"x": 0.1282746989,
				"y": 1.3181059114,
				"z": -2.9404703626,
				"element": "C" 
			},
			{
				"x": -1.1732132855,
				"y": 0.8443137703,
				"z": -2.2479343725,
				"element": "C" 
			},
			{
				"x": -0.9545094833,
				"y": -0.3814888554,
				"z": -1.344435574,
				"element": "C" 
			},
			{
				"x": 0.1018798134,
				"y": -0.102916568,
				"z": -0.3769825281,
				"element": "N" 
			},
			{
				"x": 1.3815942869,
				"y": 0.2751196854,
				"z": -0.990714205,
				"element": "C" 
			},
			{
				"x": 1.2395892402,
				"y": 1.5066387509,
				"z": -1.8929759765,
				"element": "C" 
			},
			{
				"x": -0.0188194503,
				"y": -0.3404741342,
				"z": 0.9756074609,
				"element": "C" 
			},
			{
				"x": -0.8436700112,
				"y": -1.3441984409,
				"z": 1.5510885576,
				"element": "C" 
			},
			{
				"x": -1.0862127191,
				"y": -1.4107063597,
				"z": 2.9271720048,
				"element": "C" 
			},
			{
				"x": -0.4409485064,
				"y": -0.5437058581,
				"z": 3.7924766474,
				"element": "C" 
			},
			{
				"x": 0.4530122686,
				"y": 0.4033048848,
				"z": 3.2647688395,
				"element": "C" 
			},
			{
				"x": 0.6486440298,
				"y": 0.5054593011,
				"z": 1.9014980613,
				"element": "C" 
			},
			{
				"x": -0.6981514804,
				"y": -0.5846088442,
				"z": 5.2704142652,
				"element": "C" 
			},
			{
				"x": 0.4533947664,
				"y": -0.4857361622,
				"z": 5.9747711153,
				"element": "F" 
			},
			{
				"x": -1.3144236115,
				"y": -1.7232781089,
				"z": 5.6489481594,
				"element": "F" 
			},
			{
				"x": -1.4812704743,
				"y": 0.4458324356,
				"z": 5.6707258327,
				"element": "F" 
			},
			{
				"x": -1.3732932915,
				"y": -2.4684821922,
				"z": 0.773343023,
				"element": "N" 
			},
			{
				"x": -2.4280897586,
				"y": -2.9816459441,
				"z": 1.1525391452,
				"element": "O" 
			},
			{
				"x": -0.704495907,
				"y": -2.8772073286,
				"z": -0.1790204827,
				"element": "O" 
			},
			{
				"x": -1.0765813309,
				"y": 0.8040984552,
				"z": -4.9650281036,
				"element": "H" 
			},
			{
				"x": -0.0746890254,
				"y": 2.2854349214,
				"z": -3.4225861166,
				"element": "H" 
			},
			{
				"x": -1.5569597245,
				"y": 1.6695756948,
				"z": -1.6377599222,
				"element": "H" 
			},
			{
				"x": -1.9534848242,
				"y": 0.6011565297,
				"z": -2.9795335567,
				"element": "H" 
			},
			{
				"x": -0.7159344428,
				"y": -1.2731220141,
				"z": -1.9395833007,
				"element": "H" 
			},
			{
				"x": -1.8855593377,
				"y": -0.5874894931,
				"z": -0.8134374194,
				"element": "H" 
			},
			{
				"x": 2.1207558071,
				"y": 0.4536712961,
				"z": -0.2097169571,
				"element": "H" 
			},
			{
				"x": 1.7422928849,
				"y": -0.5695926232,
				"z": -1.5911607534,
				"element": "H" 
			},
			{
				"x": 0.9964337838,
				"y": 2.383130561,
				"z": -1.2807867384,
				"element": "H" 
			},
			{
				"x": 2.1939345306,
				"y": 1.6965440522,
				"z": -2.3918246742,
				"element": "H" 
			},
			{
				"x": -1.7489594124,
				"y": -2.1826591514,
				"z": 3.2963495984,
				"element": "H" 
			},
			{
				"x": 0.9738645742,
				"y": 1.0823765005,
				"z": 3.9322275439,
				"element": "H" 
			},
			{
				"x": 1.285465369,
				"y": 1.2953775869,
				"z": 1.5203618543,
				"element": "H" 
			}
		],
		 "valence_orbital": [ 
			{
				"type": "occ",
				"energy": -0.30472,
				"method": "rhf"
			},
			{
				"type": "occ",
				"energy": -0.29828,
				"method": "rhf"
			},
			{
				"type": "occ",
				"energy": -0.28347,
				"method": "rhf"
			},
			{
				"type": "occ",
				"energy": -0.27809,
				"method": "rhf"
			},
			{
				"type": "occ",
				"energy": -0.22461,
				"method": "rhf"
			},
			{
				"type": "unocc",
				"energy": -0.08618,
				"method": "rhf"
			},
			{
				"type": "unocc",
				"energy": -0.03483,
				"method": "rhf"
			},
			{
				"type": "unocc",
				"energy": -0.01748,
				"method": "rhf"
			},
			{
				"type": "unocc",
				"energy": -0.00877,
				"method": "rhf"
			},
			{
				"type": "unocc",
				"energy": 0.03328,
				"method": "rhf"
			}
		],
		"cosmo_sigma_profile": { 
			"-0.025": 0.0,
			"-0.024": 0.0,
			"-0.023": 0.0,
			"-0.022": 0.0,
			"-0.021": 0.0,
			"-0.02": 0.0,
			"-0.019": 0.310671382985,
			"-0.018": 0.998960180099,
			"-0.017": 1.0351220253,
			"-0.016": 1.2064738011,
			"-0.015": 1.25640837056,
			"-0.014": 0.956574230936,
			"-0.013": 0.92826657856,
			"-0.012": 1.16382048249,
			"-0.011": 1.74179263605,
			"-0.01": 0.624504750015,
			"-0.009": 1.18685030825,
			"-0.008": 6.583279992,
			"-0.007": 10.4495913135,
			"-0.006": 13.5222583809,
			"-0.005": 19.468157606,
			"-0.004": 27.3346020273,
			"-0.003": 21.7508782451,
			"-0.002": 20.9482235969,
			"-0.001": 16.4300470332,
			"0.0": 18.6396027583,
			"0.001": 23.5737657571,
			"0.002": 26.1350876647,
			"0.003": 31.9532952198,
			"0.004": 6.88325315184,
			"0.005": 5.21600944638,
			"0.006": 5.83688834655,
			"0.007": 7.21296975643,
			"0.008": 12.0603435893,
			"0.009": 8.21900144755,
			"0.01": 7.60519694055,
			"0.011": 6.0246003853,
			"0.012": 3.71203588492,
			"0.013": 1.3375413539,
			"0.014": 0.0189723981113,
			"0.015": 0.0,
			"0.016": 0.0,
			"0.017": 0.0,
			"0.018": 0.0,
			"0.019": 0.0,
			"0.02": 0.0,
			"0.021": 0.0,
			"0.022": 0.0,
			"0.023": 0.0,
			"0.024": 0.0,
			"0.0": 0.0
		}
	}
}
