{
	 "smiles": "OC(=O)C1=CC(F)=C(C=C1)N1C=CC=N1", 
	 "Tm": 509.15, 
	 "num_atms": 22, 
	 "gaussian": { 
		 "optdone": 1, 
		 "sigma_profile": "yes", 
		 "theory": "DFT", 
		 "functional": "B3LYP", 
		 "basiset": "6-31G**", 
		 "properties": { 
			 "R2extent": 4001.0327, 
			 "electric_dipole_moment_norm": 2.2369004314, 
			 "electric_quadrupole_moment_norm": 10.4726034839, 
			 "total_energy": -745.058729538, 
			 "HOMO_LUMO_gap": 0.17324, 
			 "cosmo_polarized_energy": -10.63, 
			 "cosmo_cavitation_energy": 27.65, 
			 "cosmo_dispersion_energy": -20.57, 
			 "cosmo_repulsion_energy": 1.55, 
			 "cosmo_total_nonelectrostatic_energy": 8.63, 
			 "SMD_solvation_energy": 6.34 
		},
		"coords": [
			{
				"x": 3.774665314,
				"y": 1.4096964473,
				"z": -2.5039765561,
				"element": "O" 
			},
			{
				"x": 3.8927403482,
				"y": 0.6428958246,
				"z": -1.3906092355,
				"element": "C" 
			},
			{
				"x": 4.9630255503,
				"y": 0.208796508,
				"z": -1.0133306572,
				"element": "O" 
			},
			{
				"x": 2.5953303955,
				"y": 0.4053797013,
				"z": -0.7100831378,
				"element": "C" 
			},
			{
				"x": 1.3936069364,
				"y": 0.9332310396,
				"z": -1.1941112829,
				"element": "C" 
			},
			{
				"x": 0.2137020638,
				"y": 0.6781344898,
				"z": -0.516943472,
				"element": "C" 
			},
			{
				"x": -0.9259248648,
				"y": 1.2100211029,
				"z": -1.0227762698,
				"element": "F" 
			},
			{
				"x": 0.1749757082,
				"y": -0.099429713,
				"z": 0.6514726137,
				"element": "C" 
			},
			{
				"x": 1.3912759766,
				"y": -0.6219211324,
				"z": 1.1238262076,
				"element": "C" 
			},
			{
				"x": 2.5804988345,
				"y": -0.3736579767,
				"z": 0.4544978883,
				"element": "C" 
			},
			{
				"x": -1.0179549557,
				"y": -0.3704938809,
				"z": 1.3556716496,
				"element": "N" 
			},
			{
				"x": -2.309753979,
				"y": 0.0244724987,
				"z": 1.0942299603,
				"element": "C" 
			},
			{
				"x": -3.0976361569,
				"y": -0.5084350322,
				"z": 2.0857600579,
				"element": "C" 
			},
			{
				"x": -2.1981472636,
				"y": -1.2196608177,
				"z": 2.9166051814,
				"element": "C" 
			},
			{
				"x": -0.9497658759,
				"y": -1.1392828318,
				"z": 2.4819837279,
				"element": "N" 
			},
			{
				"x": 4.6734795243,
				"y": 1.4975594957,
				"z": -2.8613231033,
				"element": "H" 
			},
			{
				"x": 1.3620535062,
				"y": 1.5401206199,
				"z": -2.0905578898,
				"element": "H" 
			},
			{
				"x": 1.3657671408,
				"y": -1.2216615966,
				"z": 2.0239306627,
				"element": "H" 
			},
			{
				"x": 3.5162138691,
				"y": -0.7788345583,
				"z": 0.822706998,
				"element": "H" 
			},
			{
				"x": -2.5520766747,
				"y": 0.6368932807,
				"z": 0.2445994109,
				"element": "H" 
			},
			{
				"x": -4.1661566816,
				"y": -0.4002084002,
				"z": 2.1945026257,
				"element": "H" 
			},
			{
				"x": -2.4124187158,
				"y": -1.7861150686,
				"z": 3.8132246204,
				"element": "H" 
			}
		],
		 "valence_orbital": [ 
			{
				"type": "occ",
				"energy": -0.29861,
				"method": "rhf"
			},
			{
				"type": "occ",
				"energy": -0.28246,
				"method": "rhf"
			},
			{
				"type": "occ",
				"energy": -0.26817,
				"method": "rhf"
			},
			{
				"type": "occ",
				"energy": -0.25877,
				"method": "rhf"
			},
			{
				"type": "occ",
				"energy": -0.23678,
				"method": "rhf"
			},
			{
				"type": "unocc",
				"energy": -0.06354,
				"method": "rhf"
			},
			{
				"type": "unocc",
				"energy": -0.0168,
				"method": "rhf"
			},
			{
				"type": "unocc",
				"energy": 0.00461,
				"method": "rhf"
			},
			{
				"type": "unocc",
				"energy": 0.06283,
				"method": "rhf"
			},
			{
				"type": "unocc",
				"energy": 0.0681,
				"method": "rhf"
			}
		],
		"cosmo_sigma_profile": { 
			"-0.025": 0.0,
			"-0.024": 0.0,
			"-0.023": 0.0,
			"-0.022": 0.0,
			"-0.021": 0.0,
			"-0.02": 0.0,
			"-0.019": 0.0912532554996,
			"-0.018": 0.951697781485,
			"-0.017": 1.03086411204,
			"-0.016": 0.473170280914,
			"-0.015": 1.09463741988,
			"-0.014": 0.600091989538,
			"-0.013": 0.526157934063,
			"-0.012": 0.881334040178,
			"-0.011": 0.417331877217,
			"-0.01": 0.731254641204,
			"-0.009": 0.39580071576,
			"-0.008": 4.05032194299,
			"-0.007": 7.77884759858,
			"-0.006": 9.0092675125,
			"-0.005": 10.2003294016,
			"-0.004": 10.0323594882,
			"-0.003": 15.1412485875,
			"-0.002": 16.8049507205,
			"-0.001": 19.1203179228,
			"0.0": 22.2359076928,
			"0.001": 22.4004647375,
			"0.002": 18.7289458432,
			"0.003": 16.2405610117,
			"0.004": 10.6381857156,
			"0.005": 5.61976067839,
			"0.006": 5.45399979984,
			"0.007": 4.75103327969,
			"0.008": 2.67862963061,
			"0.009": 3.02272160209,
			"0.01": 3.25924690247,
			"0.011": 5.92908926376,
			"0.012": 3.22559905633,
			"0.013": 0.00391381465593,
			"0.014": 0.0,
			"0.015": 0.0,
			"0.016": 0.0,
			"0.017": 0.0,
			"0.018": 0.0,
			"0.019": 0.0,
			"0.02": 0.0,
			"0.021": 0.0,
			"0.022": 0.0,
			"0.023": 0.0,
			"0.024": 0.0,
			"0.025": 0.0
		}
	}
}
