{
	 "smiles": "ClC1=NC=C(CN2CCSC2=NC#N)C=C1", 
	 "Tm": 409.15, 
	 "num_atms": 25, 
	 "gaussian": { 
		 "optdone": 1, 
		 "sigma_profile": "yes", 
		 "theory": "DFT", 
		 "functional": "B3LYP", 
		 "basiset": "6-31G**", 
		 "properties": { 
			 "R2extent": 6065.2686, 
			 "electric_dipole_moment_norm": 6.03316400241, 
			 "electric_quadrupole_moment_norm": 45.4513385206, 
			 "total_energy": -1463.84704026, 
			 "HOMO_LUMO_gap": 0.19309, 
			 "cosmo_polarized_energy": -23.27, 
			 "cosmo_cavitation_energy": 34.08, 
			 "cosmo_dispersion_energy": -24.05, 
			 "cosmo_repulsion_energy": 1.85, 
			 "cosmo_total_nonelectrostatic_energy": 11.87, 
			 "SMD_solvation_energy": 4.84 
		},
		"coords": [
			{
				"x": 5.0211177744,
				"y": 0.5209287776,
				"z": 0.9511275245,
				"element": "Cl" 
			},
			{
				"x": 3.3616753059,
				"y": 0.1624076733,
				"z": 0.4877091621,
				"element": "C" 
			},
			{
				"x": 3.0104101125,
				"y": -1.1085400589,
				"z": 0.4673446688,
				"element": "N" 
			},
			{
				"x": 1.7459721966,
				"y": -1.3893758034,
				"z": 0.1183496887,
				"element": "C" 
			},
			{
				"x": 0.796102489,
				"y": -0.4246215363,
				"z": -0.2175710154,
				"element": "C" 
			},
			{
				"x": -0.6166129847,
				"y": -0.806842206,
				"z": -0.601472292,
				"element": "C" 
			},
			{
				"x": -1.6067037473,
				"y": -0.3432851501,
				"z": 0.3743258242,
				"element": "N" 
			},
			{
				"x": -1.7901953912,
				"y": -1.0644864291,
				"z": 1.6297832406,
				"element": "C" 
			},
			{
				"x": -2.6491579169,
				"y": -0.1679192253,
				"z": 2.5245817588,
				"element": "C" 
			},
			{
				"x": -3.7633714615,
				"y": 0.7399836598,
				"z": 1.3737040874,
				"element": "S" 
			},
			{
				"x": -2.6040821704,
				"y": 0.5169274018,
				"z": 0.034306698,
				"element": "C" 
			},
			{
				"x": -2.6560290063,
				"y": 1.0804412707,
				"z": -1.133818548,
				"element": "N" 
			},
			{
				"x": -3.6165844045,
				"y": 1.9510167542,
				"z": -1.4300830049,
				"element": "C" 
			},
			{
				"x": -4.4237053939,
				"y": 2.7235609407,
				"z": -1.7775317377,
				"element": "N" 
			},
			{
				"x": 1.2053670445,
				"y": 0.9175218031,
				"z": -0.1865454322,
				"element": "C" 
			},
			{
				"x": 2.510537736,
				"y": 1.2287167716,
				"z": 0.1702143838,
				"element": "C" 
			},
			{
				"x": 1.4847913065,
				"y": -2.4469588422,
				"z": 0.1032621742,
				"element": "H" 
			},
			{
				"x": -0.6991425445,
				"y": -1.897076706,
				"z": -0.6981732046,
				"element": "H" 
			},
			{
				"x": -0.8932953735,
				"y": -0.3631520734,
				"z": -1.5604229083,
				"element": "H" 
			},
			{
				"x": -0.8159004213,
				"y": -1.2624023482,
				"z": 2.0869851976,
				"element": "H" 
			},
			{
				"x": -2.2861991393,
				"y": -2.0287961445,
				"z": 1.4433665076,
				"element": "H" 
			},
			{
				"x": -2.0419417909,
				"y": 0.5565036539,
				"z": 3.0719311205,
				"element": "H" 
			},
			{
				"x": -3.248545487,
				"y": -0.7442933503,
				"z": 3.2299239136,
				"element": "H" 
			},
			{
				"x": 0.5051748921,
				"y": 1.7071324638,
				"z": -0.4456452208,
				"element": "H" 
			},
			{
				"x": 2.8675183757,
				"y": 2.2511087031,
				"z": 0.2013474134,
				"element": "H" 
			}
		],
		 "valence_orbital": [ 
			{
				"type": "occ",
				"energy": -0.29026,
				"method": "rhf"
			},
			{
				"type": "occ",
				"energy": -0.27696,
				"method": "rhf"
			},
			{
				"type": "occ",
				"energy": -0.27057,
				"method": "rhf"
			},
			{
				"type": "occ",
				"energy": -0.26737,
				"method": "rhf"
			},
			{
				"type": "occ",
				"energy": -0.24762,
				"method": "rhf"
			},
			{
				"type": "unocc",
				"energy": -0.05453,
				"method": "rhf"
			},
			{
				"type": "unocc",
				"energy": -0.0441,
				"method": "rhf"
			},
			{
				"type": "unocc",
				"energy": -0.03068,
				"method": "rhf"
			},
			{
				"type": "unocc",
				"energy": -0.01902,
				"method": "rhf"
			},
			{
				"type": "unocc",
				"energy": 0.02368,
				"method": "rhf"
			}
		],
		"cosmo_sigma_profile": { 
			"-0.025": 0.0,
			"-0.024": 0.0,
			"-0.023": 0.0,
			"-0.022": 0.0,
			"-0.021": 0.0,
			"-0.02": 0.0,
			"-0.019": 0.0,
			"-0.018": 0.0,
			"-0.017": 0.0,
			"-0.016": 0.0,
			"-0.015": 0.0,
			"-0.014": 0.0,
			"-0.013": 0.0,
			"-0.012": 0.0,
			"-0.011": 0.0,
			"-0.01": 0.0,
			"-0.009": 0.926529341285,
			"-0.008": 10.9175570124,
			"-0.007": 22.632356744,
			"-0.006": 22.7017409631,
			"-0.005": 19.985968242,
			"-0.004": 17.644862004,
			"-0.003": 12.2882821065,
			"-0.002": 13.706613221,
			"-0.001": 16.7888435398,
			"0.0": 21.2138835332,
			"0.001": 17.3412003203,
			"0.002": 14.9146680912,
			"0.003": 16.6165495949,
			"0.004": 16.7546178712,
			"0.005": 11.3309548836,
			"0.006": 7.82157096056,
			"0.007": 4.76088433089,
			"0.008": 4.06252519154,
			"0.009": 3.07287319418,
			"0.01": 4.27773413165,
			"0.011": 4.19027740868,
			"0.012": 4.80577310692,
			"0.013": 4.05948361731,
			"0.014": 3.72862857828,
			"0.015": 1.776000198,
			"0.016": 0.0268174635677,
			"0.017": 0.0,
			"0.018": 0.0,
			"0.019": 0.0,
			"0.02": 0.0,
			"0.021": 0.0,
			"0.022": 0.0,
			"0.023": 0.0,
			"0.024": 0.0,
			"0.025": 0.0
		}
	}
}
