{
	 "smiles": "OC(=O)CCC1=C(C=CC=C1)[N+]([O-])=O", 
	 "Tm": 383.15, 
	 "num_atms": 23, 
	 "gaussian": { 
		 "optdone": 1, 
		 "sigma_profile": "yes", 
		 "theory": "DFT", 
		 "functional": "B3LYP", 
		 "basiset": "6-31G**", 
		 "properties": { 
			 "R2extent": 3555.7568, 
			 "electric_dipole_moment_norm": 7.08321826926, 
			 "electric_quadrupole_moment_norm": 21.0844795632, 
			 "total_energy": -703.940915548, 
			 "HOMO_LUMO_gap": 0.15116, 
			 "cosmo_polarized_energy": -15.63, 
			 "cosmo_cavitation_energy": 27.3, 
			 "cosmo_dispersion_energy": -19.95, 
			 "cosmo_repulsion_energy": 1.56, 
			 "cosmo_total_nonelectrostatic_energy": 8.91, 
			 "SMD_solvation_energy": 7.32 
		},
		"coords": [
			{
				"x": 0.973495477,
				"y": -3.0438346232,
				"z": -2.8757833919,
				"element": "O" 
			},
			{
				"x": 0.4394736597,
				"y": -1.9032639528,
				"z": -3.3787664667,
				"element": "C" 
			},
			{
				"x": 0.2488353668,
				"y": -1.7800939346,
				"z": -4.5634585586,
				"element": "O" 
			},
			{
				"x": 0.0966480359,
				"y": -0.8429613586,
				"z": -2.338211928,
				"element": "C" 
			},
			{
				"x": -1.0684366831,
				"y": -1.2966769387,
				"z": -1.4164830155,
				"element": "C" 
			},
			{
				"x": -1.1292367526,
				"y": -0.5086322503,
				"z": -0.1274810404,
				"element": "C" 
			},
			{
				"x": -0.4026650004,
				"y": -0.8039969024,
				"z": 1.0448993939,
				"element": "C" 
			},
			{
				"x": -0.5192857133,
				"y": -0.0402762356,
				"z": 2.2112456956,
				"element": "C" 
			},
			{
				"x": -1.3555666596,
				"y": 1.0683497896,
				"z": 2.2292234122,
				"element": "C" 
			},
			{
				"x": -2.0877184185,
				"y": 1.3918797538,
				"z": 1.084894067,
				"element": "C" 
			},
			{
				"x": -1.9761688411,
				"y": 0.6079731508,
				"z": -0.0613176019,
				"element": "C" 
			},
			{
				"x": 0.51984163,
				"y": -1.9486978905,
				"z": 1.1278310928,
				"element": "N" 
			},
			{
				"x": 0.9796583968,
				"y": -2.4249552253,
				"z": 0.0807475345,
				"element": "O" 
			},
			{
				"x": 0.8094750597,
				"y": -2.3715391776,
				"z": 2.2419168081,
				"element": "O" 
			},
			{
				"x": 1.0963595049,
				"y": -2.9673871504,
				"z": -1.9151728976,
				"element": "H" 
			},
			{
				"x": 0.9866124348,
				"y": -0.6486785578,
				"z": -1.731733068,
				"element": "H" 
			},
			{
				"x": -0.1674305672,
				"y": 0.0750809858,
				"z": -2.8657138799,
				"element": "H" 
			},
			{
				"x": -2.0130581724,
				"y": -1.1598734722,
				"z": -1.9516948344,
				"element": "H" 
			},
			{
				"x": -0.9773398722,
				"y": -2.3625340671,
				"z": -1.2030725859,
				"element": "H" 
			},
			{
				"x": 0.0535312909,
				"y": -0.3315245533,
				"z": 3.0824311934,
				"element": "H" 
			},
			{
				"x": -1.437627676,
				"y": 1.669971631,
				"z": 3.1283643795,
				"element": "H" 
			},
			{
				"x": -2.7516829514,
				"y": 2.25103462,
				"z": 1.0860763269,
				"element": "H" 
			},
			{
				"x": -2.5641135489,
				"y": 0.8575363595,
				"z": -0.9399406349,
				"element": "H" 
			}
		],
		 "valence_orbital": [ 
			{
				"type": "occ",
				"energy": -0.31646,
				"method": "rhf"
			},
			{
				"type": "occ",
				"energy": -0.30579,
				"method": "rhf"
			},
			{
				"type": "occ",
				"energy": -0.29303,
				"method": "rhf"
			},
			{
				"type": "occ",
				"energy": -0.28652,
				"method": "rhf"
			},
			{
				"type": "occ",
				"energy": -0.2598,
				"method": "rhf"
			},
			{
				"type": "unocc",
				"energy": -0.10864,
				"method": "rhf"
			},
			{
				"type": "unocc",
				"energy": -0.04088,
				"method": "rhf"
			},
			{
				"type": "unocc",
				"energy": -0.02235,
				"method": "rhf"
			},
			{
				"type": "unocc",
				"energy": 0.01531,
				"method": "rhf"
			},
			{
				"type": "unocc",
				"energy": 0.06417,
				"method": "rhf"
			}
		],
		"cosmo_sigma_profile": { 
			"-0.025": 0.0,
			"-0.024": 0.0,
			"-0.023": 0.0,
			"-0.022": 0.0,
			"-0.021": 0.0,
			"-0.02": 0.0,
			"-0.019": 0.0,
			"-0.018": 0.0,
			"-0.017": 0.0,
			"-0.016": 0.0,
			"-0.015": 0.0,
			"-0.014": 0.0,
			"-0.013": 0.0,
			"-0.012": 0.0,
			"-0.011": 0.0,
			"-0.01": 0.179408035359,
			"-0.009": 1.26388532006,
			"-0.008": 4.36652265652,
			"-0.007": 13.9780273706,
			"-0.006": 19.9657637472,
			"-0.005": 21.0488094466,
			"-0.004": 16.3865312853,
			"-0.003": 16.2771623931,
			"-0.002": 12.7282023196,
			"-0.001": 10.528816696,
			"0.0": 11.8063951173,
			"0.001": 14.0969729537,
			"0.002": 15.1709750371,
			"0.003": 6.22701870366,
			"0.004": 3.91386144412,
			"0.005": 4.0079428942,
			"0.006": 5.4238792817,
			"0.007": 8.38660961212,
			"0.008": 6.45638777863,
			"0.009": 6.11520910769,
			"0.01": 4.52521168419,
			"0.011": 6.11151854061,
			"0.012": 5.88211947592,
			"0.013": 2.81703651127,
			"0.014": 0.147472810395,
			"0.015": 0.0,
			"0.016": 0.0,
			"0.017": 0.0,
			"0.018": 0.0,
			"0.019": 0.0,
			"0.02": 0.0,
			"0.021": 0.0,
			"0.022": 0.0,
			"0.023": 0.0,
			"0.024": 0.0,
			"0.025": 0.0
		}
	}
}
