{
	 "smiles": "O=C(NC1=CC=NN1)OCC1=CC=CC=C1", 
	 "Tm": 468.15, 
	 "num_atms": 27, 
	 "gaussian": { 
		 "optdone": 1, 
		 "sigma_profile": "yes", 
		 "theory": "DFT", 
		 "functional": "B3LYP", 
		 "basiset": "6-31G**", 
		 "properties": { 
			 "R2extent": 4815.2255, 
			 "electric_dipole_moment_norm": 1.52358699784, 
			 "electric_quadrupole_moment_norm": 20.8547747423, 
			 "total_energy": -740.491001655, 
			 "HOMO_LUMO_gap": 0.19573, 
			 "cosmo_polarized_energy": -18.8, 
			 "cosmo_cavitation_energy": 32.63, 
			 "cosmo_dispersion_energy": -23.01, 
			 "cosmo_repulsion_energy": 1.81, 
			 "cosmo_total_nonelectrostatic_energy": 11.43, 
			 "SMD_solvation_energy": 5.93 
		},
		"coords": [
			{
				"x": -2.548583586,
				"y": -0.1225966699,
				"z": -1.1025862162,
				"element": "O" 
			},
			{
				"x": -1.6358658994,
				"y": 0.5900512989,
				"z": -0.7286152739,
				"element": "C" 
			},
			{
				"x": -1.8079929678,
				"y": 1.9346202548,
				"z": -0.4671545457,
				"element": "N" 
			},
			{
				"x": -0.8802695721,
				"y": 2.8846698718,
				"z": -0.0372517247,
				"element": "C" 
			},
			{
				"x": 0.470181667,
				"y": 2.8448859403,
				"z": 0.26836996,
				"element": "C" 
			},
			{
				"x": 0.7756819255,
				"y": 4.1759233805,
				"z": 0.6388417688,
				"element": "C" 
			},
			{
				"x": -0.2745368277,
				"y": 4.9867847369,
				"z": 0.5765123196,
				"element": "N" 
			},
			{
				"x": -1.2816030775,
				"y": 4.1734318854,
				"z": 0.1590528969,
				"element": "N" 
			},
			{
				"x": -0.3672219421,
				"y": 0.1903905784,
				"z": -0.5211503494,
				"element": "O" 
			},
			{
				"x": -0.1244832127,
				"y": -1.220693632,
				"z": -0.7816200037,
				"element": "C" 
			},
			{
				"x": 1.3265741238,
				"y": -1.4984457682,
				"z": -0.5018294077,
				"element": "C" 
			},
			{
				"x": 2.284243051,
				"y": -1.3621578355,
				"z": -1.5146833635,
				"element": "C" 
			},
			{
				"x": 3.6329120599,
				"y": -1.6039771075,
				"z": -1.2527441779,
				"element": "C" 
			},
			{
				"x": 4.0376498085,
				"y": -1.9852801624,
				"z": 0.0282060749,
				"element": "C" 
			},
			{
				"x": 3.0904051606,
				"y": -2.1235552273,
				"z": 1.0448871698,
				"element": "C" 
			},
			{
				"x": 1.7425141091,
				"y": -1.8809845251,
				"z": 0.7796646001,
				"element": "C" 
			},
			{
				"x": -2.7604911098,
				"y": 2.2307824745,
				"z": -0.6236753299,
				"element": "H" 
			},
			{
				"x": 1.1186729686,
				"y": 1.9875719682,
				"z": 0.2265710436,
				"element": "H" 
			},
			{
				"x": 1.7341208456,
				"y": 4.569845277,
				"z": 0.9506786855,
				"element": "H" 
			},
			{
				"x": -2.2023412199,
				"y": 4.563562993,
				"z": 0.0324359167,
				"element": "H" 
			},
			{
				"x": -0.388929026,
				"y": -1.4308076024,
				"z": -1.8214196074,
				"element": "H" 
			},
			{
				"x": -0.7855901165,
				"y": -1.8094833886,
				"z": -0.1401435235,
				"element": "H" 
			},
			{
				"x": 1.9694390337,
				"y": -1.066717249,
				"z": -2.5123463692,
				"element": "H" 
			},
			{
				"x": 4.3661496596,
				"y": -1.4982147705,
				"z": -2.0470093783,
				"element": "H" 
			},
			{
				"x": 5.0870385122,
				"y": -2.177405175,
				"z": 0.2325385179,
				"element": "H" 
			},
			{
				"x": 3.4007242344,
				"y": -2.4228226682,
				"z": 2.0417929542,
				"element": "H" 
			},
			{
				"x": 1.005301398,
				"y": -1.9900788781,
				"z": 1.5710773632,
				"element": "H" 
			}
		],
		 "valence_orbital": [ 
			{
				"type": "occ",
				"energy": -0.27931,
				"method": "rhf"
			},
			{
				"type": "occ",
				"energy": -0.25897,
				"method": "rhf"
			},
			{
				"type": "occ",
				"energy": -0.25739,
				"method": "rhf"
			},
			{
				"type": "occ",
				"energy": -0.25395,
				"method": "rhf"
			},
			{
				"type": "occ",
				"energy": -0.2147,
				"method": "rhf"
			},
			{
				"type": "unocc",
				"energy": -0.01897,
				"method": "rhf"
			},
			{
				"type": "unocc",
				"energy": -0.01018,
				"method": "rhf"
			},
			{
				"type": "unocc",
				"energy": 0.01338,
				"method": "rhf"
			},
			{
				"type": "unocc",
				"energy": 0.05398,
				"method": "rhf"
			},
			{
				"type": "unocc",
				"energy": 0.05918,
				"method": "rhf"
			}
		],
		"cosmo_sigma_profile": { 
			"-0.025": 0.0,
			"-0.024": 0.0,
			"-0.023": 0.0,
			"-0.022": 0.0,
			"-0.021": 0.0,
			"-0.02": 0.00578245111551,
			"-0.019": 0.856839907705,
			"-0.018": 1.34628909642,
			"-0.017": 2.45779307031,
			"-0.016": 2.57671083771,
			"-0.015": 1.94750940027,
			"-0.014": 1.56627151569,
			"-0.013": 1.18691744573,
			"-0.012": 0.955489006936,
			"-0.011": 1.34237958641,
			"-0.01": 1.65323839239,
			"-0.009": 0.964774446735,
			"-0.008": 1.01585515037,
			"-0.007": 3.39482670396,
			"-0.006": 16.878229769,
			"-0.005": 18.2673995425,
			"-0.004": 19.3740117899,
			"-0.003": 16.5934989181,
			"-0.002": 15.6608738684,
			"-0.001": 16.9103855268,
			"0.0": 13.8432457118,
			"0.001": 14.0460293094,
			"0.002": 14.5280772076,
			"0.003": 17.7379491222,
			"0.004": 19.8095071515,
			"0.005": 18.2725252211,
			"0.006": 8.16202406799,
			"0.007": 3.2223737335,
			"0.008": 3.47129417227,
			"0.009": 2.43922462233,
			"0.01": 2.64431858228,
			"0.011": 3.53284462773,
			"0.012": 6.15950156883,
			"0.013": 4.25652241818,
			"0.014": 1.33613334047,
			"0.015": 1.19165558463,
			"0.016": 1.0268144475,
			"0.017": 0.133803007274,
			"0.018": 0.0,
			"0.019": 0.0,
			"0.02": 0.0,
			"0.021": 0.0,
			"0.022": 0.0,
			"0.023": 0.0,
			"0.024": 0.0,
			"0.025": 0.0
		}
	}
}
