{
	 "smiles": "NCC1=CC=C(C=C1)C1=CC2=C(OCCC2)C=C1", 
	 "Tm": 363.15, 
	 "num_atms": 35, 
	 "gaussian": { 
		 "optdone": 1, 
		 "sigma_profile": "yes", 
		 "theory": "DFT", 
		 "functional": "B3LYP", 
		 "basiset": "6-31G**", 
		 "properties": { 
			 "R2extent": 7244.06, 
			 "electric_dipole_moment_norm": 2.59017140166, 
			 "electric_quadrupole_moment_norm": 15.2604034999, 
			 "total_energy": -749.931792551, 
			 "HOMO_LUMO_gap": 0.18261, 
			 "cosmo_polarized_energy": -10.77, 
			 "cosmo_cavitation_energy": 37.01, 
			 "cosmo_dispersion_energy": -27.47, 
			 "cosmo_repulsion_energy": 2.13, 
			 "cosmo_total_nonelectrostatic_energy": 11.68, 
			 "SMD_solvation_energy": 4.75 
		},
		"coords": [
			{
				"x": -0.8576612357,
				"y": 3.94389029,
				"z": 4.6798297977,
				"element": "N" 
			},
			{
				"x": 0.0617357089,
				"y": 4.047004525,
				"z": 3.5418784242,
				"element": "C" 
			},
			{
				"x": 0.0353087886,
				"y": 2.7985446409,
				"z": 2.6808234615,
				"element": "C" 
			},
			{
				"x": 0.2095594124,
				"y": 2.882002556,
				"z": 1.2947755525,
				"element": "C" 
			},
			{
				"x": 0.2287155152,
				"y": 1.7367327756,
				"z": 0.5010093367,
				"element": "C" 
			},
			{
				"x": 0.0591917484,
				"y": 0.4611019346,
				"z": 1.0647043717,
				"element": "C" 
			},
			{
				"x": -0.1257314088,
				"y": 0.3852075208,
				"z": 2.4566622228,
				"element": "C" 
			},
			{
				"x": -0.1344584465,
				"y": 1.5298393907,
				"z": 3.2499891101,
				"element": "C" 
			},
			{
				"x": 0.0701795297,
				"y": -0.7616959469,
				"z": 0.2238061168,
				"element": "C" 
			},
			{
				"x": -0.4947468082,
				"y": -0.7689418865,
				"z": -1.0592747651,
				"element": "C" 
			},
			{
				"x": -0.5006112829,
				"y": -1.9039551132,
				"z": -1.8755888133,
				"element": "C" 
			},
			{
				"x": 0.084162187,
				"y": -3.0813978969,
				"z": -1.3800596232,
				"element": "C" 
			},
			{
				"x": 0.1514349524,
				"y": -4.2479420796,
				"z": -2.0955623912,
				"element": "O" 
			},
			{
				"x": -0.6633476839,
				"y": -4.3330997667,
				"z": -3.2689627718,
				"element": "C" 
			},
			{
				"x": -0.5975905934,
				"y": -3.0568829685,
				"z": -4.1003378932,
				"element": "C" 
			},
			{
				"x": -1.1135532323,
				"y": -1.880786104,
				"z": -3.2620338934,
				"element": "C" 
			},
			{
				"x": 0.6634200544,
				"y": -3.0995020919,
				"z": -0.1055166465,
				"element": "C" 
			},
			{
				"x": 0.655146858,
				"y": -1.9567169572,
				"z": 0.6827184342,
				"element": "C" 
			},
			{
				"x": -0.7690290849,
				"y": 4.7641132225,
				"z": 5.2736942963,
				"element": "H" 
			},
			{
				"x": -1.8182921988,
				"y": 3.9237882291,
				"z": 4.3453781031,
				"element": "H" 
			},
			{
				"x": 1.0716960033,
				"y": 4.1770589561,
				"z": 3.9561834149,
				"element": "H" 
			},
			{
				"x": -0.1145541046,
				"y": 4.9232712684,
				"z": 2.8934906147,
				"element": "H" 
			},
			{
				"x": 0.3418579542,
				"y": 3.8564816075,
				"z": 0.8292084706,
				"element": "H" 
			},
			{
				"x": 0.3952645761,
				"y": 1.8309084062,
				"z": -0.5682618807,
				"element": "H" 
			},
			{
				"x": -0.2894920066,
				"y": -0.5840762012,
				"z": 2.9192105416,
				"element": "H" 
			},
			{
				"x": -0.2943004812,
				"y": 1.4560523219,
				"z": 4.3209979306,
				"element": "H" 
			},
			{
				"x": -0.9662030144,
				"y": 0.1362029711,
				"z": -1.4351589697,
				"element": "H" 
			},
			{
				"x": -0.2873410106,
				"y": -5.2000597578,
				"z": -3.8181283119,
				"element": "H" 
			},
			{
				"x": -1.7025637204,
				"y": -4.5397568102,
				"z": -2.971052558,
				"element": "H" 
			},
			{
				"x": -1.1884456368,
				"y": -3.180280325,
				"z": -5.0145558579,
				"element": "H" 
			},
			{
				"x": 0.442308236,
				"y": -2.8832606863,
				"z": -4.4012172565,
				"element": "H" 
			},
			{
				"x": -2.2087927493,
				"y": -1.9393159467,
				"z": -3.1877629845,
				"element": "H" 
			},
			{
				"x": -0.8912029423,
				"y": -0.9271102842,
				"z": -3.7540719351,
				"element": "H" 
			},
			{
				"x": 1.1217006108,
				"y": -4.0204405528,
				"z": 0.2405573718,
				"element": "H" 
			},
			{
				"x": 1.1297355061,
				"y": -1.9812792408,
				"z": 1.6590289803,
				"element": "H" 
			}
		],
		 "valence_orbital": [ 
			{
				"type": "occ",
				"energy": -0.2469,
				"method": "rhf"
			},
			{
				"type": "occ",
				"energy": -0.24053,
				"method": "rhf"
			},
			{
				"type": "occ",
				"energy": -0.23812,
				"method": "rhf"
			},
			{
				"type": "occ",
				"energy": -0.23218,
				"method": "rhf"
			},
			{
				"type": "occ",
				"energy": -0.19608,
				"method": "rhf"
			},
			{
				"type": "unocc",
				"energy": -0.01347,
				"method": "rhf"
			},
			{
				"type": "unocc",
				"energy": 0.00128,
				"method": "rhf"
			},
			{
				"type": "unocc",
				"energy": 0.00817,
				"method": "rhf"
			},
			{
				"type": "unocc",
				"energy": 0.0413,
				"method": "rhf"
			},
			{
				"type": "unocc",
				"energy": 0.09014,
				"method": "rhf"
			}
		],
		"cosmo_sigma_profile": { 
			"-0.025": 0.0,
			"-0.024": 0.0,
			"-0.023": 0.0,
			"-0.022": 0.0,
			"-0.021": 0.0,
			"-0.02": 0.0,
			"-0.019": 0.0,
			"-0.018": 0.0,
			"-0.017": 0.0,
			"-0.016": 0.0,
			"-0.015": 0.0,
			"-0.014": 0.0,
			"-0.013": 0.0,
			"-0.012": 0.0,
			"-0.011": 0.011236582417,
			"-0.01": 1.29198651575,
			"-0.009": 2.89725341926,
			"-0.008": 2.37956874001,
			"-0.007": 2.74981407795,
			"-0.006": 4.50353276666,
			"-0.005": 17.0879987943,
			"-0.004": 34.3015687897,
			"-0.003": 36.4205033098,
			"-0.002": 31.5333649802,
			"-0.001": 27.5907770558,
			"0.0": 15.9615973048,
			"0.001": 14.1487416884,
			"0.002": 12.9557270108,
			"0.003": 16.1238594701,
			"0.004": 19.6874745134,
			"0.005": 18.778189211,
			"0.006": 17.536765186,
			"0.007": 3.32412820317,
			"0.008": 2.12920843608,
			"0.009": 3.45136454978,
			"0.01": 1.58335656533,
			"0.011": 2.06955772106,
			"0.012": 1.02892433051,
			"0.013": 0.218917057768,
			"0.014": 0.705841215049,
			"0.015": 0.625472330578,
			"0.016": 0.420364074837,
			"0.017": 0.458560591536,
			"0.018": 0.0,
			"0.019": 0.0,
			"0.02": 0.0,
			"0.021": 0.0,
			"0.022": 0.0,
			"0.023": 0.0,
			"0.024": 0.0,
			"0.025": 0.0
		}
	}
}
