{
	 "smiles": "NS(=O)(=O)C1=CC(F)=C(C=C1)S(Cl)(=O)=O", 
	 "Tm": 385.15, 
	 "num_atms": 20, 
	 "gaussian": { 
		 "optdone": 1, 
		 "sigma_profile": "yes", 
		 "theory": "DFT", 
		 "functional": "B3LYP", 
		 "basiset": "6-31G**", 
		 "properties": { 
			 "R2extent": 5234.7961, 
			 "electric_dipole_moment_norm": 4.40957421414, 
			 "electric_quadrupole_moment_norm": 22.6424345051, 
			 "total_energy": -1943.54571339, 
			 "HOMO_LUMO_gap": 0.19222, 
			 "cosmo_polarized_energy": -22.25, 
			 "cosmo_cavitation_energy": 30.46, 
			 "cosmo_dispersion_energy": -23.1, 
			 "cosmo_repulsion_energy": 1.7, 
			 "cosmo_total_nonelectrostatic_energy": 9.06, 
			 "SMD_solvation_energy": 4.08 
		},
		"coords": [
			{
				"x": 0.1818492284,
				"y": 3.7628884241,
				"z": -1.0255904816,
				"element": "N" 
			},
			{
				"x": 1.3937054611,
				"y": 2.6431648556,
				"z": -1.2763485772,
				"element": "S" 
			},
			{
				"x": 1.498268067,
				"y": 2.4779029454,
				"z": -2.722533116,
				"element": "O" 
			},
			{
				"x": 2.5048009708,
				"y": 3.0513235825,
				"z": -0.4230154497,
				"element": "O" 
			},
			{
				"x": 0.784915984,
				"y": 1.0707571901,
				"z": -0.6158873718,
				"element": "C" 
			},
			{
				"x": 0.092037369,
				"y": 0.2104369984,
				"z": -1.4673393302,
				"element": "C" 
			},
			{
				"x": -0.3914976465,
				"y": -0.983219881,
				"z": -0.9472568699,
				"element": "C" 
			},
			{
				"x": -1.0693785568,
				"y": -1.8126402095,
				"z": -1.7419330999,
				"element": "F" 
			},
			{
				"x": -0.1844472707,
				"y": -1.310231164,
				"z": 0.3969782618,
				"element": "C" 
			},
			{
				"x": 0.5215179495,
				"y": -0.4431844347,
				"z": 1.2346150885,
				"element": "C" 
			},
			{
				"x": 1.0151780501,
				"y": 0.755954034,
				"z": 0.7253502125,
				"element": "C" 
			},
			{
				"x": -0.7518073732,
				"y": -2.8704716379,
				"z": 1.0699961586,
				"element": "S" 
			},
			{
				"x": -2.8505502304,
				"y": -2.5696626034,
				"z": 1.0521226611,
				"element": "Cl" 
			},
			{
				"x": -0.3513275763,
				"y": -2.9258044202,
				"z": 2.4695875676,
				"element": "O" 
			},
			{
				"x": -0.4691750167,
				"y": -3.9491748455,
				"z": 0.137261609,
				"element": "O" 
			},
			{
				"x": 0.0126420945,
				"y": 3.9940647993,
				"z": -0.0531084488,
				"element": "H" 
			},
			{
				"x": -0.6525928017,
				"y": 3.6155688416,
				"z": -1.5822276757,
				"element": "H" 
			},
			{
				"x": -0.0502117619,
				"y": 0.4428117824,
				"z": -2.5166773594,
				"element": "H" 
			},
			{
				"x": 0.6815506363,
				"y": -0.7235412332,
				"z": 2.2694461714,
				"element": "H" 
			},
			{
				"x": 1.5925224236,
				"y": 1.4286569761,
				"z": 1.3492600498,
				"element": "H" 
			}
		],
		 "valence_orbital": [ 
			{
				"type": "occ",
				"energy": -0.33029,
				"method": "rhf"
			},
			{
				"type": "occ",
				"energy": -0.32967,
				"method": "rhf"
			},
			{
				"type": "occ",
				"energy": -0.32775,
				"method": "rhf"
			},
			{
				"type": "occ",
				"energy": -0.30997,
				"method": "rhf"
			},
			{
				"type": "occ",
				"energy": -0.30006,
				"method": "rhf"
			},
			{
				"type": "unocc",
				"energy": -0.10784,
				"method": "rhf"
			},
			{
				"type": "unocc",
				"energy": -0.07743,
				"method": "rhf"
			},
			{
				"type": "unocc",
				"energy": -0.05785,
				"method": "rhf"
			},
			{
				"type": "unocc",
				"energy": 0.015,
				"method": "rhf"
			},
			{
				"type": "unocc",
				"energy": 0.03291,
				"method": "rhf"
			}
		],
		"cosmo_sigma_profile": { 
			"-0.025": 0.0,
			"-0.024": 0.0,
			"-0.023": 0.0,
			"-0.022": 0.0,
			"-0.021": 0.0,
			"-0.02": 0.0,
			"-0.019": 0.0,
			"-0.018": 0.0,
			"-0.017": 0.00583933568343,
			"-0.016": 1.73909810206,
			"-0.015": 2.82326854713,
			"-0.014": 2.95018631674,
			"-0.013": 3.04883849767,
			"-0.012": 2.42775493263,
			"-0.011": 3.34078545609,
			"-0.01": 3.41800522536,
			"-0.009": 6.0120270265,
			"-0.008": 6.80084921061,
			"-0.007": 7.20191710627,
			"-0.006": 7.27354670907,
			"-0.005": 7.39265280883,
			"-0.004": 14.4891540519,
			"-0.003": 16.3362508937,
			"-0.002": 15.8808811424,
			"-0.001": 13.725575923,
			"0.0": 11.1557598429,
			"0.001": 13.017715728,
			"0.002": 22.4830549829,
			"0.003": 15.1571966023,
			"0.004": 5.84017256928,
			"0.005": 6.70978825012,
			"0.006": 10.0518881876,
			"0.007": 13.4629090696,
			"0.008": 11.3613645618,
			"0.009": 6.26739055998,
			"0.01": 10.0251842695,
			"0.011": 7.01822292763,
			"0.012": 0.122727959568,
			"0.013": 0.0,
			"0.014": 0.0,
			"0.015": 0.0,
			"0.016": 0.0,
			"0.017": 0.0,
			"0.018": 0.0,
			"0.019": 0.0,
			"0.02": 0.0,
			"0.021": 0.0,
			"0.022": 0.0,
			"0.023": 0.0,
			"0.024": 0.0,
			"0.025": 0.0
		}
	}
}
