{
	 "smiles": "CCN1C(S)=NN=C1CCC(N)=O", 
	 "Tm": 482.15, 
	 "num_atms": 25, 
	 "gaussian": { 
		 "optdone": 1, 
		 "sigma_profile": "yes", 
		 "theory": "DFT", 
		 "functional": "B3LYP", 
		 "basiset": "6-31G**", 
		 "properties": { 
			 "R2extent": 3815.921, 
			 "electric_dipole_moment_norm": 5.37646839663, 
			 "electric_quadrupole_moment_norm": 17.7536064463, 
			 "total_energy": -966.401278566, 
			 "HOMO_LUMO_gap": 0.22789, 
			 "cosmo_polarized_energy": -19.77, 
			 "cosmo_cavitation_energy": 30.09, 
			 "cosmo_dispersion_energy": -21.91, 
			 "cosmo_repulsion_energy": 1.72, 
			 "cosmo_total_nonelectrostatic_energy": 9.9, 
			 "SMD_solvation_energy": 3.68 
		},
		"coords": [
			{
				"x": -2.5603066008,
				"y": 0.3575353422,
				"z": -1.0749690991,
				"element": "C" 
			},
			{
				"x": -1.6801791215,
				"y": 0.1927019166,
				"z": 0.1663298725,
				"element": "C" 
			},
			{
				"x": -0.2524338395,
				"y": 0.1125109649,
				"z": -0.1489018628,
				"element": "N" 
			},
			{
				"x": 0.4678762705,
				"y": -1.000072264,
				"z": -0.5102387123,
				"element": "C" 
			},
			{
				"x": -0.248822515,
				"y": -2.6136410037,
				"z": -0.605221935,
				"element": "S" 
			},
			{
				"x": 1.7203612066,
				"y": -0.6991137928,
				"z": -0.7527765254,
				"element": "N" 
			},
			{
				"x": 1.8414620459,
				"y": 0.6633482294,
				"z": -0.5510813532,
				"element": "N" 
			},
			{
				"x": 0.6693384141,
				"y": 1.1385195405,
				"z": -0.196964255,
				"element": "C" 
			},
			{
				"x": 0.3469859038,
				"y": 2.5728703451,
				"z": 0.1033965205,
				"element": "C" 
			},
			{
				"x": 1.5578887238,
				"y": 3.5162813482,
				"z": -0.0388731968,
				"element": "C" 
			},
			{
				"x": 2.5249235324,
				"y": 3.4212785238,
				"z": 1.1480924727,
				"element": "C" 
			},
			{
				"x": 3.5700606211,
				"y": 2.5620495641,
				"z": 0.9723368235,
				"element": "N" 
			},
			{
				"x": 2.3556778082,
				"y": 4.0922030617,
				"z": 2.1590122435,
				"element": "O" 
			},
			{
				"x": -3.612607318,
				"y": 0.4080279396,
				"z": -0.7793601212,
				"element": "H" 
			},
			{
				"x": -2.4372972326,
				"y": -0.4861198771,
				"z": -1.7596590388,
				"element": "H" 
			},
			{
				"x": -2.3122985187,
				"y": 1.2757944448,
				"z": -1.6151247912,
				"element": "H" 
			},
			{
				"x": -1.8164483236,
				"y": 1.0309189583,
				"z": 0.8543593127,
				"element": "H" 
			},
			{
				"x": -1.9487172681,
				"y": -0.7149910421,
				"z": 0.7158004353,
				"element": "H" 
			},
			{
				"x": 0.9390593637,
				"y": -3.198563779,
				"z": -0.8477444562,
				"element": "H" 
			},
			{
				"x": -0.059541356,
				"y": 2.6656074356,
				"z": 1.1194297453,
				"element": "H" 
			},
			{
				"x": -0.4476140282,
				"y": 2.9079933247,
				"z": -0.5762037997,
				"element": "H" 
			},
			{
				"x": 1.1905267774,
				"y": 4.5447614089,
				"z": -0.0463762523,
				"element": "H" 
			},
			{
				"x": 2.0693673147,
				"y": 3.3192203725,
				"z": -0.9849688488,
				"element": "H" 
			},
			{
				"x": 3.4587760136,
				"y": 1.8176413357,
				"z": 0.2889878667,
				"element": "H" 
			},
			{
				"x": 4.1306621261,
				"y": 2.3756377023,
				"z": 1.7922189549,
				"element": "H" 
			}
		],
		 "valence_orbital": [ 
			{
				"type": "occ",
				"energy": -0.29855,
				"method": "rhf"
			},
			{
				"type": "occ",
				"energy": -0.27137,
				"method": "rhf"
			},
			{
				"type": "occ",
				"energy": -0.2529,
				"method": "rhf"
			},
			{
				"type": "occ",
				"energy": -0.23748,
				"method": "rhf"
			},
			{
				"type": "occ",
				"energy": -0.23255,
				"method": "rhf"
			},
			{
				"type": "unocc",
				"energy": -0.00466,
				"method": "rhf"
			},
			{
				"type": "unocc",
				"energy": 0.00619,
				"method": "rhf"
			},
			{
				"type": "unocc",
				"energy": 0.02941,
				"method": "rhf"
			},
			{
				"type": "unocc",
				"energy": 0.03855,
				"method": "rhf"
			},
			{
				"type": "unocc",
				"energy": 0.05098,
				"method": "rhf"
			}
		],
		"cosmo_sigma_profile": { 
			"-0.025": 0.0,
			"-0.024": 0.0,
			"-0.023": 0.0,
			"-0.022": 0.0,
			"-0.021": 0.0,
			"-0.02": 0.0,
			"-0.019": 0.0,
			"-0.018": 0.0,
			"-0.017": 0.0,
			"-0.016": 0.0,
			"-0.015": 0.0,
			"-0.014": 0.0178961943928,
			"-0.013": 0.834332565676,
			"-0.012": 2.87534082578,
			"-0.011": 2.05368621639,
			"-0.01": 1.79471554758,
			"-0.009": 3.20228732074,
			"-0.008": 3.80775361571,
			"-0.007": 8.13081358418,
			"-0.006": 15.2462230254,
			"-0.005": 19.3788246791,
			"-0.004": 22.4500675275,
			"-0.003": 20.7772328013,
			"-0.002": 20.3396230337,
			"-0.001": 18.1470296083,
			"0.0": 13.6909722211,
			"0.001": 11.2619373269,
			"0.002": 8.94903633578,
			"0.003": 7.59659661929,
			"0.004": 7.90226847964,
			"0.005": 5.54723565206,
			"0.006": 7.04332764346,
			"0.007": 4.20379836767,
			"0.008": 2.94265705547,
			"0.009": 2.76588614532,
			"0.01": 4.70441747374,
			"0.011": 3.21830715856,
			"0.012": 4.03054619789,
			"0.013": 3.80799831905,
			"0.014": 7.27904969883,
			"0.015": 4.26991274854,
			"0.016": 0.931654844677,
			"0.017": 0.276042100237,
			"0.018": 0.0,
			"0.019": 0.0,
			"0.02": 0.0,
			"0.021": 0.0,
			"0.022": 0.0,
			"0.023": 0.0,
			"0.024": 0.0,
			"0.025": 0.0
		}
	}
}
