{
	 "smiles": "NCC1=C(N=CC=C1)N1CCOCC1", 
	 "Tm": 315.15, 
	 "num_atms": 29, 
	 "gaussian": { 
		 "optdone": 1, 
		 "sigma_profile": "yes", 
		 "theory": "DFT", 
		 "functional": "B3LYP", 
		 "basiset": "6-31G**", 
		 "properties": { 
			 "R2extent": 3505.4215, 
			 "electric_dipole_moment_norm": 2.87824223789, 
			 "electric_quadrupole_moment_norm": 8.8185666341, 
			 "total_energy": -629.5477165, 
			 "HOMO_LUMO_gap": 0.19044, 
			 "cosmo_polarized_energy": -11.28, 
			 "cosmo_cavitation_energy": 29.72, 
			 "cosmo_dispersion_energy": -22.24, 
			 "cosmo_repulsion_energy": 1.76, 
			 "cosmo_total_nonelectrostatic_energy": 9.25, 
			 "SMD_solvation_energy": 2.48 
		},
		"coords": [
			{
				"x": -3.6576854852,
				"y": -1.4210881664,
				"z": 0.3996488596,
				"element": "N" 
			},
			{
				"x": -2.3155691859,
				"y": -1.3892039667,
				"z": -0.1918983756,
				"element": "C" 
			},
			{
				"x": -1.2371844832,
				"y": -1.5633523694,
				"z": 0.8643575305,
				"element": "C" 
			},
			{
				"x": 0.0834649534,
				"y": -1.0647146006,
				"z": 0.6890699681,
				"element": "C" 
			},
			{
				"x": 0.9713568716,
				"y": -1.0234092842,
				"z": 1.6942382264,
				"element": "N" 
			},
			{
				"x": 0.6303531179,
				"y": -1.5359260091,
				"z": 2.8812511274,
				"element": "C" 
			},
			{
				"x": -0.5963185642,
				"y": -2.1402378678,
				"z": 3.1292107513,
				"element": "C" 
			},
			{
				"x": -1.5409713375,
				"y": -2.1302763957,
				"z": 2.1005588168,
				"element": "C" 
			},
			{
				"x": 0.4945781688,
				"y": -0.5312634331,
				"z": -0.5416871527,
				"element": "N" 
			},
			{
				"x": 0.2967459443,
				"y": -1.3312937194,
				"z": -1.7667399514,
				"element": "C" 
			},
			{
				"x": 1.6167390134,
				"y": -1.4597267965,
				"z": -2.5496636182,
				"element": "C" 
			},
			{
				"x": 2.6872609084,
				"y": -1.736154237,
				"z": -1.6714168757,
				"element": "O" 
			},
			{
				"x": 2.969089787,
				"y": -0.6390533936,
				"z": -0.7949910243,
				"element": "C" 
			},
			{
				"x": 1.7324023256,
				"y": 0.2481977226,
				"z": -0.5677649941,
				"element": "C" 
			},
			{
				"x": -4.356564928,
				"y": -1.3970877509,
				"z": -0.3377806321,
				"element": "H" 
			},
			{
				"x": -3.8027931062,
				"y": -0.5892498808,
				"z": 0.9675871471,
				"element": "H" 
			},
			{
				"x": -2.274581457,
				"y": -2.2009250913,
				"z": -0.9300973324,
				"element": "H" 
			},
			{
				"x": -2.0921080099,
				"y": -0.4624461881,
				"z": -0.7461934789,
				"element": "H" 
			},
			{
				"x": 1.3846832698,
				"y": -1.4635548374,
				"z": 3.6635054263,
				"element": "H" 
			},
			{
				"x": -0.8197708793,
				"y": -2.5717462768,
				"z": 4.0993485387,
				"element": "H" 
			},
			{
				"x": -2.5427775462,
				"y": -2.5192847553,
				"z": 2.2519039846,
				"element": "H" 
			},
			{
				"x": -0.4744409838,
				"y": -0.8981288557,
				"z": -2.4215027555,
				"element": "H" 
			},
			{
				"x": -0.032522422,
				"y": -2.333947792,
				"z": -1.4798965232,
				"element": "H" 
			},
			{
				"x": 1.5481744725,
				"y": -2.2996121856,
				"z": -3.247737602,
				"element": "H" 
			},
			{
				"x": 1.8093096963,
				"y": -0.5540796861,
				"z": -3.1474190994,
				"element": "H" 
			},
			{
				"x": 3.2900820217,
				"y": -1.0795343268,
				"z": 0.1516766473,
				"element": "H" 
			},
			{
				"x": 3.7932905715,
				"y": -0.0314936678,
				"z": -1.2037265471,
				"element": "H" 
			},
			{
				"x": 1.8354693851,
				"y": 0.7840980276,
				"z": 0.3754480725,
				"element": "H" 
			},
			{
				"x": 1.6401878809,
				"y": 0.9918957838,
				"z": -1.3687891339,
				"element": "H" 
			}
		],
		 "valence_orbital": [ 
			{
				"type": "occ",
				"energy": -0.26212,
				"method": "rhf"
			},
			{
				"type": "occ",
				"energy": -0.25071,
				"method": "rhf"
			},
			{
				"type": "occ",
				"energy": -0.24351,
				"method": "rhf"
			},
			{
				"type": "occ",
				"energy": -0.23819,
				"method": "rhf"
			},
			{
				"type": "occ",
				"energy": -0.19794,
				"method": "rhf"
			},
			{
				"type": "unocc",
				"energy": -0.0075,
				"method": "rhf"
			},
			{
				"type": "unocc",
				"energy": 0.00817,
				"method": "rhf"
			},
			{
				"type": "unocc",
				"energy": 0.07836,
				"method": "rhf"
			},
			{
				"type": "unocc",
				"energy": 0.09405,
				"method": "rhf"
			},
			{
				"type": "unocc",
				"energy": 0.10657,
				"method": "rhf"
			}
		],
		"cosmo_sigma_profile": { 
			"-0.025": 0.0,
			"-0.024": 0.0,
			"-0.023": 0.0,
			"-0.022": 0.0,
			"-0.021": 0.0,
			"-0.02": 0.0,
			"-0.019": 0.0,
			"-0.018": 0.0,
			"-0.017": 0.0,
			"-0.016": 0.0,
			"-0.015": 0.0,
			"-0.014": 0.0,
			"-0.013": 0.0,
			"-0.012": 0.0,
			"-0.011": 0.000380920409862,
			"-0.01": 1.56557442185,
			"-0.009": 2.75905683818,
			"-0.008": 2.66784552853,
			"-0.007": 2.76292862017,
			"-0.006": 5.34292432876,
			"-0.005": 16.2632017424,
			"-0.004": 29.15332317,
			"-0.003": 30.7948997276,
			"-0.002": 25.3421910475,
			"-0.001": 15.8458197706,
			"0.0": 9.52730481081,
			"0.001": 10.3849586937,
			"0.002": 11.3143357956,
			"0.003": 13.0392074186,
			"0.004": 13.6816271123,
			"0.005": 10.9133474795,
			"0.006": 5.54873541497,
			"0.007": 5.36066507627,
			"0.008": 4.11145395305,
			"0.009": 3.24124536774,
			"0.01": 2.65429035216,
			"0.011": 3.07801112433,
			"0.012": 2.5170026106,
			"0.013": 2.03611401045,
			"0.014": 1.0966869665,
			"0.015": 0.75635975362,
			"0.016": 0.609847953178,
			"0.017": 0.204117706638,
			"0.018": 0.0,
			"0.019": 0.0,
			"0.02": 0.0,
			"0.021": 0.0,
			"0.022": 0.0,
			"0.023": 0.0,
			"0.024": 0.0,
			"0.025": 0.0
		}
	}
}
