{
	 "smiles": "O=C1NC2=C(CCC2)C(=O)N1C1CCCCC1", 
	 "Tm": 589.15, 
	 "num_atms": 35, 
	 "gaussian": { 
		 "optdone": 1, 
		 "sigma_profile": "yes", 
		 "theory": "DFT", 
		 "functional": "B3LYP", 
		 "basiset": "6-31G**", 
		 "properties": { 
			 "R2extent": 4642.522, 
			 "electric_dipole_moment_norm": 4.43838223455, 
			 "electric_quadrupole_moment_norm": 19.8629212625, 
			 "total_energy": -766.238438385, 
			 "HOMO_LUMO_gap": 0.20001, 
			 "cosmo_polarized_energy": -13.69, 
			 "cosmo_cavitation_energy": 34.31, 
			 "cosmo_dispersion_energy": -25.65, 
			 "cosmo_repulsion_energy": 2.0, 
			 "cosmo_total_nonelectrostatic_energy": 10.65, 
			 "SMD_solvation_energy": 5.51 
		},
		"coords": [
			{
				"x": -1.6382813616,
				"y": 0.1237108712,
				"z": 0.1935149387,
				"element": "O" 
			},
			{
				"x": -0.5267794289,
				"y": -0.1831889588,
				"z": 0.6013282487,
				"element": "C" 
			},
			{
				"x": -0.3274781968,
				"y": -0.3623129133,
				"z": 1.9728023397,
				"element": "N" 
			},
			{
				"x": 0.8820719892,
				"y": -0.6856392363,
				"z": 2.5197321883,
				"element": "C" 
			},
			{
				"x": 1.9711607541,
				"y": -0.8694451705,
				"z": 1.7432006003,
				"element": "C" 
			},
			{
				"x": 3.174675049,
				"y": -1.2634912351,
				"z": 2.5587966505,
				"element": "C" 
			},
			{
				"x": 2.7111812617,
				"y": -0.9615059218,
				"z": 4.0143864558,
				"element": "C" 
			},
			{
				"x": 1.1561054508,
				"y": -0.9226693419,
				"z": 3.9795520171,
				"element": "C" 
			},
			{
				"x": 1.8907743201,
				"y": -0.738281878,
				"z": 0.3044971541,
				"element": "C" 
			},
			{
				"x": 2.8411104157,
				"y": -0.9142262743,
				"z": -0.4487321657,
				"element": "O" 
			},
			{
				"x": 0.5922341603,
				"y": -0.3759568517,
				"z": -0.2015610474,
				"element": "N" 
			},
			{
				"x": 0.4998439277,
				"y": -0.2170512094,
				"z": -1.6888934395,
				"element": "C" 
			},
			{
				"x": 0.2162895557,
				"y": 1.2304092011,
				"z": -2.1649418732,
				"element": "C" 
			},
			{
				"x": -1.2486806416,
				"y": 1.5800609904,
				"z": -2.4755615825,
				"element": "C" 
			},
			{
				"x": -1.9038468504,
				"y": 0.5091994296,
				"z": -3.3601663257,
				"element": "C" 
			},
			{
				"x": -1.8341844272,
				"y": -0.8755269122,
				"z": -2.6996930406,
				"element": "C" 
			},
			{
				"x": -0.3814504481,
				"y": -1.2779560903,
				"z": -2.3959408556,
				"element": "C" 
			},
			{
				"x": -1.1533308287,
				"y": -0.2041860787,
				"z": 2.5325045421,
				"element": "H" 
			},
			{
				"x": 3.4141030133,
				"y": -2.3258161748,
				"z": 2.4171413969,
				"element": "H" 
			},
			{
				"x": 4.0731279814,
				"y": -0.7041352625,
				"z": 2.2807666592,
				"element": "H" 
			},
			{
				"x": 3.0878066729,
				"y": -1.6894991678,
				"z": 4.7370172529,
				"element": "H" 
			},
			{
				"x": 3.0845046574,
				"y": 0.0214111456,
				"z": 4.3178877261,
				"element": "H" 
			},
			{
				"x": 0.7092042373,
				"y": -1.8759729708,
				"z": 4.2946106809,
				"element": "H" 
			},
			{
				"x": 0.7323568023,
				"y": -0.1446454305,
				"z": 4.6252266006,
				"element": "H" 
			},
			{
				"x": 1.528391791,
				"y": -0.4369400391,
				"z": -1.9697450084,
				"element": "H" 
			},
			{
				"x": 0.795303938,
				"y": 1.3577199472,
				"z": -3.0902459934,
				"element": "H" 
			},
			{
				"x": 0.6445815722,
				"y": 1.9369196632,
				"z": -1.4448716964,
				"element": "H" 
			},
			{
				"x": -1.8158125999,
				"y": 1.6757611095,
				"z": -1.5473374586,
				"element": "H" 
			},
			{
				"x": -1.2758739779,
				"y": 2.5539206872,
				"z": -2.9809905986,
				"element": "H" 
			},
			{
				"x": -1.3942988707,
				"y": 0.4765737185,
				"z": -4.335515445,
				"element": "H" 
			},
			{
				"x": -2.9474981258,
				"y": 0.7767637277,
				"z": -3.5643408278,
				"element": "H" 
			},
			{
				"x": -2.2748801964,
				"y": -1.6312204104,
				"z": -3.3625035144,
				"element": "H" 
			},
			{
				"x": -2.4206090908,
				"y": -0.8644796636,
				"z": -1.7785332225,
				"element": "H" 
			},
			{
				"x": -0.3434353492,
				"y": -2.2143823833,
				"z": -1.8278508817,
				"element": "H" 
			},
			{
				"x": 0.1159128439,
				"y": -1.487820916,
				"z": -3.3531404747,
				"element": "H" 
			}
		],
		 "valence_orbital": [ 
			{
				"type": "occ",
				"energy": -0.2925,
				"method": "rhf"
			},
			{
				"type": "occ",
				"energy": -0.27618,
				"method": "rhf"
			},
			{
				"type": "occ",
				"energy": -0.25774,
				"method": "rhf"
			},
			{
				"type": "occ",
				"energy": -0.25281,
				"method": "rhf"
			},
			{
				"type": "occ",
				"energy": -0.2296,
				"method": "rhf"
			},
			{
				"type": "unocc",
				"energy": -0.02959,
				"method": "rhf"
			},
			{
				"type": "unocc",
				"energy": 0.0163,
				"method": "rhf"
			},
			{
				"type": "unocc",
				"energy": 0.07042,
				"method": "rhf"
			},
			{
				"type": "unocc",
				"energy": 0.08252,
				"method": "rhf"
			},
			{
				"type": "unocc",
				"energy": 0.09372,
				"method": "rhf"
			}
		],
		"cosmo_sigma_profile": { 
			"-0.025": 0.0,
			"-0.024": 0.0,
			"-0.023": 0.0,
			"-0.022": 0.0,
			"-0.021": 0.0,
			"-0.02": 0.0,
			"-0.019": 0.0,
			"-0.018": 0.0,
			"-0.017": 0.00734424897903,
			"-0.016": 0.917537499546,
			"-0.015": 0.947787440756,
			"-0.014": 1.12778983677,
			"-0.013": 1.21837875612,
			"-0.012": 1.08278627925,
			"-0.011": 0.799300524858,
			"-0.01": 1.3326700021,
			"-0.009": 0.723252626021,
			"-0.008": 1.39364673476,
			"-0.007": 1.49536393086,
			"-0.006": 3.21443167461,
			"-0.005": 6.91234607679,
			"-0.004": 12.0960339635,
			"-0.003": 29.1098313732,
			"-0.002": 40.9198603722,
			"-0.001": 39.6852924313,
			"0.0": 35.9080487866,
			"0.001": 27.3660377476,
			"0.002": 16.7262107012,
			"0.003": 4.1981777222,
			"0.004": 4.99449710541,
			"0.005": 3.2026570328,
			"0.006": 2.9915034453,
			"0.007": 3.83694403824,
			"0.008": 3.36419187308,
			"0.009": 2.84041208566,
			"0.01": 3.39234330366,
			"0.011": 2.63852887666,
			"0.012": 4.46053349697,
			"0.013": 6.5360218778,
			"0.014": 1.95490153212,
			"0.015": 0.0,
			"0.016": 0.0,
			"0.017": 0.0,
			"0.018": 0.0,
			"0.019": 0.0,
			"0.02": 0.0,
			"0.021": 0.0,
			"0.022": 0.0,
			"0.023": 0.0,
			"0.024": 0.0,
			"0.025": 0.0
		}
	}
}
