{
	 "smiles": "COC1=CC(C=CC2=C(C=C(C(C=CC3=CC(OC)=C(O)C=C3)=C2)[N+]([O-])=O)[N+]([O-])=O)=CC=C1O", 
	 "Tm": 524.15, 
	 "num_atms": 54, 
	 "gaussian": { 
		 "optdone": 1, 
		 "sigma_profile": "yes", 
		 "theory": "DFT", 
		 "functional": "B3LYP", 
		 "basiset": "6-31G**", 
		 "properties": { 
			 "R2extent": 21182.1685, 
			 "electric_dipole_moment_norm": 7.43131578995, 
			 "electric_quadrupole_moment_norm": 45.6800411955, 
			 "total_energy": -1637.63393761, 
			 "HOMO_LUMO_gap": 0.10341, 
			 "cosmo_polarized_energy": -25.64, 
			 "cosmo_cavitation_energy": 60.9, 
			 "cosmo_dispersion_energy": -40.3, 
			 "cosmo_repulsion_energy": 3.05, 
			 "cosmo_total_nonelectrostatic_energy": 23.65, 
			 "SMD_solvation_energy": 16.44 
		},
		"coords": [
			{
				"x": -5.0438781326,
				"y": -0.4342897823,
				"z": -0.2459602635,
				"element": "C" 
			},
			{
				"x": -4.9750181163,
				"y": -0.5475578244,
				"z": 1.1788293073,
				"element": "O" 
			},
			{
				"x": -3.8471378051,
				"y": -0.0477407661,
				"z": 1.7769178726,
				"element": "C" 
			},
			{
				"x": -3.0366822978,
				"y": -0.916312347,
				"z": 2.5011507818,
				"element": "C" 
			},
			{
				"x": -1.892479976,
				"y": -0.4745416458,
				"z": 3.1921303251,
				"element": "C" 
			},
			{
				"x": -1.105625912,
				"y": -1.4548576723,
				"z": 3.9553419859,
				"element": "C" 
			},
			{
				"x": 0.2049630356,
				"y": -1.4671227954,
				"z": 4.2767316542,
				"element": "C" 
			},
			{
				"x": 1.2719745593,
				"y": -0.5910625208,
				"z": 3.7552959166,
				"element": "C" 
			},
			{
				"x": 2.3069003843,
				"y": -0.0178370856,
				"z": 4.5354769269,
				"element": "C" 
			},
			{
				"x": 3.3225131465,
				"y": 0.725571467,
				"z": 3.9481043023,
				"element": "C" 
			},
			{
				"x": 3.3409661144,
				"y": 0.933632036,
				"z": 2.5760466621,
				"element": "C" 
			},
			{
				"x": 2.3493771261,
				"y": 0.3714228835,
				"z": 1.7219284901,
				"element": "C" 
			},
			{
				"x": 2.3492251899,
				"y": 0.4971557511,
				"z": 0.2671145232,
				"element": "C" 
			},
			{
				"x": 1.7037430591,
				"y": -0.3422924168,
				"z": -0.5789009741,
				"element": "C" 
			},
			{
				"x": 1.6720286681,
				"y": -0.2577720208,
				"z": -2.0323531858,
				"element": "C" 
			},
			{
				"x": 2.3214072045,
				"y": 0.7721824413,
				"z": -2.7558215509,
				"element": "C" 
			},
			{
				"x": 2.2591008217,
				"y": 0.8001274117,
				"z": -4.1377884505,
				"element": "C" 
			},
			{
				"x": 2.840780544,
				"y": 1.7330893784,
				"z": -4.9568247778,
				"element": "O" 
			},
			{
				"x": 3.6084726745,
				"y": 2.7711944856,
				"z": -4.359206584,
				"element": "C" 
			},
			{
				"x": 1.5441829558,
				"y": -0.1963069176,
				"z": -4.8474246413,
				"element": "C" 
			},
			{
				"x": 1.4901261576,
				"y": -0.1562653663,
				"z": -6.2000457264,
				"element": "O" 
			},
			{
				"x": 0.9026580519,
				"y": -1.2109240841,
				"z": -4.1447180004,
				"element": "C" 
			},
			{
				"x": 0.9693949822,
				"y": -1.2383990243,
				"z": -2.7529761706,
				"element": "C" 
			},
			{
				"x": 1.3472273389,
				"y": -0.3729437338,
				"z": 2.3742001911,
				"element": "C" 
			},
			{
				"x": 4.4638409926,
				"y": 1.7525120656,
				"z": 2.0908397129,
				"element": "N" 
			},
			{
				"x": 4.3346188464,
				"y": 2.3724281403,
				"z": 1.0313334109,
				"element": "O" 
			},
			{
				"x": 5.474908431,
				"y": 1.7973278054,
				"z": 2.7903659415,
				"element": "O" 
			},
			{
				"x": 2.3474740248,
				"y": -0.1309523377,
				"z": 5.9988032822,
				"element": "N" 
			},
			{
				"x": 1.4547218996,
				"y": -0.7692001969,
				"z": 6.5596748523,
				"element": "O" 
			},
			{
				"x": 3.2739874054,
				"y": 0.4249498633,
				"z": 6.5903840123,
				"element": "O" 
			},
			{
				"x": -1.595820857,
				"y": 0.8983049727,
				"z": 3.1554392338,
				"element": "C" 
			},
			{
				"x": -2.4022153979,
				"y": 1.7799949641,
				"z": 2.4420300641,
				"element": "C" 
			},
			{
				"x": -3.5294680163,
				"y": 1.3263559067,
				"z": 1.7508239795,
				"element": "C" 
			},
			{
				"x": -4.3626945155,
				"y": 2.1628731466,
				"z": 1.0655978563,
				"element": "O" 
			},
			{
				"x": -5.9683610933,
				"y": -0.93358098,
				"z": -0.5423632892,
				"element": "H" 
			},
			{
				"x": -5.0723314601,
				"y": 0.6102017344,
				"z": -0.567961646,
				"element": "H" 
			},
			{
				"x": -4.1929011319,
				"y": -0.941142698,
				"z": -0.7193923811,
				"element": "H" 
			},
			{
				"x": -3.3202197906,
				"y": -1.9645986468,
				"z": 2.5178289349,
				"element": "H" 
			},
			{
				"x": -1.6911467939,
				"y": -2.2860046242,
				"z": 4.3464695927,
				"element": "H" 
			},
			{
				"x": 0.5359802947,
				"y": -2.2327404591,
				"z": 4.9691810915,
				"element": "H" 
			},
			{
				"x": 4.1004576259,
				"y": 1.1476863686,
				"z": 4.5682499631,
				"element": "H" 
			},
			{
				"x": 2.9401173173,
				"y": 1.3081507358,
				"z": -0.131141151,
				"element": "H" 
			},
			{
				"x": 1.1603860863,
				"y": -1.193275651,
				"z": -0.1724173831,
				"element": "H" 
			},
			{
				"x": 2.8709622762,
				"y": 1.5394862956,
				"z": -2.2250246872,
				"element": "H" 
			},
			{
				"x": 4.4534026793,
				"y": 2.3632731482,
				"z": -3.7918924129,
				"element": "H" 
			},
			{
				"x": 3.9833168689,
				"y": 3.3825702783,
				"z": -5.180742159,
				"element": "H" 
			},
			{
				"x": 2.9913465544,
				"y": 3.3896484701,
				"z": -3.6965178021,
				"element": "H" 
			},
			{
				"x": 2.0017393952,
				"y": 0.6177734418,
				"z": -6.4849175034,
				"element": "H" 
			},
			{
				"x": 0.3606097287,
				"y": -1.9676383713,
				"z": -4.7015518848,
				"element": "H" 
			},
			{
				"x": 0.4673446645,
				"y": -2.0357645412,
				"z": -2.2124330592,
				"element": "H" 
			},
			{
				"x": 0.5594729383,
				"y": -0.8052091383,
				"z": 1.7713413416,
				"element": "H" 
			},
			{
				"x": -0.7498592796,
				"y": 1.2860996581,
				"z": 3.7108964545,
				"element": "H" 
			},
			{
				"x": -2.1710366292,
				"y": 2.8435339124,
				"z": 2.4396682805,
				"element": "H" 
			},
			{
				"x": -4.0404528388,
				"y": 3.0694868854,
				"z": 1.1536787404,
				"element": "H" 
			}
		],
		 "valence_orbital": [ 
			{
				"type": "occ",
				"energy": -0.2711,
				"method": "rhf"
			},
			{
				"type": "occ",
				"energy": -0.25055,
				"method": "rhf"
			},
			{
				"type": "occ",
				"energy": -0.24801,
				"method": "rhf"
			},
			{
				"type": "occ",
				"energy": -0.21643,
				"method": "rhf"
			},
			{
				"type": "occ",
				"energy": -0.20996,
				"method": "rhf"
			},
			{
				"type": "unocc",
				"energy": -0.10655,
				"method": "rhf"
			},
			{
				"type": "unocc",
				"energy": -0.08901,
				"method": "rhf"
			},
			{
				"type": "unocc",
				"energy": -0.05426,
				"method": "rhf"
			},
			{
				"type": "unocc",
				"energy": -0.03639,
				"method": "rhf"
			},
			{
				"type": "unocc",
				"energy": -0.01379,
				"method": "rhf"
			}
		],
		"cosmo_sigma_profile": { 
			"-0.025": 0.0,
			"-0.024": 0.0,
			"-0.023": 0.0,
			"-0.022": 0.0,
			"-0.021": 0.0,
			"-0.02": 0.0,
			"-0.019": 0.0536156291041,
			"-0.018": 0.872074948429,
			"-0.017": 1.02324578941,
			"-0.016": 1.39187376559,
			"-0.015": 1.18895393525,
			"-0.014": 1.44818014219,
			"-0.013": 1.69349090177,
			"-0.012": 0.892618516468,
			"-0.011": 1.87121613437,
			"-0.01": 2.47610554483,
			"-0.009": 2.06593034196,
			"-0.008": 3.49252732913,
			"-0.007": 12.582441505,
			"-0.006": 29.4864730678,
			"-0.005": 36.7286973058,
			"-0.004": 36.0819059055,
			"-0.003": 35.3461604715,
			"-0.002": 34.2489104705,
			"-0.001": 32.7346481374,
			"0.0": 28.6188514572,
			"0.001": 31.9049282954,
			"0.002": 34.0126695524,
			"0.003": 35.6136670356,
			"0.004": 32.2903454696,
			"0.005": 15.5091994854,
			"0.006": 11.9851879819,
			"0.007": 17.0127644992,
			"0.008": 17.562664408,
			"0.009": 13.354729691,
			"0.01": 9.18110164223,
			"0.011": 4.05687100717,
			"0.012": 0.810964733682,
			"0.013": 0.0,
			"0.014": 0.0,
			"0.015": 0.0,
			"0.016": 0.0,
			"0.017": 0.0,
			"0.018": 0.0,
			"0.019": 0.0,
			"0.02": 0.0,
			"0.021": 0.0,
			"0.022": 0.0,
			"0.023": 0.0,
			"0.024": 0.0,
			"0.025": 0.0
		}
	}
}
