{
	 "smiles": "CCOC(=O)CCC(=O)CC1(O)C2(Cl)C3(Cl)C4(Cl)C5(Cl)C(Cl)(C2(Cl)C3(Cl)C5(Cl)Cl)C14Cl", 
	 "Tm": 364.15, 
	 "num_atms": 43, 
	 "gaussian": { 
		 "optdone": 1, 
		 "sigma_profile": "yes", 
		 "theory": "DFT", 
		 "functional": "B3LYP", 
		 "basiset": "6-31G**", 
		 "properties": { 
			 "R2extent": 22573.2313, 
			 "electric_dipole_moment_norm": 3.86844586236, 
			 "electric_quadrupole_moment_norm": 17.6840905831, 
			 "total_energy": -5557.77329165, 
			 "HOMO_LUMO_gap": 0.19797, 
			 "cosmo_polarized_energy": -16.36, 
			 "cosmo_cavitation_energy": 58.02, 
			 "cosmo_dispersion_energy": -37.8, 
			 "cosmo_repulsion_energy": 2.79, 
			 "cosmo_total_nonelectrostatic_energy": 23.01, 
			 "SMD_solvation_energy": 8.04 
		},
		"coords": [
			{
				"x": 5.0067884201,
				"y": 1.4610779277,
				"z": -1.9811044371,
				"element": "C" 
			},
			{
				"x": 4.3492141484,
				"y": 0.6995489628,
				"z": -3.1212686358,
				"element": "C" 
			},
			{
				"x": 2.9019365384,
				"y": 0.7660978187,
				"z": -3.031466357,
				"element": "O" 
			},
			{
				"x": 2.3141670932,
				"y": 1.8576691154,
				"z": -3.5742054618,
				"element": "C" 
			},
			{
				"x": 2.9135097265,
				"y": 2.7382967852,
				"z": -4.1488952186,
				"element": "O" 
			},
			{
				"x": 0.8014726161,
				"y": 1.8354038092,
				"z": -3.4143387194,
				"element": "C" 
			},
			{
				"x": 0.2515344217,
				"y": 0.7937574922,
				"z": -2.4428967637,
				"element": "C" 
			},
			{
				"x": 0.6667415667,
				"y": 1.0290685841,
				"z": -1.0055576534,
				"element": "C" 
			},
			{
				"x": 1.176814843,
				"y": 2.0827271764,
				"z": -0.6492077202,
				"element": "O" 
			},
			{
				"x": 0.4561702488,
				"y": -0.1307390041,
				"z": -0.0374975545,
				"element": "C" 
			},
			{
				"x": 0.2031129446,
				"y": 0.2757698839,
				"z": 1.4275917745,
				"element": "C" 
			},
			{
				"x": 1.0878438517,
				"y": 1.2462816897,
				"z": 1.8915177058,
				"element": "O" 
			},
			{
				"x": 0.2429378064,
				"y": -0.9128753621,
				"z": 2.4039956223,
				"element": "C" 
			},
			{
				"x": 1.7777816338,
				"y": -1.7793680477,
				"z": 2.471813883,
				"element": "Cl" 
			},
			{
				"x": -1.0638884393,
				"y": -1.7694627861,
				"z": 2.2672982169,
				"element": "C" 
			},
			{
				"x": -1.0292438628,
				"y": -3.2845006229,
				"z": 1.3784400072,
				"element": "Cl" 
			},
			{
				"x": -2.1396055968,
				"y": -0.6700062734,
				"z": 1.7974576781,
				"element": "C" 
			},
			{
				"x": -3.1763902244,
				"y": -1.0941277696,
				"z": 0.4423432137,
				"element": "Cl" 
			},
			{
				"x": -2.7708160817,
				"y": -0.2085992039,
				"z": 3.1640021741,
				"element": "C" 
			},
			{
				"x": -4.2985696972,
				"y": 0.6542877805,
				"z": 3.1023808402,
				"element": "Cl" 
			},
			{
				"x": -1.450448904,
				"y": 0.6464105464,
				"z": 3.3030631229,
				"element": "C" 
			},
			{
				"x": -1.4771895044,
				"y": 2.165300786,
				"z": 4.1722598162,
				"element": "Cl" 
			},
			{
				"x": -0.3768180659,
				"y": -0.4526470781,
				"z": 3.7745546229,
				"element": "C" 
			},
			{
				"x": 0.6651315155,
				"y": -0.032768519,
				"z": 5.1160733343,
				"element": "Cl" 
			},
			{
				"x": -1.2452617806,
				"y": -1.7705142067,
				"z": 3.8320382786,
				"element": "C" 
			},
			{
				"x": -0.5962353169,
				"y": -3.1364479156,
				"z": 4.72325701,
				"element": "Cl" 
			},
			{
				"x": -2.6923101442,
				"y": -1.3799738833,
				"z": 4.1480497142,
				"element": "C" 
			},
			{
				"x": -2.9027597502,
				"y": -0.8594399677,
				"z": 5.845432047,
				"element": "Cl" 
			},
			{
				"x": -3.8524611566,
				"y": -2.6841402576,
				"z": 3.7466496966,
				"element": "Cl" 
			},
			{
				"x": -1.2682221158,
				"y": 0.6330917325,
				"z": 1.7421195453,
				"element": "C" 
			},
			{
				"x": -1.9322360983,
				"y": 2.0064219444,
				"z": 0.850399643,
				"element": "Cl" 
			},
			{
				"x": 4.7836309552,
				"y": 2.5280076772,
				"z": -2.0530975415,
				"element": "H" 
			},
			{
				"x": 6.093167608,
				"y": 1.332483218,
				"z": -2.0290370761,
				"element": "H" 
			},
			{
				"x": 4.6595666395,
				"y": 1.092528481,
				"z": -1.0115001379,
				"element": "H" 
			},
			{
				"x": 4.655798735,
				"y": 1.0960998604,
				"z": -4.091730402,
				"element": "H" 
			},
			{
				"x": 4.5737615234,
				"y": -0.3688176842,
				"z": -3.0762869942,
				"element": "H" 
			},
			{
				"x": 0.3791121115,
				"y": 1.6739397559,
				"z": -4.4126337417,
				"element": "H" 
			},
			{
				"x": 0.5088749208,
				"y": 2.843649504,
				"z": -3.1109339272,
				"element": "H" 
			},
			{
				"x": 0.5460840807,
				"y": -0.2211629322,
				"z": -2.7313059956,
				"element": "H" 
			},
			{
				"x": -0.8480572388,
				"y": 0.8041605537,
				"z": -2.4553628672,
				"element": "H" 
			},
			{
				"x": 1.3913020483,
				"y": -0.7067441199,
				"z": -0.0694424801,
				"element": "H" 
			},
			{
				"x": -0.3292359613,
				"y": -0.7944225914,
				"z": -0.4096645114,
				"element": "H" 
			},
			{
				"x": 1.2587939416,
				"y": 1.8588771406,
				"z": 1.1465962498,
				"element": "H" 
			}
		],
		 "valence_orbital": [ 
			{
				"type": "occ",
				"energy": -0.30692,
				"method": "rhf"
			},
			{
				"type": "occ",
				"energy": -0.30642,
				"method": "rhf"
			},
			{
				"type": "occ",
				"energy": -0.28813,
				"method": "rhf"
			},
			{
				"type": "occ",
				"energy": -0.28242,
				"method": "rhf"
			},
			{
				"type": "occ",
				"energy": -0.27803,
				"method": "rhf"
			},
			{
				"type": "unocc",
				"energy": -0.08006,
				"method": "rhf"
			},
			{
				"type": "unocc",
				"energy": -0.0502,
				"method": "rhf"
			},
			{
				"type": "unocc",
				"energy": -0.03478,
				"method": "rhf"
			},
			{
				"type": "unocc",
				"energy": -0.01963,
				"method": "rhf"
			},
			{
				"type": "unocc",
				"energy": -0.01772,
				"method": "rhf"
			}
		],
		"cosmo_sigma_profile": { 
			"-0.025": 0.0,
			"-0.024": 0.0,
			"-0.023": 0.0,
			"-0.022": 0.0,
			"-0.021": 0.0,
			"-0.02": 0.0,
			"-0.019": 0.0,
			"-0.018": 0.0,
			"-0.017": 0.0,
			"-0.016": 0.0,
			"-0.015": 0.0,
			"-0.014": 0.0,
			"-0.013": 0.0,
			"-0.012": 0.0,
			"-0.011": 0.0,
			"-0.01": 0.0,
			"-0.009": 0.0330207948367,
			"-0.008": 4.23146637583,
			"-0.007": 11.2569146417,
			"-0.006": 15.4078022918,
			"-0.005": 26.7013340994,
			"-0.004": 37.1934756612,
			"-0.003": 35.8643847992,
			"-0.002": 33.8420801741,
			"-0.001": 35.1995874851,
			"0.0": 43.4432156649,
			"0.001": 52.4087989513,
			"0.002": 74.7783823331,
			"0.003": 58.5623504929,
			"0.004": 12.5015288666,
			"0.005": 7.36958028563,
			"0.006": 6.68055350036,
			"0.007": 4.36247057854,
			"0.008": 3.51755599767,
			"0.009": 4.18872902888,
			"0.01": 3.29474534074,
			"0.011": 2.56073113483,
			"0.012": 4.45756468383,
			"0.013": 1.39838885065,
			"0.014": 0.0105858658128,
			"0.015": 0.0,
			"0.016": 0.0,
			"0.017": 0.0,
			"0.018": 0.0,
			"0.019": 0.0,
			"0.02": 0.0,
			"0.021": 0.0,
			"0.022": 0.0,
			"0.023": 0.0,
			"0.024": 0.0,
			"0.025": 0.0
		}
	}
}
