{
	 "smiles": "O=C1NC2=C(CCCC2)S1", 
	 "Tm": 415.15, 
	 "num_atms": 19, 
	 "gaussian": { 
		 "optdone": 1, 
		 "sigma_profile": "yes", 
		 "theory": "DFT", 
		 "functional": "B3LYP", 
		 "basiset": "6-31G**", 
		 "properties": { 
			 "R2extent": 1805.9423, 
			 "electric_dipole_moment_norm": 5.12541979647, 
			 "electric_quadrupole_moment_norm": 10.4339220962, 
			 "total_energy": -800.354846699, 
			 "HOMO_LUMO_gap": 0.21608, 
			 "cosmo_polarized_energy": -11.08, 
			 "cosmo_cavitation_energy": 22.9, 
			 "cosmo_dispersion_energy": -18.04, 
			 "cosmo_repulsion_energy": 1.43, 
			 "cosmo_total_nonelectrostatic_energy": 6.28, 
			 "SMD_solvation_energy": 3.7 
		},
		"coords": [
			{
				"x": -0.0460466547,
				"y": -2.8779425236,
				"z": 1.3117381814,
				"element": "O" 
			},
			{
				"x": -0.0485511944,
				"y": -1.8972438093,
				"z": 0.6002135692,
				"element": "C" 
			},
			{
				"x": 0.2503658967,
				"y": -0.6003373558,
				"z": 0.9690238257,
				"element": "N" 
			},
			{
				"x": 0.1805294072,
				"y": 0.381711705,
				"z": -0.0208386437,
				"element": "C" 
			},
			{
				"x": -0.1724470142,
				"y": -0.0974616655,
				"z": -1.2314031562,
				"element": "C" 
			},
			{
				"x": -0.3120268916,
				"y": 0.7426754323,
				"z": -2.4684312334,
				"element": "C" 
			},
			{
				"x": 0.3549082417,
				"y": 2.1152217212,
				"z": -2.2502815909,
				"element": "C" 
			},
			{
				"x": -0.0059569973,
				"y": 2.7136209462,
				"z": -0.881339245,
				"element": "C" 
			},
			{
				"x": 0.4846492477,
				"y": 1.8219696237,
				"z": 0.2747850066,
				"element": "C" 
			},
			{
				"x": -0.4511993625,
				"y": -1.845261572,
				"z": -1.1743265705,
				"element": "S" 
			},
			{
				"x": 0.4986500392,
				"y": -0.417772137,
				"z": 1.9312914036,
				"element": "H" 
			},
			{
				"x": -1.3748929627,
				"y": 0.8736553566,
				"z": -2.7185005903,
				"element": "H" 
			},
			{
				"x": 0.1434573325,
				"y": 0.2380830598,
				"z": -3.3291613344,
				"element": "H" 
			},
			{
				"x": 1.4443354893,
				"y": 2.0001939701,
				"z": -2.3178895717,
				"element": "H" 
			},
			{
				"x": 0.0577783057,
				"y": 2.7999306142,
				"z": -3.0519904337,
				"element": "H" 
			},
			{
				"x": 0.4217622255,
				"y": 3.7165148956,
				"z": -0.7786557158,
				"element": "H" 
			},
			{
				"x": -1.0955215318,
				"y": 2.824062411,
				"z": -0.8113757865,
				"element": "H" 
			},
			{
				"x": 0.0069844676,
				"y": 2.1253620133,
				"z": 1.2159234342,
				"element": "H" 
			},
			{
				"x": 1.5669219561,
				"y": 1.9521173143,
				"z": 0.4232184512,
				"element": "H" 
			}
		],
		 "valence_orbital": [ 
			{
				"type": "occ",
				"energy": -0.3278,
				"method": "rhf"
			},
			{
				"type": "occ",
				"energy": -0.32444,
				"method": "rhf"
			},
			{
				"type": "occ",
				"energy": -0.28315,
				"method": "rhf"
			},
			{
				"type": "occ",
				"energy": -0.26155,
				"method": "rhf"
			},
			{
				"type": "occ",
				"energy": -0.20442,
				"method": "rhf"
			},
			{
				"type": "unocc",
				"energy": 0.01166,
				"method": "rhf"
			},
			{
				"type": "unocc",
				"energy": 0.01641,
				"method": "rhf"
			},
			{
				"type": "unocc",
				"energy": 0.04241,
				"method": "rhf"
			},
			{
				"type": "unocc",
				"energy": 0.07269,
				"method": "rhf"
			},
			{
				"type": "unocc",
				"energy": 0.08434,
				"method": "rhf"
			}
		],
		"cosmo_sigma_profile": { 
			"-0.025": 0.0,
			"-0.024": 0.0,
			"-0.023": 0.0,
			"-0.022": 0.0,
			"-0.021": 0.0,
			"-0.02": 0.0,
			"-0.019": 0.0,
			"-0.018": 0.0,
			"-0.017": 0.0351218367377,
			"-0.016": 0.859028296665,
			"-0.015": 1.11590340413,
			"-0.014": 1.26939071819,
			"-0.013": 0.988515439672,
			"-0.012": 0.583854800621,
			"-0.011": 1.32680940741,
			"-0.01": 1.27530278415,
			"-0.009": 1.13987395247,
			"-0.008": 0.95677688806,
			"-0.007": 1.48969591085,
			"-0.006": 1.45891101822,
			"-0.005": 4.00855862625,
			"-0.004": 11.8495442177,
			"-0.003": 21.4925707114,
			"-0.002": 26.0566734883,
			"-0.001": 23.0946754059,
			"0.0": 17.5552600336,
			"0.001": 11.7149556182,
			"0.002": 10.4729444139,
			"0.003": 9.98267817056,
			"0.004": 6.88307233123,
			"0.005": 5.20183978037,
			"0.006": 3.05747956247,
			"0.007": 1.19455348206,
			"0.008": 1.43410062143,
			"0.009": 1.80357469313,
			"0.01": 1.37925051047,
			"0.011": 2.20737936757,
			"0.012": 5.0584927521,
			"0.013": 5.04716955962,
			"0.014": 0.212000078573,
			"0.015": 0.0,
			"0.016": 0.0,
			"0.017": 0.0,
			"0.018": 0.0,
			"0.019": 0.0,
			"0.02": 0.0,
			"0.021": 0.0,
			"0.022": 0.0,
			"0.023": 0.0,
			"0.024": 0.0,
			"0.025": 0.0
		}
	}
}
