{
	 "smiles": "N#CC1=CC=CC(=C1)N1CCCCC1", 
	 "Tm": 407.15, 
	 "num_atms": 28, 
	 "gaussian": { 
		 "optdone": 1, 
		 "sigma_profile": "yes", 
		 "theory": "DFT", 
		 "functional": "B3LYP", 
		 "basiset": "6-31G**", 
		 "properties": { 
			 "R2extent": 3945.1556, 
			 "electric_dipole_moment_norm": 6.49817569092, 
			 "electric_quadrupole_moment_norm": 26.6665324891, 
			 "total_energy": -575.202694954, 
			 "HOMO_LUMO_gap": 0.16354, 
			 "cosmo_polarized_energy": -9.62, 
			 "cosmo_cavitation_energy": 30.36, 
			 "cosmo_dispersion_energy": -21.98, 
			 "cosmo_repulsion_energy": 1.72, 
			 "cosmo_total_nonelectrostatic_energy": 10.1, 
			 "SMD_solvation_energy": 5.09 
		},
		"coords": [
			{
				"x": -1.0312860823,
				"y": 3.8229675596,
				"z": -4.3095772704,
				"element": "N" 
			},
			{
				"x": -1.213988149,
				"y": 2.8691140811,
				"z": -3.6688515831,
				"element": "C" 
			},
			{
				"x": -1.4402767627,
				"y": 1.6926077252,
				"z": -2.877219302,
				"element": "C" 
			},
			{
				"x": -2.6370301119,
				"y": 0.9743388119,
				"z": -3.0228843893,
				"element": "C" 
			},
			{
				"x": -2.8148833574,
				"y": -0.1659423702,
				"z": -2.2430597271,
				"element": "C" 
			},
			{
				"x": -1.8434477653,
				"y": -0.585656089,
				"z": -1.3390411846,
				"element": "C" 
			},
			{
				"x": -0.6280616195,
				"y": 0.1257115599,
				"z": -1.1848537117,
				"element": "C" 
			},
			{
				"x": -0.4463263161,
				"y": 1.2779857805,
				"z": -1.9806848692,
				"element": "C" 
			},
			{
				"x": 0.3422090192,
				"y": -0.2877143394,
				"z": -0.2909322583,
				"element": "N" 
			},
			{
				"x": 0.3307369584,
				"y": -1.6422480835,
				"z": 0.265070066,
				"element": "C" 
			},
			{
				"x": 1.756490765,
				"y": -2.1072935963,
				"z": 0.5816528423,
				"element": "C" 
			},
			{
				"x": 2.4568137696,
				"y": -1.1908838976,
				"z": 1.6076097728,
				"element": "C" 
			},
			{
				"x": 1.9218775481,
				"y": 0.2545834592,
				"z": 1.5198476641,
				"element": "C" 
			},
			{
				"x": 1.4289270841,
				"y": 0.6071765326,
				"z": 0.112342276,
				"element": "C" 
			},
			{
				"x": -3.3945937475,
				"y": 1.3071737722,
				"z": -3.7225979592,
				"element": "H" 
			},
			{
				"x": -3.7355901286,
				"y": -0.7359325648,
				"z": -2.3278929669,
				"element": "H" 
			},
			{
				"x": -2.0418108697,
				"y": -1.4573838912,
				"z": -0.7270581078,
				"element": "H" 
			},
			{
				"x": 0.4739906273,
				"y": 1.8452932212,
				"z": -1.9325447734,
				"element": "H" 
			},
			{
				"x": -0.2983324523,
				"y": -1.7051338953,
				"z": 1.1690698577,
				"element": "H" 
			},
			{
				"x": -0.1080727022,
				"y": -2.3195663028,
				"z": -0.4743437278,
				"element": "H" 
			},
			{
				"x": 1.7242418791,
				"y": -3.14134635,
				"z": 0.940726576,
				"element": "H" 
			},
			{
				"x": 2.3225143,
				"y": -2.1200808637,
				"z": -0.3570734934,
				"element": "H" 
			},
			{
				"x": 3.5376039573,
				"y": -1.2085801631,
				"z": 1.4292991612,
				"element": "H" 
			},
			{
				"x": 2.3056091096,
				"y": -1.5714291324,
				"z": 2.6237997141,
				"element": "H" 
			},
			{
				"x": 1.0830794944,
				"y": 0.3866182704,
				"z": 2.2132231215,
				"element": "H" 
			},
			{
				"x": 2.6909985866,
				"y": 0.9738394666,
				"z": 1.8200156491,
				"element": "H" 
			},
			{
				"x": 1.0516759674,
				"y": 1.6347037455,
				"z": 0.1143923096,
				"element": "H" 
			},
			{
				"x": 2.2679309986,
				"y": 0.5762775532,
				"z": -0.6031336864,
				"element": "H" 
			}
		],
		 "valence_orbital": [ 
			{
				"type": "occ",
				"energy": -0.32892,
				"method": "rhf"
			},
			{
				"type": "occ",
				"energy": -0.31893,
				"method": "rhf"
			},
			{
				"type": "occ",
				"energy": -0.28775,
				"method": "rhf"
			},
			{
				"type": "occ",
				"energy": -0.25457,
				"method": "rhf"
			},
			{
				"type": "occ",
				"energy": -0.20034,
				"method": "rhf"
			},
			{
				"type": "unocc",
				"energy": -0.0368,
				"method": "rhf"
			},
			{
				"type": "unocc",
				"energy": 0.00186,
				"method": "rhf"
			},
			{
				"type": "unocc",
				"energy": 0.04909,
				"method": "rhf"
			},
			{
				"type": "unocc",
				"energy": 0.06329,
				"method": "rhf"
			},
			{
				"type": "unocc",
				"energy": 0.08944,
				"method": "rhf"
			}
		],
		"cosmo_sigma_profile": { 
			"-0.025": 0.0,
			"-0.024": 0.0,
			"-0.023": 0.0,
			"-0.022": 0.0,
			"-0.021": 0.0,
			"-0.02": 0.0,
			"-0.019": 0.0,
			"-0.018": 0.0,
			"-0.017": 0.0,
			"-0.016": 0.0,
			"-0.015": 0.0,
			"-0.014": 0.0,
			"-0.013": 0.0,
			"-0.012": 0.0,
			"-0.011": 0.0,
			"-0.01": 0.0,
			"-0.009": 0.0,
			"-0.008": 0.0,
			"-0.007": 2.30014220695,
			"-0.006": 8.45804793157,
			"-0.005": 11.3811044833,
			"-0.004": 15.7600792605,
			"-0.003": 31.4712431,
			"-0.002": 39.6273308734,
			"-0.001": 26.0036199477,
			"0.0": 23.0306010774,
			"0.001": 15.561498983,
			"0.002": 9.41051535862,
			"0.003": 13.2958182607,
			"0.004": 13.7888547833,
			"0.005": 6.51775869575,
			"0.006": 2.97453635045,
			"0.007": 2.35964138074,
			"0.008": 3.32160565868,
			"0.009": 3.62948799173,
			"0.01": 3.16881108572,
			"0.011": 3.26978721851,
			"0.012": 2.31600922144,
			"0.013": 2.19152705316,
			"0.014": 0.332568899487,
			"0.015": 0.0,
			"0.016": 0.0,
			"0.017": 0.0,
			"0.018": 0.0,
			"0.019": 0.0,
			"0.02": 0.0,
			"0.021": 0.0,
			"0.022": 0.0,
			"0.023": 0.0,
			"0.024": 0.0,
			"0.025": 0.0
		}
	}
}
