{
	 "smiles": "CN1C(NC(C)=O)=NC(=O)C1=CC1=CC(=O)C2=CC=CC=C2O1", 
	 "Tm": 518.15, 
	 "num_atms": 36, 
	 "gaussian": { 
		 "optdone": 1, 
		 "sigma_profile": "yes", 
		 "theory": "DFT", 
		 "functional": "B3LYP", 
		 "basiset": "6-31G**", 
		 "properties": { 
			 "R2extent": 9061.3771, 
			 "electric_dipole_moment_norm": 8.61630030233, 
			 "electric_quadrupole_moment_norm": 19.3418049822, 
			 "total_energy": -1082.68923022, 
			 "HOMO_LUMO_gap": 0.13264, 
			 "cosmo_polarized_energy": -27.52, 
			 "cosmo_cavitation_energy": 41.71, 
			 "cosmo_dispersion_energy": -29.17, 
			 "cosmo_repulsion_energy": 2.16, 
			 "cosmo_total_nonelectrostatic_energy": 14.7, 
			 "SMD_solvation_energy": 7.23 
		},
		"coords": [
			{
				"x": -1.6432767934,
				"y": -0.950814079,
				"z": -0.2855651907,
				"element": "C" 
			},
			{
				"x": -0.8814829633,
				"y": -1.2964431385,
				"z": 0.9176845497,
				"element": "N" 
			},
			{
				"x": -0.8106549929,
				"y": -2.5672805553,
				"z": 1.4625365979,
				"element": "C" 
			},
			{
				"x": -1.0580461497,
				"y": -3.7134407189,
				"z": 0.7244682467,
				"element": "N" 
			},
			{
				"x": -0.6163640443,
				"y": -3.998999407,
				"z": -0.5788013999,
				"element": "C" 
			},
			{
				"x": -0.7821871234,
				"y": -5.4577540196,
				"z": -0.957638673,
				"element": "C" 
			},
			{
				"x": -0.1473593406,
				"y": -3.156396265,
				"z": -1.3160025279,
				"element": "O" 
			},
			{
				"x": -0.544852482,
				"y": -2.6605635662,
				"z": 2.7379238363,
				"element": "N" 
			},
			{
				"x": -0.4226947314,
				"y": -1.3395255877,
				"z": 3.18581329,
				"element": "C" 
			},
			{
				"x": -0.1800571826,
				"y": -0.9678719451,
				"z": 4.3171636671,
				"element": "O" 
			},
			{
				"x": -0.6041384558,
				"y": -0.4310285202,
				"z": 1.9810086933,
				"element": "C" 
			},
			{
				"x": -0.4672860091,
				"y": 0.9086131389,
				"z": 2.0926168691,
				"element": "C" 
			},
			{
				"x": -0.4118447443,
				"y": 1.9801692891,
				"z": 1.121197796,
				"element": "C" 
			},
			{
				"x": -0.4817190473,
				"y": 3.2946173346,
				"z": 1.475965317,
				"element": "C" 
			},
			{
				"x": -0.3976260762,
				"y": 4.3727828531,
				"z": 0.4992076579,
				"element": "C" 
			},
			{
				"x": -0.478885465,
				"y": 5.5648807252,
				"z": 0.794037919,
				"element": "O" 
			},
			{
				"x": -0.199990745,
				"y": 3.9014931445,
				"z": -0.8924131054,
				"element": "C" 
			},
			{
				"x": -0.0769783974,
				"y": 4.8066462637,
				"z": -1.9585896117,
				"element": "C" 
			},
			{
				"x": 0.119662691,
				"y": 4.3489482051,
				"z": -3.2531462999,
				"element": "C" 
			},
			{
				"x": 0.2001498696,
				"y": 2.9687471095,
				"z": -3.5015223235,
				"element": "C" 
			},
			{
				"x": 0.0808568329,
				"y": 2.0524856442,
				"z": -2.4637674184,
				"element": "C" 
			},
			{
				"x": -0.1227685121,
				"y": 2.5291089669,
				"z": -1.1648046972,
				"element": "C" 
			},
			{
				"x": -0.2385826387,
				"y": 1.5837013036,
				"z": -0.1728370781,
				"element": "O" 
			},
			{
				"x": -2.2257419379,
				"y": -0.0521458261,
				"z": -0.0809884252,
				"element": "H" 
			},
			{
				"x": -0.986941809,
				"y": -0.7861652789,
				"z": -1.1370322921,
				"element": "H" 
			},
			{
				"x": -2.3269319992,
				"y": -1.7682355894,
				"z": -0.5180255053,
				"element": "H" 
			},
			{
				"x": -1.1935369064,
				"y": -4.5079290388,
				"z": 1.3394055375,
				"element": "H" 
			},
			{
				"x": -0.0585069542,
				"y": -6.0733884543,
				"z": -0.4112928278,
				"element": "H" 
			},
			{
				"x": -0.5970405669,
				"y": -5.5628353794,
				"z": -2.0259956927,
				"element": "H" 
			},
			{
				"x": -1.7852645199,
				"y": -5.8235699492,
				"z": -0.7172075267,
				"element": "H" 
			},
			{
				"x": -0.3338371435,
				"y": 1.2256667731,
				"z": 3.124187097,
				"element": "H" 
			},
			{
				"x": -0.6116709468,
				"y": 3.5589849832,
				"z": 2.518712721,
				"element": "H" 
			},
			{
				"x": -0.1400452633,
				"y": 5.8642410145,
				"z": -1.723832823,
				"element": "H" 
			},
			{
				"x": 0.2147078442,
				"y": 5.0529238716,
				"z": -4.07391998,
				"element": "H" 
			},
			{
				"x": 0.3596142744,
				"y": 2.6082768696,
				"z": -4.5133864787,
				"element": "H" 
			},
			{
				"x": 0.1498224295,
				"y": 0.9838998281,
				"z": -2.6368599182,
				"element": "H" 
			}
		],
		 "valence_orbital": [ 
			{
				"type": "occ",
				"energy": -0.26712,
				"method": "rhf"
			},
			{
				"type": "occ",
				"energy": -0.25929,
				"method": "rhf"
			},
			{
				"type": "occ",
				"energy": -0.24733,
				"method": "rhf"
			},
			{
				"type": "occ",
				"energy": -0.24311,
				"method": "rhf"
			},
			{
				"type": "occ",
				"energy": -0.2302,
				"method": "rhf"
			},
			{
				"type": "unocc",
				"energy": -0.09756,
				"method": "rhf"
			},
			{
				"type": "unocc",
				"energy": -0.0467,
				"method": "rhf"
			},
			{
				"type": "unocc",
				"energy": -0.02814,
				"method": "rhf"
			},
			{
				"type": "unocc",
				"energy": -0.01287,
				"method": "rhf"
			},
			{
				"type": "unocc",
				"energy": 0.00513,
				"method": "rhf"
			}
		],
		"cosmo_sigma_profile": { 
			"-0.025": 0.0,
			"-0.024": 0.0,
			"-0.023": 0.0,
			"-0.022": 0.0,
			"-0.021": 0.0,
			"-0.02": 0.0,
			"-0.019": 0.0,
			"-0.018": 0.0,
			"-0.017": 0.135050131862,
			"-0.016": 1.05287967178,
			"-0.015": 0.934943601836,
			"-0.014": 1.19132430704,
			"-0.013": 0.984511123109,
			"-0.012": 1.52225770935,
			"-0.011": 0.899496035161,
			"-0.01": 1.54586403626,
			"-0.009": 3.09274587265,
			"-0.008": 6.23561183842,
			"-0.007": 14.740817885,
			"-0.006": 23.032289618,
			"-0.005": 27.108342362,
			"-0.004": 27.1466357783,
			"-0.003": 25.4672232508,
			"-0.002": 24.4746326864,
			"-0.001": 22.5148501007,
			"0.0": 22.5932042005,
			"0.001": 20.6513084205,
			"0.002": 17.8998764938,
			"0.003": 16.3095966197,
			"0.004": 8.08637333402,
			"0.005": 5.15235646129,
			"0.006": 5.73435219635,
			"0.007": 4.3119726261,
			"0.008": 5.64460253472,
			"0.009": 5.16625382976,
			"0.01": 7.26949363163,
			"0.011": 8.25777688328,
			"0.012": 11.2204293299,
			"0.013": 9.36313222943,
			"0.014": 3.85591530025,
			"0.015": 1.06153376421,
			"0.016": 0.145153618879,
			"0.017": 0.0,
			"0.018": 0.0,
			"0.019": 0.0,
			"0.02": 0.0,
			"0.021": 0.0,
			"0.022": 0.0,
			"0.023": 0.0,
			"0.024": 0.0,
			"0.025": 0.0
		}
	}
}
