{
	 "smiles": "CCOC(=O)C1=CC(OC)=C(OC)C=C1N", 
	 "Tm": 360.15, 
	 "num_atms": 31, 
	 "gaussian": { 
		 "optdone": 1, 
		 "sigma_profile": "yes", 
		 "theory": "DFT", 
		 "functional": "B3LYP", 
		 "basiset": "6-31G**", 
		 "properties": { 
			 "R2extent": 5187.8546, 
			 "electric_dipole_moment_norm": 4.75136670443, 
			 "electric_quadrupole_moment_norm": 12.8313349921, 
			 "total_energy": -783.851388411, 
			 "HOMO_LUMO_gap": 0.16873, 
			 "cosmo_polarized_energy": -15.44, 
			 "cosmo_cavitation_energy": 34.38, 
			 "cosmo_dispersion_energy": -24.77, 
			 "cosmo_repulsion_energy": 1.96, 
			 "cosmo_total_nonelectrostatic_energy": 11.57, 
			 "SMD_solvation_energy": 8.35 
		},
		"coords": [
			{
				"x": -3.8282471559,
				"y": 1.7169764246,
				"z": -2.1001651977,
				"element": "C" 
			},
			{
				"x": -3.5811487302,
				"y": 2.1788185729,
				"z": -0.6718011877,
				"element": "C" 
			},
			{
				"x": -2.5021121093,
				"y": 1.4382868061,
				"z": -0.0534956931,
				"element": "O" 
			},
			{
				"x": -1.2331260348,
				"y": 1.8980108722,
				"z": -0.2953411305,
				"element": "C" 
			},
			{
				"x": -1.0348863176,
				"y": 2.8757389458,
				"z": -0.9948814858,
				"element": "O" 
			},
			{
				"x": -0.1700805957,
				"y": 1.1046131308,
				"z": 0.354542552,
				"element": "C" 
			},
			{
				"x": 1.1489870776,
				"y": 1.5197655946,
				"z": 0.0648998266,
				"element": "C" 
			},
			{
				"x": 2.2616054929,
				"y": 0.8777055646,
				"z": 0.5613003256,
				"element": "C" 
			},
			{
				"x": 3.5238746361,
				"y": 1.2793523254,
				"z": 0.1850945856,
				"element": "O" 
			},
			{
				"x": 4.2648121128,
				"y": 1.9648166065,
				"z": 1.1943308643,
				"element": "C" 
			},
			{
				"x": 2.0737806899,
				"y": -0.2478064498,
				"z": 1.4054694001,
				"element": "C" 
			},
			{
				"x": 3.2089242293,
				"y": -0.8467163099,
				"z": 1.8532521397,
				"element": "O" 
			},
			{
				"x": 3.0900265468,
				"y": -1.9949269837,
				"z": 2.6797930142,
				"element": "C" 
			},
			{
				"x": 0.7870768942,
				"y": -0.6691259243,
				"z": 1.7198533297,
				"element": "C" 
			},
			{
				"x": -0.3573613304,
				"y": -0.0118784898,
				"z": 1.2126404317,
				"element": "C" 
			},
			{
				"x": -1.5951906872,
				"y": -0.463584952,
				"z": 1.6187131702,
				"element": "N" 
			},
			{
				"x": -4.0307286649,
				"y": 0.6420767799,
				"z": -2.1353695704,
				"element": "H" 
			},
			{
				"x": -2.9600349078,
				"y": 1.9350931755,
				"z": -2.726009259,
				"element": "H" 
			},
			{
				"x": -4.6943624433,
				"y": 2.2427238499,
				"z": -2.5161971022,
				"element": "H" 
			},
			{
				"x": -4.4458487218,
				"y": 1.9846873459,
				"z": -0.0317289716,
				"element": "H" 
			},
			{
				"x": -3.3368895927,
				"y": 3.2424455924,
				"z": -0.639502128,
				"element": "H" 
			},
			{
				"x": 1.2830227591,
				"y": 2.3705343309,
				"z": -0.593194201,
				"element": "H" 
			},
			{
				"x": 4.4525880819,
				"y": 1.3227914887,
				"z": 2.0620197167,
				"element": "H" 
			},
			{
				"x": 5.2182108668,
				"y": 2.244421513,
				"z": 0.740139045,
				"element": "H" 
			},
			{
				"x": 3.7407508359,
				"y": 2.8729618993,
				"z": 1.5208929069,
				"element": "H" 
			},
			{
				"x": 4.1100353217,
				"y": -2.3119904993,
				"z": 2.901219187,
				"element": "H" 
			},
			{
				"x": 2.5699052969,
				"y": -1.7653988451,
				"z": 3.6184397777,
				"element": "H" 
			},
			{
				"x": 2.5622358605,
				"y": -2.8071449215,
				"z": 2.1646814685,
				"element": "H" 
			},
			{
				"x": 0.6359613741,
				"y": -1.5178363996,
				"z": 2.3773928904,
				"element": "H" 
			},
			{
				"x": -1.6418386055,
				"y": -1.4114877109,
				"z": 1.9585761163,
				"element": "H" 
			},
			{
				"x": -2.3892421795,
				"y": -0.1358233331,
				"z": 1.0899351789,
				"element": "H" 
			}
		],
		 "valence_orbital": [ 
			{
				"type": "occ",
				"energy": -0.27971,
				"method": "rhf"
			},
			{
				"type": "occ",
				"energy": -0.26464,
				"method": "rhf"
			},
			{
				"type": "occ",
				"energy": -0.25963,
				"method": "rhf"
			},
			{
				"type": "occ",
				"energy": -0.23127,
				"method": "rhf"
			},
			{
				"type": "occ",
				"energy": -0.19349,
				"method": "rhf"
			},
			{
				"type": "unocc",
				"energy": -0.02476,
				"method": "rhf"
			},
			{
				"type": "unocc",
				"energy": 0.01732,
				"method": "rhf"
			},
			{
				"type": "unocc",
				"energy": 0.07359,
				"method": "rhf"
			},
			{
				"type": "unocc",
				"energy": 0.08081,
				"method": "rhf"
			},
			{
				"type": "unocc",
				"energy": 0.09677,
				"method": "rhf"
			}
		],
		"cosmo_sigma_profile": { 
			"-0.025": 0.0,
			"-0.024": 0.0,
			"-0.023": 0.0,
			"-0.022": 0.0,
			"-0.021": 0.0,
			"-0.02": 0.0,
			"-0.019": 0.0,
			"-0.018": 0.0,
			"-0.017": 0.0,
			"-0.016": 0.0,
			"-0.015": 0.0,
			"-0.014": 0.137362014979,
			"-0.013": 0.981490785588,
			"-0.012": 1.62226764185,
			"-0.011": 1.47496964783,
			"-0.01": 1.43957327649,
			"-0.009": 1.87210449521,
			"-0.008": 2.99553216818,
			"-0.007": 3.61357707044,
			"-0.006": 10.0835205183,
			"-0.005": 17.1064209998,
			"-0.004": 25.7462269509,
			"-0.003": 29.3344714438,
			"-0.002": 25.0969290993,
			"-0.001": 19.8170912799,
			"0.0": 22.3839221336,
			"0.001": 16.7699228599,
			"0.002": 14.0140963911,
			"0.003": 15.0777221963,
			"0.004": 18.3356640112,
			"0.005": 8.19113499139,
			"0.006": 5.02089877109,
			"0.007": 3.66039395435,
			"0.008": 3.7777956578,
			"0.009": 4.80527168264,
			"0.01": 4.70612659457,
			"0.011": 4.36160617673,
			"0.012": 6.55848763684,
			"0.013": 2.48066748388,
			"0.014": 0.0,
			"0.015": 0.0,
			"0.016": 0.0,
			"0.017": 0.0,
			"0.018": 0.0,
			"0.019": 0.0,
			"0.02": 0.0,
			"0.021": 0.0,
			"0.022": 0.0,
			"0.023": 0.0,
			"0.024": 0.0,
			"0.025": 0.0
		}
	}
}
