{
	 "smiles": "ClC1=NC=CC=C1N1C(=O)C=CC1=O", 
	 "Tm": 389.15, 
	 "num_atms": 19, 
	 "gaussian": { 
		 "optdone": 1, 
		 "sigma_profile": "yes", 
		 "theory": "DFT", 
		 "functional": "B3LYP", 
		 "basiset": "6-31G**", 
		 "properties": { 
			 "R2extent": 3458.6666, 
			 "electric_dipole_moment_norm": 3.47975534341, 
			 "electric_quadrupole_moment_norm": 20.1618528176, 
			 "total_energy": -1066.09898897, 
			 "HOMO_LUMO_gap": 0.15823, 
			 "cosmo_polarized_energy": -14.38, 
			 "cosmo_cavitation_energy": 26.85, 
			 "cosmo_dispersion_energy": -18.93, 
			 "cosmo_repulsion_energy": 1.49, 
			 "cosmo_total_nonelectrostatic_energy": 9.42, 
			 "SMD_solvation_energy": 5.0 
		},
		"coords": [
			{
				"x": 1.2675446854,
				"y": -0.7493281217,
				"z": -2.1891314741,
				"element": "Cl" 
			},
			{
				"x": 0.4125931969,
				"y": -0.8402018793,
				"z": -0.6582386761,
				"element": "C" 
			},
			{
				"x": -0.7152577847,
				"y": -1.5228025055,
				"z": -0.6545304195,
				"element": "N" 
			},
			{
				"x": -1.375422986,
				"y": -1.6489675396,
				"z": 0.5043026955,
				"element": "C" 
			},
			{
				"x": -0.9257299795,
				"y": -1.0966314876,
				"z": 1.7007370516,
				"element": "C" 
			},
			{
				"x": 0.2580047413,
				"y": -0.3622939962,
				"z": 1.6803976738,
				"element": "C" 
			},
			{
				"x": 0.9525836818,
				"y": -0.2133519652,
				"z": 0.4804289229,
				"element": "C" 
			},
			{
				"x": 2.1629743179,
				"y": 0.5209592539,
				"z": 0.4375563407,
				"element": "N" 
			},
			{
				"x": 3.37113837,
				"y": 0.1058237081,
				"z": 1.0389097307,
				"element": "C" 
			},
			{
				"x": 3.5293527115,
				"y": -0.9018913469,
				"z": 1.6906721655,
				"element": "O" 
			},
			{
				"x": 4.3742078081,
				"y": 1.1708994543,
				"z": 0.7107378175,
				"element": "C" 
			},
			{
				"x": 3.7782654759,
				"y": 2.1270779455,
				"z": -0.0078537373,
				"element": "C" 
			},
			{
				"x": 2.3361479847,
				"y": 1.7668435568,
				"z": -0.2075269552,
				"element": "C" 
			},
			{
				"x": 1.4751923027,
				"y": 2.3973913839,
				"z": -0.7756888219,
				"element": "O" 
			},
			{
				"x": -2.2986796418,
				"y": -2.2220735734,
				"z": 0.4643909864,
				"element": "H" 
			},
			{
				"x": -1.4869012445,
				"y": -1.2310200917,
				"z": 2.6189964898,
				"element": "H" 
			},
			{
				"x": 0.6524297192,
				"y": 0.098500363,
				"z": 2.5798892521,
				"element": "H" 
			},
			{
				"x": 5.4005764208,
				"y": 1.1034972414,
				"z": 1.0466497456,
				"element": "H" 
			},
			{
				"x": 4.1921802202,
				"y": 3.0429696002,
				"z": -0.408598788,
				"element": "H" 
			}
		],
		 "valence_orbital": [ 
			{
				"type": "occ",
				"energy": -0.30789,
				"method": "rhf"
			},
			{
				"type": "occ",
				"energy": -0.29743,
				"method": "rhf"
			},
			{
				"type": "occ",
				"energy": -0.28324,
				"method": "rhf"
			},
			{
				"type": "occ",
				"energy": -0.27644,
				"method": "rhf"
			},
			{
				"type": "occ",
				"energy": -0.2629,
				"method": "rhf"
			},
			{
				"type": "unocc",
				"energy": -0.10467,
				"method": "rhf"
			},
			{
				"type": "unocc",
				"energy": -0.04702,
				"method": "rhf"
			},
			{
				"type": "unocc",
				"energy": -0.03608,
				"method": "rhf"
			},
			{
				"type": "unocc",
				"energy": 0.02826,
				"method": "rhf"
			},
			{
				"type": "unocc",
				"energy": 0.04469,
				"method": "rhf"
			}
		],
		"cosmo_sigma_profile": { 
			"-0.025": 0.0,
			"-0.024": 0.0,
			"-0.023": 0.0,
			"-0.022": 0.0,
			"-0.021": 0.0,
			"-0.02": 0.0,
			"-0.019": 0.0,
			"-0.018": 0.0,
			"-0.017": 0.0,
			"-0.016": 0.0,
			"-0.015": 0.0,
			"-0.014": 0.0,
			"-0.013": 0.0,
			"-0.012": 0.0,
			"-0.011": 0.0328200154493,
			"-0.01": 3.05308929858,
			"-0.009": 6.02458744572,
			"-0.008": 10.0692977352,
			"-0.007": 12.2933620747,
			"-0.006": 11.7270771459,
			"-0.005": 9.50200960621,
			"-0.004": 12.1235103058,
			"-0.003": 13.8866627245,
			"-0.002": 15.7555878441,
			"-0.001": 15.9111723546,
			"0.0": 19.4850523465,
			"0.001": 12.9058726806,
			"0.002": 8.57951233717,
			"0.003": 9.24332275671,
			"0.004": 10.6782131456,
			"0.005": 7.34046958651,
			"0.006": 6.07218758982,
			"0.007": 4.63563265155,
			"0.008": 5.04731477962,
			"0.009": 6.43104281116,
			"0.01": 10.5916251554,
			"0.011": 6.1010635393,
			"0.012": 0.970713193944,
			"0.013": 0.942126302976,
			"0.014": 0.426812624507,
			"0.015": 0.0,
			"0.016": 0.0,
			"0.017": 0.0,
			"0.018": 0.0,
			"0.019": 0.0,
			"0.02": 0.0,
			"0.021": 0.0,
			"0.022": 0.0,
			"0.023": 0.0,
			"0.024": 0.0,
			"0.025": 0.0
		}
	}
}
