{
	 "smiles": "NC1=C2C=CC=CC2=NC(CCl)=N1", 
	 "Tm": 437.15, 
	 "num_atms": 21, 
	 "gaussian": { 
		 "optdone": 1, 
		 "sigma_profile": "yes", 
		 "theory": "DFT", 
		 "functional": "B3LYP", 
		 "basiset": "6-31G**", 
		 "properties": { 
			 "R2extent": 3478.9322, 
			 "electric_dipole_moment_norm": 5.37899736661, 
			 "electric_quadrupole_moment_norm": 11.9510349451, 
			 "total_energy": -972.253686019, 
			 "HOMO_LUMO_gap": 0.17465, 
			 "cosmo_polarized_energy": -14.97, 
			 "cosmo_cavitation_energy": 26.95, 
			 "cosmo_dispersion_energy": -20.31, 
			 "cosmo_repulsion_energy": 1.62, 
			 "cosmo_total_nonelectrostatic_energy": 8.26, 
			 "SMD_solvation_energy": 1.16 
		},
		"coords": [
			{
				"x": -0.3406627439,
				"y": -1.816482242,
				"z": 0.0154539285,
				"element": "N" 
			},
			{
				"x": -0.2030698366,
				"y": -0.4852663736,
				"z": -0.2498211085,
				"element": "C" 
			},
			{
				"x": -0.1867776741,
				"y": 0.4961241911,
				"z": 0.8058459801,
				"element": "C" 
			},
			{
				"x": -0.3150372983,
				"y": 0.2091118836,
				"z": 2.1845039196,
				"element": "C" 
			},
			{
				"x": -0.2590676842,
				"y": 1.2269198458,
				"z": 3.1157282507,
				"element": "C" 
			},
			{
				"x": -0.0762702191,
				"y": 2.5639575746,
				"z": 2.6955945877,
				"element": "C" 
			},
			{
				"x": 0.0373660043,
				"y": 2.8694999556,
				"z": 1.3557194619,
				"element": "C" 
			},
			{
				"x": -0.0220695464,
				"y": 1.8442526774,
				"z": 0.3790530429,
				"element": "C" 
			},
			{
				"x": 0.0701315183,
				"y": 2.18304342,
				"z": -0.9441356161,
				"element": "N" 
			},
			{
				"x": 0.0030077816,
				"y": 1.186259069,
				"z": -1.8016963615,
				"element": "C" 
			},
			{
				"x": 0.0834972189,
				"y": 1.5426072924,
				"z": -3.2622049475,
				"element": "C" 
			},
			{
				"x": -1.5577732016,
				"y": 1.4610097471,
				"z": -4.055279328,
				"element": "Cl" 
			},
			{
				"x": -0.1096039011,
				"y": -0.1363560841,
				"z": -1.525201868,
				"element": "N" 
			},
			{
				"x": -0.2136243039,
				"y": -2.4300840673,
				"z": -0.7760830477,
				"element": "H" 
			},
			{
				"x": -0.0986478442,
				"y": -2.1810628435,
				"z": 0.9216644615,
				"element": "H" 
			},
			{
				"x": -0.4794958004,
				"y": -0.810652176,
				"z": 2.5212112605,
				"element": "H" 
			},
			{
				"x": -0.3616503494,
				"y": 1.0021969835,
				"z": 4.1729300992,
				"element": "H" 
			},
			{
				"x": -0.0331988962,
				"y": 3.3561677594,
				"z": 3.4374768427,
				"element": "H" 
			},
			{
				"x": 0.1663802747,
				"y": 3.8890522072,
				"z": 1.0081832004,
				"element": "H" 
			},
			{
				"x": 0.437586265,
				"y": 2.5642947602,
				"z": -3.3811186738,
				"element": "H" 
			},
			{
				"x": 0.7114802366,
				"y": 0.8361064194,
				"z": -3.8042240846,
				"element": "H" 
			}
		],
		 "valence_orbital": [ 
			{
				"type": "occ",
				"energy": -0.28171,
				"method": "rhf"
			},
			{
				"type": "occ",
				"energy": -0.27602,
				"method": "rhf"
			},
			{
				"type": "occ",
				"energy": -0.26752,
				"method": "rhf"
			},
			{
				"type": "occ",
				"energy": -0.24998,
				"method": "rhf"
			},
			{
				"type": "occ",
				"energy": -0.22873,
				"method": "rhf"
			},
			{
				"type": "unocc",
				"energy": -0.05408,
				"method": "rhf"
			},
			{
				"type": "unocc",
				"energy": -0.03551,
				"method": "rhf"
			},
			{
				"type": "unocc",
				"energy": 0.01734,
				"method": "rhf"
			},
			{
				"type": "unocc",
				"energy": 0.04299,
				"method": "rhf"
			},
			{
				"type": "unocc",
				"energy": 0.06019,
				"method": "rhf"
			}
		],
		"cosmo_sigma_profile": { 
			"-0.025": 0.0,
			"-0.024": 0.0,
			"-0.023": 0.0,
			"-0.022": 0.0,
			"-0.021": 0.0,
			"-0.02": 0.0,
			"-0.019": 0.0,
			"-0.018": 0.0,
			"-0.017": 0.0,
			"-0.016": 0.0132146702648,
			"-0.015": 0.748372070898,
			"-0.014": 2.13250967665,
			"-0.013": 2.62166896361,
			"-0.012": 2.24793834359,
			"-0.011": 2.88754504982,
			"-0.01": 2.65572655334,
			"-0.009": 2.1047829545,
			"-0.008": 3.00289335011,
			"-0.007": 7.83465205129,
			"-0.006": 11.1060407671,
			"-0.005": 13.1257140918,
			"-0.004": 11.9762947006,
			"-0.003": 10.6986986574,
			"-0.002": 8.7931285944,
			"-0.001": 11.4904228577,
			"0.0": 14.8550429862,
			"0.001": 14.6419790245,
			"0.002": 16.2979473831,
			"0.003": 18.6758143043,
			"0.004": 14.9082409934,
			"0.005": 10.2306182937,
			"0.006": 13.0628582382,
			"0.007": 7.18268959911,
			"0.008": 3.82586600706,
			"0.009": 2.25594345727,
			"0.01": 2.71558804349,
			"0.011": 1.96718056263,
			"0.012": 0.983746660773,
			"0.013": 1.39999977966,
			"0.014": 1.28406771149,
			"0.015": 0.369017049049,
			"0.016": 0.0,
			"0.017": 0.0,
			"0.018": 0.0,
			"0.019": 0.0,
			"0.02": 0.0,
			"0.021": 0.0,
			"0.022": 0.0,
			"0.023": 0.0,
			"0.024": 0.0,
			"0.025": 0.0
		}
	}
}
