{
	 "smiles": "NC1=CC(=NN1)C1=CC=C(Cl)C=C1", 
	 "Tm": 448.15, 
	 "num_atms": 21, 
	 "gaussian": { 
		 "optdone": 1, 
		 "sigma_profile": "yes", 
		 "theory": "DFT", 
		 "functional": "B3LYP", 
		 "basiset": "6-31G**", 
		 "properties": { 
			 "R2extent": 4666.8348, 
			 "electric_dipole_moment_norm": 5.66542040894, 
			 "electric_quadrupole_moment_norm": 13.2782348232, 
			 "total_energy": -972.21094484, 
			 "HOMO_LUMO_gap": 0.18574, 
			 "cosmo_polarized_energy": -15.6, 
			 "cosmo_cavitation_energy": 27.44, 
			 "cosmo_dispersion_energy": -20.73, 
			 "cosmo_repulsion_energy": 1.64, 
			 "cosmo_total_nonelectrostatic_energy": 8.36, 
			 "SMD_solvation_energy": 3.47 
		},
		"coords": [
			{
				"x": 3.8731240825,
				"y": 0.4013669796,
				"z": -0.7225043324,
				"element": "N" 
			},
			{
				"x": 2.5807199784,
				"y": -0.1240199824,
				"z": -0.8022897688,
				"element": "C" 
			},
			{
				"x": 1.5648047581,
				"y": -0.2603358699,
				"z": 0.126265705,
				"element": "C" 
			},
			{
				"x": 0.4676985237,
				"y": -0.7977527022,
				"z": -0.6054594792,
				"element": "C" 
			},
			{
				"x": 0.7843654771,
				"y": -0.9856969115,
				"z": -1.8894384774,
				"element": "N" 
			},
			{
				"x": 2.0713810191,
				"y": -0.5670206883,
				"z": -1.9848505067,
				"element": "N" 
			},
			{
				"x": -0.8721193472,
				"y": -1.1543341841,
				"z": -0.1114307679,
				"element": "C" 
			},
			{
				"x": -1.266967458,
				"y": -0.8619611073,
				"z": 1.2025922749,
				"element": "C" 
			},
			{
				"x": -2.5366195362,
				"y": -1.2002924022,
				"z": 1.6681558619,
				"element": "C" 
			},
			{
				"x": -3.4273412628,
				"y": -1.8388593501,
				"z": 0.8079885141,
				"element": "C" 
			},
			{
				"x": -5.032815296,
				"y": -2.2711218121,
				"z": 1.3858464097,
				"element": "Cl" 
			},
			{
				"x": -3.0640361791,
				"y": -2.1402435488,
				"z": -0.5053464315,
				"element": "C" 
			},
			{
				"x": -1.7927583024,
				"y": -1.7984766573,
				"z": -0.9555339855,
				"element": "C" 
			},
			{
				"x": 4.1071422256,
				"y": 0.6847926583,
				"z": 0.2204387982,
				"element": "H" 
			},
			{
				"x": 4.5889950899,
				"y": -0.2258584913,
				"z": -1.0746693958,
				"element": "H" 
			},
			{
				"x": 1.6246242732,
				"y": -0.0330191828,
				"z": 1.1796591321,
				"element": "H" 
			},
			{
				"x": 2.5117902947,
				"y": -0.5271712832,
				"z": -2.8905635202,
				"element": "H" 
			},
			{
				"x": -0.5814381868,
				"y": -0.3568173481,
				"z": 1.8758344714,
				"element": "H" 
			},
			{
				"x": -2.8327754735,
				"y": -0.9691855228,
				"z": 2.6854489411,
				"element": "H" 
			},
			{
				"x": -3.7685145887,
				"y": -2.6376092835,
				"z": -1.1630726403,
				"element": "H" 
			},
			{
				"x": -1.4960600916,
				"y": -2.0283833098,
				"z": -1.9729708027,
				"element": "H" 
			}
		],
		 "valence_orbital": [ 
			{
				"type": "occ",
				"energy": -0.28537,
				"method": "rhf"
			},
			{
				"type": "occ",
				"energy": -0.27384,
				"method": "rhf"
			},
			{
				"type": "occ",
				"energy": -0.25417,
				"method": "rhf"
			},
			{
				"type": "occ",
				"energy": -0.22477,
				"method": "rhf"
			},
			{
				"type": "occ",
				"energy": -0.20808,
				"method": "rhf"
			},
			{
				"type": "unocc",
				"energy": -0.02234,
				"method": "rhf"
			},
			{
				"type": "unocc",
				"energy": -0.00371,
				"method": "rhf"
			},
			{
				"type": "unocc",
				"energy": 0.03789,
				"method": "rhf"
			},
			{
				"type": "unocc",
				"energy": 0.03922,
				"method": "rhf"
			},
			{
				"type": "unocc",
				"energy": 0.06116,
				"method": "rhf"
			}
		],
		"cosmo_sigma_profile": { 
			"-0.025": 0.0,
			"-0.024": 0.0,
			"-0.023": 0.0,
			"-0.022": 0.0,
			"-0.021": 0.0,
			"-0.02": 0.0,
			"-0.019": 0.0,
			"-0.018": 0.0,
			"-0.017": 0.0569300856739,
			"-0.016": 1.0751237256,
			"-0.015": 1.53347220087,
			"-0.014": 1.39965125061,
			"-0.013": 3.74484066029,
			"-0.012": 4.64404792175,
			"-0.011": 3.05185840117,
			"-0.01": 3.9654171965,
			"-0.009": 3.57657865697,
			"-0.008": 3.05911284647,
			"-0.007": 7.94519080164,
			"-0.006": 10.3154769084,
			"-0.005": 9.24381028159,
			"-0.004": 8.94554559458,
			"-0.003": 7.83653718539,
			"-0.002": 8.83821780841,
			"-0.001": 8.5251599099,
			"0.0": 10.9138356986,
			"0.001": 12.8032842672,
			"0.002": 15.7494201622,
			"0.003": 23.1581091583,
			"0.004": 29.671165827,
			"0.005": 17.1589571471,
			"0.006": 7.10369793422,
			"0.007": 2.92144945782,
			"0.008": 2.67279653947,
			"0.009": 2.45776894211,
			"0.01": 1.83596903873,
			"0.011": 2.03013008482,
			"0.012": 1.65929688771,
			"0.013": 1.76735725966,
			"0.014": 1.68845911784,
			"0.015": 0.494240590306,
			"0.016": 0.0,
			"0.017": 0.0,
			"0.018": 0.0,
			"0.019": 0.0,
			"0.02": 0.0,
			"0.021": 0.0,
			"0.022": 0.0,
			"0.023": 0.0,
			"0.024": 0.0,
			"0.025": 0.0
		}
	}
}
