{
	 "smiles": "OC(=O)C1(CCCCC1)C1=C(Cl)C=CC=C1F", 
	 "Tm": 404.15, 
	 "num_atms": 31, 
	 "gaussian": { 
		 "optdone": 1, 
		 "sigma_profile": "yes", 
		 "theory": "DFT", 
		 "functional": "B3LYP", 
		 "basiset": "6-31G**", 
		 "properties": { 
			 "R2extent": 3965.26, 
			 "electric_dipole_moment_norm": 1.57090574192, 
			 "electric_quadrupole_moment_norm": 11.3723089859, 
			 "total_energy": -1214.30724778, 
			 "HOMO_LUMO_gap": 0.22312, 
			 "cosmo_polarized_energy": -9.88, 
			 "cosmo_cavitation_energy": 33.1, 
			 "cosmo_dispersion_energy": -23.86, 
			 "cosmo_repulsion_energy": 1.82, 
			 "cosmo_total_nonelectrostatic_energy": 11.06, 
			 "SMD_solvation_energy": 6.1 
		},
		"coords": [
			{
				"x": 3.4142056665,
				"y": 1.4932478269,
				"z": -0.6602830483,
				"element": "O" 
			},
			{
				"x": 2.7093662349,
				"y": 0.4247144814,
				"z": -0.2147473257,
				"element": "C" 
			},
			{
				"x": 3.2510315286,
				"y": -0.523239668,
				"z": 0.3084869315,
				"element": "O" 
			},
			{
				"x": 1.2033443987,
				"y": 0.5124859324,
				"z": -0.5366101424,
				"element": "C" 
			},
			{
				"x": 1.1117162019,
				"y": 0.0092222241,
				"z": -2.0189764846,
				"element": "C" 
			},
			{
				"x": -0.2362398871,
				"y": 0.2494214864,
				"z": -2.7234119176,
				"element": "C" 
			},
			{
				"x": -0.7023514868,
				"y": 1.705217478,
				"z": -2.6234071774,
				"element": "C" 
			},
			{
				"x": -0.7005186826,
				"y": 2.1539942357,
				"z": -1.1593158137,
				"element": "C" 
			},
			{
				"x": 0.6946387901,
				"y": 1.9943193843,
				"z": -0.5431938613,
				"element": "C" 
			},
			{
				"x": 0.4941252672,
				"y": -0.3045105765,
				"z": 0.5770518711,
				"element": "C" 
			},
			{
				"x": -0.2547980118,
				"y": -1.4985899005,
				"z": 0.5250712735,
				"element": "C" 
			},
			{
				"x": -0.4264431149,
				"y": -2.5010524419,
				"z": -0.9192572326,
				"element": "Cl" 
			},
			{
				"x": -0.8874338486,
				"y": -2.0471258727,
				"z": 1.6494869299,
				"element": "C" 
			},
			{
				"x": -0.7580899784,
				"y": -1.4513688464,
				"z": 2.8960347337,
				"element": "C" 
			},
			{
				"x": 0.0393870296,
				"y": -0.318584814,
				"z": 3.0256660852,
				"element": "C" 
			},
			{
				"x": 0.6407834258,
				"y": 0.194346985,
				"z": 1.89016425,
				"element": "C" 
			},
			{
				"x": 1.465253708,
				"y": 1.2553021336,
				"z": 2.0845452702,
				"element": "F" 
			},
			{
				"x": 4.3438837411,
				"y": 1.2921059332,
				"z": -0.4600177226,
				"element": "H" 
			},
			{
				"x": 1.8761527636,
				"y": 0.5800048905,
				"z": -2.56104522,
				"element": "H" 
			},
			{
				"x": 1.4048845631,
				"y": -1.0392342437,
				"z": -2.0834082338,
				"element": "H" 
			},
			{
				"x": -0.129975972,
				"y": -0.0511130457,
				"z": -3.7730479277,
				"element": "H" 
			},
			{
				"x": -1.0067065398,
				"y": -0.3975203939,
				"z": -2.2963602962,
				"element": "H" 
			},
			{
				"x": -1.7002565293,
				"y": 1.8120806003,
				"z": -3.06474335,
				"element": "H" 
			},
			{
				"x": -0.0304048445,
				"y": 2.3567504847,
				"z": -3.1999554168,
				"element": "H" 
			},
			{
				"x": -1.0062459304,
				"y": 3.2036787785,
				"z": -1.076419531,
				"element": "H" 
			},
			{
				"x": -1.4361644604,
				"y": 1.5696158969,
				"z": -0.589713621,
				"element": "H" 
			},
			{
				"x": 0.7187952181,
				"y": 2.4136040704,
				"z": 0.4609501241,
				"element": "H" 
			},
			{
				"x": 1.4056204796,
				"y": 2.5763218358,
				"z": -1.1376701402,
				"element": "H" 
			},
			{
				"x": -1.4620763837,
				"y": -2.9576383209,
				"z": 1.5288160052,
				"element": "H" 
			},
			{
				"x": -1.2502738408,
				"y": -1.8824512541,
				"z": 3.7616858977,
				"element": "H" 
			},
			{
				"x": 0.2216904943,
				"y": 0.1638947202,
				"z": 3.9790250908,
				"element": "H" 
			}
		],
		 "valence_orbital": [ 
			{
				"type": "occ",
				"energy": -0.30824,
				"method": "rhf"
			},
			{
				"type": "occ",
				"energy": -0.29718,
				"method": "rhf"
			},
			{
				"type": "occ",
				"energy": -0.26709,
				"method": "rhf"
			},
			{
				"type": "occ",
				"energy": -0.25618,
				"method": "rhf"
			},
			{
				"type": "occ",
				"energy": -0.24707,
				"method": "rhf"
			},
			{
				"type": "unocc",
				"energy": -0.02395,
				"method": "rhf"
			},
			{
				"type": "unocc",
				"energy": -0.01131,
				"method": "rhf"
			},
			{
				"type": "unocc",
				"energy": 0.01268,
				"method": "rhf"
			},
			{
				"type": "unocc",
				"energy": 0.02118,
				"method": "rhf"
			},
			{
				"type": "unocc",
				"energy": 0.07367,
				"method": "rhf"
			}
		],
		"cosmo_sigma_profile": { 
			"-0.025": 0.0,
			"-0.024": 0.0,
			"-0.023": 0.0,
			"-0.022": 0.0,
			"-0.021": 0.0,
			"-0.02": 0.0,
			"-0.019": 0.103230916644,
			"-0.018": 0.628545907389,
			"-0.017": 1.18650967786,
			"-0.016": 0.459781599107,
			"-0.015": 0.656655805775,
			"-0.014": 1.04216337775,
			"-0.013": 0.439895974184,
			"-0.012": 0.640491449226,
			"-0.011": 1.06594784384,
			"-0.01": 0.90512192065,
			"-0.009": 0.108845931606,
			"-0.008": 1.98540784076,
			"-0.007": 6.63919400576,
			"-0.006": 6.66469132143,
			"-0.005": 7.07334976642,
			"-0.004": 5.65949670518,
			"-0.003": 14.7394544221,
			"-0.002": 32.0218249486,
			"-0.001": 36.4457645386,
			"0.0": 33.2086090362,
			"0.001": 27.8018479895,
			"0.002": 21.7275886695,
			"0.003": 21.7114390822,
			"0.004": 13.2879046641,
			"0.005": 5.85190219242,
			"0.006": 3.09073875265,
			"0.007": 3.23666435079,
			"0.008": 2.28085110816,
			"0.009": 1.80941544904,
			"0.01": 2.15522461173,
			"0.011": 3.53958184582,
			"0.012": 4.0385134055,
			"0.013": 0.236613407638,
			"0.014": 0.0,
			"0.015": 0.0,
			"0.016": 0.0,
			"0.017": 0.0,
			"0.018": 0.0,
			"0.019": 0.0,
			"0.02": 0.0,
			"0.021": 0.0,
			"0.022": 0.0,
			"0.023": 0.0,
			"0.024": 0.0,
			"0.025": 0.0
		}
	}
}
