{
	 "smiles": "CC1=C(N)C(=CC=C1)C(N)=O", 
	 "Tm": 419.15, 
	 "num_atms": 21, 
	 "gaussian": { 
		 "optdone": 1, 
		 "sigma_profile": "yes", 
		 "theory": "DFT", 
		 "functional": "B3LYP", 
		 "basiset": "6-31G**", 
		 "properties": { 
			 "R2extent": 1806.8573, 
			 "electric_dipole_moment_norm": 4.1449377426, 
			 "electric_quadrupole_moment_norm": 10.7719171195, 
			 "total_energy": -495.635689473, 
			 "HOMO_LUMO_gap": 0.18432, 
			 "cosmo_polarized_energy": -14.37, 
			 "cosmo_cavitation_energy": 23.91, 
			 "cosmo_dispersion_energy": -18.08, 
			 "cosmo_repulsion_energy": 1.45, 
			 "cosmo_total_nonelectrostatic_energy": 7.27, 
			 "SMD_solvation_energy": 4.91 
		},
		"coords": [
			{
				"x": -2.5973796416,
				"y": 1.81847941,
				"z": -0.643983188,
				"element": "C" 
			},
			{
				"x": -1.627767416,
				"y": 0.794830371,
				"z": -0.1024841485,
				"element": "C" 
			},
			{
				"x": -0.3449504817,
				"y": 0.6477960765,
				"z": -0.6879689839,
				"element": "C" 
			},
			{
				"x": 0.0060853251,
				"y": 1.4777806402,
				"z": -1.7609477987,
				"element": "N" 
			},
			{
				"x": 0.5580182089,
				"y": -0.3051409254,
				"z": -0.1529195225,
				"element": "C" 
			},
			{
				"x": 0.1472173132,
				"y": -1.1207343067,
				"z": 0.9127940304,
				"element": "C" 
			},
			{
				"x": -1.1088635984,
				"y": -0.9827448026,
				"z": 1.4839271597,
				"element": "C" 
			},
			{
				"x": -1.980737823,
				"y": -0.0174109674,
				"z": 0.9739039558,
				"element": "C" 
			},
			{
				"x": 1.9596872422,
				"y": -0.5398436868,
				"z": -0.6346181365,
				"element": "C" 
			},
			{
				"x": 2.5720864725,
				"y": 0.4872209374,
				"z": -1.3374413123,
				"element": "N" 
			},
			{
				"x": 2.552679138,
				"y": -1.5914675308,
				"z": -0.4269216832,
				"element": "O" 
			},
			{
				"x": -2.8799617959,
				"y": 1.6121324363,
				"z": -1.6864694029,
				"element": "H" 
			},
			{
				"x": -2.1797459484,
				"y": 2.8330124808,
				"z": -0.6169956775,
				"element": "H" 
			},
			{
				"x": -3.5203909976,
				"y": 1.8254996044,
				"z": -0.059452822,
				"element": "H" 
			},
			{
				"x": 0.6771888631,
				"y": 1.0755338499,
				"z": -2.4038022739,
				"element": "H" 
			},
			{
				"x": -0.7809932323,
				"y": 1.8858216304,
				"z": -2.2455550358,
				"element": "H" 
			},
			{
				"x": 0.8552632744,
				"y": -1.8589205104,
				"z": 1.2732577696,
				"element": "H" 
			},
			{
				"x": -1.4098464248,
				"y": -1.6111690865,
				"z": 2.3159671485,
				"element": "H" 
			},
			{
				"x": -2.9669904391,
				"y": 0.1057735628,
				"z": 1.415196674,
				"element": "H" 
			},
			{
				"x": 2.2774904406,
				"y": 1.4389602461,
				"z": -1.1583160457,
				"element": "H" 
			},
			{
				"x": 3.5660115209,
				"y": 0.3452905709,
				"z": -1.4627707068,
				"element": "H" 
			}
		],
		 "valence_orbital": [ 
			{
				"type": "occ",
				"energy": -0.31338,
				"method": "rhf"
			},
			{
				"type": "occ",
				"energy": -0.27161,
				"method": "rhf"
			},
			{
				"type": "occ",
				"energy": -0.25041,
				"method": "rhf"
			},
			{
				"type": "occ",
				"energy": -0.239,
				"method": "rhf"
			},
			{
				"type": "occ",
				"energy": -0.21,
				"method": "rhf"
			},
			{
				"type": "unocc",
				"energy": -0.02568,
				"method": "rhf"
			},
			{
				"type": "unocc",
				"energy": 0.01092,
				"method": "rhf"
			},
			{
				"type": "unocc",
				"energy": 0.061,
				"method": "rhf"
			},
			{
				"type": "unocc",
				"energy": 0.07421,
				"method": "rhf"
			},
			{
				"type": "unocc",
				"energy": 0.10376,
				"method": "rhf"
			}
		],
		"cosmo_sigma_profile": { 
			"-0.025": 0.0,
			"-0.024": 0.0,
			"-0.023": 0.0,
			"-0.022": 0.0,
			"-0.021": 0.0,
			"-0.02": 0.0,
			"-0.019": 0.0,
			"-0.018": 0.0,
			"-0.017": 0.0,
			"-0.016": 0.0,
			"-0.015": 0.0,
			"-0.014": 0.178942859016,
			"-0.013": 1.05354134228,
			"-0.012": 2.34030679341,
			"-0.011": 3.33581623035,
			"-0.01": 4.32810787883,
			"-0.009": 5.47726714906,
			"-0.008": 3.73673620915,
			"-0.007": 3.83462070065,
			"-0.006": 5.62366152052,
			"-0.005": 10.8446698498,
			"-0.004": 13.8515820556,
			"-0.003": 13.6355509535,
			"-0.002": 13.4592760239,
			"-0.001": 12.660549784,
			"0.0": 12.838855332,
			"0.001": 11.0037660377,
			"0.002": 8.80682414973,
			"0.003": 9.05095961361,
			"0.004": 10.396829879,
			"0.005": 11.906745635,
			"0.006": 9.02195329605,
			"0.007": 2.17384196771,
			"0.008": 2.57156955068,
			"0.009": 2.51948428509,
			"0.01": 1.09104269271,
			"0.011": 2.08988220777,
			"0.012": 2.33269561613,
			"0.013": 3.49708992966,
			"0.014": 4.94703314374,
			"0.015": 0.428099577291,
			"0.016": 0.0,
			"0.017": 0.0,
			"0.018": 0.0,
			"0.019": 0.0,
			"0.02": 0.0,
			"0.021": 0.0,
			"0.022": 0.0,
			"0.023": 0.0,
			"0.024": 0.0,
			"0.025": 0.0
		}
	}
}
