{
	 "smiles": "CCOC1=C(SC(=C1)C1=CC=CC=C1)C(O)=O", 
	 "Tm": 448.15, 
	 "num_atms": 29, 
	 "gaussian": { 
		 "optdone": 1, 
		 "sigma_profile": "yes", 
		 "theory": "DFT", 
		 "functional": "B3LYP", 
		 "basiset": "6-31G**", 
		 "properties": { 
			 "R2extent": 5616.5738, 
			 "electric_dipole_moment_norm": 5.14681351323, 
			 "electric_quadrupole_moment_norm": 11.208400501, 
			 "total_energy": -1126.46426346, 
			 "HOMO_LUMO_gap": 0.15743, 
			 "cosmo_polarized_energy": -13.68, 
			 "cosmo_cavitation_energy": 34.71, 
			 "cosmo_dispersion_energy": -25.41, 
			 "cosmo_repulsion_energy": 1.93, 
			 "cosmo_total_nonelectrostatic_energy": 11.23, 
			 "SMD_solvation_energy": 6.96 
		},
		"coords": [
			{
				"x": 1.8858934056,
				"y": 1.9563911695,
				"z": -2.9823446803,
				"element": "C" 
			},
			{
				"x": 2.8672961511,
				"y": 1.470252359,
				"z": -1.9263796682,
				"element": "C" 
			},
			{
				"x": 2.3698692808,
				"y": 1.723429861,
				"z": -0.5851838869,
				"element": "O" 
			},
			{
				"x": 1.3891798639,
				"y": 0.9352044994,
				"z": -0.0911285435,
				"element": "C" 
			},
			{
				"x": 1.4562745186,
				"y": -0.4236031905,
				"z": 0.2087276675,
				"element": "C" 
			},
			{
				"x": -0.0648189568,
				"y": -0.9594119544,
				"z": 0.9079941058,
				"element": "S" 
			},
			{
				"x": -0.7570935398,
				"y": 0.6431379321,
				"z": 0.8294492736,
				"element": "C" 
			},
			{
				"x": 0.141240082,
				"y": 1.5219467246,
				"z": 0.274916737,
				"element": "C" 
			},
			{
				"x": -2.1288599515,
				"y": 0.9051567617,
				"z": 1.2825391803,
				"element": "C" 
			},
			{
				"x": -3.1105766961,
				"y": -0.1014765618,
				"z": 1.2808699816,
				"element": "C" 
			},
			{
				"x": -4.4065525285,
				"y": 0.1686248938,
				"z": 1.7148053145,
				"element": "C" 
			},
			{
				"x": -4.7498245447,
				"y": 1.4490424266,
				"z": 2.1530277899,
				"element": "C" 
			},
			{
				"x": -3.7834682166,
				"y": 2.4576778171,
				"z": 2.1589065245,
				"element": "C" 
			},
			{
				"x": -2.4849929174,
				"y": 2.1898453113,
				"z": 1.733026463,
				"element": "C" 
			},
			{
				"x": 2.6149719791,
				"y": -1.3296631106,
				"z": 0.1250156233,
				"element": "C" 
			},
			{
				"x": 2.5611555344,
				"y": -2.453660432,
				"z": 0.8964623296,
				"element": "O" 
			},
			{
				"x": 3.5879398507,
				"y": -1.1424241997,
				"z": -0.5738694132,
				"element": "O" 
			},
			{
				"x": 2.3150855167,
				"y": 1.8113257279,
				"z": -3.9796460322,
				"element": "H" 
			},
			{
				"x": 0.9450428257,
				"y": 1.3982178741,
				"z": -2.9388581856,
				"element": "H" 
			},
			{
				"x": 1.6636753592,
				"y": 3.0203743803,
				"z": -2.8551583663,
				"element": "H" 
			},
			{
				"x": 3.8015947781,
				"y": 2.0353930596,
				"z": -1.9680384841,
				"element": "H" 
			},
			{
				"x": 3.1046676643,
				"y": 0.4110310719,
				"z": -2.028521232,
				"element": "H" 
			},
			{
				"x": -0.0689707472,
				"y": 2.5677359155,
				"z": 0.0883186665,
				"element": "H" 
			},
			{
				"x": -2.8629559925,
				"y": -1.0944864578,
				"z": 0.916633007,
				"element": "H" 
			},
			{
				"x": -5.1516687323,
				"y": -0.6213343391,
				"z": 1.7018510757,
				"element": "H" 
			},
			{
				"x": -5.7608291374,
				"y": 1.6589481488,
				"z": 2.4890018351,
				"element": "H" 
			},
			{
				"x": -4.0384871881,
				"y": 3.4545795516,
				"z": 2.5063473522,
				"element": "H" 
			},
			{
				"x": -1.7330672927,
				"y": 2.9718253921,
				"z": 1.7691648351,
				"element": "H" 
			},
			{
				"x": 1.8599796314,
				"y": -2.3873806321,
				"z": 1.5613707301,
				"element": "H" 
			}
		],
		 "valence_orbital": [ 
			{
				"type": "occ",
				"energy": -0.28691,
				"method": "rhf"
			},
			{
				"type": "occ",
				"energy": -0.27144,
				"method": "rhf"
			},
			{
				"type": "occ",
				"energy": -0.26674,
				"method": "rhf"
			},
			{
				"type": "occ",
				"energy": -0.25326,
				"method": "rhf"
			},
			{
				"type": "occ",
				"energy": -0.22687,
				"method": "rhf"
			},
			{
				"type": "unocc",
				"energy": -0.06944,
				"method": "rhf"
			},
			{
				"type": "unocc",
				"energy": -0.01982,
				"method": "rhf"
			},
			{
				"type": "unocc",
				"energy": -0.01251,
				"method": "rhf"
			},
			{
				"type": "unocc",
				"energy": 0.00325,
				"method": "rhf"
			},
			{
				"type": "unocc",
				"energy": 0.04119,
				"method": "rhf"
			}
		],
		"cosmo_sigma_profile": { 
			"-0.025": 0.0,
			"-0.024": 0.0,
			"-0.023": 0.0,
			"-0.022": 0.0,
			"-0.021": 0.0,
			"-0.02": 0.0,
			"-0.019": 0.0,
			"-0.018": 0.0,
			"-0.017": 0.454725695079,
			"-0.016": 1.02483382678,
			"-0.015": 1.08833984382,
			"-0.014": 0.284170279089,
			"-0.013": 0.802399714883,
			"-0.012": 1.17166279267,
			"-0.011": 1.26313539404,
			"-0.01": 0.715389910411,
			"-0.009": 0.255774165628,
			"-0.008": 1.98370792293,
			"-0.007": 5.48121499367,
			"-0.006": 12.5418670183,
			"-0.005": 17.1435821498,
			"-0.004": 20.6797025934,
			"-0.003": 21.8700644399,
			"-0.002": 25.1387834557,
			"-0.001": 21.1675964351,
			"0.0": 27.773819802,
			"0.001": 26.668768145,
			"0.002": 19.3165803036,
			"0.003": 15.0409200239,
			"0.004": 15.0324375709,
			"0.005": 9.22259180342,
			"0.006": 3.11394023521,
			"0.007": 4.49083469404,
			"0.008": 5.50736115042,
			"0.009": 4.31724751439,
			"0.01": 6.20379635946,
			"0.011": 4.88680542537,
			"0.012": 3.05604041295,
			"0.013": 1.57034460962,
			"0.014": 0.0562329156002,
			"0.015": 0.0,
			"0.016": 0.0,
			"0.017": 0.0,
			"0.018": 0.0,
			"0.019": 0.0,
			"0.02": 0.0,
			"0.021": 0.0,
			"0.022": 0.0,
			"0.023": 0.0,
			"0.024": 0.0,
			"0.025": 0.0
		}
	}
}
