{
	 "smiles": "BrC(C=O)=C/C1=CC=CC=C1", 
	 "Tm": 343.15, 
	 "num_atms": 18, 
	 "gaussian": { 
		 "optdone": 1, 
		 "sigma_profile": "yes", 
		 "theory": "DFT", 
		 "functional": "B3LYP", 
		 "basiset": "6-31G**", 
		 "properties": { 
			 "R2extent": 3153.495, 
			 "electric_dipole_moment_norm": 4.86718732432, 
			 "electric_quadrupole_moment_norm": 10.1744381172, 
			 "total_energy": -2993.77618955, 
			 "HOMO_LUMO_gap": 0.15616, 
			 "cosmo_polarized_energy": -10.38, 
			 "cosmo_cavitation_energy": 24.92, 
			 "cosmo_dispersion_energy": -18.6, 
			 "cosmo_repulsion_energy": 1.47, 
			 "cosmo_total_nonelectrostatic_energy": 7.8, 
			 "SMD_solvation_energy": 4.51 
		},
		"coords": [
			{
				"x": 0.4196443219,
				"y": -0.0118004543,
				"z": 2.8504900145,
				"element": "Br" 
			},
			{
				"x": -0.3424140632,
				"y": 1.0432003263,
				"z": 1.4649567507,
				"element": "C" 
			},
			{
				"x": -1.0305211453,
				"y": 2.2635965006,
				"z": 1.9402995343,
				"element": "C" 
			},
			{
				"x": -1.1356019672,
				"y": 2.6171182571,
				"z": 3.0945463543,
				"element": "O" 
			},
			{
				"x": -0.3107895723,
				"y": 0.7855626227,
				"z": 0.1365522851,
				"element": "C" 
			},
			{
				"x": 0.2458092694,
				"y": -0.2709783054,
				"z": -0.7001301861,
				"element": "C" 
			},
			{
				"x": 0.9594725997,
				"y": -1.3933635668,
				"z": -0.2300403589,
				"element": "C" 
			},
			{
				"x": 1.4471754812,
				"y": -2.3433729887,
				"z": -1.1230226311,
				"element": "C" 
			},
			{
				"x": 1.2395260225,
				"y": -2.2030879178,
				"z": -2.4974919396,
				"element": "C" 
			},
			{
				"x": 0.5350788445,
				"y": -1.0982499029,
				"z": -2.9811171921,
				"element": "C" 
			},
			{
				"x": 0.0460286998,
				"y": -0.1469671914,
				"z": -2.0926535049,
				"element": "C" 
			},
			{
				"x": -1.4654285874,
				"y": 2.8599986376,
				"z": 1.1082125649,
				"element": "H" 
			},
			{
				"x": -0.825807888,
				"y": 1.5549067327,
				"z": -0.4416373307,
				"element": "H" 
			},
			{
				"x": 1.1293511375,
				"y": -1.5178899757,
				"z": 0.830333007,
				"element": "H" 
			},
			{
				"x": 1.9941517447,
				"y": -3.2007133116,
				"z": -0.7420004566,
				"element": "H" 
			},
			{
				"x": 1.6239312098,
				"y": -2.9494640543,
				"z": -3.1864790132,
				"element": "H" 
			},
			{
				"x": 0.3678210338,
				"y": -0.9791930269,
				"z": -4.04737434,
				"element": "H" 
			},
			{
				"x": -0.5017271415,
				"y": 0.7112976188,
				"z": -2.4733435578,
				"element": "H" 
			}
		],
		 "valence_orbital": [ 
			{
				"type": "occ",
				"energy": -0.29546,
				"method": "rhf"
			},
			{
				"type": "occ",
				"energy": -0.28682,
				"method": "rhf"
			},
			{
				"type": "occ",
				"energy": -0.26846,
				"method": "rhf"
			},
			{
				"type": "occ",
				"energy": -0.26396,
				"method": "rhf"
			},
			{
				"type": "occ",
				"energy": -0.24143,
				"method": "rhf"
			},
			{
				"type": "unocc",
				"energy": -0.08527,
				"method": "rhf"
			},
			{
				"type": "unocc",
				"energy": -0.01725,
				"method": "rhf"
			},
			{
				"type": "unocc",
				"energy": 0.00027,
				"method": "rhf"
			},
			{
				"type": "unocc",
				"energy": 0.00405,
				"method": "rhf"
			},
			{
				"type": "unocc",
				"energy": 0.06096,
				"method": "rhf"
			}
		],
		"cosmo_sigma_profile": { 
			"-0.025": 0.0,
			"-0.024": 0.0,
			"-0.023": 0.0,
			"-0.022": 0.0,
			"-0.021": 0.0,
			"-0.02": 0.0,
			"-0.019": 0.0,
			"-0.018": 0.0,
			"-0.017": 0.0,
			"-0.016": 0.0,
			"-0.015": 0.0,
			"-0.014": 0.0,
			"-0.013": 0.0,
			"-0.012": 0.0,
			"-0.011": 0.00824639940389,
			"-0.01": 1.24045326518,
			"-0.009": 4.07620972716,
			"-0.008": 4.35258099408,
			"-0.007": 6.67747030417,
			"-0.006": 11.238803387,
			"-0.005": 13.3438822741,
			"-0.004": 14.2278851933,
			"-0.003": 11.8339302426,
			"-0.002": 11.6931811478,
			"-0.001": 13.0726279212,
			"0.0": 19.332415039,
			"0.001": 17.0595686861,
			"0.002": 15.8293775105,
			"0.003": 16.9146296345,
			"0.004": 18.1301301698,
			"0.005": 3.66548090114,
			"0.006": 2.01132729599,
			"0.007": 2.59823078781,
			"0.008": 1.89712798417,
			"0.009": 2.51574188018,
			"0.01": 3.13593567411,
			"0.011": 5.23345516217,
			"0.012": 3.38498118093,
			"0.013": 0.39681091157,
			"0.014": 0.0,
			"0.015": 0.0,
			"0.016": 0.0,
			"0.017": 0.0,
			"0.018": 0.0,
			"0.019": 0.0,
			"0.02": 0.0,
			"0.021": 0.0,
			"0.022": 0.0,
			"0.023": 0.0,
			"0.024": 0.0,
			"0.025": 0.0
		}
	}
}
