{
	 "smiles": "CC(=O)OC1CCC2(C)C(CCC3C4CCC(=N/NS(=O)(=O)C5=CC=C(C)C=C5)C4(C)CCC23)C1", 
	 "Tm": 495.15, 
	 "num_atms": 75, 
	 "gaussian": { 
		 "optdone": 1, 
		 "sigma_profile": "yes", 
		 "theory": "DFT", 
		 "functional": "B3LYP", 
		 "basiset": "6-31G**", 
		 "properties": { 
			 "R2extent": 28412.6986, 
			 "electric_dipole_moment_norm": 4.18642081258, 
			 "electric_quadrupole_moment_norm": 42.9781224052, 
			 "total_energy": -1899.60345298, 
			 "HOMO_LUMO_gap": 0.2007, 
			 "cosmo_polarized_energy": -21.62, 
			 "cosmo_cavitation_energy": 68.86, 
			 "cosmo_dispersion_energy": -46.87, 
			 "cosmo_repulsion_energy": 3.42, 
			 "cosmo_total_nonelectrostatic_energy": 25.41, 
			 "SMD_solvation_energy": 10.02 
		},
		"coords": [
			{
				"x": -8.4761466191,
				"y": 1.0107602984,
				"z": 1.6695442848,
				"element": "C" 
			},
			{
				"x": -7.4377609825,
				"y": 0.4538458486,
				"z": 0.7224416332,
				"element": "C" 
			},
			{
				"x": -7.6733705563,
				"y": -0.248235558,
				"z": -0.2379564375,
				"element": "O" 
			},
			{
				"x": -6.19679502,
				"y": 0.8493469012,
				"z": 1.0857760885,
				"element": "O" 
			},
			{
				"x": -5.0933518115,
				"y": 0.4017707618,
				"z": 0.2437459342,
				"element": "C" 
			},
			{
				"x": -4.7027967991,
				"y": -1.0427336426,
				"z": 0.6092172129,
				"element": "C" 
			},
			{
				"x": -3.1876658872,
				"y": -1.2510162001,
				"z": 0.4718907758,
				"element": "C" 
			},
			{
				"x": -2.3742529394,
				"y": -0.4036976279,
				"z": 1.4964215797,
				"element": "C" 
			},
			{
				"x": -2.4485028657,
				"y": -1.1607488046,
				"z": 2.8480817791,
				"element": "C" 
			},
			{
				"x": -3.0432556116,
				"y": 1.0161091327,
				"z": 1.6605227446,
				"element": "C" 
			},
			{
				"x": -2.0245888438,
				"y": 2.1413966942,
				"z": 1.9354729405,
				"element": "C" 
			},
			{
				"x": -0.8484453179,
				"y": 1.6687737056,
				"z": 2.7940422723,
				"element": "C" 
			},
			{
				"x": -0.0242440991,
				"y": 0.5351425696,
				"z": 2.1175738467,
				"element": "C" 
			},
			{
				"x": 1.3202538381,
				"y": 1.0611589457,
				"z": 1.5298006075,
				"element": "C" 
			},
			{
				"x": 1.3730419919,
				"y": 2.4655191362,
				"z": 0.8696344485,
				"element": "C" 
			},
			{
				"x": 2.7154316294,
				"y": 2.4827732174,
				"z": 0.1087712917,
				"element": "C" 
			},
			{
				"x": 3.0634842832,
				"y": 1.0222388884,
				"z": -0.1009186771,
				"element": "C" 
			},
			{
				"x": 4.1196839948,
				"y": 0.5007241057,
				"z": -0.6066135516,
				"element": "N" 
			},
			{
				"x": 5.042926797,
				"y": 1.4964304792,
				"z": -1.1035926052,
				"element": "N" 
			},
			{
				"x": 4.90032375,
				"y": 1.8019071083,
				"z": -2.7905982377,
				"element": "S" 
			},
			{
				"x": 3.4995961454,
				"y": 2.1642698458,
				"z": -3.0223163102,
				"element": "O" 
			},
			{
				"x": 6.0069631646,
				"y": 2.7140986773,
				"z": -3.0872631317,
				"element": "O" 
			},
			{
				"x": 5.2224257234,
				"y": 0.2565156487,
				"z": -3.6404735534,
				"element": "C" 
			},
			{
				"x": 4.2081841226,
				"y": -0.6962533721,
				"z": -3.7648219874,
				"element": "C" 
			},
			{
				"x": 4.4883404491,
				"y": -1.902411275,
				"z": -4.4021146181,
				"element": "C" 
			},
			{
				"x": 5.7629972051,
				"y": -2.171730851,
				"z": -4.9227001221,
				"element": "C" 
			},
			{
				"x": 6.0432052916,
				"y": -3.4691480699,
				"z": -5.6419081032,
				"element": "C" 
			},
			{
				"x": 6.7601806495,
				"y": -1.1957880892,
				"z": -4.7862063605,
				"element": "C" 
			},
			{
				"x": 6.5005748516,
				"y": 0.0159759191,
				"z": -4.1486943307,
				"element": "C" 
			},
			{
				"x": 1.9580453805,
				"y": 0.1356575428,
				"z": 0.4561118807,
				"element": "C" 
			},
			{
				"x": 2.5040209884,
				"y": -1.1810311747,
				"z": 1.0249648336,
				"element": "C" 
			},
			{
				"x": 0.9325981302,
				"y": -0.1279576913,
				"z": -0.7109611134,
				"element": "C" 
			},
			{
				"x": -0.5473438489,
				"y": 0.1264538742,
				"z": -0.353165975,
				"element": "C" 
			},
			{
				"x": -0.8617529776,
				"y": -0.3108250429,
				"z": 1.0907111256,
				"element": "C" 
			},
			{
				"x": -3.9381453484,
				"y": 1.3826406659,
				"z": 0.464107636,
				"element": "C" 
			},
			{
				"x": -8.4318656953,
				"y": 2.1038612781,
				"z": 1.6754845671,
				"element": "H" 
			},
			{
				"x": -9.4662489821,
				"y": 0.6799690841,
				"z": 1.3575556484,
				"element": "H" 
			},
			{
				"x": -8.2737564562,
				"y": 0.671791446,
				"z": 2.689902601,
				"element": "H" 
			},
			{
				"x": -5.4429030477,
				"y": 0.4490265137,
				"z": -0.7910849417,
				"element": "H" 
			},
			{
				"x": -5.0168200346,
				"y": -1.2261691526,
				"z": 1.6427230637,
				"element": "H" 
			},
			{
				"x": -5.2581494065,
				"y": -1.7476080831,
				"z": -0.0152008468,
				"element": "H" 
			},
			{
				"x": -2.9411057654,
				"y": -2.3114837458,
				"z": 0.6042269431,
				"element": "H" 
			},
			{
				"x": -2.9066360004,
				"y": -1.0054479009,
				"z": -0.5566308559,
				"element": "H" 
			},
			{
				"x": -1.9746345151,
				"y": -0.6146817278,
				"z": 3.6662709724,
				"element": "H" 
			},
			{
				"x": -1.9584075003,
				"y": -2.1383226039,
				"z": 2.7716761228,
				"element": "H" 
			},
			{
				"x": -3.4879263824,
				"y": -1.335486949,
				"z": 3.1435087089,
				"element": "H" 
			},
			{
				"x": -3.7009341344,
				"y": 0.955136591,
				"z": 2.5383737789,
				"element": "H" 
			},
			{
				"x": -2.5380004796,
				"y": 2.97792027,
				"z": 2.4252812898,
				"element": "H" 
			},
			{
				"x": -1.6480299714,
				"y": 2.5403171333,
				"z": 0.9854406619,
				"element": "H" 
			},
			{
				"x": -1.2384386793,
				"y": 1.3227016322,
				"z": 3.7581625898,
				"element": "H" 
			},
			{
				"x": -0.1957851824,
				"y": 2.5140935568,
				"z": 3.0343638703,
				"element": "H" 
			},
			{
				"x": 0.2663818922,
				"y": -0.1583936604,
				"z": 2.9145245132,
				"element": "H" 
			},
			{
				"x": 2.0283881657,
				"y": 1.1060019927,
				"z": 2.3710545038,
				"element": "H" 
			},
			{
				"x": 0.5474636194,
				"y": 2.6132187878,
				"z": 0.168999465,
				"element": "H" 
			},
			{
				"x": 1.3136710182,
				"y": 3.2734437207,
				"z": 1.6031843875,
				"element": "H" 
			},
			{
				"x": 3.5235646576,
				"y": 2.9394121952,
				"z": 0.6933516665,
				"element": "H" 
			},
			{
				"x": 2.677542588,
				"y": 3.0233277772,
				"z": -0.838689708,
				"element": "H" 
			},
			{
				"x": 5.9847584187,
				"y": 1.1281664203,
				"z": -0.9637313125,
				"element": "H" 
			},
			{
				"x": 3.2179812258,
				"y": -0.4889760977,
				"z": -3.3772925658,
				"element": "H" 
			},
			{
				"x": 3.702864168,
				"y": -2.6471060612,
				"z": -4.5011397133,
				"element": "H" 
			},
			{
				"x": 5.7713107324,
				"y": -3.3951979508,
				"z": -6.7022266483,
				"element": "H" 
			},
			{
				"x": 5.46636878,
				"y": -4.2955388647,
				"z": -5.2161551621,
				"element": "H" 
			},
			{
				"x": 7.1035955583,
				"y": -3.7326197465,
				"z": -5.5948005297,
				"element": "H" 
			},
			{
				"x": 7.7521882482,
				"y": -1.3845373487,
				"z": -5.1880526622,
				"element": "H" 
			},
			{
				"x": 7.2679118123,
				"y": 0.776908773,
				"z": -4.0561673121,
				"element": "H" 
			},
			{
				"x": 3.0501252548,
				"y": -1.7306213195,
				"z": 0.253963735,
				"element": "H" 
			},
			{
				"x": 3.1986266969,
				"y": -0.9923194443,
				"z": 1.8502484995,
				"element": "H" 
			},
			{
				"x": 1.6960735847,
				"y": -1.817529309,
				"z": 1.3979655251,
				"element": "H" 
			},
			{
				"x": 1.1923579819,
				"y": 0.4747970173,
				"z": -1.5883589932,
				"element": "H" 
			},
			{
				"x": 1.0534790007,
				"y": -1.1723755385,
				"z": -1.0211077508,
				"element": "H" 
			},
			{
				"x": -1.1539175557,
				"y": -0.4285117409,
				"z": -1.0740972465,
				"element": "H" 
			},
			{
				"x": -0.7987690887,
				"y": 1.1804164552,
				"z": -0.5039205503,
				"element": "H" 
			},
			{
				"x": -0.4927795384,
				"y": -1.3444865217,
				"z": 1.1594400337,
				"element": "H" 
			},
			{
				"x": -4.3525419334,
				"y": 2.3887106488,
				"z": 0.5939236805,
				"element": "H" 
			},
			{
				"x": -3.331261913,
				"y": 1.4152599064,
				"z": -0.4489978298,
				"element": "H" 
			}
		],
		 "valence_orbital": [ 
			{
				"type": "occ",
				"energy": -0.27052,
				"method": "rhf"
			},
			{
				"type": "occ",
				"energy": -0.26689,
				"method": "rhf"
			},
			{
				"type": "occ",
				"energy": -0.2648,
				"method": "rhf"
			},
			{
				"type": "occ",
				"energy": -0.26134,
				"method": "rhf"
			},
			{
				"type": "occ",
				"energy": -0.23627,
				"method": "rhf"
			},
			{
				"type": "unocc",
				"energy": -0.03557,
				"method": "rhf"
			},
			{
				"type": "unocc",
				"energy": -0.01866,
				"method": "rhf"
			},
			{
				"type": "unocc",
				"energy": -0.00806,
				"method": "rhf"
			},
			{
				"type": "unocc",
				"energy": 0.01705,
				"method": "rhf"
			},
			{
				"type": "unocc",
				"energy": 0.0594,
				"method": "rhf"
			}
		],
		"cosmo_sigma_profile": { 
			"-0.025": 0.0,
			"-0.024": 0.0,
			"-0.023": 0.0,
			"-0.022": 0.0,
			"-0.021": 0.0,
			"-0.02": 0.0,
			"-0.019": 0.0,
			"-0.018": 0.0,
			"-0.017": 0.0,
			"-0.016": 0.0,
			"-0.015": 0.585378429159,
			"-0.014": 1.1029987904,
			"-0.013": 0.782836850178,
			"-0.012": 1.21474600918,
			"-0.011": 1.16293494938,
			"-0.01": 1.01734059333,
			"-0.009": 0.42164830754,
			"-0.008": 1.24708431776,
			"-0.007": 2.99617342494,
			"-0.006": 11.6341001088,
			"-0.005": 21.1102437245,
			"-0.004": 33.7230871003,
			"-0.003": 55.8652753685,
			"-0.002": 81.6248765839,
			"-0.001": 80.6988962685,
			"0.0": 63.5170904294,
			"0.001": 44.5849064381,
			"0.002": 26.5125854238,
			"0.003": 21.412820532,
			"0.004": 13.5121777775,
			"0.005": 9.27995007576,
			"0.006": 8.47862937183,
			"0.007": 7.71711530797,
			"0.008": 7.39566386513,
			"0.009": 7.99291261619,
			"0.01": 8.65598769341,
			"0.011": 10.7304411449,
			"0.012": 7.31384348525,
			"0.013": 2.76076340345,
			"0.014": 0.217740424796,
			"0.015": 0.0,
			"0.016": 0.0,
			"0.017": 0.0,
			"0.018": 0.0,
			"0.019": 0.0,
			"0.02": 0.0,
			"0.021": 0.0,
			"0.022": 0.0,
			"0.023": 0.0,
			"0.024": 0.0,
			"0.025": 0.0
		}
	}
}
