{
	 "smiles": "OC(=O)C1CCC(CC1)C1=CC=C(Cl)C=C1", 
	 "Tm": 525.15, 
	 "num_atms": 31, 
	 "gaussian": { 
		 "optdone": 1, 
		 "sigma_profile": "yes", 
		 "theory": "DFT", 
		 "functional": "B3LYP", 
		 "basiset": "6-31G**", 
		 "properties": { 
			 "R2extent": 6633.1761, 
			 "electric_dipole_moment_norm": 2.81756872676, 
			 "electric_quadrupole_moment_norm": 13.3075175525, 
			 "total_energy": -1115.09218969, 
			 "HOMO_LUMO_gap": 0.22393, 
			 "cosmo_polarized_energy": -11.08, 
			 "cosmo_cavitation_energy": 34.75, 
			 "cosmo_dispersion_energy": -25.0, 
			 "cosmo_repulsion_energy": 1.95, 
			 "cosmo_total_nonelectrostatic_energy": 11.7, 
			 "SMD_solvation_energy": 5.94 
		},
		"coords": [
			{
				"x": -3.7176941478,
				"y": 1.7331929681,
				"z": 2.3185426299,
				"element": "O" 
			},
			{
				"x": -3.0986793639,
				"y": 2.275264159,
				"z": 1.2388088174,
				"element": "C" 
			},
			{
				"x": -3.7199232419,
				"y": 2.7882137457,
				"z": 0.3330169157,
				"element": "O" 
			},
			{
				"x": -1.5898678958,
				"y": 2.1211964354,
				"z": 1.3305390115,
				"element": "C" 
			},
			{
				"x": -0.8544361171,
				"y": 2.9438039465,
				"z": 0.2406411501,
				"element": "C" 
			},
			{
				"x": -0.2588771394,
				"y": 2.0555863136,
				"z": -0.8581971216,
				"element": "C" 
			},
			{
				"x": 0.7947771497,
				"y": 1.0729231541,
				"z": -0.2872158651,
				"element": "C" 
			},
			{
				"x": 0.2835346708,
				"y": 0.4226273522,
				"z": 1.0424196744,
				"element": "C" 
			},
			{
				"x": -1.2213187457,
				"y": 0.6128223251,
				"z": 1.2725482362,
				"element": "C" 
			},
			{
				"x": 1.2307952397,
				"y": 0.0597280323,
				"z": -1.3327730587,
				"element": "C" 
			},
			{
				"x": 2.5011125351,
				"y": 0.1391855472,
				"z": -1.9169608782,
				"element": "C" 
			},
			{
				"x": 2.9176788625,
				"y": -0.7678917793,
				"z": -2.8928404233,
				"element": "C" 
			},
			{
				"x": 2.0458175391,
				"y": -1.7770144604,
				"z": -3.2936026865,
				"element": "C" 
			},
			{
				"x": 2.5559906604,
				"y": -2.9314475137,
				"z": -4.520182147,
				"element": "Cl" 
			},
			{
				"x": 0.7730596199,
				"y": -1.8863710039,
				"z": -2.7339692942,
				"element": "C" 
			},
			{
				"x": 0.3774304128,
				"y": -0.9686938761,
				"z": -1.7622129115,
				"element": "C" 
			},
			{
				"x": -4.6708817983,
				"y": 1.8511234828,
				"z": 2.1690382854,
				"element": "H" 
			},
			{
				"x": -1.306057516,
				"y": 2.4860153932,
				"z": 2.3255159398,
				"element": "H" 
			},
			{
				"x": -1.5502561084,
				"y": 3.6629702908,
				"z": -0.1987745184,
				"element": "H" 
			},
			{
				"x": -0.0474066736,
				"y": 3.5199441673,
				"z": 0.709269414,
				"element": "H" 
			},
			{
				"x": -1.0615468289,
				"y": 1.4974770476,
				"z": -1.355029684,
				"element": "H" 
			},
			{
				"x": 0.2051829208,
				"y": 2.6728657581,
				"z": -1.6350216574,
				"element": "H" 
			},
			{
				"x": 1.6802160048,
				"y": 1.6709191867,
				"z": -0.0385238078,
				"element": "H" 
			},
			{
				"x": 0.8220768702,
				"y": 0.8667089859,
				"z": 1.8887202961,
				"element": "H" 
			},
			{
				"x": 0.525414114,
				"y": -0.6448477968,
				"z": 1.0559936728,
				"element": "H" 
			},
			{
				"x": -1.5329127335,
				"y": 0.1247364115,
				"z": 2.2002644867,
				"element": "H" 
			},
			{
				"x": -1.7855561428,
				"y": 0.1290747414,
				"z": 0.4655628422,
				"element": "H" 
			},
			{
				"x": 3.1845304567,
				"y": 0.9244145916,
				"z": -1.6033430555,
				"element": "H" 
			},
			{
				"x": 3.9058164408,
				"y": -0.6942469863,
				"z": -3.3337049125,
				"element": "H" 
			},
			{
				"x": 0.1040785512,
				"y": -2.6771912173,
				"z": -3.0554187106,
				"element": "H" 
			},
			{
				"x": -0.6166975954,
				"y": -1.0624894023,
				"z": -1.3336106396,
				"element": "H" 
			}
		],
		 "valence_orbital": [ 
			{
				"type": "occ",
				"energy": -0.30989,
				"method": "rhf"
			},
			{
				"type": "occ",
				"energy": -0.30913,
				"method": "rhf"
			},
			{
				"type": "occ",
				"energy": -0.27517,
				"method": "rhf"
			},
			{
				"type": "occ",
				"energy": -0.26099,
				"method": "rhf"
			},
			{
				"type": "occ",
				"energy": -0.23746,
				"method": "rhf"
			},
			{
				"type": "unocc",
				"energy": -0.01353,
				"method": "rhf"
			},
			{
				"type": "unocc",
				"energy": -0.00923,
				"method": "rhf"
			},
			{
				"type": "unocc",
				"energy": 0.00707,
				"method": "rhf"
			},
			{
				"type": "unocc",
				"energy": 0.0313,
				"method": "rhf"
			},
			{
				"type": "unocc",
				"energy": 0.07078,
				"method": "rhf"
			}
		],
		"cosmo_sigma_profile": { 
			"-0.025": 0.0,
			"-0.024": 0.0,
			"-0.023": 0.0,
			"-0.022": 0.0,
			"-0.021": 0.0,
			"-0.02": 0.0,
			"-0.019": 0.0,
			"-0.018": 0.424902477084,
			"-0.017": 1.28333641794,
			"-0.016": 0.462531963143,
			"-0.015": 0.938298327066,
			"-0.014": 0.6210202241,
			"-0.013": 0.843560774397,
			"-0.012": 0.411768152497,
			"-0.011": 0.789027367239,
			"-0.01": 0.730584085177,
			"-0.009": 0.369991761562,
			"-0.008": 0.668986918445,
			"-0.007": 3.46974408513,
			"-0.006": 7.83241961928,
			"-0.005": 14.5399635771,
			"-0.004": 17.7583378467,
			"-0.003": 28.1559368432,
			"-0.002": 30.1979680336,
			"-0.001": 25.2454039894,
			"0.0": 25.9684106307,
			"0.001": 19.1383293171,
			"0.002": 16.9832876771,
			"0.003": 18.2503732581,
			"0.004": 20.14310641,
			"0.005": 17.6359924697,
			"0.006": 3.39322041269,
			"0.007": 2.04387884276,
			"0.008": 3.33640989621,
			"0.009": 2.69673355958,
			"0.01": 2.26906700779,
			"0.011": 3.30613067416,
			"0.012": 4.74299020102,
			"0.013": 0.464960673132,
			"0.014": 0.0,
			"0.015": 0.0,
			"0.016": 0.0,
			"0.017": 0.0,
			"0.018": 0.0,
			"0.019": 0.0,
			"0.02": 0.0,
			"0.021": 0.0,
			"0.022": 0.0,
			"0.023": 0.0,
			"0.024": 0.0,
			"0.025": 0.0
		}
	}
}
