{
	 "smiles": "CC(C)CCNC(N)=S", 
	 "Tm": 367.15, 
	 "num_atms": 23, 
	 "gaussian": { 
		 "optdone": 1, 
		 "sigma_profile": "yes", 
		 "theory": "DFT", 
		 "functional": "B3LYP", 
		 "basiset": "6-31G**", 
		 "properties": { 
			 "R2extent": 2400.4515, 
			 "electric_dipole_moment_norm": 5.82116200256, 
			 "electric_quadrupole_moment_norm": 23.2778122756, 
			 "total_energy": -744.794949402, 
			 "HOMO_LUMO_gap": 0.20464, 
			 "cosmo_polarized_energy": -18.48, 
			 "cosmo_cavitation_energy": 26.33, 
			 "cosmo_dispersion_energy": -19.07, 
			 "cosmo_repulsion_energy": 1.54, 
			 "cosmo_total_nonelectrostatic_energy": 8.79, 
			 "SMD_solvation_energy": 3.14 
		},
		"coords": [
			{
				"x": 3.0970842693,
				"y": -1.7791142704,
				"z": 0.1256944325,
				"element": "C" 
			},
			{
				"x": 1.8791152446,
				"y": -1.2351875556,
				"z": -0.6379679162,
				"element": "C" 
			},
			{
				"x": 2.285318282,
				"y": -0.0940779912,
				"z": -1.584460031,
				"element": "C" 
			},
			{
				"x": 0.70519341,
				"y": -0.8810469382,
				"z": 0.3041509329,
				"element": "C" 
			},
			{
				"x": 0.9206512579,
				"y": 0.2796192676,
				"z": 1.298356036,
				"element": "C" 
			},
			{
				"x": 0.8180865573,
				"y": 1.620997311,
				"z": 0.7299623033,
				"element": "N" 
			},
			{
				"x": -0.3123070562,
				"y": 2.2554471136,
				"z": 0.3247179935,
				"element": "C" 
			},
			{
				"x": -1.4971827094,
				"y": 1.6423086506,
				"z": 0.6114905825,
				"element": "N" 
			},
			{
				"x": -0.2547752189,
				"y": 3.7173073431,
				"z": -0.5126359517,
				"element": "S" 
			},
			{
				"x": 2.8257803681,
				"y": -2.6252312945,
				"z": 0.7669149341,
				"element": "H" 
			},
			{
				"x": 3.8695839921,
				"y": -2.1223303842,
				"z": -0.5703527361,
				"element": "H" 
			},
			{
				"x": 3.5574183705,
				"y": -1.0125817782,
				"z": 0.7606326308,
				"element": "H" 
			},
			{
				"x": 1.5028778865,
				"y": -2.0544235245,
				"z": -1.2672534867,
				"element": "H" 
			},
			{
				"x": 2.798904774,
				"y": 0.7146877282,
				"z": -1.0525254732,
				"element": "H" 
			},
			{
				"x": 2.9786172149,
				"y": -0.4609138293,
				"z": -2.3489273356,
				"element": "H" 
			},
			{
				"x": 1.4207705647,
				"y": 0.3426812416,
				"z": -2.0937252785,
				"element": "H" 
			},
			{
				"x": 0.4645529835,
				"y": -1.7752852307,
				"z": 0.8952715065,
				"element": "H" 
			},
			{
				"x": -0.185215776,
				"y": -0.6577683166,
				"z": -0.2953941075,
				"element": "H" 
			},
			{
				"x": 0.2016439726,
				"y": 0.1898866373,
				"z": 2.1239586995,
				"element": "H" 
			},
			{
				"x": 1.9055153766,
				"y": 0.2104084882,
				"z": 1.7692873165,
				"element": "H" 
			},
			{
				"x": 1.662090402,
				"y": 2.0884313785,
				"z": 0.4352280651,
				"element": "H" 
			},
			{
				"x": -2.3214577074,
				"y": 2.1977140955,
				"z": 0.4443734773,
				"element": "H" 
			},
			{
				"x": -1.5599664587,
				"y": 0.9220718579,
				"z": 1.316103406,
				"element": "H" 
			}
		],
		 "valence_orbital": [ 
			{
				"type": "occ",
				"energy": -0.33379,
				"method": "rhf"
			},
			{
				"type": "occ",
				"energy": -0.32894,
				"method": "rhf"
			},
			{
				"type": "occ",
				"energy": -0.26881,
				"method": "rhf"
			},
			{
				"type": "occ",
				"energy": -0.20366,
				"method": "rhf"
			},
			{
				"type": "occ",
				"energy": -0.19724,
				"method": "rhf"
			},
			{
				"type": "unocc",
				"energy": 0.0074,
				"method": "rhf"
			},
			{
				"type": "unocc",
				"energy": 0.04614,
				"method": "rhf"
			},
			{
				"type": "unocc",
				"energy": 0.06764,
				"method": "rhf"
			},
			{
				"type": "unocc",
				"energy": 0.0859,
				"method": "rhf"
			},
			{
				"type": "unocc",
				"energy": 0.10051,
				"method": "rhf"
			}
		],
		"cosmo_sigma_profile": { 
			"-0.025": 0.0,
			"-0.024": 0.0,
			"-0.023": 0.0,
			"-0.022": 0.0,
			"-0.021": 0.0,
			"-0.02": 0.0,
			"-0.019": 0.0,
			"-0.018": 0.0,
			"-0.017": 0.0,
			"-0.016": 0.0,
			"-0.015": 0.432103610541,
			"-0.014": 2.02014391885,
			"-0.013": 2.72884961579,
			"-0.012": 3.69732496062,
			"-0.011": 3.96415183513,
			"-0.01": 2.56635681169,
			"-0.009": 3.9860977618,
			"-0.008": 3.04521365283,
			"-0.007": 3.54303123628,
			"-0.006": 5.80125268604,
			"-0.005": 5.45961901609,
			"-0.004": 7.11310418831,
			"-0.003": 14.6524831944,
			"-0.002": 24.3211314868,
			"-0.001": 23.521647197,
			"0.0": 20.1179670597,
			"0.001": 18.6546182897,
			"0.002": 12.1150195152,
			"0.003": 2.79618154165,
			"0.004": 4.21568162153,
			"0.005": 4.08905335925,
			"0.006": 3.50884191585,
			"0.007": 4.68834369437,
			"0.008": 3.63607594932,
			"0.009": 3.20608946891,
			"0.01": 3.73640892187,
			"0.011": 5.01718287794,
			"0.012": 7.86698981758,
			"0.013": 6.21154667472,
			"0.014": 0.213947429277,
			"0.015": 0.0,
			"0.016": 0.0,
			"0.017": 0.0,
			"0.018": 0.0,
			"0.019": 0.0,
			"0.02": 0.0,
			"0.021": 0.0,
			"0.022": 0.0,
			"0.023": 0.0,
			"0.024": 0.0,
			"0.025": 0.0
		}
	}
}
