{
	 "smiles": "FC(F)(F)C1=CC(=CC(Br)=C1)C(F)(F)F", 
	 "Tm": 257.15, 
	 "num_atms": 18, 
	 "gaussian": { 
		 "optdone": 1, 
		 "sigma_profile": "yes", 
		 "theory": "DFT", 
		 "functional": "B3LYP", 
		 "basiset": "6-31G**", 
		 "properties": { 
			 "R2extent": 5151.4638, 
			 "electric_dipole_moment_norm": 0.885583474326, 
			 "electric_quadrupole_moment_norm": 3.35039468421, 
			 "total_energy": -3477.1166313, 
			 "HOMO_LUMO_gap": 0.21207, 
			 "cosmo_polarized_energy": -3.92, 
			 "cosmo_cavitation_energy": 28.31, 
			 "cosmo_dispersion_energy": -19.86, 
			 "cosmo_repulsion_energy": 1.45, 
			 "cosmo_total_nonelectrostatic_energy": 9.89, 
			 "SMD_solvation_energy": 6.03 
		},
		"coords": [
			{
				"x": 1.9218688748,
				"y": -1.8418850928,
				"z": 2.0411489168,
				"element": "F" 
			},
			{
				"x": 0.7121639061,
				"y": -1.267393458,
				"z": 1.8759232858,
				"element": "C" 
			},
			{
				"x": 0.5676264838,
				"y": -0.3528501949,
				"z": 2.8596581976,
				"element": "F" 
			},
			{
				"x": -0.2262378921,
				"y": -2.2162842591,
				"z": 2.0736376911,
				"element": "F" 
			},
			{
				"x": 0.5795439804,
				"y": -0.6313926419,
				"z": 0.5142946553,
				"element": "C" 
			},
			{
				"x": -0.6793555017,
				"y": -0.5139853572,
				"z": -0.0746745299,
				"element": "C" 
			},
			{
				"x": -0.7990005911,
				"y": 0.1283259863,
				"z": -1.3069760149,
				"element": "C" 
			},
			{
				"x": 0.3235613993,
				"y": 0.6529277926,
				"z": -1.9509095306,
				"element": "C" 
			},
			{
				"x": 1.571356938,
				"y": 0.5229955872,
				"z": -1.345680439,
				"element": "C" 
			},
			{
				"x": 3.1107039198,
				"y": 1.2318700696,
				"z": -2.2151422122,
				"element": "Br" 
			},
			{
				"x": 1.7139301004,
				"y": -0.1161266059,
				"z": -0.1162814118,
				"element": "C" 
			},
			{
				"x": -2.1453699575,
				"y": 0.2050143171,
				"z": -1.9833684885,
				"element": "C" 
			},
			{
				"x": -3.1498760402,
				"y": 0.2580940774,
				"z": -1.0843722809,
				"element": "F" 
			},
			{
				"x": -2.3642995685,
				"y": -0.8768642963,
				"z": -2.762238199,
				"element": "F" 
			},
			{
				"x": -2.2426361499,
				"y": 1.292500488,
				"z": -2.7762466102,
				"element": "F" 
			},
			{
				"x": -1.554728672,
				"y": -0.9173404129,
				"z": 0.419679435,
				"element": "H" 
			},
			{
				"x": 0.2240459005,
				"y": 1.1574322505,
				"z": -2.9040215896,
				"element": "H" 
			},
			{
				"x": 2.6901028699,
				"y": -0.2167382494,
				"z": 0.341769125,
				"element": "H" 
			}
		],
		 "valence_orbital": [ 
			{
				"type": "occ",
				"energy": -0.37939,
				"method": "rhf"
			},
			{
				"type": "occ",
				"energy": -0.33975,
				"method": "rhf"
			},
			{
				"type": "occ",
				"energy": -0.30789,
				"method": "rhf"
			},
			{
				"type": "occ",
				"energy": -0.29878,
				"method": "rhf"
			},
			{
				"type": "occ",
				"energy": -0.27147,
				"method": "rhf"
			},
			{
				"type": "unocc",
				"energy": -0.0594,
				"method": "rhf"
			},
			{
				"type": "unocc",
				"energy": -0.0508,
				"method": "rhf"
			},
			{
				"type": "unocc",
				"energy": -0.0143,
				"method": "rhf"
			},
			{
				"type": "unocc",
				"energy": 0.08248,
				"method": "rhf"
			},
			{
				"type": "unocc",
				"energy": 0.10466,
				"method": "rhf"
			}
		],
		"cosmo_sigma_profile": { 
			"-0.025": 0.0,
			"-0.024": 0.0,
			"-0.023": 0.0,
			"-0.022": 0.0,
			"-0.021": 0.0,
			"-0.02": 0.0,
			"-0.019": 0.0,
			"-0.018": 0.0,
			"-0.017": 0.0,
			"-0.016": 0.0,
			"-0.015": 0.0,
			"-0.014": 0.0,
			"-0.013": 0.0,
			"-0.012": 0.0,
			"-0.011": 0.0,
			"-0.01": 0.0,
			"-0.009": 0.705876631296,
			"-0.008": 3.71960818662,
			"-0.007": 5.68508266552,
			"-0.006": 5.49299747317,
			"-0.005": 7.7367273482,
			"-0.004": 8.65175869313,
			"-0.003": 10.7353035498,
			"-0.002": 14.867641985,
			"-0.001": 27.7174020931,
			"0.0": 27.6740868343,
			"0.001": 21.2420368883,
			"0.002": 52.4107731588,
			"0.003": 38.8849200044,
			"0.004": 6.28156946343,
			"0.005": 0.0,
			"0.006": 0.0,
			"0.007": 0.0,
			"0.008": 0.0,
			"0.009": 0.0,
			"0.01": 0.0,
			"0.011": 0.0,
			"0.012": 0.0,
			"0.013": 0.0,
			"0.014": 0.0,
			"0.015": 0.0,
			"0.016": 0.0,
			"0.017": 0.0,
			"0.018": 0.0,
			"0.019": 0.0,
			"0.02": 0.0,
			"0.021": 0.0,
			"0.022": 0.0,
			"0.023": 0.0,
			"0.024": 0.0,
			"0.025": 0.0
		}
	}
}
