{
	 "smiles": "CN1CCN(CC1)C(=O)C1=NC=C(C=C1)C#N", 
	 "Tm": 357.15, 
	 "num_atms": 31, 
	 "gaussian": { 
		 "optdone": 1, 
		 "sigma_profile": "yes", 
		 "theory": "DFT", 
		 "functional": "B3LYP", 
		 "basiset": "6-31G**", 
		 "properties": { 
			 "R2extent": 5945.264, 
			 "electric_dipole_moment_norm": 3.41839583138, 
			 "electric_quadrupole_moment_norm": 20.0379867367, 
			 "total_energy": -759.913948175, 
			 "HOMO_LUMO_gap": 0.13115, 
			 "cosmo_polarized_energy": -14.87, 
			 "cosmo_cavitation_energy": 34.73, 
			 "cosmo_dispersion_energy": -24.65, 
			 "cosmo_repulsion_energy": 1.9, 
			 "cosmo_total_nonelectrostatic_energy": 11.99, 
			 "SMD_solvation_energy": 3.71 
		},
		"coords": [
			{
				"x": 2.5499955444,
				"y": 3.3064779452,
				"z": -0.8427283076,
				"element": "C" 
			},
			{
				"x": 1.894334191,
				"y": 2.7605437572,
				"z": 0.3349547714,
				"element": "N" 
			},
			{
				"x": 1.959374692,
				"y": 1.295242241,
				"z": 0.4452290749,
				"element": "C" 
			},
			{
				"x": 0.6567222039,
				"y": 0.5826042797,
				"z": 0.0580772603,
				"element": "C" 
			},
			{
				"x": -0.4277642399,
				"y": 1.0616872293,
				"z": 0.9322587381,
				"element": "N" 
			},
			{
				"x": -0.2790898057,
				"y": 2.4301347933,
				"z": 1.4576724359,
				"element": "C" 
			},
			{
				"x": 0.5307990851,
				"y": 3.2753311504,
				"z": 0.4821877642,
				"element": "C" 
			},
			{
				"x": -1.4845563718,
				"y": 0.3431562654,
				"z": 1.4047951179,
				"element": "C" 
			},
			{
				"x": -2.226292733,
				"y": 0.7797518173,
				"z": 2.2893079541,
				"element": "O" 
			},
			{
				"x": -1.8052622608,
				"y": -1.0211859052,
				"z": 0.8258745993,
				"element": "C" 
			},
			{
				"x": -1.4356376097,
				"y": -1.3312249527,
				"z": -0.4265425241,
				"element": "N" 
			},
			{
				"x": -1.8106676923,
				"y": -2.5094542681,
				"z": -0.9229007572,
				"element": "C" 
			},
			{
				"x": -2.5641288089,
				"y": -3.4455566298,
				"z": -0.1943631776,
				"element": "C" 
			},
			{
				"x": -2.9496152923,
				"y": -3.1147572095,
				"z": 1.1153402996,
				"element": "C" 
			},
			{
				"x": -2.5725013677,
				"y": -1.8814320444,
				"z": 1.6253115419,
				"element": "C" 
			},
			{
				"x": -2.9239543173,
				"y": -4.6990947151,
				"z": -0.7849083793,
				"element": "C" 
			},
			{
				"x": -3.2113170256,
				"y": -5.7166368465,
				"z": -1.2696691793,
				"element": "N" 
			},
			{
				"x": 3.5953734084,
				"y": 2.9845964277,
				"z": -0.8742049207,
				"element": "H" 
			},
			{
				"x": 2.5422248391,
				"y": 4.4006448067,
				"z": -0.7876352417,
				"element": "H" 
			},
			{
				"x": 2.069585504,
				"y": 3.0196046467,
				"z": -1.7987606454,
				"element": "H" 
			},
			{
				"x": 2.2151349542,
				"y": 1.0135819769,
				"z": 1.4762433867,
				"element": "H" 
			},
			{
				"x": 2.7664827327,
				"y": 0.9208614095,
				"z": -0.1921791162,
				"element": "H" 
			},
			{
				"x": 0.4105920099,
				"y": 0.761351931,
				"z": -0.9951425356,
				"element": "H" 
			},
			{
				"x": 0.7779832085,
				"y": -0.4939176713,
				"z": 0.1767175964,
				"element": "H" 
			},
			{
				"x": -1.2767733611,
				"y": 2.8484352953,
				"z": 1.6001192587,
				"element": "H" 
			},
			{
				"x": 0.2053891829,
				"y": 2.4127285198,
				"z": 2.4430357681,
				"element": "H" 
			},
			{
				"x": 0.5715323238,
				"y": 4.308602982,
				"z": 0.8493516914,
				"element": "H" 
			},
			{
				"x": -0.0078456221,
				"y": 3.3036390239,
				"z": -0.4851173523,
				"element": "H" 
			},
			{
				"x": -1.5074884601,
				"y": -2.7328230629,
				"z": -1.9431014594,
				"element": "H" 
			},
			{
				"x": -3.534819595,
				"y": -3.8129424686,
				"z": 1.7045931784,
				"element": "H" 
			},
			{
				"x": -2.8636093169,
				"y": -1.553450724,
				"z": 2.6154831592,
				"element": "H" 
			}
		],
		 "valence_orbital": [ 
			{
				"type": "occ",
				"energy": -0.29132,
				"method": "rhf"
			},
			{
				"type": "occ",
				"energy": -0.28183,
				"method": "rhf"
			},
			{
				"type": "occ",
				"energy": -0.25769,
				"method": "rhf"
			},
			{
				"type": "occ",
				"energy": -0.2441,
				"method": "rhf"
			},
			{
				"type": "occ",
				"energy": -0.2134,
				"method": "rhf"
			},
			{
				"type": "unocc",
				"energy": -0.08225,
				"method": "rhf"
			},
			{
				"type": "unocc",
				"energy": -0.04942,
				"method": "rhf"
			},
			{
				"type": "unocc",
				"energy": 0.01733,
				"method": "rhf"
			},
			{
				"type": "unocc",
				"energy": 0.02219,
				"method": "rhf"
			},
			{
				"type": "unocc",
				"energy": 0.06984,
				"method": "rhf"
			}
		],
		"cosmo_sigma_profile": { 
			"-0.025": 0.0,
			"-0.024": 0.0,
			"-0.023": 0.0,
			"-0.022": 0.0,
			"-0.021": 0.0,
			"-0.02": 0.0,
			"-0.019": 0.0,
			"-0.018": 0.0,
			"-0.017": 0.0,
			"-0.016": 0.0,
			"-0.015": 0.0,
			"-0.014": 0.0,
			"-0.013": 0.0,
			"-0.012": 0.0,
			"-0.011": 0.0,
			"-0.01": 0.393490110574,
			"-0.009": 4.30892586112,
			"-0.008": 5.50926883893,
			"-0.007": 5.64415585386,
			"-0.006": 6.63889446678,
			"-0.005": 12.9571475608,
			"-0.004": 27.9729561617,
			"-0.003": 38.4091320891,
			"-0.002": 38.0251579508,
			"-0.001": 29.5366724904,
			"0.0": 22.1387515408,
			"0.001": 9.44632635347,
			"0.002": 6.61081017664,
			"0.003": 7.11001543903,
			"0.004": 6.4618287483,
			"0.005": 6.70775133351,
			"0.006": 5.61040670669,
			"0.007": 6.70570013202,
			"0.008": 6.69896507415,
			"0.009": 5.94712806632,
			"0.01": 4.98243254389,
			"0.011": 4.87059882738,
			"0.012": 4.67380973969,
			"0.013": 4.49503009424,
			"0.014": 3.28286064573,
			"0.015": 0.253005816605,
			"0.016": 0.37327186049,
			"0.017": 0.0,
			"0.018": 0.0,
			"0.019": 0.0,
			"0.02": 0.0,
			"0.021": 0.0,
			"0.022": 0.0,
			"0.023": 0.0,
			"0.024": 0.0,
			"0.025": 0.0
		}
	}
}
