{
	 "smiles": "NC(=O)C1=CC=C(OCC(O)=O)C=C1", 
	 "Tm": 538.15, 
	 "num_atms": 23, 
	 "gaussian": { 
		 "optdone": 1, 
		 "sigma_profile": "yes", 
		 "theory": "DFT", 
		 "functional": "B3LYP", 
		 "basiset": "6-31G**", 
		 "properties": { 
			 "R2extent": 4889.9999, 
			 "electric_dipole_moment_norm": 3.81694825351, 
			 "electric_quadrupole_moment_norm": 30.3883687051, 
			 "total_energy": -704.044066843, 
			 "HOMO_LUMO_gap": 0.20482, 
			 "cosmo_polarized_energy": -22.6, 
			 "cosmo_cavitation_energy": 28.42, 
			 "cosmo_dispersion_energy": -20.93, 
			 "cosmo_repulsion_energy": 1.66, 
			 "cosmo_total_nonelectrostatic_energy": 9.15, 
			 "SMD_solvation_energy": 7.29 
		},
		"coords": [
			{
				"x": 1.9331227095,
				"y": -2.8984745246,
				"z": -3.4871714688,
				"element": "N" 
			},
			{
				"x": 2.0592551398,
				"y": -1.5288332193,
				"z": -3.5408401692,
				"element": "C" 
			},
			{
				"x": 2.8133625405,
				"y": -0.982134394,
				"z": -4.3364572093,
				"element": "O" 
			},
			{
				"x": 1.2026071379,
				"y": -0.7416145125,
				"z": -2.5939784448,
				"element": "C" 
			},
			{
				"x": 0.0826338023,
				"y": -1.2635228525,
				"z": -1.9391765731,
				"element": "C" 
			},
			{
				"x": -0.6819434494,
				"y": -0.4762765378,
				"z": -1.0753972388,
				"element": "C" 
			},
			{
				"x": -0.317421118,
				"y": 0.8568299865,
				"z": -0.8653966337,
				"element": "C" 
			},
			{
				"x": -0.996078631,
				"y": 1.7127469044,
				"z": -0.0352154975,
				"element": "O" 
			},
			{
				"x": -2.1376643738,
				"y": 1.2469226247,
				"z": 0.6749531369,
				"element": "C" 
			},
			{
				"x": -2.6920864633,
				"y": 2.3885901471,
				"z": 1.5298896735,
				"element": "C" 
			},
			{
				"x": -2.0315694599,
				"y": 3.5538389435,
				"z": 1.4443760039,
				"element": "O" 
			},
			{
				"x": -3.6612525186,
				"y": 2.2282100976,
				"z": 2.2275266743,
				"element": "O" 
			},
			{
				"x": 0.7947941467,
				"y": 1.3986869373,
				"z": -1.5247629295,
				"element": "C" 
			},
			{
				"x": 1.5387024013,
				"y": 0.6054637122,
				"z": -2.3840497636,
				"element": "C" 
			},
			{
				"x": 1.6166211389,
				"y": -3.3465578515,
				"z": -2.6413636395,
				"element": "H" 
			},
			{
				"x": 2.6023467715,
				"y": -3.4094214203,
				"z": -4.045306276,
				"element": "H" 
			},
			{
				"x": -0.2329441807,
				"y": -2.2866407285,
				"z": -2.120363285,
				"element": "H" 
			},
			{
				"x": -1.5504414101,
				"y": -0.9049548283,
				"z": -0.5900165123,
				"element": "H" 
			},
			{
				"x": -2.9280160253,
				"y": 0.9160653714,
				"z": -0.0096020213,
				"element": "H" 
			},
			{
				"x": -1.8830178823,
				"y": 0.4129903003,
				"z": 1.3400515085,
				"element": "H" 
			},
			{
				"x": -1.2909166473,
				"y": 3.4376482337,
				"z": 0.8231796646,
				"element": "H" 
			},
			{
				"x": 1.0529962769,
				"y": 2.43839267,
				"z": -1.3519113754,
				"element": "H" 
			},
			{
				"x": 2.3948100944,
				"y": 1.0082449406,
				"z": -2.9142676238,
				"element": "H" 
			}
		],
		 "valence_orbital": [ 
			{
				"type": "occ",
				"energy": -0.28239,
				"method": "rhf"
			},
			{
				"type": "occ",
				"energy": -0.28027,
				"method": "rhf"
			},
			{
				"type": "occ",
				"energy": -0.27458,
				"method": "rhf"
			},
			{
				"type": "occ",
				"energy": -0.25791,
				"method": "rhf"
			},
			{
				"type": "occ",
				"energy": -0.24793,
				"method": "rhf"
			},
			{
				"type": "unocc",
				"energy": -0.04311,
				"method": "rhf"
			},
			{
				"type": "unocc",
				"energy": -0.02525,
				"method": "rhf"
			},
			{
				"type": "unocc",
				"energy": 0.00214,
				"method": "rhf"
			},
			{
				"type": "unocc",
				"energy": 0.05161,
				"method": "rhf"
			},
			{
				"type": "unocc",
				"energy": 0.06561,
				"method": "rhf"
			}
		],
		"cosmo_sigma_profile": { 
			"-0.025": 0.0,
			"-0.024": 0.0,
			"-0.023": 0.0,
			"-0.022": 0.0,
			"-0.021": 0.0,
			"-0.02": 0.0,
			"-0.019": 0.0,
			"-0.018": 0.0,
			"-0.017": 0.0,
			"-0.016": 0.0220014618987,
			"-0.015": 0.647822618161,
			"-0.014": 1.75009392125,
			"-0.013": 2.69955138157,
			"-0.012": 3.34291723029,
			"-0.011": 3.5221342827,
			"-0.01": 3.22312627135,
			"-0.009": 7.5198566034,
			"-0.008": 12.655478512,
			"-0.007": 11.4903764973,
			"-0.006": 12.9526470485,
			"-0.005": 10.5597570766,
			"-0.004": 10.2494147741,
			"-0.003": 9.2155000226,
			"-0.002": 8.55158726384,
			"-0.001": 9.74615349546,
			"0.0": 10.349075892,
			"0.001": 13.004048697,
			"0.002": 14.7161396639,
			"0.003": 16.0358079903,
			"0.004": 11.4288298938,
			"0.005": 4.0555942919,
			"0.006": 4.14259742468,
			"0.007": 4.50504852914,
			"0.008": 5.04787517922,
			"0.009": 5.58858327031,
			"0.01": 6.60950975162,
			"0.011": 6.48519076394,
			"0.012": 6.94648482477,
			"0.013": 4.72584574933,
			"0.014": 4.37389359904,
			"0.015": 0.379970506063,
			"0.016": 0.0,
			"0.017": 0.0,
			"0.018": 0.0,
			"0.019": 0.0,
			"0.02": 0.0,
			"0.021": 0.0,
			"0.022": 0.0,
			"0.023": 0.0,
			"0.024": 0.0,
			"0.025": 0.0
		}
	}
}
