{
	 "smiles": "COC1=CC(N)=C(C=C1OC)C#N", 
	 "Tm": 372.15, 
	 "num_atms": 23, 
	 "gaussian": { 
		 "optdone": 1, 
		 "sigma_profile": "yes", 
		 "theory": "DFT", 
		 "functional": "B3LYP", 
		 "basiset": "6-31G**", 
		 "properties": { 
			 "R2extent": 3100.786, 
			 "electric_dipole_moment_norm": 4.52969201271, 
			 "electric_quadrupole_moment_norm": 17.3734625803, 
			 "total_energy": -608.890840366, 
			 "HOMO_LUMO_gap": 0.17462, 
			 "cosmo_polarized_energy": -13.33, 
			 "cosmo_cavitation_energy": 27.83, 
			 "cosmo_dispersion_energy": -19.57, 
			 "cosmo_repulsion_energy": 1.57, 
			 "cosmo_total_nonelectrostatic_energy": 9.83, 
			 "SMD_solvation_energy": 7.48 
		},
		"coords": [
			{
				"x": -1.7523640304,
				"y": -1.4648124818,
				"z": 1.3433188792,
				"element": "C" 
			},
			{
				"x": -1.3517930591,
				"y": -0.1925628736,
				"z": 1.875562233,
				"element": "O" 
			},
			{
				"x": -0.5648736382,
				"y": 0.5732231048,
				"z": 1.0555217357,
				"element": "C" 
			},
			{
				"x": -1.0640478473,
				"y": 1.8019810459,
				"z": 0.6366949723,
				"element": "C" 
			},
			{
				"x": -0.3058896921,
				"y": 2.6641021071,
				"z": -0.1740388195,
				"element": "C" 
			},
			{
				"x": -0.8313266182,
				"y": 3.8556233899,
				"z": -0.6278138816,
				"element": "N" 
			},
			{
				"x": 0.9910118224,
				"y": 2.2388011362,
				"z": -0.5641619968,
				"element": "C" 
			},
			{
				"x": 1.4922122941,
				"y": 0.9992871224,
				"z": -0.1264366026,
				"element": "C" 
			},
			{
				"x": 0.7368631766,
				"y": 0.1650060221,
				"z": 0.6818238325,
				"element": "C" 
			},
			{
				"x": 1.2547401808,
				"y": -1.0483352934,
				"z": 1.0844257843,
				"element": "O" 
			},
			{
				"x": 1.6480897396,
				"y": -1.0924580051,
				"z": 2.4615555141,
				"element": "C" 
			},
			{
				"x": 1.7847544686,
				"y": 3.0994521717,
				"z": -1.3794648937,
				"element": "C" 
			},
			{
				"x": 2.3913913369,
				"y": 3.8478615715,
				"z": -2.0356462122,
				"element": "N" 
			},
			{
				"x": -2.3487983429,
				"y": -1.9418960761,
				"z": 2.1229706663,
				"element": "H" 
			},
			{
				"x": -0.8869554292,
				"y": -2.0863891227,
				"z": 1.1000911495,
				"element": "H" 
			},
			{
				"x": -2.3701486788,
				"y": -1.3265466473,
				"z": 0.447738789,
				"element": "H" 
			},
			{
				"x": -2.0681743709,
				"y": 2.0769514818,
				"z": 0.9440613642,
				"element": "H" 
			},
			{
				"x": -1.5881185112,
				"y": 4.25756493,
				"z": -0.0965119164,
				"element": "H" 
			},
			{
				"x": -0.1854587143,
				"y": 4.5275028528,
				"z": -1.018023711,
				"element": "H" 
			},
			{
				"x": 2.4893737153,
				"y": 0.6859226059,
				"z": -0.4157065322,
				"element": "H" 
			},
			{
				"x": 0.7968839349,
				"y": -0.904716591,
				"z": 3.1247672932,
				"element": "H" 
			},
			{
				"x": 2.4366202694,
				"y": -0.3572019395,
				"z": 2.6650000131,
				"element": "H" 
			},
			{
				"x": 2.0368079942,
				"y": -2.0974605117,
				"z": 2.6382723396,
				"element": "H" 
			}
		],
		 "valence_orbital": [ 
			{
				"type": "occ",
				"energy": -0.319,
				"method": "rhf"
			},
			{
				"type": "occ",
				"energy": -0.2935,
				"method": "rhf"
			},
			{
				"type": "occ",
				"energy": -0.27295,
				"method": "rhf"
			},
			{
				"type": "occ",
				"energy": -0.24926,
				"method": "rhf"
			},
			{
				"type": "occ",
				"energy": -0.21238,
				"method": "rhf"
			},
			{
				"type": "unocc",
				"energy": -0.03776,
				"method": "rhf"
			},
			{
				"type": "unocc",
				"energy": -0.00056,
				"method": "rhf"
			},
			{
				"type": "unocc",
				"energy": 0.0357,
				"method": "rhf"
			},
			{
				"type": "unocc",
				"energy": 0.07128,
				"method": "rhf"
			},
			{
				"type": "unocc",
				"energy": 0.08413,
				"method": "rhf"
			}
		],
		"cosmo_sigma_profile": { 
			"-0.025": 0.0,
			"-0.024": 0.0,
			"-0.023": 0.0,
			"-0.022": 0.0,
			"-0.021": 0.0,
			"-0.02": 0.0,
			"-0.019": 0.0,
			"-0.018": 0.0,
			"-0.017": 0.0,
			"-0.016": 0.0,
			"-0.015": 0.0,
			"-0.014": 0.793293399191,
			"-0.013": 1.81324539795,
			"-0.012": 2.58627089339,
			"-0.011": 2.02711736793,
			"-0.01": 2.88533614427,
			"-0.009": 2.51137378898,
			"-0.008": 3.48052506876,
			"-0.007": 5.0509396947,
			"-0.006": 6.22300686247,
			"-0.005": 11.9709142637,
			"-0.004": 16.8004067705,
			"-0.003": 22.3170403044,
			"-0.002": 18.902031024,
			"-0.001": 15.3077475633,
			"0.0": 16.5470662933,
			"0.001": 13.7341478046,
			"0.002": 17.009565618,
			"0.003": 12.1838433264,
			"0.004": 6.7379220566,
			"0.005": 5.7812753953,
			"0.006": 5.10839262383,
			"0.007": 4.05513307713,
			"0.008": 5.17207355262,
			"0.009": 6.62364472203,
			"0.01": 5.37121569839,
			"0.011": 5.26912232966,
			"0.012": 3.14958166718,
			"0.013": 2.22649240068,
			"0.014": 0.395387477749,
			"0.015": 0.0,
			"0.016": 0.0,
			"0.017": 0.0,
			"0.018": 0.0,
			"0.019": 0.0,
			"0.02": 0.0,
			"0.021": 0.0,
			"0.022": 0.0,
			"0.023": 0.0,
			"0.024": 0.0,
			"0.025": 0.0
		}
	}
}
