{
	 "smiles": "OC1=C2C(=O)C=CC(=O)C2=C(O)C=C1", 
	 "Tm": 510.15, 
	 "num_atms": 20, 
	 "gaussian": { 
		 "optdone": 1, 
		 "sigma_profile": "yes", 
		 "theory": "DFT", 
		 "functional": "B3LYP", 
		 "basiset": "6-31G**", 
		 "properties": { 
			 "R2extent": 3238.9202, 
			 "electric_dipole_moment_norm": 0.257041475253, 
			 "electric_quadrupole_moment_norm": 15.2394887883, 
			 "total_energy": -685.581161657, 
			 "HOMO_LUMO_gap": 0.09892, 
			 "cosmo_polarized_energy": -8.97, 
			 "cosmo_cavitation_energy": 24.17, 
			 "cosmo_dispersion_energy": -18.8, 
			 "cosmo_repulsion_energy": 1.42, 
			 "cosmo_total_nonelectrostatic_energy": 6.79, 
			 "SMD_solvation_energy": 5.55 
		},
		"coords": [
			{
				"x": 1.7936081128,
				"y": 0.0981699784,
				"z": -0.867976579,
				"element": "O" 
			},
			{
				"x": 0.541502891,
				"y": 0.0665539942,
				"z": -0.4052011128,
				"element": "C" 
			},
			{
				"x": -0.5734306181,
				"y": -0.0854219577,
				"z": -1.2485635969,
				"element": "C" 
			},
			{
				"x": -0.3754556785,
				"y": -0.2152452507,
				"z": -2.6882977005,
				"element": "C" 
			},
			{
				"x": 0.7599970751,
				"y": -0.1965941315,
				"z": -3.2083982439,
				"element": "O" 
			},
			{
				"x": -1.5734885936,
				"y": -0.3730242173,
				"z": -3.5362440362,
				"element": "C" 
			},
			{
				"x": -2.8145301892,
				"y": -0.3979895909,
				"z": -3.013780797,
				"element": "C" 
			},
			{
				"x": -3.0502594347,
				"y": -0.2690897176,
				"z": -1.562221876,
				"element": "C" 
			},
			{
				"x": -4.2156360178,
				"y": -0.2969062859,
				"z": -1.1136462593,
				"element": "O" 
			},
			{
				"x": -1.8870586543,
				"y": -0.1118532064,
				"z": -0.6955409897,
				"element": "C" 
			},
			{
				"x": -2.0678329486,
				"y": 0.0140278305,
				"z": 0.6933004202,
				"element": "C" 
			},
			{
				"x": -3.2741490844,
				"y": -0.0038946511,
				"z": 1.2655012706,
				"element": "O" 
			},
			{
				"x": -0.9288875155,
				"y": 0.1666556398,
				"z": 1.52852361,
				"element": "C" 
			},
			{
				"x": 0.3381129873,
				"y": 0.1921530982,
				"z": 0.9951355575,
				"element": "C" 
			},
			{
				"x": 1.7274109468,
				"y": -0.0034021969,
				"z": -1.8566899956,
				"element": "H" 
			},
			{
				"x": -1.3898164938,
				"y": -0.4670035365,
				"z": -4.6024001037,
				"element": "H" 
			},
			{
				"x": -3.701844876,
				"y": -0.5135411277,
				"z": -3.629068123,
				"element": "H" 
			},
			{
				"x": -3.9313596838,
				"y": -0.1173923701,
				"z": 0.5256096391,
				"element": "H" 
			},
			{
				"x": -1.0917646227,
				"y": 0.2620066923,
				"z": 2.5969541427,
				"element": "H" 
			},
			{
				"x": 1.2124823981,
				"y": 0.3083910069,
				"z": 1.6269047736,
				"element": "H" 
			}
		],
		 "valence_orbital": [ 
			{
				"type": "occ",
				"energy": -0.30619,
				"method": "rhf"
			},
			{
				"type": "occ",
				"energy": -0.28787,
				"method": "rhf"
			},
			{
				"type": "occ",
				"energy": -0.28503,
				"method": "rhf"
			},
			{
				"type": "occ",
				"energy": -0.27413,
				"method": "rhf"
			},
			{
				"type": "occ",
				"energy": -0.22591,
				"method": "rhf"
			},
			{
				"type": "unocc",
				"energy": -0.12699,
				"method": "rhf"
			},
			{
				"type": "unocc",
				"energy": -0.03423,
				"method": "rhf"
			},
			{
				"type": "unocc",
				"energy": -0.03326,
				"method": "rhf"
			},
			{
				"type": "unocc",
				"energy": 0.04285,
				"method": "rhf"
			},
			{
				"type": "unocc",
				"energy": 0.07578,
				"method": "rhf"
			}
		],
		"cosmo_sigma_profile": { 
			"-0.025": 0.0,
			"-0.024": 0.0,
			"-0.023": 0.0,
			"-0.022": 0.0,
			"-0.021": 0.0,
			"-0.02": 0.0,
			"-0.019": 0.0,
			"-0.018": 0.0,
			"-0.017": 0.0,
			"-0.016": 0.0,
			"-0.015": 0.0,
			"-0.014": 0.0,
			"-0.013": 0.0,
			"-0.012": 0.0,
			"-0.011": 0.0,
			"-0.01": 0.0,
			"-0.009": 1.30986038459,
			"-0.008": 7.27804464268,
			"-0.007": 8.11700309635,
			"-0.006": 9.04952002687,
			"-0.005": 8.23163781434,
			"-0.004": 14.5654863555,
			"-0.003": 18.2394742245,
			"-0.002": 16.8883623708,
			"-0.001": 20.5801301511,
			"0.0": 22.1937898269,
			"0.001": 12.4624707929,
			"0.002": 7.09636069758,
			"0.003": 4.98390803464,
			"0.004": 5.56465676687,
			"0.005": 4.51769427228,
			"0.006": 4.35911942675,
			"0.007": 5.9646842699,
			"0.008": 6.01832197653,
			"0.009": 5.31905584058,
			"0.01": 6.93784230423,
			"0.011": 3.93941905299,
			"0.012": 1.90517766089,
			"0.013": 0.0357356731599,
			"0.014": 0.0,
			"0.015": 0.0,
			"0.016": 0.0,
			"0.017": 0.0,
			"0.018": 0.0,
			"0.019": 0.0,
			"0.02": 0.0,
			"0.021": 0.0,
			"0.022": 0.0,
			"0.023": 0.0,
			"0.024": 0.0,
			"0.025": 0.0
		}
	}
}
