{
	 "smiles": "OCCN(CCO)CC(O)=O", 
	 "Tm": 464.15, 
	 "num_atms": 24, 
	 "gaussian": { 
		 "optdone": 1, 
		 "sigma_profile": "yes", 
		 "theory": "DFT", 
		 "functional": "B3LYP", 
		 "basiset": "6-31G**", 
		 "properties": { 
			 "R2extent": 2501.2222, 
			 "electric_dipole_moment_norm": 4.84920337581, 
			 "electric_quadrupole_moment_norm": 19.0600041112, 
			 "total_energy": -592.095191889, 
			 "HOMO_LUMO_gap": 0.265, 
			 "cosmo_polarized_energy": -20.11, 
			 "cosmo_cavitation_energy": 26.76, 
			 "cosmo_dispersion_energy": -18.85, 
			 "cosmo_repulsion_energy": 1.57, 
			 "cosmo_total_nonelectrostatic_energy": 9.47, 
			 "SMD_solvation_energy": 5.85 
		},
		"coords": [
			{
				"x": -2.0035533242,
				"y": 2.7825220718,
				"z": -1.1671826239,
				"element": "O" 
			},
			{
				"x": -2.4182783596,
				"y": 1.553679115,
				"z": -0.5816100175,
				"element": "C" 
			},
			{
				"x": -1.6468961548,
				"y": 1.3219170763,
				"z": 0.712054481,
				"element": "C" 
			},
			{
				"x": -0.2270090853,
				"y": 0.9835902663,
				"z": 0.5134872809,
				"element": "N" 
			},
			{
				"x": 0.3155784781,
				"y": 0.1648871372,
				"z": 1.6135658802,
				"element": "C" 
			},
			{
				"x": -0.0306186333,
				"y": -1.3222091955,
				"z": 1.4702478809,
				"element": "C" 
			},
			{
				"x": 0.4350026699,
				"y": -2.0781393011,
				"z": 2.5755871288,
				"element": "O" 
			},
			{
				"x": 0.6283463293,
				"y": 2.1467099875,
				"z": 0.2252934287,
				"element": "C" 
			},
			{
				"x": 1.8012438709,
				"y": 1.7534669188,
				"z": -0.6811636784,
				"element": "C" 
			},
			{
				"x": 1.5811965172,
				"y": 0.6165682864,
				"z": -1.3706026589,
				"element": "O" 
			},
			{
				"x": 2.8064710164,
				"y": 2.4115568905,
				"z": -0.7968857292,
				"element": "O" 
			},
			{
				"x": -2.3948452654,
				"y": 2.8548082409,
				"z": -2.0461265963,
				"element": "H" 
			},
			{
				"x": -2.2407570291,
				"y": 0.7039701981,
				"z": -1.2578760988,
				"element": "H" 
			},
			{
				"x": -3.4934204861,
				"y": 1.5769731438,
				"z": -0.3419850948,
				"element": "H" 
			},
			{
				"x": -1.7641300648,
				"y": 2.2021225932,
				"z": 1.3651142399,
				"element": "H" 
			},
			{
				"x": -2.1256188144,
				"y": 0.4815371007,
				"z": 1.2235374712,
				"element": "H" 
			},
			{
				"x": -0.0224271452,
				"y": 0.5245599235,
				"z": 2.5986557683,
				"element": "H" 
			},
			{
				"x": 1.4074730523,
				"y": 0.2633351563,
				"z": 1.6009039906,
				"element": "H" 
			},
			{
				"x": -1.1153537608,
				"y": -1.4691786819,
				"z": 1.4458791121,
				"element": "H" 
			},
			{
				"x": 0.3683120236,
				"y": -1.6961298251,
				"z": 0.5144877121,
				"element": "H" 
			},
			{
				"x": 1.4004741101,
				"y": -2.0905258107,
				"z": 2.5447345244,
				"element": "H" 
			},
			{
				"x": 1.0301135851,
				"y": 2.6305693624,
				"z": 1.1260205207,
				"element": "H" 
			},
			{
				"x": 0.0387237538,
				"y": 2.8864622314,
				"z": -0.3215577922,
				"element": "H" 
			},
			{
				"x": 0.7025727163,
				"y": 0.3051471142,
				"z": -1.0534791299,
				"element": "H" 
			}
		],
		 "valence_orbital": [ 
			{
				"type": "occ",
				"energy": -0.2995,
				"method": "rhf"
			},
			{
				"type": "occ",
				"energy": -0.29118,
				"method": "rhf"
			},
			{
				"type": "occ",
				"energy": -0.28204,
				"method": "rhf"
			},
			{
				"type": "occ",
				"energy": -0.26454,
				"method": "rhf"
			},
			{
				"type": "occ",
				"energy": -0.24317,
				"method": "rhf"
			},
			{
				"type": "unocc",
				"energy": 0.02183,
				"method": "rhf"
			},
			{
				"type": "unocc",
				"energy": 0.05355,
				"method": "rhf"
			},
			{
				"type": "unocc",
				"energy": 0.06262,
				"method": "rhf"
			},
			{
				"type": "unocc",
				"energy": 0.08119,
				"method": "rhf"
			},
			{
				"type": "unocc",
				"energy": 0.09718,
				"method": "rhf"
			}
		],
		"cosmo_sigma_profile": { 
			"-0.025": 0.0,
			"-0.024": 0.0,
			"-0.023": 0.0,
			"-0.022": 0.0,
			"-0.021": 0.0,
			"-0.02": 0.0,
			"-0.019": 0.0,
			"-0.018": 0.0,
			"-0.017": 0.032286484266,
			"-0.016": 1.08216491083,
			"-0.015": 2.33976837187,
			"-0.014": 2.136877217,
			"-0.013": 1.41396333783,
			"-0.012": 2.3657125296,
			"-0.011": 1.72698336492,
			"-0.01": 1.69840166636,
			"-0.009": 2.591649198,
			"-0.008": 2.75097401414,
			"-0.007": 4.80542668034,
			"-0.006": 9.31822976334,
			"-0.005": 13.1669390781,
			"-0.004": 25.1031451409,
			"-0.003": 26.4981309912,
			"-0.002": 18.4733594174,
			"-0.001": 10.497465507,
			"0.0": 7.61822317267,
			"0.001": 4.36305878101,
			"0.002": 4.92884130946,
			"0.003": 4.77761134551,
			"0.004": 5.120430131,
			"0.005": 4.64569256161,
			"0.006": 3.45594783898,
			"0.007": 4.79259204483,
			"0.008": 4.92183405078,
			"0.009": 4.90611053495,
			"0.01": 6.34641947617,
			"0.011": 7.41807224429,
			"0.012": 7.81238412689,
			"0.013": 6.46455478014,
			"0.014": 3.64844805454,
			"0.015": 0.379587580088,
			"0.016": 0.0,
			"0.017": 0.0,
			"0.018": 0.0,
			"0.019": 0.0,
			"0.02": 0.0,
			"0.021": 0.0,
			"0.022": 0.0,
			"0.023": 0.0,
			"0.024": 0.0,
			"0.025": 0.0
		}
	}
}
