{
	 "smiles": "CC1(C)C2CCC1(C)C(=O)C2=O", 
	 "Tm": 473.15, 
	 "num_atms": 26, 
	 "gaussian": { 
		 "optdone": 1, 
		 "sigma_profile": "yes", 
		 "theory": "DFT", 
		 "functional": "B3LYP", 
		 "basiset": "6-31G**", 
		 "properties": { 
			 "R2extent": 1909.0165, 
			 "electric_dipole_moment_norm": 4.84403132525, 
			 "electric_quadrupole_moment_norm": 12.3525028391, 
			 "total_energy": -539.933498705, 
			 "HOMO_LUMO_gap": 0.14654, 
			 "cosmo_polarized_energy": -10.69, 
			 "cosmo_cavitation_energy": 26.43, 
			 "cosmo_dispersion_energy": -18.78, 
			 "cosmo_repulsion_energy": 1.47, 
			 "cosmo_total_nonelectrostatic_energy": 9.12, 
			 "SMD_solvation_energy": 5.69 
		},
		"coords": [
			{
				"x": -0.6065054146,
				"y": 1.8493348458,
				"z": 0.637975928,
				"element": "C" 
			},
			{
				"x": -0.9808907317,
				"y": 0.5570143613,
				"z": -0.1027349897,
				"element": "C" 
			},
			{
				"x": -2.276424019,
				"y": 0.813752217,
				"z": -0.8952422621,
				"element": "C" 
			},
			{
				"x": -1.0861832192,
				"y": -0.6926856237,
				"z": 0.8323103952,
				"element": "C" 
			},
			{
				"x": 0.3782522048,
				"y": -0.8919837032,
				"z": 1.3246605034,
				"element": "C" 
			},
			{
				"x": 1.2338246254,
				"y": -0.4596707308,
				"z": 0.0953629018,
				"element": "C" 
			},
			{
				"x": 0.1832038073,
				"y": -0.039373985,
				"z": -0.9864015139,
				"element": "C" 
			},
			{
				"x": 0.7352345601,
				"y": 0.7784270184,
				"z": -2.1413124935,
				"element": "C" 
			},
			{
				"x": -0.4434229458,
				"y": -1.3706241929,
				"z": -1.4076301086,
				"element": "C" 
			},
			{
				"x": -0.3088987699,
				"y": -1.9802300887,
				"z": -2.4421492646,
				"element": "O" 
			},
			{
				"x": -1.3061288549,
				"y": -1.810447163,
				"z": -0.1770951696,
				"element": "C" 
			},
			{
				"x": -1.9584332925,
				"y": -2.8230119183,
				"z": -0.0872241403,
				"element": "O" 
			},
			{
				"x": -0.481553354,
				"y": 2.6742250211,
				"z": -0.0713558328,
				"element": "H" 
			},
			{
				"x": -1.4084663214,
				"y": 2.1310355309,
				"z": 1.3292659053,
				"element": "H" 
			},
			{
				"x": 0.3157046881,
				"y": 1.770268332,
				"z": 1.2177928451,
				"element": "H" 
			},
			{
				"x": -3.0878313766,
				"y": 1.0980939584,
				"z": -0.2168282359,
				"element": "H" 
			},
			{
				"x": -2.1401071051,
				"y": 1.6332329223,
				"z": -1.6083123381,
				"element": "H" 
			},
			{
				"x": -2.618287195,
				"y": -0.0590003454,
				"z": -1.4623907905,
				"element": "H" 
			},
			{
				"x": -1.8403413655,
				"y": -0.6603044922,
				"z": 1.6212266742,
				"element": "H" 
			},
			{
				"x": 0.5721486378,
				"y": -0.2631004198,
				"z": 2.1974527268,
				"element": "H" 
			},
			{
				"x": 0.5665929901,
				"y": -1.9259000404,
				"z": 1.6279209329,
				"element": "H" 
			},
			{
				"x": 1.8805078695,
				"y": 0.3916633794,
				"z": 0.3275476776,
				"element": "H" 
			},
			{
				"x": 1.8841587518,
				"y": -1.2606834186,
				"z": -0.2693946122,
				"element": "H" 
			},
			{
				"x": 1.4681243234,
				"y": 0.1915973783,
				"z": -2.7032731507,
				"element": "H" 
			},
			{
				"x": -0.0543120804,
				"y": 1.0641774918,
				"z": -2.8430831471,
				"element": "H" 
			},
			{
				"x": 1.226233587,
				"y": 1.6894936653,
				"z": -1.7851884408,
				"element": "H" 
			}
		],
		 "valence_orbital": [ 
			{
				"type": "occ",
				"energy": -0.3468,
				"method": "rhf"
			},
			{
				"type": "occ",
				"energy": -0.33579,
				"method": "rhf"
			},
			{
				"type": "occ",
				"energy": -0.31586,
				"method": "rhf"
			},
			{
				"type": "occ",
				"energy": -0.28897,
				"method": "rhf"
			},
			{
				"type": "occ",
				"energy": -0.22514,
				"method": "rhf"
			},
			{
				"type": "unocc",
				"energy": -0.0786,
				"method": "rhf"
			},
			{
				"type": "unocc",
				"energy": 0.04428,
				"method": "rhf"
			},
			{
				"type": "unocc",
				"energy": 0.06168,
				"method": "rhf"
			},
			{
				"type": "unocc",
				"energy": 0.09542,
				"method": "rhf"
			},
			{
				"type": "unocc",
				"energy": 0.10288,
				"method": "rhf"
			}
		],
		"cosmo_sigma_profile": { 
			"-0.025": 0.0,
			"-0.024": 0.0,
			"-0.023": 0.0,
			"-0.022": 0.0,
			"-0.021": 0.0,
			"-0.02": 0.0,
			"-0.019": 0.0,
			"-0.018": 0.0,
			"-0.017": 0.0,
			"-0.016": 0.0,
			"-0.015": 0.0,
			"-0.014": 0.0,
			"-0.013": 0.0,
			"-0.012": 0.0,
			"-0.011": 0.0,
			"-0.01": 0.0,
			"-0.009": 0.0,
			"-0.008": 0.196322631079,
			"-0.007": 0.868210748571,
			"-0.006": 2.61349917525,
			"-0.005": 12.0966237763,
			"-0.004": 23.4730245733,
			"-0.003": 37.3001824219,
			"-0.002": 28.3658868911,
			"-0.001": 24.6539172041,
			"0.0": 21.2015017319,
			"0.001": 9.5893984021,
			"0.002": 2.76987535867,
			"0.003": 2.38121630928,
			"0.004": 2.42016552502,
			"0.005": 2.71282876211,
			"0.006": 2.78992520052,
			"0.007": 3.82748186236,
			"0.008": 3.37938156046,
			"0.009": 5.49420925183,
			"0.01": 9.27701299018,
			"0.011": 7.81829334646,
			"0.012": 2.14185230856,
			"0.013": 0.0,
			"0.014": 0.0,
			"0.015": 0.0,
			"0.016": 0.0,
			"0.017": 0.0,
			"0.018": 0.0,
			"0.019": 0.0,
			"0.02": 0.0,
			"0.021": 0.0,
			"0.022": 0.0,
			"0.023": 0.0,
			"0.024": 0.0,
			"0.025": 0.0
		}
	}
}
