{
	 "smiles": "NC1=NC(Cl)=CC(Cl)=N1", 
	 "Tm": 493.15, 
	 "num_atms": 12, 
	 "gaussian": { 
		 "optdone": 1, 
		 "sigma_profile": "yes", 
		 "theory": "DFT", 
		 "functional": "B3LYP", 
		 "basiset": "6-31G**", 
		 "properties": { 
			 "R2extent": 2200.9152, 
			 "electric_dipole_moment_norm": 2.07148905862, 
			 "electric_quadrupole_moment_norm": 10.0155021796, 
			 "total_energy": -1238.88624403, 
			 "HOMO_LUMO_gap": 0.19857, 
			 "cosmo_polarized_energy": -8.68, 
			 "cosmo_cavitation_energy": 20.64, 
			 "cosmo_dispersion_energy": -16.03, 
			 "cosmo_repulsion_energy": 1.35, 
			 "cosmo_total_nonelectrostatic_energy": 5.96, 
			 "SMD_solvation_energy": 0.24 
		},
		"coords": [
			{
				"x": 0.0682198871,
				"y": -1.6542448154,
				"z": 1.1763879565,
				"element": "N" 
			},
			{
				"x": 0.1370300198,
				"y": -0.8235527242,
				"z": 0.1109619158,
				"element": "C" 
			},
			{
				"x": -0.8230890054,
				"y": 0.119930281,
				"z": 0.0072636748,
				"element": "N" 
			},
			{
				"x": -0.7178117325,
				"y": 0.9216047037,
				"z": -1.0333068496,
				"element": "C" 
			},
			{
				"x": -1.9489174734,
				"y": 2.1603958308,
				"z": -1.2007836656,
				"element": "Cl" 
			},
			{
				"x": 0.290876905,
				"y": 0.8496877726,
				"z": -1.9948693641,
				"element": "C" 
			},
			{
				"x": 1.2102827698,
				"y": -0.1741446755,
				"z": -1.7631117035,
				"element": "C" 
			},
			{
				"x": 2.5321936369,
				"y": -0.3863567377,
				"z": -2.8969812004,
				"element": "Cl" 
			},
			{
				"x": 1.1643829604,
				"y": -1.0095649655,
				"z": -0.7450075665,
				"element": "N" 
			},
			{
				"x": 0.7250480811,
				"y": -2.4126476618,
				"z": 1.250496613,
				"element": "H" 
			},
			{
				"x": -0.7205445736,
				"y": -1.5911477295,
				"z": 1.7976421955,
				"element": "H" 
			},
			{
				"x": 0.3525285249,
				"y": 1.5202407216,
				"z": -2.8387920058,
				"element": "H" 
			}
		],
		 "valence_orbital": [ 
			{
				"type": "occ",
				"energy": -0.32192,
				"method": "rhf"
			},
			{
				"type": "occ",
				"energy": -0.3098,
				"method": "rhf"
			},
			{
				"type": "occ",
				"energy": -0.29972,
				"method": "rhf"
			},
			{
				"type": "occ",
				"energy": -0.27919,
				"method": "rhf"
			},
			{
				"type": "occ",
				"energy": -0.2472,
				"method": "rhf"
			},
			{
				"type": "unocc",
				"energy": -0.04863,
				"method": "rhf"
			},
			{
				"type": "unocc",
				"energy": -0.02137,
				"method": "rhf"
			},
			{
				"type": "unocc",
				"energy": 0.0073,
				"method": "rhf"
			},
			{
				"type": "unocc",
				"energy": 0.04705,
				"method": "rhf"
			},
			{
				"type": "unocc",
				"energy": 0.07629,
				"method": "rhf"
			}
		],
		"cosmo_sigma_profile": { 
			"-0.025": 0.0,
			"-0.024": 0.0,
			"-0.023": 0.0,
			"-0.022": 0.0,
			"-0.021": 0.0,
			"-0.02": 0.0,
			"-0.019": 0.0,
			"-0.018": 0.0,
			"-0.017": 0.0,
			"-0.016": 0.0,
			"-0.015": 1.12293299448,
			"-0.014": 2.51570280668,
			"-0.013": 2.15460397865,
			"-0.012": 1.77207661234,
			"-0.011": 1.56539664634,
			"-0.01": 2.9926212858,
			"-0.009": 2.67732799963,
			"-0.008": 2.49185091697,
			"-0.007": 2.87837302672,
			"-0.006": 2.388501647,
			"-0.005": 3.43655883544,
			"-0.004": 5.3109984185,
			"-0.003": 8.3820297265,
			"-0.002": 12.2731211236,
			"-0.001": 18.525698441,
			"0.0": 14.8320254762,
			"0.001": 13.8115444166,
			"0.002": 14.3696336477,
			"0.003": 21.0571889636,
			"0.004": 14.2745678188,
			"0.005": 5.43888413976,
			"0.006": 3.87580510218,
			"0.007": 2.50911160712,
			"0.008": 2.12559598496,
			"0.009": 2.58359022869,
			"0.01": 2.27747591262,
			"0.011": 0.946169776074,
			"0.012": 1.84489811026,
			"0.013": 0.217375207939,
			"0.014": 0.0,
			"0.015": 0.0,
			"0.016": 0.0,
			"0.017": 0.0,
			"0.018": 0.0,
			"0.019": 0.0,
			"0.02": 0.0,
			"0.021": 0.0,
			"0.022": 0.0,
			"0.023": 0.0,
			"0.024": 0.0,
			"0.025": 0.0
		}
	}
}
