{
	 "smiles": "OC(=O)C1=NN(C=N1)C1=CC=CC=C1", 
	 "Tm": 453.15, 
	 "num_atms": 21, 
	 "gaussian": { 
		 "optdone": 1, 
		 "sigma_profile": "yes", 
		 "theory": "DFT", 
		 "functional": "B3LYP", 
		 "basiset": "6-31G**", 
		 "properties": { 
			 "R2extent": 3771.2724, 
			 "electric_dipole_moment_norm": 8.18824260144, 
			 "electric_quadrupole_moment_norm": 24.5027154395, 
			 "total_energy": -661.868313707, 
			 "HOMO_LUMO_gap": 0.19311, 
			 "cosmo_polarized_energy": -18.28, 
			 "cosmo_cavitation_energy": 26.59, 
			 "cosmo_dispersion_energy": -19.78, 
			 "cosmo_repulsion_energy": 1.53, 
			 "cosmo_total_nonelectrostatic_energy": 8.34, 
			 "SMD_solvation_energy": 4.07 
		},
		"coords": [
			{
				"x": -2.2081920777,
				"y": 2.3725815243,
				"z": 2.0605314201,
				"element": "O" 
			},
			{
				"x": -2.0320107437,
				"y": 3.0732522004,
				"z": 0.9165127958,
				"element": "C" 
			},
			{
				"x": -2.3437847739,
				"y": 4.2314237336,
				"z": 0.8133573936,
				"element": "O" 
			},
			{
				"x": -1.4161756039,
				"y": 2.2735663294,
				"z": -0.1876702927,
				"element": "C" 
			},
			{
				"x": -1.0970962944,
				"y": 0.9970798151,
				"z": 0.0020452587,
				"element": "N" 
			},
			{
				"x": -0.5798544237,
				"y": 0.6269261738,
				"z": -1.1921716837,
				"element": "N" 
			},
			{
				"x": -0.6179588114,
				"y": 1.7044107163,
				"z": -2.0322443373,
				"element": "C" 
			},
			{
				"x": -1.1375997543,
				"y": 2.7530971673,
				"z": -1.4305142772,
				"element": "N" 
			},
			{
				"x": -0.1038340092,
				"y": -0.6980123587,
				"z": -1.4214158056,
				"element": "C" 
			},
			{
				"x": 0.4266845294,
				"y": -1.0491340057,
				"z": -2.6674322298,
				"element": "C" 
			},
			{
				"x": 0.8871001778,
				"y": -2.3484972685,
				"z": -2.8737692946,
				"element": "C" 
			},
			{
				"x": 0.8221517502,
				"y": -3.2951781894,
				"z": -1.8504278116,
				"element": "C" 
			},
			{
				"x": 0.2908518998,
				"y": -2.9331687117,
				"z": -0.6114811151,
				"element": "C" 
			},
			{
				"x": -0.1736581363,
				"y": -1.6383419942,
				"z": -0.3892326024,
				"element": "C" 
			},
			{
				"x": -1.8890214566,
				"y": 1.4640521206,
				"z": 1.924991782,
				"element": "H" 
			},
			{
				"x": -0.2630918039,
				"y": 1.6758359485,
				"z": -3.0510004097,
				"element": "H" 
			},
			{
				"x": 0.4860261621,
				"y": -0.3284879927,
				"z": -3.4750619351,
				"element": "H" 
			},
			{
				"x": 1.2980819102,
				"y": -2.6172362196,
				"z": -3.8419265441,
				"element": "H" 
			},
			{
				"x": 1.1823873903,
				"y": -4.3052886046,
				"z": -2.0175933039,
				"element": "H" 
			},
			{
				"x": 0.2352436906,
				"y": -3.6610750776,
				"z": 0.1920861451,
				"element": "H" 
			},
			{
				"x": -0.5873496215,
				"y": -1.3480053065,
				"z": 0.5679168473,
				"element": "H" 
			}
		],
		 "valence_orbital": [ 
			{
				"type": "occ",
				"energy": -0.30509,
				"method": "rhf"
			},
			{
				"type": "occ",
				"energy": -0.30298,
				"method": "rhf"
			},
			{
				"type": "occ",
				"energy": -0.28113,
				"method": "rhf"
			},
			{
				"type": "occ",
				"energy": -0.2741,
				"method": "rhf"
			},
			{
				"type": "occ",
				"energy": -0.2587,
				"method": "rhf"
			},
			{
				"type": "unocc",
				"energy": -0.06559,
				"method": "rhf"
			},
			{
				"type": "unocc",
				"energy": -0.03452,
				"method": "rhf"
			},
			{
				"type": "unocc",
				"energy": -0.02195,
				"method": "rhf"
			},
			{
				"type": "unocc",
				"energy": 0.01459,
				"method": "rhf"
			},
			{
				"type": "unocc",
				"energy": 0.05788,
				"method": "rhf"
			}
		],
		"cosmo_sigma_profile": { 
			"-0.025": 0.0,
			"-0.024": 0.0,
			"-0.023": 0.0,
			"-0.022": 0.0,
			"-0.021": 0.0,
			"-0.02": 0.0,
			"-0.019": 0.0,
			"-0.018": 0.0,
			"-0.017": 0.0,
			"-0.016": 0.0612654860194,
			"-0.015": 0.598287281304,
			"-0.014": 0.187738539826,
			"-0.013": 2.06445183946,
			"-0.012": 2.8400914389,
			"-0.011": 3.20476205542,
			"-0.01": 2.32929210812,
			"-0.009": 2.43101376778,
			"-0.008": 3.35539515018,
			"-0.007": 6.77991106129,
			"-0.006": 12.8515793851,
			"-0.005": 15.9185266803,
			"-0.004": 16.0097200075,
			"-0.003": 15.169646361,
			"-0.002": 12.5456197045,
			"-0.001": 11.1294123126,
			"0.0": 13.0208447764,
			"0.001": 13.4848269621,
			"0.002": 12.8983315035,
			"0.003": 13.79875984,
			"0.004": 12.2374954018,
			"0.005": 3.68994162873,
			"0.006": 2.88979524498,
			"0.007": 3.53620785559,
			"0.008": 4.20847567598,
			"0.009": 5.23320653162,
			"0.01": 5.84631800014,
			"0.011": 7.50014000689,
			"0.012": 4.77036452894,
			"0.013": 2.24976837769,
			"0.014": 1.38840632836,
			"0.015": 0.771982050665,
			"0.016": 0.0108492123289,
			"0.017": 0.0,
			"0.018": 0.0,
			"0.019": 0.0,
			"0.02": 0.0,
			"0.021": 0.0,
			"0.022": 0.0,
			"0.023": 0.0,
			"0.024": 0.0,
			"0.025": 0.0
		}
	}
}
