{
	 "smiles": "FC1=C(NC2CCNCC2)C=CC=C1", 
	 "Tm": 320.15, 
	 "num_atms": 29, 
	 "gaussian": { 
		 "optdone": 1, 
		 "sigma_profile": "yes", 
		 "theory": "DFT", 
		 "functional": "B3LYP", 
		 "basiset": "6-31G**", 
		 "properties": { 
			 "R2extent": 4609.506, 
			 "electric_dipole_moment_norm": 0.819279201494, 
			 "electric_quadrupole_moment_norm": 10.5749413251, 
			 "total_energy": -637.534381955, 
			 "HOMO_LUMO_gap": 0.19917, 
			 "cosmo_polarized_energy": -8.66, 
			 "cosmo_cavitation_energy": 30.1, 
			 "cosmo_dispersion_energy": -22.22, 
			 "cosmo_repulsion_energy": 1.73, 
			 "cosmo_total_nonelectrostatic_energy": 9.6, 
			 "SMD_solvation_energy": 1.63 
		},
		"coords": [
			{
				"x": 3.5982049613,
				"y": 0.5533272822,
				"z": 1.8588848502,
				"element": "F" 
			},
			{
				"x": 2.2631742056,
				"y": 0.7738180351,
				"z": 1.6818996703,
				"element": "C" 
			},
			{
				"x": 1.7754486859,
				"y": 0.6907854371,
				"z": 0.361593748,
				"element": "C" 
			},
			{
				"x": 2.6922010957,
				"y": 0.450014204,
				"z": -0.6520178215,
				"element": "N" 
			},
			{
				"x": 2.4062426969,
				"y": -0.1151552954,
				"z": -1.9733921855,
				"element": "C" 
			},
			{
				"x": 1.7741187896,
				"y": 0.8768399714,
				"z": -2.9653371511,
				"element": "C" 
			},
			{
				"x": 1.8237947956,
				"y": 0.285870693,
				"z": -4.4013635854,
				"element": "C" 
			},
			{
				"x": 1.7385235733,
				"y": -1.1844711148,
				"z": -4.4594273279,
				"element": "N" 
			},
			{
				"x": 0.9780914081,
				"y": -1.7381715041,
				"z": -3.3376124094,
				"element": "C" 
			},
			{
				"x": 1.602364552,
				"y": -1.4416497147,
				"z": -1.9478806545,
				"element": "C" 
			},
			{
				"x": 0.3950019737,
				"y": 0.9092039078,
				"z": 0.200026892,
				"element": "C" 
			},
			{
				"x": -0.4224667313,
				"y": 1.1893264876,
				"z": 1.2988231831,
				"element": "C" 
			},
			{
				"x": 0.1004206226,
				"y": 1.2669087142,
				"z": 2.5877638913,
				"element": "C" 
			},
			{
				"x": 1.4709698214,
				"y": 1.054695988,
				"z": 2.7766943768,
				"element": "C" 
			},
			{
				"x": 3.5976252694,
				"y": 0.1980048955,
				"z": -0.2838870797,
				"element": "H" 
			},
			{
				"x": 3.4013870847,
				"y": -0.3420850453,
				"z": -2.3768683271,
				"element": "H" 
			},
			{
				"x": 2.3033860259,
				"y": 1.8340641856,
				"z": -2.9220191506,
				"element": "H" 
			},
			{
				"x": 0.7350332579,
				"y": 1.0825584152,
				"z": -2.6885022475,
				"element": "H" 
			},
			{
				"x": 2.7533715077,
				"y": 0.5851338165,
				"z": -4.8983182896,
				"element": "H" 
			},
			{
				"x": 1.0039088779,
				"y": 0.7137693215,
				"z": -4.9933897649,
				"element": "H" 
			},
			{
				"x": 2.6743498465,
				"y": -1.5808810097,
				"z": -4.4538486415,
				"element": "H" 
			},
			{
				"x": -0.0327178534,
				"y": -1.3145569144,
				"z": -3.3902781071,
				"element": "H" 
			},
			{
				"x": 0.8644244357,
				"y": -2.8174599053,
				"z": -3.4844784281,
				"element": "H" 
			},
			{
				"x": 0.8148673171,
				"y": -1.3876569097,
				"z": -1.1886871696,
				"element": "H" 
			},
			{
				"x": 2.2720956076,
				"y": -2.2551579384,
				"z": -1.6429811872,
				"element": "H" 
			},
			{
				"x": -0.0437994848,
				"y": 0.8684236689,
				"z": -0.7885563142,
				"element": "H" 
			},
			{
				"x": -1.4835438803,
				"y": 1.3520968529,
				"z": 1.133365823,
				"element": "H" 
			},
			{
				"x": -0.5385154856,
				"y": 1.4883390123,
				"z": 3.4360781471,
				"element": "H" 
			},
			{
				"x": 1.9314370233,
				"y": 1.0984644631,
				"z": 3.7582152609,
				"element": "H" 
			}
		],
		 "valence_orbital": [ 
			{
				"type": "occ",
				"energy": -0.31361,
				"method": "rhf"
			},
			{
				"type": "occ",
				"energy": -0.28972,
				"method": "rhf"
			},
			{
				"type": "occ",
				"energy": -0.24108,
				"method": "rhf"
			},
			{
				"type": "occ",
				"energy": -0.21772,
				"method": "rhf"
			},
			{
				"type": "occ",
				"energy": -0.19341,
				"method": "rhf"
			},
			{
				"type": "unocc",
				"energy": 0.00576,
				"method": "rhf"
			},
			{
				"type": "unocc",
				"energy": 0.01776,
				"method": "rhf"
			},
			{
				"type": "unocc",
				"energy": 0.0629,
				"method": "rhf"
			},
			{
				"type": "unocc",
				"energy": 0.07364,
				"method": "rhf"
			},
			{
				"type": "unocc",
				"energy": 0.10081,
				"method": "rhf"
			}
		],
		"cosmo_sigma_profile": { 
			"-0.025": 0.0,
			"-0.024": 0.0,
			"-0.023": 0.0,
			"-0.022": 0.0,
			"-0.021": 0.0,
			"-0.02": 0.0,
			"-0.019": 0.0,
			"-0.018": 0.0,
			"-0.017": 0.0,
			"-0.016": 0.0,
			"-0.015": 0.0,
			"-0.014": 0.0,
			"-0.013": 0.0,
			"-0.012": 0.144735390031,
			"-0.011": 0.691417774431,
			"-0.01": 1.03073520972,
			"-0.009": 2.34463957182,
			"-0.008": 2.62797101308,
			"-0.007": 3.93193201315,
			"-0.006": 7.36883171043,
			"-0.005": 13.5388435118,
			"-0.004": 14.5065917652,
			"-0.003": 24.8497335817,
			"-0.002": 27.4010005774,
			"-0.001": 21.751367586,
			"0.0": 21.097708206,
			"0.001": 15.628432945,
			"0.002": 13.9509301206,
			"0.003": 14.3320156156,
			"0.004": 14.0585282881,
			"0.005": 14.2987501614,
			"0.006": 9.58786523977,
			"0.007": 3.96834259475,
			"0.008": 1.49565150288,
			"0.009": 1.13518115625,
			"0.01": 1.08913597657,
			"0.011": 0.629587620354,
			"0.012": 0.7701396228,
			"0.013": 0.737577112165,
			"0.014": 1.03946208003,
			"0.015": 0.427997152001,
			"0.016": 0.123810038251,
			"0.017": 0.440840452144,
			"0.018": 0.659387251897,
			"0.019": 0.444560111708,
			"0.02": 0.0,
			"0.021": 0.0,
			"0.022": 0.0,
			"0.023": 0.0,
			"0.024": 0.0,
			"0.025": 0.0
		}
	}
}
