{
	 "smiles": "CC(C)NC(=O)C1=C(N)C=CC=C1", 
	 "Tm": 422.15, 
	 "num_atms": 27, 
	 "gaussian": { 
		 "optdone": 1, 
		 "sigma_profile": "yes", 
		 "theory": "DFT", 
		 "functional": "B3LYP", 
		 "basiset": "6-31G**", 
		 "properties": { 
			 "R2extent": 3045.9022, 
			 "electric_dipole_moment_norm": 1.99843532795, 
			 "electric_quadrupole_moment_norm": 12.9158015202, 
			 "total_energy": -574.261960976, 
			 "HOMO_LUMO_gap": 0.1726, 
			 "cosmo_polarized_energy": -11.39, 
			 "cosmo_cavitation_energy": 29.57, 
			 "cosmo_dispersion_energy": -21.03, 
			 "cosmo_repulsion_energy": 1.68, 
			 "cosmo_total_nonelectrostatic_energy": 10.22, 
			 "SMD_solvation_energy": 5.19 
		},
		"coords": [
			{
				"x": -0.7904040381,
				"y": 2.3992996238,
				"z": -2.4267484024,
				"element": "C" 
			},
			{
				"x": -1.4172615678,
				"y": 2.0835756864,
				"z": -1.0602951909,
				"element": "C" 
			},
			{
				"x": -2.8691687752,
				"y": 2.5678433638,
				"z": -0.9739390773,
				"element": "C" 
			},
			{
				"x": -0.6207830956,
				"y": 2.6817228572,
				"z": 0.0239358371,
				"element": "N" 
			},
			{
				"x": 0.3870655774,
				"y": 2.0963765419,
				"z": 0.7595440401,
				"element": "C" 
			},
			{
				"x": 1.3312350471,
				"y": 2.7940753438,
				"z": 1.1536116611,
				"element": "O" 
			},
			{
				"x": 0.2782043927,
				"y": 0.6496039415,
				"z": 1.1115331338,
				"element": "C" 
			},
			{
				"x": 1.4619988712,
				"y": -0.1235063577,
				"z": 1.280004425,
				"element": "C" 
			},
			{
				"x": 2.709677966,
				"y": 0.4189238499,
				"z": 1.0575366615,
				"element": "N" 
			},
			{
				"x": 1.3269374825,
				"y": -1.4838849636,
				"z": 1.6279648318,
				"element": "C" 
			},
			{
				"x": 0.0798731879,
				"y": -2.0495204015,
				"z": 1.8540814791,
				"element": "C" 
			},
			{
				"x": -1.0832130293,
				"y": -1.2789669379,
				"z": 1.7447901699,
				"element": "C" 
			},
			{
				"x": -0.9676440648,
				"y": 0.056198294,
				"z": 1.3742613065,
				"element": "C" 
			},
			{
				"x": 0.2354765408,
				"y": 2.0236456335,
				"z": -2.4819390423,
				"element": "H" 
			},
			{
				"x": -0.7675814947,
				"y": 3.4809799903,
				"z": -2.6067961355,
				"element": "H" 
			},
			{
				"x": -1.3696053397,
				"y": 1.9396190052,
				"z": -3.2344695964,
				"element": "H" 
			},
			{
				"x": -1.3938006645,
				"y": 1.0022800133,
				"z": -0.9135140357,
				"element": "H" 
			},
			{
				"x": -3.4761871426,
				"y": 2.1166958549,
				"z": -1.7653611448,
				"element": "H" 
			},
			{
				"x": -2.9243281738,
				"y": 3.656693682,
				"z": -1.0902526218,
				"element": "H" 
			},
			{
				"x": -3.3129682588,
				"y": 2.3116608124,
				"z": -0.0075778626,
				"element": "H" 
			},
			{
				"x": -0.4184756213,
				"y": 3.6688297901,
				"z": -0.1032528349,
				"element": "H" 
			},
			{
				"x": 3.4898283617,
				"y": -0.0987781936,
				"z": 1.4335248934,
				"element": "H" 
			},
			{
				"x": 2.7495544656,
				"y": 1.4255535639,
				"z": 1.1766518912,
				"element": "H" 
			},
			{
				"x": 2.2259119619,
				"y": -2.0862360744,
				"z": 1.7348273055,
				"element": "H" 
			},
			{
				"x": 0.0146120576,
				"y": -3.0972854697,
				"z": 2.1349965773,
				"element": "H" 
			},
			{
				"x": -2.0569162671,
				"y": -1.7106502101,
				"z": 1.9519286904,
				"element": "H" 
			},
			{
				"x": -1.8584383792,
				"y": 0.6737507608,
				"z": 1.3143530409,
				"element": "H" 
			}
		],
		 "valence_orbital": [ 
			{
				"type": "occ",
				"energy": -0.30587,
				"method": "rhf"
			},
			{
				"type": "occ",
				"energy": -0.25904,
				"method": "rhf"
			},
			{
				"type": "occ",
				"energy": -0.24778,
				"method": "rhf"
			},
			{
				"type": "occ",
				"energy": -0.23859,
				"method": "rhf"
			},
			{
				"type": "occ",
				"energy": -0.1988,
				"method": "rhf"
			},
			{
				"type": "unocc",
				"energy": -0.0262,
				"method": "rhf"
			},
			{
				"type": "unocc",
				"energy": 0.01437,
				"method": "rhf"
			},
			{
				"type": "unocc",
				"energy": 0.05644,
				"method": "rhf"
			},
			{
				"type": "unocc",
				"energy": 0.07663,
				"method": "rhf"
			},
			{
				"type": "unocc",
				"energy": 0.09965,
				"method": "rhf"
			}
		],
		"cosmo_sigma_profile": { 
			"-0.025": 0.0,
			"-0.024": 0.0,
			"-0.023": 0.0,
			"-0.022": 0.0,
			"-0.021": 0.0,
			"-0.02": 0.0,
			"-0.019": 0.0,
			"-0.018": 0.0,
			"-0.017": 0.0,
			"-0.016": 0.0,
			"-0.015": 0.0,
			"-0.014": 0.0,
			"-0.013": 0.345589321824,
			"-0.012": 1.96440395153,
			"-0.011": 2.14000807901,
			"-0.01": 2.83396524043,
			"-0.009": 2.35847244055,
			"-0.008": 2.42556517913,
			"-0.007": 3.89510142853,
			"-0.006": 5.88522154164,
			"-0.005": 10.7456225027,
			"-0.004": 17.5792964767,
			"-0.003": 27.1044315269,
			"-0.002": 21.7820698347,
			"-0.001": 20.0328998196,
			"0.0": 22.6983178489,
			"0.001": 17.0215726715,
			"0.002": 9.23700544502,
			"0.003": 11.2027207468,
			"0.004": 12.5567615675,
			"0.005": 10.9792717721,
			"0.006": 9.23313554168,
			"0.007": 3.21675197731,
			"0.008": 2.12679289579,
			"0.009": 2.6315724582,
			"0.01": 2.05895965743,
			"0.011": 1.89266331364,
			"0.012": 2.61556682518,
			"0.013": 3.60186771963,
			"0.014": 2.33240539933,
			"0.015": 0.146358475645,
			"0.016": 0.0,
			"0.017": 0.0,
			"0.018": 0.0,
			"0.019": 0.0,
			"0.02": 0.0,
			"0.021": 0.0,
			"0.022": 0.0,
			"0.023": 0.0,
			"0.024": 0.0,
			"0.025": 0.0
		}
	}
}
