{
	 "smiles": "[O-][N+](=O)C1=C(C=CC(=C1)C(F)(F)F)N1CCNCC1", 
	 "Tm": 338.65, 
	 "num_atms": 31, 
	 "gaussian": { 
		 "optdone": 1, 
		 "sigma_profile": "yes", 
		 "theory": "DFT", 
		 "functional": "B3LYP", 
		 "basiset": "6-31G**", 
		 "properties": { 
			 "R2extent": 8849.345, 
			 "electric_dipole_moment_norm": 4.67365882687, 
			 "electric_quadrupole_moment_norm": 18.2962093066, 
			 "total_energy": -1040.51009388, 
			 "HOMO_LUMO_gap": 0.1313, 
			 "cosmo_polarized_energy": -13.07, 
			 "cosmo_cavitation_energy": 35.11, 
			 "cosmo_dispersion_energy": -24.77, 
			 "cosmo_repulsion_energy": 1.82, 
			 "cosmo_total_nonelectrostatic_energy": 12.16, 
			 "SMD_solvation_energy": 6.0 
		},
		"coords": [
			{
				"x": 2.0051793455,
				"y": -2.2894696418,
				"z": 3.2810146015,
				"element": "O" 
			},
			{
				"x": 1.4446320095,
				"y": -1.2045867877,
				"z": 3.1137968444,
				"element": "N" 
			},
			{
				"x": 0.4723412811,
				"y": -0.816156201,
				"z": 3.7668064253,
				"element": "O" 
			},
			{
				"x": 2.016720681,
				"y": -0.2842480166,
				"z": 2.1275831401,
				"element": "C" 
			},
			{
				"x": 1.2276195878,
				"y": 0.6692643762,
				"z": 1.4311460449,
				"element": "C" 
			},
			{
				"x": 1.9542199314,
				"y": 1.6769910182,
				"z": 0.7429174597,
				"element": "C" 
			},
			{
				"x": 3.3345581078,
				"y": 1.6856538826,
				"z": 0.6960251524,
				"element": "C" 
			},
			{
				"x": 4.0801640146,
				"y": 0.6716084154,
				"z": 1.3210660647,
				"element": "C" 
			},
			{
				"x": 3.4119325002,
				"y": -0.31112239,
				"z": 2.0316384655,
				"element": "C" 
			},
			{
				"x": 5.5751370594,
				"y": 0.6569549342,
				"z": 1.1905461314,
				"element": "C" 
			},
			{
				"x": 6.0985639468,
				"y": 1.8918855593,
				"z": 1.3737223593,
				"element": "F" 
			},
			{
				"x": 6.15636838,
				"y": -0.1710918864,
				"z": 2.0830334502,
				"element": "F" 
			},
			{
				"x": 5.9663545918,
				"y": 0.2545021047,
				"z": -0.042116812,
				"element": "F" 
			},
			{
				"x": -0.1469670556,
				"y": 0.6199134704,
				"z": 1.3201517969,
				"element": "N" 
			},
			{
				"x": -0.9731575556,
				"y": 1.8298636622,
				"z": 1.3898002272,
				"element": "C" 
			},
			{
				"x": -2.0594862017,
				"y": 1.8171920601,
				"z": 0.3043549779,
				"element": "C" 
			},
			{
				"x": -2.8564231841,
				"y": 0.5902720128,
				"z": 0.3014837991,
				"element": "N" 
			},
			{
				"x": -1.9989907679,
				"y": -0.5945505295,
				"z": 0.2681499475,
				"element": "C" 
			},
			{
				"x": -0.9178677246,
				"y": -0.6218902879,
				"z": 1.3654839586,
				"element": "C" 
			},
			{
				"x": 1.4049065544,
				"y": 2.425747638,
				"z": 0.1838338803,
				"element": "H" 
			},
			{
				"x": 3.8463074295,
				"y": 2.4672706598,
				"z": 0.1436479712,
				"element": "H" 
			},
			{
				"x": 3.9507395902,
				"y": -1.0848605556,
				"z": 2.5632019643,
				"element": "H" 
			},
			{
				"x": -0.3419698883,
				"y": 2.7162378608,
				"z": 1.3067001706,
				"element": "H" 
			},
			{
				"x": -1.4508420614,
				"y": 1.8670657163,
				"z": 2.383455766,
				"element": "H" 
			},
			{
				"x": -1.5852976295,
				"y": 1.9157491312,
				"z": -0.6810048391,
				"element": "H" 
			},
			{
				"x": -2.725153934,
				"y": 2.6770088964,
				"z": 0.4370174892,
				"element": "H" 
			},
			{
				"x": -3.4389951417,
				"y": 0.5634439039,
				"z": 1.1367578777,
				"element": "H" 
			},
			{
				"x": -1.5106597184,
				"y": -0.6297520577,
				"z": -0.7141876542,
				"element": "H" 
			},
			{
				"x": -2.6238856551,
				"y": -1.4897736757,
				"z": 0.3565112676,
				"element": "H" 
			},
			{
				"x": -1.3776698183,
				"y": -0.7614019287,
				"z": 2.3541877066,
				"element": "H" 
			},
			{
				"x": -0.2460786749,
				"y": -1.4672213438,
				"z": 1.1931743652,
				"element": "H" 
			}
		],
		 "valence_orbital": [ 
			{
				"type": "occ",
				"energy": -0.30385,
				"method": "rhf"
			},
			{
				"type": "occ",
				"energy": -0.29845,
				"method": "rhf"
			},
			{
				"type": "occ",
				"energy": -0.27689,
				"method": "rhf"
			},
			{
				"type": "occ",
				"energy": -0.24733,
				"method": "rhf"
			},
			{
				"type": "occ",
				"energy": -0.21623,
				"method": "rhf"
			},
			{
				"type": "unocc",
				"energy": -0.08493,
				"method": "rhf"
			},
			{
				"type": "unocc",
				"energy": -0.0339,
				"method": "rhf"
			},
			{
				"type": "unocc",
				"energy": -0.01681,
				"method": "rhf"
			},
			{
				"type": "unocc",
				"energy": 0.06788,
				"method": "rhf"
			},
			{
				"type": "unocc",
				"energy": 0.07417,
				"method": "rhf"
			}
		],
		"cosmo_sigma_profile": { 
			"-0.025": 0.0,
			"-0.024": 0.0,
			"-0.023": 0.0,
			"-0.022": 0.0,
			"-0.021": 0.0,
			"-0.02": 0.0,
			"-0.019": 0.0,
			"-0.018": 0.0,
			"-0.017": 0.0,
			"-0.016": 0.0,
			"-0.015": 0.0,
			"-0.014": 0.0,
			"-0.013": 0.0,
			"-0.012": 0.0,
			"-0.011": 0.03397505399,
			"-0.01": 1.15477633976,
			"-0.009": 2.30791474785,
			"-0.008": 5.27740464543,
			"-0.007": 9.07302493113,
			"-0.006": 12.4347380394,
			"-0.005": 17.1359110255,
			"-0.004": 25.2934081264,
			"-0.003": 25.3498883899,
			"-0.002": 18.3086151434,
			"-0.001": 17.0784949442,
			"0.0": 19.9405727793,
			"0.001": 21.3464384148,
			"0.002": 27.1137060137,
			"0.003": 31.120498071,
			"0.004": 6.25689908637,
			"0.005": 3.0363483231,
			"0.006": 4.52352569435,
			"0.007": 5.73421160156,
			"0.008": 10.3327804287,
			"0.009": 6.06984197933,
			"0.01": 3.52950849576,
			"0.011": 1.82126691047,
			"0.012": 0.64036468384,
			"0.013": 0.923383246062,
			"0.014": 0.170221756318,
			"0.015": 0.387346503508,
			"0.016": 0.698493609359,
			"0.017": 0.690526640836,
			"0.018": 0.312716202879,
			"0.019": 0.0,
			"0.02": 0.0,
			"0.021": 0.0,
			"0.022": 0.0,
			"0.023": 0.0,
			"0.024": 0.0,
			"0.025": 0.0
		}
	}
}
