{
	 "smiles": "CC1=CC(O)=C(C=O)C=C1", 
	 "Tm": 333.65, 
	 "num_atms": 18, 
	 "gaussian": { 
		 "optdone": 1, 
		 "sigma_profile": "yes", 
		 "theory": "DFT", 
		 "functional": "B3LYP", 
		 "basiset": "6-31G**", 
		 "properties": { 
			 "R2extent": 1595.3285, 
			 "electric_dipole_moment_norm": 5.18279899186, 
			 "electric_quadrupole_moment_norm": 8.34481051433, 
			 "total_energy": -460.11512657, 
			 "HOMO_LUMO_gap": 0.18029, 
			 "cosmo_polarized_energy": -12.36, 
			 "cosmo_cavitation_energy": 22.27, 
			 "cosmo_dispersion_energy": -16.38, 
			 "cosmo_repulsion_energy": 1.32, 
			 "cosmo_total_nonelectrostatic_energy": 7.21, 
			 "SMD_solvation_energy": 5.36 
		},
		"coords": [
			{
				"x": -0.3240706587,
				"y": 3.5162906927,
				"z": 0.6071766239,
				"element": "C" 
			},
			{
				"x": -0.2928512487,
				"y": 2.0178762321,
				"z": 0.4297210351,
				"element": "C" 
			},
			{
				"x": 0.8200347906,
				"y": 1.2744903441,
				"z": 0.828218164,
				"element": "C" 
			},
			{
				"x": 0.8576337607,
				"y": -0.1150161348,
				"z": 0.66059754,
				"element": "C" 
			},
			{
				"x": 1.9369611187,
				"y": -0.85404513,
				"z": 1.0447898294,
				"element": "O" 
			},
			{
				"x": -0.2362915802,
				"y": -0.7873024615,
				"z": 0.0832325899,
				"element": "C" 
			},
			{
				"x": -0.2382714916,
				"y": -2.2515253096,
				"z": -0.1110099498,
				"element": "C" 
			},
			{
				"x": -1.1689044129,
				"y": -2.8654933906,
				"z": -0.6075487462,
				"element": "O" 
			},
			{
				"x": -1.3508614302,
				"y": -0.0295191996,
				"z": -0.3134965363,
				"element": "C" 
			},
			{
				"x": -1.386655344,
				"y": 1.3456120898,
				"z": -0.146870614,
				"element": "C" 
			},
			{
				"x": -0.3854250331,
				"y": 4.0245537111,
				"z": -0.3621000341,
				"element": "H" 
			},
			{
				"x": 0.5675843903,
				"y": 3.883022667,
				"z": 1.122309242,
				"element": "H" 
			},
			{
				"x": -1.2010909849,
				"y": 3.8256331937,
				"z": 1.1864036172,
				"element": "H" 
			},
			{
				"x": 1.6736357421,
				"y": 1.78037748,
				"z": 1.2768367757,
				"element": "H" 
			},
			{
				"x": 2.606650352,
				"y": -0.2688230096,
				"z": 1.4218561083,
				"element": "H" 
			},
			{
				"x": 0.6738820956,
				"y": -2.7791709191,
				"z": 0.2264482164,
				"element": "H" 
			},
			{
				"x": -2.1834998205,
				"y": -0.5678307986,
				"z": -0.7556678045,
				"element": "H" 
			},
			{
				"x": -2.2594602452,
				"y": 1.9115699428,
				"z": -0.4602960569,
				"element": "H" 
			}
		],
		 "valence_orbital": [ 
			{
				"type": "occ",
				"energy": -0.35268,
				"method": "rhf"
			},
			{
				"type": "occ",
				"energy": -0.33336,
				"method": "rhf"
			},
			{
				"type": "occ",
				"energy": -0.25618,
				"method": "rhf"
			},
			{
				"type": "occ",
				"energy": -0.24163,
				"method": "rhf"
			},
			{
				"type": "occ",
				"energy": -0.23383,
				"method": "rhf"
			},
			{
				"type": "unocc",
				"energy": -0.05354,
				"method": "rhf"
			},
			{
				"type": "unocc",
				"energy": -0.00077,
				"method": "rhf"
			},
			{
				"type": "unocc",
				"energy": 0.04301,
				"method": "rhf"
			},
			{
				"type": "unocc",
				"energy": 0.05652,
				"method": "rhf"
			},
			{
				"type": "unocc",
				"energy": 0.09054,
				"method": "rhf"
			}
		],
		"cosmo_sigma_profile": { 
			"-0.025": 0.0,
			"-0.024": 0.0,
			"-0.023": 0.0,
			"-0.022": 0.0,
			"-0.021": 0.0,
			"-0.02": 0.0,
			"-0.019": 0.0832489808318,
			"-0.018": 1.16863606038,
			"-0.017": 1.00759521852,
			"-0.016": 1.04396821646,
			"-0.015": 1.05107845102,
			"-0.014": 1.08368548052,
			"-0.013": 0.978547887072,
			"-0.012": 1.09266064529,
			"-0.011": 0.924607750788,
			"-0.01": 1.21719643391,
			"-0.009": 0.854065807167,
			"-0.008": 1.07843336294,
			"-0.007": 1.7785876371,
			"-0.006": 3.72679054658,
			"-0.005": 10.226527941,
			"-0.004": 14.0801825634,
			"-0.003": 14.2152117448,
			"-0.002": 13.9791396664,
			"-0.001": 16.3035238475,
			"0.0": 13.1729759866,
			"0.001": 11.1966926542,
			"0.002": 12.5141013966,
			"0.003": 13.0469630585,
			"0.004": 12.3412651112,
			"0.005": 4.7881759144,
			"0.006": 2.98737294301,
			"0.007": 2.97988441362,
			"0.008": 3.47996934263,
			"0.009": 2.85724368093,
			"0.01": 2.06313460967,
			"0.011": 3.23371917296,
			"0.012": 4.52008016185,
			"0.013": 1.79022279831,
			"0.014": 0.307951718835,
			"0.015": 0.0,
			"0.016": 0.0,
			"0.017": 0.0,
			"0.018": 0.0,
			"0.019": 0.0,
			"0.02": 0.0,
			"0.021": 0.0,
			"0.022": 0.0,
			"0.023": 0.0,
			"0.024": 0.0,
			"0.025": 0.0
		}
	}
}
