{
	 "smiles": "CC1CCCCC1(NC(=O)OC(C)(C)C)C(O)=O", 
	 "Tm": 448.15, 
	 "num_atms": 41, 
	 "gaussian": { 
		 "optdone": 1, 
		 "sigma_profile": "yes", 
		 "theory": "DFT", 
		 "functional": "B3LYP", 
		 "basiset": "6-31G**", 
		 "properties": { 
			 "R2extent": 5552.0913, 
			 "electric_dipole_moment_norm": 1.95073596624, 
			 "electric_quadrupole_moment_norm": 7.08926685843, 
			 "total_energy": -864.949190413, 
			 "HOMO_LUMO_gap": 0.24508, 
			 "cosmo_polarized_energy": -13.66, 
			 "cosmo_cavitation_energy": 39.43, 
			 "cosmo_dispersion_energy": -27.17, 
			 "cosmo_repulsion_energy": 2.12, 
			 "cosmo_total_nonelectrostatic_energy": 14.38, 
			 "SMD_solvation_energy": 8.21 
		},
		"coords": [
			{
				"x": 2.6396849621,
				"y": -1.3940428543,
				"z": 2.7873572738,
				"element": "C" 
			},
			{
				"x": 1.83393685,
				"y": -1.1973531957,
				"z": 1.4896110627,
				"element": "C" 
			},
			{
				"x": 0.779109122,
				"y": -2.3225587185,
				"z": 1.2739897703,
				"element": "C" 
			},
			{
				"x": -0.6559140022,
				"y": -1.9682718408,
				"z": 1.7273268539,
				"element": "C" 
			},
			{
				"x": -0.6570536374,
				"y": -0.9710203302,
				"z": 2.8920244387,
				"element": "C" 
			},
			{
				"x": 0.0891422219,
				"y": 0.3420417121,
				"z": 2.5560956977,
				"element": "C" 
			},
			{
				"x": 1.140450192,
				"y": 0.2041023545,
				"z": 1.4204913456,
				"element": "C" 
			},
			{
				"x": 0.437641343,
				"y": 0.3897356762,
				"z": 0.1414367724,
				"element": "N" 
			},
			{
				"x": 0.885040379,
				"y": 0.0945326671,
				"z": -1.1238936209,
				"element": "C" 
			},
			{
				"x": 1.8209656197,
				"y": -0.6310423304,
				"z": -1.4140667221,
				"element": "O" 
			},
			{
				"x": 0.0659610796,
				"y": 0.7223690117,
				"z": -2.0099909485,
				"element": "O" 
			},
			{
				"x": 0.2359440753,
				"y": 0.5395933382,
				"z": -3.4586826775,
				"element": "C" 
			},
			{
				"x": 1.6042542303,
				"y": 1.0725891035,
				"z": -3.8977600373,
				"element": "C" 
			},
			{
				"x": -0.891621427,
				"y": 1.4000633859,
				"z": -4.0358506609,
				"element": "C" 
			},
			{
				"x": 0.0388721261,
				"y": -0.933650603,
				"z": -3.8327388693,
				"element": "C" 
			},
			{
				"x": 2.2067972777,
				"y": 1.3092328727,
				"z": 1.6024838943,
				"element": "C" 
			},
			{
				"x": 2.8094406175,
				"y": 1.650421008,
				"z": 0.4435118869,
				"element": "O" 
			},
			{
				"x": 2.5141447316,
				"y": 1.8176667779,
				"z": 2.6606263757,
				"element": "O" 
			},
			{
				"x": 2.0131135585,
				"y": -1.3857525157,
				"z": 3.6839369678,
				"element": "H" 
			},
			{
				"x": 3.1421715454,
				"y": -2.3657878046,
				"z": 2.7482427465,
				"element": "H" 
			},
			{
				"x": 3.4091493021,
				"y": -0.6288904964,
				"z": 2.9195669626,
				"element": "H" 
			},
			{
				"x": 2.5361291772,
				"y": -1.239848191,
				"z": 0.6559559103,
				"element": "H" 
			},
			{
				"x": 1.1254808044,
				"y": -3.2096272681,
				"z": 1.8174626265,
				"element": "H" 
			},
			{
				"x": 0.7682366459,
				"y": -2.5932787957,
				"z": 0.214362825,
				"element": "H" 
			},
			{
				"x": -1.1894258241,
				"y": -2.8802717825,
				"z": 2.018544691,
				"element": "H" 
			},
			{
				"x": -1.2122116053,
				"y": -1.5385467486,
				"z": 0.8878531636,
				"element": "H" 
			},
			{
				"x": -0.1908366962,
				"y": -1.4437950115,
				"z": 3.7644617213,
				"element": "H" 
			},
			{
				"x": -1.6847284787,
				"y": -0.7376958031,
				"z": 3.191813118,
				"element": "H" 
			},
			{
				"x": 0.6007952601,
				"y": 0.7267743148,
				"z": 3.4395935405,
				"element": "H" 
			},
			{
				"x": -0.6256451901,
				"y": 1.1223689891,
				"z": 2.2628750474,
				"element": "H" 
			},
			{
				"x": -0.3053783093,
				"y": 1.0743656633,
				"z": 0.1542162831,
				"element": "H" 
			},
			{
				"x": 1.7252783444,
				"y": 2.1127003453,
				"z": -3.5788452648,
				"element": "H" 
			},
			{
				"x": 2.4106992745,
				"y": 0.4766268015,
				"z": -3.4703579976,
				"element": "H" 
			},
			{
				"x": 1.6784659504,
				"y": 1.0405454624,
				"z": -4.9897598873,
				"element": "H" 
			},
			{
				"x": -0.8770052977,
				"y": 1.3553681658,
				"z": -5.1289116979,
				"element": "H" 
			},
			{
				"x": -1.8659717372,
				"y": 1.0449784962,
				"z": -3.6874888995,
				"element": "H" 
			},
			{
				"x": -0.7756083288,
				"y": 2.444036162,
				"z": -3.7302289632,
				"element": "H" 
			},
			{
				"x": -0.9282969215,
				"y": -1.2922996102,
				"z": -3.4660709456,
				"element": "H" 
			},
			{
				"x": 0.049225606,
				"y": -1.0407798922,
				"z": -4.9223579323,
				"element": "H" 
			},
			{
				"x": 0.8298437841,
				"y": -1.5535995259,
				"z": -3.4103773887,
				"element": "H" 
			},
			{
				"x": 3.4795233747,
				"y": 2.3148010104,
				"z": 0.6765415379,
				"element": "H" 
			}
		],
		 "valence_orbital": [ 
			{
				"type": "occ",
				"energy": -0.29772,
				"method": "rhf"
			},
			{
				"type": "occ",
				"energy": -0.29279,
				"method": "rhf"
			},
			{
				"type": "occ",
				"energy": -0.28408,
				"method": "rhf"
			},
			{
				"type": "occ",
				"energy": -0.2579,
				"method": "rhf"
			},
			{
				"type": "occ",
				"energy": -0.24352,
				"method": "rhf"
			},
			{
				"type": "unocc",
				"energy": 0.00156,
				"method": "rhf"
			},
			{
				"type": "unocc",
				"energy": 0.05388,
				"method": "rhf"
			},
			{
				"type": "unocc",
				"energy": 0.06843,
				"method": "rhf"
			},
			{
				"type": "unocc",
				"energy": 0.08433,
				"method": "rhf"
			},
			{
				"type": "unocc",
				"energy": 0.08954,
				"method": "rhf"
			}
		],
		"cosmo_sigma_profile": { 
			"-0.025": 0.0,
			"-0.024": 0.0,
			"-0.023": 0.0,
			"-0.022": 0.0,
			"-0.021": 0.0,
			"-0.02": 0.0,
			"-0.019": 0.0,
			"-0.018": 0.964471112587,
			"-0.017": 0.736584923617,
			"-0.016": 0.622003198708,
			"-0.015": 0.86622615913,
			"-0.014": 1.41067696019,
			"-0.013": 1.10525280984,
			"-0.012": 1.88612415233,
			"-0.011": 2.39583491002,
			"-0.01": 1.69324308369,
			"-0.009": 1.25507704146,
			"-0.008": 1.9868505656,
			"-0.007": 2.01075061216,
			"-0.006": 2.12296772225,
			"-0.005": 2.81595830206,
			"-0.004": 13.9453696463,
			"-0.003": 28.4903091012,
			"-0.002": 37.9961989496,
			"-0.001": 41.0496156485,
			"0.0": 50.3664378728,
			"0.001": 40.4626160836,
			"0.002": 12.8140138873,
			"0.003": 6.74394481047,
			"0.004": 7.19717477225,
			"0.005": 7.21616640822,
			"0.006": 7.07486327158,
			"0.007": 5.4035301651,
			"0.008": 3.72546255753,
			"0.009": 3.88981536543,
			"0.01": 3.60798689531,
			"0.011": 5.59999596483,
			"0.012": 5.28574821683,
			"0.013": 1.84668262351,
			"0.014": 0.0259448819502,
			"0.015": 0.0,
			"0.016": 0.0,
			"0.017": 0.0,
			"0.018": 0.0,
			"0.019": 0.0,
			"0.02": 0.0,
			"0.021": 0.0,
			"0.022": 0.0,
			"0.023": 0.0,
			"0.024": 0.0,
			"0.025": 0.0
		}
	}
}
