{
	 "smiles": "CC1=CC(=CC=C1Br)C(Cl)=O", 
	 "Tm": 299.15, 
	 "num_atms": 17, 
	 "gaussian": { 
		 "optdone": 1, 
		 "sigma_profile": "yes", 
		 "theory": "DFT", 
		 "functional": "B3LYP", 
		 "basiset": "6-31G**", 
		 "properties": { 
			 "R2extent": 4503.6727, 
			 "electric_dipole_moment_norm": 2.99164871434, 
			 "electric_quadrupole_moment_norm": 9.40232729541, 
			 "total_energy": -3415.3039467, 
			 "HOMO_LUMO_gap": 0.18098, 
			 "cosmo_polarized_energy": -5.56, 
			 "cosmo_cavitation_energy": 25.53, 
			 "cosmo_dispersion_energy": -19.22, 
			 "cosmo_repulsion_energy": 1.53, 
			 "cosmo_total_nonelectrostatic_energy": 7.84, 
			 "SMD_solvation_energy": 3.95 
		},
		"coords": [
			{
				"x": 2.6819675835,
				"y": -2.0718948611,
				"z": 1.3719384305,
				"element": "C" 
			},
			{
				"x": 1.9100906676,
				"y": -1.1521896903,
				"z": 0.462661609,
				"element": "C" 
			},
			{
				"x": 0.5893636925,
				"y": -1.4384798503,
				"z": 0.1121377149,
				"element": "C" 
			},
			{
				"x": -0.1565638466,
				"y": -0.6006152825,
				"z": -0.7334932611,
				"element": "C" 
			},
			{
				"x": 0.429312688,
				"y": 0.5616448384,
				"z": -1.2488732629,
				"element": "C" 
			},
			{
				"x": 1.7436383304,
				"y": 0.8710335761,
				"z": -0.9159667964,
				"element": "C" 
			},
			{
				"x": 2.4641255345,
				"y": 0.0233672904,
				"z": -0.0742508561,
				"element": "C" 
			},
			{
				"x": 4.263820491,
				"y": 0.5038939193,
				"z": 0.3447324226,
				"element": "Br" 
			},
			{
				"x": -1.5452892493,
				"y": -1.029482301,
				"z": -1.0191873291,
				"element": "C" 
			},
			{
				"x": -2.4921535757,
				"y": 0.0831630386,
				"z": -2.1235726171,
				"element": "Cl" 
			},
			{
				"x": -2.0793350622,
				"y": -2.0120005668,
				"z": -0.5994313619,
				"element": "O" 
			},
			{
				"x": 2.0666172246,
				"y": -2.9224239505,
				"z": 1.6733541563,
				"element": "H" 
			},
			{
				"x": 3.581409742,
				"y": -2.4535390475,
				"z": 0.8775326824,
				"element": "H" 
			},
			{
				"x": 3.0144679116,
				"y": -1.5483590231,
				"z": 2.2744027342,
				"element": "H" 
			},
			{
				"x": 0.1152053058,
				"y": -2.3339627707,
				"z": 0.4999416134,
				"element": "H" 
			},
			{
				"x": -0.1337739507,
				"y": 1.2166997021,
				"z": -1.9018960028,
				"element": "H" 
			},
			{
				"x": 2.212296513,
				"y": 1.7667449787,
				"z": -1.3062298758,
				"element": "H" 
			}
		],
		 "valence_orbital": [ 
			{
				"type": "occ",
				"energy": -0.32238,
				"method": "rhf"
			},
			{
				"type": "occ",
				"energy": -0.30461,
				"method": "rhf"
			},
			{
				"type": "occ",
				"energy": -0.29597,
				"method": "rhf"
			},
			{
				"type": "occ",
				"energy": -0.27783,
				"method": "rhf"
			},
			{
				"type": "occ",
				"energy": -0.26457,
				"method": "rhf"
			},
			{
				"type": "unocc",
				"energy": -0.08359,
				"method": "rhf"
			},
			{
				"type": "unocc",
				"energy": -0.03053,
				"method": "rhf"
			},
			{
				"type": "unocc",
				"energy": -0.00741,
				"method": "rhf"
			},
			{
				"type": "unocc",
				"energy": 0.01584,
				"method": "rhf"
			},
			{
				"type": "unocc",
				"energy": 0.01623,
				"method": "rhf"
			}
		],
		"cosmo_sigma_profile": { 
			"-0.025": 0.0,
			"-0.024": 0.0,
			"-0.023": 0.0,
			"-0.022": 0.0,
			"-0.021": 0.0,
			"-0.02": 0.0,
			"-0.019": 0.0,
			"-0.018": 0.0,
			"-0.017": 0.0,
			"-0.016": 0.0,
			"-0.015": 0.0,
			"-0.014": 0.0,
			"-0.013": 0.0,
			"-0.012": 0.0,
			"-0.011": 0.0,
			"-0.01": 0.0,
			"-0.009": 0.00317303328739,
			"-0.008": 1.76689233896,
			"-0.007": 5.94705737747,
			"-0.006": 5.04391368814,
			"-0.005": 10.0891970668,
			"-0.004": 12.7324836759,
			"-0.003": 16.3760395562,
			"-0.002": 16.6448554943,
			"-0.001": 26.1522005251,
			"0.0": 24.1136814311,
			"0.001": 25.9666026265,
			"0.002": 15.5623497228,
			"0.003": 15.9436620607,
			"0.004": 14.9237369771,
			"0.005": 5.83516476659,
			"0.006": 3.33010264303,
			"0.007": 2.4712879922,
			"0.008": 4.14549300053,
			"0.009": 2.92163388768,
			"0.01": 0.351795517605,
			"0.011": 0.0,
			"0.012": 0.0,
			"0.013": 0.0,
			"0.014": 0.0,
			"0.015": 0.0,
			"0.016": 0.0,
			"0.017": 0.0,
			"0.018": 0.0,
			"0.019": 0.0,
			"0.02": 0.0,
			"0.021": 0.0,
			"0.022": 0.0,
			"0.023": 0.0,
			"0.024": 0.0,
			"0.025": 0.0
		}
	}
}
