{
	 "smiles": "COC1=C(C=CC=C1)C1OC(=O)CC1C(O)=O", 
	 "Tm": 397.15, 
	 "num_atms": 29, 
	 "gaussian": { 
		 "optdone": 1, 
		 "sigma_profile": "yes", 
		 "theory": "DFT", 
		 "functional": "B3LYP", 
		 "basiset": "6-31G**", 
		 "properties": { 
			 "R2extent": 3572.6848, 
			 "electric_dipole_moment_norm": 3.77360212397, 
			 "electric_quadrupole_moment_norm": 27.122507677, 
			 "total_energy": -840.63020637, 
			 "HOMO_LUMO_gap": 0.21827, 
			 "cosmo_polarized_energy": -20.75, 
			 "cosmo_cavitation_energy": 31.92, 
			 "cosmo_dispersion_energy": -22.3, 
			 "cosmo_repulsion_energy": 1.72, 
			 "cosmo_total_nonelectrostatic_energy": 11.34, 
			 "SMD_solvation_energy": 7.94 
		},
		"coords": [
			{
				"x": -1.2534669896,
				"y": 2.1627538783,
				"z": -0.3566943798,
				"element": "C" 
			},
			{
				"x": -0.5113361542,
				"y": 0.9412242494,
				"z": -0.2803425819,
				"element": "O" 
			},
			{
				"x": 0.77639681,
				"y": 0.912685434,
				"z": -0.7799663069,
				"element": "C" 
			},
			{
				"x": 1.5781205151,
				"y": -0.1611210645,
				"z": -0.3473149458,
				"element": "C" 
			},
			{
				"x": 2.8635307649,
				"y": -0.2728191549,
				"z": -0.8836195309,
				"element": "C" 
			},
			{
				"x": 3.3527975057,
				"y": 0.644752438,
				"z": -1.8147569266,
				"element": "C" 
			},
			{
				"x": 2.5502179849,
				"y": 1.7121474147,
				"z": -2.206775759,
				"element": "C" 
			},
			{
				"x": 1.2586101415,
				"y": 1.850574723,
				"z": -1.6920788897,
				"element": "C" 
			},
			{
				"x": 1.1448955206,
				"y": -1.1362713439,
				"z": 0.7307128982,
				"element": "C" 
			},
			{
				"x": 0.803649762,
				"y": -0.4144973409,
				"z": 1.9348687759,
				"element": "O" 
			},
			{
				"x": -0.503141664,
				"y": -0.5601161639,
				"z": 2.2917638122,
				"element": "C" 
			},
			{
				"x": -0.9845678434,
				"y": 0.0313221814,
				"z": 3.2217372033,
				"element": "O" 
			},
			{
				"x": -1.1883281156,
				"y": -1.5510973994,
				"z": 1.3607921943,
				"element": "C" 
			},
			{
				"x": -0.0659456254,
				"y": -2.1170420898,
				"z": 0.4790655558,
				"element": "C" 
			},
			{
				"x": -0.4246925204,
				"y": -2.3911939822,
				"z": -0.9852262122,
				"element": "C" 
			},
			{
				"x": -1.0933217479,
				"y": -1.4259561196,
				"z": -1.6502613324,
				"element": "O" 
			},
			{
				"x": -0.1511024575,
				"y": -3.4372808145,
				"z": -1.5230532733,
				"element": "O" 
			},
			{
				"x": -2.1436391566,
				"y": 2.0094589157,
				"z": 0.2540293729,
				"element": "H" 
			},
			{
				"x": -1.5495281855,
				"y": 2.3875428714,
				"z": -1.3872747026,
				"element": "H" 
			},
			{
				"x": -0.6680152421,
				"y": 2.9918463576,
				"z": 0.0518918036,
				"element": "H" 
			},
			{
				"x": 3.497762661,
				"y": -1.0906827035,
				"z": -0.5520133482,
				"element": "H" 
			},
			{
				"x": 4.3551059312,
				"y": 0.5324596591,
				"z": -2.2147909906,
				"element": "H" 
			},
			{
				"x": 2.9185789559,
				"y": 2.4429925652,
				"z": -2.9202919765,
				"element": "H" 
			},
			{
				"x": 0.6361625188,
				"y": 2.6762901788,
				"z": -2.0155796615,
				"element": "H" 
			},
			{
				"x": 2.0210309574,
				"y": -1.7412199742,
				"z": 0.9754402781,
				"element": "H" 
			},
			{
				"x": -1.9644867727,
				"y": -1.020251656,
				"z": 0.8039974421,
				"element": "H" 
			},
			{
				"x": -1.6910221256,
				"y": -2.3177427576,
				"z": 1.9546559263,
				"element": "H" 
			},
			{
				"x": 0.2376022654,
				"y": -3.0920253438,
				"z": 0.862971082,
				"element": "H" 
			},
			{
				"x": -1.1266676939,
				"y": -0.599332958,
				"z": -1.1316855271,
				"element": "H" 
			}
		],
		 "valence_orbital": [ 
			{
				"type": "occ",
				"energy": -0.30275,
				"method": "rhf"
			},
			{
				"type": "occ",
				"energy": -0.28059,
				"method": "rhf"
			},
			{
				"type": "occ",
				"energy": -0.2712,
				"method": "rhf"
			},
			{
				"type": "occ",
				"energy": -0.26164,
				"method": "rhf"
			},
			{
				"type": "occ",
				"energy": -0.24888,
				"method": "rhf"
			},
			{
				"type": "unocc",
				"energy": -0.03061,
				"method": "rhf"
			},
			{
				"type": "unocc",
				"energy": -0.01594,
				"method": "rhf"
			},
			{
				"type": "unocc",
				"energy": 0.00325,
				"method": "rhf"
			},
			{
				"type": "unocc",
				"energy": 0.01011,
				"method": "rhf"
			},
			{
				"type": "unocc",
				"energy": 0.05365,
				"method": "rhf"
			}
		],
		"cosmo_sigma_profile": { 
			"-0.025": 0.0,
			"-0.024": 0.0,
			"-0.023": 0.0,
			"-0.022": 0.0,
			"-0.021": 0.0,
			"-0.02": 0.0,
			"-0.019": 0.0,
			"-0.018": 0.0,
			"-0.017": 0.0,
			"-0.016": 0.0,
			"-0.015": 0.0,
			"-0.014": 0.0,
			"-0.013": 0.0,
			"-0.012": 0.0107313268961,
			"-0.011": 0.390464272253,
			"-0.01": 0.866537857518,
			"-0.009": 3.84775929717,
			"-0.008": 11.7646764013,
			"-0.007": 19.2106825094,
			"-0.006": 24.7175124937,
			"-0.005": 25.0748466501,
			"-0.004": 20.6157062887,
			"-0.003": 12.2506074369,
			"-0.002": 9.64369877748,
			"-0.001": 7.840821229,
			"0.0": 9.53958849559,
			"0.001": 10.4147807107,
			"0.002": 10.7116029124,
			"0.003": 12.5350634925,
			"0.004": 13.5679995637,
			"0.005": 6.26634652572,
			"0.006": 4.61100697815,
			"0.007": 5.13445188457,
			"0.008": 5.50329866211,
			"0.009": 6.4234852418,
			"0.01": 8.32275555528,
			"0.011": 11.2044462165,
			"0.012": 10.2391847825,
			"0.013": 3.00467864366,
			"0.014": 0.0586417194811,
			"0.015": 0.0,
			"0.016": 0.0,
			"0.017": 0.0,
			"0.018": 0.0,
			"0.019": 0.0,
			"0.02": 0.0,
			"0.021": 0.0,
			"0.022": 0.0,
			"0.023": 0.0,
			"0.024": 0.0,
			"0.025": 0.0
		}
	}
}
