{
	 "smiles": "OC(=O)CC1=C(C=CO1)C(O)=O", 
	 "Tm": 478.15, 
	 "num_atms": 18, 
	 "gaussian": { 
		 "optdone": 1, 
		 "sigma_profile": "yes", 
		 "theory": "DFT", 
		 "functional": "B3LYP", 
		 "basiset": "6-31G**", 
		 "properties": { 
			 "R2extent": 2068.4693, 
			 "electric_dipole_moment_norm": 3.31811209726, 
			 "electric_quadrupole_moment_norm": 18.9962360298, 
			 "total_energy": -646.478017626, 
			 "HOMO_LUMO_gap": 0.20639, 
			 "cosmo_polarized_energy": -18.07, 
			 "cosmo_cavitation_energy": 23.42, 
			 "cosmo_dispersion_energy": -17.06, 
			 "cosmo_repulsion_energy": 1.37, 
			 "cosmo_total_nonelectrostatic_energy": 7.72, 
			 "SMD_solvation_energy": 7.31 
		},
		"coords": [
			{
				"x": -2.3136985937,
				"y": 1.3197503206,
				"z": 0.7578033257,
				"element": "O" 
			},
			{
				"x": -2.3738745677,
				"y": 0.8771406556,
				"z": -0.5336029545,
				"element": "C" 
			},
			{
				"x": -3.4152511532,
				"y": 0.6956241981,
				"z": -1.1088295579,
				"element": "O" 
			},
			{
				"x": -0.9728947121,
				"y": 0.69264439,
				"z": -1.101441228,
				"element": "C" 
			},
			{
				"x": -0.1215524195,
				"y": -0.2614633211,
				"z": -0.323696665,
				"element": "C" 
			},
			{
				"x": 0.7824548463,
				"y": -0.1287635221,
				"z": 0.7031726365,
				"element": "C" 
			},
			{
				"x": 1.3206100079,
				"y": -1.4414170288,
				"z": 0.9360991718,
				"element": "C" 
			},
			{
				"x": 0.6940086652,
				"y": -2.2689274944,
				"z": 0.0642696429,
				"element": "C" 
			},
			{
				"x": -0.1845775257,
				"y": -1.5632859359,
				"z": -0.7147350099,
				"element": "O" 
			},
			{
				"x": 1.2370066784,
				"y": 1.0920887233,
				"z": 1.4162833474,
				"element": "C" 
			},
			{
				"x": 0.3633202962,
				"y": 2.1289614918,
				"z": 1.4740095899,
				"element": "O" 
			},
			{
				"x": 2.3370720871,
				"y": 1.1806863154,
				"z": 1.9111078427,
				"element": "O" 
			},
			{
				"x": -3.2246718824,
				"y": 1.4403000276,
				"z": 1.0744672988,
				"element": "H" 
			},
			{
				"x": -1.0809075454,
				"y": 0.3439623651,
				"z": -2.1295618179,
				"element": "H" 
			},
			{
				"x": -0.4904745889,
				"y": 1.6763907522,
				"z": -1.1127914412,
				"element": "H" 
			},
			{
				"x": 2.0730545448,
				"y": -1.6935844703,
				"z": 1.6678571637,
				"element": "H" 
			},
			{
				"x": 0.7495981673,
				"y": -3.3269232151,
				"z": -0.1376363767,
				"element": "H" 
			},
			{
				"x": -0.5493223047,
				"y": 1.8330157478,
				"z": 1.3077250316,
				"element": "H" 
			}
		],
		 "valence_orbital": [ 
			{
				"type": "occ",
				"energy": -0.31627,
				"method": "rhf"
			},
			{
				"type": "occ",
				"energy": -0.31361,
				"method": "rhf"
			},
			{
				"type": "occ",
				"energy": -0.2946,
				"method": "rhf"
			},
			{
				"type": "occ",
				"energy": -0.26875,
				"method": "rhf"
			},
			{
				"type": "occ",
				"energy": -0.24704,
				"method": "rhf"
			},
			{
				"type": "unocc",
				"energy": -0.04065,
				"method": "rhf"
			},
			{
				"type": "unocc",
				"energy": -0.01685,
				"method": "rhf"
			},
			{
				"type": "unocc",
				"energy": 0.01183,
				"method": "rhf"
			},
			{
				"type": "unocc",
				"energy": 0.04211,
				"method": "rhf"
			},
			{
				"type": "unocc",
				"energy": 0.09333,
				"method": "rhf"
			}
		],
		"cosmo_sigma_profile": { 
			"-0.025": 0.0,
			"-0.024": 0.0,
			"-0.023": 0.0,
			"-0.022": 0.0,
			"-0.021": 0.0,
			"-0.02": 0.326475673134,
			"-0.019": 0.987183459838,
			"-0.018": 1.0740465108,
			"-0.017": 0.73759911493,
			"-0.016": 1.31517231174,
			"-0.015": 0.544592195507,
			"-0.014": 0.127174696435,
			"-0.013": 0.541646659713,
			"-0.012": 1.25844392657,
			"-0.011": 0.563801051447,
			"-0.01": 2.09687498303,
			"-0.009": 5.23457849365,
			"-0.008": 8.74714877133,
			"-0.007": 8.96288282797,
			"-0.006": 9.30399334891,
			"-0.005": 12.5098310307,
			"-0.004": 11.2258722309,
			"-0.003": 8.83117819252,
			"-0.002": 9.65578221623,
			"-0.001": 9.51654068518,
			"0.0": 9.34287219037,
			"0.001": 10.6303664174,
			"0.002": 9.53223752603,
			"0.003": 9.23566589198,
			"0.004": 5.73643594958,
			"0.005": 4.86810872677,
			"0.006": 4.75167163364,
			"0.007": 4.39232003014,
			"0.008": 3.97680462577,
			"0.009": 5.81604746044,
			"0.01": 8.53403988103,
			"0.011": 9.08883285011,
			"0.012": 5.98845115998,
			"0.013": 2.02474200579,
			"0.014": 0.134002562452,
			"0.015": 0.0,
			"0.016": 0.0,
			"0.017": 0.0,
			"0.018": 0.0,
			"0.019": 0.0,
			"0.02": 0.0,
			"0.021": 0.0,
			"0.022": 0.0,
			"0.023": 0.0,
			"0.024": 0.0,
			"0.025": 0.0
		}
	}
}
