{
	 "smiles": "CC(C)C1CNC(=O)C1", 
	 "Tm": 372.15, 
	 "num_atms": 22, 
	 "gaussian": { 
		 "optdone": 1, 
		 "sigma_profile": "yes", 
		 "theory": "DFT", 
		 "functional": "B3LYP", 
		 "basiset": "6-31G**", 
		 "properties": { 
			 "R2extent": 1623.6252, 
			 "electric_dipole_moment_norm": 3.92734145574, 
			 "electric_quadrupole_moment_norm": 14.1911121534, 
			 "total_energy": -404.582166735, 
			 "HOMO_LUMO_gap": 0.27397, 
			 "cosmo_polarized_energy": -10.91, 
			 "cosmo_cavitation_energy": 23.05, 
			 "cosmo_dispersion_energy": -16.96, 
			 "cosmo_repulsion_energy": 1.41, 
			 "cosmo_total_nonelectrostatic_energy": 7.5, 
			 "SMD_solvation_energy": 4.07 
		},
		"coords": [
			{
				"x": -1.6196680676,
				"y": -0.4568623093,
				"z": -0.6068806488,
				"element": "C" 
			},
			{
				"x": -0.5098680365,
				"y": -0.889623428,
				"z": 0.3644694618,
				"element": "C" 
			},
			{
				"x": -0.5294480534,
				"y": -0.0301159062,
				"z": 1.6378781966,
				"element": "C" 
			},
			{
				"x": 0.9045189456,
				"y": -0.9204400313,
				"z": -0.2716288653,
				"element": "C" 
			},
			{
				"x": 1.0138255257,
				"y": -1.9400525956,
				"z": -1.4460840472,
				"element": "C" 
			},
			{
				"x": 0.9811448045,
				"y": -1.1037828344,
				"z": -2.6335800921,
				"element": "N" 
			},
			{
				"x": 1.2201625523,
				"y": 0.2291045928,
				"z": -2.4204429264,
				"element": "C" 
			},
			{
				"x": 1.316553588,
				"y": 1.0855116039,
				"z": -3.2825377705,
				"element": "O" 
			},
			{
				"x": 1.3572912794,
				"y": 0.4146562122,
				"z": -0.9073120463,
				"element": "C" 
			},
			{
				"x": -2.5986786197,
				"y": -0.5304077478,
				"z": -0.1216788087,
				"element": "H" 
			},
			{
				"x": -1.6467198937,
				"y": -1.0789231747,
				"z": -1.506507636,
				"element": "H" 
			},
			{
				"x": -1.4930279033,
				"y": 0.5828365889,
				"z": -0.9280990555,
				"element": "H" 
			},
			{
				"x": -0.723956472,
				"y": -1.9250974841,
				"z": 0.6693620387,
				"element": "H" 
			},
			{
				"x": -1.5066487755,
				"y": -0.0859703956,
				"z": 2.1288527333,
				"element": "H" 
			},
			{
				"x": -0.3363512289,
				"y": 1.0256236477,
				"z": 1.4164985662,
				"element": "H" 
			},
			{
				"x": 0.226595739,
				"y": -0.363213321,
				"z": 2.3576690514,
				"element": "H" 
			},
			{
				"x": 1.6006455888,
				"y": -1.2198870183,
				"z": 0.5189172449,
				"element": "H" 
			},
			{
				"x": 0.1833752036,
				"y": -2.6561772653,
				"z": -1.4404693648,
				"element": "H" 
			},
			{
				"x": 1.9475619722,
				"y": -2.5175540901,
				"z": -1.3866645439,
				"element": "H" 
			},
			{
				"x": 0.9695554972,
				"y": -1.4682013913,
				"z": -3.5752256225,
				"element": "H" 
			},
			{
				"x": 2.4093316743,
				"y": 0.6348619353,
				"z": -0.6934084456,
				"element": "H" 
			},
			{
				"x": 0.7822046798,
				"y": 1.2865144124,
				"z": -0.5874274195,
				"element": "H" 
			}
		],
		 "valence_orbital": [ 
			{
				"type": "occ",
				"energy": -0.33193,
				"method": "rhf"
			},
			{
				"type": "occ",
				"energy": -0.32416,
				"method": "rhf"
			},
			{
				"type": "occ",
				"energy": -0.31395,
				"method": "rhf"
			},
			{
				"type": "occ",
				"energy": -0.2464,
				"method": "rhf"
			},
			{
				"type": "occ",
				"energy": -0.23593,
				"method": "rhf"
			},
			{
				"type": "unocc",
				"energy": 0.03804,
				"method": "rhf"
			},
			{
				"type": "unocc",
				"energy": 0.06836,
				"method": "rhf"
			},
			{
				"type": "unocc",
				"energy": 0.1009,
				"method": "rhf"
			},
			{
				"type": "unocc",
				"energy": 0.10834,
				"method": "rhf"
			},
			{
				"type": "unocc",
				"energy": 0.11053,
				"method": "rhf"
			}
		],
		"cosmo_sigma_profile": { 
			"-0.025": 0.0,
			"-0.024": 0.0,
			"-0.023": 0.0,
			"-0.022": 0.0,
			"-0.021": 0.0,
			"-0.02": 0.0,
			"-0.019": 0.0,
			"-0.018": 0.0,
			"-0.017": 0.0,
			"-0.016": 0.0,
			"-0.015": 0.0,
			"-0.014": 0.575887336758,
			"-0.013": 1.18016250608,
			"-0.012": 1.291819164,
			"-0.011": 0.869760987071,
			"-0.01": 0.769433246262,
			"-0.009": 0.83679194397,
			"-0.008": 0.774358090588,
			"-0.007": 1.49109580608,
			"-0.006": 1.37088336946,
			"-0.005": 4.44870007851,
			"-0.004": 15.6776237199,
			"-0.003": 27.3308018118,
			"-0.002": 28.5497828559,
			"-0.001": 19.9390827551,
			"0.0": 16.8587166301,
			"0.001": 17.3605457897,
			"0.002": 10.5888762542,
			"0.003": 2.6050097072,
			"0.004": 2.08501496565,
			"0.005": 1.12865993667,
			"0.006": 1.66785676186,
			"0.007": 0.981745439579,
			"0.008": 0.948021977082,
			"0.009": 1.46681880525,
			"0.01": 1.300840806,
			"0.011": 1.20984438776,
			"0.012": 1.82919169646,
			"0.013": 2.1308946772,
			"0.014": 6.50205346228,
			"0.015": 3.96855207591,
			"0.016": 0.441662446549,
			"0.017": 0.0,
			"0.018": 0.0,
			"0.019": 0.0,
			"0.02": 0.0,
			"0.021": 0.0,
			"0.022": 0.0,
			"0.023": 0.0,
			"0.024": 0.0,
			"0.025": 0.0
		}
	}
}
