{
	 "smiles": "CC1=C(CCC(O)=O)C(=O)NC(=O)N1", 
	 "Tm": 580.15, 
	 "num_atms": 24, 
	 "gaussian": { 
		 "optdone": 1, 
		 "sigma_profile": "yes", 
		 "theory": "DFT", 
		 "functional": "B3LYP", 
		 "basiset": "6-31G**", 
		 "properties": { 
			 "R2extent": 3743.7132, 
			 "electric_dipole_moment_norm": 5.3613133335, 
			 "electric_quadrupole_moment_norm": 17.3794450564, 
			 "total_energy": -721.340786962, 
			 "HOMO_LUMO_gap": 0.2006, 
			 "cosmo_polarized_energy": -24.78, 
			 "cosmo_cavitation_energy": 28.39, 
			 "cosmo_dispersion_energy": -20.04, 
			 "cosmo_repulsion_energy": 1.6, 
			 "cosmo_total_nonelectrostatic_energy": 9.95, 
			 "SMD_solvation_energy": 7.28 
		},
		"coords": [
			{
				"x": 1.9285328876,
				"y": 0.1796371837,
				"z": 1.4159439312,
				"element": "C" 
			},
			{
				"x": 0.4727257925,
				"y": 0.3544920107,
				"z": 1.7476418882,
				"element": "C" 
			},
			{
				"x": -0.3352979184,
				"y": 1.3500056311,
				"z": 1.2900676452,
				"element": "C" 
			},
			{
				"x": 0.1026628575,
				"y": 2.4614830327,
				"z": 0.3674567816,
				"element": "C" 
			},
			{
				"x": 0.0367918874,
				"y": 2.1271461039,
				"z": -1.1481235747,
				"element": "C" 
			},
			{
				"x": -1.3797895476,
				"y": 1.9652197855,
				"z": -1.6585812832,
				"element": "C" 
			},
			{
				"x": -1.8681755202,
				"y": 0.7223882093,
				"z": -1.4157700186,
				"element": "O" 
			},
			{
				"x": -2.0239680674,
				"y": 2.8229312684,
				"z": -2.217606756,
				"element": "O" 
			},
			{
				"x": -1.7463675276,
				"y": 1.3631436637,
				"z": 1.6996770246,
				"element": "C" 
			},
			{
				"x": -2.5685332732,
				"y": 2.200177701,
				"z": 1.3512057374,
				"element": "O" 
			},
			{
				"x": -2.1292761418,
				"y": 0.3232773851,
				"z": 2.5604090253,
				"element": "N" 
			},
			{
				"x": -1.3405279928,
				"y": -0.7038684584,
				"z": 3.0437056922,
				"element": "C" 
			},
			{
				"x": -1.735873113,
				"y": -1.587221501,
				"z": 3.7834371698,
				"element": "O" 
			},
			{
				"x": -0.0290883929,
				"y": -0.6232957795,
				"z": 2.5938663959,
				"element": "N" 
			},
			{
				"x": 2.3064529146,
				"y": 0.9920899692,
				"z": 0.7976460711,
				"element": "H" 
			},
			{
				"x": 2.5294279742,
				"y": 0.1376656402,
				"z": 2.3320808232,
				"element": "H" 
			},
			{
				"x": 2.0865760769,
				"y": -0.7606078091,
				"z": 0.8744469744,
				"element": "H" 
			},
			{
				"x": -0.5380009782,
				"y": 3.326764933,
				"z": 0.5576535161,
				"element": "H" 
			},
			{
				"x": 1.1285585679,
				"y": 2.7662024487,
				"z": 0.5956119574,
				"element": "H" 
			},
			{
				"x": 0.4823969669,
				"y": 2.9499826419,
				"z": -1.7122589487,
				"element": "H" 
			},
			{
				"x": 0.6010403076,
				"y": 1.2116490012,
				"z": -1.3531352931,
				"element": "H" 
			},
			{
				"x": -2.7956121359,
				"y": 0.7404473499,
				"z": -1.7070255053,
				"element": "H" 
			},
			{
				"x": -3.0981431056,
				"y": 0.3173380843,
				"z": 2.8547595335,
				"element": "H" 
			},
			{
				"x": 0.5709874815,
				"y": -1.3632484955,
				"z": 2.9300912124,
				"element": "H" 
			}
		],
		 "valence_orbital": [ 
			{
				"type": "occ",
				"energy": -0.29224,
				"method": "rhf"
			},
			{
				"type": "occ",
				"energy": -0.28393,
				"method": "rhf"
			},
			{
				"type": "occ",
				"energy": -0.26852,
				"method": "rhf"
			},
			{
				"type": "occ",
				"energy": -0.2632,
				"method": "rhf"
			},
			{
				"type": "occ",
				"energy": -0.24029,
				"method": "rhf"
			},
			{
				"type": "unocc",
				"energy": -0.03969,
				"method": "rhf"
			},
			{
				"type": "unocc",
				"energy": 0.00992,
				"method": "rhf"
			},
			{
				"type": "unocc",
				"energy": 0.01346,
				"method": "rhf"
			},
			{
				"type": "unocc",
				"energy": 0.05879,
				"method": "rhf"
			},
			{
				"type": "unocc",
				"energy": 0.07984,
				"method": "rhf"
			}
		],
		"cosmo_sigma_profile": { 
			"-0.025": 0.0,
			"-0.024": 0.0,
			"-0.023": 0.0,
			"-0.022": 0.0,
			"-0.021": 0.0,
			"-0.02": 0.0,
			"-0.019": 0.0,
			"-0.018": 0.643685442026,
			"-0.017": 0.977110060589,
			"-0.016": 1.9522716667,
			"-0.015": 2.69266293567,
			"-0.014": 2.31644290491,
			"-0.013": 2.40457331349,
			"-0.012": 2.85912461543,
			"-0.011": 2.22252506671,
			"-0.01": 2.26263385445,
			"-0.009": 2.26708341334,
			"-0.008": 2.81858912534,
			"-0.007": 8.14242208981,
			"-0.006": 10.8236027699,
			"-0.005": 13.4592834003,
			"-0.004": 18.1342548462,
			"-0.003": 19.8714004294,
			"-0.002": 21.3478846304,
			"-0.001": 16.3385648153,
			"0.0": 9.08565948961,
			"0.001": 6.16645128897,
			"0.002": 4.069162366,
			"0.003": 5.93911799084,
			"0.004": 5.48637060445,
			"0.005": 4.58257891732,
			"0.006": 5.52692217003,
			"0.007": 5.0498656872,
			"0.008": 3.9066072781,
			"0.009": 5.44529656876,
			"0.01": 5.26480517814,
			"0.011": 7.19757768766,
			"0.012": 12.3058336876,
			"0.013": 11.0892764939,
			"0.014": 1.17752117761,
			"0.015": 0.0,
			"0.016": 0.0,
			"0.017": 0.0,
			"0.018": 0.0,
			"0.019": 0.0,
			"0.02": 0.0,
			"0.021": 0.0,
			"0.022": 0.0,
			"0.023": 0.0,
			"0.024": 0.0,
			"0.025": 0.0
		}
	}
}
