{
	 "smiles": "CC1CN(CC2=CC=C(C=C2)C(O)=O)CCO1", 
	 "Tm": 460.15, 
	 "num_atms": 34, 
	 "gaussian": { 
		 "optdone": 1, 
		 "sigma_profile": "yes", 
		 "theory": "DFT", 
		 "functional": "B3LYP", 
		 "basiset": "6-31G**", 
		 "properties": { 
			 "R2extent": 6372.6313, 
			 "electric_dipole_moment_norm": 4.59376567099, 
			 "electric_quadrupole_moment_norm": 33.3711766405, 
			 "total_energy": -786.048174392, 
			 "HOMO_LUMO_gap": 0.17883, 
			 "cosmo_polarized_energy": -16.88, 
			 "cosmo_cavitation_energy": 35.91, 
			 "cosmo_dispersion_energy": -25.45, 
			 "cosmo_repulsion_energy": 1.97, 
			 "cosmo_total_nonelectrostatic_energy": 12.44, 
			 "SMD_solvation_energy": 6.04 
		},
		"coords": [
			{
				"x": -1.6457359299,
				"y": 0.5889122553,
				"z": -2.2693287944,
				"element": "C" 
			},
			{
				"x": -0.6552072672,
				"y": 1.7000949508,
				"z": -1.9072168398,
				"element": "C" 
			},
			{
				"x": 0.380575191,
				"y": 1.2771516906,
				"z": -0.8555318772,
				"element": "C" 
			},
			{
				"x": -0.2445588762,
				"y": 1.1320406217,
				"z": 0.4639638495,
				"element": "N" 
			},
			{
				"x": 0.6987879565,
				"y": 0.6511632998,
				"z": 1.4703644778,
				"element": "C" 
			},
			{
				"x": 1.0923424125,
				"y": -0.8019130866,
				"z": 1.2798326036,
				"element": "C" 
			},
			{
				"x": 0.1262116794,
				"y": -1.7639967683,
				"z": 0.955994699,
				"element": "C" 
			},
			{
				"x": 0.4755346827,
				"y": -3.1061893669,
				"z": 0.8336771092,
				"element": "C" 
			},
			{
				"x": 1.8019054548,
				"y": -3.5188151596,
				"z": 1.0336845648,
				"element": "C" 
			},
			{
				"x": 2.773194924,
				"y": -2.5555838795,
				"z": 1.3336322551,
				"element": "C" 
			},
			{
				"x": 2.4186146784,
				"y": -1.2154075104,
				"z": 1.459623708,
				"element": "C" 
			},
			{
				"x": 2.2488602376,
				"y": -4.9432125855,
				"z": 0.9044607381,
				"element": "C" 
			},
			{
				"x": 1.2863213033,
				"y": -5.8996711636,
				"z": 1.0117613449,
				"element": "O" 
			},
			{
				"x": 3.3986798607,
				"y": -5.2654281063,
				"z": 0.7164302544,
				"element": "O" 
			},
			{
				"x": -0.8639062837,
				"y": 2.4013283046,
				"z": 0.852544272,
				"element": "C" 
			},
			{
				"x": -1.8943683638,
				"y": 2.8092489837,
				"z": -0.1968542184,
				"element": "C" 
			},
			{
				"x": -1.3144951659,
				"y": 2.9027918339,
				"z": -1.4908166313,
				"element": "O" 
			},
			{
				"x": -2.1390172659,
				"y": 0.1794947633,
				"z": -1.3843703522,
				"element": "H" 
			},
			{
				"x": -2.4077964335,
				"y": 0.9770196928,
				"z": -2.9510681485,
				"element": "H" 
			},
			{
				"x": -1.1229201352,
				"y": -0.2329796118,
				"z": -2.7698990555,
				"element": "H" 
			},
			{
				"x": -0.11301951,
				"y": 1.9932805209,
				"z": -2.8134014009,
				"element": "H" 
			},
			{
				"x": 0.8334156304,
				"y": 0.3232455309,
				"z": -1.1438990544,
				"element": "H" 
			},
			{
				"x": 1.186598923,
				"y": 2.0357393685,
				"z": -0.8262251029,
				"element": "H" 
			},
			{
				"x": 1.6130064226,
				"y": 1.2740778159,
				"z": 1.5145364458,
				"element": "H" 
			},
			{
				"x": 0.2111639478,
				"y": 0.7544961856,
				"z": 2.4493777935,
				"element": "H" 
			},
			{
				"x": -0.8955975308,
				"y": -1.4422711162,
				"z": 0.7830629089,
				"element": "H" 
			},
			{
				"x": -0.2915442999,
				"y": -3.8203681495,
				"z": 0.5418103564,
				"element": "H" 
			},
			{
				"x": 3.8007670828,
				"y": -2.8796887277,
				"z": 1.4587347697,
				"element": "H" 
			},
			{
				"x": 3.1813774264,
				"y": -0.4777962747,
				"z": 1.6959176175,
				"element": "H" 
			},
			{
				"x": 0.4582545561,
				"y": -5.5054154457,
				"z": 1.3184350267,
				"element": "H" 
			},
			{
				"x": -0.110693738,
				"y": 3.2068527991,
				"z": 0.9553685904,
				"element": "H" 
			},
			{
				"x": -1.3570524026,
				"y": 2.2787886319,
				"z": 1.8244116499,
				"element": "H" 
			},
			{
				"x": -2.7292913082,
				"y": 2.0930624468,
				"z": -0.1866050996,
				"element": "H" 
			},
			{
				"x": -2.2954078591,
				"y": 3.8020472564,
				"z": 0.0285915397,
				"element": "H" 
			}
		],
		 "valence_orbital": [ 
			{
				"type": "occ",
				"energy": -0.27411,
				"method": "rhf"
			},
			{
				"type": "occ",
				"energy": -0.27056,
				"method": "rhf"
			},
			{
				"type": "occ",
				"energy": -0.26056,
				"method": "rhf"
			},
			{
				"type": "occ",
				"energy": -0.25717,
				"method": "rhf"
			},
			{
				"type": "occ",
				"energy": -0.22953,
				"method": "rhf"
			},
			{
				"type": "unocc",
				"energy": -0.0507,
				"method": "rhf"
			},
			{
				"type": "unocc",
				"energy": -0.02202,
				"method": "rhf"
			},
			{
				"type": "unocc",
				"energy": 0.04485,
				"method": "rhf"
			},
			{
				"type": "unocc",
				"energy": 0.06281,
				"method": "rhf"
			},
			{
				"type": "unocc",
				"energy": 0.08028,
				"method": "rhf"
			}
		],
		"cosmo_sigma_profile": { 
			"-0.025": 0.0,
			"-0.024": 0.0,
			"-0.023": 0.0,
			"-0.022": 0.0,
			"-0.021": 0.0,
			"-0.02": 0.0,
			"-0.019": 0.239443163555,
			"-0.018": 0.53661733217,
			"-0.017": 1.08391351059,
			"-0.016": 1.20757737098,
			"-0.015": 0.714486388579,
			"-0.014": 0.373473595708,
			"-0.013": 1.06019708893,
			"-0.012": 1.4829774688,
			"-0.011": 1.21685896417,
			"-0.01": 1.03687931727,
			"-0.009": 1.14885345851,
			"-0.008": 1.45073352326,
			"-0.007": 2.00335392375,
			"-0.006": 6.6511493866,
			"-0.005": 14.8098168686,
			"-0.004": 24.103985976,
			"-0.003": 31.3992626706,
			"-0.002": 37.2187437737,
			"-0.001": 28.4899517904,
			"0.0": 20.7363160039,
			"0.001": 17.8286826227,
			"0.002": 14.9243076065,
			"0.003": 16.0743897829,
			"0.004": 9.42484979382,
			"0.005": 5.00562380871,
			"0.006": 5.30408464537,
			"0.007": 4.01026879212,
			"0.008": 3.92835203748,
			"0.009": 5.11197851126,
			"0.01": 5.21333745752,
			"0.011": 6.3172666375,
			"0.012": 6.60405737954,
			"0.013": 3.59627140803,
			"0.014": 1.42237839948,
			"0.015": 0.0,
			"0.016": 0.0,
			"0.017": 0.0,
			"0.018": 0.0,
			"0.019": 0.0,
			"0.02": 0.0,
			"0.021": 0.0,
			"0.022": 0.0,
			"0.023": 0.0,
			"0.024": 0.0,
			"0.025": 0.0
		}
	}
}
