{
	 "smiles": "CC1=NN(C(N)=C1)C1=C(Cl)C=CC(=C1)C(F)(F)F", 
	 "Tm": 433.15, 
	 "num_atms": 27, 
	 "gaussian": { 
		 "optdone": 1, 
		 "sigma_profile": "yes", 
		 "theory": "DFT", 
		 "functional": "B3LYP", 
		 "basiset": "6-31G**", 
		 "properties": { 
			 "R2extent": 5644.3029, 
			 "electric_dipole_moment_norm": 3.47820318843, 
			 "electric_quadrupole_moment_norm": 11.0571978932, 
			 "total_energy": -1348.54959386, 
			 "HOMO_LUMO_gap": 0.1674, 
			 "cosmo_polarized_energy": -11.67, 
			 "cosmo_cavitation_energy": 34.53, 
			 "cosmo_dispersion_energy": -24.3, 
			 "cosmo_repulsion_energy": 1.84, 
			 "cosmo_total_nonelectrostatic_energy": 12.08, 
			 "SMD_solvation_energy": 6.09 
		},
		"coords": [
			{
				"x": 1.9936321479,
				"y": -3.9287733341,
				"z": 1.0272850567,
				"element": "C" 
			},
			{
				"x": 0.9923718045,
				"y": -2.9682747343,
				"z": 0.4624875257,
				"element": "C" 
			},
			{
				"x": 1.3513685946,
				"y": -1.7238752412,
				"z": 0.1779185953,
				"element": "N" 
			},
			{
				"x": 0.2151765149,
				"y": -1.1378191525,
				"z": -0.345326113,
				"element": "N" 
			},
			{
				"x": -0.8474449762,
				"y": -2.0153521933,
				"z": -0.3564924181,
				"element": "C" 
			},
			{
				"x": -2.1366503193,
				"y": -1.6171984075,
				"z": -0.6960488771,
				"element": "N" 
			},
			{
				"x": -0.3701114153,
				"y": -3.2108649847,
				"z": 0.1442472493,
				"element": "C" 
			},
			{
				"x": 0.2207362072,
				"y": 0.2602334764,
				"z": -0.5490192112,
				"element": "C" 
			},
			{
				"x": -0.1382827977,
				"y": 0.8675261632,
				"z": -1.7619946031,
				"element": "C" 
			},
			{
				"x": -0.5738175019,
				"y": -0.0967910671,
				"z": -3.1643810882,
				"element": "Cl" 
			},
			{
				"x": -0.1106260919,
				"y": 2.2562483333,
				"z": -1.9072117578,
				"element": "C" 
			},
			{
				"x": 0.3083288626,
				"y": 3.0559220467,
				"z": -0.8507697304,
				"element": "C" 
			},
			{
				"x": 0.7036248938,
				"y": 2.4619708559,
				"z": 0.3519805793,
				"element": "C" 
			},
			{
				"x": 0.6554815673,
				"y": 1.0801965035,
				"z": 0.5004747598,
				"element": "C" 
			},
			{
				"x": 1.1169386388,
				"y": 3.3324096661,
				"z": 1.5096424356,
				"element": "C" 
			},
			{
				"x": 1.8049819389,
				"y": 4.4179796509,
				"z": 1.090853343,
				"element": "F" 
			},
			{
				"x": 1.8927383408,
				"y": 2.6689502656,
				"z": 2.3903802322,
				"element": "F" 
			},
			{
				"x": 0.0415723481,
				"y": 3.7906412274,
				"z": 2.1910922704,
				"element": "F" 
			},
			{
				"x": 2.9471645528,
				"y": -3.4203872192,
				"z": 1.1853174542,
				"element": "H" 
			},
			{
				"x": 2.1607131022,
				"y": -4.7748205616,
				"z": 0.3511087853,
				"element": "H" 
			},
			{
				"x": 1.6533544991,
				"y": -4.3388869263,
				"z": 1.9847008521,
				"element": "H" 
			},
			{
				"x": -2.7902000783,
				"y": -2.3877254739,
				"z": -0.6420719465,
				"element": "H" 
			},
			{
				"x": -2.2071308669,
				"y": -1.1582744355,
				"z": -1.597787931,
				"element": "H" 
			},
			{
				"x": -0.9273695168,
				"y": -4.1293536526,
				"z": 0.2594221192,
				"element": "H" 
			},
			{
				"x": -0.3946256456,
				"y": 2.6965847719,
				"z": -2.8560885361,
				"element": "H" 
			},
			{
				"x": 0.347031346,
				"y": 4.1333198193,
				"z": -0.9668221161,
				"element": "H" 
			},
			{
				"x": 0.9664438505,
				"y": 0.6054146036,
				"z": 1.4225030707,
				"element": "H" 
			}
		],
		 "valence_orbital": [ 
			{
				"type": "occ",
				"energy": -0.28941,
				"method": "rhf"
			},
			{
				"type": "occ",
				"energy": -0.28203,
				"method": "rhf"
			},
			{
				"type": "occ",
				"energy": -0.27178,
				"method": "rhf"
			},
			{
				"type": "occ",
				"energy": -0.23565,
				"method": "rhf"
			},
			{
				"type": "occ",
				"energy": -0.21081,
				"method": "rhf"
			},
			{
				"type": "unocc",
				"energy": -0.04341,
				"method": "rhf"
			},
			{
				"type": "unocc",
				"energy": -0.03522,
				"method": "rhf"
			},
			{
				"type": "unocc",
				"energy": 0.00833,
				"method": "rhf"
			},
			{
				"type": "unocc",
				"energy": 0.03143,
				"method": "rhf"
			},
			{
				"type": "unocc",
				"energy": 0.07591,
				"method": "rhf"
			}
		],
		"cosmo_sigma_profile": { 
			"-0.025": 0.0,
			"-0.024": 0.0,
			"-0.023": 0.0,
			"-0.022": 0.0,
			"-0.021": 0.0,
			"-0.02": 0.0,
			"-0.019": 0.0,
			"-0.018": 0.0,
			"-0.017": 0.0,
			"-0.016": 0.0,
			"-0.015": 0.0,
			"-0.014": 0.150236205574,
			"-0.013": 1.36717705064,
			"-0.012": 1.46254302478,
			"-0.011": 1.37597353695,
			"-0.01": 2.81496552257,
			"-0.009": 2.89920020224,
			"-0.008": 5.54312190359,
			"-0.007": 7.62681546764,
			"-0.006": 9.08158022861,
			"-0.005": 9.45597719282,
			"-0.004": 14.2590610908,
			"-0.003": 14.5855409529,
			"-0.002": 20.1808930241,
			"-0.001": 24.973217571,
			"0.0": 31.2125391775,
			"0.001": 26.5187966308,
			"0.002": 31.9905193191,
			"0.003": 34.7795343295,
			"0.004": 9.64654876002,
			"0.005": 7.29276173019,
			"0.006": 5.43808372565,
			"0.007": 2.53929779634,
			"0.008": 2.72157371744,
			"0.009": 1.58637195295,
			"0.01": 2.29383532873,
			"0.011": 1.58033135061,
			"0.012": 1.02969609089,
			"0.013": 1.99587638658,
			"0.014": 1.13086831838,
			"0.015": 0.665620187742,
			"0.016": 0.485938222447,
			"0.017": 0.0,
			"0.018": 0.0,
			"0.019": 0.0,
			"0.02": 0.0,
			"0.021": 0.0,
			"0.022": 0.0,
			"0.023": 0.0,
			"0.024": 0.0,
			"0.025": 0.0
		}
	}
}
