{
	 "smiles": "CN1C2=NN=C(CCl)N2C2=C(C=C(C)C=C2)C1=O", 
	 "Tm": 477.15, 
	 "num_atms": 29, 
	 "gaussian": { 
		 "optdone": 1, 
		 "sigma_profile": "yes", 
		 "theory": "DFT", 
		 "functional": "B3LYP", 
		 "basiset": "6-31G**", 
		 "properties": { 
			 "R2extent": 5214.1737, 
			 "electric_dipole_moment_norm": 4.57300136234, 
			 "electric_quadrupole_moment_norm": 12.6619631345, 
			 "total_energy": -1218.34367348, 
			 "HOMO_LUMO_gap": 0.17697, 
			 "cosmo_polarized_energy": -16.62, 
			 "cosmo_cavitation_energy": 34.1, 
			 "cosmo_dispersion_energy": -25.07, 
			 "cosmo_repulsion_energy": 1.89, 
			 "cosmo_total_nonelectrostatic_energy": 10.92, 
			 "SMD_solvation_energy": 4.09 
		},
		"coords": [
			{
				"x": -0.5322303375,
				"y": 3.3662680862,
				"z": 1.9117908276,
				"element": "C" 
			},
			{
				"x": -0.4563222095,
				"y": 2.1083369759,
				"z": 1.1627805175,
				"element": "N" 
			},
			{
				"x": -0.2275511244,
				"y": 2.1832094036,
				"z": -0.1898111934,
				"element": "C" 
			},
			{
				"x": -0.0434182112,
				"y": 3.2847269013,
				"z": -0.8828913935,
				"element": "N" 
			},
			{
				"x": 0.1722394932,
				"y": 2.888942226,
				"z": -2.1812031595,
				"element": "N" 
			},
			{
				"x": 0.117746626,
				"y": 1.5803518048,
				"z": -2.2470457653,
				"element": "C" 
			},
			{
				"x": 0.3668798843,
				"y": 0.8510950034,
				"z": -3.5082949766,
				"element": "C" 
			},
			{
				"x": -1.1485747134,
				"y": 0.1450622081,
				"z": -4.2718332451,
				"element": "Cl" 
			},
			{
				"x": -0.1477071967,
				"y": 1.0564051511,
				"z": -0.9782725339,
				"element": "N" 
			},
			{
				"x": -0.3011429432,
				"y": -0.2362937196,
				"z": -0.434949448,
				"element": "C" 
			},
			{
				"x": -0.4936893193,
				"y": -0.3174018104,
				"z": 0.9569397438,
				"element": "C" 
			},
			{
				"x": -0.633648965,
				"y": -1.5726066393,
				"z": 1.5633752188,
				"element": "C" 
			},
			{
				"x": -0.5907741555,
				"y": -2.7505272364,
				"z": 0.8228963334,
				"element": "C" 
			},
			{
				"x": -0.7311860538,
				"y": -4.1026180907,
				"z": 1.479063538,
				"element": "C" 
			},
			{
				"x": -0.4167101979,
				"y": -2.6399155252,
				"z": -0.5676935121,
				"element": "C" 
			},
			{
				"x": -0.275154558,
				"y": -1.4096528114,
				"z": -1.1984969559,
				"element": "C" 
			},
			{
				"x": -0.5786812327,
				"y": 0.8849963871,
				"z": 1.8250945379,
				"element": "C" 
			},
			{
				"x": -0.7527129921,
				"y": 0.8256508224,
				"z": 3.0349697383,
				"element": "O" 
			},
			{
				"x": -0.7139247094,
				"y": 3.1074496419,
				"z": 2.9525347062,
				"element": "H" 
			},
			{
				"x": -1.3436108557,
				"y": 3.9823914816,
				"z": 1.5181840665,
				"element": "H" 
			},
			{
				"x": 0.4052848079,
				"y": 3.9174281756,
				"z": 1.8086718316,
				"element": "H" 
			},
			{
				"x": 0.7587284958,
				"y": 1.5707728458,
				"z": -4.2242351955,
				"element": "H" 
			},
			{
				"x": 1.0615226769,
				"y": 0.0182107133,
				"z": -3.3986304205,
				"element": "H" 
			},
			{
				"x": -0.7819652407,
				"y": -1.5880978113,
				"z": 2.6382145972,
				"element": "H" 
			},
			{
				"x": -0.9591642905,
				"y": -4.0057457001,
				"z": 2.5433013963,
				"element": "H" 
			},
			{
				"x": 0.1925154467,
				"y": -4.6857046587,
				"z": 1.3865120236,
				"element": "H" 
			},
			{
				"x": -1.5308872885,
				"y": -4.6893344062,
				"z": 1.0139869533,
				"element": "H" 
			},
			{
				"x": -0.3998397753,
				"y": -3.5400308914,
				"z": -1.1767614063,
				"element": "H" 
			},
			{
				"x": -0.1858210606,
				"y": -1.3730685273,
				"z": -2.2748968243,
				"element": "H" 
			}
		],
		 "valence_orbital": [ 
			{
				"type": "occ",
				"energy": -0.27995,
				"method": "rhf"
			},
			{
				"type": "occ",
				"energy": -0.27921,
				"method": "rhf"
			},
			{
				"type": "occ",
				"energy": -0.2688,
				"method": "rhf"
			},
			{
				"type": "occ",
				"energy": -0.2545,
				"method": "rhf"
			},
			{
				"type": "occ",
				"energy": -0.23878,
				"method": "rhf"
			},
			{
				"type": "unocc",
				"energy": -0.06181,
				"method": "rhf"
			},
			{
				"type": "unocc",
				"energy": -0.04759,
				"method": "rhf"
			},
			{
				"type": "unocc",
				"energy": -0.01275,
				"method": "rhf"
			},
			{
				"type": "unocc",
				"energy": 0.01747,
				"method": "rhf"
			},
			{
				"type": "unocc",
				"energy": 0.04907,
				"method": "rhf"
			}
		],
		"cosmo_sigma_profile": { 
			"-0.025": 0.0,
			"-0.024": 0.0,
			"-0.023": 0.0,
			"-0.022": 0.0,
			"-0.021": 0.0,
			"-0.02": 0.0,
			"-0.019": 0.0,
			"-0.018": 0.0,
			"-0.017": 0.0,
			"-0.016": 0.0,
			"-0.015": 0.0,
			"-0.014": 0.0,
			"-0.013": 0.0,
			"-0.012": 0.0,
			"-0.011": 0.193101661135,
			"-0.01": 2.22565691323,
			"-0.009": 4.9067803368,
			"-0.008": 4.18042516941,
			"-0.007": 8.05035630014,
			"-0.006": 15.6049193345,
			"-0.005": 20.9734894495,
			"-0.004": 24.7214277064,
			"-0.003": 26.5089058839,
			"-0.002": 18.3355354861,
			"-0.001": 20.4431137237,
			"0.0": 19.4061704922,
			"0.001": 18.1304300826,
			"0.002": 19.4898445408,
			"0.003": 12.2261920206,
			"0.004": 8.58547675389,
			"0.005": 10.7016323601,
			"0.006": 6.70608376877,
			"0.007": 3.15814074654,
			"0.008": 3.74592850025,
			"0.009": 3.28977207094,
			"0.01": 3.75131826457,
			"0.011": 4.70472147928,
			"0.012": 8.13005565125,
			"0.013": 3.01849893968,
			"0.014": 2.59668484219,
			"0.015": 1.49162689924,
			"0.016": 0.206945932469,
			"0.017": 0.0,
			"0.018": 0.0,
			"0.019": 0.0,
			"0.02": 0.0,
			"0.021": 0.0,
			"0.022": 0.0,
			"0.023": 0.0,
			"0.024": 0.0,
			"0.025": 0.0
		}
	}
}
