{
	 "smiles": "SC1=NC(=NO1)C1=C(Cl)C=CC=C1", 
	 "Tm": 374.15, 
	 "num_atms": 18, 
	 "gaussian": { 
		 "optdone": 1, 
		 "sigma_profile": "yes", 
		 "theory": "DFT", 
		 "functional": "B3LYP", 
		 "basiset": "6-31G**", 
		 "properties": { 
			 "R2extent": 4626.8263, 
			 "electric_dipole_moment_norm": 1.92617846006, 
			 "electric_quadrupole_moment_norm": 11.6744665424, 
			 "total_energy": -1350.91708447, 
			 "HOMO_LUMO_gap": 0.19992, 
			 "cosmo_polarized_energy": -9.28, 
			 "cosmo_cavitation_energy": 26.97, 
			 "cosmo_dispersion_energy": -20.55, 
			 "cosmo_repulsion_energy": 1.58, 
			 "cosmo_total_nonelectrostatic_energy": 8.0, 
			 "SMD_solvation_energy": 2.54 
		},
		"coords": [
			{
				"x": -4.5885082567,
				"y": -3.5551958846,
				"z": 0.2409079716,
				"element": "S" 
			},
			{
				"x": -3.425013589,
				"y": -2.2457007466,
				"z": 0.3392903244,
				"element": "C" 
			},
			{
				"x": -2.1294930503,
				"y": -2.308760743,
				"z": 0.4258478103,
				"element": "N" 
			},
			{
				"x": -1.7866459439,
				"y": -0.9714006553,
				"z": 0.4727997159,
				"element": "C" 
			},
			{
				"x": -2.8045311275,
				"y": -0.139465449,
				"z": 0.4165649354,
				"element": "N" 
			},
			{
				"x": -3.9194848509,
				"y": -0.9988290294,
				"z": 0.3285558457,
				"element": "O" 
			},
			{
				"x": -0.4144184339,
				"y": -0.4588759244,
				"z": 0.6446027398,
				"element": "C" 
			},
			{
				"x": 0.7185760765,
				"y": -1.0116019463,
				"z": 0.0214957779,
				"element": "C" 
			},
			{
				"x": 0.5956779585,
				"y": -2.3539739299,
				"z": -1.1003775127,
				"element": "Cl" 
			},
			{
				"x": 1.9884719683,
				"y": -0.4762735134,
				"z": 0.2428102539,
				"element": "C" 
			},
			{
				"x": 2.1455435074,
				"y": 0.6252374117,
				"z": 1.0817394798,
				"element": "C" 
			},
			{
				"x": 1.0323347018,
				"y": 1.1996593683,
				"z": 1.6966351798,
				"element": "C" 
			},
			{
				"x": -0.2301952449,
				"y": 0.6586757237,
				"z": 1.4783312222,
				"element": "C" 
			},
			{
				"x": -3.6326433146,
				"y": -4.5027034,
				"z": 0.2728682198,
				"element": "H" 
			},
			{
				"x": 2.8429902145,
				"y": -0.9229379604,
				"z": -0.2529106512,
				"element": "H" 
			},
			{
				"x": 3.1380901711,
				"y": 1.032632998,
				"z": 1.2487496235,
				"element": "H" 
			},
			{
				"x": 1.1466030911,
				"y": 2.0596940923,
				"z": 2.3486860622,
				"element": "H" 
			},
			{
				"x": -1.1034538777,
				"y": 1.0875195883,
				"z": 1.9576030017,
				"element": "H" 
			}
		],
		 "valence_orbital": [ 
			{
				"type": "occ",
				"energy": -0.31847,
				"method": "rhf"
			},
			{
				"type": "occ",
				"energy": -0.29851,
				"method": "rhf"
			},
			{
				"type": "occ",
				"energy": -0.27423,
				"method": "rhf"
			},
			{
				"type": "occ",
				"energy": -0.2596,
				"method": "rhf"
			},
			{
				"type": "occ",
				"energy": -0.25127,
				"method": "rhf"
			},
			{
				"type": "unocc",
				"energy": -0.05135,
				"method": "rhf"
			},
			{
				"type": "unocc",
				"energy": -0.02155,
				"method": "rhf"
			},
			{
				"type": "unocc",
				"energy": -0.01401,
				"method": "rhf"
			},
			{
				"type": "unocc",
				"energy": -0.00773,
				"method": "rhf"
			},
			{
				"type": "unocc",
				"energy": 0.02695,
				"method": "rhf"
			}
		],
		"cosmo_sigma_profile": { 
			"-0.025": 0.0,
			"-0.024": 0.0,
			"-0.023": 0.0,
			"-0.022": 0.0,
			"-0.021": 0.0,
			"-0.02": 0.0,
			"-0.019": 0.0,
			"-0.018": 0.0,
			"-0.017": 0.0,
			"-0.016": 0.0,
			"-0.015": 0.0,
			"-0.014": 0.243855848197,
			"-0.013": 1.85437545804,
			"-0.012": 1.75283649739,
			"-0.011": 1.20684549204,
			"-0.01": 1.43311262461,
			"-0.009": 1.14695253573,
			"-0.008": 2.21832326091,
			"-0.007": 7.76022183373,
			"-0.006": 10.4289543562,
			"-0.005": 10.8668804259,
			"-0.004": 10.3781169574,
			"-0.003": 12.9578794797,
			"-0.002": 16.9605362603,
			"-0.001": 17.4214557008,
			"0.0": 16.0847742561,
			"0.001": 22.8171738773,
			"0.002": 23.2744061868,
			"0.003": 19.7644010114,
			"0.004": 13.9499789423,
			"0.005": 9.79872947708,
			"0.006": 5.84770720087,
			"0.007": 3.61803081891,
			"0.008": 1.7748467028,
			"0.009": 2.60730093285,
			"0.01": 2.13155760694,
			"0.011": 2.26716769148,
			"0.012": 1.8335288143,
			"0.013": 0.435299769886,
			"0.014": 0.0,
			"0.015": 0.0,
			"0.016": 0.0,
			"0.017": 0.0,
			"0.018": 0.0,
			"0.019": 0.0,
			"0.02": 0.0,
			"0.021": 0.0,
			"0.022": 0.0,
			"0.023": 0.0,
			"0.024": 0.0,
			"0.025": 0.0
		}
	}
}
