{
	 "smiles": "CC(=O)OC1=C(C=CC(C)=C1)C1(C)CC(C)(C)C2=CC=C(C)C=C2O1", 
	 "Tm": 375.15, 
	 "num_atms": 51, 
	 "gaussian": { 
		 "optdone": 1, 
		 "sigma_profile": "yes", 
		 "theory": "DFT", 
		 "functional": "B3LYP", 
		 "basiset": "6-31G**", 
		 "properties": { 
			 "R2extent": 9026.6799, 
			 "electric_dipole_moment_norm": 2.35775565104, 
			 "electric_quadrupole_moment_norm": 12.4597671274, 
			 "total_energy": -1079.71846687, 
			 "HOMO_LUMO_gap": 0.20269, 
			 "cosmo_polarized_energy": -12.08, 
			 "cosmo_cavitation_energy": 50.14, 
			 "cosmo_dispersion_energy": -32.84, 
			 "cosmo_repulsion_energy": 2.48, 
			 "cosmo_total_nonelectrostatic_energy": 19.78, 
			 "SMD_solvation_energy": 9.58 
		},
		"coords": [
			{
				"x": 1.1192771999,
				"y": -2.0843897861,
				"z": -2.4763063066,
				"element": "C" 
			},
			{
				"x": 0.8090144844,
				"y": -2.5630731357,
				"z": -1.081330163,
				"element": "C" 
			},
			{
				"x": 1.4127799853,
				"y": -3.4037327042,
				"z": -0.4655537531,
				"element": "O" 
			},
			{
				"x": -0.2816419333,
				"y": -1.8854364022,
				"z": -0.5877130937,
				"element": "O" 
			},
			{
				"x": -0.650527227,
				"y": -2.0911058806,
				"z": 0.7441968432,
				"element": "C" 
			},
			{
				"x": -0.4765757626,
				"y": -1.0544900542,
				"z": 1.6792243611,
				"element": "C" 
			},
			{
				"x": -0.9746899865,
				"y": -1.29684478,
				"z": 2.9660512802,
				"element": "C" 
			},
			{
				"x": -1.5903207901,
				"y": -2.500099531,
				"z": 3.3098231339,
				"element": "C" 
			},
			{
				"x": -1.7337981713,
				"y": -3.5278884461,
				"z": 2.3741589233,
				"element": "C" 
			},
			{
				"x": -2.3629883196,
				"y": -4.8505102289,
				"z": 2.7404659296,
				"element": "C" 
			},
			{
				"x": -1.2556843856,
				"y": -3.2973176697,
				"z": 1.0803518907,
				"element": "C" 
			},
			{
				"x": 0.165614046,
				"y": 0.2879629291,
				"z": 1.3058862487,
				"element": "C" 
			},
			{
				"x": 0.6071747476,
				"y": 1.0827541848,
				"z": 2.5458845497,
				"element": "C" 
			},
			{
				"x": -0.7938317809,
				"y": 1.0696220387,
				"z": 0.3806345473,
				"element": "C" 
			},
			{
				"x": -0.2019987341,
				"y": 2.3251097958,
				"z": -0.3158832057,
				"element": "C" 
			},
			{
				"x": -0.9830725593,
				"y": 2.5193300312,
				"z": -1.6393109883,
				"element": "C" 
			},
			{
				"x": -0.4013911618,
				"y": 3.6018091998,
				"z": 0.5362789589,
				"element": "C" 
			},
			{
				"x": 1.2810289044,
				"y": 2.0929596692,
				"z": -0.6169734543,
				"element": "C" 
			},
			{
				"x": 2.0245596376,
				"y": 3.007392683,
				"z": -1.3812415978,
				"element": "C" 
			},
			{
				"x": 3.3575173754,
				"y": 2.792238019,
				"z": -1.711953108,
				"element": "C" 
			},
			{
				"x": 4.0167606763,
				"y": 1.6290285658,
				"z": -1.2828213193,
				"element": "C" 
			},
			{
				"x": 5.4697784838,
				"y": 1.3905528425,
				"z": -1.6208886094,
				"element": "C" 
			},
			{
				"x": 3.3000214245,
				"y": 0.7169490179,
				"z": -0.5115582138,
				"element": "C" 
			},
			{
				"x": 1.9559412702,
				"y": 0.9427253276,
				"z": -0.1756030779,
				"element": "C" 
			},
			{
				"x": 1.3758319122,
				"y": -0.043199204,
				"z": 0.5772894371,
				"element": "O" 
			},
			{
				"x": 0.2029507922,
				"y": -1.9347960823,
				"z": -3.0519466078,
				"element": "H" 
			},
			{
				"x": 1.6363079393,
				"y": -1.1213969204,
				"z": -2.4100644593,
				"element": "H" 
			},
			{
				"x": 1.7698769888,
				"y": -2.8059751733,
				"z": -2.9703644893,
				"element": "H" 
			},
			{
				"x": -0.8837768524,
				"y": -0.5313017089,
				"z": 3.7275414343,
				"element": "H" 
			},
			{
				"x": -1.9602649292,
				"y": -2.638212613,
				"z": 4.3223440788,
				"element": "H" 
			},
			{
				"x": -1.5973631725,
				"y": -5.6191182108,
				"z": 2.9019944529,
				"element": "H" 
			},
			{
				"x": -3.0226142314,
				"y": -5.2146225944,
				"z": 1.9461650836,
				"element": "H" 
			},
			{
				"x": -2.9501322006,
				"y": -4.7718738067,
				"z": 3.6597806668,
				"element": "H" 
			},
			{
				"x": -1.3531373096,
				"y": -4.05833426,
				"z": 0.3126668801,
				"element": "H" 
			},
			{
				"x": 1.2444629009,
				"y": 1.9143254733,
				"z": 2.241407542,
				"element": "H" 
			},
			{
				"x": -0.2432948664,
				"y": 1.4930639426,
				"z": 3.0973568481,
				"element": "H" 
			},
			{
				"x": 1.1900274129,
				"y": 0.4440192506,
				"z": 3.2140631228,
				"element": "H" 
			},
			{
				"x": -1.6869561609,
				"y": 1.3457597744,
				"z": 0.9524904027,
				"element": "H" 
			},
			{
				"x": -1.1183844847,
				"y": 0.3697150881,
				"z": -0.392942195,
				"element": "H" 
			},
			{
				"x": -0.6690635205,
				"y": 3.4268057837,
				"z": -2.1638046416,
				"element": "H" 
			},
			{
				"x": -2.0569106369,
				"y": 2.6080641172,
				"z": -1.4374985782,
				"element": "H" 
			},
			{
				"x": -0.8318216895,
				"y": 1.6704950263,
				"z": -2.3131735325,
				"element": "H" 
			},
			{
				"x": 0.1103605154,
				"y": 3.5493244242,
				"z": 1.4990407244,
				"element": "H" 
			},
			{
				"x": -1.4683078438,
				"y": 3.7654102579,
				"z": 0.7287079593,
				"element": "H" 
			},
			{
				"x": -0.0205992893,
				"y": 4.482792563,
				"z": 0.0099914015,
				"element": "H" 
			},
			{
				"x": 1.5382253593,
				"y": 3.9118411843,
				"z": -1.7368095753,
				"element": "H" 
			},
			{
				"x": 3.8904951719,
				"y": 3.5268828614,
				"z": -2.3100454223,
				"element": "H" 
			},
			{
				"x": 5.7634084173,
				"y": 0.3564295063,
				"z": -1.4208821186,
				"element": "H" 
			},
			{
				"x": 6.1264117693,
				"y": 2.0408178512,
				"z": -1.0297360733,
				"element": "H" 
			},
			{
				"x": 5.6739051093,
				"y": 1.6030254512,
				"z": -2.6758382204,
				"element": "H" 
			},
			{
				"x": 3.7659154755,
				"y": -0.1918876677,
				"z": -0.1415538965,
				"element": "H" 
			}
		],
		 "valence_orbital": [ 
			{
				"type": "occ",
				"energy": -0.26784,
				"method": "rhf"
			},
			{
				"type": "occ",
				"energy": -0.24465,
				"method": "rhf"
			},
			{
				"type": "occ",
				"energy": -0.23608,
				"method": "rhf"
			},
			{
				"type": "occ",
				"energy": -0.23251,
				"method": "rhf"
			},
			{
				"type": "occ",
				"energy": -0.20844,
				"method": "rhf"
			},
			{
				"type": "unocc",
				"energy": -0.00575,
				"method": "rhf"
			},
			{
				"type": "unocc",
				"energy": -0.00132,
				"method": "rhf"
			},
			{
				"type": "unocc",
				"energy": 0.00397,
				"method": "rhf"
			},
			{
				"type": "unocc",
				"energy": 0.01578,
				"method": "rhf"
			},
			{
				"type": "unocc",
				"energy": 0.0196,
				"method": "rhf"
			}
		],
		"cosmo_sigma_profile": { 
			"-0.025": 0.0,
			"-0.024": 0.0,
			"-0.023": 0.0,
			"-0.022": 0.0,
			"-0.021": 0.0,
			"-0.02": 0.0,
			"-0.019": 0.0,
			"-0.018": 0.0,
			"-0.017": 0.0,
			"-0.016": 0.0,
			"-0.015": 0.0,
			"-0.014": 0.0,
			"-0.013": 0.0,
			"-0.012": 0.0,
			"-0.011": 0.0,
			"-0.01": 0.0,
			"-0.009": 0.0,
			"-0.008": 0.0,
			"-0.007": 0.305472952996,
			"-0.006": 6.33367756393,
			"-0.005": 19.3100356756,
			"-0.004": 38.0004925439,
			"-0.003": 46.8687999427,
			"-0.002": 49.019430662,
			"-0.001": 48.3335574564,
			"0.0": 45.2890890146,
			"0.001": 35.6828472978,
			"0.002": 19.9379171375,
			"0.003": 17.4322417196,
			"0.004": 16.1885923748,
			"0.005": 15.906211414,
			"0.006": 9.89009813264,
			"0.007": 5.53845246763,
			"0.008": 2.99708070079,
			"0.009": 3.81755200001,
			"0.01": 3.60648704051,
			"0.011": 4.32067533133,
			"0.012": 4.44362223139,
			"0.013": 0.491051674805,
			"0.014": 0.0,
			"0.015": 0.0,
			"0.016": 0.0,
			"0.017": 0.0,
			"0.018": 0.0,
			"0.019": 0.0,
			"0.02": 0.0,
			"0.021": 0.0,
			"0.022": 0.0,
			"0.023": 0.0,
			"0.024": 0.0,
			"0.025": 0.0
		}
	}
}
