{
	 "smiles": "BrC1=CC=CC(CN2C=CN=C2)=C1", 
	 "Tm": 339.15, 
	 "num_atms": 22, 
	 "gaussian": { 
		 "optdone": 1, 
		 "sigma_profile": "yes", 
		 "theory": "DFT", 
		 "functional": "B3LYP", 
		 "basiset": "6-31G**", 
		 "properties": { 
			 "R2extent": 4110.1844, 
			 "electric_dipole_moment_norm": 4.69525099862, 
			 "electric_quadrupole_moment_norm": 10.1851932696, 
			 "total_energy": -3067.38402886, 
			 "HOMO_LUMO_gap": 0.1987, 
			 "cosmo_polarized_energy": -12.9, 
			 "cosmo_cavitation_energy": 28.75, 
			 "cosmo_dispersion_energy": -20.8, 
			 "cosmo_repulsion_energy": 1.65, 
			 "cosmo_total_nonelectrostatic_energy": 9.59, 
			 "SMD_solvation_energy": 2.76 
		},
		"coords": [
			{
				"x": 1.2381959298,
				"y": 3.016846224,
				"z": 1.1566543333,
				"element": "Br" 
			},
			{
				"x": 0.4846439894,
				"y": 1.3682093261,
				"z": 1.763496435,
				"element": "C" 
			},
			{
				"x": 0.1849980016,
				"y": 1.2142039821,
				"z": 3.1172106404,
				"element": "C" 
			},
			{
				"x": -0.3671376307,
				"y": 0.0083123355,
				"z": 3.5475218241,
				"element": "C" 
			},
			{
				"x": -0.6144238363,
				"y": -1.02117834,
				"z": 2.6378476268,
				"element": "C" 
			},
			{
				"x": -0.3049492914,
				"y": -0.8594520194,
				"z": 1.2838414314,
				"element": "C" 
			},
			{
				"x": -0.5264126057,
				"y": -2.0066774201,
				"z": 0.3114068126,
				"element": "C" 
			},
			{
				"x": -1.045286125,
				"y": -1.5977872548,
				"z": -0.9857271144,
				"element": "N" 
			},
			{
				"x": -2.2787378965,
				"y": -1.0294801838,
				"z": -1.2462137198,
				"element": "C" 
			},
			{
				"x": -2.3109306776,
				"y": -0.8276457924,
				"z": -2.6035781826,
				"element": "C" 
			},
			{
				"x": -1.1386096997,
				"y": -1.252247727,
				"z": -3.1887645775,
				"element": "N" 
			},
			{
				"x": -0.4073040724,
				"y": -1.704911988,
				"z": -2.1943490047,
				"element": "C" 
			},
			{
				"x": 0.2481347833,
				"y": 0.349707763,
				"z": 0.8446883911,
				"element": "C" 
			},
			{
				"x": 0.3756393961,
				"y": 2.0215701676,
				"z": 3.8146991554,
				"element": "H" 
			},
			{
				"x": -0.6121987554,
				"y": -0.1238076176,
				"z": 4.5971588446,
				"element": "H" 
			},
			{
				"x": -1.0514558354,
				"y": -1.9545017972,
				"z": 2.9831310747,
				"element": "H" 
			},
			{
				"x": 0.4199230615,
				"y": -2.5262558827,
				"z": 0.1224303912,
				"element": "H" 
			},
			{
				"x": -1.2051447569,
				"y": -2.74123967,
				"z": 0.7587067564,
				"element": "H" 
			},
			{
				"x": -2.987208171,
				"y": -0.8223517424,
				"z": -0.4588264253,
				"element": "H" 
			},
			{
				"x": -3.1120709524,
				"y": -0.4013579733,
				"z": -3.1916723882,
				"element": "H" 
			},
			{
				"x": 0.5853366589,
				"y": -2.129122734,
				"z": -2.2756009765,
				"element": "H" 
			},
			{
				"x": 0.481498486,
				"y": 0.4966683443,
				"z": -0.2040613282,
				"element": "H" 
			}
		],
		 "valence_orbital": [ 
			{
				"type": "occ",
				"energy": -0.27672,
				"method": "rhf"
			},
			{
				"type": "occ",
				"energy": -0.26347,
				"method": "rhf"
			},
			{
				"type": "occ",
				"energy": -0.261,
				"method": "rhf"
			},
			{
				"type": "occ",
				"energy": -0.25037,
				"method": "rhf"
			},
			{
				"type": "occ",
				"energy": -0.22625,
				"method": "rhf"
			},
			{
				"type": "unocc",
				"energy": -0.02755,
				"method": "rhf"
			},
			{
				"type": "unocc",
				"energy": -0.02401,
				"method": "rhf"
			},
			{
				"type": "unocc",
				"energy": 0.00251,
				"method": "rhf"
			},
			{
				"type": "unocc",
				"energy": 0.02543,
				"method": "rhf"
			},
			{
				"type": "unocc",
				"energy": 0.06971,
				"method": "rhf"
			}
		],
		"cosmo_sigma_profile": { 
			"-0.025": 0.0,
			"-0.024": 0.0,
			"-0.023": 0.0,
			"-0.022": 0.0,
			"-0.021": 0.0,
			"-0.02": 0.0,
			"-0.019": 0.0,
			"-0.018": 0.0,
			"-0.017": 0.0,
			"-0.016": 0.0,
			"-0.015": 0.0,
			"-0.014": 0.0,
			"-0.013": 0.0,
			"-0.012": 0.0,
			"-0.011": 0.0,
			"-0.01": 0.142040099377,
			"-0.009": 2.6756804813,
			"-0.008": 6.13079655935,
			"-0.007": 12.8401084669,
			"-0.006": 16.454196357,
			"-0.005": 17.3986502701,
			"-0.004": 16.2449377939,
			"-0.003": 13.4925783943,
			"-0.002": 12.7427870969,
			"-0.001": 11.441843599,
			"0.0": 12.7366825786,
			"0.001": 15.6052570939,
			"0.002": 20.8413040759,
			"0.003": 20.8796467007,
			"0.004": 20.9773495156,
			"0.005": 12.265790052,
			"0.006": 4.55542380703,
			"0.007": 1.93700410065,
			"0.008": 1.61742610187,
			"0.009": 1.94252429127,
			"0.01": 1.56861759318,
			"0.011": 1.25439330791,
			"0.012": 1.24704682739,
			"0.013": 1.00870713104,
			"0.014": 1.34230392782,
			"0.015": 1.38420669475,
			"0.016": 0.934375959207,
			"0.017": 1.24408412088,
			"0.018": 1.02132572213,
			"0.019": 0.0365036389693,
			"0.02": 0.0,
			"0.021": 0.0,
			"0.022": 0.0,
			"0.023": 0.0,
			"0.024": 0.0,
			"0.025": 0.0
		}
	}
}
