{
	 "smiles": "CC1=C(CC(O)=O)C2=C(N1)C=CC(F)=C2", 
	 "Tm": 454.15, 
	 "num_atms": 25, 
	 "gaussian": { 
		 "optdone": 1, 
		 "sigma_profile": "yes", 
		 "theory": "DFT", 
		 "functional": "B3LYP", 
		 "basiset": "6-31G**", 
		 "properties": { 
			 "R2extent": 3659.8728, 
			 "electric_dipole_moment_norm": 2.81428215003, 
			 "electric_quadrupole_moment_norm": 17.0161387894, 
			 "total_energy": -730.261450367, 
			 "HOMO_LUMO_gap": 0.1872, 
			 "cosmo_polarized_energy": -14.62, 
			 "cosmo_cavitation_energy": 30.0, 
			 "cosmo_dispersion_energy": -21.17, 
			 "cosmo_repulsion_energy": 1.64, 
			 "cosmo_total_nonelectrostatic_energy": 10.47, 
			 "SMD_solvation_energy": 6.36 
		},
		"coords": [
			{
				"x": -2.2774815358,
				"y": 1.3958632757,
				"z": -2.4182092322,
				"element": "C" 
			},
			{
				"x": -1.1710097237,
				"y": 1.1492715129,
				"z": -1.442591206,
				"element": "C" 
			},
			{
				"x": -0.5582464797,
				"y": -0.0310368694,
				"z": -1.0718244493,
				"element": "C" 
			},
			{
				"x": -0.8796515603,
				"y": -1.4078835511,
				"z": -1.5989037302,
				"element": "C" 
			},
			{
				"x": -0.239892263,
				"y": -1.635285623,
				"z": -2.956925441,
				"element": "C" 
			},
			{
				"x": 0.9908720778,
				"y": -2.1872701093,
				"z": -2.8557915952,
				"element": "O" 
			},
			{
				"x": -0.7366177708,
				"y": -1.3345847589,
				"z": -4.0222773578,
				"element": "O" 
			},
			{
				"x": 0.4473169123,
				"y": 0.2978254998,
				"z": -0.0963557254,
				"element": "C" 
			},
			{
				"x": 0.3881687179,
				"y": 1.7045392225,
				"z": 0.1040835604,
				"element": "C" 
			},
			{
				"x": -0.6047260962,
				"y": 2.1889295548,
				"z": -0.7268348235,
				"element": "N" 
			},
			{
				"x": 1.230592409,
				"y": 2.3672718953,
				"z": 1.0000406817,
				"element": "C" 
			},
			{
				"x": 2.1528864887,
				"y": 1.605153868,
				"z": 1.709861881,
				"element": "C" 
			},
			{
				"x": 2.2113282629,
				"y": 0.2179860896,
				"z": 1.5072458419,
				"element": "C" 
			},
			{
				"x": 3.1281152423,
				"y": -0.485618489,
				"z": 2.2156623793,
				"element": "F" 
			},
			{
				"x": 1.3886900688,
				"y": -0.4579599614,
				"z": 0.6246682289,
				"element": "C" 
			},
			{
				"x": -2.3582675039,
				"y": 0.5609710991,
				"z": -3.1166693376,
				"element": "H" 
			},
			{
				"x": -2.0884724599,
				"y": 2.2997335102,
				"z": -3.0085848605,
				"element": "H" 
			},
			{
				"x": -3.2446885476,
				"y": 1.5275155534,
				"z": -1.9157078441,
				"element": "H" 
			},
			{
				"x": -1.9576948777,
				"y": -1.5374773173,
				"z": -1.7270006939,
				"element": "H" 
			},
			{
				"x": -0.526562179,
				"y": -2.1681814416,
				"z": -0.8972418626,
				"element": "H" 
			},
			{
				"x": 1.3405391701,
				"y": -2.242233855,
				"z": -3.7614836885,
				"element": "H" 
			},
			{
				"x": -0.8676083444,
				"y": 3.1567839549,
				"z": -0.8196660023,
				"element": "H" 
			},
			{
				"x": 1.1736658981,
				"y": 3.4424193558,
				"z": 1.1432419057,
				"element": "H" 
			},
			{
				"x": 2.8343585003,
				"y": 2.0602803727,
				"z": 2.4197850694,
				"element": "H" 
			},
			{
				"x": 1.4921855937,
				"y": -1.5305127889,
				"z": 0.5006783018,
				"element": "H" 
			}
		],
		 "valence_orbital": [ 
			{
				"type": "occ",
				"energy": -0.31662,
				"method": "rhf"
			},
			{
				"type": "occ",
				"energy": -0.28603,
				"method": "rhf"
			},
			{
				"type": "occ",
				"energy": -0.26766,
				"method": "rhf"
			},
			{
				"type": "occ",
				"energy": -0.21362,
				"method": "rhf"
			},
			{
				"type": "occ",
				"energy": -0.20228,
				"method": "rhf"
			},
			{
				"type": "unocc",
				"energy": -0.01508,
				"method": "rhf"
			},
			{
				"type": "unocc",
				"energy": 0.00857,
				"method": "rhf"
			},
			{
				"type": "unocc",
				"energy": 0.03205,
				"method": "rhf"
			},
			{
				"type": "unocc",
				"energy": 0.06426,
				"method": "rhf"
			},
			{
				"type": "unocc",
				"energy": 0.07608,
				"method": "rhf"
			}
		],
		"cosmo_sigma_profile": { 
			"-0.025": 0.0,
			"-0.024": 0.0,
			"-0.023": 0.0,
			"-0.022": 0.0,
			"-0.021": 0.0,
			"-0.02": 0.0,
			"-0.019": 0.0,
			"-0.018": 0.584238167223,
			"-0.017": 1.28830052928,
			"-0.016": 0.972807664837,
			"-0.015": 1.67033503705,
			"-0.014": 2.49752915294,
			"-0.013": 1.8693509425,
			"-0.012": 1.42717614332,
			"-0.011": 2.07881658789,
			"-0.01": 2.49689638557,
			"-0.009": 1.73699740981,
			"-0.008": 1.88372439567,
			"-0.007": 4.57306736311,
			"-0.006": 10.9568536636,
			"-0.005": 12.7766908125,
			"-0.004": 15.9218945704,
			"-0.003": 15.7420919006,
			"-0.002": 15.0922774634,
			"-0.001": 15.6881829825,
			"0.0": 10.7731172192,
			"0.001": 9.93934629173,
			"0.002": 13.7824378781,
			"0.003": 17.3933143008,
			"0.004": 22.9158378818,
			"0.005": 29.3217480797,
			"0.006": 7.98207711718,
			"0.007": 2.52726967067,
			"0.008": 3.10519143206,
			"0.009": 2.54734734105,
			"0.01": 1.85996985925,
			"0.011": 3.18215428925,
			"0.012": 3.92859879935,
			"0.013": 0.175385715641,
			"0.014": 0.0,
			"0.015": 0.0,
			"0.016": 0.0,
			"0.017": 0.0,
			"0.018": 0.0,
			"0.019": 0.0,
			"0.02": 0.0,
			"0.021": 0.0,
			"0.022": 0.0,
			"0.023": 0.0,
			"0.024": 0.0,
			"0.025": 0.0
		}
	}
}
