{
	 "smiles": "CSC(SC)=C(C#N)C(=O)C1=CC(=CC=C1)C(F)(F)F", 
	 "Tm": 333.15, 
	 "num_atms": 30, 
	 "gaussian": { 
		 "optdone": 1, 
		 "sigma_profile": "yes", 
		 "theory": "DFT", 
		 "functional": "B3LYP", 
		 "basiset": "6-31G**", 
		 "properties": { 
			 "R2extent": 8858.2434, 
			 "electric_dipole_moment_norm": 4.78736908333, 
			 "electric_quadrupole_moment_norm": 31.1058702717, 
			 "total_energy": -1727.241313, 
			 "HOMO_LUMO_gap": 0.14751, 
			 "cosmo_polarized_energy": -14.42, 
			 "cosmo_cavitation_energy": 39.87, 
			 "cosmo_dispersion_energy": -27.74, 
			 "cosmo_repulsion_energy": 2.0, 
			 "cosmo_total_nonelectrostatic_energy": 14.13, 
			 "SMD_solvation_energy": 9.62 
		},
		"coords": [
			{
				"x": 3.4292905519,
				"y": 1.4575989488,
				"z": 1.0229076149,
				"element": "C" 
			},
			{
				"x": 3.4369330101,
				"y": 1.5170209518,
				"z": -0.8062927742,
				"element": "S" 
			},
			{
				"x": 2.6699419864,
				"y": 0.0358917551,
				"z": -1.3404748266,
				"element": "C" 
			},
			{
				"x": 3.4055196821,
				"y": -0.7612398118,
				"z": -2.7343549716,
				"element": "S" 
			},
			{
				"x": 5.1311051974,
				"y": -0.1662311347,
				"z": -2.813603582,
				"element": "C" 
			},
			{
				"x": 1.4988089316,
				"y": -0.5337879567,
				"z": -0.8412399862,
				"element": "C" 
			},
			{
				"x": 1.2337370505,
				"y": -1.8980636061,
				"z": -1.1822979878,
				"element": "C" 
			},
			{
				"x": 1.0347991439,
				"y": -3.0204300091,
				"z": -1.4263704281,
				"element": "N" 
			},
			{
				"x": 0.4757243618,
				"y": 0.2274938031,
				"z": -0.0709309655,
				"element": "C" 
			},
			{
				"x": 0.7066233674,
				"y": 1.3457204441,
				"z": 0.3834338551,
				"element": "O" 
			},
			{
				"x": -0.8961262798,
				"y": -0.3550009359,
				"z": 0.1492672488,
				"element": "C" 
			},
			{
				"x": -1.5259106792,
				"y": -0.0191605757,
				"z": 1.3573123843,
				"element": "C" 
			},
			{
				"x": -2.8153079219,
				"y": -0.4673630243,
				"z": 1.6277540297,
				"element": "C" 
			},
			{
				"x": -3.5091809242,
				"y": -1.2303153348,
				"z": 0.6818594667,
				"element": "C" 
			},
			{
				"x": -2.9016241156,
				"y": -1.5377109229,
				"z": -0.5325000935,
				"element": "C" 
			},
			{
				"x": -1.6004499773,
				"y": -1.1089483443,
				"z": -0.7998093246,
				"element": "C" 
			},
			{
				"x": -3.4963124706,
				"y": -0.081289077,
				"z": 2.9139363688,
				"element": "C" 
			},
			{
				"x": -4.2751879476,
				"y": 1.0138046023,
				"z": 2.7549324266,
				"element": "F" 
			},
			{
				"x": -2.6094711802,
				"y": 0.2030979158,
				"z": 3.8916541323,
				"element": "F" 
			},
			{
				"x": -4.3010396083,
				"y": -1.0689260667,
				"z": 3.3672424182,
				"element": "F" 
			},
			{
				"x": 2.5238928826,
				"y": 1.9154096403,
				"z": 1.4123515158,
				"element": "H" 
			},
			{
				"x": 4.3253847957,
				"y": 2.003135888,
				"z": 1.3273083336,
				"element": "H" 
			},
			{
				"x": 3.5043170587,
				"y": 0.4207052206,
				"z": 1.353759888,
				"element": "H" 
			},
			{
				"x": 5.1948596979,
				"y": 0.8633555583,
				"z": -3.1640398443,
				"element": "H" 
			},
			{
				"x": 5.6245164295,
				"y": -0.2686597639,
				"z": -1.8467353843,
				"element": "H" 
			},
			{
				"x": 5.6084308077,
				"y": -0.8275825283,
				"z": -3.5409474159,
				"element": "H" 
			},
			{
				"x": -0.9932753857,
				"y": 0.5899083199,
				"z": 2.0777011728,
				"element": "H" 
			},
			{
				"x": -4.512474889,
				"y": -1.5802123855,
				"z": 0.9008449539,
				"element": "H" 
			},
			{
				"x": -3.4389136023,
				"y": -2.1182932945,
				"z": -1.2755508308,
				"element": "H" 
			},
			{
				"x": -1.1493099737,
				"y": -1.3569282757,
				"z": -1.7526173939,
				"element": "H" 
			}
		],
		 "valence_orbital": [ 
			{
				"type": "occ",
				"energy": -0.28434,
				"method": "rhf"
			},
			{
				"type": "occ",
				"energy": -0.27219,
				"method": "rhf"
			},
			{
				"type": "occ",
				"energy": -0.26644,
				"method": "rhf"
			},
			{
				"type": "occ",
				"energy": -0.25638,
				"method": "rhf"
			},
			{
				"type": "occ",
				"energy": -0.24197,
				"method": "rhf"
			},
			{
				"type": "unocc",
				"energy": -0.09446,
				"method": "rhf"
			},
			{
				"type": "unocc",
				"energy": -0.04621,
				"method": "rhf"
			},
			{
				"type": "unocc",
				"energy": -0.02759,
				"method": "rhf"
			},
			{
				"type": "unocc",
				"energy": -0.0079,
				"method": "rhf"
			},
			{
				"type": "unocc",
				"energy": 0.01571,
				"method": "rhf"
			}
		],
		"cosmo_sigma_profile": { 
			"-0.025": 0.0,
			"-0.024": 0.0,
			"-0.023": 0.0,
			"-0.022": 0.0,
			"-0.021": 0.0,
			"-0.02": 0.0,
			"-0.019": 0.0,
			"-0.018": 0.0,
			"-0.017": 0.0,
			"-0.016": 0.0,
			"-0.015": 0.0,
			"-0.014": 0.0,
			"-0.013": 0.0,
			"-0.012": 0.0,
			"-0.011": 0.0,
			"-0.01": 0.0,
			"-0.009": 0.255984979064,
			"-0.008": 3.89311423372,
			"-0.007": 14.499618235,
			"-0.006": 19.4126368431,
			"-0.005": 19.5725417332,
			"-0.004": 23.3429782057,
			"-0.003": 26.4835828452,
			"-0.002": 24.882328636,
			"-0.001": 20.7218157889,
			"0.0": 20.2836503511,
			"0.001": 24.9998158807,
			"0.002": 37.644781138,
			"0.003": 38.4045207557,
			"0.004": 8.60477082623,
			"0.005": 7.25863002993,
			"0.006": 5.91971998977,
			"0.007": 3.94878971303,
			"0.008": 4.66257126543,
			"0.009": 4.48520780691,
			"0.01": 4.68970897304,
			"0.011": 4.85320735761,
			"0.012": 3.08930939887,
			"0.013": 1.91481585599,
			"0.014": 0.120403005924,
			"0.015": 0.0,
			"0.016": 0.0,
			"0.017": 0.0,
			"0.018": 0.0,
			"0.019": 0.0,
			"0.02": 0.0,
			"0.021": 0.0,
			"0.022": 0.0,
			"0.023": 0.0,
			"0.024": 0.0,
			"0.025": 0.0
		}
	}
}
