{
	 "smiles": "CC1=CC(O)=CC(C)=C1Br", 
	 "Tm": 388.15, 
	 "num_atms": 19, 
	 "gaussian": { 
		 "optdone": 1, 
		 "sigma_profile": "yes", 
		 "theory": "DFT", 
		 "functional": "B3LYP", 
		 "basiset": "6-31G**", 
		 "properties": { 
			 "R2extent": 3860.0499, 
			 "electric_dipole_moment_norm": 1.93692939985, 
			 "electric_quadrupole_moment_norm": 6.7980127052, 
			 "total_energy": -2956.91445005, 
			 "HOMO_LUMO_gap": 0.21172, 
			 "cosmo_polarized_energy": -8.08, 
			 "cosmo_cavitation_energy": 24.26, 
			 "cosmo_dispersion_energy": -18.33, 
			 "cosmo_repulsion_energy": 1.47, 
			 "cosmo_total_nonelectrostatic_energy": 7.4, 
			 "SMD_solvation_energy": 3.6 
		},
		"coords": [
			{
				"x": 1.7027824403,
				"y": -3.5969010615,
				"z": -1.0200407853,
				"element": "C" 
			},
			{
				"x": 1.2228040408,
				"y": -2.3019542458,
				"z": -0.4151987364,
				"element": "C" 
			},
			{
				"x": -0.0335429962,
				"y": -2.2430908297,
				"z": 0.1929905834,
				"element": "C" 
			},
			{
				"x": -0.5008317669,
				"y": -1.0564419858,
				"z": 0.7602532882,
				"element": "C" 
			},
			{
				"x": -1.7393795706,
				"y": -1.0796074118,
				"z": 1.3360845101,
				"element": "O" 
			},
			{
				"x": 0.2917861772,
				"y": 0.0915405154,
				"z": 0.7235793428,
				"element": "C" 
			},
			{
				"x": 1.5568006387,
				"y": 0.0764130816,
				"z": 0.1241158005,
				"element": "C" 
			},
			{
				"x": 2.3907064959,
				"y": 1.3322200053,
				"z": 0.0996802772,
				"element": "C" 
			},
			{
				"x": 1.9975638337,
				"y": -1.1302930869,
				"z": -0.4365923728,
				"element": "C" 
			},
			{
				"x": 3.7315370375,
				"y": -1.1827571218,
				"z": -1.2676311965,
				"element": "Br" 
			},
			{
				"x": 1.9117582674,
				"y": -3.4820997078,
				"z": -2.0888504976,
				"element": "H" 
			},
			{
				"x": 0.952887606,
				"y": -4.3818648726,
				"z": -0.8969667927,
				"element": "H" 
			},
			{
				"x": 2.6346304089,
				"y": -3.9317621487,
				"z": -0.5523573699,
				"element": "H" 
			},
			{
				"x": -0.6647786249,
				"y": -3.1248100227,
				"z": 0.2317666189,
				"element": "H" 
			},
			{
				"x": -1.9413471285,
				"y": -0.2030277957,
				"z": 1.6879362539,
				"element": "H" 
			},
			{
				"x": -0.0724002575,
				"y": 1.0167945075,
				"z": 1.1658626522,
				"element": "H" 
			},
			{
				"x": 1.865471907,
				"y": 2.1567537187,
				"z": 0.5882372222,
				"element": "H" 
			},
			{
				"x": 3.3482287046,
				"y": 1.1826238618,
				"z": 0.6094434923,
				"element": "H" 
			},
			{
				"x": 2.6256227865,
				"y": 1.6325646006,
				"z": -0.9268122906,
				"element": "H" 
			}
		],
		 "valence_orbital": [ 
			{
				"type": "occ",
				"energy": -0.33599,
				"method": "rhf"
			},
			{
				"type": "occ",
				"energy": -0.29084,
				"method": "rhf"
			},
			{
				"type": "occ",
				"energy": -0.27913,
				"method": "rhf"
			},
			{
				"type": "occ",
				"energy": -0.24604,
				"method": "rhf"
			},
			{
				"type": "occ",
				"energy": -0.21546,
				"method": "rhf"
			},
			{
				"type": "unocc",
				"energy": -0.00374,
				"method": "rhf"
			},
			{
				"type": "unocc",
				"energy": 0.00391,
				"method": "rhf"
			},
			{
				"type": "unocc",
				"energy": 0.01615,
				"method": "rhf"
			},
			{
				"type": "unocc",
				"energy": 0.06918,
				"method": "rhf"
			},
			{
				"type": "unocc",
				"energy": 0.10162,
				"method": "rhf"
			}
		],
		"cosmo_sigma_profile": { 
			"-0.025": 0.0,
			"-0.024": 0.0,
			"-0.023": 0.0,
			"-0.022": 0.0,
			"-0.021": 0.0,
			"-0.02": 0.0,
			"-0.019": 0.0,
			"-0.018": 0.426424262331,
			"-0.017": 1.38158668548,
			"-0.016": 0.742127483094,
			"-0.015": 1.21650087701,
			"-0.014": 1.13602238765,
			"-0.013": 0.662328607022,
			"-0.012": 0.350082483416,
			"-0.011": 0.780906963264,
			"-0.01": 1.84691529022,
			"-0.009": 1.29164562278,
			"-0.008": 0.931586723142,
			"-0.007": 1.42927242574,
			"-0.006": 4.32340707379,
			"-0.005": 7.2330230008,
			"-0.004": 11.8459825871,
			"-0.003": 13.2880121478,
			"-0.002": 14.8803693784,
			"-0.001": 19.3872880031,
			"0.0": 20.8173735424,
			"0.001": 13.9058129378,
			"0.002": 13.0195001265,
			"0.003": 16.4447200005,
			"0.004": 24.476648884,
			"0.005": 11.841199985,
			"0.006": 3.17801798571,
			"0.007": 0.976858978311,
			"0.008": 0.87681816798,
			"0.009": 2.14890841991,
			"0.01": 1.6159274592,
			"0.011": 1.72588986063,
			"0.012": 0.661562414909,
			"0.013": 0.0,
			"0.014": 0.0,
			"0.015": 0.0,
			"0.016": 0.0,
			"0.017": 0.0,
			"0.018": 0.0,
			"0.019": 0.0,
			"0.02": 0.0,
			"0.021": 0.0,
			"0.022": 0.0,
			"0.023": 0.0,
			"0.024": 0.0,
			"0.025": 0.0
		}
	}
}
