{
	 "smiles": "CC(C)OC1=C(Cl)C=C(C=C1)S(Cl)(=O)=O", 
	 "Tm": 369.15, 
	 "num_atms": 25, 
	 "gaussian": { 
		 "optdone": 1, 
		 "sigma_profile": "yes", 
		 "theory": "DFT", 
		 "functional": "B3LYP", 
		 "basiset": "6-31G**", 
		 "properties": { 
			 "R2extent": 7374.7143, 
			 "electric_dipole_moment_norm": 7.23902560846, 
			 "electric_quadrupole_moment_norm": 19.7171485984, 
			 "total_energy": -1893.16144173, 
			 "HOMO_LUMO_gap": 0.16745, 
			 "cosmo_polarized_energy": -11.51, 
			 "cosmo_cavitation_energy": 34.11, 
			 "cosmo_dispersion_energy": -24.79, 
			 "cosmo_repulsion_energy": 1.93, 
			 "cosmo_total_nonelectrostatic_energy": 11.25, 
			 "SMD_solvation_energy": 4.66 
		},
		"coords": [
			{
				"x": -1.6241389709,
				"y": -1.454792713,
				"z": -2.466593485,
				"element": "C" 
			},
			{
				"x": -0.8618959268,
				"y": -1.5887949966,
				"z": -1.1547976884,
				"element": "C" 
			},
			{
				"x": -1.4601129758,
				"y": -2.6392482132,
				"z": -0.2217739986,
				"element": "C" 
			},
			{
				"x": -0.9297318894,
				"y": -0.2775355321,
				"z": -0.5372713793,
				"element": "O" 
			},
			{
				"x": -0.0310935828,
				"y": 0.1160803155,
				"z": 0.3793456098,
				"element": "C" 
			},
			{
				"x": -0.2178865698,
				"y": 1.4108272775,
				"z": 0.9250064696,
				"element": "C" 
			},
			{
				"x": -1.5782165996,
				"y": 2.3710051413,
				"z": 0.403082839,
				"element": "Cl" 
			},
			{
				"x": 0.6597127118,
				"y": 1.925695536,
				"z": 1.8658954269,
				"element": "C" 
			},
			{
				"x": 1.7400075912,
				"y": 1.1397564263,
				"z": 2.2773684238,
				"element": "C" 
			},
			{
				"x": 1.9535849368,
				"y": -0.1375352679,
				"z": 1.7638242466,
				"element": "C" 
			},
			{
				"x": 1.0653463603,
				"y": -0.6454662948,
				"z": 0.8214786626,
				"element": "C" 
			},
			{
				"x": 2.8620104334,
				"y": 1.788058107,
				"z": 3.491483992,
				"element": "S" 
			},
			{
				"x": 4.3111425757,
				"y": 2.775493804,
				"z": 2.2659073559,
				"element": "Cl" 
			},
			{
				"x": 3.569134477,
				"y": 0.6858343508,
				"z": 4.132412888,
				"element": "O" 
			},
			{
				"x": 2.2006395484,
				"y": 2.8410245679,
				"z": 4.2520501892,
				"element": "O" 
			},
			{
				"x": -2.6659103668,
				"y": -1.1809039354,
				"z": -2.27589773,
				"element": "H" 
			},
			{
				"x": -1.6075715886,
				"y": -2.4049447818,
				"z": -3.0085022808,
				"element": "H" 
			},
			{
				"x": -1.1741791242,
				"y": -0.6846823763,
				"z": -3.0980977422,
				"element": "H" 
			},
			{
				"x": 0.1889746979,
				"y": -1.8175941684,
				"z": -1.371659959,
				"element": "H" 
			},
			{
				"x": -2.5084095968,
				"y": -2.4036363671,
				"z": -0.0157742925,
				"element": "H" 
			},
			{
				"x": -1.4132302434,
				"y": -3.6273233612,
				"z": -0.6900232302,
				"element": "H" 
			},
			{
				"x": -0.9275800739,
				"y": -2.6900641752,
				"z": 0.7316636529,
				"element": "H" 
			},
			{
				"x": 0.5015982763,
				"y": 2.9140760412,
				"z": 2.2805984466,
				"element": "H" 
			},
			{
				"x": 2.7936503899,
				"y": -0.7306949083,
				"z": 2.1063747329,
				"element": "H" 
			},
			{
				"x": 1.22655551,
				"y": -1.6432344762,
				"z": 0.4344988501,
				"element": "H" 
			}
		],
		 "valence_orbital": [ 
			{
				"type": "occ",
				"energy": -0.32542,
				"method": "rhf"
			},
			{
				"type": "occ",
				"energy": -0.32218,
				"method": "rhf"
			},
			{
				"type": "occ",
				"energy": -0.30998,
				"method": "rhf"
			},
			{
				"type": "occ",
				"energy": -0.28198,
				"method": "rhf"
			},
			{
				"type": "occ",
				"energy": -0.25452,
				"method": "rhf"
			},
			{
				"type": "unocc",
				"energy": -0.08707,
				"method": "rhf"
			},
			{
				"type": "unocc",
				"energy": -0.04309,
				"method": "rhf"
			},
			{
				"type": "unocc",
				"energy": -0.03683,
				"method": "rhf"
			},
			{
				"type": "unocc",
				"energy": 0.01214,
				"method": "rhf"
			},
			{
				"type": "unocc",
				"energy": 0.05936,
				"method": "rhf"
			}
		],
		"cosmo_sigma_profile": { 
			"-0.025": 0.0,
			"-0.024": 0.0,
			"-0.023": 0.0,
			"-0.022": 0.0,
			"-0.021": 0.0,
			"-0.02": 0.0,
			"-0.019": 0.0,
			"-0.018": 0.0,
			"-0.017": 0.0,
			"-0.016": 0.0,
			"-0.015": 0.0,
			"-0.014": 0.0,
			"-0.013": 0.0,
			"-0.012": 0.0,
			"-0.011": 0.0,
			"-0.01": 0.19417051954,
			"-0.009": 3.43124068789,
			"-0.008": 5.72914587451,
			"-0.007": 6.3709343278,
			"-0.006": 7.51877963616,
			"-0.005": 11.8679032222,
			"-0.004": 20.327834225,
			"-0.003": 21.2664683931,
			"-0.002": 23.2130536528,
			"-0.001": 32.3402222715,
			"0.0": 33.5235610023,
			"0.001": 18.9064057522,
			"0.002": 15.5488390121,
			"0.003": 19.5377536456,
			"0.004": 20.0227025002,
			"0.005": 5.98655787876,
			"0.006": 6.03917185988,
			"0.007": 7.40085049125,
			"0.008": 11.1418593495,
			"0.009": 6.17466583693,
			"0.01": 0.0529635507559,
			"0.011": 0.0,
			"0.012": 0.0,
			"0.013": 0.0,
			"0.014": 0.0,
			"0.015": 0.0,
			"0.016": 0.0,
			"0.017": 0.0,
			"0.018": 0.0,
			"0.019": 0.0,
			"0.02": 0.0,
			"0.021": 0.0,
			"0.022": 0.0,
			"0.023": 0.0,
			"0.024": 0.0,
			"0.025": 0.0
		}
	}
}
