{
	 "smiles": "OC1=NC=NC(=C1)C1CC1", 
	 "Tm": 462.15, 
	 "num_atms": 18, 
	 "gaussian": { 
		 "optdone": 1, 
		 "sigma_profile": "yes", 
		 "theory": "DFT", 
		 "functional": "B3LYP", 
		 "basiset": "6-31G**", 
		 "properties": { 
			 "R2extent": 2079.8366, 
			 "electric_dipole_moment_norm": 1.02230628483, 
			 "electric_quadrupole_moment_norm": 6.49553913852, 
			 "total_energy": -456.274285911, 
			 "HOMO_LUMO_gap": 0.2304, 
			 "cosmo_polarized_energy": -8.03, 
			 "cosmo_cavitation_energy": 21.89, 
			 "cosmo_dispersion_energy": -16.48, 
			 "cosmo_repulsion_energy": 1.34, 
			 "cosmo_total_nonelectrostatic_energy": 6.75, 
			 "SMD_solvation_energy": 1.8 
		},
		"coords": [
			{
				"x": -1.2398973654,
				"y": 2.7270849412,
				"z": 1.3527450579,
				"element": "O" 
			},
			{
				"x": -0.145651236,
				"y": 1.9444195246,
				"z": 1.3498906684,
				"element": "C" 
			},
			{
				"x": 0.9667840463,
				"y": 2.4367744153,
				"z": 1.8972800855,
				"element": "N" 
			},
			{
				"x": 2.0289777106,
				"y": 1.621321164,
				"z": 1.8705211323,
				"element": "C" 
			},
			{
				"x": 2.0916466384,
				"y": 0.3947889315,
				"z": 1.3654611387,
				"element": "N" 
			},
			{
				"x": 0.9537229194,
				"y": -0.0898732453,
				"z": 0.8138022331,
				"element": "C" 
			},
			{
				"x": -0.2151375563,
				"y": 0.6679426181,
				"z": 0.7836607131,
				"element": "C" 
			},
			{
				"x": 0.999550285,
				"y": -1.4565586419,
				"z": 0.2442840636,
				"element": "C" 
			},
			{
				"x": 1.8754052316,
				"y": -2.5121597038,
				"z": 0.9027936812,
				"element": "C" 
			},
			{
				"x": 2.2771224369,
				"y": -1.9470506124,
				"z": -0.4206921431,
				"element": "C" 
			},
			{
				"x": -0.9767178645,
				"y": 3.5552959784,
				"z": 1.7865526633,
				"element": "H" 
			},
			{
				"x": 2.942210071,
				"y": 2.013886182,
				"z": 2.3149253985,
				"element": "H" 
			},
			{
				"x": -1.1371465596,
				"y": 0.3014936808,
				"z": 0.3482204047,
				"element": "H" 
			},
			{
				"x": 0.0626540923,
				"y": -1.798425022,
				"z": -0.1858667509,
				"element": "H" 
			},
			{
				"x": 1.4818647002,
				"y": -3.5230392193,
				"z": 0.9466634043,
				"element": "H" 
			},
			{
				"x": 2.435871546,
				"y": -2.189847372,
				"z": 1.7738696822,
				"element": "H" 
			},
			{
				"x": 2.1677575703,
				"y": -2.5592566017,
				"z": -1.3105589153,
				"element": "H" 
			},
			{
				"x": 3.1055833336,
				"y": -1.2467970176,
				"z": -0.4330525175,
				"element": "H" 
			}
		],
		 "valence_orbital": [ 
			{
				"type": "occ",
				"energy": -0.30524,
				"method": "rhf"
			},
			{
				"type": "occ",
				"energy": -0.30119,
				"method": "rhf"
			},
			{
				"type": "occ",
				"energy": -0.26929,
				"method": "rhf"
			},
			{
				"type": "occ",
				"energy": -0.259,
				"method": "rhf"
			},
			{
				"type": "occ",
				"energy": -0.25539,
				"method": "rhf"
			},
			{
				"type": "unocc",
				"energy": -0.02499,
				"method": "rhf"
			},
			{
				"type": "unocc",
				"energy": -0.01365,
				"method": "rhf"
			},
			{
				"type": "unocc",
				"energy": 0.08346,
				"method": "rhf"
			},
			{
				"type": "unocc",
				"energy": 0.09243,
				"method": "rhf"
			},
			{
				"type": "unocc",
				"energy": 0.12695,
				"method": "rhf"
			}
		],
		"cosmo_sigma_profile": { 
			"-0.025": 0.0,
			"-0.024": 0.0,
			"-0.023": 0.0,
			"-0.022": 0.0,
			"-0.021": 0.0,
			"-0.02": 0.0,
			"-0.019": 0.0,
			"-0.018": 0.237907185005,
			"-0.017": 0.686415909126,
			"-0.016": 0.643925697444,
			"-0.015": 1.33282046224,
			"-0.014": 0.651769876772,
			"-0.013": 0.111901581065,
			"-0.012": 0.411717290203,
			"-0.011": 0.612815602299,
			"-0.01": 1.66112705619,
			"-0.009": 0.343084914365,
			"-0.008": 0.960792672,
			"-0.007": 5.21816871663,
			"-0.006": 6.20462663335,
			"-0.005": 9.48462185091,
			"-0.004": 13.4225116103,
			"-0.003": 9.82678814054,
			"-0.002": 10.2319146362,
			"-0.001": 15.2735380167,
			"0.0": 16.8432997045,
			"0.001": 18.749138485,
			"0.002": 15.2417792386,
			"0.003": 10.7652524703,
			"0.004": 8.1297383378,
			"0.005": 4.83827262638,
			"0.006": 3.84246356363,
			"0.007": 3.69385876334,
			"0.008": 3.6797886592,
			"0.009": 3.91197353419,
			"0.01": 2.50201736221,
			"0.011": 1.90697520899,
			"0.012": 1.48722232066,
			"0.013": 1.04340272138,
			"0.014": 0.422983012605,
			"0.015": 0.0,
			"0.016": 0.0,
			"0.017": 0.0,
			"0.018": 0.0,
			"0.019": 0.0,
			"0.02": 0.0,
			"0.021": 0.0,
			"0.022": 0.0,
			"0.023": 0.0,
			"0.024": 0.0,
			"0.025": 0.0
		}
	}
}
