{
	 "smiles": "ClCC1=CSC2=CC=C(Br)C=C12", 
	 "Tm": 380.15, 
	 "num_atms": 18, 
	 "gaussian": { 
		 "optdone": 1, 
		 "sigma_profile": "yes", 
		 "theory": "DFT", 
		 "functional": "B3LYP", 
		 "basiset": "6-31G**", 
		 "properties": { 
			 "R2extent": 5126.3814, 
			 "electric_dipole_moment_norm": 2.89462008733, 
			 "electric_quadrupole_moment_norm": 9.12350366142, 
			 "total_energy": -3776.36349643, 
			 "HOMO_LUMO_gap": 0.18486, 
			 "cosmo_polarized_energy": -8.04, 
			 "cosmo_cavitation_energy": 27.8, 
			 "cosmo_dispersion_energy": -21.26, 
			 "cosmo_repulsion_energy": 1.65, 
			 "cosmo_total_nonelectrostatic_energy": 8.19, 
			 "SMD_solvation_energy": 2.8 
		},
		"coords": [
			{
				"x": -1.9839186076,
				"y": 2.0673897481,
				"z": -0.3448436762,
				"element": "Cl" 
			},
			{
				"x": -1.3728496772,
				"y": 0.484524326,
				"z": -1.0546080064,
				"element": "C" 
			},
			{
				"x": 0.072298187,
				"y": 0.2476954768,
				"z": -0.7810456554,
				"element": "C" 
			},
			{
				"x": 1.0424878798,
				"y": 0.3370154736,
				"z": -1.7344847098,
				"element": "C" 
			},
			{
				"x": 2.6431962984,
				"y": -0.0323594238,
				"z": -1.1524106191,
				"element": "S" 
			},
			{
				"x": 2.0148181255,
				"y": -0.3243823319,
				"z": 0.4616697844,
				"element": "C" 
			},
			{
				"x": 2.7397933853,
				"y": -0.7044142548,
				"z": 1.5950437715,
				"element": "C" 
			},
			{
				"x": 2.0588055898,
				"y": -0.8925100036,
				"z": 2.7916465436,
				"element": "C" 
			},
			{
				"x": 0.6688133184,
				"y": -0.6966747199,
				"z": 2.8422602935,
				"element": "C" 
			},
			{
				"x": -0.2335649813,
				"y": -0.9601007352,
				"z": 4.5072975333,
				"element": "Br" 
			},
			{
				"x": -0.0628168767,
				"y": -0.3176756535,
				"z": 1.7278607108,
				"element": "C" 
			},
			{
				"x": 0.6140238741,
				"y": -0.1301095157,
				"z": 0.5090079312,
				"element": "C" 
			},
			{
				"x": -2.0057001074,
				"y": -0.2858813776,
				"z": -0.6113274624,
				"element": "H" 
			},
			{
				"x": -1.574713013,
				"y": 0.5420474788,
				"z": -2.1235385519,
				"element": "H" 
			},
			{
				"x": 0.9074695375,
				"y": 0.6042101905,
				"z": -2.7746410265,
				"element": "H" 
			},
			{
				"x": 3.8141639731,
				"y": -0.8519146887,
				"z": 1.5499520737,
				"element": "H" 
			},
			{
				"x": 2.5944531232,
				"y": -1.1869353056,
				"z": 3.6864465568,
				"element": "H" 
			},
			{
				"x": -1.131860029,
				"y": -0.1557246835,
				"z": 1.8007145088,
				"element": "H" 
			}
		],
		 "valence_orbital": [ 
			{
				"type": "occ",
				"energy": -0.29917,
				"method": "rhf"
			},
			{
				"type": "occ",
				"energy": -0.28931,
				"method": "rhf"
			},
			{
				"type": "occ",
				"energy": -0.28788,
				"method": "rhf"
			},
			{
				"type": "occ",
				"energy": -0.24377,
				"method": "rhf"
			},
			{
				"type": "occ",
				"energy": -0.23203,
				"method": "rhf"
			},
			{
				"type": "unocc",
				"energy": -0.04717,
				"method": "rhf"
			},
			{
				"type": "unocc",
				"energy": -0.01985,
				"method": "rhf"
			},
			{
				"type": "unocc",
				"energy": -0.00811,
				"method": "rhf"
			},
			{
				"type": "unocc",
				"energy": 8e-05,
				"method": "rhf"
			},
			{
				"type": "unocc",
				"energy": 0.01484,
				"method": "rhf"
			}
		],
		"cosmo_sigma_profile": { 
			"-0.025": 0.0,
			"-0.024": 0.0,
			"-0.023": 0.0,
			"-0.022": 0.0,
			"-0.021": 0.0,
			"-0.02": 0.0,
			"-0.019": 0.0,
			"-0.018": 0.0,
			"-0.017": 0.0,
			"-0.016": 0.0,
			"-0.015": 0.0,
			"-0.014": 0.0,
			"-0.013": 0.0,
			"-0.012": 0.0,
			"-0.011": 0.0,
			"-0.01": 0.754863265737,
			"-0.009": 3.65080607394,
			"-0.008": 8.69251333139,
			"-0.007": 11.930730916,
			"-0.006": 10.4324361645,
			"-0.005": 10.3799947811,
			"-0.004": 11.0980321655,
			"-0.003": 9.69600519742,
			"-0.002": 9.75463516559,
			"-0.001": 10.7921674929,
			"0.0": 14.0241296842,
			"0.001": 21.2577284855,
			"0.002": 32.0972887556,
			"0.003": 29.0012673306,
			"0.004": 20.8977224479,
			"0.005": 13.5862151032,
			"0.006": 8.94919750269,
			"0.007": 4.29392953125,
			"0.008": 0.0,
			"0.009": 0.0,
			"0.01": 0.0,
			"0.011": 0.0,
			"0.012": 0.0,
			"0.013": 0.0,
			"0.014": 0.0,
			"0.015": 0.0,
			"0.016": 0.0,
			"0.017": 0.0,
			"0.018": 0.0,
			"0.019": 0.0,
			"0.02": 0.0,
			"0.021": 0.0,
			"0.022": 0.0,
			"0.023": 0.0,
			"0.024": 0.0,
			"0.025": 0.0
		}
	}
}
