{
	 "smiles": "NNC(=S)NCC=C", 
	 "Tm": 367.65, 
	 "num_atms": 17, 
	 "gaussian": { 
		 "optdone": 1, 
		 "sigma_profile": "yes", 
		 "theory": "DFT", 
		 "functional": "B3LYP", 
		 "basiset": "6-31G**", 
		 "properties": { 
			 "R2extent": 2836.714, 
			 "electric_dipole_moment_norm": 5.74246627417, 
			 "electric_quadrupole_moment_norm": 28.8575519246, 
			 "total_energy": -720.249475523, 
			 "HOMO_LUMO_gap": 0.20161, 
			 "cosmo_polarized_energy": -17.91, 
			 "cosmo_cavitation_energy": 22.67, 
			 "cosmo_dispersion_energy": -16.93, 
			 "cosmo_repulsion_energy": 1.42, 
			 "cosmo_total_nonelectrostatic_energy": 7.16, 
			 "SMD_solvation_energy": 4.06 
		},
		"coords": [
			{
				"x": 1.0135354735,
				"y": 2.8676199865,
				"z": -0.6045940036,
				"element": "N" 
			},
			{
				"x": 0.5795883161,
				"y": 2.645837727,
				"z": -1.9201937746,
				"element": "N" 
			},
			{
				"x": -0.2992131024,
				"y": 1.6301634,
				"z": -2.2158774578,
				"element": "C" 
			},
			{
				"x": -0.6375181499,
				"y": 1.287997735,
				"z": -3.8323005803,
				"element": "S" 
			},
			{
				"x": -0.817819896,
				"y": 1.0078291411,
				"z": -1.1396031831,
				"element": "N" 
			},
			{
				"x": -1.8248932328,
				"y": -0.0447343823,
				"z": -1.1709552619,
				"element": "C" 
			},
			{
				"x": -3.0996673756,
				"y": 0.3835535426,
				"z": -0.4937469022,
				"element": "C" 
			},
			{
				"x": -3.6481848277,
				"y": -0.2492704039,
				"z": 0.5432818868,
				"element": "C" 
			},
			{
				"x": 0.8900226858,
				"y": 3.8464745193,
				"z": -0.3602581262,
				"element": "H" 
			},
			{
				"x": 1.9952365519,
				"y": 2.6187420788,
				"z": -0.4985839029,
				"element": "H" 
			},
			{
				"x": 1.0797903816,
				"y": 3.0282024884,
				"z": -2.7129425616,
				"element": "H" 
			},
			{
				"x": -0.5008614984,
				"y": 1.3631349273,
				"z": -0.2434138355,
				"element": "H" 
			},
			{
				"x": -1.9999874671,
				"y": -0.2702165381,
				"z": -2.2278591562,
				"element": "H" 
			},
			{
				"x": -1.4262812318,
				"y": -0.9485296095,
				"z": -0.6928898944,
				"element": "H" 
			},
			{
				"x": -3.5773149096,
				"y": 1.2689458418,
				"z": -0.9118277495,
				"element": "H" 
			},
			{
				"x": -4.5811769932,
				"y": 0.0829873674,
				"z": 0.9884918788,
				"element": "H" 
			},
			{
				"x": -3.1882547244,
				"y": -1.1339378215,
				"z": 0.9785726241,
				"element": "H" 
			}
		],
		 "valence_orbital": [ 
			{
				"type": "occ",
				"energy": -0.3009,
				"method": "rhf"
			},
			{
				"type": "occ",
				"energy": -0.27232,
				"method": "rhf"
			},
			{
				"type": "occ",
				"energy": -0.25495,
				"method": "rhf"
			},
			{
				"type": "occ",
				"energy": -0.20372,
				"method": "rhf"
			},
			{
				"type": "occ",
				"energy": -0.19828,
				"method": "rhf"
			},
			{
				"type": "unocc",
				"energy": 0.00333,
				"method": "rhf"
			},
			{
				"type": "unocc",
				"energy": 0.02326,
				"method": "rhf"
			},
			{
				"type": "unocc",
				"energy": 0.05278,
				"method": "rhf"
			},
			{
				"type": "unocc",
				"energy": 0.09281,
				"method": "rhf"
			},
			{
				"type": "unocc",
				"energy": 0.11555,
				"method": "rhf"
			}
		],
		"cosmo_sigma_profile": { 
			"-0.025": 0.0,
			"-0.024": 0.0,
			"-0.023": 0.0,
			"-0.022": 0.0,
			"-0.021": 0.0,
			"-0.02": 0.0,
			"-0.019": 0.0,
			"-0.018": 0.0,
			"-0.017": 0.0,
			"-0.016": 0.0,
			"-0.015": 0.0,
			"-0.014": 0.416445985339,
			"-0.013": 2.75367106088,
			"-0.012": 4.76503594166,
			"-0.011": 5.17288923035,
			"-0.01": 5.31655148714,
			"-0.009": 4.51837075253,
			"-0.008": 3.7598882507,
			"-0.007": 2.85116402775,
			"-0.006": 3.14409486167,
			"-0.005": 11.7748184579,
			"-0.004": 10.8677301636,
			"-0.003": 10.9296521307,
			"-0.002": 12.2546765865,
			"-0.001": 11.1844274264,
			"0.0": 11.2145013301,
			"0.001": 8.88342610738,
			"0.002": 8.67237987696,
			"0.003": 8.82704004415,
			"0.004": 8.2279926907,
			"0.005": 6.5346496997,
			"0.006": 6.33812290985,
			"0.007": 4.40089915535,
			"0.008": 3.75722096211,
			"0.009": 3.18462134628,
			"0.01": 5.1104804807,
			"0.011": 6.54568142535,
			"0.012": 7.80765880883,
			"0.013": 1.92053021938,
			"0.014": 0.0,
			"0.015": 0.0,
			"0.016": 0.0,
			"0.017": 0.0,
			"0.018": 0.0,
			"0.019": 0.0,
			"0.02": 0.0,
			"0.021": 0.0,
			"0.022": 0.0,
			"0.023": 0.0,
			"0.024": 0.0,
			"0.025": 0.0
		}
	}
}
