{
	 "smiles": "CSC1=NC2=C(N1)C=CC(NCC1=CC=C3OCOC3=C1)=C2", 
	 "Tm": 420.15, 
	 "num_atms": 37, 
	 "gaussian": { 
		 "optdone": 1, 
		 "sigma_profile": "yes", 
		 "theory": "DFT", 
		 "functional": "B3LYP", 
		 "basiset": "6-31G**", 
		 "properties": { 
			 "R2extent": 12844.0981, 
			 "electric_dipole_moment_norm": 0.833803819852, 
			 "electric_quadrupole_moment_norm": 6.74176768511, 
			 "total_energy": -1331.61417867, 
			 "HOMO_LUMO_gap": 0.17547, 
			 "cosmo_polarized_energy": -18.48, 
			 "cosmo_cavitation_energy": 42.73, 
			 "cosmo_dispersion_energy": -31.84, 
			 "cosmo_repulsion_energy": 2.39, 
			 "cosmo_total_nonelectrostatic_energy": 13.28, 
			 "SMD_solvation_energy": 5.39 
		},
		"coords": [
			{
				"x": -3.1234522199,
				"y": 1.4303702906,
				"z": 7.2057112647,
				"element": "C" 
			},
			{
				"x": -2.172202071,
				"y": -0.1257168781,
				"z": 7.1202687929,
				"element": "S" 
			},
			{
				"x": -1.8430863116,
				"y": -0.1568342237,
				"z": 5.3875671463,
				"element": "C" 
			},
			{
				"x": -2.2379504853,
				"y": 0.7332929822,
				"z": 4.5094603699,
				"element": "N" 
			},
			{
				"x": -1.7355178285,
				"y": 0.2760918596,
				"z": 3.2937495512,
				"element": "C" 
			},
			{
				"x": -1.0218626552,
				"y": -0.9311059349,
				"z": 3.4763194492,
				"element": "C" 
			},
			{
				"x": -1.1087093577,
				"y": -1.1863378126,
				"z": 4.8427262784,
				"element": "N" 
			},
			{
				"x": -0.421719715,
				"y": -1.5954038452,
				"z": 2.4126276966,
				"element": "C" 
			},
			{
				"x": -0.546680174,
				"y": -1.030335119,
				"z": 1.1431450791,
				"element": "C" 
			},
			{
				"x": -1.2582260602,
				"y": 0.1764479349,
				"z": 0.9342721058,
				"element": "C" 
			},
			{
				"x": -1.3514390041,
				"y": 0.7523662515,
				"z": -0.3444627059,
				"element": "N" 
			},
			{
				"x": -1.1977105996,
				"y": -0.0466271277,
				"z": -1.5522765934,
				"element": "C" 
			},
			{
				"x": 0.2448258729,
				"y": -0.2369601535,
				"z": -2.0059270417,
				"element": "C" 
			},
			{
				"x": 0.6073981003,
				"y": -1.3938857306,
				"z": -2.7013872423,
				"element": "C" 
			},
			{
				"x": 1.9089160428,
				"y": -1.586112472,
				"z": -3.2023797632,
				"element": "C" 
			},
			{
				"x": 2.8186369063,
				"y": -0.5745379601,
				"z": -2.9711191008,
				"element": "C" 
			},
			{
				"x": 4.1492024086,
				"y": -0.5197444745,
				"z": -3.3171776801,
				"element": "O" 
			},
			{
				"x": 4.5870268873,
				"y": 0.7945524092,
				"z": -2.9540574915,
				"element": "C" 
			},
			{
				"x": 3.5644764335,
				"y": 1.3997647797,
				"z": -2.1565713951,
				"element": "O" 
			},
			{
				"x": 2.46632019,
				"y": 0.5785273715,
				"z": -2.2720381652,
				"element": "C" 
			},
			{
				"x": 1.1950326211,
				"y": 0.7800927602,
				"z": -1.7768622976,
				"element": "C" 
			},
			{
				"x": -1.8570050357,
				"y": 0.8331341172,
				"z": 2.0200907953,
				"element": "C" 
			},
			{
				"x": -3.3929578697,
				"y": 1.5586489693,
				"z": 8.255664818,
				"element": "H" 
			},
			{
				"x": -2.5103142909,
				"y": 2.264250924,
				"z": 6.8646801106,
				"element": "H" 
			},
			{
				"x": -4.0183299692,
				"y": 1.3570870489,
				"z": 6.588213165,
				"element": "H" 
			},
			{
				"x": -0.7084446382,
				"y": -1.9642420425,
				"z": 5.3426822976,
				"element": "H" 
			},
			{
				"x": 0.13069391,
				"y": -2.5204632906,
				"z": 2.5483928734,
				"element": "H" 
			},
			{
				"x": -0.0676603781,
				"y": -1.5194018828,
				"z": 0.3035566689,
				"element": "H" 
			},
			{
				"x": -2.0968242447,
				"y": 1.4305497244,
				"z": -0.4075978402,
				"element": "H" 
			},
			{
				"x": -1.7459511119,
				"y": 0.4775399671,
				"z": -2.345218547,
				"element": "H" 
			},
			{
				"x": -1.6727147823,
				"y": -1.0352704601,
				"z": -1.4490559108,
				"element": "H" 
			},
			{
				"x": -0.1359185533,
				"y": -2.1701788279,
				"z": -2.8637960884,
				"element": "H" 
			},
			{
				"x": 2.1891241865,
				"y": -2.4876856752,
				"z": -3.735447284,
				"element": "H" 
			},
			{
				"x": 5.5105369209,
				"y": 0.7227667688,
				"z": -2.3708596785,
				"element": "H" 
			},
			{
				"x": 4.746518571,
				"y": 1.392771333,
				"z": -3.8633629083,
				"element": "H" 
			},
			{
				"x": 0.9283734748,
				"y": 1.668169459,
				"z": -1.2160878387,
				"element": "H" 
			},
			{
				"x": -2.4067051698,
				"y": 1.75991896,
				"z": 1.8813571099,
				"element": "H" 
			}
		],
		 "valence_orbital": [ 
			{
				"type": "occ",
				"energy": -0.25167,
				"method": "rhf"
			},
			{
				"type": "occ",
				"energy": -0.24031,
				"method": "rhf"
			},
			{
				"type": "occ",
				"energy": -0.20645,
				"method": "rhf"
			},
			{
				"type": "occ",
				"energy": -0.20121,
				"method": "rhf"
			},
			{
				"type": "occ",
				"energy": -0.18121,
				"method": "rhf"
			},
			{
				"type": "unocc",
				"energy": -0.00574,
				"method": "rhf"
			},
			{
				"type": "unocc",
				"energy": 0.00304,
				"method": "rhf"
			},
			{
				"type": "unocc",
				"energy": 0.01305,
				"method": "rhf"
			},
			{
				"type": "unocc",
				"energy": 0.0208,
				"method": "rhf"
			},
			{
				"type": "unocc",
				"energy": 0.04101,
				"method": "rhf"
			}
		],
		"cosmo_sigma_profile": { 
			"-0.025": 0.0,
			"-0.024": 0.0,
			"-0.023": 0.0,
			"-0.022": 0.0,
			"-0.021": 0.0,
			"-0.02": 0.0,
			"-0.019": 0.0,
			"-0.018": 0.0,
			"-0.017": 0.334786418331,
			"-0.016": 1.43233907184,
			"-0.015": 1.76370997135,
			"-0.014": 0.470244207448,
			"-0.013": 1.34820601679,
			"-0.012": 2.43937437639,
			"-0.011": 2.96806118813,
			"-0.01": 2.51813106774,
			"-0.009": 2.42500097095,
			"-0.008": 5.14056614826,
			"-0.007": 12.692972795,
			"-0.006": 18.8118136058,
			"-0.005": 21.6932883391,
			"-0.004": 20.2898153793,
			"-0.003": 22.8357539691,
			"-0.002": 23.8087979307,
			"-0.001": 19.7507881528,
			"0.0": 15.9228887575,
			"0.001": 18.1585588553,
			"0.002": 24.4142126931,
			"0.003": 24.999450029,
			"0.004": 25.1662051639,
			"0.005": 22.1075084347,
			"0.006": 19.7023305539,
			"0.007": 12.5862501859,
			"0.008": 5.32546271987,
			"0.009": 4.76390890375,
			"0.01": 4.04597618694,
			"0.011": 1.41695882336,
			"0.012": 0.712134030083,
			"0.013": 0.934057272039,
			"0.014": 1.24507356277,
			"0.015": 0.628640703835,
			"0.016": 0.197015238289,
			"0.017": 0.0,
			"0.018": 0.0,
			"0.019": 0.0,
			"0.02": 0.0,
			"0.021": 0.0,
			"0.022": 0.0,
			"0.023": 0.0,
			"0.024": 0.0,
			"0.025": 0.0
		}
	}
}
