{
	 "smiles": "COC1=CC=C(C=O)C=C1Br", 
	 "Tm": 324.15, 
	 "num_atms": 18, 
	 "gaussian": { 
		 "optdone": 1, 
		 "sigma_profile": "yes", 
		 "theory": "DFT", 
		 "functional": "B3LYP", 
		 "basiset": "6-31G**", 
		 "properties": { 
			 "R2extent": 4123.43, 
			 "electric_dipole_moment_norm": 3.85525906912, 
			 "electric_quadrupole_moment_norm": 11.98750759, 
			 "total_energy": -3030.89359245, 
			 "HOMO_LUMO_gap": 0.18347, 
			 "cosmo_polarized_energy": -9.23, 
			 "cosmo_cavitation_energy": 24.99, 
			 "cosmo_dispersion_energy": -18.36, 
			 "cosmo_repulsion_energy": 1.47, 
			 "cosmo_total_nonelectrostatic_energy": 8.1, 
			 "SMD_solvation_energy": 5.15 
		},
		"coords": [
			{
				"x": 0.885554441,
				"y": 1.9220765756,
				"z": 2.5186241308,
				"element": "C" 
			},
			{
				"x": 1.278457101,
				"y": 2.0595161114,
				"z": 1.1467261582,
				"element": "O" 
			},
			{
				"x": 1.1665461776,
				"y": 0.9301002483,
				"z": 0.3880902045,
				"element": "C" 
			},
			{
				"x": 0.0209764938,
				"y": 0.7456282584,
				"z": -0.3950523406,
				"element": "C" 
			},
			{
				"x": -0.0976870391,
				"y": -0.3668392978,
				"z": -1.2219761291,
				"element": "C" 
			},
			{
				"x": 0.9308455118,
				"y": -1.3152179455,
				"z": -1.273824124,
				"element": "C" 
			},
			{
				"x": 0.810043171,
				"y": -2.5016314668,
				"z": -2.1506049936,
				"element": "C" 
			},
			{
				"x": 1.6526667034,
				"y": -3.3719859844,
				"z": -2.2550049493,
				"element": "O" 
			},
			{
				"x": 2.0852278832,
				"y": -1.1376955042,
				"z": -0.49667867,
				"element": "C" 
			},
			{
				"x": 2.1995828665,
				"y": -0.0260874042,
				"z": 0.3246446083,
				"element": "C" 
			},
			{
				"x": 3.7840656763,
				"y": 0.2250913983,
				"z": 1.3548375004,
				"element": "Br" 
			},
			{
				"x": 1.5087098904,
				"y": 1.1872492373,
				"z": 3.039119438,
				"element": "H" 
			},
			{
				"x": -0.1691289414,
				"y": 1.6302304069,
				"z": 2.5952584475,
				"element": "H" 
			},
			{
				"x": 1.0261767563,
				"y": 2.9037910096,
				"z": 2.9731268106,
				"element": "H" 
			},
			{
				"x": -0.7571477955,
				"y": 1.5003867963,
				"z": -0.3447198001,
				"element": "H" 
			},
			{
				"x": -0.9882773824,
				"y": -0.5030269578,
				"z": -1.8304218813,
				"element": "H" 
			},
			{
				"x": -0.1380699058,
				"y": -2.5500027635,
				"z": -2.7311550184,
				"element": "H" 
			},
			{
				"x": 2.876258392,
				"y": -1.8768827181,
				"z": -0.555489392,
				"element": "H" 
			}
		],
		 "valence_orbital": [ 
			{
				"type": "occ",
				"energy": -0.29415,
				"method": "rhf"
			},
			{
				"type": "occ",
				"energy": -0.29031,
				"method": "rhf"
			},
			{
				"type": "occ",
				"energy": -0.26802,
				"method": "rhf"
			},
			{
				"type": "occ",
				"energy": -0.26141,
				"method": "rhf"
			},
			{
				"type": "occ",
				"energy": -0.25359,
				"method": "rhf"
			},
			{
				"type": "unocc",
				"energy": -0.07012,
				"method": "rhf"
			},
			{
				"type": "unocc",
				"energy": -0.02866,
				"method": "rhf"
			},
			{
				"type": "unocc",
				"energy": -0.00052,
				"method": "rhf"
			},
			{
				"type": "unocc",
				"energy": 0.02967,
				"method": "rhf"
			},
			{
				"type": "unocc",
				"energy": 0.09501,
				"method": "rhf"
			}
		],
		"cosmo_sigma_profile": { 
			"-0.025": 0.0,
			"-0.024": 0.0,
			"-0.023": 0.0,
			"-0.022": 0.0,
			"-0.021": 0.0,
			"-0.02": 0.0,
			"-0.019": 0.0,
			"-0.018": 0.0,
			"-0.017": 0.0,
			"-0.016": 0.0,
			"-0.015": 0.0,
			"-0.014": 0.0,
			"-0.013": 0.0,
			"-0.012": 0.0,
			"-0.011": 0.0,
			"-0.01": 0.0,
			"-0.009": 0.360614829805,
			"-0.008": 3.78538890424,
			"-0.007": 7.80488108024,
			"-0.006": 10.082800654,
			"-0.005": 13.0119071419,
			"-0.004": 17.6972068057,
			"-0.003": 19.7353771486,
			"-0.002": 12.7452146733,
			"-0.001": 13.4491090557,
			"0.0": 16.5008264858,
			"0.001": 22.4548195788,
			"0.002": 14.8218062662,
			"0.003": 9.41202605059,
			"0.004": 11.1231368029,
			"0.005": 4.87830821897,
			"0.006": 3.28474372336,
			"0.007": 3.52059590956,
			"0.008": 2.85439522458,
			"0.009": 3.50637743053,
			"0.01": 4.66556461608,
			"0.011": 4.89462636317,
			"0.012": 2.30424205081,
			"0.013": 0.459461904227,
			"0.014": 0.0,
			"0.015": 0.0,
			"0.016": 0.0,
			"0.017": 0.0,
			"0.018": 0.0,
			"0.019": 0.0,
			"0.02": 0.0,
			"0.021": 0.0,
			"0.022": 0.0,
			"0.023": 0.0,
			"0.024": 0.0,
			"0.025": 0.0
		}
	}
}
