{
	 "smiles": "COCCN1C(=CC2=C1C=CC=C2)C(O)=O", 
	 "Tm": 413.15, 
	 "num_atms": 29, 
	 "gaussian": { 
		 "optdone": 1, 
		 "sigma_profile": "yes", 
		 "theory": "DFT", 
		 "functional": "B3LYP", 
		 "basiset": "6-31G**", 
		 "properties": { 
			 "R2extent": 4032.7481, 
			 "electric_dipole_moment_norm": 4.37877643298, 
			 "electric_quadrupole_moment_norm": 17.1239368777, 
			 "total_energy": -745.530299758, 
			 "HOMO_LUMO_gap": 0.16511, 
			 "cosmo_polarized_energy": -16.21, 
			 "cosmo_cavitation_energy": 32.65, 
			 "cosmo_dispersion_energy": -23.15, 
			 "cosmo_repulsion_energy": 1.78, 
			 "cosmo_total_nonelectrostatic_energy": 11.28, 
			 "SMD_solvation_energy": 6.66 
		},
		"coords": [
			{
				"x": -4.3062803032,
				"y": -1.0376540293,
				"z": 0.8501153092,
				"element": "C" 
			},
			{
				"x": -3.8404275531,
				"y": 0.2967353494,
				"z": 0.8285513856,
				"element": "O" 
			},
			{
				"x": -2.4320254485,
				"y": 0.4261408592,
				"z": 0.8758871172,
				"element": "C" 
			},
			{
				"x": -1.806076935,
				"y": 0.2853010571,
				"z": -0.5235465691,
				"element": "C" 
			},
			{
				"x": -0.3445389962,
				"y": 0.3113360262,
				"z": -0.4795249814,
				"element": "N" 
			},
			{
				"x": 0.4877620637,
				"y": 1.4218065172,
				"z": -0.5937911584,
				"element": "C" 
			},
			{
				"x": 1.809325073,
				"y": 1.0198730423,
				"z": -0.5107506462,
				"element": "C" 
			},
			{
				"x": 1.8158510333,
				"y": -0.3935112044,
				"z": -0.3370300821,
				"element": "C" 
			},
			{
				"x": 0.4522256867,
				"y": -0.8055215096,
				"z": -0.3239485525,
				"element": "C" 
			},
			{
				"x": 0.0934255242,
				"y": -2.1553692681,
				"z": -0.1774866928,
				"element": "C" 
			},
			{
				"x": 1.1178776249,
				"y": -3.0805280051,
				"z": -0.0402637993,
				"element": "C" 
			},
			{
				"x": 2.4761755603,
				"y": -2.688171823,
				"z": -0.0455257077,
				"element": "C" 
			},
			{
				"x": 2.8324760573,
				"y": -1.357988423,
				"z": -0.1911284084,
				"element": "C" 
			},
			{
				"x": -0.035326619,
				"y": 2.7968680114,
				"z": -0.7169106829,
				"element": "C" 
			},
			{
				"x": 0.8508114051,
				"y": 3.7102274503,
				"z": -1.1928713048,
				"element": "O" 
			},
			{
				"x": -1.1575062768,
				"y": 3.1421637926,
				"z": -0.4120836711,
				"element": "O" 
			},
			{
				"x": -3.9603241603,
				"y": -1.5732452914,
				"z": 1.7479348602,
				"element": "H" 
			},
			{
				"x": -3.9980012578,
				"y": -1.6148145048,
				"z": -0.0353321702,
				"element": "H" 
			},
			{
				"x": -5.3980075368,
				"y": -0.9944501395,
				"z": 0.8653201531,
				"element": "H" 
			},
			{
				"x": -2.2165274959,
				"y": 1.4298569907,
				"z": 1.2497010686,
				"element": "H" 
			},
			{
				"x": -1.9875700021,
				"y": -0.3096100454,
				"z": 1.5648486208,
				"element": "H" 
			},
			{
				"x": -2.1033440441,
				"y": -0.6582209041,
				"z": -0.9897856287,
				"element": "H" 
			},
			{
				"x": -2.158692522,
				"y": 1.1020483874,
				"z": -1.1515826797,
				"element": "H" 
			},
			{
				"x": 2.676182932,
				"y": 1.6677604804,
				"z": -0.5104172013,
				"element": "H" 
			},
			{
				"x": -0.9445894417,
				"y": -2.4705875919,
				"z": -0.1619259819,
				"element": "H" 
			},
			{
				"x": 0.8704654993,
				"y": -4.1312763697,
				"z": 0.0785400453,
				"element": "H" 
			},
			{
				"x": 3.2467306328,
				"y": -3.4448150171,
				"z": 0.0666470699,
				"element": "H" 
			},
			{
				"x": 3.8767891292,
				"y": -1.0590534276,
				"z": -0.1959008548,
				"element": "H" 
			},
			{
				"x": 1.6336403705,
				"y": 3.2565995898,
				"z": -1.5368388566,
				"element": "H" 
			}
		],
		 "valence_orbital": [ 
			{
				"type": "occ",
				"energy": -0.29168,
				"method": "rhf"
			},
			{
				"type": "occ",
				"energy": -0.27996,
				"method": "rhf"
			},
			{
				"type": "occ",
				"energy": -0.26092,
				"method": "rhf"
			},
			{
				"type": "occ",
				"energy": -0.23512,
				"method": "rhf"
			},
			{
				"type": "occ",
				"energy": -0.21926,
				"method": "rhf"
			},
			{
				"type": "unocc",
				"energy": -0.05415,
				"method": "rhf"
			},
			{
				"type": "unocc",
				"energy": 0.00743,
				"method": "rhf"
			},
			{
				"type": "unocc",
				"energy": 0.0177,
				"method": "rhf"
			},
			{
				"type": "unocc",
				"energy": 0.06382,
				"method": "rhf"
			},
			{
				"type": "unocc",
				"energy": 0.06825,
				"method": "rhf"
			}
		],
		"cosmo_sigma_profile": { 
			"-0.025": 0.0,
			"-0.024": 0.0,
			"-0.023": 0.0,
			"-0.022": 0.0,
			"-0.021": 0.0,
			"-0.02": 0.0,
			"-0.019": 0.0459409994902,
			"-0.018": 0.605665117537,
			"-0.017": 0.674606623575,
			"-0.016": 0.807241517544,
			"-0.015": 1.77234301926,
			"-0.014": 0.615587311516,
			"-0.013": 0.886613211216,
			"-0.012": 0.900962108169,
			"-0.011": 1.81859779675,
			"-0.01": 0.878779613271,
			"-0.009": 1.21391708254,
			"-0.008": 1.54718697302,
			"-0.007": 5.27283571176,
			"-0.006": 10.0092603566,
			"-0.005": 17.8768454361,
			"-0.004": 24.0527714728,
			"-0.003": 26.7210789021,
			"-0.002": 24.0496307755,
			"-0.001": 17.6868920541,
			"0.0": 13.7660509645,
			"0.001": 12.4461750535,
			"0.002": 12.8359061614,
			"0.003": 14.4482414985,
			"0.004": 15.2818066322,
			"0.005": 14.3754615117,
			"0.006": 8.46143295528,
			"0.007": 4.32018277333,
			"0.008": 4.13672945955,
			"0.009": 3.78160884369,
			"0.01": 5.77869523016,
			"0.011": 5.38661949174,
			"0.012": 4.0625842642,
			"0.013": 2.9120044429,
			"0.014": 0.178646161629,
			"0.015": 0.0,
			"0.016": 0.0,
			"0.017": 0.0,
			"0.018": 0.0,
			"0.019": 0.0,
			"0.02": 0.0,
			"0.021": 0.0,
			"0.022": 0.0,
			"0.023": 0.0,
			"0.024": 0.0,
			"0.025": 0.0
		}
	}
}
