{
	 "smiles": "COC(=O)C(C)NC(=O)CC1=CC=C(Cl)C=C1", 
	 "Tm": 356.15, 
	 "num_atms": 31, 
	 "gaussian": { 
		 "optdone": 1, 
		 "sigma_profile": "yes", 
		 "theory": "DFT", 
		 "functional": "B3LYP", 
		 "basiset": "6-31G**", 
		 "properties": { 
			 "R2extent": 5790.6264, 
			 "electric_dipole_moment_norm": 2.89818085184, 
			 "electric_quadrupole_moment_norm": 20.3142282396, 
			 "total_energy": -1206.36263438, 
			 "HOMO_LUMO_gap": 0.21289, 
			 "cosmo_polarized_energy": -14.94, 
			 "cosmo_cavitation_energy": 37.61, 
			 "cosmo_dispersion_energy": -24.89, 
			 "cosmo_repulsion_energy": 1.99, 
			 "cosmo_total_nonelectrostatic_energy": 14.71, 
			 "SMD_solvation_energy": 7.71 
		},
		"coords": [
			{
				"x": 2.4109401441,
				"y": 1.9533643871,
				"z": -0.08987822,
				"element": "C" 
			},
			{
				"x": 1.0414480509,
				"y": 1.6624456975,
				"z": -0.4266483205,
				"element": "O" 
			},
			{
				"x": 0.3191787935,
				"y": 2.71147921,
				"z": -0.8794808566,
				"element": "C" 
			},
			{
				"x": 0.7682534516,
				"y": 3.8277560557,
				"z": -1.0103511266,
				"element": "O" 
			},
			{
				"x": -1.1137725751,
				"y": 2.33734287,
				"z": -1.2431010026,
				"element": "C" 
			},
			{
				"x": -1.362408936,
				"y": 2.6173688215,
				"z": -2.7373938822,
				"element": "C" 
			},
			{
				"x": -1.4382286815,
				"y": 0.9690158973,
				"z": -0.8682548574,
				"element": "N" 
			},
			{
				"x": -2.7215464463,
				"y": 0.603854736,
				"z": -0.6016868173,
				"element": "C" 
			},
			{
				"x": -3.6687725923,
				"y": 1.3756911386,
				"z": -0.7019471918,
				"element": "O" 
			},
			{
				"x": -2.9500181548,
				"y": -0.863520439,
				"z": -0.1889844608,
				"element": "C" 
			},
			{
				"x": -1.7321214989,
				"y": -1.6902319568,
				"z": 0.1498274156,
				"element": "C" 
			},
			{
				"x": -1.1957843136,
				"y": -1.6818366472,
				"z": 1.4462335934,
				"element": "C" 
			},
			{
				"x": -0.0600880473,
				"y": -2.4241203141,
				"z": 1.7667560552,
				"element": "C" 
			},
			{
				"x": 0.5541120362,
				"y": -3.1876739409,
				"z": 0.7741025328,
				"element": "C" 
			},
			{
				"x": 1.9871582721,
				"y": -4.127091185,
				"z": 1.1668465983,
				"element": "Cl" 
			},
			{
				"x": 0.04663918,
				"y": -3.218503267,
				"z": -0.5237319775,
				"element": "C" 
			},
			{
				"x": -1.0917379008,
				"y": -2.4696475553,
				"z": -0.8244929593,
				"element": "C" 
			},
			{
				"x": 2.8366687982,
				"y": 1.0098250161,
				"z": 0.249862852,
				"element": "H" 
			},
			{
				"x": 2.455821758,
				"y": 2.7052250165,
				"z": 0.7011508277,
				"element": "H" 
			},
			{
				"x": 2.9467178681,
				"y": 2.3275939169,
				"z": -0.965196634,
				"element": "H" 
			},
			{
				"x": -1.767483419,
				"y": 3.0018230783,
				"z": -0.6667606503,
				"element": "H" 
			},
			{
				"x": -1.1105084486,
				"y": 3.6546218698,
				"z": -2.9697971715,
				"element": "H" 
			},
			{
				"x": -0.7551430679,
				"y": 1.9558716388,
				"z": -3.3633887342,
				"element": "H" 
			},
			{
				"x": -2.4177785449,
				"y": 2.4442861761,
				"z": -2.9565134397,
				"element": "H" 
			},
			{
				"x": -0.6810584216,
				"y": 0.3205499955,
				"z": -0.7104233398,
				"element": "H" 
			},
			{
				"x": -3.6429352978,
				"y": -0.8220535703,
				"z": 0.6568348957,
				"element": "H" 
			},
			{
				"x": -3.5073189467,
				"y": -1.3222535958,
				"z": -1.0136400984,
				"element": "H" 
			},
			{
				"x": -1.6758771948,
				"y": -1.088714936,
				"z": 2.2202450486,
				"element": "H" 
			},
			{
				"x": 0.3429244358,
				"y": -2.4150430237,
				"z": 2.77349278,
				"element": "H" 
			},
			{
				"x": 0.5306513773,
				"y": -3.8221186561,
				"z": -1.2835701735,
				"element": "H" 
			},
			{
				"x": -1.4917316777,
				"y": -2.4994064346,
				"z": -1.8348106851,
				"element": "H" 
			}
		],
		 "valence_orbital": [ 
			{
				"type": "occ",
				"energy": -0.28671,
				"method": "rhf"
			},
			{
				"type": "occ",
				"energy": -0.27531,
				"method": "rhf"
			},
			{
				"type": "occ",
				"energy": -0.26561,
				"method": "rhf"
			},
			{
				"type": "occ",
				"energy": -0.25469,
				"method": "rhf"
			},
			{
				"type": "occ",
				"energy": -0.23962,
				"method": "rhf"
			},
			{
				"type": "unocc",
				"energy": -0.02673,
				"method": "rhf"
			},
			{
				"type": "unocc",
				"energy": -0.02608,
				"method": "rhf"
			},
			{
				"type": "unocc",
				"energy": -4e-05,
				"method": "rhf"
			},
			{
				"type": "unocc",
				"energy": 0.02057,
				"method": "rhf"
			},
			{
				"type": "unocc",
				"energy": 0.02818,
				"method": "rhf"
			}
		],
		"cosmo_sigma_profile": { 
			"-0.025": 0.0,
			"-0.024": 0.0,
			"-0.023": 0.0,
			"-0.022": 0.0,
			"-0.021": 0.0,
			"-0.02": 0.0,
			"-0.019": 0.0,
			"-0.018": 0.0,
			"-0.017": 0.0,
			"-0.016": 0.0,
			"-0.015": 0.0,
			"-0.014": 0.0,
			"-0.013": 0.0,
			"-0.012": 0.0,
			"-0.011": 0.0,
			"-0.01": 0.0,
			"-0.009": 0.0,
			"-0.008": 0.258450113717,
			"-0.007": 9.54375532933,
			"-0.006": 24.2728171003,
			"-0.005": 25.3886369663,
			"-0.004": 26.8359973368,
			"-0.003": 23.6616288634,
			"-0.002": 24.4250197028,
			"-0.001": 22.330752173,
			"0.0": 22.1938352086,
			"0.001": 21.2129105434,
			"0.002": 21.5198518185,
			"0.003": 18.5712881341,
			"0.004": 16.4926882803,
			"0.005": 10.7402977454,
			"0.006": 2.29801788692,
			"0.007": 2.98217121436,
			"0.008": 2.78027877601,
			"0.009": 2.75227281962,
			"0.01": 3.6318146649,
			"0.011": 5.0104481466,
			"0.012": 4.51941531249,
			"0.013": 3.60097573678,
			"0.014": 4.27366825991,
			"0.015": 1.0914108173,
			"0.016": 0.00232346315426,
			"0.017": 0.0,
			"0.018": 0.0,
			"0.019": 0.0,
			"0.02": 0.0,
			"0.021": 0.0,
			"0.022": 0.0,
			"0.023": 0.0,
			"0.024": 0.0,
			"0.025": 0.0
		}
	}
}
