{
	 "smiles": "NC(=O)C1=CC(=CN1)C(O)=O", 
	 "Tm": 618.15, 
	 "num_atms": 17, 
	 "gaussian": { 
		 "optdone": 1, 
		 "sigma_profile": "no", 
		 "theory": "DFT", 
		 "functional": "B3LYP", 
		 "basiset": "6-31G**", 
		 "properties": { 
			 "R2extent": 2214.9914, 
			 "electric_dipole_moment_norm": 2.98194400685, 
			 "electric_quadrupole_moment_norm": 24.6570713523, 
			 "total_energy": -567.451874479, 
			 "HOMO_LUMO_gap": 0.21375, 
			 "cosmo_polarized_energy": -28.56, 
			 "cosmo_cavitation_energy": 22.58, 
			 "cosmo_dispersion_energy": -16.8, 
			 "cosmo_repulsion_energy": 1.37, 
			 "cosmo_total_nonelectrostatic_energy": 7.15, 
			 "SMD_solvation_energy": 6.0 
		},
		"coords": [
			{
				"x": -0.6492201311,
				"y": 2.5468472093,
				"z": -2.2681014613,
				"element": "N" 
			},
			{
				"x": 0.5736840073,
				"y": 2.0992321451,
				"z": -1.8716942832,
				"element": "C" 
			},
			{
				"x": 1.6227118202,
				"y": 2.6867873678,
				"z": -2.1374043515,
				"element": "O" 
			},
			{
				"x": 0.6029801466,
				"y": 0.8475356891,
				"z": -1.0877604738,
				"element": "C" 
			},
			{
				"x": -0.3302455985,
				"y": -0.0539763527,
				"z": -0.6145078881,
				"element": "C" 
			},
			{
				"x": 0.3759374527,
				"y": -1.0703888766,
				"z": 0.0874338684,
				"element": "C" 
			},
			{
				"x": 1.7318468804,
				"y": -0.7468872905,
				"z": 0.0153294172,
				"element": "C" 
			},
			{
				"x": 1.8459189462,
				"y": 0.4030615525,
				"z": -0.6912568579,
				"element": "N" 
			},
			{
				"x": -0.2955624394,
				"y": -2.2143016116,
				"z": 0.7371633535,
				"element": "C" 
			},
			{
				"x": 0.49326375,
				"y": -3.1230785507,
				"z": 1.3793709606,
				"element": "O" 
			},
			{
				"x": -1.4950859804,
				"y": -2.3717744931,
				"z": 0.7210326962,
				"element": "O" 
			},
			{
				"x": -1.5039649306,
				"y": 2.0630624011,
				"z": -2.0481787022,
				"element": "H" 
			},
			{
				"x": -0.6883865263,
				"y": 3.3996730576,
				"z": -2.8037645567,
				"element": "H" 
			},
			{
				"x": -1.4039432531,
				"y": -0.0311212165,
				"z": -0.7315447897,
				"element": "H" 
			},
			{
				"x": 2.6098960832,
				"y": -1.2412257987,
				"z": 0.4079442522,
				"element": "H" 
			},
			{
				"x": 2.6825905258,
				"y": 0.9183585204,
				"z": -0.9326640472,
				"element": "H" 
			},
			{
				"x": 1.4255792469,
				"y": -2.8775037525,
				"z": 1.3148028634,
				"element": "H" 
			}
		],
		 "valence_orbital": [ 
			{
				"type": "occ",
				"energy": -0.28157,
				"method": "rhf"
			},
			{
				"type": "occ",
				"energy": -0.2734,
				"method": "rhf"
			},
			{
				"type": "occ",
				"energy": -0.27003,
				"method": "rhf"
			},
			{
				"type": "occ",
				"energy": -0.26719,
				"method": "rhf"
			},
			{
				"type": "occ",
				"energy": -0.24576,
				"method": "rhf"
			},
			{
				"type": "unocc",
				"energy": -0.03201,
				"method": "rhf"
			},
			{
				"type": "unocc",
				"energy": -0.02467,
				"method": "rhf"
			},
			{
				"type": "unocc",
				"energy": 0.04834,
				"method": "rhf"
			},
			{
				"type": "unocc",
				"energy": 0.06071,
				"method": "rhf"
			},
			{
				"type": "unocc",
				"energy": 0.08547,
				"method": "rhf"
			}
		],
		"cosmo_sigma_profile": { 
			"0.0": 0.0,
			"0.0": 0.0,
			"0.0": 0.0,
			"0.0": 0.0,
			"0.0": 0.0,
			"0.0": 0.0,
			"0.0": 0.0,
			"0.0": 0.0,
			"0.0": 0.0,
			"0.0": 0.0,
			"0.0": 0.0,
			"0.0": 0.0,
			"0.0": 0.0,
			"0.0": 0.0,
			"0.0": 0.0,
			"0.0": 0.0,
			"0.0": 0.0,
			"0.0": 0.0,
			"0.0": 0.0,
			"0.0": 0.0,
			"0.0": 0.0,
			"0.0": 0.0,
			"0.0": 0.0,
			"0.0": 0.0,
			"0.0": 0.0,
			"0.0": 0.0,
			"0.0": 0.0,
			"0.0": 0.0,
			"0.0": 0.0,
			"0.0": 0.0,
			"0.0": 0.0,
			"0.0": 0.0,
			"0.0": 0.0,
			"0.0": 0.0,
			"0.0": 0.0,
			"0.0": 0.0,
			"0.0": 0.0,
			"0.0": 0.0,
			"0.0": 0.0,
			"0.0": 0.0,
			"0.0": 0.0,
			"0.0": 0.0,
			"0.0": 0.0,
			"0.0": 0.0,
			"0.0": 0.0,
			"0.0": 0.0,
			"0.0": 0.0,
			"0.0": 0.0,
			"0.0": 0.0,
			"0.0": 0.0,
			"0.0": 0.0
		}
	}
}
