{
	 "smiles": "OC(=O)C1=CN=C(S1)C1=CSC=C1", 
	 "Tm": 482.15, 
	 "num_atms": 18, 
	 "gaussian": { 
		 "optdone": 1, 
		 "sigma_profile": "yes", 
		 "theory": "DFT", 
		 "functional": "B3LYP", 
		 "basiset": "6-31G**", 
		 "properties": { 
			 "R2extent": 4449.6269, 
			 "electric_dipole_moment_norm": 4.02965042777, 
			 "electric_quadrupole_moment_norm": 25.2980602154, 
			 "total_energy": -1309.4218547, 
			 "HOMO_LUMO_gap": 0.15733, 
			 "cosmo_polarized_energy": -16.04, 
			 "cosmo_cavitation_energy": 26.75, 
			 "cosmo_dispersion_energy": -20.97, 
			 "cosmo_repulsion_energy": 1.54, 
			 "cosmo_total_nonelectrostatic_energy": 7.32, 
			 "SMD_solvation_energy": 4.33 
		},
		"coords": [
			{
				"x": -4.1865593516,
				"y": -3.0839668989,
				"z": 2.2973765111,
				"element": "O" 
			},
			{
				"x": -3.1209772079,
				"y": -2.3490059497,
				"z": 2.7128899396,
				"element": "C" 
			},
			{
				"x": -2.8562300772,
				"y": -2.2689976735,
				"z": 3.8904944929,
				"element": "O" 
			},
			{
				"x": -2.3297576155,
				"y": -1.6793251564,
				"z": 1.6617939001,
				"element": "C" 
			},
			{
				"x": -2.3724227441,
				"y": -1.7718208746,
				"z": 0.2886522025,
				"element": "C" 
			},
			{
				"x": -1.4731687823,
				"y": -1.0252488985,
				"z": -0.4060506519,
				"element": "N" 
			},
			{
				"x": -0.7035723457,
				"y": -0.336184608,
				"z": 0.4140706087,
				"element": "C" 
			},
			{
				"x": -1.0542810796,
				"y": -0.5843730308,
				"z": 2.1157285807,
				"element": "S" 
			},
			{
				"x": 0.3535324918,
				"y": 0.5599718025,
				"z": -0.0363366398,
				"element": "C" 
			},
			{
				"x": 0.6314276994,
				"y": 0.7571049537,
				"z": -1.3722754539,
				"element": "C" 
			},
			{
				"x": 1.9282500279,
				"y": 1.8658690502,
				"z": -1.6004617601,
				"element": "S" 
			},
			{
				"x": 2.1156571202,
				"y": 2.0809990353,
				"z": 0.1135625836,
				"element": "C" 
			},
			{
				"x": 1.2184925887,
				"y": 1.331000911,
				"z": 0.8144199079,
				"element": "C" 
			},
			{
				"x": -4.3363457841,
				"y": -2.9765470307,
				"z": 1.348080955,
				"element": "H" 
			},
			{
				"x": -3.0543433677,
				"y": -2.4041140012,
				"z": -0.2736825544,
				"element": "H" 
			},
			{
				"x": 0.1288842362,
				"y": 0.2976334642,
				"z": -2.2107127942,
				"element": "H" 
			},
			{
				"x": 2.8754747057,
				"y": 2.7467376818,
				"z": 0.4978153668,
				"element": "H" 
			},
			{
				"x": 1.1706394857,
				"y": 1.3236672236,
				"z": 1.8975348052,
				"element": "H" 
			}
		],
		 "valence_orbital": [ 
			{
				"type": "occ",
				"energy": -0.30127,
				"method": "rhf"
			},
			{
				"type": "occ",
				"energy": -0.29786,
				"method": "rhf"
			},
			{
				"type": "occ",
				"energy": -0.2752,
				"method": "rhf"
			},
			{
				"type": "occ",
				"energy": -0.26308,
				"method": "rhf"
			},
			{
				"type": "occ",
				"energy": -0.23699,
				"method": "rhf"
			},
			{
				"type": "unocc",
				"energy": -0.07966,
				"method": "rhf"
			},
			{
				"type": "unocc",
				"energy": -0.03267,
				"method": "rhf"
			},
			{
				"type": "unocc",
				"energy": -0.00142,
				"method": "rhf"
			},
			{
				"type": "unocc",
				"energy": 0.00157,
				"method": "rhf"
			},
			{
				"type": "unocc",
				"energy": 0.02256,
				"method": "rhf"
			}
		],
		"cosmo_sigma_profile": { 
			"-0.025": 0.0,
			"-0.024": 0.0,
			"-0.023": 0.0,
			"-0.022": 0.0,
			"-0.021": 0.0,
			"-0.02": 0.39665334312,
			"-0.019": 1.04203801053,
			"-0.018": 1.30579669076,
			"-0.017": 1.16546128205,
			"-0.016": 0.64762409862,
			"-0.015": 1.10991071315,
			"-0.014": 0.596672872913,
			"-0.013": 1.35843406647,
			"-0.012": 1.55248750333,
			"-0.011": 1.55785882828,
			"-0.01": 0.967767435378,
			"-0.009": 4.68970485332,
			"-0.008": 7.30423617757,
			"-0.007": 6.16377899554,
			"-0.006": 7.62689643886,
			"-0.005": 8.32616686559,
			"-0.004": 7.69413501619,
			"-0.003": 9.25392186047,
			"-0.002": 13.210859043,
			"-0.001": 16.9360694276,
			"0.0": 18.6981468421,
			"0.001": 20.4549346701,
			"0.002": 24.1266075821,
			"0.003": 17.7297690937,
			"0.004": 7.59822776023,
			"0.005": 5.13435101258,
			"0.006": 3.32961660067,
			"0.007": 3.91545827004,
			"0.008": 4.2265588944,
			"0.009": 4.38555452991,
			"0.01": 6.11332220619,
			"0.011": 6.98672359089,
			"0.012": 4.13319537145,
			"0.013": 0.84158888488,
			"0.014": 0.0,
			"0.015": 0.0,
			"0.016": 0.0,
			"0.017": 0.0,
			"0.018": 0.0,
			"0.019": 0.0,
			"0.02": 0.0,
			"0.021": 0.0,
			"0.022": 0.0,
			"0.023": 0.0,
			"0.024": 0.0,
			"0.025": 0.0
		}
	}
}
