{
	 "smiles": "NC(C(O)=O)C1=C(Br)C=CC=C1", 
	 "Tm": 473.15, 
	 "num_atms": 20, 
	 "gaussian": { 
		 "optdone": 1, 
		 "sigma_profile": "yes", 
		 "theory": "DFT", 
		 "functional": "B3LYP", 
		 "basiset": "6-31G**", 
		 "properties": { 
			 "R2extent": 4386.398, 
			 "electric_dipole_moment_norm": 1.77939254241, 
			 "electric_quadrupole_moment_norm": 11.7530180124, 
			 "total_energy": -3086.28266164, 
			 "HOMO_LUMO_gap": 0.2202, 
			 "cosmo_polarized_energy": -13.15, 
			 "cosmo_cavitation_energy": 26.6, 
			 "cosmo_dispersion_energy": -19.27, 
			 "cosmo_repulsion_energy": 1.56, 
			 "cosmo_total_nonelectrostatic_energy": 8.9, 
			 "SMD_solvation_energy": 3.43 
		},
		"coords": [
			{
				"x": 3.8866786895,
				"y": -0.5810420591,
				"z": -0.8193008891,
				"element": "N" 
			},
			{
				"x": 2.4504643474,
				"y": -0.6316212713,
				"z": -1.0731657355,
				"element": "C" 
			},
			{
				"x": 1.9551018899,
				"y": 0.507484294,
				"z": -1.9727246814,
				"element": "C" 
			},
			{
				"x": 0.786202822,
				"y": 0.2083095389,
				"z": -2.5784811765,
				"element": "O" 
			},
			{
				"x": 2.5309882627,
				"y": 1.563495949,
				"z": -2.1317579787,
				"element": "O" 
			},
			{
				"x": 1.6862014293,
				"y": -0.6114198847,
				"z": 0.2473695167,
				"element": "C" 
			},
			{
				"x": 1.2127922539,
				"y": -1.7726609479,
				"z": 0.873925985,
				"element": "C" 
			},
			{
				"x": 1.4397037644,
				"y": -3.5014377427,
				"z": 0.0758078026,
				"element": "Br" 
			},
			{
				"x": 0.5593590941,
				"y": -1.7249614959,
				"z": 2.1054068179,
				"element": "C" 
			},
			{
				"x": 0.3710120791,
				"y": -0.4990800301,
				"z": 2.7419494178,
				"element": "C" 
			},
			{
				"x": 0.8359824863,
				"y": 0.6716543476,
				"z": 2.1440685774,
				"element": "C" 
			},
			{
				"x": 1.4828338454,
				"y": 0.6076907535,
				"z": 0.9116021018,
				"element": "C" 
			},
			{
				"x": 4.1283140719,
				"y": 0.3516695379,
				"z": -0.4898760721,
				"element": "H" 
			},
			{
				"x": 4.3885047652,
				"y": -0.7032739221,
				"z": -1.6964253679,
				"element": "H" 
			},
			{
				"x": 2.2225167033,
				"y": -1.569165058,
				"z": -1.5856693418,
				"element": "H" 
			},
			{
				"x": 0.5375387552,
				"y": 0.9884247279,
				"z": -3.1033202258,
				"element": "H" 
			},
			{
				"x": 0.2037841963,
				"y": -2.6433021067,
				"z": 2.5582519353,
				"element": "H" 
			},
			{
				"x": -0.1379718734,
				"y": -0.4657516647,
				"z": 3.7005448466,
				"element": "H" 
			},
			{
				"x": 0.6946239543,
				"y": 1.6313751828,
				"z": 2.6315277856,
				"element": "H" 
			},
			{
				"x": 1.8402684634,
				"y": 1.5216118514,
				"z": 0.4448666819,
				"element": "H" 
			}
		],
		 "valence_orbital": [ 
			{
				"type": "occ",
				"energy": -0.29214,
				"method": "rhf"
			},
			{
				"type": "occ",
				"energy": -0.28384,
				"method": "rhf"
			},
			{
				"type": "occ",
				"energy": -0.26139,
				"method": "rhf"
			},
			{
				"type": "occ",
				"energy": -0.24999,
				"method": "rhf"
			},
			{
				"type": "occ",
				"energy": -0.24412,
				"method": "rhf"
			},
			{
				"type": "unocc",
				"energy": -0.02392,
				"method": "rhf"
			},
			{
				"type": "unocc",
				"energy": -0.01738,
				"method": "rhf"
			},
			{
				"type": "unocc",
				"energy": 0.00064,
				"method": "rhf"
			},
			{
				"type": "unocc",
				"energy": 0.01408,
				"method": "rhf"
			},
			{
				"type": "unocc",
				"energy": 0.07226,
				"method": "rhf"
			}
		],
		"cosmo_sigma_profile": { 
			"-0.025": 0.0,
			"-0.024": 0.0,
			"-0.023": 0.0,
			"-0.022": 0.0,
			"-0.021": 0.0,
			"-0.02": 0.0,
			"-0.019": 0.237373923811,
			"-0.018": 0.879631994222,
			"-0.017": 0.979582745723,
			"-0.016": 0.873797475241,
			"-0.015": 0.795680936489,
			"-0.014": 0.694248540126,
			"-0.013": 0.413865290647,
			"-0.012": 0.706460627635,
			"-0.011": 1.92488905421,
			"-0.01": 2.77448996368,
			"-0.009": 3.30356140978,
			"-0.008": 3.67103534575,
			"-0.007": 7.87462474942,
			"-0.006": 13.4175605027,
			"-0.005": 10.5422892025,
			"-0.004": 11.803440277,
			"-0.003": 11.7029400206,
			"-0.002": 11.4953022202,
			"-0.001": 12.6953645613,
			"0.0": 11.5012233679,
			"0.001": 13.2976705472,
			"0.002": 17.7706773517,
			"0.003": 19.2503428369,
			"0.004": 19.8484240289,
			"0.005": 7.24622858657,
			"0.006": 4.29511084712,
			"0.007": 3.31782272885,
			"0.008": 3.95397552961,
			"0.009": 3.58801498704,
			"0.01": 2.63571977626,
			"0.011": 4.91549213699,
			"0.012": 2.98611969382,
			"0.013": 0.50759067319,
			"0.014": 0.778759248311,
			"0.015": 0.611222158572,
			"0.016": 0.232005647696,
			"0.017": 0.890413506549,
			"0.018": 0.158029563835,
			"0.019": 0.0,
			"0.02": 0.0,
			"0.021": 0.0,
			"0.022": 0.0,
			"0.023": 0.0,
			"0.024": 0.0,
			"0.025": 0.0
		}
	}
}
