{
	 "smiles": "OC(=O)CSCC1=COC(=N1)C1=CC=CC=C1", 
	 "Tm": 398.15, 
	 "num_atms": 28, 
	 "gaussian": { 
		 "optdone": 1, 
		 "sigma_profile": "yes", 
		 "theory": "DFT", 
		 "functional": "B3LYP", 
		 "basiset": "6-31G**", 
		 "properties": { 
			 "R2extent": 6884.9237, 
			 "electric_dipole_moment_norm": 1.95320662245, 
			 "electric_quadrupole_moment_norm": 6.68110178339, 
			 "total_energy": -1142.51951559, 
			 "HOMO_LUMO_gap": 0.17501, 
			 "cosmo_polarized_energy": -15.42, 
			 "cosmo_cavitation_energy": 35.19, 
			 "cosmo_dispersion_energy": -25.26, 
			 "cosmo_repulsion_energy": 1.94, 
			 "cosmo_total_nonelectrostatic_energy": 11.87, 
			 "SMD_solvation_energy": 6.7 
		},
		"coords": [
			{
				"x": 4.6834081923,
				"y": 0.2781010328,
				"z": -3.9931375556,
				"element": "O" 
			},
			{
				"x": 3.949391118,
				"y": -0.2250414645,
				"z": -2.9730123365,
				"element": "C" 
			},
			{
				"x": 3.5662483132,
				"y": -1.3720401401,
				"z": -2.9425922383,
				"element": "O" 
			},
			{
				"x": 3.7055656079,
				"y": 0.7999974555,
				"z": -1.8873135521,
				"element": "C" 
			},
			{
				"x": 3.0852561573,
				"y": 2.3881840627,
				"z": -2.591015952,
				"element": "S" 
			},
			{
				"x": 2.3734771778,
				"y": 3.14228482,
				"z": -1.0586575377,
				"element": "C" 
			},
			{
				"x": 1.1156016038,
				"y": 2.512549477,
				"z": -0.5646838887,
				"element": "C" 
			},
			{
				"x": -0.1685082199,
				"y": 2.9490985442,
				"z": -0.6709358099,
				"element": "C" 
			},
			{
				"x": -0.9823806118,
				"y": 2.0278703431,
				"z": -0.0688445249,
				"element": "O" 
			},
			{
				"x": -0.1391598791,
				"y": 1.055358627,
				"z": 0.3822273398,
				"element": "C" 
			},
			{
				"x": 1.1148657763,
				"y": 1.3000971699,
				"z": 0.1151011945,
				"element": "N" 
			},
			{
				"x": -0.7093962086,
				"y": -0.0902559063,
				"z": 1.0848193284,
				"element": "C" 
			},
			{
				"x": -2.0927118253,
				"y": -0.1943031926,
				"z": 1.3012297103,
				"element": "C" 
			},
			{
				"x": -2.6113086193,
				"y": -1.2982915697,
				"z": 1.974488172,
				"element": "C" 
			},
			{
				"x": -1.7602929343,
				"y": -2.3049526033,
				"z": 2.4361148808,
				"element": "C" 
			},
			{
				"x": -0.3827194305,
				"y": -2.2040004162,
				"z": 2.2214533415,
				"element": "C" 
			},
			{
				"x": 0.1437672522,
				"y": -1.1044779589,
				"z": 1.5501745947,
				"element": "C" 
			},
			{
				"x": 4.7809442165,
				"y": -0.4419544214,
				"z": -4.6387847689,
				"element": "H" 
			},
			{
				"x": 4.6487991587,
				"y": 0.9821872172,
				"z": -1.3595711822,
				"element": "H" 
			},
			{
				"x": 2.9711592396,
				"y": 0.3938293692,
				"z": -1.1922535157,
				"element": "H" 
			},
			{
				"x": 3.1397157261,
				"y": 3.1282093841,
				"z": -0.2779765813,
				"element": "H" 
			},
			{
				"x": 2.196826354,
				"y": 4.1858026799,
				"z": -1.3322650579,
				"element": "H" 
			},
			{
				"x": -0.646685855,
				"y": 3.8115232229,
				"z": -1.1059624567,
				"element": "H" 
			},
			{
				"x": -2.7520800028,
				"y": 0.5880480386,
				"z": 0.9411305806,
				"element": "H" 
			},
			{
				"x": -3.6822974675,
				"y": -1.3729674338,
				"z": 2.1383650423,
				"element": "H" 
			},
			{
				"x": -2.1681243298,
				"y": -3.1646146365,
				"z": 2.9597925313,
				"element": "H" 
			},
			{
				"x": 0.2823192097,
				"y": -2.9854011694,
				"z": 2.5770991426,
				"element": "H" 
			},
			{
				"x": 1.2105202805,
				"y": -1.0150405312,
				"z": 1.3761110998,
				"element": "H" 
			}
		],
		 "valence_orbital": [ 
			{
				"type": "occ",
				"energy": -0.28236,
				"method": "rhf"
			},
			{
				"type": "occ",
				"energy": -0.27526,
				"method": "rhf"
			},
			{
				"type": "occ",
				"energy": -0.25801,
				"method": "rhf"
			},
			{
				"type": "occ",
				"energy": -0.2306,
				"method": "rhf"
			},
			{
				"type": "occ",
				"energy": -0.22086,
				"method": "rhf"
			},
			{
				"type": "unocc",
				"energy": -0.04585,
				"method": "rhf"
			},
			{
				"type": "unocc",
				"energy": -0.00764,
				"method": "rhf"
			},
			{
				"type": "unocc",
				"energy": -0.00051,
				"method": "rhf"
			},
			{
				"type": "unocc",
				"energy": 0.00932,
				"method": "rhf"
			},
			{
				"type": "unocc",
				"energy": 0.04836,
				"method": "rhf"
			}
		],
		"cosmo_sigma_profile": { 
			"-0.025": 0.0,
			"-0.024": 0.0,
			"-0.023": 0.0,
			"-0.022": 0.0,
			"-0.021": 0.0,
			"-0.02": 0.0,
			"-0.019": 0.246712681527,
			"-0.018": 0.838425651766,
			"-0.017": 1.08361367506,
			"-0.016": 0.565648411612,
			"-0.015": 0.921266662698,
			"-0.014": 0.582074171076,
			"-0.013": 0.427662709654,
			"-0.012": 0.981858286422,
			"-0.011": 1.08100380832,
			"-0.01": 2.39375004481,
			"-0.009": 2.16237005291,
			"-0.008": 6.73593050622,
			"-0.007": 10.1120144358,
			"-0.006": 16.6095139216,
			"-0.005": 17.0074308731,
			"-0.004": 17.623125552,
			"-0.003": 15.5959627855,
			"-0.002": 13.9489355324,
			"-0.001": 18.0438405752,
			"0.0": 21.0788155334,
			"0.001": 20.9655322417,
			"0.002": 21.8421437682,
			"0.003": 18.2672703042,
			"0.004": 21.424665316,
			"0.005": 13.6812464579,
			"0.006": 6.11291453072,
			"0.007": 7.15351321113,
			"0.008": 7.02296442515,
			"0.009": 5.78931529982,
			"0.01": 4.83099124045,
			"0.011": 4.8874875274,
			"0.012": 3.39823606738,
			"0.013": 0.164167795723,
			"0.014": 0.0,
			"0.015": 0.0,
			"0.016": 0.0,
			"0.017": 0.0,
			"0.018": 0.0,
			"0.019": 0.0,
			"0.02": 0.0,
			"0.021": 0.0,
			"0.022": 0.0,
			"0.023": 0.0,
			"0.024": 0.0,
			"0.025": 0.0
		}
	}
}
