{
	 "smiles": "CC1=NN(CC2=NC=CC=C2)C(N)=C1", 
	 "Tm": 368.15, 
	 "num_atms": 26, 
	 "gaussian": { 
		 "optdone": 1, 
		 "sigma_profile": "yes", 
		 "theory": "DFT", 
		 "functional": "B3LYP", 
		 "basiset": "6-31G**", 
		 "properties": { 
			 "R2extent": 3191.1523, 
			 "electric_dipole_moment_norm": 3.72310409605, 
			 "electric_quadrupole_moment_norm": 9.42913308687, 
			 "total_energy": -607.289492646, 
			 "HOMO_LUMO_gap": 0.14857, 
			 "cosmo_polarized_energy": -12.45, 
			 "cosmo_cavitation_energy": 29.65, 
			 "cosmo_dispersion_energy": -21.53, 
			 "cosmo_repulsion_energy": 1.71, 
			 "cosmo_total_nonelectrostatic_energy": 9.84, 
			 "SMD_solvation_energy": 3.38 
		},
		"coords": [
			{
				"x": 3.5592325959,
				"y": -0.314020601,
				"z": -1.7197093726,
				"element": "C" 
			},
			{
				"x": 2.1474021316,
				"y": 0.1305128982,
				"z": -1.4829181047,
				"element": "C" 
			},
			{
				"x": 1.1516007822,
				"y": -0.7502554265,
				"z": -1.5412788485,
				"element": "N" 
			},
			{
				"x": 0.0238626033,
				"y": -0.0109328963,
				"z": -1.295771605,
				"element": "N" 
			},
			{
				"x": -1.2800010549,
				"y": -0.6464278678,
				"z": -1.2912930794,
				"element": "C" 
			},
			{
				"x": -1.7821855163,
				"y": -0.9676149802,
				"z": 0.1061538672,
				"element": "C" 
			},
			{
				"x": -2.1892210691,
				"y": 0.0817345289,
				"z": 0.8434961566,
				"element": "N" 
			},
			{
				"x": -2.6263891957,
				"y": -0.1492324216,
				"z": 2.0867222538,
				"element": "C" 
			},
			{
				"x": -2.6904027436,
				"y": -1.421534638,
				"z": 2.6553035841,
				"element": "C" 
			},
			{
				"x": -2.2666312612,
				"y": -2.5067991874,
				"z": 1.8902858704,
				"element": "C" 
			},
			{
				"x": -1.8030405467,
				"y": -2.2766759138,
				"z": 0.5958298466,
				"element": "C" 
			},
			{
				"x": 0.3047947516,
				"y": 1.3033868317,
				"z": -1.0583708088,
				"element": "C" 
			},
			{
				"x": -0.719713337,
				"y": 2.2167109233,
				"z": -0.8250400402,
				"element": "N" 
			},
			{
				"x": 1.6799237621,
				"y": 1.4358454269,
				"z": -1.1805425618,
				"element": "C" 
			},
			{
				"x": 4.0045232226,
				"y": 0.2032043767,
				"z": -2.5775630749,
				"element": "H" 
			},
			{
				"x": 3.5805621872,
				"y": -1.3883864105,
				"z": -1.9169300753,
				"element": "H" 
			},
			{
				"x": 4.1965076303,
				"y": -0.1096769507,
				"z": -0.8514245808,
				"element": "H" 
			},
			{
				"x": -1.9930003024,
				"y": 0.0255398449,
				"z": -1.7815386989,
				"element": "H" 
			},
			{
				"x": -1.1822154252,
				"y": -1.5555834152,
				"z": -1.886603985,
				"element": "H" 
			},
			{
				"x": -2.9442002284,
				"y": 0.7242182768,
				"z": 2.6528794528,
				"element": "H" 
			},
			{
				"x": -3.0598422879,
				"y": -1.5514601557,
				"z": 3.6673007187,
				"element": "H" 
			},
			{
				"x": -2.2945062562,
				"y": -3.5147483687,
				"z": 2.2941178942,
				"element": "H" 
			},
			{
				"x": -1.4550107465,
				"y": -3.0935193821,
				"z": -0.0281860415,
				"element": "H" 
			},
			{
				"x": -1.4048605051,
				"y": 1.8655471572,
				"z": -0.1554825414,
				"element": "H" 
			},
			{
				"x": -0.3689662722,
				"y": 3.1266539235,
				"z": -0.5574094691,
				"element": "H" 
			},
			{
				"x": 2.2588770818,
				"y": 2.3400144274,
				"z": -1.0591267563,
				"element": "H" 
			}
		],
		 "valence_orbital": [ 
			{
				"type": "occ",
				"energy": -0.27413,
				"method": "rhf"
			},
			{
				"type": "occ",
				"energy": -0.27002,
				"method": "rhf"
			},
			{
				"type": "occ",
				"energy": -0.26243,
				"method": "rhf"
			},
			{
				"type": "occ",
				"energy": -0.21658,
				"method": "rhf"
			},
			{
				"type": "occ",
				"energy": -0.18699,
				"method": "rhf"
			},
			{
				"type": "unocc",
				"energy": -0.03842,
				"method": "rhf"
			},
			{
				"type": "unocc",
				"energy": -0.0218,
				"method": "rhf"
			},
			{
				"type": "unocc",
				"energy": 0.05292,
				"method": "rhf"
			},
			{
				"type": "unocc",
				"energy": 0.08522,
				"method": "rhf"
			},
			{
				"type": "unocc",
				"energy": 0.09571,
				"method": "rhf"
			}
		],
		"cosmo_sigma_profile": { 
			"-0.025": 0.0,
			"-0.024": 0.0,
			"-0.023": 0.0,
			"-0.022": 0.0,
			"-0.021": 0.0,
			"-0.02": 0.0,
			"-0.019": 0.0,
			"-0.018": 0.0,
			"-0.017": 0.0,
			"-0.016": 0.0,
			"-0.015": 0.0,
			"-0.014": 0.0,
			"-0.013": 0.348902710145,
			"-0.012": 1.40395358861,
			"-0.011": 1.04133009403,
			"-0.01": 1.39602636442,
			"-0.009": 1.30987862571,
			"-0.008": 2.30265704929,
			"-0.007": 10.9455546548,
			"-0.006": 14.4923576303,
			"-0.005": 15.442914397,
			"-0.004": 16.1884515467,
			"-0.003": 16.0650045526,
			"-0.002": 15.3021153917,
			"-0.001": 17.438692745,
			"0.0": 19.1695735736,
			"0.001": 17.6241134334,
			"0.002": 21.4819940627,
			"0.003": 15.7003020436,
			"0.004": 8.1490806428,
			"0.005": 5.92510601748,
			"0.006": 8.48457082943,
			"0.007": 7.11993188022,
			"0.008": 4.88245144604,
			"0.009": 2.40872589469,
			"0.01": 1.94237517544,
			"0.011": 1.82579956174,
			"0.012": 1.5858714551,
			"0.013": 1.79774023203,
			"0.014": 1.3372914369,
			"0.015": 1.22838246555,
			"0.016": 1.04129746763,
			"0.017": 0.550335685884,
			"0.018": 0.0187099673326,
			"0.019": 0.0,
			"0.02": 0.0,
			"0.021": 0.0,
			"0.022": 0.0,
			"0.023": 0.0,
			"0.024": 0.0,
			"0.025": 0.0
		}
	}
}
