{
	 "smiles": "CSC(C)=NOC(=O)N(C)SN(C)C(=O)ON=C(/C)SC", 
	 "Tm": 446.15, 
	 "num_atms": 39, 
	 "gaussian": { 
		 "optdone": 1, 
		 "sigma_profile": "yes", 
		 "theory": "DFT", 
		 "functional": "B3LYP", 
		 "basiset": "6-31G**", 
		 "properties": { 
			 "R2extent": 14413.1086, 
			 "electric_dipole_moment_norm": 2.06557971282, 
			 "electric_quadrupole_moment_norm": 16.6684409298, 
			 "total_energy": -2106.27198304, 
			 "HOMO_LUMO_gap": 0.22037, 
			 "cosmo_polarized_energy": -19.77, 
			 "cosmo_cavitation_energy": 49.56, 
			 "cosmo_dispersion_energy": -34.52, 
			 "cosmo_repulsion_energy": 2.58, 
			 "cosmo_total_nonelectrostatic_energy": 17.62, 
			 "SMD_solvation_energy": 10.64 
		},
		"coords": [
			{
				"x": -5.568718986,
				"y": 1.8436945605,
				"z": 3.1671051269,
				"element": "C" 
			},
			{
				"x": -4.9617953406,
				"y": 3.5601140914,
				"z": 3.0404884993,
				"element": "S" 
			},
			{
				"x": -3.6665156154,
				"y": 3.3974074796,
				"z": 1.8475673065,
				"element": "C" 
			},
			{
				"x": -2.9364892462,
				"y": 4.6685081552,
				"z": 1.5022160723,
				"element": "C" 
			},
			{
				"x": -3.4413477637,
				"y": 2.2274600629,
				"z": 1.3693086414,
				"element": "N" 
			},
			{
				"x": -2.3544998136,
				"y": 2.300000929,
				"z": 0.4427964497,
				"element": "O" 
			},
			{
				"x": -2.1738994627,
				"y": 1.1123180814,
				"z": -0.226729409,
				"element": "C" 
			},
			{
				"x": -2.8913917053,
				"y": 0.1455737718,
				"z": -0.1480401689,
				"element": "O" 
			},
			{
				"x": -1.0291215447,
				"y": 1.2235677438,
				"z": -1.0138124579,
				"element": "N" 
			},
			{
				"x": -0.091854038,
				"y": 2.3558843736,
				"z": -0.8860741406,
				"element": "C" 
			},
			{
				"x": -0.704697734,
				"y": -0.0212543448,
				"z": -2.1379693017,
				"element": "S" 
			},
			{
				"x": 0.1124314125,
				"y": -1.2338239694,
				"z": -1.2544208108,
				"element": "N" 
			},
			{
				"x": -0.6509534944,
				"y": -2.3545560605,
				"z": -0.6729867692,
				"element": "C" 
			},
			{
				"x": 1.4906928301,
				"y": -1.1075513689,
				"z": -1.0907352891,
				"element": "C" 
			},
			{
				"x": 2.1561425068,
				"y": -0.1447313374,
				"z": -1.3834932134,
				"element": "O" 
			},
			{
				"x": 1.9691328186,
				"y": -2.2752832927,
				"z": -0.5439249606,
				"element": "O" 
			},
			{
				"x": 3.361532156,
				"y": -2.1840369853,
				"z": -0.2313011254,
				"element": "N" 
			},
			{
				"x": 3.7892312306,
				"y": -3.3395237157,
				"z": 0.1294493116,
				"element": "C" 
			},
			{
				"x": 2.9888606053,
				"y": -4.6126881169,
				"z": 0.2091585879,
				"element": "C" 
			},
			{
				"x": 5.4914924661,
				"y": -3.4770726025,
				"z": 0.5884329104,
				"element": "S" 
			},
			{
				"x": 6.0788670105,
				"y": -1.7648441923,
				"z": 0.3565941872,
				"element": "C" 
			},
			{
				"x": -6.391357539,
				"y": 1.8693282955,
				"z": 3.8842623613,
				"element": "H" 
			},
			{
				"x": -5.9202438879,
				"y": 1.4943002866,
				"z": 2.1959858876,
				"element": "H" 
			},
			{
				"x": -4.7750759165,
				"y": 1.1859500213,
				"z": 3.5225998375,
				"element": "H" 
			},
			{
				"x": -3.3792274838,
				"y": 5.5314106396,
				"z": 2.0031997172,
				"element": "H" 
			},
			{
				"x": -2.9620975295,
				"y": 4.8276644594,
				"z": 0.4205871148,
				"element": "H" 
			},
			{
				"x": -1.8860763281,
				"y": 4.5866169847,
				"z": 1.7978991241,
				"element": "H" 
			},
			{
				"x": 0.092547684,
				"y": 2.5734668406,
				"z": 0.168286054,
				"element": "H" 
			},
			{
				"x": -0.4897028968,
				"y": 3.2552007272,
				"z": -1.3671950177,
				"element": "H" 
			},
			{
				"x": 0.8452195616,
				"y": 2.0628407343,
				"z": -1.3567935595,
				"element": "H" 
			},
			{
				"x": -0.513762762,
				"y": -3.2712586155,
				"z": -1.255537353,
				"element": "H" 
			},
			{
				"x": -1.7016395252,
				"y": -2.0690215194,
				"z": -0.6660215657,
				"element": "H" 
			},
			{
				"x": -0.3254811397,
				"y": -2.538117777,
				"z": 0.3533692419,
				"element": "H" 
			},
			{
				"x": 2.5098863571,
				"y": -4.8095592349,
				"z": -0.7540323689,
				"element": "H" 
			},
			{
				"x": 3.6180470761,
				"y": -5.4631404095,
				"z": 0.4783351933,
				"element": "H" 
			},
			{
				"x": 2.1956145621,
				"y": -4.5075310807,
				"z": 0.9556219013,
				"element": "H" 
			},
			{
				"x": 5.5381547267,
				"y": -1.0856929872,
				"z": 1.0163356162,
				"element": "H" 
			},
			{
				"x": 5.9367478202,
				"y": -1.4531921323,
				"z": -0.6784880491,
				"element": "H" 
			},
			{
				"x": 7.1407489288,
				"y": -1.775928495,
				"z": 0.6095564177,
				"element": "H" 
			}
		],
		 "valence_orbital": [ 
			{
				"type": "occ",
				"energy": -0.26379,
				"method": "rhf"
			},
			{
				"type": "occ",
				"energy": -0.25813,
				"method": "rhf"
			},
			{
				"type": "occ",
				"energy": -0.24531,
				"method": "rhf"
			},
			{
				"type": "occ",
				"energy": -0.23337,
				"method": "rhf"
			},
			{
				"type": "occ",
				"energy": -0.23282,
				"method": "rhf"
			},
			{
				"type": "unocc",
				"energy": -0.01245,
				"method": "rhf"
			},
			{
				"type": "unocc",
				"energy": -0.01016,
				"method": "rhf"
			},
			{
				"type": "unocc",
				"energy": 0.00912,
				"method": "rhf"
			},
			{
				"type": "unocc",
				"energy": 0.00974,
				"method": "rhf"
			},
			{
				"type": "unocc",
				"energy": 0.02166,
				"method": "rhf"
			}
		],
		"cosmo_sigma_profile": { 
			"-0.025": 0.0,
			"-0.024": 0.0,
			"-0.023": 0.0,
			"-0.022": 0.0,
			"-0.021": 0.0,
			"-0.02": 0.0,
			"-0.019": 0.0,
			"-0.018": 0.0,
			"-0.017": 0.0,
			"-0.016": 0.0,
			"-0.015": 0.0,
			"-0.014": 0.0,
			"-0.013": 0.0,
			"-0.012": 0.0,
			"-0.011": 0.0,
			"-0.01": 0.0,
			"-0.009": 0.0,
			"-0.008": 0.845260361191,
			"-0.007": 5.95388941769,
			"-0.006": 19.2740409625,
			"-0.005": 29.8626906256,
			"-0.004": 35.2363547074,
			"-0.003": 47.5677571205,
			"-0.002": 58.4238263057,
			"-0.001": 32.61956677,
			"0.0": 25.1828736578,
			"0.001": 26.7512785942,
			"0.002": 21.127222905,
			"0.003": 14.979207564,
			"0.004": 12.8064257313,
			"0.005": 12.4757933191,
			"0.006": 10.6768446374,
			"0.007": 9.02355909747,
			"0.008": 4.50667925387,
			"0.009": 5.03886407729,
			"0.01": 4.20862051377,
			"0.011": 6.07162239046,
			"0.012": 6.10867621561,
			"0.013": 3.42679251767,
			"0.014": 3.19523153675,
			"0.015": 2.21080252477,
			"0.016": 0.848920798105,
			"0.017": 0.0,
			"0.018": 0.0,
			"0.019": 0.0,
			"0.02": 0.0,
			"0.021": 0.0,
			"0.022": 0.0,
			"0.023": 0.0,
			"0.024": 0.0,
			"0.025": 0.0
		}
	}
}
