{
	 "smiles": "CC(C)(C)C1=CC=C(O)C(O)=C1", 
	 "Tm": 327.75, 
	 "num_atms": 26, 
	 "gaussian": { 
		 "optdone": 1, 
		 "sigma_profile": "yes", 
		 "theory": "DFT", 
		 "functional": "B3LYP", 
		 "basiset": "6-31G**", 
		 "properties": { 
			 "R2extent": 2655.4153, 
			 "electric_dipole_moment_norm": 2.53125902468, 
			 "electric_quadrupole_moment_norm": 9.77087781676, 
			 "total_energy": -539.955192275, 
			 "HOMO_LUMO_gap": 0.20989, 
			 "cosmo_polarized_energy": -10.06, 
			 "cosmo_cavitation_energy": 27.7, 
			 "cosmo_dispersion_energy": -20.11, 
			 "cosmo_repulsion_energy": 1.59, 
			 "cosmo_total_nonelectrostatic_energy": 9.18, 
			 "SMD_solvation_energy": 5.47 
		},
		"coords": [
			{
				"x": -1.2417835378,
				"y": -1.6574319497,
				"z": 2.9452179404,
				"element": "C" 
			},
			{
				"x": -1.3845341612,
				"y": -1.0260279193,
				"z": 1.5473709111,
				"element": "C" 
			},
			{
				"x": -2.0451173393,
				"y": 0.3633105163,
				"z": 1.7137958629,
				"element": "C" 
			},
			{
				"x": -2.3108445567,
				"y": -1.9337378477,
				"z": 0.7033551553,
				"element": "C" 
			},
			{
				"x": -0.0260907324,
				"y": -0.8718354632,
				"z": 0.83934806,
				"element": "C" 
			},
			{
				"x": 1.1873343631,
				"y": -1.26477226,
				"z": 1.4145047359,
				"element": "C" 
			},
			{
				"x": 2.404350388,
				"y": -1.1096206213,
				"z": 0.7408919609,
				"element": "C" 
			},
			{
				"x": 2.4389568844,
				"y": -0.554639466,
				"z": -0.531830378,
				"element": "C" 
			},
			{
				"x": 3.621174118,
				"y": -0.4006277512,
				"z": -1.1939757449,
				"element": "O" 
			},
			{
				"x": 1.2288489152,
				"y": -0.1544330079,
				"z": -1.1242055204,
				"element": "C" 
			},
			{
				"x": 1.3517295869,
				"y": 0.3858325093,
				"z": -2.3864980272,
				"element": "O" 
			},
			{
				"x": 0.0249234057,
				"y": -0.3106386896,
				"z": -0.451574073,
				"element": "C" 
			},
			{
				"x": -2.2281096615,
				"y": -1.7483637454,
				"z": 3.4118749661,
				"element": "H" 
			},
			{
				"x": -0.6188350412,
				"y": -1.0458663467,
				"z": 3.6060072549,
				"element": "H" 
			},
			{
				"x": -0.8060532211,
				"y": -2.660633004,
				"z": 2.8957602914,
				"element": "H" 
			},
			{
				"x": -3.0153279073,
				"y": 0.2695187456,
				"z": 2.2151545487,
				"element": "H" 
			},
			{
				"x": -2.2168380912,
				"y": 0.8514158425,
				"z": 0.7493876982,
				"element": "H" 
			},
			{
				"x": -1.4141211143,
				"y": 1.0264044751,
				"z": 2.3145580749,
				"element": "H" 
			},
			{
				"x": -3.2838648372,
				"y": -2.0515850326,
				"z": 1.1940674219,
				"element": "H" 
			},
			{
				"x": -1.8715860924,
				"y": -2.9283789028,
				"z": 0.5749197764,
				"element": "H" 
			},
			{
				"x": -2.4909320527,
				"y": -1.5185855254,
				"z": -0.2931606504,
				"element": "H" 
			},
			{
				"x": 1.2065405822,
				"y": -1.7022011902,
				"z": 2.4053260115,
				"element": "H" 
			},
			{
				"x": 3.3390377654,
				"y": -1.4184465378,
				"z": 1.19788721,
				"element": "H" 
			},
			{
				"x": 3.4209599332,
				"y": -0.0003088812,
				"z": -2.0531317079,
				"element": "H" 
			},
			{
				"x": 0.4813076717,
				"y": 0.6337321905,
				"z": -2.7208763189,
				"element": "H" 
			},
			{
				"x": -0.8895252674,
				"y": 0.0121198624,
				"z": -0.9452754599,
				"element": "H" 
			}
		],
		 "valence_orbital": [ 
			{
				"type": "occ",
				"energy": -0.32151,
				"method": "rhf"
			},
			{
				"type": "occ",
				"energy": -0.31429,
				"method": "rhf"
			},
			{
				"type": "occ",
				"energy": -0.3079,
				"method": "rhf"
			},
			{
				"type": "occ",
				"energy": -0.23182,
				"method": "rhf"
			},
			{
				"type": "occ",
				"energy": -0.20171,
				"method": "rhf"
			},
			{
				"type": "unocc",
				"energy": 0.00818,
				"method": "rhf"
			},
			{
				"type": "unocc",
				"energy": 0.0238,
				"method": "rhf"
			},
			{
				"type": "unocc",
				"energy": 0.05605,
				"method": "rhf"
			},
			{
				"type": "unocc",
				"energy": 0.07891,
				"method": "rhf"
			},
			{
				"type": "unocc",
				"energy": 0.11017,
				"method": "rhf"
			}
		],
		"cosmo_sigma_profile": { 
			"-0.025": 0.0,
			"-0.024": 0.0,
			"-0.023": 0.0,
			"-0.022": 0.0,
			"-0.021": 0.0,
			"-0.02": 0.0,
			"-0.019": 0.0,
			"-0.018": 0.476943836721,
			"-0.017": 1.32497308287,
			"-0.016": 0.637132878944,
			"-0.015": 1.29008056458,
			"-0.014": 1.53125016559,
			"-0.013": 2.00939051883,
			"-0.012": 1.06728318673,
			"-0.011": 0.779440113671,
			"-0.01": 1.75445196422,
			"-0.009": 2.22199976964,
			"-0.008": 1.940981465,
			"-0.007": 1.30261793851,
			"-0.006": 3.11121819584,
			"-0.005": 5.73010603398,
			"-0.004": 7.42072007235,
			"-0.003": 14.9591933228,
			"-0.002": 26.2833429816,
			"-0.001": 21.2627398377,
			"0.0": 20.1025737403,
			"0.001": 26.4221390394,
			"0.002": 17.610209586,
			"0.003": 9.38830321234,
			"0.004": 11.1833591726,
			"0.005": 10.4685388376,
			"0.006": 10.7296733083,
			"0.007": 6.44372783321,
			"0.008": 2.23546899932,
			"0.009": 1.33706389772,
			"0.01": 1.60616696635,
			"0.011": 1.89665233458,
			"0.012": 1.70027792863,
			"0.013": 0.0241619010829,
			"0.014": 0.0,
			"0.015": 0.0,
			"0.016": 0.0,
			"0.017": 0.0,
			"0.018": 0.0,
			"0.019": 0.0,
			"0.02": 0.0,
			"0.021": 0.0,
			"0.022": 0.0,
			"0.023": 0.0,
			"0.024": 0.0,
			"0.025": 0.0
		}
	}
}
