{
	 "smiles": "CN1CCN(CC1)C(=O)CC(C1=CC=C(Cl)C=C1)(C1=CC=C(Cl)C=C1)C1=CC=C(Cl)C=C1", 
	 "Tm": 487.15, 
	 "num_atms": 57, 
	 "gaussian": { 
		 "optdone": 1, 
		 "sigma_profile": "yes", 
		 "theory": "DFT", 
		 "functional": "B3LYP", 
		 "basiset": "6-31G**", 
		 "properties": { 
			 "R2extent": 19927.1689, 
			 "electric_dipole_moment_norm": 3.78864940183, 
			 "electric_quadrupole_moment_norm": 18.9599721949, 
			 "total_energy": -2571.11978593, 
			 "HOMO_LUMO_gap": 0.18113, 
			 "cosmo_polarized_energy": -19.12, 
			 "cosmo_cavitation_energy": 61.52, 
			 "cosmo_dispersion_energy": -40.11, 
			 "cosmo_repulsion_energy": 3.07, 
			 "cosmo_total_nonelectrostatic_energy": 24.47, 
			 "SMD_solvation_energy": 6.3 
		},
		"coords": [
			{
				"x": 2.9089617661,
				"y": -2.8789390097,
				"z": -3.0464416611,
				"element": "C" 
			},
			{
				"x": 3.1417208043,
				"y": -1.6157985072,
				"z": -2.3639012473,
				"element": "N" 
			},
			{
				"x": 2.5169340311,
				"y": -0.4955010276,
				"z": -3.0701747452,
				"element": "C" 
			},
			{
				"x": 2.4630059781,
				"y": 0.7523102183,
				"z": -2.1977887945,
				"element": "C" 
			},
			{
				"x": 1.624032388,
				"y": 0.5058595299,
				"z": -1.0106193918,
				"element": "N" 
			},
			{
				"x": 1.517322461,
				"y": -0.8947065814,
				"z": -0.5861364739,
				"element": "C" 
			},
			{
				"x": 2.8197848528,
				"y": -1.6315525649,
				"z": -0.9282148649,
				"element": "C" 
			},
			{
				"x": 1.1966828789,
				"y": 1.6172667464,
				"z": -0.3279385525,
				"element": "C" 
			},
			{
				"x": 1.5224161392,
				"y": 2.7412481263,
				"z": -0.7070291827,
				"element": "O" 
			},
			{
				"x": 0.3180477775,
				"y": 1.4859238401,
				"z": 0.9229684018,
				"element": "C" 
			},
			{
				"x": -1.25110623,
				"y": 1.4523887451,
				"z": 0.7456733639,
				"element": "C" 
			},
			{
				"x": -1.6578348646,
				"y": 2.6165224955,
				"z": -0.1913817516,
				"element": "C" 
			},
			{
				"x": -2.257957842,
				"y": 3.7844333099,
				"z": 0.2987390919,
				"element": "C" 
			},
			{
				"x": -2.5781598037,
				"y": 4.8546490825,
				"z": -0.5388543103,
				"element": "C" 
			},
			{
				"x": -2.295319661,
				"y": 4.765327837,
				"z": -1.8974359819,
				"element": "C" 
			},
			{
				"x": -2.7088517456,
				"y": 6.0981772647,
				"z": -2.9660617455,
				"element": "Cl" 
			},
			{
				"x": -1.6816966733,
				"y": 3.6282439521,
				"z": -2.4189925486,
				"element": "C" 
			},
			{
				"x": -1.3614703411,
				"y": 2.5761164391,
				"z": -1.5651207064,
				"element": "C" 
			},
			{
				"x": -1.9271675931,
				"y": 1.6254586963,
				"z": 2.1365048382,
				"element": "C" 
			},
			{
				"x": -1.2362341641,
				"y": 1.9260074372,
				"z": 3.3158987908,
				"element": "C" 
			},
			{
				"x": -1.8999457852,
				"y": 2.0616189728,
				"z": 4.5402241677,
				"element": "C" 
			},
			{
				"x": -3.2792233407,
				"y": 1.9008970287,
				"z": 4.5915464592,
				"element": "C" 
			},
			{
				"x": -4.1228273303,
				"y": 2.0691349109,
				"z": 6.1232459706,
				"element": "Cl" 
			},
			{
				"x": -4.0010462811,
				"y": 1.6035220117,
				"z": 3.4341127187,
				"element": "C" 
			},
			{
				"x": -3.3219846386,
				"y": 1.4651133606,
				"z": 2.2285714824,
				"element": "C" 
			},
			{
				"x": -1.7199238239,
				"y": 0.0539697608,
				"z": 0.2475579198,
				"element": "C" 
			},
			{
				"x": -1.3997124023,
				"y": -1.0744300812,
				"z": 1.0246450395,
				"element": "C" 
			},
			{
				"x": -1.8255754972,
				"y": -2.3541760435,
				"z": 0.683568183,
				"element": "C" 
			},
			{
				"x": -2.6090644787,
				"y": -2.5277853129,
				"z": -0.4582776876,
				"element": "C" 
			},
			{
				"x": -3.1505112975,
				"y": -4.1382197127,
				"z": -0.9051531845,
				"element": "Cl" 
			},
			{
				"x": -2.97619436,
				"y": -1.4326580707,
				"z": -1.2317081723,
				"element": "C" 
			},
			{
				"x": -2.5371854339,
				"y": -0.1546446402,
				"z": -0.8702329665,
				"element": "C" 
			},
			{
				"x": 3.4680916494,
				"y": -3.6807244395,
				"z": -2.5546435701,
				"element": "H" 
			},
			{
				"x": 3.2724712407,
				"y": -2.8064284844,
				"z": -4.0773398006,
				"element": "H" 
			},
			{
				"x": 1.8428479951,
				"y": -3.1761875398,
				"z": -3.090525024,
				"element": "H" 
			},
			{
				"x": 3.0952359218,
				"y": -0.2744016197,
				"z": -3.9758351035,
				"element": "H" 
			},
			{
				"x": 1.488454065,
				"y": -0.7381515652,
				"z": -3.4043179829,
				"element": "H" 
			},
			{
				"x": 3.4752240931,
				"y": 1.0504041947,
				"z": -1.8941437753,
				"element": "H" 
			},
			{
				"x": 2.0390113623,
				"y": 1.5935088693,
				"z": -2.7490961647,
				"element": "H" 
			},
			{
				"x": 1.3471035353,
				"y": -0.9450925273,
				"z": 0.4898560315,
				"element": "H" 
			},
			{
				"x": 0.6648167297,
				"y": -1.3877528964,
				"z": -1.0692049454,
				"element": "H" 
			},
			{
				"x": 3.6384055588,
				"y": -1.1696183874,
				"z": -0.3586818487,
				"element": "H" 
			},
			{
				"x": 2.7401069494,
				"y": -2.6682170012,
				"z": -0.5854027668,
				"element": "H" 
			},
			{
				"x": 0.5585948081,
				"y": 2.4002408168,
				"z": 1.4663338412,
				"element": "H" 
			},
			{
				"x": 0.6241660567,
				"y": 0.6407706759,
				"z": 1.5452658084,
				"element": "H" 
			},
			{
				"x": -2.4847635773,
				"y": 3.8782290827,
				"z": 1.3535020872,
				"element": "H" 
			},
			{
				"x": -3.0435160289,
				"y": 5.7469341542,
				"z": -0.1349905636,
				"element": "H" 
			},
			{
				"x": -1.4461037896,
				"y": 3.5710538601,
				"z": -3.47579531,
				"element": "H" 
			},
			{
				"x": -0.8673300601,
				"y": 1.7089043661,
				"z": -1.9879848958,
				"element": "H" 
			},
			{
				"x": -0.1620993971,
				"y": 2.0629027738,
				"z": 3.3146119546,
				"element": "H" 
			},
			{
				"x": -1.3432706132,
				"y": 2.2919477961,
				"z": 5.4419138198,
				"element": "H" 
			},
			{
				"x": -5.0771854176,
				"y": 1.4776191266,
				"z": 3.4796621063,
				"element": "H" 
			},
			{
				"x": -3.8912155009,
				"y": 1.2247826139,
				"z": 1.3364074914,
				"element": "H" 
			},
			{
				"x": -0.8249415021,
				"y": -0.9539269325,
				"z": 1.9379341126,
				"element": "H" 
			},
			{
				"x": -1.5649877532,
				"y": -3.2067935087,
				"z": 1.3011258597,
				"element": "H" 
			},
			{
				"x": -3.6056913009,
				"y": -1.5675769349,
				"z": -2.1044906568,
				"element": "H" 
			},
			{
				"x": -2.8574405137,
				"y": 0.6828952924,
				"z": -1.4764531632,
				"element": "H" 
			}
		],
		 "valence_orbital": [ 
			{
				"type": "occ",
				"energy": -0.24998,
				"method": "rhf"
			},
			{
				"type": "occ",
				"energy": -0.24453,
				"method": "rhf"
			},
			{
				"type": "occ",
				"energy": -0.24076,
				"method": "rhf"
			},
			{
				"type": "occ",
				"energy": -0.23572,
				"method": "rhf"
			},
			{
				"type": "occ",
				"energy": -0.21406,
				"method": "rhf"
			},
			{
				"type": "unocc",
				"energy": -0.03293,
				"method": "rhf"
			},
			{
				"type": "unocc",
				"energy": -0.03078,
				"method": "rhf"
			},
			{
				"type": "unocc",
				"energy": -0.02781,
				"method": "rhf"
			},
			{
				"type": "unocc",
				"energy": -0.01427,
				"method": "rhf"
			},
			{
				"type": "unocc",
				"energy": -0.01283,
				"method": "rhf"
			}
		],
		"cosmo_sigma_profile": { 
			"-0.025": 0.0,
			"-0.024": 0.0,
			"-0.023": 0.0,
			"-0.022": 0.0,
			"-0.021": 0.0,
			"-0.02": 0.0,
			"-0.019": 0.0,
			"-0.018": 0.0,
			"-0.017": 0.0,
			"-0.016": 0.0,
			"-0.015": 0.0,
			"-0.014": 0.0,
			"-0.013": 0.0,
			"-0.012": 0.0,
			"-0.011": 0.0,
			"-0.01": 0.188662321888,
			"-0.009": 1.13690075236,
			"-0.008": 2.98745818571,
			"-0.007": 14.2712864621,
			"-0.006": 20.7850645412,
			"-0.005": 27.186361604,
			"-0.004": 36.5420830888,
			"-0.003": 47.5305305747,
			"-0.002": 48.0999005246,
			"-0.001": 42.367053683,
			"0.0": 42.4274584857,
			"0.001": 35.3893890005,
			"0.002": 44.3471485268,
			"0.003": 41.2050762764,
			"0.004": 35.9747755575,
			"0.005": 26.3417904937,
			"0.006": 2.70209282045,
			"0.007": 2.53257563677,
			"0.008": 2.73660550938,
			"0.009": 2.41942091983,
			"0.01": 2.26181798229,
			"0.011": 1.98993959882,
			"0.012": 2.62321926477,
			"0.013": 2.77267347179,
			"0.014": 4.61154994274,
			"0.015": 2.54466193053,
			"0.016": 0.422517545515,
			"0.017": 0.0459804330558,
			"0.018": 0.0,
			"0.019": 0.0,
			"0.02": 0.0,
			"0.021": 0.0,
			"0.022": 0.0,
			"0.023": 0.0,
			"0.024": 0.0,
			"0.025": 0.0
		}
	}
}
