{
	 "smiles": "FC(F)(F)C1=CNC(=O)NC1=O", 
	 "Tm": 589.15, 
	 "num_atms": 15, 
	 "gaussian": { 
		 "optdone": 1, 
		 "sigma_profile": "yes", 
		 "theory": "DFT", 
		 "functional": "B3LYP", 
		 "basiset": "6-31G**", 
		 "properties": { 
			 "R2extent": 3078.6639, 
			 "electric_dipole_moment_norm": 4.13622704768, 
			 "electric_quadrupole_moment_norm": 16.5834680016, 
			 "total_energy": -751.847125822, 
			 "HOMO_LUMO_gap": 0.21032, 
			 "cosmo_polarized_energy": -18.74, 
			 "cosmo_cavitation_energy": 21.77, 
			 "cosmo_dispersion_energy": -15.83, 
			 "cosmo_repulsion_energy": 1.21, 
			 "cosmo_total_nonelectrostatic_energy": 7.15, 
			 "SMD_solvation_energy": 6.83 
		},
		"coords": [
			{
				"x": -1.31417384,
				"y": -0.1558360507,
				"z": -4.1865029368,
				"element": "F" 
			},
			{
				"x": -1.2596296947,
				"y": -1.1539492366,
				"z": -3.2863078264,
				"element": "C" 
			},
			{
				"x": -0.4521159385,
				"y": -2.1178099641,
				"z": -3.8014283634,
				"element": "F" 
			},
			{
				"x": -2.4942753603,
				"y": -1.6787172873,
				"z": -3.1869467967,
				"element": "F" 
			},
			{
				"x": -0.7410119497,
				"y": -0.6853879889,
				"z": -1.960052943,
				"element": "C" 
			},
			{
				"x": 0.3865037917,
				"y": -1.2081678407,
				"z": -1.4241142633,
				"element": "C" 
			},
			{
				"x": 0.8735760195,
				"y": -0.7934770825,
				"z": -0.2165112432,
				"element": "N" 
			},
			{
				"x": 0.2680903211,
				"y": 0.192653287,
				"z": 0.5706425759,
				"element": "C" 
			},
			{
				"x": 0.7204261539,
				"y": 0.5443255766,
				"z": 1.6413327781,
				"element": "O" 
			},
			{
				"x": -0.8808896267,
				"y": 0.7050094635,
				"z": -0.0066661484,
				"element": "N" 
			},
			{
				"x": -1.4765627778,
				"y": 0.3594813808,
				"z": -1.2376644952,
				"element": "C" 
			},
			{
				"x": -2.4975301745,
				"y": 0.9074205568,
				"z": -1.6085362116,
				"element": "O" 
			},
			{
				"x": 0.9541456433,
				"y": -1.9801382715,
				"z": -1.9294504451,
				"element": "H" 
			},
			{
				"x": 1.7164228922,
				"y": -1.1917486434,
				"z": 0.1727585522,
				"element": "H" 
			},
			{
				"x": -1.3560754595,
				"y": 1.423642101,
				"z": 0.5269477669,
				"element": "H" 
			}
		],
		 "valence_orbital": [ 
			{
				"type": "occ",
				"energy": -0.38726,
				"method": "rhf"
			},
			{
				"type": "occ",
				"energy": -0.31192,
				"method": "rhf"
			},
			{
				"type": "occ",
				"energy": -0.30187,
				"method": "rhf"
			},
			{
				"type": "occ",
				"energy": -0.28116,
				"method": "rhf"
			},
			{
				"type": "occ",
				"energy": -0.27303,
				"method": "rhf"
			},
			{
				"type": "unocc",
				"energy": -0.06271,
				"method": "rhf"
			},
			{
				"type": "unocc",
				"energy": -0.01099,
				"method": "rhf"
			},
			{
				"type": "unocc",
				"energy": 0.04219,
				"method": "rhf"
			},
			{
				"type": "unocc",
				"energy": 0.08482,
				"method": "rhf"
			},
			{
				"type": "unocc",
				"energy": 0.08821,
				"method": "rhf"
			}
		],
		"cosmo_sigma_profile": { 
			"-0.025": 0.0,
			"-0.024": 0.0,
			"-0.023": 0.0,
			"-0.022": 0.0,
			"-0.021": 0.0,
			"-0.02": 0.0,
			"-0.019": 0.00736665234675,
			"-0.018": 1.25368747294,
			"-0.017": 1.85627155215,
			"-0.016": 2.66170061516,
			"-0.015": 1.60730474165,
			"-0.014": 2.26675565002,
			"-0.013": 2.27666667547,
			"-0.012": 2.86661230243,
			"-0.011": 2.53726070808,
			"-0.01": 2.80764566448,
			"-0.009": 2.45331285516,
			"-0.008": 2.7521115927,
			"-0.007": 3.60257210738,
			"-0.006": 4.77416440754,
			"-0.005": 7.25060155446,
			"-0.004": 9.20237084679,
			"-0.003": 11.5004891195,
			"-0.002": 8.37427281908,
			"-0.001": 7.22717825302,
			"0.0": 6.14383273452,
			"0.001": 6.38167584963,
			"0.002": 20.4187095471,
			"0.003": 20.9806075657,
			"0.004": 4.23084862376,
			"0.005": 4.45254515525,
			"0.006": 3.48355387245,
			"0.007": 1.99877982338,
			"0.008": 2.65047651432,
			"0.009": 4.312289227,
			"0.01": 4.22904529319,
			"0.011": 7.1456590872,
			"0.012": 10.2482546248,
			"0.013": 0.93942597928,
			"0.014": 0.0,
			"0.015": 0.0,
			"0.016": 0.0,
			"0.017": 0.0,
			"0.018": 0.0,
			"0.019": 0.0,
			"0.02": 0.0,
			"0.021": 0.0,
			"0.022": 0.0,
			"0.023": 0.0,
			"0.024": 0.0,
			"0.025": 0.0
		}
	}
}
