{
	 "smiles": "N1C=NC(=C1C1=CC=CC=C1)C1=CC=CC=C1", 
	 "Tm": 505.15, 
	 "num_atms": 29, 
	 "gaussian": { 
		 "optdone": 1, 
		 "sigma_profile": "yes", 
		 "theory": "DFT", 
		 "functional": "B3LYP", 
		 "basiset": "6-31G**", 
		 "properties": { 
			 "R2extent": 5191.7982, 
			 "electric_dipole_moment_norm": 3.6770341826, 
			 "electric_quadrupole_moment_norm": 16.4716300596, 
			 "total_energy": -688.340692713, 
			 "HOMO_LUMO_gap": 0.16752, 
			 "cosmo_polarized_energy": -14.05, 
			 "cosmo_cavitation_energy": 32.84, 
			 "cosmo_dispersion_energy": -23.64, 
			 "cosmo_repulsion_energy": 1.82, 
			 "cosmo_total_nonelectrostatic_energy": 11.02, 
			 "SMD_solvation_energy": 4.25 
		},
		"coords": [
			{
				"x": 0.5679386428,
				"y": -3.3113074306,
				"z": -1.9127781305,
				"element": "N" 
			},
			{
				"x": 0.2898944622,
				"y": -3.0790736825,
				"z": -3.2269307842,
				"element": "C" 
			},
			{
				"x": -0.4104049594,
				"y": -1.9814751363,
				"z": -3.385154588,
				"element": "N" 
			},
			{
				"x": -0.6126311065,
				"y": -1.4680245049,
				"z": -2.1154751,
				"element": "C" 
			},
			{
				"x": -0.0204134125,
				"y": -2.3000605926,
				"z": -1.1669211768,
				"element": "C" 
			},
			{
				"x": 0.0431723011,
				"y": -2.3285092997,
				"z": 0.3011443911,
				"element": "C" 
			},
			{
				"x": -1.0836741318,
				"y": -2.0187232911,
				"z": 1.0839999715,
				"element": "C" 
			},
			{
				"x": -1.0229374803,
				"y": -2.0883957697,
				"z": 2.4738605279,
				"element": "C" 
			},
			{
				"x": 0.1563349976,
				"y": -2.4813584027,
				"z": 3.1125550149,
				"element": "C" 
			},
			{
				"x": 1.2798712535,
				"y": -2.7976073731,
				"z": 2.3475599051,
				"element": "C" 
			},
			{
				"x": 1.226078836,
				"y": -2.7175648773,
				"z": 0.9562284361,
				"element": "C" 
			},
			{
				"x": -1.3346324053,
				"y": -0.1930958959,
				"z": -1.9533509251,
				"element": "C" 
			},
			{
				"x": -2.2745105482,
				"y": 0.1874995899,
				"z": -2.9271295636,
				"element": "C" 
			},
			{
				"x": -2.9644997836,
				"y": 1.3929020133,
				"z": -2.8183134486,
				"element": "C" 
			},
			{
				"x": -2.7276292102,
				"y": 2.2466715798,
				"z": -1.7384021934,
				"element": "C" 
			},
			{
				"x": -1.7846466985,
				"y": 1.8864991695,
				"z": -0.7736468803,
				"element": "C" 
			},
			{
				"x": -1.0902072221,
				"y": 0.6822190432,
				"z": -0.8813877887,
				"element": "C" 
			},
			{
				"x": 1.0180728586,
				"y": -4.1263613926,
				"z": -1.5240462837,
				"element": "H" 
			},
			{
				"x": 0.6271764138,
				"y": -3.7363018225,
				"z": -4.0170354609,
				"element": "H" 
			},
			{
				"x": -2.0070639879,
				"y": -1.7302488208,
				"z": 0.5931063849,
				"element": "H" 
			},
			{
				"x": -1.9045200805,
				"y": -1.8466097657,
				"z": 3.0606940192,
				"element": "H" 
			},
			{
				"x": 0.1984847899,
				"y": -2.5392661585,
				"z": 4.1961847353,
				"element": "H" 
			},
			{
				"x": 2.2043999124,
				"y": -3.0965217692,
				"z": 2.833418938,
				"element": "H" 
			},
			{
				"x": 2.1164857696,
				"y": -2.9334552416,
				"z": 0.3712187885,
				"element": "H" 
			},
			{
				"x": -2.4455828562,
				"y": -0.4744987077,
				"z": -3.7691362271,
				"element": "H" 
			},
			{
				"x": -3.6897380968,
				"y": 1.6670287263,
				"z": -3.5796884858,
				"element": "H" 
			},
			{
				"x": -3.2661377714,
				"y": 3.18634474,
				"z": -1.6537725485,
				"element": "H" 
			},
			{
				"x": -1.5783471866,
				"y": 2.5508185021,
				"z": 0.0611508214,
				"element": "H" 
			},
			{
				"x": -0.3428332996,
				"y": 0.4270765708,
				"z": -0.1377523486,
				"element": "H" 
			}
		],
		 "valence_orbital": [ 
			{
				"type": "occ",
				"energy": -0.26489,
				"method": "rhf"
			},
			{
				"type": "occ",
				"energy": -0.25773,
				"method": "rhf"
			},
			{
				"type": "occ",
				"energy": -0.24355,
				"method": "rhf"
			},
			{
				"type": "occ",
				"energy": -0.23727,
				"method": "rhf"
			},
			{
				"type": "occ",
				"energy": -0.19802,
				"method": "rhf"
			},
			{
				"type": "unocc",
				"energy": -0.0305,
				"method": "rhf"
			},
			{
				"type": "unocc",
				"energy": -0.00982,
				"method": "rhf"
			},
			{
				"type": "unocc",
				"energy": 0.00671,
				"method": "rhf"
			},
			{
				"type": "unocc",
				"energy": 0.01271,
				"method": "rhf"
			},
			{
				"type": "unocc",
				"energy": 0.03753,
				"method": "rhf"
			}
		],
		"cosmo_sigma_profile": { 
			"-0.025": 0.0,
			"-0.024": 0.0,
			"-0.023": 0.0,
			"-0.022": 0.0,
			"-0.021": 0.0,
			"-0.02": 0.0,
			"-0.019": 0.0,
			"-0.018": 0.0,
			"-0.017": 0.185103129096,
			"-0.016": 1.11303746388,
			"-0.015": 1.30592353869,
			"-0.014": 1.04961757155,
			"-0.013": 1.17671139932,
			"-0.012": 0.69867106875,
			"-0.011": 1.67644509163,
			"-0.01": 1.48942701717,
			"-0.009": 3.93602014119,
			"-0.008": 3.30440919745,
			"-0.007": 2.71948355112,
			"-0.006": 10.237175222,
			"-0.005": 16.7950091101,
			"-0.004": 22.6237296671,
			"-0.003": 21.446824523,
			"-0.002": 15.7419385711,
			"-0.001": 15.0240741545,
			"0.0": 16.1846364267,
			"0.001": 17.1671261799,
			"0.002": 19.9539536172,
			"0.003": 20.9069058822,
			"0.004": 20.3226412155,
			"0.005": 20.8604861923,
			"0.006": 13.0672183732,
			"0.007": 3.55526048611,
			"0.008": 1.49033067598,
			"0.009": 2.16503219035,
			"0.01": 1.14041384149,
			"0.011": 1.34556044018,
			"0.012": 1.150967736,
			"0.013": 1.24240244091,
			"0.014": 1.03316488069,
			"0.015": 0.858398632387,
			"0.016": 0.704953259731,
			"0.017": 0.269450763295,
			"0.018": 0.0,
			"0.019": 0.0,
			"0.02": 0.0,
			"0.021": 0.0,
			"0.022": 0.0,
			"0.023": 0.0,
			"0.024": 0.0,
			"0.025": 0.0
		}
	}
}
