{
	 "smiles": "CCCCN(C)C1=NC(C(O)=O)=C(Cl)C=N1", 
	 "Tm": 364.15, 
	 "num_atms": 30, 
	 "gaussian": { 
		 "optdone": 1, 
		 "sigma_profile": "yes", 
		 "theory": "DFT", 
		 "functional": "B3LYP", 
		 "basiset": "6-31G**", 
		 "properties": { 
			 "R2extent": 4950.4603, 
			 "electric_dipole_moment_norm": 1.93465519925, 
			 "electric_quadrupole_moment_norm": 8.38455788757, 
			 "total_energy": -1164.40952425, 
			 "HOMO_LUMO_gap": 0.15382, 
			 "cosmo_polarized_energy": -12.06, 
			 "cosmo_cavitation_energy": 34.96, 
			 "cosmo_dispersion_energy": -24.06, 
			 "cosmo_repulsion_energy": 1.91, 
			 "cosmo_total_nonelectrostatic_energy": 12.81, 
			 "SMD_solvation_energy": 5.11 
		},
		"coords": [
			{
				"x": 0.8492074667,
				"y": -1.5958419751,
				"z": 2.4328130036,
				"element": "C" 
			},
			{
				"x": 0.1381749682,
				"y": -0.2583853678,
				"z": 2.6788691792,
				"element": "C" 
			},
			{
				"x": 1.0785132986,
				"y": 0.9491936095,
				"z": 2.8725175355,
				"element": "C" 
			},
			{
				"x": 1.5381948468,
				"y": 1.6620972673,
				"z": 1.5879639324,
				"element": "C" 
			},
			{
				"x": 2.3732454247,
				"y": 0.8681416615,
				"z": 0.6826911888,
				"element": "N" 
			},
			{
				"x": 3.7469840627,
				"y": 0.5823974008,
				"z": 1.0794075401,
				"element": "C" 
			},
			{
				"x": 1.8676629084,
				"y": 0.3053024339,
				"z": -0.4492457885,
				"element": "C" 
			},
			{
				"x": 0.5764130531,
				"y": 0.55013752,
				"z": -0.7603479668,
				"element": "N" 
			},
			{
				"x": 0.0929466965,
				"y": 0.016714477,
				"z": -1.8781791,
				"element": "C" 
			},
			{
				"x": -1.3720492233,
				"y": 0.3130571186,
				"z": -2.1106944796,
				"element": "C" 
			},
			{
				"x": -1.6172612439,
				"y": 0.7472642944,
				"z": -3.3618604929,
				"element": "O" 
			},
			{
				"x": -2.2196890242,
				"y": 0.1987635722,
				"z": -1.2573646357,
				"element": "O" 
			},
			{
				"x": 0.8827967728,
				"y": -0.7879619195,
				"z": -2.7091756194,
				"element": "C" 
			},
			{
				"x": 0.3022577487,
				"y": -1.5821479964,
				"z": -4.1535407916,
				"element": "Cl" 
			},
			{
				"x": 2.2007114874,
				"y": -0.9993673322,
				"z": -2.2903651982,
				"element": "C" 
			},
			{
				"x": 2.7043300189,
				"y": -0.4715425049,
				"z": -1.1837056337,
				"element": "N" 
			},
			{
				"x": 1.4407257868,
				"y": -1.5909970134,
				"z": 1.5129975445,
				"element": "H" 
			},
			{
				"x": 0.1242180823,
				"y": -2.4124092092,
				"z": 2.3508829096,
				"element": "H" 
			},
			{
				"x": 1.5262499611,
				"y": -1.8379723199,
				"z": 3.2608695975,
				"element": "H" 
			},
			{
				"x": -0.5568389378,
				"y": -0.0506668537,
				"z": 1.8563862356,
				"element": "H" 
			},
			{
				"x": -0.4768089487,
				"y": -0.3608208795,
				"z": 3.5817173984,
				"element": "H" 
			},
			{
				"x": 0.5619775955,
				"y": 1.7151804965,
				"z": 3.4658737813,
				"element": "H" 
			},
			{
				"x": 1.9517768645,
				"y": 0.6493844154,
				"z": 3.4687218104,
				"element": "H" 
			},
			{
				"x": 0.667091298,
				"y": 1.9926108176,
				"z": 1.0221489597,
				"element": "H" 
			},
			{
				"x": 2.1162972045,
				"y": 2.5536181297,
				"z": 1.8637451732,
				"element": "H" 
			},
			{
				"x": 4.410465031,
				"y": 0.6286636599,
				"z": 0.2146388348,
				"element": "H" 
			},
			{
				"x": 4.055971617,
				"y": 1.3299849247,
				"z": 1.8136043097,
				"element": "H" 
			},
			{
				"x": 3.8497976722,
				"y": -0.4133402814,
				"z": 1.5285919681,
				"element": "H" 
			},
			{
				"x": -2.5761716426,
				"y": 0.9018329867,
				"z": -3.4158607266,
				"element": "H" 
			},
			{
				"x": 2.8606091542,
				"y": -1.6308911328,
				"z": -2.8825004693,
				"element": "H" 
			}
		],
		 "valence_orbital": [ 
			{
				"type": "occ",
				"energy": -0.31706,
				"method": "rhf"
			},
			{
				"type": "occ",
				"energy": -0.29338,
				"method": "rhf"
			},
			{
				"type": "occ",
				"energy": -0.28553,
				"method": "rhf"
			},
			{
				"type": "occ",
				"energy": -0.25381,
				"method": "rhf"
			},
			{
				"type": "occ",
				"energy": -0.21617,
				"method": "rhf"
			},
			{
				"type": "unocc",
				"energy": -0.06235,
				"method": "rhf"
			},
			{
				"type": "unocc",
				"energy": -0.01978,
				"method": "rhf"
			},
			{
				"type": "unocc",
				"energy": 0.02323,
				"method": "rhf"
			},
			{
				"type": "unocc",
				"energy": 0.02695,
				"method": "rhf"
			},
			{
				"type": "unocc",
				"energy": 0.07564,
				"method": "rhf"
			}
		],
		"cosmo_sigma_profile": { 
			"-0.025": 0.0,
			"-0.024": 0.0,
			"-0.023": 0.0,
			"-0.022": 0.0,
			"-0.021": 0.0,
			"-0.02": 0.0634917833797,
			"-0.019": 0.796706574067,
			"-0.018": 1.01516086819,
			"-0.017": 0.871141681288,
			"-0.016": 0.977005750139,
			"-0.015": 0.687641554685,
			"-0.014": 0.364061473501,
			"-0.013": 0.509190085708,
			"-0.012": 1.09994690656,
			"-0.011": 0.960246069741,
			"-0.01": 0.464271396707,
			"-0.009": 0.90126900877,
			"-0.008": 2.8325224372,
			"-0.007": 2.70698445298,
			"-0.006": 3.6980379204,
			"-0.005": 7.81208595224,
			"-0.004": 11.2492799268,
			"-0.003": 25.2253114218,
			"-0.002": 40.5567244151,
			"-0.001": 36.7550544865,
			"0.0": 30.7006801251,
			"0.001": 25.850129605,
			"0.002": 15.9411528046,
			"0.003": 13.9648937826,
			"0.004": 11.5967073802,
			"0.005": 6.58260017588,
			"0.006": 5.19646477936,
			"0.007": 6.63152827094,
			"0.008": 4.4951491119,
			"0.009": 4.48643964392,
			"0.01": 6.87499765443,
			"0.011": 5.39894849906,
			"0.012": 0.55446773326,
			"0.013": 0.0247360749835,
			"0.014": 0.0,
			"0.015": 0.0,
			"0.016": 0.0,
			"0.017": 0.0,
			"0.018": 0.0,
			"0.019": 0.0,
			"0.02": 0.0,
			"0.021": 0.0,
			"0.022": 0.0,
			"0.023": 0.0,
			"0.024": 0.0,
			"0.025": 0.0
		}
	}
}
