{
	 "smiles": "C#CCCCCCC#C", 
	 "Tm": 252.15, 
	 "num_atms": 21, 
	 "gaussian": { 
		 "optdone": 1, 
		 "sigma_profile": "yes", 
		 "theory": "DFT", 
		 "functional": "B3LYP", 
		 "basiset": "6-31G**", 
		 "properties": { 
			 "R2extent": 1765.569, 
			 "electric_dipole_moment_norm": 1.41435440396, 
			 "electric_quadrupole_moment_norm": 6.643362638, 
			 "total_energy": -350.051748881, 
			 "HOMO_LUMO_gap": 0.3007, 
			 "cosmo_polarized_energy": -6.5, 
			 "cosmo_cavitation_energy": 25.28, 
			 "cosmo_dispersion_energy": -16.54, 
			 "cosmo_repulsion_energy": 1.37, 
			 "cosmo_total_nonelectrostatic_energy": 10.11, 
			 "SMD_solvation_energy": 6.42 
		},
		"coords": [
			{
				"x": -2.6200817195,
				"y": 0.017984255,
				"z": -1.5762536797,
				"element": "C" 
			},
			{
				"x": -1.8015223755,
				"y": -0.1034473344,
				"z": -0.6960286689,
				"element": "C" 
			},
			{
				"x": -0.8124194828,
				"y": -0.2309765441,
				"z": 0.3743323149,
				"element": "C" 
			},
			{
				"x": -0.4506934781,
				"y": 1.1249620729,
				"z": 1.0186911368,
				"element": "C" 
			},
			{
				"x": 0.470639832,
				"y": 1.0019841766,
				"z": 2.2434684194,
				"element": "C" 
			},
			{
				"x": 1.8607133349,
				"y": 0.3781278303,
				"z": 2.0259555895,
				"element": "C" 
			},
			{
				"x": 2.8210468049,
				"y": 1.1808908484,
				"z": 1.1146407243,
				"element": "C" 
			},
			{
				"x": 2.5573045471,
				"y": 1.0665673164,
				"z": -0.3213773781,
				"element": "C" 
			},
			{
				"x": 2.3624581025,
				"y": 0.9526970197,
				"z": -1.5086915675,
				"element": "C" 
			},
			{
				"x": -3.3412812339,
				"y": 0.1214839069,
				"z": -2.3530082358,
				"element": "H" 
			},
			{
				"x": -1.1990279692,
				"y": -0.9134112408,
				"z": 1.1445200263,
				"element": "H" 
			},
			{
				"x": 0.0922768199,
				"y": -0.6984099523,
				"z": -0.0325341829,
				"element": "H" 
			},
			{
				"x": 0.004441413,
				"y": 1.7637274786,
				"z": 0.255915627,
				"element": "H" 
			},
			{
				"x": -1.3772534951,
				"y": 1.620823225,
				"z": 1.3304418535,
				"element": "H" 
			},
			{
				"x": -0.0453682904,
				"y": 0.4117212848,
				"z": 3.0134104117,
				"element": "H" 
			},
			{
				"x": 0.6044124415,
				"y": 2.00342452,
				"z": 2.6747805695,
				"element": "H" 
			},
			{
				"x": 2.3432149377,
				"y": 0.2904567468,
				"z": 3.0069872547,
				"element": "H" 
			},
			{
				"x": 1.7732902416,
				"y": -0.6434779744,
				"z": 1.6387583902,
				"element": "H" 
			},
			{
				"x": 3.8479758958,
				"y": 0.8396537626,
				"z": 1.3000545131,
				"element": "H" 
			},
			{
				"x": 2.7990547968,
				"y": 2.2399828691,
				"z": 1.406819798,
				"element": "H" 
			},
			{
				"x": 2.1773188768,
				"y": 0.858935733,
				"z": -2.5535829159,
				"element": "H" 
			}
		],
		 "valence_orbital": [ 
			{
				"type": "occ",
				"energy": -0.32963,
				"method": "rhf"
			},
			{
				"type": "occ",
				"energy": -0.26305,
				"method": "rhf"
			},
			{
				"type": "occ",
				"energy": -0.25978,
				"method": "rhf"
			},
			{
				"type": "occ",
				"energy": -0.25321,
				"method": "rhf"
			},
			{
				"type": "occ",
				"energy": -0.25224,
				"method": "rhf"
			},
			{
				"type": "unocc",
				"energy": 0.04846,
				"method": "rhf"
			},
			{
				"type": "unocc",
				"energy": 0.05743,
				"method": "rhf"
			},
			{
				"type": "unocc",
				"energy": 0.06277,
				"method": "rhf"
			},
			{
				"type": "unocc",
				"energy": 0.06873,
				"method": "rhf"
			},
			{
				"type": "unocc",
				"energy": 0.09295,
				"method": "rhf"
			}
		],
		"cosmo_sigma_profile": { 
			"-0.025": 0.0,
			"-0.024": 0.0,
			"-0.023": 0.0,
			"-0.022": 0.0,
			"-0.021": 0.0,
			"-0.02": 0.0,
			"-0.019": 0.0,
			"-0.018": 0.0,
			"-0.017": 0.0,
			"-0.016": 0.0,
			"-0.015": 0.0,
			"-0.014": 0.0,
			"-0.013": 0.0,
			"-0.012": 0.0178573313207,
			"-0.011": 1.71102994837,
			"-0.01": 2.2955372281,
			"-0.009": 2.24419680795,
			"-0.008": 1.46501817123,
			"-0.007": 3.32300301777,
			"-0.006": 1.84447730184,
			"-0.005": 7.04390555716,
			"-0.004": 11.4865399071,
			"-0.003": 24.9872708257,
			"-0.002": 27.1475517908,
			"-0.001": 22.7328095396,
			"0.0": 16.911295819,
			"0.001": 11.9602655055,
			"0.002": 9.10764370847,
			"0.003": 9.16641720206,
			"0.004": 9.38019083452,
			"0.005": 8.54264492917,
			"0.006": 7.40102569077,
			"0.007": 13.4265577583,
			"0.008": 7.9636650946,
			"0.009": 0.0163027045908,
			"0.01": 0.0,
			"0.011": 0.0,
			"0.012": 0.0,
			"0.013": 0.0,
			"0.014": 0.0,
			"0.015": 0.0,
			"0.016": 0.0,
			"0.017": 0.0,
			"0.018": 0.0,
			"0.019": 0.0,
			"0.02": 0.0,
			"0.021": 0.0,
			"0.022": 0.0,
			"0.023": 0.0,
			"0.024": 0.0,
			"0.025": 0.0
		}
	}
}
