{
	 "smiles": "COC(=O)C(C)OC1=C(Br)C=C(F)C=C1", 
	 "Tm": 312.15, 
	 "num_atms": 25, 
	 "gaussian": { 
		 "optdone": 1, 
		 "sigma_profile": "yes", 
		 "theory": "DFT", 
		 "functional": "B3LYP", 
		 "basiset": "6-31G**", 
		 "properties": { 
			 "R2extent": 5230.8345, 
			 "electric_dipole_moment_norm": 2.87136199216, 
			 "electric_quadrupole_moment_norm": 10.1377312945, 
			 "total_energy": -3283.99370545, 
			 "HOMO_LUMO_gap": 0.21707, 
			 "cosmo_polarized_energy": -8.67, 
			 "cosmo_cavitation_energy": 32.27, 
			 "cosmo_dispersion_energy": -22.77, 
			 "cosmo_repulsion_energy": 1.78, 
			 "cosmo_total_nonelectrostatic_energy": 11.28, 
			 "SMD_solvation_energy": 6.72 
		},
		"coords": [
			{
				"x": 2.9316512939,
				"y": 0.3185028432,
				"z": 4.1540310033,
				"element": "C" 
			},
			{
				"x": 1.7013498378,
				"y": 0.8578496369,
				"z": 3.6380047015,
				"element": "O" 
			},
			{
				"x": 1.6237392605,
				"y": 0.9437485459,
				"z": 2.2933865459,
				"element": "C" 
			},
			{
				"x": 2.5023586935,
				"y": 0.5890657673,
				"z": 1.5406844913,
				"element": "O" 
			},
			{
				"x": 0.2846060602,
				"y": 1.5731740664,
				"z": 1.8910187405,
				"element": "C" 
			},
			{
				"x": 0.2664899302,
				"y": 3.0665965753,
				"z": 2.2146540336,
				"element": "C" 
			},
			{
				"x": 0.0670265689,
				"y": 1.4456834491,
				"z": 0.4871038295,
				"element": "O" 
			},
			{
				"x": -0.3840504228,
				"y": 0.2308218085,
				"z": 0.0265284681,
				"element": "C" 
			},
			{
				"x": -1.746387213,
				"y": -0.1041403453,
				"z": 0.0512811144,
				"element": "C" 
			},
			{
				"x": -3.0173643422,
				"y": 1.1024346115,
				"z": 0.8061854377,
				"element": "Br" 
			},
			{
				"x": -2.2027283567,
				"y": -1.3059379122,
				"z": -0.4874657684,
				"element": "C" 
			},
			{
				"x": -1.2750170961,
				"y": -2.1679929251,
				"z": -1.0600730341,
				"element": "C" 
			},
			{
				"x": -1.7133464341,
				"y": -3.3303250221,
				"z": -1.5841556542,
				"element": "F" 
			},
			{
				"x": 0.0808637972,
				"y": -1.8659102807,
				"z": -1.1108442924,
				"element": "C" 
			},
			{
				"x": 0.5179041915,
				"y": -0.6622714179,
				"z": -0.5623260414,
				"element": "C" 
			},
			{
				"x": 3.086845987,
				"y": -0.69868826,
				"z": 3.7865444274,
				"element": "H" 
			},
			{
				"x": 3.7794031399,
				"y": 0.9375019606,
				"z": 3.8504166241,
				"element": "H" 
			},
			{
				"x": 2.822633376,
				"y": 0.3221566844,
				"z": 5.2381898503,
				"element": "H" 
			},
			{
				"x": -0.5094596298,
				"y": 1.0640527933,
				"z": 2.4506345087,
				"element": "H" 
			},
			{
				"x": 0.4432018642,
				"y": 3.2277677162,
				"z": 3.2803613078,
				"element": "H" 
			},
			{
				"x": 1.0406680334,
				"y": 3.5833132386,
				"z": 1.6404078536,
				"element": "H" 
			},
			{
				"x": -0.7064465582,
				"y": 3.4809521378,
				"z": 1.9418608289,
				"element": "H" 
			},
			{
				"x": -3.2534019295,
				"y": -1.5676089485,
				"z": -0.4731495386,
				"element": "H" 
			},
			{
				"x": 0.7717124131,
				"y": -2.5641582714,
				"z": -1.569860715,
				"element": "H" 
			},
			{
				"x": 1.5657475352,
				"y": -0.3870884518,
				"z": -0.5645187224,
				"element": "H" 
			}
		],
		 "valence_orbital": [ 
			{
				"type": "occ",
				"energy": -0.29884,
				"method": "rhf"
			},
			{
				"type": "occ",
				"energy": -0.29158,
				"method": "rhf"
			},
			{
				"type": "occ",
				"energy": -0.27618,
				"method": "rhf"
			},
			{
				"type": "occ",
				"energy": -0.25687,
				"method": "rhf"
			},
			{
				"type": "occ",
				"energy": -0.23927,
				"method": "rhf"
			},
			{
				"type": "unocc",
				"energy": -0.0222,
				"method": "rhf"
			},
			{
				"type": "unocc",
				"energy": -0.00575,
				"method": "rhf"
			},
			{
				"type": "unocc",
				"energy": -0.00296,
				"method": "rhf"
			},
			{
				"type": "unocc",
				"energy": 0.00292,
				"method": "rhf"
			},
			{
				"type": "unocc",
				"energy": 0.0968,
				"method": "rhf"
			}
		],
		"cosmo_sigma_profile": { 
			"-0.025": 0.0,
			"-0.024": 0.0,
			"-0.023": 0.0,
			"-0.022": 0.0,
			"-0.021": 0.0,
			"-0.02": 0.0,
			"-0.019": 0.0,
			"-0.018": 0.0,
			"-0.017": 0.0,
			"-0.016": 0.0,
			"-0.015": 0.0,
			"-0.014": 0.0,
			"-0.013": 0.0,
			"-0.012": 0.0,
			"-0.011": 0.0,
			"-0.01": 0.0,
			"-0.009": 0.328972893454,
			"-0.008": 2.52450760884,
			"-0.007": 5.49569767655,
			"-0.006": 11.3089707908,
			"-0.005": 18.2299430633,
			"-0.004": 22.7956780412,
			"-0.003": 21.2042990311,
			"-0.002": 18.0953475682,
			"-0.001": 21.0848305199,
			"0.0": 23.7920809222,
			"0.001": 27.6003582962,
			"0.002": 20.5440267954,
			"0.003": 16.5257465996,
			"0.004": 21.3220610351,
			"0.005": 6.56303689869,
			"0.006": 3.50282163199,
			"0.007": 3.88149388346,
			"0.008": 4.12115532734,
			"0.009": 2.7803723808,
			"0.01": 4.4735277554,
			"0.011": 3.30578918863,
			"0.012": 0.728777077736,
			"0.013": 0.0,
			"0.014": 0.0,
			"0.015": 0.0,
			"0.016": 0.0,
			"0.017": 0.0,
			"0.018": 0.0,
			"0.019": 0.0,
			"0.02": 0.0,
			"0.021": 0.0,
			"0.022": 0.0,
			"0.023": 0.0,
			"0.024": 0.0,
			"0.025": 0.0
		}
	}
}
