{
	 "smiles": "OC(=O)CC=CC1=CC=CC=C1", 
	 "Tm": 360.15, 
	 "num_atms": 22, 
	 "gaussian": { 
		 "optdone": 1, 
		 "sigma_profile": "yes", 
		 "theory": "DFT", 
		 "functional": "B3LYP", 
		 "basiset": "6-31G**", 
		 "properties": { 
			 "R2extent": 3806.6829, 
			 "electric_dipole_moment_norm": 1.37098976656, 
			 "electric_quadrupole_moment_norm": 9.9128112511, 
			 "total_energy": -537.54082402, 
			 "HOMO_LUMO_gap": 0.18775, 
			 "cosmo_polarized_energy": -10.93, 
			 "cosmo_cavitation_energy": 26.98, 
			 "cosmo_dispersion_energy": -19.58, 
			 "cosmo_repulsion_energy": 1.58, 
			 "cosmo_total_nonelectrostatic_energy": 8.97, 
			 "SMD_solvation_energy": 5.84 
		},
		"coords": [
			{
				"x": 1.7915778874,
				"y": -4.8842522927,
				"z": 1.5703396483,
				"element": "O" 
			},
			{
				"x": 2.015864139,
				"y": -3.8520564171,
				"z": 0.7216780278,
				"element": "C" 
			},
			{
				"x": 2.3305372103,
				"y": -4.0138162005,
				"z": -0.4360671524,
				"element": "O" 
			},
			{
				"x": 1.8613637481,
				"y": -2.5157898856,
				"z": 1.4260160713,
				"element": "C" 
			},
			{
				"x": 1.7084767174,
				"y": -1.367088409,
				"z": 0.4722672649,
				"element": "C" 
			},
			{
				"x": 0.8019266879,
				"y": -0.3919762867,
				"z": 0.6252123872,
				"element": "C" 
			},
			{
				"x": 0.5929749188,
				"y": 0.7799256576,
				"z": -0.239252009,
				"element": "C" 
			},
			{
				"x": -0.4081216842,
				"y": 1.7048329414,
				"z": 0.1055056747,
				"element": "C" 
			},
			{
				"x": -0.6511092127,
				"y": 2.8335145833,
				"z": -0.6762563586,
				"element": "C" 
			},
			{
				"x": 0.1048829459,
				"y": 3.0628271621,
				"z": -1.8259626746,
				"element": "C" 
			},
			{
				"x": 1.1041903416,
				"y": 2.1524215441,
				"z": -2.1841599117,
				"element": "C" 
			},
			{
				"x": 1.3463627341,
				"y": 1.0267590264,
				"z": -1.4026342612,
				"element": "C" 
			},
			{
				"x": 1.9419143298,
				"y": -5.6946403711,
				"z": 1.054640867,
				"element": "H" 
			},
			{
				"x": 2.7705836666,
				"y": -2.3974418482,
				"z": 2.0377044104,
				"element": "H" 
			},
			{
				"x": 1.0304313492,
				"y": -2.5762597428,
				"z": 2.1356504372,
				"element": "H" 
			},
			{
				"x": 2.3929359235,
				"y": -1.3717329776,
				"z": -0.3718906183,
				"element": "H" 
			},
			{
				"x": 0.1302615928,
				"y": -0.4476106333,
				"z": 1.4829804686,
				"element": "H" 
			},
			{
				"x": -1.0015176188,
				"y": 1.5318123076,
				"z": 1.0001092392,
				"element": "H" 
			},
			{
				"x": -1.4308289843,
				"y": 3.5324582892,
				"z": -0.3868443887,
				"element": "H" 
			},
			{
				"x": -0.0807648802,
				"y": 3.9402178726,
				"z": -2.438611302,
				"element": "H" 
			},
			{
				"x": 1.697252497,
				"y": 2.3217740393,
				"z": -3.0785851285,
				"element": "H" 
			},
			{
				"x": 2.1258056909,
				"y": 0.3322216407,
				"z": -1.7003406914,
				"element": "H" 
			}
		],
		 "valence_orbital": [ 
			{
				"type": "occ",
				"energy": -0.32133,
				"method": "rhf"
			},
			{
				"type": "occ",
				"energy": -0.29556,
				"method": "rhf"
			},
			{
				"type": "occ",
				"energy": -0.27819,
				"method": "rhf"
			},
			{
				"type": "occ",
				"energy": -0.24929,
				"method": "rhf"
			},
			{
				"type": "occ",
				"energy": -0.21929,
				"method": "rhf"
			},
			{
				"type": "unocc",
				"energy": -0.03154,
				"method": "rhf"
			},
			{
				"type": "unocc",
				"energy": 0.00147,
				"method": "rhf"
			},
			{
				"type": "unocc",
				"energy": 0.00881,
				"method": "rhf"
			},
			{
				"type": "unocc",
				"energy": 0.05969,
				"method": "rhf"
			},
			{
				"type": "unocc",
				"energy": 0.07736,
				"method": "rhf"
			}
		],
		"cosmo_sigma_profile": { 
			"-0.025": 0.0,
			"-0.024": 0.0,
			"-0.023": 0.0,
			"-0.022": 0.0,
			"-0.021": 0.0,
			"-0.02": 0.0,
			"-0.019": 0.0126832472482,
			"-0.018": 0.672029617925,
			"-0.017": 0.697576043072,
			"-0.016": 1.10003500622,
			"-0.015": 0.9686403128,
			"-0.014": 0.754653013664,
			"-0.013": 0.252607521797,
			"-0.012": 0.746966192104,
			"-0.011": 0.802292231926,
			"-0.01": 1.0680329896,
			"-0.009": 0.497483962817,
			"-0.008": 0.689255514684,
			"-0.007": 4.72266031327,
			"-0.006": 12.9638801885,
			"-0.005": 18.2258789499,
			"-0.004": 19.4671810567,
			"-0.003": 17.2701861639,
			"-0.002": 12.9773270703,
			"-0.001": 12.5131350092,
			"0.0": 10.7162859276,
			"0.001": 9.70097314742,
			"0.002": 11.8208520784,
			"0.003": 13.3245356717,
			"0.004": 15.9661841826,
			"0.005": 16.3066264779,
			"0.006": 10.589803895,
			"0.007": 3.19606125797,
			"0.008": 2.53326619307,
			"0.009": 3.42776610087,
			"0.01": 2.9355098238,
			"0.011": 3.54514310357,
			"0.012": 4.17796288428,
			"0.013": 0.0893941951545,
			"0.014": 0.0,
			"0.015": 0.0,
			"0.016": 0.0,
			"0.017": 0.0,
			"0.018": 0.0,
			"0.019": 0.0,
			"0.02": 0.0,
			"0.021": 0.0,
			"0.022": 0.0,
			"0.023": 0.0,
			"0.024": 0.0,
			"0.025": 0.0
		}
	}
}
