{
	 "smiles": "NC1=CC=C(C=C1)C(=O)NC1=CC=CC=C1", 
	 "Tm": 408.15, 
	 "num_atms": 28, 
	 "gaussian": { 
		 "optdone": 1, 
		 "sigma_profile": "yes", 
		 "theory": "DFT", 
		 "functional": "B3LYP", 
		 "basiset": "6-31G**", 
		 "properties": { 
			 "R2extent": 5391.6157, 
			 "electric_dipole_moment_norm": 4.93973146031, 
			 "electric_quadrupole_moment_norm": 25.2672267398, 
			 "total_energy": -687.369603961, 
			 "HOMO_LUMO_gap": 0.17703, 
			 "cosmo_polarized_energy": -18.01, 
			 "cosmo_cavitation_energy": 32.27, 
			 "cosmo_dispersion_energy": -23.93, 
			 "cosmo_repulsion_energy": 1.84, 
			 "cosmo_total_nonelectrostatic_energy": 10.17, 
			 "SMD_solvation_energy": 5.77 
		},
		"coords": [
			{
				"x": 0.5183573116,
				"y": 0.6661195693,
				"z": 5.7953468758,
				"element": "N" 
			},
			{
				"x": 0.2983127588,
				"y": 0.5908911915,
				"z": 4.4273186986,
				"element": "C" 
			},
			{
				"x": 1.3272342336,
				"y": 0.887086168,
				"z": 3.5141104492,
				"element": "C" 
			},
			{
				"x": 1.1181261406,
				"y": 0.7530810584,
				"z": 2.146659988,
				"element": "C" 
			},
			{
				"x": -0.1173741483,
				"y": 0.3222724859,
				"z": 1.6384044873,
				"element": "C" 
			},
			{
				"x": -1.1473435144,
				"y": 0.0514779889,
				"z": 2.5531316378,
				"element": "C" 
			},
			{
				"x": -0.9476136566,
				"y": 0.1731090301,
				"z": 3.9194805473,
				"element": "C" 
			},
			{
				"x": -0.432052928,
				"y": 0.167969356,
				"z": 0.1836891245,
				"element": "C" 
			},
			{
				"x": -1.5895270566,
				"y": 0.1684287086,
				"z": -0.227368018,
				"element": "O" 
			},
			{
				"x": 0.6662454377,
				"y": 0.0105693639,
				"z": -0.6407256998,
				"element": "N" 
			},
			{
				"x": 0.711110158,
				"y": -0.1253608423,
				"z": -2.0425692967,
				"element": "C" 
			},
			{
				"x": -0.4226184544,
				"y": -0.0402436723,
				"z": -2.8670842189,
				"element": "C" 
			},
			{
				"x": -0.2750708587,
				"y": -0.1753118476,
				"z": -4.2478159133,
				"element": "C" 
			},
			{
				"x": 0.9750595568,
				"y": -0.3947836843,
				"z": -4.8278837751,
				"element": "C" 
			},
			{
				"x": 2.0995702639,
				"y": -0.4799169989,
				"z": -4.0045656347,
				"element": "C" 
			},
			{
				"x": 1.9707973838,
				"y": -0.34569501,
				"z": -2.6252814385,
				"element": "C" 
			},
			{
				"x": 1.2814477854,
				"y": 1.2559442214,
				"z": 6.0945237682,
				"element": "H" 
			},
			{
				"x": -0.3034179659,
				"y": 0.7609785206,
				"z": 6.3745724209,
				"element": "H" 
			},
			{
				"x": 2.2896452328,
				"y": 1.2316150846,
				"z": 3.8839020167,
				"element": "H" 
			},
			{
				"x": 1.9266344786,
				"y": 1.0344633346,
				"z": 1.4766224257,
				"element": "H" 
			},
			{
				"x": -2.1109557249,
				"y": -0.2547610206,
				"z": 2.1602036399,
				"element": "H" 
			},
			{
				"x": -1.7562076833,
				"y": -0.0552230871,
				"z": 4.6094711186,
				"element": "H" 
			},
			{
				"x": 1.5525091893,
				"y": -0.1178832666,
				"z": -0.1761587974,
				"element": "H" 
			},
			{
				"x": -1.3917880765,
				"y": 0.1210405391,
				"z": -2.417956176,
				"element": "H" 
			},
			{
				"x": -1.1588823465,
				"y": -0.1084308325,
				"z": -4.8763010093,
				"element": "H" 
			},
			{
				"x": 1.0727745367,
				"y": -0.4990804486,
				"z": -5.9041744177,
				"element": "H" 
			},
			{
				"x": 3.082578588,
				"y": -0.6507170022,
				"z": -4.4342916867,
				"element": "H" 
			},
			{
				"x": 2.8524493586,
				"y": -0.4112389077,
				"z": -1.9906611165,
				"element": "H" 
			}
		],
		 "valence_orbital": [ 
			{
				"type": "occ",
				"energy": -0.25807,
				"method": "rhf"
			},
			{
				"type": "occ",
				"energy": -0.247,
				"method": "rhf"
			},
			{
				"type": "occ",
				"energy": -0.24354,
				"method": "rhf"
			},
			{
				"type": "occ",
				"energy": -0.21813,
				"method": "rhf"
			},
			{
				"type": "occ",
				"energy": -0.20656,
				"method": "rhf"
			},
			{
				"type": "unocc",
				"energy": -0.02953,
				"method": "rhf"
			},
			{
				"type": "unocc",
				"energy": -0.00769,
				"method": "rhf"
			},
			{
				"type": "unocc",
				"energy": 0.00608,
				"method": "rhf"
			},
			{
				"type": "unocc",
				"energy": 0.01823,
				"method": "rhf"
			},
			{
				"type": "unocc",
				"energy": 0.06711,
				"method": "rhf"
			}
		],
		"cosmo_sigma_profile": { 
			"-0.025": 0.0,
			"-0.024": 0.0,
			"-0.023": 0.0,
			"-0.022": 0.0,
			"-0.021": 0.0,
			"-0.02": 0.0,
			"-0.019": 0.0,
			"-0.018": 0.0,
			"-0.017": 0.0,
			"-0.016": 0.0,
			"-0.015": 0.0757932877202,
			"-0.014": 1.22647647963,
			"-0.013": 2.85802506156,
			"-0.012": 4.96634860607,
			"-0.011": 3.87256654974,
			"-0.01": 5.14704016013,
			"-0.009": 3.94111998023,
			"-0.008": 4.56654862832,
			"-0.007": 6.78857779497,
			"-0.006": 10.034360941,
			"-0.005": 13.9852059026,
			"-0.004": 16.5628804537,
			"-0.003": 15.9059865478,
			"-0.002": 12.7532208937,
			"-0.001": 12.7716031378,
			"0.0": 12.9976092545,
			"0.001": 16.0152764393,
			"0.002": 16.2607106558,
			"0.003": 16.9541966567,
			"0.004": 20.691743345,
			"0.005": 24.0987573638,
			"0.006": 14.0600361765,
			"0.007": 3.89027589547,
			"0.008": 2.67805120297,
			"0.009": 2.59915987804,
			"0.01": 2.37066466695,
			"0.011": 2.30114288451,
			"0.012": 2.99100835139,
			"0.013": 3.64421330037,
			"0.014": 1.11737238178,
			"0.015": 0.0,
			"0.016": 0.0,
			"0.017": 0.0,
			"0.018": 0.0,
			"0.019": 0.0,
			"0.02": 0.0,
			"0.021": 0.0,
			"0.022": 0.0,
			"0.023": 0.0,
			"0.024": 0.0,
			"0.025": 0.0
		}
	}
}
