{
	 "smiles": "SC1=NN=C(S1)N1CCOCC1", 
	 "Tm": 453.15, 
	 "num_atms": 21, 
	 "gaussian": { 
		 "optdone": 1, 
		 "sigma_profile": "yes", 
		 "theory": "DFT", 
		 "functional": "B3LYP", 
		 "basiset": "6-31G**", 
		 "properties": { 
			 "R2extent": 4085.7642, 
			 "electric_dipole_moment_norm": 2.27879189704, 
			 "electric_quadrupole_moment_norm": 7.04638572674, 
			 "total_energy": -1269.85599102, 
			 "HOMO_LUMO_gap": 0.18821, 
			 "cosmo_polarized_energy": -12.39, 
			 "cosmo_cavitation_energy": 27.04, 
			 "cosmo_dispersion_energy": -21.38, 
			 "cosmo_repulsion_energy": 1.61, 
			 "cosmo_total_nonelectrostatic_energy": 7.27, 
			 "SMD_solvation_energy": 1.01 
		},
		"coords": [
			{
				"x": -1.5591918964,
				"y": -1.735097059,
				"z": -3.3058391303,
				"element": "S" 
			},
			{
				"x": -1.3242089179,
				"y": -0.8592286232,
				"z": -1.7861925699,
				"element": "C" 
			},
			{
				"x": -0.303246553,
				"y": -0.1142476472,
				"z": -1.5093876878,
				"element": "N" 
			},
			{
				"x": -0.3500280089,
				"y": 0.4345621042,
				"z": -0.2528932947,
				"element": "N" 
			},
			{
				"x": -1.4318633857,
				"y": 0.114477875,
				"z": 0.4122554203,
				"element": "C" 
			},
			{
				"x": -2.5231699872,
				"y": -0.9674909565,
				"z": -0.4885756442,
				"element": "S" 
			},
			{
				"x": -1.7499374103,
				"y": 0.6139572229,
				"z": 1.6439415458,
				"element": "N" 
			},
			{
				"x": -0.7493892551,
				"y": 1.4314609613,
				"z": 2.3475479505,
				"element": "C" 
			},
			{
				"x": -0.0243838133,
				"y": 0.5806659391,
				"z": 3.3919664528,
				"element": "C" 
			},
			{
				"x": -0.9528816701,
				"y": -0.0287287849,
				"z": 4.2859750396,
				"element": "O" 
			},
			{
				"x": -1.8670341732,
				"y": -0.8711062368,
				"z": 3.6001347823,
				"element": "C" 
			},
			{
				"x": -2.6628052592,
				"y": -0.0759127072,
				"z": 2.5575357378,
				"element": "C" 
			},
			{
				"x": -0.3815402811,
				"y": -1.3179097236,
				"z": -3.8123656493,
				"element": "H" 
			},
			{
				"x": -0.055151057,
				"y": 1.8420667665,
				"z": 1.6143061186,
				"element": "H" 
			},
			{
				"x": -1.2797254389,
				"y": 2.2520290939,
				"z": 2.8458404026,
				"element": "H" 
			},
			{
				"x": 0.6361471498,
				"y": 1.1994700011,
				"z": 4.0060606836,
				"element": "H" 
			},
			{
				"x": 0.5817300562,
				"y": -0.1878436417,
				"z": 2.8869213996,
				"element": "H" 
			},
			{
				"x": -2.5355873669,
				"y": -1.2921425157,
				"z": 4.3572076913,
				"element": "H" 
			},
			{
				"x": -1.3326565505,
				"y": -1.698273584,
				"z": 3.1038939132,
				"element": "H" 
			},
			{
				"x": -3.3378735636,
				"y": -0.7291403709,
				"z": 1.9986720268,
				"element": "H" 
			},
			{
				"x": -3.2721026177,
				"y": 0.6810318866,
				"z": 3.0661948114,
				"element": "H" 
			}
		],
		 "valence_orbital": [ 
			{
				"type": "occ",
				"energy": -0.2999,
				"method": "rhf"
			},
			{
				"type": "occ",
				"energy": -0.28433,
				"method": "rhf"
			},
			{
				"type": "occ",
				"energy": -0.26304,
				"method": "rhf"
			},
			{
				"type": "occ",
				"energy": -0.25808,
				"method": "rhf"
			},
			{
				"type": "occ",
				"energy": -0.20763,
				"method": "rhf"
			},
			{
				"type": "unocc",
				"energy": -0.01942,
				"method": "rhf"
			},
			{
				"type": "unocc",
				"energy": -0.01421,
				"method": "rhf"
			},
			{
				"type": "unocc",
				"energy": 0.01656,
				"method": "rhf"
			},
			{
				"type": "unocc",
				"energy": 0.03814,
				"method": "rhf"
			},
			{
				"type": "unocc",
				"energy": 0.04452,
				"method": "rhf"
			}
		],
		"cosmo_sigma_profile": { 
			"-0.025": 0.0,
			"-0.024": 0.0,
			"-0.023": 0.0,
			"-0.022": 0.0,
			"-0.021": 0.0,
			"-0.02": 0.0,
			"-0.019": 0.0,
			"-0.018": 0.0,
			"-0.017": 0.0,
			"-0.016": 0.0,
			"-0.015": 0.0,
			"-0.014": 0.0,
			"-0.013": 0.0,
			"-0.012": 1.13452043724,
			"-0.011": 1.40667092012,
			"-0.01": 1.38601186386,
			"-0.009": 1.12780218309,
			"-0.008": 1.63065331399,
			"-0.007": 3.7238797503,
			"-0.006": 12.4632409018,
			"-0.005": 24.6204416314,
			"-0.004": 23.475307375,
			"-0.003": 17.057587481,
			"-0.002": 14.4271186216,
			"-0.001": 12.9426635832,
			"0.0": 15.8663435171,
			"0.001": 13.8845289329,
			"0.002": 14.1513129671,
			"0.003": 11.630652558,
			"0.004": 7.28358653491,
			"0.005": 6.2301454635,
			"0.006": 5.55544046275,
			"0.007": 4.32695262683,
			"0.008": 3.77323601997,
			"0.009": 2.6193150401,
			"0.01": 3.48132036366,
			"0.011": 3.58104628775,
			"0.012": 5.39252589064,
			"0.013": 4.24287859862,
			"0.014": 1.44634090649,
			"0.015": 0.178606700042,
			"0.016": 0.0,
			"0.017": 0.0,
			"0.018": 0.0,
			"0.019": 0.0,
			"0.02": 0.0,
			"0.021": 0.0,
			"0.022": 0.0,
			"0.023": 0.0,
			"0.024": 0.0,
			"0.025": 0.0
		}
	}
}
