{
	 "smiles": "O(C1=CC=CC=C1)C1=NC(=NC2=NC3=C(C=CC=C3)N12)C1=CC=CC=C1", 
	 "Tm": 520.15, 
	 "num_atms": 40, 
	 "gaussian": { 
		 "optdone": 1, 
		 "sigma_profile": "yes", 
		 "theory": "DFT", 
		 "functional": "B3LYP", 
		 "basiset": "6-31G**", 
		 "properties": { 
			 "R2extent": 10950.188, 
			 "electric_dipole_moment_norm": 5.20199217608, 
			 "electric_quadrupole_moment_norm": 10.3017746, 
			 "total_energy": -1102.92029986, 
			 "HOMO_LUMO_gap": 0.14377, 
			 "cosmo_polarized_energy": -15.09, 
			 "cosmo_cavitation_energy": 45.48, 
			 "cosmo_dispersion_energy": -32.11, 
			 "cosmo_repulsion_energy": 2.38, 
			 "cosmo_total_nonelectrostatic_energy": 15.75, 
			 "SMD_solvation_energy": 3.83 
		},
		"coords": [
			{
				"x": 1.8860075888,
				"y": 1.6735778382,
				"z": -0.9078353295,
				"element": "O" 
			},
			{
				"x": 2.7913498479,
				"y": 1.8577652865,
				"z": 0.1549544389,
				"element": "C" 
			},
			{
				"x": 4.1485144502,
				"y": 1.8010682151,
				"z": -0.1387582309,
				"element": "C" 
			},
			{
				"x": 5.0670226234,
				"y": 2.0748942359,
				"z": 0.87683402,
				"element": "C" 
			},
			{
				"x": 4.620934088,
				"y": 2.3975217611,
				"z": 2.1595438658,
				"element": "C" 
			},
			{
				"x": 3.2510968965,
				"y": 2.4509355199,
				"z": 2.4299431982,
				"element": "C" 
			},
			{
				"x": 2.3223712754,
				"y": 2.183569036,
				"z": 1.4237903211,
				"element": "C" 
			},
			{
				"x": 1.1421212718,
				"y": 0.5567154932,
				"z": -0.9525310801,
				"element": "C" 
			},
			{
				"x": 1.2282805672,
				"y": -0.3983248102,
				"z": -0.0806341296,
				"element": "N" 
			},
			{
				"x": 0.4034659602,
				"y": -1.4918745861,
				"z": -0.2570822354,
				"element": "C" 
			},
			{
				"x": -0.4628300485,
				"y": -1.6423701278,
				"z": -1.2388402658,
				"element": "N" 
			},
			{
				"x": -0.5529801101,
				"y": -0.650615347,
				"z": -2.1469827495,
				"element": "C" 
			},
			{
				"x": -1.327856166,
				"y": -0.5693203609,
				"z": -3.199998128,
				"element": "N" 
			},
			{
				"x": -1.0258063668,
				"y": 0.646080692,
				"z": -3.787045789,
				"element": "C" 
			},
			{
				"x": -0.0226652692,
				"y": 1.3538557797,
				"z": -3.0739086528,
				"element": "C" 
			},
			{
				"x": 0.451853996,
				"y": 2.605383307,
				"z": -3.4680769598,
				"element": "C" 
			},
			{
				"x": -0.1102520828,
				"y": 3.149959349,
				"z": -4.620075746,
				"element": "C" 
			},
			{
				"x": -1.1069964655,
				"y": 2.4658538768,
				"z": -5.3448512345,
				"element": "C" 
			},
			{
				"x": -1.5736817362,
				"y": 1.2193389244,
				"z": -4.9438733596,
				"element": "C" 
			},
			{
				"x": 0.2851618653,
				"y": 0.5094761349,
				"z": -2.0057542708,
				"element": "N" 
			},
			{
				"x": 0.5236040091,
				"y": -2.5660116046,
				"z": 0.7519218028,
				"element": "C" 
			},
			{
				"x": -0.2769870445,
				"y": -3.716659117,
				"z": 0.6509632886,
				"element": "C" 
			},
			{
				"x": -0.1678815287,
				"y": -4.7306177299,
				"z": 1.5977004276,
				"element": "C" 
			},
			{
				"x": 0.7390878988,
				"y": -4.6111688077,
				"z": 2.6552842676,
				"element": "C" 
			},
			{
				"x": 1.537464886,
				"y": -3.4702022199,
				"z": 2.7610274188,
				"element": "C" 
			},
			{
				"x": 1.4326682518,
				"y": -2.451378294,
				"z": 1.8160684917,
				"element": "C" 
			},
			{
				"x": 4.4701010527,
				"y": 1.550588192,
				"z": -1.144036351,
				"element": "H" 
			},
			{
				"x": 6.1304325685,
				"y": 2.0351937699,
				"z": 0.6616458462,
				"element": "H" 
			},
			{
				"x": 5.3379476387,
				"y": 2.6097557377,
				"z": 2.9466091334,
				"element": "H" 
			},
			{
				"x": 2.9011150103,
				"y": 2.7045841322,
				"z": 3.4259242268,
				"element": "H" 
			},
			{
				"x": 1.255806562,
				"y": 2.2239608359,
				"z": 1.6150336845,
				"element": "H" 
			},
			{
				"x": 1.2175769454,
				"y": 3.125384346,
				"z": -2.9059691581,
				"element": "H" 
			},
			{
				"x": 0.2274317603,
				"y": 4.1221854583,
				"z": -4.9655786871,
				"element": "H" 
			},
			{
				"x": -1.5184371203,
				"y": 2.9270696826,
				"z": -6.2379678977,
				"element": "H" 
			},
			{
				"x": -2.3407169855,
				"y": 0.6893514406,
				"z": -5.4983048318,
				"element": "H" 
			},
			{
				"x": -0.9749851522,
				"y": -3.7940319876,
				"z": -0.174977092,
				"element": "H" 
			},
			{
				"x": -0.790275901,
				"y": -5.6166518124,
				"z": 1.5123268321,
				"element": "H" 
			},
			{
				"x": 0.822477762,
				"y": -5.4044492978,
				"z": 3.3929133235,
				"element": "H" 
			},
			{
				"x": 2.2434594732,
				"y": -3.3739512258,
				"z": 3.5809188745,
				"element": "H" 
			},
			{
				"x": 2.0473977279,
				"y": -1.5616417162,
				"z": 1.8883787168,
				"element": "H" 
			}
		],
		 "valence_orbital": [ 
			{
				"type": "occ",
				"energy": -0.26234,
				"method": "rhf"
			},
			{
				"type": "occ",
				"energy": -0.25837,
				"method": "rhf"
			},
			{
				"type": "occ",
				"energy": -0.25107,
				"method": "rhf"
			},
			{
				"type": "occ",
				"energy": -0.23749,
				"method": "rhf"
			},
			{
				"type": "occ",
				"energy": -0.21111,
				"method": "rhf"
			},
			{
				"type": "unocc",
				"energy": -0.06734,
				"method": "rhf"
			},
			{
				"type": "unocc",
				"energy": -0.02619,
				"method": "rhf"
			},
			{
				"type": "unocc",
				"energy": -0.02076,
				"method": "rhf"
			},
			{
				"type": "unocc",
				"energy": -0.01498,
				"method": "rhf"
			},
			{
				"type": "unocc",
				"energy": -0.0028,
				"method": "rhf"
			}
		],
		"cosmo_sigma_profile": { 
			"-0.025": 0.0,
			"-0.024": 0.0,
			"-0.023": 0.0,
			"-0.022": 0.0,
			"-0.021": 0.0,
			"-0.02": 0.0,
			"-0.019": 0.0,
			"-0.018": 0.0,
			"-0.017": 0.0,
			"-0.016": 0.0,
			"-0.015": 0.0,
			"-0.014": 0.0,
			"-0.013": 0.0,
			"-0.012": 0.0,
			"-0.011": 0.0,
			"-0.01": 0.0,
			"-0.009": 0.0,
			"-0.008": 1.29078513542,
			"-0.007": 8.93001620584,
			"-0.006": 27.2282033133,
			"-0.005": 31.7527112746,
			"-0.004": 33.4551488982,
			"-0.003": 25.3568032264,
			"-0.002": 21.5323386167,
			"-0.001": 23.1028957702,
			"0.0": 25.572061731,
			"0.001": 26.3790538836,
			"0.002": 30.8047769586,
			"0.003": 33.1575129144,
			"0.004": 37.203106285,
			"0.005": 16.7803209187,
			"0.006": 4.50641031899,
			"0.007": 4.5031290996,
			"0.008": 2.34226011241,
			"0.009": 1.63573685527,
			"0.01": 2.30064896832,
			"0.011": 2.23006245391,
			"0.012": 2.26986009097,
			"0.013": 1.87951283511,
			"0.014": 1.0657870383,
			"0.015": 1.42128433814,
			"0.016": 1.02717192568,
			"0.017": 0.583375520427,
			"0.018": 0.0,
			"0.019": 0.0,
			"0.02": 0.0,
			"0.021": 0.0,
			"0.022": 0.0,
			"0.023": 0.0,
			"0.024": 0.0,
			"0.025": 0.0
		}
	}
}
