{
	 "smiles": "CCOC(=O)C1=C(C)C(C=O)=C(C)N1", 
	 "Tm": 419.15, 
	 "num_atms": 27, 
	 "gaussian": { 
		 "optdone": 1, 
		 "sigma_profile": "yes", 
		 "theory": "DFT", 
		 "functional": "B3LYP", 
		 "basiset": "6-31G**", 
		 "properties": { 
			 "R2extent": 3834.7459, 
			 "electric_dipole_moment_norm": 2.96080331498, 
			 "electric_quadrupole_moment_norm": 13.5515823545, 
			 "total_energy": -669.34929253, 
			 "HOMO_LUMO_gap": 0.18914, 
			 "cosmo_polarized_energy": -12.25, 
			 "cosmo_cavitation_energy": 31.06, 
			 "cosmo_dispersion_energy": -22.01, 
			 "cosmo_repulsion_energy": 1.76, 
			 "cosmo_total_nonelectrostatic_energy": 10.8, 
			 "SMD_solvation_energy": 7.35 
		},
		"coords": [
			{
				"x": 3.0241668431,
				"y": 2.2562084154,
				"z": -3.2042225598,
				"element": "C" 
			},
			{
				"x": 1.5823046692,
				"y": 1.9546368778,
				"z": -3.5836718946,
				"element": "C" 
			},
			{
				"x": 0.8353824295,
				"y": 1.4385607827,
				"z": -2.4544375392,
				"element": "O" 
			},
			{
				"x": 0.9277752483,
				"y": 0.1091385854,
				"z": -2.2318084809,
				"element": "C" 
			},
			{
				"x": 1.5860696927,
				"y": -0.6556289461,
				"z": -2.9247677177,
				"element": "O" 
			},
			{
				"x": 0.1593133375,
				"y": -0.3501395664,
				"z": -1.0792073872,
				"element": "C" 
			},
			{
				"x": -0.659951023,
				"y": 0.2296537305,
				"z": -0.1183923913,
				"element": "C" 
			},
			{
				"x": -1.0344688944,
				"y": 1.6767721383,
				"z": 0.0191539992,
				"element": "C" 
			},
			{
				"x": -1.091344492,
				"y": -0.8380997119,
				"z": 0.7349429341,
				"element": "C" 
			},
			{
				"x": -1.9656668722,
				"y": -0.7411017148,
				"z": 1.8919551903,
				"element": "C" 
			},
			{
				"x": -2.3068447249,
				"y": -1.6871256222,
				"z": 2.5916831064,
				"element": "O" 
			},
			{
				"x": -0.5190064483,
				"y": -2.035080917,
				"z": 0.2646069039,
				"element": "C" 
			},
			{
				"x": -0.6415596471,
				"y": -3.4289413614,
				"z": 0.7825105644,
				"element": "C" 
			},
			{
				"x": 0.2204580451,
				"y": -1.7149676555,
				"z": -0.8152014183,
				"element": "N" 
			},
			{
				"x": 3.5511432424,
				"y": 1.3365206079,
				"z": -2.9393222019,
				"element": "H" 
			},
			{
				"x": 3.5418579434,
				"y": 2.7168883191,
				"z": -4.0522397771,
				"element": "H" 
			},
			{
				"x": 3.0686700178,
				"y": 2.9479602203,
				"z": -2.3578770553,
				"element": "H" 
			},
			{
				"x": 1.5318562704,
				"y": 1.22994121,
				"z": -4.3992690397,
				"element": "H" 
			},
			{
				"x": 1.0442405676,
				"y": 2.8616091372,
				"z": -3.8690525337,
				"element": "H" 
			},
			{
				"x": -0.5400448089,
				"y": 2.281326511,
				"z": -0.740069082,
				"element": "H" 
			},
			{
				"x": -0.7544017535,
				"y": 2.0646649187,
				"z": 1.0050067842,
				"element": "H" 
			},
			{
				"x": -2.1168867298,
				"y": 1.8155209436,
				"z": -0.083855911,
				"element": "H" 
			},
			{
				"x": -2.3286077068,
				"y": 0.2837821736,
				"z": 2.1236492214,
				"element": "H" 
			},
			{
				"x": -1.6877418135,
				"y": -3.7480472843,
				"z": 0.7886673489,
				"element": "H" 
			},
			{
				"x": -0.301412954,
				"y": -3.4865161552,
				"z": 1.8204269685,
				"element": "H" 
			},
			{
				"x": -0.0583040682,
				"y": -4.1281370791,
				"z": 0.1757921267,
				"element": "H" 
			},
			{
				"x": 0.7654036296,
				"y": -2.3396985577,
				"z": -1.3945001582,
				"element": "H" 
			}
		],
		 "valence_orbital": [ 
			{
				"type": "occ",
				"energy": -0.30221,
				"method": "rhf"
			},
			{
				"type": "occ",
				"energy": -0.28237,
				"method": "rhf"
			},
			{
				"type": "occ",
				"energy": -0.25472,
				"method": "rhf"
			},
			{
				"type": "occ",
				"energy": -0.24007,
				"method": "rhf"
			},
			{
				"type": "occ",
				"energy": -0.22669,
				"method": "rhf"
			},
			{
				"type": "unocc",
				"energy": -0.03755,
				"method": "rhf"
			},
			{
				"type": "unocc",
				"energy": -0.02759,
				"method": "rhf"
			},
			{
				"type": "unocc",
				"energy": 0.08495,
				"method": "rhf"
			},
			{
				"type": "unocc",
				"energy": 0.09096,
				"method": "rhf"
			},
			{
				"type": "unocc",
				"energy": 0.10079,
				"method": "rhf"
			}
		],
		"cosmo_sigma_profile": { 
			"-0.025": 0.0,
			"-0.024": 0.0,
			"-0.023": 0.0,
			"-0.022": 0.0,
			"-0.021": 0.0,
			"-0.02": 0.0,
			"-0.019": 0.0,
			"-0.018": 0.0,
			"-0.017": 0.0,
			"-0.016": 0.0,
			"-0.015": 0.476300555285,
			"-0.014": 0.923782175485,
			"-0.013": 1.17214331282,
			"-0.012": 1.44172316377,
			"-0.011": 0.903489921941,
			"-0.01": 0.856404871296,
			"-0.009": 1.13241650638,
			"-0.008": 1.34820275193,
			"-0.007": 1.26906200624,
			"-0.006": 3.12549706827,
			"-0.005": 16.5242014468,
			"-0.004": 24.2987573736,
			"-0.003": 23.717722022,
			"-0.002": 26.4786085439,
			"-0.001": 27.9989856293,
			"0.0": 24.1025044791,
			"0.001": 19.578804094,
			"0.002": 16.2514440119,
			"0.003": 10.999830286,
			"0.004": 5.91784949651,
			"0.005": 5.20723859715,
			"0.006": 3.73325296169,
			"0.007": 2.94023972557,
			"0.008": 2.27891387247,
			"0.009": 3.57358541773,
			"0.01": 3.4824624982,
			"0.011": 4.29817036672,
			"0.012": 6.3413525179,
			"0.013": 3.71139080327,
			"0.014": 1.19076685568,
			"0.015": 0.0946866321003,
			"0.016": 0.0,
			"0.017": 0.0,
			"0.018": 0.0,
			"0.019": 0.0,
			"0.02": 0.0,
			"0.021": 0.0,
			"0.022": 0.0,
			"0.023": 0.0,
			"0.024": 0.0,
			"0.025": 0.0
		}
	}
}
