{
	 "smiles": "OC(=O)C1=CC(NC2=NC=CN=C2)=CC=C1", 
	 "Tm": 513.15, 
	 "num_atms": 25, 
	 "gaussian": { 
		 "optdone": 1, 
		 "sigma_profile": "yes", 
		 "theory": "DFT", 
		 "functional": "B3LYP", 
		 "basiset": "6-31G**", 
		 "properties": { 
			 "R2extent": 5004.7694, 
			 "electric_dipole_moment_norm": 1.18623490507, 
			 "electric_quadrupole_moment_norm": 5.95953751058, 
			 "total_energy": -739.310087637, 
			 "HOMO_LUMO_gap": 0.16297, 
			 "cosmo_polarized_energy": -15.3, 
			 "cosmo_cavitation_energy": 30.42, 
			 "cosmo_dispersion_energy": -22.64, 
			 "cosmo_repulsion_energy": 1.73, 
			 "cosmo_total_nonelectrostatic_energy": 9.51, 
			 "SMD_solvation_energy": 4.34 
		},
		"coords": [
			{
				"x": 1.172928356,
				"y": -1.7286878655,
				"z": 4.4777239423,
				"element": "O" 
			},
			{
				"x": 0.6157384931,
				"y": -0.709907645,
				"z": 3.7773860538,
				"element": "C" 
			},
			{
				"x": 0.134915834,
				"y": 0.2622560202,
				"z": 4.3276763647,
				"element": "O" 
			},
			{
				"x": 0.6626283701,
				"y": -0.9188265925,
				"z": 2.3057441726,
				"element": "C" 
			},
			{
				"x": 0.1119457338,
				"y": 0.0797214018,
				"z": 1.5012866294,
				"element": "C" 
			},
			{
				"x": 0.1154074979,
				"y": -0.0390922498,
				"z": 0.1038395784,
				"element": "C" 
			},
			{
				"x": -0.4614671627,
				"y": 1.0163692267,
				"z": -0.6199776193,
				"element": "N" 
			},
			{
				"x": -0.6246723672,
				"y": 1.2226591737,
				"z": -1.9736476787,
				"element": "C" 
			},
			{
				"x": -0.1951405247,
				"y": 0.3230593258,
				"z": -2.8651830073,
				"element": "N" 
			},
			{
				"x": -0.4010030712,
				"y": 0.6163445383,
				"z": -4.1578029793,
				"element": "C" 
			},
			{
				"x": -1.0243297494,
				"y": 1.7849477482,
				"z": -4.5725844401,
				"element": "C" 
			},
			{
				"x": -1.4586768487,
				"y": 2.6943197902,
				"z": -3.6784701845,
				"element": "N" 
			},
			{
				"x": -1.2624497623,
				"y": 2.4184031294,
				"z": -2.401434324,
				"element": "C" 
			},
			{
				"x": 0.6851905365,
				"y": -1.1857965266,
				"z": -0.4794326162,
				"element": "C" 
			},
			{
				"x": 1.2321372308,
				"y": -2.176293847,
				"z": 0.3376080249,
				"element": "C" 
			},
			{
				"x": 1.2302820894,
				"y": -2.0613819667,
				"z": 1.7254521879,
				"element": "C" 
			},
			{
				"x": 1.0848052803,
				"y": -1.4832606904,
				"z": 5.4132679878,
				"element": "H" 
			},
			{
				"x": -0.3185978054,
				"y": 0.9500691013,
				"z": 1.9889955388,
				"element": "H" 
			},
			{
				"x": -0.8234298602,
				"y": 1.7607608395,
				"z": -0.0413925617,
				"element": "H" 
			},
			{
				"x": -0.0504080849,
				"y": -0.11736694,
				"z": -4.880805154,
				"element": "H" 
			},
			{
				"x": -1.1817521216,
				"y": 2.0039221278,
				"z": -5.6248119426,
				"element": "H" 
			},
			{
				"x": -1.6111635585,
				"y": 3.1497729944,
				"z": -1.671302981,
				"element": "H" 
			},
			{
				"x": 0.6915044051,
				"y": -1.2840676419,
				"z": -1.5551552668,
				"element": "H" 
			},
			{
				"x": 1.6679387972,
				"y": -3.0551173762,
				"z": -0.1286278091,
				"element": "H" 
			},
			{
				"x": 1.6568682926,
				"y": -2.8346060757,
				"z": 2.352748084,
				"element": "H" 
			}
		],
		 "valence_orbital": [ 
			{
				"type": "occ",
				"energy": -0.27848,
				"method": "rhf"
			},
			{
				"type": "occ",
				"energy": -0.27427,
				"method": "rhf"
			},
			{
				"type": "occ",
				"energy": -0.26146,
				"method": "rhf"
			},
			{
				"type": "occ",
				"energy": -0.25301,
				"method": "rhf"
			},
			{
				"type": "occ",
				"energy": -0.21215,
				"method": "rhf"
			},
			{
				"type": "unocc",
				"energy": -0.04918,
				"method": "rhf"
			},
			{
				"type": "unocc",
				"energy": -0.04823,
				"method": "rhf"
			},
			{
				"type": "unocc",
				"energy": -0.02159,
				"method": "rhf"
			},
			{
				"type": "unocc",
				"energy": 0.01017,
				"method": "rhf"
			},
			{
				"type": "unocc",
				"energy": 0.06483,
				"method": "rhf"
			}
		],
		"cosmo_sigma_profile": { 
			"-0.025": 0.0,
			"-0.024": 0.0,
			"-0.023": 0.0,
			"-0.022": 0.0,
			"-0.021": 0.0,
			"-0.02": 0.0,
			"-0.019": 0.119410552701,
			"-0.018": 0.645410527748,
			"-0.017": 1.12555525497,
			"-0.016": 1.14005145237,
			"-0.015": 2.24882947733,
			"-0.014": 2.27538700421,
			"-0.013": 2.02669076914,
			"-0.012": 2.03273899251,
			"-0.011": 2.56652605737,
			"-0.01": 3.04705058743,
			"-0.009": 1.90674236106,
			"-0.008": 2.97614700014,
			"-0.007": 7.13117488002,
			"-0.006": 10.1544305035,
			"-0.005": 10.7968174879,
			"-0.004": 11.6729822252,
			"-0.003": 10.1716219464,
			"-0.002": 13.0814854437,
			"-0.001": 17.1361932221,
			"0.0": 17.0255310307,
			"0.001": 24.0425085035,
			"0.002": 22.1980293525,
			"0.003": 20.6350658786,
			"0.004": 16.5865841266,
			"0.005": 8.0329350328,
			"0.006": 7.09813683089,
			"0.007": 4.80564949036,
			"0.008": 3.29962948698,
			"0.009": 3.33040424224,
			"0.01": 3.67476430062,
			"0.011": 4.21093148472,
			"0.012": 4.95093803618,
			"0.013": 0.9418120658,
			"0.014": 0.867839552904,
			"0.015": 0.819180284884,
			"0.016": 0.0957489368673,
			"0.017": 0.0,
			"0.018": 0.0,
			"0.019": 0.0,
			"0.02": 0.0,
			"0.021": 0.0,
			"0.022": 0.0,
			"0.023": 0.0,
			"0.024": 0.0,
			"0.025": 0.0
		}
	}
}
