{
	 "smiles": "NCCCCCC#N", 
	 "Tm": 241.75, 
	 "num_atms": 20, 
	 "gaussian": { 
		 "optdone": 1, 
		 "sigma_profile": "yes", 
		 "theory": "DFT", 
		 "functional": "B3LYP", 
		 "basiset": "6-31G**", 
		 "properties": { 
			 "R2extent": 1545.9916, 
			 "electric_dipole_moment_norm": 4.63324046214, 
			 "electric_quadrupole_moment_norm": 15.2198409988, 
			 "total_energy": -345.359084652, 
			 "HOMO_LUMO_gap": 0.27782, 
			 "cosmo_polarized_energy": -11.84, 
			 "cosmo_cavitation_energy": 23.03, 
			 "cosmo_dispersion_energy": -16.19, 
			 "cosmo_repulsion_energy": 1.39, 
			 "cosmo_total_nonelectrostatic_energy": 8.23, 
			 "SMD_solvation_energy": 4.06 
		},
		"coords": [
			{
				"x": -0.1423296263,
				"y": 2.5709996209,
				"z": 0.8313408297,
				"element": "N" 
			},
			{
				"x": 1.0137840651,
				"y": 2.2564003483,
				"z": -0.0232949056,
				"element": "C" 
			},
			{
				"x": 1.4452823363,
				"y": 0.7866782638,
				"z": 0.0731407343,
				"element": "C" 
			},
			{
				"x": 0.3650106442,
				"y": -0.2450859634,
				"z": -0.3128562309,
				"element": "C" 
			},
			{
				"x": -0.5255524399,
				"y": -0.6723211318,
				"z": 0.8637431537,
				"element": "C" 
			},
			{
				"x": -1.6615975866,
				"y": -1.637990685,
				"z": 0.4627932082,
				"element": "C" 
			},
			{
				"x": -1.1748936565,
				"y": -2.9016208553,
				"z": -0.1014739367,
				"element": "C" 
			},
			{
				"x": -0.7723644276,
				"y": -3.8966798169,
				"z": -0.5440091302,
				"element": "N" 
			},
			{
				"x": -0.2120970567,
				"y": 3.5778105079,
				"z": 0.9554995767,
				"element": "H" 
			},
			{
				"x": -1.0017552162,
				"y": 2.2946089433,
				"z": 0.3627964826,
				"element": "H" 
			},
			{
				"x": 0.8455386002,
				"y": 2.5058846207,
				"z": -1.0862017666,
				"element": "H" 
			},
			{
				"x": 1.8508559985,
				"y": 2.8804823583,
				"z": 0.310289512,
				"element": "H" 
			},
			{
				"x": 1.7933563559,
				"y": 0.5839378288,
				"z": 1.0937144459,
				"element": "H" 
			},
			{
				"x": 2.3141006473,
				"y": 0.6605011974,
				"z": -0.5848852809,
				"element": "H" 
			},
			{
				"x": 0.8455129278,
				"y": -1.1399754629,
				"z": -0.7255678904,
				"element": "H" 
			},
			{
				"x": -0.2588924835,
				"y": 0.1581028905,
				"z": -1.1252695818,
				"element": "H" 
			},
			{
				"x": 0.0951654891,
				"y": -1.1532563827,
				"z": 1.6289646536,
				"element": "H" 
			},
			{
				"x": -0.9729302513,
				"y": 0.2047483066,
				"z": 1.3401918219,
				"element": "H" 
			},
			{
				"x": -2.3191826808,
				"y": -1.1675167265,
				"z": -0.2790352457,
				"element": "H" 
			},
			{
				"x": -2.285211639,
				"y": -1.8731078618,
				"z": 1.3331195501,
				"element": "H" 
			}
		],
		 "valence_orbital": [ 
			{
				"type": "occ",
				"energy": -0.34005,
				"method": "rhf"
			},
			{
				"type": "occ",
				"energy": -0.32642,
				"method": "rhf"
			},
			{
				"type": "occ",
				"energy": -0.3155,
				"method": "rhf"
			},
			{
				"type": "occ",
				"energy": -0.31223,
				"method": "rhf"
			},
			{
				"type": "occ",
				"energy": -0.24167,
				"method": "rhf"
			},
			{
				"type": "unocc",
				"energy": 0.03615,
				"method": "rhf"
			},
			{
				"type": "unocc",
				"energy": 0.04361,
				"method": "rhf"
			},
			{
				"type": "unocc",
				"energy": 0.06992,
				"method": "rhf"
			},
			{
				"type": "unocc",
				"energy": 0.09374,
				"method": "rhf"
			},
			{
				"type": "unocc",
				"energy": 0.1103,
				"method": "rhf"
			}
		],
		"cosmo_sigma_profile": { 
			"-0.025": 0.0,
			"-0.024": 0.0,
			"-0.023": 0.0,
			"-0.022": 0.0,
			"-0.021": 0.0,
			"-0.02": 0.0,
			"-0.019": 0.0,
			"-0.018": 0.0,
			"-0.017": 0.0,
			"-0.016": 0.0,
			"-0.015": 0.0,
			"-0.014": 0.0,
			"-0.013": 0.0,
			"-0.012": 0.0,
			"-0.011": 0.0,
			"-0.01": 0.446363440663,
			"-0.009": 2.19046356694,
			"-0.008": 3.83285310706,
			"-0.007": 8.93503695565,
			"-0.006": 9.22425097884,
			"-0.005": 9.93755293271,
			"-0.004": 14.4553707313,
			"-0.003": 15.4429174852,
			"-0.002": 19.7996636069,
			"-0.001": 21.8123650308,
			"0.0": 18.4026853515,
			"0.001": 9.63860328786,
			"0.002": 3.07195453257,
			"0.003": 3.33166942195,
			"0.004": 3.06897987523,
			"0.005": 3.1268248527,
			"0.006": 3.2002872742,
			"0.007": 2.93167006611,
			"0.008": 3.49386718451,
			"0.009": 4.9640447579,
			"0.01": 3.63587091845,
			"0.011": 4.11401617896,
			"0.012": 3.22491108302,
			"0.013": 3.00579308466,
			"0.014": 1.60144326733,
			"0.015": 0.607598935669,
			"0.016": 0.437860825378,
			"0.017": 0.422754050222,
			"0.018": 0.578763730596,
			"0.019": 0.287807921155,
			"0.02": 0.0,
			"0.021": 0.0,
			"0.022": 0.0,
			"0.023": 0.0,
			"0.024": 0.0,
			"0.025": 0.0
		}
	}
}
