{
	 "smiles": "CCOC1=C(OCC)C=C2C(Cl)=CC=NC2=C1", 
	 "Tm": 346.15, 
	 "num_atms": 31, 
	 "gaussian": { 
		 "optdone": 1, 
		 "sigma_profile": "yes", 
		 "theory": "DFT", 
		 "functional": "B3LYP", 
		 "basiset": "6-31G**", 
		 "properties": { 
			 "R2extent": 5464.4674, 
			 "electric_dipole_moment_norm": 1.69820887113, 
			 "electric_quadrupole_moment_norm": 10.3746728382, 
			 "total_energy": -1169.20410466, 
			 "HOMO_LUMO_gap": 0.17325, 
			 "cosmo_polarized_energy": -7.91, 
			 "cosmo_cavitation_energy": 36.25, 
			 "cosmo_dispersion_energy": -25.68, 
			 "cosmo_repulsion_energy": 2.01, 
			 "cosmo_total_nonelectrostatic_energy": 12.59, 
			 "SMD_solvation_energy": 4.9 
		},
		"coords": [
			{
				"x": -4.5430022572,
				"y": 1.3608294787,
				"z": -1.1655727367,
				"element": "C" 
			},
			{
				"x": -3.2690017274,
				"y": 1.0987835427,
				"z": -0.384326061,
				"element": "C" 
			},
			{
				"x": -2.5021483282,
				"y": 0.1159426624,
				"z": -1.113496889,
				"element": "O" 
			},
			{
				"x": -1.3046147475,
				"y": -0.2342132736,
				"z": -0.5423374768,
				"element": "C" 
			},
			{
				"x": -0.1974921591,
				"y": 0.6742733578,
				"z": -0.5640457808,
				"element": "C" 
			},
			{
				"x": -0.3365137668,
				"y": 1.927980051,
				"z": -1.1052500571,
				"element": "O" 
			},
			{
				"x": -0.4273519362,
				"y": 1.9706840012,
				"z": -2.5460493133,
				"element": "C" 
			},
			{
				"x": -0.5850595543,
				"y": 3.4233460751,
				"z": -2.9547143039,
				"element": "C" 
			},
			{
				"x": 1.0056546953,
				"y": 0.3116831974,
				"z": -0.0018562044,
				"element": "C" 
			},
			{
				"x": 1.175631713,
				"y": -0.9635241644,
				"z": 0.5928256282,
				"element": "C" 
			},
			{
				"x": 2.3768150648,
				"y": -1.424833771,
				"z": 1.1950350432,
				"element": "C" 
			},
			{
				"x": 3.7897497884,
				"y": -0.3850739898,
				"z": 1.2584117845,
				"element": "Cl" 
			},
			{
				"x": 2.4472112476,
				"y": -2.6878681372,
				"z": 1.7335483479,
				"element": "C" 
			},
			{
				"x": 1.2941566692,
				"y": -3.5058811356,
				"z": 1.6695070182,
				"element": "C" 
			},
			{
				"x": 0.1509451263,
				"y": -3.1410593724,
				"z": 1.1259525984,
				"element": "N" 
			},
			{
				"x": 0.077411993,
				"y": -1.8898929721,
				"z": 0.5896394833,
				"element": "C" 
			},
			{
				"x": -1.1550831553,
				"y": -1.4826545454,
				"z": 0.0155403038,
				"element": "C" 
			},
			{
				"x": -5.1668076595,
				"y": 2.0852609679,
				"z": -0.6326281804,
				"element": "H" 
			},
			{
				"x": -5.115165656,
				"y": 0.4375598969,
				"z": -1.2935243793,
				"element": "H" 
			},
			{
				"x": -4.3159662771,
				"y": 1.7644884532,
				"z": -2.1567005408,
				"element": "H" 
			},
			{
				"x": -2.6766226879,
				"y": 2.0125263562,
				"z": -0.2651335758,
				"element": "H" 
			},
			{
				"x": -3.4947075935,
				"y": 0.7001211577,
				"z": 0.6141227905,
				"element": "H" 
			},
			{
				"x": 0.489920063,
				"y": 1.5398844999,
				"z": -2.9702557606,
				"element": "H" 
			},
			{
				"x": -1.2781024778,
				"y": 1.3659879448,
				"z": -2.8784149352,
				"element": "H" 
			},
			{
				"x": 0.2609306224,
				"y": 4.019134079,
				"z": -2.6003525957,
				"element": "H" 
			},
			{
				"x": -0.6331799279,
				"y": 3.5024677417,
				"z": -4.0452969465,
				"element": "H" 
			},
			{
				"x": -1.5029190977,
				"y": 3.8477944564,
				"z": -2.5373827917,
				"element": "H" 
			},
			{
				"x": 1.8244081743,
				"y": 1.0210141286,
				"z": -0.0237144979,
				"element": "H" 
			},
			{
				"x": 3.357992618,
				"y": -3.0505327396,
				"z": 2.1952449768,
				"element": "H" 
			},
			{
				"x": 1.3353972928,
				"y": -4.508575718,
				"z": 2.0929308475,
				"element": "H" 
			},
			{
				"x": -1.9867860587,
				"y": -2.1778522296,
				"z": 0.0266942047,
				"element": "H" 
			}
		],
		 "valence_orbital": [ 
			{
				"type": "occ",
				"energy": -0.28747,
				"method": "rhf"
			},
			{
				"type": "occ",
				"energy": -0.26639,
				"method": "rhf"
			},
			{
				"type": "occ",
				"energy": -0.26021,
				"method": "rhf"
			},
			{
				"type": "occ",
				"energy": -0.24152,
				"method": "rhf"
			},
			{
				"type": "occ",
				"energy": -0.23083,
				"method": "rhf"
			},
			{
				"type": "unocc",
				"energy": -0.05758,
				"method": "rhf"
			},
			{
				"type": "unocc",
				"energy": -0.02042,
				"method": "rhf"
			},
			{
				"type": "unocc",
				"energy": 0.01732,
				"method": "rhf"
			},
			{
				"type": "unocc",
				"energy": 0.02553,
				"method": "rhf"
			},
			{
				"type": "unocc",
				"energy": 0.07847,
				"method": "rhf"
			}
		],
		"cosmo_sigma_profile": { 
			"-0.025": 0.0,
			"-0.024": 0.0,
			"-0.023": 0.0,
			"-0.022": 0.0,
			"-0.021": 0.0,
			"-0.02": 0.0,
			"-0.019": 0.0,
			"-0.018": 0.0,
			"-0.017": 0.0,
			"-0.016": 0.0,
			"-0.015": 0.0,
			"-0.014": 0.0,
			"-0.013": 0.0,
			"-0.012": 0.0,
			"-0.011": 0.0,
			"-0.01": 0.0,
			"-0.009": 0.0305943788431,
			"-0.008": 1.74465157321,
			"-0.007": 4.84123485393,
			"-0.006": 5.54329589985,
			"-0.005": 8.20394948261,
			"-0.004": 20.0337302426,
			"-0.003": 33.0650914772,
			"-0.002": 32.3911936026,
			"-0.001": 32.2401603028,
			"0.0": 41.1101944439,
			"0.001": 35.5220387191,
			"0.002": 21.8189106096,
			"0.003": 15.5101093307,
			"0.004": 11.7078057725,
			"0.005": 4.13235861141,
			"0.006": 3.41653593268,
			"0.007": 4.14564523368,
			"0.008": 3.32266550309,
			"0.009": 2.03498534364,
			"0.01": 2.89151046539,
			"0.011": 2.61494049727,
			"0.012": 1.36856923806,
			"0.013": 0.712016921022,
			"0.014": 0.917619924857,
			"0.015": 0.528907359401,
			"0.016": 0.360139158096,
			"0.017": 0.0,
			"0.018": 0.0,
			"0.019": 0.0,
			"0.02": 0.0,
			"0.021": 0.0,
			"0.022": 0.0,
			"0.023": 0.0,
			"0.024": 0.0,
			"0.025": 0.0
		}
	}
}
