{
	 "smiles": "OC(=O)C1=CC2=C(NC=C2)C=C1", 
	 "Tm": 483.15, 
	 "num_atms": 19, 
	 "gaussian": { 
		 "optdone": 1, 
		 "sigma_profile": "yes", 
		 "theory": "DFT", 
		 "functional": "B3LYP", 
		 "basiset": "6-31G**", 
		 "properties": { 
			 "R2extent": 3025.0978, 
			 "electric_dipole_moment_norm": 7.29159047328, 
			 "electric_quadrupole_moment_norm": 13.2891636422, 
			 "total_energy": -552.387520951, 
			 "HOMO_LUMO_gap": 0.18726, 
			 "cosmo_polarized_energy": -19.03, 
			 "cosmo_cavitation_energy": 23.51, 
			 "cosmo_dispersion_energy": -17.77, 
			 "cosmo_repulsion_energy": 1.4, 
			 "cosmo_total_nonelectrostatic_energy": 7.14, 
			 "SMD_solvation_energy": 5.12 
		},
		"coords": [
			{
				"x": 0.0530330073,
				"y": -1.8020002043,
				"z": 1.5052285182,
				"element": "O" 
			},
			{
				"x": 0.3712272678,
				"y": -0.9157905254,
				"z": 0.5177723956,
				"element": "C" 
			},
			{
				"x": 1.1679969804,
				"y": -1.2348372353,
				"z": -0.3347089062,
				"element": "O" 
			},
			{
				"x": -0.3018634407,
				"y": 0.4185673379,
				"z": 0.570954769,
				"element": "C" 
			},
			{
				"x": 0.2912986441,
				"y": 1.4611985927,
				"z": -0.1424483814,
				"element": "C" 
			},
			{
				"x": -0.2944473402,
				"y": 2.7322321872,
				"z": -0.1190533072,
				"element": "C" 
			},
			{
				"x": -1.4987200546,
				"y": 2.9225804447,
				"z": 0.621049227,
				"element": "C" 
			},
			{
				"x": -1.8597418473,
				"y": 4.2421892512,
				"z": 0.477186419,
				"element": "N" 
			},
			{
				"x": -0.9302059733,
				"y": 4.8869313842,
				"z": -0.323498143,
				"element": "C" 
			},
			{
				"x": 0.0393731189,
				"y": 4.0009291431,
				"z": -0.7070159304,
				"element": "C" 
			},
			{
				"x": -2.1175492149,
				"y": 1.8797361963,
				"z": 1.3193942411,
				"element": "C" 
			},
			{
				"x": -1.5065052218,
				"y": 0.6344816145,
				"z": 1.2866438589,
				"element": "C" 
			},
			{
				"x": -0.4455732545,
				"y": -1.351664775,
				"z": 2.2005766533,
				"element": "H" 
			},
			{
				"x": 1.200404513,
				"y": 1.2608275378,
				"z": -0.6994961425,
				"element": "H" 
			},
			{
				"x": -2.6733376403,
				"y": 4.6734288197,
				"z": 0.884782064,
				"element": "H" 
			},
			{
				"x": -1.0436179625,
				"y": 5.9365971803,
				"z": -0.5535563754,
				"element": "H" 
			},
			{
				"x": 0.8911576508,
				"y": 4.2211965891,
				"z": -1.3338537875,
				"element": "H" 
			},
			{
				"x": -3.0484220212,
				"y": 2.0308923293,
				"z": 1.8579159245,
				"element": "H" 
			},
			{
				"x": -2.0020072108,
				"y": -0.1947958681,
				"z": 1.7850269032,
				"element": "H" 
			}
		],
		 "valence_orbital": [ 
			{
				"type": "occ",
				"energy": -0.30335,
				"method": "rhf"
			},
			{
				"type": "occ",
				"energy": -0.29172,
				"method": "rhf"
			},
			{
				"type": "occ",
				"energy": -0.26153,
				"method": "rhf"
			},
			{
				"type": "occ",
				"energy": -0.23778,
				"method": "rhf"
			},
			{
				"type": "occ",
				"energy": -0.21997,
				"method": "rhf"
			},
			{
				"type": "unocc",
				"energy": -0.03271,
				"method": "rhf"
			},
			{
				"type": "unocc",
				"energy": -0.02001,
				"method": "rhf"
			},
			{
				"type": "unocc",
				"energy": 0.05117,
				"method": "rhf"
			},
			{
				"type": "unocc",
				"energy": 0.06626,
				"method": "rhf"
			},
			{
				"type": "unocc",
				"energy": 0.07102,
				"method": "rhf"
			}
		],
		"cosmo_sigma_profile": { 
			"-0.025": 0.0,
			"-0.024": 0.0,
			"-0.023": 0.0,
			"-0.022": 0.0,
			"-0.021": 0.0,
			"-0.02": 0.0,
			"-0.019": 0.0173967169435,
			"-0.018": 0.456284836396,
			"-0.017": 1.01490802775,
			"-0.016": 2.09309905508,
			"-0.015": 2.40671558198,
			"-0.014": 1.73840181237,
			"-0.013": 2.02781423394,
			"-0.012": 2.87051878901,
			"-0.011": 3.0649592274,
			"-0.01": 1.96396280143,
			"-0.009": 2.73411796082,
			"-0.008": 5.027967154,
			"-0.007": 7.3137544478,
			"-0.006": 7.64820852952,
			"-0.005": 8.86377856583,
			"-0.004": 8.10219751369,
			"-0.003": 9.25791411832,
			"-0.002": 8.6634395259,
			"-0.001": 7.64227928062,
			"0.0": 9.55107496791,
			"0.001": 9.18097609146,
			"0.002": 9.33128373308,
			"0.003": 14.4095263103,
			"0.004": 19.8399037317,
			"0.005": 11.0496102326,
			"0.006": 5.31851392042,
			"0.007": 3.2930725805,
			"0.008": 2.23569995797,
			"0.009": 2.90896669405,
			"0.01": 3.99378749172,
			"0.011": 5.06372286922,
			"0.012": 5.74360342862,
			"0.013": 3.36180245434,
			"0.014": 0.687597337239,
			"0.015": 0.0,
			"0.016": 0.0,
			"0.017": 0.0,
			"0.018": 0.0,
			"0.019": 0.0,
			"0.02": 0.0,
			"0.021": 0.0,
			"0.022": 0.0,
			"0.023": 0.0,
			"0.024": 0.0,
			"0.025": 0.0
		}
	}
}
