{
	 "smiles": "COC1=CC2=C(NCCC2=O)C=C1", 
	 "Tm": 388.15, 
	 "num_atms": 24, 
	 "gaussian": { 
		 "optdone": 1, 
		 "sigma_profile": "yes", 
		 "theory": "DFT", 
		 "functional": "B3LYP", 
		 "basiset": "6-31G**", 
		 "properties": { 
			 "R2extent": 2686.8492, 
			 "electric_dipole_moment_norm": 2.94698282316, 
			 "electric_quadrupole_moment_norm": 15.208255588, 
			 "total_energy": -592.888117115, 
			 "HOMO_LUMO_gap": 0.14538, 
			 "cosmo_polarized_energy": -12.76, 
			 "cosmo_cavitation_energy": 26.91, 
			 "cosmo_dispersion_energy": -20.22, 
			 "cosmo_repulsion_energy": 1.59, 
			 "cosmo_total_nonelectrostatic_energy": 8.28, 
			 "SMD_solvation_energy": 4.48 
		},
		"coords": [
			{
				"x": 2.2835140394,
				"y": -2.4551502535,
				"z": 1.9478054297,
				"element": "C" 
			},
			{
				"x": 2.7919925846,
				"y": -1.159985236,
				"z": 1.6737244844,
				"element": "O" 
			},
			{
				"x": 1.9587391957,
				"y": -0.2751357583,
				"z": 1.0449888149,
				"element": "C" 
			},
			{
				"x": 0.655754606,
				"y": -0.5389498195,
				"z": 0.6502570366,
				"element": "C" 
			},
			{
				"x": -0.111756358,
				"y": 0.4534521053,
				"z": 0.0079806096,
				"element": "C" 
			},
			{
				"x": 0.4318442818,
				"y": 1.7334714218,
				"z": -0.2376330076,
				"element": "C" 
			},
			{
				"x": -0.3137257751,
				"y": 2.7141887014,
				"z": -0.8863071207,
				"element": "N" 
			},
			{
				"x": -1.7679469567,
				"y": 2.6009296927,
				"z": -0.8122456595,
				"element": "C" 
			},
			{
				"x": -2.1861227559,
				"y": 1.2007619948,
				"z": -1.2585557516,
				"element": "C" 
			},
			{
				"x": -1.4779705197,
				"y": 0.1170179206,
				"z": -0.450445867,
				"element": "C" 
			},
			{
				"x": -2.0000025085,
				"y": -0.9710534565,
				"z": -0.2442186341,
				"element": "O" 
			},
			{
				"x": 1.7606271339,
				"y": 1.9821580715,
				"z": 0.1650785338,
				"element": "C" 
			},
			{
				"x": 2.5056686247,
				"y": 0.9994281177,
				"z": 0.791373838,
				"element": "C" 
			},
			{
				"x": 1.4090613378,
				"y": -2.4151285462,
				"z": 2.6104945305,
				"element": "H" 
			},
			{
				"x": 3.0884303881,
				"y": -2.9977981458,
				"z": 2.4462593663,
				"element": "H" 
			},
			{
				"x": 2.0059658536,
				"y": -2.98463363,
				"z": 1.0269548031,
				"element": "H" 
			},
			{
				"x": 0.1778715045,
				"y": -1.4986528435,
				"z": 0.8057111669,
				"element": "H" 
			},
			{
				"x": 0.0399984295,
				"y": 3.6520423863,
				"z": -0.7491294283,
				"element": "H" 
			},
			{
				"x": -2.1338343562,
				"y": 2.7805205762,
				"z": 0.2141761838,
				"element": "H" 
			},
			{
				"x": -2.2118357204,
				"y": 3.3620576831,
				"z": -1.4607494376,
				"element": "H" 
			},
			{
				"x": -1.9088127478,
				"y": 1.0577673059,
				"z": -2.3125255215,
				"element": "H" 
			},
			{
				"x": -3.2657050548,
				"y": 1.0539102203,
				"z": -1.1742034336,
				"element": "H" 
			},
			{
				"x": 2.2008074417,
				"y": 2.9596777958,
				"z": -0.0161800672,
				"element": "H" 
			},
			{
				"x": 3.526637332,
				"y": 1.1929036959,
				"z": 1.1052891313,
				"element": "H" 
			}
		],
		 "valence_orbital": [ 
			{
				"type": "occ",
				"energy": -0.32725,
				"method": "rhf"
			},
			{
				"type": "occ",
				"energy": -0.27256,
				"method": "rhf"
			},
			{
				"type": "occ",
				"energy": -0.25331,
				"method": "rhf"
			},
			{
				"type": "occ",
				"energy": -0.23649,
				"method": "rhf"
			},
			{
				"type": "occ",
				"energy": -0.1927,
				"method": "rhf"
			},
			{
				"type": "unocc",
				"energy": -0.04732,
				"method": "rhf"
			},
			{
				"type": "unocc",
				"energy": 0.01651,
				"method": "rhf"
			},
			{
				"type": "unocc",
				"energy": 0.05056,
				"method": "rhf"
			},
			{
				"type": "unocc",
				"energy": 0.07706,
				"method": "rhf"
			},
			{
				"type": "unocc",
				"energy": 0.10456,
				"method": "rhf"
			}
		],
		"cosmo_sigma_profile": { 
			"-0.025": 0.0,
			"-0.024": 0.0,
			"-0.023": 0.0,
			"-0.022": 0.0,
			"-0.021": 0.0,
			"-0.02": 0.0,
			"-0.019": 0.0,
			"-0.018": 0.0,
			"-0.017": 0.0,
			"-0.016": 0.0,
			"-0.015": 0.0,
			"-0.014": 0.0956027002885,
			"-0.013": 1.02794902024,
			"-0.012": 1.88153094998,
			"-0.011": 1.12189885217,
			"-0.01": 1.40388084297,
			"-0.009": 1.80826477047,
			"-0.008": 1.92697758376,
			"-0.007": 2.43968738045,
			"-0.006": 9.01881988278,
			"-0.005": 20.1057766976,
			"-0.004": 23.9035793784,
			"-0.003": 25.1154544708,
			"-0.002": 16.5373044748,
			"-0.001": 10.628860446,
			"0.0": 8.40711994413,
			"0.001": 7.52699204362,
			"0.002": 9.52391728744,
			"0.003": 13.2124402127,
			"0.004": 18.0615249708,
			"0.005": 8.27434942003,
			"0.006": 3.80171943862,
			"0.007": 4.31974493157,
			"0.008": 3.19690836935,
			"0.009": 2.7690336789,
			"0.01": 4.50706189834,
			"0.011": 3.58979454683,
			"0.012": 3.27598291208,
			"0.013": 4.30822802745,
			"0.014": 1.08892859731,
			"0.015": 0.0441360271249,
			"0.016": 0.0,
			"0.017": 0.0,
			"0.018": 0.0,
			"0.019": 0.0,
			"0.02": 0.0,
			"0.021": 0.0,
			"0.022": 0.0,
			"0.023": 0.0,
			"0.024": 0.0,
			"0.025": 0.0
		}
	}
}
