{
	 "smiles": "CC1=NN2C(NC(=O)CC2=O)=C1", 
	 "Tm": 493.15, 
	 "num_atms": 19, 
	 "gaussian": { 
		 "optdone": 1, 
		 "sigma_profile": "yes", 
		 "theory": "DFT", 
		 "functional": "B3LYP", 
		 "basiset": "6-31G**", 
		 "properties": { 
			 "R2extent": 2308.1239, 
			 "electric_dipole_moment_norm": 4.03345691064, 
			 "electric_quadrupole_moment_norm": 8.55430048338, 
			 "total_energy": -585.665216159, 
			 "HOMO_LUMO_gap": 0.18403, 
			 "cosmo_polarized_energy": -19.79, 
			 "cosmo_cavitation_energy": 23.81, 
			 "cosmo_dispersion_energy": -17.88, 
			 "cosmo_repulsion_energy": 1.43, 
			 "cosmo_total_nonelectrostatic_energy": 7.37, 
			 "SMD_solvation_energy": 4.82 
		},
		"coords": [
			{
				"x": 0.0958630285,
				"y": -2.7413339739,
				"z": -1.24155573,
				"element": "C" 
			},
			{
				"x": 0.2456810756,
				"y": -1.4580258409,
				"z": -0.4793311191,
				"element": "C" 
			},
			{
				"x": -0.2460185071,
				"y": -0.3289799906,
				"z": -0.9577670838,
				"element": "N" 
			},
			{
				"x": 0.0741670619,
				"y": 0.6161724613,
				"z": -0.0095642077,
				"element": "N" 
			},
			{
				"x": 0.7633644482,
				"y": 0.0590627756,
				"z": 1.0493899117,
				"element": "C" 
			},
			{
				"x": 1.173363306,
				"y": 0.8528791655,
				"z": 2.105660352,
				"element": "N" 
			},
			{
				"x": 0.9458722197,
				"y": 2.2136176666,
				"z": 2.2014824779,
				"element": "C" 
			},
			{
				"x": 1.3311014038,
				"y": 2.860472679,
				"z": 3.15658513,
				"element": "O" 
			},
			{
				"x": 0.1858228907,
				"y": 2.8378841816,
				"z": 1.0372929615,
				"element": "C" 
			},
			{
				"x": -0.2715732416,
				"y": 1.9716553926,
				"z": -0.1331512968,
				"element": "C" 
			},
			{
				"x": -0.875986195,
				"y": 2.4157834013,
				"z": -1.078506208,
				"element": "O" 
			},
			{
				"x": 0.8950466926,
				"y": -1.2792151283,
				"z": 0.7850329504,
				"element": "C" 
			},
			{
				"x": -0.9608775354,
				"y": -2.9773609884,
				"z": -1.3990789169,
				"element": "H" 
			},
			{
				"x": 0.55886015,
				"y": -3.5716442331,
				"z": -0.7034625511,
				"element": "H" 
			},
			{
				"x": 0.564427249,
				"y": -2.6635185608,
				"z": -2.2272586125,
				"element": "H" 
			},
			{
				"x": 1.677277742,
				"y": 0.4298257966,
				"z": 2.87404012,
				"element": "H" 
			},
			{
				"x": 0.8054960361,
				"y": 3.6439417039,
				"z": 0.629812404,
				"element": "H" 
			},
			{
				"x": -0.7001381777,
				"y": 3.3348784764,
				"z": 1.4469670048,
				"element": "H" 
			},
			{
				"x": 1.3795503528,
				"y": -2.0273949845,
				"z": 1.3944124137,
				"element": "H" 
			}
		],
		 "valence_orbital": [ 
			{
				"type": "occ",
				"energy": -0.30121,
				"method": "rhf"
			},
			{
				"type": "occ",
				"energy": -0.29757,
				"method": "rhf"
			},
			{
				"type": "occ",
				"energy": -0.27307,
				"method": "rhf"
			},
			{
				"type": "occ",
				"energy": -0.27019,
				"method": "rhf"
			},
			{
				"type": "occ",
				"energy": -0.23789,
				"method": "rhf"
			},
			{
				"type": "unocc",
				"energy": -0.05386,
				"method": "rhf"
			},
			{
				"type": "unocc",
				"energy": -0.0036,
				"method": "rhf"
			},
			{
				"type": "unocc",
				"energy": 0.04352,
				"method": "rhf"
			},
			{
				"type": "unocc",
				"energy": 0.065,
				"method": "rhf"
			},
			{
				"type": "unocc",
				"energy": 0.06691,
				"method": "rhf"
			}
		],
		"cosmo_sigma_profile": { 
			"-0.025": 0.0,
			"-0.024": 0.0,
			"-0.023": 0.0,
			"-0.022": 0.0,
			"-0.021": 0.0,
			"-0.02": 0.0,
			"-0.019": 0.0,
			"-0.018": 0.0,
			"-0.017": 0.742970935847,
			"-0.016": 1.44333688151,
			"-0.015": 1.14618418863,
			"-0.014": 1.22597082838,
			"-0.013": 1.11346481177,
			"-0.012": 1.02163576679,
			"-0.011": 0.912409684966,
			"-0.01": 3.59737433234,
			"-0.009": 9.30152680567,
			"-0.008": 7.34968221307,
			"-0.007": 6.81142715867,
			"-0.006": 8.38372098265,
			"-0.005": 11.6520627938,
			"-0.004": 10.8448446095,
			"-0.003": 11.9407682896,
			"-0.002": 12.7377367617,
			"-0.001": 15.5335261796,
			"0.0": 9.35758385514,
			"0.001": 6.89594316437,
			"0.002": 8.89171248894,
			"0.003": 6.10942568059,
			"0.004": 3.83129265906,
			"0.005": 3.58732041445,
			"0.006": 3.29139775789,
			"0.007": 3.71829685541,
			"0.008": 3.00240753044,
			"0.009": 4.39549623111,
			"0.01": 5.12996882686,
			"0.011": 9.32527264301,
			"0.012": 8.77613103767,
			"0.013": 3.52661601004,
			"0.014": 1.55977988396,
			"0.015": 1.20794173673,
			"0.016": 1.55967630541,
			"0.017": 0.301731308354,
			"0.018": 0.0,
			"0.019": 0.0,
			"0.02": 0.0,
			"0.021": 0.0,
			"0.022": 0.0,
			"0.023": 0.0,
			"0.024": 0.0,
			"0.025": 0.0
		}
	}
}
