{
	 "smiles": "CCCN1C(N)=NC2=C1C=CC=C2", 
	 "Tm": 388.15, 
	 "num_atms": 26, 
	 "gaussian": { 
		 "optdone": 1, 
		 "sigma_profile": "yes", 
		 "theory": "DFT", 
		 "functional": "B3LYP", 
		 "basiset": "6-31G**", 
		 "properties": { 
			 "R2extent": 2728.3569, 
			 "electric_dipole_moment_norm": 4.18161726967, 
			 "electric_quadrupole_moment_norm": 6.11886377116, 
			 "total_energy": -553.179834409, 
			 "HOMO_LUMO_gap": 0.20209, 
			 "cosmo_polarized_energy": -14.11, 
			 "cosmo_cavitation_energy": 28.4, 
			 "cosmo_dispersion_energy": -20.59, 
			 "cosmo_repulsion_energy": 1.63, 
			 "cosmo_total_nonelectrostatic_energy": 9.44, 
			 "SMD_solvation_energy": 2.53 
		},
		"coords": [
			{
				"x": 0.6556611238,
				"y": 0.795491404,
				"z": -3.0658919385,
				"element": "C" 
			},
			{
				"x": -0.6358570227,
				"y": 1.10519556,
				"z": -2.3043816544,
				"element": "C" 
			},
			{
				"x": -1.119394641,
				"y": -0.0341271857,
				"z": -1.3913043103,
				"element": "C" 
			},
			{
				"x": -0.2174348907,
				"y": -0.3499556814,
				"z": -0.291103325,
				"element": "N" 
			},
			{
				"x": -0.2192987743,
				"y": 0.2380189214,
				"z": 0.9619219345,
				"element": "C" 
			},
			{
				"x": -1.104766033,
				"y": 1.2619915945,
				"z": 1.2631279878,
				"element": "N" 
			},
			{
				"x": 0.6067797836,
				"y": -0.3103235757,
				"z": 1.8205733238,
				"element": "N" 
			},
			{
				"x": 1.1990994438,
				"y": -1.350465492,
				"z": 1.1151935646,
				"element": "C" 
			},
			{
				"x": 0.7072905011,
				"y": -1.3935789195,
				"z": -0.2128288034,
				"element": "C" 
			},
			{
				"x": 1.137915485,
				"y": -2.3402246942,
				"z": -1.1398663463,
				"element": "C" 
			},
			{
				"x": 2.0886012327,
				"y": -3.2667906695,
				"z": -0.7045073131,
				"element": "C" 
			},
			{
				"x": 2.5904836163,
				"y": -3.2356276546,
				"z": 0.6077917653,
				"element": "C" 
			},
			{
				"x": 2.1555103792,
				"y": -2.2824797507,
				"z": 1.5285544003,
				"element": "C" 
			},
			{
				"x": 0.5256004847,
				"y": -0.0676682283,
				"z": -3.7283523743,
				"element": "H" 
			},
			{
				"x": 1.4781148976,
				"y": 0.5693216349,
				"z": -2.3810877641,
				"element": "H" 
			},
			{
				"x": 0.9573072224,
				"y": 1.6458375144,
				"z": -3.6852083685,
				"element": "H" 
			},
			{
				"x": -0.4987467448,
				"y": 2.0158039629,
				"z": -1.7051887896,
				"element": "H" 
			},
			{
				"x": -1.4447379391,
				"y": 1.3268053485,
				"z": -3.0124564517,
				"element": "H" 
			},
			{
				"x": -2.0918673411,
				"y": 0.2214483077,
				"z": -0.9561465923,
				"element": "H" 
			},
			{
				"x": -1.2591576174,
				"y": -0.949828394,
				"z": -1.9755008211,
				"element": "H" 
			},
			{
				"x": -0.9314271869,
				"y": 1.6101643948,
				"z": 2.1981640876,
				"element": "H" 
			},
			{
				"x": -1.1381202683,
				"y": 2.0157520294,
				"z": 0.5872958134,
				"element": "H" 
			},
			{
				"x": 0.7582050584,
				"y": -2.3656235816,
				"z": -2.1567465005,
				"element": "H" 
			},
			{
				"x": 2.4469035293,
				"y": -4.0232454718,
				"z": -1.3964987037,
				"element": "H" 
			},
			{
				"x": 3.3320303667,
				"y": -3.9699918788,
				"z": 0.9089196932,
				"element": "H" 
			},
			{
				"x": 2.5386053345,
				"y": -2.2558994947,
				"z": 2.5437274865,
				"element": "H" 
			}
		],
		 "valence_orbital": [ 
			{
				"type": "occ",
				"energy": -0.29353,
				"method": "rhf"
			},
			{
				"type": "occ",
				"energy": -0.27995,
				"method": "rhf"
			},
			{
				"type": "occ",
				"energy": -0.26181,
				"method": "rhf"
			},
			{
				"type": "occ",
				"energy": -0.21227,
				"method": "rhf"
			},
			{
				"type": "occ",
				"energy": -0.19714,
				"method": "rhf"
			},
			{
				"type": "unocc",
				"energy": 0.00495,
				"method": "rhf"
			},
			{
				"type": "unocc",
				"energy": 0.03103,
				"method": "rhf"
			},
			{
				"type": "unocc",
				"energy": 0.05254,
				"method": "rhf"
			},
			{
				"type": "unocc",
				"energy": 0.07834,
				"method": "rhf"
			},
			{
				"type": "unocc",
				"energy": 0.08798,
				"method": "rhf"
			}
		],
		"cosmo_sigma_profile": { 
			"-0.025": 0.0,
			"-0.024": 0.0,
			"-0.023": 0.0,
			"-0.022": 0.0,
			"-0.021": 0.0,
			"-0.02": 0.0,
			"-0.019": 0.0,
			"-0.018": 0.0,
			"-0.017": 0.0,
			"-0.016": 0.0,
			"-0.015": 0.0,
			"-0.014": 0.0808847064449,
			"-0.013": 1.46686955622,
			"-0.012": 2.35233973137,
			"-0.011": 3.24375795125,
			"-0.01": 3.37125636296,
			"-0.009": 2.5662727422,
			"-0.008": 1.90782584175,
			"-0.007": 2.28775545205,
			"-0.006": 6.15488016179,
			"-0.005": 12.9874885396,
			"-0.004": 17.2791767089,
			"-0.003": 22.987146722,
			"-0.002": 19.9463337184,
			"-0.001": 18.5791239007,
			"0.0": 18.3893515266,
			"0.001": 16.9047539171,
			"0.002": 10.0294278912,
			"0.003": 7.59567672029,
			"0.004": 8.87331843187,
			"0.005": 11.1022876306,
			"0.006": 10.5619656456,
			"0.007": 9.01798535143,
			"0.008": 3.43063140296,
			"0.009": 1.65664099918,
			"0.01": 2.53425597399,
			"0.011": 1.23904996063,
			"0.012": 1.08752253198,
			"0.013": 1.85837150854,
			"0.014": 1.1992591432,
			"0.015": 0.961551934042,
			"0.016": 0.756319689921,
			"0.017": 1.25759885464,
			"0.018": 0.429377484708,
			"0.019": 0.0112451728697,
			"0.02": 0.0,
			"0.021": 0.0,
			"0.022": 0.0,
			"0.023": 0.0,
			"0.024": 0.0,
			"0.025": 0.0
		}
	}
}
