{
	 "smiles": "CC(C)(C)OC(=O)NC(C)(C)C(N)=S", 
	 "Tm": 443.15, 
	 "num_atms": 32, 
	 "gaussian": { 
		 "optdone": 1, 
		 "sigma_profile": "yes", 
		 "theory": "DFT", 
		 "functional": "B3LYP", 
		 "basiset": "6-31G**", 
		 "properties": { 
			 "R2extent": 4010.2439, 
			 "electric_dipole_moment_norm": 2.35735505387, 
			 "electric_quadrupole_moment_norm": 27.5584348024, 
			 "total_energy": -1011.99714261, 
			 "HOMO_LUMO_gap": 0.17662, 
			 "cosmo_polarized_energy": -17.77, 
			 "cosmo_cavitation_energy": 34.84, 
			 "cosmo_dispersion_energy": -23.15, 
			 "cosmo_repulsion_energy": 1.78, 
			 "cosmo_total_nonelectrostatic_energy": 13.47, 
			 "SMD_solvation_energy": 6.29 
		},
		"coords": [
			{
				"x": -1.3139245305,
				"y": 1.0363318654,
				"z": 1.7981277838,
				"element": "C" 
			},
			{
				"x": -0.1166843402,
				"y": 1.7296260336,
				"z": 1.1402399983,
				"element": "C" 
			},
			{
				"x": -0.477020017,
				"y": 3.1112380781,
				"z": 0.5859739897,
				"element": "C" 
			},
			{
				"x": 1.0644507131,
				"y": 1.8177588292,
				"z": 2.1088927001,
				"element": "C" 
			},
			{
				"x": 0.4188255738,
				"y": 0.8760170898,
				"z": 0.0594194066,
				"element": "O" 
			},
			{
				"x": -0.3318358476,
				"y": 0.5527506573,
				"z": -1.0100518265,
				"element": "C" 
			},
			{
				"x": -1.4801600994,
				"y": 0.9003086009,
				"z": -1.2284030107,
				"element": "O" 
			},
			{
				"x": 0.3474014136,
				"y": -0.3133672435,
				"z": -1.8536120314,
				"element": "N" 
			},
			{
				"x": 1.8151282176,
				"y": -0.4941969235,
				"z": -1.9565196552,
				"element": "C" 
			},
			{
				"x": 2.04826259,
				"y": -1.3797005058,
				"z": -3.2025525968,
				"element": "C" 
			},
			{
				"x": 2.5430489489,
				"y": 0.8474329212,
				"z": -2.1385772988,
				"element": "C" 
			},
			{
				"x": 2.3461790286,
				"y": -1.2999867485,
				"z": -0.7406020923,
				"element": "C" 
			},
			{
				"x": 1.4343705021,
				"y": -2.1084374393,
				"z": -0.18282467,
				"element": "N" 
			},
			{
				"x": 3.9375978174,
				"y": -1.2755077863,
				"z": -0.2490538857,
				"element": "S" 
			},
			{
				"x": -1.0303353151,
				"y": 0.0379754893,
				"z": 2.1465849385,
				"element": "H" 
			},
			{
				"x": -1.6403694882,
				"y": 1.6167701368,
				"z": 2.6669050969,
				"element": "H" 
			},
			{
				"x": -2.1475300733,
				"y": 0.9476470501,
				"z": 1.1008915599,
				"element": "H" 
			},
			{
				"x": -0.7676916306,
				"y": 3.7697276779,
				"z": 1.4108520837,
				"element": "H" 
			},
			{
				"x": -1.3035729751,
				"y": 3.0474167944,
				"z": -0.1220103242,
				"element": "H" 
			},
			{
				"x": 0.3876038216,
				"y": 3.5585719522,
				"z": 0.0856255578,
				"element": "H" 
			},
			{
				"x": 1.9296734899,
				"y": 2.2809438913,
				"z": 1.6265666745,
				"element": "H" 
			},
			{
				"x": 0.7883904724,
				"y": 2.4207095805,
				"z": 2.9790730728,
				"element": "H" 
			},
			{
				"x": 1.3585323757,
				"y": 0.8224713609,
				"z": 2.4530621363,
				"element": "H" 
			},
			{
				"x": -0.1674170144,
				"y": -0.4393213732,
				"z": -2.7152872537,
				"element": "H" 
			},
			{
				"x": 3.1132978854,
				"y": -1.5906746929,
				"z": -3.3100598884,
				"element": "H" 
			},
			{
				"x": 1.5117942666,
				"y": -2.3295159595,
				"z": -3.1176449996,
				"element": "H" 
			},
			{
				"x": 1.7050389194,
				"y": -0.8573862698,
				"z": -4.1025789425,
				"element": "H" 
			},
			{
				"x": 3.6121131997,
				"y": 0.6826822805,
				"z": -2.2747644497,
				"element": "H" 
			},
			{
				"x": 2.141120154,
				"y": 1.3530578166,
				"z": -3.0226141422,
				"element": "H" 
			},
			{
				"x": 2.4048742849,
				"y": 1.4886720743,
				"z": -1.2680622797,
				"element": "H" 
			},
			{
				"x": 1.7069338467,
				"y": -2.6910245432,
				"z": 0.594477969,
				"element": "H" 
			},
			{
				"x": 0.46450381,
				"y": -2.0387906946,
				"z": -0.4593736208,
				"element": "H" 
			}
		],
		 "valence_orbital": [ 
			{
				"type": "occ",
				"energy": -0.29789,
				"method": "rhf"
			},
			{
				"type": "occ",
				"energy": -0.27699,
				"method": "rhf"
			},
			{
				"type": "occ",
				"energy": -0.26842,
				"method": "rhf"
			},
			{
				"type": "occ",
				"energy": -0.22827,
				"method": "rhf"
			},
			{
				"type": "occ",
				"energy": -0.20517,
				"method": "rhf"
			},
			{
				"type": "unocc",
				"energy": -0.02855,
				"method": "rhf"
			},
			{
				"type": "unocc",
				"energy": 0.03756,
				"method": "rhf"
			},
			{
				"type": "unocc",
				"energy": 0.05989,
				"method": "rhf"
			},
			{
				"type": "unocc",
				"energy": 0.08123,
				"method": "rhf"
			},
			{
				"type": "unocc",
				"energy": 0.08899,
				"method": "rhf"
			}
		],
		"cosmo_sigma_profile": { 
			"-0.025": 0.0,
			"-0.024": 0.0,
			"-0.023": 0.0,
			"-0.022": 0.0,
			"-0.021": 0.0,
			"-0.02": 0.0,
			"-0.019": 0.0,
			"-0.018": 0.0,
			"-0.017": 0.0,
			"-0.016": 0.0,
			"-0.015": 0.677087711523,
			"-0.014": 1.58163735897,
			"-0.013": 2.91865042047,
			"-0.012": 2.95131917399,
			"-0.011": 2.863290136,
			"-0.01": 3.10762773133,
			"-0.009": 3.377862759,
			"-0.008": 2.72146853363,
			"-0.007": 2.81730064661,
			"-0.006": 4.07218885036,
			"-0.005": 8.46726158497,
			"-0.004": 20.9366398456,
			"-0.003": 24.4585920485,
			"-0.002": 29.6138221592,
			"-0.001": 29.9020076211,
			"0.0": 36.1175448641,
			"0.001": 20.1572515042,
			"0.002": 7.8167353737,
			"0.003": 7.31811138588,
			"0.004": 6.6609448034,
			"0.005": 7.02684892719,
			"0.006": 7.31104858725,
			"0.007": 6.77565198393,
			"0.008": 6.4369570773,
			"0.009": 8.03730902587,
			"0.01": 7.03146452845,
			"0.011": 4.57763318796,
			"0.012": 3.19302005099,
			"0.013": 3.81131126089,
			"0.014": 0.654414212579,
			"0.015": 0.0,
			"0.016": 0.0,
			"0.017": 0.0,
			"0.018": 0.0,
			"0.019": 0.0,
			"0.02": 0.0,
			"0.021": 0.0,
			"0.022": 0.0,
			"0.023": 0.0,
			"0.024": 0.0,
			"0.025": 0.0
		}
	}
}
