{
	 "smiles": "SC1=NC2=C(C(=CS2)C2=CC=CO2)C(=O)N1C1=CC=CC=C1", 
	 "Tm": 516.15, 
	 "num_atms": 32, 
	 "gaussian": { 
		 "optdone": 1, 
		 "sigma_profile": "yes", 
		 "theory": "DFT", 
		 "functional": "B3LYP", 
		 "basiset": "6-31G**", 
		 "properties": { 
			 "R2extent": 8150.2645, 
			 "electric_dipole_moment_norm": 2.48971168009, 
			 "electric_quadrupole_moment_norm": 22.5779735685, 
			 "total_energy": -1672.02510027, 
			 "HOMO_LUMO_gap": 0.15715, 
			 "cosmo_polarized_energy": -16.43, 
			 "cosmo_cavitation_energy": 40.7, 
			 "cosmo_dispersion_energy": -29.35, 
			 "cosmo_repulsion_energy": 2.14, 
			 "cosmo_total_nonelectrostatic_energy": 13.49, 
			 "SMD_solvation_energy": 5.9 
		},
		"coords": [
			{
				"x": -1.8341271652,
				"y": 0.6065368583,
				"z": 3.5580681513,
				"element": "S" 
			},
			{
				"x": -0.6058141299,
				"y": 0.7275494214,
				"z": 2.2759925544,
				"element": "C" 
			},
			{
				"x": 0.3829898237,
				"y": 1.5230929138,
				"z": 2.5680418367,
				"element": "N" 
			},
			{
				"x": 1.3331172486,
				"y": 1.662956943,
				"z": 1.6123279311,
				"element": "C" 
			},
			{
				"x": 1.3518239748,
				"y": 1.0584944696,
				"z": 0.3595621169,
				"element": "C" 
			},
			{
				"x": 2.5169580167,
				"y": 1.4163911772,
				"z": -0.418195715,
				"element": "C" 
			},
			{
				"x": 3.3359556746,
				"y": 2.2656467768,
				"z": 0.2814915047,
				"element": "C" 
			},
			{
				"x": 2.74587998,
				"y": 2.6569599441,
				"z": 1.8723374921,
				"element": "S" 
			},
			{
				"x": 2.8489433557,
				"y": 0.9690341997,
				"z": -1.7676992004,
				"element": "C" 
			},
			{
				"x": 4.0273902485,
				"y": 0.5543400024,
				"z": -2.3299984119,
				"element": "C" 
			},
			{
				"x": 3.7536596345,
				"y": 0.3036318824,
				"z": -3.7115613365,
				"element": "C" 
			},
			{
				"x": 2.4324604113,
				"y": 0.5858857222,
				"z": -3.8886669113,
				"element": "C" 
			},
			{
				"x": 1.8693947542,
				"y": 0.9960883684,
				"z": -2.7216526708,
				"element": "O" 
			},
			{
				"x": 0.2977506779,
				"y": 0.1161768625,
				"z": 0.0419313259,
				"element": "C" 
			},
			{
				"x": 0.1821889419,
				"y": -0.5810510205,
				"z": -0.9484303298,
				"element": "O" 
			},
			{
				"x": -0.7104697179,
				"y": 0.0299225495,
				"z": 1.0890824523,
				"element": "N" 
			},
			{
				"x": -1.8055339552,
				"y": -0.8713253193,
				"z": 0.8124918431,
				"element": "C" 
			},
			{
				"x": -1.7021595178,
				"y": -2.2170321615,
				"z": 1.1710909587,
				"element": "C" 
			},
			{
				"x": -2.7599086464,
				"y": -3.0836217905,
				"z": 0.8957542063,
				"element": "C" 
			},
			{
				"x": -3.9085305998,
				"y": -2.6079895077,
				"z": 0.2592873006,
				"element": "C" 
			},
			{
				"x": -3.9996312482,
				"y": -1.2635039663,
				"z": -0.1069980961,
				"element": "C" 
			},
			{
				"x": -2.945683499,
				"y": -0.3908219779,
				"z": 0.1650316425,
				"element": "C" 
			},
			{
				"x": -2.6562946302,
				"y": -0.2552653269,
				"z": 2.9326206966,
				"element": "H" 
			},
			{
				"x": 4.2513167024,
				"y": 2.7151018664,
				"z": -0.0766700738,
				"element": "H" 
			},
			{
				"x": 4.9648276405,
				"y": 0.4177857696,
				"z": -1.8104526262,
				"element": "H" 
			},
			{
				"x": 4.4440776028,
				"y": -0.0492854707,
				"z": -4.4639897395,
				"element": "H" 
			},
			{
				"x": 1.769975372,
				"y": 0.5432174727,
				"z": -4.7391258342,
				"element": "H" 
			},
			{
				"x": -0.7998278066,
				"y": -2.5736375495,
				"z": 1.657114297,
				"element": "H" 
			},
			{
				"x": -2.6836458209,
				"y": -4.1301939615,
				"z": 1.1741965967,
				"element": "H" 
			},
			{
				"x": -4.7296719249,
				"y": -3.2853885189,
				"z": 0.0448941503,
				"element": "H" 
			},
			{
				"x": -4.8883788905,
				"y": -0.8930105123,
				"z": -0.6085249389,
				"element": "H" 
			},
			{
				"x": -2.9980325076,
				"y": 0.6548138836,
				"z": -0.1207511728,
				"element": "H" 
			}
		],
		 "valence_orbital": [ 
			{
				"type": "occ",
				"energy": -0.27071,
				"method": "rhf"
			},
			{
				"type": "occ",
				"energy": -0.26698,
				"method": "rhf"
			},
			{
				"type": "occ",
				"energy": -0.25935,
				"method": "rhf"
			},
			{
				"type": "occ",
				"energy": -0.22699,
				"method": "rhf"
			},
			{
				"type": "occ",
				"energy": -0.20261,
				"method": "rhf"
			},
			{
				"type": "unocc",
				"energy": -0.04546,
				"method": "rhf"
			},
			{
				"type": "unocc",
				"energy": -0.02864,
				"method": "rhf"
			},
			{
				"type": "unocc",
				"energy": -0.02216,
				"method": "rhf"
			},
			{
				"type": "unocc",
				"energy": -0.01838,
				"method": "rhf"
			},
			{
				"type": "unocc",
				"energy": 0.0033,
				"method": "rhf"
			}
		],
		"cosmo_sigma_profile": { 
			"-0.025": 0.0,
			"-0.024": 0.0,
			"-0.023": 0.0,
			"-0.022": 0.0,
			"-0.021": 0.0,
			"-0.02": 0.0,
			"-0.019": 0.0,
			"-0.018": 0.0,
			"-0.017": 0.0,
			"-0.016": 0.0,
			"-0.015": 0.0,
			"-0.014": 0.0,
			"-0.013": 0.0,
			"-0.012": 0.0551756329407,
			"-0.011": 0.915840815765,
			"-0.01": 1.1049922966,
			"-0.009": 3.15643402013,
			"-0.008": 5.59143780214,
			"-0.007": 15.6345545152,
			"-0.006": 20.8395818564,
			"-0.005": 23.82437878,
			"-0.004": 23.5317598255,
			"-0.003": 19.4411047321,
			"-0.002": 18.678920507,
			"-0.001": 18.6841349213,
			"0.0": 24.1830254816,
			"0.001": 29.3662793199,
			"0.002": 32.0479208353,
			"0.003": 24.9159860118,
			"0.004": 18.7830126353,
			"0.005": 15.4549901206,
			"0.006": 8.93996981626,
			"0.007": 5.3129684799,
			"0.008": 4.62198171879,
			"0.009": 2.90352955863,
			"0.01": 3.65161179838,
			"0.011": 4.54743734535,
			"0.012": 5.88127445558,
			"0.013": 2.00761135156,
			"0.014": 0.0,
			"0.015": 0.0,
			"0.016": 0.0,
			"0.017": 0.0,
			"0.018": 0.0,
			"0.019": 0.0,
			"0.02": 0.0,
			"0.021": 0.0,
			"0.022": 0.0,
			"0.023": 0.0,
			"0.024": 0.0,
			"0.025": 0.0
		}
	}
}
