{
	 "smiles": "NCCNC(=O)C1=C(O)C=CC=C1", 
	 "Tm": 312.15, 
	 "num_atms": 25, 
	 "gaussian": { 
		 "optdone": 1, 
		 "sigma_profile": "yes", 
		 "theory": "DFT", 
		 "functional": "B3LYP", 
		 "basiset": "6-31G**", 
		 "properties": { 
			 "R2extent": 2746.7565, 
			 "electric_dipole_moment_norm": 2.97269229824, 
			 "electric_quadrupole_moment_norm": 14.2230464954, 
			 "total_energy": -610.148263161, 
			 "HOMO_LUMO_gap": 0.18191, 
			 "cosmo_polarized_energy": -14.04, 
			 "cosmo_cavitation_energy": 27.73, 
			 "cosmo_dispersion_energy": -20.19, 
			 "cosmo_repulsion_energy": 1.62, 
			 "cosmo_total_nonelectrostatic_energy": 9.15, 
			 "SMD_solvation_energy": 3.91 
		},
		"coords": [
			{
				"x": 2.4898728704,
				"y": 0.6272261568,
				"z": 2.3586430069,
				"element": "N" 
			},
			{
				"x": 2.0448849264,
				"y": -0.5958595965,
				"z": 3.0226683904,
				"element": "C" 
			},
			{
				"x": 1.0889735496,
				"y": -1.3854296168,
				"z": 2.1219538177,
				"element": "C" 
			},
			{
				"x": 1.7359210004,
				"y": -1.8427688056,
				"z": 0.8696346028,
				"element": "N" 
			},
			{
				"x": 1.8829985932,
				"y": -0.9462305577,
				"z": -0.2187649915,
				"element": "C" 
			},
			{
				"x": 2.9927315994,
				"y": -0.7150099113,
				"z": -0.6809788634,
				"element": "O" 
			},
			{
				"x": 0.6287006185,
				"y": -0.404555029,
				"z": -0.8037771966,
				"element": "C" 
			},
			{
				"x": -0.5974358241,
				"y": -1.1117191,
				"z": -0.7815451343,
				"element": "C" 
			},
			{
				"x": -0.750308597,
				"y": -2.3229291329,
				"z": -0.1913180854,
				"element": "O" 
			},
			{
				"x": -1.7217812006,
				"y": -0.5647406996,
				"z": -1.4174877741,
				"element": "C" 
			},
			{
				"x": -1.6330059413,
				"y": 0.6614758014,
				"z": -2.0642145616,
				"element": "C" 
			},
			{
				"x": -0.4199355881,
				"y": 1.3626533705,
				"z": -2.108370381,
				"element": "C" 
			},
			{
				"x": 0.6976095923,
				"y": 0.8192658947,
				"z": -1.4917376559,
				"element": "C" 
			},
			{
				"x": 3.1758960173,
				"y": 0.4183311252,
				"z": 1.6374995943,
				"element": "H" 
			},
			{
				"x": 2.9395875406,
				"y": 1.2495587051,
				"z": 3.0232140192,
				"element": "H" 
			},
			{
				"x": 2.8631272517,
				"y": -1.267376791,
				"z": 3.3457185701,
				"element": "H" 
			},
			{
				"x": 1.4963001425,
				"y": -0.3192711315,
				"z": 3.9311197118,
				"element": "H" 
			},
			{
				"x": 0.7109063532,
				"y": -2.2626187314,
				"z": 2.6588195422,
				"element": "H" 
			},
			{
				"x": 0.2384375499,
				"y": -0.7556656385,
				"z": 1.8549392883,
				"element": "H" 
			},
			{
				"x": 2.6446521474,
				"y": -2.2656483836,
				"z": 1.0495386964,
				"element": "H" 
			},
			{
				"x": 0.1199793192,
				"y": -2.592963713,
				"z": 0.1682089308,
				"element": "H" 
			},
			{
				"x": -2.6484513144,
				"y": -1.1284540499,
				"z": -1.3925802596,
				"element": "H" 
			},
			{
				"x": -2.515439404,
				"y": 1.0732315705,
				"z": -2.5462481702,
				"element": "H" 
			},
			{
				"x": -0.3542460211,
				"y": 2.3163527672,
				"z": -2.6218530465,
				"element": "H" 
			},
			{
				"x": 1.6561248185,
				"y": 1.326945497,
				"z": -1.5193820509,
				"element": "H" 
			}
		],
		 "valence_orbital": [ 
			{
				"type": "occ",
				"energy": -0.28214,
				"method": "rhf"
			},
			{
				"type": "occ",
				"energy": -0.26186,
				"method": "rhf"
			},
			{
				"type": "occ",
				"energy": -0.24879,
				"method": "rhf"
			},
			{
				"type": "occ",
				"energy": -0.24173,
				"method": "rhf"
			},
			{
				"type": "occ",
				"energy": -0.22192,
				"method": "rhf"
			},
			{
				"type": "unocc",
				"energy": -0.04001,
				"method": "rhf"
			},
			{
				"type": "unocc",
				"energy": 0.00998,
				"method": "rhf"
			},
			{
				"type": "unocc",
				"energy": 0.04448,
				"method": "rhf"
			},
			{
				"type": "unocc",
				"energy": 0.06749,
				"method": "rhf"
			},
			{
				"type": "unocc",
				"energy": 0.09956,
				"method": "rhf"
			}
		],
		"cosmo_sigma_profile": { 
			"-0.025": 0.0,
			"-0.024": 0.0,
			"-0.023": 0.0,
			"-0.022": 0.0,
			"-0.021": 0.0,
			"-0.02": 0.0,
			"-0.019": 0.0,
			"-0.018": 0.0,
			"-0.017": 0.0,
			"-0.016": 0.0,
			"-0.015": 0.0,
			"-0.014": 0.0,
			"-0.013": 0.280862283751,
			"-0.012": 1.17261895588,
			"-0.011": 1.36220409595,
			"-0.01": 1.94486529257,
			"-0.009": 3.1459962039,
			"-0.008": 3.21440485982,
			"-0.007": 6.80257859351,
			"-0.006": 12.0818057224,
			"-0.005": 19.6570894713,
			"-0.004": 21.0647713663,
			"-0.003": 18.632693874,
			"-0.002": 14.9393683964,
			"-0.001": 14.1636871054,
			"0.0": 10.1819342439,
			"0.001": 8.62599205668,
			"0.002": 10.7665102096,
			"0.003": 12.423808996,
			"0.004": 15.2174717721,
			"0.005": 9.45584737706,
			"0.006": 4.15246410672,
			"0.007": 4.26503435727,
			"0.008": 3.2792150265,
			"0.009": 3.01705708697,
			"0.01": 3.58238470765,
			"0.011": 4.53827889195,
			"0.012": 5.05769858973,
			"0.013": 3.27374104941,
			"0.014": 0.609606801997,
			"0.015": 0.163030761492,
			"0.016": 0.697035420253,
			"0.017": 0.467981427132,
			"0.018": 0.294901147633,
			"0.019": 0.0,
			"0.02": 0.0,
			"0.021": 0.0,
			"0.022": 0.0,
			"0.023": 0.0,
			"0.024": 0.0,
			"0.025": 0.0
		}
	}
}
