{
	 "smiles": "NC(=O)NN=C(O)CC1=CC=CC=C1", 
	 "Tm": 441.15, 
	 "num_atms": 25, 
	 "gaussian": { 
		 "optdone": 1, 
		 "sigma_profile": "yes", 
		 "theory": "DFT", 
		 "functional": "B3LYP", 
		 "basiset": "6-31G**", 
		 "properties": { 
			 "R2extent": 3350.2049, 
			 "electric_dipole_moment_norm": 3.233302799, 
			 "electric_quadrupole_moment_norm": 13.4984020399, 
			 "total_energy": -664.277948475, 
			 "HOMO_LUMO_gap": 0.21564, 
			 "cosmo_polarized_energy": -17.76, 
			 "cosmo_cavitation_energy": 29.21, 
			 "cosmo_dispersion_energy": -20.37, 
			 "cosmo_repulsion_energy": 1.64, 
			 "cosmo_total_nonelectrostatic_energy": 10.48, 
			 "SMD_solvation_energy": 5.22 
		},
		"coords": [
			{
				"x": -1.6662816847,
				"y": 2.6855960533,
				"z": 1.2197262057,
				"element": "N" 
			},
			{
				"x": -2.1053431513,
				"y": 1.384593414,
				"z": 1.4488242454,
				"element": "C" 
			},
			{
				"x": -3.2554284982,
				"y": 1.0230262451,
				"z": 1.2461069147,
				"element": "O" 
			},
			{
				"x": -1.0904091375,
				"y": 0.5609434298,
				"z": 1.9283704106,
				"element": "N" 
			},
			{
				"x": -1.3741230856,
				"y": -0.667777629,
				"z": 2.5419292797,
				"element": "N" 
			},
			{
				"x": -1.8780438722,
				"y": -1.5955550643,
				"z": 1.8135330162,
				"element": "C" 
			},
			{
				"x": -2.1737072023,
				"y": -2.7575196991,
				"z": 2.4434991316,
				"element": "O" 
			},
			{
				"x": -2.2123680181,
				"y": -1.6445564948,
				"z": 0.3414253291,
				"element": "C" 
			},
			{
				"x": -1.0843773665,
				"y": -1.224523471,
				"z": -0.5855434319,
				"element": "C" 
			},
			{
				"x": -1.2875244002,
				"y": -0.2290499331,
				"z": -1.5482187152,
				"element": "C" 
			},
			{
				"x": -0.2690372801,
				"y": 0.1238991469,
				"z": -2.4363124646,
				"element": "C" 
			},
			{
				"x": 0.970113907,
				"y": -0.5144732771,
				"z": -2.371276005,
				"element": "C" 
			},
			{
				"x": 1.1824834613,
				"y": -1.5100073369,
				"z": -1.414304254,
				"element": "C" 
			},
			{
				"x": 0.1620755968,
				"y": -1.8632590618,
				"z": -0.5318920855,
				"element": "C" 
			},
			{
				"x": -2.3311943695,
				"y": 3.2187432604,
				"z": 0.6769771876,
				"element": "H" 
			},
			{
				"x": -0.708209779,
				"y": 2.7991399959,
				"z": 0.9158486885,
				"element": "H" 
			},
			{
				"x": -0.3843010583,
				"y": 1.0474884653,
				"z": 2.4653948774,
				"element": "H" 
			},
			{
				"x": -1.9652275446,
				"y": -2.6167779655,
				"z": 3.382696689,
				"element": "H" 
			},
			{
				"x": -2.5099889958,
				"y": -2.6751231719,
				"z": 0.1230075139,
				"element": "H" 
			},
			{
				"x": -3.0835506524,
				"y": -1.00285645,
				"z": 0.1850813613,
				"element": "H" 
			},
			{
				"x": -2.2498328586,
				"y": 0.2738625405,
				"z": -1.5955448042,
				"element": "H" 
			},
			{
				"x": -0.4455855094,
				"y": 0.8967910694,
				"z": -3.1795742574,
				"element": "H" 
			},
			{
				"x": 1.7631604175,
				"y": -0.242408049,
				"z": -3.0620392274,
				"element": "H" 
			},
			{
				"x": 2.1426714297,
				"y": -2.0155101964,
				"z": -1.3585545129,
				"element": "H" 
			},
			{
				"x": 0.3332296519,
				"y": -2.6425858207,
				"z": 0.2068389071,
				"element": "H" 
			}
		],
		 "valence_orbital": [ 
			{
				"type": "occ",
				"energy": -0.27687,
				"method": "rhf"
			},
			{
				"type": "occ",
				"energy": -0.25849,
				"method": "rhf"
			},
			{
				"type": "occ",
				"energy": -0.24954,
				"method": "rhf"
			},
			{
				"type": "occ",
				"energy": -0.2417,
				"method": "rhf"
			},
			{
				"type": "occ",
				"energy": -0.2189,
				"method": "rhf"
			},
			{
				"type": "unocc",
				"energy": -0.00326,
				"method": "rhf"
			},
			{
				"type": "unocc",
				"energy": -0.00139,
				"method": "rhf"
			},
			{
				"type": "unocc",
				"energy": 0.02119,
				"method": "rhf"
			},
			{
				"type": "unocc",
				"energy": 0.04563,
				"method": "rhf"
			},
			{
				"type": "unocc",
				"energy": 0.06819,
				"method": "rhf"
			}
		],
		"cosmo_sigma_profile": { 
			"-0.025": 0.0,
			"-0.024": 0.0,
			"-0.023": 0.0,
			"-0.022": 0.0,
			"-0.021": 0.0,
			"-0.02": 0.0,
			"-0.019": 0.0,
			"-0.018": 0.0145962541225,
			"-0.017": 0.587374836448,
			"-0.016": 0.750719890756,
			"-0.015": 1.2257443379,
			"-0.014": 3.29782450946,
			"-0.013": 4.84992331611,
			"-0.012": 3.03287227451,
			"-0.011": 3.68239106531,
			"-0.01": 4.15439355856,
			"-0.009": 3.78511277252,
			"-0.008": 2.30324262083,
			"-0.007": 2.14056031738,
			"-0.006": 6.41845898235,
			"-0.005": 13.7694373422,
			"-0.004": 16.7775239874,
			"-0.003": 17.4648299091,
			"-0.002": 14.0203075857,
			"-0.001": 11.52420905,
			"0.0": 12.4653218123,
			"0.001": 13.4719725244,
			"0.002": 11.8604385808,
			"0.003": 12.211487621,
			"0.004": 11.4892797718,
			"0.005": 14.0729438516,
			"0.006": 10.468858046,
			"0.007": 6.24488123335,
			"0.008": 6.02517436789,
			"0.009": 5.55445695814,
			"0.01": 3.51614009575,
			"0.011": 4.01209941914,
			"0.012": 2.66984192836,
			"0.013": 4.23815113209,
			"0.014": 2.52644112882,
			"0.015": 0.279712806848,
			"0.016": 0.0,
			"0.017": 0.0,
			"0.018": 0.0,
			"0.019": 0.0,
			"0.02": 0.0,
			"0.021": 0.0,
			"0.022": 0.0,
			"0.023": 0.0,
			"0.024": 0.0,
			"0.025": 0.0
		}
	}
}
