{
	 "smiles": "OC(=O)CSCC(=O)N1CCOCC1", 
	 "Tm": 393.15, 
	 "num_atms": 27, 
	 "gaussian": { 
		 "optdone": 1, 
		 "sigma_profile": "yes", 
		 "theory": "DFT", 
		 "functional": "B3LYP", 
		 "basiset": "6-31G**", 
		 "properties": { 
			 "R2extent": 3183.0697, 
			 "electric_dipole_moment_norm": 5.56320528562, 
			 "electric_quadrupole_moment_norm": 11.7186797375, 
			 "total_energy": -1066.51926, 
			 "HOMO_LUMO_gap": 0.21521, 
			 "cosmo_polarized_energy": -20.72, 
			 "cosmo_cavitation_energy": 28.78, 
			 "cosmo_dispersion_energy": -21.69, 
			 "cosmo_repulsion_energy": 1.62, 
			 "cosmo_total_nonelectrostatic_energy": 8.72, 
			 "SMD_solvation_energy": 5.45 
		},
		"coords": [
			{
				"x": -1.6289106824,
				"y": 1.3477004837,
				"z": -1.8273344392,
				"element": "O" 
			},
			{
				"x": -0.4740662282,
				"y": 2.0405813935,
				"z": -1.8819489482,
				"element": "C" 
			},
			{
				"x": -0.0533291974,
				"y": 2.7249400564,
				"z": -0.9751069176,
				"element": "O" 
			},
			{
				"x": 0.2322637914,
				"y": 1.8060091267,
				"z": -3.2077575031,
				"element": "C" 
			},
			{
				"x": 1.819346218,
				"y": 0.8916655589,
				"z": -3.0403650775,
				"element": "S" 
			},
			{
				"x": 1.3268277618,
				"y": -0.6478227946,
				"z": -2.1572648487,
				"element": "C" 
			},
			{
				"x": 1.3069950404,
				"y": -0.4669286438,
				"z": -0.6334215245,
				"element": "C" 
			},
			{
				"x": 2.3178707532,
				"y": -0.0887976013,
				"z": -0.0579303251,
				"element": "O" 
			},
			{
				"x": 0.1332534273,
				"y": -0.7148049837,
				"z": 0.0492024577,
				"element": "N" 
			},
			{
				"x": 0.0540576255,
				"y": -0.3246882956,
				"z": 1.4547708915,
				"element": "C" 
			},
			{
				"x": -1.0592257213,
				"y": 0.72524805,
				"z": 1.6133490153,
				"element": "C" 
			},
			{
				"x": -2.1644961346,
				"y": 0.4727851304,
				"z": 0.7131834118,
				"element": "O" 
			},
			{
				"x": -2.2831869892,
				"y": -0.9067117513,
				"z": 0.3792491445,
				"element": "C" 
			},
			{
				"x": -1.0765073162,
				"y": -1.3582331985,
				"z": -0.4697161833,
				"element": "C" 
			},
			{
				"x": -1.9452777396,
				"y": 1.3432680201,
				"z": -0.8909240314,
				"element": "H" 
			},
			{
				"x": -0.4342300179,
				"y": 1.3043934823,
				"z": -3.9118044298,
				"element": "H" 
			},
			{
				"x": 0.5367125483,
				"y": 2.7714086495,
				"z": -3.6202357682,
				"element": "H" 
			},
			{
				"x": 2.1405615419,
				"y": -1.3431641637,
				"z": -2.3801766963,
				"element": "H" 
			},
			{
				"x": 0.4144058129,
				"y": -1.0510544127,
				"z": -2.5970382934,
				"element": "H" 
			},
			{
				"x": -0.1337607706,
				"y": -1.2066315986,
				"z": 2.0806489895,
				"element": "H" 
			},
			{
				"x": 1.0202712163,
				"y": 0.0900573605,
				"z": 1.7411748032,
				"element": "H" 
			},
			{
				"x": -1.4329079125,
				"y": 0.7393216964,
				"z": 2.6462614731,
				"element": "H" 
			},
			{
				"x": -0.6898573159,
				"y": 1.7168382482,
				"z": 1.3438790935,
				"element": "H" 
			},
			{
				"x": -2.379042432,
				"y": -1.5089909332,
				"z": 1.2926355574,
				"element": "H" 
			},
			{
				"x": -3.2087332403,
				"y": -1.0182885057,
				"z": -0.1909164956,
				"element": "H" 
			},
			{
				"x": -0.9975403959,
				"y": -2.4558910163,
				"z": -0.4354864025,
				"element": "H" 
			},
			{
				"x": -1.2465936431,
				"y": -1.0568093575,
				"z": -1.5024269529,
				"element": "H" 
			}
		],
		 "valence_orbital": [ 
			{
				"type": "occ",
				"energy": -0.28444,
				"method": "rhf"
			},
			{
				"type": "occ",
				"energy": -0.27425,
				"method": "rhf"
			},
			{
				"type": "occ",
				"energy": -0.25695,
				"method": "rhf"
			},
			{
				"type": "occ",
				"energy": -0.2458,
				"method": "rhf"
			},
			{
				"type": "occ",
				"energy": -0.22755,
				"method": "rhf"
			},
			{
				"type": "unocc",
				"energy": -0.01234,
				"method": "rhf"
			},
			{
				"type": "unocc",
				"energy": -0.00026,
				"method": "rhf"
			},
			{
				"type": "unocc",
				"energy": 0.05804,
				"method": "rhf"
			},
			{
				"type": "unocc",
				"energy": 0.06555,
				"method": "rhf"
			},
			{
				"type": "unocc",
				"energy": 0.07705,
				"method": "rhf"
			}
		],
		"cosmo_sigma_profile": { 
			"-0.025": 0.0,
			"-0.024": 0.0,
			"-0.023": 0.0,
			"-0.022": 0.0,
			"-0.021": 0.0,
			"-0.02": 0.0,
			"-0.019": 0.0,
			"-0.018": 0.0,
			"-0.017": 0.0,
			"-0.016": 0.0,
			"-0.015": 0.0,
			"-0.014": 0.0,
			"-0.013": 0.0,
			"-0.012": 0.0,
			"-0.011": 7.06098293343e-05,
			"-0.01": 0.00382505616959,
			"-0.009": 1.29208141952,
			"-0.008": 6.32527360005,
			"-0.007": 11.3872496867,
			"-0.006": 21.7795448655,
			"-0.005": 32.7415342259,
			"-0.004": 24.7271090962,
			"-0.003": 15.6244977318,
			"-0.002": 10.0179696427,
			"-0.001": 8.97286661018,
			"0.0": 7.68482213269,
			"0.001": 7.22077690819,
			"0.002": 7.79755814015,
			"0.003": 6.651052254,
			"0.004": 6.98087744856,
			"0.005": 7.23363882946,
			"0.006": 6.30659496516,
			"0.007": 6.05633296291,
			"0.008": 5.20944624945,
			"0.009": 6.04060417903,
			"0.01": 6.46930558431,
			"0.011": 5.95761956527,
			"0.012": 5.35933743178,
			"0.013": 5.16564126685,
			"0.014": 3.6129419832,
			"0.015": 1.21057129645,
			"0.016": 0.0,
			"0.017": 0.0,
			"0.018": 0.0,
			"0.019": 0.0,
			"0.02": 0.0,
			"0.021": 0.0,
			"0.022": 0.0,
			"0.023": 0.0,
			"0.024": 0.0,
			"0.025": 0.0
		}
	}
}
