{
	 "smiles": "CCOC(=O)C1(CCC1)S(=O)(=O)C1=CC=C(C)C=C1", 
	 "Tm": 326.65, 
	 "num_atms": 37, 
	 "gaussian": { 
		 "optdone": 1, 
		 "sigma_profile": "yes", 
		 "theory": "DFT", 
		 "functional": "B3LYP", 
		 "basiset": "6-31G**", 
		 "properties": { 
			 "R2extent": 5389.007, 
			 "electric_dipole_moment_norm": 6.64010415129, 
			 "electric_quadrupole_moment_norm": 15.216059161, 
			 "total_energy": -1243.35115293, 
			 "HOMO_LUMO_gap": 0.22254, 
			 "cosmo_polarized_energy": -16.84, 
			 "cosmo_cavitation_energy": 40.63, 
			 "cosmo_dispersion_energy": -27.11, 
			 "cosmo_repulsion_energy": 2.07, 
			 "cosmo_total_nonelectrostatic_energy": 15.59, 
			 "SMD_solvation_energy": 6.74 
		},
		"coords": [
			{
				"x": -0.3250167606,
				"y": 3.0904396621,
				"z": 1.5279248737,
				"element": "C" 
			},
			{
				"x": 0.1424376801,
				"y": 1.8530595091,
				"z": 2.2694301231,
				"element": "C" 
			},
			{
				"x": 0.5564903423,
				"y": 0.8798252527,
				"z": 1.2775461689,
				"element": "O" 
			},
			{
				"x": 1.1307810039,
				"y": -0.241083558,
				"z": 1.756737745,
				"element": "C" 
			},
			{
				"x": 1.339208626,
				"y": -0.4462760225,
				"z": 2.9312463557,
				"element": "O" 
			},
			{
				"x": 1.5211724622,
				"y": -1.1870566448,
				"z": 0.6266892976,
				"element": "C" 
			},
			{
				"x": 2.5681741468,
				"y": -2.2440375858,
				"z": 1.073369879,
				"element": "C" 
			},
			{
				"x": 3.6698936272,
				"y": -1.3541316364,
				"z": 0.4371449396,
				"element": "C" 
			},
			{
				"x": 2.57137019,
				"y": -0.6034227637,
				"z": -0.3627192464,
				"element": "C" 
			},
			{
				"x": 0.0132412799,
				"y": -1.9596093676,
				"z": -0.1345492637,
				"element": "S" 
			},
			{
				"x": -0.8920349074,
				"y": -2.3188604714,
				"z": 0.9707087986,
				"element": "O" 
			},
			{
				"x": 0.5241480831,
				"y": -2.9821321116,
				"z": -1.0665303709,
				"element": "O" 
			},
			{
				"x": -0.8073623094,
				"y": -0.7111659686,
				"z": -1.135393482,
				"element": "C" 
			},
			{
				"x": -1.8858092946,
				"y": -0.0068495436,
				"z": -0.5981621587,
				"element": "C" 
			},
			{
				"x": -2.5523011546,
				"y": 0.9230501344,
				"z": -1.3929871398,
				"element": "C" 
			},
			{
				"x": -2.1574522655,
				"y": 1.1611670236,
				"z": -2.7181773402,
				"element": "C" 
			},
			{
				"x": -2.9049435903,
				"y": 2.1489519457,
				"z": -3.581005356,
				"element": "C" 
			},
			{
				"x": -1.0779314815,
				"y": 0.4309089004,
				"z": -3.2352956113,
				"element": "C" 
			},
			{
				"x": -0.4061520232,
				"y": -0.5104736201,
				"z": -2.4575706319,
				"element": "C" 
			},
			{
				"x": -1.1519351968,
				"y": 2.853656131,
				"z": 0.8529923879,
				"element": "H" 
			},
			{
				"x": 0.4876576101,
				"y": 3.5219920785,
				"z": 0.9364832986,
				"element": "H" 
			},
			{
				"x": -0.6659159482,
				"y": 3.8436256679,
				"z": 2.2450630447,
				"element": "H" 
			},
			{
				"x": 0.9887918599,
				"y": 2.0599024128,
				"z": 2.9306121976,
				"element": "H" 
			},
			{
				"x": -0.6517241029,
				"y": 1.4098510481,
				"z": 2.8787083793,
				"element": "H" 
			},
			{
				"x": 2.4333809515,
				"y": -3.1821005247,
				"z": 0.5324010841,
				"element": "H" 
			},
			{
				"x": 2.6036293163,
				"y": -2.4229703619,
				"z": 2.1476953293,
				"element": "H" 
			},
			{
				"x": 4.1536542316,
				"y": -0.7103586138,
				"z": 1.1767775474,
				"element": "H" 
			},
			{
				"x": 4.4403945975,
				"y": -1.8619510185,
				"z": -0.1476814083,
				"element": "H" 
			},
			{
				"x": 2.4438018387,
				"y": -1.0296363559,
				"z": -1.3603644626,
				"element": "H" 
			},
			{
				"x": 2.6179999907,
				"y": 0.4849052703,
				"z": -0.4341211591,
				"element": "H" 
			},
			{
				"x": -2.2023740103,
				"y": -0.2056465892,
				"z": 0.4194777075,
				"element": "H" 
			},
			{
				"x": -3.3985984351,
				"y": 1.4674845441,
				"z": -0.9818890865,
				"element": "H" 
			},
			{
				"x": -3.3480362533,
				"y": 2.9497265945,
				"z": -2.9820060085,
				"element": "H" 
			},
			{
				"x": -2.2494041545,
				"y": 2.60393238,
				"z": -4.3291720865,
				"element": "H" 
			},
			{
				"x": -3.722360255,
				"y": 1.6551960887,
				"z": -4.1210264097,
				"element": "H" 
			},
			{
				"x": -0.7674596108,
				"y": 0.5914823963,
				"z": -4.2643856161,
				"element": "H" 
			},
			{
				"x": 0.3997839165,
				"y": -1.1029942823,
				"z": -2.8758723195,
				"element": "H" 
			}
		],
		 "valence_orbital": [ 
			{
				"type": "occ",
				"energy": -0.29621,
				"method": "rhf"
			},
			{
				"type": "occ",
				"energy": -0.2822,
				"method": "rhf"
			},
			{
				"type": "occ",
				"energy": -0.27109,
				"method": "rhf"
			},
			{
				"type": "occ",
				"energy": -0.26877,
				"method": "rhf"
			},
			{
				"type": "occ",
				"energy": -0.26248,
				"method": "rhf"
			},
			{
				"type": "unocc",
				"energy": -0.03994,
				"method": "rhf"
			},
			{
				"type": "unocc",
				"energy": -0.02062,
				"method": "rhf"
			},
			{
				"type": "unocc",
				"energy": -0.01306,
				"method": "rhf"
			},
			{
				"type": "unocc",
				"energy": 0.05813,
				"method": "rhf"
			},
			{
				"type": "unocc",
				"energy": 0.06971,
				"method": "rhf"
			}
		],
		"cosmo_sigma_profile": { 
			"-0.025": 0.0,
			"-0.024": 0.0,
			"-0.023": 0.0,
			"-0.022": 0.0,
			"-0.021": 0.0,
			"-0.02": 0.0,
			"-0.019": 0.0,
			"-0.018": 0.0,
			"-0.017": 0.0,
			"-0.016": 0.0,
			"-0.015": 0.0,
			"-0.014": 0.0,
			"-0.013": 0.0,
			"-0.012": 0.0,
			"-0.011": 0.0,
			"-0.01": 0.0,
			"-0.009": 0.0,
			"-0.008": 0.0767695016721,
			"-0.007": 2.8781313037,
			"-0.006": 12.5876569407,
			"-0.005": 25.609175123,
			"-0.004": 36.026061804,
			"-0.003": 34.1660835534,
			"-0.002": 36.8731547769,
			"-0.001": 37.2146201099,
			"0.0": 29.3968919564,
			"0.001": 15.186474776,
			"0.002": 13.6184182006,
			"0.003": 16.9670948591,
			"0.004": 7.88192559885,
			"0.005": 5.09260729807,
			"0.006": 5.4850392568,
			"0.007": 5.67408211818,
			"0.008": 4.82718018527,
			"0.009": 5.01870997248,
			"0.01": 8.66471323743,
			"0.011": 12.1995635489,
			"0.012": 4.79930411325,
			"0.013": 0.0146836344561,
			"0.014": 0.0,
			"0.015": 0.0,
			"0.016": 0.0,
			"0.017": 0.0,
			"0.018": 0.0,
			"0.019": 0.0,
			"0.02": 0.0,
			"0.021": 0.0,
			"0.022": 0.0,
			"0.023": 0.0,
			"0.024": 0.0,
			"0.025": 0.0
		}
	}
}
