{
	 "smiles": "NC1=C(C#N)C(C2=CC=CC=C2)C2=C(CCCC2)O1", 
	 "Tm": 534.15, 
	 "num_atms": 35, 
	 "gaussian": { 
		 "optdone": 1, 
		 "sigma_profile": "yes", 
		 "theory": "DFT", 
		 "functional": "B3LYP", 
		 "basiset": "6-31G**", 
		 "properties": { 
			 "R2extent": 4950.3438, 
			 "electric_dipole_moment_norm": 5.03972786765, 
			 "electric_quadrupole_moment_norm": 17.0105311622, 
			 "total_energy": -804.052453534, 
			 "HOMO_LUMO_gap": 0.19117, 
			 "cosmo_polarized_energy": -14.96, 
			 "cosmo_cavitation_energy": 37.88, 
			 "cosmo_dispersion_energy": -25.86, 
			 "cosmo_repulsion_energy": 2.04, 
			 "cosmo_total_nonelectrostatic_energy": 14.05, 
			 "SMD_solvation_energy": 7.07 
		},
		"coords": [
			{
				"x": 3.5274301757,
				"y": -0.3588069188,
				"z": -0.6307516197,
				"element": "N" 
			},
			{
				"x": 2.1746954518,
				"y": -0.5194469008,
				"z": -0.7624534741,
				"element": "C" 
			},
			{
				"x": 1.323820799,
				"y": -0.9916965119,
				"z": 0.1950814345,
				"element": "C" 
			},
			{
				"x": 1.8849902745,
				"y": -1.4769999241,
				"z": 1.4023268752,
				"element": "C" 
			},
			{
				"x": 2.3774997249,
				"y": -1.8863864122,
				"z": 2.3791194864,
				"element": "N" 
			},
			{
				"x": -0.1862780137,
				"y": -0.9898190394,
				"z": 0.0049175555,
				"element": "C" 
			},
			{
				"x": -0.9042956735,
				"y": -0.0415256925,
				"z": 0.9741388277,
				"element": "C" 
			},
			{
				"x": -0.6808266843,
				"y": 1.3410133347,
				"z": 0.9210905487,
				"element": "C" 
			},
			{
				"x": -1.332364571,
				"y": 2.2007819137,
				"z": 1.803510575,
				"element": "C" 
			},
			{
				"x": -2.2182756781,
				"y": 1.6900851371,
				"z": 2.7566460564,
				"element": "C" 
			},
			{
				"x": -2.4457560303,
				"y": 0.3156876733,
				"z": 2.8192614001,
				"element": "C" 
			},
			{
				"x": -1.7922298989,
				"y": -0.5425005677,
				"z": 1.9312682462,
				"element": "C" 
			},
			{
				"x": -0.5186579441,
				"y": -0.6776451025,
				"z": -1.4430935291,
				"element": "C" 
			},
			{
				"x": 0.4067839806,
				"y": -0.2529911987,
				"z": -2.3105508499,
				"element": "C" 
			},
			{
				"x": 0.1747035204,
				"y": 0.1194232692,
				"z": -3.7466542535,
				"element": "C" 
			},
			{
				"x": -1.3218786242,
				"y": 0.2889935033,
				"z": -4.0439636477,
				"element": "C" 
			},
			{
				"x": -2.1288898969,
				"y": -0.8478910819,
				"z": -3.4064045857,
				"element": "C" 
			},
			{
				"x": -1.9572816505,
				"y": -0.8518030503,
				"z": -1.8806344629,
				"element": "C" 
			},
			{
				"x": 1.7556623377,
				"y": -0.1025296347,
				"z": -1.9805555904,
				"element": "O" 
			},
			{
				"x": 3.9521858987,
				"y": -0.7976154724,
				"z": 0.1741396737,
				"element": "H" 
			},
			{
				"x": 4.059901478,
				"y": -0.3994169824,
				"z": -1.4878490261,
				"element": "H" 
			},
			{
				"x": -0.5653671881,
				"y": -1.9996470424,
				"z": 0.2241584364,
				"element": "H" 
			},
			{
				"x": 0.010666817,
				"y": 1.7423473261,
				"z": 0.1848470449,
				"element": "H" 
			},
			{
				"x": -1.1476320621,
				"y": 3.270221982,
				"z": 1.7507689671,
				"element": "H" 
			},
			{
				"x": -2.7236729052,
				"y": 2.3599359094,
				"z": 3.4464362481,
				"element": "H" 
			},
			{
				"x": -3.128645075,
				"y": -0.0915952479,
				"z": 3.5595773675,
				"element": "H" 
			},
			{
				"x": -1.9686781923,
				"y": -1.614113719,
				"z": 1.9874480229,
				"element": "H" 
			},
			{
				"x": 0.7256392551,
				"y": 1.0425913405,
				"z": -3.9643480501,
				"element": "H" 
			},
			{
				"x": 0.6120443604,
				"y": -0.6539351742,
				"z": -4.3948549926,
				"element": "H" 
			},
			{
				"x": -1.6658369109,
				"y": 1.2491597359,
				"z": -3.6385289657,
				"element": "H" 
			},
			{
				"x": -1.4837114157,
				"y": 0.3252288002,
				"z": -5.126547104,
				"element": "H" 
			},
			{
				"x": -1.7850887242,
				"y": -1.8071559497,
				"z": -3.8155464062,
				"element": "H" 
			},
			{
				"x": -3.1904435536,
				"y": -0.7580250751,
				"z": -3.6617021421,
				"element": "H" 
			},
			{
				"x": -2.3433063396,
				"y": -1.7911045516,
				"z": -1.461191997,
				"element": "H" 
			},
			{
				"x": -2.5686070418,
				"y": -0.0579186751,
				"z": -1.4289060694,
				"element": "H" 
			}
		],
		 "valence_orbital": [ 
			{
				"type": "occ",
				"energy": -0.30848,
				"method": "rhf"
			},
			{
				"type": "occ",
				"energy": -0.24799,
				"method": "rhf"
			},
			{
				"type": "occ",
				"energy": -0.24552,
				"method": "rhf"
			},
			{
				"type": "occ",
				"energy": -0.23196,
				"method": "rhf"
			},
			{
				"type": "occ",
				"energy": -0.20778,
				"method": "rhf"
			},
			{
				"type": "unocc",
				"energy": -0.01661,
				"method": "rhf"
			},
			{
				"type": "unocc",
				"energy": -0.00034,
				"method": "rhf"
			},
			{
				"type": "unocc",
				"energy": 0.01162,
				"method": "rhf"
			},
			{
				"type": "unocc",
				"energy": 0.03565,
				"method": "rhf"
			},
			{
				"type": "unocc",
				"energy": 0.04525,
				"method": "rhf"
			}
		],
		"cosmo_sigma_profile": { 
			"-0.025": 0.0,
			"-0.024": 0.0,
			"-0.023": 0.0,
			"-0.022": 0.0,
			"-0.021": 0.0,
			"-0.02": 0.0,
			"-0.019": 0.0,
			"-0.018": 0.0,
			"-0.017": 0.0,
			"-0.016": 0.0,
			"-0.015": 0.29732684382,
			"-0.014": 1.48614560565,
			"-0.013": 2.31569233908,
			"-0.012": 2.02474202642,
			"-0.011": 2.01094856669,
			"-0.01": 2.39243779877,
			"-0.009": 1.61722198144,
			"-0.008": 1.40920436361,
			"-0.007": 2.18883932758,
			"-0.006": 5.43854719033,
			"-0.005": 14.6726471505,
			"-0.004": 21.0232473122,
			"-0.003": 31.1854524856,
			"-0.002": 33.4447004332,
			"-0.001": 33.636721043,
			"0.0": 29.0110433743,
			"0.001": 19.9650887094,
			"0.002": 18.6910852898,
			"0.003": 14.5356411014,
			"0.004": 13.5229174221,
			"0.005": 12.4297389812,
			"0.006": 10.6924759645,
			"0.007": 3.78442818161,
			"0.008": 3.18005014465,
			"0.009": 3.11493441217,
			"0.01": 3.54071617641,
			"0.011": 3.31519120135,
			"0.012": 3.38314593461,
			"0.013": 2.69099915311,
			"0.014": 2.31148585385,
			"0.015": 0.485444423909,
			"0.016": 0.0,
			"0.017": 0.0,
			"0.018": 0.0,
			"0.019": 0.0,
			"0.02": 0.0,
			"0.021": 0.0,
			"0.022": 0.0,
			"0.023": 0.0,
			"0.024": 0.0,
			"0.025": 0.0
		}
	}
}
