{
	 "smiles": "CC1=CC(C)=C(C#N)C(=O)N1N", 
	 "Tm": 438.15, 
	 "num_atms": 21, 
	 "gaussian": { 
		 "optdone": 1, 
		 "sigma_profile": "yes", 
		 "theory": "DFT", 
		 "functional": "B3LYP", 
		 "basiset": "6-31G**", 
		 "properties": { 
			 "R2extent": 2584.1141, 
			 "electric_dipole_moment_norm": 9.70024210213, 
			 "electric_quadrupole_moment_norm": 22.4040222074, 
			 "total_energy": -549.710754261, 
			 "HOMO_LUMO_gap": 0.16077, 
			 "cosmo_polarized_energy": -27.97, 
			 "cosmo_cavitation_energy": 25.79, 
			 "cosmo_dispersion_energy": -18.25, 
			 "cosmo_repulsion_energy": 1.46, 
			 "cosmo_total_nonelectrostatic_energy": 8.99, 
			 "SMD_solvation_energy": 6.99 
		},
		"coords": [
			{
				"x": 0.9456245356,
				"y": 0.9777456177,
				"z": 1.4321707158,
				"element": "C" 
			},
			{
				"x": 0.4567102415,
				"y": 0.1351451272,
				"z": 0.2880814451,
				"element": "C" 
			},
			{
				"x": 1.0544824687,
				"y": 0.1691911378,
				"z": -0.9443281449,
				"element": "C" 
			},
			{
				"x": 0.5810724613,
				"y": -0.6338900765,
				"z": -2.0180613575,
				"element": "C" 
			},
			{
				"x": 1.2808283087,
				"y": -0.5516231346,
				"z": -3.3484633071,
				"element": "C" 
			},
			{
				"x": -0.5047480838,
				"y": -1.4598856206,
				"z": -1.7977268753,
				"element": "C" 
			},
			{
				"x": -1.0287844063,
				"y": -2.2915220483,
				"z": -2.8350922737,
				"element": "C" 
			},
			{
				"x": -1.4242795124,
				"y": -2.9529728076,
				"z": -3.7074806638,
				"element": "N" 
			},
			{
				"x": -1.1920295423,
				"y": -1.5455052435,
				"z": -0.5039771252,
				"element": "C" 
			},
			{
				"x": -2.148175626,
				"y": -2.2572900803,
				"z": -0.2683022577,
				"element": "O" 
			},
			{
				"x": -0.6263463343,
				"y": -0.6902264918,
				"z": 0.5041243783,
				"element": "N" 
			},
			{
				"x": -1.2673071064,
				"y": -0.754413403,
				"z": 1.7532230141,
				"element": "N" 
			},
			{
				"x": 0.1719098842,
				"y": 1.6645329762,
				"z": 1.7934963961,
				"element": "H" 
			},
			{
				"x": 1.8013925549,
				"y": 1.5729573687,
				"z": 1.1107052469,
				"element": "H" 
			},
			{
				"x": 1.2599473582,
				"y": 0.3657206491,
				"z": 2.2851041195,
				"element": "H" 
			},
			{
				"x": 1.904757269,
				"y": 0.8235095867,
				"z": -1.0968759961,
				"element": "H" 
			},
			{
				"x": 2.3371427355,
				"y": -0.8217902445,
				"z": -3.2376696611,
				"element": "H" 
			},
			{
				"x": 0.8300669092,
				"y": -1.2102966791,
				"z": -4.0914000488,
				"element": "H" 
			},
			{
				"x": 1.2507438658,
				"y": 0.4757240109,
				"z": -3.7288782634,
				"element": "H" 
			},
			{
				"x": -0.6175003671,
				"y": -1.0700419075,
				"z": 2.4660618351,
				"element": "H" 
			},
			{
				"x": -1.6453076143,
				"y": 0.154131263,
				"z": 2.0015888236,
				"element": "H" 
			}
		],
		 "valence_orbital": [ 
			{
				"type": "occ",
				"energy": -0.3173,
				"method": "rhf"
			},
			{
				"type": "occ",
				"energy": -0.2904,
				"method": "rhf"
			},
			{
				"type": "occ",
				"energy": -0.28968,
				"method": "rhf"
			},
			{
				"type": "occ",
				"energy": -0.25695,
				"method": "rhf"
			},
			{
				"type": "occ",
				"energy": -0.22569,
				"method": "rhf"
			},
			{
				"type": "unocc",
				"energy": -0.06492,
				"method": "rhf"
			},
			{
				"type": "unocc",
				"energy": -0.00046,
				"method": "rhf"
			},
			{
				"type": "unocc",
				"energy": 0.03464,
				"method": "rhf"
			},
			{
				"type": "unocc",
				"energy": 0.05085,
				"method": "rhf"
			},
			{
				"type": "unocc",
				"energy": 0.06081,
				"method": "rhf"
			}
		],
		"cosmo_sigma_profile": { 
			"-0.025": 0.0,
			"-0.024": 0.0,
			"-0.023": 0.0,
			"-0.022": 0.0,
			"-0.021": 0.0,
			"-0.02": 0.0,
			"-0.019": 0.0,
			"-0.018": 0.0,
			"-0.017": 0.0,
			"-0.016": 0.0,
			"-0.015": 0.0,
			"-0.014": 0.10617534771,
			"-0.013": 3.32664898665,
			"-0.012": 4.69268174045,
			"-0.011": 4.42572583053,
			"-0.01": 3.83608854993,
			"-0.009": 2.78624296735,
			"-0.008": 3.1763877044,
			"-0.007": 7.11950134749,
			"-0.006": 12.6845117759,
			"-0.005": 12.272903285,
			"-0.004": 13.9033232265,
			"-0.003": 17.463074101,
			"-0.002": 23.067179092,
			"-0.001": 15.5270077538,
			"0.0": 11.2427527768,
			"0.001": 6.06631242998,
			"0.002": 4.95747279716,
			"0.003": 3.09179173533,
			"0.004": 2.86557444889,
			"0.005": 3.02581398645,
			"0.006": 3.54661882573,
			"0.007": 4.23127356009,
			"0.008": 5.46210303768,
			"0.009": 4.83965002643,
			"0.01": 4.98048386015,
			"0.011": 5.63010255924,
			"0.012": 5.20434238555,
			"0.013": 7.70587033098,
			"0.014": 3.11044221391,
			"0.015": 0.677860865646,
			"0.016": 1.67686947843,
			"0.017": 0.778417337393,
			"0.018": 0.629397149544,
			"0.019": 0.812903498452,
			"0.02": 0.440458115299,
			"0.021": 0.0381995061529,
			"0.022": 0.0,
			"0.023": 0.0,
			"0.024": 0.0,
			"0.025": 0.0
		}
	}
}
