{
	 "smiles": "CC1=C(SC(=N1)C1CCN(CC1)C(=O)OC(C)(C)C)C(O)=O", 
	 "Tm": 399.15, 
	 "num_atms": 44, 
	 "gaussian": { 
		 "optdone": 1, 
		 "sigma_profile": "yes", 
		 "theory": "DFT", 
		 "functional": "B3LYP", 
		 "basiset": "6-31G**", 
		 "properties": { 
			 "R2extent": 12176.5938, 
			 "electric_dipole_moment_norm": 3.57544651897, 
			 "electric_quadrupole_moment_norm": 36.2851971833, 
			 "total_energy": -1393.48989985, 
			 "HOMO_LUMO_gap": 0.16568, 
			 "cosmo_polarized_energy": -20.68, 
			 "cosmo_cavitation_energy": 46.66, 
			 "cosmo_dispersion_energy": -32.84, 
			 "cosmo_repulsion_energy": 2.5, 
			 "cosmo_total_nonelectrostatic_energy": 16.31, 
			 "SMD_solvation_energy": 7.5 
		},
		"coords": [
			{
				"x": 1.4883744016,
				"y": 2.3938244028,
				"z": 3.6833042644,
				"element": "C" 
			},
			{
				"x": 2.3657297909,
				"y": 1.562097397,
				"z": 2.7843081488,
				"element": "C" 
			},
			{
				"x": 3.6571135531,
				"y": 1.1322844684,
				"z": 3.0333983051,
				"element": "C" 
			},
			{
				"x": 4.247560604,
				"y": 0.2333071679,
				"z": 1.6609545461,
				"element": "S" 
			},
			{
				"x": 2.7162222564,
				"y": 0.4834401729,
				"z": 0.870319056,
				"element": "C" 
			},
			{
				"x": 1.8553441316,
				"y": 1.1862638457,
				"z": 1.5666531447,
				"element": "N" 
			},
			{
				"x": 2.4152786391,
				"y": -0.1009678171,
				"z": -0.4865789846,
				"element": "C" 
			},
			{
				"x": 1.8686941934,
				"y": 0.989496036,
				"z": -1.4499881719,
				"element": "C" 
			},
			{
				"x": 0.9577768552,
				"y": 0.3945709968,
				"z": -2.5243902549,
				"element": "C" 
			},
			{
				"x": -0.2075196144,
				"y": -0.2397406217,
				"z": -1.9001566934,
				"element": "N" 
			},
			{
				"x": -0.0446223753,
				"y": -0.840339971,
				"z": -0.5695679735,
				"element": "C" 
			},
			{
				"x": 1.4062106577,
				"y": -1.2867838155,
				"z": -0.3821998469,
				"element": "C" 
			},
			{
				"x": -1.4155051025,
				"y": -0.1381259588,
				"z": -2.535365385,
				"element": "C" 
			},
			{
				"x": -1.5646002497,
				"y": 0.3823358611,
				"z": -3.6338483492,
				"element": "O" 
			},
			{
				"x": -2.4021794603,
				"y": -0.6887496521,
				"z": -1.7821138215,
				"element": "O" 
			},
			{
				"x": -3.786414431,
				"y": -0.7372938765,
				"z": -2.2744744143,
				"element": "C" 
			},
			{
				"x": -4.5205044272,
				"y": -1.4443544577,
				"z": -1.1315905687,
				"element": "C" 
			},
			{
				"x": -3.8614351416,
				"y": -1.565946381,
				"z": -3.5616369081,
				"element": "C" 
			},
			{
				"x": -4.3259702481,
				"y": 0.6843208158,
				"z": -2.4671393661,
				"element": "C" 
			},
			{
				"x": 4.583903475,
				"y": 1.3271099645,
				"z": 4.1690411789,
				"element": "C" 
			},
			{
				"x": 4.077472463,
				"y": 1.8801215149,
				"z": 5.3026942292,
				"element": "O" 
			},
			{
				"x": 5.7522884441,
				"y": 1.0147523796,
				"z": 4.1174610327,
				"element": "O" 
			},
			{
				"x": 0.637497597,
				"y": 2.7580435299,
				"z": 3.1055922142,
				"element": "H" 
			},
			{
				"x": 1.0810204091,
				"y": 1.8068493043,
				"z": 4.5179056589,
				"element": "H" 
			},
			{
				"x": 2.0174357503,
				"y": 3.2621856637,
				"z": 4.0905410902,
				"element": "H" 
			},
			{
				"x": 3.3518207437,
				"y": -0.499017482,
				"z": -0.8926529554,
				"element": "H" 
			},
			{
				"x": 1.299096103,
				"y": 1.7220645893,
				"z": -0.8704321073,
				"element": "H" 
			},
			{
				"x": 2.7002401108,
				"y": 1.523108574,
				"z": -1.921449288,
				"element": "H" 
			},
			{
				"x": 1.5107235771,
				"y": -0.3305617663,
				"z": -3.1405257571,
				"element": "H" 
			},
			{
				"x": 0.5906922958,
				"y": 1.168398966,
				"z": -3.2001528908,
				"element": "H" 
			},
			{
				"x": -0.7149679171,
				"y": -1.6973529233,
				"z": -0.4870986729,
				"element": "H" 
			},
			{
				"x": -0.3212313221,
				"y": -0.1290195977,
				"z": 0.2202968868,
				"element": "H" 
			},
			{
				"x": 1.6512062035,
				"y": -2.0244813905,
				"z": -1.1544510418,
				"element": "H" 
			},
			{
				"x": 1.5091392778,
				"y": -1.7929440859,
				"z": 0.5824215316,
				"element": "H" 
			},
			{
				"x": -4.1098709447,
				"y": -2.4452581967,
				"z": -0.968475238,
				"element": "H" 
			},
			{
				"x": -4.4247676873,
				"y": -0.8763646037,
				"z": -0.2015462106,
				"element": "H" 
			},
			{
				"x": -5.5837534007,
				"y": -1.5415071869,
				"z": -1.3704664675,
				"element": "H" 
			},
			{
				"x": -3.3222489312,
				"y": -1.0759456069,
				"z": -4.3724207771,
				"element": "H" 
			},
			{
				"x": -4.9082354465,
				"y": -1.6930080577,
				"z": -3.8565737314,
				"element": "H" 
			},
			{
				"x": -3.4322877897,
				"y": -2.5598802427,
				"z": -3.3985554674,
				"element": "H" 
			},
			{
				"x": -5.3897868444,
				"y": 0.6426972227,
				"z": -2.7232020621,
				"element": "H" 
			},
			{
				"x": -4.2221356911,
				"y": 1.2578655107,
				"z": -1.5404170756,
				"element": "H" 
			},
			{
				"x": -3.7891700436,
				"y": 1.1988608355,
				"z": -3.2640780848,
				"element": "H" 
			},
			{
				"x": 3.1178655352,
				"y": 1.9785444726,
				"z": 5.2469572784,
				"element": "H" 
			}
		],
		 "valence_orbital": [ 
			{
				"type": "occ",
				"energy": -0.28407,
				"method": "rhf"
			},
			{
				"type": "occ",
				"energy": -0.27188,
				"method": "rhf"
			},
			{
				"type": "occ",
				"energy": -0.25986,
				"method": "rhf"
			},
			{
				"type": "occ",
				"energy": -0.25559,
				"method": "rhf"
			},
			{
				"type": "occ",
				"energy": -0.23311,
				"method": "rhf"
			},
			{
				"type": "unocc",
				"energy": -0.06743,
				"method": "rhf"
			},
			{
				"type": "unocc",
				"energy": -0.00072,
				"method": "rhf"
			},
			{
				"type": "unocc",
				"energy": 0.00512,
				"method": "rhf"
			},
			{
				"type": "unocc",
				"energy": 0.05628,
				"method": "rhf"
			},
			{
				"type": "unocc",
				"energy": 0.05932,
				"method": "rhf"
			}
		],
		"cosmo_sigma_profile": { 
			"-0.025": 0.0,
			"-0.024": 0.0,
			"-0.023": 0.0,
			"-0.022": 0.0,
			"-0.021": 0.0,
			"-0.02": 0.0,
			"-0.019": 0.0,
			"-0.018": 0.0,
			"-0.017": 0.0,
			"-0.016": 0.454232656594,
			"-0.015": 1.30352423,
			"-0.014": 1.42888908969,
			"-0.013": 1.01660373703,
			"-0.012": 1.24292714134,
			"-0.011": 1.40322669337,
			"-0.01": 0.775309279189,
			"-0.009": 1.81782719074,
			"-0.008": 3.43425692651,
			"-0.007": 4.19560091174,
			"-0.006": 7.31455664568,
			"-0.005": 14.8003988377,
			"-0.004": 35.5520815326,
			"-0.003": 41.3742903502,
			"-0.002": 39.1982935491,
			"-0.001": 38.0532895264,
			"0.0": 40.5975413212,
			"0.001": 33.5336123873,
			"0.002": 19.2683919096,
			"0.003": 12.6760359837,
			"0.004": 8.59967708075,
			"0.005": 8.16133476081,
			"0.006": 7.25118819123,
			"0.007": 6.01947722681,
			"0.008": 6.88840570343,
			"0.009": 4.84292396797,
			"0.01": 6.69032676014,
			"0.011": 7.25720241838,
			"0.012": 6.33073259675,
			"0.013": 3.71922177581,
			"0.014": 2.31504225157,
			"0.015": 0.0184410467471,
			"0.016": 0.0,
			"0.017": 0.0,
			"0.018": 0.0,
			"0.019": 0.0,
			"0.02": 0.0,
			"0.021": 0.0,
			"0.022": 0.0,
			"0.023": 0.0,
			"0.024": 0.0,
			"0.025": 0.0
		}
	}
}
