{
	 "smiles": "FC1=CC=CC=C1COC1=CC=C(C=O)C=C1", 
	 "Tm": 328.65, 
	 "num_atms": 28, 
	 "gaussian": { 
		 "optdone": 1, 
		 "sigma_profile": "yes", 
		 "theory": "DFT", 
		 "functional": "B3LYP", 
		 "basiset": "6-31G**", 
		 "properties": { 
			 "R2extent": 6050.9599, 
			 "electric_dipole_moment_norm": 4.89673205005, 
			 "electric_quadrupole_moment_norm": 19.4088141608, 
			 "total_energy": -790.387353841, 
			 "HOMO_LUMO_gap": 0.18194, 
			 "cosmo_polarized_energy": -10.65, 
			 "cosmo_cavitation_energy": 33.07, 
			 "cosmo_dispersion_energy": -23.34, 
			 "cosmo_repulsion_energy": 1.78, 
			 "cosmo_total_nonelectrostatic_energy": 11.51, 
			 "SMD_solvation_energy": 7.26 
		},
		"coords": [
			{
				"x": -1.7213859757,
				"y": -1.7494524702,
				"z": 1.1706010144,
				"element": "F" 
			},
			{
				"x": -2.6585491064,
				"y": -0.7737480963,
				"z": 1.2947220796,
				"element": "C" 
			},
			{
				"x": -3.5491689835,
				"y": -0.8486765158,
				"z": 2.3589419139,
				"element": "C" 
			},
			{
				"x": -4.5009343863,
				"y": 0.159819215,
				"z": 2.5029315134,
				"element": "C" 
			},
			{
				"x": -4.5439496513,
				"y": 1.2194092051,
				"z": 1.5919121024,
				"element": "C" 
			},
			{
				"x": -3.6387922628,
				"y": 1.2640732728,
				"z": 0.5333569547,
				"element": "C" 
			},
			{
				"x": -2.6733520318,
				"y": 0.2624308743,
				"z": 0.3621575026,
				"element": "C" 
			},
			{
				"x": -1.7023809773,
				"y": 0.3034943112,
				"z": -0.7975384149,
				"element": "C" 
			},
			{
				"x": -0.976449846,
				"y": 1.5376066023,
				"z": -0.8760652136,
				"element": "O" 
			},
			{
				"x": 0.0715833513,
				"y": 1.7621776142,
				"z": -0.0357811142,
				"element": "C" 
			},
			{
				"x": 0.7008014906,
				"y": 3.009132608,
				"z": -0.19273378,
				"element": "C" 
			},
			{
				"x": 1.7917611603,
				"y": 3.3359320869,
				"z": 0.5972604243,
				"element": "C" 
			},
			{
				"x": 2.276727308,
				"y": 2.4327187572,
				"z": 1.5572080328,
				"element": "C" 
			},
			{
				"x": 3.435918195,
				"y": 2.7859575173,
				"z": 2.3947215882,
				"element": "C" 
			},
			{
				"x": 3.9235733319,
				"y": 2.0696664772,
				"z": 3.2514781508,
				"element": "O" 
			},
			{
				"x": 1.639560891,
				"y": 1.1928304003,
				"z": 1.7065186736,
				"element": "C" 
			},
			{
				"x": 0.543754762,
				"y": 0.8488795312,
				"z": 0.9233071118,
				"element": "C" 
			},
			{
				"x": -3.4818201364,
				"y": -1.6811304056,
				"z": 3.0507763881,
				"element": "H" 
			},
			{
				"x": -5.2053303731,
				"y": 0.1183064239,
				"z": 3.3280549435,
				"element": "H" 
			},
			{
				"x": -5.282716476,
				"y": 2.0063033139,
				"z": 1.7065519424,
				"element": "H" 
			},
			{
				"x": -3.6632779713,
				"y": 2.0890421187,
				"z": -0.1729359453,
				"element": "H" 
			},
			{
				"x": -2.2483808992,
				"y": 0.2648945043,
				"z": -1.7442449895,
				"element": "H" 
			},
			{
				"x": -1.0194152385,
				"y": -0.5494543827,
				"z": -0.7683561898,
				"element": "H" 
			},
			{
				"x": 0.3133461795,
				"y": 3.6923601923,
				"z": -0.9410154558,
				"element": "H" 
			},
			{
				"x": 2.2791254817,
				"y": 4.3005353201,
				"z": 0.4737726053,
				"element": "H" 
			},
			{
				"x": 3.8611490511,
				"y": 3.7949627427,
				"z": 2.1889014701,
				"element": "H" 
			},
			{
				"x": 2.0218585065,
				"y": 0.5045265598,
				"z": 2.4539665006,
				"element": "H" 
			},
			{
				"x": 0.0669446067,
				"y": -0.112497778,
				"z": 1.0663301905,
				"element": "H" 
			}
		],
		 "valence_orbital": [ 
			{
				"type": "occ",
				"energy": -0.26888,
				"method": "rhf"
			},
			{
				"type": "occ",
				"energy": -0.26319,
				"method": "rhf"
			},
			{
				"type": "occ",
				"energy": -0.25689,
				"method": "rhf"
			},
			{
				"type": "occ",
				"energy": -0.24441,
				"method": "rhf"
			},
			{
				"type": "occ",
				"energy": -0.23123,
				"method": "rhf"
			},
			{
				"type": "unocc",
				"energy": -0.04929,
				"method": "rhf"
			},
			{
				"type": "unocc",
				"energy": -0.02926,
				"method": "rhf"
			},
			{
				"type": "unocc",
				"energy": -0.01081,
				"method": "rhf"
			},
			{
				"type": "unocc",
				"energy": -0.00919,
				"method": "rhf"
			},
			{
				"type": "unocc",
				"energy": 0.05325,
				"method": "rhf"
			}
		],
		"cosmo_sigma_profile": { 
			"-0.025": 0.0,
			"-0.024": 0.0,
			"-0.023": 0.0,
			"-0.022": 0.0,
			"-0.021": 0.0,
			"-0.02": 0.0,
			"-0.019": 0.0,
			"-0.018": 0.0,
			"-0.017": 0.0,
			"-0.016": 0.0,
			"-0.015": 0.0,
			"-0.014": 0.0,
			"-0.013": 0.0,
			"-0.012": 0.0,
			"-0.011": 0.0,
			"-0.01": 0.0,
			"-0.009": 0.0,
			"-0.008": 0.553045912763,
			"-0.007": 9.68160237676,
			"-0.006": 20.246488471,
			"-0.005": 23.0488784091,
			"-0.004": 21.3917899387,
			"-0.003": 17.1086916363,
			"-0.002": 15.1691976719,
			"-0.001": 15.1309032161,
			"0.0": 17.8085573298,
			"0.001": 20.7475203662,
			"0.002": 25.809638064,
			"0.003": 30.2750954833,
			"0.004": 21.2092135793,
			"0.005": 5.11328791594,
			"0.006": 3.31988933081,
			"0.007": 1.63836465652,
			"0.008": 2.7192624767,
			"0.009": 2.71290734471,
			"0.01": 2.50572217602,
			"0.011": 3.46724426824,
			"0.012": 4.19559443718,
			"0.013": 1.7701526842,
			"0.014": 0.167821138438,
			"0.015": 0.0,
			"0.016": 0.0,
			"0.017": 0.0,
			"0.018": 0.0,
			"0.019": 0.0,
			"0.02": 0.0,
			"0.021": 0.0,
			"0.022": 0.0,
			"0.023": 0.0,
			"0.024": 0.0,
			"0.025": 0.0
		}
	}
}
