{
	 "smiles": "FC(F)(F)C1=NN(CN2CCN(CN3N=C(N(N=CC4=CC=CC=C4)C3=S)C(F)(F)F)CC2)C(=S)N1N=CC1=CC=CC=C1", 
	 "Tm": 606.15, 
	 "num_atms": 68, 
	 "gaussian": { 
		 "optdone": 1, 
		 "sigma_profile": "yes", 
		 "theory": "DFT", 
		 "functional": "B3LYP", 
		 "basiset": "6-31G**", 
		 "properties": { 
			 "R2extent": 30847.9037, 
			 "electric_dipole_moment_norm": 1.27432775611, 
			 "electric_quadrupole_moment_norm": 37.5880388192, 
			 "total_energy": -2948.03723386, 
			 "HOMO_LUMO_gap": 0.14334, 
			 "cosmo_polarized_energy": -19.46, 
			 "cosmo_cavitation_energy": 78.8, 
			 "cosmo_dispersion_energy": -49.1, 
			 "cosmo_repulsion_energy": 3.46, 
			 "cosmo_total_nonelectrostatic_energy": 33.15, 
			 "SMD_solvation_energy": 8.99 
		},
		"coords": [
			{
				"x": 0.1117498467,
				"y": -6.2143106555,
				"z": 0.7770277526,
				"element": "F" 
			},
			{
				"x": 1.2630318999,
				"y": -5.5886577882,
				"z": 0.4717588683,
				"element": "C" 
			},
			{
				"x": 1.5694663753,
				"y": -5.8884802813,
				"z": -0.8037466632,
				"element": "F" 
			},
			{
				"x": 2.2289041638,
				"y": -6.0762546917,
				"z": 1.2618713179,
				"element": "F" 
			},
			{
				"x": 1.1476312019,
				"y": -4.10070928,
				"z": 0.6708529294,
				"element": "C" 
			},
			{
				"x": 1.8880905437,
				"y": -3.4236401242,
				"z": 1.490685965,
				"element": "N" 
			},
			{
				"x": 1.4642316233,
				"y": -2.135008113,
				"z": 1.3512843473,
				"element": "N" 
			},
			{
				"x": 2.1068667294,
				"y": -1.0791743941,
				"z": 2.1433664743,
				"element": "C" 
			},
			{
				"x": 1.7376189396,
				"y": -1.1731235149,
				"z": 3.542478673,
				"element": "N" 
			},
			{
				"x": 2.7420646671,
				"y": -0.6482128045,
				"z": 4.4617024689,
				"element": "C" 
			},
			{
				"x": 2.8898655062,
				"y": 0.9033267982,
				"z": 4.3925205863,
				"element": "C" 
			},
			{
				"x": 1.7043618002,
				"y": 1.4558371416,
				"z": 3.7407120499,
				"element": "N" 
			},
			{
				"x": 1.706316439,
				"y": 2.8748553661,
				"z": 3.5122516116,
				"element": "C" 
			},
			{
				"x": 1.1905423323,
				"y": 3.201579458,
				"z": 2.1764976086,
				"element": "N" 
			},
			{
				"x": -0.1526075576,
				"y": 3.3467086138,
				"z": 1.9879802835,
				"element": "N" 
			},
			{
				"x": -0.2916171013,
				"y": 3.4318345049,
				"z": 0.7010158071,
				"element": "C" 
			},
			{
				"x": 0.9174169761,
				"y": 3.336384812,
				"z": 0.040649533,
				"element": "N" 
			},
			{
				"x": 0.9160974028,
				"y": 3.4390171367,
				"z": -1.3307686737,
				"element": "N" 
			},
			{
				"x": 2.0031563844,
				"y": 3.2782300531,
				"z": -2.0030615915,
				"element": "C" 
			},
			{
				"x": 1.9644786233,
				"y": 3.3952618595,
				"z": -3.462299037,
				"element": "C" 
			},
			{
				"x": 3.1563989928,
				"y": 3.215381038,
				"z": -4.1822920654,
				"element": "C" 
			},
			{
				"x": 3.1636488606,
				"y": 3.3175111832,
				"z": -5.5727116812,
				"element": "C" 
			},
			{
				"x": 1.9797940062,
				"y": 3.6006882721,
				"z": -6.2553621515,
				"element": "C" 
			},
			{
				"x": 0.7871033958,
				"y": 3.7817511435,
				"z": -5.5443457834,
				"element": "C" 
			},
			{
				"x": 0.775021448,
				"y": 3.6808844684,
				"z": -4.1581980835,
				"element": "C" 
			},
			{
				"x": 1.9120172761,
				"y": 3.1643114779,
				"z": 1.0095306201,
				"element": "C" 
			},
			{
				"x": 3.5695380563,
				"y": 2.9771279285,
				"z": 0.859528734,
				"element": "S" 
			},
			{
				"x": -1.6213363161,
				"y": 3.5726710638,
				"z": 0.0106364752,
				"element": "C" 
			},
			{
				"x": -2.600227179,
				"y": 3.6268861315,
				"z": 0.9246130556,
				"element": "F" 
			},
			{
				"x": -1.8571973514,
				"y": 2.526754383,
				"z": -0.8019106806,
				"element": "F" 
			},
			{
				"x": -1.6776960572,
				"y": 4.6932566216,
				"z": -0.7323228374,
				"element": "F" 
			},
			{
				"x": 0.4581570788,
				"y": 0.8820631676,
				"z": 4.2414960235,
				"element": "C" 
			},
			{
				"x": 0.4110999905,
				"y": -0.6281379745,
				"z": 3.8648213446,
				"element": "C" 
			},
			{
				"x": 0.4467613356,
				"y": -1.982691969,
				"z": 0.4402150747,
				"element": "C" 
			},
			{
				"x": -0.3400357226,
				"y": -0.5666866833,
				"z": 0.0045457891,
				"element": "S" 
			},
			{
				"x": 0.2490586047,
				"y": -3.2963928145,
				"z": -0.0045988941,
				"element": "N" 
			},
			{
				"x": -0.6067981523,
				"y": -3.8943837988,
				"z": -0.9003130399,
				"element": "N" 
			},
			{
				"x": -1.4479425799,
				"y": -3.1957235562,
				"z": -1.5819330093,
				"element": "C" 
			},
			{
				"x": -2.3406208424,
				"y": -3.8743293653,
				"z": -2.524187402,
				"element": "C" 
			},
			{
				"x": -3.2509954062,
				"y": -3.1005305413,
				"z": -3.2618323117,
				"element": "C" 
			},
			{
				"x": -4.1189003689,
				"y": -3.7059968252,
				"z": -4.1695497487,
				"element": "C" 
			},
			{
				"x": -4.0844307133,
				"y": -5.0897553528,
				"z": -4.347812515,
				"element": "C" 
			},
			{
				"x": -3.1794399213,
				"y": -5.8682496241,
				"z": -3.6158171651,
				"element": "C" 
			},
			{
				"x": -2.3124015493,
				"y": -5.2692042947,
				"z": -2.7096415687,
				"element": "C" 
			},
			{
				"x": 1.8376485283,
				"y": -0.1371183689,
				"z": 1.6580145403,
				"element": "H" 
			},
			{
				"x": 3.1845024215,
				"y": -1.2345627992,
				"z": 2.0535503169,
				"element": "H" 
			},
			{
				"x": 3.7050612631,
				"y": -1.1301708536,
				"z": 4.2661000688,
				"element": "H" 
			},
			{
				"x": 2.4387582243,
				"y": -0.9479263996,
				"z": 5.4716697752,
				"element": "H" 
			},
			{
				"x": 3.7631739785,
				"y": 1.1872222132,
				"z": 3.7961240193,
				"element": "H" 
			},
			{
				"x": 3.0401912452,
				"y": 1.3001158688,
				"z": 5.4150840437,
				"element": "H" 
			},
			{
				"x": 2.7288353362,
				"y": 3.2537977056,
				"z": 3.5468692641,
				"element": "H" 
			},
			{
				"x": 1.0809415008,
				"y": 3.4447320583,
				"z": 4.2126371069,
				"element": "H" 
			},
			{
				"x": 2.9575766664,
				"y": 3.0599068784,
				"z": -1.5290800728,
				"element": "H" 
			},
			{
				"x": 4.0759911537,
				"y": 2.9950925799,
				"z": -3.6464922782,
				"element": "H" 
			},
			{
				"x": 4.0901495815,
				"y": 3.1765981354,
				"z": -6.1212439328,
				"element": "H" 
			},
			{
				"x": 1.983193764,
				"y": 3.6808529751,
				"z": -7.3386189938,
				"element": "H" 
			},
			{
				"x": -0.1331801829,
				"y": 4.0021351893,
				"z": -6.0774055433,
				"element": "H" 
			},
			{
				"x": -0.141535246,
				"y": 3.8186603717,
				"z": -3.5944427252,
				"element": "H" 
			},
			{
				"x": -0.3821289964,
				"y": 1.4098684775,
				"z": 3.7843073811,
				"element": "H" 
			},
			{
				"x": 0.3686047113,
				"y": 1.0130524875,
				"z": 5.3368958017,
				"element": "H" 
			},
			{
				"x": -0.010895127,
				"y": -1.2028746136,
				"z": 4.6986910162,
				"element": "H" 
			},
			{
				"x": -0.2414196459,
				"y": -0.7790484137,
				"z": 3.0021663583,
				"element": "H" 
			},
			{
				"x": -1.5246604384,
				"y": -2.1149480342,
				"z": -1.4861567552,
				"element": "H" 
			},
			{
				"x": -3.2744472948,
				"y": -2.0232733951,
				"z": -3.1196003325,
				"element": "H" 
			},
			{
				"x": -4.8197330217,
				"y": -3.0996459952,
				"z": -4.7355110437,
				"element": "H" 
			},
			{
				"x": -4.7598317922,
				"y": -5.5635061676,
				"z": -5.0543935211,
				"element": "H" 
			},
			{
				"x": -3.1542074148,
				"y": -6.9449942298,
				"z": -3.7557796362,
				"element": "H" 
			},
			{
				"x": -1.6065328961,
				"y": -5.8601338464,
				"z": -2.1356233482,
				"element": "H" 
			}
		],
		 "valence_orbital": [ 
			{
				"type": "occ",
				"energy": -0.22676,
				"method": "rhf"
			},
			{
				"type": "occ",
				"energy": -0.22135,
				"method": "rhf"
			},
			{
				"type": "occ",
				"energy": -0.21817,
				"method": "rhf"
			},
			{
				"type": "occ",
				"energy": -0.21776,
				"method": "rhf"
			},
			{
				"type": "occ",
				"energy": -0.21366,
				"method": "rhf"
			},
			{
				"type": "unocc",
				"energy": -0.07032,
				"method": "rhf"
			},
			{
				"type": "unocc",
				"energy": -0.06966,
				"method": "rhf"
			},
			{
				"type": "unocc",
				"energy": -0.02053,
				"method": "rhf"
			},
			{
				"type": "unocc",
				"energy": -0.01982,
				"method": "rhf"
			},
			{
				"type": "unocc",
				"energy": -0.01098,
				"method": "rhf"
			}
		],
		"cosmo_sigma_profile": { 
			"-0.025": 0.0,
			"-0.024": 0.0,
			"-0.023": 0.0,
			"-0.022": 0.0,
			"-0.021": 0.0,
			"-0.02": 0.0,
			"-0.019": 0.0,
			"-0.018": 0.0,
			"-0.017": 0.0,
			"-0.016": 0.0,
			"-0.015": 0.0,
			"-0.014": 0.0,
			"-0.013": 0.0,
			"-0.012": 0.0,
			"-0.011": 0.0,
			"-0.01": 0.0,
			"-0.009": 0.0169329610278,
			"-0.008": 2.69755934226,
			"-0.007": 13.5200126926,
			"-0.006": 30.8801315055,
			"-0.005": 39.744438841,
			"-0.004": 49.1127618313,
			"-0.003": 53.0488900012,
			"-0.002": 54.100396374,
			"-0.001": 40.4696574602,
			"0.0": 43.0901936164,
			"0.001": 62.0411363905,
			"0.002": 88.0341032387,
			"0.003": 50.6947251027,
			"0.004": 45.671855993,
			"0.005": 20.2959691233,
			"0.006": 11.4739078395,
			"0.007": 10.2426470274,
			"0.008": 9.37676580656,
			"0.009": 5.79273200724,
			"0.01": 2.52758021684,
			"0.011": 1.69111228342,
			"0.012": 0.758118486133,
			"0.013": 0.888475947824,
			"0.014": 0.0235589272502,
			"0.015": 0.0,
			"0.016": 0.0,
			"0.017": 0.0,
			"0.018": 0.0,
			"0.019": 0.0,
			"0.02": 0.0,
			"0.021": 0.0,
			"0.022": 0.0,
			"0.023": 0.0,
			"0.024": 0.0,
			"0.025": 0.0
		}
	}
}
