{
	 "smiles": "CC1=CC(=C(N)C(=C1)[N+]([O-])=O)[N+]([O-])=O", 
	 "Tm": 445.15, 
	 "num_atms": 21, 
	 "gaussian": { 
		 "optdone": 1, 
		 "sigma_profile": "yes", 
		 "theory": "DFT", 
		 "functional": "B3LYP", 
		 "basiset": "6-31G**", 
		 "properties": { 
			 "R2extent": 3444.9049, 
			 "electric_dipole_moment_norm": 2.42614903293, 
			 "electric_quadrupole_moment_norm": 23.8985087909, 
			 "total_energy": -735.929263475, 
			 "HOMO_LUMO_gap": 0.13098, 
			 "cosmo_polarized_energy": -11.13, 
			 "cosmo_cavitation_energy": 25.92, 
			 "cosmo_dispersion_energy": -19.62, 
			 "cosmo_repulsion_energy": 1.53, 
			 "cosmo_total_nonelectrostatic_energy": 7.83, 
			 "SMD_solvation_energy": 8.45 
		},
		"coords": [
			{
				"x": 0.559292165,
				"y": 3.1591720677,
				"z": 2.5625880168,
				"element": "C" 
			},
			{
				"x": 0.0624482202,
				"y": 1.8577170628,
				"z": 1.980443621,
				"element": "C" 
			},
			{
				"x": -1.2993106031,
				"y": 1.5882078503,
				"z": 1.853742309,
				"element": "C" 
			},
			{
				"x": -1.7737489789,
				"y": 0.4030246984,
				"z": 1.2939100572,
				"element": "C" 
			},
			{
				"x": -0.8940928801,
				"y": -0.6245551271,
				"z": 0.8099672277,
				"element": "C" 
			},
			{
				"x": -1.3347960367,
				"y": -1.7680337892,
				"z": 0.2702592218,
				"element": "N" 
			},
			{
				"x": 0.5009992998,
				"y": -0.3163727462,
				"z": 0.9605996748,
				"element": "C" 
			},
			{
				"x": 0.9440819305,
				"y": 0.8787506174,
				"z": 1.525004809,
				"element": "C" 
			},
			{
				"x": 1.5391174659,
				"y": -1.2456660192,
				"z": 0.5332803976,
				"element": "N" 
			},
			{
				"x": 2.7145004428,
				"y": -0.922541368,
				"z": 0.6970006603,
				"element": "O" 
			},
			{
				"x": 1.2073962286,
				"y": -2.3288700014,
				"z": 0.0189212297,
				"element": "O" 
			},
			{
				"x": -3.2227294754,
				"y": 0.260404614,
				"z": 1.2308347075,
				"element": "N" 
			},
			{
				"x": -3.9184247727,
				"y": 1.1751080879,
				"z": 1.6691004619,
				"element": "O" 
			},
			{
				"x": -3.7081902497,
				"y": -0.7738584148,
				"z": 0.7383666032,
				"element": "O" 
			},
			{
				"x": 0.6859836895,
				"y": 3.9213250158,
				"z": 1.7841892339,
				"element": "H" 
			},
			{
				"x": 1.5276125008,
				"y": 3.0298175328,
				"z": 3.0540289143,
				"element": "H" 
			},
			{
				"x": -0.1435966181,
				"y": 3.5580981329,
				"z": 3.2992700545,
				"element": "H" 
			},
			{
				"x": -2.040104466,
				"y": 2.3021681797,
				"z": 2.1933000263,
				"element": "H" 
			},
			{
				"x": -0.6407068069,
				"y": -2.434366305,
				"z": -0.0405364393,
				"element": "H" 
			},
			{
				"x": -2.3355033704,
				"y": -1.8986598929,
				"z": 0.2081014241,
				"element": "H" 
			},
			{
				"x": 2.0157723149,
				"y": 1.0195298042,
				"z": 1.5990277888,
				"element": "H" 
			}
		],
		 "valence_orbital": [ 
			{
				"type": "occ",
				"energy": -0.31611,
				"method": "rhf"
			},
			{
				"type": "occ",
				"energy": -0.30857,
				"method": "rhf"
			},
			{
				"type": "occ",
				"energy": -0.30224,
				"method": "rhf"
			},
			{
				"type": "occ",
				"energy": -0.29728,
				"method": "rhf"
			},
			{
				"type": "occ",
				"energy": -0.24236,
				"method": "rhf"
			},
			{
				"type": "unocc",
				"energy": -0.11138,
				"method": "rhf"
			},
			{
				"type": "unocc",
				"energy": -0.08576,
				"method": "rhf"
			},
			{
				"type": "unocc",
				"energy": -0.01582,
				"method": "rhf"
			},
			{
				"type": "unocc",
				"energy": -0.00205,
				"method": "rhf"
			},
			{
				"type": "unocc",
				"energy": 0.07139,
				"method": "rhf"
			}
		],
		"cosmo_sigma_profile": { 
			"-0.025": 0.0,
			"-0.024": 0.0,
			"-0.023": 0.0,
			"-0.022": 0.0,
			"-0.021": 0.0,
			"-0.02": 0.0,
			"-0.019": 0.0,
			"-0.018": 0.0,
			"-0.017": 0.0,
			"-0.016": 0.0,
			"-0.015": 0.0,
			"-0.014": 0.0,
			"-0.013": 0.0,
			"-0.012": 0.18019259508,
			"-0.011": 1.34230101189,
			"-0.01": 1.96741015926,
			"-0.009": 1.49241804157,
			"-0.008": 1.96539768861,
			"-0.007": 5.75753437736,
			"-0.006": 9.82434473072,
			"-0.005": 14.3126456692,
			"-0.004": 15.8961651225,
			"-0.003": 19.5299382423,
			"-0.002": 25.4115074522,
			"-0.001": 22.7675970542,
			"0.0": 15.4696109812,
			"0.001": 7.22465176718,
			"0.002": 6.90255160591,
			"0.003": 3.54705758261,
			"0.004": 5.09629552093,
			"0.005": 5.13169303521,
			"0.006": 6.82085298586,
			"0.007": 10.496592634,
			"0.008": 11.1321303847,
			"0.009": 8.11792623497,
			"0.01": 6.72355378385,
			"0.011": 0.695154019546,
			"0.012": 0.0,
			"0.013": 0.0,
			"0.014": 0.0,
			"0.015": 0.0,
			"0.016": 0.0,
			"0.017": 0.0,
			"0.018": 0.0,
			"0.019": 0.0,
			"0.02": 0.0,
			"0.021": 0.0,
			"0.022": 0.0,
			"0.023": 0.0,
			"0.024": 0.0,
			"0.025": 0.0
		}
	}
}
