{
	 "smiles": "CC1(C)C(O)(CC(O)C2=CC=CC=C2)CCC1(C)C(O)=O", 
	 "Tm": 461.15, 
	 "num_atms": 45, 
	 "gaussian": { 
		 "optdone": 1, 
		 "sigma_profile": "yes", 
		 "theory": "DFT", 
		 "functional": "B3LYP", 
		 "basiset": "6-31G**", 
		 "properties": { 
			 "R2extent": 6216.6405, 
			 "electric_dipole_moment_norm": 3.57943550997, 
			 "electric_quadrupole_moment_norm": 5.56518877937, 
			 "total_energy": -963.169044251, 
			 "HOMO_LUMO_gap": 0.2107, 
			 "cosmo_polarized_energy": -15.26, 
			 "cosmo_cavitation_energy": 40.55, 
			 "cosmo_dispersion_energy": -28.69, 
			 "cosmo_repulsion_energy": 2.12, 
			 "cosmo_total_nonelectrostatic_energy": 13.98, 
			 "SMD_solvation_energy": 7.11 
		},
		"coords": [
			{
				"x": 0.7207868796,
				"y": 0.3989639654,
				"z": 3.4547073772,
				"element": "C" 
			},
			{
				"x": 0.9974211229,
				"y": -0.2166311129,
				"z": 2.0579243997,
				"element": "C" 
			},
			{
				"x": -0.2677706842,
				"y": -1.0113563638,
				"z": 1.7046388015,
				"element": "C" 
			},
			{
				"x": 1.3498670031,
				"y": 0.9671638654,
				"z": 1.0546748986,
				"element": "C" 
			},
			{
				"x": 0.4803826177,
				"y": 2.0854771885,
				"z": 1.2201624945,
				"element": "O" 
			},
			{
				"x": 1.3834298916,
				"y": 0.7356441965,
				"z": -0.4878721648,
				"element": "C" 
			},
			{
				"x": 0.2532540204,
				"y": 0.1682174672,
				"z": -1.3912974255,
				"element": "C" 
			},
			{
				"x": 0.1815251724,
				"y": -1.2553828934,
				"z": -1.3726906183,
				"element": "O" 
			},
			{
				"x": -1.1506828508,
				"y": 0.7349780692,
				"z": -1.2221824229,
				"element": "C" 
			},
			{
				"x": -2.2641287179,
				"y": -0.1104491243,
				"z": -1.1598759284,
				"element": "C" 
			},
			{
				"x": -3.556177182,
				"y": 0.4164812924,
				"z": -1.0827144153,
				"element": "C" 
			},
			{
				"x": -3.7553780125,
				"y": 1.7962244487,
				"z": -1.0786865852,
				"element": "C" 
			},
			{
				"x": -2.6497192688,
				"y": 2.6472517001,
				"z": -1.1533276864,
				"element": "C" 
			},
			{
				"x": -1.3615845892,
				"y": 2.1212320474,
				"z": -1.2264832078,
				"element": "C" 
			},
			{
				"x": 2.8101290374,
				"y": 1.2921223539,
				"z": 1.4629822502,
				"element": "C" 
			},
			{
				"x": 3.479569909,
				"y": -0.0704859548,
				"z": 1.7109956908,
				"element": "C" 
			},
			{
				"x": 2.3486558136,
				"y": -1.0804682973,
				"z": 2.1093875958,
				"element": "C" 
			},
			{
				"x": 2.6406589042,
				"y": -1.7169110484,
				"z": 3.4861319341,
				"element": "C" 
			},
			{
				"x": 2.2687555908,
				"y": -2.2055103471,
				"z": 1.0730658858,
				"element": "C" 
			},
			{
				"x": 1.7360832835,
				"y": -3.3430317512,
				"z": 1.5639820176,
				"element": "O" 
			},
			{
				"x": 2.6256639082,
				"y": -2.1422652537,
				"z": -0.0930679088,
				"element": "O" 
			},
			{
				"x": 0.5036438435,
				"y": -0.3858704245,
				"z": 4.1823042611,
				"element": "H" 
			},
			{
				"x": 1.5458842638,
				"y": 0.99567768,
				"z": 3.8558326051,
				"element": "H" 
			},
			{
				"x": -0.1707858054,
				"y": 1.0302186703,
				"z": 3.4025144037,
				"element": "H" 
			},
			{
				"x": -0.2105743438,
				"y": -1.49973338,
				"z": 0.7333153245,
				"element": "H" 
			},
			{
				"x": -0.4716826198,
				"y": -1.7687014643,
				"z": 2.4691324538,
				"element": "H" 
			},
			{
				"x": -1.1206686753,
				"y": -0.3275671207,
				"z": 1.6694920682,
				"element": "H" 
			},
			{
				"x": 0.5989572408,
				"y": 2.435847132,
				"z": 2.1115054676,
				"element": "H" 
			},
			{
				"x": 1.6002294433,
				"y": 1.7389778791,
				"z": -0.8715138467,
				"element": "H" 
			},
			{
				"x": 2.2666262136,
				"y": 0.1358542214,
				"z": -0.7240841982,
				"element": "H" 
			},
			{
				"x": 0.5781640135,
				"y": 0.4709826896,
				"z": -2.4035956936,
				"element": "H" 
			},
			{
				"x": 1.0856570057,
				"y": -1.5984995242,
				"z": -1.3140481989,
				"element": "H" 
			},
			{
				"x": -2.1111053008,
				"y": -1.1826962418,
				"z": -1.1787018789,
				"element": "H" 
			},
			{
				"x": -4.4075433456,
				"y": -0.2572598518,
				"z": -1.0318900126,
				"element": "H" 
			},
			{
				"x": -4.7598572551,
				"y": 2.2065946402,
				"z": -1.0219076015,
				"element": "H" 
			},
			{
				"x": -2.7904844564,
				"y": 3.7248180118,
				"z": -1.1525948223,
				"element": "H" 
			},
			{
				"x": -0.5135979534,
				"y": 2.7971069004,
				"z": -1.2695091824,
				"element": "H" 
			},
			{
				"x": 2.806385111,
				"y": 1.8976754641,
				"z": 2.3767265097,
				"element": "H" 
			},
			{
				"x": 3.3242459485,
				"y": 1.8842490734,
				"z": 0.7002718646,
				"element": "H" 
			},
			{
				"x": 4.2350519816,
				"y": -0.0127920513,
				"z": 2.4998918009,
				"element": "H" 
			},
			{
				"x": 3.9854843026,
				"y": -0.4206345802,
				"z": 0.8089390796,
				"element": "H" 
			},
			{
				"x": 2.8309954063,
				"y": -0.944369718,
				"z": 4.2336323346,
				"element": "H" 
			},
			{
				"x": 3.5368539474,
				"y": -2.3432555733,
				"z": 3.4267182243,
				"element": "H" 
			},
			{
				"x": 1.8211419523,
				"y": -2.3484826276,
				"z": 3.8350149608,
				"element": "H" 
			},
			{
				"x": 1.6932372326,
				"y": -3.9657042522,
				"z": 0.818399094,
				"element": "H" 
			}
		],
		 "valence_orbital": [ 
			{
				"type": "occ",
				"energy": -0.28346,
				"method": "rhf"
			},
			{
				"type": "occ",
				"energy": -0.25989,
				"method": "rhf"
			},
			{
				"type": "occ",
				"energy": -0.25765,
				"method": "rhf"
			},
			{
				"type": "occ",
				"energy": -0.23038,
				"method": "rhf"
			},
			{
				"type": "occ",
				"energy": -0.22008,
				"method": "rhf"
			},
			{
				"type": "unocc",
				"energy": -0.00938,
				"method": "rhf"
			},
			{
				"type": "unocc",
				"energy": 0.01467,
				"method": "rhf"
			},
			{
				"type": "unocc",
				"energy": 0.01922,
				"method": "rhf"
			},
			{
				"type": "unocc",
				"energy": 0.05966,
				"method": "rhf"
			},
			{
				"type": "unocc",
				"energy": 0.07499,
				"method": "rhf"
			}
		],
		"cosmo_sigma_profile": { 
			"-0.025": 0.0,
			"-0.024": 0.0,
			"-0.023": 0.0,
			"-0.022": 0.0,
			"-0.021": 0.0,
			"-0.02": 0.0,
			"-0.019": 0.0,
			"-0.018": 0.624130931764,
			"-0.017": 0.889860166325,
			"-0.016": 0.868763695392,
			"-0.015": 1.45745498178,
			"-0.014": 0.473093064298,
			"-0.013": 1.20561073351,
			"-0.012": 1.27397537649,
			"-0.011": 2.13135976956,
			"-0.01": 2.08830728444,
			"-0.009": 1.71590676106,
			"-0.008": 1.76645850011,
			"-0.007": 2.54411634262,
			"-0.006": 4.10353451383,
			"-0.005": 11.9381109425,
			"-0.004": 23.1522631803,
			"-0.003": 37.0877053025,
			"-0.002": 35.3377961581,
			"-0.001": 33.4279651082,
			"0.0": 27.6818577154,
			"0.001": 21.2027936526,
			"0.002": 17.6316892148,
			"0.003": 15.6352218072,
			"0.004": 12.7904247879,
			"0.005": 12.9720682713,
			"0.006": 12.1934232589,
			"0.007": 10.3776208522,
			"0.008": 5.12699493862,
			"0.009": 4.71913280525,
			"0.01": 5.06944553618,
			"0.011": 4.01142446231,
			"0.012": 1.68832135297,
			"0.013": 1.4745343174,
			"0.014": 0.113173504133,
			"0.015": 0.0,
			"0.016": 0.0,
			"0.017": 0.0,
			"0.018": 0.0,
			"0.019": 0.0,
			"0.02": 0.0,
			"0.021": 0.0,
			"0.022": 0.0,
			"0.023": 0.0,
			"0.024": 0.0,
			"0.025": 0.0
		}
	}
}
