{
	 "smiles": "CC1=C(C)C(O)=NC(=N1)C1=CC=NC=C1", 
	 "Tm": 530.15, 
	 "num_atms": 26, 
	 "gaussian": { 
		 "optdone": 1, 
		 "sigma_profile": "yes", 
		 "theory": "DFT", 
		 "functional": "B3LYP", 
		 "basiset": "6-31G**", 
		 "properties": { 
			 "R2extent": 4779.8248, 
			 "electric_dipole_moment_norm": 4.04333661225, 
			 "electric_quadrupole_moment_norm": 16.3892127517, 
			 "total_energy": -665.30444461, 
			 "HOMO_LUMO_gap": 0.18387, 
			 "cosmo_polarized_energy": -10.77, 
			 "cosmo_cavitation_energy": 30.16, 
			 "cosmo_dispersion_energy": -22.22, 
			 "cosmo_repulsion_energy": 1.72, 
			 "cosmo_total_nonelectrostatic_energy": 9.66, 
			 "SMD_solvation_energy": 2.33 
		},
		"coords": [
			{
				"x": -0.9075705591,
				"y": 2.1346008099,
				"z": -1.8729233635,
				"element": "C" 
			},
			{
				"x": -0.5170358445,
				"y": 1.2375241262,
				"z": -0.7278989297,
				"element": "C" 
			},
			{
				"x": -0.7718097278,
				"y": -0.140073456,
				"z": -0.7689049342,
				"element": "C" 
			},
			{
				"x": -1.4406685382,
				"y": -0.8220170875,
				"z": -1.9323164601,
				"element": "C" 
			},
			{
				"x": -0.3502049363,
				"y": -0.8441511177,
				"z": 0.3718814151,
				"element": "C" 
			},
			{
				"x": -0.5484101895,
				"y": -2.1773369482,
				"z": 0.4334829809,
				"element": "O" 
			},
			{
				"x": 0.2428736302,
				"y": -0.2738412997,
				"z": 1.4157674613,
				"element": "N" 
			},
			{
				"x": 0.4378414695,
				"y": 1.0528917067,
				"z": 1.3492524341,
				"element": "C" 
			},
			{
				"x": 0.0823015396,
				"y": 1.8295354443,
				"z": 0.3212130153,
				"element": "N" 
			},
			{
				"x": 1.1002531182,
				"y": 1.705680414,
				"z": 2.5091641686,
				"element": "C" 
			},
			{
				"x": 1.5052076425,
				"y": 0.9668504623,
				"z": 3.6277493361,
				"element": "C" 
			},
			{
				"x": 2.1214092403,
				"y": 1.6327488428,
				"z": 4.6855682033,
				"element": "C" 
			},
			{
				"x": 2.3563141386,
				"y": 2.9516583597,
				"z": 4.705466927,
				"element": "N" 
			},
			{
				"x": 1.9649462689,
				"y": 3.649440274,
				"z": 3.6302411387,
				"element": "C" 
			},
			{
				"x": 1.3409431402,
				"y": 3.085335974,
				"z": 2.5193756372,
				"element": "C" 
			},
			{
				"x": -0.4159779489,
				"y": 1.8267117058,
				"z": -2.8031109956,
				"element": "H" 
			},
			{
				"x": -1.9876042547,
				"y": 2.0954315754,
				"z": -2.056516576,
				"element": "H" 
			},
			{
				"x": -0.623687613,
				"y": 3.1623496571,
				"z": -1.6451940212,
				"element": "H" 
			},
			{
				"x": -2.4409652747,
				"y": -0.4113951387,
				"z": -2.1135124051,
				"element": "H" 
			},
			{
				"x": -0.8675524054,
				"y": -0.6860948844,
				"z": -2.8570840264,
				"element": "H" 
			},
			{
				"x": -1.541778932,
				"y": -1.8923844654,
				"z": -1.7511131706,
				"element": "H" 
			},
			{
				"x": -0.1905173326,
				"y": -2.4621269433,
				"z": 1.2897065242,
				"element": "H" 
			},
			{
				"x": 1.3383818519,
				"y": -0.1032562208,
				"z": 3.6615923258,
				"element": "H" 
			},
			{
				"x": 2.4437064008,
				"y": 1.0765228561,
				"z": 5.5643727355,
				"element": "H" 
			},
			{
				"x": 2.1612477964,
				"y": 4.7199991585,
				"z": 3.6582331819,
				"element": "H" 
			},
			{
				"x": 1.0421573194,
				"y": 3.691096195,
				"z": 1.6722073976,
				"element": "H" 
			}
		],
		 "valence_orbital": [ 
			{
				"type": "occ",
				"energy": -0.28434,
				"method": "rhf"
			},
			{
				"type": "occ",
				"energy": -0.25892,
				"method": "rhf"
			},
			{
				"type": "occ",
				"energy": -0.25584,
				"method": "rhf"
			},
			{
				"type": "occ",
				"energy": -0.24878,
				"method": "rhf"
			},
			{
				"type": "occ",
				"energy": -0.24382,
				"method": "rhf"
			},
			{
				"type": "unocc",
				"energy": -0.05995,
				"method": "rhf"
			},
			{
				"type": "unocc",
				"energy": -0.02541,
				"method": "rhf"
			},
			{
				"type": "unocc",
				"energy": -0.00093,
				"method": "rhf"
			},
			{
				"type": "unocc",
				"energy": 0.02445,
				"method": "rhf"
			},
			{
				"type": "unocc",
				"energy": 0.07251,
				"method": "rhf"
			}
		],
		"cosmo_sigma_profile": { 
			"-0.025": 0.0,
			"-0.024": 0.0,
			"-0.023": 0.0,
			"-0.022": 0.0,
			"-0.021": 0.0,
			"-0.02": 0.0,
			"-0.019": 0.0,
			"-0.018": 0.109923540275,
			"-0.017": 0.770294277575,
			"-0.016": 0.78871357153,
			"-0.015": 0.953093790171,
			"-0.014": 0.431701637109,
			"-0.013": 0.49366640189,
			"-0.012": 0.466535316358,
			"-0.011": 1.07304742813,
			"-0.01": 0.791162409222,
			"-0.009": 0.689195904692,
			"-0.008": 0.359252327875,
			"-0.007": 1.55789755276,
			"-0.006": 7.47962011774,
			"-0.005": 17.8087358074,
			"-0.004": 17.097180437,
			"-0.003": 17.0736290723,
			"-0.002": 18.640972112,
			"-0.001": 28.0504544498,
			"0.0": 26.7321279564,
			"0.001": 17.8626768599,
			"0.002": 25.7045838233,
			"0.003": 12.3048379425,
			"0.004": 8.43258862184,
			"0.005": 7.30238809623,
			"0.006": 5.6162840183,
			"0.007": 5.55038804592,
			"0.008": 5.42536025281,
			"0.009": 4.58706819979,
			"0.01": 1.44982359254,
			"0.011": 0.472179260004,
			"0.012": 0.639479286343,
			"0.013": 1.29636704083,
			"0.014": 0.518521912647,
			"0.015": 1.03935937447,
			"0.016": 0.884400536394,
			"0.017": 0.39442372382,
			"0.018": 0.0064210441814,
			"0.019": 0.0,
			"0.02": 0.0,
			"0.021": 0.0,
			"0.022": 0.0,
			"0.023": 0.0,
			"0.024": 0.0,
			"0.025": 0.0
		}
	}
}
