{
	 "smiles": "OC1=C(N(N2CCCCC2)C2=C1C=CC=C2)C1=NC=CC=C1", 
	 "Tm": 458.15, 
	 "num_atms": 41, 
	 "gaussian": { 
		 "optdone": 1, 
		 "sigma_profile": "yes", 
		 "theory": "DFT", 
		 "functional": "B3LYP", 
		 "basiset": "6-31G**", 
		 "properties": { 
			 "R2extent": 7156.3909, 
			 "electric_dipole_moment_norm": 4.55038267182, 
			 "electric_quadrupole_moment_norm": 11.0009419769, 
			 "total_energy": -936.818531278, 
			 "HOMO_LUMO_gap": 0.13293, 
			 "cosmo_polarized_energy": -10.05, 
			 "cosmo_cavitation_energy": 41.41, 
			 "cosmo_dispersion_energy": -29.29, 
			 "cosmo_repulsion_energy": 2.18, 
			 "cosmo_total_nonelectrostatic_energy": 14.31, 
			 "SMD_solvation_energy": 6.28 
		},
		"coords": [
			{
				"x": 3.1500404286,
				"y": 1.0184688932,
				"z": -1.0137077672,
				"element": "O" 
			},
			{
				"x": 2.0147379818,
				"y": 0.4448935795,
				"z": -0.5894741541,
				"element": "C" 
			},
			{
				"x": 1.2453482341,
				"y": 0.8181503128,
				"z": 0.5119195401,
				"element": "C" 
			},
			{
				"x": 0.135139359,
				"y": -0.0648494608,
				"z": 0.5737041081,
				"element": "N" 
			},
			{
				"x": -0.8489940718,
				"y": -0.030293267,
				"z": 1.559383249,
				"element": "N" 
			},
			{
				"x": -2.1946290719,
				"y": 0.3135907614,
				"z": 1.0748790762,
				"element": "C" 
			},
			{
				"x": -3.0482497929,
				"y": 0.8129477849,
				"z": 2.2590526859,
				"element": "C" 
			},
			{
				"x": -2.6974219221,
				"y": 0.0718076548,
				"z": 3.5730805708,
				"element": "C" 
			},
			{
				"x": -2.0996984895,
				"y": -1.3082316644,
				"z": 3.2752001341,
				"element": "C" 
			},
			{
				"x": -0.782063144,
				"y": -1.1768818794,
				"z": 2.4910090863,
				"element": "C" 
			},
			{
				"x": 0.2234307194,
				"y": -0.9732632122,
				"z": -0.4673582942,
				"element": "C" 
			},
			{
				"x": 1.3927081325,
				"y": -0.6759158425,
				"z": -1.2197496346,
				"element": "C" 
			},
			{
				"x": 1.7252448485,
				"y": -1.4439086765,
				"z": -2.3473393829,
				"element": "C" 
			},
			{
				"x": 0.8953640455,
				"y": -2.4954974507,
				"z": -2.7068178552,
				"element": "C" 
			},
			{
				"x": -0.2617909938,
				"y": -2.7858261028,
				"z": -1.9530348104,
				"element": "C" 
			},
			{
				"x": -0.6142705155,
				"y": -2.0382381373,
				"z": -0.8347706539,
				"element": "C" 
			},
			{
				"x": 1.5692204326,
				"y": 1.9168629005,
				"z": 1.4008125538,
				"element": "C" 
			},
			{
				"x": 2.7137461925,
				"y": 2.5789310536,
				"z": 1.064997185,
				"element": "N" 
			},
			{
				"x": 3.120315869,
				"y": 3.6096918359,
				"z": 1.808878575,
				"element": "C" 
			},
			{
				"x": 2.4360601628,
				"y": 4.0647025579,
				"z": 2.9326227168,
				"element": "C" 
			},
			{
				"x": 1.2614696362,
				"y": 3.3948093609,
				"z": 3.2871608275,
				"element": "C" 
			},
			{
				"x": 0.8199842515,
				"y": 2.3199893195,
				"z": 2.5279699276,
				"element": "C" 
			},
			{
				"x": 3.3077330367,
				"y": 1.7573463038,
				"z": -0.3644959177,
				"element": "H" 
			},
			{
				"x": -2.691972722,
				"y": -0.534414084,
				"z": 0.5782208078,
				"element": "H" 
			},
			{
				"x": -2.0782534946,
				"y": 1.096500048,
				"z": 0.3218629336,
				"element": "H" 
			},
			{
				"x": -4.1051529466,
				"y": 0.6662688447,
				"z": 2.0085275402,
				"element": "H" 
			},
			{
				"x": -2.9030049368,
				"y": 1.8900107122,
				"z": 2.392741781,
				"element": "H" 
			},
			{
				"x": -3.5860194984,
				"y": -0.0222942286,
				"z": 4.2061319197,
				"element": "H" 
			},
			{
				"x": -1.96820395,
				"y": 0.6553664994,
				"z": 4.1482498744,
				"element": "H" 
			},
			{
				"x": -1.9097483327,
				"y": -1.8653622327,
				"z": 4.198624729,
				"element": "H" 
			},
			{
				"x": -2.8220600187,
				"y": -1.9012353521,
				"z": 2.7001621367,
				"element": "H" 
			},
			{
				"x": 0.051793831,
				"y": -0.991173525,
				"z": 3.1797771425,
				"element": "H" 
			},
			{
				"x": -0.5611257656,
				"y": -2.1133756901,
				"z": 1.9605922935,
				"element": "H" 
			},
			{
				"x": 2.6184476711,
				"y": -1.2081567183,
				"z": -2.9172636821,
				"element": "H" 
			},
			{
				"x": 1.133104671,
				"y": -3.1030529828,
				"z": -3.5747185642,
				"element": "H" 
			},
			{
				"x": -0.8969667029,
				"y": -3.6146028307,
				"z": -2.2529392947,
				"element": "H" 
			},
			{
				"x": -1.5093611127,
				"y": -2.2789972693,
				"z": -0.273096986,
				"element": "H" 
			},
			{
				"x": 4.0404065774,
				"y": 4.0928987511,
				"z": 1.4857489826,
				"element": "H" 
			},
			{
				"x": 2.8093174973,
				"y": 4.9076834518,
				"z": 3.5037795438,
				"element": "H" 
			},
			{
				"x": 0.6901651957,
				"y": 3.7110953326,
				"z": 4.1559018337,
				"element": "H" 
			},
			{
				"x": -0.085191292,
				"y": 1.7826546489,
				"z": 2.7737752427,
				"element": "H" 
			}
		],
		 "valence_orbital": [ 
			{
				"type": "occ",
				"energy": -0.26333,
				"method": "rhf"
			},
			{
				"type": "occ",
				"energy": -0.25073,
				"method": "rhf"
			},
			{
				"type": "occ",
				"energy": -0.23065,
				"method": "rhf"
			},
			{
				"type": "occ",
				"energy": -0.21069,
				"method": "rhf"
			},
			{
				"type": "occ",
				"energy": -0.17422,
				"method": "rhf"
			},
			{
				"type": "unocc",
				"energy": -0.04129,
				"method": "rhf"
			},
			{
				"type": "unocc",
				"energy": -0.0196,
				"method": "rhf"
			},
			{
				"type": "unocc",
				"energy": 0.01541,
				"method": "rhf"
			},
			{
				"type": "unocc",
				"energy": 0.03292,
				"method": "rhf"
			},
			{
				"type": "unocc",
				"energy": 0.06096,
				"method": "rhf"
			}
		],
		"cosmo_sigma_profile": { 
			"-0.025": 0.0,
			"-0.024": 0.0,
			"-0.023": 0.0,
			"-0.022": 0.0,
			"-0.021": 0.0,
			"-0.02": 0.0,
			"-0.019": 0.0,
			"-0.018": 0.0,
			"-0.017": 0.0,
			"-0.016": 0.0,
			"-0.015": 0.0,
			"-0.014": 0.0,
			"-0.013": 0.0,
			"-0.012": 0.0,
			"-0.011": 0.0,
			"-0.01": 0.0,
			"-0.009": 0.0,
			"-0.008": 0.0,
			"-0.007": 3.70710025923,
			"-0.006": 9.95643807953,
			"-0.005": 16.5604007574,
			"-0.004": 19.9469144764,
			"-0.003": 35.6304830796,
			"-0.002": 42.3459717618,
			"-0.001": 38.8242518171,
			"0.0": 30.5488787201,
			"0.001": 22.636474017,
			"0.002": 26.1568238016,
			"0.003": 26.2570936415,
			"0.004": 20.9345904054,
			"0.005": 12.4182255297,
			"0.006": 9.86144715384,
			"0.007": 3.84408873327,
			"0.008": 2.04924831502,
			"0.009": 1.30480119127,
			"0.01": 1.6733108881,
			"0.011": 1.69830279433,
			"0.012": 2.08661685286,
			"0.013": 0.193958681928,
			"0.014": 0.0,
			"0.015": 0.0,
			"0.016": 0.0,
			"0.017": 0.0,
			"0.018": 0.0,
			"0.019": 0.0,
			"0.02": 0.0,
			"0.021": 0.0,
			"0.022": 0.0,
			"0.023": 0.0,
			"0.024": 0.0,
			"0.025": 0.0
		}
	}
}
