{
	 "smiles": "COC1=C(OC)C(OC)=C2N=C(N=C(N)C2=C1)N1CCN(CC1)C(=O)OCC(C)(C)O", 
	 "Tm": 431.15, 
	 "num_atms": 60, 
	 "gaussian": { 
		 "optdone": 1, 
		 "sigma_profile": "yes", 
		 "theory": "DFT", 
		 "functional": "B3LYP", 
		 "basiset": "6-31G**", 
		 "properties": { 
			 "R2extent": 23614.4262, 
			 "electric_dipole_moment_norm": 2.19025766977, 
			 "electric_quadrupole_moment_norm": 39.5185711952, 
			 "total_energy": -1504.70606793, 
			 "HOMO_LUMO_gap": 0.15252, 
			 "cosmo_polarized_energy": -25.84, 
			 "cosmo_cavitation_energy": 61.27, 
			 "cosmo_dispersion_energy": -41.67, 
			 "cosmo_repulsion_energy": 3.17, 
			 "cosmo_total_nonelectrostatic_energy": 22.77, 
			 "SMD_solvation_energy": 10.36 
		},
		"coords": [
			{
				"x": -5.539818841,
				"y": -5.3735426992,
				"z": 2.2663182051,
				"element": "C" 
			},
			{
				"x": -4.473852324,
				"y": -4.918191623,
				"z": 3.1048533263,
				"element": "O" 
			},
			{
				"x": -3.5752541225,
				"y": -4.0645978523,
				"z": 2.5116687553,
				"element": "C" 
			},
			{
				"x": -3.9509555507,
				"y": -2.732892899,
				"z": 2.1689376624,
				"element": "C" 
			},
			{
				"x": -5.2609818348,
				"y": -2.3636797081,
				"z": 2.3358504085,
				"element": "O" 
			},
			{
				"x": -5.5071426193,
				"y": -1.4465446172,
				"z": 3.4099854515,
				"element": "C" 
			},
			{
				"x": -3.0128257086,
				"y": -1.8460083299,
				"z": 1.6546093679,
				"element": "C" 
			},
			{
				"x": -3.3991688931,
				"y": -0.5533964256,
				"z": 1.4055791226,
				"element": "O" 
			},
			{
				"x": -3.5454516526,
				"y": -0.2247097788,
				"z": 0.0212915902,
				"element": "C" 
			},
			{
				"x": -1.6575278245,
				"y": -2.253688603,
				"z": 1.4557661129,
				"element": "C" 
			},
			{
				"x": -0.7554037403,
				"y": -1.3554182598,
				"z": 0.9793732095,
				"element": "N" 
			},
			{
				"x": 0.4895339176,
				"y": -1.7976449136,
				"z": 0.8297419208,
				"element": "C" 
			},
			{
				"x": 0.9378849357,
				"y": -3.0636672122,
				"z": 1.0648859246,
				"element": "N" 
			},
			{
				"x": 0.063159672,
				"y": -3.939505012,
				"z": 1.5289219857,
				"element": "C" 
			},
			{
				"x": 0.5340644808,
				"y": -5.1981684843,
				"z": 1.7895160262,
				"element": "N" 
			},
			{
				"x": -1.3107914072,
				"y": -3.5949771096,
				"z": 1.7839114664,
				"element": "C" 
			},
			{
				"x": -2.2765326466,
				"y": -4.4816470261,
				"z": 2.3104752375,
				"element": "C" 
			},
			{
				"x": 1.4477694206,
				"y": -0.9217219711,
				"z": 0.3847046304,
				"element": "N" 
			},
			{
				"x": 1.1274989274,
				"y": 0.4663713827,
				"z": 0.0798986817,
				"element": "C" 
			},
			{
				"x": 1.7229098494,
				"y": 0.8823163231,
				"z": -1.2656010885,
				"element": "C" 
			},
			{
				"x": 3.1608633669,
				"y": 0.5795308601,
				"z": -1.2868520288,
				"element": "N" 
			},
			{
				"x": 3.7183842309,
				"y": -0.1723700895,
				"z": -0.1651026049,
				"element": "C" 
			},
			{
				"x": 2.8314553376,
				"y": -1.3654870966,
				"z": 0.1899874473,
				"element": "C" 
			},
			{
				"x": 3.9616079924,
				"y": 0.8739570561,
				"z": -2.3519502269,
				"element": "C" 
			},
			{
				"x": 5.1477187871,
				"y": 0.5965072791,
				"z": -2.4398562549,
				"element": "O" 
			},
			{
				"x": 3.247647537,
				"y": 1.5306298352,
				"z": -3.3145196446,
				"element": "O" 
			},
			{
				"x": 3.9503967126,
				"y": 1.8805680562,
				"z": -4.5183760214,
				"element": "C" 
			},
			{
				"x": 4.1935256049,
				"y": 3.3965845576,
				"z": -4.6079307823,
				"element": "C" 
			},
			{
				"x": 5.1266198925,
				"y": 3.881837945,
				"z": -3.4919256886,
				"element": "C" 
			},
			{
				"x": 2.8699147679,
				"y": 4.1717721638,
				"z": -4.6073918566,
				"element": "C" 
			},
			{
				"x": 4.8374393488,
				"y": 3.5206437271,
				"z": -5.8841802087,
				"element": "O" 
			},
			{
				"x": -6.1439764278,
				"y": -6.0451585367,
				"z": 2.8802071112,
				"element": "H" 
			},
			{
				"x": -5.1478290712,
				"y": -5.9290036815,
				"z": 1.4037474162,
				"element": "H" 
			},
			{
				"x": -6.1558169063,
				"y": -4.5402672452,
				"z": 1.91700028,
				"element": "H" 
			},
			{
				"x": -4.97965139,
				"y": -0.503079261,
				"z": 3.2459374494,
				"element": "H" 
			},
			{
				"x": -5.2051726585,
				"y": -1.8840991791,
				"z": 4.3689741251,
				"element": "H" 
			},
			{
				"x": -6.5849551735,
				"y": -1.2714331984,
				"z": 3.4168804525,
				"element": "H" 
			},
			{
				"x": -2.6010961366,
				"y": -0.3610436601,
				"z": -0.5139063087,
				"element": "H" 
			},
			{
				"x": -4.3304496203,
				"y": -0.8344066731,
				"z": -0.4435719657,
				"element": "H" 
			},
			{
				"x": -3.8385008442,
				"y": 0.8269179929,
				"z": -0.0139756477,
				"element": "H" 
			},
			{
				"x": 1.4571304078,
				"y": -5.3896879657,
				"z": 1.4281262862,
				"element": "H" 
			},
			{
				"x": -0.1113441393,
				"y": -5.9710253815,
				"z": 1.799893168,
				"element": "H" 
			},
			{
				"x": -2.0220987905,
				"y": -5.491850872,
				"z": 2.61458746,
				"element": "H" 
			},
			{
				"x": 1.4925586925,
				"y": 1.1336754785,
				"z": 0.8745109443,
				"element": "H" 
			},
			{
				"x": 0.0428559121,
				"y": 0.5614659757,
				"z": 0.0546396938,
				"element": "H" 
			},
			{
				"x": 1.2148235388,
				"y": 0.3495204988,
				"z": -2.0782198645,
				"element": "H" 
			},
			{
				"x": 1.5584773001,
				"y": 1.9539863883,
				"z": -1.4231590191,
				"element": "H" 
			},
			{
				"x": 4.7094388128,
				"y": -0.5165544573,
				"z": -0.4606370048,
				"element": "H" 
			},
			{
				"x": 3.8422728516,
				"y": 0.4817781225,
				"z": 0.7086289813,
				"element": "H" 
			},
			{
				"x": 2.8788886021,
				"y": -2.1160822463,
				"z": -0.6091573341,
				"element": "H" 
			},
			{
				"x": 3.2081926395,
				"y": -1.8459791743,
				"z": 1.0994055048,
				"element": "H" 
			},
			{
				"x": 4.9013371882,
				"y": 1.3482865433,
				"z": -4.5576124925,
				"element": "H" 
			},
			{
				"x": 3.3165070417,
				"y": 1.5671206294,
				"z": -5.3524564943,
				"element": "H" 
			},
			{
				"x": 5.3519657458,
				"y": 4.9471337125,
				"z": -3.6246446028,
				"element": "H" 
			},
			{
				"x": 4.6661649896,
				"y": 3.7633511693,
				"z": -2.5067186677,
				"element": "H" 
			},
			{
				"x": 6.0639618547,
				"y": 3.320486176,
				"z": -3.5038711513,
				"element": "H" 
			},
			{
				"x": 2.3096944647,
				"y": 3.9964777209,
				"z": -3.6844972541,
				"element": "H" 
			},
			{
				"x": 3.0540359638,
				"y": 5.2495642459,
				"z": -4.6912329058,
				"element": "H" 
			},
			{
				"x": 2.2512058506,
				"y": 3.8635696992,
				"z": -5.4557113314,
				"element": "H" 
			},
			{
				"x": 5.0547916851,
				"y": 4.4531777033,
				"z": -6.0124569547,
				"element": "H" 
			}
		],
		 "valence_orbital": [ 
			{
				"type": "occ",
				"energy": -0.24373,
				"method": "rhf"
			},
			{
				"type": "occ",
				"energy": -0.23902,
				"method": "rhf"
			},
			{
				"type": "occ",
				"energy": -0.23496,
				"method": "rhf"
			},
			{
				"type": "occ",
				"energy": -0.22708,
				"method": "rhf"
			},
			{
				"type": "occ",
				"energy": -0.1891,
				"method": "rhf"
			},
			{
				"type": "unocc",
				"energy": -0.03658,
				"method": "rhf"
			},
			{
				"type": "unocc",
				"energy": 0.00017,
				"method": "rhf"
			},
			{
				"type": "unocc",
				"energy": 0.03843,
				"method": "rhf"
			},
			{
				"type": "unocc",
				"energy": 0.05534,
				"method": "rhf"
			},
			{
				"type": "unocc",
				"energy": 0.06817,
				"method": "rhf"
			}
		],
		"cosmo_sigma_profile": { 
			"-0.025": 0.0,
			"-0.024": 0.0,
			"-0.023": 0.0,
			"-0.022": 0.0,
			"-0.021": 0.0,
			"-0.02": 0.0,
			"-0.019": 0.0,
			"-0.018": 0.0,
			"-0.017": 0.0,
			"-0.016": 0.0038284400967,
			"-0.015": 0.99146142486,
			"-0.014": 2.30954412678,
			"-0.013": 3.24056560364,
			"-0.012": 3.36305022289,
			"-0.011": 3.4120053986,
			"-0.01": 3.66103658204,
			"-0.009": 3.55575013779,
			"-0.008": 2.8392407422,
			"-0.007": 3.56398282223,
			"-0.006": 6.58697250918,
			"-0.005": 27.2056609667,
			"-0.004": 45.8197750965,
			"-0.003": 52.4887431937,
			"-0.002": 50.712187877,
			"-0.001": 42.0033403093,
			"0.0": 37.7804529624,
			"0.001": 36.4197420293,
			"0.002": 29.3160899816,
			"0.003": 22.8119339167,
			"0.004": 18.0494976072,
			"0.005": 15.1485189598,
			"0.006": 12.7786223067,
			"0.007": 11.3036299784,
			"0.008": 8.48113368047,
			"0.009": 7.37507354974,
			"0.01": 7.25091731509,
			"0.011": 5.98740997237,
			"0.012": 5.91322193835,
			"0.013": 7.59259048121,
			"0.014": 2.20779092568,
			"0.015": 0.323553053416,
			"0.016": 0.0,
			"0.017": 0.0,
			"0.018": 0.0,
			"0.019": 0.0,
			"0.02": 0.0,
			"0.021": 0.0,
			"0.022": 0.0,
			"0.023": 0.0,
			"0.024": 0.0,
			"0.025": 0.0
		}
	}
}
