{
	 "smiles": "CC1=NN(C2=C1C=C(S2)C(O)=O)C1=CC=CC=C1", 
	 "Tm": 508.15, 
	 "num_atms": 28, 
	 "gaussian": { 
		 "optdone": 1, 
		 "sigma_profile": "yes", 
		 "theory": "DFT", 
		 "functional": "B3LYP", 
		 "basiset": "6-31G**", 
		 "properties": { 
			 "R2extent": 6316.024, 
			 "electric_dipole_moment_norm": 4.500114153, 
			 "electric_quadrupole_moment_norm": 22.5701509937, 
			 "total_energy": -1159.52668335, 
			 "HOMO_LUMO_gap": 0.16449, 
			 "cosmo_polarized_energy": -15.44, 
			 "cosmo_cavitation_energy": 34.29, 
			 "cosmo_dispersion_energy": -25.67, 
			 "cosmo_repulsion_energy": 1.92, 
			 "cosmo_total_nonelectrostatic_energy": 10.54, 
			 "SMD_solvation_energy": 6.04 
		},
		"coords": [
			{
				"x": -0.4555645321,
				"y": -4.4594153382,
				"z": 1.7921357299,
				"element": "C" 
			},
			{
				"x": -0.2810554428,
				"y": -3.1069065656,
				"z": 1.1781642037,
				"element": "C" 
			},
			{
				"x": -0.9140655254,
				"y": -2.0534631601,
				"z": 1.6699575318,
				"element": "N" 
			},
			{
				"x": -0.5591950095,
				"y": -0.960879844,
				"z": 0.9041369099,
				"element": "N" 
			},
			{
				"x": 0.3047220184,
				"y": -1.3524143512,
				"z": -0.0717628098,
				"element": "C" 
			},
			{
				"x": 0.5199403913,
				"y": -2.7268383591,
				"z": 0.0570383589,
				"element": "C" 
			},
			{
				"x": 1.4146030931,
				"y": -3.234420522,
				"z": -0.9235658166,
				"element": "C" 
			},
			{
				"x": 1.8673304323,
				"y": -2.2621218688,
				"z": -1.7775175671,
				"element": "C" 
			},
			{
				"x": 1.1901788282,
				"y": -0.6535047884,
				"z": -1.3921125074,
				"element": "S" 
			},
			{
				"x": 2.8079763157,
				"y": -2.5145700763,
				"z": -2.8902902924,
				"element": "C" 
			},
			{
				"x": 3.1796918572,
				"y": -1.4620024668,
				"z": -3.6682863046,
				"element": "O" 
			},
			{
				"x": 3.2457636456,
				"y": -3.6181017789,
				"z": -3.123319859,
				"element": "O" 
			},
			{
				"x": -1.0952090121,
				"y": 0.3156901765,
				"z": 1.2090215022,
				"element": "C" 
			},
			{
				"x": -1.9797950952,
				"y": 0.4445371871,
				"z": 2.2887244852,
				"element": "C" 
			},
			{
				"x": -2.51064773,
				"y": 1.6942231467,
				"z": 2.595167106,
				"element": "C" 
			},
			{
				"x": -2.1727986788,
				"y": 2.8202383953,
				"z": 1.8404118869,
				"element": "C" 
			},
			{
				"x": -1.2922764875,
				"y": 2.6835237456,
				"z": 0.7680514922,
				"element": "C" 
			},
			{
				"x": -0.751019622,
				"y": 1.438523482,
				"z": 0.4471226886,
				"element": "C" 
			},
			{
				"x": -0.8600558608,
				"y": -5.1731984781,
				"z": 1.0661393691,
				"element": "H" 
			},
			{
				"x": -1.1415558051,
				"y": -4.3967949902,
				"z": 2.6389709157,
				"element": "H" 
			},
			{
				"x": 0.5013242944,
				"y": -4.8588120915,
				"z": 2.1457186362,
				"element": "H" 
			},
			{
				"x": 1.7357878116,
				"y": -4.2633392703,
				"z": -1.0290274508,
				"element": "H" 
			},
			{
				"x": 2.7666549903,
				"y": -0.632819053,
				"z": -3.3890116236,
				"element": "H" 
			},
			{
				"x": -2.2345525795,
				"y": -0.4341652963,
				"z": 2.866520714,
				"element": "H" 
			},
			{
				"x": -3.1952662837,
				"y": 1.7859797447,
				"z": 3.4331855782,
				"element": "H" 
			},
			{
				"x": -2.5908435724,
				"y": 3.791538209,
				"z": 2.0855034052,
				"element": "H" 
			},
			{
				"x": -1.0188429157,
				"y": 3.5481126119,
				"z": 0.1707719561,
				"element": "H" 
			},
			{
				"x": -0.0692295256,
				"y": 1.3611016,
				"z": -0.3915482386,
				"element": "H" 
			}
		],
		 "valence_orbital": [ 
			{
				"type": "occ",
				"energy": -0.2774,
				"method": "rhf"
			},
			{
				"type": "occ",
				"energy": -0.27247,
				"method": "rhf"
			},
			{
				"type": "occ",
				"energy": -0.26611,
				"method": "rhf"
			},
			{
				"type": "occ",
				"energy": -0.25349,
				"method": "rhf"
			},
			{
				"type": "occ",
				"energy": -0.22355,
				"method": "rhf"
			},
			{
				"type": "unocc",
				"energy": -0.05906,
				"method": "rhf"
			},
			{
				"type": "unocc",
				"energy": -0.03378,
				"method": "rhf"
			},
			{
				"type": "unocc",
				"energy": -0.02064,
				"method": "rhf"
			},
			{
				"type": "unocc",
				"energy": -0.01572,
				"method": "rhf"
			},
			{
				"type": "unocc",
				"energy": 0.0288,
				"method": "rhf"
			}
		],
		"cosmo_sigma_profile": { 
			"-0.025": 0.0,
			"-0.024": 0.0,
			"-0.023": 0.0,
			"-0.022": 0.0,
			"-0.021": 0.0,
			"-0.02": 0.0,
			"-0.019": 0.20143206807,
			"-0.018": 0.60712852199,
			"-0.017": 0.864604691428,
			"-0.016": 1.19104874559,
			"-0.015": 0.651814514117,
			"-0.014": 0.398760133662,
			"-0.013": 1.4835159994,
			"-0.012": 1.46750236687,
			"-0.011": 0.628704504572,
			"-0.01": 0.411073468927,
			"-0.009": 1.23373168753,
			"-0.008": 2.81877156382,
			"-0.007": 4.3283444703,
			"-0.006": 11.3334605129,
			"-0.005": 18.949982078,
			"-0.004": 24.7586450613,
			"-0.003": 19.1196457682,
			"-0.002": 19.1264361621,
			"-0.001": 21.5257068895,
			"0.0": 25.2096635373,
			"0.001": 25.3793886232,
			"0.002": 19.972006754,
			"0.003": 16.3129315635,
			"0.004": 14.7262168371,
			"0.005": 10.9831214574,
			"0.006": 4.09670889621,
			"0.007": 3.61749994392,
			"0.008": 4.26932832255,
			"0.009": 4.55183689829,
			"0.01": 6.39363189712,
			"0.011": 5.2186978663,
			"0.012": 5.00048799404,
			"0.013": 1.30909753676,
			"0.014": 0.0,
			"0.015": 0.0,
			"0.016": 0.0,
			"0.017": 0.0,
			"0.018": 0.0,
			"0.019": 0.0,
			"0.02": 0.0,
			"0.021": 0.0,
			"0.022": 0.0,
			"0.023": 0.0,
			"0.024": 0.0,
			"0.0": 0.0
		}
	}
}
