{
	 "smiles": "CC1=CC(NC(=O)C(C(F)(F)F)(C(F)(F)F)C(F)(F)F)=CC=C1", 
	 "Tm": 461.15, 
	 "num_atms": 31, 
	 "gaussian": { 
		 "optdone": 1, 
		 "sigma_profile": "yes", 
		 "theory": "DFT", 
		 "functional": "B3LYP", 
		 "basiset": "6-31G**", 
		 "properties": { 
			 "R2extent": 7962.8038, 
			 "electric_dipole_moment_norm": 3.17396063145, 
			 "electric_quadrupole_moment_norm": 5.21799852338, 
			 "total_energy": -1490.65684981, 
			 "HOMO_LUMO_gap": 0.19784, 
			 "cosmo_polarized_energy": -8.06, 
			 "cosmo_cavitation_energy": 37.65, 
			 "cosmo_dispersion_energy": -25.66, 
			 "cosmo_repulsion_energy": 1.77, 
			 "cosmo_total_nonelectrostatic_energy": 13.76, 
			 "SMD_solvation_energy": 9.68 
		},
		"coords": [
			{
				"x": 4.1946333339,
				"y": -2.0354876711,
				"z": -0.2736744416,
				"element": "C" 
			},
			{
				"x": 3.2048623451,
				"y": -1.4438831357,
				"z": 0.7030956724,
				"element": "C" 
			},
			{
				"x": 2.088759943,
				"y": -0.7448682376,
				"z": 0.2238585287,
				"element": "C" 
			},
			{
				"x": 1.1518391878,
				"y": -0.2175512218,
				"z": 1.1205118825,
				"element": "C" 
			},
			{
				"x": -0.001360821,
				"y": 0.5036370715,
				"z": 0.7167142777,
				"element": "N" 
			},
			{
				"x": -0.4083114293,
				"y": 0.799694212,
				"z": -0.5478470146,
				"element": "C" 
			},
			{
				"x": 0.1701837323,
				"y": 0.4843919674,
				"z": -1.570655279,
				"element": "O" 
			},
			{
				"x": -1.757276632,
				"y": 1.63016849,
				"z": -0.626247545,
				"element": "C" 
			},
			{
				"x": -1.5820533374,
				"y": 3.0019237571,
				"z": 0.0865121242,
				"element": "C" 
			},
			{
				"x": -2.6522391519,
				"y": 3.79222468,
				"z": -0.060237355,
				"element": "F" 
			},
			{
				"x": -0.5098505981,
				"y": 3.6425648961,
				"z": -0.3983314058,
				"element": "F" 
			},
			{
				"x": -1.388397246,
				"y": 2.845421041,
				"z": 1.4179257964,
				"element": "F" 
			},
			{
				"x": -2.0804929305,
				"y": 1.8800855171,
				"z": -2.1404546461,
				"element": "C" 
			},
			{
				"x": -1.1085804078,
				"y": 2.5846798659,
				"z": -2.7283247814,
				"element": "F" 
			},
			{
				"x": -2.2425393796,
				"y": 0.7253571032,
				"z": -2.7937472987,
				"element": "F" 
			},
			{
				"x": -3.2226300303,
				"y": 2.5812400254,
				"z": -2.275834802,
				"element": "F" 
			},
			{
				"x": -2.9234093657,
				"y": 0.8227235549,
				"z": 0.0127863256,
				"element": "C" 
			},
			{
				"x": -4.1048637256,
				"y": 1.4351561916,
				"z": -0.1306758817,
				"element": "F" 
			},
			{
				"x": -3.0037440924,
				"y": -0.3937846061,
				"z": -0.542847625,
				"element": "F" 
			},
			{
				"x": -2.7321164888,
				"y": 0.6450100602,
				"z": 1.3420069374,
				"element": "F" 
			},
			{
				"x": 1.3293310387,
				"y": -0.3853980151,
				"z": 2.5021591021,
				"element": "C" 
			},
			{
				"x": 2.4393394267,
				"y": -1.0765551335,
				"z": 2.9747820959,
				"element": "C" 
			},
			{
				"x": 3.3747206859,
				"y": -1.6033159867,
				"z": 2.0830679317,
				"element": "C" 
			},
			{
				"x": 5.1702200028,
				"y": -2.1960262328,
				"z": 0.1939102002,
				"element": "H" 
			},
			{
				"x": 3.8456043401,
				"y": -3.005988998,
				"z": -0.6475056861,
				"element": "H" 
			},
			{
				"x": 4.334960786,
				"y": -1.3862255057,
				"z": -1.1430016793,
				"element": "H" 
			},
			{
				"x": 1.9444387995,
				"y": -0.6076914654,
				"z": -0.8386417303,
				"element": "H" 
			},
			{
				"x": -0.5832329398,
				"y": 0.829177108,
				"z": 1.474480777,
				"element": "H" 
			},
			{
				"x": 0.603571852,
				"y": 0.0270056572,
				"z": 3.199046373,
				"element": "H" 
			},
			{
				"x": 2.5764770037,
				"y": -1.2011679966,
				"z": 4.0448433707,
				"element": "H" 
			},
			{
				"x": 4.2411560988,
				"y": -2.1392169925,
				"z": 2.4607257762,
				"element": "H" 
			}
		],
		 "valence_orbital": [ 
			{
				"type": "occ",
				"energy": -0.35104,
				"method": "rhf"
			},
			{
				"type": "occ",
				"energy": -0.31915,
				"method": "rhf"
			},
			{
				"type": "occ",
				"energy": -0.28632,
				"method": "rhf"
			},
			{
				"type": "occ",
				"energy": -0.25265,
				"method": "rhf"
			},
			{
				"type": "occ",
				"energy": -0.23419,
				"method": "rhf"
			},
			{
				"type": "unocc",
				"energy": -0.03635,
				"method": "rhf"
			},
			{
				"type": "unocc",
				"energy": -0.00993,
				"method": "rhf"
			},
			{
				"type": "unocc",
				"energy": 0.02094,
				"method": "rhf"
			},
			{
				"type": "unocc",
				"energy": 0.06205,
				"method": "rhf"
			},
			{
				"type": "unocc",
				"energy": 0.07358,
				"method": "rhf"
			}
		],
		"cosmo_sigma_profile": { 
			"-0.025": 0.0,
			"-0.024": 0.0,
			"-0.023": 0.0,
			"-0.022": 0.0,
			"-0.021": 0.0,
			"-0.02": 0.0,
			"-0.019": 0.0,
			"-0.018": 0.0,
			"-0.017": 0.0,
			"-0.016": 0.0,
			"-0.015": 0.0056977483593,
			"-0.014": 0.495878570433,
			"-0.013": 0.718715279847,
			"-0.012": 1.08847257549,
			"-0.011": 0.753241992118,
			"-0.01": 1.15952092501,
			"-0.009": 1.47846972934,
			"-0.008": 1.6360461057,
			"-0.007": 1.8770164821,
			"-0.006": 5.24824776093,
			"-0.005": 8.86024074728,
			"-0.004": 19.387522779,
			"-0.003": 20.4864587222,
			"-0.002": 21.892746148,
			"-0.001": 26.8382569709,
			"0.0": 42.7925994337,
			"0.001": 70.4947544487,
			"0.002": 28.9827022825,
			"0.003": 11.6666724346,
			"0.004": 11.111640799,
			"0.005": 11.2255752495,
			"0.006": 3.55568517084,
			"0.007": 2.33508525366,
			"0.008": 2.25643032078,
			"0.009": 2.5082686304,
			"0.01": 2.55032966484,
			"0.011": 0.509723304952,
			"0.012": 0.0,
			"0.013": 0.0,
			"0.014": 0.0,
			"0.015": 0.0,
			"0.016": 0.0,
			"0.017": 0.0,
			"0.018": 0.0,
			"0.019": 0.0,
			"0.02": 0.0,
			"0.021": 0.0,
			"0.022": 0.0,
			"0.023": 0.0,
			"0.024": 0.0,
			"0.025": 0.0
		}
	}
}
