{
	 "smiles": "CC(=O)OC1=CC=C(OC(C)=O)C(=C1)C(C)(C)C", 
	 "Tm": 338.15, 
	 "num_atms": 36, 
	 "gaussian": { 
		 "optdone": 1, 
		 "sigma_profile": "yes", 
		 "theory": "DFT", 
		 "functional": "B3LYP", 
		 "basiset": "6-31G**", 
		 "properties": { 
			 "R2extent": 5911.5197, 
			 "electric_dipole_moment_norm": 0.353479971144, 
			 "electric_quadrupole_moment_norm": 20.4663544355, 
			 "total_energy": -845.263400903, 
			 "HOMO_LUMO_gap": 0.21481, 
			 "cosmo_polarized_energy": -11.84, 
			 "cosmo_cavitation_energy": 38.91, 
			 "cosmo_dispersion_energy": -26.2, 
			 "cosmo_repulsion_energy": 2.05, 
			 "cosmo_total_nonelectrostatic_energy": 14.76, 
			 "SMD_solvation_energy": 9.31 
		},
		"coords": [
			{
				"x": -3.2974374062,
				"y": 4.5563945845,
				"z": 0.8649280545,
				"element": "C" 
			},
			{
				"x": -2.5537569399,
				"y": 3.4990165365,
				"z": 0.0863549565,
				"element": "C" 
			},
			{
				"x": -2.9515181115,
				"y": 2.9397888777,
				"z": -0.9058825826,
				"element": "O" 
			},
			{
				"x": -1.3407993281,
				"y": 3.2646029235,
				"z": 0.6790576645,
				"element": "O" 
			},
			{
				"x": -0.439647206,
				"y": 2.3401026392,
				"z": 0.1439283641,
				"element": "C" 
			},
			{
				"x": 0.8882360138,
				"y": 2.7433324707,
				"z": 0.0799200361,
				"element": "C" 
			},
			{
				"x": 1.8382688943,
				"y": 1.8352349736,
				"z": -0.3742154691,
				"element": "C" 
			},
			{
				"x": 1.4554902899,
				"y": 0.5486220034,
				"z": -0.7507347809,
				"element": "C" 
			},
			{
				"x": 2.420842485,
				"y": -0.3199399569,
				"z": -1.2794141272,
				"element": "O" 
			},
			{
				"x": 3.5967110978,
				"y": -0.5551735814,
				"z": -0.6101496997,
				"element": "C" 
			},
			{
				"x": 4.4576159698,
				"y": -1.4935261636,
				"z": -1.4200755525,
				"element": "C" 
			},
			{
				"x": 3.8799693809,
				"y": -0.0810219705,
				"z": 0.4612110491,
				"element": "O" 
			},
			{
				"x": 0.1139441261,
				"y": 0.1176037516,
				"z": -0.6998882048,
				"element": "C" 
			},
			{
				"x": -0.8212229059,
				"y": 1.0550481745,
				"z": -0.2346442535,
				"element": "C" 
			},
			{
				"x": -0.3360568379,
				"y": -1.2935144003,
				"z": -1.1401020731,
				"element": "C" 
			},
			{
				"x": -1.8570431003,
				"y": -1.4888699109,
				"z": -0.9673903963,
				"element": "C" 
			},
			{
				"x": 0.364778535,
				"y": -2.3742302029,
				"z": -0.2817569816,
				"element": "C" 
			},
			{
				"x": -0.0109697009,
				"y": -1.5079993043,
				"z": -2.6391322998,
				"element": "C" 
			},
			{
				"x": -2.7194046153,
				"y": 5.4850432305,
				"z": 0.8822080824,
				"element": "H" 
			},
			{
				"x": -3.4281725483,
				"y": 4.235484673,
				"z": 1.9025213599,
				"element": "H" 
			},
			{
				"x": -4.2679568941,
				"y": 4.7302032445,
				"z": 0.4016675683,
				"element": "H" 
			},
			{
				"x": 1.1662304391,
				"y": 3.7466080533,
				"z": 0.383230528,
				"element": "H" 
			},
			{
				"x": 2.8810857283,
				"y": 2.1197912527,
				"z": -0.4317710606,
				"element": "H" 
			},
			{
				"x": 5.4096095197,
				"y": -1.6391729228,
				"z": -0.9108465048,
				"element": "H" 
			},
			{
				"x": 3.9519306224,
				"y": -2.4563397505,
				"z": -1.5422741782,
				"element": "H" 
			},
			{
				"x": 4.6234067786,
				"y": -1.0838940907,
				"z": -2.4205280106,
				"element": "H" 
			},
			{
				"x": -1.8661354135,
				"y": 0.7938051592,
				"z": -0.1765998117,
				"element": "H" 
			},
			{
				"x": -2.4350548377,
				"y": -0.7803708839,
				"z": -1.5688715598,
				"element": "H" 
			},
			{
				"x": -2.1695183053,
				"y": -1.3912916955,
				"z": 0.0775753778,
				"element": "H" 
			},
			{
				"x": -2.1271544745,
				"y": -2.4970961538,
				"z": -1.2967891863,
				"element": "H" 
			},
			{
				"x": 1.4477866863,
				"y": -2.3639002336,
				"z": -0.4098671328,
				"element": "H" 
			},
			{
				"x": 0.1465146726,
				"y": -2.230554936,
				"z": 0.7815138392,
				"element": "H" 
			},
			{
				"x": 0.0040938242,
				"y": -3.3684353447,
				"z": -0.5684653481,
				"element": "H" 
			},
			{
				"x": -0.3433629927,
				"y": -2.5041131705,
				"z": -2.9530596732,
				"element": "H" 
			},
			{
				"x": 1.0577288243,
				"y": -1.4250818061,
				"z": -2.8405197522,
				"element": "H" 
			},
			{
				"x": -0.53393227,
				"y": -0.7698560696,
				"z": -3.2561382411,
				"element": "H" 
			}
		],
		 "valence_orbital": [ 
			{
				"type": "occ",
				"energy": -0.30901,
				"method": "rhf"
			},
			{
				"type": "occ",
				"energy": -0.27962,
				"method": "rhf"
			},
			{
				"type": "occ",
				"energy": -0.27792,
				"method": "rhf"
			},
			{
				"type": "occ",
				"energy": -0.24906,
				"method": "rhf"
			},
			{
				"type": "occ",
				"energy": -0.23072,
				"method": "rhf"
			},
			{
				"type": "unocc",
				"energy": -0.01591,
				"method": "rhf"
			},
			{
				"type": "unocc",
				"energy": -0.00486,
				"method": "rhf"
			},
			{
				"type": "unocc",
				"energy": 0.00358,
				"method": "rhf"
			},
			{
				"type": "unocc",
				"energy": 0.02297,
				"method": "rhf"
			},
			{
				"type": "unocc",
				"energy": 0.07981,
				"method": "rhf"
			}
		],
		"cosmo_sigma_profile": { 
			"-0.025": 0.0,
			"-0.024": 0.0,
			"-0.023": 0.0,
			"-0.022": 0.0,
			"-0.021": 0.0,
			"-0.02": 0.0,
			"-0.019": 0.0,
			"-0.018": 0.0,
			"-0.017": 0.0,
			"-0.016": 0.0,
			"-0.015": 0.0,
			"-0.014": 0.0,
			"-0.013": 0.0,
			"-0.012": 0.0,
			"-0.011": 0.0,
			"-0.01": 0.0,
			"-0.009": 0.0,
			"-0.008": 0.0600689159503,
			"-0.007": 5.78613665584,
			"-0.006": 16.9946398986,
			"-0.005": 18.181792044,
			"-0.004": 19.9003437325,
			"-0.003": 33.9928991946,
			"-0.002": 41.1144567372,
			"-0.001": 27.5960891919,
			"0.0": 25.2740289283,
			"0.001": 30.5803674424,
			"0.002": 19.5470472435,
			"0.003": 15.3764295807,
			"0.004": 10.4047037627,
			"0.005": 6.61525554291,
			"0.006": 4.12055615571,
			"0.007": 4.28717870999,
			"0.008": 3.61725833597,
			"0.009": 4.37456977858,
			"0.01": 4.93845357207,
			"0.011": 8.64205302697,
			"0.012": 4.89380286411,
			"0.013": 0.304098987479,
			"0.014": 0.0,
			"0.015": 0.0,
			"0.016": 0.0,
			"0.017": 0.0,
			"0.018": 0.0,
			"0.019": 0.0,
			"0.02": 0.0,
			"0.021": 0.0,
			"0.022": 0.0,
			"0.023": 0.0,
			"0.024": 0.0,
			"0.025": 0.0
		}
	}
}
