{
	 "smiles": "ClC1=CC(=CC(Cl)=C1)N1C(=O)C=CC1=O", 
	 "Tm": 413.15, 
	 "num_atms": 20, 
	 "gaussian": { 
		 "optdone": 1, 
		 "sigma_profile": "yes", 
		 "theory": "DFT", 
		 "functional": "B3LYP", 
		 "basiset": "6-31G**", 
		 "properties": { 
			 "R2extent": 4915.9506, 
			 "electric_dipole_moment_norm": 3.96262651028, 
			 "electric_quadrupole_moment_norm": 13.9702662194, 
			 "total_energy": -1509.65566702, 
			 "HOMO_LUMO_gap": 0.13457, 
			 "cosmo_polarized_energy": -9.14, 
			 "cosmo_cavitation_energy": 29.07, 
			 "cosmo_dispersion_energy": -21.61, 
			 "cosmo_repulsion_energy": 1.67, 
			 "cosmo_total_nonelectrostatic_energy": 9.12, 
			 "SMD_solvation_energy": 5.92 
		},
		"coords": [
			{
				"x": -3.0136208607,
				"y": -0.0970262229,
				"z": 3.4389595024,
				"element": "Cl" 
			},
			{
				"x": -1.4561081827,
				"y": 0.2314378817,
				"z": 2.6976369912,
				"element": "C" 
			},
			{
				"x": -1.1370863405,
				"y": -0.4135195732,
				"z": 1.5062665661,
				"element": "C" 
			},
			{
				"x": 0.1072287425,
				"y": -0.1560014577,
				"z": 0.907006602,
				"element": "C" 
			},
			{
				"x": 1.0025832644,
				"y": 0.7405667613,
				"z": 1.5138224493,
				"element": "C" 
			},
			{
				"x": 0.6323794561,
				"y": 1.3579520796,
				"z": 2.7049824802,
				"element": "C" 
			},
			{
				"x": 1.7582783224,
				"y": 2.4769618212,
				"z": 3.4556532474,
				"element": "Cl" 
			},
			{
				"x": -0.5921408818,
				"y": 1.1248584293,
				"z": 3.3244832684,
				"element": "C" 
			},
			{
				"x": 0.4618672818,
				"y": -0.8053417991,
				"z": -0.3186133432,
				"element": "N" 
			},
			{
				"x": 1.6820692605,
				"y": -0.635881344,
				"z": -1.030040329,
				"element": "C" 
			},
			{
				"x": 2.6168603729,
				"y": 0.0741680927,
				"z": -0.7285195608,
				"element": "O" 
			},
			{
				"x": 1.6046449139,
				"y": -1.5080240373,
				"z": -2.2416795841,
				"element": "C" 
			},
			{
				"x": 0.43275652,
				"y": -2.1414693947,
				"z": -2.2452120029,
				"element": "C" 
			},
			{
				"x": -0.3449433672,
				"y": -1.7315951628,
				"z": -1.0361282088,
				"element": "C" 
			},
			{
				"x": -1.4523884431,
				"y": -2.1255516709,
				"z": -0.7407082153,
				"element": "O" 
			},
			{
				"x": -1.8384028253,
				"y": -1.0979849382,
				"z": 1.0568681206,
				"element": "H" 
			},
			{
				"x": 1.9621634253,
				"y": 0.9519694976,
				"z": 1.0702107481,
				"element": "H" 
			},
			{
				"x": -0.8601941977,
				"y": 1.6157796889,
				"z": 4.2510590001,
				"element": "H" 
			},
			{
				"x": 2.422253975,
				"y": -1.5522451562,
				"z": -2.9485692655,
				"element": "H" 
			},
			{
				"x": 0.0251995642,
				"y": -2.8479534954,
				"z": -2.9557784662,
				"element": "H" 
			}
		],
		 "valence_orbital": [ 
			{
				"type": "occ",
				"energy": -0.31298,
				"method": "rhf"
			},
			{
				"type": "occ",
				"energy": -0.30546,
				"method": "rhf"
			},
			{
				"type": "occ",
				"energy": -0.29067,
				"method": "rhf"
			},
			{
				"type": "occ",
				"energy": -0.25323,
				"method": "rhf"
			},
			{
				"type": "occ",
				"energy": -0.25081,
				"method": "rhf"
			},
			{
				"type": "unocc",
				"energy": -0.11624,
				"method": "rhf"
			},
			{
				"type": "unocc",
				"energy": -0.03502,
				"method": "rhf"
			},
			{
				"type": "unocc",
				"energy": -0.02528,
				"method": "rhf"
			},
			{
				"type": "unocc",
				"energy": 0.0047,
				"method": "rhf"
			},
			{
				"type": "unocc",
				"energy": 0.04518,
				"method": "rhf"
			}
		],
		"cosmo_sigma_profile": { 
			"-0.025": 0.0,
			"-0.024": 0.0,
			"-0.023": 0.0,
			"-0.022": 0.0,
			"-0.021": 0.0,
			"-0.02": 0.0,
			"-0.019": 0.0,
			"-0.018": 0.0,
			"-0.017": 0.0,
			"-0.016": 0.0,
			"-0.015": 0.0,
			"-0.014": 0.0,
			"-0.013": 0.0,
			"-0.012": 0.0,
			"-0.011": 0.217387166626,
			"-0.01": 3.47786730585,
			"-0.009": 4.11183465122,
			"-0.008": 4.81536089565,
			"-0.007": 7.1026094159,
			"-0.006": 8.37048212052,
			"-0.005": 9.41901262112,
			"-0.004": 13.5377862694,
			"-0.003": 16.1592636716,
			"-0.002": 15.6258927819,
			"-0.001": 19.1372906246,
			"0.0": 23.9004311179,
			"0.001": 32.2599922298,
			"0.002": 16.5352103787,
			"0.003": 18.2750929801,
			"0.004": 21.1120582397,
			"0.005": 5.82967781681,
			"0.006": 2.96748286547,
			"0.007": 3.39779058615,
			"0.008": 3.90462932683,
			"0.009": 4.68982403239,
			"0.01": 4.58347720803,
			"0.011": 1.24937280089,
			"0.012": 0.0,
			"0.013": 0.0,
			"0.014": 0.0,
			"0.015": 0.0,
			"0.016": 0.0,
			"0.017": 0.0,
			"0.018": 0.0,
			"0.019": 0.0,
			"0.02": 0.0,
			"0.021": 0.0,
			"0.022": 0.0,
			"0.023": 0.0,
			"0.024": 0.0,
			"0.025": 0.0
		}
	}
}
