{
	 "smiles": "OC1=C(Br)C=C(Br)C=C1C1=CC(Br)=CC(Br)=C1O", 
	 "Tm": 478.15, 
	 "num_atms": 24, 
	 "gaussian": { 
		 "optdone": 1, 
		 "sigma_profile": "yes", 
		 "theory": "DFT", 
		 "functional": "B3LYP", 
		 "basiset": "6-31G**", 
		 "properties": { 
			 "R2extent": 14557.0917, 
			 "electric_dipole_moment_norm": 3.66523608244, 
			 "electric_quadrupole_moment_norm": 8.92154652961, 
			 "total_energy": -10896.954178, 
			 "HOMO_LUMO_gap": 0.17052, 
			 "cosmo_polarized_energy": -10.7, 
			 "cosmo_cavitation_energy": 37.85, 
			 "cosmo_dispersion_energy": -29.16, 
			 "cosmo_repulsion_energy": 2.28, 
			 "cosmo_total_nonelectrostatic_energy": 10.98, 
			 "SMD_solvation_energy": 2.12 
		},
		"coords": [
			{
				"x": -0.4450716803,
				"y": -1.2315424026,
				"z": -2.1746199246,
				"element": "O" 
			},
			{
				"x": 0.2111537209,
				"y": -1.6336985667,
				"z": -1.0625604161,
				"element": "C" 
			},
			{
				"x": 0.4040360186,
				"y": -3.0137129511,
				"z": -0.8687774937,
				"element": "C" 
			},
			{
				"x": -0.3016025587,
				"y": -4.2399308321,
				"z": -2.1418107088,
				"element": "Br" 
			},
			{
				"x": 1.0970884141,
				"y": -3.5137277136,
				"z": 0.2278651673,
				"element": "C" 
			},
			{
				"x": 1.6027449481,
				"y": -2.6171084537,
				"z": 1.1656773509,
				"element": "C" 
			},
			{
				"x": 2.5263569372,
				"y": -3.2827125422,
				"z": 2.6987108336,
				"element": "Br" 
			},
			{
				"x": 1.4414653037,
				"y": -1.248359438,
				"z": 1.0001837406,
				"element": "C" 
			},
			{
				"x": 0.7606907867,
				"y": -0.7340558076,
				"z": -0.1165480302,
				"element": "C" 
			},
			{
				"x": 0.7365734901,
				"y": 0.7471502702,
				"z": -0.2917638522,
				"element": "C" 
			},
			{
				"x": 1.9246716429,
				"y": 1.4696849911,
				"z": -0.095794242,
				"element": "C" 
			},
			{
				"x": 1.9533737993,
				"y": 2.8566732961,
				"z": -0.1999251533,
				"element": "C" 
			},
			{
				"x": 3.5937326698,
				"y": 3.7903600223,
				"z": 0.0689946956,
				"element": "Br" 
			},
			{
				"x": 0.8031860342,
				"y": 3.5772769362,
				"z": -0.509125914,
				"element": "C" 
			},
			{
				"x": -0.3747531755,
				"y": 2.8685151323,
				"z": -0.7129267589,
				"element": "C" 
			},
			{
				"x": -1.9862637682,
				"y": 3.8111372434,
				"z": -1.1388227482,
				"element": "Br" 
			},
			{
				"x": -0.4290117336,
				"y": 1.4733260859,
				"z": -0.6078162059,
				"element": "C" 
			},
			{
				"x": -1.5915226911,
				"y": 0.7792853194,
				"z": -0.8015546579,
				"element": "O" 
			},
			{
				"x": -1.0019237096,
				"y": -0.4648626288,
				"z": -1.9469342335,
				"element": "H" 
			},
			{
				"x": 1.224206385,
				"y": -4.5814711689,
				"z": 0.3512860687,
				"element": "H" 
			},
			{
				"x": 1.8371799957,
				"y": -0.5660072866,
				"z": 1.7429886095,
				"element": "H" 
			},
			{
				"x": 2.8373313514,
				"y": 0.9294297385,
				"z": 0.1237059557,
				"element": "H" 
			},
			{
				"x": 0.8212891736,
				"y": 4.6558446519,
				"z": -0.5954998184,
				"element": "H" 
			},
			{
				"x": -2.3086313544,
				"y": 1.4085061047,
				"z": -0.9935322641,
				"element": "H" 
			}
		],
		 "valence_orbital": [ 
			{
				"type": "occ",
				"energy": -0.28304,
				"method": "rhf"
			},
			{
				"type": "occ",
				"energy": -0.27885,
				"method": "rhf"
			},
			{
				"type": "occ",
				"energy": -0.2562,
				"method": "rhf"
			},
			{
				"type": "occ",
				"energy": -0.24604,
				"method": "rhf"
			},
			{
				"type": "occ",
				"energy": -0.22935,
				"method": "rhf"
			},
			{
				"type": "unocc",
				"energy": -0.05883,
				"method": "rhf"
			},
			{
				"type": "unocc",
				"energy": -0.03994,
				"method": "rhf"
			},
			{
				"type": "unocc",
				"energy": -0.03498,
				"method": "rhf"
			},
			{
				"type": "unocc",
				"energy": -0.01824,
				"method": "rhf"
			},
			{
				"type": "unocc",
				"energy": -0.01255,
				"method": "rhf"
			}
		],
		"cosmo_sigma_profile": { 
			"-0.025": 0.0,
			"-0.024": 0.0,
			"-0.023": 0.0,
			"-0.022": 0.0,
			"-0.021": 0.0,
			"-0.02": 0.0,
			"-0.019": 0.0,
			"-0.018": 0.0,
			"-0.017": 0.0,
			"-0.016": 0.317976849905,
			"-0.015": 0.621450506605,
			"-0.014": 0.612285588125,
			"-0.013": 1.26221624514,
			"-0.012": 0.734282863588,
			"-0.011": 1.03325752943,
			"-0.01": 2.24241690162,
			"-0.009": 3.01296487535,
			"-0.008": 6.20413149241,
			"-0.007": 8.29590077405,
			"-0.006": 10.0543600245,
			"-0.005": 11.0859819923,
			"-0.004": 13.9069804716,
			"-0.003": 15.227950839,
			"-0.002": 18.8848871572,
			"-0.001": 24.5392773225,
			"0.0": 35.187210989,
			"0.001": 46.0598184747,
			"0.002": 35.3475828326,
			"0.003": 26.6976954857,
			"0.004": 33.3675014426,
			"0.005": 11.3174503935,
			"0.006": 3.08158785462,
			"0.007": 2.07024271621,
			"0.008": 1.38256317829,
			"0.009": 2.18418472228,
			"0.01": 1.7569703038,
			"0.011": 1.99336548169,
			"0.012": 0.0836074578408,
			"0.013": 0.0,
			"0.014": 0.0,
			"0.015": 0.0,
			"0.016": 0.0,
			"0.017": 0.0,
			"0.018": 0.0,
			"0.019": 0.0,
			"0.02": 0.0,
			"0.021": 0.0,
			"0.022": 0.0,
			"0.023": 0.0,
			"0.024": 0.0,
			"0.025": 0.0
		}
	}
}
