{
	 "smiles": "ClC1=CC(Cl)=C(C=C1)C(=O)N1CCNCC1", 
	 "Tm": 382.15, 
	 "num_atms": 28, 
	 "gaussian": { 
		 "optdone": 1, 
		 "sigma_profile": "yes", 
		 "theory": "DFT", 
		 "functional": "B3LYP", 
		 "basiset": "6-31G**", 
		 "properties": { 
			 "R2extent": 6325.1494, 
			 "electric_dipole_moment_norm": 3.9713620812, 
			 "electric_quadrupole_moment_norm": 9.42098069683, 
			 "total_energy": -1531.5163301, 
			 "HOMO_LUMO_gap": 0.19591, 
			 "cosmo_polarized_energy": -12.47, 
			 "cosmo_cavitation_energy": 34.03, 
			 "cosmo_dispersion_energy": -24.42, 
			 "cosmo_repulsion_energy": 1.92, 
			 "cosmo_total_nonelectrostatic_energy": 11.53, 
			 "SMD_solvation_energy": 2.89 
		},
		"coords": [
			{
				"x": 1.473700769,
				"y": -4.6456521465,
				"z": -3.8204580981,
				"element": "Cl" 
			},
			{
				"x": 0.9054905206,
				"y": -3.1278337013,
				"z": -3.1493544347,
				"element": "C" 
			},
			{
				"x": 1.834225389,
				"y": -2.1448964661,
				"z": -2.8171248337,
				"element": "C" 
			},
			{
				"x": 1.3738961328,
				"y": -0.9434871683,
				"z": -2.2755506666,
				"element": "C" 
			},
			{
				"x": 2.5700240634,
				"y": 0.2873205403,
				"z": -1.8943577877,
				"element": "Cl" 
			},
			{
				"x": 0.0108755409,
				"y": -0.706206386,
				"z": -2.0582840641,
				"element": "C" 
			},
			{
				"x": -0.8921335524,
				"y": -1.7101209895,
				"z": -2.4360907766,
				"element": "C" 
			},
			{
				"x": -0.4620725531,
				"y": -2.9225408096,
				"z": -2.9662587002,
				"element": "C" 
			},
			{
				"x": -0.564137876,
				"y": 0.6152190917,
				"z": -1.5897574753,
				"element": "C" 
			},
			{
				"x": -1.230188085,
				"y": 1.2784489992,
				"z": -2.3806738821,
				"element": "O" 
			},
			{
				"x": -0.3466333088,
				"y": 0.991179835,
				"z": -0.2936643519,
				"element": "N" 
			},
			{
				"x": 0.3138486406,
				"y": 0.1911729133,
				"z": 0.7367940321,
				"element": "C" 
			},
			{
				"x": -0.6059803329,
				"y": 0.0433246348,
				"z": 1.9544715302,
				"element": "C" 
			},
			{
				"x": -0.9950699024,
				"y": 1.3708372096,
				"z": 2.4258698476,
				"element": "N" 
			},
			{
				"x": -1.7414975798,
				"y": 2.1000101307,
				"z": 1.3988095925,
				"element": "C" 
			},
			{
				"x": -0.8489763027,
				"y": 2.2875940635,
				"z": 0.1704623758,
				"element": "C" 
			},
			{
				"x": 2.8930525368,
				"y": -2.3029135796,
				"z": -2.9804393893,
				"element": "H" 
			},
			{
				"x": -1.9542326606,
				"y": -1.5227644818,
				"z": -2.3146018346,
				"element": "H" 
			},
			{
				"x": -1.1725534354,
				"y": -3.6927434679,
				"z": -3.2432803539,
				"element": "H" 
			},
			{
				"x": 1.2423513515,
				"y": 0.6893384311,
				"z": 1.0432468736,
				"element": "H" 
			},
			{
				"x": 0.5653462743,
				"y": -0.7900691093,
				"z": 0.3338267583,
				"element": "H" 
			},
			{
				"x": -1.4705107725,
				"y": -0.5848036601,
				"z": 1.6653078284,
				"element": "H" 
			},
			{
				"x": -0.0645696957,
				"y": -0.4770235146,
				"z": 2.7520016092,
				"element": "H" 
			},
			{
				"x": -1.5489530558,
				"y": 1.2923198711,
				"z": 3.2736711804,
				"element": "H" 
			},
			{
				"x": -2.0261639389,
				"y": 3.0813862124,
				"z": 1.7929811917,
				"element": "H" 
			},
			{
				"x": -2.6660745362,
				"y": 1.579064062,
				"z": 1.0866544392,
				"element": "H" 
			},
			{
				"x": -1.3930464335,
				"y": 2.7454947814,
				"z": -0.6552366784,
				"element": "H" 
			},
			{
				"x": 0.0065828028,
				"y": 2.9219447048,
				"z": 0.437436068,
				"element": "H" 
			}
		],
		 "valence_orbital": [ 
			{
				"type": "occ",
				"energy": -0.2737,
				"method": "rhf"
			},
			{
				"type": "occ",
				"energy": -0.26381,
				"method": "rhf"
			},
			{
				"type": "occ",
				"energy": -0.24753,
				"method": "rhf"
			},
			{
				"type": "occ",
				"energy": -0.24354,
				"method": "rhf"
			},
			{
				"type": "occ",
				"energy": -0.23129,
				"method": "rhf"
			},
			{
				"type": "unocc",
				"energy": -0.03538,
				"method": "rhf"
			},
			{
				"type": "unocc",
				"energy": -0.02985,
				"method": "rhf"
			},
			{
				"type": "unocc",
				"energy": 0.00211,
				"method": "rhf"
			},
			{
				"type": "unocc",
				"energy": 0.02461,
				"method": "rhf"
			},
			{
				"type": "unocc",
				"energy": 0.04548,
				"method": "rhf"
			}
		],
		"cosmo_sigma_profile": { 
			"-0.025": 0.0,
			"-0.024": 0.0,
			"-0.023": 0.0,
			"-0.022": 0.0,
			"-0.021": 0.0,
			"-0.02": 0.0,
			"-0.019": 0.0,
			"-0.018": 0.0,
			"-0.017": 0.0,
			"-0.016": 0.0,
			"-0.015": 0.0,
			"-0.014": 0.0,
			"-0.013": 0.0,
			"-0.012": 0.0,
			"-0.011": 0.368194041435,
			"-0.01": 1.598004968,
			"-0.009": 1.5775478987,
			"-0.008": 5.33970849796,
			"-0.007": 6.71107663137,
			"-0.006": 7.44722353758,
			"-0.005": 11.2225966858,
			"-0.004": 23.6384334066,
			"-0.003": 27.5360562899,
			"-0.002": 30.4040058923,
			"-0.001": 25.4926188847,
			"0.0": 22.3256741873,
			"0.001": 24.6216354789,
			"0.002": 20.2810674641,
			"0.003": 18.6910461122,
			"0.004": 17.0834003525,
			"0.005": 3.9847337541,
			"0.006": 1.98724184631,
			"0.007": 2.79708448494,
			"0.008": 1.9648818713,
			"0.009": 1.70273848018,
			"0.01": 2.41600907193,
			"0.011": 2.19975221552,
			"0.012": 2.61904240937,
			"0.013": 4.83581105961,
			"0.014": 3.18140983971,
			"0.015": 1.028153255,
			"0.016": 0.248870091784,
			"0.017": 0.378638524234,
			"0.018": 0.0779517937661,
			"0.019": 0.0,
			"0.02": 0.0,
			"0.021": 0.0,
			"0.022": 0.0,
			"0.023": 0.0,
			"0.024": 0.0,
			"0.025": 0.0
		}
	}
}
