{
	 "smiles": "CC1=C2N=C(N)C=CC2=CC=C1Cl", 
	 "Tm": 408.15, 
	 "num_atms": 22, 
	 "gaussian": { 
		 "optdone": 1, 
		 "sigma_profile": "yes", 
		 "theory": "DFT", 
		 "functional": "B3LYP", 
		 "basiset": "6-31G**", 
		 "properties": { 
			 "R2extent": 3678.0396, 
			 "electric_dipole_moment_norm": 4.0662217217, 
			 "electric_quadrupole_moment_norm": 11.3943950717, 
			 "total_energy": -956.212930343, 
			 "HOMO_LUMO_gap": 0.16702, 
			 "cosmo_polarized_energy": -10.15, 
			 "cosmo_cavitation_energy": 27.17, 
			 "cosmo_dispersion_energy": -20.46, 
			 "cosmo_repulsion_energy": 1.61, 
			 "cosmo_total_nonelectrostatic_energy": 8.31, 
			 "SMD_solvation_energy": 3.24 
		},
		"coords": [
			{
				"x": -2.3385748673,
				"y": 1.9551801937,
				"z": 1.7975332683,
				"element": "C" 
			},
			{
				"x": -0.9302183461,
				"y": 1.4396375346,
				"z": 1.6654380366,
				"element": "C" 
			},
			{
				"x": -0.358973051,
				"y": 1.2033730722,
				"z": 0.3702090441,
				"element": "C" 
			},
			{
				"x": -1.1246435054,
				"y": 1.448668352,
				"z": -0.730918242,
				"element": "N" 
			},
			{
				"x": -0.6111429552,
				"y": 1.2447874885,
				"z": -1.9308807984,
				"element": "C" 
			},
			{
				"x": -1.4004547039,
				"y": 1.5619818029,
				"z": -3.0178217522,
				"element": "N" 
			},
			{
				"x": 0.7195272767,
				"y": 0.761597527,
				"z": -2.1415047901,
				"element": "C" 
			},
			{
				"x": 1.4941882097,
				"y": 0.5004156383,
				"z": -1.0460915308,
				"element": "C" 
			},
			{
				"x": 0.9815850722,
				"y": 0.7151934299,
				"z": 0.2631567587,
				"element": "C" 
			},
			{
				"x": 1.7384091004,
				"y": 0.4656460703,
				"z": 1.4309731898,
				"element": "C" 
			},
			{
				"x": 1.1932004321,
				"y": 0.6905481532,
				"z": 2.673476944,
				"element": "C" 
			},
			{
				"x": -0.1306336745,
				"y": 1.1731026431,
				"z": 2.7654321486,
				"element": "C" 
			},
			{
				"x": -0.767777271,
				"y": 1.4399604667,
				"z": 4.3895575099,
				"element": "Cl" 
			},
			{
				"x": -2.3574929262,
				"y": 2.908486413,
				"z": 2.3366932251,
				"element": "H" 
			},
			{
				"x": -2.9597203634,
				"y": 1.2565107362,
				"z": 2.3685742128,
				"element": "H" 
			},
			{
				"x": -2.7752786439,
				"y": 2.095682273,
				"z": 0.8099654874,
				"element": "H" 
			},
			{
				"x": -1.2134903225,
				"y": 1.0871495789,
				"z": -3.8878845089,
				"element": "H" 
			},
			{
				"x": -2.3779628427,
				"y": 1.6937752914,
				"z": -2.7994114107,
				"element": "H" 
			},
			{
				"x": 1.0949652332,
				"y": 0.6173101116,
				"z": -3.1501427088,
				"element": "H" 
			},
			{
				"x": 2.5096233638,
				"y": 0.1300761769,
				"z": -1.1628061766,
				"element": "H" 
			},
			{
				"x": 2.7557889134,
				"y": 0.0949722784,
				"z": 1.3377187401,
				"element": "H" 
			},
			{
				"x": 1.7576758716,
				"y": 0.5055447683,
				"z": 3.5800333531,
				"element": "H" 
			}
		],
		 "valence_orbital": [ 
			{
				"type": "occ",
				"energy": -0.29694,
				"method": "rhf"
			},
			{
				"type": "occ",
				"energy": -0.2849,
				"method": "rhf"
			},
			{
				"type": "occ",
				"energy": -0.25682,
				"method": "rhf"
			},
			{
				"type": "occ",
				"energy": -0.22662,
				"method": "rhf"
			},
			{
				"type": "occ",
				"energy": -0.21202,
				"method": "rhf"
			},
			{
				"type": "unocc",
				"energy": -0.045,
				"method": "rhf"
			},
			{
				"type": "unocc",
				"energy": -0.00755,
				"method": "rhf"
			},
			{
				"type": "unocc",
				"energy": 0.02318,
				"method": "rhf"
			},
			{
				"type": "unocc",
				"energy": 0.03944,
				"method": "rhf"
			},
			{
				"type": "unocc",
				"energy": 0.07638,
				"method": "rhf"
			}
		],
		"cosmo_sigma_profile": { 
			"-0.025": 0.0,
			"-0.024": 0.0,
			"-0.023": 0.0,
			"-0.022": 0.0,
			"-0.021": 0.0,
			"-0.02": 0.0,
			"-0.019": 0.0,
			"-0.018": 0.0,
			"-0.017": 0.0,
			"-0.016": 0.0,
			"-0.015": 0.0,
			"-0.014": 0.369647254448,
			"-0.013": 1.84515917487,
			"-0.012": 2.58235600079,
			"-0.011": 2.10468125674,
			"-0.01": 2.54349521186,
			"-0.009": 3.0825620483,
			"-0.008": 2.54335300116,
			"-0.007": 8.11627803459,
			"-0.006": 9.69108250219,
			"-0.005": 7.87927528994,
			"-0.004": 9.91586616629,
			"-0.003": 9.76947193525,
			"-0.002": 10.1289724612,
			"-0.001": 14.1332469132,
			"0.0": 15.7477832635,
			"0.001": 19.3216530195,
			"0.002": 24.206998328,
			"0.003": 28.973987683,
			"0.004": 19.4646669867,
			"0.005": 10.3202860968,
			"0.006": 4.05132647643,
			"0.007": 3.47441688803,
			"0.008": 2.27114190014,
			"0.009": 2.72021048214,
			"0.01": 2.42017820626,
			"0.011": 0.898725439281,
			"0.012": 0.381687265552,
			"0.013": 0.028974207836,
			"0.014": 0.0,
			"0.015": 0.0,
			"0.016": 0.0,
			"0.017": 0.0,
			"0.018": 0.0,
			"0.019": 0.0,
			"0.02": 0.0,
			"0.021": 0.0,
			"0.022": 0.0,
			"0.023": 0.0,
			"0.024": 0.0,
			"0.025": 0.0
		}
	}
}
