{
	 "smiles": "NC(=O)CC1=CC=C(C=C1)C#N", 
	 "Tm": 465.15, 
	 "num_atms": 20, 
	 "gaussian": { 
		 "optdone": 1, 
		 "sigma_profile": "yes", 
		 "theory": "DFT", 
		 "functional": "B3LYP", 
		 "basiset": "6-31G**", 
		 "properties": { 
			 "R2extent": 2817.4755, 
			 "electric_dipole_moment_norm": 6.59666772621, 
			 "electric_quadrupole_moment_norm": 17.3303025822, 
			 "total_energy": -532.51014057, 
			 "HOMO_LUMO_gap": 0.20237, 
			 "cosmo_polarized_energy": -18.76, 
			 "cosmo_cavitation_energy": 25.84, 
			 "cosmo_dispersion_energy": -18.14, 
			 "cosmo_repulsion_energy": 1.47, 
			 "cosmo_total_nonelectrostatic_energy": 9.17, 
			 "SMD_solvation_energy": 6.53 
		},
		"coords": [
			{
				"x": -3.9507792943,
				"y": 0.0851724942,
				"z": -2.0964944592,
				"element": "N" 
			},
			{
				"x": -3.2481117987,
				"y": -0.8580671755,
				"z": -1.4058225042,
				"element": "C" 
			},
			{
				"x": -3.6822934588,
				"y": -1.395649796,
				"z": -0.3973776302,
				"element": "O" 
			},
			{
				"x": -1.8725949226,
				"y": -1.2128420157,
				"z": -1.9875508618,
				"element": "C" 
			},
			{
				"x": -0.729970278,
				"y": -0.7855103288,
				"z": -1.0848184469,
				"element": "C" 
			},
			{
				"x": -0.6748600313,
				"y": -1.2127228612,
				"z": 0.2512678513,
				"element": "C" 
			},
			{
				"x": 0.3779281766,
				"y": -0.829976603,
				"z": 1.0743633428,
				"element": "C" 
			},
			{
				"x": 1.4042100597,
				"y": -0.0106409327,
				"z": 0.5718719018,
				"element": "C" 
			},
			{
				"x": 1.3559522988,
				"y": 0.4212519031,
				"z": -0.7627010683,
				"element": "C" 
			},
			{
				"x": 0.2941124961,
				"y": 0.0343903291,
				"z": -1.5756992115,
				"element": "C" 
			},
			{
				"x": 2.4942675389,
				"y": 0.3826308704,
				"z": 1.416384578,
				"element": "C" 
			},
			{
				"x": 3.3793352198,
				"y": 0.7029938266,
				"z": 2.1002801136,
				"element": "N" 
			},
			{
				"x": -3.5635981418,
				"y": 0.5868596706,
				"z": -2.8783668444,
				"element": "H" 
			},
			{
				"x": -4.8383123055,
				"y": 0.3826150323,
				"z": -1.7188905064,
				"element": "H" 
			},
			{
				"x": -1.7375226067,
				"y": -0.7880960521,
				"z": -2.9871226999,
				"element": "H" 
			},
			{
				"x": -1.8677881343,
				"y": -2.3035728855,
				"z": -2.0955393273,
				"element": "H" 
			},
			{
				"x": -1.4778760295,
				"y": -1.8293480346,
				"z": 0.6399034559,
				"element": "H" 
			},
			{
				"x": 0.4146700553,
				"y": -1.1610258625,
				"z": 2.1069126352,
				"element": "H" 
			},
			{
				"x": 2.1460336383,
				"y": 1.0545605016,
				"z": -1.1521297066,
				"element": "H" 
			},
			{
				"x": 0.266097518,
				"y": 0.3713779198,
				"z": -2.6085706118,
				"element": "H" 
			}
		],
		 "valence_orbital": [ 
			{
				"type": "occ",
				"energy": -0.32633,
				"method": "rhf"
			},
			{
				"type": "occ",
				"energy": -0.28301,
				"method": "rhf"
			},
			{
				"type": "occ",
				"energy": -0.27326,
				"method": "rhf"
			},
			{
				"type": "occ",
				"energy": -0.26867,
				"method": "rhf"
			},
			{
				"type": "occ",
				"energy": -0.25262,
				"method": "rhf"
			},
			{
				"type": "unocc",
				"energy": -0.05025,
				"method": "rhf"
			},
			{
				"type": "unocc",
				"energy": -0.02256,
				"method": "rhf"
			},
			{
				"type": "unocc",
				"energy": 0.01579,
				"method": "rhf"
			},
			{
				"type": "unocc",
				"energy": 0.0402,
				"method": "rhf"
			},
			{
				"type": "unocc",
				"energy": 0.05564,
				"method": "rhf"
			}
		],
		"cosmo_sigma_profile": { 
			"-0.025": 0.0,
			"-0.024": 0.0,
			"-0.023": 0.0,
			"-0.022": 0.0,
			"-0.021": 0.0,
			"-0.02": 0.0,
			"-0.019": 0.0,
			"-0.018": 0.0,
			"-0.017": 0.0,
			"-0.016": 0.0,
			"-0.015": 0.509088743497,
			"-0.014": 2.27308133224,
			"-0.013": 2.82650402981,
			"-0.012": 2.00593303841,
			"-0.011": 2.55153076431,
			"-0.01": 3.44325255466,
			"-0.009": 2.20394392544,
			"-0.008": 4.82336911436,
			"-0.007": 10.496807859,
			"-0.006": 12.5252436069,
			"-0.005": 11.2900442481,
			"-0.004": 10.9709820337,
			"-0.003": 12.2781404523,
			"-0.002": 12.1552343975,
			"-0.001": 12.5260265503,
			"0.0": 12.3690227765,
			"0.001": 12.0000557214,
			"0.002": 14.9210953884,
			"0.003": 14.1942918884,
			"0.004": 5.7360651575,
			"0.005": 3.7729676412,
			"0.006": 4.28817896745,
			"0.007": 4.52608896057,
			"0.008": 4.78866941241,
			"0.009": 4.5524303905,
			"0.01": 4.62409109133,
			"0.011": 4.52342017314,
			"0.012": 4.23026733062,
			"0.013": 5.59516532672,
			"0.014": 3.69688715379,
			"0.015": 0.389505587625,
			"0.016": 0.0,
			"0.017": 0.0,
			"0.018": 0.0,
			"0.019": 0.0,
			"0.02": 0.0,
			"0.021": 0.0,
			"0.022": 0.0,
			"0.023": 0.0,
			"0.024": 0.0,
			"0.025": 0.0
		}
	}
}
