{
	 "smiles": "CC(OCCC1=CC=C(C=C1)[N+]([O-])=O)=C(C#N)C1=CC=CC=C1", 
	 "Tm": 411.15, 
	 "num_atms": 39, 
	 "gaussian": { 
		 "optdone": 1, 
		 "sigma_profile": "yes", 
		 "theory": "DFT", 
		 "functional": "B3LYP", 
		 "basiset": "6-31G**", 
		 "properties": { 
			 "R2extent": 10610.82, 
			 "electric_dipole_moment_norm": 9.0766362569, 
			 "electric_quadrupole_moment_norm": 31.3443604253, 
			 "total_energy": -1030.60417928, 
			 "HOMO_LUMO_gap": 0.14152, 
			 "cosmo_polarized_energy": -21.42, 
			 "cosmo_cavitation_energy": 45.08, 
			 "cosmo_dispersion_energy": -30.23, 
			 "cosmo_repulsion_energy": 2.3, 
			 "cosmo_total_nonelectrostatic_energy": 17.15, 
			 "SMD_solvation_energy": 10.91 
		},
		"coords": [
			{
				"x": 2.2415917469,
				"y": -1.3503971631,
				"z": -1.3701630424,
				"element": "C" 
			},
			{
				"x": 1.7076107066,
				"y": -0.5627274543,
				"z": -0.2116129888,
				"element": "C" 
			},
			{
				"x": 1.1212217823,
				"y": 0.6375879665,
				"z": -0.4498699125,
				"element": "O" 
			},
			{
				"x": 0.9838836366,
				"y": 1.1744286258,
				"z": -1.7674278172,
				"element": "C" 
			},
			{
				"x": 0.177282592,
				"y": 2.4702091403,
				"z": -1.6393424842,
				"element": "C" 
			},
			{
				"x": -1.2560006321,
				"y": 2.2577569866,
				"z": -1.1996199841,
				"element": "C" 
			},
			{
				"x": -2.2919606315,
				"y": 2.2556213333,
				"z": -2.1457770036,
				"element": "C" 
			},
			{
				"x": -3.6138962624,
				"y": 2.0409617218,
				"z": -1.7660928627,
				"element": "C" 
			},
			{
				"x": -3.8907262712,
				"y": 1.8270722552,
				"z": -0.4179180065,
				"element": "C" 
			},
			{
				"x": -2.8870489316,
				"y": 1.8242580522,
				"z": 0.5494191087,
				"element": "C" 
			},
			{
				"x": -1.5705348052,
				"y": 2.0412681973,
				"z": 0.1521795257,
				"element": "C" 
			},
			{
				"x": -5.2846547626,
				"y": 1.6007771575,
				"z": -0.0059910444,
				"element": "N" 
			},
			{
				"x": -6.1476855135,
				"y": 1.6045801282,
				"z": -0.8846273468,
				"element": "O" 
			},
			{
				"x": -5.5054427006,
				"y": 1.4200785621,
				"z": 1.1907271369,
				"element": "O" 
			},
			{
				"x": 1.7927353183,
				"y": -0.9338591537,
				"z": 1.1004192016,
				"element": "C" 
			},
			{
				"x": 1.3193776926,
				"y": -0.0032182736,
				"z": 2.0801620525,
				"element": "C" 
			},
			{
				"x": 0.9403871702,
				"y": 0.7444871122,
				"z": 2.8897983884,
				"element": "N" 
			},
			{
				"x": 2.3484240717,
				"y": -2.219736078,
				"z": 1.6072986714,
				"element": "C" 
			},
			{
				"x": 1.9521142148,
				"y": -3.4574155158,
				"z": 1.0741059683,
				"element": "C" 
			},
			{
				"x": 2.4819836775,
				"y": -4.6496690951,
				"z": 1.5688992185,
				"element": "C" 
			},
			{
				"x": 3.4005992521,
				"y": -4.6277678207,
				"z": 2.6190273622,
				"element": "C" 
			},
			{
				"x": 3.7814670887,
				"y": -3.4045795656,
				"z": 3.1756678083,
				"element": "C" 
			},
			{
				"x": 3.2601073673,
				"y": -2.2125870055,
				"z": 2.6766973818,
				"element": "C" 
			},
			{
				"x": 1.4353090704,
				"y": -1.7189259365,
				"z": -2.0153753816,
				"element": "H" 
			},
			{
				"x": 2.8166511841,
				"y": -2.2059081255,
				"z": -1.0203328147,
				"element": "H" 
			},
			{
				"x": 2.8942762648,
				"y": -0.725782655,
				"z": -1.9896202837,
				"element": "H" 
			},
			{
				"x": 1.9712385154,
				"y": 1.392945378,
				"z": -2.193557326,
				"element": "H" 
			},
			{
				"x": 0.4689056015,
				"y": 0.4617584517,
				"z": -2.4228824808,
				"element": "H" 
			},
			{
				"x": 0.6999130449,
				"y": 3.1227190763,
				"z": -0.9316904824,
				"element": "H" 
			},
			{
				"x": 0.1986892097,
				"y": 2.9678738584,
				"z": -2.6152933339,
				"element": "H" 
			},
			{
				"x": -2.0632618205,
				"y": 2.4309159427,
				"z": -3.1938194456,
				"element": "H" 
			},
			{
				"x": -4.4241525645,
				"y": 2.0404487826,
				"z": -2.4842286744,
				"element": "H" 
			},
			{
				"x": -3.1446187004,
				"y": 1.6548796181,
				"z": 1.5874064103,
				"element": "H" 
			},
			{
				"x": -0.7821846446,
				"y": 2.0307802452,
				"z": 0.8976155215,
				"element": "H" 
			},
			{
				"x": 1.2045848311,
				"y": -3.4873038735,
				"z": 0.287170109,
				"element": "H" 
			},
			{
				"x": 2.161268267,
				"y": -5.5965982887,
				"z": 1.1441006477,
				"element": "H" 
			},
			{
				"x": 3.8071657423,
				"y": -5.5562294339,
				"z": 3.0089526912,
				"element": "H" 
			},
			{
				"x": 4.4876763622,
				"y": -3.377641117,
				"z": 4.0004516314,
				"element": "H" 
			},
			{
				"x": 3.5570038295,
				"y": -1.2646620366,
				"z": 3.1157438809,
				"element": "H" 
			}
		],
		 "valence_orbital": [ 
			{
				"type": "occ",
				"energy": -0.27375,
				"method": "rhf"
			},
			{
				"type": "occ",
				"energy": -0.27262,
				"method": "rhf"
			},
			{
				"type": "occ",
				"energy": -0.27024,
				"method": "rhf"
			},
			{
				"type": "occ",
				"energy": -0.25976,
				"method": "rhf"
			},
			{
				"type": "occ",
				"energy": -0.22523,
				"method": "rhf"
			},
			{
				"type": "unocc",
				"energy": -0.08371,
				"method": "rhf"
			},
			{
				"type": "unocc",
				"energy": -0.0414,
				"method": "rhf"
			},
			{
				"type": "unocc",
				"energy": -0.0227,
				"method": "rhf"
			},
			{
				"type": "unocc",
				"energy": -0.01207,
				"method": "rhf"
			},
			{
				"type": "unocc",
				"energy": -0.00342,
				"method": "rhf"
			}
		],
		"cosmo_sigma_profile": { 
			"-0.025": 0.0,
			"-0.024": 0.0,
			"-0.023": 0.0,
			"-0.022": 0.0,
			"-0.021": 0.0,
			"-0.02": 0.0,
			"-0.019": 0.0,
			"-0.018": 0.0,
			"-0.017": 0.0,
			"-0.016": 0.0,
			"-0.015": 0.0,
			"-0.014": 0.0,
			"-0.013": 0.0,
			"-0.012": 0.0,
			"-0.011": 0.0,
			"-0.01": 0.0,
			"-0.009": 0.0535342127206,
			"-0.008": 2.88529512398,
			"-0.007": 13.2692590651,
			"-0.006": 28.8267290269,
			"-0.005": 32.3505214835,
			"-0.004": 31.9131850996,
			"-0.003": 27.2998825427,
			"-0.002": 24.4337151822,
			"-0.001": 22.2402528267,
			"0.0": 21.899813145,
			"0.001": 25.0560027879,
			"0.002": 29.0444786651,
			"0.003": 19.2405668838,
			"0.004": 15.6409832142,
			"0.005": 15.0687442243,
			"0.006": 7.4831502023,
			"0.007": 10.0807617051,
			"0.008": 11.1591955726,
			"0.009": 7.13925674281,
			"0.01": 6.08608424167,
			"0.011": 3.49305147224,
			"0.012": 2.34679289125,
			"0.013": 2.30911893551,
			"0.014": 1.59002276916,
			"0.015": 0.0335878866739,
			"0.016": 0.0,
			"0.017": 0.0,
			"0.018": 0.0,
			"0.019": 0.0,
			"0.02": 0.0,
			"0.021": 0.0,
			"0.022": 0.0,
			"0.023": 0.0,
			"0.024": 0.0,
			"0.025": 0.0
		}
	}
}
