{
	 "smiles": "CCCCCCCCCCCCCCO", 
	 "Tm": 312.65, 
	 "num_atms": 45, 
	 "gaussian": { 
		 "optdone": 1, 
		 "sigma_profile": "yes", 
		 "theory": "DFT", 
		 "functional": "B3LYP", 
		 "basiset": "6-31G**", 
		 "properties": { 
			 "R2extent": 9068.3127, 
			 "electric_dipole_moment_norm": 1.46386125367, 
			 "electric_quadrupole_moment_norm": 12.7478690611, 
			 "total_energy": -626.823401847, 
			 "HOMO_LUMO_gap": 0.33942, 
			 "cosmo_polarized_energy": -6.15, 
			 "cosmo_cavitation_energy": 44.06, 
			 "cosmo_dispersion_energy": -30.19, 
			 "cosmo_repulsion_energy": 2.49, 
			 "cosmo_total_nonelectrostatic_energy": 16.36, 
			 "SMD_solvation_energy": 5.86 
		},
		"coords": [
			{
				"x": -3.8172385541,
				"y": -4.153908111,
				"z": -1.3183206608,
				"element": "C" 
			},
			{
				"x": -3.3757139774,
				"y": -4.0858261214,
				"z": 0.1484806808,
				"element": "C" 
			},
			{
				"x": -4.0729594624,
				"y": -2.9883449334,
				"z": 0.9716054693,
				"element": "C" 
			},
			{
				"x": -3.8292757531,
				"y": -1.5416788569,
				"z": 0.5017532677,
				"element": "C" 
			},
			{
				"x": -2.3632638834,
				"y": -1.073009522,
				"z": 0.5064761934,
				"element": "C" 
			},
			{
				"x": -1.7092837073,
				"y": -1.0523748929,
				"z": 1.8967061968,
				"element": "C" 
			},
			{
				"x": -0.3046910963,
				"y": -0.4260358529,
				"z": 1.9300068413,
				"element": "C" 
			},
			{
				"x": 0.7639081551,
				"y": -1.22147303,
				"z": 1.1637498351,
				"element": "C" 
			},
			{
				"x": 2.1966159213,
				"y": -0.6869647074,
				"z": 1.3280160106,
				"element": "C" 
			},
			{
				"x": 2.4408999114,
				"y": 0.7000198161,
				"z": 0.7155679413,
				"element": "C" 
			},
			{
				"x": 3.9008457289,
				"y": 1.1584162594,
				"z": 0.8385649259,
				"element": "C" 
			},
			{
				"x": 4.212451925,
				"y": 2.5043981092,
				"z": 0.1582681619,
				"element": "C" 
			},
			{
				"x": 3.473851103,
				"y": 3.7332563279,
				"z": 0.7140408281,
				"element": "C" 
			},
			{
				"x": 3.8148749848,
				"y": 4.0661829591,
				"z": 2.1621835193,
				"element": "C" 
			},
			{
				"x": 3.1422021132,
				"y": 5.2753728393,
				"z": 2.497495181,
				"element": "O" 
			},
			{
				"x": -3.5599223551,
				"y": -3.2413176753,
				"z": -1.8660380452,
				"element": "H" 
			},
			{
				"x": -4.9021679338,
				"y": -4.2910756352,
				"z": -1.3978906956,
				"element": "H" 
			},
			{
				"x": -3.338332747,
				"y": -4.9917344637,
				"z": -1.8359371217,
				"element": "H" 
			},
			{
				"x": -2.287130891,
				"y": -3.9522038801,
				"z": 0.1955215212,
				"element": "H" 
			},
			{
				"x": -3.5767364148,
				"y": -5.0534190269,
				"z": 0.6261701526,
				"element": "H" 
			},
			{
				"x": -5.1557076877,
				"y": -3.1753979241,
				"z": 0.9594602246,
				"element": "H" 
			},
			{
				"x": -3.7660867651,
				"y": -3.0868439373,
				"z": 2.0206446395,
				"element": "H" 
			},
			{
				"x": -4.2349626136,
				"y": -1.4158368857,
				"z": -0.5101363411,
				"element": "H" 
			},
			{
				"x": -4.4158305286,
				"y": -0.8688851794,
				"z": 1.142509532,
				"element": "H" 
			},
			{
				"x": -1.773972225,
				"y": -1.6998413048,
				"z": -0.1743629814,
				"element": "H" 
			},
			{
				"x": -2.3242555703,
				"y": -0.0583546185,
				"z": 0.0860747126,
				"element": "H" 
			},
			{
				"x": -2.3610060286,
				"y": -0.4920578655,
				"z": 2.5816109188,
				"element": "H" 
			},
			{
				"x": -1.6530510889,
				"y": -2.0727452325,
				"z": 2.2996712347,
				"element": "H" 
			},
			{
				"x": -0.362763316,
				"y": 0.5980645181,
				"z": 1.5377809662,
				"element": "H" 
			},
			{
				"x": 0.0143172347,
				"y": -0.3322882392,
				"z": 2.9775817541,
				"element": "H" 
			},
			{
				"x": 0.5150396532,
				"y": -1.2496468248,
				"z": 0.0945335458,
				"element": "H" 
			},
			{
				"x": 0.7368507034,
				"y": -2.2646056198,
				"z": 1.5088596116,
				"element": "H" 
			},
			{
				"x": 2.4520316306,
				"y": -0.6607125912,
				"z": 2.3974747086,
				"element": "H" 
			},
			{
				"x": 2.8940255377,
				"y": -1.4012821656,
				"z": 0.8692456928,
				"element": "H" 
			},
			{
				"x": 2.157064202,
				"y": 0.680685805,
				"z": -0.3470830116,
				"element": "H" 
			},
			{
				"x": 1.7814650284,
				"y": 1.4350653747,
				"z": 1.1925061899,
				"element": "H" 
			},
			{
				"x": 4.5498689604,
				"y": 0.3915047011,
				"z": 0.3941089929,
				"element": "H" 
			},
			{
				"x": 4.1785054118,
				"y": 1.1997421304,
				"z": 1.9007946023,
				"element": "H" 
			},
			{
				"x": 3.9811855127,
				"y": 2.4178138021,
				"z": -0.9116234605,
				"element": "H" 
			},
			{
				"x": 5.2946280947,
				"y": 2.6853072619,
				"z": 0.2169969205,
				"element": "H" 
			},
			{
				"x": 3.7250796185,
				"y": 4.6103850736,
				"z": 0.1056940647,
				"element": "H" 
			},
			{
				"x": 2.3879985763,
				"y": 3.6062869465,
				"z": 0.6329495303,
				"element": "H" 
			},
			{
				"x": 4.9081198575,
				"y": 4.1740556544,
				"z": 2.2681350122,
				"element": "H" 
			},
			{
				"x": 3.5047035437,
				"y": 3.2459523832,
				"z": 2.8290422991,
				"element": "H" 
			},
			{
				"x": 3.3289191907,
				"y": 5.4756551357,
				"z": 3.4228104384,
				"element": "H" 
			}
		],
		 "valence_orbital": [ 
			{
				"type": "occ",
				"energy": -0.30561,
				"method": "rhf"
			},
			{
				"type": "occ",
				"energy": -0.3017,
				"method": "rhf"
			},
			{
				"type": "occ",
				"energy": -0.29904,
				"method": "rhf"
			},
			{
				"type": "occ",
				"energy": -0.29579,
				"method": "rhf"
			},
			{
				"type": "occ",
				"energy": -0.26053,
				"method": "rhf"
			},
			{
				"type": "unocc",
				"energy": 0.07889,
				"method": "rhf"
			},
			{
				"type": "unocc",
				"energy": 0.08016,
				"method": "rhf"
			},
			{
				"type": "unocc",
				"energy": 0.08312,
				"method": "rhf"
			},
			{
				"type": "unocc",
				"energy": 0.10194,
				"method": "rhf"
			},
			{
				"type": "unocc",
				"energy": 0.10753,
				"method": "rhf"
			}
		],
		"cosmo_sigma_profile": { 
			"-0.025": 0.0,
			"-0.024": 0.0,
			"-0.023": 0.0,
			"-0.022": 0.0,
			"-0.021": 0.0,
			"-0.02": 0.0,
			"-0.019": 0.0,
			"-0.018": 0.0,
			"-0.017": 0.0,
			"-0.016": 0.183848010817,
			"-0.015": 0.827662549432,
			"-0.014": 1.00016129854,
			"-0.013": 1.33228446222,
			"-0.012": 0.437952702246,
			"-0.011": 1.12199045695,
			"-0.01": 0.436886811963,
			"-0.009": 0.67290710146,
			"-0.008": 0.673967372647,
			"-0.007": 1.04167442331,
			"-0.006": 1.18430996096,
			"-0.005": 1.01748787066,
			"-0.004": 0.983943313328,
			"-0.003": 8.08161023801,
			"-0.002": 44.2118854356,
			"-0.001": 78.2926692592,
			"0.0": 80.5017199223,
			"0.001": 67.6668681519,
			"0.002": 27.5560259729,
			"0.003": 1.65932964511,
			"0.004": 1.67691291866,
			"0.005": 1.19703059705,
			"0.006": 0.989875179155,
			"0.007": 1.5986323229,
			"0.008": 1.01485844225,
			"0.009": 1.21776237728,
			"0.01": 1.8071116822,
			"0.011": 1.12937087739,
			"0.012": 1.05127262712,
			"0.013": 1.72240122348,
			"0.014": 2.15727154729,
			"0.015": 1.45625568073,
			"0.016": 0.0,
			"0.017": 0.0,
			"0.018": 0.0,
			"0.019": 0.0,
			"0.02": 0.0,
			"0.021": 0.0,
			"0.022": 0.0,
			"0.023": 0.0,
			"0.024": 0.0,
			"0.025": 0.0
		}
	}
}
