{
	 "smiles": "CN(C)CC1=CC(NC(=O)C2=NON=C2N)=CC=C1", 
	 "Tm": 416.15, 
	 "num_atms": 34, 
	 "gaussian": { 
		 "optdone": 1, 
		 "sigma_profile": "yes", 
		 "theory": "DFT", 
		 "functional": "B3LYP", 
		 "basiset": "6-31G**", 
		 "properties": { 
			 "R2extent": 8151.6741, 
			 "electric_dipole_moment_norm": 5.43152866236, 
			 "electric_quadrupole_moment_norm": 34.0918658015, 
			 "total_energy": -890.436685629, 
			 "HOMO_LUMO_gap": 0.14349, 
			 "cosmo_polarized_energy": -21.93, 
			 "cosmo_cavitation_energy": 38.26, 
			 "cosmo_dispersion_energy": -26.89, 
			 "cosmo_repulsion_energy": 2.06, 
			 "cosmo_total_nonelectrostatic_energy": 13.43, 
			 "SMD_solvation_energy": 4.26 
		},
		"coords": [
			{
				"x": 3.4719500928,
				"y": -0.2630637807,
				"z": 1.9197550968,
				"element": "C" 
			},
			{
				"x": 2.391104961,
				"y": 0.681720532,
				"z": 2.1614839814,
				"element": "N" 
			},
			{
				"x": 2.3372726682,
				"y": 1.7302718563,
				"z": 1.1541496778,
				"element": "C" 
			},
			{
				"x": 1.0952630756,
				"y": 0.0529242557,
				"z": 2.4421799909,
				"element": "C" 
			},
			{
				"x": 0.4542952602,
				"y": -0.7404212218,
				"z": 1.3083688671,
				"element": "C" 
			},
			{
				"x": -0.4127482097,
				"y": -0.1172559398,
				"z": 0.4075672943,
				"element": "C" 
			},
			{
				"x": -0.9823791803,
				"y": -0.82017634,
				"z": -0.6656875124,
				"element": "C" 
			},
			{
				"x": -1.8588495036,
				"y": -0.0992020222,
				"z": -1.5083399505,
				"element": "N" 
			},
			{
				"x": -2.4931020769,
				"y": -0.5324379523,
				"z": -2.649940968,
				"element": "C" 
			},
			{
				"x": -2.4134399989,
				"y": -1.6505860897,
				"z": -3.1312048748,
				"element": "O" 
			},
			{
				"x": -3.3310063471,
				"y": 0.5447546288,
				"z": -3.2777443286,
				"element": "C" 
			},
			{
				"x": -3.6107888376,
				"y": 0.5289193632,
				"z": -4.5573656626,
				"element": "N" 
			},
			{
				"x": -4.3414618581,
				"y": 1.6489878395,
				"z": -4.7993203741,
				"element": "O" 
			},
			{
				"x": -4.5569155437,
				"y": 2.3816334284,
				"z": -3.6448563953,
				"element": "N" 
			},
			{
				"x": -3.9343959351,
				"y": 1.7176014358,
				"z": -2.7044347657,
				"element": "C" 
			},
			{
				"x": -3.8356286193,
				"y": 2.1603838407,
				"z": -1.3872655758,
				"element": "N" 
			},
			{
				"x": -0.6823044882,
				"y": -2.1782610194,
				"z": -0.8461541231,
				"element": "C" 
			},
			{
				"x": 0.1768216728,
				"y": -2.8011660911,
				"z": 0.0591076836,
				"element": "C" 
			},
			{
				"x": 0.7400374864,
				"y": -2.1009034132,
				"z": 1.1250964418,
				"element": "C" 
			},
			{
				"x": 3.3762184206,
				"y": -0.8315307674,
				"z": 0.9774744889,
				"element": "H" 
			},
			{
				"x": 3.524280333,
				"y": -0.9820951755,
				"z": 2.7447137134,
				"element": "H" 
			},
			{
				"x": 4.42270369,
				"y": 0.2800524403,
				"z": 1.887595424,
				"element": "H" 
			},
			{
				"x": 2.1208873725,
				"y": 1.3691299841,
				"z": 0.1325434291,
				"element": "H" 
			},
			{
				"x": 3.3001385397,
				"y": 2.2517694739,
				"z": 1.1264912489,
				"element": "H" 
			},
			{
				"x": 1.5679769666,
				"y": 2.462521289,
				"z": 1.4245767048,
				"element": "H" 
			},
			{
				"x": 0.4096029226,
				"y": 0.8496818232,
				"z": 2.7565697629,
				"element": "H" 
			},
			{
				"x": 1.2358146695,
				"y": -0.6090846752,
				"z": 3.3051821409,
				"element": "H" 
			},
			{
				"x": -0.6584050105,
				"y": 0.934611913,
				"z": 0.5456350942,
				"element": "H" 
			},
			{
				"x": -1.9708389577,
				"y": 0.8822677125,
				"z": -1.2771920425,
				"element": "H" 
			},
			{
				"x": -4.3321390081,
				"y": 3.0340575817,
				"z": -1.2464883526,
				"element": "H" 
			},
			{
				"x": -4.1378546123,
				"y": 1.4673502611,
				"z": -0.7098139302,
				"element": "H" 
			},
			{
				"x": -1.117915525,
				"y": -2.719350967,
				"z": -1.6735755445,
				"element": "H" 
			},
			{
				"x": 0.4029217727,
				"y": -3.855377446,
				"z": -0.0735081341,
				"element": "H" 
			},
			{
				"x": 1.395983808,
				"y": -2.6117267578,
				"z": 1.8247014939,
				"element": "H" 
			}
		],
		 "valence_orbital": [ 
			{
				"type": "occ",
				"energy": -0.27997,
				"method": "rhf"
			},
			{
				"type": "occ",
				"energy": -0.27276,
				"method": "rhf"
			},
			{
				"type": "occ",
				"energy": -0.25548,
				"method": "rhf"
			},
			{
				"type": "occ",
				"energy": -0.23049,
				"method": "rhf"
			},
			{
				"type": "occ",
				"energy": -0.2111,
				"method": "rhf"
			},
			{
				"type": "unocc",
				"energy": -0.06761,
				"method": "rhf"
			},
			{
				"type": "unocc",
				"energy": -0.02243,
				"method": "rhf"
			},
			{
				"type": "unocc",
				"energy": -0.01126,
				"method": "rhf"
			},
			{
				"type": "unocc",
				"energy": 0.01329,
				"method": "rhf"
			},
			{
				"type": "unocc",
				"energy": 0.03711,
				"method": "rhf"
			}
		],
		"cosmo_sigma_profile": { 
			"-0.025": 0.0,
			"-0.024": 0.0,
			"-0.023": 0.0,
			"-0.022": 0.0,
			"-0.021": 0.0,
			"-0.02": 0.0,
			"-0.019": 0.0,
			"-0.018": 0.0,
			"-0.017": 0.0,
			"-0.016": 0.0,
			"-0.015": 1.31701437315,
			"-0.014": 3.52604901583,
			"-0.013": 3.41255726525,
			"-0.012": 3.44240988142,
			"-0.011": 3.62900710854,
			"-0.01": 4.8587868842,
			"-0.009": 3.84375929538,
			"-0.008": 3.75324898102,
			"-0.007": 4.14823166632,
			"-0.006": 5.23980951424,
			"-0.005": 12.6764930694,
			"-0.004": 24.5709937296,
			"-0.003": 24.1799977477,
			"-0.002": 19.8967116226,
			"-0.001": 25.2271359099,
			"0.0": 30.5632661861,
			"0.001": 18.0304038921,
			"0.002": 15.646026316,
			"0.003": 14.4984816737,
			"0.004": 15.3518285969,
			"0.005": 20.080123773,
			"0.006": 10.871636188,
			"0.007": 4.87912279716,
			"0.008": 4.37380315658,
			"0.009": 5.59822816754,
			"0.01": 5.94745642779,
			"0.011": 5.9668888539,
			"0.012": 5.01801885508,
			"0.013": 1.69493568152,
			"0.014": 0.152182384115,
			"0.015": 0.507120003165,
			"0.016": 0.37233810292,
			"0.017": 0.0387246818011,
			"0.018": 0.0,
			"0.019": 0.0,
			"0.02": 0.0,
			"0.021": 0.0,
			"0.022": 0.0,
			"0.023": 0.0,
			"0.024": 0.0,
			"0.025": 0.0
		}
	}
}
