{
	 "smiles": "ClC1=C(C=CC=N1)C(=O)NC1CCCCC1", 
	 "Tm": 406.15, 
	 "num_atms": 31, 
	 "gaussian": { 
		 "optdone": 1, 
		 "sigma_profile": "yes", 
		 "theory": "DFT", 
		 "functional": "B3LYP", 
		 "basiset": "6-31G**", 
		 "properties": { 
			 "R2extent": 4306.3385, 
			 "electric_dipole_moment_norm": 4.32462095564, 
			 "electric_quadrupole_moment_norm": 15.601256967, 
			 "total_energy": -1111.26104044, 
			 "HOMO_LUMO_gap": 0.20191, 
			 "cosmo_polarized_energy": -13.68, 
			 "cosmo_cavitation_energy": 34.72, 
			 "cosmo_dispersion_energy": -24.11, 
			 "cosmo_repulsion_energy": 1.91, 
			 "cosmo_total_nonelectrostatic_energy": 12.52, 
			 "SMD_solvation_energy": 3.78 
		},
		"coords": [
			{
				"x": -0.1275397555,
				"y": -2.6498077612,
				"z": 1.1440885018,
				"element": "Cl" 
			},
			{
				"x": -1.0411080005,
				"y": -1.1931510394,
				"z": 1.5472571215,
				"element": "C" 
			},
			{
				"x": -1.665986261,
				"y": -0.4555610433,
				"z": 0.528040792,
				"element": "C" 
			},
			{
				"x": -2.4383265054,
				"y": 0.6343410202,
				"z": 0.9457627205,
				"element": "C" 
			},
			{
				"x": -2.5073144295,
				"y": 0.9661236344,
				"z": 2.2961885824,
				"element": "C" 
			},
			{
				"x": -1.8127350557,
				"y": 0.1689470961,
				"z": 3.2033189552,
				"element": "C" 
			},
			{
				"x": -1.0999371944,
				"y": -0.9028680293,
				"z": 2.8344092307,
				"element": "N" 
			},
			{
				"x": -1.7028922861,
				"y": -0.8168132509,
				"z": -0.9415873902,
				"element": "C" 
			},
			{
				"x": -2.7782636736,
				"y": -1.0995541654,
				"z": -1.4594102891,
				"element": "O" 
			},
			{
				"x": -0.53961894,
				"y": -0.7813473504,
				"z": -1.6509006586,
				"element": "N" 
			},
			{
				"x": 0.7554604128,
				"y": -0.2102588606,
				"z": -1.2791095349,
				"element": "C" 
			},
			{
				"x": 1.893991934,
				"y": -1.0890256041,
				"z": -1.8227813853,
				"element": "C" 
			},
			{
				"x": 3.2733363233,
				"y": -0.5048199475,
				"z": -1.4801067522,
				"element": "C" 
			},
			{
				"x": 3.4126748622,
				"y": 0.9460274449,
				"z": -1.9649809492,
				"element": "C" 
			},
			{
				"x": 2.2780874054,
				"y": 1.8259387376,
				"z": -1.4193478734,
				"element": "C" 
			},
			{
				"x": 0.8980943978,
				"y": 1.2452097731,
				"z": -1.7667187507,
				"element": "C" 
			},
			{
				"x": -2.9839226499,
				"y": 1.2043738863,
				"z": 0.2002042308,
				"element": "H" 
			},
			{
				"x": -3.0918243436,
				"y": 1.8133972631,
				"z": 2.6384418443,
				"element": "H" 
			},
			{
				"x": -1.8308017408,
				"y": 0.3838518598,
				"z": 4.2693554147,
				"element": "H" 
			},
			{
				"x": -0.6805927055,
				"y": -1.0006179725,
				"z": -2.6308166174,
				"element": "H" 
			},
			{
				"x": 0.8108922902,
				"y": -0.2162890643,
				"z": -0.1862871564,
				"element": "H" 
			},
			{
				"x": 1.7913494878,
				"y": -1.1614487338,
				"z": -2.9161738311,
				"element": "H" 
			},
			{
				"x": 1.7886348235,
				"y": -2.1031652423,
				"z": -1.4244753318,
				"element": "H" 
			},
			{
				"x": 3.4176385788,
				"y": -0.5393161672,
				"z": -0.3912516818,
				"element": "H" 
			},
			{
				"x": 4.0595021225,
				"y": -1.1317316885,
				"z": -1.9161113061,
				"element": "H" 
			},
			{
				"x": 3.389040075,
				"y": 0.9652088097,
				"z": -3.0638644584,
				"element": "H" 
			},
			{
				"x": 4.3856115613,
				"y": 1.3536800432,
				"z": -1.6669114595,
				"element": "H" 
			},
			{
				"x": 2.3731491472,
				"y": 1.9027675619,
				"z": -0.326922322,
				"element": "H" 
			},
			{
				"x": 2.3617063314,
				"y": 2.8467542045,
				"z": -1.8097425193,
				"element": "H" 
			},
			{
				"x": 0.0984955446,
				"y": 1.8556940586,
				"z": -1.3306655743,
				"element": "H" 
			},
			{
				"x": 0.7519982436,
				"y": 1.2666605271,
				"z": -2.8563015522,
				"element": "H" 
			}
		],
		 "valence_orbital": [ 
			{
				"type": "occ",
				"energy": -0.30421,
				"method": "rhf"
			},
			{
				"type": "occ",
				"energy": -0.28354,
				"method": "rhf"
			},
			{
				"type": "occ",
				"energy": -0.26788,
				"method": "rhf"
			},
			{
				"type": "occ",
				"energy": -0.25196,
				"method": "rhf"
			},
			{
				"type": "occ",
				"energy": -0.24573,
				"method": "rhf"
			},
			{
				"type": "unocc",
				"energy": -0.04382,
				"method": "rhf"
			},
			{
				"type": "unocc",
				"energy": -0.03418,
				"method": "rhf"
			},
			{
				"type": "unocc",
				"energy": 0.02092,
				"method": "rhf"
			},
			{
				"type": "unocc",
				"energy": 0.03576,
				"method": "rhf"
			},
			{
				"type": "unocc",
				"energy": 0.07635,
				"method": "rhf"
			}
		],
		"cosmo_sigma_profile": { 
			"-0.025": 0.0,
			"-0.024": 0.0,
			"-0.023": 0.0,
			"-0.022": 0.0,
			"-0.021": 0.0,
			"-0.02": 0.0,
			"-0.019": 0.0,
			"-0.018": 0.0,
			"-0.017": 0.0,
			"-0.016": 0.0,
			"-0.015": 0.0,
			"-0.014": 0.0563454440477,
			"-0.013": 0.757430144897,
			"-0.012": 1.1504058191,
			"-0.011": 0.683941566458,
			"-0.01": 1.03460976185,
			"-0.009": 1.43983493228,
			"-0.008": 5.69049431473,
			"-0.007": 9.24151575873,
			"-0.006": 7.71215555444,
			"-0.005": 7.22560488962,
			"-0.004": 10.6977258749,
			"-0.003": 22.7469441368,
			"-0.002": 33.746973468,
			"-0.001": 37.4092350146,
			"0.0": 40.5756526758,
			"0.001": 29.1758705493,
			"0.002": 10.495933869,
			"0.003": 9.05618695756,
			"0.004": 9.37966164487,
			"0.005": 6.30776384202,
			"0.006": 3.51063535741,
			"0.007": 3.06646514474,
			"0.008": 2.58570702274,
			"0.009": 2.27405438932,
			"0.01": 2.79461987151,
			"0.011": 2.63120931827,
			"0.012": 2.53768911772,
			"0.013": 6.79670855089,
			"0.014": 3.96381703644,
			"0.015": 0.194518001828,
			"0.016": 0.0,
			"0.017": 0.0,
			"0.018": 0.0,
			"0.019": 0.0,
			"0.02": 0.0,
			"0.021": 0.0,
			"0.022": 0.0,
			"0.023": 0.0,
			"0.024": 0.0,
			"0.025": 0.0
		}
	}
}
