{
	 "smiles": "BrC1=CC2=C(C=C1)C(=O)NC=N2", 
	 "Tm": 536.15, 
	 "num_atms": 17, 
	 "gaussian": { 
		 "optdone": 1, 
		 "sigma_profile": "yes", 
		 "theory": "DFT", 
		 "functional": "B3LYP", 
		 "basiset": "6-31G**", 
		 "properties": { 
			 "R2extent": 5027.7529, 
			 "electric_dipole_moment_norm": 2.1927714564, 
			 "electric_quadrupole_moment_norm": 14.3014682589, 
			 "total_energy": -3064.02068348, 
			 "HOMO_LUMO_gap": 0.18985, 
			 "cosmo_polarized_energy": -12.99, 
			 "cosmo_cavitation_energy": 24.14, 
			 "cosmo_dispersion_energy": -18.67, 
			 "cosmo_repulsion_energy": 1.46, 
			 "cosmo_total_nonelectrostatic_energy": 6.94, 
			 "SMD_solvation_energy": 2.4 
		},
		"coords": [
			{
				"x": -4.308739216,
				"y": -0.1160608657,
				"z": -2.6835558952,
				"element": "Br" 
			},
			{
				"x": -2.9646104509,
				"y": -0.3296861659,
				"z": -1.34480741,
				"element": "C" 
			},
			{
				"x": -1.7103215485,
				"y": -0.7869498573,
				"z": -1.712500585,
				"element": "C" 
			},
			{
				"x": -0.7175013635,
				"y": -0.9449772567,
				"z": -0.7265228526,
				"element": "C" 
			},
			{
				"x": -1.0279884162,
				"y": -0.6313399629,
				"z": 0.6196680536,
				"element": "C" 
			},
			{
				"x": -2.3081266688,
				"y": -0.1700698529,
				"z": 0.9612770084,
				"element": "C" 
			},
			{
				"x": -3.2816590634,
				"y": -0.0162714702,
				"z": -0.0126222942,
				"element": "C" 
			},
			{
				"x": -0.0021758992,
				"y": -0.791507308,
				"z": 1.6570522679,
				"element": "C" 
			},
			{
				"x": -0.1256555611,
				"y": -0.5617294376,
				"z": 2.85073028,
				"element": "O" 
			},
			{
				"x": 1.2137961059,
				"y": -1.2615491523,
				"z": 1.1334950714,
				"element": "N" 
			},
			{
				"x": 1.4197545628,
				"y": -1.5390406203,
				"z": -0.1944723782,
				"element": "C" 
			},
			{
				"x": 0.5342891525,
				"y": -1.4059707827,
				"z": -1.1228766438,
				"element": "N" 
			},
			{
				"x": -1.4684850126,
				"y": -1.0278408277,
				"z": -2.7402629969,
				"element": "H" 
			},
			{
				"x": -2.5127590858,
				"y": 0.0610871228,
				"z": 2.0014711403,
				"element": "H" 
			},
			{
				"x": -4.2735982777,
				"y": 0.3392084166,
				"z": 0.2397269281,
				"element": "H" 
			},
			{
				"x": 1.9597378862,
				"y": -1.3910859561,
				"z": 1.8064475255,
				"element": "H" 
			},
			{
				"x": 2.4163428564,
				"y": -1.8960160231,
				"z": -0.4469472192,
				"element": "H" 
			}
		],
		 "valence_orbital": [ 
			{
				"type": "occ",
				"energy": -0.29489,
				"method": "rhf"
			},
			{
				"type": "occ",
				"energy": -0.28927,
				"method": "rhf"
			},
			{
				"type": "occ",
				"energy": -0.27376,
				"method": "rhf"
			},
			{
				"type": "occ",
				"energy": -0.25734,
				"method": "rhf"
			},
			{
				"type": "occ",
				"energy": -0.24408,
				"method": "rhf"
			},
			{
				"type": "unocc",
				"energy": -0.05423,
				"method": "rhf"
			},
			{
				"type": "unocc",
				"energy": -0.04982,
				"method": "rhf"
			},
			{
				"type": "unocc",
				"energy": -0.00014,
				"method": "rhf"
			},
			{
				"type": "unocc",
				"energy": 0.01479,
				"method": "rhf"
			},
			{
				"type": "unocc",
				"energy": 0.05925,
				"method": "rhf"
			}
		],
		"cosmo_sigma_profile": { 
			"-0.025": 0.0,
			"-0.024": 0.0,
			"-0.023": 0.0,
			"-0.022": 0.0,
			"-0.021": 0.0,
			"-0.02": 0.0,
			"-0.019": 0.0,
			"-0.018": 0.0,
			"-0.017": 1.03100606011,
			"-0.016": 1.60251332561,
			"-0.015": 1.49159384288,
			"-0.014": 1.60350312,
			"-0.013": 0.847675358595,
			"-0.012": 0.722660584091,
			"-0.011": 2.1352430941,
			"-0.01": 3.17686237789,
			"-0.009": 2.40254729342,
			"-0.008": 2.98850939077,
			"-0.007": 5.97784840511,
			"-0.006": 6.10036831965,
			"-0.005": 8.5049682531,
			"-0.004": 9.34614616318,
			"-0.003": 12.0841114322,
			"-0.002": 13.2682544363,
			"-0.001": 11.7011195203,
			"0.0": 15.3324373493,
			"0.001": 24.6483744184,
			"0.002": 17.876478945,
			"0.003": 11.6701817472,
			"0.004": 13.7840502638,
			"0.005": 3.58178705435,
			"0.006": 2.84499267494,
			"0.007": 2.18936082347,
			"0.008": 2.40603820321,
			"0.009": 2.11463082222,
			"0.01": 2.39354579756,
			"0.011": 3.3026419638,
			"0.012": 5.62752881542,
			"0.013": 4.11055692873,
			"0.014": 0.835273656922,
			"0.015": 0.497193909549,
			"0.016": 0.00541184582518,
			"0.017": 0.0,
			"0.018": 0.0,
			"0.019": 0.0,
			"0.02": 0.0,
			"0.021": 0.0,
			"0.022": 0.0,
			"0.023": 0.0,
			"0.024": 0.0,
			"0.025": 0.0
		}
	}
}
