{
	 "smiles": "COC(=O)C1=C(I)C(=C(SC)S1)S(=O)(=O)C(C)C", 
	 "Tm": 467.15, 
	 "num_atms": 31, 
	 "gaussian": { 
		 "optdone": 1, 
		 "sigma_profile": "no", 
		 "theory": "DFT", 
		 "functional": "B3LYP", 
		 "basiset": "6-31G**", 
		 "properties": { 
			 "R2extent": 7578.2409, 
			 "electric_dipole_moment_norm": 6.32007903748, 
			 "electric_quadrupole_moment_norm": 29.4920466397, 
			 "total_energy": -1895.65949231, 
			 "HOMO_LUMO_gap": 0.1599, 
			 "cosmo_polarized_energy": -73330.33, 
			 "cosmo_cavitation_energy": 40.02, 
			 "cosmo_dispersion_energy": -30.48, 
			 "cosmo_repulsion_energy": 2.2, 
			 "cosmo_total_nonelectrostatic_energy": 11.75, 
			 "SMD_solvation_energy": 7.09 
		},
		"coords": [
			{
				"x": -5.4128256561,
				"y": -2.494476439,
				"z": -0.3010659344,
				"element": "C" 
			},
			{
				"x": -3.9879207209,
				"y": -2.3510223471,
				"z": -0.4155452488,
				"element": "O" 
			},
			{
				"x": -3.5683099458,
				"y": -1.3424106675,
				"z": -1.2234136812,
				"element": "C" 
			},
			{
				"x": -4.3248678444,
				"y": -0.6016261559,
				"z": -1.8135790533,
				"element": "O" 
			},
			{
				"x": -2.0944869741,
				"y": -1.3014745208,
				"z": -1.2530823472,
				"element": "C" 
			},
			{
				"x": -1.2300865848,
				"y": -0.4672492271,
				"z": -1.930399779,
				"element": "C" 
			},
			{
				"x": -1.9410029194,
				"y": 1.0021449168,
				"z": -3.2551519537,
				"element": "I" 
			},
			{
				"x": 0.1547145487,
				"y": -0.7591449619,
				"z": -1.6621787345,
				"element": "C" 
			},
			{
				"x": 0.3208901164,
				"y": -1.8493622537,
				"z": -0.8054664342,
				"element": "C" 
			},
			{
				"x": 1.814833326,
				"y": -2.6189130612,
				"z": -0.2741798456,
				"element": "S" 
			},
			{
				"x": 1.1821721035,
				"y": -3.8126880568,
				"z": 0.9581737253,
				"element": "C" 
			},
			{
				"x": -1.2184792085,
				"y": -2.4792523253,
				"z": -0.3021406799,
				"element": "S" 
			},
			{
				"x": 1.5973822905,
				"y": 0.1005367645,
				"z": -2.3405059694,
				"element": "S" 
			},
			{
				"x": 2.7211920633,
				"y": -0.8411466788,
				"z": -2.1780332334,
				"element": "O" 
			},
			{
				"x": 1.2693700094,
				"y": 0.6314180502,
				"z": -3.6691685868,
				"element": "O" 
			},
			{
				"x": 1.968898254,
				"y": 1.5332562874,
				"z": -1.2340629339,
				"element": "C" 
			},
			{
				"x": 0.9238433619,
				"y": 2.6409951538,
				"z": -1.3332416334,
				"element": "C" 
			},
			{
				"x": 2.2484497111,
				"y": 1.0774529798,
				"z": 0.1970513049,
				"element": "C" 
			},
			{
				"x": -5.857992634,
				"y": -1.5851157514,
				"z": 0.1099354097,
				"element": "H" 
			},
			{
				"x": -5.857195864,
				"y": -2.6961529296,
				"z": -1.2786598902,
				"element": "H" 
			},
			{
				"x": -5.5684934337,
				"y": -3.3366661421,
				"z": 0.37258901,
				"element": "H" 
			},
			{
				"x": 0.5434551302,
				"y": -4.5724406321,
				"z": 0.5011824797,
				"element": "H" 
			},
			{
				"x": 0.6564172468,
				"y": -3.3180585053,
				"z": 1.7782830747,
				"element": "H" 
			},
			{
				"x": 2.0767806563,
				"y": -4.2999306873,
				"z": 1.3524171353,
				"element": "H" 
			},
			{
				"x": 2.9040190644,
				"y": 1.8634709199,
				"z": -1.7049124277,
				"element": "H" 
			},
			{
				"x": 1.2927170436,
				"y": 3.5212065547,
				"z": -0.7963699171,
				"element": "H" 
			},
			{
				"x": -0.0227146168,
				"y": 2.3430289726,
				"z": -0.8730490547,
				"element": "H" 
			},
			{
				"x": 0.7341815669,
				"y": 2.9208239001,
				"z": -2.3706291781,
				"element": "H" 
			},
			{
				"x": 3.0096089481,
				"y": 0.2963126065,
				"z": 0.2283252847,
				"element": "H" 
			},
			{
				"x": 1.3395313641,
				"y": 0.7038681669,
				"z": 0.6792013797,
				"element": "H" 
			},
			{
				"x": 2.6048195973,
				"y": 1.9341160697,
				"z": 0.7781777124,
				"element": "H" 
			}
		],
		 "valence_orbital": [ 
			{
				"type": "occ",
				"energy": -0.29208,
				"method": "rhf"
			},
			{
				"type": "occ",
				"energy": -0.28099,
				"method": "rhf"
			},
			{
				"type": "occ",
				"energy": -0.25556,
				"method": "rhf"
			},
			{
				"type": "occ",
				"energy": -0.24506,
				"method": "rhf"
			},
			{
				"type": "occ",
				"energy": -0.23067,
				"method": "rhf"
			},
			{
				"type": "unocc",
				"energy": -0.07077,
				"method": "rhf"
			},
			{
				"type": "unocc",
				"energy": -0.04668,
				"method": "rhf"
			},
			{
				"type": "unocc",
				"energy": -0.02145,
				"method": "rhf"
			},
			{
				"type": "unocc",
				"energy": -0.00183,
				"method": "rhf"
			},
			{
				"type": "unocc",
				"energy": 0.01776,
				"method": "rhf"
			}
		],
		"cosmo_sigma_profile": { 
			"0.0": 0.0,
			"0.0": 0.0,
			"0.0": 0.0,
			"0.0": 0.0,
			"0.0": 0.0,
			"0.0": 0.0,
			"0.0": 0.0,
			"0.0": 0.0,
			"0.0": 0.0,
			"0.0": 0.0,
			"0.0": 0.0,
			"0.0": 0.0,
			"0.0": 0.0,
			"0.0": 0.0,
			"0.0": 0.0,
			"0.0": 0.0,
			"0.0": 0.0,
			"0.0": 0.0,
			"0.0": 0.0,
			"0.0": 0.0,
			"0.0": 0.0,
			"0.0": 0.0,
			"0.0": 0.0,
			"0.0": 0.0,
			"0.0": 0.0,
			"0.0": 0.0,
			"0.0": 0.0,
			"0.0": 0.0,
			"0.0": 0.0,
			"0.0": 0.0,
			"0.0": 0.0,
			"0.0": 0.0,
			"0.0": 0.0,
			"0.0": 0.0,
			"0.0": 0.0,
			"0.0": 0.0,
			"0.0": 0.0,
			"0.0": 0.0,
			"0.0": 0.0,
			"0.0": 0.0,
			"0.0": 0.0,
			"0.0": 0.0,
			"0.0": 0.0,
			"0.0": 0.0,
			"0.0": 0.0,
			"0.0": 0.0,
			"0.0": 0.0,
			"0.0": 0.0,
			"0.0": 0.0,
			"0.0": 0.0,
			"0.0": 0.0
		}
	}
}
