{
	 "smiles": "O=C1NC2=C(C=CC=C2)N1C1=CCCCC1", 
	 "Tm": 455.15, 
	 "num_atms": 30, 
	 "gaussian": { 
		 "optdone": 1, 
		 "sigma_profile": "yes", 
		 "theory": "DFT", 
		 "functional": "B3LYP", 
		 "basiset": "6-31G**", 
		 "properties": { 
			 "R2extent": 4126.6763, 
			 "electric_dipole_moment_norm": 2.15724910245, 
			 "electric_quadrupole_moment_norm": 16.8149084737, 
			 "total_energy": -688.578587576, 
			 "HOMO_LUMO_gap": 0.19676, 
			 "cosmo_polarized_energy": -11.35, 
			 "cosmo_cavitation_energy": 31.91, 
			 "cosmo_dispersion_energy": -23.53, 
			 "cosmo_repulsion_energy": 1.84, 
			 "cosmo_total_nonelectrostatic_energy": 10.22, 
			 "SMD_solvation_energy": 5.31 
		},
		"coords": [
			{
				"x": -3.193614866,
				"y": 1.0779448772,
				"z": 1.4497189646,
				"element": "O" 
			},
			{
				"x": -2.0595924573,
				"y": 1.4186848427,
				"z": 1.1574566072,
				"element": "C" 
			},
			{
				"x": -1.4467855809,
				"y": 2.6347900851,
				"z": 1.4446883191,
				"element": "N" 
			},
			{
				"x": -0.1417487794,
				"y": 2.6697699996,
				"z": 0.9708679899,
				"element": "C" 
			},
			{
				"x": 0.0929432705,
				"y": 1.4240529062,
				"z": 0.3516749188,
				"element": "C" 
			},
			{
				"x": 1.3132857979,
				"y": 1.1519122914,
				"z": -0.256249129,
				"element": "C" 
			},
			{
				"x": 2.2982503905,
				"y": 2.1473351691,
				"z": -0.2195183182,
				"element": "C" 
			},
			{
				"x": 2.0664294337,
				"y": 3.3763405531,
				"z": 0.4055280806,
				"element": "C" 
			},
			{
				"x": 0.8344832872,
				"y": 3.6566186382,
				"z": 1.0101340859,
				"element": "C" 
			},
			{
				"x": -1.0860462488,
				"y": 0.6736548141,
				"z": 0.4680842039,
				"element": "N" 
			},
			{
				"x": -1.312380504,
				"y": -0.6605837466,
				"z": 0.0056976104,
				"element": "C" 
			},
			{
				"x": -0.4337611234,
				"y": -1.631515402,
				"z": 0.2899773243,
				"element": "C" 
			},
			{
				"x": -0.5916910793,
				"y": -3.0540293353,
				"z": -0.1842600064,
				"element": "C" 
			},
			{
				"x": -2.0107589461,
				"y": -3.3446894953,
				"z": -0.6949281832,
				"element": "C" 
			},
			{
				"x": -2.5081298315,
				"y": -2.2054107513,
				"z": -1.593033469,
				"element": "C" 
			},
			{
				"x": -2.5585352189,
				"y": -0.8761685559,
				"z": -0.8248744354,
				"element": "C" 
			},
			{
				"x": -1.9335110793,
				"y": 3.3592396501,
				"z": 1.9470670445,
				"element": "H" 
			},
			{
				"x": 1.4926991467,
				"y": 0.2006265286,
				"z": -0.7434461608,
				"element": "H" 
			},
			{
				"x": 3.2595634902,
				"y": 1.9557549107,
				"z": -0.6862007653,
				"element": "H" 
			},
			{
				"x": 2.8494796146,
				"y": 4.1279447162,
				"z": 0.4229457243,
				"element": "H" 
			},
			{
				"x": 0.6472117633,
				"y": 4.6128059453,
				"z": 1.4888938569,
				"element": "H" 
			},
			{
				"x": 0.4364410012,
				"y": -1.3973049263,
				"z": 0.8985118752,
				"element": "H" 
			},
			{
				"x": -0.3351983874,
				"y": -3.7368967484,
				"z": 0.6358521422,
				"element": "H" 
			},
			{
				"x": 0.1444611886,
				"y": -3.2601539103,
				"z": -0.9768681214,
				"element": "H" 
			},
			{
				"x": -2.0289314627,
				"y": -4.2990901527,
				"z": -1.2329687701,
				"element": "H" 
			},
			{
				"x": -2.6885537241,
				"y": -3.4494487852,
				"z": 0.1620791806,
				"element": "H" 
			},
			{
				"x": -3.5002067477,
				"y": -2.4360771755,
				"z": -1.9965342931,
				"element": "H" 
			},
			{
				"x": -1.833079512,
				"y": -2.1051701621,
				"z": -2.4536829259,
				"element": "H" 
			},
			{
				"x": -3.4324143444,
				"y": -0.8334850841,
				"z": -0.1647183932,
				"element": "H" 
			},
			{
				"x": -2.6707084914,
				"y": -0.0354516967,
				"z": -1.5205949572,
				"element": "H" 
			}
		],
		 "valence_orbital": [ 
			{
				"type": "occ",
				"energy": -0.30135,
				"method": "rhf"
			},
			{
				"type": "occ",
				"energy": -0.26842,
				"method": "rhf"
			},
			{
				"type": "occ",
				"energy": -0.2511,
				"method": "rhf"
			},
			{
				"type": "occ",
				"energy": -0.2278,
				"method": "rhf"
			},
			{
				"type": "occ",
				"energy": -0.20152,
				"method": "rhf"
			},
			{
				"type": "unocc",
				"energy": -0.00476,
				"method": "rhf"
			},
			{
				"type": "unocc",
				"energy": 0.00652,
				"method": "rhf"
			},
			{
				"type": "unocc",
				"energy": 0.02031,
				"method": "rhf"
			},
			{
				"type": "unocc",
				"energy": 0.07555,
				"method": "rhf"
			},
			{
				"type": "unocc",
				"energy": 0.08328,
				"method": "rhf"
			}
		],
		"cosmo_sigma_profile": { 
			"-0.025": 0.0,
			"-0.024": 0.0,
			"-0.023": 0.0,
			"-0.022": 0.0,
			"-0.021": 0.0,
			"-0.02": 0.0,
			"-0.019": 0.0,
			"-0.018": 0.0,
			"-0.017": 0.0,
			"-0.016": 1.01681561541,
			"-0.015": 1.48466814241,
			"-0.014": 1.16983768251,
			"-0.013": 0.953215733124,
			"-0.012": 0.803342585909,
			"-0.011": 1.0875833978,
			"-0.01": 1.34801808581,
			"-0.009": 0.871863837483,
			"-0.008": 1.21606855735,
			"-0.007": 2.04222592205,
			"-0.006": 4.59899263548,
			"-0.005": 8.51201545515,
			"-0.004": 13.1344468867,
			"-0.003": 24.4009833133,
			"-0.002": 31.4174679598,
			"-0.001": 37.4104210782,
			"0.0": 30.1101678421,
			"0.001": 20.0902813253,
			"0.002": 12.4337339936,
			"0.003": 10.7738479413,
			"0.004": 9.84702639303,
			"0.005": 10.1982175448,
			"0.006": 8.42489619183,
			"0.007": 1.89778170917,
			"0.008": 2.45470393767,
			"0.009": 1.39910746908,
			"0.01": 1.33758985916,
			"0.011": 1.13329432551,
			"0.012": 2.55297370545,
			"0.013": 4.05724503333,
			"0.014": 3.90277215127,
			"0.015": 0.169154199895,
			"0.016": 0.0,
			"0.017": 0.0,
			"0.018": 0.0,
			"0.019": 0.0,
			"0.02": 0.0,
			"0.021": 0.0,
			"0.022": 0.0,
			"0.023": 0.0,
			"0.024": 0.0,
			"0.025": 0.0
		}
	}
}
