{
	 "smiles": "CCOC(=O)C1=C(CBr)C(C#N)=C(N)S1", 
	 "Tm": 480.15, 
	 "num_atms": 24, 
	 "gaussian": { 
		 "optdone": 1, 
		 "sigma_profile": "yes", 
		 "theory": "DFT", 
		 "functional": "B3LYP", 
		 "basiset": "6-31G**", 
		 "properties": { 
			 "R2extent": 5672.7272, 
			 "electric_dipole_moment_norm": 2.8661731612, 
			 "electric_quadrupole_moment_norm": 27.6023047319, 
			 "total_energy": -3577.91978319, 
			 "HOMO_LUMO_gap": 0.15818, 
			 "cosmo_polarized_energy": -18.43, 
			 "cosmo_cavitation_energy": 33.54, 
			 "cosmo_dispersion_energy": -23.42, 
			 "cosmo_repulsion_energy": 1.82, 
			 "cosmo_total_nonelectrostatic_energy": 11.95, 
			 "SMD_solvation_energy": 6.5 
		},
		"coords": [
			{
				"x": -0.7282810799,
				"y": 0.9127375616,
				"z": 3.9775765426,
				"element": "C" 
			},
			{
				"x": -0.5661051017,
				"y": -0.3358849499,
				"z": 3.1252717299,
				"element": "C" 
			},
			{
				"x": -0.4839791999,
				"y": 0.0025366182,
				"z": 1.7158240301,
				"element": "O" 
			},
			{
				"x": 0.7372827718,
				"y": 0.337622541,
				"z": 1.2475933851,
				"element": "C" 
			},
			{
				"x": 1.7581625944,
				"y": 0.3200196212,
				"z": 1.9155730884,
				"element": "O" 
			},
			{
				"x": 0.7247435619,
				"y": 0.7272006434,
				"z": -0.1657603878,
				"element": "C" 
			},
			{
				"x": -0.2808053829,
				"y": 0.8709489397,
				"z": -1.0973173316,
				"element": "C" 
			},
			{
				"x": -1.730501072,
				"y": 0.6095561021,
				"z": -0.8721992289,
				"element": "C" 
			},
			{
				"x": -2.6794404242,
				"y": 2.2600857562,
				"z": -0.2611635854,
				"element": "Br" 
			},
			{
				"x": 0.2195328853,
				"y": 1.3233321665,
				"z": -2.3655089358,
				"element": "C" 
			},
			{
				"x": -0.5623870201,
				"y": 1.5604923166,
				"z": -3.5258218939,
				"element": "C" 
			},
			{
				"x": -1.1516478161,
				"y": 1.7645273197,
				"z": -4.5111300459,
				"element": "N" 
			},
			{
				"x": 1.6022960238,
				"y": 1.5177467314,
				"z": -2.3738984037,
				"element": "C" 
			},
			{
				"x": 2.3591630905,
				"y": 1.8891889988,
				"z": -3.4399641074,
				"element": "N" 
			},
			{
				"x": 2.3038892255,
				"y": 1.1474567456,
				"z": -0.8275189333,
				"element": "S" 
			},
			{
				"x": -1.5920717841,
				"y": 1.4968029245,
				"z": 3.6480237787,
				"element": "H" 
			},
			{
				"x": 0.1661672034,
				"y": 1.5375967243,
				"z": 3.9183295424,
				"element": "H" 
			},
			{
				"x": -0.8797428874,
				"y": 0.6284046739,
				"z": 5.0241968815,
				"element": "H" 
			},
			{
				"x": 0.328334874,
				"y": -0.8974591602,
				"z": 3.4031698304,
				"element": "H" 
			},
			{
				"x": -1.441230525,
				"y": -0.9859666717,
				"z": 3.1923289521,
				"element": "H" 
			},
			{
				"x": -1.904035742,
				"y": -0.1153182803,
				"z": -0.0854285211,
				"element": "H" 
			},
			{
				"x": -2.2374837384,
				"y": 0.3311332299,
				"z": -1.7940429861,
				"element": "H" 
			},
			{
				"x": 1.8739392113,
				"y": 2.2349110255,
				"z": -4.2564884996,
				"element": "H" 
			},
			{
				"x": 3.2910003317,
				"y": 2.2437284219,
				"z": -3.2924449006,
				"element": "H" 
			}
		],
		 "valence_orbital": [ 
			{
				"type": "occ",
				"energy": -0.2871,
				"method": "rhf"
			},
			{
				"type": "occ",
				"energy": -0.28112,
				"method": "rhf"
			},
			{
				"type": "occ",
				"energy": -0.27358,
				"method": "rhf"
			},
			{
				"type": "occ",
				"energy": -0.26727,
				"method": "rhf"
			},
			{
				"type": "occ",
				"energy": -0.22865,
				"method": "rhf"
			},
			{
				"type": "unocc",
				"energy": -0.07047,
				"method": "rhf"
			},
			{
				"type": "unocc",
				"energy": -0.03046,
				"method": "rhf"
			},
			{
				"type": "unocc",
				"energy": -0.01693,
				"method": "rhf"
			},
			{
				"type": "unocc",
				"energy": 0.00995,
				"method": "rhf"
			},
			{
				"type": "unocc",
				"energy": 0.03316,
				"method": "rhf"
			}
		],
		"cosmo_sigma_profile": { 
			"-0.025": 0.0,
			"-0.024": 0.0,
			"-0.023": 0.0,
			"-0.022": 0.0,
			"-0.021": 0.0,
			"-0.02": 0.0,
			"-0.019": 0.0,
			"-0.018": 0.0,
			"-0.017": 0.235631737268,
			"-0.016": 1.57112665322,
			"-0.015": 2.28521460144,
			"-0.014": 2.61425704657,
			"-0.013": 2.58260285081,
			"-0.012": 2.69088497945,
			"-0.011": 2.52318538693,
			"-0.01": 1.76563013901,
			"-0.009": 2.06368424783,
			"-0.008": 3.79900678328,
			"-0.007": 4.95991235494,
			"-0.006": 7.82041015203,
			"-0.005": 12.5118544559,
			"-0.004": 16.1948484042,
			"-0.003": 16.5203679996,
			"-0.002": 22.8201594686,
			"-0.001": 25.6851086596,
			"0.0": 26.2929556064,
			"0.001": 19.3034415809,
			"0.002": 16.8560137952,
			"0.003": 13.525127714,
			"0.004": 11.93898829,
			"0.005": 16.4209443044,
			"0.006": 9.59905807735,
			"0.007": 3.55847460276,
			"0.008": 4.59021515634,
			"0.009": 4.98176256102,
			"0.01": 4.78204995492,
			"0.011": 6.0942047717,
			"0.012": 5.23854441728,
			"0.013": 1.60781084444,
			"0.014": 0.0815357464451,
			"0.015": 0.0,
			"0.016": 0.0,
			"0.017": 0.0,
			"0.018": 0.0,
			"0.019": 0.0,
			"0.02": 0.0,
			"0.021": 0.0,
			"0.022": 0.0,
			"0.023": 0.0,
			"0.024": 0.0,
			"0.025": 0.0
		}
	}
}
