{
	 "smiles": "NC1=NC(=CS1)C1=CC=C(Cl)C=C1", 
	 "Tm": 442.15, 
	 "num_atms": 20, 
	 "gaussian": { 
		 "optdone": 1, 
		 "sigma_profile": "yes", 
		 "theory": "DFT", 
		 "functional": "B3LYP", 
		 "basiset": "6-31G**", 
		 "properties": { 
			 "R2extent": 5065.9452, 
			 "electric_dipole_moment_norm": 3.82603953586, 
			 "electric_quadrupole_moment_norm": 17.1822928226, 
			 "total_energy": -1315.06221582, 
			 "HOMO_LUMO_gap": 0.16806, 
			 "cosmo_polarized_energy": -11.4, 
			 "cosmo_cavitation_energy": 28.04, 
			 "cosmo_dispersion_energy": -21.67, 
			 "cosmo_repulsion_energy": 1.66, 
			 "cosmo_total_nonelectrostatic_energy": 8.03, 
			 "SMD_solvation_energy": 3.1 
		},
		"coords": [
			{
				"x": -2.6182574543,
				"y": -4.4624458712,
				"z": -0.6924662171,
				"element": "N" 
			},
			{
				"x": -2.0126964472,
				"y": -3.2571531028,
				"z": -0.9634865059,
				"element": "C" 
			},
			{
				"x": -1.9569446396,
				"y": -2.2659511599,
				"z": -0.1264375877,
				"element": "N" 
			},
			{
				"x": -1.3558806293,
				"y": -1.1513076644,
				"z": -0.6975999984,
				"element": "C" 
			},
			{
				"x": -0.9431580993,
				"y": -1.3158274233,
				"z": -1.9924139946,
				"element": "C" 
			},
			{
				"x": -1.3263690118,
				"y": -2.9198205337,
				"z": -2.5599930413,
				"element": "S" 
			},
			{
				"x": -1.2114039058,
				"y": 0.0682288055,
				"z": 0.1194259215,
				"element": "C" 
			},
			{
				"x": -1.6915370639,
				"y": 0.0829491322,
				"z": 1.4391869568,
				"element": "C" 
			},
			{
				"x": -1.5715525314,
				"y": 1.2180811219,
				"z": 2.2377137929,
				"element": "C" 
			},
			{
				"x": -0.9636332947,
				"y": 2.3580071586,
				"z": 1.715433624,
				"element": "C" 
			},
			{
				"x": -0.8064587042,
				"y": 3.7967806234,
				"z": 2.7149096762,
				"element": "Cl" 
			},
			{
				"x": -0.4769917291,
				"y": 2.3739897483,
				"z": 0.4077143565,
				"element": "C" 
			},
			{
				"x": -0.6036389723,
				"y": 1.2331114537,
				"z": -0.3787850649,
				"element": "C" 
			},
			{
				"x": -2.2494801149,
				"y": -5.2768611911,
				"z": -1.1621385659,
				"element": "H" 
			},
			{
				"x": -2.796848709,
				"y": -4.6017895541,
				"z": 0.2935450147,
				"element": "H" 
			},
			{
				"x": -0.4423551402,
				"y": -0.6182422629,
				"z": -2.6461039621,
				"element": "H" 
			},
			{
				"x": -2.1621977102,
				"y": -0.8113390291,
				"z": 1.8306559557,
				"element": "H" 
			},
			{
				"x": -1.9460172757,
				"y": 1.2194413001,
				"z": 3.2555318055,
				"element": "H" 
			},
			{
				"x": -0.0063505398,
				"y": 3.2677999923,
				"z": 0.013421171,
				"element": "H" 
			},
			{
				"x": -0.2213280274,
				"y": 1.2590484565,
				"z": -1.3944133372,
				"element": "H" 
			}
		],
		 "valence_orbital": [ 
			{
				"type": "occ",
				"energy": -0.28511,
				"method": "rhf"
			},
			{
				"type": "occ",
				"energy": -0.27859,
				"method": "rhf"
			},
			{
				"type": "occ",
				"energy": -0.25918,
				"method": "rhf"
			},
			{
				"type": "occ",
				"energy": -0.2474,
				"method": "rhf"
			},
			{
				"type": "occ",
				"energy": -0.20485,
				"method": "rhf"
			},
			{
				"type": "unocc",
				"energy": -0.03679,
				"method": "rhf"
			},
			{
				"type": "unocc",
				"energy": -0.00887,
				"method": "rhf"
			},
			{
				"type": "unocc",
				"energy": 0.00381,
				"method": "rhf"
			},
			{
				"type": "unocc",
				"energy": 0.01147,
				"method": "rhf"
			},
			{
				"type": "unocc",
				"energy": 0.0352,
				"method": "rhf"
			}
		],
		"cosmo_sigma_profile": { 
			"-0.025": 0.0,
			"-0.024": 0.0,
			"-0.023": 0.0,
			"-0.022": 0.0,
			"-0.021": 0.0,
			"-0.02": 0.0,
			"-0.019": 0.0,
			"-0.018": 0.0,
			"-0.017": 0.0,
			"-0.016": 0.0,
			"-0.015": 0.396328714954,
			"-0.014": 2.0295537451,
			"-0.013": 2.44317753776,
			"-0.012": 3.13828604918,
			"-0.011": 2.47227144159,
			"-0.01": 2.40821278259,
			"-0.009": 4.60622856747,
			"-0.008": 4.29318869722,
			"-0.007": 7.51241212776,
			"-0.006": 8.86309389484,
			"-0.005": 8.82385821915,
			"-0.004": 8.02361600088,
			"-0.003": 9.63485933659,
			"-0.002": 9.85817452129,
			"-0.001": 10.7429843802,
			"0.0": 11.6861269271,
			"0.001": 18.284439132,
			"0.002": 25.5366273021,
			"0.003": 31.5598867801,
			"0.004": 30.3524232088,
			"0.005": 13.2669250536,
			"0.006": 3.00766645747,
			"0.007": 2.46388461269,
			"0.008": 2.27025735081,
			"0.009": 1.66857184817,
			"0.01": 2.95731312495,
			"0.011": 1.41343625605,
			"0.012": 0.14623495858,
			"0.013": 0.0,
			"0.014": 0.0,
			"0.015": 0.0,
			"0.016": 0.0,
			"0.017": 0.0,
			"0.018": 0.0,
			"0.019": 0.0,
			"0.02": 0.0,
			"0.021": 0.0,
			"0.022": 0.0,
			"0.023": 0.0,
			"0.024": 0.0,
			"0.025": 0.0
		}
	}
}
