{
	 "smiles": "O=C1CC2(CCCC2)CC(=O)N1", 
	 "Tm": 427.15, 
	 "num_atms": 25, 
	 "gaussian": { 
		 "optdone": 1, 
		 "sigma_profile": "yes", 
		 "theory": "DFT", 
		 "functional": "B3LYP", 
		 "basiset": "6-31G**", 
		 "properties": { 
			 "R2extent": 2451.6438, 
			 "electric_dipole_moment_norm": 3.44054224069, 
			 "electric_quadrupole_moment_norm": 11.9278787079, 
			 "total_energy": -556.034297156, 
			 "HOMO_LUMO_gap": 0.23079, 
			 "cosmo_polarized_energy": -12.58, 
			 "cosmo_cavitation_energy": 26.16, 
			 "cosmo_dispersion_energy": -19.19, 
			 "cosmo_repulsion_energy": 1.53, 
			 "cosmo_total_nonelectrostatic_energy": 8.5, 
			 "SMD_solvation_energy": 5.11 
		},
		"coords": [
			{
				"x": -2.4837057434,
				"y": 1.7257730837,
				"z": -1.4691424471,
				"element": "O" 
			},
			{
				"x": -1.3198478648,
				"y": 1.6772554283,
				"z": -1.1186780727,
				"element": "C" 
			},
			{
				"x": -0.8381766154,
				"y": 2.0376873172,
				"z": 0.2758009545,
				"element": "C" 
			},
			{
				"x": 0.4406001845,
				"y": 1.2886687414,
				"z": 0.7092859512,
				"element": "C" 
			},
			{
				"x": 0.9168552469,
				"y": 1.767475118,
				"z": 2.0997852004,
				"element": "C" 
			},
			{
				"x": 0.0168413908,
				"y": 1.0357126538,
				"z": 3.122132992,
				"element": "C" 
			},
			{
				"x": -0.4857618953,
				"y": -0.2485503364,
				"z": 2.3963237796,
				"element": "C" 
			},
			{
				"x": 0.1461582481,
				"y": -0.2089235986,
				"z": 0.9853495393,
				"element": "C" 
			},
			{
				"x": 1.5041393551,
				"y": 1.5072411849,
				"z": -0.3784304212,
				"element": "C" 
			},
			{
				"x": 1.044088416,
				"y": 1.1480886125,
				"z": -1.7801987053,
				"element": "C" 
			},
			{
				"x": 1.7886546077,
				"y": 0.7726432313,
				"z": -2.6655008534,
				"element": "O" 
			},
			{
				"x": -0.3225666509,
				"y": 1.3018038615,
				"z": -2.0197682054,
				"element": "N" 
			},
			{
				"x": -0.6487919857,
				"y": 3.1206672867,
				"z": 0.2782279646,
				"element": "H" 
			},
			{
				"x": -1.678870761,
				"y": 1.8660619457,
				"z": 0.9518282022,
				"element": "H" 
			},
			{
				"x": 1.9623204273,
				"y": 1.4623283168,
				"z": 2.2338237873,
				"element": "H" 
			},
			{
				"x": 0.8868829686,
				"y": 2.8579690754,
				"z": 2.2026012423,
				"element": "H" 
			},
			{
				"x": -0.8280940385,
				"y": 1.6668406825,
				"z": 3.4157114758,
				"element": "H" 
			},
			{
				"x": 0.5640594635,
				"y": 0.8047355024,
				"z": 4.0405280683,
				"element": "H" 
			},
			{
				"x": -0.2065672825,
				"y": -1.1615376924,
				"z": 2.9299390636,
				"element": "H" 
			},
			{
				"x": -1.5784587094,
				"y": -0.2509043962,
				"z": 2.3315050898,
				"element": "H" 
			},
			{
				"x": 1.0964593894,
				"y": -0.7566878842,
				"z": 0.9830570061,
				"element": "H" 
			},
			{
				"x": -0.4887944262,
				"y": -0.6728462603,
				"z": 0.2232071637,
				"element": "H" 
			},
			{
				"x": 2.4131270479,
				"y": 0.931857616,
				"z": -0.1832663399,
				"element": "H" 
			},
			{
				"x": 1.7989810126,
				"y": 2.5664602083,
				"z": -0.4024757213,
				"element": "H" 
			},
			{
				"x": -0.6366317853,
				"y": 1.0695803017,
				"z": -2.9567467142,
				"element": "H" 
			}
		],
		 "valence_orbital": [ 
			{
				"type": "occ",
				"energy": -0.33216,
				"method": "rhf"
			},
			{
				"type": "occ",
				"energy": -0.32554,
				"method": "rhf"
			},
			{
				"type": "occ",
				"energy": -0.2844,
				"method": "rhf"
			},
			{
				"type": "occ",
				"energy": -0.27739,
				"method": "rhf"
			},
			{
				"type": "occ",
				"energy": -0.25718,
				"method": "rhf"
			},
			{
				"type": "unocc",
				"energy": -0.02639,
				"method": "rhf"
			},
			{
				"type": "unocc",
				"energy": 0.02973,
				"method": "rhf"
			},
			{
				"type": "unocc",
				"energy": 0.0599,
				"method": "rhf"
			},
			{
				"type": "unocc",
				"energy": 0.08432,
				"method": "rhf"
			},
			{
				"type": "unocc",
				"energy": 0.10169,
				"method": "rhf"
			}
		],
		"cosmo_sigma_profile": { 
			"-0.025": 0.0,
			"-0.024": 0.0,
			"-0.023": 0.0,
			"-0.022": 0.0,
			"-0.021": 0.0,
			"-0.02": 0.0,
			"-0.019": 0.0,
			"-0.018": 0.0,
			"-0.017": 0.0,
			"-0.016": 0.0,
			"-0.015": 0.445397576207,
			"-0.014": 1.00263315839,
			"-0.013": 0.825723484059,
			"-0.012": 0.543611608309,
			"-0.011": 0.946759068944,
			"-0.01": 1.03704538601,
			"-0.009": 0.738061483236,
			"-0.008": 1.63458371884,
			"-0.007": 5.41649465702,
			"-0.006": 6.58967429197,
			"-0.005": 9.5957957268,
			"-0.004": 17.8125975253,
			"-0.003": 26.3868311239,
			"-0.002": 25.8936698522,
			"-0.001": 24.4710007962,
			"0.0": 17.241069783,
			"0.001": 14.9581983327,
			"0.002": 4.86268698185,
			"0.003": 3.1718870266,
			"0.004": 1.39574881525,
			"0.005": 2.21864876314,
			"0.006": 2.50654890634,
			"0.007": 2.22993288734,
			"0.008": 2.94226813308,
			"0.009": 2.83900608156,
			"0.01": 3.60769058447,
			"0.011": 5.41959365139,
			"0.012": 10.6890889279,
			"0.013": 5.24561406039,
			"0.014": 0.470134606665,
			"0.015": 0.0,
			"0.016": 0.0,
			"0.017": 0.0,
			"0.018": 0.0,
			"0.019": 0.0,
			"0.02": 0.0,
			"0.021": 0.0,
			"0.022": 0.0,
			"0.023": 0.0,
			"0.024": 0.0,
			"0.025": 0.0
		}
	}
}
