{
	 "smiles": "CCCCC(O)C(O)=O", 
	 "Tm": 334.15, 
	 "num_atms": 21, 
	 "gaussian": { 
		 "optdone": 1, 
		 "sigma_profile": "yes", 
		 "theory": "DFT", 
		 "functional": "B3LYP", 
		 "basiset": "6-31G**", 
		 "properties": { 
			 "R2extent": 1652.1741, 
			 "electric_dipole_moment_norm": 2.26008216886, 
			 "electric_quadrupole_moment_norm": 6.23904060814, 
			 "total_energy": -461.561297537, 
			 "HOMO_LUMO_gap": 0.26176, 
			 "cosmo_polarized_energy": -9.13, 
			 "cosmo_cavitation_energy": 23.37, 
			 "cosmo_dispersion_energy": -17.08, 
			 "cosmo_repulsion_energy": 1.44, 
			 "cosmo_total_nonelectrostatic_energy": 7.73, 
			 "SMD_solvation_energy": 5.06 
		},
		"coords": [
			{
				"x": 0.6254166103,
				"y": -0.7074115675,
				"z": 3.0670796298,
				"element": "C" 
			},
			{
				"x": -0.8547797412,
				"y": -0.6074930412,
				"z": 2.684474935,
				"element": "C" 
			},
			{
				"x": -1.2093169216,
				"y": -1.274611027,
				"z": 1.3435088858,
				"element": "C" 
			},
			{
				"x": -0.4925765863,
				"y": -0.7504103569,
				"z": 0.0866133534,
				"element": "C" 
			},
			{
				"x": -0.8138094639,
				"y": 0.7165031667,
				"z": -0.2669976834,
				"element": "C" 
			},
			{
				"x": -0.2700427162,
				"y": 1.625957691,
				"z": 0.6652040328,
				"element": "O" 
			},
			{
				"x": -0.2874689787,
				"y": 1.0706530396,
				"z": -1.6522068142,
				"element": "C" 
			},
			{
				"x": -0.8559808689,
				"y": 0.361536004,
				"z": -2.6433266459,
				"element": "O" 
			},
			{
				"x": 0.5677297016,
				"y": 1.9138118087,
				"z": -1.8397405999,
				"element": "O" 
			},
			{
				"x": 0.9770810983,
				"y": -1.746442374,
				"z": 3.0508935748,
				"element": "H" 
			},
			{
				"x": 1.2491741386,
				"y": -0.1250457637,
				"z": 2.3828524197,
				"element": "H" 
			},
			{
				"x": 0.7946618589,
				"y": -0.3169747313,
				"z": 4.0760837093,
				"element": "H" 
			},
			{
				"x": -1.4628226292,
				"y": -1.0861937097,
				"z": 3.4634818977,
				"element": "H" 
			},
			{
				"x": -1.1465841199,
				"y": 0.4469415495,
				"z": 2.6613188203,
				"element": "H" 
			},
			{
				"x": -0.9956312586,
				"y": -2.3498261925,
				"z": 1.4181354747,
				"element": "H" 
			},
			{
				"x": -2.2935490346,
				"y": -1.1946521581,
				"z": 1.1818741925,
				"element": "H" 
			},
			{
				"x": -0.7840948108,
				"y": -1.3769792344,
				"z": -0.764150141,
				"element": "H" 
			},
			{
				"x": 0.5951871273,
				"y": -0.8401356125,
				"z": 0.1923248562,
				"element": "H" 
			},
			{
				"x": -1.908792913,
				"y": 0.8361502243,
				"z": -0.2998366224,
				"element": "H" 
			},
			{
				"x": 0.3829402039,
				"y": 2.1538513757,
				"z": 0.1751969546,
				"element": "H" 
			},
			{
				"x": -0.4448406962,
				"y": 0.6585709092,
				"z": -3.4728842297,
				"element": "H" 
			}
		],
		 "valence_orbital": [ 
			{
				"type": "occ",
				"energy": -0.32131,
				"method": "rhf"
			},
			{
				"type": "occ",
				"energy": -0.31944,
				"method": "rhf"
			},
			{
				"type": "occ",
				"energy": -0.31494,
				"method": "rhf"
			},
			{
				"type": "occ",
				"energy": -0.29365,
				"method": "rhf"
			},
			{
				"type": "occ",
				"energy": -0.26877,
				"method": "rhf"
			},
			{
				"type": "unocc",
				"energy": -0.00701,
				"method": "rhf"
			},
			{
				"type": "unocc",
				"energy": 0.06136,
				"method": "rhf"
			},
			{
				"type": "unocc",
				"energy": 0.09173,
				"method": "rhf"
			},
			{
				"type": "unocc",
				"energy": 0.1171,
				"method": "rhf"
			},
			{
				"type": "unocc",
				"energy": 0.12206,
				"method": "rhf"
			}
		],
		"cosmo_sigma_profile": { 
			"-0.025": 0.0,
			"-0.024": 0.0,
			"-0.023": 0.0,
			"-0.022": 0.0,
			"-0.021": 0.0,
			"-0.02": 0.0,
			"-0.019": 0.767281136674,
			"-0.018": 0.676126455746,
			"-0.017": 0.917448218641,
			"-0.016": 1.05245615948,
			"-0.015": 0.767528887205,
			"-0.014": 0.474771055903,
			"-0.013": 0.668975496695,
			"-0.012": 1.04180559391,
			"-0.011": 1.01002388042,
			"-0.01": 0.829962057911,
			"-0.009": 0.732683757152,
			"-0.008": 1.63625358526,
			"-0.007": 1.94047717341,
			"-0.006": 4.27045305797,
			"-0.005": 3.77013738068,
			"-0.004": 8.00995653656,
			"-0.003": 12.1503331392,
			"-0.002": 19.5560787611,
			"-0.001": 24.1168049838,
			"0.0": 23.9070549252,
			"0.001": 21.2075571411,
			"0.002": 11.8389485623,
			"0.003": 5.10594291669,
			"0.004": 4.8680483646,
			"0.005": 3.95959349036,
			"0.006": 3.24521586921,
			"0.007": 4.12371218829,
			"0.008": 4.01443854171,
			"0.009": 4.09057048796,
			"0.01": 4.16455020846,
			"0.011": 3.92494275432,
			"0.012": 1.06983879631,
			"0.013": 0.828986406233,
			"0.014": 0.16866063962,
			"0.015": 0.0,
			"0.016": 0.0,
			"0.017": 0.0,
			"0.018": 0.0,
			"0.019": 0.0,
			"0.02": 0.0,
			"0.021": 0.0,
			"0.022": 0.0,
			"0.023": 0.0,
			"0.024": 0.0,
			"0.025": 0.0
		}
	}
}
