{
	 "smiles": "CC12CCCC1C1CCC(CCC(O)=O)C(C)(CCC(O)=O)C1CC2", 
	 "Tm": 505.15, 
	 "num_atms": 59, 
	 "gaussian": { 
		 "optdone": 1, 
		 "sigma_profile": "yes", 
		 "theory": "DFT", 
		 "functional": "B3LYP", 
		 "basiset": "6-31G**", 
		 "properties": { 
			 "R2extent": 10027.3531, 
			 "electric_dipole_moment_norm": 4.08805599032, 
			 "electric_quadrupole_moment_norm": 29.6802694248, 
			 "total_energy": -1121.64838407, 
			 "HOMO_LUMO_gap": 0.2733, 
			 "cosmo_polarized_energy": -26.72, 
			 "cosmo_cavitation_energy": 50.84, 
			 "cosmo_dispersion_energy": -34.45, 
			 "cosmo_repulsion_energy": 2.56, 
			 "cosmo_total_nonelectrostatic_energy": 18.95, 
			 "SMD_solvation_energy": 9.12 
		},
		"coords": [
			{
				"x": -1.3251261525,
				"y": -2.3077442157,
				"z": 2.7046359054,
				"element": "C" 
			},
			{
				"x": -1.1249521671,
				"y": -3.0240846709,
				"z": 1.3488466726,
				"element": "C" 
			},
			{
				"x": -1.2443175193,
				"y": -4.5478842588,
				"z": 1.5974125072,
				"element": "C" 
			},
			{
				"x": 0.1508457709,
				"y": -4.9709269191,
				"z": 2.1517117289,
				"element": "C" 
			},
			{
				"x": 1.1435706923,
				"y": -3.8394465082,
				"z": 1.7367509183,
				"element": "C" 
			},
			{
				"x": 0.3165426404,
				"y": -2.9763439278,
				"z": 0.7696447953,
				"element": "C" 
			},
			{
				"x": 0.8408969146,
				"y": -1.6149570434,
				"z": 0.2774110824,
				"element": "C" 
			},
			{
				"x": 1.2234381377,
				"y": -0.5733904997,
				"z": 1.3401469818,
				"element": "C" 
			},
			{
				"x": 1.8570278598,
				"y": 0.6587890661,
				"z": 0.6790294186,
				"element": "C" 
			},
			{
				"x": 0.9781130013,
				"y": 1.3447856082,
				"z": -0.3985968463,
				"element": "C" 
			},
			{
				"x": 0.1100111509,
				"y": 2.4943276923,
				"z": 0.1884036093,
				"element": "C" 
			},
			{
				"x": -0.8774339208,
				"y": 2.227961426,
				"z": 1.328191614,
				"element": "C" 
			},
			{
				"x": -1.5489560997,
				"y": 3.5109242766,
				"z": 1.8092185144,
				"element": "C" 
			},
			{
				"x": -2.3935014496,
				"y": 3.359360896,
				"z": 2.8675127226,
				"element": "O" 
			},
			{
				"x": -1.3901243302,
				"y": 4.6004381194,
				"z": 1.3192774078,
				"element": "O" 
			},
			{
				"x": 0.3440317096,
				"y": 0.2989246349,
				"z": -1.4106482398,
				"element": "C" 
			},
			{
				"x": 1.4922189509,
				"y": -0.0932596122,
				"z": -2.3824471171,
				"element": "C" 
			},
			{
				"x": -0.7653041489,
				"y": 1.0028524782,
				"z": -2.2404840939,
				"element": "C" 
			},
			{
				"x": -1.3916387478,
				"y": 0.2133635742,
				"z": -3.415195985,
				"element": "C" 
			},
			{
				"x": -0.5696385866,
				"y": 0.0868315936,
				"z": -4.6935623817,
				"element": "C" 
			},
			{
				"x": -0.0995509422,
				"y": 1.2517185576,
				"z": -5.220507371,
				"element": "O" 
			},
			{
				"x": -0.3561287875,
				"y": -0.9555774558,
				"z": -5.2611141389,
				"element": "O" 
			},
			{
				"x": -0.179615992,
				"y": -1.0347724538,
				"z": -0.7492231711,
				"element": "C" 
			},
			{
				"x": -1.6135341731,
				"y": -1.0297731994,
				"z": -0.1620772406,
				"element": "C" 
			},
			{
				"x": -2.0744012156,
				"y": -2.433172888,
				"z": 0.2934825909,
				"element": "C" 
			},
			{
				"x": -0.5817248809,
				"y": -2.6073298935,
				"z": 3.4489991218,
				"element": "H" 
			},
			{
				"x": -1.2862061317,
				"y": -1.2192548397,
				"z": 2.6269289346,
				"element": "H" 
			},
			{
				"x": -2.3112786267,
				"y": -2.5676275913,
				"z": 3.1067461023,
				"element": "H" 
			},
			{
				"x": -1.4437600285,
				"y": -5.0585884723,
				"z": 0.64759811,
				"element": "H" 
			},
			{
				"x": -2.0620957533,
				"y": -4.8067906295,
				"z": 2.2783502992,
				"element": "H" 
			},
			{
				"x": 0.1236850321,
				"y": -5.0873214627,
				"z": 3.2395255125,
				"element": "H" 
			},
			{
				"x": 0.455199806,
				"y": -5.9397743979,
				"z": 1.7447474981,
				"element": "H" 
			},
			{
				"x": 1.467816996,
				"y": -3.2655722452,
				"z": 2.6117865838,
				"element": "H" 
			},
			{
				"x": 2.0504039614,
				"y": -4.2309037065,
				"z": 1.2643792966,
				"element": "H" 
			},
			{
				"x": 0.2404863976,
				"y": -3.5745090645,
				"z": -0.153482277,
				"element": "H" 
			},
			{
				"x": 1.766587768,
				"y": -1.8352718539,
				"z": -0.2732178719,
				"element": "H" 
			},
			{
				"x": 1.9369037282,
				"y": -1.007018709,
				"z": 2.0510543956,
				"element": "H" 
			},
			{
				"x": 0.3515380067,
				"y": -0.2784451192,
				"z": 1.9294931408,
				"element": "H" 
			},
			{
				"x": 2.1302170586,
				"y": 1.4001378277,
				"z": 1.4407436245,
				"element": "H" 
			},
			{
				"x": 2.8040341734,
				"y": 0.346430715,
				"z": 0.2220934182,
				"element": "H" 
			},
			{
				"x": 1.6783554743,
				"y": 1.9088086942,
				"z": -1.0299510436,
				"element": "H" 
			},
			{
				"x": -0.4320585102,
				"y": 3.0056004015,
				"z": -0.6112575729,
				"element": "H" 
			},
			{
				"x": 0.8177024319,
				"y": 3.2445764478,
				"z": 0.5593246188,
				"element": "H" 
			},
			{
				"x": -1.6763819247,
				"y": 1.5400992622,
				"z": 1.0274163789,
				"element": "H" 
			},
			{
				"x": -0.3799481436,
				"y": 1.7630229434,
				"z": 2.1890459267,
				"element": "H" 
			},
			{
				"x": -2.4110458,
				"y": 2.4341581351,
				"z": 3.1510595426,
				"element": "H" 
			},
			{
				"x": 1.1958114477,
				"y": -0.8969734342,
				"z": -3.0611074682,
				"element": "H" 
			},
			{
				"x": 1.7925977713,
				"y": 0.7646023525,
				"z": -2.9937669579,
				"element": "H" 
			},
			{
				"x": 2.3823026285,
				"y": -0.4339234998,
				"z": -1.8486942753,
				"element": "H" 
			},
			{
				"x": -1.5844662621,
				"y": 1.3014614515,
				"z": -1.5805232754,
				"element": "H" 
			},
			{
				"x": -0.3506090766,
				"y": 1.9484433138,
				"z": -2.6197509355,
				"element": "H" 
			},
			{
				"x": -1.6582106136,
				"y": -0.8029266122,
				"z": -3.1223378971,
				"element": "H" 
			},
			{
				"x": -2.3277211827,
				"y": 0.714580708,
				"z": -3.6996017127,
				"element": "H" 
			},
			{
				"x": -0.3644777093,
				"y": 2.0014211463,
				"z": -4.6689015539,
				"element": "H" 
			},
			{
				"x": -0.2177404954,
				"y": -1.7640682544,
				"z": -1.5713254464,
				"element": "H" 
			},
			{
				"x": -2.3274689156,
				"y": -0.6595655757,
				"z": -0.9045688621,
				"element": "H" 
			},
			{
				"x": -1.6822510029,
				"y": -0.3435744299,
				"z": 0.6866228506,
				"element": "H" 
			},
			{
				"x": -2.1009770287,
				"y": -3.1000551431,
				"z": -0.5796507583,
				"element": "H" 
			},
			{
				"x": -3.1027931901,
				"y": -2.376892735,
				"z": 0.6740026688,
				"element": "H" 
			}
		],
		 "valence_orbital": [ 
			{
				"type": "occ",
				"energy": -0.29557,
				"method": "rhf"
			},
			{
				"type": "occ",
				"energy": -0.2873,
				"method": "rhf"
			},
			{
				"type": "occ",
				"energy": -0.28153,
				"method": "rhf"
			},
			{
				"type": "occ",
				"energy": -0.27456,
				"method": "rhf"
			},
			{
				"type": "occ",
				"energy": -0.26711,
				"method": "rhf"
			},
			{
				"type": "unocc",
				"energy": 0.00619,
				"method": "rhf"
			},
			{
				"type": "unocc",
				"energy": 0.00847,
				"method": "rhf"
			},
			{
				"type": "unocc",
				"energy": 0.03811,
				"method": "rhf"
			},
			{
				"type": "unocc",
				"energy": 0.04149,
				"method": "rhf"
			},
			{
				"type": "unocc",
				"energy": 0.06265,
				"method": "rhf"
			}
		],
		"cosmo_sigma_profile": { 
			"-0.025": 0.0,
			"-0.024": 0.0,
			"-0.023": 0.0,
			"-0.022": 0.0,
			"-0.021": 0.0,
			"-0.02": 0.0,
			"-0.019": 0.174701845061,
			"-0.018": 1.34677331405,
			"-0.017": 2.12669792477,
			"-0.016": 1.68456376265,
			"-0.015": 2.13640953576,
			"-0.014": 2.0083113255,
			"-0.013": 2.35018467614,
			"-0.012": 1.85916056381,
			"-0.011": 2.34765459034,
			"-0.01": 2.768238456,
			"-0.009": 2.41296192326,
			"-0.008": 2.67576615102,
			"-0.007": 5.67675187883,
			"-0.006": 9.31883220843,
			"-0.005": 11.3430065149,
			"-0.004": 15.3701389159,
			"-0.003": 23.4675994499,
			"-0.002": 47.6905450954,
			"-0.001": 57.9628844548,
			"0.0": 52.6411056878,
			"0.001": 43.81138584,
			"0.002": 25.8280614171,
			"0.003": 6.9319672823,
			"0.004": 4.82510581099,
			"0.005": 4.26575034191,
			"0.006": 3.51349235931,
			"0.007": 4.51897472312,
			"0.008": 6.12289736665,
			"0.009": 5.44217060999,
			"0.01": 8.3881395684,
			"0.011": 10.5462630061,
			"0.012": 11.1663341903,
			"0.013": 6.85853019604,
			"0.014": 0.731988426482,
			"0.015": 0.0,
			"0.016": 0.0,
			"0.017": 0.0,
			"0.018": 0.0,
			"0.019": 0.0,
			"0.02": 0.0,
			"0.021": 0.0,
			"0.022": 0.0,
			"0.023": 0.0,
			"0.024": 0.0,
			"0.025": 0.0
		}
	}
}
