{
	 "smiles": "CC1=NN(C(C)=C1CC(O)=O)C1=NC=C(C=C1)C(F)(F)F", 
	 "Tm": 416.15, 
	 "num_atms": 33, 
	 "gaussian": { 
		 "optdone": 1, 
		 "sigma_profile": "yes", 
		 "theory": "DFT", 
		 "functional": "B3LYP", 
		 "basiset": "6-31G**", 
		 "properties": { 
			 "R2extent": 9488.6032, 
			 "electric_dipole_moment_norm": 3.22664104139, 
			 "electric_quadrupole_moment_norm": 7.71591840872, 
			 "total_energy": -1116.8595488, 
			 "HOMO_LUMO_gap": 0.1844, 
			 "cosmo_polarized_energy": -13.39, 
			 "cosmo_cavitation_energy": 39.25, 
			 "cosmo_dispersion_energy": -27.38, 
			 "cosmo_repulsion_energy": 2.04, 
			 "cosmo_total_nonelectrostatic_energy": 13.9, 
			 "SMD_solvation_energy": 7.84 
		},
		"coords": [
			{
				"x": -3.0793307303,
				"y": -1.3871247458,
				"z": -2.253340945,
				"element": "C" 
			},
			{
				"x": -1.8289605806,
				"y": -0.8109950739,
				"z": -1.6682841957,
				"element": "C" 
			},
			{
				"x": -1.8559549678,
				"y": -0.1685831606,
				"z": -0.5152805002,
				"element": "N" 
			},
			{
				"x": -0.5607783909,
				"y": 0.2109529079,
				"z": -0.2754761561,
				"element": "N" 
			},
			{
				"x": 0.2928812419,
				"y": -0.1972514504,
				"z": -1.2894620473,
				"element": "C" 
			},
			{
				"x": 1.7676375604,
				"y": 0.0485811917,
				"z": -1.3323399352,
				"element": "C" 
			},
			{
				"x": -0.5051593804,
				"y": -0.858763938,
				"z": -2.2028975242,
				"element": "C" 
			},
			{
				"x": -0.0846816677,
				"y": -1.4869709378,
				"z": -3.4953188769,
				"element": "C" 
			},
			{
				"x": -0.0997190739,
				"y": -3.0094484814,
				"z": -3.488520627,
				"element": "C" 
			},
			{
				"x": 0.622643638,
				"y": -3.502377919,
				"z": -4.5240549867,
				"element": "O" 
			},
			{
				"x": -0.6887466801,
				"y": -3.7213268832,
				"z": -2.7070220231,
				"element": "O" 
			},
			{
				"x": -0.2943486362,
				"y": 0.9233383139,
				"z": 0.9078815808,
				"element": "C" 
			},
			{
				"x": 0.9635376402,
				"y": 1.3156427001,
				"z": 1.1148029463,
				"element": "N" 
			},
			{
				"x": 1.2346208225,
				"y": 1.9916970351,
				"z": 2.2358785332,
				"element": "C" 
			},
			{
				"x": 0.2733757262,
				"y": 2.3079201519,
				"z": 3.1915319491,
				"element": "C" 
			},
			{
				"x": -1.0456019378,
				"y": 1.8932829904,
				"z": 2.9596456851,
				"element": "C" 
			},
			{
				"x": -1.3460616965,
				"y": 1.1910955425,
				"z": 1.806519919,
				"element": "C" 
			},
			{
				"x": 0.6341403278,
				"y": 3.0314582204,
				"z": 4.4545456857,
				"element": "C" 
			},
			{
				"x": -0.2984320719,
				"y": 3.9564615485,
				"z": 4.7785022965,
				"element": "F" 
			},
			{
				"x": 0.7232351364,
				"y": 2.187173032,
				"z": 5.5089077972,
				"element": "F" 
			},
			{
				"x": 1.822148747,
				"y": 3.6656078732,
				"z": 4.3523901099,
				"element": "F" 
			},
			{
				"x": -3.2759712902,
				"y": -0.9814492271,
				"z": -3.2532527368,
				"element": "H" 
			},
			{
				"x": -3.9325360279,
				"y": -1.1525967414,
				"z": -1.6137220053,
				"element": "H" 
			},
			{
				"x": -2.9896970875,
				"y": -2.4735324993,
				"z": -2.3480329367,
				"element": "H" 
			},
			{
				"x": 2.0037145416,
				"y": 1.1151754334,
				"z": -1.3191112753,
				"element": "H" 
			},
			{
				"x": 2.1817078073,
				"y": -0.3928615465,
				"z": -2.2423565205,
				"element": "H" 
			},
			{
				"x": 2.2753035899,
				"y": -0.3923972059,
				"z": -0.4709492615,
				"element": "H" 
			},
			{
				"x": 0.9113034907,
				"y": -1.1593829614,
				"z": -3.8053630027,
				"element": "H" 
			},
			{
				"x": -0.7562084398,
				"y": -1.1836918738,
				"z": -4.311488845,
				"element": "H" 
			},
			{
				"x": 0.536678811,
				"y": -4.4696784511,
				"z": -4.4779445141,
				"element": "H" 
			},
			{
				"x": 2.2672282048,
				"y": 2.3009828553,
				"z": 2.3722041396,
				"element": "H" 
			},
			{
				"x": -1.8259684143,
				"y": 2.1276723269,
				"z": 3.6766407865,
				"element": "H" 
			},
			{
				"x": -2.3458002122,
				"y": 0.8501909734,
				"z": 1.5772674862,
				"element": "H" 
			}
		],
		 "valence_orbital": [ 
			{
				"type": "occ",
				"energy": -0.29102,
				"method": "rhf"
			},
			{
				"type": "occ",
				"energy": -0.28323,
				"method": "rhf"
			},
			{
				"type": "occ",
				"energy": -0.27701,
				"method": "rhf"
			},
			{
				"type": "occ",
				"energy": -0.24288,
				"method": "rhf"
			},
			{
				"type": "occ",
				"energy": -0.2318,
				"method": "rhf"
			},
			{
				"type": "unocc",
				"energy": -0.0474,
				"method": "rhf"
			},
			{
				"type": "unocc",
				"energy": -0.03586,
				"method": "rhf"
			},
			{
				"type": "unocc",
				"energy": 0.00205,
				"method": "rhf"
			},
			{
				"type": "unocc",
				"energy": 0.02707,
				"method": "rhf"
			},
			{
				"type": "unocc",
				"energy": 0.05931,
				"method": "rhf"
			}
		],
		"cosmo_sigma_profile": { 
			"-0.025": 0.0,
			"-0.024": 0.0,
			"-0.023": 0.0,
			"-0.022": 0.0,
			"-0.021": 0.0,
			"-0.02": 0.0,
			"-0.019": 0.0708839096211,
			"-0.018": 0.809783109992,
			"-0.017": 0.600554754237,
			"-0.016": 1.05672084785,
			"-0.015": 1.12925881801,
			"-0.014": 0.545369952454,
			"-0.013": 0.272263916181,
			"-0.012": 0.573485236412,
			"-0.011": 0.954569429424,
			"-0.01": 0.892127713246,
			"-0.009": 1.01616759737,
			"-0.008": 3.80442550039,
			"-0.007": 10.1783538851,
			"-0.006": 11.1838059337,
			"-0.005": 14.5396343514,
			"-0.004": 16.2608132028,
			"-0.003": 18.9330141014,
			"-0.002": 23.1693304599,
			"-0.001": 33.8408069183,
			"0.0": 34.3717103585,
			"0.001": 25.3837227328,
			"0.002": 29.7780781073,
			"0.003": 34.1640749986,
			"0.004": 7.59221503671,
			"0.005": 8.27715104643,
			"0.006": 6.36988221849,
			"0.007": 6.25285380428,
			"0.008": 4.38883454681,
			"0.009": 4.57330622077,
			"0.01": 5.14778145826,
			"0.011": 4.32503435006,
			"0.012": 2.73521096188,
			"0.013": 0.0183438911662,
			"0.014": 0.0,
			"0.015": 0.0,
			"0.016": 0.0,
			"0.017": 0.0,
			"0.018": 0.0,
			"0.019": 0.0,
			"0.02": 0.0,
			"0.021": 0.0,
			"0.022": 0.0,
			"0.023": 0.0,
			"0.024": 0.0,
			"0.025": 0.0
		}
	}
}
