{
	 "smiles": "CCCCC1=C(C)N=C(N)N=C1Cl", 
	 "Tm": 435.15, 
	 "num_atms": 27, 
	 "gaussian": { 
		 "optdone": 1, 
		 "sigma_profile": "yes", 
		 "theory": "DFT", 
		 "functional": "B3LYP", 
		 "basiset": "6-31G**", 
		 "properties": { 
			 "R2extent": 3219.9662, 
			 "electric_dipole_moment_norm": 2.14963217784, 
			 "electric_quadrupole_moment_norm": 12.8709026039, 
			 "total_energy": -975.878947372, 
			 "HOMO_LUMO_gap": 0.19405, 
			 "cosmo_polarized_energy": -9.29, 
			 "cosmo_cavitation_energy": 30.42, 
			 "cosmo_dispersion_energy": -22.15, 
			 "cosmo_repulsion_energy": 1.78, 
			 "cosmo_total_nonelectrostatic_energy": 10.05, 
			 "SMD_solvation_energy": 1.97 
		},
		"coords": [
			{
				"x": 2.8932225107,
				"y": -2.9425582691,
				"z": -0.4315029326,
				"element": "C" 
			},
			{
				"x": 1.5822807121,
				"y": -2.7570183134,
				"z": 0.3428717313,
				"element": "C" 
			},
			{
				"x": 1.6832385767,
				"y": -1.7823373264,
				"z": 1.5278015314,
				"element": "C" 
			},
			{
				"x": 1.7712763317,
				"y": -0.2806855282,
				"z": 1.1565814708,
				"element": "C" 
			},
			{
				"x": 0.4918393444,
				"y": 0.3149568261,
				"z": 0.6085875725,
				"element": "C" 
			},
			{
				"x": 0.2816484695,
				"y": 0.6104217762,
				"z": -0.7592057471,
				"element": "C" 
			},
			{
				"x": 1.3501549488,
				"y": 0.3862547374,
				"z": -1.8023005065,
				"element": "C" 
			},
			{
				"x": -0.8637241918,
				"y": 1.1252745779,
				"z": -1.2235783566,
				"element": "N" 
			},
			{
				"x": -1.8304447995,
				"y": 1.3698005273,
				"z": -0.3256977244,
				"element": "C" 
			},
			{
				"x": -2.9928062962,
				"y": 1.911653586,
				"z": -0.7886614919,
				"element": "N" 
			},
			{
				"x": -1.7442424236,
				"y": 1.1594565216,
				"z": 1.0007916023,
				"element": "N" 
			},
			{
				"x": -0.6032215452,
				"y": 0.6523203902,
				"z": 1.4184715024,
				"element": "C" 
			},
			{
				"x": -0.50073393,
				"y": 0.4226249695,
				"z": 3.1716049142,
				"element": "Cl" 
			},
			{
				"x": 2.7665425234,
				"y": -3.6401213577,
				"z": -1.2660933948,
				"element": "H" 
			},
			{
				"x": 3.6773900184,
				"y": -3.3442632165,
				"z": 0.220406717,
				"element": "H" 
			},
			{
				"x": 3.2674638566,
				"y": -2.0004316376,
				"z": -0.846657589,
				"element": "H" 
			},
			{
				"x": 0.7850559314,
				"y": -2.4281494079,
				"z": -0.3369275436,
				"element": "H" 
			},
			{
				"x": 1.261265254,
				"y": -3.734437092,
				"z": 0.7240758237,
				"element": "H" 
			},
			{
				"x": 2.5700126943,
				"y": -2.0377001255,
				"z": 2.1235101196,
				"element": "H" 
			},
			{
				"x": 0.8225637205,
				"y": -1.9246239891,
				"z": 2.189285721,
				"element": "H" 
			},
			{
				"x": 2.5826680809,
				"y": -0.1259679219,
				"z": 0.4394344475,
				"element": "H" 
			},
			{
				"x": 2.0543281499,
				"y": 0.2741880882,
				"z": 2.0575215574,
				"element": "H" 
			},
			{
				"x": 1.636087542,
				"y": -0.6674964902,
				"z": -1.8698050185,
				"element": "H" 
			},
			{
				"x": 2.2577139434,
				"y": 0.9545366561,
				"z": -1.5704769056,
				"element": "H" 
			},
			{
				"x": 0.9707400048,
				"y": 0.7117252271,
				"z": -2.7713173033,
				"element": "H" 
			},
			{
				"x": -3.1477347197,
				"y": 1.8976859592,
				"z": -1.7833830437,
				"element": "H" 
			},
			{
				"x": -3.7856847073,
				"y": 1.9208908327,
				"z": -0.1680371534,
				"element": "H" 
			}
		],
		 "valence_orbital": [ 
			{
				"type": "occ",
				"energy": -0.30927,
				"method": "rhf"
			},
			{
				"type": "occ",
				"energy": -0.30419,
				"method": "rhf"
			},
			{
				"type": "occ",
				"energy": -0.28631,
				"method": "rhf"
			},
			{
				"type": "occ",
				"energy": -0.25163,
				"method": "rhf"
			},
			{
				"type": "occ",
				"energy": -0.22368,
				"method": "rhf"
			},
			{
				"type": "unocc",
				"energy": -0.02963,
				"method": "rhf"
			},
			{
				"type": "unocc",
				"energy": -0.004,
				"method": "rhf"
			},
			{
				"type": "unocc",
				"energy": 0.03769,
				"method": "rhf"
			},
			{
				"type": "unocc",
				"energy": 0.07949,
				"method": "rhf"
			},
			{
				"type": "unocc",
				"energy": 0.08996,
				"method": "rhf"
			}
		],
		"cosmo_sigma_profile": { 
			"-0.025": 0.0,
			"-0.024": 0.0,
			"-0.023": 0.0,
			"-0.022": 0.0,
			"-0.021": 0.0,
			"-0.02": 0.0,
			"-0.019": 0.0,
			"-0.018": 0.0,
			"-0.017": 0.0,
			"-0.016": 0.0,
			"-0.015": 0.0,
			"-0.014": 0.993422883011,
			"-0.013": 2.00107231499,
			"-0.012": 2.13586387448,
			"-0.011": 2.68572153062,
			"-0.01": 1.36515111344,
			"-0.009": 2.10122087209,
			"-0.008": 1.14469056993,
			"-0.007": 1.99772456237,
			"-0.006": 2.423461299,
			"-0.005": 4.94269902704,
			"-0.004": 8.83851055476,
			"-0.003": 17.0252209555,
			"-0.002": 27.1970772957,
			"-0.001": 35.3362549461,
			"0.0": 39.5618833745,
			"0.001": 25.9741200039,
			"0.002": 13.734810476,
			"0.003": 11.9932764481,
			"0.004": 9.37990279477,
			"0.005": 7.30383822158,
			"0.006": 4.38867910698,
			"0.007": 3.87685701948,
			"0.008": 3.81093948672,
			"0.009": 2.52339407526,
			"0.01": 1.99130260811,
			"0.011": 2.77879818066,
			"0.012": 1.05905093635,
			"0.013": 1.99107959303,
			"0.014": 0.406500991499,
			"0.015": 0.0,
			"0.016": 0.0,
			"0.017": 0.0,
			"0.018": 0.0,
			"0.019": 0.0,
			"0.02": 0.0,
			"0.021": 0.0,
			"0.022": 0.0,
			"0.023": 0.0,
			"0.024": 0.0,
			"0.025": 0.0
		}
	}
}
