{
	 "smiles": "CC1=C(I)C=CC(N)=C1", 
	 "Tm": 325.65, 
	 "num_atms": 17, 
	 "gaussian": { 
		 "optdone": 1, 
		 "sigma_profile": "no", 
		 "theory": "DFT", 
		 "functional": "B3LYP", 
		 "basiset": "6-31G**", 
		 "properties": { 
			 "R2extent": 1441.2848, 
			 "electric_dipole_moment_norm": 3.46602763405, 
			 "electric_quadrupole_moment_norm": 7.66332593526, 
			 "total_energy": -337.713455028, 
			 "HOMO_LUMO_gap": 0.17514, 
			 "cosmo_polarized_energy": -87248.76, 
			 "cosmo_cavitation_energy": 23.34, 
			 "cosmo_dispersion_energy": -18.72, 
			 "cosmo_repulsion_energy": 1.49, 
			 "cosmo_total_nonelectrostatic_energy": 6.11, 
			 "SMD_solvation_energy": 3.15 
		},
		"coords": [
			{
				"x": -2.3372841105,
				"y": -1.1800810206,
				"z": 0.9190810668,
				"element": "C" 
			},
			{
				"x": -1.1082245134,
				"y": -0.8004513443,
				"z": 0.1320111045,
				"element": "C" 
			},
			{
				"x": -1.1069116601,
				"y": -0.6606288738,
				"z": -1.2659795738,
				"element": "C" 
			},
			{
				"x": -2.8770488767,
				"y": -0.9766066734,
				"z": -2.4068465398,
				"element": "I" 
			},
			{
				"x": 0.0554182735,
				"y": -0.3068106492,
				"z": -1.9527826808,
				"element": "C" 
			},
			{
				"x": 1.2417046063,
				"y": -0.0835920972,
				"z": -1.2612282679,
				"element": "C" 
			},
			{
				"x": 1.2791104196,
				"y": -0.2132016078,
				"z": 0.1360493534,
				"element": "C" 
			},
			{
				"x": 2.4715011947,
				"y": -0.0484818445,
				"z": 0.8389914045,
				"element": "N" 
			},
			{
				"x": 0.0972420512,
				"y": -0.5700477731,
				"z": 0.8046792647,
				"element": "C" 
			},
			{
				"x": -2.1145382083,
				"y": -1.230791469,
				"z": 1.9878565365,
				"element": "H" 
			},
			{
				"x": -2.7256140797,
				"y": -2.1546924391,
				"z": 0.6041196381,
				"element": "H" 
			},
			{
				"x": -3.1450982427,
				"y": -0.4551329253,
				"z": 0.7713520938,
				"element": "H" 
			},
			{
				"x": 0.0388841453,
				"y": -0.201574696,
				"z": -3.031935757,
				"element": "H" 
			},
			{
				"x": 2.1414759522,
				"y": 0.1870508404,
				"z": -1.807543965,
				"element": "H" 
			},
			{
				"x": 3.1678798249,
				"y": 0.5243268703,
				"z": 0.3829965522,
				"element": "H" 
			},
			{
				"x": 2.370399424,
				"y": 0.182835131,
				"z": 1.8173988727,
				"element": "H" 
			},
			{
				"x": 0.1164037997,
				"y": -0.6775194284,
				"z": 1.8869808971,
				"element": "H" 
			}
		],
		 "valence_orbital": [ 
			{
				"type": "occ",
				"energy": -0.32188,
				"method": "rhf"
			},
			{
				"type": "occ",
				"energy": -0.26288,
				"method": "rhf"
			},
			{
				"type": "occ",
				"energy": -0.25764,
				"method": "rhf"
			},
			{
				"type": "occ",
				"energy": -0.24817,
				"method": "rhf"
			},
			{
				"type": "occ",
				"energy": -0.2023,
				"method": "rhf"
			},
			{
				"type": "unocc",
				"energy": -0.02716,
				"method": "rhf"
			},
			{
				"type": "unocc",
				"energy": -0.00352,
				"method": "rhf"
			},
			{
				"type": "unocc",
				"energy": 0.00526,
				"method": "rhf"
			},
			{
				"type": "unocc",
				"energy": 0.04526,
				"method": "rhf"
			},
			{
				"type": "unocc",
				"energy": 0.05507,
				"method": "rhf"
			}
		],
		"cosmo_sigma_profile": { 
			"0.0": 0.0,
			"0.0": 0.0,
			"0.0": 0.0,
			"0.0": 0.0,
			"0.0": 0.0,
			"0.0": 0.0,
			"0.0": 0.0,
			"0.0": 0.0,
			"0.0": 0.0,
			"0.0": 0.0,
			"0.0": 0.0,
			"0.0": 0.0,
			"0.0": 0.0,
			"0.0": 0.0,
			"0.0": 0.0,
			"0.0": 0.0,
			"0.0": 0.0,
			"0.0": 0.0,
			"0.0": 0.0,
			"0.0": 0.0,
			"0.0": 0.0,
			"0.0": 0.0,
			"0.0": 0.0,
			"0.0": 0.0,
			"0.0": 0.0,
			"0.0": 0.0,
			"0.0": 0.0,
			"0.0": 0.0,
			"0.0": 0.0,
			"0.0": 0.0,
			"0.0": 0.0,
			"0.0": 0.0,
			"0.0": 0.0,
			"0.0": 0.0,
			"0.0": 0.0,
			"0.0": 0.0,
			"0.0": 0.0,
			"0.0": 0.0,
			"0.0": 0.0,
			"0.0": 0.0,
			"0.0": 0.0,
			"0.0": 0.0,
			"0.0": 0.0,
			"0.0": 0.0,
			"0.0": 0.0,
			"0.0": 0.0,
			"0.0": 0.0,
			"0.0": 0.0,
			"0.0": 0.0,
			"0.0": 0.0,
			"0.0": 0.0
		}
	}
}
