{
	 "smiles": "OC(=O)C1=CC2=C(NC=N2)C=C1", 
	 "Tm": 573.15, 
	 "num_atms": 18, 
	 "gaussian": { 
		 "optdone": 1, 
		 "sigma_profile": "yes", 
		 "theory": "DFT", 
		 "functional": "B3LYP", 
		 "basiset": "6-31G**", 
		 "properties": { 
			 "R2extent": 2439.7141, 
			 "electric_dipole_moment_norm": 6.82879221752, 
			 "electric_quadrupole_moment_norm": 20.6202927108, 
			 "total_energy": -568.433871252, 
			 "HOMO_LUMO_gap": 0.19968, 
			 "cosmo_polarized_energy": -22.03, 
			 "cosmo_cavitation_energy": 22.87, 
			 "cosmo_dispersion_energy": -17.38, 
			 "cosmo_repulsion_energy": 1.36, 
			 "cosmo_total_nonelectrostatic_energy": 6.85, 
			 "SMD_solvation_energy": 3.32 
		},
		"coords": [
			{
				"x": -1.861669695,
				"y": 2.2915365261,
				"z": 2.8053221448,
				"element": "O" 
			},
			{
				"x": -2.0556638316,
				"y": 0.9522005037,
				"z": 2.6582300706,
				"element": "C" 
			},
			{
				"x": -2.9030357042,
				"y": 0.3937094651,
				"z": 3.316235572,
				"element": "O" 
			},
			{
				"x": -1.1846137418,
				"y": 0.2476201494,
				"z": 1.6641380632,
				"element": "C" 
			},
			{
				"x": 0.0246988321,
				"y": 0.7819371365,
				"z": 1.2100445375,
				"element": "C" 
			},
			{
				"x": 0.7750139204,
				"y": 0.04199371,
				"z": 0.2922518619,
				"element": "C" 
			},
			{
				"x": 0.3025710432,
				"y": -1.2183628214,
				"z": -0.1500329313,
				"element": "C" 
			},
			{
				"x": 1.271972579,
				"y": -1.6588667408,
				"z": -1.028810986,
				"element": "N" 
			},
			{
				"x": 2.2459926147,
				"y": -0.6828309217,
				"z": -1.0712603642,
				"element": "C" 
			},
			{
				"x": 1.993979521,
				"y": 0.3427313616,
				"z": -0.301622504,
				"element": "N" 
			},
			{
				"x": -0.8980805851,
				"y": -1.771490727,
				"z": 0.3059383799,
				"element": "C" 
			},
			{
				"x": -1.6244146553,
				"y": -1.0232098516,
				"z": 1.2206528361,
				"element": "C" 
			},
			{
				"x": -1.2811708406,
				"y": 2.6219733069,
				"z": 2.1061275902,
				"element": "H" 
			},
			{
				"x": 0.4221578599,
				"y": 1.7267332772,
				"z": 1.5704131449,
				"element": "H" 
			},
			{
				"x": 1.2759237716,
				"y": -2.5295103789,
				"z": -1.5374440024,
				"element": "H" 
			},
			{
				"x": 3.1230379942,
				"y": -0.7934437769,
				"z": -1.6961566302,
				"element": "H" 
			},
			{
				"x": -1.2502699617,
				"y": -2.7415359124,
				"z": -0.0309060729,
				"element": "H" 
			},
			{
				"x": -2.5579291207,
				"y": -1.3983843058,
				"z": 1.6244792897,
				"element": "H" 
			}
		],
		 "valence_orbital": [ 
			{
				"type": "occ",
				"energy": -0.30866,
				"method": "rhf"
			},
			{
				"type": "occ",
				"energy": -0.28978,
				"method": "rhf"
			},
			{
				"type": "occ",
				"energy": -0.26828,
				"method": "rhf"
			},
			{
				"type": "occ",
				"energy": -0.24937,
				"method": "rhf"
			},
			{
				"type": "occ",
				"energy": -0.24484,
				"method": "rhf"
			},
			{
				"type": "unocc",
				"energy": -0.04516,
				"method": "rhf"
			},
			{
				"type": "unocc",
				"energy": -0.02472,
				"method": "rhf"
			},
			{
				"type": "unocc",
				"energy": 0.03411,
				"method": "rhf"
			},
			{
				"type": "unocc",
				"energy": 0.059,
				"method": "rhf"
			},
			{
				"type": "unocc",
				"energy": 0.06279,
				"method": "rhf"
			}
		],
		"cosmo_sigma_profile": { 
			"-0.025": 0.0,
			"-0.024": 0.0,
			"-0.023": 0.0,
			"-0.022": 0.0,
			"-0.021": 0.0,
			"-0.02": 0.0,
			"-0.019": 0.0993449753251,
			"-0.018": 0.784934209181,
			"-0.017": 2.29205095485,
			"-0.016": 3.31962664015,
			"-0.015": 2.25965810928,
			"-0.014": 2.31658232703,
			"-0.013": 2.13289855279,
			"-0.012": 2.32165339377,
			"-0.011": 2.6497847731,
			"-0.01": 4.53940181362,
			"-0.009": 4.50747154938,
			"-0.008": 4.86852182653,
			"-0.007": 5.93811544058,
			"-0.006": 6.50953365845,
			"-0.005": 5.30358581727,
			"-0.004": 7.42150849127,
			"-0.003": 6.64645016475,
			"-0.002": 7.10679656623,
			"-0.001": 8.57830757878,
			"0.0": 12.1778979519,
			"0.001": 10.8370190087,
			"0.002": 13.7719771113,
			"0.003": 14.2142134062,
			"0.004": 7.89830525333,
			"0.005": 4.0883905412,
			"0.006": 3.96460508521,
			"0.007": 3.91912170366,
			"0.008": 4.49247409996,
			"0.009": 3.79816956856,
			"0.01": 5.15693925826,
			"0.011": 5.95609760971,
			"0.012": 7.33406078989,
			"0.013": 3.03836122504,
			"0.014": 1.29554607948,
			"0.015": 0.967097151643,
			"0.016": 1.02000931807,
			"0.017": 0.69765828855,
			"0.018": 0.0,
			"0.019": 0.0,
			"0.02": 0.0,
			"0.021": 0.0,
			"0.022": 0.0,
			"0.023": 0.0,
			"0.024": 0.0,
			"0.025": 0.0
		}
	}
}
