{
	 "smiles": "BrC(C=O)C=NC1=NC=CS1", 
	 "Tm": 411.15, 
	 "num_atms": 16, 
	 "gaussian": { 
		 "optdone": 1, 
		 "sigma_profile": "yes", 
		 "theory": "DFT", 
		 "functional": "B3LYP", 
		 "basiset": "6-31G**", 
		 "properties": { 
			 "R2extent": 5098.1827, 
			 "electric_dipole_moment_norm": 3.30027715351, 
			 "electric_quadrupole_moment_norm": 5.38619704615, 
			 "total_energy": -3385.91622306, 
			 "HOMO_LUMO_gap": 0.15543, 
			 "cosmo_polarized_energy": -8.82, 
			 "cosmo_cavitation_energy": 25.43, 
			 "cosmo_dispersion_energy": -19.19, 
			 "cosmo_repulsion_energy": 1.52, 
			 "cosmo_total_nonelectrostatic_energy": 7.76, 
			 "SMD_solvation_energy": 2.21 
		},
		"coords": [
			{
				"x": 0.0762262279,
				"y": -3.7948781212,
				"z": -2.6098187189,
				"element": "Br" 
			},
			{
				"x": 0.8199496652,
				"y": -1.9311350108,
				"z": -2.5103197435,
				"element": "C" 
			},
			{
				"x": 1.5699787644,
				"y": -1.7399352461,
				"z": -3.8166934361,
				"element": "C" 
			},
			{
				"x": 2.7391947488,
				"y": -1.4357490556,
				"z": -3.871851152,
				"element": "O" 
			},
			{
				"x": 1.6943270083,
				"y": -1.8432025181,
				"z": -1.2952663105,
				"element": "C" 
			},
			{
				"x": 1.4386162802,
				"y": -1.3068450639,
				"z": -0.1580700154,
				"element": "N" 
			},
			{
				"x": 0.252584769,
				"y": -0.6809970082,
				"z": 0.1701466864,
				"element": "C" 
			},
			{
				"x": -0.8270687947,
				"y": -0.4669763482,
				"z": -0.5481603929,
				"element": "N" 
			},
			{
				"x": -1.7763169208,
				"y": 0.2007024783,
				"z": 0.1743738994,
				"element": "C" 
			},
			{
				"x": -1.4416338195,
				"y": 0.5119664265,
				"z": 1.4669949247,
				"element": "C" 
			},
			{
				"x": 0.149380841,
				"y": -0.0538552516,
				"z": 1.8133198674,
				"element": "S" 
			},
			{
				"x": -0.0647168636,
				"y": -1.2980188085,
				"z": -2.4401680586,
				"element": "H" 
			},
			{
				"x": 0.9559456328,
				"y": -1.8994982595,
				"z": -4.7255090676,
				"element": "H" 
			},
			{
				"x": 2.6790652229,
				"y": -2.2975136593,
				"z": -1.4046333663,
				"element": "H" 
			},
			{
				"x": -2.7230225644,
				"y": 0.4445387617,
				"z": -0.2934103232,
				"element": "H" 
			},
			{
				"x": -2.0390101975,
				"y": 1.0278966846,
				"z": 2.2050652071,
				"element": "H" 
			}
		],
		 "valence_orbital": [ 
			{
				"type": "occ",
				"energy": -0.29896,
				"method": "rhf"
			},
			{
				"type": "occ",
				"energy": -0.29755,
				"method": "rhf"
			},
			{
				"type": "occ",
				"energy": -0.28249,
				"method": "rhf"
			},
			{
				"type": "occ",
				"energy": -0.26815,
				"method": "rhf"
			},
			{
				"type": "occ",
				"energy": -0.24853,
				"method": "rhf"
			},
			{
				"type": "unocc",
				"energy": -0.0931,
				"method": "rhf"
			},
			{
				"type": "unocc",
				"energy": -0.0576,
				"method": "rhf"
			},
			{
				"type": "unocc",
				"energy": -0.00879,
				"method": "rhf"
			},
			{
				"type": "unocc",
				"energy": 0.01074,
				"method": "rhf"
			},
			{
				"type": "unocc",
				"energy": 0.02537,
				"method": "rhf"
			}
		],
		"cosmo_sigma_profile": { 
			"-0.025": 0.0,
			"-0.024": 0.0,
			"-0.023": 0.0,
			"-0.022": 0.0,
			"-0.021": 0.0,
			"-0.02": 0.0,
			"-0.019": 0.0,
			"-0.018": 0.0,
			"-0.017": 0.0,
			"-0.016": 0.0,
			"-0.015": 0.0,
			"-0.014": 0.0,
			"-0.013": 0.0,
			"-0.012": 0.0,
			"-0.011": 0.0,
			"-0.01": 1.56166239539,
			"-0.009": 4.91064483982,
			"-0.008": 9.2489282881,
			"-0.007": 9.3537240401,
			"-0.006": 9.0489978276,
			"-0.005": 8.26895593372,
			"-0.004": 9.11490325631,
			"-0.003": 9.426448124,
			"-0.002": 9.50002296668,
			"-0.001": 14.5654299033,
			"0.0": 21.2531518073,
			"0.001": 24.1944455373,
			"0.002": 20.4027488341,
			"0.003": 16.3841772358,
			"0.004": 13.6052275102,
			"0.005": 7.666983774,
			"0.006": 4.71353252959,
			"0.007": 3.63805327466,
			"0.008": 3.08060137492,
			"0.009": 4.05254547058,
			"0.01": 4.01556628618,
			"0.011": 2.14485227897,
			"0.012": 0.507658385277,
			"0.013": 0.0428599290675,
			"0.014": 0.0,
			"0.015": 0.0,
			"0.016": 0.0,
			"0.017": 0.0,
			"0.018": 0.0,
			"0.019": 0.0,
			"0.02": 0.0,
			"0.021": 0.0,
			"0.022": 0.0,
			"0.023": 0.0,
			"0.024": 0.0,
			"0.025": 0.0
		}
	}
}
