{
	 "smiles": "CNC1=NC(N)=NN1", 
	 "Tm": 432.15, 
	 "num_atms": 15, 
	 "gaussian": { 
		 "optdone": 1, 
		 "sigma_profile": "yes", 
		 "theory": "DFT", 
		 "functional": "B3LYP", 
		 "basiset": "6-31G**", 
		 "properties": { 
			 "R2extent": 1203.758, 
			 "electric_dipole_moment_norm": 3.20485451932, 
			 "electric_quadrupole_moment_norm": 12.1082216444, 
			 "total_energy": -392.283401893, 
			 "HOMO_LUMO_gap": 0.23503, 
			 "cosmo_polarized_energy": -18.07, 
			 "cosmo_cavitation_energy": 19.07, 
			 "cosmo_dispersion_energy": -14.67, 
			 "cosmo_repulsion_energy": 1.26, 
			 "cosmo_total_nonelectrostatic_energy": 5.65, 
			 "SMD_solvation_energy": 0.09 
		},
		"coords": [
			{
				"x": 0.6845458648,
				"y": -1.2257034507,
				"z": -3.1251636848,
				"element": "C" 
			},
			{
				"x": -0.2523656712,
				"y": -1.8416855241,
				"z": -2.1912419998,
				"element": "N" 
			},
			{
				"x": -0.3936273092,
				"y": -1.2684181153,
				"z": -0.9478948989,
				"element": "C" 
			},
			{
				"x": 0.3929752992,
				"y": -0.3376793665,
				"z": -0.4279154347,
				"element": "N" 
			},
			{
				"x": -0.1282000837,
				"y": -0.1811684586,
				"z": 0.8319812176,
				"element": "C" 
			},
			{
				"x": 0.4591190235,
				"y": 0.6819811384,
				"z": 1.7408964116,
				"element": "N" 
			},
			{
				"x": -1.1839598442,
				"y": -0.9217840462,
				"z": 1.1253683032,
				"element": "N" 
			},
			{
				"x": -1.3543382772,
				"y": -1.6231904001,
				"z": -0.0614806081,
				"element": "N" 
			},
			{
				"x": 0.7859817463,
				"y": -1.875102341,
				"z": -3.998020186,
				"element": "H" 
			},
			{
				"x": 0.3744572341,
				"y": -0.2240697979,
				"z": -3.45340239,
				"element": "H" 
			},
			{
				"x": 1.6564394348,
				"y": -1.1323288463,
				"z": -2.6385293564,
				"element": "H" 
			},
			{
				"x": -1.1202336739,
				"y": -2.1517729711,
				"z": -2.6073913862,
				"element": "H" 
			},
			{
				"x": -0.1641518489,
				"y": 0.9662714493,
				"z": 2.4842860708,
				"element": "H" 
			},
			{
				"x": 0.9286935427,
				"y": 1.459582045,
				"z": 1.2979168911,
				"element": "H" 
			},
			{
				"x": -1.9948354371,
				"y": -2.3997313149,
				"z": -0.0913089493,
				"element": "H" 
			}
		],
		 "valence_orbital": [ 
			{
				"type": "occ",
				"energy": -0.31387,
				"method": "rhf"
			},
			{
				"type": "occ",
				"energy": -0.29571,
				"method": "rhf"
			},
			{
				"type": "occ",
				"energy": -0.25788,
				"method": "rhf"
			},
			{
				"type": "occ",
				"energy": -0.23952,
				"method": "rhf"
			},
			{
				"type": "occ",
				"energy": -0.19049,
				"method": "rhf"
			},
			{
				"type": "unocc",
				"energy": 0.04454,
				"method": "rhf"
			},
			{
				"type": "unocc",
				"energy": 0.06988,
				"method": "rhf"
			},
			{
				"type": "unocc",
				"energy": 0.08811,
				"method": "rhf"
			},
			{
				"type": "unocc",
				"energy": 0.10272,
				"method": "rhf"
			},
			{
				"type": "unocc",
				"energy": 0.11293,
				"method": "rhf"
			}
		],
		"cosmo_sigma_profile": { 
			"-0.025": 0.0,
			"-0.024": 0.0,
			"-0.023": 0.0,
			"-0.022": 0.0,
			"-0.021": 0.0,
			"-0.02": 0.0,
			"-0.019": 0.0,
			"-0.018": 0.0,
			"-0.017": 0.0075395880979,
			"-0.016": 1.62246069681,
			"-0.015": 2.32485972155,
			"-0.014": 3.68986065282,
			"-0.013": 2.90575219286,
			"-0.012": 4.04810244023,
			"-0.011": 3.40862485322,
			"-0.01": 3.53594677097,
			"-0.009": 3.96615468958,
			"-0.008": 3.8489697077,
			"-0.007": 3.41570509912,
			"-0.006": 4.45228719423,
			"-0.005": 4.71540870267,
			"-0.004": 7.78538753894,
			"-0.003": 8.73810389274,
			"-0.002": 9.59525736352,
			"-0.001": 9.4768430554,
			"0.0": 5.49713285587,
			"0.001": 4.06304867072,
			"0.002": 6.04096557343,
			"0.003": 6.24581376847,
			"0.004": 5.53290125969,
			"0.005": 5.27454643003,
			"0.006": 3.6673279123,
			"0.007": 5.70289522671,
			"0.008": 4.39708960051,
			"0.009": 4.61954704235,
			"0.01": 3.74339765479,
			"0.011": 3.83321245796,
			"0.012": 3.96909063218,
			"0.013": 2.06374641057,
			"0.014": 2.72583431464,
			"0.015": 2.78553156663,
			"0.016": 1.59049028002,
			"0.017": 0.777408424039,
			"0.018": 0.00647492864786,
			"0.019": 0.0,
			"0.02": 0.0,
			"0.021": 0.0,
			"0.022": 0.0,
			"0.023": 0.0,
			"0.024": 0.0,
			"0.025": 0.0
		}
	}
}
