{
	 "smiles": "CC(C)(O)C1=NC2=C(S1)C=CC=C2", 
	 "Tm": 363.15, 
	 "num_atms": 24, 
	 "gaussian": { 
		 "optdone": 1, 
		 "sigma_profile": "yes", 
		 "theory": "DFT", 
		 "functional": "B3LYP", 
		 "basiset": "6-31G**", 
		 "properties": { 
			 "R2extent": 3499.8481, 
			 "electric_dipole_moment_norm": 1.003836665, 
			 "electric_quadrupole_moment_norm": 7.06194513856, 
			 "total_energy": -915.870939872, 
			 "HOMO_LUMO_gap": 0.20068, 
			 "cosmo_polarized_energy": -9.13, 
			 "cosmo_cavitation_energy": 28.65, 
			 "cosmo_dispersion_energy": -21.2, 
			 "cosmo_repulsion_energy": 1.62, 
			 "cosmo_total_nonelectrostatic_energy": 9.07, 
			 "SMD_solvation_energy": 3.07 
		},
		"coords": [
			{
				"x": 1.0420913617,
				"y": -0.7910506738,
				"z": -2.9139965868,
				"element": "C" 
			},
			{
				"x": 0.0111494755,
				"y": -0.1924536841,
				"z": -1.9474272719,
				"element": "C" 
			},
			{
				"x": -1.1139269412,
				"y": -1.1897661033,
				"z": -1.6393510894,
				"element": "C" 
			},
			{
				"x": -0.4998704417,
				"y": 0.9710001015,
				"z": -2.603482954,
				"element": "O" 
			},
			{
				"x": 0.7085464954,
				"y": 0.2215921458,
				"z": -0.6578509453,
				"element": "C" 
			},
			{
				"x": 1.0654966456,
				"y": -0.586984117,
				"z": 0.283794154,
				"element": "N" 
			},
			{
				"x": 1.7109856711,
				"y": 0.0894963795,
				"z": 1.3101240569,
				"element": "C" 
			},
			{
				"x": 1.8380553052,
				"y": 1.4881058747,
				"z": 1.1218038847,
				"element": "C" 
			},
			{
				"x": 1.1161781125,
				"y": 1.9377085876,
				"z": -0.4114336127,
				"element": "S" 
			},
			{
				"x": 2.4607851129,
				"y": 2.2944043976,
				"z": 2.0787112393,
				"element": "C" 
			},
			{
				"x": 2.9591562214,
				"y": 1.685896597,
				"z": 3.2278669736,
				"element": "C" 
			},
			{
				"x": 2.8393940565,
				"y": 0.2987071044,
				"z": 3.4237435142,
				"element": "C" 
			},
			{
				"x": 2.2189791704,
				"y": -0.5045366457,
				"z": 2.4745189333,
				"element": "C" 
			},
			{
				"x": 1.5233623736,
				"y": -1.6615511829,
				"z": -2.4622791164,
				"element": "H" 
			},
			{
				"x": 0.5433523504,
				"y": -1.0906205171,
				"z": -3.8402406522,
				"element": "H" 
			},
			{
				"x": 1.8075327636,
				"y": -0.0491001844,
				"z": -3.1560047951,
				"element": "H" 
			},
			{
				"x": -1.5927429791,
				"y": -1.5030880415,
				"z": -2.5714058194,
				"element": "H" 
			},
			{
				"x": -0.7199662791,
				"y": -2.0648139551,
				"z": -1.1182214513,
				"element": "H" 
			},
			{
				"x": -1.8705449243,
				"y": -0.7319953245,
				"z": -0.9917193608,
				"element": "H" 
			},
			{
				"x": -1.2655374008,
				"y": 1.2860809746,
				"z": -2.1030918456,
				"element": "H" 
			},
			{
				"x": 2.5565242473,
				"y": 3.3656520692,
				"z": 1.9324706942,
				"element": "H" 
			},
			{
				"x": 3.4478752133,
				"y": 2.2940016244,
				"z": 3.9833318111,
				"element": "H" 
			},
			{
				"x": 3.2377376321,
				"y": -0.1490002246,
				"z": 4.3292971924,
				"element": "H" 
			},
			{
				"x": 2.1185867577,
				"y": -1.5762852026,
				"z": 2.6112430472,
				"element": "H" 
			}
		],
		 "valence_orbital": [ 
			{
				"type": "occ",
				"energy": -0.29963,
				"method": "rhf"
			},
			{
				"type": "occ",
				"energy": -0.29255,
				"method": "rhf"
			},
			{
				"type": "occ",
				"energy": -0.26964,
				"method": "rhf"
			},
			{
				"type": "occ",
				"energy": -0.23591,
				"method": "rhf"
			},
			{
				"type": "occ",
				"energy": -0.23265,
				"method": "rhf"
			},
			{
				"type": "unocc",
				"energy": -0.03197,
				"method": "rhf"
			},
			{
				"type": "unocc",
				"energy": -0.00405,
				"method": "rhf"
			},
			{
				"type": "unocc",
				"energy": 0.02124,
				"method": "rhf"
			},
			{
				"type": "unocc",
				"energy": 0.03386,
				"method": "rhf"
			},
			{
				"type": "unocc",
				"energy": 0.06795,
				"method": "rhf"
			}
		],
		"cosmo_sigma_profile": { 
			"-0.025": 0.0,
			"-0.024": 0.0,
			"-0.023": 0.0,
			"-0.022": 0.0,
			"-0.021": 0.0,
			"-0.02": 0.0,
			"-0.019": 0.0,
			"-0.018": 0.0,
			"-0.017": 0.0,
			"-0.016": 0.271523575391,
			"-0.015": 0.941313108087,
			"-0.014": 0.947649913956,
			"-0.013": 0.99436590215,
			"-0.012": 1.09990289985,
			"-0.011": 0.699996068992,
			"-0.01": 0.892713367057,
			"-0.009": 1.15254704957,
			"-0.008": 1.58539192317,
			"-0.007": 2.96273397531,
			"-0.006": 9.27852981814,
			"-0.005": 10.307197333,
			"-0.004": 18.5750047372,
			"-0.003": 17.6466306659,
			"-0.002": 18.6433028004,
			"-0.001": 20.5230262463,
			"0.0": 22.7946240481,
			"0.001": 16.0162838706,
			"0.002": 16.7082984383,
			"0.003": 18.4225931245,
			"0.004": 18.1204434242,
			"0.005": 11.3722680348,
			"0.006": 3.58648314218,
			"0.007": 2.83624983924,
			"0.008": 2.00945465999,
			"0.009": 2.7012399862,
			"0.01": 1.32536355195,
			"0.011": 2.42890234231,
			"0.012": 2.15379490319,
			"0.013": 1.97360561183,
			"0.014": 0.136035738186,
			"0.015": 0.0,
			"0.016": 0.0,
			"0.017": 0.0,
			"0.018": 0.0,
			"0.019": 0.0,
			"0.02": 0.0,
			"0.021": 0.0,
			"0.022": 0.0,
			"0.023": 0.0,
			"0.024": 0.0,
			"0.025": 0.0
		}
	}
}
