{
	 "smiles": "NC1=C(C=NNC2=CC=CC=C2)C=CC2=C1C(=O)C1=CC=CC=C1C2=O", 
	 "Tm": 483.15, 
	 "num_atms": 41, 
	 "gaussian": { 
		 "optdone": 1, 
		 "sigma_profile": "yes", 
		 "theory": "DFT", 
		 "functional": "B3LYP", 
		 "basiset": "6-31G**", 
		 "properties": { 
			 "R2extent": 14777.3676, 
			 "electric_dipole_moment_norm": 2.96736479894, 
			 "electric_quadrupole_moment_norm": 28.4231918595, 
			 "total_energy": -1123.98485978, 
			 "HOMO_LUMO_gap": 0.09427, 
			 "cosmo_polarized_energy": -17.08, 
			 "cosmo_cavitation_energy": 45.43, 
			 "cosmo_dispersion_energy": -33.6, 
			 "cosmo_repulsion_energy": 2.42, 
			 "cosmo_total_nonelectrostatic_energy": 14.24, 
			 "SMD_solvation_energy": 7.48 
		},
		"coords": [
			{
				"x": 0.7128166783,
				"y": 1.0768231868,
				"z": -0.3706824708,
				"element": "N" 
			},
			{
				"x": 0.2007263904,
				"y": 0.5902484653,
				"z": 0.7745010086,
				"element": "C" 
			},
			{
				"x": -1.1818881476,
				"y": 0.1828561398,
				"z": 0.8294497654,
				"element": "C" 
			},
			{
				"x": -2.0931468387,
				"y": 0.2607568533,
				"z": -0.2978237603,
				"element": "C" 
			},
			{
				"x": -1.7920432289,
				"y": 0.7296446892,
				"z": -1.4684110057,
				"element": "N" 
			},
			{
				"x": -2.7458407854,
				"y": 0.7201668422,
				"z": -2.4143679984,
				"element": "N" 
			},
			{
				"x": -2.5537908856,
				"y": 1.2435395608,
				"z": -3.6922362732,
				"element": "C" 
			},
			{
				"x": -1.3681442584,
				"y": 1.8959012633,
				"z": -4.0647550649,
				"element": "C" 
			},
			{
				"x": -1.2346685571,
				"y": 2.3956827113,
				"z": -5.3583735071,
				"element": "C" 
			},
			{
				"x": -2.2641594891,
				"y": 2.2642052454,
				"z": -6.2928868562,
				"element": "C" 
			},
			{
				"x": -3.4444126969,
				"y": 1.6197379345,
				"z": -5.9154517744,
				"element": "C" 
			},
			{
				"x": -3.5932259926,
				"y": 1.1107778512,
				"z": -4.6285434044,
				"element": "C" 
			},
			{
				"x": -1.6892161589,
				"y": -0.3234781883,
				"z": 2.0307172314,
				"element": "C" 
			},
			{
				"x": -0.9098682099,
				"y": -0.4437827605,
				"z": 3.1760079918,
				"element": "C" 
			},
			{
				"x": 0.4263231467,
				"y": -0.0537922272,
				"z": 3.1429517358,
				"element": "C" 
			},
			{
				"x": 1.0056165385,
				"y": 0.4638302714,
				"z": 1.9559479976,
				"element": "C" 
			},
			{
				"x": 2.4191441843,
				"y": 0.8643834564,
				"z": 1.9393053281,
				"element": "C" 
			},
			{
				"x": 2.9820542367,
				"y": 1.3199174458,
				"z": 0.9294131331,
				"element": "O" 
			},
			{
				"x": 3.2145061983,
				"y": 0.7158894895,
				"z": 3.1951986924,
				"element": "C" 
			},
			{
				"x": 4.5623958702,
				"y": 1.0963962371,
				"z": 3.1916245636,
				"element": "C" 
			},
			{
				"x": 5.3282113962,
				"y": 0.9697867454,
				"z": 4.347554514,
				"element": "C" 
			},
			{
				"x": 4.755969383,
				"y": 0.4614405931,
				"z": 5.520277517,
				"element": "C" 
			},
			{
				"x": 3.4173838059,
				"y": 0.0807868003,
				"z": 5.5324997178,
				"element": "C" 
			},
			{
				"x": 2.6419320987,
				"y": 0.2057199336,
				"z": 4.3733995981,
				"element": "C" 
			},
			{
				"x": 1.214336852,
				"y": -0.2055409672,
				"z": 4.4014459918,
				"element": "C" 
			},
			{
				"x": 0.7025074622,
				"y": -0.6544245298,
				"z": 5.424094277,
				"element": "O" 
			},
			{
				"x": 0.1124742752,
				"y": 1.1298237152,
				"z": -1.1825499133,
				"element": "H" 
			},
			{
				"x": 1.6937317341,
				"y": 1.3365963466,
				"z": -0.3641953028,
				"element": "H" 
			},
			{
				"x": -3.107635081,
				"y": -0.1151770904,
				"z": -0.1078317827,
				"element": "H" 
			},
			{
				"x": -3.655047097,
				"y": 0.3255052553,
				"z": -2.1891016063,
				"element": "H" 
			},
			{
				"x": -0.569981698,
				"y": 2.0154192169,
				"z": -3.3429864238,
				"element": "H" 
			},
			{
				"x": -0.3123270977,
				"y": 2.8987612483,
				"z": -5.634843512,
				"element": "H" 
			},
			{
				"x": -2.1496560606,
				"y": 2.6586943778,
				"z": -7.2973884613,
				"element": "H" 
			},
			{
				"x": -4.2575589928,
				"y": 1.5082638984,
				"z": -6.6269836583,
				"element": "H" 
			},
			{
				"x": -4.5136058149,
				"y": 0.6055170698,
				"z": -4.3445564463,
				"element": "H" 
			},
			{
				"x": -2.7322339824,
				"y": -0.6299396122,
				"z": 2.0612174813,
				"element": "H" 
			},
			{
				"x": -1.3137486095,
				"y": -0.8351642025,
				"z": 4.1019125473,
				"element": "H" 
			},
			{
				"x": 4.9836019243,
				"y": 1.487243941,
				"z": 2.2720354586,
				"element": "H" 
			},
			{
				"x": 6.3730435515,
				"y": 1.2666509443,
				"z": 4.3385211967,
				"element": "H" 
			},
			{
				"x": 5.3564587144,
				"y": 0.3641043423,
				"z": 6.4200718493,
				"element": "H" 
			},
			{
				"x": 2.9451652424,
				"y": -0.3165724934,
				"z": 6.4246216251,
				"element": "H" 
			}
		],
		 "valence_orbital": [ 
			{
				"type": "occ",
				"energy": -0.25943,
				"method": "rhf"
			},
			{
				"type": "occ",
				"energy": -0.25597,
				"method": "rhf"
			},
			{
				"type": "occ",
				"energy": -0.24861,
				"method": "rhf"
			},
			{
				"type": "occ",
				"energy": -0.22061,
				"method": "rhf"
			},
			{
				"type": "occ",
				"energy": -0.19229,
				"method": "rhf"
			},
			{
				"type": "unocc",
				"energy": -0.09802,
				"method": "rhf"
			},
			{
				"type": "unocc",
				"energy": -0.04902,
				"method": "rhf"
			},
			{
				"type": "unocc",
				"energy": -0.03583,
				"method": "rhf"
			},
			{
				"type": "unocc",
				"energy": -0.00634,
				"method": "rhf"
			},
			{
				"type": "unocc",
				"energy": -0.00228,
				"method": "rhf"
			}
		],
		"cosmo_sigma_profile": { 
			"-0.025": 0.0,
			"-0.024": 0.0,
			"-0.023": 0.0,
			"-0.022": 0.0,
			"-0.021": 0.0,
			"-0.02": 0.0,
			"-0.019": 0.0,
			"-0.018": 0.0,
			"-0.017": 0.0,
			"-0.016": 0.0,
			"-0.015": 1.03950575825,
			"-0.014": 1.38347120219,
			"-0.013": 1.91616227937,
			"-0.012": 1.91665170135,
			"-0.011": 1.09294857301,
			"-0.01": 2.01805654062,
			"-0.009": 2.06873802078,
			"-0.008": 6.30271790118,
			"-0.007": 10.7322592376,
			"-0.006": 15.9631762927,
			"-0.005": 23.2666893244,
			"-0.004": 21.9191162824,
			"-0.003": 23.9273873946,
			"-0.002": 19.9720810515,
			"-0.001": 22.2447273106,
			"0.0": 23.1728161135,
			"0.001": 35.7717039458,
			"0.002": 44.2794601368,
			"0.003": 38.5109439529,
			"0.004": 18.3862272514,
			"0.005": 14.0085199967,
			"0.006": 12.9238157559,
			"0.007": 4.14276354032,
			"0.008": 3.12284192413,
			"0.009": 3.18737248955,
			"0.01": 4.17470196659,
			"0.011": 4.95927201311,
			"0.012": 3.90465506236,
			"0.013": 0.0623251934724,
			"0.014": 0.0,
			"0.015": 0.0,
			"0.016": 0.0,
			"0.017": 0.0,
			"0.018": 0.0,
			"0.019": 0.0,
			"0.02": 0.0,
			"0.021": 0.0,
			"0.022": 0.0,
			"0.023": 0.0,
			"0.024": 0.0,
			"0.025": 0.0
		}
	}
}
