{
	 "smiles": "OCCCOC1=CC=C(Br)C=C1", 
	 "Tm": 308.15, 
	 "num_atms": 23, 
	 "gaussian": { 
		 "optdone": 1, 
		 "sigma_profile": "yes", 
		 "theory": "DFT", 
		 "functional": "B3LYP", 
		 "basiset": "6-31G**", 
		 "properties": { 
			 "R2extent": 5604.941, 
			 "electric_dipole_moment_norm": 3.1670097237, 
			 "electric_quadrupole_moment_norm": 8.84491296396, 
			 "total_energy": -3071.42050034, 
			 "HOMO_LUMO_gap": 0.20384, 
			 "cosmo_polarized_energy": -10.03, 
			 "cosmo_cavitation_energy": 28.63, 
			 "cosmo_dispersion_energy": -21.27, 
			 "cosmo_repulsion_energy": 1.72, 
			 "cosmo_total_nonelectrostatic_energy": 9.08, 
			 "SMD_solvation_energy": 3.88 
		},
		"coords": [
			{
				"x": -2.3632541589,
				"y": 3.2577047583,
				"z": -1.5199491086,
				"element": "O" 
			},
			{
				"x": -3.35051451,
				"y": 2.3327687526,
				"z": -1.06623089,
				"element": "C" 
			},
			{
				"x": -2.7414775377,
				"y": 1.1873567799,
				"z": -0.2536934638,
				"element": "C" 
			},
			{
				"x": -1.80455472,
				"y": 0.3243207037,
				"z": -1.1063972348,
				"element": "C" 
			},
			{
				"x": -0.9507697502,
				"y": -0.5066385176,
				"z": -0.3165746478,
				"element": "O" 
			},
			{
				"x": 0.1749110133,
				"y": 0.0334386997,
				"z": 0.2340035567,
				"element": "C" 
			},
			{
				"x": 0.9432382408,
				"y": -0.8432316039,
				"z": 1.0160202283,
				"element": "C" 
			},
			{
				"x": 2.1204869884,
				"y": -0.4108183723,
				"z": 1.6144465356,
				"element": "C" 
			},
			{
				"x": 2.5385074469,
				"y": 0.9093651785,
				"z": 1.4348238636,
				"element": "C" 
			},
			{
				"x": 4.1578199282,
				"y": 1.5105732865,
				"z": 2.2584028327,
				"element": "Br" 
			},
			{
				"x": 1.7867491395,
				"y": 1.7899718695,
				"z": 0.6653011087,
				"element": "C" 
			},
			{
				"x": 0.6015131322,
				"y": 1.3580601879,
				"z": 0.0626498175,
				"element": "C" 
			},
			{
				"x": -2.0680398383,
				"y": 3.770168135,
				"z": -0.7562540367,
				"element": "H" 
			},
			{
				"x": -4.1311967065,
				"y": 2.8390692536,
				"z": -0.4805703061,
				"element": "H" 
			},
			{
				"x": -3.8305629433,
				"y": 1.947259936,
				"z": -1.9731301237,
				"element": "H" 
			},
			{
				"x": -2.1843225499,
				"y": 1.6078485467,
				"z": 0.5926723308,
				"element": "H" 
			},
			{
				"x": -3.5363077229,
				"y": 0.5648609419,
				"z": 0.1740561148,
				"element": "H" 
			},
			{
				"x": -1.2145564563,
				"y": 0.9507288129,
				"z": -1.7836497436,
				"element": "H" 
			},
			{
				"x": -2.3830546651,
				"y": -0.3730188801,
				"z": -1.7192838338,
				"element": "H" 
			},
			{
				"x": 0.5991605727,
				"y": -1.8649348655,
				"z": 1.1382072074,
				"element": "H" 
			},
			{
				"x": 2.7109022754,
				"y": -1.0934001497,
				"z": 2.2151861383,
				"element": "H" 
			},
			{
				"x": 2.1175448374,
				"y": 2.8138587989,
				"z": 0.5311902221,
				"element": "H" 
			},
			{
				"x": 0.0264779846,
				"y": 2.0613877474,
				"z": -0.5280265677,
				"element": "H" 
			}
		],
		 "valence_orbital": [ 
			{
				"type": "occ",
				"energy": -0.29007,
				"method": "rhf"
			},
			{
				"type": "occ",
				"energy": -0.28121,
				"method": "rhf"
			},
			{
				"type": "occ",
				"energy": -0.27958,
				"method": "rhf"
			},
			{
				"type": "occ",
				"energy": -0.26063,
				"method": "rhf"
			},
			{
				"type": "occ",
				"energy": -0.21585,
				"method": "rhf"
			},
			{
				"type": "unocc",
				"energy": -0.01201,
				"method": "rhf"
			},
			{
				"type": "unocc",
				"energy": 0.00295,
				"method": "rhf"
			},
			{
				"type": "unocc",
				"energy": 0.01316,
				"method": "rhf"
			},
			{
				"type": "unocc",
				"energy": 0.0553,
				"method": "rhf"
			},
			{
				"type": "unocc",
				"energy": 0.10315,
				"method": "rhf"
			}
		],
		"cosmo_sigma_profile": { 
			"-0.025": 0.0,
			"-0.024": 0.0,
			"-0.023": 0.0,
			"-0.022": 0.0,
			"-0.021": 0.0,
			"-0.02": 0.0,
			"-0.019": 0.0,
			"-0.018": 0.0,
			"-0.017": 0.0,
			"-0.016": 0.209011498711,
			"-0.015": 0.77878125696,
			"-0.014": 1.00801793923,
			"-0.013": 0.920533992378,
			"-0.012": 0.984021618136,
			"-0.011": 0.718197696304,
			"-0.01": 0.972957391471,
			"-0.009": 1.24146622141,
			"-0.008": 1.45167352079,
			"-0.007": 3.95218511538,
			"-0.006": 8.90475093932,
			"-0.005": 14.0138339034,
			"-0.004": 22.6427453931,
			"-0.003": 21.9042025489,
			"-0.002": 16.6303366217,
			"-0.001": 15.032701512,
			"0.0": 13.1734740718,
			"0.001": 11.9090576949,
			"0.002": 15.880523902,
			"0.003": 21.248914247,
			"0.004": 22.5996666953,
			"0.005": 14.6872769139,
			"0.006": 4.19754111245,
			"0.007": 1.97508507649,
			"0.008": 1.89363219616,
			"0.009": 2.42331065126,
			"0.01": 2.44912403911,
			"0.011": 1.15045445891,
			"0.012": 1.51184930318,
			"0.013": 1.19763450181,
			"0.014": 1.67726091335,
			"0.015": 0.330830709336,
			"0.016": 0.0,
			"0.017": 0.0,
			"0.018": 0.0,
			"0.019": 0.0,
			"0.02": 0.0,
			"0.021": 0.0,
			"0.022": 0.0,
			"0.023": 0.0,
			"0.024": 0.0,
			"0.025": 0.0
		}
	}
}
