{
	 "smiles": "CC1(CC(=O)OC1=O)C1=CC=C(Br)C=C1", 
	 "Tm": 343.15, 
	 "num_atms": 24, 
	 "gaussian": { 
		 "optdone": 1, 
		 "sigma_profile": "yes", 
		 "theory": "DFT", 
		 "functional": "B3LYP", 
		 "basiset": "6-31G**", 
		 "properties": { 
			 "R2extent": 7787.9014, 
			 "electric_dipole_moment_norm": 3.42379822566, 
			 "electric_quadrupole_moment_norm": 14.8498191033, 
			 "total_energy": -3221.68848048, 
			 "HOMO_LUMO_gap": 0.21059, 
			 "cosmo_polarized_energy": -13.44, 
			 "cosmo_cavitation_energy": 30.44, 
			 "cosmo_dispersion_energy": -22.29, 
			 "cosmo_repulsion_energy": 1.74, 
			 "cosmo_total_nonelectrostatic_energy": 9.89, 
			 "SMD_solvation_energy": 5.9 
		},
		"coords": [
			{
				"x": -1.6922939184,
				"y": 1.8900964078,
				"z": -1.0892680399,
				"element": "C" 
			},
			{
				"x": -0.7583723704,
				"y": 1.1926371163,
				"z": -0.0590739654,
				"element": "C" 
			},
			{
				"x": 0.0679776295,
				"y": 2.2344922317,
				"z": 0.7252194675,
				"element": "C" 
			},
			{
				"x": 1.3928341808,
				"y": 2.3184612151,
				"z": -0.0028933579,
				"element": "C" 
			},
			{
				"x": 2.2667396852,
				"y": 3.1284855083,
				"z": 0.0955244994,
				"element": "O" 
			},
			{
				"x": 1.5019681385,
				"y": 1.2280849541,
				"z": -0.8593641512,
				"element": "O" 
			},
			{
				"x": 0.3313659236,
				"y": 0.4875058841,
				"z": -0.8891948553,
				"element": "C" 
			},
			{
				"x": 0.253228691,
				"y": -0.5032658453,
				"z": -1.5599804847,
				"element": "O" 
			},
			{
				"x": -1.5838610617,
				"y": 0.2523859491,
				"z": 0.8238872339,
				"element": "C" 
			},
			{
				"x": -2.1414024047,
				"y": 0.7396669758,
				"z": 2.0151877965,
				"element": "C" 
			},
			{
				"x": -2.9506499576,
				"y": -0.0608093876,
				"z": 2.8210582387,
				"element": "C" 
			},
			{
				"x": -3.210257515,
				"y": -1.3721644294,
				"z": 2.4311619714,
				"element": "C" 
			},
			{
				"x": -4.3106773242,
				"y": -2.4820734361,
				"z": 3.5286634994,
				"element": "Br" 
			},
			{
				"x": -2.6784140622,
				"y": -1.8802237001,
				"z": 1.24856393,
				"element": "C" 
			},
			{
				"x": -1.8755413227,
				"y": -1.0669198686,
				"z": 0.448230838,
				"element": "C" 
			},
			{
				"x": -2.1710846075,
				"y": 1.1461420913,
				"z": -1.7297672333,
				"element": "H" 
			},
			{
				"x": -2.4700307759,
				"y": 2.4452933284,
				"z": -0.55778211,
				"element": "H" 
			},
			{
				"x": -1.135786838,
				"y": 2.5888729305,
				"z": -1.723458241,
				"element": "H" 
			},
			{
				"x": 0.2817871149,
				"y": 1.9001631333,
				"z": 1.7461186802,
				"element": "H" 
			},
			{
				"x": -0.3857789431,
				"y": 3.2258311379,
				"z": 0.7893427433,
				"element": "H" 
			},
			{
				"x": -1.9568365793,
				"y": 1.7624364659,
				"z": 2.3303123975,
				"element": "H" 
			},
			{
				"x": -3.3713728918,
				"y": 0.3314937011,
				"z": 3.7398024058,
				"element": "H" 
			},
			{
				"x": -2.8867309426,
				"y": -2.901762792,
				"z": 0.9514216633,
				"element": "H" 
			},
			{
				"x": -1.4650098483,
				"y": -1.4682295716,
				"z": -0.4701129262,
				"element": "H" 
			}
		],
		 "valence_orbital": [ 
			{
				"type": "occ",
				"energy": -0.31241,
				"method": "rhf"
			},
			{
				"type": "occ",
				"energy": -0.29489,
				"method": "rhf"
			},
			{
				"type": "occ",
				"energy": -0.28877,
				"method": "rhf"
			},
			{
				"type": "occ",
				"energy": -0.27516,
				"method": "rhf"
			},
			{
				"type": "occ",
				"energy": -0.25091,
				"method": "rhf"
			},
			{
				"type": "unocc",
				"energy": -0.04032,
				"method": "rhf"
			},
			{
				"type": "unocc",
				"energy": -0.03138,
				"method": "rhf"
			},
			{
				"type": "unocc",
				"energy": -0.02619,
				"method": "rhf"
			},
			{
				"type": "unocc",
				"energy": -0.00762,
				"method": "rhf"
			},
			{
				"type": "unocc",
				"energy": -0.00024,
				"method": "rhf"
			}
		],
		"cosmo_sigma_profile": { 
			"-0.025": 0.0,
			"-0.024": 0.0,
			"-0.023": 0.0,
			"-0.022": 0.0,
			"-0.021": 0.0,
			"-0.02": 0.0,
			"-0.019": 0.0,
			"-0.018": 0.0,
			"-0.017": 0.0,
			"-0.016": 0.0,
			"-0.015": 0.0,
			"-0.014": 0.0,
			"-0.013": 0.0,
			"-0.012": 0.360853572701,
			"-0.011": 0.834495676507,
			"-0.01": 1.94981380399,
			"-0.009": 3.39877386842,
			"-0.008": 9.06266232542,
			"-0.007": 13.6940228545,
			"-0.006": 12.7164200202,
			"-0.005": 14.4259507614,
			"-0.004": 13.9350860893,
			"-0.003": 15.3108077082,
			"-0.002": 16.3405388964,
			"-0.001": 13.5688285822,
			"0.0": 14.084410261,
			"0.001": 15.1541530344,
			"0.002": 17.9674752566,
			"0.003": 20.9741019542,
			"0.004": 18.4482321738,
			"0.005": 9.7347112231,
			"0.006": 5.90349700217,
			"0.007": 6.01178764694,
			"0.008": 5.21355013384,
			"0.009": 7.21769327899,
			"0.01": 7.87279416959,
			"0.011": 2.37210498606,
			"0.012": 0.0,
			"0.013": 0.0,
			"0.014": 0.0,
			"0.015": 0.0,
			"0.016": 0.0,
			"0.017": 0.0,
			"0.018": 0.0,
			"0.019": 0.0,
			"0.02": 0.0,
			"0.021": 0.0,
			"0.022": 0.0,
			"0.023": 0.0,
			"0.024": 0.0,
			"0.025": 0.0
		}
	}
}
