{
	 "smiles": "[O-][N+](=O)C1=CC=CC(=C1)C1=NN=C2SC(NN12)C1=CC=CO1", 
	 "Tm": 463.15, 
	 "num_atms": 31, 
	 "gaussian": { 
		 "optdone": 1, 
		 "sigma_profile": "yes", 
		 "theory": "DFT", 
		 "functional": "B3LYP", 
		 "basiset": "6-31G**", 
		 "properties": { 
			 "R2extent": 9302.7527, 
			 "electric_dipole_moment_norm": 4.04047832441, 
			 "electric_quadrupole_moment_norm": 55.1710931929, 
			 "total_energy": -1398.2243503, 
			 "HOMO_LUMO_gap": 0.13787, 
			 "cosmo_polarized_energy": -21.32, 
			 "cosmo_cavitation_energy": 39.11, 
			 "cosmo_dispersion_energy": -28.3, 
			 "cosmo_repulsion_energy": 2.08, 
			 "cosmo_total_nonelectrostatic_energy": 12.89, 
			 "SMD_solvation_energy": 6.69 
		},
		"coords": [
			{
				"x": 1.9776549582,
				"y": 0.941793311,
				"z": 3.9863421795,
				"element": "O" 
			},
			{
				"x": 1.4394500168,
				"y": 0.3258673703,
				"z": 3.0674424127,
				"element": "N" 
			},
			{
				"x": 0.919503664,
				"y": -0.7842474975,
				"z": 3.1781354147,
				"element": "O" 
			},
			{
				"x": 1.414288198,
				"y": 0.9646726519,
				"z": 1.7395665827,
				"element": "C" 
			},
			{
				"x": 1.9782618424,
				"y": 2.2289196008,
				"z": 1.591684313,
				"element": "C" 
			},
			{
				"x": 1.9454976901,
				"y": 2.8192045862,
				"z": 0.3275879645,
				"element": "C" 
			},
			{
				"x": 1.3610983086,
				"y": 2.1567212556,
				"z": -0.7479392754,
				"element": "C" 
			},
			{
				"x": 0.7940985396,
				"y": 0.8785611276,
				"z": -0.5800219511,
				"element": "C" 
			},
			{
				"x": 0.8242614682,
				"y": 0.2754234688,
				"z": 0.6835600402,
				"element": "C" 
			},
			{
				"x": 0.2003438851,
				"y": 0.2236895274,
				"z": -1.7466881833,
				"element": "C" 
			},
			{
				"x": 0.2291459615,
				"y": 0.7015092598,
				"z": -2.9793106792,
				"element": "N" 
			},
			{
				"x": -0.40182138,
				"y": -0.1868584987,
				"z": -3.8341912207,
				"element": "N" 
			},
			{
				"x": -0.8204418788,
				"y": -1.1769773525,
				"z": -3.0866935212,
				"element": "C" 
			},
			{
				"x": -1.6675988727,
				"y": -2.6972079837,
				"z": -3.3249217364,
				"element": "S" 
			},
			{
				"x": -1.0195298499,
				"y": -3.184778059,
				"z": -1.5622439942,
				"element": "C" 
			},
			{
				"x": -0.8694927798,
				"y": -1.9316016946,
				"z": -0.8197889032,
				"element": "N" 
			},
			{
				"x": -0.4742658299,
				"y": -0.9771028991,
				"z": -1.774373395,
				"element": "N" 
			},
			{
				"x": -1.8863047397,
				"y": -4.150865415,
				"z": -0.8641144628,
				"element": "C" 
			},
			{
				"x": -1.755531872,
				"y": -5.4778964418,
				"z": -0.5735518537,
				"element": "C" 
			},
			{
				"x": -2.9519022818,
				"y": -5.8598417037,
				"z": 0.1136859116,
				"element": "C" 
			},
			{
				"x": -3.7187161186,
				"y": -4.7374809445,
				"z": 0.1921095794,
				"element": "C" 
			},
			{
				"x": -3.0889031537,
				"y": -3.6853857697,
				"z": -0.4027640007,
				"element": "O" 
			},
			{
				"x": 2.4231621419,
				"y": 2.7202569061,
				"z": 2.4475260423,
				"element": "H" 
			},
			{
				"x": 2.3781169845,
				"y": 3.803909946,
				"z": 0.1828389857,
				"element": "H" 
			},
			{
				"x": 1.3325538032,
				"y": 2.6081473101,
				"z": -1.7334992701,
				"element": "H" 
			},
			{
				"x": 0.4126019746,
				"y": -0.7104980296,
				"z": 0.856293256,
				"element": "H" 
			},
			{
				"x": -0.0344223002,
				"y": -3.6197311008,
				"z": -1.7368499525,
				"element": "H" 
			},
			{
				"x": -1.786275911,
				"y": -1.6525721542,
				"z": -0.4604126193,
				"element": "H" 
			},
			{
				"x": -0.9092659686,
				"y": -6.1049175942,
				"z": -0.8151819,
				"element": "H" 
			},
			{
				"x": -3.2009740012,
				"y": -6.8374338189,
				"z": 0.499340427,
				"element": "H" 
			},
			{
				"x": -4.6863924987,
				"y": -4.5242793641,
				"z": 0.6186338096,
				"element": "H" 
			}
		],
		 "valence_orbital": [ 
			{
				"type": "occ",
				"energy": -0.28474,
				"method": "rhf"
			},
			{
				"type": "occ",
				"energy": -0.27663,
				"method": "rhf"
			},
			{
				"type": "occ",
				"energy": -0.26294,
				"method": "rhf"
			},
			{
				"type": "occ",
				"energy": -0.25708,
				"method": "rhf"
			},
			{
				"type": "occ",
				"energy": -0.22983,
				"method": "rhf"
			},
			{
				"type": "unocc",
				"energy": -0.09196,
				"method": "rhf"
			},
			{
				"type": "unocc",
				"energy": -0.05697,
				"method": "rhf"
			},
			{
				"type": "unocc",
				"energy": -0.04532,
				"method": "rhf"
			},
			{
				"type": "unocc",
				"energy": -0.00873,
				"method": "rhf"
			},
			{
				"type": "unocc",
				"energy": -0.00658,
				"method": "rhf"
			}
		],
		"cosmo_sigma_profile": { 
			"-0.025": 0.0,
			"-0.024": 0.0,
			"-0.023": 0.0,
			"-0.022": 0.0,
			"-0.021": 0.0,
			"-0.02": 0.0,
			"-0.019": 0.0,
			"-0.018": 0.0,
			"-0.017": 0.0,
			"-0.016": 0.000236912330686,
			"-0.015": 0.77314713282,
			"-0.014": 0.958715355056,
			"-0.013": 1.35342623822,
			"-0.012": 0.827346245854,
			"-0.011": 1.15356847388,
			"-0.01": 4.27611053314,
			"-0.009": 6.11645598593,
			"-0.008": 11.3394709255,
			"-0.007": 14.2022257508,
			"-0.006": 15.1236029686,
			"-0.005": 15.1462483696,
			"-0.004": 15.8358115403,
			"-0.003": 16.1350406065,
			"-0.002": 21.6729064445,
			"-0.001": 24.0007623394,
			"0.0": 29.3881823247,
			"0.001": 29.7248790627,
			"0.002": 18.8446433411,
			"0.003": 15.4252265639,
			"0.004": 14.4382948817,
			"0.005": 9.49270996485,
			"0.006": 8.21412825673,
			"0.007": 10.7049654796,
			"0.008": 8.81807426697,
			"0.009": 6.30302870881,
			"0.01": 4.54542204286,
			"0.011": 2.30471750079,
			"0.012": 3.06166276668,
			"0.013": 3.01377482012,
			"0.014": 3.18534290436,
			"0.015": 1.52440673951,
			"0.016": 0.712479638975,
			"0.017": 0.0,
			"0.018": 0.0,
			"0.019": 0.0,
			"0.02": 0.0,
			"0.021": 0.0,
			"0.022": 0.0,
			"0.023": 0.0,
			"0.024": 0.0,
			"0.025": 0.0
		}
	}
}
