{
	 "smiles": "CC1=CC=C(C=C1)S(O)(=O)=O", 
	 "Tm": 377.15, 
	 "num_atms": 19, 
	 "gaussian": { 
		 "optdone": 1, 
		 "sigma_profile": "yes", 
		 "theory": "DFT", 
		 "functional": "B3LYP", 
		 "basiset": "6-31G**", 
		 "properties": { 
			 "R2extent": 2326.693, 
			 "electric_dipole_moment_norm": 4.73595421958, 
			 "electric_quadrupole_moment_norm": 10.5149005297, 
			 "total_energy": -895.362709587, 
			 "HOMO_LUMO_gap": 0.22406, 
			 "cosmo_polarized_energy": -13.37, 
			 "cosmo_cavitation_energy": 24.53, 
			 "cosmo_dispersion_energy": -18.77, 
			 "cosmo_repulsion_energy": 1.46, 
			 "cosmo_total_nonelectrostatic_energy": 7.22, 
			 "SMD_solvation_energy": 3.41 
		},
		"coords": [
			{
				"x": 1.3215163221,
				"y": 3.2551591997,
				"z": 1.2106662485,
				"element": "C" 
			},
			{
				"x": 0.7147363065,
				"y": 1.9790870031,
				"z": 0.6799304636,
				"element": "C" 
			},
			{
				"x": 1.0309316096,
				"y": 0.7411813358,
				"z": 1.259420847,
				"element": "C" 
			},
			{
				"x": 0.4580776894,
				"y": -0.440109323,
				"z": 0.794939751,
				"element": "C" 
			},
			{
				"x": -0.4480663152,
				"y": -0.3780890546,
				"z": -0.2649718131,
				"element": "C" 
			},
			{
				"x": -0.7760772888,
				"y": 0.8360156366,
				"z": -0.8697017559,
				"element": "C" 
			},
			{
				"x": -0.1892848845,
				"y": 2.0055772881,
				"z": -0.3921417318,
				"element": "C" 
			},
			{
				"x": -1.1908911174,
				"y": -1.8807074224,
				"z": -0.8659849995,
				"element": "S" 
			},
			{
				"x": -2.5185050503,
				"y": -1.9796336832,
				"z": 0.1075796615,
				"element": "O" 
			},
			{
				"x": -0.3189541058,
				"y": -3.0005914924,
				"z": -0.538608055,
				"element": "O" 
			},
			{
				"x": -1.6988264553,
				"y": -1.6767744624,
				"z": -2.2242806729,
				"element": "O" 
			},
			{
				"x": 1.3656434627,
				"y": 4.0292549969,
				"z": 0.4395474204,
				"element": "H" 
			},
			{
				"x": 2.334813874,
				"y": 3.0898132631,
				"z": 1.5880267388,
				"element": "H" 
			},
			{
				"x": 0.7258249256,
				"y": 3.6537317283,
				"z": 2.0412653626,
				"element": "H" 
			},
			{
				"x": 1.7412050239,
				"y": 0.700848302,
				"z": 2.0807855449,
				"element": "H" 
			},
			{
				"x": 0.716612129,
				"y": -1.3984433631,
				"z": 1.2314737373,
				"element": "H" 
			},
			{
				"x": -1.4617825365,
				"y": 0.8558525236,
				"z": -1.7096624873,
				"element": "H" 
			},
			{
				"x": -0.4319690518,
				"y": 2.9539064462,
				"z": -0.8637949042,
				"element": "H" 
			},
			{
				"x": -3.2763045373,
				"y": -2.1125789222,
				"z": -0.4868893558,
				"element": "H" 
			}
		],
		 "valence_orbital": [ 
			{
				"type": "occ",
				"energy": -0.32256,
				"method": "rhf"
			},
			{
				"type": "occ",
				"energy": -0.32111,
				"method": "rhf"
			},
			{
				"type": "occ",
				"energy": -0.3033,
				"method": "rhf"
			},
			{
				"type": "occ",
				"energy": -0.27392,
				"method": "rhf"
			},
			{
				"type": "occ",
				"energy": -0.26726,
				"method": "rhf"
			},
			{
				"type": "unocc",
				"energy": -0.0432,
				"method": "rhf"
			},
			{
				"type": "unocc",
				"energy": -0.02435,
				"method": "rhf"
			},
			{
				"type": "unocc",
				"energy": 0.0422,
				"method": "rhf"
			},
			{
				"type": "unocc",
				"energy": 0.06979,
				"method": "rhf"
			},
			{
				"type": "unocc",
				"energy": 0.08931,
				"method": "rhf"
			}
		],
		"cosmo_sigma_profile": { 
			"-0.025": 0.0,
			"-0.024": 0.0,
			"-0.023": 0.0,
			"-0.022": 0.0,
			"-0.021": 0.0,
			"-0.02": 0.343523873327,
			"-0.019": 0.876755443208,
			"-0.018": 1.06559883795,
			"-0.017": 0.487659042531,
			"-0.016": 0.961060715089,
			"-0.015": 0.506255189991,
			"-0.014": 0.947464910308,
			"-0.013": 0.637245432323,
			"-0.012": 0.847624505467,
			"-0.011": 0.811131367768,
			"-0.01": 0.533263638064,
			"-0.009": 0.870511426002,
			"-0.008": 1.28403288629,
			"-0.007": 5.03298540549,
			"-0.006": 10.7763197101,
			"-0.005": 14.7058392913,
			"-0.004": 13.4678616913,
			"-0.003": 13.3852499607,
			"-0.002": 14.1698995856,
			"-0.001": 15.1733262871,
			"0.0": 13.4660982857,
			"0.001": 11.8973898857,
			"0.002": 13.4563641138,
			"0.003": 14.9326022281,
			"0.004": 3.76516089376,
			"0.005": 3.32819870513,
			"0.006": 4.4560492043,
			"0.007": 4.18973566263,
			"0.008": 5.35696830198,
			"0.009": 9.23730577907,
			"0.01": 10.0747080624,
			"0.011": 4.41039310543,
			"0.012": 0.0,
			"0.013": 0.0,
			"0.014": 0.0,
			"0.015": 0.0,
			"0.016": 0.0,
			"0.017": 0.0,
			"0.018": 0.0,
			"0.019": 0.0,
			"0.02": 0.0,
			"0.021": 0.0,
			"0.022": 0.0,
			"0.023": 0.0,
			"0.024": 0.0,
			"0.025": 0.0
		}
	}
}
