{
	 "smiles": "COC(=O)C(=O)CC(=O)C1=C(OC)C=C(OC)C=C1", 
	 "Tm": 375.15, 
	 "num_atms": 33, 
	 "gaussian": { 
		 "optdone": 1, 
		 "sigma_profile": "yes", 
		 "theory": "DFT", 
		 "functional": "B3LYP", 
		 "basiset": "6-31G**", 
		 "properties": { 
			 "R2extent": 7956.6018, 
			 "electric_dipole_moment_norm": 4.21645337814, 
			 "electric_quadrupole_moment_norm": 28.5382881363, 
			 "total_energy": -955.119679389, 
			 "HOMO_LUMO_gap": 0.17501, 
			 "cosmo_polarized_energy": -18.78, 
			 "cosmo_cavitation_energy": 38.5, 
			 "cosmo_dispersion_energy": -26.82, 
			 "cosmo_repulsion_energy": 2.1, 
			 "cosmo_total_nonelectrostatic_energy": 13.78, 
			 "SMD_solvation_energy": 10.71 
		},
		"coords": [
			{
				"x": 0.10179316,
				"y": 3.3386580236,
				"z": 5.5518580099,
				"element": "C" 
			},
			{
				"x": -0.125925929,
				"y": 3.9160753603,
				"z": 4.2536139505,
				"element": "O" 
			},
			{
				"x": -0.6274052917,
				"y": 3.0817168051,
				"z": 3.3421481124,
				"element": "C" 
			},
			{
				"x": -0.9217512471,
				"y": 1.9199881663,
				"z": 3.5348644008,
				"element": "O" 
			},
			{
				"x": -0.8476438746,
				"y": 3.7725051471,
				"z": 1.9834846925,
				"element": "C" 
			},
			{
				"x": -0.9403730805,
				"y": 4.9744529166,
				"z": 1.889829953,
				"element": "O" 
			},
			{
				"x": -1.0061835279,
				"y": 2.8155628606,
				"z": 0.8143989972,
				"element": "C" 
			},
			{
				"x": 0.3342505816,
				"y": 2.1131622825,
				"z": 0.5429293017,
				"element": "C" 
			},
			{
				"x": 1.3122940883,
				"y": 2.4755431974,
				"z": 1.1861992559,
				"element": "O" 
			},
			{
				"x": 0.3746374022,
				"y": 1.0433928081,
				"z": -0.4830396618,
				"element": "C" 
			},
			{
				"x": 1.4689009917,
				"y": 0.1389690534,
				"z": -0.6079565791,
				"element": "C" 
			},
			{
				"x": 2.5451414139,
				"y": 0.1571093404,
				"z": 0.2330904149,
				"element": "O" 
			},
			{
				"x": 3.5980197064,
				"y": 1.0655304272,
				"z": -0.1071687713,
				"element": "C" 
			},
			{
				"x": 1.4347786357,
				"y": -0.8735623865,
				"z": -1.5600782989,
				"element": "C" 
			},
			{
				"x": 0.3406136611,
				"y": -1.0229855767,
				"z": -2.4226632282,
				"element": "C" 
			},
			{
				"x": 0.4271623271,
				"y": -2.0436118463,
				"z": -3.3113126789,
				"element": "O" 
			},
			{
				"x": -0.6536533922,
				"y": -2.2562812241,
				"z": -4.2113435495,
				"element": "C" 
			},
			{
				"x": -0.7450931431,
				"y": -0.1411118656,
				"z": -2.3222685454,
				"element": "C" 
			},
			{
				"x": -0.7114991418,
				"y": 0.8578260986,
				"z": -1.3559301716,
				"element": "C" 
			},
			{
				"x": -0.8391744757,
				"y": 2.9901609384,
				"z": 5.9848710926,
				"element": "H" 
			},
			{
				"x": 0.7925818362,
				"y": 2.4953962448,
				"z": 5.4764697804,
				"element": "H" 
			},
			{
				"x": 0.531155888,
				"y": 4.1370954093,
				"z": 6.1556761206,
				"element": "H" 
			},
			{
				"x": -1.3215832563,
				"y": 3.4001416263,
				"z": -0.0550362701,
				"element": "H" 
			},
			{
				"x": -1.7789228561,
				"y": 2.0746804731,
				"z": 1.0448746482,
				"element": "H" 
			},
			{
				"x": 3.2580722704,
				"y": 2.1016654969,
				"z": -0.0416135417,
				"element": "H" 
			},
			{
				"x": 4.387029935,
				"y": 0.897714442,
				"z": 0.6279559411,
				"element": "H" 
			},
			{
				"x": 3.9852937076,
				"y": 0.8506840965,
				"z": -1.1116308075,
				"element": "H" 
			},
			{
				"x": 2.2647078476,
				"y": -1.567951397,
				"z": -1.6248487594,
				"element": "H" 
			},
			{
				"x": -0.8113480137,
				"y": -1.388052586,
				"z": -4.8627644791,
				"element": "H" 
			},
			{
				"x": -0.3706279431,
				"y": -3.1160771141,
				"z": -4.8195688957,
				"element": "H" 
			},
			{
				"x": -1.5839587547,
				"y": -2.4817012397,
				"z": -3.6760083325,
				"element": "H" 
			},
			{
				"x": -1.6063555091,
				"y": -0.2291589552,
				"z": -2.9724502054,
				"element": "H" 
			},
			{
				"x": -1.5654340164,
				"y": 1.5228629768,
				"z": -1.2882818956,
				"element": "H" 
			}
		],
		 "valence_orbital": [ 
			{
				"type": "occ",
				"energy": -0.27325,
				"method": "rhf"
			},
			{
				"type": "occ",
				"energy": -0.2568,
				"method": "rhf"
			},
			{
				"type": "occ",
				"energy": -0.25306,
				"method": "rhf"
			},
			{
				"type": "occ",
				"energy": -0.24359,
				"method": "rhf"
			},
			{
				"type": "occ",
				"energy": -0.23741,
				"method": "rhf"
			},
			{
				"type": "unocc",
				"energy": -0.0624,
				"method": "rhf"
			},
			{
				"type": "unocc",
				"energy": -0.05515,
				"method": "rhf"
			},
			{
				"type": "unocc",
				"energy": -0.01211,
				"method": "rhf"
			},
			{
				"type": "unocc",
				"energy": 0.03964,
				"method": "rhf"
			},
			{
				"type": "unocc",
				"energy": 0.05783,
				"method": "rhf"
			}
		],
		"cosmo_sigma_profile": { 
			"-0.025": 0.0,
			"-0.024": 0.0,
			"-0.023": 0.0,
			"-0.022": 0.0,
			"-0.021": 0.0,
			"-0.02": 0.0,
			"-0.019": 0.0,
			"-0.018": 0.0,
			"-0.017": 0.0,
			"-0.016": 0.0,
			"-0.015": 0.0,
			"-0.014": 0.0,
			"-0.013": 0.0,
			"-0.012": 0.0,
			"-0.011": 0.0,
			"-0.01": 0.0,
			"-0.009": 0.968219910695,
			"-0.008": 6.11130672541,
			"-0.007": 15.2322058812,
			"-0.006": 24.7947764556,
			"-0.005": 26.9652903846,
			"-0.004": 28.3403652563,
			"-0.003": 25.3689365587,
			"-0.002": 21.1209061377,
			"-0.001": 15.6729349797,
			"0.0": 13.6776911781,
			"0.001": 13.5194171109,
			"0.002": 20.1569306489,
			"0.003": 17.7172444019,
			"0.004": 10.3261601379,
			"0.005": 9.20231572834,
			"0.006": 7.16493352537,
			"0.007": 8.08296134123,
			"0.008": 8.83595344129,
			"0.009": 10.2561283539,
			"0.01": 11.4333789811,
			"0.011": 8.75056841377,
			"0.012": 2.03963036258,
			"0.013": 0.204395964008,
			"0.014": 0.0,
			"0.015": 0.0,
			"0.016": 0.0,
			"0.017": 0.0,
			"0.018": 0.0,
			"0.019": 0.0,
			"0.02": 0.0,
			"0.021": 0.0,
			"0.022": 0.0,
			"0.023": 0.0,
			"0.024": 0.0,
			"0.025": 0.0
		}
	}
}
