{
	 "smiles": "COC1=CC=C(C=C2CCCC3=C2NC(=S)NC3C2=CC=C(OC)C=C2)C=C1", 
	 "Tm": 457.15, 
	 "num_atms": 52, 
	 "gaussian": { 
		 "optdone": 1, 
		 "sigma_profile": "yes", 
		 "theory": "DFT", 
		 "functional": "B3LYP", 
		 "basiset": "6-31G**", 
		 "properties": { 
			 "R2extent": 16151.8137, 
			 "electric_dipole_moment_norm": 5.33848840591, 
			 "electric_quadrupole_moment_norm": 52.0009004975, 
			 "total_energy": -1549.03551056, 
			 "HOMO_LUMO_gap": 0.14502, 
			 "cosmo_polarized_energy": -22.55, 
			 "cosmo_cavitation_energy": 55.62, 
			 "cosmo_dispersion_energy": -37.98, 
			 "cosmo_repulsion_energy": 2.85, 
			 "cosmo_total_nonelectrostatic_energy": 20.5, 
			 "SMD_solvation_energy": 8.48 
		},
		"coords": [
			{
				"x": -4.1730908481,
				"y": -1.2571292878,
				"z": -7.0199174857,
				"element": "C" 
			},
			{
				"x": -3.5054799004,
				"y": -1.8695418803,
				"z": -5.9274338888,
				"element": "O" 
			},
			{
				"x": -2.5569973273,
				"y": -1.1525565622,
				"z": -5.2641508166,
				"element": "C" 
			},
			{
				"x": -2.1506180566,
				"y": 0.1440552486,
				"z": -5.6075702059,
				"element": "C" 
			},
			{
				"x": -1.162448209,
				"y": 0.7777207942,
				"z": -4.8558346713,
				"element": "C" 
			},
			{
				"x": -0.5669063755,
				"y": 0.1638408284,
				"z": -3.7412787291,
				"element": "C" 
			},
			{
				"x": 0.5255944316,
				"y": 0.8550190247,
				"z": -3.0266383817,
				"element": "C" 
			},
			{
				"x": 0.8164347128,
				"y": 1.0132848171,
				"z": -1.7103080608,
				"element": "C" 
			},
			{
				"x": 2.1991573159,
				"y": 1.5622090331,
				"z": -1.3686202249,
				"element": "C" 
			},
			{
				"x": 2.2612032979,
				"y": 2.2906614135,
				"z": -0.0272423305,
				"element": "C" 
			},
			{
				"x": 1.7476384214,
				"y": 1.3651280822,
				"z": 1.0771791251,
				"element": "C" 
			},
			{
				"x": 0.3855407854,
				"y": 0.8231373678,
				"z": 0.7289869808,
				"element": "C" 
			},
			{
				"x": -0.0460175409,
				"y": 0.7029997572,
				"z": -0.5533287504,
				"element": "C" 
			},
			{
				"x": -1.3819998962,
				"y": 0.3367356434,
				"z": -0.7982399077,
				"element": "N" 
			},
			{
				"x": -2.2947856586,
				"y": 0.0338509522,
				"z": 0.1668014023,
				"element": "C" 
			},
			{
				"x": -3.8802792682,
				"y": -0.3933317689,
				"z": -0.2105972218,
				"element": "S" 
			},
			{
				"x": -1.8424487396,
				"y": 0.0850467837,
				"z": 1.4407641931,
				"element": "N" 
			},
			{
				"x": -0.5115815376,
				"y": 0.4896587642,
				"z": 1.902324635,
				"element": "C" 
			},
			{
				"x": 0.0902747404,
				"y": -0.5810986137,
				"z": 2.8130556873,
				"element": "C" 
			},
			{
				"x": 0.3230476754,
				"y": -1.8824105137,
				"z": 2.3366612173,
				"element": "C" 
			},
			{
				"x": 0.8653779887,
				"y": -2.8566874782,
				"z": 3.1602205687,
				"element": "C" 
			},
			{
				"x": 1.1936401723,
				"y": -2.5530810383,
				"z": 4.4930434239,
				"element": "C" 
			},
			{
				"x": 1.7213371643,
				"y": -3.5797365998,
				"z": 5.2183408569,
				"element": "O" 
			},
			{
				"x": 2.0647029831,
				"y": -3.3384987482,
				"z": 6.5738333467,
				"element": "C" 
			},
			{
				"x": 0.966869852,
				"y": -1.2633332432,
				"z": 4.9836205858,
				"element": "C" 
			},
			{
				"x": 0.4162622507,
				"y": -0.2940402931,
				"z": 4.1376156474,
				"element": "C" 
			},
			{
				"x": -0.97645566,
				"y": -1.1512649114,
				"z": -3.4315366676,
				"element": "C" 
			},
			{
				"x": -1.9558074634,
				"y": -1.7967695973,
				"z": -4.17281734,
				"element": "C" 
			},
			{
				"x": -3.4774293968,
				"y": -1.006125574,
				"z": -7.8311947454,
				"element": "H" 
			},
			{
				"x": -4.7064186215,
				"y": -0.3496473656,
				"z": -6.7098062897,
				"element": "H" 
			},
			{
				"x": -4.8943830955,
				"y": -1.9914664755,
				"z": -7.3813057199,
				"element": "H" 
			},
			{
				"x": -2.5919675723,
				"y": 0.6631243775,
				"z": -6.4500177218,
				"element": "H" 
			},
			{
				"x": -0.8519575864,
				"y": 1.7811024771,
				"z": -5.1357666495,
				"element": "H" 
			},
			{
				"x": 1.2611613791,
				"y": 1.2919323034,
				"z": -3.7040220351,
				"element": "H" 
			},
			{
				"x": 2.9048207431,
				"y": 0.7185049692,
				"z": -1.3336389882,
				"element": "H" 
			},
			{
				"x": 2.5393911267,
				"y": 2.2099176924,
				"z": -2.1834879296,
				"element": "H" 
			},
			{
				"x": 1.6404472082,
				"y": 3.1944540081,
				"z": -0.0629709557,
				"element": "H" 
			},
			{
				"x": 3.2884071829,
				"y": 2.6089976562,
				"z": 0.1820282255,
				"element": "H" 
			},
			{
				"x": 1.6854084687,
				"y": 1.9017738509,
				"z": 2.0331197631,
				"element": "H" 
			},
			{
				"x": 2.4638283074,
				"y": 0.5472962927,
				"z": 1.2468171778,
				"element": "H" 
			},
			{
				"x": -1.7278908777,
				"y": 0.3000276618,
				"z": -1.7452458546,
				"element": "H" 
			},
			{
				"x": -2.5260004146,
				"y": -0.1731450855,
				"z": 2.137950253,
				"element": "H" 
			},
			{
				"x": -0.6163447902,
				"y": 1.4015769392,
				"z": 2.5162781265,
				"element": "H" 
			},
			{
				"x": 0.0691779747,
				"y": -2.1293347474,
				"z": 1.3095494605,
				"element": "H" 
			},
			{
				"x": 1.0454571575,
				"y": -3.8647174272,
				"z": 2.8011029183,
				"element": "H" 
			},
			{
				"x": 2.4601240813,
				"y": -4.2803797175,
				"z": 6.9568907523,
				"element": "H" 
			},
			{
				"x": 1.1888288113,
				"y": -3.0469713637,
				"z": 7.1676403733,
				"element": "H" 
			},
			{
				"x": 2.8340896763,
				"y": -2.5608361874,
				"z": 6.6646594294,
				"element": "H" 
			},
			{
				"x": 1.2054719916,
				"y": -1.0033962337,
				"z": 6.008028447,
				"element": "H" 
			},
			{
				"x": 0.2375255275,
				"y": 0.7050237405,
				"z": 4.5291991638,
				"element": "H" 
			},
			{
				"x": -0.5076930786,
				"y": -1.6745881385,
				"z": -2.6042798745,
				"element": "H" 
			},
			{
				"x": -2.2713195128,
				"y": -2.8050916272,
				"z": -3.9274603138,
				"element": "H" 
			}
		],
		 "valence_orbital": [ 
			{
				"type": "occ",
				"energy": -0.2268,
				"method": "rhf"
			},
			{
				"type": "occ",
				"energy": -0.2221,
				"method": "rhf"
			},
			{
				"type": "occ",
				"energy": -0.20207,
				"method": "rhf"
			},
			{
				"type": "occ",
				"energy": -0.19118,
				"method": "rhf"
			},
			{
				"type": "occ",
				"energy": -0.189,
				"method": "rhf"
			},
			{
				"type": "unocc",
				"energy": -0.04398,
				"method": "rhf"
			},
			{
				"type": "unocc",
				"energy": -0.00961,
				"method": "rhf"
			},
			{
				"type": "unocc",
				"energy": -0.00416,
				"method": "rhf"
			},
			{
				"type": "unocc",
				"energy": -0.00337,
				"method": "rhf"
			},
			{
				"type": "unocc",
				"energy": 0.01045,
				"method": "rhf"
			}
		],
		"cosmo_sigma_profile": { 
			"-0.025": 0.0,
			"-0.024": 0.0,
			"-0.023": 0.0,
			"-0.022": 0.0,
			"-0.021": 0.0,
			"-0.02": 0.0,
			"-0.019": 0.0,
			"-0.018": 0.0,
			"-0.017": 0.0,
			"-0.016": 0.0,
			"-0.015": 0.059387742236,
			"-0.014": 0.456319540664,
			"-0.013": 0.891426348337,
			"-0.012": 0.955400416729,
			"-0.011": 0.725046238933,
			"-0.01": 0.838265723199,
			"-0.009": 0.898356764702,
			"-0.008": 0.939764525244,
			"-0.007": 2.7817657864,
			"-0.006": 23.7073956618,
			"-0.005": 40.4856234987,
			"-0.004": 42.5353771525,
			"-0.003": 46.5489172603,
			"-0.002": 37.8133860583,
			"-0.001": 36.542676142,
			"0.0": 29.7900501337,
			"0.001": 24.7872690045,
			"0.002": 26.6493203494,
			"0.003": 25.9076998388,
			"0.004": 25.8780049416,
			"0.005": 22.1827073415,
			"0.006": 8.64074639794,
			"0.007": 6.35398869754,
			"0.008": 5.7619961392,
			"0.009": 6.49890483267,
			"0.01": 7.81228102798,
			"0.011": 7.4783923474,
			"0.012": 7.77454820858,
			"0.013": 1.59681515328,
			"0.014": 0.0,
			"0.015": 0.0,
			"0.016": 0.0,
			"0.017": 0.0,
			"0.018": 0.0,
			"0.019": 0.0,
			"0.02": 0.0,
			"0.021": 0.0,
			"0.022": 0.0,
			"0.023": 0.0,
			"0.024": 0.0,
			"0.025": 0.0
		}
	}
}
