{
	 "smiles": "CC1=C(SC(=N1)C(=CC1=CC=C(O)C=C1)C#N)N=NC1=CC=C(Cl)C=C1", 
	 "Tm": 503.15, 
	 "num_atms": 39, 
	 "gaussian": { 
		 "optdone": 1, 
		 "sigma_profile": "yes", 
		 "theory": "DFT", 
		 "functional": "B3LYP", 
		 "basiset": "6-31G**", 
		 "properties": { 
			 "R2extent": 17586.934, 
			 "electric_dipole_moment_norm": 5.27602075148, 
			 "electric_quadrupole_moment_norm": 51.8657458374, 
			 "total_energy": -1884.36552787, 
			 "HOMO_LUMO_gap": 0.10554, 
			 "cosmo_polarized_energy": -22.8, 
			 "cosmo_cavitation_energy": 49.38, 
			 "cosmo_dispersion_energy": -34.47, 
			 "cosmo_repulsion_energy": 2.55, 
			 "cosmo_total_nonelectrostatic_energy": 17.46, 
			 "SMD_solvation_energy": 5.74 
		},
		"coords": [
			{
				"x": -0.2138108763,
				"y": 1.1942472109,
				"z": 3.5525972057,
				"element": "C" 
			},
			{
				"x": -0.2979924363,
				"y": 1.2166560657,
				"z": 2.0568982699,
				"element": "C" 
			},
			{
				"x": 0.4092606195,
				"y": 2.0542258655,
				"z": 1.2029881286,
				"element": "C" 
			},
			{
				"x": -0.152463171,
				"y": 1.8431334003,
				"z": -0.4468455569,
				"element": "S" 
			},
			{
				"x": -1.234039891,
				"y": 0.5750487485,
				"z": 0.1329433745,
				"element": "C" 
			},
			{
				"x": -1.1946783326,
				"y": 0.3967618515,
				"z": 1.4299492361,
				"element": "N" 
			},
			{
				"x": -2.0749023829,
				"y": -0.2299303074,
				"z": -0.7544040814,
				"element": "C" 
			},
			{
				"x": -2.1815886625,
				"y": 0.0228266671,
				"z": -2.09507439,
				"element": "C" 
			},
			{
				"x": -2.9271520566,
				"y": -0.6233710912,
				"z": -3.1562842408,
				"element": "C" 
			},
			{
				"x": -2.810028946,
				"y": -0.0678590409,
				"z": -4.4501460403,
				"element": "C" 
			},
			{
				"x": -3.4794652429,
				"y": -0.603209184,
				"z": -5.5408395422,
				"element": "C" 
			},
			{
				"x": -4.2972627056,
				"y": -1.7274882676,
				"z": -5.3661960768,
				"element": "C" 
			},
			{
				"x": -4.9822641541,
				"y": -2.3059442273,
				"z": -6.3850522465,
				"element": "O" 
			},
			{
				"x": -4.4306513138,
				"y": -2.3005044627,
				"z": -4.0919262325,
				"element": "C" 
			},
			{
				"x": -3.7595335521,
				"y": -1.7600234226,
				"z": -3.008224611,
				"element": "C" 
			},
			{
				"x": -2.7799133627,
				"y": -1.2937944097,
				"z": -0.101093853,
				"element": "C" 
			},
			{
				"x": -3.3573964858,
				"y": -2.1641860949,
				"z": 0.4118483951,
				"element": "N" 
			},
			{
				"x": 1.1936264432,
				"y": 3.1854852345,
				"z": 1.4621875428,
				"element": "N" 
			},
			{
				"x": 2.1509450851,
				"y": 3.2186037821,
				"z": 2.2776155676,
				"element": "N" 
			},
			{
				"x": 2.7662861621,
				"y": 2.0627598135,
				"z": 2.8404495329,
				"element": "C" 
			},
			{
				"x": 3.0687629175,
				"y": 0.90045358,
				"z": 2.1103111053,
				"element": "C" 
			},
			{
				"x": 3.8225543247,
				"y": -0.1141989045,
				"z": 2.6922812321,
				"element": "C" 
			},
			{
				"x": 4.2622857422,
				"y": 0.0234560264,
				"z": 4.0114087142,
				"element": "C" 
			},
			{
				"x": 5.1976181965,
				"y": -1.2648828321,
				"z": 4.7462207662,
				"element": "Cl" 
			},
			{
				"x": 3.9847181104,
				"y": 1.1774072111,
				"z": 4.7461101262,
				"element": "C" 
			},
			{
				"x": 3.2604131578,
				"y": 2.2029615771,
				"z": 4.1462851489,
				"element": "C" 
			},
			{
				"x": 0.0350199647,
				"y": 2.1796620237,
				"z": 3.9545864536,
				"element": "H" 
			},
			{
				"x": -1.1741182946,
				"y": 0.8714834442,
				"z": 3.9600769384,
				"element": "H" 
			},
			{
				"x": 0.555506856,
				"y": 0.4929930901,
				"z": 3.8968942381,
				"element": "H" 
			},
			{
				"x": -1.5987468114,
				"y": 0.8740406933,
				"z": -2.4435231583,
				"element": "H" 
			},
			{
				"x": -2.1781738508,
				"y": 0.8041656941,
				"z": -4.5965123364,
				"element": "H" 
			},
			{
				"x": -3.3701456714,
				"y": -0.1534504295,
				"z": -6.5250194064,
				"element": "H" 
			},
			{
				"x": -4.8127363577,
				"y": -1.8249004355,
				"z": -7.2061450762,
				"element": "H" 
			},
			{
				"x": -5.0674744079,
				"y": -3.1708649546,
				"z": -3.9759070551,
				"element": "H" 
			},
			{
				"x": -3.8825452295,
				"y": -2.2241921184,
				"z": -2.0385693272,
				"element": "H" 
			},
			{
				"x": 2.7384004876,
				"y": 0.7981541531,
				"z": 1.0830139775,
				"element": "H" 
			},
			{
				"x": 4.0707706631,
				"y": -1.006928873,
				"z": 2.1290593914,
				"element": "H" 
			},
			{
				"x": 4.3485861584,
				"y": 1.2763782464,
				"z": 5.7626162564,
				"element": "H" 
			},
			{
				"x": 3.0633293067,
				"y": 3.1266246768,
				"z": 4.6808216293,
				"element": "H" 
			}
		],
		 "valence_orbital": [ 
			{
				"type": "occ",
				"energy": -0.27584,
				"method": "rhf"
			},
			{
				"type": "occ",
				"energy": -0.26428,
				"method": "rhf"
			},
			{
				"type": "occ",
				"energy": -0.26224,
				"method": "rhf"
			},
			{
				"type": "occ",
				"energy": -0.23607,
				"method": "rhf"
			},
			{
				"type": "occ",
				"energy": -0.20817,
				"method": "rhf"
			},
			{
				"type": "unocc",
				"energy": -0.10263,
				"method": "rhf"
			},
			{
				"type": "unocc",
				"energy": -0.07558,
				"method": "rhf"
			},
			{
				"type": "unocc",
				"energy": -0.02812,
				"method": "rhf"
			},
			{
				"type": "unocc",
				"energy": -0.02317,
				"method": "rhf"
			},
			{
				"type": "unocc",
				"energy": -0.0166,
				"method": "rhf"
			}
		],
		"cosmo_sigma_profile": { 
			"-0.025": 0.0,
			"-0.024": 0.0,
			"-0.023": 0.0,
			"-0.022": 0.0,
			"-0.021": 0.0,
			"-0.02": 0.0,
			"-0.019": 0.235208485167,
			"-0.018": 1.18586125216,
			"-0.017": 1.40014443681,
			"-0.016": 0.841441212338,
			"-0.015": 1.49367476145,
			"-0.014": 1.20299964318,
			"-0.013": 0.734821252111,
			"-0.012": 0.195599265519,
			"-0.011": 1.7623965995,
			"-0.01": 2.17761430664,
			"-0.009": 3.01727609331,
			"-0.008": 6.75102283367,
			"-0.007": 16.1081333913,
			"-0.006": 15.7401177938,
			"-0.005": 20.2243495252,
			"-0.004": 19.0329002357,
			"-0.003": 21.6811015778,
			"-0.002": 31.9687549525,
			"-0.001": 39.0401034397,
			"0.0": 36.9133028363,
			"0.001": 36.9172130246,
			"0.002": 39.1584064449,
			"0.003": 27.3503893786,
			"0.004": 18.3477630068,
			"0.005": 8.05226102242,
			"0.006": 6.50132615261,
			"0.007": 6.58871966159,
			"0.008": 7.70946526791,
			"0.009": 8.30995615278,
			"0.01": 7.90224236945,
			"0.011": 6.56290176738,
			"0.012": 5.15587220835,
			"0.013": 2.51993332511,
			"0.014": 0.166093924259,
			"0.015": 0.0,
			"0.016": 0.0,
			"0.017": 0.0,
			"0.018": 0.0,
			"0.019": 0.0,
			"0.02": 0.0,
			"0.021": 0.0,
			"0.022": 0.0,
			"0.023": 0.0,
			"0.024": 0.0,
			"0.025": 0.0
		}
	}
}
