{
	 "smiles": "COC1=C(C=O)C=C(Br)C=C1Br", 
	 "Tm": 367.65, 
	 "num_atms": 18, 
	 "gaussian": { 
		 "optdone": 1, 
		 "sigma_profile": "yes", 
		 "theory": "DFT", 
		 "functional": "B3LYP", 
		 "basiset": "6-31G**", 
		 "properties": { 
			 "R2extent": 5461.3417, 
			 "electric_dipole_moment_norm": 2.84530305943, 
			 "electric_quadrupole_moment_norm": 9.08367118681, 
			 "total_energy": -5601.69083625, 
			 "HOMO_LUMO_gap": 0.17203, 
			 "cosmo_polarized_energy": -7.94, 
			 "cosmo_cavitation_energy": 27.44, 
			 "cosmo_dispersion_energy": -20.41, 
			 "cosmo_repulsion_energy": 1.63, 
			 "cosmo_total_nonelectrostatic_energy": 8.65, 
			 "SMD_solvation_energy": 4.31 
		},
		"coords": [
			{
				"x": -3.1439900936,
				"y": 0.7442821298,
				"z": -0.0371203206,
				"element": "C" 
			},
			{
				"x": -1.970042565,
				"y": 0.379899794,
				"z": -0.7806556242,
				"element": "O" 
			},
			{
				"x": -1.0134036201,
				"y": -0.2991367588,
				"z": -0.0795410248,
				"element": "C" 
			},
			{
				"x": 0.1031366901,
				"y": 0.3912588987,
				"z": 0.4297002687,
				"element": "C" 
			},
			{
				"x": 0.2419175146,
				"y": 1.8606151202,
				"z": 0.2377708119,
				"element": "C" 
			},
			{
				"x": 1.168289923,
				"y": 2.5061927085,
				"z": 0.6906919345,
				"element": "O" 
			},
			{
				"x": 1.1182219352,
				"y": -0.2958000596,
				"z": 1.1093472033,
				"element": "C" 
			},
			{
				"x": 1.0190934203,
				"y": -1.6678166366,
				"z": 1.2803689523,
				"element": "C" 
			},
			{
				"x": 2.3893872894,
				"y": -2.6181321322,
				"z": 2.2061023287,
				"element": "Br" 
			},
			{
				"x": -0.0732612554,
				"y": -2.3770368143,
				"z": 0.7740006071,
				"element": "C" 
			},
			{
				"x": -1.0789167877,
				"y": -1.690651868,
				"z": 0.0981570193,
				"element": "C" 
			},
			{
				"x": -2.5404185826,
				"y": -2.6780273906,
				"z": -0.6211552547,
				"element": "Br" 
			},
			{
				"x": -3.6501115936,
				"y": -0.1394227377,
				"z": 0.3632143306,
				"element": "H" 
			},
			{
				"x": -2.8879200858,
				"y": 1.4265843174,
				"z": 0.7824957716,
				"element": "H" 
			},
			{
				"x": -3.8014953105,
				"y": 1.2516562715,
				"z": -0.7441623574,
				"element": "H" 
			},
			{
				"x": -0.5563192215,
				"y": 2.3372684481,
				"z": -0.3596807979,
				"element": "H" 
			},
			{
				"x": 1.9627685693,
				"y": 0.2707198313,
				"z": 1.4843755002,
				"element": "H" 
			},
			{
				"x": -0.1385362262,
				"y": -3.4506531218,
				"z": 0.8981906514,
				"element": "H" 
			}
		],
		 "valence_orbital": [ 
			{
				"type": "occ",
				"energy": -0.30325,
				"method": "rhf"
			},
			{
				"type": "occ",
				"energy": -0.29876,
				"method": "rhf"
			},
			{
				"type": "occ",
				"energy": -0.2716,
				"method": "rhf"
			},
			{
				"type": "occ",
				"energy": -0.26457,
				"method": "rhf"
			},
			{
				"type": "occ",
				"energy": -0.25336,
				"method": "rhf"
			},
			{
				"type": "unocc",
				"energy": -0.08133,
				"method": "rhf"
			},
			{
				"type": "unocc",
				"energy": -0.03576,
				"method": "rhf"
			},
			{
				"type": "unocc",
				"energy": -0.0253,
				"method": "rhf"
			},
			{
				"type": "unocc",
				"energy": 0.01271,
				"method": "rhf"
			},
			{
				"type": "unocc",
				"energy": 0.01665,
				"method": "rhf"
			}
		],
		"cosmo_sigma_profile": { 
			"-0.025": 0.0,
			"-0.024": 0.0,
			"-0.023": 0.0,
			"-0.022": 0.0,
			"-0.021": 0.0,
			"-0.02": 0.0,
			"-0.019": 0.0,
			"-0.018": 0.0,
			"-0.017": 0.0,
			"-0.016": 0.0,
			"-0.015": 0.0,
			"-0.014": 0.0,
			"-0.013": 0.0,
			"-0.012": 0.0,
			"-0.011": 0.0,
			"-0.01": 0.00768971553117,
			"-0.009": 0.719267644725,
			"-0.008": 1.53850437103,
			"-0.007": 4.46322683135,
			"-0.006": 11.1341012273,
			"-0.005": 15.7417838146,
			"-0.004": 18.8181500731,
			"-0.003": 19.5920543529,
			"-0.002": 14.6420953096,
			"-0.001": 22.8182919317,
			"0.0": 26.7531498057,
			"0.001": 15.1841550026,
			"0.002": 14.6217280143,
			"0.003": 19.002275972,
			"0.004": 16.2489751599,
			"0.005": 3.85788098495,
			"0.006": 2.67291753275,
			"0.007": 3.430283749,
			"0.008": 3.08208519016,
			"0.009": 2.91364212485,
			"0.01": 4.58340189341,
			"0.011": 3.61939471314,
			"0.012": 1.35211161817,
			"0.013": 0.115458671427,
			"0.014": 0.0,
			"0.015": 0.0,
			"0.016": 0.0,
			"0.017": 0.0,
			"0.018": 0.0,
			"0.019": 0.0,
			"0.02": 0.0,
			"0.021": 0.0,
			"0.022": 0.0,
			"0.023": 0.0,
			"0.024": 0.0,
			"0.025": 0.0
		}
	}
}
