{
	 "smiles": "OC1CC(=CC(O)C1O)C(O)=O", 
	 "Tm": 459.15, 
	 "num_atms": 22, 
	 "gaussian": { 
		 "optdone": 1, 
		 "sigma_profile": "yes", 
		 "theory": "DFT", 
		 "functional": "B3LYP", 
		 "basiset": "6-31G**", 
		 "properties": { 
			 "R2extent": 2205.7146, 
			 "electric_dipole_moment_norm": 4.02103283374, 
			 "electric_quadrupole_moment_norm": 15.6596325417, 
			 "total_energy": -648.859146346, 
			 "HOMO_LUMO_gap": 0.22038, 
			 "cosmo_polarized_energy": -22.13, 
			 "cosmo_cavitation_energy": 25.15, 
			 "cosmo_dispersion_energy": -18.58, 
			 "cosmo_repulsion_energy": 1.51, 
			 "cosmo_total_nonelectrostatic_energy": 8.07, 
			 "SMD_solvation_energy": 5.17 
		},
		"coords": [
			{
				"x": 1.7101317937,
				"y": -1.0387950043,
				"z": 1.9631502484,
				"element": "O" 
			},
			{
				"x": 0.7562749273,
				"y": -0.8370498559,
				"z": 0.9188546395,
				"element": "C" 
			},
			{
				"x": 1.3843949494,
				"y": -0.1527360619,
				"z": -0.2976402884,
				"element": "C" 
			},
			{
				"x": 0.3331952917,
				"y": 0.3232930924,
				"z": -1.2700741651,
				"element": "C" 
			},
			{
				"x": -0.9247392613,
				"y": 0.5810739533,
				"z": -0.8817798675,
				"element": "C" 
			},
			{
				"x": -1.4407794076,
				"y": 0.3626449564,
				"z": 0.516310972,
				"element": "C" 
			},
			{
				"x": -2.388913194,
				"y": -0.7044263027,
				"z": 0.4197814547,
				"element": "O" 
			},
			{
				"x": -0.3319307859,
				"y": 0.0448709378,
				"z": 1.5320293421,
				"element": "C" 
			},
			{
				"x": 0.2182406295,
				"y": 1.2777494996,
				"z": 1.9672479072,
				"element": "O" 
			},
			{
				"x": 0.8160953448,
				"y": 0.5941757741,
				"z": -2.6638451104,
				"element": "C" 
			},
			{
				"x": -0.1129614665,
				"y": 0.6361060768,
				"z": -3.6539942062,
				"element": "O" 
			},
			{
				"x": 1.9850381503,
				"y": 0.7732040522,
				"z": -2.9180104878,
				"element": "O" 
			},
			{
				"x": 2.4918059464,
				"y": -1.4652326174,
				"z": 1.589234664,
				"element": "H" 
			},
			{
				"x": 0.2962870295,
				"y": -1.7894537856,
				"z": 0.6155283465,
				"element": "H" 
			},
			{
				"x": 2.0850708094,
				"y": -0.8228138798,
				"z": -0.8079092309,
				"element": "H" 
			},
			{
				"x": 1.9698397828,
				"y": 0.7090642746,
				"z": 0.04320679,
				"element": "H" 
			},
			{
				"x": -1.6630903769,
				"y": 0.9685229791,
				"z": -1.5815059552,
				"element": "H" 
			},
			{
				"x": -1.9279243193,
				"y": 1.2888435465,
				"z": 0.8581710822,
				"element": "H" 
			},
			{
				"x": -2.9193115076,
				"y": -0.7020181327,
				"z": 1.2278444372,
				"element": "H" 
			},
			{
				"x": -0.7854937991,
				"y": -0.4991387591,
				"z": 2.3770433786,
				"element": "H" 
			},
			{
				"x": 1.0256226115,
				"y": 1.0473079876,
				"z": 2.4512702413,
				"element": "H" 
			},
			{
				"x": -0.9615531481,
				"y": 0.3114072688,
				"z": -3.3214141922,
				"element": "H" 
			}
		],
		 "valence_orbital": [ 
			{
				"type": "occ",
				"energy": -0.29473,
				"method": "rhf"
			},
			{
				"type": "occ",
				"energy": -0.28742,
				"method": "rhf"
			},
			{
				"type": "occ",
				"energy": -0.27932,
				"method": "rhf"
			},
			{
				"type": "occ",
				"energy": -0.27619,
				"method": "rhf"
			},
			{
				"type": "occ",
				"energy": -0.27089,
				"method": "rhf"
			},
			{
				"type": "unocc",
				"energy": -0.05051,
				"method": "rhf"
			},
			{
				"type": "unocc",
				"energy": 0.05284,
				"method": "rhf"
			},
			{
				"type": "unocc",
				"energy": 0.05625,
				"method": "rhf"
			},
			{
				"type": "unocc",
				"energy": 0.06374,
				"method": "rhf"
			},
			{
				"type": "unocc",
				"energy": 0.07715,
				"method": "rhf"
			}
		],
		"cosmo_sigma_profile": { 
			"-0.025": 0.0,
			"-0.024": 0.0,
			"-0.023": 0.0,
			"-0.022": 0.0,
			"-0.021": 0.0,
			"-0.02": 0.0,
			"-0.019": 0.226845598263,
			"-0.018": 0.582234768301,
			"-0.017": 1.43468121066,
			"-0.016": 2.78908690714,
			"-0.015": 2.77484157909,
			"-0.014": 2.63958020974,
			"-0.013": 2.72589743675,
			"-0.012": 4.02236496162,
			"-0.011": 3.53862242101,
			"-0.01": 3.47699254749,
			"-0.009": 3.24483732281,
			"-0.008": 4.55957154443,
			"-0.007": 5.99445060074,
			"-0.006": 7.28912089796,
			"-0.005": 10.3158110021,
			"-0.004": 12.8191577895,
			"-0.003": 11.4764161712,
			"-0.002": 11.6379148147,
			"-0.001": 9.23923178223,
			"0.0": 8.08509568518,
			"0.001": 7.18978693178,
			"0.002": 5.45599122673,
			"0.003": 6.72646230129,
			"0.004": 6.37195120178,
			"0.005": 4.93880402975,
			"0.006": 5.64715609249,
			"0.007": 6.32122955202,
			"0.008": 6.43144901159,
			"0.009": 6.34651362267,
			"0.01": 8.01378110031,
			"0.011": 8.123794151,
			"0.012": 9.05112733878,
			"0.013": 5.37466849829,
			"0.014": 1.05107712063,
			"0.015": 0.0,
			"0.016": 0.0,
			"0.017": 0.0,
			"0.018": 0.0,
			"0.019": 0.0,
			"0.02": 0.0,
			"0.021": 0.0,
			"0.022": 0.0,
			"0.023": 0.0,
			"0.024": 0.0,
			"0.025": 0.0
		}
	}
}
