{
	 "smiles": "CC1=CC=CC(C)=C1O", 
	 "Tm": 320.55, 
	 "num_atms": 19, 
	 "gaussian": { 
		 "optdone": 1, 
		 "sigma_profile": "yes", 
		 "theory": "DFT", 
		 "functional": "B3LYP", 
		 "basiset": "6-31G**", 
		 "properties": { 
			 "R2extent": 1265.0949, 
			 "electric_dipole_moment_norm": 1.48495756168, 
			 "electric_quadrupole_moment_norm": 5.47487109985, 
			 "total_energy": -386.112505853, 
			 "HOMO_LUMO_gap": 0.2203, 
			 "cosmo_polarized_energy": -6.96, 
			 "cosmo_cavitation_energy": 21.69, 
			 "cosmo_dispersion_energy": -16.22, 
			 "cosmo_repulsion_energy": 1.32, 
			 "cosmo_total_nonelectrostatic_energy": 6.79, 
			 "SMD_solvation_energy": 4.0 
		},
		"coords": [
			{
				"x": 0.6188995835,
				"y": -0.8876659777,
				"z": 1.8969073152,
				"element": "C" 
			},
			{
				"x": -0.0624932012,
				"y": -0.3285851693,
				"z": 0.6692589692,
				"element": "C" 
			},
			{
				"x": -1.20892023,
				"y": -0.9255289501,
				"z": 0.1324056804,
				"element": "C" 
			},
			{
				"x": -1.8296602937,
				"y": -0.4023206125,
				"z": -0.9997965536,
				"element": "C" 
			},
			{
				"x": -1.3003072274,
				"y": 0.7361789794,
				"z": -1.6098232971,
				"element": "C" 
			},
			{
				"x": -0.1578954434,
				"y": 1.3650385549,
				"z": -1.1086801834,
				"element": "C" 
			},
			{
				"x": 0.4301840678,
				"y": 2.5951142896,
				"z": -1.7518914855,
				"element": "C" 
			},
			{
				"x": 0.4479603363,
				"y": 0.8162162664,
				"z": 0.0343486468,
				"element": "C" 
			},
			{
				"x": 1.5679338423,
				"y": 1.4621673282,
				"z": 0.4963596684,
				"element": "O" 
			},
			{
				"x": 0.6410008533,
				"y": -0.1653728986,
				"z": 2.7250334498,
				"element": "H" 
			},
			{
				"x": 0.0949123114,
				"y": -1.7742846727,
				"z": 2.2616293344,
				"element": "H" 
			},
			{
				"x": 1.656414945,
				"y": -1.1891123312,
				"z": 1.6952131433,
				"element": "H" 
			},
			{
				"x": -1.6134109173,
				"y": -1.8119333531,
				"z": 0.6148671971,
				"element": "H" 
			},
			{
				"x": -2.7184558393,
				"y": -0.8769280393,
				"z": -1.4042456792,
				"element": "H" 
			},
			{
				"x": -1.7792296231,
				"y": 1.150226904,
				"z": -2.4936804759,
				"element": "H" 
			},
			{
				"x": -0.1538656587,
				"y": 2.8950910962,
				"z": -2.6260219764,
				"element": "H" 
			},
			{
				"x": 0.4587275687,
				"y": 3.4366044444,
				"z": -1.0506316246,
				"element": "H" 
			},
			{
				"x": 1.4643006839,
				"y": 2.4225447975,
				"z": -2.0704944016,
				"element": "H" 
			},
			{
				"x": 1.9008042417,
				"y": 1.0056493438,
				"z": 1.2785422727,
				"element": "H" 
			}
		],
		 "valence_orbital": [ 
			{
				"type": "occ",
				"energy": -0.34055,
				"method": "rhf"
			},
			{
				"type": "occ",
				"energy": -0.32644,
				"method": "rhf"
			},
			{
				"type": "occ",
				"energy": -0.32308,
				"method": "rhf"
			},
			{
				"type": "occ",
				"energy": -0.23248,
				"method": "rhf"
			},
			{
				"type": "occ",
				"energy": -0.20998,
				"method": "rhf"
			},
			{
				"type": "unocc",
				"energy": 0.01032,
				"method": "rhf"
			},
			{
				"type": "unocc",
				"energy": 0.01886,
				"method": "rhf"
			},
			{
				"type": "unocc",
				"energy": 0.0665,
				"method": "rhf"
			},
			{
				"type": "unocc",
				"energy": 0.10531,
				"method": "rhf"
			},
			{
				"type": "unocc",
				"energy": 0.13019,
				"method": "rhf"
			}
		],
		"cosmo_sigma_profile": { 
			"-0.025": 0.0,
			"-0.024": 0.0,
			"-0.023": 0.0,
			"-0.022": 0.0,
			"-0.021": 0.0,
			"-0.02": 0.0,
			"-0.019": 0.0,
			"-0.018": 0.0,
			"-0.017": 0.0,
			"-0.016": 0.133511171751,
			"-0.015": 0.880623496167,
			"-0.014": 0.705929086352,
			"-0.013": 0.880877299776,
			"-0.012": 0.555947102534,
			"-0.011": 1.57816991864,
			"-0.01": 1.11818339373,
			"-0.009": 1.59509885516,
			"-0.008": 1.08740059563,
			"-0.007": 1.17825211714,
			"-0.006": 1.97796329455,
			"-0.005": 8.76008172005,
			"-0.004": 15.4122694788,
			"-0.003": 14.8221722132,
			"-0.002": 16.2399875173,
			"-0.001": 14.8945955901,
			"0.0": 16.7326041449,
			"0.001": 13.1848927266,
			"0.002": 8.63873078154,
			"0.003": 9.01150518018,
			"0.004": 9.05788367394,
			"0.005": 9.64620793573,
			"0.006": 8.47227948588,
			"0.007": 7.23551627438,
			"0.008": 2.1301199399,
			"0.009": 1.81986272081,
			"0.01": 2.08021167406,
			"0.011": 1.14221218497,
			"0.012": 0.00787717726415,
			"0.013": 0.0,
			"0.014": 0.0,
			"0.015": 0.0,
			"0.016": 0.0,
			"0.017": 0.0,
			"0.018": 0.0,
			"0.019": 0.0,
			"0.02": 0.0,
			"0.021": 0.0,
			"0.022": 0.0,
			"0.023": 0.0,
			"0.024": 0.0,
			"0.025": 0.0
		}
	}
}
