{
	 "smiles": "CCOC(=O)C1=C(C)C2=C(CCCC2=O)O1", 
	 "Tm": 378.15, 
	 "num_atms": 30, 
	 "gaussian": { 
		 "optdone": 1, 
		 "sigma_profile": "yes", 
		 "theory": "DFT", 
		 "functional": "B3LYP", 
		 "basiset": "6-31G**", 
		 "properties": { 
			 "R2extent": 5006.7219, 
			 "electric_dipole_moment_norm": 0.981784161616, 
			 "electric_quadrupole_moment_norm": 28.8181797961, 
			 "total_energy": -766.625761429, 
			 "HOMO_LUMO_gap": 0.19579, 
			 "cosmo_polarized_energy": -12.85, 
			 "cosmo_cavitation_energy": 33.25, 
			 "cosmo_dispersion_energy": -24.02, 
			 "cosmo_repulsion_energy": 1.9, 
			 "cosmo_total_nonelectrostatic_energy": 11.13, 
			 "SMD_solvation_energy": 7.32 
		},
		"coords": [
			{
				"x": -1.6102844351,
				"y": -1.841166582,
				"z": -4.3183442955,
				"element": "C" 
			},
			{
				"x": -2.6272292973,
				"y": -1.0053648889,
				"z": -3.555565503,
				"element": "C" 
			},
			{
				"x": -2.0624739941,
				"y": -0.4713357695,
				"z": -2.3340079497,
				"element": "O" 
			},
			{
				"x": -2.100522743,
				"y": -1.2891564307,
				"z": -1.2526560274,
				"element": "C" 
			},
			{
				"x": -2.5730683335,
				"y": -2.4085902093,
				"z": -1.2497242817,
				"element": "O" 
			},
			{
				"x": -1.4984386953,
				"y": -0.6339898325,
				"z": -0.0886299494,
				"element": "C" 
			},
			{
				"x": -0.918290829,
				"y": 0.5924927962,
				"z": 0.1342671418,
				"element": "C" 
			},
			{
				"x": -0.7172705375,
				"y": 1.7246341185,
				"z": -0.8288692006,
				"element": "C" 
			},
			{
				"x": -0.535053341,
				"y": 0.5728558311,
				"z": 1.5233256838,
				"element": "C" 
			},
			{
				"x": -0.9071698267,
				"y": -0.6567416752,
				"z": 2.0199755602,
				"element": "C" 
			},
			{
				"x": -0.725267545,
				"y": -1.1665094156,
				"z": 3.4057864137,
				"element": "C" 
			},
			{
				"x": 0.3955054421,
				"y": -0.3462895912,
				"z": 4.0773376828,
				"element": "C" 
			},
			{
				"x": 0.2222412465,
				"y": 1.1678780627,
				"z": 3.8569377396,
				"element": "C" 
			},
			{
				"x": 0.1063571449,
				"y": 1.5773594476,
				"z": 2.383214849,
				"element": "C" 
			},
			{
				"x": 0.4907585377,
				"y": 2.6701743594,
				"z": 1.9900498364,
				"element": "O" 
			},
			{
				"x": -1.4883096253,
				"y": -1.3981934282,
				"z": 1.0686647495,
				"element": "O" 
			},
			{
				"x": -2.03882778,
				"y": -2.1675401649,
				"z": -5.271894707,
				"element": "H" 
			},
			{
				"x": -1.3360625571,
				"y": -2.7291898336,
				"z": -3.7439005676,
				"element": "H" 
			},
			{
				"x": -0.7071432373,
				"y": -1.260589304,
				"z": -4.5285372139,
				"element": "H" 
			},
			{
				"x": -3.5127043698,
				"y": -1.5944045831,
				"z": -3.3055733988,
				"element": "H" 
			},
			{
				"x": -2.9266895892,
				"y": -0.1211726694,
				"z": -4.1232433388,
				"element": "H" 
			},
			{
				"x": -0.1147413909,
				"y": 1.4054192347,
				"z": -1.6844599736,
				"element": "H" 
			},
			{
				"x": -0.2191331635,
				"y": 2.5522819369,
				"z": -0.3247196664,
				"element": "H" 
			},
			{
				"x": -1.6749655776,
				"y": 2.0680372851,
				"z": -1.2314984364,
				"element": "H" 
			},
			{
				"x": -1.6659309111,
				"y": -1.0595088815,
				"z": 3.9659156667,
				"element": "H" 
			},
			{
				"x": -0.489549455,
				"y": -2.2358702651,
				"z": 3.3928306349,
				"element": "H" 
			},
			{
				"x": 0.4242574229,
				"y": -0.566376152,
				"z": 5.1490782381,
				"element": "H" 
			},
			{
				"x": 1.3603128321,
				"y": -0.6615164596,
				"z": 3.6622724096,
				"element": "H" 
			},
			{
				"x": -0.6966985645,
				"y": 1.5126163644,
				"z": 4.354544747,
				"element": "H" 
			},
			{
				"x": 1.0478931725,
				"y": 1.7354566999,
				"z": 4.2945231566,
				"element": "H" 
			}
		],
		 "valence_orbital": [ 
			{
				"type": "occ",
				"energy": -0.29748,
				"method": "rhf"
			},
			{
				"type": "occ",
				"energy": -0.28154,
				"method": "rhf"
			},
			{
				"type": "occ",
				"energy": -0.27477,
				"method": "rhf"
			},
			{
				"type": "occ",
				"energy": -0.24584,
				"method": "rhf"
			},
			{
				"type": "occ",
				"energy": -0.23835,
				"method": "rhf"
			},
			{
				"type": "unocc",
				"energy": -0.04256,
				"method": "rhf"
			},
			{
				"type": "unocc",
				"energy": -0.03949,
				"method": "rhf"
			},
			{
				"type": "unocc",
				"energy": 0.06601,
				"method": "rhf"
			},
			{
				"type": "unocc",
				"energy": 0.0862,
				"method": "rhf"
			},
			{
				"type": "unocc",
				"energy": 0.10356,
				"method": "rhf"
			}
		],
		"cosmo_sigma_profile": { 
			"-0.025": 0.0,
			"-0.024": 0.0,
			"-0.023": 0.0,
			"-0.022": 0.0,
			"-0.021": 0.0,
			"-0.02": 0.0,
			"-0.019": 0.0,
			"-0.018": 0.0,
			"-0.017": 0.0,
			"-0.016": 0.0,
			"-0.015": 0.0,
			"-0.014": 0.0,
			"-0.013": 0.0,
			"-0.012": 0.0,
			"-0.011": 0.0,
			"-0.01": 0.0,
			"-0.009": 0.0,
			"-0.008": 0.0,
			"-0.007": 0.345098854314,
			"-0.006": 10.7461397972,
			"-0.005": 18.531912248,
			"-0.004": 30.8549243753,
			"-0.003": 32.4531874185,
			"-0.002": 30.1847985118,
			"-0.001": 30.9540426699,
			"0.0": 28.2996117099,
			"0.001": 15.5938739765,
			"0.002": 7.51567513821,
			"0.003": 7.59111544504,
			"0.004": 7.03914787676,
			"0.005": 4.24080993176,
			"0.006": 5.22652402408,
			"0.007": 2.80939404615,
			"0.008": 3.82735417079,
			"0.009": 3.87628236112,
			"0.01": 4.17965889148,
			"0.011": 6.17546741853,
			"0.012": 7.93245757255,
			"0.013": 3.51055161092,
			"0.014": 0.425006357146,
			"0.015": 0.0,
			"0.016": 0.0,
			"0.017": 0.0,
			"0.018": 0.0,
			"0.019": 0.0,
			"0.02": 0.0,
			"0.021": 0.0,
			"0.022": 0.0,
			"0.023": 0.0,
			"0.024": 0.0,
			"0.025": 0.0
		}
	}
}
