{
	 "smiles": "CC[C@H]1CCC[C@@H]1CC", 
	 "Tm": 178.15, 
	 "num_atms": 27, 
	 "gaussian": { 
		 "optdone": 1, 
		 "sigma_profile": "yes", 
		 "theory": "DFT", 
		 "functional": "B3LYP", 
		 "basiset": "6-31G**", 
		 "properties": { 
			 "R2extent": 1541.7689, 
			 "electric_dipole_moment_norm": 0.0707915955464, 
			 "electric_quadrupole_moment_norm": 0.529727212818, 
			 "total_energy": -353.829724473, 
			 "HOMO_LUMO_gap": 0.37155, 
			 "cosmo_polarized_energy": -0.66, 
			 "cosmo_cavitation_energy": 26.2, 
			 "cosmo_dispersion_energy": -18.92, 
			 "cosmo_repulsion_energy": 1.56, 
			 "cosmo_total_nonelectrostatic_energy": 8.84, 
			 "SMD_solvation_energy": 3.91 
		},
		"coords": [
			{
				"x": -1.961978301,
				"y": -1.3588329491,
				"z": 2.1211693438,
				"element": "C" 
			},
			{
				"x": -1.3319479265,
				"y": -0.0533211793,
				"z": 1.6205324357,
				"element": "C" 
			},
			{
				"x": -0.6533084751,
				"y": -0.1675800953,
				"z": 0.2501186918,
				"element": "C" 
			},
			{
				"x": -1.5990359284,
				"y": -0.5183189341,
				"z": -0.9161519132,
				"element": "C" 
			},
			{
				"x": -0.8132608438,
				"y": -0.1502901406,
				"z": -2.1987835273,
				"element": "C" 
			},
			{
				"x": 0.2725387549,
				"y": 0.8706272286,
				"z": -1.7512668503,
				"element": "C" 
			},
			{
				"x": 0.0136625845,
				"y": 1.1373440386,
				"z": -0.2486590178,
				"element": "C" 
			},
			{
				"x": 1.2330383431,
				"y": 1.6452132144,
				"z": 0.5443635986,
				"element": "C" 
			},
			{
				"x": 2.3939241988,
				"y": 0.6554502325,
				"z": 0.7108367752,
				"element": "C" 
			},
			{
				"x": -1.214783301,
				"y": -2.1583789995,
				"z": 2.1871999952,
				"element": "H" 
			},
			{
				"x": -2.3988309492,
				"y": -1.2313682154,
				"z": 3.1172356463,
				"element": "H" 
			},
			{
				"x": -2.7577598755,
				"y": -1.7053592676,
				"z": 1.4536984666,
				"element": "H" 
			},
			{
				"x": -0.5980370727,
				"y": 0.2922026948,
				"z": 2.3604998424,
				"element": "H" 
			},
			{
				"x": -2.102675688,
				"y": 0.7294196371,
				"z": 1.5693469021,
				"element": "H" 
			},
			{
				"x": 0.1181701484,
				"y": -0.9514753506,
				"z": 0.3091849242,
				"element": "H" 
			},
			{
				"x": -1.924330366,
				"y": -1.5632803419,
				"z": -0.9092570955,
				"element": "H" 
			},
			{
				"x": -2.5047994708,
				"y": 0.0984508051,
				"z": -0.8355941345,
				"element": "H" 
			},
			{
				"x": -0.3459171068,
				"y": -1.0405840539,
				"z": -2.6327666558,
				"element": "H" 
			},
			{
				"x": -1.4733542253,
				"y": 0.2599010592,
				"z": -2.9694451737,
				"element": "H" 
			},
			{
				"x": 0.2435858162,
				"y": 1.7978382607,
				"z": -2.3331819089,
				"element": "H" 
			},
			{
				"x": 1.2716907762,
				"y": 0.4449014783,
				"z": -1.8954263327,
				"element": "H" 
			},
			{
				"x": -0.7557348711,
				"y": 1.9229362494,
				"z": -0.1814216548,
				"element": "H" 
			},
			{
				"x": 1.6061182377,
				"y": 2.5537444327,
				"z": 0.0524697489,
				"element": "H" 
			},
			{
				"x": 0.9001756508,
				"y": 1.9664437732,
				"z": 1.5398791126,
				"element": "H" 
			},
			{
				"x": 3.2261987661,
				"y": 1.1278559767,
				"z": 1.2430239388,
				"element": "H" 
			},
			{
				"x": 2.7801761998,
				"y": 0.3066265776,
				"z": -0.2525780828,
				"element": "H" 
			},
			{
				"x": 2.0973749247,
				"y": -0.2271661316,
				"z": 1.286872925,
				"element": "H" 
			}
		],
		 "valence_orbital": [ 
			{
				"type": "occ",
				"energy": -0.31252,
				"method": "rhf"
			},
			{
				"type": "occ",
				"energy": -0.30671,
				"method": "rhf"
			},
			{
				"type": "occ",
				"energy": -0.30319,
				"method": "rhf"
			},
			{
				"type": "occ",
				"energy": -0.29805,
				"method": "rhf"
			},
			{
				"type": "occ",
				"energy": -0.29111,
				"method": "rhf"
			},
			{
				"type": "unocc",
				"energy": 0.08044,
				"method": "rhf"
			},
			{
				"type": "unocc",
				"energy": 0.09554,
				"method": "rhf"
			},
			{
				"type": "unocc",
				"energy": 0.10534,
				"method": "rhf"
			},
			{
				"type": "unocc",
				"energy": 0.10977,
				"method": "rhf"
			},
			{
				"type": "unocc",
				"energy": 0.13719,
				"method": "rhf"
			}
		],
		"cosmo_sigma_profile": { 
			"-0.025": 0.0,
			"-0.024": 0.0,
			"-0.023": 0.0,
			"-0.022": 0.0,
			"-0.021": 0.0,
			"-0.02": 0.0,
			"-0.019": 0.0,
			"-0.018": 0.0,
			"-0.017": 0.0,
			"-0.016": 0.0,
			"-0.015": 0.0,
			"-0.014": 0.0,
			"-0.013": 0.0,
			"-0.012": 0.0,
			"-0.011": 0.0,
			"-0.01": 0.0,
			"-0.009": 0.0,
			"-0.008": 0.0,
			"-0.007": 0.0,
			"-0.006": 0.0,
			"-0.005": 0.0,
			"-0.004": 0.00326862555631,
			"-0.003": 3.70133578038,
			"-0.002": 24.101857905,
			"-0.001": 44.468693523,
			"0.0": 53.9387868793,
			"0.001": 46.2207373861,
			"0.002": 25.9038720099,
			"0.003": 2.02574523583,
			"0.004": 0.0,
			"0.005": 0.0,
			"0.006": 0.0,
			"0.007": 0.0,
			"0.008": 0.0,
			"0.009": 0.0,
			"0.01": 0.0,
			"0.011": 0.0,
			"0.012": 0.0,
			"0.013": 0.0,
			"0.014": 0.0,
			"0.015": 0.0,
			"0.016": 0.0,
			"0.017": 0.0,
			"0.018": 0.0,
			"0.019": 0.0,
			"0.02": 0.0,
			"0.021": 0.0,
			"0.022": 0.0,
			"0.023": 0.0,
			"0.024": 0.0,
			"0.025": 0.0
		}
	}
}
