{
	 "smiles": "CC1=C(NC(=O)CN)C=C(Br)C=C1", 
	 "Tm": 415.15, 
	 "num_atms": 24, 
	 "gaussian": { 
		 "optdone": 1, 
		 "sigma_profile": "yes", 
		 "theory": "DFT", 
		 "functional": "B3LYP", 
		 "basiset": "6-31G**", 
		 "properties": { 
			 "R2extent": 7171.3355, 
			 "electric_dipole_moment_norm": 4.38299525667, 
			 "electric_quadrupole_moment_norm": 17.1761919915, 
			 "total_energy": -3105.73879976, 
			 "HOMO_LUMO_gap": 0.212, 
			 "cosmo_polarized_energy": -13.54, 
			 "cosmo_cavitation_energy": 29.86, 
			 "cosmo_dispersion_energy": -22.08, 
			 "cosmo_repulsion_energy": 1.79, 
			 "cosmo_total_nonelectrostatic_energy": 9.57, 
			 "SMD_solvation_energy": 4.07 
		},
		"coords": [
			{
				"x": -0.6227849234,
				"y": -1.2750616292,
				"z": 1.4541281641,
				"element": "C" 
			},
			{
				"x": -0.2442691695,
				"y": 0.0354049542,
				"z": 2.0926234184,
				"element": "C" 
			},
			{
				"x": -0.0954626875,
				"y": 1.2224024915,
				"z": 1.3460544791,
				"element": "C" 
			},
			{
				"x": -0.2777685215,
				"y": 1.2556427802,
				"z": -0.0610525814,
				"element": "N" 
			},
			{
				"x": 0.4180140029,
				"y": 0.5268142146,
				"z": -0.9893486728,
				"element": "C" 
			},
			{
				"x": 1.2213423962,
				"y": -0.3620993383,
				"z": -0.7468041651,
				"element": "O" 
			},
			{
				"x": 0.1221768869,
				"y": 0.9485149038,
				"z": -2.4377552028,
				"element": "C" 
			},
			{
				"x": -1.0167530966,
				"y": 1.8638725257,
				"z": -2.5570954706,
				"element": "N" 
			},
			{
				"x": 0.1836515479,
				"y": 2.4383788816,
				"z": 1.9846801755,
				"element": "C" 
			},
			{
				"x": 0.3335358276,
				"y": 2.477873003,
				"z": 3.3655590388,
				"element": "C" 
			},
			{
				"x": 0.7087255012,
				"y": 4.148043358,
				"z": 4.2206205099,
				"element": "Br" 
			},
			{
				"x": 0.2243390664,
				"y": 1.3195178232,
				"z": 4.1289816522,
				"element": "C" 
			},
			{
				"x": -0.0618505469,
				"y": 0.1200943094,
				"z": 3.4792006617,
				"element": "C" 
			},
			{
				"x": -1.4572995124,
				"y": -1.1421925362,
				"z": 0.7563022954,
				"element": "H" 
			},
			{
				"x": 0.2107928666,
				"y": -1.6820008648,
				"z": 0.8752468132,
				"element": "H" 
			},
			{
				"x": -0.9244789611,
				"y": -2.0013432562,
				"z": 2.2133964058,
				"element": "H" 
			},
			{
				"x": -0.7818082047,
				"y": 2.0389301567,
				"z": -0.4711066856,
				"element": "H" 
			},
			{
				"x": 1.0248011574,
				"y": 1.4578626511,
				"z": -2.7930022369,
				"element": "H" 
			},
			{
				"x": 0.0395408922,
				"y": 0.0225415242,
				"z": -3.0227528806,
				"element": "H" 
			},
			{
				"x": -0.9336503104,
				"y": 2.4417824455,
				"z": -3.3871563514,
				"element": "H" 
			},
			{
				"x": -1.8880772299,
				"y": 1.3477103329,
				"z": -2.6396072165,
				"element": "H" 
			},
			{
				"x": 0.2951737801,
				"y": 3.3418892043,
				"z": 1.3953563501,
				"element": "H" 
			},
			{
				"x": 0.3483136032,
				"y": 1.3536874158,
				"z": 5.2050692898,
				"element": "H" 
			},
			{
				"x": -0.1686043645,
				"y": -0.7838653509,
				"z": 4.0728622097,
				"element": "H" 
			}
		],
		 "valence_orbital": [ 
			{
				"type": "occ",
				"energy": -0.28239,
				"method": "rhf"
			},
			{
				"type": "occ",
				"energy": -0.27785,
				"method": "rhf"
			},
			{
				"type": "occ",
				"energy": -0.24709,
				"method": "rhf"
			},
			{
				"type": "occ",
				"energy": -0.23968,
				"method": "rhf"
			},
			{
				"type": "occ",
				"energy": -0.22583,
				"method": "rhf"
			},
			{
				"type": "unocc",
				"energy": -0.01383,
				"method": "rhf"
			},
			{
				"type": "unocc",
				"energy": -0.00576,
				"method": "rhf"
			},
			{
				"type": "unocc",
				"energy": 0.01031,
				"method": "rhf"
			},
			{
				"type": "unocc",
				"energy": 0.03173,
				"method": "rhf"
			},
			{
				"type": "unocc",
				"energy": 0.06233,
				"method": "rhf"
			}
		],
		"cosmo_sigma_profile": { 
			"-0.025": 0.0,
			"-0.024": 0.0,
			"-0.023": 0.0,
			"-0.022": 0.0,
			"-0.021": 0.0,
			"-0.02": 0.0,
			"-0.019": 0.0,
			"-0.018": 0.0,
			"-0.017": 0.0,
			"-0.016": 0.0,
			"-0.015": 0.0,
			"-0.014": 0.0,
			"-0.013": 0.0,
			"-0.012": 0.12749053332,
			"-0.011": 2.2053815432,
			"-0.01": 4.52987723156,
			"-0.009": 3.78220116679,
			"-0.008": 5.33624165823,
			"-0.007": 7.62716340238,
			"-0.006": 11.423429911,
			"-0.005": 13.1657627129,
			"-0.004": 15.3075036809,
			"-0.003": 14.6981366837,
			"-0.002": 17.2014766157,
			"-0.001": 15.5234758202,
			"0.0": 18.0432912924,
			"0.001": 18.4627885989,
			"0.002": 18.899830194,
			"0.003": 17.8347183827,
			"0.004": 20.5960737066,
			"0.005": 11.6736462574,
			"0.006": 2.75707577418,
			"0.007": 2.3998112188,
			"0.008": 2.28754454545,
			"0.009": 2.13836920516,
			"0.01": 2.29293964091,
			"0.011": 2.19779057549,
			"0.012": 1.95090875473,
			"0.013": 3.33586128782,
			"0.014": 3.10066600961,
			"0.015": 0.666507534902,
			"0.016": 0.0,
			"0.017": 0.0,
			"0.018": 0.0,
			"0.019": 0.0,
			"0.02": 0.0,
			"0.021": 0.0,
			"0.022": 0.0,
			"0.023": 0.0,
			"0.024": 0.0,
			"0.025": 0.0
		}
	}
}
