{
	 "smiles": "NS(=O)(=O)C1=C(Cl)C=CC(=C1)C(O)=O", 
	 "Tm": 531.15, 
	 "num_atms": 20, 
	 "gaussian": { 
		 "optdone": 1, 
		 "sigma_profile": "yes", 
		 "theory": "DFT", 
		 "functional": "B3LYP", 
		 "basiset": "6-31G**", 
		 "properties": { 
			 "R2extent": 4632.3095, 
			 "electric_dipole_moment_norm": 4.47933378305, 
			 "electric_quadrupole_moment_norm": 15.2216294775, 
			 "total_energy": -1484.32826275, 
			 "HOMO_LUMO_gap": 0.20155, 
			 "cosmo_polarized_energy": -21.36, 
			 "cosmo_cavitation_energy": 28.13, 
			 "cosmo_dispersion_energy": -21.33, 
			 "cosmo_repulsion_energy": 1.62, 
			 "cosmo_total_nonelectrostatic_energy": 8.43, 
			 "SMD_solvation_energy": 5.48 
		},
		"coords": [
			{
				"x": 0.010025077,
				"y": -2.2225561501,
				"z": -1.3334442702,
				"element": "N" 
			},
			{
				"x": -0.2763975375,
				"y": -0.7039588279,
				"z": -0.7023732241,
				"element": "S" 
			},
			{
				"x": 0.7127206438,
				"y": 0.1761238072,
				"z": -1.3201924837,
				"element": "O" 
			},
			{
				"x": -1.710772262,
				"y": -0.4649203017,
				"z": -0.8018274289,
				"element": "O" 
			},
			{
				"x": 0.1546577109,
				"y": -0.7695415115,
				"z": 1.0617933503,
				"element": "C" 
			},
			{
				"x": -0.4655095479,
				"y": -1.6150160603,
				"z": 1.9942032338,
				"element": "C" 
			},
			{
				"x": -1.6889151557,
				"y": -2.7779088752,
				"z": 1.5227928855,
				"element": "Cl" 
			},
			{
				"x": -0.1066493709,
				"y": -1.5677168227,
				"z": 3.3431061042,
				"element": "C" 
			},
			{
				"x": 0.8666960183,
				"y": -0.6705416852,
				"z": 3.7677303868,
				"element": "C" 
			},
			{
				"x": 1.4914882112,
				"y": 0.1794578614,
				"z": 2.8484863754,
				"element": "C" 
			},
			{
				"x": 1.1319239412,
				"y": 0.1267038904,
				"z": 1.4983516614,
				"element": "C" 
			},
			{
				"x": 2.529518222,
				"y": 1.1194628787,
				"z": 3.3572397351,
				"element": "C" 
			},
			{
				"x": 3.0631541148,
				"y": 1.8898585164,
				"z": 2.3832335942,
				"element": "O" 
			},
			{
				"x": 2.871424635,
				"y": 1.1958976406,
				"z": 4.5198053022,
				"element": "O" 
			},
			{
				"x": -0.594629231,
				"y": -2.9432508438,
				"z": -0.9528485989,
				"element": "H" 
			},
			{
				"x": 0.9939790424,
				"y": -2.4687784738,
				"z": -1.3547219871,
				"element": "H" 
			},
			{
				"x": -0.5952325409,
				"y": -2.2322798117,
				"z": 4.0466330557,
				"element": "H" 
			},
			{
				"x": 1.156640507,
				"y": -0.6168910381,
				"z": 4.8114384719,
				"element": "H" 
			},
			{
				"x": 1.6029322161,
				"y": 0.7785732713,
				"z": 0.7727388874,
				"element": "H" 
			},
			{
				"x": 3.7176453063,
				"y": 2.4628825358,
				"z": 2.8155549488,
				"element": "H" 
			}
		],
		 "valence_orbital": [ 
			{
				"type": "occ",
				"energy": -0.31705,
				"method": "rhf"
			},
			{
				"type": "occ",
				"energy": -0.30983,
				"method": "rhf"
			},
			{
				"type": "occ",
				"energy": -0.29482,
				"method": "rhf"
			},
			{
				"type": "occ",
				"energy": -0.28936,
				"method": "rhf"
			},
			{
				"type": "occ",
				"energy": -0.28026,
				"method": "rhf"
			},
			{
				"type": "unocc",
				"energy": -0.07871,
				"method": "rhf"
			},
			{
				"type": "unocc",
				"energy": -0.05193,
				"method": "rhf"
			},
			{
				"type": "unocc",
				"energy": -0.00506,
				"method": "rhf"
			},
			{
				"type": "unocc",
				"energy": 0.01914,
				"method": "rhf"
			},
			{
				"type": "unocc",
				"energy": 0.05406,
				"method": "rhf"
			}
		],
		"cosmo_sigma_profile": { 
			"-0.025": 0.0,
			"-0.024": 0.0,
			"-0.023": 0.0,
			"-0.022": 0.0,
			"-0.021": 0.0,
			"-0.02": 0.0245919838153,
			"-0.019": 0.53274399642,
			"-0.018": 1.031665469,
			"-0.017": 1.06710109729,
			"-0.016": 1.58320509805,
			"-0.015": 2.00452240739,
			"-0.014": 1.71340991072,
			"-0.013": 3.61205320041,
			"-0.012": 3.59667580188,
			"-0.011": 2.98934080052,
			"-0.01": 1.61776607372,
			"-0.009": 4.24076704536,
			"-0.008": 7.2600820432,
			"-0.007": 6.752126558,
			"-0.006": 5.62365727782,
			"-0.005": 5.2330032894,
			"-0.004": 9.61175501202,
			"-0.003": 14.1304736461,
			"-0.002": 16.8356209855,
			"-0.001": 24.1427927761,
			"0.0": 16.8228153722,
			"0.001": 10.6340694146,
			"0.002": 10.6120627547,
			"0.003": 9.42633369357,
			"0.004": 5.73084257272,
			"0.005": 5.99651657898,
			"0.006": 7.65660890543,
			"0.007": 6.13908698313,
			"0.008": 6.59895764398,
			"0.009": 7.15448823171,
			"0.01": 13.2270500611,
			"0.011": 12.7765904154,
			"0.012": 1.24285549775,
			"0.013": 0.0,
			"0.014": 0.0,
			"0.015": 0.0,
			"0.016": 0.0,
			"0.017": 0.0,
			"0.018": 0.0,
			"0.019": 0.0,
			"0.02": 0.0,
			"0.021": 0.0,
			"0.022": 0.0,
			"0.023": 0.0,
			"0.024": 0.0,
			"0.025": 0.0
		}
	}
}
