{
	 "smiles": "NC1=NC=CS1", 
	 "Tm": 364.65, 
	 "num_atms": 10, 
	 "gaussian": { 
		 "optdone": 1, 
		 "sigma_profile": "yes", 
		 "theory": "DFT", 
		 "functional": "B3LYP", 
		 "basiset": "6-31G**", 
		 "properties": { 
			 "R2extent": 770.643, 
			 "electric_dipole_moment_norm": 1.62629433375, 
			 "electric_quadrupole_moment_norm": 8.79846407051, 
			 "total_energy": -624.407532033, 
			 "HOMO_LUMO_gap": 0.20731, 
			 "cosmo_polarized_energy": -9.34, 
			 "cosmo_cavitation_energy": 15.57, 
			 "cosmo_dispersion_energy": -12.58, 
			 "cosmo_repulsion_energy": 1.03, 
			 "cosmo_total_nonelectrostatic_energy": 4.02, 
			 "SMD_solvation_energy": 1.31 
		},
		"coords": [
			{
				"x": 1.6724063487,
				"y": 0.4854415817,
				"z": -1.1181525453,
				"element": "N" 
			},
			{
				"x": 0.71428142,
				"y": -0.2976625287,
				"z": -0.5108647711,
				"element": "C" 
			},
			{
				"x": -0.560813152,
				"y": -0.0337087069,
				"z": -0.5302535395,
				"element": "N" 
			},
			{
				"x": -1.2711173357,
				"y": -1.0407675397,
				"z": 0.0914753343,
				"element": "C" 
			},
			{
				"x": -0.5528514687,
				"y": -2.0769027151,
				"z": 0.5998805145,
				"element": "C" 
			},
			{
				"x": 1.1487841075,
				"y": -1.8225304182,
				"z": 0.2788558783,
				"element": "S" 
			},
			{
				"x": 2.5847946057,
				"y": 0.503814472,
				"z": -0.6848921771,
				"element": "H" 
			},
			{
				"x": 1.3221937404,
				"y": 1.4022755694,
				"z": -1.3651594481,
				"element": "H" 
			},
			{
				"x": -2.3500633046,
				"y": -0.9551241568,
				"z": 0.1535805053,
				"element": "H" 
			},
			{
				"x": -0.8951149612,
				"y": -2.9508355576,
				"z": 1.1339302486,
				"element": "H" 
			}
		],
		 "valence_orbital": [ 
			{
				"type": "occ",
				"energy": -0.35747,
				"method": "rhf"
			},
			{
				"type": "occ",
				"energy": -0.3195,
				"method": "rhf"
			},
			{
				"type": "occ",
				"energy": -0.27269,
				"method": "rhf"
			},
			{
				"type": "occ",
				"energy": -0.2702,
				"method": "rhf"
			},
			{
				"type": "occ",
				"energy": -0.2096,
				"method": "rhf"
			},
			{
				"type": "unocc",
				"energy": -0.00229,
				"method": "rhf"
			},
			{
				"type": "unocc",
				"energy": 0.01513,
				"method": "rhf"
			},
			{
				"type": "unocc",
				"energy": 0.06727,
				"method": "rhf"
			},
			{
				"type": "unocc",
				"energy": 0.07402,
				"method": "rhf"
			},
			{
				"type": "unocc",
				"energy": 0.11054,
				"method": "rhf"
			}
		],
		"cosmo_sigma_profile": { 
			"-0.025": 0.0,
			"-0.024": 0.0,
			"-0.023": 0.0,
			"-0.022": 0.0,
			"-0.021": 0.0,
			"-0.02": 0.0,
			"-0.019": 0.0,
			"-0.018": 0.0,
			"-0.017": 0.0,
			"-0.016": 0.0,
			"-0.015": 0.215633091983,
			"-0.014": 1.38471942479,
			"-0.013": 3.01373816888,
			"-0.012": 2.11400421748,
			"-0.011": 2.88463908274,
			"-0.01": 2.43890215838,
			"-0.009": 2.77541357578,
			"-0.008": 3.65447371368,
			"-0.007": 4.19227892592,
			"-0.006": 4.54335099273,
			"-0.005": 5.74112944331,
			"-0.004": 5.44611625733,
			"-0.003": 5.05807266034,
			"-0.002": 5.31472183459,
			"-0.001": 4.98212961034,
			"0.0": 6.61400556623,
			"0.001": 5.90119451429,
			"0.002": 9.72425637271,
			"0.003": 10.4780873391,
			"0.004": 12.6862989905,
			"0.005": 7.84534013412,
			"0.006": 4.53692197183,
			"0.007": 2.85043431826,
			"0.008": 2.36394108828,
			"0.009": 1.37407251828,
			"0.01": 1.44779614476,
			"0.011": 1.61886704023,
			"0.012": 1.98859987485,
			"0.013": 1.10962568026,
			"0.014": 1.14990531753,
			"0.015": 0.610341939242,
			"0.016": 0.626280168214,
			"0.017": 0.024237804084,
			"0.018": 0.0,
			"0.019": 0.0,
			"0.02": 0.0,
			"0.021": 0.0,
			"0.022": 0.0,
			"0.023": 0.0,
			"0.024": 0.0,
			"0.025": 0.0
		}
	}
}
