{
	 "smiles": "CC1=CC=C(S1)S(=O)(=O)NC1=CC=C(O)C=C1", 
	 "Tm": 380.15, 
	 "num_atms": 28, 
	 "gaussian": { 
		 "optdone": 1, 
		 "sigma_profile": "yes", 
		 "theory": "DFT", 
		 "functional": "B3LYP", 
		 "basiset": "6-31G**", 
		 "properties": { 
			 "R2extent": 5407.3283, 
			 "electric_dipole_moment_norm": 5.27606748441, 
			 "electric_quadrupole_moment_norm": 26.9008515826, 
			 "total_energy": -1502.50930456, 
			 "HOMO_LUMO_gap": 0.17016, 
			 "cosmo_polarized_energy": -20.43, 
			 "cosmo_cavitation_energy": 35.57, 
			 "cosmo_dispersion_energy": -25.54, 
			 "cosmo_repulsion_energy": 1.92, 
			 "cosmo_total_nonelectrostatic_energy": 11.95, 
			 "SMD_solvation_energy": 5.36 
		},
		"coords": [
			{
				"x": -0.3965477373,
				"y": -3.8536814986,
				"z": 0.5506643968,
				"element": "C" 
			},
			{
				"x": -0.7187314911,
				"y": -2.522950292,
				"z": 1.163407289,
				"element": "C" 
			},
			{
				"x": -0.6144055667,
				"y": -2.1498936751,
				"z": 2.4818677683,
				"element": "C" 
			},
			{
				"x": -1.0116834328,
				"y": -0.8064475106,
				"z": 2.7278577823,
				"element": "C" 
			},
			{
				"x": -1.4160852787,
				"y": -0.1680755037,
				"z": 1.5828048359,
				"element": "C" 
			},
			{
				"x": -1.3236449843,
				"y": -1.2089652291,
				"z": 0.1886066838,
				"element": "S" 
			},
			{
				"x": -1.962240752,
				"y": 1.5140365901,
				"z": 1.4865657785,
				"element": "S" 
			},
			{
				"x": -2.9274242917,
				"y": 1.5970443578,
				"z": 0.3925559102,
				"element": "O" 
			},
			{
				"x": -2.2609398064,
				"y": 1.9446468071,
				"z": 2.851658344,
				"element": "O" 
			},
			{
				"x": -0.6298579595,
				"y": 2.4641424197,
				"z": 1.0362379094,
				"element": "N" 
			},
			{
				"x": 0.0532176238,
				"y": 2.2818257301,
				"z": -0.203234973,
				"element": "C" 
			},
			{
				"x": 1.4076182368,
				"y": 1.9207823924,
				"z": -0.2189042621,
				"element": "C" 
			},
			{
				"x": 2.0984231442,
				"y": 1.8047537299,
				"z": -1.4206677944,
				"element": "C" 
			},
			{
				"x": 1.4293426477,
				"y": 2.0182859057,
				"z": -2.6306446058,
				"element": "C" 
			},
			{
				"x": 2.1500314903,
				"y": 1.8773263814,
				"z": -3.7824429858,
				"element": "O" 
			},
			{
				"x": 0.0737096662,
				"y": 2.3653898098,
				"z": -2.6208241487,
				"element": "C" 
			},
			{
				"x": -0.60807408,
				"y": 2.5134641959,
				"z": -1.4152823909,
				"element": "C" 
			},
			{
				"x": -1.2752779411,
				"y": -4.3079069711,
				"z": 0.0798606117,
				"element": "H" 
			},
			{
				"x": -0.0376850062,
				"y": -4.5382528656,
				"z": 1.3237484937,
				"element": "H" 
			},
			{
				"x": 0.3823826297,
				"y": -3.7714377486,
				"z": -0.215256178,
				"element": "H" 
			},
			{
				"x": -0.2706721059,
				"y": -2.8270394937,
				"z": 3.2562666616,
				"element": "H" 
			},
			{
				"x": -1.0231870745,
				"y": -0.3281994985,
				"z": 3.6997150845,
				"element": "H" 
			},
			{
				"x": -0.0270554008,
				"y": 2.5927212593,
				"z": 1.8431727469,
				"element": "H" 
			},
			{
				"x": 1.9265446801,
				"y": 1.7347130715,
				"z": 0.7180213676,
				"element": "H" 
			},
			{
				"x": 3.1496309482,
				"y": 1.5378832316,
				"z": -1.4398624953,
				"element": "H" 
			},
			{
				"x": 1.5768446738,
				"y": 2.0562098271,
				"z": -4.5390643411,
				"element": "H" 
			},
			{
				"x": -0.4493978784,
				"y": 2.5408260576,
				"z": -3.5584812235,
				"element": "H" 
			},
			{
				"x": -1.6521349536,
				"y": 2.8017985198,
				"z": -1.4038462658,
				"element": "H" 
			}
		],
		 "valence_orbital": [ 
			{
				"type": "occ",
				"energy": -0.29926,
				"method": "rhf"
			},
			{
				"type": "occ",
				"energy": -0.26667,
				"method": "rhf"
			},
			{
				"type": "occ",
				"energy": -0.26105,
				"method": "rhf"
			},
			{
				"type": "occ",
				"energy": -0.24678,
				"method": "rhf"
			},
			{
				"type": "occ",
				"energy": -0.21536,
				"method": "rhf"
			},
			{
				"type": "unocc",
				"energy": -0.0452,
				"method": "rhf"
			},
			{
				"type": "unocc",
				"energy": -0.01232,
				"method": "rhf"
			},
			{
				"type": "unocc",
				"energy": 0.00055,
				"method": "rhf"
			},
			{
				"type": "unocc",
				"energy": 0.01525,
				"method": "rhf"
			},
			{
				"type": "unocc",
				"energy": 0.0421,
				"method": "rhf"
			}
		],
		"cosmo_sigma_profile": { 
			"-0.025": 0.0,
			"-0.024": 0.0,
			"-0.023": 0.0,
			"-0.022": 0.0,
			"-0.021": 0.0,
			"-0.02": 0.0,
			"-0.019": 0.0,
			"-0.018": 0.335304919217,
			"-0.017": 1.30269614197,
			"-0.016": 1.19765644491,
			"-0.015": 2.22298720595,
			"-0.014": 1.95431940901,
			"-0.013": 3.05529772219,
			"-0.012": 1.68630062742,
			"-0.011": 1.72700894568,
			"-0.01": 2.2454128321,
			"-0.009": 3.16592734694,
			"-0.008": 3.40439054698,
			"-0.007": 7.97553766249,
			"-0.006": 13.0108892102,
			"-0.005": 19.921253658,
			"-0.004": 19.8977040697,
			"-0.003": 16.4166710866,
			"-0.002": 15.539119702,
			"-0.001": 14.8783973705,
			"0.0": 13.3167194305,
			"0.001": 17.8323080231,
			"0.002": 22.8945418728,
			"0.003": 24.553384661,
			"0.004": 23.4256647949,
			"0.005": 10.4669451477,
			"0.006": 6.40790850249,
			"0.007": 5.76709177342,
			"0.008": 5.62797928536,
			"0.009": 5.59926879998,
			"0.01": 9.66176593285,
			"0.011": 9.5826150089,
			"0.012": 1.00788545119,
			"0.013": 0.0,
			"0.014": 0.0,
			"0.015": 0.0,
			"0.016": 0.0,
			"0.017": 0.0,
			"0.018": 0.0,
			"0.019": 0.0,
			"0.02": 0.0,
			"0.021": 0.0,
			"0.022": 0.0,
			"0.023": 0.0,
			"0.024": 0.0,
			"0.025": 0.0
		}
	}
}
