{
	 "smiles": "CN1C(=NC2=C1C=CC=C2)C(=CC1=CC(O)=CC=C1)C#N", 
	 "Tm": 513.15, 
	 "num_atms": 34, 
	 "gaussian": { 
		 "optdone": 1, 
		 "sigma_profile": "yes", 
		 "theory": "DFT", 
		 "functional": "B3LYP", 
		 "basiset": "6-31G**", 
		 "properties": { 
			 "R2extent": 9146.5116, 
			 "electric_dipole_moment_norm": 2.42270292442, 
			 "electric_quadrupole_moment_norm": 28.3967516493, 
			 "total_energy": -895.102935821, 
			 "HOMO_LUMO_gap": 0.12888, 
			 "cosmo_polarized_energy": -17.47, 
			 "cosmo_cavitation_energy": 39.3, 
			 "cosmo_dispersion_energy": -28.09, 
			 "cosmo_repulsion_energy": 2.09, 
			 "cosmo_total_nonelectrostatic_energy": 13.3, 
			 "SMD_solvation_energy": 5.95 
		},
		"coords": [
			{
				"x": -1.1172788157,
				"y": -2.6660055931,
				"z": -0.8049929669,
				"element": "C" 
			},
			{
				"x": -0.4217264421,
				"y": -1.5422109968,
				"z": -1.420064768,
				"element": "N" 
			},
			{
				"x": 0.4083922717,
				"y": -0.5926255157,
				"z": -0.8373783187,
				"element": "C" 
			},
			{
				"x": 0.9612099438,
				"y": 0.2194737404,
				"z": -1.7182035981,
				"element": "N" 
			},
			{
				"x": 0.4868873413,
				"y": -0.192639753,
				"z": -2.9447563761,
				"element": "C" 
			},
			{
				"x": -0.3901664409,
				"y": -1.2919155485,
				"z": -2.7836606527,
				"element": "C" 
			},
			{
				"x": -1.0231128894,
				"y": -1.9073803519,
				"z": -3.8675767456,
				"element": "C" 
			},
			{
				"x": -0.7483775717,
				"y": -1.3899072772,
				"z": -5.1305428365,
				"element": "C" 
			},
			{
				"x": 0.1233270354,
				"y": -0.2946124998,
				"z": -5.3077216338,
				"element": "C" 
			},
			{
				"x": 0.7469390936,
				"y": 0.3152273563,
				"z": -4.2260263883,
				"element": "C" 
			},
			{
				"x": 0.6731829308,
				"y": -0.4770083775,
				"z": 0.6105964098,
				"element": "C" 
			},
			{
				"x": 1.8232307526,
				"y": 0.1379126486,
				"z": 1.0143532555,
				"element": "C" 
			},
			{
				"x": 2.3481456905,
				"y": 0.4643537575,
				"z": 2.3341941255,
				"element": "C" 
			},
			{
				"x": 3.6077801231,
				"y": 1.0942805278,
				"z": 2.3563919934,
				"element": "C" 
			},
			{
				"x": 4.2134530517,
				"y": 1.4501043026,
				"z": 3.5617926089,
				"element": "C" 
			},
			{
				"x": 5.4343353368,
				"y": 2.0562921436,
				"z": 3.4931676751,
				"element": "O" 
			},
			{
				"x": 3.564788172,
				"y": 1.1797973592,
				"z": 4.7710238558,
				"element": "C" 
			},
			{
				"x": 2.3147513788,
				"y": 0.5561674777,
				"z": 4.756502159,
				"element": "C" 
			},
			{
				"x": 1.7016881143,
				"y": 0.1971769041,
				"z": 3.5617331646,
				"element": "C" 
			},
			{
				"x": -0.3297081816,
				"y": -0.9396437985,
				"z": 1.5194032848,
				"element": "C" 
			},
			{
				"x": -1.167849627,
				"y": -1.3163427817,
				"z": 2.2357944868,
				"element": "N" 
			},
			{
				"x": -0.5272243577,
				"y": -3.0776756365,
				"z": 0.0138397353,
				"element": "H" 
			},
			{
				"x": -2.0978473523,
				"y": -2.3756457255,
				"z": -0.4175685963,
				"element": "H" 
			},
			{
				"x": -1.244447868,
				"y": -3.445060888,
				"z": -1.5589598505,
				"element": "H" 
			},
			{
				"x": -1.7043576975,
				"y": -2.7431509415,
				"z": -3.7422348066,
				"element": "H" 
			},
			{
				"x": -1.2208953133,
				"y": -1.8375390717,
				"z": -5.9998212922,
				"element": "H" 
			},
			{
				"x": 0.3057046364,
				"y": 0.0770139015,
				"z": -6.3116465597,
				"element": "H" 
			},
			{
				"x": 1.4172624906,
				"y": 1.1591061083,
				"z": -4.3526981751,
				"element": "H" 
			},
			{
				"x": 2.4533046675,
				"y": 0.4492515015,
				"z": 0.1850703448,
				"element": "H" 
			},
			{
				"x": 4.1291695919,
				"y": 1.3154828439,
				"z": 1.4305917168,
				"element": "H" 
			},
			{
				"x": 5.7431358499,
				"y": 2.2555123509,
				"z": 4.3864681316,
				"element": "H" 
			},
			{
				"x": 4.0308525499,
				"y": 1.4547991116,
				"z": 5.714816028,
				"element": "H" 
			},
			{
				"x": 1.813626257,
				"y": 0.349973349,
				"z": 5.6974891155,
				"element": "H" 
			},
			{
				"x": 0.7323252775,
				"y": -0.2810606277,
				"z": 3.586425474,
				"element": "H" 
			}
		],
		 "valence_orbital": [ 
			{
				"type": "occ",
				"energy": -0.2742,
				"method": "rhf"
			},
			{
				"type": "occ",
				"energy": -0.25767,
				"method": "rhf"
			},
			{
				"type": "occ",
				"energy": -0.2358,
				"method": "rhf"
			},
			{
				"type": "occ",
				"energy": -0.22537,
				"method": "rhf"
			},
			{
				"type": "occ",
				"energy": -0.2121,
				"method": "rhf"
			},
			{
				"type": "unocc",
				"energy": -0.08322,
				"method": "rhf"
			},
			{
				"type": "unocc",
				"energy": -0.01079,
				"method": "rhf"
			},
			{
				"type": "unocc",
				"energy": -0.00558,
				"method": "rhf"
			},
			{
				"type": "unocc",
				"energy": 0.01973,
				"method": "rhf"
			},
			{
				"type": "unocc",
				"energy": 0.02243,
				"method": "rhf"
			}
		],
		"cosmo_sigma_profile": { 
			"-0.025": 0.0,
			"-0.024": 0.0,
			"-0.023": 0.0,
			"-0.022": 0.0,
			"-0.021": 0.0,
			"-0.02": 0.0,
			"-0.019": 0.029562710308,
			"-0.018": 0.868022850059,
			"-0.017": 1.11963365016,
			"-0.016": 0.986862097558,
			"-0.015": 1.33704972218,
			"-0.014": 1.05725648175,
			"-0.013": 1.00497552996,
			"-0.012": 0.395224557983,
			"-0.011": 1.01589919856,
			"-0.01": 1.64565498341,
			"-0.009": 1.63360638806,
			"-0.008": 4.32171891975,
			"-0.007": 10.3013857027,
			"-0.006": 15.9661424067,
			"-0.005": 21.1608274747,
			"-0.004": 24.0537156148,
			"-0.003": 22.38529011,
			"-0.002": 19.2869985472,
			"-0.001": 21.8565398153,
			"0.0": 22.0579122246,
			"0.001": 18.630060209,
			"0.002": 21.0430750209,
			"0.003": 25.8967494186,
			"0.004": 20.5300192682,
			"0.005": 15.6507579851,
			"0.006": 10.7172623581,
			"0.007": 5.27674303737,
			"0.008": 5.07104105883,
			"0.009": 5.06298604714,
			"0.01": 4.87721106578,
			"0.011": 5.16439661318,
			"0.012": 2.76549902856,
			"0.013": 1.95298595915,
			"0.014": 0.737080956499,
			"0.015": 0.691154845064,
			"0.016": 0.0868482677669,
			"0.017": 0.0,
			"0.018": 0.0,
			"0.019": 0.0,
			"0.02": 0.0,
			"0.021": 0.0,
			"0.022": 0.0,
			"0.023": 0.0,
			"0.024": 0.0,
			"0.025": 0.0
		}
	}
}
