{
	 "smiles": "O=CC1=CN=C2C=NC=CN12", 
	 "Tm": 452.15, 
	 "num_atms": 16, 
	 "gaussian": { 
		 "optdone": 1, 
		 "sigma_profile": "yes", 
		 "theory": "DFT", 
		 "functional": "B3LYP", 
		 "basiset": "6-31G**", 
		 "properties": { 
			 "R2extent": 2069.9142, 
			 "electric_dipole_moment_norm": 0.700093965122, 
			 "electric_quadrupole_moment_norm": 8.0208353156, 
			 "total_energy": -509.211693377, 
			 "HOMO_LUMO_gap": 0.17013, 
			 "cosmo_polarized_energy": -10.7, 
			 "cosmo_cavitation_energy": 20.96, 
			 "cosmo_dispersion_energy": -15.72, 
			 "cosmo_repulsion_energy": 1.22, 
			 "cosmo_total_nonelectrostatic_energy": 6.45, 
			 "SMD_solvation_energy": 1.91 
		},
		"coords": [
			{
				"x": 1.1980405872,
				"y": -2.3442465781,
				"z": 0.4278508351,
				"element": "O" 
			},
			{
				"x": 0.2549745815,
				"y": -1.7366280289,
				"z": 0.9224772709,
				"element": "C" 
			},
			{
				"x": -0.6562609769,
				"y": -0.8907705729,
				"z": 0.1890049063,
				"element": "C" 
			},
			{
				"x": -1.7653162438,
				"y": -0.1413939428,
				"z": 0.6090419831,
				"element": "C" 
			},
			{
				"x": -2.3558573588,
				"y": 0.5206789283,
				"z": -0.4000651468,
				"element": "N" 
			},
			{
				"x": -1.6326374086,
				"y": 0.2057290998,
				"z": -1.4884266188,
				"element": "C" 
			},
			{
				"x": -1.7683726515,
				"y": 0.5966805777,
				"z": -2.8394842084,
				"element": "C" 
			},
			{
				"x": -0.9504401112,
				"y": 0.1795393517,
				"z": -3.7846569086,
				"element": "N" 
			},
			{
				"x": 0.0614574661,
				"y": -0.6622239214,
				"z": -3.4273043013,
				"element": "C" 
			},
			{
				"x": 0.2803756936,
				"y": -1.1009735862,
				"z": -2.147033314,
				"element": "C" 
			},
			{
				"x": -0.5813962733,
				"y": -0.6560253264,
				"z": -1.1768411135,
				"element": "N" 
			},
			{
				"x": 0.0348169981,
				"y": -1.8013839916,
				"z": 2.0076388835,
				"element": "H" 
			},
			{
				"x": -2.1386705329,
				"y": -0.0754773878,
				"z": 1.6240004916,
				"element": "H" 
			},
			{
				"x": -2.5799005224,
				"y": 1.2681253515,
				"z": -3.1089580307,
				"element": "H" 
			},
			{
				"x": 0.7213483585,
				"y": -0.9915716514,
				"z": -4.223476639,
				"element": "H" 
			},
			{
				"x": 1.0694383943,
				"y": -1.7664583216,
				"z": -1.8255680894,
				"element": "H" 
			}
		],
		 "valence_orbital": [ 
			{
				"type": "occ",
				"energy": -0.30536,
				"method": "rhf"
			},
			{
				"type": "occ",
				"energy": -0.28202,
				"method": "rhf"
			},
			{
				"type": "occ",
				"energy": -0.277,
				"method": "rhf"
			},
			{
				"type": "occ",
				"energy": -0.26777,
				"method": "rhf"
			},
			{
				"type": "occ",
				"energy": -0.24835,
				"method": "rhf"
			},
			{
				"type": "unocc",
				"energy": -0.07822,
				"method": "rhf"
			},
			{
				"type": "unocc",
				"energy": -0.05636,
				"method": "rhf"
			},
			{
				"type": "unocc",
				"energy": -0.003,
				"method": "rhf"
			},
			{
				"type": "unocc",
				"energy": 0.08222,
				"method": "rhf"
			},
			{
				"type": "unocc",
				"energy": 0.10089,
				"method": "rhf"
			}
		],
		"cosmo_sigma_profile": { 
			"-0.025": 0.0,
			"-0.024": 0.0,
			"-0.023": 0.0,
			"-0.022": 0.0,
			"-0.021": 0.0,
			"-0.02": 0.0,
			"-0.019": 0.0,
			"-0.018": 0.0,
			"-0.017": 0.0,
			"-0.016": 0.0,
			"-0.015": 0.0,
			"-0.014": 0.0,
			"-0.013": 0.0,
			"-0.012": 0.0,
			"-0.011": 0.0,
			"-0.01": 0.109265943759,
			"-0.009": 4.39264534395,
			"-0.008": 10.2670129432,
			"-0.007": 8.64259854677,
			"-0.006": 7.92117423834,
			"-0.005": 9.61739846557,
			"-0.004": 12.3012727938,
			"-0.003": 13.6079651101,
			"-0.002": 16.9683559387,
			"-0.001": 14.0410778854,
			"0.0": 11.2697005512,
			"0.001": 7.6110204668,
			"0.002": 5.76059307764,
			"0.003": 5.33904183153,
			"0.004": 4.18360880358,
			"0.005": 3.67759921351,
			"0.006": 4.64819810243,
			"0.007": 3.56602281129,
			"0.008": 3.02166101612,
			"0.009": 4.18871921535,
			"0.01": 4.17395185657,
			"0.011": 4.55226085202,
			"0.012": 3.46251934765,
			"0.013": 3.35884752954,
			"0.014": 1.68889062062,
			"0.015": 1.54259953305,
			"0.016": 0.421326446591,
			"0.017": 0.0,
			"0.018": 0.0,
			"0.019": 0.0,
			"0.02": 0.0,
			"0.021": 0.0,
			"0.022": 0.0,
			"0.023": 0.0,
			"0.024": 0.0,
			"0.025": 0.0
		}
	}
}
