{
	 "smiles": "C(OC1=C2C=NNC2=CC=C1)C1=CC=CC=C1", 
	 "Tm": 399.15, 
	 "num_atms": 29, 
	 "gaussian": { 
		 "optdone": 1, 
		 "sigma_profile": "yes", 
		 "theory": "DFT", 
		 "functional": "B3LYP", 
		 "basiset": "6-31G**", 
		 "properties": { 
			 "R2extent": 5302.0309, 
			 "electric_dipole_moment_norm": 1.98999812563, 
			 "electric_quadrupole_moment_norm": 19.2302933709, 
			 "total_energy": -725.419273472, 
			 "HOMO_LUMO_gap": 0.18917, 
			 "cosmo_polarized_energy": -12.41, 
			 "cosmo_cavitation_energy": 33.43, 
			 "cosmo_dispersion_energy": -24.22, 
			 "cosmo_repulsion_energy": 1.86, 
			 "cosmo_total_nonelectrostatic_energy": 11.07, 
			 "SMD_solvation_energy": 4.6 
		},
		"coords": [
			{
				"x": 0.9646677058,
				"y": 0.6261490645,
				"z": -0.119634588,
				"element": "C" 
			},
			{
				"x": -0.3416073056,
				"y": 0.139462052,
				"z": -0.456497941,
				"element": "O" 
			},
			{
				"x": -0.4775970785,
				"y": -1.2296806687,
				"z": -0.4494531223,
				"element": "C" 
			},
			{
				"x": -0.5261143816,
				"y": -1.9547480313,
				"z": 0.7614162887,
				"element": "C" 
			},
			{
				"x": -0.4621238015,
				"y": -1.6493207316,
				"z": 2.1559040848,
				"element": "C" 
			},
			{
				"x": -0.5790845202,
				"y": -2.7374137646,
				"z": 2.896464206,
				"element": "N" 
			},
			{
				"x": -0.7209305905,
				"y": -3.7671265425,
				"z": 2.0200771427,
				"element": "N" 
			},
			{
				"x": -0.7052761656,
				"y": -3.3605550826,
				"z": 0.7135723806,
				"element": "C" 
			},
			{
				"x": -0.8458803315,
				"y": -4.0665983245,
				"z": -0.4933266796,
				"element": "C" 
			},
			{
				"x": -0.8063333681,
				"y": -3.3186364382,
				"z": -1.659440581,
				"element": "C" 
			},
			{
				"x": -0.6201230479,
				"y": -1.9170103194,
				"z": -1.6445497013,
				"element": "C" 
			},
			{
				"x": 0.9837909724,
				"y": 2.1331029177,
				"z": -0.215613526,
				"element": "C" 
			},
			{
				"x": 0.1410680969,
				"y": 2.8143345409,
				"z": -1.1011708638,
				"element": "C" 
			},
			{
				"x": 0.2072842874,
				"y": 4.2042236985,
				"z": -1.2076106228,
				"element": "C" 
			},
			{
				"x": 1.1203301153,
				"y": 4.9278268116,
				"z": -0.4381266955,
				"element": "C" 
			},
			{
				"x": 1.9639714553,
				"y": 4.2535122789,
				"z": 0.4464971988,
				"element": "C" 
			},
			{
				"x": 1.8908395426,
				"y": 2.8647571996,
				"z": 0.5600513745,
				"element": "C" 
			},
			{
				"x": 1.2471427589,
				"y": 0.3052060502,
				"z": 0.8918313627,
				"element": "H" 
			},
			{
				"x": 1.6966067107,
				"y": 0.1861249788,
				"z": -0.8148036365,
				"element": "H" 
			},
			{
				"x": -0.3503432138,
				"y": -0.6851525386,
				"z": 2.6320721298,
				"element": "H" 
			},
			{
				"x": -0.8434889079,
				"y": -4.6990720883,
				"z": 2.3815405186,
				"element": "H" 
			},
			{
				"x": -0.9865609373,
				"y": -5.1423989041,
				"z": -0.5138144088,
				"element": "H" 
			},
			{
				"x": -0.9163263489,
				"y": -3.8201976352,
				"z": -2.6164627003,
				"element": "H" 
			},
			{
				"x": -0.5916465567,
				"y": -1.3564484066,
				"z": -2.5730205695,
				"element": "H" 
			},
			{
				"x": -0.5723775137,
				"y": 2.2497991109,
				"z": -1.6914480408,
				"element": "H" 
			},
			{
				"x": -0.4568311108,
				"y": 4.7229521231,
				"z": -1.8934430106,
				"element": "H" 
			},
			{
				"x": 1.1704761591,
				"y": 6.0096093107,
				"z": -0.5229138529,
				"element": "H" 
			},
			{
				"x": 2.6720169241,
				"y": 4.808265073,
				"z": 1.0556946708,
				"element": "H" 
			},
			{
				"x": 2.5425504516,
				"y": 2.3459342658,
				"z": 1.2596091829,
				"element": "H" 
			}
		],
		 "valence_orbital": [ 
			{
				"type": "occ",
				"energy": -0.27384,
				"method": "rhf"
			},
			{
				"type": "occ",
				"energy": -0.24774,
				"method": "rhf"
			},
			{
				"type": "occ",
				"energy": -0.24367,
				"method": "rhf"
			},
			{
				"type": "occ",
				"energy": -0.2401,
				"method": "rhf"
			},
			{
				"type": "occ",
				"energy": -0.21637,
				"method": "rhf"
			},
			{
				"type": "unocc",
				"energy": -0.0272,
				"method": "rhf"
			},
			{
				"type": "unocc",
				"energy": -0.00154,
				"method": "rhf"
			},
			{
				"type": "unocc",
				"energy": 0.00083,
				"method": "rhf"
			},
			{
				"type": "unocc",
				"energy": 0.01816,
				"method": "rhf"
			},
			{
				"type": "unocc",
				"energy": 0.05552,
				"method": "rhf"
			}
		],
		"cosmo_sigma_profile": { 
			"-0.025": 0.0,
			"-0.024": 0.0,
			"-0.023": 0.0,
			"-0.022": 0.0,
			"-0.021": 0.0,
			"-0.02": 0.0,
			"-0.019": 0.0,
			"-0.018": 0.0,
			"-0.017": 0.271729197909,
			"-0.016": 1.42502367255,
			"-0.015": 1.66056492849,
			"-0.014": 0.867553229548,
			"-0.013": 1.02831273944,
			"-0.012": 0.875278824297,
			"-0.011": 0.757341818981,
			"-0.01": 1.75523045155,
			"-0.009": 0.76126033208,
			"-0.008": 1.37438093082,
			"-0.007": 4.69343362528,
			"-0.006": 12.9412717799,
			"-0.005": 22.5404753847,
			"-0.004": 23.1166551199,
			"-0.003": 20.3038069105,
			"-0.002": 15.4664835447,
			"-0.001": 15.1137361322,
			"0.0": 14.7464393429,
			"0.001": 14.2363404045,
			"0.002": 18.2797060937,
			"0.003": 24.440243881,
			"0.004": 21.4297463668,
			"0.005": 20.4092828606,
			"0.006": 12.8667466324,
			"0.007": 3.26309440351,
			"0.008": 2.73168242325,
			"0.009": 2.414057671,
			"0.01": 2.40259252152,
			"0.011": 1.23027198142,
			"0.012": 1.22386113802,
			"0.013": 1.02779711909,
			"0.014": 1.15458079975,
			"0.015": 0.939264720327,
			"0.016": 0.120062271418,
			"0.017": 0.0,
			"0.018": 0.0,
			"0.019": 0.0,
			"0.02": 0.0,
			"0.021": 0.0,
			"0.022": 0.0,
			"0.023": 0.0,
			"0.024": 0.0,
			"0.025": 0.0
		}
	}
}
