{
	 "smiles": "NC1=CC(=CC=C1)C(=O)NCC1=NC=CC=C1", 
	 "Tm": 393.15, 
	 "num_atms": 30, 
	 "gaussian": { 
		 "optdone": 1, 
		 "sigma_profile": "yes", 
		 "theory": "DFT", 
		 "functional": "B3LYP", 
		 "basiset": "6-31G**", 
		 "properties": { 
			 "R2extent": 6962.9819, 
			 "electric_dipole_moment_norm": 2.43900651496, 
			 "electric_quadrupole_moment_norm": 21.4597699328, 
			 "total_energy": -742.717619575, 
			 "HOMO_LUMO_gap": 0.17848, 
			 "cosmo_polarized_energy": -17.85, 
			 "cosmo_cavitation_energy": 34.5, 
			 "cosmo_dispersion_energy": -25.02, 
			 "cosmo_repulsion_energy": 1.94, 
			 "cosmo_total_nonelectrostatic_energy": 11.42, 
			 "SMD_solvation_energy": 4.27 
		},
		"coords": [
			{
				"x": 2.723608569,
				"y": 6.1659426742,
				"z": -0.2615529267,
				"element": "N" 
			},
			{
				"x": 2.6689719125,
				"y": 4.9689883336,
				"z": 0.4497412067,
				"element": "C" 
			},
			{
				"x": 2.2509830422,
				"y": 3.7844243325,
				"z": -0.1746966126,
				"element": "C" 
			},
			{
				"x": 2.1503211029,
				"y": 2.5900389379,
				"z": 0.5416551656,
				"element": "C" 
			},
			{
				"x": 2.4450732787,
				"y": 2.5686336263,
				"z": 1.9130231727,
				"element": "C" 
			},
			{
				"x": 2.8544310935,
				"y": 3.7461245675,
				"z": 2.5395252036,
				"element": "C" 
			},
			{
				"x": 2.9750466411,
				"y": 4.9332938884,
				"z": 1.8226460198,
				"element": "C" 
			},
			{
				"x": 1.7029680896,
				"y": 1.3785251814,
				"z": -0.2310275676,
				"element": "C" 
			},
			{
				"x": 1.0969657289,
				"y": 1.4786024828,
				"z": -1.2991806107,
				"element": "O" 
			},
			{
				"x": 2.0276502717,
				"y": 0.164043232,
				"z": 0.3032983509,
				"element": "N" 
			},
			{
				"x": 1.646504088,
				"y": -1.0898121562,
				"z": -0.3396053809,
				"element": "C" 
			},
			{
				"x": 0.3327500248,
				"y": -1.6524864376,
				"z": 0.1757126614,
				"element": "C" 
			},
			{
				"x": 0.4129969585,
				"y": -2.7312253296,
				"z": 0.9687871787,
				"element": "N" 
			},
			{
				"x": -0.7309427363,
				"y": -3.2414409517,
				"z": 1.4460722022,
				"element": "C" 
			},
			{
				"x": -1.9895585059,
				"y": -2.7123380031,
				"z": 1.1656119242,
				"element": "C" 
			},
			{
				"x": -2.0641467127,
				"y": -1.5881959649,
				"z": 0.3407852294,
				"element": "C" 
			},
			{
				"x": -0.8857326579,
				"y": -1.0471810174,
				"z": -0.1649847928,
				"element": "C" 
			},
			{
				"x": 2.8035648877,
				"y": 6.0715254563,
				"z": -1.2641994841,
				"element": "H" 
			},
			{
				"x": 3.3479427552,
				"y": 6.8680265922,
				"z": 0.1096984931,
				"element": "H" 
			},
			{
				"x": 1.9898314717,
				"y": 3.7723053952,
				"z": -1.228472204,
				"element": "H" 
			},
			{
				"x": 2.3190655068,
				"y": 1.6664392831,
				"z": 2.5034766001,
				"element": "H" 
			},
			{
				"x": 3.0774760275,
				"y": 3.7418047819,
				"z": 3.602735125,
				"element": "H" 
			},
			{
				"x": 3.2932099337,
				"y": 5.8434810429,
				"z": 2.3251449309,
				"element": "H" 
			},
			{
				"x": 2.5538762542,
				"y": 0.1220340298,
				"z": 1.1613864939,
				"element": "H" 
			},
			{
				"x": 1.5772110684,
				"y": -0.885257786,
				"z": -1.4111223334,
				"element": "H" 
			},
			{
				"x": 2.4294418364,
				"y": -1.8303077148,
				"z": -0.1614210599,
				"element": "H" 
			},
			{
				"x": -0.6320350325,
				"y": -4.1181793386,
				"z": 2.0843194518,
				"element": "H" 
			},
			{
				"x": -2.882448765,
				"y": -3.1696307479,
				"z": 1.5804265843,
				"element": "H" 
			},
			{
				"x": -3.0245996969,
				"y": -1.1444584314,
				"z": 0.0937406977,
				"element": "H" 
			},
			{
				"x": -0.8853264357,
				"y": -0.1729199586,
				"z": -0.8082237193,
				"element": "H" 
			}
		],
		 "valence_orbital": [ 
			{
				"type": "occ",
				"energy": -0.25472,
				"method": "rhf"
			},
			{
				"type": "occ",
				"energy": -0.2519,
				"method": "rhf"
			},
			{
				"type": "occ",
				"energy": -0.24254,
				"method": "rhf"
			},
			{
				"type": "occ",
				"energy": -0.24155,
				"method": "rhf"
			},
			{
				"type": "occ",
				"energy": -0.20732,
				"method": "rhf"
			},
			{
				"type": "unocc",
				"energy": -0.02884,
				"method": "rhf"
			},
			{
				"type": "unocc",
				"energy": -0.01799,
				"method": "rhf"
			},
			{
				"type": "unocc",
				"energy": -0.00874,
				"method": "rhf"
			},
			{
				"type": "unocc",
				"energy": 0.00814,
				"method": "rhf"
			},
			{
				"type": "unocc",
				"energy": 0.06835,
				"method": "rhf"
			}
		],
		"cosmo_sigma_profile": { 
			"-0.025": 0.0,
			"-0.024": 0.0,
			"-0.023": 0.0,
			"-0.022": 0.0,
			"-0.021": 0.0,
			"-0.02": 0.0,
			"-0.019": 0.0,
			"-0.018": 0.0,
			"-0.017": 0.0,
			"-0.016": 0.0,
			"-0.015": 0.159316517165,
			"-0.014": 1.01851345134,
			"-0.013": 1.96172469028,
			"-0.012": 3.62152170313,
			"-0.011": 3.71334352383,
			"-0.01": 4.11244009073,
			"-0.009": 4.34400232903,
			"-0.008": 4.73073279556,
			"-0.007": 7.92210805074,
			"-0.006": 14.1116262733,
			"-0.005": 18.347074728,
			"-0.004": 18.9090672855,
			"-0.003": 17.0882459766,
			"-0.002": 14.9510459119,
			"-0.001": 12.3701984224,
			"0.0": 16.3019262495,
			"0.001": 19.6761142556,
			"0.002": 21.0742886348,
			"0.003": 22.3519418961,
			"0.004": 13.0303655995,
			"0.005": 15.6059008068,
			"0.006": 9.81992242267,
			"0.007": 4.66216371663,
			"0.008": 2.98495145788,
			"0.009": 2.49802440393,
			"0.01": 4.10019447479,
			"0.011": 2.6165694073,
			"0.012": 3.44934688724,
			"0.013": 4.00226313142,
			"0.014": 4.10132689589,
			"0.015": 1.05427351452,
			"0.016": 0.481790953508,
			"0.017": 0.0276309173615,
			"0.018": 0.0,
			"0.019": 0.0,
			"0.02": 0.0,
			"0.021": 0.0,
			"0.022": 0.0,
			"0.023": 0.0,
			"0.024": 0.0,
			"0.025": 0.0
		}
	}
}
