{
	 "smiles": "COC1=CC=C(C=C1)C(=O)C=CC1=CC=CC=C1", 
	 "Tm": 375.15, 
	 "num_atms": 32, 
	 "gaussian": { 
		 "optdone": 1, 
		 "sigma_profile": "yes", 
		 "theory": "DFT", 
		 "functional": "B3LYP", 
		 "basiset": "6-31G**", 
		 "properties": { 
			 "R2extent": 8313.3061, 
			 "electric_dipole_moment_norm": 4.41865906696, 
			 "electric_quadrupole_moment_norm": 18.0191921525, 
			 "total_energy": -768.568589398, 
			 "HOMO_LUMO_gap": 0.15291, 
			 "cosmo_polarized_energy": -13.4, 
			 "cosmo_cavitation_energy": 36.87, 
			 "cosmo_dispersion_energy": -26.8, 
			 "cosmo_repulsion_energy": 2.03, 
			 "cosmo_total_nonelectrostatic_energy": 12.09, 
			 "SMD_solvation_energy": 7.51 
		},
		"coords": [
			{
				"x": -2.1193616656,
				"y": 4.2706825927,
				"z": 3.2121281793,
				"element": "C" 
			},
			{
				"x": -2.522553011,
				"y": 4.1686974179,
				"z": 1.853857977,
				"element": "O" 
			},
			{
				"x": -1.9622279548,
				"y": 3.2011612874,
				"z": 1.0807329993,
				"element": "C" 
			},
			{
				"x": -1.0033748427,
				"y": 2.2819397078,
				"z": 1.5255235775,
				"element": "C" 
			},
			{
				"x": -0.5014067429,
				"y": 1.3273650706,
				"z": 0.639800895,
				"element": "C" 
			},
			{
				"x": -0.9321728263,
				"y": 1.2669744366,
				"z": -0.692107514,
				"element": "C" 
			},
			{
				"x": -1.8920791504,
				"y": 2.2066969931,
				"z": -1.1197166113,
				"element": "C" 
			},
			{
				"x": -2.4034686387,
				"y": 3.1557364109,
				"z": -0.2541130515,
				"element": "C" 
			},
			{
				"x": -0.4325343151,
				"y": 0.2804567679,
				"z": -1.6984885056,
				"element": "C" 
			},
			{
				"x": -0.7860855893,
				"y": 0.3705364995,
				"z": -2.8749788883,
				"element": "O" 
			},
			{
				"x": 0.4814027042,
				"y": -0.8073852895,
				"z": -1.2626579673,
				"element": "C" 
			},
			{
				"x": 0.9724820134,
				"y": -1.6763332241,
				"z": -2.1683596633,
				"element": "C" 
			},
			{
				"x": 1.8693952474,
				"y": -2.8086286506,
				"z": -1.9392332482,
				"element": "C" 
			},
			{
				"x": 2.2621256082,
				"y": -3.5885961907,
				"z": -3.0431473669,
				"element": "C" 
			},
			{
				"x": 3.1143342645,
				"y": -4.6800921007,
				"z": -2.8879248076,
				"element": "C" 
			},
			{
				"x": 3.5934489224,
				"y": -5.0159792525,
				"z": -1.6210181438,
				"element": "C" 
			},
			{
				"x": 3.2135780527,
				"y": -4.252054014,
				"z": -0.5121070967,
				"element": "C" 
			},
			{
				"x": 2.3630419864,
				"y": -3.1628415687,
				"z": -0.6676935098,
				"element": "C" 
			},
			{
				"x": -2.3489616929,
				"y": 3.3547477841,
				"z": 3.7709308116,
				"element": "H" 
			},
			{
				"x": -1.0471912898,
				"y": 4.4867496169,
				"z": 3.2995439062,
				"element": "H" 
			},
			{
				"x": -2.6886809276,
				"y": 5.1006286846,
				"z": 3.632764997,
				"element": "H" 
			},
			{
				"x": -0.6433944631,
				"y": 2.3009299201,
				"z": 2.5471342947,
				"element": "H" 
			},
			{
				"x": 0.2470940069,
				"y": 0.6365620109,
				"z": 1.0122190646,
				"element": "H" 
			},
			{
				"x": -2.2184508961,
				"y": 2.1619038195,
				"z": -2.1530526364,
				"element": "H" 
			},
			{
				"x": -3.1454909281,
				"y": 3.8784863164,
				"z": -0.5774446813,
				"element": "H" 
			},
			{
				"x": 0.7322362604,
				"y": -0.8961241407,
				"z": -0.2117381992,
				"element": "H" 
			},
			{
				"x": 0.6598056704,
				"y": -1.5127957581,
				"z": -3.1987848461,
				"element": "H" 
			},
			{
				"x": 1.8894502373,
				"y": -3.3281450199,
				"z": -4.0302662994,
				"element": "H" 
			},
			{
				"x": 3.4037416278,
				"y": -5.2674867023,
				"z": -3.7544439576,
				"element": "H" 
			},
			{
				"x": 4.2578710354,
				"y": -5.8659158735,
				"z": -1.4953468963,
				"element": "H" 
			},
			{
				"x": 3.5835527586,
				"y": -4.5094754627,
				"z": 0.4762566057,
				"element": "H" 
			},
			{
				"x": 2.0784745382,
				"y": -2.5814020891,
				"z": 0.2038305825,
				"element": "H" 
			}
		],
		 "valence_orbital": [ 
			{
				"type": "occ",
				"energy": -0.25792,
				"method": "rhf"
			},
			{
				"type": "occ",
				"energy": -0.25697,
				"method": "rhf"
			},
			{
				"type": "occ",
				"energy": -0.23958,
				"method": "rhf"
			},
			{
				"type": "occ",
				"energy": -0.23054,
				"method": "rhf"
			},
			{
				"type": "occ",
				"energy": -0.22438,
				"method": "rhf"
			},
			{
				"type": "unocc",
				"energy": -0.07147,
				"method": "rhf"
			},
			{
				"type": "unocc",
				"energy": -0.0175,
				"method": "rhf"
			},
			{
				"type": "unocc",
				"energy": -0.0065,
				"method": "rhf"
			},
			{
				"type": "unocc",
				"energy": -0.00375,
				"method": "rhf"
			},
			{
				"type": "unocc",
				"energy": 0.04028,
				"method": "rhf"
			}
		],
		"cosmo_sigma_profile": { 
			"-0.025": 0.0,
			"-0.024": 0.0,
			"-0.023": 0.0,
			"-0.022": 0.0,
			"-0.021": 0.0,
			"-0.02": 0.0,
			"-0.019": 0.0,
			"-0.018": 0.0,
			"-0.017": 0.0,
			"-0.016": 0.0,
			"-0.015": 0.0,
			"-0.014": 0.0,
			"-0.013": 0.0,
			"-0.012": 0.0,
			"-0.011": 0.0,
			"-0.01": 0.0548244691534,
			"-0.009": 1.28482613167,
			"-0.008": 3.10019079977,
			"-0.007": 6.48557583575,
			"-0.006": 23.0205939465,
			"-0.005": 25.4101616019,
			"-0.004": 27.5140603977,
			"-0.003": 20.9310269041,
			"-0.002": 15.9544390515,
			"-0.001": 16.4814082698,
			"0.0": 17.2305310532,
			"0.001": 18.2014543652,
			"0.002": 24.8777136593,
			"0.003": 29.0600319401,
			"0.004": 28.9997319732,
			"0.005": 12.9822932385,
			"0.006": 3.03945378378,
			"0.007": 3.13604429793,
			"0.008": 3.6151742394,
			"0.009": 2.69411151583,
			"0.01": 2.17090129135,
			"0.011": 2.37455685167,
			"0.012": 2.70047597888,
			"0.013": 4.04167944358,
			"0.014": 0.308588633336,
			"0.015": 0.0,
			"0.016": 0.0,
			"0.017": 0.0,
			"0.018": 0.0,
			"0.019": 0.0,
			"0.02": 0.0,
			"0.021": 0.0,
			"0.022": 0.0,
			"0.023": 0.0,
			"0.024": 0.0,
			"0.025": 0.0
		}
	}
}
