{
	 "smiles": "CC(N)C1=CC=C(NC(N)=O)C=C1", 
	 "Tm": 406.15, 
	 "num_atms": 26, 
	 "gaussian": { 
		 "optdone": 1, 
		 "sigma_profile": "yes", 
		 "theory": "DFT", 
		 "functional": "B3LYP", 
		 "basiset": "6-31G**", 
		 "properties": { 
			 "R2extent": 3844.3668, 
			 "electric_dipole_moment_norm": 4.55547365814, 
			 "electric_quadrupole_moment_norm": 17.2813821803, 
			 "total_energy": -590.300067644, 
			 "HOMO_LUMO_gap": 0.20724, 
			 "cosmo_polarized_energy": -16.63, 
			 "cosmo_cavitation_energy": 29.11, 
			 "cosmo_dispersion_energy": -21.4, 
			 "cosmo_repulsion_energy": 1.72, 
			 "cosmo_total_nonelectrostatic_energy": 9.43, 
			 "SMD_solvation_energy": 5.19 
		},
		"coords": [
			{
				"x": -1.2696871681,
				"y": 2.2918669215,
				"z": -2.3440336738,
				"element": "C" 
			},
			{
				"x": -0.9861957218,
				"y": 2.0692884741,
				"z": -0.8490736504,
				"element": "C" 
			},
			{
				"x": -0.2142055474,
				"y": 3.1608143682,
				"z": -0.229204792,
				"element": "N" 
			},
			{
				"x": -0.3031206827,
				"y": 0.7380749842,
				"z": -0.5359193932,
				"element": "C" 
			},
			{
				"x": -0.2257812955,
				"y": -0.3167921681,
				"z": -1.4511789744,
				"element": "C" 
			},
			{
				"x": 0.3859186069,
				"y": -1.5300434955,
				"z": -1.1260346685,
				"element": "C" 
			},
			{
				"x": 0.9193208159,
				"y": -1.7304499902,
				"z": 0.1547739909,
				"element": "C" 
			},
			{
				"x": 1.5657868301,
				"y": -2.9227980682,
				"z": 0.5383064182,
				"element": "N" 
			},
			{
				"x": 1.3143075015,
				"y": -4.2521549402,
				"z": 0.2169159697,
				"element": "C" 
			},
			{
				"x": 0.2314911395,
				"y": -4.4958779134,
				"z": -0.6074709756,
				"element": "N" 
			},
			{
				"x": 2.0402957522,
				"y": -5.1419109128,
				"z": 0.6390210004,
				"element": "O" 
			},
			{
				"x": 0.852628778,
				"y": -0.6740329325,
				"z": 1.0788685944,
				"element": "C" 
			},
			{
				"x": 0.261507602,
				"y": 0.5351706519,
				"z": 0.7343577512,
				"element": "C" 
			},
			{
				"x": -0.3441303662,
				"y": 2.2655596829,
				"z": -2.9308975332,
				"element": "H" 
			},
			{
				"x": -1.7337511836,
				"y": 3.2731836874,
				"z": -2.4886296514,
				"element": "H" 
			},
			{
				"x": -1.9559726631,
				"y": 1.5443907454,
				"z": -2.7559641152,
				"element": "H" 
			},
			{
				"x": -1.9576608762,
				"y": 2.0661516571,
				"z": -0.3312393016,
				"element": "H" 
			},
			{
				"x": -0.6973827031,
				"y": 4.044501435,
				"z": -0.3755891162,
				"element": "H" 
			},
			{
				"x": 0.6883825108,
				"y": 3.2424886514,
				"z": -0.6949250704,
				"element": "H" 
			},
			{
				"x": -0.6258622585,
				"y": -0.2023844214,
				"z": -2.4530754964,
				"element": "H" 
			},
			{
				"x": 0.4763263559,
				"y": -2.3059977671,
				"z": -1.8777136712,
				"element": "H" 
			},
			{
				"x": 2.2865126986,
				"y": -2.8512416741,
				"z": 1.2425772635,
				"element": "H" 
			},
			{
				"x": -0.0214597587,
				"y": -5.4731711609,
				"z": -0.6268473452,
				"element": "H" 
			},
			{
				"x": -0.5399612594,
				"y": -3.8431553626,
				"z": -0.5993772733,
				"element": "H" 
			},
			{
				"x": 1.2658219038,
				"y": -0.8118766547,
				"z": 2.0750756476,
				"element": "H" 
			},
			{
				"x": 0.2309709892,
				"y": 1.3481962028,
				"z": 1.4517780662,
				"element": "H" 
			}
		],
		 "valence_orbital": [ 
			{
				"type": "occ",
				"energy": -0.26997,
				"method": "rhf"
			},
			{
				"type": "occ",
				"energy": -0.25503,
				"method": "rhf"
			},
			{
				"type": "occ",
				"energy": -0.25231,
				"method": "rhf"
			},
			{
				"type": "occ",
				"energy": -0.24229,
				"method": "rhf"
			},
			{
				"type": "occ",
				"energy": -0.21434,
				"method": "rhf"
			},
			{
				"type": "unocc",
				"energy": -0.0071,
				"method": "rhf"
			},
			{
				"type": "unocc",
				"energy": -0.00669,
				"method": "rhf"
			},
			{
				"type": "unocc",
				"energy": 0.06474,
				"method": "rhf"
			},
			{
				"type": "unocc",
				"energy": 0.08088,
				"method": "rhf"
			},
			{
				"type": "unocc",
				"energy": 0.09233,
				"method": "rhf"
			}
		],
		"cosmo_sigma_profile": { 
			"-0.025": 0.0,
			"-0.024": 0.0,
			"-0.023": 0.0,
			"-0.022": 0.0,
			"-0.021": 0.0,
			"-0.02": 0.0,
			"-0.019": 0.0,
			"-0.018": 0.0,
			"-0.017": 0.0,
			"-0.016": 0.0,
			"-0.015": 0.0,
			"-0.014": 0.680603371465,
			"-0.013": 2.10082633284,
			"-0.012": 3.86734050121,
			"-0.011": 2.37196448669,
			"-0.01": 3.56385059961,
			"-0.009": 5.62109949264,
			"-0.008": 6.03313834184,
			"-0.007": 6.42981440079,
			"-0.006": 6.89460145265,
			"-0.005": 10.5807146171,
			"-0.004": 14.7587420388,
			"-0.003": 20.8139767386,
			"-0.002": 15.9512563572,
			"-0.001": 17.2321381313,
			"0.0": 15.0042463107,
			"0.001": 15.1784153498,
			"0.002": 11.646273216,
			"0.003": 11.3449788008,
			"0.004": 11.4608549347,
			"0.005": 10.5369297946,
			"0.006": 7.7148556524,
			"0.007": 3.03243697895,
			"0.008": 2.6836534936,
			"0.009": 2.28370287479,
			"0.01": 2.46352815206,
			"0.011": 2.05760400483,
			"0.012": 2.42185157852,
			"0.013": 2.78665681384,
			"0.014": 7.37818368131,
			"0.015": 2.94718178157,
			"0.016": 0.533747616082,
			"0.017": 0.124694705645,
			"0.018": 0.0,
			"0.019": 0.0,
			"0.02": 0.0,
			"0.021": 0.0,
			"0.022": 0.0,
			"0.023": 0.0,
			"0.024": 0.0,
			"0.025": 0.0
		}
	}
}
