{
	 "smiles": "CCOC(=O)COC1=C(C=CC=C1)C(O)=O", 
	 "Tm": 374.15, 
	 "num_atms": 28, 
	 "gaussian": { 
		 "optdone": 1, 
		 "sigma_profile": "yes", 
		 "theory": "DFT", 
		 "functional": "B3LYP", 
		 "basiset": "6-31G**", 
		 "properties": { 
			 "R2extent": 4340.5216, 
			 "electric_dipole_moment_norm": 5.17270169254, 
			 "electric_quadrupole_moment_norm": 30.5387621452, 
			 "total_energy": -802.534836758, 
			 "HOMO_LUMO_gap": 0.20041, 
			 "cosmo_polarized_energy": -17.34, 
			 "cosmo_cavitation_energy": 32.59, 
			 "cosmo_dispersion_energy": -22.86, 
			 "cosmo_repulsion_energy": 1.82, 
			 "cosmo_total_nonelectrostatic_energy": 11.55, 
			 "SMD_solvation_energy": 8.09 
		},
		"coords": [
			{
				"x": 2.4212717546,
				"y": 2.328795823,
				"z": -2.9309357422,
				"element": "C" 
			},
			{
				"x": 2.1601898968,
				"y": 1.8554858068,
				"z": -1.510393595,
				"element": "C" 
			},
			{
				"x": 0.891226003,
				"y": 1.1493167606,
				"z": -1.4195512656,
				"element": "O" 
			},
			{
				"x": 0.9108173917,
				"y": -0.1591424045,
				"z": -1.6934242354,
				"element": "C" 
			},
			{
				"x": 1.8808016125,
				"y": -0.8042417586,
				"z": -2.0280237673,
				"element": "O" 
			},
			{
				"x": -0.4799930925,
				"y": -0.7872808234,
				"z": -1.5913204234,
				"element": "C" 
			},
			{
				"x": -1.3857697784,
				"y": -0.1115663879,
				"z": -0.7335730673,
				"element": "O" 
			},
			{
				"x": -1.202434438,
				"y": -0.1544833963,
				"z": 0.6347413577,
				"element": "C" 
			},
			{
				"x": -2.1136313885,
				"y": 0.5817439455,
				"z": 1.4230578598,
				"element": "C" 
			},
			{
				"x": -1.9700151134,
				"y": 0.5318239725,
				"z": 2.8156031076,
				"element": "C" 
			},
			{
				"x": -0.9606194224,
				"y": -0.2096897546,
				"z": 3.421529963,
				"element": "C" 
			},
			{
				"x": -0.0651712555,
				"y": -0.9204971545,
				"z": 2.6237728974,
				"element": "C" 
			},
			{
				"x": -0.1806247636,
				"y": -0.8970208269,
				"z": 1.2330812626,
				"element": "C" 
			},
			{
				"x": -3.2436336487,
				"y": 1.4406435137,
				"z": 0.9050929873,
				"element": "C" 
			},
			{
				"x": -3.375801614,
				"y": 1.5782985074,
				"z": -0.4271777412,
				"element": "O" 
			},
			{
				"x": -4.0083603804,
				"y": 2.0026838301,
				"z": 1.6591014043,
				"element": "O" 
			},
			{
				"x": 1.5991371476,
				"y": 2.9533207972,
				"z": -3.2918444159,
				"element": "H" 
			},
			{
				"x": 2.5462790501,
				"y": 1.4780716247,
				"z": -3.6054245932,
				"element": "H" 
			},
			{
				"x": 3.3403212551,
				"y": 2.9232626345,
				"z": -2.956719116,
				"element": "H" 
			},
			{
				"x": 2.0483809528,
				"y": 2.6920811149,
				"z": -0.818059715,
				"element": "H" 
			},
			{
				"x": 2.9528681752,
				"y": 1.1914601587,
				"z": -1.1585774917,
				"element": "H" 
			},
			{
				"x": -0.939609515,
				"y": -0.7501061493,
				"z": -2.5834442312,
				"element": "H" 
			},
			{
				"x": -0.3632346383,
				"y": -1.8384907439,
				"z": -1.3130538863,
				"element": "H" 
			},
			{
				"x": -2.6837607886,
				"y": 1.1015441114,
				"z": 3.4004623271,
				"element": "H" 
			},
			{
				"x": -0.8708618237,
				"y": -0.2300124199,
				"z": 4.5027380559,
				"element": "H" 
			},
			{
				"x": 0.733435431,
				"y": -1.5007908452,
				"z": 3.0765397408,
				"element": "H" 
			},
			{
				"x": 0.5303566911,
				"y": -1.4531510461,
				"z": 0.633942857,
				"element": "H" 
			},
			{
				"x": -2.6851637005,
				"y": 1.0609411102,
				"z": -0.8803405338,
				"element": "H" 
			}
		],
		 "valence_orbital": [ 
			{
				"type": "occ",
				"energy": -0.30016,
				"method": "rhf"
			},
			{
				"type": "occ",
				"energy": -0.29499,
				"method": "rhf"
			},
			{
				"type": "occ",
				"energy": -0.26706,
				"method": "rhf"
			},
			{
				"type": "occ",
				"energy": -0.26222,
				"method": "rhf"
			},
			{
				"type": "occ",
				"energy": -0.24763,
				"method": "rhf"
			},
			{
				"type": "unocc",
				"energy": -0.04722,
				"method": "rhf"
			},
			{
				"type": "unocc",
				"energy": -0.01705,
				"method": "rhf"
			},
			{
				"type": "unocc",
				"energy": -0.00856,
				"method": "rhf"
			},
			{
				"type": "unocc",
				"energy": 0.05888,
				"method": "rhf"
			},
			{
				"type": "unocc",
				"energy": 0.07166,
				"method": "rhf"
			}
		],
		"cosmo_sigma_profile": { 
			"-0.025": 0.0,
			"-0.024": 0.0,
			"-0.023": 0.0,
			"-0.022": 0.0,
			"-0.021": 0.0,
			"-0.02": 0.0,
			"-0.019": 0.0,
			"-0.018": 0.0,
			"-0.017": 0.0,
			"-0.016": 0.0,
			"-0.015": 0.0,
			"-0.014": 0.0,
			"-0.013": 0.0,
			"-0.012": 0.0,
			"-0.011": 0.095318124821,
			"-0.01": 2.77612200132,
			"-0.009": 5.63899659354,
			"-0.008": 6.10913481366,
			"-0.007": 9.16384911252,
			"-0.006": 13.9057685727,
			"-0.005": 18.465701755,
			"-0.004": 24.9062767804,
			"-0.003": 20.3830189953,
			"-0.002": 18.2380766378,
			"-0.001": 18.0253943121,
			"0.0": 18.0123746683,
			"0.001": 15.0693061067,
			"0.002": 15.1311482919,
			"0.003": 15.6503569729,
			"0.004": 8.52181776851,
			"0.005": 5.26116779652,
			"0.006": 4.85574668347,
			"0.007": 4.64514208513,
			"0.008": 3.85303288217,
			"0.009": 4.23600998453,
			"0.01": 5.50141242881,
			"0.011": 9.69836961619,
			"0.012": 7.75300155874,
			"0.013": 2.84803013232,
			"0.014": 0.668809032739,
			"0.015": 0.0,
			"0.016": 0.0,
			"0.017": 0.0,
			"0.018": 0.0,
			"0.019": 0.0,
			"0.02": 0.0,
			"0.021": 0.0,
			"0.022": 0.0,
			"0.023": 0.0,
			"0.024": 0.0,
			"0.025": 0.0
		}
	}
}
