{
	 "smiles": "CC(C)=C1C(=O)NN(C1=O)C1=CC=CC=C1", 
	 "Tm": 439.15, 
	 "num_atms": 28, 
	 "gaussian": { 
		 "optdone": 1, 
		 "sigma_profile": "yes", 
		 "theory": "DFT", 
		 "functional": "B3LYP", 
		 "basiset": "6-31G**", 
		 "properties": { 
			 "R2extent": 5373.9024, 
			 "electric_dipole_moment_norm": 0.396817098926, 
			 "electric_quadrupole_moment_norm": 16.6210032011, 
			 "total_energy": -724.447046581, 
			 "HOMO_LUMO_gap": 0.13989, 
			 "cosmo_polarized_energy": -13.41, 
			 "cosmo_cavitation_energy": 31.57, 
			 "cosmo_dispersion_energy": -23.33, 
			 "cosmo_repulsion_energy": 1.78, 
			 "cosmo_total_nonelectrostatic_energy": 10.03, 
			 "SMD_solvation_energy": 6.91 
		},
		"coords": [
			{
				"x": -1.102497707,
				"y": -2.7702949504,
				"z": 2.8749416426,
				"element": "C" 
			},
			{
				"x": -0.9041908558,
				"y": -1.7109835365,
				"z": 1.8272172339,
				"element": "C" 
			},
			{
				"x": -2.1629939222,
				"y": -1.0558726795,
				"z": 1.3333815837,
				"element": "C" 
			},
			{
				"x": 0.3295092367,
				"y": -1.3705540889,
				"z": 1.3668627502,
				"element": "C" 
			},
			{
				"x": 1.6229198277,
				"y": -1.9776008227,
				"z": 1.7708231485,
				"element": "C" 
			},
			{
				"x": 1.8789483581,
				"y": -2.957024927,
				"z": 2.4533307603,
				"element": "O" 
			},
			{
				"x": 2.6232350499,
				"y": -1.206234431,
				"z": 1.1638180135,
				"element": "N" 
			},
			{
				"x": 2.0362694706,
				"y": -0.3249577533,
				"z": 0.2182677828,
				"element": "N" 
			},
			{
				"x": 0.6458876295,
				"y": -0.324065355,
				"z": 0.3528473585,
				"element": "C" 
			},
			{
				"x": -0.1018395588,
				"y": 0.4278479227,
				"z": -0.259713142,
				"element": "O" 
			},
			{
				"x": 2.8442817875,
				"y": 0.6942089815,
				"z": -0.3424818134,
				"element": "C" 
			},
			{
				"x": 4.1264602394,
				"y": 0.9346221516,
				"z": 0.1739288317,
				"element": "C" 
			},
			{
				"x": 4.9337590238,
				"y": 1.9139815251,
				"z": -0.4039498777,
				"element": "C" 
			},
			{
				"x": 4.4780249585,
				"y": 2.6609257485,
				"z": -1.4898300727,
				"element": "C" 
			},
			{
				"x": 3.1991300847,
				"y": 2.4179916799,
				"z": -1.9960193093,
				"element": "C" 
			},
			{
				"x": 2.3799390404,
				"y": 1.4382954721,
				"z": -1.4398628947,
				"element": "C" 
			},
			{
				"x": -1.6510584662,
				"y": -2.3440306451,
				"z": 3.7244197262,
				"element": "H" 
			},
			{
				"x": -0.1663905809,
				"y": -3.2056733446,
				"z": 3.2174869881,
				"element": "H" 
			},
			{
				"x": -1.7412673417,
				"y": -3.5652542999,
				"z": 2.4685316474,
				"element": "H" 
			},
			{
				"x": -2.698676808,
				"y": -0.6131047858,
				"z": 2.1829106716,
				"element": "H" 
			},
			{
				"x": -2.8309720523,
				"y": -1.8223149177,
				"z": 0.9194383879,
				"element": "H" 
			},
			{
				"x": -1.9727973905,
				"y": -0.2920876758,
				"z": 0.5829441054,
				"element": "H" 
			},
			{
				"x": 3.4085720894,
				"y": -1.7354173137,
				"z": 0.7945191676,
				"element": "H" 
			},
			{
				"x": 4.4779962221,
				"y": 0.3787969962,
				"z": 1.0352888748,
				"element": "H" 
			},
			{
				"x": 5.9230363873,
				"y": 2.0936902957,
				"z": 0.006972852,
				"element": "H" 
			},
			{
				"x": 5.110233707,
				"y": 3.422024756,
				"z": -1.9366786475,
				"element": "H" 
			},
			{
				"x": 2.8310235465,
				"y": 2.9922563504,
				"z": -2.8413295307,
				"element": "H" 
			},
			{
				"x": 1.3888580242,
				"y": 1.2539296472,
				"z": -1.8296662388,
				"element": "H" 
			}
		],
		 "valence_orbital": [ 
			{
				"type": "occ",
				"energy": -0.27716,
				"method": "rhf"
			},
			{
				"type": "occ",
				"energy": -0.27348,
				"method": "rhf"
			},
			{
				"type": "occ",
				"energy": -0.25639,
				"method": "rhf"
			},
			{
				"type": "occ",
				"energy": -0.25208,
				"method": "rhf"
			},
			{
				"type": "occ",
				"energy": -0.21446,
				"method": "rhf"
			},
			{
				"type": "unocc",
				"energy": -0.07457,
				"method": "rhf"
			},
			{
				"type": "unocc",
				"energy": -0.00937,
				"method": "rhf"
			},
			{
				"type": "unocc",
				"energy": -0.00445,
				"method": "rhf"
			},
			{
				"type": "unocc",
				"energy": 0.02924,
				"method": "rhf"
			},
			{
				"type": "unocc",
				"energy": 0.08106,
				"method": "rhf"
			}
		],
		"cosmo_sigma_profile": { 
			"-0.025": 0.0,
			"-0.024": 0.0,
			"-0.023": 0.0,
			"-0.022": 0.0,
			"-0.021": 0.0,
			"-0.02": 0.0,
			"-0.019": 0.0,
			"-0.018": 0.0,
			"-0.017": 0.0,
			"-0.016": 0.643529473759,
			"-0.015": 1.07633666941,
			"-0.014": 1.31803110113,
			"-0.013": 0.794975648749,
			"-0.012": 1.48104372748,
			"-0.011": 0.945631060511,
			"-0.01": 1.11210684368,
			"-0.009": 1.02455972361,
			"-0.008": 1.1570773434,
			"-0.007": 2.03135398796,
			"-0.006": 15.9589443633,
			"-0.005": 18.9251176994,
			"-0.004": 20.2581558831,
			"-0.003": 18.7538136634,
			"-0.002": 20.741810482,
			"-0.001": 23.4205649627,
			"0.0": 21.812733941,
			"0.001": 13.0791312857,
			"0.002": 13.0493901901,
			"0.003": 13.0280354502,
			"0.004": 13.3022140044,
			"0.005": 14.4239278374,
			"0.006": 7.16848736444,
			"0.007": 3.33219779051,
			"0.008": 2.91631842131,
			"0.009": 3.25958863424,
			"0.01": 3.80535520142,
			"0.011": 5.33505548803,
			"0.012": 6.5275037456,
			"0.013": 1.54403668352,
			"0.014": 0.0590411665717,
			"0.015": 0.0,
			"0.016": 0.0,
			"0.017": 0.0,
			"0.018": 0.0,
			"0.019": 0.0,
			"0.02": 0.0,
			"0.021": 0.0,
			"0.022": 0.0,
			"0.023": 0.0,
			"0.024": 0.0,
			"0.025": 0.0
		}
	}
}
