{
	 "smiles": "CCOC1=C(C=CC=C1)N1N=NN=C1SCC(O)=O", 
	 "Tm": 419.15, 
	 "num_atms": 31, 
	 "gaussian": { 
		 "optdone": 1, 
		 "sigma_profile": "no", 
		 "theory": "DFT", 
		 "functional": "B3LYP", 
		 "basiset": "6-31G**", 
		 "properties": { 
			 "R2extent": 6353.5816, 
			 "electric_dipole_moment_norm": 4.95981253376, 
			 "electric_quadrupole_moment_norm": 27.1275943511, 
			 "total_energy": -1269.21071276, 
			 "HOMO_LUMO_gap": 0.20073, 
			 "cosmo_polarized_energy": -24.74, 
			 "cosmo_cavitation_energy": 38.1, 
			 "cosmo_dispersion_energy": -26.57, 
			 "cosmo_repulsion_energy": 2.05, 
			 "cosmo_total_nonelectrostatic_energy": 13.59, 
			 "SMD_solvation_energy": 6.37 
		},
		"coords": [
			{
				"x": 2.3982251794,
				"y": 0.4038386351,
				"z": 1.6732280816,
				"element": "C" 
			},
			{
				"x": 2.4714420345,
				"y": 0.0153172185,
				"z": 0.2081586643,
				"element": "C" 
			},
			{
				"x": 1.2609979963,
				"y": -0.6832497556,
				"z": -0.1139685222,
				"element": "O" 
			},
			{
				"x": 1.0845223133,
				"y": -1.1553150552,
				"z": -1.373043429,
				"element": "C" 
			},
			{
				"x": -0.1339722571,
				"y": -1.8188218021,
				"z": -1.6241050287,
				"element": "C" 
			},
			{
				"x": -0.3993836459,
				"y": -2.373332508,
				"z": -2.8747211557,
				"element": "C" 
			},
			{
				"x": 0.536261483,
				"y": -2.2629175826,
				"z": -3.9022498595,
				"element": "C" 
			},
			{
				"x": 1.7328960412,
				"y": -1.5874068136,
				"z": -3.6672071639,
				"element": "C" 
			},
			{
				"x": 2.0110019988,
				"y": -1.0341016392,
				"z": -2.4158134526,
				"element": "C" 
			},
			{
				"x": -1.0945224394,
				"y": -1.9738797837,
				"z": -0.5830071534,
				"element": "N" 
			},
			{
				"x": -1.5993408423,
				"y": -3.2127114041,
				"z": -0.2833733167,
				"element": "N" 
			},
			{
				"x": -2.5038444931,
				"y": -3.0338276028,
				"z": 0.6131012558,
				"element": "N" 
			},
			{
				"x": -2.627833073,
				"y": -1.7203394231,
				"z": 0.943546006,
				"element": "N" 
			},
			{
				"x": -1.7506658829,
				"y": -1.0711927737,
				"z": 0.1940020767,
				"element": "C" 
			},
			{
				"x": -1.4896718461,
				"y": 0.6657714896,
				"z": 0.1651854211,
				"element": "S" 
			},
			{
				"x": -3.1069446841,
				"y": 1.1413780429,
				"z": 0.8878989992,
				"element": "C" 
			},
			{
				"x": -3.1219628424,
				"y": 2.6400318858,
				"z": 1.084850794,
				"element": "C" 
			},
			{
				"x": -4.2985182261,
				"y": 3.0408802076,
				"z": 1.6103806934,
				"element": "O" 
			},
			{
				"x": -2.2172355825,
				"y": 3.3978380186,
				"z": 0.8153003167,
				"element": "O" 
			},
			{
				"x": 3.3098094646,
				"y": 0.936531793,
				"z": 1.96082938,
				"element": "H" 
			},
			{
				"x": 1.5397674616,
				"y": 1.0548070949,
				"z": 1.8565074027,
				"element": "H" 
			},
			{
				"x": 2.3015336953,
				"y": -0.4845798295,
				"z": 2.3031158192,
				"element": "H" 
			},
			{
				"x": 3.3314116921,
				"y": -0.6397375284,
				"z": 0.0148657282,
				"element": "H" 
			},
			{
				"x": 2.5636416036,
				"y": 0.9016390884,
				"z": -0.4332527919,
				"element": "H" 
			},
			{
				"x": -1.3400985821,
				"y": -2.8921313465,
				"z": -3.0222729322,
				"element": "H" 
			},
			{
				"x": 0.3271734159,
				"y": -2.694657024,
				"z": -4.8751198165,
				"element": "H" 
			},
			{
				"x": 2.4659542733,
				"y": -1.486837556,
				"z": -4.462066497,
				"element": "H" 
			},
			{
				"x": 2.9500330154,
				"y": -0.5200340383,
				"z": -2.2530379646,
				"element": "H" 
			},
			{
				"x": -3.2553028392,
				"y": 0.6300709225,
				"z": 1.8416809017,
				"element": "H" 
			},
			{
				"x": -3.9292670527,
				"y": 0.8439698795,
				"z": 0.2317804698,
				"element": "H" 
			},
			{
				"x": -4.2412073796,
				"y": 4.00629919,
				"z": 1.7105070736,
				"element": "H" 
			}
		],
		 "valence_orbital": [ 
			{
				"type": "occ",
				"energy": -0.28783,
				"method": "rhf"
			},
			{
				"type": "occ",
				"energy": -0.28422,
				"method": "rhf"
			},
			{
				"type": "occ",
				"energy": -0.26392,
				"method": "rhf"
			},
			{
				"type": "occ",
				"energy": -0.24195,
				"method": "rhf"
			},
			{
				"type": "occ",
				"energy": -0.2369,
				"method": "rhf"
			},
			{
				"type": "unocc",
				"energy": -0.03617,
				"method": "rhf"
			},
			{
				"type": "unocc",
				"energy": -0.00987,
				"method": "rhf"
			},
			{
				"type": "unocc",
				"energy": -0.00725,
				"method": "rhf"
			},
			{
				"type": "unocc",
				"energy": 0.00361,
				"method": "rhf"
			},
			{
				"type": "unocc",
				"energy": 0.01204,
				"method": "rhf"
			}
		],
		"cosmo_sigma_profile": { 
			"0.0": 0.0,
			"0.0": 0.0,
			"0.0": 0.0,
			"0.0": 0.0,
			"0.0": 0.0,
			"0.0": 0.0,
			"0.0": 0.0,
			"0.0": 0.0,
			"0.0": 0.0,
			"0.0": 0.0,
			"0.0": 0.0,
			"0.0": 0.0,
			"0.0": 0.0,
			"0.0": 0.0,
			"0.0": 0.0,
			"0.0": 0.0,
			"0.0": 0.0,
			"0.0": 0.0,
			"0.0": 0.0,
			"0.0": 0.0,
			"0.0": 0.0,
			"0.0": 0.0,
			"0.0": 0.0,
			"0.0": 0.0,
			"0.0": 0.0,
			"0.0": 0.0,
			"0.0": 0.0,
			"0.0": 0.0,
			"0.0": 0.0,
			"0.0": 0.0,
			"0.0": 0.0,
			"0.0": 0.0,
			"0.0": 0.0,
			"0.0": 0.0,
			"0.0": 0.0,
			"0.0": 0.0,
			"0.0": 0.0,
			"0.0": 0.0,
			"0.0": 0.0,
			"0.0": 0.0,
			"0.0": 0.0,
			"0.0": 0.0,
			"0.0": 0.0,
			"0.0": 0.0,
			"0.0": 0.0,
			"0.0": 0.0,
			"0.0": 0.0,
			"0.0": 0.0,
			"0.0": 0.0,
			"0.0": 0.0,
			"0.0": 0.0
		}
	}
}
