{
	 "smiles": "CC(=O)NC1C(O)C(O)C(CO)OC1OC1=CC=C2C(C)=CC(=O)OC2=C1", 
	 "Tm": 482.15, 
	 "num_atms": 48, 
	 "gaussian": { 
		 "optdone": 1, 
		 "sigma_profile": "yes", 
		 "theory": "DFT", 
		 "functional": "B3LYP", 
		 "basiset": "6-31G**", 
		 "properties": { 
			 "R2extent": 12142.7, 
			 "electric_dipole_moment_norm": 10.6100781835, 
			 "electric_quadrupole_moment_norm": 37.9577692332, 
			 "total_energy": -1355.09512458, 
			 "HOMO_LUMO_gap": 0.16183, 
			 "cosmo_polarized_energy": -32.05, 
			 "cosmo_cavitation_energy": 49.81, 
			 "cosmo_dispersion_energy": -33.88, 
			 "cosmo_repulsion_energy": 2.59, 
			 "cosmo_total_nonelectrostatic_energy": 18.52, 
			 "SMD_solvation_energy": 10.3 
		},
		"coords": [
			{
				"x": 1.8300098866,
				"y": 3.3470247444,
				"z": 2.3968139804,
				"element": "C" 
			},
			{
				"x": 2.5230151432,
				"y": 2.3878543882,
				"z": 1.4444521284,
				"element": "C" 
			},
			{
				"x": 3.6602156696,
				"y": 1.9755347846,
				"z": 1.6337550399,
				"element": "O" 
			},
			{
				"x": 1.7667899696,
				"y": 1.9946664356,
				"z": 0.3679949697,
				"element": "N" 
			},
			{
				"x": 2.2546260805,
				"y": 1.0304051464,
				"z": -0.5861265781,
				"element": "C" 
			},
			{
				"x": 1.9369795613,
				"y": 1.4834933952,
				"z": -2.0183494299,
				"element": "C" 
			},
			{
				"x": 0.5828495317,
				"y": 1.9266645651,
				"z": -2.0758593253,
				"element": "O" 
			},
			{
				"x": 2.1707840582,
				"y": 0.3387337063,
				"z": -2.9987055344,
				"element": "C" 
			},
			{
				"x": 1.8839105262,
				"y": 0.8633962707,
				"z": -4.296730104,
				"element": "O" 
			},
			{
				"x": 1.2401830041,
				"y": -0.8569513872,
				"z": -2.6747939093,
				"element": "C" 
			},
			{
				"x": 1.8208917101,
				"y": -2.1957058401,
				"z": -3.1225087501,
				"element": "C" 
			},
			{
				"x": 3.1090653352,
				"y": -2.3522299745,
				"z": -2.5398009856,
				"element": "O" 
			},
			{
				"x": 0.8551323213,
				"y": -0.915437062,
				"z": -1.3002734341,
				"element": "O" 
			},
			{
				"x": 1.8000846295,
				"y": -0.4610649579,
				"z": -0.346779637,
				"element": "C" 
			},
			{
				"x": 1.2900128526,
				"y": -0.7061902348,
				"z": 0.9386370283,
				"element": "O" 
			},
			{
				"x": 0.0666756264,
				"y": -0.2823115138,
				"z": 1.3819491769,
				"element": "C" 
			},
			{
				"x": -0.9307764172,
				"y": 0.3351337569,
				"z": 0.6004100705,
				"element": "C" 
			},
			{
				"x": -2.1303860213,
				"y": 0.6937977457,
				"z": 1.1989217263,
				"element": "C" 
			},
			{
				"x": -2.3931105903,
				"y": 0.4550557796,
				"z": 2.5609955798,
				"element": "C" 
			},
			{
				"x": -3.6282414633,
				"y": 0.8007287577,
				"z": 3.2394921915,
				"element": "C" 
			},
			{
				"x": -4.74788348,
				"y": 1.4639871523,
				"z": 2.4831708957,
				"element": "C" 
			},
			{
				"x": -3.7481651787,
				"y": 0.5128560117,
				"z": 4.5619586545,
				"element": "C" 
			},
			{
				"x": -2.6963782423,
				"y": -0.1276533194,
				"z": 5.3355365688,
				"element": "C" 
			},
			{
				"x": -2.7421393666,
				"y": -0.4079020365,
				"z": 6.5113352892,
				"element": "O" 
			},
			{
				"x": -1.5269666344,
				"y": -0.4428727609,
				"z": 4.6392830832,
				"element": "O" 
			},
			{
				"x": -1.3739975852,
				"y": -0.1687075296,
				"z": 3.3120355325,
				"element": "C" 
			},
			{
				"x": -0.1598546688,
				"y": -0.5323651384,
				"z": 2.7377040236,
				"element": "C" 
			},
			{
				"x": 2.5791719586,
				"y": 4.002094644,
				"z": 2.8436251105,
				"element": "H" 
			},
			{
				"x": 1.0563047679,
				"y": 3.9488084324,
				"z": 1.9111693293,
				"element": "H" 
			},
			{
				"x": 1.3605048084,
				"y": 2.7700937096,
				"z": 3.2008499385,
				"element": "H" 
			},
			{
				"x": 0.840814098,
				"y": 2.3693924377,
				"z": 0.2269580104,
				"element": "H" 
			},
			{
				"x": 3.3414416295,
				"y": 1.0285839824,
				"z": -0.4602158786,
				"element": "H" 
			},
			{
				"x": 2.6085193009,
				"y": 2.3124478206,
				"z": -2.2836941187,
				"element": "H" 
			},
			{
				"x": 0.397351315,
				"y": 2.1175320269,
				"z": -3.0063740243,
				"element": "H" 
			},
			{
				"x": 3.2208970593,
				"y": 0.0262760388,
				"z": -2.9297474218,
				"element": "H" 
			},
			{
				"x": 2.2014590947,
				"y": 0.244544372,
				"z": -4.9654442366,
				"element": "H" 
			},
			{
				"x": 0.3084025101,
				"y": -0.6885114785,
				"z": -3.2251499722,
				"element": "H" 
			},
			{
				"x": 1.875197628,
				"y": -2.2170365501,
				"z": -4.2259936899,
				"element": "H" 
			},
			{
				"x": 1.1319365082,
				"y": -2.9896088133,
				"z": -2.8062702347,
				"element": "H" 
			},
			{
				"x": 3.3596587749,
				"y": -3.2826847968,
				"z": -2.5782083388,
				"element": "H" 
			},
			{
				"x": 2.6892760573,
				"y": -1.0977739647,
				"z": -0.3925794117,
				"element": "H" 
			},
			{
				"x": -0.7656878802,
				"y": 0.5225567817,
				"z": -0.451183559,
				"element": "H" 
			},
			{
				"x": -2.8912466309,
				"y": 1.1696771966,
				"z": 0.5885672609,
				"element": "H" 
			},
			{
				"x": -5.601352784,
				"y": 1.6571359425,
				"z": 3.1363175989,
				"element": "H" 
			},
			{
				"x": -5.087134634,
				"y": 0.8357193055,
				"z": 1.6516482917,
				"element": "H" 
			},
			{
				"x": -4.4221555143,
				"y": 2.4180594262,
				"z": 2.0530719977,
				"element": "H" 
			},
			{
				"x": -4.6479680238,
				"y": 0.7485603907,
				"z": 5.1187222781,
				"element": "H" 
			},
			{
				"x": 0.6051836989,
				"y": -1.0083077897,
				"z": 3.3393128188,
				"element": "H" 
			}
		],
		 "valence_orbital": [ 
			{
				"type": "occ",
				"energy": -0.2599,
				"method": "rhf"
			},
			{
				"type": "occ",
				"energy": -0.2456,
				"method": "rhf"
			},
			{
				"type": "occ",
				"energy": -0.24447,
				"method": "rhf"
			},
			{
				"type": "occ",
				"energy": -0.23895,
				"method": "rhf"
			},
			{
				"type": "occ",
				"energy": -0.21339,
				"method": "rhf"
			},
			{
				"type": "unocc",
				"energy": -0.05156,
				"method": "rhf"
			},
			{
				"type": "unocc",
				"energy": -0.00302,
				"method": "rhf"
			},
			{
				"type": "unocc",
				"energy": 0.01651,
				"method": "rhf"
			},
			{
				"type": "unocc",
				"energy": 0.03131,
				"method": "rhf"
			},
			{
				"type": "unocc",
				"energy": 0.0338,
				"method": "rhf"
			}
		],
		"cosmo_sigma_profile": { 
			"-0.025": 0.0,
			"-0.024": 0.0,
			"-0.023": 0.0,
			"-0.022": 0.0,
			"-0.021": 0.0,
			"-0.02": 0.0,
			"-0.019": 0.0,
			"-0.018": 0.0,
			"-0.017": 0.225665614474,
			"-0.016": 1.55847474861,
			"-0.015": 2.40518519013,
			"-0.014": 1.94565397587,
			"-0.013": 2.3978903336,
			"-0.012": 2.51103249718,
			"-0.011": 3.50834629568,
			"-0.01": 3.91342363192,
			"-0.009": 3.07331396126,
			"-0.008": 5.11823682389,
			"-0.007": 10.5325421642,
			"-0.006": 20.0795083363,
			"-0.005": 29.8278255501,
			"-0.004": 30.0614287671,
			"-0.003": 28.9360578782,
			"-0.002": 29.3021885151,
			"-0.001": 31.1564553632,
			"0.0": 26.3860501422,
			"0.001": 24.0076776171,
			"0.002": 19.4105708471,
			"0.003": 14.6606461937,
			"0.004": 14.3212100035,
			"0.005": 11.8926514861,
			"0.006": 11.7620126853,
			"0.007": 8.5533277115,
			"0.008": 10.3170539068,
			"0.009": 8.89981099827,
			"0.01": 6.01299551482,
			"0.011": 6.38820583306,
			"0.012": 8.78594063843,
			"0.013": 7.74495187841,
			"0.014": 4.76576319221,
			"0.015": 1.30300170669,
			"0.016": 0.000803966072256,
			"0.017": 0.0,
			"0.018": 0.0,
			"0.019": 0.0,
			"0.02": 0.0,
			"0.021": 0.0,
			"0.022": 0.0,
			"0.023": 0.0,
			"0.024": 0.0,
			"0.025": 0.0
		}
	}
}
