{
	 "smiles": "CC(=O)C1=C(N)C=CS1", 
	 "Tm": 360.15, 
	 "num_atms": 16, 
	 "gaussian": { 
		 "optdone": 1, 
		 "sigma_profile": "yes", 
		 "theory": "DFT", 
		 "functional": "B3LYP", 
		 "basiset": "6-31G**", 
		 "properties": { 
			 "R2extent": 2174.5919, 
			 "electric_dipole_moment_norm": 5.22901092846, 
			 "electric_quadrupole_moment_norm": 11.2206082865, 
			 "total_energy": -761.009298353, 
			 "HOMO_LUMO_gap": 0.16742, 
			 "cosmo_polarized_energy": -15.86, 
			 "cosmo_cavitation_energy": 21.18, 
			 "cosmo_dispersion_energy": -16.44, 
			 "cosmo_repulsion_energy": 1.29, 
			 "cosmo_total_nonelectrostatic_energy": 6.03, 
			 "SMD_solvation_energy": 4.3 
		},
		"coords": [
			{
				"x": -0.2021391524,
				"y": 0.1947490746,
				"z": 1.0494873498,
				"element": "C" 
			},
			{
				"x": 0.4157827214,
				"y": -1.1166465012,
				"z": 0.5813353987,
				"element": "C" 
			},
			{
				"x": 0.7973101311,
				"y": -1.9453387136,
				"z": 1.4045433283,
				"element": "O" 
			},
			{
				"x": 0.5438724277,
				"y": -1.375372484,
				"z": -0.8493197092,
				"element": "C" 
			},
			{
				"x": 0.2003746184,
				"y": -0.6382790907,
				"z": -1.9849544496,
				"element": "C" 
			},
			{
				"x": -0.4110008024,
				"y": 0.6053160229,
				"z": -2.018517643,
				"element": "N" 
			},
			{
				"x": 0.4981231103,
				"y": -1.3454291951,
				"z": -3.1955446373,
				"element": "C" 
			},
			{
				"x": 1.0516002892,
				"y": -2.5740475087,
				"z": -2.9692765286,
				"element": "C" 
			},
			{
				"x": 1.2354392332,
				"y": -2.9313844052,
				"z": -1.2945089869,
				"element": "S" 
			},
			{
				"x": -0.2969736081,
				"y": 0.1602775743,
				"z": 2.1354933587,
				"element": "H" 
			},
			{
				"x": -1.1885348855,
				"y": 0.3581620354,
				"z": 0.6017429143,
				"element": "H" 
			},
			{
				"x": 0.4416684805,
				"y": 1.0447646937,
				"z": 0.7865592237,
				"element": "H" 
			},
			{
				"x": -0.2833119702,
				"y": 1.2053153285,
				"z": -1.2187765172,
				"element": "H" 
			},
			{
				"x": -0.3249017506,
				"y": 1.0993291516,
				"z": -2.895112838,
				"element": "H" 
			},
			{
				"x": 0.2982555589,
				"y": -0.9416831155,
				"z": -4.1827097884,
				"element": "H" 
			},
			{
				"x": 1.3649355984,
				"y": -3.2915328672,
				"z": -3.7161404753,
				"element": "H" 
			}
		],
		 "valence_orbital": [ 
			{
				"type": "occ",
				"energy": -0.34449,
				"method": "rhf"
			},
			{
				"type": "occ",
				"energy": -0.32221,
				"method": "rhf"
			},
			{
				"type": "occ",
				"energy": -0.24285,
				"method": "rhf"
			},
			{
				"type": "occ",
				"energy": -0.24007,
				"method": "rhf"
			},
			{
				"type": "occ",
				"energy": -0.21331,
				"method": "rhf"
			},
			{
				"type": "unocc",
				"energy": -0.04589,
				"method": "rhf"
			},
			{
				"type": "unocc",
				"energy": 0.02834,
				"method": "rhf"
			},
			{
				"type": "unocc",
				"energy": 0.03212,
				"method": "rhf"
			},
			{
				"type": "unocc",
				"energy": 0.06877,
				"method": "rhf"
			},
			{
				"type": "unocc",
				"energy": 0.09712,
				"method": "rhf"
			}
		],
		"cosmo_sigma_profile": { 
			"-0.025": 0.0,
			"-0.024": 0.0,
			"-0.023": 0.0,
			"-0.022": 0.0,
			"-0.021": 0.0,
			"-0.02": 0.0,
			"-0.019": 0.0,
			"-0.018": 0.0,
			"-0.017": 0.0,
			"-0.016": 0.0,
			"-0.015": 0.0,
			"-0.014": 0.658387181781,
			"-0.013": 2.1624511323,
			"-0.012": 2.95296663337,
			"-0.011": 3.08108683776,
			"-0.01": 3.662832169,
			"-0.009": 5.07926884776,
			"-0.008": 5.33817350186,
			"-0.007": 5.62252273149,
			"-0.006": 7.34680836115,
			"-0.005": 8.11003606929,
			"-0.004": 9.06457463868,
			"-0.003": 8.84243095383,
			"-0.002": 9.57735752862,
			"-0.001": 10.5981504328,
			"0.0": 7.62508400745,
			"0.001": 7.22195769801,
			"0.002": 8.60289749732,
			"0.003": 13.500174243,
			"0.004": 14.9894044684,
			"0.005": 9.62238526959,
			"0.006": 3.74385670375,
			"0.007": 3.04280261607,
			"0.008": 2.2371860261,
			"0.009": 2.29290115027,
			"0.01": 2.39789769808,
			"0.011": 2.95423857236,
			"0.012": 3.03589938004,
			"0.013": 4.99553561382,
			"0.014": 2.0931404137,
			"0.015": 0.211505309433,
			"0.016": 0.0,
			"0.017": 0.0,
			"0.018": 0.0,
			"0.019": 0.0,
			"0.02": 0.0,
			"0.021": 0.0,
			"0.022": 0.0,
			"0.023": 0.0,
			"0.024": 0.0,
			"0.025": 0.0
		}
	}
}
