{
	 "smiles": "CCCOC1=CC(=CC=C1)C(O)=O", 
	 "Tm": 347.15, 
	 "num_atms": 25, 
	 "gaussian": { 
		 "optdone": 1, 
		 "sigma_profile": "yes", 
		 "theory": "DFT", 
		 "functional": "B3LYP", 
		 "basiset": "6-31G**", 
		 "properties": { 
			 "R2extent": 3462.4091, 
			 "electric_dipole_moment_norm": 2.7698276932, 
			 "electric_quadrupole_moment_norm": 13.7332593837, 
			 "total_energy": -613.985769543, 
			 "HOMO_LUMO_gap": 0.17879, 
			 "cosmo_polarized_energy": -10.15, 
			 "cosmo_cavitation_energy": 28.87, 
			 "cosmo_dispersion_energy": -20.79, 
			 "cosmo_repulsion_energy": 1.68, 
			 "cosmo_total_nonelectrostatic_energy": 9.76, 
			 "SMD_solvation_energy": 6.4 
		},
		"coords": [
			{
				"x": -2.985720537,
				"y": 3.4813354412,
				"z": 0.3068983598,
				"element": "C" 
			},
			{
				"x": -1.6976260343,
				"y": 2.6923415263,
				"z": 0.0489272865,
				"element": "C" 
			},
			{
				"x": -1.2223987922,
				"y": 1.9535476142,
				"z": 1.3003622487,
				"element": "C" 
			},
			{
				"x": 0.0207594144,
				"y": 1.2736130947,
				"z": 1.1061373089,
				"element": "O" 
			},
			{
				"x": 0.0438245702,
				"y": 0.047427542,
				"z": 0.5088316695,
				"element": "C" 
			},
			{
				"x": -1.0810704044,
				"y": -0.6564244302,
				"z": 0.0688184712,
				"element": "C" 
			},
			{
				"x": -0.9190952667,
				"y": -1.9236797117,
				"z": -0.5140176744,
				"element": "C" 
			},
			{
				"x": 0.350629465,
				"y": -2.4885728918,
				"z": -0.6630025418,
				"element": "C" 
			},
			{
				"x": 1.4669466134,
				"y": -1.7761230495,
				"z": -0.223704036,
				"element": "C" 
			},
			{
				"x": 1.3199090096,
				"y": -0.5206282605,
				"z": 0.3567157324,
				"element": "C" 
			},
			{
				"x": -2.0879642756,
				"y": -2.7066289164,
				"z": -0.9958032417,
				"element": "C" 
			},
			{
				"x": -3.2742324882,
				"y": -2.0688119582,
				"z": -0.8110977297,
				"element": "O" 
			},
			{
				"x": -2.0280141373,
				"y": -3.8073570026,
				"z": -1.5075291871,
				"element": "O" 
			},
			{
				"x": -3.8075855251,
				"y": 2.8209125143,
				"z": 0.6058487931,
				"element": "H" 
			},
			{
				"x": -3.3033619484,
				"y": 4.0174972531,
				"z": -0.5920474052,
				"element": "H" 
			},
			{
				"x": -2.8485584254,
				"y": 4.2215687558,
				"z": 1.1033198574,
				"element": "H" 
			},
			{
				"x": -1.8529470499,
				"y": 1.9772565325,
				"z": -0.766671734,
				"element": "H" 
			},
			{
				"x": -0.8964183567,
				"y": 3.3666231293,
				"z": -0.2750716516,
				"element": "H" 
			},
			{
				"x": -1.9870452519,
				"y": 1.2569014589,
				"z": 1.6690629838,
				"element": "H" 
			},
			{
				"x": -1.0204996252,
				"y": 2.6694187677,
				"z": 2.1034182911,
				"element": "H" 
			},
			{
				"x": -2.0781312917,
				"y": -0.2487225985,
				"z": 0.1623590887,
				"element": "H" 
			},
			{
				"x": 0.4408162784,
				"y": -3.4677889333,
				"z": -1.1186351898,
				"element": "H" 
			},
			{
				"x": 2.4601234984,
				"y": -2.2015553008,
				"z": -0.33257246,
				"element": "H" 
			},
			{
				"x": 2.1776853545,
				"y": 0.0449010369,
				"z": 0.7062024917,
				"element": "H" 
			},
			{
				"x": -3.9500247938,
				"y": -2.6727516133,
				"z": -1.1598497315,
				"element": "H" 
			}
		],
		 "valence_orbital": [ 
			{
				"type": "occ",
				"energy": -0.32265,
				"method": "rhf"
			},
			{
				"type": "occ",
				"energy": -0.3117,
				"method": "rhf"
			},
			{
				"type": "occ",
				"energy": -0.27389,
				"method": "rhf"
			},
			{
				"type": "occ",
				"energy": -0.25995,
				"method": "rhf"
			},
			{
				"type": "occ",
				"energy": -0.22434,
				"method": "rhf"
			},
			{
				"type": "unocc",
				"energy": -0.04555,
				"method": "rhf"
			},
			{
				"type": "unocc",
				"energy": 0.00397,
				"method": "rhf"
			},
			{
				"type": "unocc",
				"energy": 0.06361,
				"method": "rhf"
			},
			{
				"type": "unocc",
				"energy": 0.07352,
				"method": "rhf"
			},
			{
				"type": "unocc",
				"energy": 0.08451,
				"method": "rhf"
			}
		],
		"cosmo_sigma_profile": { 
			"-0.025": 0.0,
			"-0.024": 0.0,
			"-0.023": 0.0,
			"-0.022": 0.0,
			"-0.021": 0.0,
			"-0.02": 0.0,
			"-0.019": 0.0126559782419,
			"-0.018": 0.626780636048,
			"-0.017": 1.09271962035,
			"-0.016": 0.609724170549,
			"-0.015": 0.882719246878,
			"-0.014": 0.814671645937,
			"-0.013": 0.467673069297,
			"-0.012": 0.831891290284,
			"-0.011": 0.755765873407,
			"-0.01": 0.777842435555,
			"-0.009": 0.446331955568,
			"-0.008": 0.708717192258,
			"-0.007": 2.67906113273,
			"-0.006": 7.72974112479,
			"-0.005": 11.3091204993,
			"-0.004": 15.0135938213,
			"-0.003": 21.829794424,
			"-0.002": 22.2511223491,
			"-0.001": 21.5101688931,
			"0.0": 20.5867184134,
			"0.001": 19.8221654147,
			"0.002": 15.4089719408,
			"0.003": 17.9227488275,
			"0.004": 12.3332251373,
			"0.005": 5.04365943041,
			"0.006": 5.85016115465,
			"0.007": 3.37635906792,
			"0.008": 2.80790327731,
			"0.009": 3.61823971539,
			"0.01": 2.83185146584,
			"0.011": 3.89380187026,
			"0.012": 4.27994034505,
			"0.013": 0.133896261784,
			"0.014": 0.0,
			"0.015": 0.0,
			"0.016": 0.0,
			"0.017": 0.0,
			"0.018": 0.0,
			"0.019": 0.0,
			"0.02": 0.0,
			"0.021": 0.0,
			"0.022": 0.0,
			"0.023": 0.0,
			"0.024": 0.0,
			"0.025": 0.0
		}
	}
}
