{
	 "smiles": "NC1=C(C#N)C(=NN1)N1CCCC1", 
	 "Tm": 482.15, 
	 "num_atms": 24, 
	 "gaussian": { 
		 "optdone": 1, 
		 "sigma_profile": "yes", 
		 "theory": "DFT", 
		 "functional": "B3LYP", 
		 "basiset": "6-31G**", 
		 "properties": { 
			 "R2extent": 2644.841, 
			 "electric_dipole_moment_norm": 3.52288406991, 
			 "electric_quadrupole_moment_norm": 27.5260259289, 
			 "total_energy": -585.204573483, 
			 "HOMO_LUMO_gap": 0.19927, 
			 "cosmo_polarized_energy": -19.17, 
			 "cosmo_cavitation_energy": 27.57, 
			 "cosmo_dispersion_energy": -20.17, 
			 "cosmo_repulsion_energy": 1.63, 
			 "cosmo_total_nonelectrostatic_energy": 9.03, 
			 "SMD_solvation_energy": 3.61 
		},
		"coords": [
			{
				"x": -0.265179166,
				"y": -4.0336167334,
				"z": 0.2943677482,
				"element": "N" 
			},
			{
				"x": -0.1290619366,
				"y": -2.6856440012,
				"z": 0.5627807866,
				"element": "C" 
			},
			{
				"x": -0.3858928235,
				"y": -1.5796054503,
				"z": -0.2598502303,
				"element": "C" 
			},
			{
				"x": -0.9688902618,
				"y": -1.6766607786,
				"z": -1.5391436337,
				"element": "C" 
			},
			{
				"x": -1.459488202,
				"y": -1.822029249,
				"z": -2.5891244994,
				"element": "N" 
			},
			{
				"x": 0.0286758304,
				"y": -0.4412429681,
				"z": 0.5296071829,
				"element": "C" 
			},
			{
				"x": 0.4860799669,
				"y": -0.8188522952,
				"z": 1.7224918768,
				"element": "N" 
			},
			{
				"x": 0.3674210325,
				"y": -2.1972272969,
				"z": 1.7122264788,
				"element": "N" 
			},
			{
				"x": -0.0272797443,
				"y": 0.8776754576,
				"z": 0.1912441746,
				"element": "N" 
			},
			{
				"x": -0.3593033454,
				"y": 1.3803008723,
				"z": -1.1423214085,
				"element": "C" 
			},
			{
				"x": -0.3561279851,
				"y": 2.9023836036,
				"z": -0.9411579152,
				"element": "C" 
			},
			{
				"x": 0.7267076962,
				"y": 3.1129365252,
				"z": 0.1311593443,
				"element": "C" 
			},
			{
				"x": 0.553959948,
				"y": 1.9030002916,
				"z": 1.0640410323,
				"element": "C" 
			},
			{
				"x": -0.6126894935,
				"y": -4.5956386981,
				"z": 1.0611717411,
				"element": "H" 
			},
			{
				"x": -0.7728330716,
				"y": -4.21546446,
				"z": -0.5627548886,
				"element": "H" 
			},
			{
				"x": 0.7600046069,
				"y": -2.7198061533,
				"z": 2.478112693,
				"element": "H" 
			},
			{
				"x": 0.3917736206,
				"y": 1.076197448,
				"z": -1.888099612,
				"element": "H" 
			},
			{
				"x": -1.3289364133,
				"y": 1.0036639503,
				"z": -1.4817414343,
				"element": "H" 
			},
			{
				"x": -0.1569790883,
				"y": 3.4427026574,
				"z": -1.870355548,
				"element": "H" 
			},
			{
				"x": -1.3316806686,
				"y": 3.2288555429,
				"z": -0.5636338057,
				"element": "H" 
			},
			{
				"x": 0.6296329811,
				"y": 4.0649698625,
				"z": 0.6599539137,
				"element": "H" 
			},
			{
				"x": 1.7199363731,
				"y": 3.088816708,
				"z": -0.3315844595,
				"element": "H" 
			},
			{
				"x": -0.1217044893,
				"y": 2.1214628014,
				"z": 1.9029938534,
				"element": "H" 
			},
			{
				"x": 1.4982546335,
				"y": 1.5529223632,
				"z": 1.4950166095,
				"element": "H" 
			}
		],
		 "valence_orbital": [ 
			{
				"type": "occ",
				"energy": -0.31928,
				"method": "rhf"
			},
			{
				"type": "occ",
				"energy": -0.2891,
				"method": "rhf"
			},
			{
				"type": "occ",
				"energy": -0.28478,
				"method": "rhf"
			},
			{
				"type": "occ",
				"energy": -0.22024,
				"method": "rhf"
			},
			{
				"type": "occ",
				"energy": -0.18893,
				"method": "rhf"
			},
			{
				"type": "unocc",
				"energy": 0.01034,
				"method": "rhf"
			},
			{
				"type": "unocc",
				"energy": 0.03282,
				"method": "rhf"
			},
			{
				"type": "unocc",
				"energy": 0.04511,
				"method": "rhf"
			},
			{
				"type": "unocc",
				"energy": 0.06074,
				"method": "rhf"
			},
			{
				"type": "unocc",
				"energy": 0.08754,
				"method": "rhf"
			}
		],
		"cosmo_sigma_profile": { 
			"-0.025": 0.0,
			"-0.024": 0.0,
			"-0.023": 0.0,
			"-0.022": 0.0,
			"-0.021": 0.0,
			"-0.02": 0.0,
			"-0.019": 0.0,
			"-0.018": 0.0,
			"-0.017": 0.709134349009,
			"-0.016": 2.29647953591,
			"-0.015": 2.49443703629,
			"-0.014": 3.12755571914,
			"-0.013": 3.30651960065,
			"-0.012": 3.39697364409,
			"-0.011": 2.98634105082,
			"-0.01": 3.00829618834,
			"-0.009": 1.97126655467,
			"-0.008": 2.58557303452,
			"-0.007": 2.70206306375,
			"-0.006": 2.26195868987,
			"-0.005": 2.30987093651,
			"-0.004": 10.1046599441,
			"-0.003": 24.7134143807,
			"-0.002": 28.6137559825,
			"-0.001": 19.0488080225,
			"0.0": 16.0901178811,
			"0.001": 9.71302806776,
			"0.002": 11.7344687747,
			"0.003": 9.31703283419,
			"0.004": 6.98572361296,
			"0.005": 5.92287227937,
			"0.006": 4.97719769417,
			"0.007": 3.90906639679,
			"0.008": 5.10116144792,
			"0.009": 4.54413248624,
			"0.01": 5.06912121113,
			"0.011": 4.72433313843,
			"0.012": 4.55683001416,
			"0.013": 4.72661838164,
			"0.014": 3.14645193217,
			"0.015": 1.19703351587,
			"0.016": 0.494684326967,
			"0.017": 0.0,
			"0.018": 0.0,
			"0.019": 0.0,
			"0.02": 0.0,
			"0.021": 0.0,
			"0.022": 0.0,
			"0.023": 0.0,
			"0.024": 0.0,
			"0.025": 0.0
		}
	}
}
