{
	 "smiles": "CC1=NC(=NO1)C1(CCCCC1)NC(=O)CCl", 
	 "Tm": 367.15, 
	 "num_atms": 33, 
	 "gaussian": { 
		 "optdone": 1, 
		 "sigma_profile": "yes", 
		 "theory": "DFT", 
		 "functional": "B3LYP", 
		 "basiset": "6-31G**", 
		 "properties": { 
			 "R2extent": 5138.8719, 
			 "electric_dipole_moment_norm": 5.31017473253, 
			 "electric_quadrupole_moment_norm": 25.3604543376, 
			 "total_energy": -1203.68626556, 
			 "HOMO_LUMO_gap": 0.21669, 
			 "cosmo_polarized_energy": -16.88, 
			 "cosmo_cavitation_energy": 35.92, 
			 "cosmo_dispersion_energy": -25.61, 
			 "cosmo_repulsion_energy": 2.03, 
			 "cosmo_total_nonelectrostatic_energy": 12.35, 
			 "SMD_solvation_energy": 5.18 
		},
		"coords": [
			{
				"x": 3.5611683122,
				"y": 0.1921384314,
				"z": 2.4279835985,
				"element": "C" 
			},
			{
				"x": 2.2231027388,
				"y": 0.4824282858,
				"z": 1.8477719285,
				"element": "C" 
			},
			{
				"x": 1.8042546744,
				"y": 0.2919102544,
				"z": 0.6305205361,
				"element": "N" 
			},
			{
				"x": 0.4963531174,
				"y": 0.7334747515,
				"z": 0.6829443932,
				"element": "C" 
			},
			{
				"x": 0.1282756162,
				"y": 1.1785618227,
				"z": 1.85759731,
				"element": "N" 
			},
			{
				"x": 1.2820411986,
				"y": 1.0122888654,
				"z": 2.6471111687,
				"element": "O" 
			},
			{
				"x": -0.4317260046,
				"y": 0.6822167484,
				"z": -0.5254819799,
				"element": "C" 
			},
			{
				"x": -1.8442461947,
				"y": 1.2112828225,
				"z": -0.1328409315,
				"element": "C" 
			},
			{
				"x": -2.589653149,
				"y": 1.7844412912,
				"z": -1.3417407424,
				"element": "C" 
			},
			{
				"x": -1.8866921422,
				"y": 3.0640387988,
				"z": -1.8531819125,
				"element": "C" 
			},
			{
				"x": -0.3628725221,
				"y": 3.0065182057,
				"z": -1.599734021,
				"element": "C" 
			},
			{
				"x": 0.1511502952,
				"y": 1.5626673939,
				"z": -1.675902975,
				"element": "C" 
			},
			{
				"x": -0.61386655,
				"y": -0.7262148781,
				"z": -0.9431716132,
				"element": "N" 
			},
			{
				"x": 0.1994187555,
				"y": -1.6851354227,
				"z": -1.5267139192,
				"element": "C" 
			},
			{
				"x": -0.1511513613,
				"y": -2.8519026427,
				"z": -1.5154092234,
				"element": "O" 
			},
			{
				"x": 1.4868719664,
				"y": -1.210364136,
				"z": -2.2068597932,
				"element": "C" 
			},
			{
				"x": 2.4697205726,
				"y": -2.577972008,
				"z": -2.8248472386,
				"element": "Cl" 
			},
			{
				"x": 3.4748927725,
				"y": -0.5328859482,
				"z": 3.2430309281,
				"element": "H" 
			},
			{
				"x": 4.2093108058,
				"y": -0.2146248444,
				"z": 1.6519528092,
				"element": "H" 
			},
			{
				"x": 4.0088263322,
				"y": 1.102540336,
				"z": 2.8377304309,
				"element": "H" 
			},
			{
				"x": -1.7346224312,
				"y": 1.9846855608,
				"z": 0.6313831178,
				"element": "H" 
			},
			{
				"x": -2.4114805285,
				"y": 0.4044652174,
				"z": 0.3444177052,
				"element": "H" 
			},
			{
				"x": -3.6283714233,
				"y": 2.0000044813,
				"z": -1.0716956422,
				"element": "H" 
			},
			{
				"x": -2.6286254788,
				"y": 1.0265537049,
				"z": -2.1331746947,
				"element": "H" 
			},
			{
				"x": -2.305724596,
				"y": 3.9469321243,
				"z": -1.357405582,
				"element": "H" 
			},
			{
				"x": -2.0835170207,
				"y": 3.1872874398,
				"z": -2.9243048439,
				"element": "H" 
			},
			{
				"x": -0.1240447495,
				"y": 3.4226190183,
				"z": -0.6131670619,
				"element": "H" 
			},
			{
				"x": 0.1709858462,
				"y": 3.6263193613,
				"z": -2.3274236977,
				"element": "H" 
			},
			{
				"x": 1.2434103878,
				"y": 1.5385538063,
				"z": -1.6528511543,
				"element": "H" 
			},
			{
				"x": -0.1659502688,
				"y": 1.1243431589,
				"z": -2.6279655258,
				"element": "H" 
			},
			{
				"x": -1.3851875002,
				"y": -1.1951052394,
				"z": -0.4820769397,
				"element": "H" 
			},
			{
				"x": 2.0994340983,
				"y": -0.6551761881,
				"z": -1.4972911897,
				"element": "H" 
			},
			{
				"x": 1.2512144309,
				"y": -0.5742905736,
				"z": -3.0607032443,
				"element": "H" 
			}
		],
		 "valence_orbital": [ 
			{
				"type": "occ",
				"energy": -0.29973,
				"method": "rhf"
			},
			{
				"type": "occ",
				"energy": -0.28797,
				"method": "rhf"
			},
			{
				"type": "occ",
				"energy": -0.28452,
				"method": "rhf"
			},
			{
				"type": "occ",
				"energy": -0.26091,
				"method": "rhf"
			},
			{
				"type": "occ",
				"energy": -0.25284,
				"method": "rhf"
			},
			{
				"type": "unocc",
				"energy": -0.03615,
				"method": "rhf"
			},
			{
				"type": "unocc",
				"energy": 0.00648,
				"method": "rhf"
			},
			{
				"type": "unocc",
				"energy": 0.03186,
				"method": "rhf"
			},
			{
				"type": "unocc",
				"energy": 0.03549,
				"method": "rhf"
			},
			{
				"type": "unocc",
				"energy": 0.06908,
				"method": "rhf"
			}
		],
		"cosmo_sigma_profile": { 
			"-0.025": 0.0,
			"-0.024": 0.0,
			"-0.023": 0.0,
			"-0.022": 0.0,
			"-0.021": 0.0,
			"-0.02": 0.0,
			"-0.019": 0.0,
			"-0.018": 0.0,
			"-0.017": 0.0,
			"-0.016": 0.0,
			"-0.015": 0.0,
			"-0.014": 0.0706644598446,
			"-0.013": 0.877181085936,
			"-0.012": 1.17473466176,
			"-0.011": 1.11421030269,
			"-0.01": 1.00088768198,
			"-0.009": 2.4203778647,
			"-0.008": 4.34650558077,
			"-0.007": 8.91031299122,
			"-0.006": 11.3771541543,
			"-0.005": 12.4445431519,
			"-0.004": 17.1471883178,
			"-0.003": 31.7613851766,
			"-0.002": 36.8573819522,
			"-0.001": 31.0767931983,
			"0.0": 23.2854352695,
			"0.001": 16.1969356348,
			"0.002": 8.64694741032,
			"0.003": 9.35998673323,
			"0.004": 9.44152954626,
			"0.005": 9.43704498539,
			"0.006": 13.9019350148,
			"0.007": 7.88549977639,
			"0.008": 3.22422335825,
			"0.009": 3.67686211741,
			"0.01": 2.26066680219,
			"0.011": 4.14364305276,
			"0.012": 4.171147452,
			"0.013": 5.31150015399,
			"0.014": 2.2282777276,
			"0.015": 0.393149379165,
			"0.016": 0.0,
			"0.017": 0.0,
			"0.018": 0.0,
			"0.019": 0.0,
			"0.02": 0.0,
			"0.021": 0.0,
			"0.022": 0.0,
			"0.023": 0.0,
			"0.024": 0.0,
			"0.025": 0.0
		}
	}
}
