{
	 "smiles": "NC(=O)C1=CC(Cl)=CC=C1", 
	 "Tm": 409.15, 
	 "num_atms": 16, 
	 "gaussian": { 
		 "optdone": 1, 
		 "sigma_profile": "yes", 
		 "theory": "DFT", 
		 "functional": "B3LYP", 
		 "basiset": "6-31G**", 
		 "properties": { 
			 "R2extent": 2225.0284, 
			 "electric_dipole_moment_norm": 2.07025756852, 
			 "electric_quadrupole_moment_norm": 16.1761270609, 
			 "total_energy": -860.547860278, 
			 "HOMO_LUMO_gap": 0.20367, 
			 "cosmo_polarized_energy": -12.4, 
			 "cosmo_cavitation_energy": 22.36, 
			 "cosmo_dispersion_energy": -16.76, 
			 "cosmo_repulsion_energy": 1.37, 
			 "cosmo_total_nonelectrostatic_energy": 6.97, 
			 "SMD_solvation_energy": 4.39 
		},
		"coords": [
			{
				"x": -1.2774924816,
				"y": -0.4512406458,
				"z": -1.6345629144,
				"element": "N" 
			},
			{
				"x": -1.5368435229,
				"y": 0.5513523109,
				"z": -0.7320900097,
				"element": "C" 
			},
			{
				"x": -2.5879832559,
				"y": 1.1786060704,
				"z": -0.7433990432,
				"element": "O" 
			},
			{
				"x": -0.4457846331,
				"y": 0.8558590931,
				"z": 0.2594776487,
				"element": "C" 
			},
			{
				"x": 0.8861894762,
				"y": 0.4653478076,
				"z": 0.0681193615,
				"element": "C" 
			},
			{
				"x": 1.8374113451,
				"y": 0.7894684524,
				"z": 1.0333364001,
				"element": "C" 
			},
			{
				"x": 3.5097764117,
				"y": 0.3044558292,
				"z": 0.7856476932,
				"element": "Cl" 
			},
			{
				"x": 1.4921951985,
				"y": 1.4959049661,
				"z": 2.184875794,
				"element": "C" 
			},
			{
				"x": 0.1643009797,
				"y": 1.8916832063,
				"z": 2.3604222714,
				"element": "C" 
			},
			{
				"x": -0.7988574222,
				"y": 1.5814425904,
				"z": 1.4037373237,
				"element": "C" 
			},
			{
				"x": -0.5953505965,
				"y": -1.1643469846,
				"z": -1.4291706017,
				"element": "H" 
			},
			{
				"x": -2.0569422413,
				"y": -0.719134126,
				"z": -2.2182727924,
				"element": "H" 
			},
			{
				"x": 1.1984486694,
				"y": -0.0518055103,
				"z": -0.832267787,
				"element": "H" 
			},
			{
				"x": 2.2502191883,
				"y": 1.7355210355,
				"z": 2.9223177593,
				"element": "H" 
			},
			{
				"x": -0.1128417884,
				"y": 2.4478462855,
				"z": 3.2508469643,
				"element": "H" 
			},
			{
				"x": -1.831745327,
				"y": 1.8910396193,
				"z": 1.5168819321,
				"element": "H" 
			}
		],
		 "valence_orbital": [ 
			{
				"type": "occ",
				"energy": -0.32109,
				"method": "rhf"
			},
			{
				"type": "occ",
				"energy": -0.27965,
				"method": "rhf"
			},
			{
				"type": "occ",
				"energy": -0.27319,
				"method": "rhf"
			},
			{
				"type": "occ",
				"energy": -0.26056,
				"method": "rhf"
			},
			{
				"type": "occ",
				"energy": -0.25221,
				"method": "rhf"
			},
			{
				"type": "unocc",
				"energy": -0.04854,
				"method": "rhf"
			},
			{
				"type": "unocc",
				"energy": -0.02234,
				"method": "rhf"
			},
			{
				"type": "unocc",
				"energy": 0.02173,
				"method": "rhf"
			},
			{
				"type": "unocc",
				"energy": 0.04859,
				"method": "rhf"
			},
			{
				"type": "unocc",
				"energy": 0.07783,
				"method": "rhf"
			}
		],
		"cosmo_sigma_profile": { 
			"-0.025": 0.0,
			"-0.024": 0.0,
			"-0.023": 0.0,
			"-0.022": 0.0,
			"-0.021": 0.0,
			"-0.02": 0.0,
			"-0.019": 0.0,
			"-0.018": 0.0,
			"-0.017": 0.0,
			"-0.016": 0.0,
			"-0.015": 0.198684536261,
			"-0.014": 1.91834521004,
			"-0.013": 2.7258946203,
			"-0.012": 2.87336943302,
			"-0.011": 2.32849295368,
			"-0.01": 2.86332550567,
			"-0.009": 2.64914668437,
			"-0.008": 2.85375068697,
			"-0.007": 5.83398743907,
			"-0.006": 7.8877366353,
			"-0.005": 8.6142013532,
			"-0.004": 7.14347353093,
			"-0.003": 7.47176697236,
			"-0.002": 8.68623232479,
			"-0.001": 11.7894220424,
			"0.0": 12.270287483,
			"0.001": 17.3107544181,
			"0.002": 18.840703151,
			"0.003": 17.0295495474,
			"0.004": 12.0173985321,
			"0.005": 7.54655469141,
			"0.006": 2.08947626029,
			"0.007": 1.46228051233,
			"0.008": 2.26332757273,
			"0.009": 1.78830829471,
			"0.01": 1.18037757671,
			"0.011": 1.30991057984,
			"0.012": 2.82860821941,
			"0.013": 4.84599505338,
			"0.014": 2.61170414421,
			"0.015": 0.0385202689687,
			"0.016": 0.0,
			"0.017": 0.0,
			"0.018": 0.0,
			"0.019": 0.0,
			"0.02": 0.0,
			"0.021": 0.0,
			"0.022": 0.0,
			"0.023": 0.0,
			"0.024": 0.0,
			"0.025": 0.0
		}
	}
}
