{
	 "smiles": "CCOC(=O)C1=C(N)SC(=C1)C1=CC=CC=C1", 
	 "Tm": 392.15, 
	 "num_atms": 30, 
	 "gaussian": { 
		 "optdone": 1, 
		 "sigma_profile": "yes", 
		 "theory": "DFT", 
		 "functional": "B3LYP", 
		 "basiset": "6-31G**", 
		 "properties": { 
			 "R2extent": 6360.9471, 
			 "electric_dipole_moment_norm": 3.20020117336, 
			 "electric_quadrupole_moment_norm": 16.6747707094, 
			 "total_energy": -1106.62312374, 
			 "HOMO_LUMO_gap": 0.16048, 
			 "cosmo_polarized_energy": -13.05, 
			 "cosmo_cavitation_energy": 35.56, 
			 "cosmo_dispersion_energy": -26.33, 
			 "cosmo_repulsion_energy": 2.0, 
			 "cosmo_total_nonelectrostatic_energy": 11.23, 
			 "SMD_solvation_energy": 6.55 
		},
		"coords": [
			{
				"x": 4.7779636419,
				"y": 0.92318039,
				"z": -2.3373391535,
				"element": "C" 
			},
			{
				"x": 3.8171377999,
				"y": -0.0758792236,
				"z": -2.9642125066,
				"element": "C" 
			},
			{
				"x": 2.4762180969,
				"y": 0.0799288784,
				"z": -2.4408185841,
				"element": "O" 
			},
			{
				"x": 2.2037757964,
				"y": -0.5778815829,
				"z": -1.2663848384,
				"element": "C" 
			},
			{
				"x": 3.029984336,
				"y": -1.2695104474,
				"z": -0.6990670439,
				"element": "O" 
			},
			{
				"x": 0.8344896055,
				"y": -0.3621445812,
				"z": -0.799339226,
				"element": "C" 
			},
			{
				"x": -0.1446326419,
				"y": 0.4210969194,
				"z": -1.4064327749,
				"element": "C" 
			},
			{
				"x": -0.0431001066,
				"y": 1.218085551,
				"z": -2.511359264,
				"element": "N" 
			},
			{
				"x": -1.6411630464,
				"y": 0.3628661783,
				"z": -0.501970652,
				"element": "S" 
			},
			{
				"x": -0.9425807929,
				"y": -0.7330489338,
				"z": 0.7116001937,
				"element": "C" 
			},
			{
				"x": 0.3579827587,
				"y": -0.9961142689,
				"z": 0.3959961284,
				"element": "C" 
			},
			{
				"x": -1.7485971181,
				"y": -1.2206468951,
				"z": 1.8338106742,
				"element": "C" 
			},
			{
				"x": -1.3935452718,
				"y": -2.4125740472,
				"z": 2.4955677656,
				"element": "C" 
			},
			{
				"x": -2.1369470833,
				"y": -2.8773573692,
				"z": 3.5767435911,
				"element": "C" 
			},
			{
				"x": -3.2642070452,
				"y": -2.1774105894,
				"z": 4.0149850972,
				"element": "C" 
			},
			{
				"x": -3.6354586904,
				"y": -1.0020007512,
				"z": 3.3606153794,
				"element": "C" 
			},
			{
				"x": -2.8849442678,
				"y": -0.5258073717,
				"z": 2.2871278355,
				"element": "C" 
			},
			{
				"x": 4.8829739282,
				"y": 0.7303202676,
				"z": -1.2672395651,
				"element": "H" 
			},
			{
				"x": 4.4250651284,
				"y": 1.9489946351,
				"z": -2.4800923994,
				"element": "H" 
			},
			{
				"x": 5.7653308414,
				"y": 0.8312954957,
				"z": -2.8023878001,
				"element": "H" 
			},
			{
				"x": 4.1445486422,
				"y": -1.1021431192,
				"z": -2.7851471812,
				"element": "H" 
			},
			{
				"x": 3.7118958804,
				"y": 0.088844082,
				"z": -4.0397609978,
				"element": "H" 
			},
			{
				"x": -0.8855798642,
				"y": 1.4416798604,
				"z": -3.0187228695,
				"element": "H" 
			},
			{
				"x": 0.7945867206,
				"y": 1.0724709386,
				"z": -3.0593065094,
				"element": "H" 
			},
			{
				"x": 1.0091361788,
				"y": -1.6224417549,
				"z": 0.9929840582,
				"element": "H" 
			},
			{
				"x": -0.5392371407,
				"y": -2.983281602,
				"z": 2.1452938336,
				"element": "H" 
			},
			{
				"x": -1.8423301305,
				"y": -3.798917363,
				"z": 4.0709918163,
				"element": "H" 
			},
			{
				"x": -3.8472804231,
				"y": -2.5464074238,
				"z": 4.8535047488,
				"element": "H" 
			},
			{
				"x": -4.5080867596,
				"y": -0.4459640491,
				"z": 3.691640505,
				"element": "H" 
			},
			{
				"x": -3.1730989728,
				"y": 0.4057681771,
				"z": 1.8076197389,
				"element": "H" 
			}
		],
		 "valence_orbital": [ 
			{
				"type": "occ",
				"energy": -0.26808,
				"method": "rhf"
			},
			{
				"type": "occ",
				"energy": -0.25606,
				"method": "rhf"
			},
			{
				"type": "occ",
				"energy": -0.25448,
				"method": "rhf"
			},
			{
				"type": "occ",
				"energy": -0.2479,
				"method": "rhf"
			},
			{
				"type": "occ",
				"energy": -0.19052,
				"method": "rhf"
			},
			{
				"type": "unocc",
				"energy": -0.03004,
				"method": "rhf"
			},
			{
				"type": "unocc",
				"energy": -0.01662,
				"method": "rhf"
			},
			{
				"type": "unocc",
				"energy": -0.00211,
				"method": "rhf"
			},
			{
				"type": "unocc",
				"energy": 0.01406,
				"method": "rhf"
			},
			{
				"type": "unocc",
				"energy": 0.04999,
				"method": "rhf"
			}
		],
		"cosmo_sigma_profile": { 
			"-0.025": 0.0,
			"-0.024": 0.0,
			"-0.023": 0.0,
			"-0.022": 0.0,
			"-0.021": 0.0,
			"-0.02": 0.0,
			"-0.019": 0.0,
			"-0.018": 0.0,
			"-0.017": 0.0,
			"-0.016": 0.00493772196677,
			"-0.015": 0.859842516614,
			"-0.014": 1.40451090742,
			"-0.013": 1.36797273538,
			"-0.012": 1.1468828771,
			"-0.011": 2.21954524338,
			"-0.01": 2.30057023752,
			"-0.009": 2.45413176818,
			"-0.008": 1.39886431695,
			"-0.007": 1.99191983301,
			"-0.006": 10.3486530418,
			"-0.005": 16.0464631825,
			"-0.004": 23.6708843127,
			"-0.003": 24.2050578628,
			"-0.002": 20.283247953,
			"-0.001": 20.8701781368,
			"0.0": 23.4834344134,
			"0.001": 21.9741280994,
			"0.002": 21.6351821279,
			"0.003": 25.2655018705,
			"0.004": 20.8024429451,
			"0.005": 17.0504135475,
			"0.006": 8.25747385371,
			"0.007": 2.05350809434,
			"0.008": 2.58714741438,
			"0.009": 1.9972081127,
			"0.01": 1.85017804867,
			"0.011": 2.14242148725,
			"0.012": 3.55609299641,
			"0.013": 2.33208317764,
			"0.014": 0.0,
			"0.015": 0.0,
			"0.016": 0.0,
			"0.017": 0.0,
			"0.018": 0.0,
			"0.019": 0.0,
			"0.02": 0.0,
			"0.021": 0.0,
			"0.022": 0.0,
			"0.023": 0.0,
			"0.024": 0.0,
			"0.025": 0.0
		}
	}
}
