{
	 "smiles": "[O-][N+](=O)C1=CC=C(NC(=O)CCCl)C=C1", 
	 "Tm": 445.15, 
	 "num_atms": 24, 
	 "gaussian": { 
		 "optdone": 1, 
		 "sigma_profile": "yes", 
		 "theory": "DFT", 
		 "functional": "B3LYP", 
		 "basiset": "6-31G**", 
		 "properties": { 
			 "R2extent": 5714.7581, 
			 "electric_dipole_moment_norm": 7.08584827455, 
			 "electric_quadrupole_moment_norm": 8.92615993919, 
			 "total_energy": -1143.67486367, 
			 "HOMO_LUMO_gap": 0.16433, 
			 "cosmo_polarized_energy": -16.25, 
			 "cosmo_cavitation_energy": 30.86, 
			 "cosmo_dispersion_energy": -22.51, 
			 "cosmo_repulsion_energy": 1.76, 
			 "cosmo_total_nonelectrostatic_energy": 10.12, 
			 "SMD_solvation_energy": 7.59 
		},
		"coords": [
			{
				"x": 2.916009599,
				"y": 2.3907064686,
				"z": 2.9577162144,
				"element": "O" 
			},
			{
				"x": 2.0630222899,
				"y": 2.789156374,
				"z": 2.1633848894,
				"element": "N" 
			},
			{
				"x": 1.9850660237,
				"y": 3.9449480979,
				"z": 1.7424502059,
				"element": "O" 
			},
			{
				"x": 1.0721713854,
				"y": 1.8231616831,
				"z": 1.6852461802,
				"element": "C" 
			},
			{
				"x": 1.1249743382,
				"y": 0.5060710073,
				"z": 2.1378927296,
				"element": "C" 
			},
			{
				"x": 0.1884982363,
				"y": -0.4185402359,
				"z": 1.6898129348,
				"element": "C" 
			},
			{
				"x": -0.8065239482,
				"y": -0.01391869,
				"z": 0.7803671027,
				"element": "C" 
			},
			{
				"x": -1.7924613522,
				"y": -0.8774231234,
				"z": 0.2785576127,
				"element": "N" 
			},
			{
				"x": -1.9647082155,
				"y": -2.2238318031,
				"z": 0.5257114708,
				"element": "C" 
			},
			{
				"x": -1.2510266212,
				"y": -2.8830091723,
				"z": 1.2659416016,
				"element": "O" 
			},
			{
				"x": -3.1634092767,
				"y": -2.8655505117,
				"z": -0.1837104596,
				"element": "C" 
			},
			{
				"x": -3.2156060565,
				"y": -2.748830396,
				"z": -1.7069451902,
				"element": "C" 
			},
			{
				"x": -3.7936267974,
				"y": -1.114504147,
				"z": -2.2900922891,
				"element": "Cl" 
			},
			{
				"x": -0.8413805345,
				"y": 1.3224170498,
				"z": 0.3357153402,
				"element": "C" 
			},
			{
				"x": 0.0932725208,
				"y": 2.2424936417,
				"z": 0.784109564,
				"element": "C" 
			},
			{
				"x": 1.8997289054,
				"y": 0.2184028163,
				"z": 2.8376614387,
				"element": "H" 
			},
			{
				"x": 0.213586198,
				"y": -1.4434828314,
				"z": 2.0291946541,
				"element": "H" 
			},
			{
				"x": -2.4458474429,
				"y": -0.4580291577,
				"z": -0.3727034772,
				"element": "H" 
			},
			{
				"x": -3.0990638428,
				"y": -3.9286455038,
				"z": 0.0651918481,
				"element": "H" 
			},
			{
				"x": -4.0971817938,
				"y": -2.4855981784,
				"z": 0.2472227859,
				"element": "H" 
			},
			{
				"x": -2.2408314281,
				"y": -2.907695669,
				"z": -2.169963757,
				"element": "H" 
			},
			{
				"x": -3.9282417355,
				"y": -3.4625941558,
				"z": -2.1196159449,
				"element": "H" 
			},
			{
				"x": -1.6080208674,
				"y": 1.6361246361,
				"z": -0.3676650196,
				"element": "H" 
			},
			{
				"x": 0.079900416,
				"y": 3.2726718008,
				"z": 0.4515195645,
				"element": "H" 
			}
		],
		 "valence_orbital": [ 
			{
				"type": "occ",
				"energy": -0.30135,
				"method": "rhf"
			},
			{
				"type": "occ",
				"energy": -0.28379,
				"method": "rhf"
			},
			{
				"type": "occ",
				"energy": -0.278,
				"method": "rhf"
			},
			{
				"type": "occ",
				"energy": -0.27732,
				"method": "rhf"
			},
			{
				"type": "occ",
				"energy": -0.24847,
				"method": "rhf"
			},
			{
				"type": "unocc",
				"energy": -0.08414,
				"method": "rhf"
			},
			{
				"type": "unocc",
				"energy": -0.02618,
				"method": "rhf"
			},
			{
				"type": "unocc",
				"energy": -0.02115,
				"method": "rhf"
			},
			{
				"type": "unocc",
				"energy": -0.00875,
				"method": "rhf"
			},
			{
				"type": "unocc",
				"energy": 0.02986,
				"method": "rhf"
			}
		],
		"cosmo_sigma_profile": { 
			"-0.025": 0.0,
			"-0.024": 0.0,
			"-0.023": 0.0,
			"-0.022": 0.0,
			"-0.021": 0.0,
			"-0.02": 0.0,
			"-0.019": 0.0,
			"-0.018": 0.0,
			"-0.017": 0.0,
			"-0.016": 0.0,
			"-0.015": 0.0,
			"-0.014": 0.0,
			"-0.013": 0.00860604507508,
			"-0.012": 0.645230221346,
			"-0.011": 0.968915990069,
			"-0.01": 0.818463232651,
			"-0.009": 3.08719542658,
			"-0.008": 10.3709477948,
			"-0.007": 16.6819033139,
			"-0.006": 16.8493306272,
			"-0.005": 14.9800463337,
			"-0.004": 13.3002518267,
			"-0.003": 12.1888421918,
			"-0.002": 11.4554185108,
			"-0.001": 16.8387811947,
			"0.0": 19.531547123,
			"0.001": 20.3495957221,
			"0.002": 17.3217409029,
			"0.003": 8.9510403582,
			"0.004": 8.27414834846,
			"0.005": 10.4557274874,
			"0.006": 8.60591478135,
			"0.007": 6.89290323659,
			"0.008": 11.064605437,
			"0.009": 6.18888913861,
			"0.01": 5.81311042273,
			"0.011": 3.33383242537,
			"0.012": 2.60987512419,
			"0.013": 1.35086235792,
			"0.014": 0.0850772016985,
			"0.015": 0.0,
			"0.016": 0.0,
			"0.017": 0.0,
			"0.018": 0.0,
			"0.019": 0.0,
			"0.02": 0.0,
			"0.021": 0.0,
			"0.022": 0.0,
			"0.023": 0.0,
			"0.024": 0.0,
			"0.025": 0.0
		}
	}
}
