{
	 "smiles": "O=C1NC(=O)C(=O)C(=O)N1", 
	 "Tm": 529.15, 
	 "num_atms": 12, 
	 "gaussian": { 
		 "optdone": 1, 
		 "sigma_profile": "yes", 
		 "theory": "DFT", 
		 "functional": "B3LYP", 
		 "basiset": "6-31G**", 
		 "properties": { 
			 "R2extent": 2460.9726, 
			 "electric_dipole_moment_norm": 2.72222943375, 
			 "electric_quadrupole_moment_norm": 19.882814882, 
			 "total_energy": -564.037827293, 
			 "HOMO_LUMO_gap": 0.14025, 
			 "cosmo_polarized_energy": -19.7, 
			 "cosmo_cavitation_energy": 18.63, 
			 "cosmo_dispersion_energy": -13.8, 
			 "cosmo_repulsion_energy": 1.13, 
			 "cosmo_total_nonelectrostatic_energy": 5.97, 
			 "SMD_solvation_energy": 6.81 
		},
		"coords": [
			{
				"x": -0.4729221562,
				"y": -0.7149144509,
				"z": 0.9953190581,
				"element": "O" 
			},
			{
				"x": -0.4831265314,
				"y": 0.4589547757,
				"z": 0.6962485011,
				"element": "C" 
			},
			{
				"x": -0.9299033176,
				"y": 1.449689779,
				"z": 1.5711194527,
				"element": "N" 
			},
			{
				"x": -0.9968920999,
				"y": 2.8211113623,
				"z": 1.3632327178,
				"element": "C" 
			},
			{
				"x": -1.4050303229,
				"y": 3.5934041403,
				"z": 2.1993669778,
				"element": "O" 
			},
			{
				"x": -0.5080419842,
				"y": 3.2857671393,
				"z": -0.0240613412,
				"element": "C" 
			},
			{
				"x": -0.5183790436,
				"y": 4.4511777389,
				"z": -0.3210468348,
				"element": "O" 
			},
			{
				"x": -0.0055902425,
				"y": 2.2220891236,
				"z": -1.0218643851,
				"element": "C" 
			},
			{
				"x": 0.3932735472,
				"y": 2.5067544002,
				"z": -2.1273086503,
				"element": "O" 
			},
			{
				"x": -0.0489450103,
				"y": 0.9175013749,
				"z": -0.5478518028,
				"element": "N" 
			},
			{
				"x": -1.243696523,
				"y": 1.1083348635,
				"z": 2.4734836117,
				"element": "H" 
			},
			{
				"x": 0.2743536845,
				"y": 0.1912297533,
				"z": -1.1781373051,
				"element": "H" 
			}
		],
		 "valence_orbital": [ 
			{
				"type": "occ",
				"energy": -0.3336,
				"method": "rhf"
			},
			{
				"type": "occ",
				"energy": -0.33017,
				"method": "rhf"
			},
			{
				"type": "occ",
				"energy": -0.32797,
				"method": "rhf"
			},
			{
				"type": "occ",
				"energy": -0.3253,
				"method": "rhf"
			},
			{
				"type": "occ",
				"energy": -0.28055,
				"method": "rhf"
			},
			{
				"type": "unocc",
				"energy": -0.1403,
				"method": "rhf"
			},
			{
				"type": "unocc",
				"energy": -0.02908,
				"method": "rhf"
			},
			{
				"type": "unocc",
				"energy": -0.01735,
				"method": "rhf"
			},
			{
				"type": "unocc",
				"energy": 0.05263,
				"method": "rhf"
			},
			{
				"type": "unocc",
				"energy": 0.08269,
				"method": "rhf"
			}
		],
		"cosmo_sigma_profile": { 
			"-0.025": 0.0,
			"-0.024": 0.0,
			"-0.023": 0.0,
			"-0.022": 0.0,
			"-0.021": 0.0,
			"-0.02": 0.0,
			"-0.019": 0.0,
			"-0.018": 0.789312201456,
			"-0.017": 2.25355480679,
			"-0.016": 2.24460191111,
			"-0.015": 2.46871737944,
			"-0.014": 3.16452808887,
			"-0.013": 2.99735954906,
			"-0.012": 2.76269206563,
			"-0.011": 3.66242001709,
			"-0.01": 3.94436794126,
			"-0.009": 3.67203144139,
			"-0.008": 5.54544690836,
			"-0.007": 4.68519260605,
			"-0.006": 4.99119006569,
			"-0.005": 9.99352328146,
			"-0.004": 6.26896985266,
			"-0.003": 3.26418585135,
			"-0.002": 3.3619262362,
			"-0.001": 4.60014776599,
			"0.0": 2.67981417411,
			"0.001": 3.46014774664,
			"0.002": 4.79929002837,
			"0.003": 4.01640450423,
			"0.004": 2.87189938567,
			"0.005": 5.08806005829,
			"0.006": 6.20857845138,
			"0.007": 7.72724848378,
			"0.008": 9.47961196298,
			"0.009": 11.5998572586,
			"0.01": 15.6362483088,
			"0.011": 5.96097700454,
			"0.012": 0.0802531037322,
			"0.013": 0.0,
			"0.014": 0.0,
			"0.015": 0.0,
			"0.016": 0.0,
			"0.017": 0.0,
			"0.018": 0.0,
			"0.019": 0.0,
			"0.02": 0.0,
			"0.021": 0.0,
			"0.022": 0.0,
			"0.023": 0.0,
			"0.024": 0.0,
			"0.025": 0.0
		}
	}
}
