{
	 "smiles": "CC(=O)C1=CC=C(N)C=C1", 
	 "Tm": 379.15, 
	 "num_atms": 19, 
	 "gaussian": { 
		 "optdone": 1, 
		 "sigma_profile": "yes", 
		 "theory": "DFT", 
		 "functional": "B3LYP", 
		 "basiset": "6-31G**", 
		 "properties": { 
			 "R2extent": 1884.2608, 
			 "electric_dipole_moment_norm": 4.85016352714, 
			 "electric_quadrupole_moment_norm": 12.1478704389, 
			 "total_energy": -440.261235853, 
			 "HOMO_LUMO_gap": 0.17497, 
			 "cosmo_polarized_energy": -13.72, 
			 "cosmo_cavitation_energy": 22.88, 
			 "cosmo_dispersion_energy": -16.91, 
			 "cosmo_repulsion_energy": 1.37, 
			 "cosmo_total_nonelectrostatic_energy": 7.34, 
			 "SMD_solvation_energy": 4.64 
		},
		"coords": [
			{
				"x": 2.1167061011,
				"y": -0.5226053985,
				"z": 1.8952339276,
				"element": "C" 
			},
			{
				"x": 1.5819780475,
				"y": -0.4489605403,
				"z": 0.4714810264,
				"element": "C" 
			},
			{
				"x": 2.0939452514,
				"y": -1.1255597102,
				"z": -0.4122589538,
				"element": "O" 
			},
			{
				"x": 0.435652011,
				"y": 0.4539298464,
				"z": 0.1813575916,
				"element": "C" 
			},
			{
				"x": -0.1845112157,
				"y": 1.2554786938,
				"z": 1.1540983224,
				"element": "C" 
			},
			{
				"x": -1.2505535087,
				"y": 2.0847896484,
				"z": 0.8306602306,
				"element": "C" 
			},
			{
				"x": -1.7376110548,
				"y": 2.1393718692,
				"z": -0.4894189426,
				"element": "C" 
			},
			{
				"x": -2.8323716304,
				"y": 2.9255456912,
				"z": -0.8088936105,
				"element": "N" 
			},
			{
				"x": -1.1189656989,
				"y": 1.3357745682,
				"z": -1.4700354727,
				"element": "C" 
			},
			{
				"x": -0.0565931045,
				"y": 0.5139658,
				"z": -1.1351391196,
				"element": "C" 
			},
			{
				"x": 1.339031846,
				"y": -0.8516599658,
				"z": 2.5933577922,
				"element": "H" 
			},
			{
				"x": 2.4687363746,
				"y": 0.4574005656,
				"z": 2.2362448306,
				"element": "H" 
			},
			{
				"x": 2.9453340967,
				"y": -1.2309844938,
				"z": 1.9181238539,
				"element": "H" 
			},
			{
				"x": 0.1671738968,
				"y": 1.2388433618,
				"z": 2.1810073635,
				"element": "H" 
			},
			{
				"x": -1.7187117188,
				"y": 2.6951796909,
				"z": 1.598902047,
				"element": "H" 
			},
			{
				"x": -3.041354709,
				"y": 3.6887451797,
				"z": -0.1820770049,
				"element": "H" 
			},
			{
				"x": -2.9488835261,
				"y": 3.1637373103,
				"z": -1.7829743477,
				"element": "H" 
			},
			{
				"x": -1.486789718,
				"y": 1.3652238143,
				"z": -2.4929129429,
				"element": "H" 
			},
			{
				"x": 0.4250882597,
				"y": -0.1047159313,
				"z": -1.885256591,
				"element": "H" 
			}
		],
		 "valence_orbital": [ 
			{
				"type": "occ",
				"energy": -0.34022,
				"method": "rhf"
			},
			{
				"type": "occ",
				"energy": -0.30839,
				"method": "rhf"
			},
			{
				"type": "occ",
				"energy": -0.25498,
				"method": "rhf"
			},
			{
				"type": "occ",
				"energy": -0.23373,
				"method": "rhf"
			},
			{
				"type": "occ",
				"energy": -0.21141,
				"method": "rhf"
			},
			{
				"type": "unocc",
				"energy": -0.03644,
				"method": "rhf"
			},
			{
				"type": "unocc",
				"energy": -0.00283,
				"method": "rhf"
			},
			{
				"type": "unocc",
				"energy": 0.0551,
				"method": "rhf"
			},
			{
				"type": "unocc",
				"energy": 0.07432,
				"method": "rhf"
			},
			{
				"type": "unocc",
				"energy": 0.09694,
				"method": "rhf"
			}
		],
		"cosmo_sigma_profile": { 
			"-0.025": 0.0,
			"-0.024": 0.0,
			"-0.023": 0.0,
			"-0.022": 0.0,
			"-0.021": 0.0,
			"-0.02": 0.0,
			"-0.019": 0.0,
			"-0.018": 0.0,
			"-0.017": 0.0,
			"-0.016": 0.0,
			"-0.015": 0.0,
			"-0.014": 0.137700572541,
			"-0.013": 2.10723312389,
			"-0.012": 3.24045955056,
			"-0.011": 2.1320145024,
			"-0.01": 3.87020557898,
			"-0.009": 2.86134678252,
			"-0.008": 2.83531828893,
			"-0.007": 3.38054051607,
			"-0.006": 7.80391855705,
			"-0.005": 14.5730848172,
			"-0.004": 12.8958793252,
			"-0.003": 12.0224078636,
			"-0.002": 11.237951949,
			"-0.001": 11.2553101302,
			"0.0": 11.3226643487,
			"0.001": 7.921254928,
			"0.002": 7.90188237874,
			"0.003": 10.492164808,
			"0.004": 12.0721465873,
			"0.005": 14.5960810871,
			"0.006": 4.14294379341,
			"0.007": 2.76930748353,
			"0.008": 2.39550127252,
			"0.009": 2.4718423553,
			"0.01": 2.83230712324,
			"0.011": 2.14360631775,
			"0.012": 4.20642968214,
			"0.013": 4.15655231791,
			"0.014": 1.43169816474,
			"0.015": 0.16197204747,
			"0.016": 0.0,
			"0.017": 0.0,
			"0.018": 0.0,
			"0.019": 0.0,
			"0.02": 0.0,
			"0.021": 0.0,
			"0.022": 0.0,
			"0.023": 0.0,
			"0.024": 0.0,
			"0.025": 0.0
		}
	}
}
