{
	 "smiles": "CC1=CC=C(C=C1)C1=NN(C(N)=C1)C1=CC=CC=C1", 
	 "Tm": 447.15, 
	 "num_atms": 34, 
	 "gaussian": { 
		 "optdone": 1, 
		 "sigma_profile": "yes", 
		 "theory": "DFT", 
		 "functional": "B3LYP", 
		 "basiset": "6-31G**", 
		 "properties": { 
			 "R2extent": 7920.1434, 
			 "electric_dipole_moment_norm": 2.95055975367, 
			 "electric_quadrupole_moment_norm": 18.2627601348, 
			 "total_energy": -782.993879809, 
			 "HOMO_LUMO_gap": 0.17302, 
			 "cosmo_polarized_energy": -14.03, 
			 "cosmo_cavitation_energy": 37.72, 
			 "cosmo_dispersion_energy": -27.53, 
			 "cosmo_repulsion_energy": 2.1, 
			 "cosmo_total_nonelectrostatic_energy": 12.28, 
			 "SMD_solvation_energy": 5.68 
		},
		"coords": [
			{
				"x": 0.2668879684,
				"y": -5.2321692612,
				"z": -2.2444939753,
				"element": "C" 
			},
			{
				"x": 0.5304043891,
				"y": -3.8119842879,
				"z": -1.8033424042,
				"element": "C" 
			},
			{
				"x": -0.4100785671,
				"y": -2.7969688439,
				"z": -2.0394661681,
				"element": "C" 
			},
			{
				"x": -0.1872727862,
				"y": -1.4916782054,
				"z": -1.6169411011,
				"element": "C" 
			},
			{
				"x": 0.9948793463,
				"y": -1.1472225045,
				"z": -0.938433688,
				"element": "C" 
			},
			{
				"x": 1.9371462231,
				"y": -2.1579800214,
				"z": -0.7025619142,
				"element": "C" 
			},
			{
				"x": 1.7068310916,
				"y": -3.4652802554,
				"z": -1.1295839137,
				"element": "C" 
			},
			{
				"x": 1.2280999778,
				"y": 0.2372371019,
				"z": -0.4967902074,
				"element": "C" 
			},
			{
				"x": 0.3196091472,
				"y": 1.1826500542,
				"z": -0.730071884,
				"element": "N" 
			},
			{
				"x": 0.83606967,
				"y": 2.3261072625,
				"z": -0.1784733002,
				"element": "N" 
			},
			{
				"x": 2.0775607212,
				"y": 2.1032458247,
				"z": 0.3695816329,
				"element": "C" 
			},
			{
				"x": 2.8172538136,
				"y": 3.1011754342,
				"z": 1.0028302949,
				"element": "N" 
			},
			{
				"x": 2.3562620362,
				"y": 0.7629124614,
				"z": 0.1916984284,
				"element": "C" 
			},
			{
				"x": 0.1160287292,
				"y": 3.5419430124,
				"z": -0.3002778853,
				"element": "C" 
			},
			{
				"x": -0.662358395,
				"y": 3.7558160637,
				"z": -1.4459943912,
				"element": "C" 
			},
			{
				"x": -1.384093834,
				"y": 4.9391049333,
				"z": -1.5775168432,
				"element": "C" 
			},
			{
				"x": -1.3313688151,
				"y": 5.9193875925,
				"z": -0.5824890631,
				"element": "C" 
			},
			{
				"x": -0.561865082,
				"y": 5.6972766092,
				"z": 0.5594209031,
				"element": "C" 
			},
			{
				"x": 0.1549732102,
				"y": 4.5091812338,
				"z": 0.7134391571,
				"element": "C" 
			},
			{
				"x": 1.1834951891,
				"y": -5.8292178074,
				"z": -2.2410958923,
				"element": "H" 
			},
			{
				"x": -0.1546216422,
				"y": -5.266507056,
				"z": -3.2548281966,
				"element": "H" 
			},
			{
				"x": -0.4513169395,
				"y": -5.7294416023,
				"z": -1.5802528815,
				"element": "H" 
			},
			{
				"x": -1.3322730897,
				"y": -3.0364661084,
				"z": -2.5643881005,
				"element": "H" 
			},
			{
				"x": -0.9240234191,
				"y": -0.7182954504,
				"z": -1.8058093647,
				"element": "H" 
			},
			{
				"x": 2.8622450655,
				"y": -1.9268142402,
				"z": -0.1828459538,
				"element": "H" 
			},
			{
				"x": 2.4561703156,
				"y": -4.2290662598,
				"z": -0.9353018947,
				"element": "H" 
			},
			{
				"x": 2.7444414353,
				"y": 4.0094885051,
				"z": 0.5574527398,
				"element": "H" 
			},
			{
				"x": 3.7880598778,
				"y": 2.8356749705,
				"z": 1.1104474468,
				"element": "H" 
			},
			{
				"x": 3.2532069957,
				"y": 0.2510507758,
				"z": 0.5056387499,
				"element": "H" 
			},
			{
				"x": -0.6947965226,
				"y": 2.984573536,
				"z": -2.2058956596,
				"element": "H" 
			},
			{
				"x": -1.9865027649,
				"y": 5.0989279887,
				"z": -2.4671268123,
				"element": "H" 
			},
			{
				"x": -1.8912760054,
				"y": 6.8429948266,
				"z": -0.6939271755,
				"element": "H" 
			},
			{
				"x": -0.5291821258,
				"y": 6.4426530355,
				"z": 1.3488681687,
				"element": "H" 
			},
			{
				"x": 0.7176047856,
				"y": 4.3214906823,
				"z": 1.620831149,
				"element": "H" 
			}
		],
		 "valence_orbital": [ 
			{
				"type": "occ",
				"energy": -0.25532,
				"method": "rhf"
			},
			{
				"type": "occ",
				"energy": -0.24256,
				"method": "rhf"
			},
			{
				"type": "occ",
				"energy": -0.23901,
				"method": "rhf"
			},
			{
				"type": "occ",
				"energy": -0.21252,
				"method": "rhf"
			},
			{
				"type": "occ",
				"energy": -0.19617,
				"method": "rhf"
			},
			{
				"type": "unocc",
				"energy": -0.02315,
				"method": "rhf"
			},
			{
				"type": "unocc",
				"energy": -0.00727,
				"method": "rhf"
			},
			{
				"type": "unocc",
				"energy": 0.00182,
				"method": "rhf"
			},
			{
				"type": "unocc",
				"energy": 0.01084,
				"method": "rhf"
			},
			{
				"type": "unocc",
				"energy": 0.05745,
				"method": "rhf"
			}
		],
		"cosmo_sigma_profile": { 
			"-0.025": 0.0,
			"-0.024": 0.0,
			"-0.023": 0.0,
			"-0.022": 0.0,
			"-0.021": 0.0,
			"-0.02": 0.0,
			"-0.019": 0.0,
			"-0.018": 0.0,
			"-0.017": 0.0,
			"-0.016": 0.0,
			"-0.015": 0.0,
			"-0.014": 0.347557838996,
			"-0.013": 1.67994436296,
			"-0.012": 2.25673328644,
			"-0.011": 2.95006431515,
			"-0.01": 2.95187025766,
			"-0.009": 2.59074617854,
			"-0.008": 2.9247557841,
			"-0.007": 4.4722827241,
			"-0.006": 10.0903041907,
			"-0.005": 18.5240613483,
			"-0.004": 25.0010544711,
			"-0.003": 25.0561561526,
			"-0.002": 21.3577369702,
			"-0.001": 19.9442553856,
			"0.0": 20.1876577888,
			"0.001": 19.8067355295,
			"0.002": 17.023451088,
			"0.003": 20.0936558717,
			"0.004": 25.9656362228,
			"0.005": 27.6333951285,
			"0.006": 15.5890651763,
			"0.007": 4.12233805035,
			"0.008": 3.04063191393,
			"0.009": 2.78372721633,
			"0.01": 1.49108120318,
			"0.011": 1.58850002324,
			"0.012": 1.22066238858,
			"0.013": 0.722897360111,
			"0.014": 0.0111023572608,
			"0.015": 0.0,
			"0.016": 0.0,
			"0.017": 0.0,
			"0.018": 0.0,
			"0.019": 0.0,
			"0.02": 0.0,
			"0.021": 0.0,
			"0.022": 0.0,
			"0.023": 0.0,
			"0.024": 0.0,
			"0.025": 0.0
		}
	}
}
