{
	 "smiles": "CN(C)C1=CC=C(CN2N=CC=C2N)C=C1", 
	 "Tm": 334.15, 
	 "num_atms": 32, 
	 "gaussian": { 
		 "optdone": 1, 
		 "sigma_profile": "yes", 
		 "theory": "DFT", 
		 "functional": "B3LYP", 
		 "basiset": "6-31G**", 
		 "properties": { 
			 "R2extent": 4838.1623, 
			 "electric_dipole_moment_norm": 5.34423601556, 
			 "electric_quadrupole_moment_norm": 6.37723659511, 
			 "total_energy": -685.897187621, 
			 "HOMO_LUMO_gap": 0.19075, 
			 "cosmo_polarized_energy": -14.06, 
			 "cosmo_cavitation_energy": 34.46, 
			 "cosmo_dispersion_energy": -24.63, 
			 "cosmo_repulsion_energy": 1.91, 
			 "cosmo_total_nonelectrostatic_energy": 11.74, 
			 "SMD_solvation_energy": 4.6 
		},
		"coords": [
			{
				"x": 0.8282707342,
				"y": -4.0074555847,
				"z": 2.3775274378,
				"element": "C" 
			},
			{
				"x": 0.5396517124,
				"y": -2.6955389684,
				"z": 2.9317406541,
				"element": "N" 
			},
			{
				"x": -0.2498571313,
				"y": -2.6215620034,
				"z": 4.1484936921,
				"element": "C" 
			},
			{
				"x": 0.644922414,
				"y": -1.5727008419,
				"z": 2.1197336519,
				"element": "C" 
			},
			{
				"x": 1.2345553898,
				"y": -1.6465995673,
				"z": 0.8338929499,
				"element": "C" 
			},
			{
				"x": 1.3681657864,
				"y": -0.5155757358,
				"z": 0.0390503791,
				"element": "C" 
			},
			{
				"x": 0.9176989799,
				"y": 0.7399494725,
				"z": 0.4698983593,
				"element": "C" 
			},
			{
				"x": 1.08870723,
				"y": 1.970488785,
				"z": -0.400912272,
				"element": "C" 
			},
			{
				"x": 0.559706946,
				"y": 1.8101869635,
				"z": -1.7472151905,
				"element": "N" 
			},
			{
				"x": 1.4038434074,
				"y": 1.6678181525,
				"z": -2.8122008499,
				"element": "N" 
			},
			{
				"x": 0.5913344704,
				"y": 1.5278595767,
				"z": -3.8556784849,
				"element": "C" 
			},
			{
				"x": -0.7723181232,
				"y": 1.5536021177,
				"z": -3.4882124144,
				"element": "C" 
			},
			{
				"x": -0.7508081432,
				"y": 1.7289536343,
				"z": -2.1112769359,
				"element": "C" 
			},
			{
				"x": -1.7663166257,
				"y": 1.8901329655,
				"z": -1.1638804911,
				"element": "N" 
			},
			{
				"x": 0.3168381595,
				"y": 0.8141981289,
				"z": 1.7296823398,
				"element": "C" 
			},
			{
				"x": 0.1755989799,
				"y": -0.3095742066,
				"z": 2.5426769367,
				"element": "C" 
			},
			{
				"x": 0.1644756943,
				"y": -4.276935705,
				"z": 1.540925135,
				"element": "H" 
			},
			{
				"x": 0.7115758846,
				"y": -4.7590252316,
				"z": 3.1599300249,
				"element": "H" 
			},
			{
				"x": 1.8622783565,
				"y": -4.065863687,
				"z": 2.0191847134,
				"element": "H" 
			},
			{
				"x": -0.1984087319,
				"y": -3.5799761569,
				"z": 4.6675278441,
				"element": "H" 
			},
			{
				"x": 0.1457919682,
				"y": -1.8586140161,
				"z": 4.828806361,
				"element": "H" 
			},
			{
				"x": -1.3103698677,
				"y": -2.389443602,
				"z": 3.9606210254,
				"element": "H" 
			},
			{
				"x": 1.592927761,
				"y": -2.5940020967,
				"z": 0.4506000507,
				"element": "H" 
			},
			{
				"x": 1.823349985,
				"y": -0.6051362733,
				"z": -0.9439805181,
				"element": "H" 
			},
			{
				"x": 0.5989677628,
				"y": 2.8314582116,
				"z": 0.0684665586,
				"element": "H" 
			},
			{
				"x": 2.1443901402,
				"y": 2.2186596408,
				"z": -0.540321475,
				"element": "H" 
			},
			{
				"x": 1.012740546,
				"y": 1.4065208259,
				"z": -4.8454211304,
				"element": "H" 
			},
			{
				"x": -1.6424554078,
				"y": 1.4536584208,
				"z": -4.1202863716,
				"element": "H" 
			},
			{
				"x": -1.6361153716,
				"y": 1.3053935786,
				"z": -0.3432025621,
				"element": "H" 
			},
			{
				"x": -2.6817127094,
				"y": 1.72623202,
				"z": -1.5632109357,
				"element": "H" 
			},
			{
				"x": -0.0505118613,
				"y": 1.7721170977,
				"z": 2.0929763498,
				"element": "H" 
			},
			{
				"x": -0.3041183353,
				"y": -0.1956259157,
				"z": 3.5068651678,
				"element": "H" 
			}
		],
		 "valence_orbital": [ 
			{
				"type": "occ",
				"energy": -0.26579,
				"method": "rhf"
			},
			{
				"type": "occ",
				"energy": -0.24773,
				"method": "rhf"
			},
			{
				"type": "occ",
				"energy": -0.2281,
				"method": "rhf"
			},
			{
				"type": "occ",
				"energy": -0.19524,
				"method": "rhf"
			},
			{
				"type": "occ",
				"energy": -0.19085,
				"method": "rhf"
			},
			{
				"type": "unocc",
				"energy": -0.0001,
				"method": "rhf"
			},
			{
				"type": "unocc",
				"energy": 0.0114,
				"method": "rhf"
			},
			{
				"type": "unocc",
				"energy": 0.04865,
				"method": "rhf"
			},
			{
				"type": "unocc",
				"energy": 0.08225,
				"method": "rhf"
			},
			{
				"type": "unocc",
				"energy": 0.08601,
				"method": "rhf"
			}
		],
		"cosmo_sigma_profile": { 
			"-0.025": 0.0,
			"-0.024": 0.0,
			"-0.023": 0.0,
			"-0.022": 0.0,
			"-0.021": 0.0,
			"-0.02": 0.0,
			"-0.019": 0.0,
			"-0.018": 0.0,
			"-0.017": 0.0,
			"-0.016": 0.0,
			"-0.015": 0.0,
			"-0.014": 0.0,
			"-0.013": 0.78962146732,
			"-0.012": 1.33426275383,
			"-0.011": 1.4235223168,
			"-0.01": 2.97004814175,
			"-0.009": 1.73967215108,
			"-0.008": 2.21465539549,
			"-0.007": 2.66587385543,
			"-0.006": 10.9519854173,
			"-0.005": 21.3130113041,
			"-0.004": 23.7780439511,
			"-0.003": 28.7010220532,
			"-0.002": 27.108757199,
			"-0.001": 26.6701120794,
			"0.0": 14.7371270249,
			"0.001": 11.4347544073,
			"0.002": 11.6169048567,
			"0.003": 13.5484899735,
			"0.004": 12.7688308913,
			"0.005": 14.2274300799,
			"0.006": 15.5285135763,
			"0.007": 10.0717599849,
			"0.008": 3.74917512821,
			"0.009": 1.62718134404,
			"0.01": 2.02215888461,
			"0.011": 2.01103396041,
			"0.012": 1.93223202229,
			"0.013": 1.60281232217,
			"0.014": 1.30390314228,
			"0.015": 1.25819482517,
			"0.016": 1.0688205959,
			"0.017": 0.363388059292,
			"0.018": 0.0,
			"0.019": 0.0,
			"0.02": 0.0,
			"0.021": 0.0,
			"0.022": 0.0,
			"0.023": 0.0,
			"0.024": 0.0,
			"0.025": 0.0
		}
	}
}
