{
	 "smiles": "[O-][N+](=O)C1=C(Cl)C=CC(=C1)N1CCCC1=O", 
	 "Tm": 411.15, 
	 "num_atms": 25, 
	 "gaussian": { 
		 "optdone": 1, 
		 "sigma_profile": "yes", 
		 "theory": "DFT", 
		 "functional": "B3LYP", 
		 "basiset": "6-31G**", 
		 "properties": { 
			 "R2extent": 5054.2805, 
			 "electric_dipole_moment_norm": 8.72991845838, 
			 "electric_quadrupole_moment_norm": 11.5663914303, 
			 "total_energy": -1181.76232864, 
			 "HOMO_LUMO_gap": 0.15613, 
			 "cosmo_polarized_energy": -16.14, 
			 "cosmo_cavitation_energy": 30.96, 
			 "cosmo_dispersion_energy": -22.93, 
			 "cosmo_repulsion_energy": 1.78, 
			 "cosmo_total_nonelectrostatic_energy": 9.81, 
			 "SMD_solvation_energy": 7.19 
		},
		"coords": [
			{
				"x": 3.8962961246,
				"y": -0.1309922736,
				"z": 1.5119693109,
				"element": "O" 
			},
			{
				"x": 3.3504461221,
				"y": -0.4969155374,
				"z": 0.476236893,
				"element": "N" 
			},
			{
				"x": 3.8977922833,
				"y": -0.5994193216,
				"z": -0.619854022,
				"element": "O" 
			},
			{
				"x": 1.9087525904,
				"y": -0.8103264776,
				"z": 0.5328016637,
				"element": "C" 
			},
			{
				"x": 1.3181713694,
				"y": -1.4386771602,
				"z": 1.6379769892,
				"element": "C" 
			},
			{
				"x": 2.2052702288,
				"y": -2.0096195551,
				"z": 3.0257330812,
				"element": "Cl" 
			},
			{
				"x": -0.0557911075,
				"y": -1.6737174124,
				"z": 1.5921468695,
				"element": "C" 
			},
			{
				"x": -0.8181559845,
				"y": -1.2802433555,
				"z": 0.4973322344,
				"element": "C" 
			},
			{
				"x": -0.2205195611,
				"y": -0.6557937218,
				"z": -0.6119058385,
				"element": "C" 
			},
			{
				"x": 1.1656441361,
				"y": -0.4369676908,
				"z": -0.5829101146,
				"element": "C" 
			},
			{
				"x": -1.0061457287,
				"y": -0.2838285038,
				"z": -1.7187722691,
				"element": "N" 
			},
			{
				"x": -2.4201829973,
				"y": -0.6688609229,
				"z": -1.8242608539,
				"element": "C" 
			},
			{
				"x": -2.7919226084,
				"y": -0.3160229486,
				"z": -3.27588487,
				"element": "C" 
			},
			{
				"x": -1.8357751587,
				"y": 0.8285677577,
				"z": -3.6258651026,
				"element": "C" 
			},
			{
				"x": -0.6204012014,
				"y": 0.5934595382,
				"z": -2.7357650518,
				"element": "C" 
			},
			{
				"x": 0.4794657862,
				"y": 1.096157108,
				"z": -2.8727257472,
				"element": "O" 
			},
			{
				"x": -0.5302252667,
				"y": -2.1712127381,
				"z": 2.4303986503,
				"element": "H" 
			},
			{
				"x": -1.884985214,
				"y": -1.4652895778,
				"z": 0.5209622097,
				"element": "H" 
			},
			{
				"x": 1.6656510049,
				"y": 0.0344206199,
				"z": -1.415649811,
				"element": "H" 
			},
			{
				"x": -3.0265191146,
				"y": -0.1064617752,
				"z": -1.1003335106,
				"element": "H" 
			},
			{
				"x": -2.5429507483,
				"y": -1.7348762296,
				"z": -1.6115450082,
				"element": "H" 
			},
			{
				"x": -3.8474977905,
				"y": -0.0529003342,
				"z": -3.3716747574,
				"element": "H" 
			},
			{
				"x": -2.6007633189,
				"y": -1.1773051693,
				"z": -3.9232338851,
				"element": "H" 
			},
			{
				"x": -1.5314422984,
				"y": 0.8678899585,
				"z": -4.67342738,
				"element": "H" 
			},
			{
				"x": -2.253711547,
				"y": 1.8099357232,
				"z": -3.3684496799,
				"element": "H" 
			}
		],
		 "valence_orbital": [ 
			{
				"type": "occ",
				"energy": -0.30037,
				"method": "rhf"
			},
			{
				"type": "occ",
				"energy": -0.29493,
				"method": "rhf"
			},
			{
				"type": "occ",
				"energy": -0.27508,
				"method": "rhf"
			},
			{
				"type": "occ",
				"energy": -0.26813,
				"method": "rhf"
			},
			{
				"type": "occ",
				"energy": -0.23824,
				"method": "rhf"
			},
			{
				"type": "unocc",
				"energy": -0.08211,
				"method": "rhf"
			},
			{
				"type": "unocc",
				"energy": -0.03856,
				"method": "rhf"
			},
			{
				"type": "unocc",
				"energy": -0.01768,
				"method": "rhf"
			},
			{
				"type": "unocc",
				"energy": 0.0159,
				"method": "rhf"
			},
			{
				"type": "unocc",
				"energy": 0.0214,
				"method": "rhf"
			}
		],
		"cosmo_sigma_profile": { 
			"-0.025": 0.0,
			"-0.024": 0.0,
			"-0.023": 0.0,
			"-0.022": 0.0,
			"-0.021": 0.0,
			"-0.02": 0.0,
			"-0.019": 0.0,
			"-0.018": 0.0,
			"-0.017": 0.0,
			"-0.016": 0.0,
			"-0.015": 0.0,
			"-0.014": 0.0,
			"-0.013": 0.0,
			"-0.012": 0.0,
			"-0.011": 0.0,
			"-0.01": 0.0,
			"-0.009": 0.812716899931,
			"-0.008": 5.74432146279,
			"-0.007": 7.05125544929,
			"-0.006": 16.1999528403,
			"-0.005": 22.0361099765,
			"-0.004": 23.0720407428,
			"-0.003": 17.1846694858,
			"-0.002": 16.5862950349,
			"-0.001": 21.3056940428,
			"0.0": 22.3655725046,
			"0.001": 17.3142628588,
			"0.002": 8.51257676777,
			"0.003": 12.6308546944,
			"0.004": 9.13909637757,
			"0.005": 5.68891264183,
			"0.006": 6.01897636849,
			"0.007": 11.9130925559,
			"0.008": 10.0966593691,
			"0.009": 5.38307211509,
			"0.01": 2.84993123966,
			"0.011": 2.36574757817,
			"0.012": 2.67097596309,
			"0.013": 2.10532511697,
			"0.014": 0.412783072502,
			"0.015": 0.0,
			"0.016": 0.0,
			"0.017": 0.0,
			"0.018": 0.0,
			"0.019": 0.0,
			"0.02": 0.0,
			"0.021": 0.0,
			"0.022": 0.0,
			"0.023": 0.0,
			"0.024": 0.0,
			"0.025": 0.0
		}
	}
}
