{
	 "smiles": "NC1=C(C=CC=N1)C1=CC=CC=C1", 
	 "Tm": 377.15, 
	 "num_atms": 23, 
	 "gaussian": { 
		 "optdone": 1, 
		 "sigma_profile": "yes", 
		 "theory": "DFT", 
		 "functional": "B3LYP", 
		 "basiset": "6-31G**", 
		 "properties": { 
			 "R2extent": 2835.1425, 
			 "electric_dipole_moment_norm": 1.93097756331, 
			 "electric_quadrupole_moment_norm": 6.65280705943, 
			 "total_energy": -534.712659105, 
			 "HOMO_LUMO_gap": 0.17692, 
			 "cosmo_polarized_energy": -8.77, 
			 "cosmo_cavitation_energy": 26.52, 
			 "cosmo_dispersion_energy": -19.71, 
			 "cosmo_repulsion_energy": 1.55, 
			 "cosmo_total_nonelectrostatic_energy": 8.36, 
			 "SMD_solvation_energy": 3.07 
		},
		"coords": [
			{
				"x": -2.2844068508,
				"y": -0.6918116082,
				"z": 0.2350588724,
				"element": "N" 
			},
			{
				"x": -1.6428827342,
				"y": -0.9354443294,
				"z": -0.9669988997,
				"element": "C" 
			},
			{
				"x": -0.5313327329,
				"y": -0.1554953675,
				"z": -1.3975213211,
				"element": "C" 
			},
			{
				"x": 0.0242006096,
				"y": -0.4938044993,
				"z": -2.6332686659,
				"element": "C" 
			},
			{
				"x": -0.5088243892,
				"y": -1.5317941353,
				"z": -3.3992424386,
				"element": "C" 
			},
			{
				"x": -1.6042171495,
				"y": -2.214648497,
				"z": -2.8807681649,
				"element": "C" 
			},
			{
				"x": -2.1566531869,
				"y": -1.9380562537,
				"z": -1.6952472207,
				"element": "N" 
			},
			{
				"x": 0.0442492183,
				"y": 0.9498799812,
				"z": -0.5866264509,
				"element": "C" 
			},
			{
				"x": -0.766050449,
				"y": 1.9474139586,
				"z": -0.0132576515,
				"element": "C" 
			},
			{
				"x": -0.2020616814,
				"y": 2.9973198989,
				"z": 0.7119448231,
				"element": "C" 
			},
			{
				"x": 1.181527916,
				"y": 3.0754513994,
				"z": 0.881121532,
				"element": "C" 
			},
			{
				"x": 1.998512636,
				"y": 2.093331694,
				"z": 0.3177693712,
				"element": "C" 
			},
			{
				"x": 1.4359345296,
				"y": 1.0425393932,
				"z": -0.4056964778,
				"element": "C" 
			},
			{
				"x": -2.8783084248,
				"y": -1.4558817528,
				"z": 0.5267697903,
				"element": "H" 
			},
			{
				"x": -1.738209175,
				"y": -0.2648898847,
				"z": 0.9692435593,
				"element": "H" 
			},
			{
				"x": 0.8692469778,
				"y": 0.0810247561,
				"z": -3.00229573,
				"element": "H" 
			},
			{
				"x": -0.0914303571,
				"y": -1.7948765288,
				"z": -4.3650789206,
				"element": "H" 
			},
			{
				"x": -2.0634956727,
				"y": -3.0306795454,
				"z": -3.4367846312,
				"element": "H" 
			},
			{
				"x": -1.8417822219,
				"y": 1.9047681749,
				"z": -0.1526084593,
				"element": "H" 
			},
			{
				"x": -0.8466441293,
				"y": 3.7608960975,
				"z": 1.1384922146,
				"element": "H" 
			},
			{
				"x": 1.6187171975,
				"y": 3.8926384772,
				"z": 1.4474945988,
				"element": "H" 
			},
			{
				"x": 3.076145714,
				"y": 2.1405213159,
				"z": 0.44774309,
				"element": "H" 
			},
			{
				"x": 2.0768643556,
				"y": 0.2722972552,
				"z": -0.8253428195,
				"element": "H" 
			}
		],
		 "valence_orbital": [ 
			{
				"type": "occ",
				"energy": -0.28413,
				"method": "rhf"
			},
			{
				"type": "occ",
				"energy": -0.25528,
				"method": "rhf"
			},
			{
				"type": "occ",
				"energy": -0.25296,
				"method": "rhf"
			},
			{
				"type": "occ",
				"energy": -0.24494,
				"method": "rhf"
			},
			{
				"type": "occ",
				"energy": -0.20488,
				"method": "rhf"
			},
			{
				"type": "unocc",
				"energy": -0.02796,
				"method": "rhf"
			},
			{
				"type": "unocc",
				"energy": -0.00577,
				"method": "rhf"
			},
			{
				"type": "unocc",
				"energy": 0.00119,
				"method": "rhf"
			},
			{
				"type": "unocc",
				"energy": 0.02471,
				"method": "rhf"
			},
			{
				"type": "unocc",
				"energy": 0.09448,
				"method": "rhf"
			}
		],
		"cosmo_sigma_profile": { 
			"-0.025": 0.0,
			"-0.024": 0.0,
			"-0.023": 0.0,
			"-0.022": 0.0,
			"-0.021": 0.0,
			"-0.02": 0.0,
			"-0.019": 0.0,
			"-0.018": 0.0,
			"-0.017": 0.0,
			"-0.016": 0.0,
			"-0.015": 0.0,
			"-0.014": 0.0,
			"-0.013": 0.0971467067842,
			"-0.012": 1.22128227923,
			"-0.011": 1.59819486151,
			"-0.01": 2.13838447099,
			"-0.009": 2.25350711138,
			"-0.008": 1.7425691725,
			"-0.007": 2.02259865906,
			"-0.006": 9.51378239934,
			"-0.005": 17.2962046794,
			"-0.004": 19.8523378861,
			"-0.003": 16.8604813615,
			"-0.002": 14.2849647552,
			"-0.001": 12.346406581,
			"0.0": 11.4756417673,
			"0.001": 13.7144951021,
			"0.002": 16.485060769,
			"0.003": 17.9085665808,
			"0.004": 18.135093127,
			"0.005": 13.0007481706,
			"0.006": 6.90619887084,
			"0.007": 1.84463525596,
			"0.008": 2.42901284823,
			"0.009": 1.88046587288,
			"0.01": 1.86986483015,
			"0.011": 1.22382689481,
			"0.012": 1.0073915423,
			"0.013": 1.25475255929,
			"0.014": 0.833909150774,
			"0.015": 0.465577974862,
			"0.016": 0.563699930015,
			"0.017": 0.0,
			"0.018": 0.0,
			"0.019": 0.0,
			"0.02": 0.0,
			"0.021": 0.0,
			"0.022": 0.0,
			"0.023": 0.0,
			"0.024": 0.0,
			"0.025": 0.0
		}
	}
}
