{
	 "smiles": "ClS(=O)(=O)C1=CC2=C(CCC2)C=C1", 
	 "Tm": 310.65, 
	 "num_atms": 22, 
	 "gaussian": { 
		 "optdone": 1, 
		 "sigma_profile": "yes", 
		 "theory": "DFT", 
		 "functional": "B3LYP", 
		 "basiset": "6-31G**", 
		 "properties": { 
			 "R2extent": 6304.9299, 
			 "electric_dipole_moment_norm": 6.54962779477, 
			 "electric_quadrupole_moment_norm": 27.9759851546, 
			 "total_energy": -1357.15412888, 
			 "HOMO_LUMO_gap": 0.1825, 
			 "cosmo_polarized_energy": -8.9, 
			 "cosmo_cavitation_energy": 28.51, 
			 "cosmo_dispersion_energy": -21.65, 
			 "cosmo_repulsion_energy": 1.69, 
			 "cosmo_total_nonelectrostatic_energy": 8.55, 
			 "SMD_solvation_energy": 2.87 
		},
		"coords": [
			{
				"x": -4.4628431185,
				"y": -2.6766347507,
				"z": 1.9651371533,
				"element": "Cl" 
			},
			{
				"x": -4.4711528827,
				"y": -1.7663937633,
				"z": 0.0258552869,
				"element": "S" 
			},
			{
				"x": -5.4393489468,
				"y": -0.6786412801,
				"z": 0.0996210325,
				"element": "O" 
			},
			{
				"x": -4.6037430467,
				"y": -2.8617208531,
				"z": -0.9275792409,
				"element": "O" 
			},
			{
				"x": -2.820340302,
				"y": -1.0966051263,
				"z": -0.0590579258,
				"element": "C" 
			},
			{
				"x": -1.8024760891,
				"y": -1.8975010765,
				"z": -0.5872962957,
				"element": "C" 
			},
			{
				"x": -0.5275518577,
				"y": -1.3477479549,
				"z": -0.6645526502,
				"element": "C" 
			},
			{
				"x": -0.2873040581,
				"y": -0.0366137588,
				"z": -0.2187734564,
				"element": "C" 
			},
			{
				"x": 1.1728957499,
				"y": 0.3172854664,
				"z": -0.3949018404,
				"element": "C" 
			},
			{
				"x": 1.6806293955,
				"y": -0.7560967322,
				"z": -1.3910513144,
				"element": "C" 
			},
			{
				"x": 0.7501984209,
				"y": -1.9773338961,
				"z": -1.1777079866,
				"element": "C" 
			},
			{
				"x": -1.3185897963,
				"y": 0.7417996282,
				"z": 0.3064608171,
				"element": "C" 
			},
			{
				"x": -2.6060888968,
				"y": 0.2089615266,
				"z": 0.3891365398,
				"element": "C" 
			},
			{
				"x": -2.0199516338,
				"y": -2.9022601598,
				"z": -0.9336705994,
				"element": "H" 
			},
			{
				"x": 1.6923592705,
				"y": 0.2362740526,
				"z": 0.5704045232,
				"element": "H" 
			},
			{
				"x": 1.3268109251,
				"y": 1.3409653595,
				"z": -0.7508997396,
				"element": "H" 
			},
			{
				"x": 1.5606092954,
				"y": -0.3844682624,
				"z": -2.4144605996,
				"element": "H" 
			},
			{
				"x": 2.737199,
				"y": -0.9982706315,
				"z": -1.2515448932,
				"element": "H" 
			},
			{
				"x": 1.1616580918,
				"y": -2.6585932502,
				"z": -0.4200805511,
				"element": "H" 
			},
			{
				"x": 0.6035358068,
				"y": -2.5672524317,
				"z": -2.0878286178,
				"element": "H" 
			},
			{
				"x": -1.1332126886,
				"y": 1.7583310223,
				"z": 0.6413832511,
				"element": "H" 
			},
			{
				"x": -3.4332926389,
				"y": 0.7922168721,
				"z": 0.7773071071,
				"element": "H" 
			}
		],
		 "valence_orbital": [ 
			{
				"type": "occ",
				"energy": -0.32895,
				"method": "rhf"
			},
			{
				"type": "occ",
				"energy": -0.32344,
				"method": "rhf"
			},
			{
				"type": "occ",
				"energy": -0.30707,
				"method": "rhf"
			},
			{
				"type": "occ",
				"energy": -0.27937,
				"method": "rhf"
			},
			{
				"type": "occ",
				"energy": -0.26708,
				"method": "rhf"
			},
			{
				"type": "unocc",
				"energy": -0.08458,
				"method": "rhf"
			},
			{
				"type": "unocc",
				"energy": -0.03728,
				"method": "rhf"
			},
			{
				"type": "unocc",
				"energy": -0.03098,
				"method": "rhf"
			},
			{
				"type": "unocc",
				"energy": 0.0578,
				"method": "rhf"
			},
			{
				"type": "unocc",
				"energy": 0.08028,
				"method": "rhf"
			}
		],
		"cosmo_sigma_profile": { 
			"-0.025": 0.0,
			"-0.024": 0.0,
			"-0.023": 0.0,
			"-0.022": 0.0,
			"-0.021": 0.0,
			"-0.02": 0.0,
			"-0.019": 0.0,
			"-0.018": 0.0,
			"-0.017": 0.0,
			"-0.016": 0.0,
			"-0.015": 0.0,
			"-0.014": 0.0,
			"-0.013": 0.0,
			"-0.012": 0.0,
			"-0.011": 0.0,
			"-0.01": 0.0,
			"-0.009": 0.0,
			"-0.008": 1.56196723053,
			"-0.007": 4.9846994365,
			"-0.006": 5.77897028171,
			"-0.005": 10.3604356586,
			"-0.004": 20.613370759,
			"-0.003": 24.9701700848,
			"-0.002": 25.2527727419,
			"-0.001": 23.3361921136,
			"0.0": 20.9323784567,
			"0.001": 16.4267825462,
			"0.002": 18.9074561431,
			"0.003": 13.9224177425,
			"0.004": 14.5115913228,
			"0.005": 3.54800166978,
			"0.006": 3.17447220423,
			"0.007": 4.91194344419,
			"0.008": 9.88230314426,
			"0.009": 6.24464086334,
			"0.01": 0.313646420278,
			"0.011": 0.0,
			"0.012": 0.0,
			"0.013": 0.0,
			"0.014": 0.0,
			"0.015": 0.0,
			"0.016": 0.0,
			"0.017": 0.0,
			"0.018": 0.0,
			"0.019": 0.0,
			"0.02": 0.0,
			"0.021": 0.0,
			"0.022": 0.0,
			"0.023": 0.0,
			"0.024": 0.0,
			"0.025": 0.0
		}
	}
}
