{
	 "smiles": "OCC1=CC(O)=CC=C1O", 
	 "Tm": 373.15, 
	 "num_atms": 18, 
	 "gaussian": { 
		 "optdone": 1, 
		 "sigma_profile": "yes", 
		 "theory": "DFT", 
		 "functional": "B3LYP", 
		 "basiset": "6-31G**", 
		 "properties": { 
			 "R2extent": 1752.7869, 
			 "electric_dipole_moment_norm": 1.81004471215, 
			 "electric_quadrupole_moment_norm": 15.8013445149, 
			 "total_energy": -497.216890107, 
			 "HOMO_LUMO_gap": 0.19764, 
			 "cosmo_polarized_energy": -15.27, 
			 "cosmo_cavitation_energy": 21.68, 
			 "cosmo_dispersion_energy": -16.48, 
			 "cosmo_repulsion_energy": 1.35, 
			 "cosmo_total_nonelectrostatic_energy": 6.54, 
			 "SMD_solvation_energy": 4.21 
		},
		"coords": [
			{
				"x": 1.889185366,
				"y": -2.0356665156,
				"z": 1.3544685079,
				"element": "O" 
			},
			{
				"x": 2.2678016476,
				"y": -1.4781605034,
				"z": 0.104605979,
				"element": "C" 
			},
			{
				"x": 1.2587216528,
				"y": -0.4918779986,
				"z": -0.450556749,
				"element": "C" 
			},
			{
				"x": 1.6075345143,
				"y": 0.8224899267,
				"z": -0.7663479218,
				"element": "C" 
			},
			{
				"x": 0.6709578316,
				"y": 1.7185184154,
				"z": -1.2940617535,
				"element": "C" 
			},
			{
				"x": 0.9828075862,
				"y": 3.0132085785,
				"z": -1.6160060756,
				"element": "O" 
			},
			{
				"x": -0.6429159698,
				"y": 1.2971293946,
				"z": -1.5048282351,
				"element": "C" 
			},
			{
				"x": -1.0071283721,
				"y": -0.0115896366,
				"z": -1.1890919285,
				"element": "C" 
			},
			{
				"x": -0.0664004118,
				"y": -0.8985484274,
				"z": -0.6681158793,
				"element": "C" 
			},
			{
				"x": -0.3767768113,
				"y": -2.2058263329,
				"z": -0.3430107557,
				"element": "O" 
			},
			{
				"x": 1.0510082175,
				"y": -2.4939014878,
				"z": 1.1987309999,
				"element": "H" 
			},
			{
				"x": 3.2234799013,
				"y": -0.9710289939,
				"z": 0.2689976665,
				"element": "H" 
			},
			{
				"x": 2.4443088749,
				"y": -2.2703588889,
				"z": -0.6416844222,
				"element": "H" 
			},
			{
				"x": 2.6312697577,
				"y": 1.1511025478,
				"z": -0.5936520044,
				"element": "H" 
			},
			{
				"x": 1.91225838,
				"y": 3.1738278561,
				"z": -1.4094522632,
				"element": "H" 
			},
			{
				"x": -1.3658684995,
				"y": 1.9968687411,
				"z": -1.9097860987,
				"element": "H" 
			},
			{
				"x": -2.0319898255,
				"y": -0.339518605,
				"z": -1.3514365716,
				"element": "H" 
			},
			{
				"x": -1.3144538398,
				"y": -2.3633680701,
				"z": -0.5095724948,
				"element": "H" 
			}
		],
		 "valence_orbital": [ 
			{
				"type": "occ",
				"energy": -0.31968,
				"method": "rhf"
			},
			{
				"type": "occ",
				"energy": -0.3083,
				"method": "rhf"
			},
			{
				"type": "occ",
				"energy": -0.25595,
				"method": "rhf"
			},
			{
				"type": "occ",
				"energy": -0.25248,
				"method": "rhf"
			},
			{
				"type": "occ",
				"energy": -0.20561,
				"method": "rhf"
			},
			{
				"type": "unocc",
				"energy": -0.00797,
				"method": "rhf"
			},
			{
				"type": "unocc",
				"energy": 0.01972,
				"method": "rhf"
			},
			{
				"type": "unocc",
				"energy": 0.05603,
				"method": "rhf"
			},
			{
				"type": "unocc",
				"energy": 0.0752,
				"method": "rhf"
			},
			{
				"type": "unocc",
				"energy": 0.09609,
				"method": "rhf"
			}
		],
		"cosmo_sigma_profile": { 
			"-0.025": 0.0,
			"-0.024": 0.0,
			"-0.023": 0.0,
			"-0.022": 0.0,
			"-0.021": 0.0,
			"-0.02": 0.0,
			"-0.019": 0.0,
			"-0.018": 0.695222255292,
			"-0.017": 1.94115154736,
			"-0.016": 2.42356733801,
			"-0.015": 1.5568592149,
			"-0.014": 2.67185463193,
			"-0.013": 1.84677796236,
			"-0.012": 1.63222524212,
			"-0.011": 1.44010669715,
			"-0.01": 2.19922576374,
			"-0.009": 3.5353441216,
			"-0.008": 2.97452020121,
			"-0.007": 2.88627619794,
			"-0.006": 7.76243389423,
			"-0.005": 8.54256330963,
			"-0.004": 10.3671251718,
			"-0.003": 7.9965252917,
			"-0.002": 8.49485236473,
			"-0.001": 9.33135011011,
			"0.0": 7.48202251731,
			"0.001": 8.59479026263,
			"0.002": 8.78417725745,
			"0.003": 8.81753266224,
			"0.004": 12.9064887221,
			"0.005": 13.9085926305,
			"0.006": 7.09662252748,
			"0.007": 4.05266962911,
			"0.008": 3.21376751576,
			"0.009": 3.14031825378,
			"0.01": 2.805968796,
			"0.011": 3.63417899568,
			"0.012": 2.84375882924,
			"0.013": 1.72517042061,
			"0.014": 2.54367472044,
			"0.015": 1.28194739288,
			"0.016": 0.0,
			"0.017": 0.0,
			"0.018": 0.0,
			"0.019": 0.0,
			"0.02": 0.0,
			"0.021": 0.0,
			"0.022": 0.0,
			"0.023": 0.0,
			"0.024": 0.0,
			"0.025": 0.0
		}
	}
}
