{
	 "smiles": "ClCC1=NOC(=N1)C1(CCOCC1)C1=CC=CC=C1", 
	 "Tm": 348.15, 
	 "num_atms": 34, 
	 "gaussian": { 
		 "optdone": 1, 
		 "sigma_profile": "yes", 
		 "theory": "DFT", 
		 "functional": "B3LYP", 
		 "basiset": "6-31G**", 
		 "properties": { 
			 "R2extent": 6459.6013, 
			 "electric_dipole_moment_norm": 3.34568067514, 
			 "electric_quadrupole_moment_norm": 11.8933131629, 
			 "total_energy": -1262.61501257, 
			 "HOMO_LUMO_gap": 0.2046, 
			 "cosmo_polarized_energy": -12.61, 
			 "cosmo_cavitation_energy": 37.99, 
			 "cosmo_dispersion_energy": -26.75, 
			 "cosmo_repulsion_energy": 2.09, 
			 "cosmo_total_nonelectrostatic_energy": 13.32, 
			 "SMD_solvation_energy": 4.04 
		},
		"coords": [
			{
				"x": 1.2928454681,
				"y": 4.3094130609,
				"z": 2.8872992817,
				"element": "Cl" 
			},
			{
				"x": 2.1680039992,
				"y": 2.7168889397,
				"z": 2.8815354622,
				"element": "C" 
			},
			{
				"x": 1.4381576295,
				"y": 1.6909435243,
				"z": 2.0864031771,
				"element": "C" 
			},
			{
				"x": 0.8283728358,
				"y": 0.6889426567,
				"z": 2.6683404438,
				"element": "N" 
			},
			{
				"x": 0.2931253496,
				"y": -0.0245551337,
				"z": 1.5877475981,
				"element": "O" 
			},
			{
				"x": 0.644747963,
				"y": 0.6368961003,
				"z": 0.4665152248,
				"element": "C" 
			},
			{
				"x": 1.3532052818,
				"y": 1.7024597174,
				"z": 0.7120948546,
				"element": "N" 
			},
			{
				"x": 0.1991488185,
				"y": 0.0651151437,
				"z": -0.8580056713,
				"element": "C" 
			},
			{
				"x": 0.4064254719,
				"y": 1.1299371275,
				"z": -1.9848588971,
				"element": "C" 
			},
			{
				"x": -0.8108935504,
				"y": 2.0388025512,
				"z": -2.1308137662,
				"element": "C" 
			},
			{
				"x": -1.9851614514,
				"y": 1.3247814553,
				"z": -2.5231505701,
				"element": "O" 
			},
			{
				"x": -2.030796518,
				"y": -0.0341640327,
				"z": -2.0987630682,
				"element": "C" 
			},
			{
				"x": -1.3301834289,
				"y": -0.2447896724,
				"z": -0.7567650437,
				"element": "C" 
			},
			{
				"x": 1.0821526487,
				"y": -1.1647446254,
				"z": -1.1658055169,
				"element": "C" 
			},
			{
				"x": 0.5576693134,
				"y": -2.393243979,
				"z": -1.584881797,
				"element": "C" 
			},
			{
				"x": 1.4016335484,
				"y": -3.4597051877,
				"z": -1.9068876613,
				"element": "C" 
			},
			{
				"x": 2.7848442074,
				"y": -3.3188478199,
				"z": -1.8135529423,
				"element": "C" 
			},
			{
				"x": 3.3206969612,
				"y": -2.0980097377,
				"z": -1.398943171,
				"element": "C" 
			},
			{
				"x": 2.4782879885,
				"y": -1.0339005736,
				"z": -1.0825198438,
				"element": "C" 
			},
			{
				"x": 3.1513073419,
				"y": 2.9084295182,
				"z": 2.4521516872,
				"element": "H" 
			},
			{
				"x": 2.2603138253,
				"y": 2.3943520661,
				"z": 3.9174263639,
				"element": "H" 
			},
			{
				"x": 1.2978140206,
				"y": 1.7267367914,
				"z": -1.7785204283,
				"element": "H" 
			},
			{
				"x": 0.5732566807,
				"y": 0.6039425814,
				"z": -2.929596384,
				"element": "H" 
			},
			{
				"x": -0.6330952977,
				"y": 2.7906257088,
				"z": -2.9066910371,
				"element": "H" 
			},
			{
				"x": -0.9912039308,
				"y": 2.5790724124,
				"z": -1.1884581546,
				"element": "H" 
			},
			{
				"x": -1.5913180205,
				"y": -0.6893283951,
				"z": -2.8677083439,
				"element": "H" 
			},
			{
				"x": -3.0910641175,
				"y": -0.2954968492,
				"z": -2.0160580248,
				"element": "H" 
			},
			{
				"x": -1.7891475394,
				"y": 0.4366174931,
				"z": -0.033528192,
				"element": "H" 
			},
			{
				"x": -1.5038736941,
				"y": -1.2525607314,
				"z": -0.3717955774,
				"element": "H" 
			},
			{
				"x": -0.5132137519,
				"y": -2.5373239369,
				"z": -1.66999434,
				"element": "H" 
			},
			{
				"x": 0.9696810887,
				"y": -4.4028054858,
				"z": -2.2292862828,
				"element": "H" 
			},
			{
				"x": 3.4388953926,
				"y": -4.1499750159,
				"z": -2.0600108788,
				"element": "H" 
			},
			{
				"x": 4.3968001483,
				"y": -1.9724852809,
				"z": -1.3199467093,
				"element": "H" 
			},
			{
				"x": 2.9102653176,
				"y": -0.0904203914,
				"z": -0.7608717913,
				"element": "H" 
			}
		],
		 "valence_orbital": [ 
			{
				"type": "occ",
				"energy": -0.30341,
				"method": "rhf"
			},
			{
				"type": "occ",
				"energy": -0.2914,
				"method": "rhf"
			},
			{
				"type": "occ",
				"energy": -0.26066,
				"method": "rhf"
			},
			{
				"type": "occ",
				"energy": -0.25422,
				"method": "rhf"
			},
			{
				"type": "occ",
				"energy": -0.24704,
				"method": "rhf"
			},
			{
				"type": "unocc",
				"energy": -0.04244,
				"method": "rhf"
			},
			{
				"type": "unocc",
				"energy": -0.01692,
				"method": "rhf"
			},
			{
				"type": "unocc",
				"energy": -0.01452,
				"method": "rhf"
			},
			{
				"type": "unocc",
				"energy": 0.00215,
				"method": "rhf"
			},
			{
				"type": "unocc",
				"energy": 0.05262,
				"method": "rhf"
			}
		],
		"cosmo_sigma_profile": { 
			"-0.025": 0.0,
			"-0.024": 0.0,
			"-0.023": 0.0,
			"-0.022": 0.0,
			"-0.021": 0.0,
			"-0.02": 0.0,
			"-0.019": 0.0,
			"-0.018": 0.0,
			"-0.017": 0.0,
			"-0.016": 0.0,
			"-0.015": 0.0,
			"-0.014": 0.0,
			"-0.013": 0.0,
			"-0.012": 0.0,
			"-0.011": 0.0,
			"-0.01": 0.480349367357,
			"-0.009": 4.09032000078,
			"-0.008": 3.72816790267,
			"-0.007": 6.57702419269,
			"-0.006": 13.9118535722,
			"-0.005": 21.1927722743,
			"-0.004": 31.5058028075,
			"-0.003": 32.8075108865,
			"-0.002": 23.6446519667,
			"-0.001": 21.5056070924,
			"0.0": 17.306548408,
			"0.001": 14.8156227747,
			"0.002": 16.4594496069,
			"0.003": 16.2307848854,
			"0.004": 16.7512082731,
			"0.005": 24.5308811643,
			"0.006": 15.6065743294,
			"0.007": 3.26000922836,
			"0.008": 3.72257482306,
			"0.009": 4.26582255359,
			"0.01": 2.01515669252,
			"0.011": 3.38414937561,
			"0.012": 2.52814343508,
			"0.013": 1.89150222881,
			"0.014": 1.09532594995,
			"0.015": 0.0,
			"0.016": 0.0,
			"0.017": 0.0,
			"0.018": 0.0,
			"0.019": 0.0,
			"0.02": 0.0,
			"0.021": 0.0,
			"0.022": 0.0,
			"0.023": 0.0,
			"0.024": 0.0,
			"0.025": 0.0
		}
	}
}
