{
	 "smiles": "ClC1OC(Cl)C2C1C1(Cl)C(Cl)=C(Cl)C2(Cl)C1(Cl)Cl", 
	 "Tm": 394.15, 
	 "num_atms": 22, 
	 "gaussian": { 
		 "optdone": 1, 
		 "sigma_profile": "yes", 
		 "theory": "DFT", 
		 "functional": "B3LYP", 
		 "basiset": "6-31G**", 
		 "properties": { 
			 "R2extent": 8697.0578, 
			 "electric_dipole_moment_norm": 2.06104035138, 
			 "electric_quadrupole_moment_norm": 9.3902716063, 
			 "total_energy": -4102.05594228, 
			 "HOMO_LUMO_gap": 0.21822, 
			 "cosmo_polarized_energy": -9.52, 
			 "cosmo_cavitation_energy": 37.08, 
			 "cosmo_dispersion_energy": -26.09, 
			 "cosmo_repulsion_energy": 2.0, 
			 "cosmo_total_nonelectrostatic_energy": 12.99, 
			 "SMD_solvation_energy": 3.46 
		},
		"coords": [
			{
				"x": -0.5297598842,
				"y": -1.2209611418,
				"z": 3.4887200239,
				"element": "Cl" 
			},
			{
				"x": -0.3567061265,
				"y": 0.1104301361,
				"z": 2.2356890156,
				"element": "C" 
			},
			{
				"x": -1.2505870859,
				"y": -0.0766669351,
				"z": 1.1800306279,
				"element": "O" 
			},
			{
				"x": -0.6314397354,
				"y": -0.5898083538,
				"z": 0.0391942161,
				"element": "C" 
			},
			{
				"x": -0.9842639548,
				"y": -2.3820053885,
				"z": -0.1513111152,
				"element": "Cl" 
			},
			{
				"x": 0.8879052906,
				"y": -0.3639883575,
				"z": 0.1804318438,
				"element": "C" 
			},
			{
				"x": 1.0724905248,
				"y": 0.1052819236,
				"z": 1.6552069138,
				"element": "C" 
			},
			{
				"x": 1.8508559946,
				"y": 1.4649113717,
				"z": 1.4949808514,
				"element": "C" 
			},
			{
				"x": 1.8475392421,
				"y": 2.5050120882,
				"z": 2.9300028785,
				"element": "Cl" 
			},
			{
				"x": 3.2288121052,
				"y": 1.0234675584,
				"z": 0.9779054843,
				"element": "C" 
			},
			{
				"x": 4.63175775,
				"y": 0.932906469,
				"z": 1.9514415206,
				"element": "Cl" 
			},
			{
				"x": 3.0695806538,
				"y": 0.6199307643,
				"z": -0.2915284236,
				"element": "C" 
			},
			{
				"x": 4.2207081372,
				"y": -0.1087631292,
				"z": -1.3250260198,
				"element": "Cl" 
			},
			{
				"x": 1.5827357995,
				"y": 0.7853359686,
				"z": -0.6420945997,
				"element": "C" 
			},
			{
				"x": 1.1824669023,
				"y": 0.8202656338,
				"z": -2.3682404806,
				"element": "Cl" 
			},
			{
				"x": 1.2951116547,
				"y": 2.0946010546,
				"z": 0.1710951027,
				"element": "C" 
			},
			{
				"x": -0.4126721553,
				"y": 2.61150967,
				"z": 0.2211075834,
				"element": "Cl" 
			},
			{
				"x": 2.2434670794,
				"y": 3.5117517922,
				"z": -0.398506922,
				"element": "Cl" 
			},
			{
				"x": -0.6335120668,
				"y": 1.0196184435,
				"z": 2.7649958386,
				"element": "H" 
			},
			{
				"x": -1.0842174396,
				"y": -0.1288416061,
				"z": -0.8359784117,
				"element": "H" 
			},
			{
				"x": 1.4148484617,
				"y": -1.2896559786,
				"z": -0.0436696042,
				"element": "H" 
			},
			{
				"x": 1.7002788528,
				"y": -0.5628319836,
				"z": 2.2419536762,
				"element": "H" 
			}
		],
		 "valence_orbital": [ 
			{
				"type": "occ",
				"energy": -0.31812,
				"method": "rhf"
			},
			{
				"type": "occ",
				"energy": -0.314,
				"method": "rhf"
			},
			{
				"type": "occ",
				"energy": -0.30615,
				"method": "rhf"
			},
			{
				"type": "occ",
				"energy": -0.30347,
				"method": "rhf"
			},
			{
				"type": "occ",
				"energy": -0.27723,
				"method": "rhf"
			},
			{
				"type": "unocc",
				"energy": -0.05901,
				"method": "rhf"
			},
			{
				"type": "unocc",
				"energy": -0.05832,
				"method": "rhf"
			},
			{
				"type": "unocc",
				"energy": -0.02754,
				"method": "rhf"
			},
			{
				"type": "unocc",
				"energy": -0.01161,
				"method": "rhf"
			},
			{
				"type": "unocc",
				"energy": -0.00544,
				"method": "rhf"
			}
		],
		"cosmo_sigma_profile": { 
			"-0.025": 0.0,
			"-0.024": 0.0,
			"-0.023": 0.0,
			"-0.022": 0.0,
			"-0.021": 0.0,
			"-0.02": 0.0,
			"-0.019": 0.0,
			"-0.018": 0.0,
			"-0.017": 0.0,
			"-0.016": 0.0,
			"-0.015": 0.0,
			"-0.014": 0.0,
			"-0.013": 0.0,
			"-0.012": 0.0,
			"-0.011": 0.0259693956031,
			"-0.01": 3.04016373796,
			"-0.009": 8.64330625451,
			"-0.008": 5.56288218198,
			"-0.007": 5.34830661807,
			"-0.006": 6.08920539959,
			"-0.005": 11.0800606354,
			"-0.004": 15.5709353333,
			"-0.003": 15.8881877958,
			"-0.002": 18.4538096071,
			"-0.001": 25.2964274793,
			"0.0": 32.4587798298,
			"0.001": 37.7994106684,
			"0.002": 49.2772737424,
			"0.003": 34.4260184601,
			"0.004": 14.9516718491,
			"0.005": 15.8154880287,
			"0.006": 10.5108318291,
			"0.007": 1.48712822929,
			"0.008": 1.07524595377,
			"0.009": 0.11826410067,
			"0.01": 0.0,
			"0.011": 0.0,
			"0.012": 0.0,
			"0.013": 0.0,
			"0.014": 0.0,
			"0.015": 0.0,
			"0.016": 0.0,
			"0.017": 0.0,
			"0.018": 0.0,
			"0.019": 0.0,
			"0.02": 0.0,
			"0.021": 0.0,
			"0.022": 0.0,
			"0.023": 0.0,
			"0.024": 0.0,
			"0.025": 0.0
		}
	}
}
