{
	 "smiles": "NS(=O)(=O)C1=CC(Cl)=C(Br)S1", 
	 "Tm": 421.15, 
	 "num_atms": 14, 
	 "gaussian": { 
		 "optdone": 1, 
		 "sigma_profile": "yes", 
		 "theory": "DFT", 
		 "functional": "B3LYP", 
		 "basiset": "6-31G**", 
		 "properties": { 
			 "R2extent": 4908.5509, 
			 "electric_dipole_moment_norm": 3.03586305521, 
			 "electric_quadrupole_moment_norm": 13.3750739602, 
			 "total_energy": -4187.29935182, 
			 "HOMO_LUMO_gap": 0.18721, 
			 "cosmo_polarized_energy": -13.03, 
			 "cosmo_cavitation_energy": 26.21, 
			 "cosmo_dispersion_energy": -20.8, 
			 "cosmo_repulsion_energy": 1.6, 
			 "cosmo_total_nonelectrostatic_energy": 7.01, 
			 "SMD_solvation_energy": 2.48 
		},
		"coords": [
			{
				"x": 1.16336749,
				"y": -1.9478960172,
				"z": -0.851022943,
				"element": "N" 
			},
			{
				"x": 1.487348036,
				"y": -1.2309500441,
				"z": 0.6416431145,
				"element": "S" 
			},
			{
				"x": 1.0450036833,
				"y": -2.1199096775,
				"z": 1.7168056058,
				"element": "O" 
			},
			{
				"x": 2.8539890526,
				"y": -0.7197191953,
				"z": 0.5458034418,
				"element": "O" 
			},
			{
				"x": 0.3789321992,
				"y": 0.1529277737,
				"z": 0.6659471306,
				"element": "C" 
			},
			{
				"x": -0.7517733317,
				"y": 0.2332902118,
				"z": 1.4307912162,
				"element": "C" 
			},
			{
				"x": -1.4282186415,
				"y": 1.4742097981,
				"z": 1.2482839336,
				"element": "C" 
			},
			{
				"x": -2.8945227667,
				"y": 1.8718044023,
				"z": 2.0820932288,
				"element": "Cl" 
			},
			{
				"x": -0.7922024259,
				"y": 2.3027088264,
				"z": 0.3551818256,
				"element": "C" 
			},
			{
				"x": -1.3133560411,
				"y": 4.0215721806,
				"z": -0.177268699,
				"element": "Br" 
			},
			{
				"x": 0.6594243801,
				"y": 1.5877971124,
				"z": -0.2803192674,
				"element": "S" 
			},
			{
				"x": 0.569822418,
				"y": -2.7655891109,
				"z": -0.7382848153,
				"element": "H" 
			},
			{
				"x": 2.0438881066,
				"y": -2.1790596749,
				"z": -1.3040914948,
				"element": "H" 
			},
			{
				"x": -1.0820021589,
				"y": -0.5513865854,
				"z": 2.0990377225,
				"element": "H" 
			}
		],
		 "valence_orbital": [ 
			{
				"type": "occ",
				"energy": -0.3238,
				"method": "rhf"
			},
			{
				"type": "occ",
				"energy": -0.31413,
				"method": "rhf"
			},
			{
				"type": "occ",
				"energy": -0.30723,
				"method": "rhf"
			},
			{
				"type": "occ",
				"energy": -0.28008,
				"method": "rhf"
			},
			{
				"type": "occ",
				"energy": -0.25359,
				"method": "rhf"
			},
			{
				"type": "unocc",
				"energy": -0.06638,
				"method": "rhf"
			},
			{
				"type": "unocc",
				"energy": -0.02923,
				"method": "rhf"
			},
			{
				"type": "unocc",
				"energy": -0.01598,
				"method": "rhf"
			},
			{
				"type": "unocc",
				"energy": 0.01698,
				"method": "rhf"
			},
			{
				"type": "unocc",
				"energy": 0.02014,
				"method": "rhf"
			}
		],
		"cosmo_sigma_profile": { 
			"-0.025": 0.0,
			"-0.024": 0.0,
			"-0.023": 0.0,
			"-0.022": 0.0,
			"-0.021": 0.0,
			"-0.02": 0.0,
			"-0.019": 0.0,
			"-0.018": 0.0,
			"-0.017": 0.0,
			"-0.016": 0.332123084995,
			"-0.015": 2.48453547393,
			"-0.014": 2.35173198373,
			"-0.013": 3.29443379473,
			"-0.012": 2.2577034672,
			"-0.011": 1.96696720366,
			"-0.01": 2.11303986101,
			"-0.009": 2.70901757912,
			"-0.008": 3.12155190954,
			"-0.007": 4.15137694648,
			"-0.006": 4.00791609098,
			"-0.005": 5.69924655981,
			"-0.004": 7.47254683243,
			"-0.003": 13.1992082562,
			"-0.002": 17.6145123234,
			"-0.001": 25.3204499852,
			"0.0": 21.4401136608,
			"0.001": 18.0766978558,
			"0.002": 20.3946182436,
			"0.003": 18.3081637853,
			"0.004": 6.90418934968,
			"0.005": 2.96825184082,
			"0.006": 3.08313337677,
			"0.007": 3.77261243804,
			"0.008": 3.66050784376,
			"0.009": 5.81164587163,
			"0.01": 10.6779218773,
			"0.011": 5.22541615602,
			"0.012": 0.0,
			"0.013": 0.0,
			"0.014": 0.0,
			"0.015": 0.0,
			"0.016": 0.0,
			"0.017": 0.0,
			"0.018": 0.0,
			"0.019": 0.0,
			"0.02": 0.0,
			"0.021": 0.0,
			"0.022": 0.0,
			"0.023": 0.0,
			"0.024": 0.0,
			"0.025": 0.0
		}
	}
}
