{
	 "smiles": "CN(C)C1=C(C=C(C=C1)[N+]([O-])=O)C(O)=O", 
	 "Tm": 423.15, 
	 "num_atms": 25, 
	 "gaussian": { 
		 "optdone": 1, 
		 "sigma_profile": "yes", 
		 "theory": "DFT", 
		 "functional": "B3LYP", 
		 "basiset": "6-31G**", 
		 "properties": { 
			 "R2extent": 3709.4722, 
			 "electric_dipole_moment_norm": 6.41841660692, 
			 "electric_quadrupole_moment_norm": 20.6864575433, 
			 "total_energy": -759.280047495, 
			 "HOMO_LUMO_gap": 0.14403, 
			 "cosmo_polarized_energy": -19.73, 
			 "cosmo_cavitation_energy": 29.17, 
			 "cosmo_dispersion_energy": -21.16, 
			 "cosmo_repulsion_energy": 1.64, 
			 "cosmo_total_nonelectrostatic_energy": 9.65, 
			 "SMD_solvation_energy": 8.08 
		},
		"coords": [
			{
				"x": -0.7700667805,
				"y": 1.9589301428,
				"z": -2.0756594901,
				"element": "C" 
			},
			{
				"x": 0.2830324254,
				"y": 1.1339290654,
				"z": -1.4968456874,
				"element": "N" 
			},
			{
				"x": 1.5646412404,
				"y": 1.1891560681,
				"z": -2.194383661,
				"element": "C" 
			},
			{
				"x": 0.1166701785,
				"y": 0.552679174,
				"z": -0.2681768753,
				"element": "C" 
			},
			{
				"x": 0.9510626405,
				"y": -0.5115327548,
				"z": 0.2139501408,
				"element": "C" 
			},
			{
				"x": 0.7903520955,
				"y": -0.9776784355,
				"z": 1.521063296,
				"element": "C" 
			},
			{
				"x": -0.1940020581,
				"y": -0.4564369742,
				"z": 2.3517491719,
				"element": "C" 
			},
			{
				"x": -1.0592526296,
				"y": 0.5365019392,
				"z": 1.8852588167,
				"element": "C" 
			},
			{
				"x": -0.9045556862,
				"y": 1.025593029,
				"z": 0.6031844928,
				"element": "C" 
			},
			{
				"x": -0.3361269737,
				"y": -0.9686189091,
				"z": 3.7054201262,
				"element": "N" 
			},
			{
				"x": -1.2466127648,
				"y": -0.5094531269,
				"z": 4.3995244101,
				"element": "O" 
			},
			{
				"x": 0.4654373383,
				"y": -1.8283502432,
				"z": 4.0830466214,
				"element": "O" 
			},
			{
				"x": 1.8284031117,
				"y": -1.32575525,
				"z": -0.6893102138,
				"element": "C" 
			},
			{
				"x": 2.9883256794,
				"y": -1.7814142473,
				"z": -0.140766095,
				"element": "O" 
			},
			{
				"x": 1.5406534316,
				"y": -1.6329365093,
				"z": -1.8225688305,
				"element": "O" 
			},
			{
				"x": -1.7528541162,
				"y": 1.5240808054,
				"z": -1.8812272776,
				"element": "H" 
			},
			{
				"x": -0.6311714817,
				"y": 1.9897285215,
				"z": -3.1586029869,
				"element": "H" 
			},
			{
				"x": -0.7572009785,
				"y": 2.9923576634,
				"z": -1.6983794816,
				"element": "H" 
			},
			{
				"x": 2.3869824064,
				"y": 1.0302678855,
				"z": -1.4937950429,
				"element": "H" 
			},
			{
				"x": 1.6842126472,
				"y": 2.1901445125,
				"z": -2.6215968364,
				"element": "H" 
			},
			{
				"x": 1.6389958157,
				"y": 0.4386103583,
				"z": -2.9864597381,
				"element": "H" 
			},
			{
				"x": 1.3827292944,
				"y": -1.8053357459,
				"z": 1.8946861971,
				"element": "H" 
			},
			{
				"x": -1.825066943,
				"y": 0.9249366179,
				"z": 2.5454162731,
				"element": "H" 
			},
			{
				"x": -1.5536145423,
				"y": 1.8279197247,
				"z": 0.2773763645,
				"element": "H" 
			},
			{
				"x": 3.1353266497,
				"y": -1.3617233113,
				"z": 0.7188963058,
				"element": "H" 
			}
		],
		 "valence_orbital": [ 
			{
				"type": "occ",
				"energy": -0.30333,
				"method": "rhf"
			},
			{
				"type": "occ",
				"energy": -0.28975,
				"method": "rhf"
			},
			{
				"type": "occ",
				"energy": -0.28478,
				"method": "rhf"
			},
			{
				"type": "occ",
				"energy": -0.27773,
				"method": "rhf"
			},
			{
				"type": "occ",
				"energy": -0.22743,
				"method": "rhf"
			},
			{
				"type": "unocc",
				"energy": -0.0834,
				"method": "rhf"
			},
			{
				"type": "unocc",
				"energy": -0.05404,
				"method": "rhf"
			},
			{
				"type": "unocc",
				"energy": -0.00546,
				"method": "rhf"
			},
			{
				"type": "unocc",
				"energy": 0.03031,
				"method": "rhf"
			},
			{
				"type": "unocc",
				"energy": 0.05837,
				"method": "rhf"
			}
		],
		"cosmo_sigma_profile": { 
			"-0.025": 0.0,
			"-0.024": 0.0,
			"-0.023": 0.0,
			"-0.022": 0.0,
			"-0.021": 0.0,
			"-0.02": 0.0,
			"-0.019": 0.348462836661,
			"-0.018": 1.1653241278,
			"-0.017": 0.472601764505,
			"-0.016": 1.28613173104,
			"-0.015": 0.969967213906,
			"-0.014": 0.550104230454,
			"-0.013": 1.2187450753,
			"-0.012": 1.17722214593,
			"-0.011": 0.996764800193,
			"-0.01": 1.01338096273,
			"-0.009": 1.14729325481,
			"-0.008": 2.95608379941,
			"-0.007": 8.14961286454,
			"-0.006": 14.0193654982,
			"-0.005": 19.3286754457,
			"-0.004": 19.3745839974,
			"-0.003": 20.8148983959,
			"-0.002": 17.7693654788,
			"-0.001": 13.0440783012,
			"0.0": 14.4118684304,
			"0.001": 13.0284615141,
			"0.002": 8.32721362168,
			"0.003": 5.89642538615,
			"0.004": 3.91462490404,
			"0.005": 5.07649158683,
			"0.006": 5.94458305328,
			"0.007": 6.27193746168,
			"0.008": 11.6771000291,
			"0.009": 10.9603676097,
			"0.01": 8.77640038869,
			"0.011": 7.23565299638,
			"0.012": 3.68489392224,
			"0.013": 1.10245672317,
			"0.014": 0.0,
			"0.015": 0.0,
			"0.016": 0.0,
			"0.017": 0.0,
			"0.018": 0.0,
			"0.019": 0.0,
			"0.02": 0.0,
			"0.021": 0.0,
			"0.022": 0.0,
			"0.023": 0.0,
			"0.024": 0.0,
			"0.025": 0.0
		}
	}
}
