{
	 "smiles": "CC(=O)C1=CC(Cl)=CC(Cl)=C1O", 
	 "Tm": 370.15, 
	 "num_atms": 18, 
	 "gaussian": { 
		 "optdone": 1, 
		 "sigma_profile": "yes", 
		 "theory": "DFT", 
		 "functional": "B3LYP", 
		 "basiset": "6-31G**", 
		 "properties": { 
			 "R2extent": 3612.6635, 
			 "electric_dipole_moment_norm": 3.52074858375, 
			 "electric_quadrupole_moment_norm": 7.64629423054, 
			 "total_energy": -1379.29781477, 
			 "HOMO_LUMO_gap": 0.17479, 
			 "cosmo_polarized_energy": -8.83, 
			 "cosmo_cavitation_energy": 25.91, 
			 "cosmo_dispersion_energy": -19.52, 
			 "cosmo_repulsion_energy": 1.55, 
			 "cosmo_total_nonelectrostatic_energy": 7.94, 
			 "SMD_solvation_energy": 4.94 
		},
		"coords": [
			{
				"x": -1.968760658,
				"y": -1.9853410327,
				"z": -2.2468036067,
				"element": "C" 
			},
			{
				"x": -0.9584673783,
				"y": -1.7407254999,
				"z": -1.1478551129,
				"element": "C" 
			},
			{
				"x": -0.0356610976,
				"y": -2.5220899094,
				"z": -0.9746667607,
				"element": "O" 
			},
			{
				"x": -1.0658536361,
				"y": -0.5316990745,
				"z": -0.2438923636,
				"element": "C" 
			},
			{
				"x": -0.0680578394,
				"y": -0.4159470138,
				"z": 0.7364753607,
				"element": "C" 
			},
			{
				"x": -0.0557453382,
				"y": 0.6470837778,
				"z": 1.6258624351,
				"element": "C" 
			},
			{
				"x": 1.2038376596,
				"y": 0.7669846984,
				"z": 2.8416554509,
				"element": "Cl" 
			},
			{
				"x": -1.0404677898,
				"y": 1.6345015968,
				"z": 1.5686897348,
				"element": "C" 
			},
			{
				"x": -2.0285702786,
				"y": 1.5235532688,
				"z": 0.6008913484,
				"element": "C" 
			},
			{
				"x": -3.2869384143,
				"y": 2.7547168316,
				"z": 0.5024284666,
				"element": "Cl" 
			},
			{
				"x": -2.0703960332,
				"y": 0.4568298088,
				"z": -0.3176655115,
				"element": "C" 
			},
			{
				"x": -3.0455229209,
				"y": 0.3724980768,
				"z": -1.251927981,
				"element": "O" 
			},
			{
				"x": -1.9916105531,
				"y": -1.1488919568,
				"z": -2.9514336602,
				"element": "H" 
			},
			{
				"x": -1.6911068249,
				"y": -2.9058376858,
				"z": -2.7614248738,
				"element": "H" 
			},
			{
				"x": -2.9799338137,
				"y": -2.0694142636,
				"z": -1.8380179415,
				"element": "H" 
			},
			{
				"x": 0.6898886587,
				"y": -1.1895557408,
				"z": 0.7691385797,
				"element": "H" 
			},
			{
				"x": -1.0394360355,
				"y": 2.4690421878,
				"z": 2.2592194104,
				"element": "H" 
			},
			{
				"x": -3.6409977066,
				"y": 1.1324919306,
				"z": -1.1514729746,
				"element": "H" 
			}
		],
		 "valence_orbital": [ 
			{
				"type": "occ",
				"energy": -0.32266,
				"method": "rhf"
			},
			{
				"type": "occ",
				"energy": -0.32043,
				"method": "rhf"
			},
			{
				"type": "occ",
				"energy": -0.27504,
				"method": "rhf"
			},
			{
				"type": "occ",
				"energy": -0.25851,
				"method": "rhf"
			},
			{
				"type": "occ",
				"energy": -0.24434,
				"method": "rhf"
			},
			{
				"type": "unocc",
				"energy": -0.06955,
				"method": "rhf"
			},
			{
				"type": "unocc",
				"energy": -0.02247,
				"method": "rhf"
			},
			{
				"type": "unocc",
				"energy": -0.00981,
				"method": "rhf"
			},
			{
				"type": "unocc",
				"energy": 0.0201,
				"method": "rhf"
			},
			{
				"type": "unocc",
				"energy": 0.0374,
				"method": "rhf"
			}
		],
		"cosmo_sigma_profile": { 
			"-0.025": 0.0,
			"-0.024": 0.0,
			"-0.023": 0.0,
			"-0.022": 0.0,
			"-0.021": 0.0,
			"-0.02": 0.0,
			"-0.019": 0.0,
			"-0.018": 0.0,
			"-0.017": 0.0,
			"-0.016": 0.154717443964,
			"-0.015": 1.00688394429,
			"-0.014": 0.667017001228,
			"-0.013": 0.366757603966,
			"-0.012": 0.762105817607,
			"-0.011": 1.14306397638,
			"-0.01": 1.15257512773,
			"-0.009": 2.14463868083,
			"-0.008": 2.38995493903,
			"-0.007": 3.01951546901,
			"-0.006": 4.80508430632,
			"-0.005": 9.49977121507,
			"-0.004": 10.7948200973,
			"-0.003": 14.1181070833,
			"-0.002": 16.4934979757,
			"-0.001": 25.1950935093,
			"0.0": 27.952088963,
			"0.001": 21.8641014289,
			"0.002": 15.5418975062,
			"0.003": 16.1328746628,
			"0.004": 15.5605219792,
			"0.005": 6.33612345546,
			"0.006": 1.87562441686,
			"0.007": 0.939351394391,
			"0.008": 1.31107920596,
			"0.009": 1.79772900654,
			"0.01": 2.5090868078,
			"0.011": 3.0599367438,
			"0.012": 2.79801868384,
			"0.013": 0.887477316257,
			"0.014": 0.0,
			"0.015": 0.0,
			"0.016": 0.0,
			"0.017": 0.0,
			"0.018": 0.0,
			"0.019": 0.0,
			"0.02": 0.0,
			"0.021": 0.0,
			"0.022": 0.0,
			"0.023": 0.0,
			"0.024": 0.0,
			"0.025": 0.0
		}
	}
}
