{
	 "smiles": "FC1=C2N=CC(C#N)=C(Cl)C2=C(F)C=C1", 
	 "Tm": 446.15, 
	 "num_atms": 18, 
	 "gaussian": { 
		 "optdone": 1, 
		 "sigma_profile": "yes", 
		 "theory": "DFT", 
		 "functional": "B3LYP", 
		 "basiset": "6-31G**", 
		 "properties": { 
			 "R2extent": 3334.8302, 
			 "electric_dipole_moment_norm": 4.48564402065, 
			 "electric_quadrupole_moment_norm": 9.53833327369, 
			 "total_energy": -1152.20374836, 
			 "HOMO_LUMO_gap": 0.15258, 
			 "cosmo_polarized_energy": -10.3, 
			 "cosmo_cavitation_energy": 26.75, 
			 "cosmo_dispersion_energy": -19.23, 
			 "cosmo_repulsion_energy": 1.43, 
			 "cosmo_total_nonelectrostatic_energy": 8.94, 
			 "SMD_solvation_energy": 5.13 
		},
		"coords": [
			{
				"x": -3.5810362998,
				"y": -0.6716837881,
				"z": -0.6789897798,
				"element": "F" 
			},
			{
				"x": -2.5514993879,
				"y": -0.116674307,
				"z": -0.0303977992,
				"element": "C" 
			},
			{
				"x": -1.2519792493,
				"y": -0.6431117904,
				"z": -0.2636442653,
				"element": "C" 
			},
			{
				"x": -1.1420725977,
				"y": -1.680767322,
				"z": -1.1348752954,
				"element": "N" 
			},
			{
				"x": 0.0487463943,
				"y": -2.1734723286,
				"z": -1.3573662334,
				"element": "C" 
			},
			{
				"x": 1.239771616,
				"y": -1.6870081809,
				"z": -0.7402556894,
				"element": "C" 
			},
			{
				"x": 2.4838165132,
				"y": -2.3101483253,
				"z": -1.0655233546,
				"element": "C" 
			},
			{
				"x": 3.4665702459,
				"y": -2.8542074736,
				"z": -1.3668552998,
				"element": "N" 
			},
			{
				"x": 1.1461176183,
				"y": -0.6260652671,
				"z": 0.1536252709,
				"element": "C" 
			},
			{
				"x": 2.6040513932,
				"y": -0.0461040916,
				"z": 0.895745204,
				"element": "Cl" 
			},
			{
				"x": -0.1310180285,
				"y": -0.0550830128,
				"z": 0.4286733299,
				"element": "C" 
			},
			{
				"x": -0.4055082242,
				"y": 1.0280377703,
				"z": 1.3111751674,
				"element": "C" 
			},
			{
				"x": 0.5961530071,
				"y": 1.6179471364,
				"z": 1.9849727692,
				"element": "F" 
			},
			{
				"x": -1.6777770964,
				"y": 1.5068583759,
				"z": 1.5081560446,
				"element": "C" 
			},
			{
				"x": -2.7696036127,
				"y": 0.9296043784,
				"z": 0.8300327899,
				"element": "C" 
			},
			{
				"x": 0.1279616102,
				"y": -3.0037421889,
				"z": -2.0559217936,
				"element": "H" 
			},
			{
				"x": -1.8205743946,
				"y": 2.3343045794,
				"z": 2.1935470967,
				"element": "H" 
			},
			{
				"x": -3.777819507,
				"y": 1.2992158358,
				"z": 0.9777018379,
				"element": "H" 
			}
		],
		 "valence_orbital": [ 
			{
				"type": "occ",
				"energy": -0.33296,
				"method": "rhf"
			},
			{
				"type": "occ",
				"energy": -0.30949,
				"method": "rhf"
			},
			{
				"type": "occ",
				"energy": -0.29396,
				"method": "rhf"
			},
			{
				"type": "occ",
				"energy": -0.28967,
				"method": "rhf"
			},
			{
				"type": "occ",
				"energy": -0.25071,
				"method": "rhf"
			},
			{
				"type": "unocc",
				"energy": -0.09813,
				"method": "rhf"
			},
			{
				"type": "unocc",
				"energy": -0.06931,
				"method": "rhf"
			},
			{
				"type": "unocc",
				"energy": -0.00407,
				"method": "rhf"
			},
			{
				"type": "unocc",
				"energy": -9e-05,
				"method": "rhf"
			},
			{
				"type": "unocc",
				"energy": 0.01866,
				"method": "rhf"
			}
		],
		"cosmo_sigma_profile": { 
			"-0.025": 0.0,
			"-0.024": 0.0,
			"-0.023": 0.0,
			"-0.022": 0.0,
			"-0.021": 0.0,
			"-0.02": 0.0,
			"-0.019": 0.0,
			"-0.018": 0.0,
			"-0.017": 0.0,
			"-0.016": 0.0,
			"-0.015": 0.0,
			"-0.014": 0.0,
			"-0.013": 0.0,
			"-0.012": 0.0,
			"-0.011": 0.0,
			"-0.01": 0.572763820656,
			"-0.009": 5.86353109429,
			"-0.008": 5.86742408432,
			"-0.007": 6.68709851463,
			"-0.006": 4.96682461241,
			"-0.005": 10.0612343496,
			"-0.004": 19.1305363572,
			"-0.003": 20.0185860526,
			"-0.002": 18.7266044264,
			"-0.001": 18.8473842384,
			"0.0": 16.9275454933,
			"0.001": 14.55203767,
			"0.002": 13.7647440977,
			"0.003": 19.0730476576,
			"0.004": 12.2980252623,
			"0.005": 4.97791276137,
			"0.006": 4.57254664627,
			"0.007": 4.2876529441,
			"0.008": 4.07658895738,
			"0.009": 4.53510391718,
			"0.01": 4.1125340055,
			"0.011": 3.19098187597,
			"0.012": 2.76640864997,
			"0.013": 0.732666881979,
			"0.014": 0.174289121828,
			"0.015": 0.0,
			"0.016": 0.0,
			"0.017": 0.0,
			"0.018": 0.0,
			"0.019": 0.0,
			"0.02": 0.0,
			"0.021": 0.0,
			"0.022": 0.0,
			"0.023": 0.0,
			"0.024": 0.0,
			"0.025": 0.0
		}
	}
}
