{
	 "smiles": "CN1N=C(C(C(O)=O)=C1C(F)(F)Cl)C(F)(F)F", 
	 "Tm": 393.15, 
	 "num_atms": 21, 
	 "gaussian": { 
		 "optdone": 1, 
		 "sigma_profile": "yes", 
		 "theory": "DFT", 
		 "functional": "B3LYP", 
		 "basiset": "6-31G**", 
		 "properties": { 
			 "R2extent": 4373.0024, 
			 "electric_dipole_moment_norm": 4.99729116422, 
			 "electric_quadrupole_moment_norm": 9.70748645067, 
			 "total_energy": -1488.47586315, 
			 "HOMO_LUMO_gap": 0.21571, 
			 "cosmo_polarized_energy": -13.08, 
			 "cosmo_cavitation_energy": 29.81, 
			 "cosmo_dispersion_energy": -20.83, 
			 "cosmo_repulsion_energy": 1.52, 
			 "cosmo_total_nonelectrostatic_energy": 10.5, 
			 "SMD_solvation_energy": 6.59 
		},
		"coords": [
			{
				"x": -2.1322728295,
				"y": 2.2331988805,
				"z": 0.9170421804,
				"element": "C" 
			},
			{
				"x": -1.2866901799,
				"y": 1.3992883283,
				"z": 0.0622102691,
				"element": "N" 
			},
			{
				"x": -1.815970988,
				"y": 0.9171035695,
				"z": -1.0715767939,
				"element": "N" 
			},
			{
				"x": -0.843815826,
				"y": 0.2140421126,
				"z": -1.6420694729,
				"element": "C" 
			},
			{
				"x": 0.3459669312,
				"y": 0.2207247815,
				"z": -0.8696880371,
				"element": "C" 
			},
			{
				"x": 1.6248125362,
				"y": -0.5328424796,
				"z": -1.0532930338,
				"element": "C" 
			},
			{
				"x": 2.0255864853,
				"y": -0.7504075086,
				"z": -2.3227377814,
				"element": "O" 
			},
			{
				"x": 2.2686761068,
				"y": -0.9457494569,
				"z": -0.1196631439,
				"element": "O" 
			},
			{
				"x": 0.0094396004,
				"y": 1.0123451775,
				"z": 0.2271585861,
				"element": "C" 
			},
			{
				"x": 0.8320923717,
				"y": 1.4341082661,
				"z": 1.4110382608,
				"element": "C" 
			},
			{
				"x": 0.4380646921,
				"y": 2.665495275,
				"z": 1.8316211156,
				"element": "F" 
			},
			{
				"x": 2.1279602331,
				"y": 1.5174174312,
				"z": 1.095570809,
				"element": "F" 
			},
			{
				"x": 0.6361408974,
				"y": 0.3052841523,
				"z": 2.8042228788,
				"element": "Cl" 
			},
			{
				"x": -1.1090210989,
				"y": -0.4920710295,
				"z": -2.9366522015,
				"element": "C" 
			},
			{
				"x": -2.3384212613,
				"y": -0.2673150053,
				"z": -3.3978141832,
				"element": "F" 
			},
			{
				"x": -0.9215675962,
				"y": -1.8189268711,
				"z": -2.8288156927,
				"element": "F" 
			},
			{
				"x": -0.2268501482,
				"y": -0.0565746477,
				"z": -3.898592091,
				"element": "F" 
			},
			{
				"x": -2.0547029373,
				"y": 1.9057583385,
				"z": 1.9543329494,
				"element": "H" 
			},
			{
				"x": -1.8382914143,
				"y": 3.2814414455,
				"z": 0.8432364315,
				"element": "H" 
			},
			{
				"x": -3.1513768291,
				"y": 2.1038461245,
				"z": 0.5576210923,
				"element": "H" 
			},
			{
				"x": 1.4449412547,
				"y": -0.3210668842,
				"z": -2.9701521418,
				"element": "H" 
			}
		],
		 "valence_orbital": [ 
			{
				"type": "occ",
				"energy": -0.3396,
				"method": "rhf"
			},
			{
				"type": "occ",
				"energy": -0.32502,
				"method": "rhf"
			},
			{
				"type": "occ",
				"energy": -0.30396,
				"method": "rhf"
			},
			{
				"type": "occ",
				"energy": -0.29871,
				"method": "rhf"
			},
			{
				"type": "occ",
				"energy": -0.28065,
				"method": "rhf"
			},
			{
				"type": "unocc",
				"energy": -0.06494,
				"method": "rhf"
			},
			{
				"type": "unocc",
				"energy": -0.0349,
				"method": "rhf"
			},
			{
				"type": "unocc",
				"energy": 0.00358,
				"method": "rhf"
			},
			{
				"type": "unocc",
				"energy": 0.05177,
				"method": "rhf"
			},
			{
				"type": "unocc",
				"energy": 0.06433,
				"method": "rhf"
			}
		],
		"cosmo_sigma_profile": { 
			"-0.025": 0.0,
			"-0.024": 0.0,
			"-0.023": 0.0,
			"-0.022": 0.0,
			"-0.021": 0.0,
			"-0.02": 0.0,
			"-0.019": 0.0,
			"-0.018": 0.0,
			"-0.017": 0.0,
			"-0.016": 0.0,
			"-0.015": 0.0,
			"-0.014": 0.662443632726,
			"-0.013": 0.998885998702,
			"-0.012": 0.886918993524,
			"-0.011": 1.14673640918,
			"-0.01": 0.591051439489,
			"-0.009": 1.2560396841,
			"-0.008": 3.95648583696,
			"-0.007": 8.35545189467,
			"-0.006": 11.3213505487,
			"-0.005": 13.9395250969,
			"-0.004": 17.5838146888,
			"-0.003": 15.4678128658,
			"-0.002": 14.4601738601,
			"-0.001": 13.6437527657,
			"0.0": 19.0612082746,
			"0.001": 36.413685357,
			"0.002": 31.1706182371,
			"0.003": 9.90411570929,
			"0.004": 4.74033038131,
			"0.005": 4.30573670631,
			"0.006": 4.87644161119,
			"0.007": 4.70005388526,
			"0.008": 5.37206520855,
			"0.009": 5.20704538842,
			"0.01": 6.2560276774,
			"0.011": 3.83094236084,
			"0.012": 1.82269166525,
			"0.013": 0.141112889181,
			"0.014": 0.0,
			"0.015": 0.0,
			"0.016": 0.0,
			"0.017": 0.0,
			"0.018": 0.0,
			"0.019": 0.0,
			"0.02": 0.0,
			"0.021": 0.0,
			"0.022": 0.0,
			"0.023": 0.0,
			"0.024": 0.0,
			"0.025": 0.0
		}
	}
}
