{
	 "smiles": "CN(C)C1=CC=C(C=C(/C(N)=O)C2=NC3=C(S2)C=CC=C3)C=C1", 
	 "Tm": 483.15, 
	 "num_atms": 40, 
	 "gaussian": { 
		 "optdone": 1, 
		 "sigma_profile": "yes", 
		 "theory": "DFT", 
		 "functional": "B3LYP", 
		 "basiset": "6-31G**", 
		 "properties": { 
			 "R2extent": 13207.6683, 
			 "electric_dipole_moment_norm": 7.64405415535, 
			 "electric_quadrupole_moment_norm": 21.7881534929, 
			 "total_energy": -1333.83648432, 
			 "HOMO_LUMO_gap": 0.12702, 
			 "cosmo_polarized_energy": -19.37, 
			 "cosmo_cavitation_energy": 44.9, 
			 "cosmo_dispersion_energy": -32.96, 
			 "cosmo_repulsion_energy": 2.44, 
			 "cosmo_total_nonelectrostatic_energy": 14.38, 
			 "SMD_solvation_energy": 5.99 
		},
		"coords": [
			{
				"x": -2.1786208199,
				"y": -1.3727265293,
				"z": -5.3638984212,
				"element": "C" 
			},
			{
				"x": -2.4887323038,
				"y": -1.8904657704,
				"z": -4.0409598093,
				"element": "N" 
			},
			{
				"x": -3.3755552663,
				"y": -3.0373230428,
				"z": -3.9279586495,
				"element": "C" 
			},
			{
				"x": -1.7324662363,
				"y": -1.4954455813,
				"z": -2.9546813617,
				"element": "C" 
			},
			{
				"x": -1.8988336132,
				"y": -2.0949280508,
				"z": -1.6806022865,
				"element": "C" 
			},
			{
				"x": -1.1623108527,
				"y": -1.6732639114,
				"z": -0.5849296526,
				"element": "C" 
			},
			{
				"x": -0.2085644572,
				"y": -0.6380428465,
				"z": -0.6820056408,
				"element": "C" 
			},
			{
				"x": 0.6313570548,
				"y": -0.1742769351,
				"z": 0.4170841477,
				"element": "C" 
			},
			{
				"x": 0.4339994114,
				"y": -0.1825528863,
				"z": 1.7642381901,
				"element": "C" 
			},
			{
				"x": -0.8407227319,
				"y": -0.5712566871,
				"z": 2.4634695875,
				"element": "C" 
			},
			{
				"x": -1.9872931855,
				"y": -0.0368086533,
				"z": 1.9510882742,
				"element": "N" 
			},
			{
				"x": -0.8440428291,
				"y": -1.2565880922,
				"z": 3.4826503979,
				"element": "O" 
			},
			{
				"x": 1.5488466683,
				"y": 0.2372689117,
				"z": 2.6298964281,
				"element": "C" 
			},
			{
				"x": 2.6128931175,
				"y": 0.8384904739,
				"z": 2.1754109004,
				"element": "N" 
			},
			{
				"x": 3.5037285737,
				"y": 1.1353113759,
				"z": 3.1847732854,
				"element": "C" 
			},
			{
				"x": 3.0960198084,
				"y": 0.740777226,
				"z": 4.4831865727,
				"element": "C" 
			},
			{
				"x": 1.5367283934,
				"y": -0.0481369387,
				"z": 4.3929505347,
				"element": "S" 
			},
			{
				"x": 3.9018256116,
				"y": 0.9819007432,
				"z": 5.600011661,
				"element": "C" 
			},
			{
				"x": 5.1212086381,
				"y": 1.6256261457,
				"z": 5.4070263333,
				"element": "C" 
			},
			{
				"x": 5.5349279573,
				"y": 2.0232533165,
				"z": 4.1220913921,
				"element": "C" 
			},
			{
				"x": 4.7375579522,
				"y": 1.7843016989,
				"z": 3.0105511023,
				"element": "C" 
			},
			{
				"x": -0.0097490639,
				"y": -0.084419429,
				"z": -1.9637742583,
				"element": "C" 
			},
			{
				"x": -0.7486924814,
				"y": -0.4826177926,
				"z": -3.066690203,
				"element": "C" 
			},
			{
				"x": -1.1695803334,
				"y": -1.6517999608,
				"z": -5.7019639817,
				"element": "H" 
			},
			{
				"x": -2.2537478309,
				"y": -0.2793179312,
				"z": -5.3885816409,
				"element": "H" 
			},
			{
				"x": -2.8988874459,
				"y": -1.768561802,
				"z": -6.080843591,
				"element": "H" 
			},
			{
				"x": -3.914821187,
				"y": -3.1660952542,
				"z": -4.8671848329,
				"element": "H" 
			},
			{
				"x": -4.1196281188,
				"y": -2.885491023,
				"z": -3.1375020617,
				"element": "H" 
			},
			{
				"x": -2.8357903183,
				"y": -3.9713656449,
				"z": -3.7119635523,
				"element": "H" 
			},
			{
				"x": -2.5955274622,
				"y": -2.9135022935,
				"z": -1.5493183568,
				"element": "H" 
			},
			{
				"x": -1.3023575929,
				"y": -2.1877352313,
				"z": 0.3596029196,
				"element": "H" 
			},
			{
				"x": 1.5946618682,
				"y": 0.2318696357,
				"z": 0.112386094,
				"element": "H" 
			},
			{
				"x": -2.8609499121,
				"y": -0.3445951657,
				"z": 2.3515724871,
				"element": "H" 
			},
			{
				"x": -1.9970087458,
				"y": 0.4290887917,
				"z": 1.0579312847,
				"element": "H" 
			},
			{
				"x": 3.587257117,
				"y": 0.6767438318,
				"z": 6.5932743141,
				"element": "H" 
			},
			{
				"x": 5.7614358912,
				"y": 1.823442415,
				"z": 6.2617791783,
				"element": "H" 
			},
			{
				"x": 6.491313594,
				"y": 2.5233997541,
				"z": 4.0004582129,
				"element": "H" 
			},
			{
				"x": 5.0430548149,
				"y": 2.0851650092,
				"z": 2.0136164956,
				"element": "H" 
			},
			{
				"x": 0.7442861317,
				"y": 0.6883893269,
				"z": -2.0906065855,
				"element": "H" 
			},
			{
				"x": -0.5509198151,
				"y": -0.0130112029,
				"z": -4.0220849077,
				"element": "H" 
			}
		],
		 "valence_orbital": [ 
			{
				"type": "occ",
				"energy": -0.25636,
				"method": "rhf"
			},
			{
				"type": "occ",
				"energy": -0.24917,
				"method": "rhf"
			},
			{
				"type": "occ",
				"energy": -0.22332,
				"method": "rhf"
			},
			{
				"type": "occ",
				"energy": -0.21821,
				"method": "rhf"
			},
			{
				"type": "occ",
				"energy": -0.19008,
				"method": "rhf"
			},
			{
				"type": "unocc",
				"energy": -0.06306,
				"method": "rhf"
			},
			{
				"type": "unocc",
				"energy": -0.0076,
				"method": "rhf"
			},
			{
				"type": "unocc",
				"energy": -0.00204,
				"method": "rhf"
			},
			{
				"type": "unocc",
				"energy": 0.00943,
				"method": "rhf"
			},
			{
				"type": "unocc",
				"energy": 0.02408,
				"method": "rhf"
			}
		],
		"cosmo_sigma_profile": { 
			"-0.025": 0.0,
			"-0.024": 0.0,
			"-0.023": 0.0,
			"-0.022": 0.0,
			"-0.021": 0.0,
			"-0.02": 0.0,
			"-0.019": 0.0,
			"-0.018": 0.0,
			"-0.017": 0.0,
			"-0.016": 0.0,
			"-0.015": 0.045487914679,
			"-0.014": 0.855869453775,
			"-0.013": 1.86705733052,
			"-0.012": 1.93941843226,
			"-0.011": 1.68108700091,
			"-0.01": 2.5843990762,
			"-0.009": 1.50207385398,
			"-0.008": 1.53883958766,
			"-0.007": 5.67574233837,
			"-0.006": 18.4447575086,
			"-0.005": 27.7145354163,
			"-0.004": 32.0252263152,
			"-0.003": 29.8822573769,
			"-0.002": 29.6305523209,
			"-0.001": 21.8831723118,
			"0.0": 20.5868241471,
			"0.001": 22.5072700236,
			"0.002": 24.4375138566,
			"0.003": 27.0516109327,
			"0.004": 28.3809939829,
			"0.005": 25.704247866,
			"0.006": 8.80825513574,
			"0.007": 3.6790770797,
			"0.008": 3.08142623945,
			"0.009": 3.00839328414,
			"0.01": 3.16148200938,
			"0.011": 2.98449202368,
			"0.012": 2.98509026749,
			"0.013": 4.54470793608,
			"0.014": 2.07641563585,
			"0.015": 0.0232570426353,
			"0.016": 0.0,
			"0.017": 0.0,
			"0.018": 0.0,
			"0.019": 0.0,
			"0.02": 0.0,
			"0.021": 0.0,
			"0.022": 0.0,
			"0.023": 0.0,
			"0.024": 0.0,
			"0.025": 0.0
		}
	}
}
