{
	 "smiles": "CC1=C(C=CC=C1N)C(=O)N1CCSCC1", 
	 "Tm": 429.15, 
	 "num_atms": 32, 
	 "gaussian": { 
		 "optdone": 1, 
		 "sigma_profile": "yes", 
		 "theory": "DFT", 
		 "functional": "B3LYP", 
		 "basiset": "6-31G**", 
		 "properties": { 
			 "R2extent": 5272.052, 
			 "electric_dipole_moment_norm": 3.80743440127, 
			 "electric_quadrupole_moment_norm": 19.924196435, 
			 "total_energy": -1049.85059563, 
			 "HOMO_LUMO_gap": 0.18976, 
			 "cosmo_polarized_energy": -17.04, 
			 "cosmo_cavitation_energy": 34.64, 
			 "cosmo_dispersion_energy": -25.31, 
			 "cosmo_repulsion_energy": 1.93, 
			 "cosmo_total_nonelectrostatic_energy": 11.26, 
			 "SMD_solvation_energy": 4.71 
		},
		"coords": [
			{
				"x": 0.5508835296,
				"y": 1.8129400808,
				"z": -3.0942707609,
				"element": "C" 
			},
			{
				"x": 0.3404389547,
				"y": 2.4860863219,
				"z": -1.7586434037,
				"element": "C" 
			},
			{
				"x": -0.5487908941,
				"y": 1.996903038,
				"z": -0.7846926514,
				"element": "C" 
			},
			{
				"x": -0.7276937792,
				"y": 2.6708745388,
				"z": 0.4335905751,
				"element": "C" 
			},
			{
				"x": -0.0165701971,
				"y": 3.8396081987,
				"z": 0.6920238357,
				"element": "C" 
			},
			{
				"x": 0.8871063977,
				"y": 4.3264251892,
				"z": -0.2462275706,
				"element": "C" 
			},
			{
				"x": 1.0774404568,
				"y": 3.6596965751,
				"z": -1.4669520168,
				"element": "C" 
			},
			{
				"x": 1.9482646191,
				"y": 4.1911504793,
				"z": -2.420264041,
				"element": "N" 
			},
			{
				"x": -1.4190000175,
				"y": 0.7970859479,
				"z": -1.0717702531,
				"element": "C" 
			},
			{
				"x": -2.175818385,
				"y": 0.7722588277,
				"z": -2.0423900712,
				"element": "O" 
			},
			{
				"x": -1.3868761722,
				"y": -0.2521826799,
				"z": -0.1802315105,
				"element": "N" 
			},
			{
				"x": -2.3383219685,
				"y": -1.3444214939,
				"z": -0.4410285595,
				"element": "C" 
			},
			{
				"x": -2.5168354498,
				"y": -2.2449117594,
				"z": 0.7758762136,
				"element": "C" 
			},
			{
				"x": -0.9812839378,
				"y": -3.1628654311,
				"z": 1.2216347006,
				"element": "S" 
			},
			{
				"x": 0.2494784315,
				"y": -1.8700855502,
				"z": 0.7535735036,
				"element": "C" 
			},
			{
				"x": -0.3370349149,
				"y": -0.4588327951,
				"z": 0.8224322356,
				"element": "C" 
			},
			{
				"x": 0.4095352925,
				"y": 2.5309704947,
				"z": -3.9110837235,
				"element": "H" 
			},
			{
				"x": 1.5719383973,
				"y": 1.4140474175,
				"z": -3.1892581721,
				"element": "H" 
			},
			{
				"x": -0.1518736044,
				"y": 0.9971974308,
				"z": -3.2525377793,
				"element": "H" 
			},
			{
				"x": -1.4368610298,
				"y": 2.2871918077,
				"z": 1.1603138487,
				"element": "H" 
			},
			{
				"x": -0.1619595229,
				"y": 4.3719260886,
				"z": 1.6276414784,
				"element": "H" 
			},
			{
				"x": 1.4498710368,
				"y": 5.2348335452,
				"z": -0.0439444173,
				"element": "H" 
			},
			{
				"x": 2.6260037525,
				"y": 4.8483677717,
				"z": -2.0604231264,
				"element": "H" 
			},
			{
				"x": 2.3625008646,
				"y": 3.5292798593,
				"z": -3.0603518601,
				"element": "H" 
			},
			{
				"x": -3.293067982,
				"y": -0.8896608966,
				"z": -0.7191448177,
				"element": "H" 
			},
			{
				"x": -2.0123508749,
				"y": -1.9393217834,
				"z": -1.3043976498,
				"element": "H" 
			},
			{
				"x": -3.2684547223,
				"y": -3.0067676518,
				"z": 0.5554006744,
				"element": "H" 
			},
			{
				"x": -2.8675208868,
				"y": -1.6681990423,
				"z": 1.6369643668,
				"element": "H" 
			},
			{
				"x": 1.0788090075,
				"y": -1.9574140677,
				"z": 1.4604696722,
				"element": "H" 
			},
			{
				"x": 0.6325317804,
				"y": -2.0713718604,
				"z": -0.2511280932,
				"element": "H" 
			},
			{
				"x": -0.7178054534,
				"y": -0.2740564004,
				"z": 1.8358961683,
				"element": "H" 
			},
			{
				"x": 0.4545172718,
				"y": 0.269247799,
				"z": 0.6400232049,
				"element": "H" 
			}
		],
		 "valence_orbital": [ 
			{
				"type": "occ",
				"energy": -0.25438,
				"method": "rhf"
			},
			{
				"type": "occ",
				"energy": -0.24004,
				"method": "rhf"
			},
			{
				"type": "occ",
				"energy": -0.2322,
				"method": "rhf"
			},
			{
				"type": "occ",
				"energy": -0.22303,
				"method": "rhf"
			},
			{
				"type": "occ",
				"energy": -0.20461,
				"method": "rhf"
			},
			{
				"type": "unocc",
				"energy": -0.01485,
				"method": "rhf"
			},
			{
				"type": "unocc",
				"energy": 0.01079,
				"method": "rhf"
			},
			{
				"type": "unocc",
				"energy": 0.03357,
				"method": "rhf"
			},
			{
				"type": "unocc",
				"energy": 0.04494,
				"method": "rhf"
			},
			{
				"type": "unocc",
				"energy": 0.05695,
				"method": "rhf"
			}
		],
		"cosmo_sigma_profile": { 
			"-0.025": 0.0,
			"-0.024": 0.0,
			"-0.023": 0.0,
			"-0.022": 0.0,
			"-0.021": 0.0,
			"-0.02": 0.0,
			"-0.019": 0.0,
			"-0.018": 0.0,
			"-0.017": 0.0,
			"-0.016": 0.0,
			"-0.015": 0.0,
			"-0.014": 0.0,
			"-0.013": 0.239419987098,
			"-0.012": 1.40131815497,
			"-0.011": 2.5224463803,
			"-0.01": 2.87294176113,
			"-0.009": 3.34228590303,
			"-0.008": 2.99583184901,
			"-0.007": 3.70324970212,
			"-0.006": 10.5169991291,
			"-0.005": 24.8973186095,
			"-0.004": 30.0239195137,
			"-0.003": 29.2970570859,
			"-0.002": 22.0817958154,
			"-0.001": 18.9389829712,
			"0.0": 16.9040979717,
			"0.001": 13.2822074473,
			"0.002": 10.0436181801,
			"0.003": 9.92895472106,
			"0.004": 10.035319564,
			"0.005": 12.4523706182,
			"0.006": 13.0330748168,
			"0.007": 6.31127864245,
			"0.008": 4.58929612542,
			"0.009": 4.87403930646,
			"0.01": 4.04569049801,
			"0.011": 4.38039821487,
			"0.012": 2.19208197612,
			"0.013": 3.33252791115,
			"0.014": 4.70656294035,
			"0.015": 1.24436526306,
			"0.016": 0.0163044354869,
			"0.017": 0.0,
			"0.018": 0.0,
			"0.019": 0.0,
			"0.02": 0.0,
			"0.021": 0.0,
			"0.022": 0.0,
			"0.023": 0.0,
			"0.024": 0.0,
			"0.025": 0.0
		}
	}
}
