{
	 "smiles": "FC1=NC=C(I)C=C1", 
	 "Tm": 305.15, 
	 "num_atms": 11, 
	 "gaussian": { 
		 "optdone": 1, 
		 "sigma_profile": "no", 
		 "theory": "DFT", 
		 "functional": "B3LYP", 
		 "basiset": "6-31G**", 
		 "properties": { 
			 "R2extent": 1343.6249, 
			 "electric_dipole_moment_norm": 2.1514890332, 
			 "electric_quadrupole_moment_norm": 6.92446292502, 
			 "total_energy": -358.306331217, 
			 "HOMO_LUMO_gap": 0.20164, 
			 "cosmo_polarized_energy": -97901.85, 
			 "cosmo_cavitation_energy": 19.23, 
			 "cosmo_dispersion_energy": -15.74, 
			 "cosmo_repulsion_energy": 1.24, 
			 "cosmo_total_nonelectrostatic_energy": 4.73, 
			 "SMD_solvation_energy": 1.54 
		},
		"coords": [
			{
				"x": -2.0573260533,
				"y": 1.7399426375,
				"z": 0.4896546422,
				"element": "F" 
			},
			{
				"x": -1.1893780884,
				"y": 1.1629455447,
				"z": -0.3514100694,
				"element": "C" 
			},
			{
				"x": -0.8790296934,
				"y": -0.0903789158,
				"z": -0.0981033491,
				"element": "N" 
			},
			{
				"x": -0.0127041706,
				"y": -0.6912772511,
				"z": -0.9241559263,
				"element": "C" 
			},
			{
				"x": 0.5546031517,
				"y": -0.0374261643,
				"z": -2.0192451439,
				"element": "C" 
			},
			{
				"x": 1.9135696456,
				"y": -1.057270687,
				"z": -3.2742365159,
				"element": "I" 
			},
			{
				"x": 0.2091129068,
				"y": 1.2950482005,
				"z": -2.2679934492,
				"element": "C" 
			},
			{
				"x": -0.6903785426,
				"y": 1.9205481469,
				"z": -1.4111461527,
				"element": "C" 
			},
			{
				"x": 0.2329657539,
				"y": -1.7257293043,
				"z": -0.7012734246,
				"element": "H" 
			},
			{
				"x": 0.6306023773,
				"y": 1.8335736766,
				"z": -3.1094664274,
				"element": "H" 
			},
			{
				"x": -0.9988372871,
				"y": 2.9503241162,
				"z": -1.5486241835,
				"element": "H" 
			}
		],
		 "valence_orbital": [ 
			{
				"type": "occ",
				"energy": -0.32319,
				"method": "rhf"
			},
			{
				"type": "occ",
				"energy": -0.29959,
				"method": "rhf"
			},
			{
				"type": "occ",
				"energy": -0.29399,
				"method": "rhf"
			},
			{
				"type": "occ",
				"energy": -0.2797,
				"method": "rhf"
			},
			{
				"type": "occ",
				"energy": -0.25243,
				"method": "rhf"
			},
			{
				"type": "unocc",
				"energy": -0.05079,
				"method": "rhf"
			},
			{
				"type": "unocc",
				"energy": -0.04842,
				"method": "rhf"
			},
			{
				"type": "unocc",
				"energy": -0.02963,
				"method": "rhf"
			},
			{
				"type": "unocc",
				"energy": 0.03651,
				"method": "rhf"
			},
			{
				"type": "unocc",
				"energy": 0.04362,
				"method": "rhf"
			}
		],
		"cosmo_sigma_profile": { 
			"0.0": 0.0,
			"0.0": 0.0,
			"0.0": 0.0,
			"0.0": 0.0,
			"0.0": 0.0,
			"0.0": 0.0,
			"0.0": 0.0,
			"0.0": 0.0,
			"0.0": 0.0,
			"0.0": 0.0,
			"0.0": 0.0,
			"0.0": 0.0,
			"0.0": 0.0,
			"0.0": 0.0,
			"0.0": 0.0,
			"0.0": 0.0,
			"0.0": 0.0,
			"0.0": 0.0,
			"0.0": 0.0,
			"0.0": 0.0,
			"0.0": 0.0,
			"0.0": 0.0,
			"0.0": 0.0,
			"0.0": 0.0,
			"0.0": 0.0,
			"0.0": 0.0,
			"0.0": 0.0,
			"0.0": 0.0,
			"0.0": 0.0,
			"0.0": 0.0,
			"0.0": 0.0,
			"0.0": 0.0,
			"0.0": 0.0,
			"0.0": 0.0,
			"0.0": 0.0,
			"0.0": 0.0,
			"0.0": 0.0,
			"0.0": 0.0,
			"0.0": 0.0,
			"0.0": 0.0,
			"0.0": 0.0,
			"0.0": 0.0,
			"0.0": 0.0,
			"0.0": 0.0,
			"0.0": 0.0,
			"0.0": 0.0,
			"0.0": 0.0,
			"0.0": 0.0,
			"0.0": 0.0,
			"0.0": 0.0,
			"0.0": 0.0
		}
	}
}
