{
	 "smiles": "NCC1=CC(NC(=O)C2=CC(F)=CC=C2)=CC=C1", 
	 "Tm": 374.15, 
	 "num_atms": 31, 
	 "gaussian": { 
		 "optdone": 1, 
		 "sigma_profile": "yes", 
		 "theory": "DFT", 
		 "functional": "B3LYP", 
		 "basiset": "6-31G**", 
		 "properties": { 
			 "R2extent": 7255.8532, 
			 "electric_dipole_moment_norm": 5.56875071178, 
			 "electric_quadrupole_moment_norm": 15.1244723068, 
			 "total_energy": -825.896103432, 
			 "HOMO_LUMO_gap": 0.1807, 
			 "cosmo_polarized_energy": -14.38, 
			 "cosmo_cavitation_energy": 35.82, 
			 "cosmo_dispersion_energy": -25.11, 
			 "cosmo_repulsion_energy": 1.96, 
			 "cosmo_total_nonelectrostatic_energy": 12.67, 
			 "SMD_solvation_energy": 6.28 
		},
		"coords": [
			{
				"x": 1.2996993924,
				"y": 0.8083826505,
				"z": -3.6997648514,
				"element": "N" 
			},
			{
				"x": 0.5262147761,
				"y": 1.7072754685,
				"z": -2.8392736289,
				"element": "C" 
			},
			{
				"x": 0.8733648495,
				"y": 1.5267558599,
				"z": -1.3720087476,
				"element": "C" 
			},
			{
				"x": 1.2389901136,
				"y": 0.2703565344,
				"z": -0.880266491,
				"element": "C" 
			},
			{
				"x": 1.5327801173,
				"y": 0.0877081537,
				"z": 0.4768482089,
				"element": "C" 
			},
			{
				"x": 1.9496697842,
				"y": -1.2011478618,
				"z": 0.9005241118,
				"element": "N" 
			},
			{
				"x": 1.8487815615,
				"y": -1.8376927264,
				"z": 2.1243423331,
				"element": "C" 
			},
			{
				"x": 2.6250816373,
				"y": -2.7441473115,
				"z": 2.4059569153,
				"element": "O" 
			},
			{
				"x": 0.7341816643,
				"y": -1.4644334777,
				"z": 3.0604632963,
				"element": "C" 
			},
			{
				"x": 0.973216806,
				"y": -1.6397161226,
				"z": 4.4294439429,
				"element": "C" 
			},
			{
				"x": -0.0520312132,
				"y": -1.3820025247,
				"z": 5.3274712145,
				"element": "C" 
			},
			{
				"x": 0.1824816017,
				"y": -1.5317486297,
				"z": 6.6478329512,
				"element": "F" 
			},
			{
				"x": -1.3185715312,
				"y": -0.9829536601,
				"z": 4.9118693357,
				"element": "C" 
			},
			{
				"x": -1.5549678455,
				"y": -0.8381789254,
				"z": 3.5439776786,
				"element": "C" 
			},
			{
				"x": -0.5369451644,
				"y": -1.0703276407,
				"z": 2.6186132061,
				"element": "C" 
			},
			{
				"x": 1.4661513256,
				"y": 1.1781762151,
				"z": 1.3554725244,
				"element": "C" 
			},
			{
				"x": 1.080060947,
				"y": 2.4257015618,
				"z": 0.8690576512,
				"element": "C" 
			},
			{
				"x": 0.7918856509,
				"y": 2.6059504889,
				"z": -0.4842520333,
				"element": "C" 
			},
			{
				"x": 2.2771312462,
				"y": 1.0903414451,
				"z": -3.7063410021,
				"element": "H" 
			},
			{
				"x": 0.9679017749,
				"y": 0.872441838,
				"z": -4.6581154691,
				"element": "H" 
			},
			{
				"x": -0.5346150854,
				"y": 1.4605258176,
				"z": -2.9853064088,
				"element": "H" 
			},
			{
				"x": 0.625796204,
				"y": 2.777028446,
				"z": -3.0917545324,
				"element": "H" 
			},
			{
				"x": 1.2986232583,
				"y": -0.5657053164,
				"z": -1.5703407917,
				"element": "H" 
			},
			{
				"x": 2.6226820521,
				"y": -1.6672581463,
				"z": 0.3033760783,
				"element": "H" 
			},
			{
				"x": 1.9402407042,
				"y": -1.9844645279,
				"z": 4.7763801797,
				"element": "H" 
			},
			{
				"x": -2.0920556597,
				"y": -0.801066703,
				"z": 5.6502026651,
				"element": "H" 
			},
			{
				"x": -2.5414363585,
				"y": -0.5434022341,
				"z": 3.1992901238,
				"element": "H" 
			},
			{
				"x": -0.7337851497,
				"y": -0.9586823038,
				"z": 1.5587775305,
				"element": "H" 
			},
			{
				"x": 1.7258413756,
				"y": 1.0531103211,
				"z": 2.4003806945,
				"element": "H" 
			},
			{
				"x": 1.0313668152,
				"y": 3.2705658554,
				"z": 1.5500713833,
				"element": "H" 
			},
			{
				"x": 0.5125643499,
				"y": 3.5893074562,
				"z": -0.8540280688,
				"element": "H" 
			}
		],
		 "valence_orbital": [ 
			{
				"type": "occ",
				"energy": -0.2579,
				"method": "rhf"
			},
			{
				"type": "occ",
				"energy": -0.25027,
				"method": "rhf"
			},
			{
				"type": "occ",
				"energy": -0.24811,
				"method": "rhf"
			},
			{
				"type": "occ",
				"energy": -0.24147,
				"method": "rhf"
			},
			{
				"type": "occ",
				"energy": -0.22392,
				"method": "rhf"
			},
			{
				"type": "unocc",
				"energy": -0.04322,
				"method": "rhf"
			},
			{
				"type": "unocc",
				"energy": -0.01299,
				"method": "rhf"
			},
			{
				"type": "unocc",
				"energy": -0.00384,
				"method": "rhf"
			},
			{
				"type": "unocc",
				"energy": 0.00039,
				"method": "rhf"
			},
			{
				"type": "unocc",
				"energy": 0.05565,
				"method": "rhf"
			}
		],
		"cosmo_sigma_profile": { 
			"-0.025": 0.0,
			"-0.024": 0.0,
			"-0.023": 0.0,
			"-0.022": 0.0,
			"-0.021": 0.0,
			"-0.02": 0.0,
			"-0.019": 0.0,
			"-0.018": 0.0,
			"-0.017": 0.0,
			"-0.016": 0.0,
			"-0.015": 0.0412239375435,
			"-0.014": 0.705510167639,
			"-0.013": 1.0181102668,
			"-0.012": 0.859552407846,
			"-0.011": 0.998923310627,
			"-0.01": 2.65112243015,
			"-0.009": 4.35491580395,
			"-0.008": 3.79635741875,
			"-0.007": 8.49569346401,
			"-0.006": 11.7330733446,
			"-0.005": 19.9207479709,
			"-0.004": 21.0584117068,
			"-0.003": 19.3230544799,
			"-0.002": 21.5640110317,
			"-0.001": 19.7131186298,
			"0.0": 20.6365603739,
			"0.001": 22.3538425721,
			"0.002": 21.6621095454,
			"0.003": 21.0619886254,
			"0.004": 21.7047541161,
			"0.005": 11.975670814,
			"0.006": 4.77330250066,
			"0.007": 3.12166234295,
			"0.008": 2.36822908262,
			"0.009": 2.03016424772,
			"0.01": 1.7295141226,
			"0.011": 3.14193477829,
			"0.012": 3.41449027428,
			"0.013": 5.71475335397,
			"0.014": 1.80463175257,
			"0.015": 0.669409113716,
			"0.016": 0.516626208076,
			"0.017": 0.0554102775754,
			"0.018": 0.0,
			"0.019": 0.0,
			"0.02": 0.0,
			"0.021": 0.0,
			"0.022": 0.0,
			"0.023": 0.0,
			"0.024": 0.0,
			"0.025": 0.0
		}
	}
}
