{
	 "smiles": "CCCCCCCCCCCCOC1=CC=C(C=C1)C(O)=O", 
	 "Tm": 407.65, 
	 "num_atms": 52, 
	 "gaussian": { 
		 "optdone": 1, 
		 "sigma_profile": "yes", 
		 "theory": "DFT", 
		 "functional": "B3LYP", 
		 "basiset": "6-31G**", 
		 "properties": { 
			 "R2extent": 16907.9234, 
			 "electric_dipole_moment_norm": 3.57834356372, 
			 "electric_quadrupole_moment_norm": 26.0106923603, 
			 "total_energy": -967.821233709, 
			 "HOMO_LUMO_gap": 0.19367, 
			 "cosmo_polarized_energy": -11.05, 
			 "cosmo_cavitation_energy": 53.23, 
			 "cosmo_dispersion_energy": -36.42, 
			 "cosmo_repulsion_energy": 2.89, 
			 "cosmo_total_nonelectrostatic_energy": 19.7, 
			 "SMD_solvation_energy": 8.94 
		},
		"coords": [
			{
				"x": -3.3489816186,
				"y": 0.0298747122,
				"z": 6.0872694654,
				"element": "C" 
			},
			{
				"x": -3.2550381921,
				"y": 1.366360835,
				"z": 5.3411230726,
				"element": "C" 
			},
			{
				"x": -3.754413374,
				"y": 1.3219900757,
				"z": 3.8873727568,
				"element": "C" 
			},
			{
				"x": -2.9131648828,
				"y": 0.4493914457,
				"z": 2.9443348331,
				"element": "C" 
			},
			{
				"x": -3.419259425,
				"y": 0.4831815417,
				"z": 1.49539629,
				"element": "C" 
			},
			{
				"x": -2.5825814613,
				"y": -0.3034864481,
				"z": 0.4700561015,
				"element": "C" 
			},
			{
				"x": -2.5321976229,
				"y": -1.8332907823,
				"z": 0.6973543162,
				"element": "C" 
			},
			{
				"x": -1.3501937318,
				"y": -2.3632537233,
				"z": 1.544006682,
				"element": "C" 
			},
			{
				"x": -0.1148823401,
				"y": -2.8027132605,
				"z": 0.7373792754,
				"element": "C" 
			},
			{
				"x": 0.5952211927,
				"y": -1.6937880734,
				"z": -0.0503228495,
				"element": "C" 
			},
			{
				"x": 1.8531911544,
				"y": -2.1959183094,
				"z": -0.7712811775,
				"element": "C" 
			},
			{
				"x": 2.5717798964,
				"y": -1.1221855682,
				"z": -1.576974342,
				"element": "C" 
			},
			{
				"x": 1.6948526293,
				"y": -0.6953861257,
				"z": -2.6244635692,
				"element": "O" 
			},
			{
				"x": 2.1035049691,
				"y": 0.2775345769,
				"z": -3.477991665,
				"element": "C" 
			},
			{
				"x": 3.3537162383,
				"y": 0.9122403438,
				"z": -3.4218443883,
				"element": "C" 
			},
			{
				"x": 3.6667034796,
				"y": 1.8998545506,
				"z": -4.3541530869,
				"element": "C" 
			},
			{
				"x": 2.750028868,
				"y": 2.2667205671,
				"z": -5.3461056229,
				"element": "C" 
			},
			{
				"x": 1.50047094,
				"y": 1.6238853244,
				"z": -5.3935358776,
				"element": "C" 
			},
			{
				"x": 1.1783104308,
				"y": 0.6419135045,
				"z": -4.4732702622,
				"element": "C" 
			},
			{
				"x": 3.0412663471,
				"y": 3.3091349184,
				"z": -6.3542607179,
				"element": "C" 
			},
			{
				"x": 4.2761901537,
				"y": 3.8621833431,
				"z": -6.2132872254,
				"element": "O" 
			},
			{
				"x": 2.2803663443,
				"y": 3.6639703928,
				"z": -7.2353277956,
				"element": "O" 
			},
			{
				"x": -3.0294909788,
				"y": 0.1368383231,
				"z": 7.1292398332,
				"element": "H" 
			},
			{
				"x": -4.3788707996,
				"y": -0.3462685434,
				"z": 6.0932519754,
				"element": "H" 
			},
			{
				"x": -2.7191057984,
				"y": -0.739886602,
				"z": 5.6296615333,
				"element": "H" 
			},
			{
				"x": -2.2147000178,
				"y": 1.7199684813,
				"z": 5.3544341459,
				"element": "H" 
			},
			{
				"x": -3.836493771,
				"y": 2.1195180106,
				"z": 5.888267869,
				"element": "H" 
			},
			{
				"x": -3.7786975773,
				"y": 2.3462584359,
				"z": 3.4907359874,
				"element": "H" 
			},
			{
				"x": -4.7958352099,
				"y": 0.9686063274,
				"z": 3.8744722854,
				"element": "H" 
			},
			{
				"x": -1.8681510024,
				"y": 0.7920679151,
				"z": 2.9740856309,
				"element": "H" 
			},
			{
				"x": -2.9067886555,
				"y": -0.5850360219,
				"z": 3.3080956824,
				"element": "H" 
			},
			{
				"x": -3.473066202,
				"y": 1.5307250453,
				"z": 1.1675679849,
				"element": "H" 
			},
			{
				"x": -4.4528156443,
				"y": 0.1079687631,
				"z": 1.4703349352,
				"element": "H" 
			},
			{
				"x": -1.5651044544,
				"y": 0.1061617434,
				"z": 0.4441931278,
				"element": "H" 
			},
			{
				"x": -3.0079146646,
				"y": -0.1064153006,
				"z": -0.5220688344,
				"element": "H" 
			},
			{
				"x": -2.5118215926,
				"y": -2.3429634286,
				"z": -0.2750386301,
				"element": "H" 
			},
			{
				"x": -3.4770219748,
				"y": -2.1410330229,
				"z": 1.164419604,
				"element": "H" 
			},
			{
				"x": -1.0496536099,
				"y": -1.6097575352,
				"z": 2.2825458372,
				"element": "H" 
			},
			{
				"x": -1.6882611397,
				"y": -3.2314293989,
				"z": 2.1237618224,
				"element": "H" 
			},
			{
				"x": 0.6062759893,
				"y": -3.261965191,
				"z": 1.4283202584,
				"element": "H" 
			},
			{
				"x": -0.4126740414,
				"y": -3.599467179,
				"z": 0.0403788938,
				"element": "H" 
			},
			{
				"x": -0.0832283459,
				"y": -1.2588387977,
				"z": -0.791632225,
				"element": "H" 
			},
			{
				"x": 0.8731403232,
				"y": -0.8783612036,
				"z": 0.6333512257,
				"element": "H" 
			},
			{
				"x": 2.5686311408,
				"y": -2.5984012091,
				"z": -0.0417658363,
				"element": "H" 
			},
			{
				"x": 1.5947632255,
				"y": -3.0225143405,
				"z": -1.4451295352,
				"element": "H" 
			},
			{
				"x": 3.5002436228,
				"y": -1.5171488823,
				"z": -2.0116423772,
				"element": "H" 
			},
			{
				"x": 2.8313014721,
				"y": -0.2646517009,
				"z": -0.9395677765,
				"element": "H" 
			},
			{
				"x": 4.0803000211,
				"y": 0.6454522571,
				"z": -2.6642995831,
				"element": "H" 
			},
			{
				"x": 4.6324775554,
				"y": 2.3908260403,
				"z": -4.311532901,
				"element": "H" 
			},
			{
				"x": 0.7969102508,
				"y": 1.9151108711,
				"z": -6.166158737,
				"element": "H" 
			},
			{
				"x": 0.2187354853,
				"y": 0.1362406312,
				"z": -4.4957660175,
				"element": "H" 
			},
			{
				"x": 4.3454263988,
				"y": 4.5213816717,
				"z": -6.9227903918,
				"element": "H" 
			}
		],
		 "valence_orbital": [ 
			{
				"type": "occ",
				"energy": -0.30037,
				"method": "rhf"
			},
			{
				"type": "occ",
				"energy": -0.29625,
				"method": "rhf"
			},
			{
				"type": "occ",
				"energy": -0.26851,
				"method": "rhf"
			},
			{
				"type": "occ",
				"energy": -0.2591,
				"method": "rhf"
			},
			{
				"type": "occ",
				"energy": -0.22901,
				"method": "rhf"
			},
			{
				"type": "unocc",
				"energy": -0.03534,
				"method": "rhf"
			},
			{
				"type": "unocc",
				"energy": -0.00689,
				"method": "rhf"
			},
			{
				"type": "unocc",
				"energy": 0.06963,
				"method": "rhf"
			},
			{
				"type": "unocc",
				"energy": 0.08154,
				"method": "rhf"
			},
			{
				"type": "unocc",
				"energy": 0.08296,
				"method": "rhf"
			}
		],
		"cosmo_sigma_profile": { 
			"-0.025": 0.0,
			"-0.024": 0.0,
			"-0.023": 0.0,
			"-0.022": 0.0,
			"-0.021": 0.0,
			"-0.02": 0.0,
			"-0.019": 0.0,
			"-0.018": 0.503673457993,
			"-0.017": 1.05670104524,
			"-0.016": 0.665169215648,
			"-0.015": 1.04294584236,
			"-0.014": 0.611701322981,
			"-0.013": 0.382153138498,
			"-0.012": 0.290372484432,
			"-0.011": 1.15912611595,
			"-0.01": 0.511034647244,
			"-0.009": 0.48424380363,
			"-0.008": 0.514825039538,
			"-0.007": 3.15234272446,
			"-0.006": 8.03469233983,
			"-0.005": 13.4364891494,
			"-0.004": 14.1245527504,
			"-0.003": 18.5413444573,
			"-0.002": 39.3270747874,
			"-0.001": 72.2154811675,
			"0.0": 77.2880519992,
			"0.001": 62.5768086216,
			"0.002": 34.4044632486,
			"0.003": 17.3454344317,
			"0.004": 14.3614225243,
			"0.005": 5.35274164449,
			"0.006": 4.28972388962,
			"0.007": 4.54363245656,
			"0.008": 4.28701537498,
			"0.009": 1.6571901507,
			"0.01": 1.78757029363,
			"0.011": 2.63390688166,
			"0.012": 5.50169348833,
			"0.013": 0.850515494844,
			"0.014": 0.0,
			"0.015": 0.0,
			"0.016": 0.0,
			"0.017": 0.0,
			"0.018": 0.0,
			"0.019": 0.0,
			"0.02": 0.0,
			"0.021": 0.0,
			"0.022": 0.0,
			"0.023": 0.0,
			"0.024": 0.0,
			"0.025": 0.0
		}
	}
}
