{
	 "smiles": "NC1=C(C=C(Cl)C=C1)C#N", 
	 "Tm": 369.65, 
	 "num_atms": 15, 
	 "gaussian": { 
		 "optdone": 1, 
		 "sigma_profile": "yes", 
		 "theory": "DFT", 
		 "functional": "B3LYP", 
		 "basiset": "6-31G**", 
		 "properties": { 
			 "R2extent": 2541.6624, 
			 "electric_dipole_moment_norm": 4.29303890735, 
			 "electric_quadrupole_moment_norm": 10.9628290596, 
			 "total_energy": -839.442859851, 
			 "HOMO_LUMO_gap": 0.17005, 
			 "cosmo_polarized_energy": -11.91, 
			 "cosmo_cavitation_energy": 22.22, 
			 "cosmo_dispersion_energy": -16.15, 
			 "cosmo_repulsion_energy": 1.32, 
			 "cosmo_total_nonelectrostatic_energy": 7.38, 
			 "SMD_solvation_energy": 4.76 
		},
		"coords": [
			{
				"x": 1.7420197488,
				"y": -0.9249172079,
				"z": -0.5973139072,
				"element": "N" 
			},
			{
				"x": 1.0402579272,
				"y": -0.6310942032,
				"z": 0.5470207068,
				"element": "C" 
			},
			{
				"x": -0.3422070678,
				"y": -0.3088834551,
				"z": 0.4973086266,
				"element": "C" 
			},
			{
				"x": -1.0686387238,
				"y": -0.0601121244,
				"z": 1.6746941662,
				"element": "C" 
			},
			{
				"x": -0.429221453,
				"y": -0.1232597407,
				"z": 2.9027694174,
				"element": "C" 
			},
			{
				"x": -1.3302733185,
				"y": 0.1891998958,
				"z": 4.377128875,
				"element": "Cl" 
			},
			{
				"x": 0.9340916363,
				"y": -0.4327415186,
				"z": 2.9732538077,
				"element": "C" 
			},
			{
				"x": 1.6541382709,
				"y": -0.682253013,
				"z": 1.8138611155,
				"element": "C" 
			},
			{
				"x": -0.9832316645,
				"y": -0.229476353,
				"z": -0.7767136636,
				"element": "C" 
			},
			{
				"x": -1.4457434416,
				"y": -0.170976074,
				"z": -1.8443635087,
				"element": "N" 
			},
			{
				"x": 1.3281771587,
				"y": -0.6806060846,
				"z": -1.4855104742,
				"element": "H" 
			},
			{
				"x": 2.7478741411,
				"y": -0.8751505658,
				"z": -0.5607847669,
				"element": "H" 
			},
			{
				"x": -2.1224957482,
				"y": 0.183957376,
				"z": 1.6106873749,
				"element": "H" 
			},
			{
				"x": 1.426696008,
				"y": -0.4775277924,
				"z": 3.9384804439,
				"element": "H" 
			},
			{
				"x": 2.7099565263,
				"y": -0.9285591392,
				"z": 1.8806817866,
				"element": "H" 
			}
		],
		 "valence_orbital": [ 
			{
				"type": "occ",
				"energy": -0.33949,
				"method": "rhf"
			},
			{
				"type": "occ",
				"energy": -0.31957,
				"method": "rhf"
			},
			{
				"type": "occ",
				"energy": -0.30942,
				"method": "rhf"
			},
			{
				"type": "occ",
				"energy": -0.27489,
				"method": "rhf"
			},
			{
				"type": "occ",
				"energy": -0.224,
				"method": "rhf"
			},
			{
				"type": "unocc",
				"energy": -0.05395,
				"method": "rhf"
			},
			{
				"type": "unocc",
				"energy": -0.01503,
				"method": "rhf"
			},
			{
				"type": "unocc",
				"energy": 0.01611,
				"method": "rhf"
			},
			{
				"type": "unocc",
				"energy": 0.03018,
				"method": "rhf"
			},
			{
				"type": "unocc",
				"energy": 0.0668,
				"method": "rhf"
			}
		],
		"cosmo_sigma_profile": { 
			"-0.025": 0.0,
			"-0.024": 0.0,
			"-0.023": 0.0,
			"-0.022": 0.0,
			"-0.021": 0.0,
			"-0.02": 0.0,
			"-0.019": 0.0,
			"-0.018": 0.0,
			"-0.017": 0.0,
			"-0.016": 0.0,
			"-0.015": 0.119986553774,
			"-0.014": 1.451605347,
			"-0.013": 1.77943338924,
			"-0.012": 2.90197181912,
			"-0.011": 2.62954675358,
			"-0.01": 2.45134765162,
			"-0.009": 3.76726070575,
			"-0.008": 5.68851315318,
			"-0.007": 7.1968496393,
			"-0.006": 6.75494014711,
			"-0.005": 6.57825441409,
			"-0.004": 6.10949959798,
			"-0.003": 7.03658259431,
			"-0.002": 8.36710833338,
			"-0.001": 11.0522102189,
			"0.0": 13.5228942751,
			"0.001": 16.4001714083,
			"0.002": 20.839432129,
			"0.003": 12.5670650795,
			"0.004": 10.8646877435,
			"0.005": 10.3187353018,
			"0.006": 2.84972644423,
			"0.007": 2.59977713547,
			"0.008": 3.7686132341,
			"0.009": 3.65592278959,
			"0.01": 3.20875592302,
			"0.011": 3.0233516733,
			"0.012": 2.40511054288,
			"0.013": 1.59217216879,
			"0.014": 0.0520892021345,
			"0.015": 0.0,
			"0.016": 0.0,
			"0.017": 0.0,
			"0.018": 0.0,
			"0.019": 0.0,
			"0.02": 0.0,
			"0.021": 0.0,
			"0.022": 0.0,
			"0.023": 0.0,
			"0.024": 0.0,
			"0.025": 0.0
		}
	}
}
