{
	 "smiles": "NS(=O)(=O)C1=CC2=C(NC(=O)C2)C=C1", 
	 "Tm": 526.15, 
	 "num_atms": 22, 
	 "gaussian": { 
		 "optdone": 1, 
		 "sigma_profile": "yes", 
		 "theory": "DFT", 
		 "functional": "B3LYP", 
		 "basiset": "6-31G**", 
		 "properties": { 
			 "R2extent": 4091.3552, 
			 "electric_dipole_moment_norm": 3.16376190318, 
			 "electric_quadrupole_moment_norm": 24.2261338909, 
			 "total_energy": -1042.9880291, 
			 "HOMO_LUMO_gap": 0.19831, 
			 "cosmo_polarized_energy": -22.79, 
			 "cosmo_cavitation_energy": 27.97, 
			 "cosmo_dispersion_energy": -21.38, 
			 "cosmo_repulsion_energy": 1.65, 
			 "cosmo_total_nonelectrostatic_energy": 8.24, 
			 "SMD_solvation_energy": 4.8 
		},
		"coords": [
			{
				"x": -1.7563761734,
				"y": -0.9769773,
				"z": -2.8138230083,
				"element": "N" 
			},
			{
				"x": -0.0898415789,
				"y": -1.2747015784,
				"z": -2.9567375176,
				"element": "S" 
			},
			{
				"x": 0.1210700688,
				"y": -2.7088652278,
				"z": -3.1844203072,
				"element": "O" 
			},
			{
				"x": 0.4012229832,
				"y": -0.259400338,
				"z": -3.8934043934,
				"element": "O" 
			},
			{
				"x": 0.5324472855,
				"y": -0.8911689295,
				"z": -1.3276435734,
				"element": "C" 
			},
			{
				"x": 0.6917859414,
				"y": 0.4555093267,
				"z": -0.9603349698,
				"element": "C" 
			},
			{
				"x": 1.1804917142,
				"y": 0.735292085,
				"z": 0.3014429498,
				"element": "C" 
			},
			{
				"x": 1.5100119537,
				"y": -0.3214336658,
				"z": 1.1775191572,
				"element": "C" 
			},
			{
				"x": 1.9814096319,
				"y": 0.2102570277,
				"z": 2.3758284008,
				"element": "N" 
			},
			{
				"x": 1.9994331567,
				"y": 1.6037450232,
				"z": 2.3776563583,
				"element": "C" 
			},
			{
				"x": 2.3647285219,
				"y": 2.300653925,
				"z": 3.2995843387,
				"element": "O" 
			},
			{
				"x": 1.4715196492,
				"y": 2.0392464012,
				"z": 0.9997624607,
				"element": "C" 
			},
			{
				"x": 1.3633307073,
				"y": -1.6564421173,
				"z": 0.8137186709,
				"element": "C" 
			},
			{
				"x": 0.8659871285,
				"y": -1.9339348587,
				"z": -0.4633823743,
				"element": "C" 
			},
			{
				"x": -2.2587852721,
				"y": -1.8558410942,
				"z": -2.7136162036,
				"element": "H" 
			},
			{
				"x": -2.058436016,
				"y": -0.4811199289,
				"z": -3.6493981254,
				"element": "H" 
			},
			{
				"x": 0.4460887538,
				"y": 1.244564498,
				"z": -1.6633103541,
				"element": "H" 
			},
			{
				"x": 2.2900190252,
				"y": -0.3247243793,
				"z": 3.1746188126,
				"element": "H" 
			},
			{
				"x": 2.2317585077,
				"y": 2.6472007471,
				"z": 0.496956347,
				"element": "H" 
			},
			{
				"x": 0.5894431117,
				"y": 2.6749128595,
				"z": 1.1341665566,
				"element": "H" 
			},
			{
				"x": 1.630395119,
				"y": -2.4613459845,
				"z": 1.4908545145,
				"element": "H" 
			},
			{
				"x": 0.7487957806,
				"y": -2.958126491,
				"z": -0.7992377399,
				"element": "H" 
			}
		],
		 "valence_orbital": [ 
			{
				"type": "occ",
				"energy": -0.30542,
				"method": "rhf"
			},
			{
				"type": "occ",
				"energy": -0.29163,
				"method": "rhf"
			},
			{
				"type": "occ",
				"energy": -0.27521,
				"method": "rhf"
			},
			{
				"type": "occ",
				"energy": -0.27115,
				"method": "rhf"
			},
			{
				"type": "occ",
				"energy": -0.23815,
				"method": "rhf"
			},
			{
				"type": "unocc",
				"energy": -0.03984,
				"method": "rhf"
			},
			{
				"type": "unocc",
				"energy": -0.03086,
				"method": "rhf"
			},
			{
				"type": "unocc",
				"energy": 0.01212,
				"method": "rhf"
			},
			{
				"type": "unocc",
				"energy": 0.05276,
				"method": "rhf"
			},
			{
				"type": "unocc",
				"energy": 0.07469,
				"method": "rhf"
			}
		],
		"cosmo_sigma_profile": { 
			"-0.025": 0.0,
			"-0.024": 0.0,
			"-0.023": 0.0,
			"-0.022": 0.0,
			"-0.021": 0.0,
			"-0.02": 0.0,
			"-0.019": 0.0,
			"-0.018": 0.0,
			"-0.017": 0.0623169804243,
			"-0.016": 1.19338557065,
			"-0.015": 2.0816078069,
			"-0.014": 3.79316295692,
			"-0.013": 3.58094215248,
			"-0.012": 3.66284213945,
			"-0.011": 4.35534713404,
			"-0.01": 2.45968209666,
			"-0.009": 2.63129069458,
			"-0.008": 6.68120908707,
			"-0.007": 12.4609571145,
			"-0.006": 12.7322498779,
			"-0.005": 12.1591488671,
			"-0.004": 11.7330506222,
			"-0.003": 9.47149773597,
			"-0.002": 10.4573799591,
			"-0.001": 10.6536290544,
			"0.0": 11.4800534976,
			"0.001": 11.8085412678,
			"0.002": 12.9568332293,
			"0.003": 11.0571439041,
			"0.004": 5.7144961085,
			"0.005": 3.83354368685,
			"0.006": 5.18198065217,
			"0.007": 4.69633596414,
			"0.008": 4.94617478373,
			"0.009": 5.22634646055,
			"0.01": 7.92538159804,
			"0.011": 13.2751872965,
			"0.012": 10.2391607497,
			"0.013": 4.35386848021,
			"0.014": 0.418804287486,
			"0.015": 0.0,
			"0.016": 0.0,
			"0.017": 0.0,
			"0.018": 0.0,
			"0.019": 0.0,
			"0.02": 0.0,
			"0.021": 0.0,
			"0.022": 0.0,
			"0.023": 0.0,
			"0.024": 0.0,
			"0.025": 0.0
		}
	}
}
