{
	 "smiles": "CCOC(=O)C1=C(NC(N)=S)SC(C)=C1C", 
	 "Tm": 481.15, 
	 "num_atms": 30, 
	 "gaussian": { 
		 "optdone": 1, 
		 "sigma_profile": "yes", 
		 "theory": "DFT", 
		 "functional": "B3LYP", 
		 "basiset": "6-31G**", 
		 "properties": { 
			 "R2extent": 5762.7851, 
			 "electric_dipole_moment_norm": 6.86742170323, 
			 "electric_quadrupole_moment_norm": 30.6719257464, 
			 "total_energy": -1445.86338758, 
			 "HOMO_LUMO_gap": 0.14765, 
			 "cosmo_polarized_energy": -17.38, 
			 "cosmo_cavitation_energy": 36.36, 
			 "cosmo_dispersion_energy": -26.9, 
			 "cosmo_repulsion_energy": 2.04, 
			 "cosmo_total_nonelectrostatic_energy": 11.5, 
			 "SMD_solvation_energy": 6.05 
		},
		"coords": [
			{
				"x": -4.4252565689,
				"y": -0.0385689651,
				"z": -1.1891151249,
				"element": "C" 
			},
			{
				"x": -3.5030160729,
				"y": -0.2498570028,
				"z": -0.0037793349,
				"element": "C" 
			},
			{
				"x": -2.1477450274,
				"y": -0.0199816746,
				"z": -0.4607665106,
				"element": "O" 
			},
			{
				"x": -1.1825488091,
				"y": -0.1692464167,
				"z": 0.4679848354,
				"element": "C" 
			},
			{
				"x": -1.4465630841,
				"y": -0.4749050152,
				"z": 1.6289680912,
				"element": "O" 
			},
			{
				"x": 0.1774752596,
				"y": 0.0626011339,
				"z": -0.0378043212,
				"element": "C" 
			},
			{
				"x": 1.2590038081,
				"y": 0.0290042774,
				"z": 0.8455190234,
				"element": "C" 
			},
			{
				"x": 1.157381207,
				"y": -0.2369034217,
				"z": 2.1955669903,
				"element": "N" 
			},
			{
				"x": 2.0721729948,
				"y": -0.1552575935,
				"z": 3.2189236529,
				"element": "C" 
			},
			{
				"x": 3.2593301957,
				"y": 0.4562233349,
				"z": 2.9377868107,
				"element": "N" 
			},
			{
				"x": 1.7330959691,
				"y": -0.8146263008,
				"z": 4.7196862947,
				"element": "S" 
			},
			{
				"x": 2.7640682734,
				"y": 0.2693757492,
				"z": -0.0065746597,
				"element": "S" 
			},
			{
				"x": 1.9336905646,
				"y": 0.4582427777,
				"z": -1.5423297171,
				"element": "C" 
			},
			{
				"x": 2.7486981559,
				"y": 0.7385900177,
				"z": -2.7755559982,
				"element": "C" 
			},
			{
				"x": 0.5812777609,
				"y": 0.3145965297,
				"z": -1.4095682481,
				"element": "C" 
			},
			{
				"x": -0.3532560528,
				"y": 0.4169193749,
				"z": -2.5866672085,
				"element": "C" 
			},
			{
				"x": -5.462713123,
				"y": -0.2020878563,
				"z": -0.8816333905,
				"element": "H" 
			},
			{
				"x": -4.3394831989,
				"y": 0.9804194749,
				"z": -1.5774488023,
				"element": "H" 
			},
			{
				"x": -4.1933887663,
				"y": -0.7376461516,
				"z": -1.9978107759,
				"element": "H" 
			},
			{
				"x": -3.7194490631,
				"y": 0.4418698238,
				"z": 0.8158081087,
				"element": "H" 
			},
			{
				"x": -3.5715665231,
				"y": -1.2655402743,
				"z": 0.3971122995,
				"element": "H" 
			},
			{
				"x": 0.2156463505,
				"y": -0.5386038139,
				"z": 2.4621660952,
				"element": "H" 
			},
			{
				"x": 3.8713502397,
				"y": 0.5625451363,
				"z": 3.7334200021,
				"element": "H" 
			},
			{
				"x": 3.3014206262,
				"y": 1.1874083571,
				"z": 2.2390112671,
				"element": "H" 
			},
			{
				"x": 3.816841076,
				"y": 0.7817494083,
				"z": -2.5456807173,
				"element": "H" 
			},
			{
				"x": 2.4748435466,
				"y": 1.6973109639,
				"z": -3.2303540397,
				"element": "H" 
			},
			{
				"x": 2.6121058305,
				"y": -0.0409083049,
				"z": -3.5333087104,
				"element": "H" 
			},
			{
				"x": 0.2053586296,
				"y": 0.5942144436,
				"z": -3.5082490725,
				"element": "H" 
			},
			{
				"x": -0.9387381627,
				"y": -0.4984272329,
				"z": -2.7108301249,
				"element": "H" 
			},
			{
				"x": -1.0712360358,
				"y": 1.231589221,
				"z": -2.4568767143,
				"element": "H" 
			}
		],
		 "valence_orbital": [ 
			{
				"type": "occ",
				"energy": -0.28425,
				"method": "rhf"
			},
			{
				"type": "occ",
				"energy": -0.26297,
				"method": "rhf"
			},
			{
				"type": "occ",
				"energy": -0.23619,
				"method": "rhf"
			},
			{
				"type": "occ",
				"energy": -0.20801,
				"method": "rhf"
			},
			{
				"type": "occ",
				"energy": -0.2016,
				"method": "rhf"
			},
			{
				"type": "unocc",
				"energy": -0.05395,
				"method": "rhf"
			},
			{
				"type": "unocc",
				"energy": -0.0001,
				"method": "rhf"
			},
			{
				"type": "unocc",
				"energy": 0.00571,
				"method": "rhf"
			},
			{
				"type": "unocc",
				"energy": 0.01434,
				"method": "rhf"
			},
			{
				"type": "unocc",
				"energy": 0.06963,
				"method": "rhf"
			}
		],
		"cosmo_sigma_profile": { 
			"-0.025": 0.0,
			"-0.024": 0.0,
			"-0.023": 0.0,
			"-0.022": 0.0,
			"-0.021": 0.0,
			"-0.02": 0.0,
			"-0.019": 0.0,
			"-0.018": 0.0,
			"-0.017": 0.0,
			"-0.016": 0.0,
			"-0.015": 0.517315792597,
			"-0.014": 1.69262208849,
			"-0.013": 2.74170322981,
			"-0.012": 2.10638613522,
			"-0.011": 2.38665196809,
			"-0.01": 2.18210290997,
			"-0.009": 2.08137557049,
			"-0.008": 1.3052732054,
			"-0.007": 1.12600628993,
			"-0.006": 4.84655361656,
			"-0.005": 12.9100874727,
			"-0.004": 23.7516122971,
			"-0.003": 28.5089288286,
			"-0.002": 30.3677591539,
			"-0.001": 35.774679109,
			"0.0": 30.2242502459,
			"0.001": 21.3743914483,
			"0.002": 17.0400809402,
			"0.003": 15.0405740786,
			"0.004": 8.68770896618,
			"0.005": 5.77407005425,
			"0.006": 5.05105635076,
			"0.007": 5.25771839923,
			"0.008": 5.22510937692,
			"0.009": 6.69673530121,
			"0.01": 10.049243274,
			"0.011": 6.51202449932,
			"0.012": 3.18413661232,
			"0.013": 0.0,
			"0.014": 0.0,
			"0.015": 0.0,
			"0.016": 0.0,
			"0.017": 0.0,
			"0.018": 0.0,
			"0.019": 0.0,
			"0.02": 0.0,
			"0.021": 0.0,
			"0.022": 0.0,
			"0.023": 0.0,
			"0.024": 0.0,
			"0.025": 0.0
		}
	}
}
