{
	 "smiles": "CC(C)OC1=C(Cl)C=C(C=N1)C(O)=O", 
	 "Tm": 445.15, 
	 "num_atms": 24, 
	 "gaussian": { 
		 "optdone": 1, 
		 "sigma_profile": "yes", 
		 "theory": "DFT", 
		 "functional": "B3LYP", 
		 "basiset": "6-31G**", 
		 "properties": { 
			 "R2extent": 4284.1878, 
			 "electric_dipole_moment_norm": 5.08456957667, 
			 "electric_quadrupole_moment_norm": 17.6193666969, 
			 "total_energy": -1089.61384288, 
			 "HOMO_LUMO_gap": 0.19421, 
			 "cosmo_polarized_energy": -14.77, 
			 "cosmo_cavitation_energy": 30.33, 
			 "cosmo_dispersion_energy": -21.83, 
			 "cosmo_repulsion_energy": 1.75, 
			 "cosmo_total_nonelectrostatic_energy": 10.25, 
			 "SMD_solvation_energy": 5.91 
		},
		"coords": [
			{
				"x": -0.249818098,
				"y": 3.2715847677,
				"z": -1.1523721671,
				"element": "C" 
			},
			{
				"x": -1.1702792012,
				"y": 2.2489872907,
				"z": -0.4951284785,
				"element": "C" 
			},
			{
				"x": -2.5768650211,
				"y": 2.2341978508,
				"z": -1.076460749,
				"element": "C" 
			},
			{
				"x": -0.6453207423,
				"y": 0.9049991056,
				"z": -0.7225352469,
				"element": "O" 
			},
			{
				"x": 0.3076036896,
				"y": 0.4250220603,
				"z": 0.0774698814,
				"element": "C" 
			},
			{
				"x": 0.7885044068,
				"y": -0.8856893522,
				"z": -0.187458539,
				"element": "C" 
			},
			{
				"x": 0.1555422949,
				"y": -1.7973230406,
				"z": -1.5324454126,
				"element": "Cl" 
			},
			{
				"x": 1.7597901911,
				"y": -1.416715575,
				"z": 0.6336996973,
				"element": "C" 
			},
			{
				"x": 2.2379439427,
				"y": -0.6575457303,
				"z": 1.7188556451,
				"element": "C" 
			},
			{
				"x": 1.7190418838,
				"y": 0.6259380107,
				"z": 1.8790314165,
				"element": "C" 
			},
			{
				"x": 0.7820590487,
				"y": 1.1549035866,
				"z": 1.0844568632,
				"element": "N" 
			},
			{
				"x": 3.3022740555,
				"y": -1.2541237632,
				"z": 2.5807954512,
				"element": "C" 
			},
			{
				"x": 3.5221481683,
				"y": -0.6660127167,
				"z": 3.7869611731,
				"element": "O" 
			},
			{
				"x": 3.9572180662,
				"y": -2.213494088,
				"z": 2.2470890405,
				"element": "O" 
			},
			{
				"x": -0.164153743,
				"y": 3.0762087315,
				"z": -2.2258987996,
				"element": "H" 
			},
			{
				"x": 0.7461907193,
				"y": 3.2419248869,
				"z": -0.7048888962,
				"element": "H" 
			},
			{
				"x": -0.6554130049,
				"y": 4.2793435999,
				"z": -1.0164583579,
				"element": "H" 
			},
			{
				"x": -1.1990125531,
				"y": 2.4152854389,
				"z": 0.5851553079,
				"element": "H" 
			},
			{
				"x": -2.550207833,
				"y": 2.0225615043,
				"z": -2.1497425687,
				"element": "H" 
			},
			{
				"x": -3.1914242051,
				"y": 1.4722244099,
				"z": -0.5897231369,
				"element": "H" 
			},
			{
				"x": -3.0508902628,
				"y": 3.2091693513,
				"z": -0.9279322648,
				"element": "H" 
			},
			{
				"x": 2.1628405301,
				"y": -2.4081330867,
				"z": 0.4608415254,
				"element": "H" 
			},
			{
				"x": 2.084742577,
				"y": 1.2924283261,
				"z": 2.6600041057,
				"element": "H" 
			},
			{
				"x": 2.8219850904,
				"y": -0.0310415687,
				"z": 3.9909845097,
				"element": "H" 
			}
		],
		 "valence_orbital": [ 
			{
				"type": "occ",
				"energy": -0.32263,
				"method": "rhf"
			},
			{
				"type": "occ",
				"energy": -0.29833,
				"method": "rhf"
			},
			{
				"type": "occ",
				"energy": -0.29363,
				"method": "rhf"
			},
			{
				"type": "occ",
				"energy": -0.27603,
				"method": "rhf"
			},
			{
				"type": "occ",
				"energy": -0.25036,
				"method": "rhf"
			},
			{
				"type": "unocc",
				"energy": -0.05615,
				"method": "rhf"
			},
			{
				"type": "unocc",
				"energy": -0.04856,
				"method": "rhf"
			},
			{
				"type": "unocc",
				"energy": 0.022,
				"method": "rhf"
			},
			{
				"type": "unocc",
				"energy": 0.04158,
				"method": "rhf"
			},
			{
				"type": "unocc",
				"energy": 0.05505,
				"method": "rhf"
			}
		],
		"cosmo_sigma_profile": { 
			"-0.025": 0.0,
			"-0.024": 0.0,
			"-0.023": 0.0,
			"-0.022": 0.0,
			"-0.021": 0.0,
			"-0.02": 0.0159940659482,
			"-0.019": 0.879656437083,
			"-0.018": 1.04547376051,
			"-0.017": 1.4906344257,
			"-0.016": 0.644801299359,
			"-0.015": 0.614583024394,
			"-0.014": 1.82928278747,
			"-0.013": 0.846273231775,
			"-0.012": 0.919192254565,
			"-0.011": 1.43698705879,
			"-0.01": 0.837288881721,
			"-0.009": 1.93191647408,
			"-0.008": 2.79319264338,
			"-0.007": 2.65545453373,
			"-0.006": 3.44463018082,
			"-0.005": 6.6104574852,
			"-0.004": 17.1407971071,
			"-0.003": 21.4703817182,
			"-0.002": 27.3331968716,
			"-0.001": 29.125273934,
			"0.0": 29.3740350248,
			"0.001": 13.075557907,
			"0.002": 11.013864226,
			"0.003": 11.0456263078,
			"0.004": 12.1717892224,
			"0.005": 7.14478213412,
			"0.006": 4.98384109455,
			"0.007": 5.12677207391,
			"0.008": 5.5130966879,
			"0.009": 5.44021155143,
			"0.01": 5.39721326706,
			"0.011": 5.33639981229,
			"0.012": 3.69181115664,
			"0.013": 0.990560632608,
			"0.014": 0.0,
			"0.015": 0.0,
			"0.016": 0.0,
			"0.017": 0.0,
			"0.018": 0.0,
			"0.019": 0.0,
			"0.02": 0.0,
			"0.021": 0.0,
			"0.022": 0.0,
			"0.023": 0.0,
			"0.024": 0.0,
			"0.025": 0.0
		}
	}
}
