{
	 "smiles": "COC(=O)C1=C(O)C=CC(C)=C1", 
	 "Tm": 272.15, 
	 "num_atms": 22, 
	 "gaussian": { 
		 "optdone": 1, 
		 "sigma_profile": "yes", 
		 "theory": "DFT", 
		 "functional": "B3LYP", 
		 "basiset": "6-31G**", 
		 "properties": { 
			 "R2extent": 2956.5028, 
			 "electric_dipole_moment_norm": 0.797116114503, 
			 "electric_quadrupole_moment_norm": 12.4206250366, 
			 "total_energy": -574.677067159, 
			 "HOMO_LUMO_gap": 0.17521, 
			 "cosmo_polarized_energy": -8.46, 
			 "cosmo_cavitation_energy": 25.85, 
			 "cosmo_dispersion_energy": -19.19, 
			 "cosmo_repulsion_energy": 1.53, 
			 "cosmo_total_nonelectrostatic_energy": 8.19, 
			 "SMD_solvation_energy": 6.35 
		},
		"coords": [
			{
				"x": -2.1765159187,
				"y": -2.7449028543,
				"z": 1.8880136775,
				"element": "C" 
			},
			{
				"x": -1.8385882845,
				"y": -2.2235939766,
				"z": 0.5896436609,
				"element": "O" 
			},
			{
				"x": -0.6734465911,
				"y": -1.4957586242,
				"z": 0.5270664,
				"element": "C" 
			},
			{
				"x": 0.0088068962,
				"y": -1.3178059375,
				"z": 1.5145747656,
				"element": "O" 
			},
			{
				"x": -0.3794155734,
				"y": -0.9869172094,
				"z": -0.8305688207,
				"element": "C" 
			},
			{
				"x": -1.1905825975,
				"y": -1.2076212002,
				"z": -1.9684629999,
				"element": "C" 
			},
			{
				"x": -2.3430141123,
				"y": -1.9132691098,
				"z": -1.9663127124,
				"element": "O" 
			},
			{
				"x": -0.7891883984,
				"y": -0.6638372066,
				"z": -3.2000789485,
				"element": "C" 
			},
			{
				"x": 0.3782637586,
				"y": 0.0749502544,
				"z": -3.3006489027,
				"element": "C" 
			},
			{
				"x": 1.2039340125,
				"y": 0.3097619975,
				"z": -2.1832055303,
				"element": "C" 
			},
			{
				"x": 2.4732364672,
				"y": 1.1184571749,
				"z": -2.3128780905,
				"element": "C" 
			},
			{
				"x": 0.8025720375,
				"y": -0.230004522,
				"z": -0.9692118153,
				"element": "C" 
			},
			{
				"x": -1.3920403824,
				"y": -3.4163383147,
				"z": 2.2433272015,
				"element": "H" 
			},
			{
				"x": -3.1139078401,
				"y": -3.2842181771,
				"z": 1.7536665745,
				"element": "H" 
			},
			{
				"x": -2.2989787966,
				"y": -1.929699357,
				"z": 2.604177977,
				"element": "H" 
			},
			{
				"x": -2.5020989735,
				"y": -2.2300898996,
				"z": -1.0588943783,
				"element": "H" 
			},
			{
				"x": -1.4218328597,
				"y": -0.8420279633,
				"z": -4.0632796533,
				"element": "H" 
			},
			{
				"x": 0.6618775919,
				"y": 0.4827946467,
				"z": -4.2683559185,
				"element": "H" 
			},
			{
				"x": 3.1684803477,
				"y": 0.6632578426,
				"z": -3.0280832297,
				"element": "H" 
			},
			{
				"x": 2.2674224192,
				"y": 2.1351648097,
				"z": -2.6679481992,
				"element": "H" 
			},
			{
				"x": 2.9904135578,
				"y": 1.2003348622,
				"z": -1.3531638239,
				"element": "H" 
			},
			{
				"x": 1.3994032397,
				"y": -0.0814372357,
				"z": -0.0747772337,
				"element": "H" 
			}
		],
		 "valence_orbital": [ 
			{
				"type": "occ",
				"energy": -0.32707,
				"method": "rhf"
			},
			{
				"type": "occ",
				"energy": -0.31207,
				"method": "rhf"
			},
			{
				"type": "occ",
				"energy": -0.28273,
				"method": "rhf"
			},
			{
				"type": "occ",
				"energy": -0.25675,
				"method": "rhf"
			},
			{
				"type": "occ",
				"energy": -0.21908,
				"method": "rhf"
			},
			{
				"type": "unocc",
				"energy": -0.04387,
				"method": "rhf"
			},
			{
				"type": "unocc",
				"energy": 0.01025,
				"method": "rhf"
			},
			{
				"type": "unocc",
				"energy": 0.05339,
				"method": "rhf"
			},
			{
				"type": "unocc",
				"energy": 0.09433,
				"method": "rhf"
			},
			{
				"type": "unocc",
				"energy": 0.10154,
				"method": "rhf"
			}
		],
		"cosmo_sigma_profile": { 
			"-0.025": 0.0,
			"-0.024": 0.0,
			"-0.023": 0.0,
			"-0.022": 0.0,
			"-0.021": 0.0,
			"-0.02": 0.0,
			"-0.019": 0.0,
			"-0.018": 0.0,
			"-0.017": 0.0,
			"-0.016": 0.0,
			"-0.015": 0.0,
			"-0.014": 0.0,
			"-0.013": 0.0,
			"-0.012": 0.0,
			"-0.011": 0.0256488705228,
			"-0.01": 0.232435090477,
			"-0.009": 0.930239602086,
			"-0.008": 0.705705555994,
			"-0.007": 3.09943766306,
			"-0.006": 10.3934293116,
			"-0.005": 15.2481254048,
			"-0.004": 20.6922814806,
			"-0.003": 22.2926795008,
			"-0.002": 18.2966110598,
			"-0.001": 15.5559209271,
			"0.0": 17.0115050077,
			"0.001": 13.6152223128,
			"0.002": 12.1028653726,
			"0.003": 12.8293278017,
			"0.004": 13.8787120195,
			"0.005": 4.71321376141,
			"0.006": 2.48129575594,
			"0.007": 3.13928863255,
			"0.008": 3.19061133457,
			"0.009": 2.75557627344,
			"0.01": 3.32809760026,
			"0.011": 5.71315970721,
			"0.012": 3.29919172379,
			"0.013": 0.00311175864188,
			"0.014": 0.0,
			"0.015": 0.0,
			"0.016": 0.0,
			"0.017": 0.0,
			"0.018": 0.0,
			"0.019": 0.0,
			"0.02": 0.0,
			"0.021": 0.0,
			"0.022": 0.0,
			"0.023": 0.0,
			"0.024": 0.0,
			"0.025": 0.0
		}
	}
}
