{
	 "smiles": "NC(=O)C1=CSC(N)=N1", 
	 "Tm": 470.15, 
	 "num_atms": 14, 
	 "gaussian": { 
		 "optdone": 1, 
		 "sigma_profile": "yes", 
		 "theory": "DFT", 
		 "functional": "B3LYP", 
		 "basiset": "6-31G**", 
		 "properties": { 
			 "R2extent": 1956.301, 
			 "electric_dipole_moment_norm": 3.62961729663, 
			 "electric_quadrupole_moment_norm": 15.3219905854, 
			 "total_energy": -793.108442958, 
			 "HOMO_LUMO_gap": 0.19038, 
			 "cosmo_polarized_energy": -21.59, 
			 "cosmo_cavitation_energy": 20.65, 
			 "cosmo_dispersion_energy": -16.05, 
			 "cosmo_repulsion_energy": 1.3, 
			 "cosmo_total_nonelectrostatic_energy": 5.91, 
			 "SMD_solvation_energy": 2.9 
		},
		"coords": [
			{
				"x": -2.92569872,
				"y": 1.4118600158,
				"z": 1.6385350546,
				"element": "N" 
			},
			{
				"x": -2.1737741609,
				"y": 0.5231212151,
				"z": 0.8980376729,
				"element": "C" 
			},
			{
				"x": -2.4155004236,
				"y": -0.6713178867,
				"z": 0.8568441239,
				"element": "O" 
			},
			{
				"x": -0.9967890866,
				"y": 1.1378196971,
				"z": 0.1994820551,
				"element": "C" 
			},
			{
				"x": -0.3281399506,
				"y": 2.2517143661,
				"z": 0.6260179731,
				"element": "C" 
			},
			{
				"x": 1.0189043584,
				"y": 2.5812460789,
				"z": -0.4309768105,
				"element": "S" 
			},
			{
				"x": 0.5523779799,
				"y": 1.1468549491,
				"z": -1.3703338487,
				"element": "C" 
			},
			{
				"x": 1.219365479,
				"y": 0.8113154128,
				"z": -2.5249372444,
				"element": "N" 
			},
			{
				"x": -0.4911413402,
				"y": 0.5153104552,
				"z": -0.9233176062,
				"element": "N" 
			},
			{
				"x": -2.9511888923,
				"y": 2.3828394577,
				"z": 1.3659859451,
				"element": "H" 
			},
			{
				"x": -3.7741936571,
				"y": 1.0291729631,
				"z": 2.0316589234,
				"element": "H" 
			},
			{
				"x": -0.4999074795,
				"y": 2.8475166254,
				"z": 1.5102354556,
				"element": "H" 
			},
			{
				"x": 2.208352646,
				"y": 1.0130425669,
				"z": -2.5596963737,
				"element": "H" 
			},
			{
				"x": 0.9748332473,
				"y": -0.1109959165,
				"z": -2.8624353201,
				"element": "H" 
			}
		],
		 "valence_orbital": [ 
			{
				"type": "occ",
				"energy": -0.2832,
				"method": "rhf"
			},
			{
				"type": "occ",
				"energy": -0.2778,
				"method": "rhf"
			},
			{
				"type": "occ",
				"energy": -0.2696,
				"method": "rhf"
			},
			{
				"type": "occ",
				"energy": -0.24544,
				"method": "rhf"
			},
			{
				"type": "occ",
				"energy": -0.22076,
				"method": "rhf"
			},
			{
				"type": "unocc",
				"energy": -0.03038,
				"method": "rhf"
			},
			{
				"type": "unocc",
				"energy": 0.00128,
				"method": "rhf"
			},
			{
				"type": "unocc",
				"energy": 0.02238,
				"method": "rhf"
			},
			{
				"type": "unocc",
				"energy": 0.06421,
				"method": "rhf"
			},
			{
				"type": "unocc",
				"energy": 0.08111,
				"method": "rhf"
			}
		],
		"cosmo_sigma_profile": { 
			"-0.025": 0.0,
			"-0.024": 0.0,
			"-0.023": 0.0,
			"-0.022": 0.0,
			"-0.021": 0.0,
			"-0.02": 0.0,
			"-0.019": 0.0,
			"-0.018": 0.0,
			"-0.017": 0.0,
			"-0.016": 0.0764374903714,
			"-0.015": 1.42898457606,
			"-0.014": 3.14112488729,
			"-0.013": 4.91568742229,
			"-0.012": 5.65756276372,
			"-0.011": 4.20038173552,
			"-0.01": 5.54271625796,
			"-0.009": 5.8270448457,
			"-0.008": 5.19951404788,
			"-0.007": 5.31756544872,
			"-0.006": 5.37139582366,
			"-0.005": 4.11629002233,
			"-0.004": 4.62390373178,
			"-0.003": 4.6313473403,
			"-0.002": 6.02339429501,
			"-0.001": 7.00552141131,
			"0.0": 8.78168298446,
			"0.001": 12.2585946094,
			"0.002": 14.454758824,
			"0.003": 9.92066059577,
			"0.004": 6.93994694653,
			"0.005": 4.18878217285,
			"0.006": 3.01913596825,
			"0.007": 2.78917684228,
			"0.008": 4.06482756472,
			"0.009": 3.06650214755,
			"0.01": 3.03472686729,
			"0.011": 1.81309574885,
			"0.012": 3.62233092287,
			"0.013": 6.29731943757,
			"0.014": 4.29140504804,
			"0.015": 2.30554744631,
			"0.016": 1.98218412098,
			"0.017": 0.771663538369,
			"0.018": 0.0,
			"0.019": 0.0,
			"0.02": 0.0,
			"0.021": 0.0,
			"0.022": 0.0,
			"0.023": 0.0,
			"0.024": 0.0,
			"0.025": 0.0
		}
	}
}
