{
	 "smiles": "O=C1NN=C(C=C1)N1C=NC=N1", 
	 "Tm": 514.15, 
	 "num_atms": 17, 
	 "gaussian": { 
		 "optdone": 1, 
		 "sigma_profile": "yes", 
		 "theory": "DFT", 
		 "functional": "B3LYP", 
		 "basiset": "6-31G**", 
		 "properties": { 
			 "R2extent": 2290.6757, 
			 "electric_dipole_moment_norm": 0.59605866322, 
			 "electric_quadrupole_moment_norm": 15.0890555735, 
			 "total_energy": -580.585457732, 
			 "HOMO_LUMO_gap": 0.16034, 
			 "cosmo_polarized_energy": -14.58, 
			 "cosmo_cavitation_energy": 22.65, 
			 "cosmo_dispersion_energy": -17.11, 
			 "cosmo_repulsion_energy": 1.34, 
			 "cosmo_total_nonelectrostatic_energy": 6.87, 
			 "SMD_solvation_energy": 2.52 
		},
		"coords": [
			{
				"x": 1.9357026959,
				"y": -1.9868081874,
				"z": 2.4368951545,
				"element": "O" 
			},
			{
				"x": 1.3386140004,
				"y": -1.401686155,
				"z": 1.5439028485,
				"element": "C" 
			},
			{
				"x": -0.0645165011,
				"y": -1.3732947778,
				"z": 1.5157961419,
				"element": "N" 
			},
			{
				"x": -0.8695526695,
				"y": -0.7837794481,
				"z": 0.6187928777,
				"element": "N" 
			},
			{
				"x": -0.2795917598,
				"y": -0.1538851527,
				"z": -0.355747573,
				"element": "C" 
			},
			{
				"x": 1.1452129575,
				"y": -0.0670501093,
				"z": -0.5049568427,
				"element": "C" 
			},
			{
				"x": 1.9270707818,
				"y": -0.6753870964,
				"z": 0.421244538,
				"element": "C" 
			},
			{
				"x": -1.1256996619,
				"y": 0.4679665216,
				"z": -1.3017295655,
				"element": "N" 
			},
			{
				"x": -2.4867773537,
				"y": 0.5102840072,
				"z": -1.3509782811,
				"element": "C" 
			},
			{
				"x": -2.8806459451,
				"y": 1.1977357846,
				"z": -2.4040128598,
				"element": "N" 
			},
			{
				"x": -1.7000815086,
				"y": 1.5663275526,
				"z": -2.9841772054,
				"element": "C" 
			},
			{
				"x": -0.6090598818,
				"y": 1.1543935531,
				"z": -2.3618165588,
				"element": "N" 
			},
			{
				"x": -0.5407559441,
				"y": -1.8586288156,
				"z": 2.2671371991,
				"element": "H" 
			},
			{
				"x": 1.5477400559,
				"y": 0.4794144123,
				"z": -1.3492155075,
				"element": "H" 
			},
			{
				"x": 3.009594174,
				"y": -0.6503983209,
				"z": 0.3708755378,
				"element": "H" 
			},
			{
				"x": -3.1105830624,
				"y": 0.0332988789,
				"z": -0.6106456426,
				"element": "H" 
			},
			{
				"x": -1.6447703774,
				"y": 2.1546973529,
				"z": -3.8894642611,
				"element": "H" 
			}
		],
		 "valence_orbital": [ 
			{
				"type": "occ",
				"energy": -0.31036,
				"method": "rhf"
			},
			{
				"type": "occ",
				"energy": -0.29186,
				"method": "rhf"
			},
			{
				"type": "occ",
				"energy": -0.29035,
				"method": "rhf"
			},
			{
				"type": "occ",
				"energy": -0.26781,
				"method": "rhf"
			},
			{
				"type": "occ",
				"energy": -0.24421,
				"method": "rhf"
			},
			{
				"type": "unocc",
				"energy": -0.08387,
				"method": "rhf"
			},
			{
				"type": "unocc",
				"energy": -0.04127,
				"method": "rhf"
			},
			{
				"type": "unocc",
				"energy": 0.02386,
				"method": "rhf"
			},
			{
				"type": "unocc",
				"energy": 0.04083,
				"method": "rhf"
			},
			{
				"type": "unocc",
				"energy": 0.07283,
				"method": "rhf"
			}
		],
		"cosmo_sigma_profile": { 
			"-0.025": 0.0,
			"-0.024": 0.0,
			"-0.023": 0.0,
			"-0.022": 0.0,
			"-0.021": 0.0,
			"-0.02": 0.0,
			"-0.019": 0.0,
			"-0.018": 0.0,
			"-0.017": 0.48777392607,
			"-0.016": 1.21975033469,
			"-0.015": 1.40381517467,
			"-0.014": 0.764106493935,
			"-0.013": 0.477672990354,
			"-0.012": 1.04709626556,
			"-0.011": 1.24162149134,
			"-0.01": 2.26789157561,
			"-0.009": 5.40639996741,
			"-0.008": 6.48865179367,
			"-0.007": 6.6455236413,
			"-0.006": 6.55497170035,
			"-0.005": 6.23976788807,
			"-0.004": 13.6051618652,
			"-0.003": 17.5105162813,
			"-0.002": 16.2471814853,
			"-0.001": 14.2061022522,
			"0.0": 12.143843215,
			"0.001": 7.05333931458,
			"0.002": 7.18164124738,
			"0.003": 6.16055138478,
			"0.004": 5.31126039543,
			"0.005": 5.07386113656,
			"0.006": 4.67854632114,
			"0.007": 4.57158953967,
			"0.008": 3.41611606695,
			"0.009": 3.45966990318,
			"0.01": 3.67226997382,
			"0.011": 3.1102280183,
			"0.012": 3.13609105273,
			"0.013": 7.45931527634,
			"0.014": 3.77712348698,
			"0.015": 1.02518393029,
			"0.016": 0.39678808571,
			"0.017": 0.0,
			"0.018": 0.0,
			"0.019": 0.0,
			"0.02": 0.0,
			"0.021": 0.0,
			"0.022": 0.0,
			"0.023": 0.0,
			"0.024": 0.0,
			"0.025": 0.0
		}
	}
}
