{
	 "smiles": "CC1(C)OC2C(CBr)OC(=O)C2O1", 
	 "Tm": 360.15, 
	 "num_atms": 24, 
	 "gaussian": { 
		 "optdone": 1, 
		 "sigma_profile": "yes", 
		 "theory": "DFT", 
		 "functional": "B3LYP", 
		 "basiset": "6-31G**", 
		 "properties": { 
			 "R2extent": 4986.9124, 
			 "electric_dipole_moment_norm": 2.71350881517, 
			 "electric_quadrupole_moment_norm": 17.6203886853, 
			 "total_energy": -3183.77732707, 
			 "HOMO_LUMO_gap": 0.23986, 
			 "cosmo_polarized_energy": -14.25, 
			 "cosmo_cavitation_energy": 29.06, 
			 "cosmo_dispersion_energy": -21.09, 
			 "cosmo_repulsion_energy": 1.69, 
			 "cosmo_total_nonelectrostatic_energy": 9.66, 
			 "SMD_solvation_energy": 4.49 
		},
		"coords": [
			{
				"x": 1.3417871907,
				"y": -0.1701771937,
				"z": 2.6137231287,
				"element": "C" 
			},
			{
				"x": 0.2273275041,
				"y": -1.0042172407,
				"z": 1.9987871822,
				"element": "C" 
			},
			{
				"x": -1.0523227987,
				"y": -1.0230406528,
				"z": 2.8307915289,
				"element": "C" 
			},
			{
				"x": -0.0324109085,
				"y": -0.5034989896,
				"z": 0.6808082066,
				"element": "O" 
			},
			{
				"x": -0.2141224086,
				"y": -1.6005665443,
				"z": -0.2033065903,
				"element": "C" 
			},
			{
				"x": 0.4940463677,
				"y": -1.3073005512,
				"z": -1.5324076894,
				"element": "C" 
			},
			{
				"x": -0.0683535954,
				"y": -2.0585544658,
				"z": -2.7344111242,
				"element": "C" 
			},
			{
				"x": -1.8409627438,
				"y": -1.3601468614,
				"z": -3.2405387502,
				"element": "Br" 
			},
			{
				"x": 1.8598642727,
				"y": -1.7534709133,
				"z": -1.3603832476,
				"element": "O" 
			},
			{
				"x": 2.0084074479,
				"y": -2.5245982264,
				"z": -0.2370347814,
				"element": "C" 
			},
			{
				"x": 3.0664221478,
				"y": -2.9759499819,
				"z": 0.1008943118,
				"element": "O" 
			},
			{
				"x": 0.6387847243,
				"y": -2.6832551229,
				"z": 0.4552843678,
				"element": "C" 
			},
			{
				"x": 0.6744089661,
				"y": -2.3672799654,
				"z": 1.826822338,
				"element": "O" 
			},
			{
				"x": 1.5852414699,
				"y": -0.5474600182,
				"z": 3.6101267132,
				"element": "H" 
			},
			{
				"x": 2.2354114734,
				"y": -0.2250428573,
				"z": 1.9882059569,
				"element": "H" 
			},
			{
				"x": 1.0296768897,
				"y": 0.8743563207,
				"z": 2.6981374481,
				"element": "H" 
			},
			{
				"x": -1.8246185863,
				"y": -1.6098455746,
				"z": 2.3259263394,
				"element": "H" 
			},
			{
				"x": -0.8600446184,
				"y": -1.4744217937,
				"z": 3.8077765015,
				"element": "H" 
			},
			{
				"x": -1.4238353307,
				"y": -0.0053300774,
				"z": 2.9778689193,
				"element": "H" 
			},
			{
				"x": -1.2721000158,
				"y": -1.8507039727,
				"z": -0.3379054169,
				"element": "H" 
			},
			{
				"x": 0.517170357,
				"y": -0.2329637437,
				"z": -1.7272890733,
				"element": "H" 
			},
			{
				"x": 0.5758112931,
				"y": -1.9274759876,
				"z": -3.6019016932,
				"element": "H" 
			},
			{
				"x": -0.1992921905,
				"y": -3.1227072168,
				"z": -2.5337337309,
				"element": "H" 
			},
			{
				"x": 0.2790030923,
				"y": -3.7096483694,
				"z": 0.3260591551,
				"element": "H" 
			}
		],
		 "valence_orbital": [ 
			{
				"type": "occ",
				"energy": -0.31204,
				"method": "rhf"
			},
			{
				"type": "occ",
				"energy": -0.29514,
				"method": "rhf"
			},
			{
				"type": "occ",
				"energy": -0.29338,
				"method": "rhf"
			},
			{
				"type": "occ",
				"energy": -0.2793,
				"method": "rhf"
			},
			{
				"type": "occ",
				"energy": -0.2605,
				"method": "rhf"
			},
			{
				"type": "unocc",
				"energy": -0.02064,
				"method": "rhf"
			},
			{
				"type": "unocc",
				"energy": -0.01005,
				"method": "rhf"
			},
			{
				"type": "unocc",
				"energy": 0.07154,
				"method": "rhf"
			},
			{
				"type": "unocc",
				"energy": 0.07606,
				"method": "rhf"
			},
			{
				"type": "unocc",
				"energy": 0.0889,
				"method": "rhf"
			}
		],
		"cosmo_sigma_profile": { 
			"-0.025": 0.0,
			"-0.024": 0.0,
			"-0.023": 0.0,
			"-0.022": 0.0,
			"-0.021": 0.0,
			"-0.02": 0.0,
			"-0.019": 0.0,
			"-0.018": 0.0,
			"-0.017": 0.0,
			"-0.016": 0.0,
			"-0.015": 0.0,
			"-0.014": 0.0,
			"-0.013": 0.122680999365,
			"-0.012": 1.10663892757,
			"-0.011": 1.76010346522,
			"-0.01": 2.62688598208,
			"-0.009": 5.14229407705,
			"-0.008": 7.64239804586,
			"-0.007": 8.54667248071,
			"-0.006": 8.41476559905,
			"-0.005": 13.9348168899,
			"-0.004": 19.1445887946,
			"-0.003": 15.9818849524,
			"-0.002": 17.056758487,
			"-0.001": 19.19982783,
			"0.0": 17.7819032202,
			"0.001": 11.2468616005,
			"0.002": 8.65169308629,
			"0.003": 8.96281398884,
			"0.004": 10.7662034835,
			"0.005": 13.7053272285,
			"0.006": 5.50857786305,
			"0.007": 5.52532429538,
			"0.008": 5.2041688015,
			"0.009": 6.59777838126,
			"0.01": 6.83299850543,
			"0.011": 8.33762622247,
			"0.012": 1.78809543027,
			"0.013": 0.0,
			"0.014": 0.0,
			"0.015": 0.0,
			"0.016": 0.0,
			"0.017": 0.0,
			"0.018": 0.0,
			"0.019": 0.0,
			"0.02": 0.0,
			"0.021": 0.0,
			"0.022": 0.0,
			"0.023": 0.0,
			"0.024": 0.0,
			"0.025": 0.0
		}
	}
}
