{
	 "smiles": "CC(=O)NC1(CCCC1)C1=NOC(CCl)=N1", 
	 "Tm": 348.15, 
	 "num_atms": 30, 
	 "gaussian": { 
		 "optdone": 1, 
		 "sigma_profile": "yes", 
		 "theory": "DFT", 
		 "functional": "B3LYP", 
		 "basiset": "6-31G**", 
		 "properties": { 
			 "R2extent": 5529.1058, 
			 "electric_dipole_moment_norm": 2.69453624025, 
			 "electric_quadrupole_moment_norm": 16.6473989755, 
			 "total_energy": -1164.37960479, 
			 "HOMO_LUMO_gap": 0.18157, 
			 "cosmo_polarized_energy": -13.32, 
			 "cosmo_cavitation_energy": 34.1, 
			 "cosmo_dispersion_energy": -24.73, 
			 "cosmo_repulsion_energy": 1.98, 
			 "cosmo_total_nonelectrostatic_energy": 11.36, 
			 "SMD_solvation_energy": 4.12 
		},
		"coords": [
			{
				"x": -1.9594030446,
				"y": 2.8375172292,
				"z": 2.8279398492,
				"element": "C" 
			},
			{
				"x": -0.8124236061,
				"y": 2.4050534711,
				"z": 1.9248278301,
				"element": "C" 
			},
			{
				"x": 0.3401834725,
				"y": 2.7777301856,
				"z": 2.1258781115,
				"element": "O" 
			},
			{
				"x": -1.1641097393,
				"y": 1.5821765417,
				"z": 0.895151152,
				"element": "N" 
			},
			{
				"x": -0.2155724131,
				"y": 1.0342201228,
				"z": -0.0796468614,
				"element": "C" 
			},
			{
				"x": 0.8624236533,
				"y": 0.0998375208,
				"z": 0.578239895,
				"element": "C" 
			},
			{
				"x": 2.1611426361,
				"y": 0.3709173391,
				"z": -0.1932874481,
				"element": "C" 
			},
			{
				"x": 2.0974771146,
				"y": 1.8829564655,
				"z": -0.4634013021,
				"element": "C" 
			},
			{
				"x": 0.6246754148,
				"y": 2.1357353713,
				"z": -0.8347748615,
				"element": "C" 
			},
			{
				"x": -1.0310581602,
				"y": 0.2430917318,
				"z": -1.072423545,
				"element": "C" 
			},
			{
				"x": -2.3338898015,
				"y": 0.1196216807,
				"z": -0.9945141935,
				"element": "N" 
			},
			{
				"x": -2.6616636589,
				"y": -0.6933145701,
				"z": -2.0883075244,
				"element": "O" 
			},
			{
				"x": -1.5017905093,
				"y": -0.9727021248,
				"z": -2.7036175014,
				"element": "C" 
			},
			{
				"x": -1.5302209702,
				"y": -1.8323523093,
				"z": -3.9162303115,
				"element": "C" 
			},
			{
				"x": -1.7019573623,
				"y": -3.5873512662,
				"z": -3.4860703872,
				"element": "Cl" 
			},
			{
				"x": -0.4662101133,
				"y": -0.4296012454,
				"z": -2.1368959381,
				"element": "N" 
			},
			{
				"x": -2.9388067786,
				"y": 2.4687205562,
				"z": 2.5115411213,
				"element": "H" 
			},
			{
				"x": -1.9827105678,
				"y": 3.9298918131,
				"z": 2.8632001437,
				"element": "H" 
			},
			{
				"x": -1.7576801906,
				"y": 2.4841978544,
				"z": 3.843141083,
				"element": "H" 
			},
			{
				"x": -2.1328946727,
				"y": 1.3161992683,
				"z": 0.7906521257,
				"element": "H" 
			},
			{
				"x": 0.9762175265,
				"y": 0.4190391775,
				"z": 1.6161074654,
				"element": "H" 
			},
			{
				"x": 0.5539493502,
				"y": -0.9496658075,
				"z": 0.5719888654,
				"element": "H" 
			},
			{
				"x": 2.16565223,
				"y": -0.1866240204,
				"z": -1.1365669121,
				"element": "H" 
			},
			{
				"x": 3.0478847782,
				"y": 0.0741369267,
				"z": 0.3759064134,
				"element": "H" 
			},
			{
				"x": 2.7855341036,
				"y": 2.2073554079,
				"z": -1.250435982,
				"element": "H" 
			},
			{
				"x": 2.3339736337,
				"y": 2.4317397708,
				"z": 0.4521112642,
				"element": "H" 
			},
			{
				"x": 0.2792178957,
				"y": 3.1309584617,
				"z": -0.5520056405,
				"element": "H" 
			},
			{
				"x": 0.4804686631,
				"y": 2.0228769748,
				"z": -1.9135933015,
				"element": "H" 
			},
			{
				"x": -0.5929737875,
				"y": -1.718247905,
				"z": -4.4573484874,
				"element": "H" 
			},
			{
				"x": -2.3767350964,
				"y": -1.5800146225,
				"z": -4.5547651223,
				"element": "H" 
			}
		],
		 "valence_orbital": [ 
			{
				"type": "occ",
				"energy": -0.3186,
				"method": "rhf"
			},
			{
				"type": "occ",
				"energy": -0.31095,
				"method": "rhf"
			},
			{
				"type": "occ",
				"energy": -0.3005,
				"method": "rhf"
			},
			{
				"type": "occ",
				"energy": -0.25052,
				"method": "rhf"
			},
			{
				"type": "occ",
				"energy": -0.24481,
				"method": "rhf"
			},
			{
				"type": "unocc",
				"energy": -0.06324,
				"method": "rhf"
			},
			{
				"type": "unocc",
				"energy": 0.00416,
				"method": "rhf"
			},
			{
				"type": "unocc",
				"energy": 0.02761,
				"method": "rhf"
			},
			{
				"type": "unocc",
				"energy": 0.03985,
				"method": "rhf"
			},
			{
				"type": "unocc",
				"energy": 0.05825,
				"method": "rhf"
			}
		],
		"cosmo_sigma_profile": { 
			"-0.025": 0.0,
			"-0.024": 0.0,
			"-0.023": 0.0,
			"-0.022": 0.0,
			"-0.021": 0.0,
			"-0.02": 0.0,
			"-0.019": 0.0,
			"-0.018": 0.0,
			"-0.017": 0.0,
			"-0.016": 0.0,
			"-0.015": 0.0,
			"-0.014": 0.0,
			"-0.013": 0.0,
			"-0.012": 0.280817070282,
			"-0.011": 1.5184607696,
			"-0.01": 5.11377723452,
			"-0.009": 5.45280263135,
			"-0.008": 5.52528861174,
			"-0.007": 5.87745097203,
			"-0.006": 6.69780423557,
			"-0.005": 9.50935033889,
			"-0.004": 13.2428837134,
			"-0.003": 21.8095950453,
			"-0.002": 27.7155709562,
			"-0.001": 33.0869115207,
			"0.0": 30.7129058563,
			"0.001": 22.063652871,
			"0.002": 12.7395686946,
			"0.003": 9.76305613632,
			"0.004": 12.9637824909,
			"0.005": 16.0659677519,
			"0.006": 6.43979524581,
			"0.007": 4.98689419956,
			"0.008": 4.74068645683,
			"0.009": 3.27466598656,
			"0.01": 2.43279038878,
			"0.011": 1.41940077434,
			"0.012": 1.15085243406,
			"0.013": 2.19344510797,
			"0.014": 2.12983700569,
			"0.015": 2.00371020106,
			"0.016": 0.231238366666,
			"0.017": 0.0,
			"0.018": 0.0,
			"0.019": 0.0,
			"0.02": 0.0,
			"0.021": 0.0,
			"0.022": 0.0,
			"0.023": 0.0,
			"0.024": 0.0,
			"0.025": 0.0
		}
	}
}
