{
	 "smiles": "OC(=O)CNC1=C(C=CC=C1)[N+]([O-])=O", 
	 "Tm": 354.15, 
	 "num_atms": 22, 
	 "gaussian": { 
		 "optdone": 1, 
		 "sigma_profile": "yes", 
		 "theory": "DFT", 
		 "functional": "B3LYP", 
		 "basiset": "6-31G**", 
		 "properties": { 
			 "R2extent": 3670.1788, 
			 "electric_dipole_moment_norm": 2.78437479338, 
			 "electric_quadrupole_moment_norm": 29.4076560853, 
			 "total_energy": -719.982022566, 
			 "HOMO_LUMO_gap": 0.14271, 
			 "cosmo_polarized_energy": -17.39, 
			 "cosmo_cavitation_energy": 26.81, 
			 "cosmo_dispersion_energy": -19.69, 
			 "cosmo_repulsion_energy": 1.55, 
			 "cosmo_total_nonelectrostatic_energy": 8.68, 
			 "SMD_solvation_energy": 7.64 
		},
		"coords": [
			{
				"x": 0.5006822088,
				"y": -3.3649899722,
				"z": 1.2008770462,
				"element": "O" 
			},
			{
				"x": 1.365355104,
				"y": -3.2329597487,
				"z": 0.178926706,
				"element": "C" 
			},
			{
				"x": 2.0362722259,
				"y": -4.1461942053,
				"z": -0.2322865583,
				"element": "O" 
			},
			{
				"x": 1.4645659047,
				"y": -1.8112773073,
				"z": -0.4036625031,
				"element": "C" 
			},
			{
				"x": 0.3340782169,
				"y": -0.9594345777,
				"z": -0.0734902763,
				"element": "N" 
			},
			{
				"x": -0.8208382252,
				"y": -0.9404977665,
				"z": -0.8333644159,
				"element": "C" 
			},
			{
				"x": -1.7749872168,
				"y": 0.1149627397,
				"z": -0.762233678,
				"element": "C" 
			},
			{
				"x": -2.956632772,
				"y": 0.08127402,
				"z": -1.517078556,
				"element": "C" 
			},
			{
				"x": -3.2265560318,
				"y": -0.9828433012,
				"z": -2.3589581109,
				"element": "C" 
			},
			{
				"x": -2.2983670337,
				"y": -2.0290308106,
				"z": -2.4466339527,
				"element": "C" 
			},
			{
				"x": -1.1274117806,
				"y": -2.0110433125,
				"z": -1.7043799097,
				"element": "C" 
			},
			{
				"x": -1.5748170265,
				"y": 1.2911995056,
				"z": 0.0723142917,
				"element": "N" 
			},
			{
				"x": -0.5318619884,
				"y": 1.3809985633,
				"z": 0.7497704525,
				"element": "O" 
			},
			{
				"x": -2.442658436,
				"y": 2.1605888685,
				"z": 0.079292368,
				"element": "O" 
			},
			{
				"x": 0.0576418527,
				"y": -2.5038940172,
				"z": 1.3204866096,
				"element": "H" 
			},
			{
				"x": 1.6309606499,
				"y": -1.9031530353,
				"z": -1.4819673221,
				"element": "H" 
			},
			{
				"x": 2.3648480225,
				"y": -1.3572954778,
				"z": 0.0223482694,
				"element": "H" 
			},
			{
				"x": 0.5133628488,
				"y": -0.0734973028,
				"z": 0.3888586813,
				"element": "H" 
			},
			{
				"x": -3.6396000474,
				"y": 0.9151164549,
				"z": -1.4186583657,
				"element": "H" 
			},
			{
				"x": -4.1423629509,
				"y": -1.0026100217,
				"z": -2.9390485835,
				"element": "H" 
			},
			{
				"x": -2.4922173806,
				"y": -2.8741757212,
				"z": -3.1004417801,
				"element": "H" 
			},
			{
				"x": -0.4380561443,
				"y": -2.8430435741,
				"z": -1.7865704125,
				"element": "H" 
			}
		],
		 "valence_orbital": [ 
			{
				"type": "occ",
				"energy": -0.32071,
				"method": "rhf"
			},
			{
				"type": "occ",
				"energy": -0.3036,
				"method": "rhf"
			},
			{
				"type": "occ",
				"energy": -0.29092,
				"method": "rhf"
			},
			{
				"type": "occ",
				"energy": -0.28108,
				"method": "rhf"
			},
			{
				"type": "occ",
				"energy": -0.2432,
				"method": "rhf"
			},
			{
				"type": "unocc",
				"energy": -0.10049,
				"method": "rhf"
			},
			{
				"type": "unocc",
				"energy": -0.02543,
				"method": "rhf"
			},
			{
				"type": "unocc",
				"energy": -0.01101,
				"method": "rhf"
			},
			{
				"type": "unocc",
				"energy": 0.00126,
				"method": "rhf"
			},
			{
				"type": "unocc",
				"energy": 0.06924,
				"method": "rhf"
			}
		],
		"cosmo_sigma_profile": { 
			"-0.025": 0.0,
			"-0.024": 0.0,
			"-0.023": 0.0,
			"-0.022": 0.0,
			"-0.021": 0.0,
			"-0.02": 0.0,
			"-0.019": 0.0,
			"-0.018": 0.0,
			"-0.017": 0.0,
			"-0.016": 0.0,
			"-0.015": 0.330342901547,
			"-0.014": 0.785482106074,
			"-0.013": 0.822461316176,
			"-0.012": 1.57132028115,
			"-0.011": 3.0647162083,
			"-0.01": 4.49047410812,
			"-0.009": 3.89129813039,
			"-0.008": 5.34915390172,
			"-0.007": 12.622727655,
			"-0.006": 14.5252482677,
			"-0.005": 15.6741627428,
			"-0.004": 12.5921601528,
			"-0.003": 11.5343016807,
			"-0.002": 10.05327248,
			"-0.001": 11.8212002088,
			"0.0": 10.9299467849,
			"0.001": 11.576393483,
			"0.002": 11.7162240436,
			"0.003": 11.7557634177,
			"0.004": 4.27862751503,
			"0.005": 4.42757463502,
			"0.006": 5.39275310447,
			"0.007": 7.41403120749,
			"0.008": 9.0196071669,
			"0.009": 7.47713047903,
			"0.01": 8.98998905879,
			"0.011": 5.54761859255,
			"0.012": 5.36110506457,
			"0.013": 1.57609019085,
			"0.014": 0.00960069999381,
			"0.015": 0.0,
			"0.016": 0.0,
			"0.017": 0.0,
			"0.018": 0.0,
			"0.019": 0.0,
			"0.02": 0.0,
			"0.021": 0.0,
			"0.022": 0.0,
			"0.023": 0.0,
			"0.024": 0.0,
			"0.025": 0.0
		}
	}
}
