{
	 "smiles": "OC(=O)C1=CC=CC=C1CCC1=CC=CC=C1", 
	 "Tm": 403.15, 
	 "num_atms": 31, 
	 "gaussian": { 
		 "optdone": 1, 
		 "sigma_profile": "yes", 
		 "theory": "DFT", 
		 "functional": "B3LYP", 
		 "basiset": "6-31G**", 
		 "properties": { 
			 "R2extent": 4303.452, 
			 "electric_dipole_moment_norm": 4.89027195563, 
			 "electric_quadrupole_moment_norm": 21.1264209122, 
			 "total_energy": -730.500754193, 
			 "HOMO_LUMO_gap": 0.21382, 
			 "cosmo_polarized_energy": -12.84, 
			 "cosmo_cavitation_energy": 33.81, 
			 "cosmo_dispersion_energy": -23.3, 
			 "cosmo_repulsion_energy": 1.8, 
			 "cosmo_total_nonelectrostatic_energy": 12.31, 
			 "SMD_solvation_energy": 6.13 
		},
		"coords": [
			{
				"x": 0.2933809234,
				"y": -2.1212627743,
				"z": 2.0480350068,
				"element": "O" 
			},
			{
				"x": 1.3102384763,
				"y": -2.2370188496,
				"z": 1.1598690555,
				"element": "C" 
			},
			{
				"x": 1.9817880209,
				"y": -3.2429315902,
				"z": 1.1403820336,
				"element": "O" 
			},
			{
				"x": 1.5362793114,
				"y": -1.0975142541,
				"z": 0.199240892,
				"element": "C" 
			},
			{
				"x": 1.8492121939,
				"y": -1.4844543414,
				"z": -1.1150324455,
				"element": "C" 
			},
			{
				"x": 2.0935892673,
				"y": -0.5393664896,
				"z": -2.1035702922,
				"element": "C" 
			},
			{
				"x": 2.0658840521,
				"y": 0.8179145313,
				"z": -1.7735606621,
				"element": "C" 
			},
			{
				"x": 1.7977755474,
				"y": 1.2056810526,
				"z": -0.4639838133,
				"element": "C" 
			},
			{
				"x": 1.5209482598,
				"y": 0.2703283466,
				"z": 0.5473141585,
				"element": "C" 
			},
			{
				"x": 1.2924290257,
				"y": 0.7982338252,
				"z": 1.9555855672,
				"element": "C" 
			},
			{
				"x": -0.0358119344,
				"y": 1.5841173614,
				"z": 2.1414719387,
				"element": "C" 
			},
			{
				"x": -1.2886182121,
				"y": 0.7394901421,
				"z": 2.0295691525,
				"element": "C" 
			},
			{
				"x": -1.8878539927,
				"y": 0.4888867182,
				"z": 0.7834256498,
				"element": "C" 
			},
			{
				"x": -3.032150545,
				"y": -0.3056731488,
				"z": 0.6856520949,
				"element": "C" 
			},
			{
				"x": -3.5993300669,
				"y": -0.864638079,
				"z": 1.8322852725,
				"element": "C" 
			},
			{
				"x": -3.0151453402,
				"y": -0.6253669775,
				"z": 3.0775090652,
				"element": "C" 
			},
			{
				"x": -1.8715589326,
				"y": 0.1692772779,
				"z": 3.1732953549,
				"element": "C" 
			},
			{
				"x": -0.2670056887,
				"y": -1.3534387665,
				"z": 1.8465040777,
				"element": "H" 
			},
			{
				"x": 1.895958326,
				"y": -2.5452398601,
				"z": -1.3374293397,
				"element": "H" 
			},
			{
				"x": 2.3178748872,
				"y": -0.8557056919,
				"z": -3.1177417539,
				"element": "H" 
			},
			{
				"x": 2.2711937322,
				"y": 1.5705835041,
				"z": -2.529490357,
				"element": "H" 
			},
			{
				"x": 1.8192159202,
				"y": 2.2622352773,
				"z": -0.2069848337,
				"element": "H" 
			},
			{
				"x": 1.3405208906,
				"y": -0.0081518005,
				"z": 2.6910158081,
				"element": "H" 
			},
			{
				"x": 2.1152238044,
				"y": 1.4827077749,
				"z": 2.1948228954,
				"element": "H" 
			},
			{
				"x": -0.0734902975,
				"y": 2.394586228,
				"z": 1.4048223258,
				"element": "H" 
			},
			{
				"x": -0.0088266226,
				"y": 2.0594107247,
				"z": 3.1284440959,
				"element": "H" 
			},
			{
				"x": -1.4554512113,
				"y": 0.9247620292,
				"z": -0.1128833175,
				"element": "H" 
			},
			{
				"x": -3.4810075204,
				"y": -0.4849124252,
				"z": -0.2871028546,
				"element": "H" 
			},
			{
				"x": -4.4891236452,
				"y": -1.4824135682,
				"z": 1.7561514619,
				"element": "H" 
			},
			{
				"x": -3.4487306906,
				"y": -1.0560421559,
				"z": 3.9752764014,
				"element": "H" 
			},
			{
				"x": -1.4233079383,
				"y": 0.3525159794,
				"z": 4.1468073611,
				"element": "H" 
			}
		],
		 "valence_orbital": [ 
			{
				"type": "occ",
				"energy": -0.27245,
				"method": "rhf"
			},
			{
				"type": "occ",
				"energy": -0.26401,
				"method": "rhf"
			},
			{
				"type": "occ",
				"energy": -0.25833,
				"method": "rhf"
			},
			{
				"type": "occ",
				"energy": -0.25257,
				"method": "rhf"
			},
			{
				"type": "occ",
				"energy": -0.24875,
				"method": "rhf"
			},
			{
				"type": "unocc",
				"energy": -0.03493,
				"method": "rhf"
			},
			{
				"type": "unocc",
				"energy": -0.01954,
				"method": "rhf"
			},
			{
				"type": "unocc",
				"energy": -0.01545,
				"method": "rhf"
			},
			{
				"type": "unocc",
				"energy": -0.00945,
				"method": "rhf"
			},
			{
				"type": "unocc",
				"energy": 0.04436,
				"method": "rhf"
			}
		],
		"cosmo_sigma_profile": { 
			"-0.025": 0.0,
			"-0.024": 0.0,
			"-0.023": 0.0,
			"-0.022": 0.0,
			"-0.021": 0.0,
			"-0.02": 0.0,
			"-0.019": 0.0,
			"-0.018": 0.0,
			"-0.017": 0.0,
			"-0.016": 0.0,
			"-0.015": 0.0,
			"-0.014": 0.0,
			"-0.013": 0.0,
			"-0.012": 0.0,
			"-0.011": 0.0,
			"-0.01": 0.0,
			"-0.009": 0.0,
			"-0.008": 0.00053885982922,
			"-0.007": 1.35937349851,
			"-0.006": 12.962614048,
			"-0.005": 25.3988788348,
			"-0.004": 34.582024595,
			"-0.003": 28.7469172427,
			"-0.002": 23.3092956692,
			"-0.001": 19.6049028851,
			"0.0": 15.9901440762,
			"0.001": 16.6954484366,
			"0.002": 16.5087270203,
			"0.003": 18.271681174,
			"0.004": 16.901355142,
			"0.005": 9.04682026911,
			"0.006": 4.63577976171,
			"0.007": 2.21254492753,
			"0.008": 2.64751360421,
			"0.009": 3.32456664498,
			"0.01": 4.06725715961,
			"0.011": 5.17569067026,
			"0.012": 5.72505780726,
			"0.013": 2.06554675537,
			"0.014": 0.129366567809,
			"0.015": 0.0,
			"0.016": 0.0,
			"0.017": 0.0,
			"0.018": 0.0,
			"0.019": 0.0,
			"0.02": 0.0,
			"0.021": 0.0,
			"0.022": 0.0,
			"0.023": 0.0,
			"0.024": 0.0,
			"0.025": 0.0
		}
	}
}
