{
	 "smiles": "[O-][N+](=O)C1=CC=C(C=C1)C(=O)OCCC1=CC=C(CCOC(=O)C2=CC=C(C=C2)[N+]([O-])=O)C=C1", 
	 "Tm": 446.15, 
	 "num_atms": 54, 
	 "gaussian": { 
		 "optdone": 1, 
		 "sigma_profile": "yes", 
		 "theory": "DFT", 
		 "functional": "B3LYP", 
		 "basiset": "6-31G**", 
		 "properties": { 
			 "R2extent": 18388.5358, 
			 "electric_dipole_moment_norm": 6.19731853143, 
			 "electric_quadrupole_moment_norm": 43.6388471216, 
			 "total_energy": -1637.74335349, 
			 "HOMO_LUMO_gap": 0.14739, 
			 "cosmo_polarized_energy": -20.58, 
			 "cosmo_cavitation_energy": 60.9, 
			 "cosmo_dispersion_energy": -38.54, 
			 "cosmo_repulsion_energy": 2.86, 
			 "cosmo_total_nonelectrostatic_energy": 25.23, 
			 "SMD_solvation_energy": 15.45 
		},
		"coords": [
			{
				"x": 3.6975231168,
				"y": 4.6847326706,
				"z": 4.3086794525,
				"element": "O" 
			},
			{
				"x": 3.6209097445,
				"y": 3.5047039225,
				"z": 3.9689369219,
				"element": "N" 
			},
			{
				"x": 4.5077761381,
				"y": 2.6682123859,
				"z": 4.1308693048,
				"element": "O" 
			},
			{
				"x": 2.373673399,
				"y": 3.0610231181,
				"z": 3.3185644923,
				"element": "C" 
			},
			{
				"x": 2.2586745077,
				"y": 1.7306729227,
				"z": 2.9192463045,
				"element": "C" 
			},
			{
				"x": 1.0782685217,
				"y": 1.3155342617,
				"z": 2.3105075364,
				"element": "C" 
			},
			{
				"x": 0.0388674597,
				"y": 2.2328977121,
				"z": 2.0996003056,
				"element": "C" 
			},
			{
				"x": 0.1828969193,
				"y": 3.5700238763,
				"z": 2.4985517765,
				"element": "C" 
			},
			{
				"x": 1.3545987733,
				"y": 3.9909252001,
				"z": 3.1194494491,
				"element": "C" 
			},
			{
				"x": -1.2132381653,
				"y": 1.7349024663,
				"z": 1.4517661657,
				"element": "C" 
			},
			{
				"x": -1.512925261,
				"y": 0.5607681886,
				"z": 1.3684949614,
				"element": "O" 
			},
			{
				"x": -1.969889,
				"y": 2.7506702456,
				"z": 0.9779516687,
				"element": "O" 
			},
			{
				"x": -3.1688506792,
				"y": 2.4151325303,
				"z": 0.2437753874,
				"element": "C" 
			},
			{
				"x": -2.9890923426,
				"y": 2.7741656732,
				"z": -1.2369844251,
				"element": "C" 
			},
			{
				"x": -1.9006906709,
				"y": 1.974400667,
				"z": -1.9198795188,
				"element": "C" 
			},
			{
				"x": -0.5887604091,
				"y": 2.4606779934,
				"z": -1.9908922877,
				"element": "C" 
			},
			{
				"x": 0.4286462444,
				"y": 1.6968009524,
				"z": -2.5611127962,
				"element": "C" 
			},
			{
				"x": 0.1680315836,
				"y": 0.4230309553,
				"z": -3.0811470511,
				"element": "C" 
			},
			{
				"x": 1.2834622731,
				"y": -0.4348518894,
				"z": -3.6382750983,
				"element": "C" 
			},
			{
				"x": 2.0099930287,
				"y": -1.2583213833,
				"z": -2.5668048707,
				"element": "C" 
			},
			{
				"x": 1.094648608,
				"y": -2.2077778176,
				"z": -1.9753457262,
				"element": "O" 
			},
			{
				"x": 0.7166093758,
				"y": -2.0075215161,
				"z": -0.6924848109,
				"element": "C" 
			},
			{
				"x": 1.154858072,
				"y": -1.1281019633,
				"z": 0.0216008362,
				"element": "O" 
			},
			{
				"x": -0.3050165964,
				"y": -3.007274974,
				"z": -0.2540800316,
				"element": "C" 
			},
			{
				"x": -0.5195532508,
				"y": -4.2016332583,
				"z": -0.9578492103,
				"element": "C" 
			},
			{
				"x": -1.4634309658,
				"y": -5.1183348384,
				"z": -0.5058461728,
				"element": "C" 
			},
			{
				"x": -2.1902856251,
				"y": -4.8135229924,
				"z": 0.6437822592,
				"element": "C" 
			},
			{
				"x": -2.003938064,
				"y": -3.6278141776,
				"z": 1.3522211863,
				"element": "C" 
			},
			{
				"x": -1.0488411657,
				"y": -2.7225255964,
				"z": 0.900028877,
				"element": "C" 
			},
			{
				"x": -3.1977807275,
				"y": -5.7787515,
				"z": 1.1220381856,
				"element": "N" 
			},
			{
				"x": -3.8299715386,
				"y": -5.4871487698,
				"z": 2.1358276842,
				"element": "O" 
			},
			{
				"x": -3.3442197411,
				"y": -6.8159868416,
				"z": 0.4767037432,
				"element": "O" 
			},
			{
				"x": -1.1480415575,
				"y": -0.0545361781,
				"z": -3.0290014671,
				"element": "C" 
			},
			{
				"x": -2.1649079896,
				"y": 0.7082935896,
				"z": -2.4566131428,
				"element": "C" 
			},
			{
				"x": 3.0837626932,
				"y": 1.0498997917,
				"z": 3.0857685229,
				"element": "H" 
			},
			{
				"x": 0.9641251085,
				"y": 0.2954294761,
				"z": 1.9621895628,
				"element": "H" 
			},
			{
				"x": -0.6242621616,
				"y": 4.2715855768,
				"z": 2.3250205882,
				"element": "H" 
			},
			{
				"x": 1.4937085501,
				"y": 5.0132556447,
				"z": 3.4471570114,
				"element": "H" 
			},
			{
				"x": -3.3802359572,
				"y": 1.3530177379,
				"z": 0.377911221,
				"element": "H" 
			},
			{
				"x": -3.9708806177,
				"y": 3.0098785034,
				"z": 0.6902991821,
				"element": "H" 
			},
			{
				"x": -3.9547645812,
				"y": 2.6038358704,
				"z": -1.7290177512,
				"element": "H" 
			},
			{
				"x": -2.7768451694,
				"y": 3.8462781206,
				"z": -1.3137389184,
				"element": "H" 
			},
			{
				"x": -0.3612774339,
				"y": 3.4458118437,
				"z": -1.5923318521,
				"element": "H" 
			},
			{
				"x": 1.4392671935,
				"y": 2.0967780533,
				"z": -2.5999174445,
				"element": "H" 
			},
			{
				"x": 0.891886896,
				"y": -1.1189102679,
				"z": -4.3992744085,
				"element": "H" 
			},
			{
				"x": 2.0383516899,
				"y": 0.1913121955,
				"z": -4.1298609193,
				"element": "H" 
			},
			{
				"x": 2.8117071787,
				"y": -1.8525076505,
				"z": -3.0146617924,
				"element": "H" 
			},
			{
				"x": 2.4189738434,
				"y": -0.6233442236,
				"z": -1.7792252616,
				"element": "H" 
			},
			{
				"x": 0.0564096778,
				"y": -4.408394734,
				"z": -1.8518929334,
				"element": "H" 
			},
			{
				"x": -1.6466666409,
				"y": -6.0527539499,
				"z": -1.0208124906,
				"element": "H" 
			},
			{
				"x": -2.6023095386,
				"y": -3.4322282419,
				"z": 2.2329319932,
				"element": "H" 
			},
			{
				"x": -0.8961760468,
				"y": -1.7780969667,
				"z": 1.4095780566,
				"element": "H" 
			},
			{
				"x": -1.3777031365,
				"y": -1.0350449862,
				"z": -3.4375543706,
				"element": "H" 
			},
			{
				"x": -3.1771755624,
				"y": 0.3118325712,
				"z": -2.4254478845,
				"element": "H" 
			}
		],
		 "valence_orbital": [ 
			{
				"type": "occ",
				"energy": -0.28452,
				"method": "rhf"
			},
			{
				"type": "occ",
				"energy": -0.28041,
				"method": "rhf"
			},
			{
				"type": "occ",
				"energy": -0.27982,
				"method": "rhf"
			},
			{
				"type": "occ",
				"energy": -0.25877,
				"method": "rhf"
			},
			{
				"type": "occ",
				"energy": -0.24711,
				"method": "rhf"
			},
			{
				"type": "unocc",
				"energy": -0.09972,
				"method": "rhf"
			},
			{
				"type": "unocc",
				"energy": -0.0994,
				"method": "rhf"
			},
			{
				"type": "unocc",
				"energy": -0.03556,
				"method": "rhf"
			},
			{
				"type": "unocc",
				"energy": -0.03454,
				"method": "rhf"
			},
			{
				"type": "unocc",
				"energy": -0.02962,
				"method": "rhf"
			}
		],
		"cosmo_sigma_profile": { 
			"-0.025": 0.0,
			"-0.024": 0.0,
			"-0.023": 0.0,
			"-0.022": 0.0,
			"-0.021": 0.0,
			"-0.02": 0.0,
			"-0.019": 0.0,
			"-0.018": 0.0,
			"-0.017": 0.0,
			"-0.016": 0.0,
			"-0.015": 0.0,
			"-0.014": 0.0,
			"-0.013": 0.0,
			"-0.012": 0.0,
			"-0.011": 0.0,
			"-0.01": 0.0,
			"-0.009": 0.362858895703,
			"-0.008": 4.78859199019,
			"-0.007": 12.282010981,
			"-0.006": 19.8629756815,
			"-0.005": 43.6533409926,
			"-0.004": 43.2507359874,
			"-0.003": 39.882827129,
			"-0.002": 39.4707588775,
			"-0.001": 39.0093819361,
			"0.0": 47.116483251,
			"0.001": 38.4480295419,
			"0.002": 22.1173783246,
			"0.003": 20.7049093708,
			"0.004": 20.2791744872,
			"0.005": 18.4853260552,
			"0.006": 23.5013590453,
			"0.007": 25.4384550925,
			"0.008": 15.5327813565,
			"0.009": 10.0062519122,
			"0.01": 3.37241723679,
			"0.011": 0.0,
			"0.012": 0.0,
			"0.013": 0.0,
			"0.014": 0.0,
			"0.015": 0.0,
			"0.016": 0.0,
			"0.017": 0.0,
			"0.018": 0.0,
			"0.019": 0.0,
			"0.02": 0.0,
			"0.021": 0.0,
			"0.022": 0.0,
			"0.023": 0.0,
			"0.024": 0.0,
			"0.025": 0.0
		}
	}
}
