{
	 "smiles": "ClC1=C2C=CC=CC2=NC(=N1)C1=CSC=C1", 
	 "Tm": 396.15, 
	 "num_atms": 23, 
	 "gaussian": { 
		 "optdone": 1, 
		 "sigma_profile": "yes", 
		 "theory": "DFT", 
		 "functional": "B3LYP", 
		 "basiset": "6-31G**", 
		 "properties": { 
			 "R2extent": 5565.2744, 
			 "electric_dipole_moment_norm": 2.59634592071, 
			 "electric_quadrupole_moment_norm": 13.2257740121, 
			 "total_energy": -1429.38151425, 
			 "HOMO_LUMO_gap": 0.15453, 
			 "cosmo_polarized_energy": -7.39, 
			 "cosmo_cavitation_energy": 31.24, 
			 "cosmo_dispersion_energy": -23.94, 
			 "cosmo_repulsion_energy": 1.78, 
			 "cosmo_total_nonelectrostatic_energy": 9.09, 
			 "SMD_solvation_energy": 2.66 
		},
		"coords": [
			{
				"x": -2.2443432536,
				"y": 2.5151512441,
				"z": 2.7904038879,
				"element": "Cl" 
			},
			{
				"x": -1.0043404998,
				"y": 1.5953553036,
				"z": 1.9331177538,
				"element": "C" 
			},
			{
				"x": 0.3158781569,
				"y": 1.5411746881,
				"z": 2.4700231322,
				"element": "C" 
			},
			{
				"x": 0.7625677885,
				"y": 2.1652013116,
				"z": 3.6579972042,
				"element": "C" 
			},
			{
				"x": 2.0752658807,
				"y": 2.0237640988,
				"z": 4.0548140495,
				"element": "C" 
			},
			{
				"x": 2.9800993386,
				"y": 1.2575305396,
				"z": 3.2806896689,
				"element": "C" 
			},
			{
				"x": 2.5686095063,
				"y": 0.6403074516,
				"z": 2.1198860465,
				"element": "C" 
			},
			{
				"x": 1.2247104673,
				"y": 0.7655549695,
				"z": 1.6830551656,
				"element": "C" 
			},
			{
				"x": 0.8396566188,
				"y": 0.1470610384,
				"z": 0.5328453021,
				"element": "N" 
			},
			{
				"x": -0.4184568107,
				"y": 0.2867625534,
				"z": 0.1591004091,
				"element": "C" 
			},
			{
				"x": -1.3722692826,
				"y": 1.0077647448,
				"z": 0.8393270422,
				"element": "N" 
			},
			{
				"x": -0.863108204,
				"y": -0.368211835,
				"z": -1.0761242155,
				"element": "C" 
			},
			{
				"x": -2.1490076485,
				"y": -0.2908645315,
				"z": -1.5607425596,
				"element": "C" 
			},
			{
				"x": -2.3319736603,
				"y": -1.1740573147,
				"z": -3.0298028533,
				"element": "S" 
			},
			{
				"x": -0.6602494247,
				"y": -1.6607251912,
				"z": -3.0043915753,
				"element": "C" 
			},
			{
				"x": -0.0097760486,
				"y": -1.1613922831,
				"z": -1.9162052408,
				"element": "C" 
			},
			{
				"x": 0.0635111875,
				"y": 2.7501139073,
				"z": 4.2448878437,
				"element": "H" 
			},
			{
				"x": 2.4200668053,
				"y": 2.5019408759,
				"z": 4.9663224122,
				"element": "H" 
			},
			{
				"x": 4.0103819707,
				"y": 1.1577659266,
				"z": 3.6097640985,
				"element": "H" 
			},
			{
				"x": 3.2440825121,
				"y": 0.0487483012,
				"z": 1.511356936,
				"element": "H" 
			},
			{
				"x": -2.9785708501,
				"y": 0.2409344708,
				"z": -1.1187948864,
				"element": "H" 
			},
			{
				"x": -0.2672276696,
				"y": -2.2841148494,
				"z": -3.7953395924,
				"element": "H" 
			},
			{
				"x": 1.03509312,
				"y": -1.3327654203,
				"z": -1.6923900291,
				"element": "H" 
			}
		],
		 "valence_orbital": [ 
			{
				"type": "occ",
				"energy": -0.286,
				"method": "rhf"
			},
			{
				"type": "occ",
				"energy": -0.26402,
				"method": "rhf"
			},
			{
				"type": "occ",
				"energy": -0.26165,
				"method": "rhf"
			},
			{
				"type": "occ",
				"energy": -0.24539,
				"method": "rhf"
			},
			{
				"type": "occ",
				"energy": -0.22814,
				"method": "rhf"
			},
			{
				"type": "unocc",
				"energy": -0.07361,
				"method": "rhf"
			},
			{
				"type": "unocc",
				"energy": -0.05236,
				"method": "rhf"
			},
			{
				"type": "unocc",
				"energy": -0.00445,
				"method": "rhf"
			},
			{
				"type": "unocc",
				"energy": 0.00569,
				"method": "rhf"
			},
			{
				"type": "unocc",
				"energy": 0.02585,
				"method": "rhf"
			}
		],
		"cosmo_sigma_profile": { 
			"-0.025": 0.0,
			"-0.024": 0.0,
			"-0.023": 0.0,
			"-0.022": 0.0,
			"-0.021": 0.0,
			"-0.02": 0.0,
			"-0.019": 0.0,
			"-0.018": 0.0,
			"-0.017": 0.0,
			"-0.016": 0.0,
			"-0.015": 0.0,
			"-0.014": 0.0,
			"-0.013": 0.0,
			"-0.012": 0.0,
			"-0.011": 0.0,
			"-0.01": 0.0,
			"-0.009": 1.0731766942,
			"-0.008": 3.90600289754,
			"-0.007": 8.73279640318,
			"-0.006": 13.0374307816,
			"-0.005": 13.3484087772,
			"-0.004": 12.5402391368,
			"-0.003": 15.4984466847,
			"-0.002": 17.4431427509,
			"-0.001": 20.8496776726,
			"0.0": 21.3337161821,
			"0.001": 25.7750889591,
			"0.002": 31.9179326583,
			"0.003": 33.9282444737,
			"0.004": 17.076441862,
			"0.005": 7.62694160764,
			"0.006": 4.24987377297,
			"0.007": 2.75813829536,
			"0.008": 2.86587909711,
			"0.009": 2.56628162851,
			"0.01": 1.2546979426,
			"0.011": 0.0104756287953,
			"0.012": 0.0,
			"0.013": 0.0,
			"0.014": 0.0,
			"0.015": 0.0,
			"0.016": 0.0,
			"0.017": 0.0,
			"0.018": 0.0,
			"0.019": 0.0,
			"0.02": 0.0,
			"0.021": 0.0,
			"0.022": 0.0,
			"0.023": 0.0,
			"0.024": 0.0,
			"0.025": 0.0
		}
	}
}
