{
	 "smiles": "OC(=O)CC1CCCN1CC1=NC2=C(C=CC=C2)C(=O)N1", 
	 "Tm": 471.15, 
	 "num_atms": 38, 
	 "gaussian": { 
		 "optdone": 1, 
		 "sigma_profile": "yes", 
		 "theory": "DFT", 
		 "functional": "B3LYP", 
		 "basiset": "6-31G**", 
		 "properties": { 
			 "R2extent": 7074.8051, 
			 "electric_dipole_moment_norm": 4.25860073851, 
			 "electric_quadrupole_moment_norm": 30.1414159588, 
			 "total_energy": -971.818482601, 
			 "HOMO_LUMO_gap": 0.17108, 
			 "cosmo_polarized_energy": -23.02, 
			 "cosmo_cavitation_energy": 39.33, 
			 "cosmo_dispersion_energy": -27.87, 
			 "cosmo_repulsion_energy": 2.08, 
			 "cosmo_total_nonelectrostatic_energy": 13.53, 
			 "SMD_solvation_energy": 7.04 
		},
		"coords": [
			{
				"x": 1.0794748707,
				"y": -0.463970217,
				"z": 1.5151245762,
				"element": "O" 
			},
			{
				"x": 2.2885232832,
				"y": -0.5163420183,
				"z": 0.9336564353,
				"element": "C" 
			},
			{
				"x": 3.3052520229,
				"y": -0.4048789915,
				"z": 1.5861595156,
				"element": "O" 
			},
			{
				"x": 2.3057686858,
				"y": -0.6770021058,
				"z": -0.5841975649,
				"element": "C" 
			},
			{
				"x": 1.9062058222,
				"y": 0.6164285005,
				"z": -1.338738456,
				"element": "C" 
			},
			{
				"x": 2.674153339,
				"y": 1.8815812435,
				"z": -0.8769800086,
				"element": "C" 
			},
			{
				"x": 1.6478911908,
				"y": 2.6841850746,
				"z": -0.0530773077,
				"element": "C" 
			},
			{
				"x": 0.3238364383,
				"y": 2.3572734125,
				"z": -0.7464912925,
				"element": "C" 
			},
			{
				"x": 0.4897831683,
				"y": 0.9548443481,
				"z": -1.1237494259,
				"element": "N" 
			},
			{
				"x": -0.5134861492,
				"y": 0.3543838668,
				"z": -1.9529368142,
				"element": "C" 
			},
			{
				"x": -1.4971705678,
				"y": -0.5307802329,
				"z": -1.1909333793,
				"element": "C" 
			},
			{
				"x": -1.2038022073,
				"y": -0.9957560533,
				"z": -0.0188547328,
				"element": "N" 
			},
			{
				"x": -2.121234509,
				"y": -1.8391930388,
				"z": 0.607989916,
				"element": "C" 
			},
			{
				"x": -3.3477666385,
				"y": -2.1999538647,
				"z": 0.0018075431,
				"element": "C" 
			},
			{
				"x": -4.2440219183,
				"y": -3.0520321498,
				"z": 0.6650177597,
				"element": "C" 
			},
			{
				"x": -3.9257769748,
				"y": -3.5454486951,
				"z": 1.9213266448,
				"element": "C" 
			},
			{
				"x": -2.7069403169,
				"y": -3.1903446851,
				"z": 2.5258345321,
				"element": "C" 
			},
			{
				"x": -1.8108447241,
				"y": -2.3481480253,
				"z": 1.8829505594,
				"element": "C" 
			},
			{
				"x": -3.6757890814,
				"y": -1.6731991637,
				"z": -1.3266960595,
				"element": "C" 
			},
			{
				"x": -4.6878880828,
				"y": -1.8889232788,
				"z": -1.9750030716,
				"element": "O" 
			},
			{
				"x": -2.6664938423,
				"y": -0.8347234914,
				"z": -1.8383484514,
				"element": "N" 
			},
			{
				"x": 0.3406762203,
				"y": -0.5324317324,
				"z": 0.8539909762,
				"element": "H" 
			},
			{
				"x": 3.3230169466,
				"y": -0.9594954121,
				"z": -0.8668618124,
				"element": "H" 
			},
			{
				"x": 1.6292563854,
				"y": -1.4867152329,
				"z": -0.8840338989,
				"element": "H" 
			},
			{
				"x": 2.1019128979,
				"y": 0.4298790689,
				"z": -2.4077788955,
				"element": "H" 
			},
			{
				"x": 3.5684403842,
				"y": 1.6307228111,
				"z": -0.3020686834,
				"element": "H" 
			},
			{
				"x": 2.9876992731,
				"y": 2.4594454419,
				"z": -1.7528512938,
				"element": "H" 
			},
			{
				"x": 1.6221939908,
				"y": 2.3261210652,
				"z": 0.9798981802,
				"element": "H" 
			},
			{
				"x": 1.8608969582,
				"y": 3.7563162767,
				"z": -0.0375851547,
				"element": "H" 
			},
			{
				"x": -0.5427564045,
				"y": 2.4827945954,
				"z": -0.0865625012,
				"element": "H" 
			},
			{
				"x": 0.166757984,
				"y": 3.0064450622,
				"z": -1.6294060214,
				"element": "H" 
			},
			{
				"x": -0.0468962349,
				"y": -0.2781168207,
				"z": -2.7238507596,
				"element": "H" 
			},
			{
				"x": -1.0933218923,
				"y": 1.1166255064,
				"z": -2.502050413,
				"element": "H" 
			},
			{
				"x": -5.1751850289,
				"y": -3.3055010204,
				"z": 0.1691914522,
				"element": "H" 
			},
			{
				"x": -4.6153197278,
				"y": -4.2052766223,
				"z": 2.4385948762,
				"element": "H" 
			},
			{
				"x": -2.461481128,
				"y": -3.5793698955,
				"z": 3.5097337024,
				"element": "H" 
			},
			{
				"x": -0.867404765,
				"y": -2.0669804528,
				"z": 2.3396864467,
				"element": "H" 
			},
			{
				"x": -2.862659668,
				"y": -0.4392630733,
				"z": -2.7511071179,
				"element": "H" 
			}
		],
		 "valence_orbital": [ 
			{
				"type": "occ",
				"energy": -0.2774,
				"method": "rhf"
			},
			{
				"type": "occ",
				"energy": -0.27001,
				"method": "rhf"
			},
			{
				"type": "occ",
				"energy": -0.24447,
				"method": "rhf"
			},
			{
				"type": "occ",
				"energy": -0.24351,
				"method": "rhf"
			},
			{
				"type": "occ",
				"energy": -0.22371,
				"method": "rhf"
			},
			{
				"type": "unocc",
				"energy": -0.05263,
				"method": "rhf"
			},
			{
				"type": "unocc",
				"energy": -0.04824,
				"method": "rhf"
			},
			{
				"type": "unocc",
				"energy": 0.01248,
				"method": "rhf"
			},
			{
				"type": "unocc",
				"energy": 0.0277,
				"method": "rhf"
			},
			{
				"type": "unocc",
				"energy": 0.05645,
				"method": "rhf"
			}
		],
		"cosmo_sigma_profile": { 
			"-0.025": 0.0,
			"-0.024": 0.0,
			"-0.023": 0.0,
			"-0.022": 0.0,
			"-0.021": 0.0,
			"-0.02": 0.0,
			"-0.019": 0.0,
			"-0.018": 0.0,
			"-0.017": 0.131998957476,
			"-0.016": 0.853274485912,
			"-0.015": 1.61812369493,
			"-0.014": 1.0304664998,
			"-0.013": 2.07929315124,
			"-0.012": 0.838480453199,
			"-0.011": 1.10499125632,
			"-0.01": 0.584036021281,
			"-0.009": 1.68377356016,
			"-0.008": 3.00189312031,
			"-0.007": 7.56652396287,
			"-0.006": 11.5044374468,
			"-0.005": 17.6758272781,
			"-0.004": 25.5627114962,
			"-0.003": 32.3911145498,
			"-0.002": 35.9750450024,
			"-0.001": 27.8681077059,
			"0.0": 24.8722810184,
			"0.001": 18.655679986,
			"0.002": 18.1954265952,
			"0.003": 17.8186736347,
			"0.004": 10.9351952075,
			"0.005": 3.66581451247,
			"0.006": 4.0618685075,
			"0.007": 2.90018337129,
			"0.008": 2.76334678915,
			"0.009": 3.72982406309,
			"0.01": 3.90407285328,
			"0.011": 5.01689647363,
			"0.012": 9.5478104535,
			"0.013": 9.64938228039,
			"0.014": 3.25310187555,
			"0.015": 0.493165506651,
			"0.016": 0.0,
			"0.017": 0.0,
			"0.018": 0.0,
			"0.019": 0.0,
			"0.02": 0.0,
			"0.021": 0.0,
			"0.022": 0.0,
			"0.023": 0.0,
			"0.024": 0.0,
			"0.025": 0.0
		}
	}
}
