{
	 "smiles": "NC(=S)N1CCCCCC1", 
	 "Tm": 425.15, 
	 "num_atms": 24, 
	 "gaussian": { 
		 "optdone": 1, 
		 "sigma_profile": "yes", 
		 "theory": "DFT", 
		 "functional": "B3LYP", 
		 "basiset": "6-31G**", 
		 "properties": { 
			 "R2extent": 2505.3923, 
			 "electric_dipole_moment_norm": 5.45536102013, 
			 "electric_quadrupole_moment_norm": 20.9917177539, 
			 "total_energy": -782.893941297, 
			 "HOMO_LUMO_gap": 0.20144, 
			 "cosmo_polarized_energy": -16.33, 
			 "cosmo_cavitation_energy": 25.5, 
			 "cosmo_dispersion_energy": -19.48, 
			 "cosmo_repulsion_energy": 1.53, 
			 "cosmo_total_nonelectrostatic_energy": 7.55, 
			 "SMD_solvation_energy": 2.2 
		},
		"coords": [
			{
				"x": 0.8764639881,
				"y": 3.7228250115,
				"z": 0.9962558355,
				"element": "N" 
			},
			{
				"x": 0.6869157445,
				"y": 2.455150271,
				"z": 1.4843020517,
				"element": "C" 
			},
			{
				"x": -0.0933545521,
				"y": 2.2566231442,
				"z": 2.9724323316,
				"element": "S" 
			},
			{
				"x": 1.1266318377,
				"y": 1.4338884852,
				"z": 0.6972572542,
				"element": "N" 
			},
			{
				"x": 1.6466049597,
				"y": 1.6388481683,
				"z": -0.658948385,
				"element": "C" 
			},
			{
				"x": 0.5722241448,
				"y": 1.9014495209,
				"z": -1.7335945259,
				"element": "C" 
			},
			{
				"x": -0.721534317,
				"y": 1.0796037616,
				"z": -1.5600453287,
				"element": "C" 
			},
			{
				"x": -0.5468227605,
				"y": -0.3801523074,
				"z": -1.0901477963,
				"element": "C" 
			},
			{
				"x": -0.4103676353,
				"y": -0.5369928258,
				"z": 0.4362966137,
				"element": "C" 
			},
			{
				"x": 0.8714353899,
				"y": 0.0315927438,
				"z": 1.0580929863,
				"element": "C" 
			},
			{
				"x": 0.6958314432,
				"y": 4.4534756741,
				"z": 1.6674407506,
				"element": "H" 
			},
			{
				"x": 1.5796251559,
				"y": 3.9150044056,
				"z": 0.2981331469,
				"element": "H" 
			},
			{
				"x": 2.4008047179,
				"y": 2.4359643387,
				"z": -0.6640262005,
				"element": "H" 
			},
			{
				"x": 2.1950894205,
				"y": 0.7275560252,
				"z": -0.9099220535,
				"element": "H" 
			},
			{
				"x": 0.3094251928,
				"y": 2.9646935999,
				"z": -1.7500724166,
				"element": "H" 
			},
			{
				"x": 1.0324540218,
				"y": 1.6808614349,
				"z": -2.7055184846,
				"element": "H" 
			},
			{
				"x": -1.3772797696,
				"y": 1.5922080525,
				"z": -0.8459174351,
				"element": "H" 
			},
			{
				"x": -1.2533699215,
				"y": 1.0930407124,
				"z": -2.5186315784,
				"element": "H" 
			},
			{
				"x": 0.3048343362,
				"y": -0.8500353541,
				"z": -1.6040279958,
				"element": "H" 
			},
			{
				"x": -1.430470755,
				"y": -0.948823571,
				"z": -1.4030571164,
				"element": "H" 
			},
			{
				"x": -1.2675935793,
				"y": -0.0553802366,
				"z": 0.9216400381,
				"element": "H" 
			},
			{
				"x": -0.4579305073,
				"y": -1.6015148927,
				"z": 0.7004850774,
				"element": "H" 
			},
			{
				"x": 0.8129197343,
				"y": -0.0249939397,
				"z": 2.145383869,
				"element": "H" 
			},
			{
				"x": 1.7437637105,
				"y": -0.5459922225,
				"z": 0.728189362,
				"element": "H" 
			}
		],
		 "valence_orbital": [ 
			{
				"type": "occ",
				"energy": -0.32567,
				"method": "rhf"
			},
			{
				"type": "occ",
				"energy": -0.32221,
				"method": "rhf"
			},
			{
				"type": "occ",
				"energy": -0.25506,
				"method": "rhf"
			},
			{
				"type": "occ",
				"energy": -0.20285,
				"method": "rhf"
			},
			{
				"type": "occ",
				"energy": -0.19415,
				"method": "rhf"
			},
			{
				"type": "unocc",
				"energy": 0.00729,
				"method": "rhf"
			},
			{
				"type": "unocc",
				"energy": 0.05288,
				"method": "rhf"
			},
			{
				"type": "unocc",
				"energy": 0.07819,
				"method": "rhf"
			},
			{
				"type": "unocc",
				"energy": 0.09801,
				"method": "rhf"
			},
			{
				"type": "unocc",
				"energy": 0.10296,
				"method": "rhf"
			}
		],
		"cosmo_sigma_profile": { 
			"-0.025": 0.0,
			"-0.024": 0.0,
			"-0.023": 0.0,
			"-0.022": 0.0,
			"-0.021": 0.0,
			"-0.02": 0.0,
			"-0.019": 0.0,
			"-0.018": 0.0,
			"-0.017": 0.0,
			"-0.016": 0.0,
			"-0.015": 0.406315198129,
			"-0.014": 1.45433638576,
			"-0.013": 2.02739211303,
			"-0.012": 2.31604460957,
			"-0.011": 2.76072971262,
			"-0.01": 2.75917684921,
			"-0.009": 1.80188920201,
			"-0.008": 1.77194047788,
			"-0.007": 2.75855543635,
			"-0.006": 5.51197454675,
			"-0.005": 7.41886204222,
			"-0.004": 9.67515586706,
			"-0.003": 19.8666691211,
			"-0.002": 24.9686740512,
			"-0.001": 25.8631709313,
			"0.0": 21.9137125925,
			"0.001": 12.3757249031,
			"0.002": 4.60917186674,
			"0.003": 3.66972277282,
			"0.004": 4.19008341738,
			"0.005": 4.33698563196,
			"0.006": 4.97304120203,
			"0.007": 4.34985928619,
			"0.008": 4.20202009933,
			"0.009": 4.08900351738,
			"0.01": 4.21525445985,
			"0.011": 6.78705017388,
			"0.012": 6.24365958993,
			"0.013": 2.85690238223,
			"0.014": 0.0069800004634,
			"0.015": 0.0,
			"0.016": 0.0,
			"0.017": 0.0,
			"0.018": 0.0,
			"0.019": 0.0,
			"0.02": 0.0,
			"0.021": 0.0,
			"0.022": 0.0,
			"0.023": 0.0,
			"0.024": 0.0,
			"0.025": 0.0
		}
	}
}
