{
	 "smiles": "OCC(O)COCC1=CC=CC=C1", 
	 "Tm": 298.65, 
	 "num_atms": 27, 
	 "gaussian": { 
		 "optdone": 1, 
		 "sigma_profile": "yes", 
		 "theory": "DFT", 
		 "functional": "B3LYP", 
		 "basiset": "6-31G**", 
		 "properties": { 
			 "R2extent": 3624.0995, 
			 "electric_dipole_moment_norm": 3.66129857837, 
			 "electric_quadrupole_moment_norm": 10.4966446915, 
			 "total_energy": -615.147040446, 
			 "HOMO_LUMO_gap": 0.23827, 
			 "cosmo_polarized_energy": -11.18, 
			 "cosmo_cavitation_energy": 29.83, 
			 "cosmo_dispersion_energy": -21.44, 
			 "cosmo_repulsion_energy": 1.73, 
			 "cosmo_total_nonelectrostatic_energy": 10.12, 
			 "SMD_solvation_energy": 4.81 
		},
		"coords": [
			{
				"x": 3.391656882,
				"y": 2.189377364,
				"z": 2.0118805131,
				"element": "O" 
			},
			{
				"x": 2.9802837718,
				"y": 1.6888823504,
				"z": 0.7553389577,
				"element": "C" 
			},
			{
				"x": 1.4506993421,
				"y": 1.7085764501,
				"z": 0.6489428806,
				"element": "C" 
			},
			{
				"x": 0.8974785813,
				"y": 1.0469551311,
				"z": 1.7913541648,
				"element": "O" 
			},
			{
				"x": 0.9167758507,
				"y": 1.0735498226,
				"z": -0.6325078364,
				"element": "C" 
			},
			{
				"x": 1.1529562411,
				"y": -0.3284029152,
				"z": -0.5214252686,
				"element": "O" 
			},
			{
				"x": 0.6462094745,
				"y": -1.1047179641,
				"z": -1.5977723797,
				"element": "C" 
			},
			{
				"x": -0.8687586871,
				"y": -1.2034685883,
				"z": -1.6492363156,
				"element": "C" 
			},
			{
				"x": -1.6342484654,
				"y": -1.1668437549,
				"z": -0.4773157447,
				"element": "C" 
			},
			{
				"x": -3.0209098186,
				"y": -1.3111667959,
				"z": -0.5332933895,
				"element": "C" 
			},
			{
				"x": -3.6588915571,
				"y": -1.5037172035,
				"z": -1.7605161355,
				"element": "C" 
			},
			{
				"x": -2.9027322897,
				"y": -1.5403144694,
				"z": -2.9333831891,
				"element": "C" 
			},
			{
				"x": -1.5169999478,
				"y": -1.3834359008,
				"z": -2.8765530305,
				"element": "C" 
			},
			{
				"x": 2.7752596738,
				"y": 1.795357435,
				"z": 2.6488721329,
				"element": "H" 
			},
			{
				"x": 3.338868953,
				"y": 0.6599939138,
				"z": 0.5855327001,
				"element": "H" 
			},
			{
				"x": 3.4240698932,
				"y": 2.3276348125,
				"z": -0.0174906519,
				"element": "H" 
			},
			{
				"x": 1.1072259253,
				"y": 2.7476725121,
				"z": 0.7079406407,
				"element": "H" 
			},
			{
				"x": 0.9775201387,
				"y": 0.0996129056,
				"z": 1.5976307635,
				"element": "H" 
			},
			{
				"x": 1.4306509614,
				"y": 1.4820874744,
				"z": -1.5172432031,
				"element": "H" 
			},
			{
				"x": -0.1573761294,
				"y": 1.2748627088,
				"z": -0.7333554444,
				"element": "H" 
			},
			{
				"x": 1.0807982175,
				"y": -2.1010946065,
				"z": -1.4531726118,
				"element": "H" 
			},
			{
				"x": 1.0277106589,
				"y": -0.7204635617,
				"z": -2.55663683,
				"element": "H" 
			},
			{
				"x": -1.1402216294,
				"y": -1.0043706958,
				"z": 0.475652844,
				"element": "H" 
			},
			{
				"x": -3.6035584327,
				"y": -1.2729864724,
				"z": 0.3828060086,
				"element": "H" 
			},
			{
				"x": -4.7381715319,
				"y": -1.6180643427,
				"z": -1.8029784045,
				"element": "H" 
			},
			{
				"x": -3.3916132008,
				"y": -1.6808362837,
				"z": -3.8932974315,
				"element": "H" 
			},
			{
				"x": -0.9339828753,
				"y": -1.4017793256,
				"z": -3.7948737392,
				"element": "H" 
			}
		],
		 "valence_orbital": [ 
			{
				"type": "occ",
				"energy": -0.28544,
				"method": "rhf"
			},
			{
				"type": "occ",
				"energy": -0.27877,
				"method": "rhf"
			},
			{
				"type": "occ",
				"energy": -0.25593,
				"method": "rhf"
			},
			{
				"type": "occ",
				"energy": -0.25033,
				"method": "rhf"
			},
			{
				"type": "occ",
				"energy": -0.24814,
				"method": "rhf"
			},
			{
				"type": "unocc",
				"energy": -0.00987,
				"method": "rhf"
			},
			{
				"type": "unocc",
				"energy": -0.00778,
				"method": "rhf"
			},
			{
				"type": "unocc",
				"energy": 0.06991,
				"method": "rhf"
			},
			{
				"type": "unocc",
				"energy": 0.09306,
				"method": "rhf"
			},
			{
				"type": "unocc",
				"energy": 0.09678,
				"method": "rhf"
			}
		],
		"cosmo_sigma_profile": { 
			"-0.025": 0.0,
			"-0.024": 0.0,
			"-0.023": 0.0,
			"-0.022": 0.0,
			"-0.021": 0.0,
			"-0.02": 0.0,
			"-0.019": 0.0,
			"-0.018": 0.0,
			"-0.017": 0.0,
			"-0.016": 0.0,
			"-0.015": 0.0,
			"-0.014": 0.0,
			"-0.013": 0.0,
			"-0.012": 0.365990634006,
			"-0.011": 0.55705813649,
			"-0.01": 1.45152901885,
			"-0.009": 1.03432874719,
			"-0.008": 1.48694076713,
			"-0.007": 1.43637952077,
			"-0.006": 8.68400982944,
			"-0.005": 27.4990410696,
			"-0.004": 28.7734082301,
			"-0.003": 22.8852975422,
			"-0.002": 18.5535694314,
			"-0.001": 16.3183380082,
			"0.0": 14.3566620152,
			"0.001": 12.826241141,
			"0.002": 10.7703430321,
			"0.003": 10.4095040153,
			"0.004": 11.5968544847,
			"0.005": 11.2992321093,
			"0.006": 10.8618401797,
			"0.007": 3.48672378704,
			"0.008": 2.6075721418,
			"0.009": 2.18630379015,
			"0.01": 1.94008526532,
			"0.011": 2.81483550288,
			"0.012": 2.52977783561,
			"0.013": 2.32294253931,
			"0.014": 3.56364439093,
			"0.015": 1.37337430925,
			"0.016": 0.0,
			"0.017": 0.0,
			"0.018": 0.0,
			"0.019": 0.0,
			"0.02": 0.0,
			"0.021": 0.0,
			"0.022": 0.0,
			"0.023": 0.0,
			"0.024": 0.0,
			"0.025": 0.0
		}
	}
}
