{
	 "smiles": "CN(C)C(=O)C1=CC=C(O)C=C1", 
	 "Tm": 430.15, 
	 "num_atms": 23, 
	 "gaussian": { 
		 "optdone": 1, 
		 "sigma_profile": "yes", 
		 "theory": "DFT", 
		 "functional": "B3LYP", 
		 "basiset": "6-31G**", 
		 "properties": { 
			 "R2extent": 2547.1728, 
			 "electric_dipole_moment_norm": 2.75754487543, 
			 "electric_quadrupole_moment_norm": 15.560759334, 
			 "total_energy": -554.791567568, 
			 "HOMO_LUMO_gap": 0.20467, 
			 "cosmo_polarized_energy": -14.61, 
			 "cosmo_cavitation_energy": 26.44, 
			 "cosmo_dispersion_energy": -19.32, 
			 "cosmo_repulsion_energy": 1.54, 
			 "cosmo_total_nonelectrostatic_energy": 8.66, 
			 "SMD_solvation_energy": 5.46 
		},
		"coords": [
			{
				"x": 1.7117947404,
				"y": 2.4952078947,
				"z": 0.0652981666,
				"element": "C" 
			},
			{
				"x": 1.1519800225,
				"y": 1.8085707244,
				"z": 1.2216222254,
				"element": "N" 
			},
			{
				"x": 1.3507053682,
				"y": 2.4931857745,
				"z": 2.4923526873,
				"element": "C" 
			},
			{
				"x": 0.1618639536,
				"y": 0.8465019473,
				"z": 1.1636598367,
				"element": "C" 
			},
			{
				"x": -0.5775910611,
				"y": 0.6274875061,
				"z": 2.1225962967,
				"element": "O" 
			},
			{
				"x": 0.0330146978,
				"y": 0.0191692815,
				"z": -0.0834293231,
				"element": "C" 
			},
			{
				"x": 1.1295981074,
				"y": -0.4703925022,
				"z": -0.8108824265,
				"element": "C" 
			},
			{
				"x": 0.9494878042,
				"y": -1.3196785003,
				"z": -1.8978830385,
				"element": "C" 
			},
			{
				"x": -0.3445341973,
				"y": -1.6910607137,
				"z": -2.2811285687,
				"element": "C" 
			},
			{
				"x": -0.4678670503,
				"y": -2.515010913,
				"z": -3.3605170995,
				"element": "O" 
			},
			{
				"x": -1.4479739218,
				"y": -1.223834939,
				"z": -1.555627078,
				"element": "C" 
			},
			{
				"x": -1.2532684109,
				"y": -0.3905299793,
				"z": -0.4592447103,
				"element": "C" 
			},
			{
				"x": 2.8083519724,
				"y": 2.4458743194,
				"z": 0.0665925491,
				"element": "H" 
			},
			{
				"x": 1.4237200621,
				"y": 3.5556202953,
				"z": 0.0821880482,
				"element": "H" 
			},
			{
				"x": 1.342918921,
				"y": 2.0593458611,
				"z": -0.8608555882,
				"element": "H" 
			},
			{
				"x": 0.8011508868,
				"y": 3.4445579313,
				"z": 2.5286894526,
				"element": "H" 
			},
			{
				"x": 0.9907535756,
				"y": 1.8567818881,
				"z": 3.2987577131,
				"element": "H" 
			},
			{
				"x": 2.4168805793,
				"y": 2.7054568019,
				"z": 2.6286162568,
				"element": "H" 
			},
			{
				"x": 2.1388150455,
				"y": -0.2077285175,
				"z": -0.5088669772,
				"element": "H" 
			},
			{
				"x": 1.7942856814,
				"y": -1.711670707,
				"z": -2.4543469957,
				"element": "H" 
			},
			{
				"x": -1.4029357285,
				"y": -2.7089816778,
				"z": -3.5072375428,
				"element": "H" 
			},
			{
				"x": -2.4539956346,
				"y": -1.5224041872,
				"z": -1.8435968379,
				"element": "H" 
			},
			{
				"x": -2.0989554136,
				"y": -0.0521675887,
				"z": 0.130042954,
				"element": "H" 
			}
		],
		 "valence_orbital": [ 
			{
				"type": "occ",
				"energy": -0.33066,
				"method": "rhf"
			},
			{
				"type": "occ",
				"energy": -0.25868,
				"method": "rhf"
			},
			{
				"type": "occ",
				"energy": -0.24948,
				"method": "rhf"
			},
			{
				"type": "occ",
				"energy": -0.23188,
				"method": "rhf"
			},
			{
				"type": "occ",
				"energy": -0.22241,
				"method": "rhf"
			},
			{
				"type": "unocc",
				"energy": -0.01774,
				"method": "rhf"
			},
			{
				"type": "unocc",
				"energy": -0.00772,
				"method": "rhf"
			},
			{
				"type": "unocc",
				"energy": 0.05993,
				"method": "rhf"
			},
			{
				"type": "unocc",
				"energy": 0.06618,
				"method": "rhf"
			},
			{
				"type": "unocc",
				"energy": 0.08886,
				"method": "rhf"
			}
		],
		"cosmo_sigma_profile": { 
			"-0.025": 0.0,
			"-0.024": 0.0,
			"-0.023": 0.0,
			"-0.022": 0.0,
			"-0.021": 0.0,
			"-0.02": 0.0,
			"-0.019": 0.0,
			"-0.018": 0.775573860156,
			"-0.017": 0.992623588286,
			"-0.016": 1.00814671914,
			"-0.015": 1.07343605703,
			"-0.014": 1.76208363713,
			"-0.013": 0.805103510695,
			"-0.012": 0.676853110153,
			"-0.011": 0.62203495634,
			"-0.01": 0.905602354974,
			"-0.009": 1.60528998109,
			"-0.008": 1.1154242768,
			"-0.007": 1.89963848825,
			"-0.006": 6.21922327266,
			"-0.005": 10.8420822131,
			"-0.004": 23.2853101782,
			"-0.003": 21.0583176958,
			"-0.002": 22.860737275,
			"-0.001": 17.7111551635,
			"0.0": 10.7161790613,
			"0.001": 10.4271883275,
			"0.002": 9.21801908176,
			"0.003": 13.0306892395,
			"0.004": 13.0474673186,
			"0.005": 7.89096110172,
			"0.006": 3.4462855963,
			"0.007": 2.69519282827,
			"0.008": 3.17972599082,
			"0.009": 2.69051932086,
			"0.01": 3.140803979,
			"0.011": 3.67935303284,
			"0.012": 2.00510200937,
			"0.013": 2.44720266945,
			"0.014": 5.09110671569,
			"0.015": 1.40442613196,
			"0.016": 0.00500456573977,
			"0.017": 0.0,
			"0.018": 0.0,
			"0.019": 0.0,
			"0.02": 0.0,
			"0.021": 0.0,
			"0.022": 0.0,
			"0.023": 0.0,
			"0.024": 0.0,
			"0.025": 0.0
		}
	}
}
