{
	 "smiles": "OC1=CC=C(CC=C)C=C1", 
	 "Tm": 288.95, 
	 "num_atms": 20, 
	 "gaussian": { 
		 "optdone": 1, 
		 "sigma_profile": "yes", 
		 "theory": "DFT", 
		 "functional": "B3LYP", 
		 "basiset": "6-31G**", 
		 "properties": { 
			 "R2extent": 1919.3128, 
			 "electric_dipole_moment_norm": 1.17767197895, 
			 "electric_quadrupole_moment_norm": 7.37206023036, 
			 "total_energy": -424.183912038, 
			 "HOMO_LUMO_gap": 0.21148, 
			 "cosmo_polarized_energy": -8.17, 
			 "cosmo_cavitation_energy": 23.94, 
			 "cosmo_dispersion_energy": -17.27, 
			 "cosmo_repulsion_energy": 1.41, 
			 "cosmo_total_nonelectrostatic_energy": 8.08, 
			 "SMD_solvation_energy": 4.92 
		},
		"coords": [
			{
				"x": 2.2813184271,
				"y": 0.4403358031,
				"z": -2.702959548,
				"element": "O" 
			},
			{
				"x": 1.5568162495,
				"y": 0.416290315,
				"z": -1.542901716,
				"element": "C" 
			},
			{
				"x": 0.3278362304,
				"y": -0.2430912595,
				"z": -1.4309545194,
				"element": "C" 
			},
			{
				"x": -0.3604019157,
				"y": -0.2318974251,
				"z": -0.218730393,
				"element": "C" 
			},
			{
				"x": 0.1515316699,
				"y": 0.433252232,
				"z": 0.9023592464,
				"element": "C" 
			},
			{
				"x": -0.6183517763,
				"y": 0.4597452412,
				"z": 2.2145572711,
				"element": "C" 
			},
			{
				"x": -1.0405795201,
				"y": -0.9067842832,
				"z": 2.6920440607,
				"element": "C" 
			},
			{
				"x": -2.299656279,
				"y": -1.2801942881,
				"z": 2.9238253716,
				"element": "C" 
			},
			{
				"x": 1.3854928153,
				"y": 1.0835405739,
				"z": 0.7698153987,
				"element": "C" 
			},
			{
				"x": 2.0867693343,
				"y": 1.0822114088,
				"z": -0.4339128993,
				"element": "C" 
			},
			{
				"x": 1.8044665183,
				"y": -0.0544240327,
				"z": -3.3816917289,
				"element": "H" 
			},
			{
				"x": -0.0887157371,
				"y": -0.7664507675,
				"z": -2.2897456764,
				"element": "H" 
			},
			{
				"x": -1.3094916708,
				"y": -0.7554012533,
				"z": -0.1405694356,
				"element": "H" 
			},
			{
				"x": -1.5088532075,
				"y": 1.095422488,
				"z": 2.1180114217,
				"element": "H" 
			},
			{
				"x": 0.014407134,
				"y": 0.9310647104,
				"z": 2.9787337869,
				"element": "H" 
			},
			{
				"x": -0.2334148838,
				"y": -1.6243734784,
				"z": 2.841231089,
				"element": "H" 
			},
			{
				"x": -2.5451080091,
				"y": -2.2798892247,
				"z": 3.2701736859,
				"element": "H" 
			},
			{
				"x": -3.1325793193,
				"y": -0.5950719107,
				"z": 2.7813223214,
				"element": "H" 
			},
			{
				"x": 1.808333103,
				"y": 1.6047731724,
				"z": 1.6255111417,
				"element": "H" 
			},
			{
				"x": 3.0424808367,
				"y": 1.5868419785,
				"z": -0.5311188783,
				"element": "H" 
			}
		],
		 "valence_orbital": [ 
			{
				"type": "occ",
				"energy": -0.3306,
				"method": "rhf"
			},
			{
				"type": "occ",
				"energy": -0.32053,
				"method": "rhf"
			},
			{
				"type": "occ",
				"energy": -0.25687,
				"method": "rhf"
			},
			{
				"type": "occ",
				"energy": -0.24785,
				"method": "rhf"
			},
			{
				"type": "occ",
				"energy": -0.21303,
				"method": "rhf"
			},
			{
				"type": "unocc",
				"energy": -0.00155,
				"method": "rhf"
			},
			{
				"type": "unocc",
				"energy": 0.01175,
				"method": "rhf"
			},
			{
				"type": "unocc",
				"energy": 0.02906,
				"method": "rhf"
			},
			{
				"type": "unocc",
				"energy": 0.07264,
				"method": "rhf"
			},
			{
				"type": "unocc",
				"energy": 0.10242,
				"method": "rhf"
			}
		],
		"cosmo_sigma_profile": { 
			"-0.025": 0.0,
			"-0.024": 0.0,
			"-0.023": 0.0,
			"-0.022": 0.0,
			"-0.021": 0.0,
			"-0.02": 0.0,
			"-0.019": 0.0,
			"-0.018": 0.265408686639,
			"-0.017": 1.08174427115,
			"-0.016": 0.9641870987,
			"-0.015": 1.43822630906,
			"-0.014": 0.353303298885,
			"-0.013": 0.809093945818,
			"-0.012": 0.521192188208,
			"-0.011": 1.03336830466,
			"-0.01": 1.3901499869,
			"-0.009": 1.4982577139,
			"-0.008": 1.20216015233,
			"-0.007": 1.23833664701,
			"-0.006": 2.75777609036,
			"-0.005": 9.70525324432,
			"-0.004": 17.7192682587,
			"-0.003": 17.3414569843,
			"-0.002": 14.6672036994,
			"-0.001": 14.7787831215,
			"0.0": 13.8758703718,
			"0.001": 12.5602513025,
			"0.002": 11.4279154885,
			"0.003": 12.6865638871,
			"0.004": 13.8559711278,
			"0.005": 13.461421657,
			"0.006": 11.9575370858,
			"0.007": 3.37470412709,
			"0.008": 1.6144687543,
			"0.009": 1.39973377902,
			"0.01": 1.71836677744,
			"0.011": 1.77443785688,
			"0.012": 1.27326821794,
			"0.013": 0.0,
			"0.014": 0.0,
			"0.015": 0.0,
			"0.016": 0.0,
			"0.017": 0.0,
			"0.018": 0.0,
			"0.019": 0.0,
			"0.02": 0.0,
			"0.021": 0.0,
			"0.022": 0.0,
			"0.023": 0.0,
			"0.024": 0.0,
			"0.025": 0.0
		}
	}
}
