{
	 "smiles": "ClC(=O)C1=C2OCCOC2=CS1", 
	 "Tm": 348.65, 
	 "num_atms": 17, 
	 "gaussian": { 
		 "optdone": 1, 
		 "sigma_profile": "yes", 
		 "theory": "DFT", 
		 "functional": "B3LYP", 
		 "basiset": "6-31G**", 
		 "properties": { 
			 "R2extent": 2656.2108, 
			 "electric_dipole_moment_norm": 6.13819829999, 
			 "electric_quadrupole_moment_norm": 11.2688259317, 
			 "total_energy": -1353.76963785, 
			 "HOMO_LUMO_gap": 0.16471, 
			 "cosmo_polarized_energy": -11.6, 
			 "cosmo_cavitation_energy": 24.58, 
			 "cosmo_dispersion_energy": -19.3, 
			 "cosmo_repulsion_energy": 1.5, 
			 "cosmo_total_nonelectrostatic_energy": 6.78, 
			 "SMD_solvation_energy": 5.27 
		},
		"coords": [
			{
				"x": -2.2964035233,
				"y": -1.6558852626,
				"z": 1.8409461014,
				"element": "Cl" 
			},
			{
				"x": -2.5758744251,
				"y": -0.6914500083,
				"z": 0.3243327048,
				"element": "C" 
			},
			{
				"x": -3.6890664841,
				"y": -0.596775341,
				"z": -0.1165995317,
				"element": "O" 
			},
			{
				"x": -1.3912802588,
				"y": -0.0904341642,
				"z": -0.2518079729,
				"element": "C" 
			},
			{
				"x": -0.0428048184,
				"y": -0.1048033341,
				"z": 0.0853173367,
				"element": "C" 
			},
			{
				"x": 0.4961550972,
				"y": -0.7466057888,
				"z": 1.1434183366,
				"element": "O" 
			},
			{
				"x": 1.931242816,
				"y": -0.84845982,
				"z": 1.0938346638,
				"element": "C" 
			},
			{
				"x": 2.5523437096,
				"y": 0.4617662856,
				"z": 0.6404288531,
				"element": "C" 
			},
			{
				"x": 2.1091471213,
				"y": 0.7924761735,
				"z": -0.6819502104,
				"element": "O" 
			},
			{
				"x": 0.7570866115,
				"y": 0.6619484437,
				"z": -0.822923709,
				"element": "C" 
			},
			{
				"x": 0.0268322551,
				"y": 1.2323616112,
				"z": -1.8298789627,
				"element": "C" 
			},
			{
				"x": -1.6532325455,
				"y": 0.8610436948,
				"z": -1.7083952746,
				"element": "S" 
			},
			{
				"x": 2.2454236649,
				"y": -1.1077095695,
				"z": 2.1067718563,
				"element": "H" 
			},
			{
				"x": 2.2102415108,
				"y": -1.6591957547,
				"z": 0.409843097,
				"element": "H" 
			},
			{
				"x": 3.6401516611,
				"y": 0.3790496411,
				"z": 0.5888805523,
				"element": "H" 
			},
			{
				"x": 2.2856625178,
				"y": 1.2690689285,
				"z": 1.335435161,
				"element": "H" 
			},
			{
				"x": 0.4051750898,
				"y": 1.8557042646,
				"z": -2.6273530018,
				"element": "H" 
			}
		],
		 "valence_orbital": [ 
			{
				"type": "occ",
				"energy": -0.30903,
				"method": "rhf"
			},
			{
				"type": "occ",
				"energy": -0.30484,
				"method": "rhf"
			},
			{
				"type": "occ",
				"energy": -0.28466,
				"method": "rhf"
			},
			{
				"type": "occ",
				"energy": -0.24763,
				"method": "rhf"
			},
			{
				"type": "occ",
				"energy": -0.23709,
				"method": "rhf"
			},
			{
				"type": "unocc",
				"energy": -0.07238,
				"method": "rhf"
			},
			{
				"type": "unocc",
				"energy": 0.00597,
				"method": "rhf"
			},
			{
				"type": "unocc",
				"energy": 0.02197,
				"method": "rhf"
			},
			{
				"type": "unocc",
				"energy": 0.03062,
				"method": "rhf"
			},
			{
				"type": "unocc",
				"energy": 0.05122,
				"method": "rhf"
			}
		],
		"cosmo_sigma_profile": { 
			"-0.025": 0.0,
			"-0.024": 0.0,
			"-0.023": 0.0,
			"-0.022": 0.0,
			"-0.021": 0.0,
			"-0.02": 0.0,
			"-0.019": 0.0,
			"-0.018": 0.0,
			"-0.017": 0.0,
			"-0.016": 0.0,
			"-0.015": 0.0,
			"-0.014": 0.0,
			"-0.013": 0.0,
			"-0.012": 0.0,
			"-0.011": 0.152079474377,
			"-0.01": 2.06022980446,
			"-0.009": 2.26468753718,
			"-0.008": 8.25032502806,
			"-0.007": 15.157564897,
			"-0.006": 12.0009159456,
			"-0.005": 9.80188745832,
			"-0.004": 7.10001019011,
			"-0.003": 7.01815439363,
			"-0.002": 10.1882146398,
			"-0.001": 13.4977378008,
			"0.0": 15.8128649544,
			"0.001": 16.0682901929,
			"0.002": 17.4101956122,
			"0.003": 13.0734552358,
			"0.004": 12.9484621542,
			"0.005": 10.0723862557,
			"0.006": 5.98037025283,
			"0.007": 6.25272924675,
			"0.008": 5.53739741867,
			"0.009": 7.46246061185,
			"0.01": 3.25545856149,
			"0.011": 0.325214785016,
			"0.012": 0.0,
			"0.013": 0.0,
			"0.014": 0.0,
			"0.015": 0.0,
			"0.016": 0.0,
			"0.017": 0.0,
			"0.018": 0.0,
			"0.019": 0.0,
			"0.02": 0.0,
			"0.021": 0.0,
			"0.022": 0.0,
			"0.023": 0.0,
			"0.024": 0.0,
			"0.025": 0.0
		}
	}
}
