{
	 "smiles": "BrC1=C(Br)C(Br)=C(Br)C2=C1C(=O)OS2(=O)=O", 
	 "Tm": 491.15, 
	 "num_atms": 16, 
	 "gaussian": { 
		 "optdone": 1, 
		 "sigma_profile": "yes", 
		 "theory": "DFT", 
		 "functional": "B3LYP", 
		 "basiset": "6-31G**", 
		 "properties": { 
			 "R2extent": 10170.6446, 
			 "electric_dipole_moment_norm": 5.1173289224, 
			 "electric_quadrupole_moment_norm": 4.82679830012, 
			 "total_energy": -11251.333434, 
			 "HOMO_LUMO_gap": 0.16956, 
			 "cosmo_polarized_energy": -11.07, 
			 "cosmo_cavitation_energy": 31.66, 
			 "cosmo_dispersion_energy": -25.28, 
			 "cosmo_repulsion_energy": 1.88, 
			 "cosmo_total_nonelectrostatic_energy": 8.25, 
			 "SMD_solvation_energy": 1.27 
		},
		"coords": [
			{
				"x": 2.4350238401,
				"y": -3.361080686,
				"z": 1.4797076644,
				"element": "Br" 
			},
			{
				"x": 1.8054810654,
				"y": -1.7573517246,
				"z": 0.7178120919,
				"element": "C" 
			},
			{
				"x": 2.5997798654,
				"y": -1.0189170133,
				"z": -0.1838347967,
				"element": "C" 
			},
			{
				"x": 4.322617828,
				"y": -1.6465750979,
				"z": -0.636060077,
				"element": "Br" 
			},
			{
				"x": 2.122221768,
				"y": 0.1832267581,
				"z": -0.7517896565,
				"element": "C" 
			},
			{
				"x": 3.1892550513,
				"y": 1.1658195164,
				"z": -1.9570088105,
				"element": "Br" 
			},
			{
				"x": 0.8402777221,
				"y": 0.6626652254,
				"z": -0.4235245018,
				"element": "C" 
			},
			{
				"x": 0.1312532512,
				"y": 2.2567949003,
				"z": -1.1383418174,
				"element": "Br" 
			},
			{
				"x": 0.0843189295,
				"y": -0.0850859662,
				"z": 0.4649046366,
				"element": "C" 
			},
			{
				"x": 0.5322530791,
				"y": -1.2716086537,
				"z": 1.0374312433,
				"element": "C" 
			},
			{
				"x": -0.476777129,
				"y": -1.8766830653,
				"z": 1.9585890159,
				"element": "C" 
			},
			{
				"x": -0.4084593403,
				"y": -2.8834551871,
				"z": 2.6006896943,
				"element": "O" 
			},
			{
				"x": -1.6216068297,
				"y": -1.0858381041,
				"z": 2.0060629818,
				"element": "O" 
			},
			{
				"x": -1.5679506468,
				"y": 0.3001942905,
				"z": 1.0445759197,
				"element": "S" 
			},
			{
				"x": -2.5512603446,
				"y": 0.1389409809,
				"z": -0.0102019096,
				"element": "O" 
			},
			{
				"x": -1.5645281098,
				"y": 1.4480538269,
				"z": 1.9321883217,
				"element": "O" 
			}
		],
		 "valence_orbital": [ 
			{
				"type": "occ",
				"energy": -0.32415,
				"method": "rhf"
			},
			{
				"type": "occ",
				"energy": -0.312,
				"method": "rhf"
			},
			{
				"type": "occ",
				"energy": -0.29342,
				"method": "rhf"
			},
			{
				"type": "occ",
				"energy": -0.29,
				"method": "rhf"
			},
			{
				"type": "occ",
				"energy": -0.28317,
				"method": "rhf"
			},
			{
				"type": "unocc",
				"energy": -0.11361,
				"method": "rhf"
			},
			{
				"type": "unocc",
				"energy": -0.09025,
				"method": "rhf"
			},
			{
				"type": "unocc",
				"energy": -0.08486,
				"method": "rhf"
			},
			{
				"type": "unocc",
				"energy": -0.03466,
				"method": "rhf"
			},
			{
				"type": "unocc",
				"energy": -0.00988,
				"method": "rhf"
			}
		],
		"cosmo_sigma_profile": { 
			"-0.025": 0.0,
			"-0.024": 0.0,
			"-0.023": 0.0,
			"-0.022": 0.0,
			"-0.021": 0.0,
			"-0.02": 0.0,
			"-0.019": 0.0,
			"-0.018": 0.0,
			"-0.017": 0.0,
			"-0.016": 0.0,
			"-0.015": 0.0,
			"-0.014": 0.0,
			"-0.013": 0.0,
			"-0.012": 0.393637713718,
			"-0.011": 0.881303909843,
			"-0.01": 1.48581032742,
			"-0.009": 1.42352967226,
			"-0.008": 3.71069187095,
			"-0.007": 10.1855622385,
			"-0.006": 12.2326576753,
			"-0.005": 19.6100862032,
			"-0.004": 19.2515647072,
			"-0.003": 14.9168272481,
			"-0.002": 16.9450918322,
			"-0.001": 16.4166496945,
			"0.0": 20.0652754303,
			"0.001": 29.9714051308,
			"0.002": 35.6995016728,
			"0.003": 13.3506151527,
			"0.004": 7.29564809547,
			"0.005": 6.7480444748,
			"0.006": 6.81144861768,
			"0.007": 14.6653172354,
			"0.008": 14.1367188337,
			"0.009": 3.27587542691,
			"0.01": 0.138479805245,
			"0.011": 0.0,
			"0.012": 0.0,
			"0.013": 0.0,
			"0.014": 0.0,
			"0.015": 0.0,
			"0.016": 0.0,
			"0.017": 0.0,
			"0.018": 0.0,
			"0.019": 0.0,
			"0.02": 0.0,
			"0.021": 0.0,
			"0.022": 0.0,
			"0.023": 0.0,
			"0.024": 0.0,
			"0.025": 0.0
		}
	}
}
