{
	 "smiles": "O=C(N(CC#N)C1CC1)C1=CC=CC=C1", 
	 "Tm": 377.15, 
	 "num_atms": 27, 
	 "gaussian": { 
		 "optdone": 1, 
		 "sigma_profile": "yes", 
		 "theory": "DFT", 
		 "functional": "B3LYP", 
		 "basiset": "6-31G**", 
		 "properties": { 
			 "R2extent": 3589.0061, 
			 "electric_dipole_moment_norm": 4.82938172958, 
			 "electric_quadrupole_moment_norm": 16.7831221377, 
			 "total_energy": -649.18660053, 
			 "HOMO_LUMO_gap": 0.21109, 
			 "cosmo_polarized_energy": -14.27, 
			 "cosmo_cavitation_energy": 31.42, 
			 "cosmo_dispersion_energy": -21.19, 
			 "cosmo_repulsion_energy": 1.67, 
			 "cosmo_total_nonelectrostatic_energy": 11.9, 
			 "SMD_solvation_energy": 6.82 
		},
		"coords": [
			{
				"x": -0.0135699285,
				"y": 0.3488780868,
				"z": 2.8863640932,
				"element": "O" 
			},
			{
				"x": -0.1258658798,
				"y": -0.0501713903,
				"z": 1.7304944354,
				"element": "C" 
			},
			{
				"x": 0.2471143212,
				"y": 0.7548847161,
				"z": 0.658520993,
				"element": "N" 
			},
			{
				"x": 1.0063724617,
				"y": 1.9608260432,
				"z": 0.9778275491,
				"element": "C" 
			},
			{
				"x": 2.3624245063,
				"y": 1.9239384575,
				"z": 0.4026620835,
				"element": "C" 
			},
			{
				"x": 3.4223645427,
				"y": 1.8896679047,
				"z": -0.0687617291,
				"element": "N" 
			},
			{
				"x": -0.0505125757,
				"y": 0.5272856742,
				"z": -0.7353557381,
				"element": "C" 
			},
			{
				"x": -0.8975675138,
				"y": 1.5484327786,
				"z": -1.4682170184,
				"element": "C" 
			},
			{
				"x": -1.4470994617,
				"y": 0.179341679,
				"z": -1.1746758359,
				"element": "C" 
			},
			{
				"x": -0.6613958631,
				"y": -1.4261923476,
				"z": 1.4608829336,
				"element": "C" 
			},
			{
				"x": -0.0963984862,
				"y": -2.2967081211,
				"z": 0.5191384355,
				"element": "C" 
			},
			{
				"x": -0.5733563612,
				"y": -3.6018522237,
				"z": 0.3959133423,
				"element": "C" 
			},
			{
				"x": -1.6253236831,
				"y": -4.0431394727,
				"z": 1.2008880343,
				"element": "C" 
			},
			{
				"x": -2.1851277954,
				"y": -3.1827983621,
				"z": 2.1488331025,
				"element": "C" 
			},
			{
				"x": -1.693973103,
				"y": -1.8868658423,
				"z": 2.2902631138,
				"element": "C" 
			},
			{
				"x": 0.496706956,
				"y": 2.8545554087,
				"z": 0.6001997454,
				"element": "H" 
			},
			{
				"x": 1.0644785469,
				"y": 2.0300876532,
				"z": 2.0669955266,
				"element": "H" 
			},
			{
				"x": 0.7686258148,
				"y": 0.0977923544,
				"z": -1.3104088632,
				"element": "H" 
			},
			{
				"x": -0.6122590005,
				"y": 1.8016063319,
				"z": -2.4842247178,
				"element": "H" 
			},
			{
				"x": -1.3011730204,
				"y": 2.3756592904,
				"z": -0.892118262,
				"element": "H" 
			},
			{
				"x": -1.550236606,
				"y": -0.5373599706,
				"z": -1.9830135698,
				"element": "H" 
			},
			{
				"x": -2.2084691059,
				"y": 0.097946341,
				"z": -0.4071337158,
				"element": "H" 
			},
			{
				"x": 0.7312261964,
				"y": -1.9673373997,
				"z": -0.099896357,
				"element": "H" 
			},
			{
				"x": -0.1201426336,
				"y": -4.2748008089,
				"z": -0.326079947,
				"element": "H" 
			},
			{
				"x": -2.0007332549,
				"y": -5.0570998598,
				"z": 1.0969612861,
				"element": "H" 
			},
			{
				"x": -2.9952488195,
				"y": -3.5262081709,
				"z": 2.7854184208,
				"element": "H" 
			},
			{
				"x": -2.0935602539,
				"y": -1.2189687501,
				"z": 3.0461226593,
				"element": "H" 
			}
		],
		 "valence_orbital": [ 
			{
				"type": "occ",
				"energy": -0.32109,
				"method": "rhf"
			},
			{
				"type": "occ",
				"energy": -0.27392,
				"method": "rhf"
			},
			{
				"type": "occ",
				"energy": -0.26262,
				"method": "rhf"
			},
			{
				"type": "occ",
				"energy": -0.26029,
				"method": "rhf"
			},
			{
				"type": "occ",
				"energy": -0.25235,
				"method": "rhf"
			},
			{
				"type": "unocc",
				"energy": -0.04126,
				"method": "rhf"
			},
			{
				"type": "unocc",
				"energy": -0.01309,
				"method": "rhf"
			},
			{
				"type": "unocc",
				"energy": 0.02179,
				"method": "rhf"
			},
			{
				"type": "unocc",
				"energy": 0.03447,
				"method": "rhf"
			},
			{
				"type": "unocc",
				"energy": 0.04057,
				"method": "rhf"
			}
		],
		"cosmo_sigma_profile": { 
			"-0.025": 0.0,
			"-0.024": 0.0,
			"-0.023": 0.0,
			"-0.022": 0.0,
			"-0.021": 0.0,
			"-0.02": 0.0,
			"-0.019": 0.0,
			"-0.018": 0.0,
			"-0.017": 0.0,
			"-0.016": 0.0,
			"-0.015": 0.0,
			"-0.014": 0.0,
			"-0.013": 0.0,
			"-0.012": 0.0,
			"-0.011": 0.0,
			"-0.01": 0.0113452925246,
			"-0.009": 2.06156242453,
			"-0.008": 5.04984019423,
			"-0.007": 6.97429279625,
			"-0.006": 17.9239066491,
			"-0.005": 26.1087273684,
			"-0.004": 23.0487974645,
			"-0.003": 20.826284008,
			"-0.002": 16.4540042296,
			"-0.001": 16.3595065315,
			"0.0": 15.4428778096,
			"0.001": 12.9440558403,
			"0.002": 11.0082205362,
			"0.003": 14.8698855051,
			"0.004": 15.3366326593,
			"0.005": 9.03751019373,
			"0.006": 3.985219299,
			"0.007": 4.44313843387,
			"0.008": 4.58814588817,
			"0.009": 4.95559857333,
			"0.01": 4.62963666461,
			"0.011": 4.55398972497,
			"0.012": 5.52745242343,
			"0.013": 4.29047024239,
			"0.014": 0.619831213439,
			"0.015": 0.0,
			"0.016": 0.0,
			"0.017": 0.0,
			"0.018": 0.0,
			"0.019": 0.0,
			"0.02": 0.0,
			"0.021": 0.0,
			"0.022": 0.0,
			"0.023": 0.0,
			"0.024": 0.0,
			"0.025": 0.0
		}
	}
}
