{
	 "smiles": "CCCCOC(Cl)=O", 
	 "Tm": 203.15, 
	 "num_atms": 17, 
	 "gaussian": { 
		 "optdone": 1, 
		 "sigma_profile": "yes", 
		 "theory": "DFT", 
		 "functional": "B3LYP", 
		 "basiset": "6-31G**", 
		 "properties": { 
			 "R2extent": 2004.1618, 
			 "electric_dipole_moment_norm": 3.28812932532, 
			 "electric_quadrupole_moment_norm": 4.44151117526, 
			 "total_energy": -806.612125332, 
			 "HOMO_LUMO_gap": 0.29633, 
			 "cosmo_polarized_energy": -5.19, 
			 "cosmo_cavitation_energy": 22.43, 
			 "cosmo_dispersion_energy": -16.34, 
			 "cosmo_repulsion_energy": 1.41, 
			 "cosmo_total_nonelectrostatic_energy": 7.51, 
			 "SMD_solvation_energy": 4.96 
		},
		"coords": [
			{
				"x": -2.0750488436,
				"y": -1.6474785772,
				"z": -0.7934270466,
				"element": "C" 
			},
			{
				"x": -1.4739478451,
				"y": -1.7756246003,
				"z": 0.6121516927,
				"element": "C" 
			},
			{
				"x": -0.1142713855,
				"y": -1.0777960475,
				"z": 0.7922032254,
				"element": "C" 
			},
			{
				"x": -0.2038278106,
				"y": 0.4385182424,
				"z": 0.667861485,
				"element": "C" 
			},
			{
				"x": 1.0727956902,
				"y": 1.0676836407,
				"z": 1.0049905966,
				"element": "O" 
			},
			{
				"x": 1.9521857125,
				"y": 1.1491663992,
				"z": 0.0151203527,
				"element": "C" 
			},
			{
				"x": 3.4319703134,
				"y": 1.9276128553,
				"z": 0.6366640824,
				"element": "Cl" 
			},
			{
				"x": 1.8371678724,
				"y": 0.7896892142,
				"z": -1.1199633007,
				"element": "O" 
			},
			{
				"x": -1.3809931223,
				"y": -2.020568604,
				"z": -1.5546383246,
				"element": "H" 
			},
			{
				"x": -2.317176138,
				"y": -0.6101787148,
				"z": -1.0477228806,
				"element": "H" 
			},
			{
				"x": -3.0008991717,
				"y": -2.2255363747,
				"z": -0.8746193489,
				"element": "H" 
			},
			{
				"x": -1.341332859,
				"y": -2.8375729559,
				"z": 0.8496877009,
				"element": "H" 
			},
			{
				"x": -2.1837799571,
				"y": -1.3876424607,
				"z": 1.3554560497,
				"element": "H" 
			},
			{
				"x": 0.2934373303,
				"y": -1.3162180157,
				"z": 1.7813729594,
				"element": "H" 
			},
			{
				"x": 0.5974908617,
				"y": -1.4531539481,
				"z": 0.0477550802,
				"element": "H" 
			},
			{
				"x": -0.4885561127,
				"y": 0.7569811979,
				"z": -0.336454529,
				"element": "H" 
			},
			{
				"x": -0.8990145348,
				"y": 0.8607187492,
				"z": 1.3971622053,
				"element": "H" 
			}
		],
		 "valence_orbital": [ 
			{
				"type": "occ",
				"energy": -0.34531,
				"method": "rhf"
			},
			{
				"type": "occ",
				"energy": -0.33486,
				"method": "rhf"
			},
			{
				"type": "occ",
				"energy": -0.32593,
				"method": "rhf"
			},
			{
				"type": "occ",
				"energy": -0.3189,
				"method": "rhf"
			},
			{
				"type": "occ",
				"energy": -0.30063,
				"method": "rhf"
			},
			{
				"type": "unocc",
				"energy": -0.0043,
				"method": "rhf"
			},
			{
				"type": "unocc",
				"energy": 0.01542,
				"method": "rhf"
			},
			{
				"type": "unocc",
				"energy": 0.07243,
				"method": "rhf"
			},
			{
				"type": "unocc",
				"energy": 0.10554,
				"method": "rhf"
			},
			{
				"type": "unocc",
				"energy": 0.11218,
				"method": "rhf"
			}
		],
		"cosmo_sigma_profile": { 
			"-0.025": 0.0,
			"-0.024": 0.0,
			"-0.023": 0.0,
			"-0.022": 0.0,
			"-0.021": 0.0,
			"-0.02": 0.0,
			"-0.019": 0.0,
			"-0.018": 0.0,
			"-0.017": 0.0,
			"-0.016": 0.0,
			"-0.015": 0.0,
			"-0.014": 0.0,
			"-0.013": 0.0,
			"-0.012": 0.0,
			"-0.011": 0.0,
			"-0.01": 0.0,
			"-0.009": 0.0,
			"-0.008": 0.0,
			"-0.007": 1.12108477265,
			"-0.006": 5.12623483149,
			"-0.005": 8.52565608243,
			"-0.004": 12.2226237569,
			"-0.003": 20.5493554872,
			"-0.002": 21.7083406999,
			"-0.001": 22.8123197108,
			"0.0": 19.2569638285,
			"0.001": 15.4358251404,
			"0.002": 9.64659495027,
			"0.003": 12.4223255408,
			"0.004": 9.88860514996,
			"0.005": 3.78211208739,
			"0.006": 2.94169866711,
			"0.007": 3.53824246124,
			"0.008": 2.73615878775,
			"0.009": 4.28624061422,
			"0.01": 2.25501242535,
			"0.011": 0.034551838731,
			"0.012": 0.0,
			"0.013": 0.0,
			"0.014": 0.0,
			"0.015": 0.0,
			"0.016": 0.0,
			"0.017": 0.0,
			"0.018": 0.0,
			"0.019": 0.0,
			"0.02": 0.0,
			"0.021": 0.0,
			"0.022": 0.0,
			"0.023": 0.0,
			"0.024": 0.0,
			"0.025": 0.0
		}
	}
}
