{
	 "smiles": "NC1=CC=C(C=C1)C(=O)NCC1=CC=CC=C1", 
	 "Tm": 387.15, 
	 "num_atms": 31, 
	 "gaussian": { 
		 "optdone": 1, 
		 "sigma_profile": "yes", 
		 "theory": "DFT", 
		 "functional": "B3LYP", 
		 "basiset": "6-31G**", 
		 "properties": { 
			 "R2extent": 6506.7538, 
			 "electric_dipole_moment_norm": 4.88685409031, 
			 "electric_quadrupole_moment_norm": 16.1919036895, 
			 "total_energy": -726.681993351, 
			 "HOMO_LUMO_gap": 0.18854, 
			 "cosmo_polarized_energy": -18.15, 
			 "cosmo_cavitation_energy": 35.12, 
			 "cosmo_dispersion_energy": -25.4, 
			 "cosmo_repulsion_energy": 1.97, 
			 "cosmo_total_nonelectrostatic_energy": 11.7, 
			 "SMD_solvation_energy": 5.62 
		},
		"coords": [
			{
				"x": 5.093094779,
				"y": -2.4977293686,
				"z": 0.4817605918,
				"element": "N" 
			},
			{
				"x": 3.8722261138,
				"y": -1.871209826,
				"z": 0.6931014878,
				"element": "C" 
			},
			{
				"x": 2.6926229012,
				"y": -2.3772772527,
				"z": 0.1130175097,
				"element": "C" 
			},
			{
				"x": 1.4682653312,
				"y": -1.7790873296,
				"z": 0.3699630888,
				"element": "C" 
			},
			{
				"x": 1.3684067819,
				"y": -0.6507924629,
				"z": 1.1982687171,
				"element": "C" 
			},
			{
				"x": 2.5428840875,
				"y": -0.1581769563,
				"z": 1.7875953358,
				"element": "C" 
			},
			{
				"x": 3.7747300547,
				"y": -0.7527041758,
				"z": 1.5418538247,
				"element": "C" 
			},
			{
				"x": 0.0092278853,
				"y": -0.0674537265,
				"z": 1.4146053515,
				"element": "C" 
			},
			{
				"x": -1.0161888668,
				"y": -0.6998203786,
				"z": 1.1567661882,
				"element": "O" 
			},
			{
				"x": -0.0325623052,
				"y": 1.2085078018,
				"z": 1.9259405053,
				"element": "N" 
			},
			{
				"x": -1.2998403683,
				"y": 1.9098625471,
				"z": 2.1193216553,
				"element": "C" 
			},
			{
				"x": -1.6860730703,
				"y": 2.8127593262,
				"z": 0.961405475,
				"element": "C" 
			},
			{
				"x": -1.6646044013,
				"y": 4.2047525858,
				"z": 1.0985981275,
				"element": "C" 
			},
			{
				"x": -2.0098945079,
				"y": 5.033753607,
				"z": 0.0279135287,
				"element": "C" 
			},
			{
				"x": -2.3797020172,
				"y": 4.4741498652,
				"z": -1.1948810049,
				"element": "C" 
			},
			{
				"x": -2.4053035898,
				"y": 3.08376067,
				"z": -1.3410056519,
				"element": "C" 
			},
			{
				"x": -2.0624275453,
				"y": 2.2579507573,
				"z": -0.2717041145,
				"element": "C" 
			},
			{
				"x": 5.1602432368,
				"y": -3.0749179747,
				"z": -0.3440714364,
				"element": "H" 
			},
			{
				"x": 5.9173404995,
				"y": -1.9356615631,
				"z": 0.6375649519,
				"element": "H" 
			},
			{
				"x": 2.7476234928,
				"y": -3.2479119245,
				"z": -0.535995768,
				"element": "H" 
			},
			{
				"x": 0.5566525926,
				"y": -2.1720343382,
				"z": -0.0675330719,
				"element": "H" 
			},
			{
				"x": 2.503113615,
				"y": 0.6811633743,
				"z": 2.4764588174,
				"element": "H" 
			},
			{
				"x": 4.6703139427,
				"y": -0.364033374,
				"z": 2.020129868,
				"element": "H" 
			},
			{
				"x": 0.7988332178,
				"y": 1.7749199081,
				"z": 1.8457813007,
				"element": "H" 
			},
			{
				"x": -1.2354508137,
				"y": 2.4955248005,
				"z": 3.0431871765,
				"element": "H" 
			},
			{
				"x": -2.052254513,
				"y": 1.1309803943,
				"z": 2.261848214,
				"element": "H" 
			},
			{
				"x": -1.3802258463,
				"y": 4.6449946195,
				"z": 2.0520827091,
				"element": "H" 
			},
			{
				"x": -1.990212341,
				"y": 6.1131595275,
				"z": 0.1508402842,
				"element": "H" 
			},
			{
				"x": -2.6499728553,
				"y": 5.1155480353,
				"z": -2.0290574217,
				"element": "H" 
			},
			{
				"x": -2.6987864449,
				"y": 2.6430265771,
				"z": -2.2898523897,
				"element": "H" 
			},
			{
				"x": -2.0847790456,
				"y": 1.1769962545,
				"z": -0.3772038499,
				"element": "H" 
			}
		],
		 "valence_orbital": [ 
			{
				"type": "occ",
				"energy": -0.25355,
				"method": "rhf"
			},
			{
				"type": "occ",
				"energy": -0.24493,
				"method": "rhf"
			},
			{
				"type": "occ",
				"energy": -0.23783,
				"method": "rhf"
			},
			{
				"type": "occ",
				"energy": -0.23411,
				"method": "rhf"
			},
			{
				"type": "occ",
				"energy": -0.20863,
				"method": "rhf"
			},
			{
				"type": "unocc",
				"energy": -0.02009,
				"method": "rhf"
			},
			{
				"type": "unocc",
				"energy": -0.00263,
				"method": "rhf"
			},
			{
				"type": "unocc",
				"energy": 0.0009,
				"method": "rhf"
			},
			{
				"type": "unocc",
				"energy": 0.00512,
				"method": "rhf"
			},
			{
				"type": "unocc",
				"energy": 0.06747,
				"method": "rhf"
			}
		],
		"cosmo_sigma_profile": { 
			"-0.025": 0.0,
			"-0.024": 0.0,
			"-0.023": 0.0,
			"-0.022": 0.0,
			"-0.021": 0.0,
			"-0.02": 0.0,
			"-0.019": 0.0,
			"-0.018": 0.0,
			"-0.017": 0.0,
			"-0.016": 0.0,
			"-0.015": 0.0,
			"-0.014": 0.228104325595,
			"-0.013": 2.57086115178,
			"-0.012": 4.19754080832,
			"-0.011": 4.26358401036,
			"-0.01": 3.89300986918,
			"-0.009": 4.35961802144,
			"-0.008": 4.81180238993,
			"-0.007": 4.63897870136,
			"-0.006": 10.5409340336,
			"-0.005": 19.9192262385,
			"-0.004": 20.814700668,
			"-0.003": 19.4756110649,
			"-0.002": 17.1732686152,
			"-0.001": 14.9826952053,
			"0.0": 13.5922471269,
			"0.001": 17.9106343298,
			"0.002": 18.1662824618,
			"0.003": 17.5757605526,
			"0.004": 19.0785407654,
			"0.005": 22.8466716327,
			"0.006": 16.3432365373,
			"0.007": 3.62322133615,
			"0.008": 2.43952838032,
			"0.009": 2.45007939358,
			"0.01": 2.14264005635,
			"0.011": 2.02677257396,
			"0.012": 2.37174146832,
			"0.013": 2.58233363686,
			"0.014": 3.80665370362,
			"0.015": 0.773285054977,
			"0.016": 0.0,
			"0.017": 0.0,
			"0.018": 0.0,
			"0.019": 0.0,
			"0.02": 0.0,
			"0.021": 0.0,
			"0.022": 0.0,
			"0.023": 0.0,
			"0.024": 0.0,
			"0.025": 0.0
		}
	}
}
