{
	 "smiles": "ClCC=CCl", 
	 "Tm": 223.15, 
	 "num_atms": 9, 
	 "gaussian": { 
		 "optdone": 1, 
		 "sigma_profile": "yes", 
		 "theory": "DFT", 
		 "functional": "B3LYP", 
		 "basiset": "6-31G**", 
		 "properties": { 
			 "R2extent": 1519.6995, 
			 "electric_dipole_moment_norm": 1.9415658114, 
			 "electric_quadrupole_moment_norm": 7.43978913276, 
			 "total_energy": -1037.09395376, 
			 "HOMO_LUMO_gap": 0.23573, 
			 "cosmo_polarized_energy": -5.79, 
			 "cosmo_cavitation_energy": 16.68, 
			 "cosmo_dispersion_energy": -12.63, 
			 "cosmo_repulsion_energy": 1.15, 
			 "cosmo_total_nonelectrostatic_energy": 5.19, 
			 "SMD_solvation_energy": 2.84 
		},
		"coords": [
			{
				"x": -0.1518157907,
				"y": -3.1330995929,
				"z": 1.438190174,
				"element": "Cl" 
			},
			{
				"x": -0.7019659875,
				"y": -2.2384113785,
				"z": -0.0638286061,
				"element": "C" 
			},
			{
				"x": 0.1046477912,
				"y": -1.0050947731,
				"z": -0.288883597,
				"element": "C" 
			},
			{
				"x": 0.8803014281,
				"y": -0.8621238864,
				"z": -1.3624484531,
				"element": "C" 
			},
			{
				"x": 1.812955539,
				"y": 0.5748339523,
				"z": -1.6844174046,
				"element": "Cl" 
			},
			{
				"x": -1.7544643579,
				"y": -2.0091852564,
				"z": 0.1124271437,
				"element": "H" 
			},
			{
				"x": -0.6192540253,
				"y": -2.944078459,
				"z": -0.8910691207,
				"element": "H" 
			},
			{
				"x": 0.0357508946,
				"y": -0.2154027372,
				"z": 0.4537682762,
				"element": "H" 
			},
			{
				"x": 0.9973445085,
				"y": -1.6218378687,
				"z": -2.1277384122,
				"element": "H" 
			}
		],
		 "valence_orbital": [ 
			{
				"type": "occ",
				"energy": -0.37181,
				"method": "rhf"
			},
			{
				"type": "occ",
				"energy": -0.32371,
				"method": "rhf"
			},
			{
				"type": "occ",
				"energy": -0.30611,
				"method": "rhf"
			},
			{
				"type": "occ",
				"energy": -0.30154,
				"method": "rhf"
			},
			{
				"type": "occ",
				"energy": -0.26798,
				"method": "rhf"
			},
			{
				"type": "unocc",
				"energy": -0.03225,
				"method": "rhf"
			},
			{
				"type": "unocc",
				"energy": 0.01935,
				"method": "rhf"
			},
			{
				"type": "unocc",
				"energy": 0.04812,
				"method": "rhf"
			},
			{
				"type": "unocc",
				"energy": 0.09237,
				"method": "rhf"
			},
			{
				"type": "unocc",
				"energy": 0.11541,
				"method": "rhf"
			}
		],
		"cosmo_sigma_profile": { 
			"-0.025": 0.0,
			"-0.024": 0.0,
			"-0.023": 0.0,
			"-0.022": 0.0,
			"-0.021": 0.0,
			"-0.02": 0.0,
			"-0.019": 0.0,
			"-0.018": 0.0,
			"-0.017": 0.0,
			"-0.016": 0.0,
			"-0.015": 0.0,
			"-0.014": 0.0,
			"-0.013": 0.0,
			"-0.012": 0.0,
			"-0.011": 0.0,
			"-0.01": 0.681217372699,
			"-0.009": 4.1892254294,
			"-0.008": 6.18580259966,
			"-0.007": 7.60898201157,
			"-0.006": 6.93909071555,
			"-0.005": 6.46036152195,
			"-0.004": 5.82117262176,
			"-0.003": 5.45748957124,
			"-0.002": 5.43905587209,
			"-0.001": 6.4104922004,
			"0.0": 8.54965324212,
			"0.001": 9.21913730077,
			"0.002": 12.0844605811,
			"0.003": 11.8152873234,
			"0.004": 15.3543316056,
			"0.005": 10.6901045878,
			"0.006": 9.64740319881,
			"0.007": 4.93831470807,
			"0.008": 0.0,
			"0.009": 0.0,
			"0.01": 0.0,
			"0.011": 0.0,
			"0.012": 0.0,
			"0.013": 0.0,
			"0.014": 0.0,
			"0.015": 0.0,
			"0.016": 0.0,
			"0.017": 0.0,
			"0.018": 0.0,
			"0.019": 0.0,
			"0.02": 0.0,
			"0.021": 0.0,
			"0.022": 0.0,
			"0.023": 0.0,
			"0.024": 0.0,
			"0.025": 0.0
		}
	}
}
