{
	 "smiles": "O=C1NC2=C(C=CC=C2)C(=C1)C1=CC=CC=C1", 
	 "Tm": 537.15, 
	 "num_atms": 28, 
	 "gaussian": { 
		 "optdone": 1, 
		 "sigma_profile": "yes", 
		 "theory": "DFT", 
		 "functional": "B3LYP", 
		 "basiset": "6-31G**", 
		 "properties": { 
			 "R2extent": 4372.8853, 
			 "electric_dipole_moment_norm": 4.14522041151, 
			 "electric_quadrupole_moment_norm": 22.721574572, 
			 "total_energy": -708.230386301, 
			 "HOMO_LUMO_gap": 0.16165, 
			 "cosmo_polarized_energy": -13.6, 
			 "cosmo_cavitation_energy": 31.95, 
			 "cosmo_dispersion_energy": -23.3, 
			 "cosmo_repulsion_energy": 1.78, 
			 "cosmo_total_nonelectrostatic_energy": 10.44, 
			 "SMD_solvation_energy": 5.71 
		},
		"coords": [
			{
				"x": -0.4902038279,
				"y": -0.2906684241,
				"z": -4.052788104,
				"element": "O" 
			},
			{
				"x": -0.5610902879,
				"y": 0.0346422837,
				"z": -2.8716988965,
				"element": "C" 
			},
			{
				"x": -1.7977737853,
				"y": 0.2785485962,
				"z": -2.2720466581,
				"element": "N" 
			},
			{
				"x": -2.0001223502,
				"y": 0.6765487835,
				"z": -0.966395234,
				"element": "C" 
			},
			{
				"x": -0.8775385302,
				"y": 0.8364020677,
				"z": -0.1117902473,
				"element": "C" 
			},
			{
				"x": -1.107012066,
				"y": 1.2961831243,
				"z": 1.2013567106,
				"element": "C" 
			},
			{
				"x": -2.3895156035,
				"y": 1.5540864656,
				"z": 1.6625856235,
				"element": "C" 
			},
			{
				"x": -3.488442882,
				"y": 1.3630302251,
				"z": 0.8117329968,
				"element": "C" 
			},
			{
				"x": -3.2985284886,
				"y": 0.9326522761,
				"z": -0.4926092089,
				"element": "C" 
			},
			{
				"x": 0.4455454399,
				"y": 0.5508355634,
				"z": -0.6580915761,
				"element": "C" 
			},
			{
				"x": 0.5729577375,
				"y": 0.1870917019,
				"z": -1.9660834802,
				"element": "C" 
			},
			{
				"x": 1.6684751661,
				"y": 0.6484335118,
				"z": 0.1890875119,
				"element": "C" 
			},
			{
				"x": 1.7953228248,
				"y": -0.0943937623,
				"z": 1.374936402,
				"element": "C" 
			},
			{
				"x": 2.9665700115,
				"y": -0.0327366062,
				"z": 2.1294122995,
				"element": "C" 
			},
			{
				"x": 4.0273655354,
				"y": 0.7761987683,
				"z": 1.7164891607,
				"element": "C" 
			},
			{
				"x": 3.9123262811,
				"y": 1.5184839866,
				"z": 0.540145932,
				"element": "C" 
			},
			{
				"x": 2.7438645168,
				"y": 1.4527527819,
				"z": -0.2191006098,
				"element": "C" 
			},
			{
				"x": -2.5934872957,
				"y": 0.1653962173,
				"z": -2.8879817172,
				"element": "H" 
			},
			{
				"x": -0.2574369168,
				"y": 1.4564627159,
				"z": 1.8550134164,
				"element": "H" 
			},
			{
				"x": -2.5403272074,
				"y": 1.9076435942,
				"z": 2.6775027837,
				"element": "H" 
			},
			{
				"x": -4.4948518476,
				"y": 1.5606643492,
				"z": 1.1687805054,
				"element": "H" 
			},
			{
				"x": -4.1452238963,
				"y": 0.7972035444,
				"z": -1.1603434287,
				"element": "H" 
			},
			{
				"x": 1.5429369385,
				"y": -0.0420275648,
				"z": -2.392045477,
				"element": "H" 
			},
			{
				"x": 0.9805843064,
				"y": -0.7378397504,
				"z": 1.6931901473,
				"element": "H" 
			},
			{
				"x": 3.0522631274,
				"y": -0.6220397578,
				"z": 3.0378812293,
				"element": "H" 
			},
			{
				"x": 4.9374999845,
				"y": 0.8260310164,
				"z": 2.3070651634,
				"element": "H" 
			},
			{
				"x": 4.7318706431,
				"y": 2.1514447314,
				"z": 0.2122420419,
				"element": "H" 
			},
			{
				"x": 2.6531724723,
				"y": 2.0354695606,
				"z": -1.1309472865,
				"element": "H" 
			}
		],
		 "valence_orbital": [ 
			{
				"type": "occ",
				"energy": -0.26101,
				"method": "rhf"
			},
			{
				"type": "occ",
				"energy": -0.25882,
				"method": "rhf"
			},
			{
				"type": "occ",
				"energy": -0.24716,
				"method": "rhf"
			},
			{
				"type": "occ",
				"energy": -0.23932,
				"method": "rhf"
			},
			{
				"type": "occ",
				"energy": -0.21818,
				"method": "rhf"
			},
			{
				"type": "unocc",
				"energy": -0.05653,
				"method": "rhf"
			},
			{
				"type": "unocc",
				"energy": -0.01581,
				"method": "rhf"
			},
			{
				"type": "unocc",
				"energy": -0.01225,
				"method": "rhf"
			},
			{
				"type": "unocc",
				"energy": -0.00454,
				"method": "rhf"
			},
			{
				"type": "unocc",
				"energy": 0.02217,
				"method": "rhf"
			}
		],
		"cosmo_sigma_profile": { 
			"-0.025": 0.0,
			"-0.024": 0.0,
			"-0.023": 0.0,
			"-0.022": 0.0,
			"-0.021": 0.0,
			"-0.02": 0.0,
			"-0.019": 0.0,
			"-0.018": 0.0,
			"-0.017": 0.0,
			"-0.016": 0.04622357095,
			"-0.015": 0.860331058197,
			"-0.014": 1.41276344989,
			"-0.013": 1.56484262263,
			"-0.012": 0.862329113401,
			"-0.011": 1.18442341398,
			"-0.01": 1.01722782261,
			"-0.009": 1.61231601139,
			"-0.008": 1.14861208085,
			"-0.007": 2.58215249029,
			"-0.006": 14.3761289904,
			"-0.005": 19.1653404869,
			"-0.004": 22.8653737612,
			"-0.003": 18.3841162978,
			"-0.002": 17.9364281297,
			"-0.001": 16.1436148912,
			"0.0": 21.5879072406,
			"0.001": 23.668841931,
			"0.002": 19.7760046886,
			"0.003": 17.5200823743,
			"0.004": 18.3553596952,
			"0.005": 13.0986643167,
			"0.006": 2.10417544117,
			"0.007": 0.883453027258,
			"0.008": 1.26941483246,
			"0.009": 1.60919097978,
			"0.01": 1.13675809525,
			"0.011": 0.883985836132,
			"0.012": 1.59430236808,
			"0.013": 2.97755713348,
			"0.014": 6.34173895224,
			"0.015": 2.58851447047,
			"0.016": 0.179966789855,
			"0.017": 0.0,
			"0.018": 0.0,
			"0.019": 0.0,
			"0.02": 0.0,
			"0.021": 0.0,
			"0.022": 0.0,
			"0.023": 0.0,
			"0.024": 0.0,
			"0.025": 0.0
		}
	}
}
