{
	 "smiles": "FC(F)OC1=C2N=CC(C#N)=C(Cl)C2=CC=C1", 
	 "Tm": 394.15, 
	 "num_atms": 22, 
	 "gaussian": { 
		 "optdone": 1, 
		 "sigma_profile": "yes", 
		 "theory": "DFT", 
		 "functional": "B3LYP", 
		 "basiset": "6-31G**", 
		 "properties": { 
			 "R2extent": 5026.2928, 
			 "electric_dipole_moment_norm": 3.4225767296, 
			 "electric_quadrupole_moment_norm": 18.129121963, 
			 "total_energy": -1266.75387999, 
			 "HOMO_LUMO_gap": 0.15481, 
			 "cosmo_polarized_energy": -9.93, 
			 "cosmo_cavitation_energy": 30.72, 
			 "cosmo_dispersion_energy": -21.71, 
			 "cosmo_repulsion_energy": 1.63, 
			 "cosmo_total_nonelectrostatic_energy": 10.63, 
			 "SMD_solvation_energy": 6.82 
		},
		"coords": [
			{
				"x": -3.1036555962,
				"y": 3.9779261711,
				"z": 1.2163877911,
				"element": "F" 
			},
			{
				"x": -2.6497326645,
				"y": 2.8133592099,
				"z": 0.716872656,
				"element": "C" 
			},
			{
				"x": -3.034374099,
				"y": 1.8100908728,
				"z": 1.5463718021,
				"element": "F" 
			},
			{
				"x": -1.2620782717,
				"y": 2.9264707976,
				"z": 0.7218238408,
				"element": "O" 
			},
			{
				"x": -0.463016804,
				"y": 1.8096115507,
				"z": 0.6629844636,
				"element": "C" 
			},
			{
				"x": -0.6556546905,
				"y": 0.7725874417,
				"z": -0.299296736,
				"element": "C" 
			},
			{
				"x": -1.7091577539,
				"y": 0.8643755941,
				"z": -1.1578103167,
				"element": "N" 
			},
			{
				"x": -1.8825288939,
				"y": -0.0870708956,
				"z": -2.0405338656,
				"element": "C" 
			},
			{
				"x": -1.0309642696,
				"y": -1.2259738019,
				"z": -2.1612774671,
				"element": "C" 
			},
			{
				"x": -1.319876279,
				"y": -2.2051179255,
				"z": -3.1605635722,
				"element": "C" 
			},
			{
				"x": -1.5954404054,
				"y": -2.9737903237,
				"z": -3.9886818009,
				"element": "N" 
			},
			{
				"x": 0.0480317054,
				"y": -1.3280100159,
				"z": -1.2940835005,
				"element": "C" 
			},
			{
				"x": 1.1127945784,
				"y": -2.698410727,
				"z": -1.4063653226,
				"element": "Cl" 
			},
			{
				"x": 0.2828216024,
				"y": -0.3162519988,
				"z": -0.3218966254,
				"element": "C" 
			},
			{
				"x": 1.3738863465,
				"y": -0.3297482249,
				"z": 0.582938302,
				"element": "C" 
			},
			{
				"x": 1.5306022597,
				"y": 0.70196595,
				"z": 1.4809557571,
				"element": "C" 
			},
			{
				"x": 0.6111608078,
				"y": 1.770393073,
				"z": 1.5266032932,
				"element": "C" 
			},
			{
				"x": -3.0604910491,
				"y": 2.6368377712,
				"z": -0.2759735366,
				"element": "H" 
			},
			{
				"x": -2.7283253387,
				"y": 0.002092547,
				"z": -2.7185636755,
				"element": "H" 
			},
			{
				"x": 2.0782137688,
				"y": -1.1517472254,
				"z": 0.5553809553,
				"element": "H" 
			},
			{
				"x": 2.3672238247,
				"y": 0.6945989845,
				"z": 2.1722473946,
				"element": "H" 
			},
			{
				"x": 0.7292612219,
				"y": 2.5801111751,
				"z": 2.2381801631,
				"element": "H" 
			}
		],
		 "valence_orbital": [ 
			{
				"type": "occ",
				"energy": -0.33942,
				"method": "rhf"
			},
			{
				"type": "occ",
				"energy": -0.30509,
				"method": "rhf"
			},
			{
				"type": "occ",
				"energy": -0.2956,
				"method": "rhf"
			},
			{
				"type": "occ",
				"energy": -0.28528,
				"method": "rhf"
			},
			{
				"type": "occ",
				"energy": -0.25298,
				"method": "rhf"
			},
			{
				"type": "unocc",
				"energy": -0.09817,
				"method": "rhf"
			},
			{
				"type": "unocc",
				"energy": -0.06582,
				"method": "rhf"
			},
			{
				"type": "unocc",
				"energy": -0.00899,
				"method": "rhf"
			},
			{
				"type": "unocc",
				"energy": -0.00102,
				"method": "rhf"
			},
			{
				"type": "unocc",
				"energy": 0.01752,
				"method": "rhf"
			}
		],
		"cosmo_sigma_profile": { 
			"-0.025": 0.0,
			"-0.024": 0.0,
			"-0.023": 0.0,
			"-0.022": 0.0,
			"-0.021": 0.0,
			"-0.02": 0.0,
			"-0.019": 0.0,
			"-0.018": 0.0,
			"-0.017": 0.0,
			"-0.016": 0.0,
			"-0.015": 0.0,
			"-0.014": 0.0,
			"-0.013": 0.0,
			"-0.012": 0.0,
			"-0.011": 0.0,
			"-0.01": 0.386276257709,
			"-0.009": 3.11543818885,
			"-0.008": 6.26018017377,
			"-0.007": 10.2973356765,
			"-0.006": 8.94447009878,
			"-0.005": 9.69913039697,
			"-0.004": 17.6396595057,
			"-0.003": 20.2203787563,
			"-0.002": 17.8345550188,
			"-0.001": 19.470606429,
			"0.0": 19.8628123744,
			"0.001": 23.0004853215,
			"0.002": 23.6777576283,
			"0.003": 24.3501532747,
			"0.004": 17.1481871963,
			"0.005": 5.444385848,
			"0.006": 5.47088793583,
			"0.007": 4.89929654907,
			"0.008": 4.10196126005,
			"0.009": 3.17789891001,
			"0.01": 2.81201043738,
			"0.011": 2.41240455391,
			"0.012": 1.56898557037,
			"0.013": 0.125302639826,
			"0.014": 0.0,
			"0.015": 0.0,
			"0.016": 0.0,
			"0.017": 0.0,
			"0.018": 0.0,
			"0.019": 0.0,
			"0.02": 0.0,
			"0.021": 0.0,
			"0.022": 0.0,
			"0.023": 0.0,
			"0.024": 0.0,
			"0.025": 0.0
		}
	}
}
