{
	 "smiles": "CCN(CC)C(=O)C1=C(C)C(C)=C(C)N1", 
	 "Tm": 387.15, 
	 "num_atms": 35, 
	 "gaussian": { 
		 "optdone": 1, 
		 "sigma_profile": "yes", 
		 "theory": "DFT", 
		 "functional": "B3LYP", 
		 "basiset": "6-31G**", 
		 "properties": { 
			 "R2extent": 4279.2345, 
			 "electric_dipole_moment_norm": 2.24787184243, 
			 "electric_quadrupole_moment_norm": 9.58818101727, 
			 "total_energy": -654.092355662, 
			 "HOMO_LUMO_gap": 0.19136, 
			 "cosmo_polarized_energy": -9.86, 
			 "cosmo_cavitation_energy": 35.29, 
			 "cosmo_dispersion_energy": -24.92, 
			 "cosmo_repulsion_energy": 1.96, 
			 "cosmo_total_nonelectrostatic_energy": 12.33, 
			 "SMD_solvation_energy": 6.19 
		},
		"coords": [
			{
				"x": -2.1850188783,
				"y": -3.0576865385,
				"z": 0.1560889355,
				"element": "C" 
			},
			{
				"x": -1.3946075315,
				"y": -1.9299764652,
				"z": 0.8250363459,
				"element": "C" 
			},
			{
				"x": -1.4485357967,
				"y": -0.6459043913,
				"z": 0.1122901082,
				"element": "N" 
			},
			{
				"x": -2.7610976931,
				"y": 0.0164269558,
				"z": 0.049254527,
				"element": "C" 
			},
			{
				"x": -3.2273826907,
				"y": 0.6304798683,
				"z": 1.3744618848,
				"element": "C" 
			},
			{
				"x": -0.3555351233,
				"y": 0.2000647402,
				"z": 0.0328919097,
				"element": "C" 
			},
			{
				"x": -0.5012634539,
				"y": 1.4299056016,
				"z": -0.0086255984,
				"element": "O" 
			},
			{
				"x": 1.0193266645,
				"y": -0.3436423957,
				"z": -0.0179529925,
				"element": "C" 
			},
			{
				"x": 1.6695961876,
				"y": -1.4567460022,
				"z": -0.5529574567,
				"element": "C" 
			},
			{
				"x": 1.0631042097,
				"y": -2.6238776596,
				"z": -1.275886995,
				"element": "C" 
			},
			{
				"x": 3.0731831987,
				"y": -1.2469858348,
				"z": -0.380536247,
				"element": "C" 
			},
			{
				"x": 4.1557390601,
				"y": -2.1978278734,
				"z": -0.8025924617,
				"element": "C" 
			},
			{
				"x": 3.2416631338,
				"y": -0.0098305865,
				"z": 0.234499821,
				"element": "C" 
			},
			{
				"x": 4.4749352307,
				"y": 0.7165420778,
				"z": 0.670105908,
				"element": "C" 
			},
			{
				"x": 1.9984489603,
				"y": 0.5138477002,
				"z": 0.4415460183,
				"element": "N" 
			},
			{
				"x": -1.8599581925,
				"y": -3.2198399375,
				"z": -0.8747924566,
				"element": "H" 
			},
			{
				"x": -2.0354298648,
				"y": -3.9883759027,
				"z": 0.7133958747,
				"element": "H" 
			},
			{
				"x": -3.2602956228,
				"y": -2.8568515937,
				"z": 0.1443932822,
				"element": "H" 
			},
			{
				"x": -0.346890929,
				"y": -2.2107363245,
				"z": 0.9242278713,
				"element": "H" 
			},
			{
				"x": -1.7738331173,
				"y": -1.7901511243,
				"z": 1.8485550451,
				"element": "H" 
			},
			{
				"x": -3.4883888802,
				"y": -0.7190400905,
				"z": -0.3079376358,
				"element": "H" 
			},
			{
				"x": -2.684904746,
				"y": 0.8017305232,
				"z": -0.7042737668,
				"element": "H" 
			},
			{
				"x": -2.520486618,
				"y": 1.397255892,
				"z": 1.6981417336,
				"element": "H" 
			},
			{
				"x": -4.2090611282,
				"y": 1.0982353016,
				"z": 1.2434636243,
				"element": "H" 
			},
			{
				"x": -3.3237693208,
				"y": -0.1197138271,
				"z": 2.1664902508,
				"element": "H" 
			},
			{
				"x": 0.9591922001,
				"y": -3.5131066414,
				"z": -0.6394422209,
				"element": "H" 
			},
			{
				"x": 1.6903875444,
				"y": -2.9177318734,
				"z": -2.1243432003,
				"element": "H" 
			},
			{
				"x": 0.0731500398,
				"y": -2.3785389735,
				"z": -1.6670812231,
				"element": "H" 
			},
			{
				"x": 4.1328654493,
				"y": -3.1321434241,
				"z": -0.2271367622,
				"element": "H" 
			},
			{
				"x": 4.0621083549,
				"y": -2.4749592426,
				"z": -1.8599841009,
				"element": "H" 
			},
			{
				"x": 5.1501158156,
				"y": -1.7620207741,
				"z": -0.6703156505,
				"element": "H" 
			},
			{
				"x": 5.3646650495,
				"y": 0.2756175042,
				"z": 0.215134246,
				"element": "H" 
			},
			{
				"x": 4.6117709075,
				"y": 0.6837330266,
				"z": 1.7587451504,
				"element": "H" 
			},
			{
				"x": 4.4436116172,
				"y": 1.7723454649,
				"z": 0.3759905529,
				"element": "H" 
			},
			{
				"x": 1.7684959633,
				"y": 1.4491028205,
				"z": 0.7451456787,
				"element": "H" 
			}
		],
		 "valence_orbital": [ 
			{
				"type": "occ",
				"energy": -0.33276,
				"method": "rhf"
			},
			{
				"type": "occ",
				"energy": -0.24904,
				"method": "rhf"
			},
			{
				"type": "occ",
				"energy": -0.22855,
				"method": "rhf"
			},
			{
				"type": "occ",
				"energy": -0.22112,
				"method": "rhf"
			},
			{
				"type": "occ",
				"energy": -0.1958,
				"method": "rhf"
			},
			{
				"type": "unocc",
				"energy": -0.00444,
				"method": "rhf"
			},
			{
				"type": "unocc",
				"energy": 0.06547,
				"method": "rhf"
			},
			{
				"type": "unocc",
				"energy": 0.07908,
				"method": "rhf"
			},
			{
				"type": "unocc",
				"energy": 0.09449,
				"method": "rhf"
			},
			{
				"type": "unocc",
				"energy": 0.10146,
				"method": "rhf"
			}
		],
		"cosmo_sigma_profile": { 
			"-0.025": 0.0,
			"-0.024": 0.0,
			"-0.023": 0.0,
			"-0.022": 0.0,
			"-0.021": 0.0,
			"-0.02": 0.0,
			"-0.019": 0.0,
			"-0.018": 0.0,
			"-0.017": 0.0,
			"-0.016": 0.0,
			"-0.015": 0.0,
			"-0.014": 0.0128188183138,
			"-0.013": 0.620755002707,
			"-0.012": 0.568597095598,
			"-0.011": 1.22615639841,
			"-0.01": 0.566049535497,
			"-0.009": 0.763315865641,
			"-0.008": 1.05487340674,
			"-0.007": 1.15557758745,
			"-0.006": 1.22054507357,
			"-0.005": 6.44795832189,
			"-0.004": 20.4784993415,
			"-0.003": 33.6327952489,
			"-0.002": 38.2540469163,
			"-0.001": 38.6846007966,
			"0.0": 40.0756377812,
			"0.001": 29.515598245,
			"0.002": 12.3065842669,
			"0.003": 8.81981807476,
			"0.004": 5.95673066418,
			"0.005": 5.93800365067,
			"0.006": 7.4833006556,
			"0.007": 5.58182002055,
			"0.008": 2.76048739717,
			"0.009": 1.30198236852,
			"0.01": 1.2530723284,
			"0.011": 1.93516814676,
			"0.012": 1.30012851062,
			"0.013": 2.04749162003,
			"0.014": 3.38652226806,
			"0.015": 1.17937851842,
			"0.016": 0.0,
			"0.017": 0.0,
			"0.018": 0.0,
			"0.019": 0.0,
			"0.02": 0.0,
			"0.021": 0.0,
			"0.022": 0.0,
			"0.023": 0.0,
			"0.024": 0.0,
			"0.025": 0.0
		}
	}
}
