{
	 "smiles": "CCOC(=O)C1=C(C)C(C(=O)OC(C)(C)C)=C(NC(=O)CCl)S1", 
	 "Tm": 422.15, 
	 "num_atms": 43, 
	 "gaussian": { 
		 "optdone": 1, 
		 "sigma_profile": "yes", 
		 "theory": "DFT", 
		 "functional": "B3LYP", 
		 "basiset": "6-31G**", 
		 "properties": { 
			 "R2extent": 12748.4949, 
			 "electric_dipole_moment_norm": 0.468113340976, 
			 "electric_quadrupole_moment_norm": 15.6424762244, 
			 "total_energy": -1872.95139669, 
			 "HOMO_LUMO_gap": 0.17348, 
			 "cosmo_polarized_energy": -16.27, 
			 "cosmo_cavitation_energy": 49.3, 
			 "cosmo_dispersion_energy": -33.44, 
			 "cosmo_repulsion_energy": 2.55, 
			 "cosmo_total_nonelectrostatic_energy": 18.41, 
			 "SMD_solvation_energy": 9.96 
		},
		"coords": [
			{
				"x": 2.5961523256,
				"y": 3.111829177,
				"z": 5.5426847059,
				"element": "C" 
			},
			{
				"x": 2.1913424948,
				"y": 3.8649771896,
				"z": 4.2845567528,
				"element": "C" 
			},
			{
				"x": 1.1333523171,
				"y": 3.1770034741,
				"z": 3.5760072398,
				"element": "O" 
			},
			{
				"x": 1.5113798397,
				"y": 2.2031463252,
				"z": 2.7090854235,
				"element": "C" 
			},
			{
				"x": 2.6740800275,
				"y": 1.9023279288,
				"z": 2.5055683136,
				"element": "O" 
			},
			{
				"x": 0.3344467142,
				"y": 1.5956679762,
				"z": 2.0682421038,
				"element": "C" 
			},
			{
				"x": 0.2853077087,
				"y": 0.5590671434,
				"z": 1.1527770418,
				"element": "C" 
			},
			{
				"x": 1.4951426103,
				"y": -0.1572603178,
				"z": 0.6169378107,
				"element": "C" 
			},
			{
				"x": -1.0694872804,
				"y": 0.2147160136,
				"z": 0.807171587,
				"element": "C" 
			},
			{
				"x": -1.4940280872,
				"y": -0.927127403,
				"z": -0.0623871815,
				"element": "C" 
			},
			{
				"x": -2.4607527317,
				"y": -1.6232840778,
				"z": 0.1843627668,
				"element": "O" 
			},
			{
				"x": -0.6725330669,
				"y": -1.0714060244,
				"z": -1.1129542378,
				"element": "O" 
			},
			{
				"x": -0.9099435398,
				"y": -2.1029057563,
				"z": -2.147322653,
				"element": "C" 
			},
			{
				"x": -0.790340691,
				"y": -3.4985315279,
				"z": -1.5270942246,
				"element": "C" 
			},
			{
				"x": 0.2275284684,
				"y": -1.8449689592,
				"z": -3.1381940648,
				"element": "C" 
			},
			{
				"x": -2.271578323,
				"y": -1.8698708216,
				"z": -2.8093356153,
				"element": "C" 
			},
			{
				"x": -1.9986863847,
				"y": 1.0049672123,
				"z": 1.4556288642,
				"element": "C" 
			},
			{
				"x": -3.3909651886,
				"y": 0.9857881437,
				"z": 1.3423310182,
				"element": "N" 
			},
			{
				"x": -4.0742199038,
				"y": 0.9264644476,
				"z": 0.1540599464,
				"element": "C" 
			},
			{
				"x": -3.5627500079,
				"y": 0.9289843458,
				"z": -0.951030437,
				"element": "O" 
			},
			{
				"x": -5.5950025206,
				"y": 0.8013472647,
				"z": 0.2412494014,
				"element": "C" 
			},
			{
				"x": -6.3527280536,
				"y": 1.1755697303,
				"z": 1.8479287704,
				"element": "Cl" 
			},
			{
				"x": -1.2590361711,
				"y": 2.1962766769,
				"z": 2.477548973,
				"element": "S" 
			},
			{
				"x": 3.3417992666,
				"y": 3.6912255533,
				"z": 6.0973384478,
				"element": "H" 
			},
			{
				"x": 3.0350628295,
				"y": 2.1445076831,
				"z": 5.2866596496,
				"element": "H" 
			},
			{
				"x": 1.7329065334,
				"y": 2.949060219,
				"z": 6.1945926432,
				"element": "H" 
			},
			{
				"x": 3.0404277574,
				"y": 3.9911819362,
				"z": 3.6088827766,
				"element": "H" 
			},
			{
				"x": 1.7656924701,
				"y": 4.842985239,
				"z": 4.5207733186,
				"element": "H" 
			},
			{
				"x": 2.3924374185,
				"y": 0.1555439051,
				"z": 1.1461465283,
				"element": "H" 
			},
			{
				"x": 1.6148881744,
				"y": 0.0556030843,
				"z": -0.4495139433,
				"element": "H" 
			},
			{
				"x": 1.3723982778,
				"y": -1.24069496,
				"z": 0.7083743717,
				"element": "H" 
			},
			{
				"x": -1.5843844639,
				"y": -3.6758031111,
				"z": -0.801340624,
				"element": "H" 
			},
			{
				"x": -0.8598224897,
				"y": -4.2545711158,
				"z": -2.3160602333,
				"element": "H" 
			},
			{
				"x": 0.1785745382,
				"y": -3.6163029581,
				"z": -1.031375602,
				"element": "H" 
			},
			{
				"x": 0.167989878,
				"y": -2.5547046691,
				"z": -3.9686956058,
				"element": "H" 
			},
			{
				"x": 0.1633789943,
				"y": -0.8311330614,
				"z": -3.5432606409,
				"element": "H" 
			},
			{
				"x": 1.20064036,
				"y": -1.9630459209,
				"z": -2.6525504257,
				"element": "H" 
			},
			{
				"x": -2.3600570573,
				"y": -0.8318684609,
				"z": -3.1412676543,
				"element": "H" 
			},
			{
				"x": -2.3650668295,
				"y": -2.5242611282,
				"z": -3.6823318126,
				"element": "H" 
			},
			{
				"x": -3.0881558962,
				"y": -2.0814892752,
				"z": -2.1196173754,
				"element": "H" 
			},
			{
				"x": -3.9426316838,
				"y": 1.0510791859,
				"z": 2.1888374573,
				"element": "H" 
			},
			{
				"x": -6.0334589159,
				"y": 1.4742107105,
				"z": -0.4940604164,
				"element": "H" 
			},
			{
				"x": -5.8637997177,
				"y": -0.2276010167,
				"z": -0.0045531645,
				"element": "H" 
			}
		],
		 "valence_orbital": [ 
			{
				"type": "occ",
				"energy": -0.27754,
				"method": "rhf"
			},
			{
				"type": "occ",
				"energy": -0.27443,
				"method": "rhf"
			},
			{
				"type": "occ",
				"energy": -0.26709,
				"method": "rhf"
			},
			{
				"type": "occ",
				"energy": -0.25589,
				"method": "rhf"
			},
			{
				"type": "occ",
				"energy": -0.23509,
				"method": "rhf"
			},
			{
				"type": "unocc",
				"energy": -0.06161,
				"method": "rhf"
			},
			{
				"type": "unocc",
				"energy": -0.02296,
				"method": "rhf"
			},
			{
				"type": "unocc",
				"energy": 0.00049,
				"method": "rhf"
			},
			{
				"type": "unocc",
				"energy": 0.01261,
				"method": "rhf"
			},
			{
				"type": "unocc",
				"energy": 0.01626,
				"method": "rhf"
			}
		],
		"cosmo_sigma_profile": { 
			"-0.025": 0.0,
			"-0.024": 0.0,
			"-0.023": 0.0,
			"-0.022": 0.0,
			"-0.021": 0.0,
			"-0.02": 0.0,
			"-0.019": 0.0,
			"-0.018": 0.0,
			"-0.017": 0.0,
			"-0.016": 0.0,
			"-0.015": 0.310080387984,
			"-0.014": 1.04775296156,
			"-0.013": 0.881951801052,
			"-0.012": 0.726589208512,
			"-0.011": 1.31621798158,
			"-0.01": 2.34086817387,
			"-0.009": 4.8347124148,
			"-0.008": 4.39585763735,
			"-0.007": 4.92357071774,
			"-0.006": 7.81027062092,
			"-0.005": 14.9374680233,
			"-0.004": 30.507086095,
			"-0.003": 36.7049430355,
			"-0.002": 35.1323408735,
			"-0.001": 40.6366231248,
			"0.0": 56.4857233637,
			"0.001": 37.034464478,
			"0.002": 20.6811281212,
			"0.003": 16.8801669535,
			"0.004": 14.2327758832,
			"0.005": 16.45570718,
			"0.006": 9.41610356956,
			"0.007": 7.32239246922,
			"0.008": 5.56622131123,
			"0.009": 5.11546358884,
			"0.01": 4.74103651373,
			"0.011": 7.45369212014,
			"0.012": 4.62002035151,
			"0.013": 0.28200544547,
			"0.014": 0.0,
			"0.015": 0.0,
			"0.016": 0.0,
			"0.017": 0.0,
			"0.018": 0.0,
			"0.019": 0.0,
			"0.02": 0.0,
			"0.021": 0.0,
			"0.022": 0.0,
			"0.023": 0.0,
			"0.024": 0.0,
			"0.025": 0.0
		}
	}
}
