{
	 "smiles": "OC(=O)CCCCC1=CC=C(I)C=C1", 
	 "Tm": 383.15, 
	 "num_atms": 27, 
	 "gaussian": { 
		 "optdone": 1, 
		 "sigma_profile": "yes", 
		 "theory": "DFT", 
		 "functional": "B3LYP", 
		 "basiset": "6-31G**", 
		 "properties": { 
			 "R2extent": 3520.1581, 
			 "electric_dipole_moment_norm": 5.4785291329, 
			 "electric_quadrupole_moment_norm": 20.902225383, 
			 "total_energy": -588.856771768, 
			 "HOMO_LUMO_gap": 0.19961, 
			 "cosmo_polarized_energy": -14.64, 
			 "cosmo_cavitation_energy": 32.8, 
			 "cosmo_dispersion_energy": -23.99, 
			 "cosmo_repulsion_energy": 1.87, 
			 "cosmo_total_nonelectrostatic_energy": 10.68, 
			 "SMD_solvation_energy": 4.99 
		},
		"coords": [
			{
				"x": -0.133472809,
				"y": 0.782381244,
				"z": -3.1635371298,
				"element": "O" 
			},
			{
				"x": -1.4109732239,
				"y": 0.7946609448,
				"z": -2.6894386935,
				"element": "C" 
			},
			{
				"x": -2.340263704,
				"y": 0.8888863227,
				"z": -3.4519147006,
				"element": "O" 
			},
			{
				"x": -1.5374493414,
				"y": 0.745372297,
				"z": -1.1740241644,
				"element": "C" 
			},
			{
				"x": -1.3333737385,
				"y": 2.1461769982,
				"z": -0.5461368358,
				"element": "C" 
			},
			{
				"x": -1.06374953,
				"y": 2.1113452643,
				"z": 0.9722957238,
				"element": "C" 
			},
			{
				"x": 0.4363372923,
				"y": 2.0818179062,
				"z": 1.3574233943,
				"element": "C" 
			},
			{
				"x": 1.2263620015,
				"y": 0.9317534206,
				"z": 0.7693715029,
				"element": "C" 
			},
			{
				"x": 1.1443918168,
				"y": -0.3564474236,
				"z": 1.3166509639,
				"element": "C" 
			},
			{
				"x": 1.8331591071,
				"y": -1.4332281793,
				"z": 0.7563082177,
				"element": "C" 
			},
			{
				"x": 2.6262027523,
				"y": -1.2270063983,
				"z": -0.37483759,
				"element": "C" 
			},
			{
				"x": 3.6763190943,
				"y": -2.8529413532,
				"z": -1.2356984955,
				"element": "I" 
			},
			{
				"x": 2.7414116025,
				"y": 0.0473327153,
				"z": -0.9343154873,
				"element": "C" 
			},
			{
				"x": 2.0439931524,
				"y": 1.1135701757,
				"z": -0.356257488,
				"element": "C" 
			},
			{
				"x": 0.4950161445,
				"y": 0.6572942358,
				"z": -2.4351001334,
				"element": "H" 
			},
			{
				"x": -0.8106857169,
				"y": 0.0364550312,
				"z": -0.7642929225,
				"element": "H" 
			},
			{
				"x": -2.5364571986,
				"y": 0.3737299977,
				"z": -0.9340016618,
				"element": "H" 
			},
			{
				"x": -2.2263955113,
				"y": 2.7431576226,
				"z": -0.7572097097,
				"element": "H" 
			},
			{
				"x": -0.5049770858,
				"y": 2.6600636346,
				"z": -1.0504331147,
				"element": "H" 
			},
			{
				"x": -1.5005302037,
				"y": 3.0004089788,
				"z": 1.4416053435,
				"element": "H" 
			},
			{
				"x": -1.5771379566,
				"y": 1.2502124996,
				"z": 1.4189461065,
				"element": "H" 
			},
			{
				"x": 0.5121063848,
				"y": 2.0528399169,
				"z": 2.4511624436,
				"element": "H" 
			},
			{
				"x": 0.8936169779,
				"y": 3.0264028624,
				"z": 1.0397667107,
				"element": "H" 
			},
			{
				"x": 0.5304615345,
				"y": -0.5269473801,
				"z": 2.1977604656,
				"element": "H" 
			},
			{
				"x": 1.7525565085,
				"y": -2.419549435,
				"z": 1.1995882569,
				"element": "H" 
			},
			{
				"x": 3.3746575096,
				"y": 0.2160299162,
				"z": -1.7986441383,
				"element": "H" 
			},
			{
				"x": 2.1565741405,
				"y": 2.1076281848,
				"z": -0.7826368641,
				"element": "H" 
			}
		],
		 "valence_orbital": [ 
			{
				"type": "occ",
				"energy": -0.30093,
				"method": "rhf"
			},
			{
				"type": "occ",
				"energy": -0.28207,
				"method": "rhf"
			},
			{
				"type": "occ",
				"energy": -0.27702,
				"method": "rhf"
			},
			{
				"type": "occ",
				"energy": -0.25976,
				"method": "rhf"
			},
			{
				"type": "occ",
				"energy": -0.24731,
				"method": "rhf"
			},
			{
				"type": "unocc",
				"energy": -0.0477,
				"method": "rhf"
			},
			{
				"type": "unocc",
				"energy": -0.03595,
				"method": "rhf"
			},
			{
				"type": "unocc",
				"energy": -0.034,
				"method": "rhf"
			},
			{
				"type": "unocc",
				"energy": 0.01602,
				"method": "rhf"
			},
			{
				"type": "unocc",
				"energy": 0.03678,
				"method": "rhf"
			}
		],
		"cosmo_sigma_profile": { 
			"-0.025": 0.0,
			"-0.024": 0.0,
			"-0.023": 0.0,
			"-0.022": 0.0,
			"-0.021": 0.0,
			"-0.02": 0.0,
			"-0.019": 0.0,
			"-0.018": 0.0,
			"-0.017": 0.0,
			"-0.016": 0.0,
			"-0.015": 0.0,
			"-0.014": 0.0,
			"-0.013": 0.00748324861754,
			"-0.012": 0.0616670632497,
			"-0.011": 0.588005464138,
			"-0.01": 0.669212317725,
			"-0.009": 1.49904948444,
			"-0.008": 2.41247372875,
			"-0.007": 5.81058125543,
			"-0.006": 15.2904915038,
			"-0.005": 16.6181732838,
			"-0.004": 22.0654303738,
			"-0.003": 28.481857059,
			"-0.002": 30.2779858709,
			"-0.001": 21.6290199588,
			"0.0": 17.0063103105,
			"0.001": 13.9525354832,
			"0.002": 14.4041225423,
			"0.003": 15.6106742188,
			"0.004": 19.5892442192,
			"0.005": 7.84318055193,
			"0.006": 2.81147361437,
			"0.007": 1.64895229099,
			"0.008": 2.50700969891,
			"0.009": 3.04274277353,
			"0.01": 3.81754637888,
			"0.011": 5.71045219601,
			"0.012": 6.09568237297,
			"0.013": 4.02652186929,
			"0.014": 0.513579180678,
			"0.015": 0.0,
			"0.016": 0.0,
			"0.017": 0.0,
			"0.018": 0.0,
			"0.019": 0.0,
			"0.02": 0.0,
			"0.021": 0.0,
			"0.022": 0.0,
			"0.023": 0.0,
			"0.024": 0.0,
			"0.025": 0.0
		}
	}
}
