{
	 "smiles": "C=CC#N", 
	 "Tm": 189.35, 
	 "num_atms": 7, 
	 "gaussian": { 
		 "optdone": 1, 
		 "sigma_profile": "yes", 
		 "theory": "DFT", 
		 "functional": "B3LYP", 
		 "basiset": "6-31G**", 
		 "properties": { 
			 "R2extent": 528.1638, 
			 "electric_dipole_moment_norm": 3.87314749655, 
			 "electric_quadrupole_moment_norm": 8.7219577315, 
			 "total_energy": -170.831765705, 
			 "HOMO_LUMO_gap": 0.23246, 
			 "cosmo_polarized_energy": -7.81, 
			 "cosmo_cavitation_energy": 12.18, 
			 "cosmo_dispersion_energy": -8.15, 
			 "cosmo_repulsion_energy": 0.76, 
			 "cosmo_total_nonelectrostatic_energy": 4.79, 
			 "SMD_solvation_energy": 4.68 
		},
		"coords": [
			{
				"x": -0.0422780171,
				"y": -0.7208724808,
				"z": 0.1385129765,
				"element": "C" 
			},
			{
				"x": -1.0931084382,
				"y": -0.6635675649,
				"z": 0.9654420087,
				"element": "C" 
			},
			{
				"x": -1.5918648896,
				"y": 0.5641470059,
				"z": 1.5062964606,
				"element": "C" 
			},
			{
				"x": -2.0152802466,
				"y": 1.5490821005,
				"z": 1.9583504683,
				"element": "N" 
			},
			{
				"x": 0.4928549066,
				"y": 0.1714544957,
				"z": -0.1686907512,
				"element": "H" 
			},
			{
				"x": 0.3042667395,
				"y": -1.6727005603,
				"z": -0.249522278,
				"element": "H" 
			},
			{
				"x": -1.6229900547,
				"y": -1.5634429963,
				"z": 1.267611115,
				"element": "H" 
			}
		],
		 "valence_orbital": [ 
			{
				"type": "occ",
				"energy": -0.41704,
				"method": "rhf"
			},
			{
				"type": "occ",
				"energy": -0.37854,
				"method": "rhf"
			},
			{
				"type": "occ",
				"energy": -0.36239,
				"method": "rhf"
			},
			{
				"type": "occ",
				"energy": -0.33493,
				"method": "rhf"
			},
			{
				"type": "occ",
				"energy": -0.28939,
				"method": "rhf"
			},
			{
				"type": "unocc",
				"energy": -0.05693,
				"method": "rhf"
			},
			{
				"type": "unocc",
				"energy": 0.02516,
				"method": "rhf"
			},
			{
				"type": "unocc",
				"energy": 0.11198,
				"method": "rhf"
			},
			{
				"type": "unocc",
				"energy": 0.11533,
				"method": "rhf"
			},
			{
				"type": "unocc",
				"energy": 0.11867,
				"method": "rhf"
			}
		],
		"cosmo_sigma_profile": { 
			"-0.025": 0.0,
			"-0.024": 0.0,
			"-0.023": 0.0,
			"-0.022": 0.0,
			"-0.021": 0.0,
			"-0.02": 0.0,
			"-0.019": 0.0,
			"-0.018": 0.0,
			"-0.017": 0.0,
			"-0.016": 0.0,
			"-0.015": 0.0,
			"-0.014": 0.0,
			"-0.013": 0.0,
			"-0.012": 0.0,
			"-0.011": 0.0,
			"-0.01": 0.465738628408,
			"-0.009": 3.06064530553,
			"-0.008": 6.23331743998,
			"-0.007": 6.0624692929,
			"-0.006": 6.43139679194,
			"-0.005": 5.59750797005,
			"-0.004": 5.74840272273,
			"-0.003": 5.40178493563,
			"-0.002": 6.45853362924,
			"-0.001": 7.343204982,
			"0.0": 6.46414332652,
			"0.001": 5.9495734696,
			"0.002": 4.89056472665,
			"0.003": 2.16326447501,
			"0.004": 1.9930370924,
			"0.005": 2.34245603915,
			"0.006": 3.17613364893,
			"0.007": 1.97320803726,
			"0.008": 3.94606938332,
			"0.009": 3.08013517673,
			"0.01": 3.39807500829,
			"0.011": 2.50979828899,
			"0.012": 2.62084690459,
			"0.013": 1.63845998707,
			"0.014": 0.0686752290877,
			"0.015": 0.0,
			"0.016": 0.0,
			"0.017": 0.0,
			"0.018": 0.0,
			"0.019": 0.0,
			"0.02": 0.0,
			"0.021": 0.0,
			"0.022": 0.0,
			"0.023": 0.0,
			"0.024": 0.0,
			"0.025": 0.0
		}
	}
}
