{
	 "smiles": "OC(=O)C1CC2=C(NC=N2)C(N1)C1=CC=CC=C1", 
	 "Tm": 483.15, 
	 "num_atms": 31, 
	 "gaussian": { 
		 "optdone": 1, 
		 "sigma_profile": "yes", 
		 "theory": "DFT", 
		 "functional": "B3LYP", 
		 "basiset": "6-31G**", 
		 "properties": { 
			 "R2extent": 4319.8544, 
			 "electric_dipole_moment_norm": 2.27317748097, 
			 "electric_quadrupole_moment_norm": 15.9998299603, 
			 "total_energy": -817.9203727, 
			 "HOMO_LUMO_gap": 0.20388, 
			 "cosmo_polarized_energy": -18.06, 
			 "cosmo_cavitation_energy": 33.63, 
			 "cosmo_dispersion_energy": -24.14, 
			 "cosmo_repulsion_energy": 1.86, 
			 "cosmo_total_nonelectrostatic_energy": 11.34, 
			 "SMD_solvation_energy": 2.57 
		},
		"coords": [
			{
				"x": 0.1761591675,
				"y": -1.3821867642,
				"z": -3.7495587763,
				"element": "O" 
			},
			{
				"x": 0.5558622033,
				"y": -0.6227154015,
				"z": -2.6976061082,
				"element": "C" 
			},
			{
				"x": 1.4876928704,
				"y": -0.9324289066,
				"z": -1.9839321234,
				"element": "O" 
			},
			{
				"x": -0.2589283549,
				"y": 0.6764067269,
				"z": -2.6024785873,
				"element": "C" 
			},
			{
				"x": -1.7779848068,
				"y": 0.3732806454,
				"z": -2.6041499257,
				"element": "C" 
			},
			{
				"x": -2.1322476331,
				"y": -0.1500886491,
				"z": -1.2511589496,
				"element": "C" 
			},
			{
				"x": -1.4735884145,
				"y": 0.3121162955,
				"z": -0.143947625,
				"element": "C" 
			},
			{
				"x": -2.0272768437,
				"y": -0.3651117665,
				"z": 0.920251623,
				"element": "N" 
			},
			{
				"x": -2.9723736992,
				"y": -1.2114757893,
				"z": 0.3982093981,
				"element": "C" 
			},
			{
				"x": -3.0642620002,
				"y": -1.1064902013,
				"z": -0.9123636393,
				"element": "N" 
			},
			{
				"x": -0.4644282876,
				"y": 1.4207656386,
				"z": -0.1443097922,
				"element": "C" 
			},
			{
				"x": 0.1579797541,
				"y": 1.5375431595,
				"z": -1.4964030532,
				"element": "N" 
			},
			{
				"x": 0.5487790664,
				"y": 1.3109420131,
				"z": 0.9916397079,
				"element": "C" 
			},
			{
				"x": 0.5156768669,
				"y": 2.2458211342,
				"z": 2.0342574786,
				"element": "C" 
			},
			{
				"x": 1.4042939934,
				"y": 2.1538608808,
				"z": 3.1080138129,
				"element": "C" 
			},
			{
				"x": 2.3434362767,
				"y": 1.123143605,
				"z": 3.1476198458,
				"element": "C" 
			},
			{
				"x": 2.3872695455,
				"y": 0.1883845033,
				"z": 2.1096683897,
				"element": "C" 
			},
			{
				"x": 1.4966445427,
				"y": 0.2764824075,
				"z": 1.0394726614,
				"element": "C" 
			},
			{
				"x": 0.7632399092,
				"y": -2.1569231241,
				"z": -3.7543892125,
				"element": "H" 
			},
			{
				"x": -0.0250120512,
				"y": 1.2088470555,
				"z": -3.5369181197,
				"element": "H" 
			},
			{
				"x": -2.317005869,
				"y": 1.3023154991,
				"z": -2.8306960043,
				"element": "H" 
			},
			{
				"x": -2.0141057991,
				"y": -0.3446807913,
				"z": -3.3913650133,
				"element": "H" 
			},
			{
				"x": -1.7352056627,
				"y": -0.2973703252,
				"z": 1.8838489623,
				"element": "H" 
			},
			{
				"x": -3.550296952,
				"y": -1.8807418958,
				"z": 1.0206898486,
				"element": "H" 
			},
			{
				"x": -1.0105029883,
				"y": 2.3620988522,
				"z": 0.0314265618,
				"element": "H" 
			},
			{
				"x": 1.1665033556,
				"y": 1.4963160831,
				"z": -1.4026496858,
				"element": "H" 
			},
			{
				"x": -0.2079872912,
				"y": 3.0569903825,
				"z": 2.0004608401,
				"element": "H" 
			},
			{
				"x": 1.3661407429,
				"y": 2.8902249083,
				"z": 3.905899368,
				"element": "H" 
			},
			{
				"x": 3.0397205317,
				"y": 1.0503441742,
				"z": 3.9783395985,
				"element": "H" 
			},
			{
				"x": 3.1192496709,
				"y": -0.6142543698,
				"z": 2.1326226132,
				"element": "H" 
			},
			{
				"x": 1.5418581564,
				"y": -0.4433159801,
				"z": 0.2287059058,
				"element": "H" 
			}
		],
		 "valence_orbital": [ 
			{
				"type": "occ",
				"energy": -0.26557,
				"method": "rhf"
			},
			{
				"type": "occ",
				"energy": -0.25297,
				"method": "rhf"
			},
			{
				"type": "occ",
				"energy": -0.25096,
				"method": "rhf"
			},
			{
				"type": "occ",
				"energy": -0.22113,
				"method": "rhf"
			},
			{
				"type": "occ",
				"energy": -0.21271,
				"method": "rhf"
			},
			{
				"type": "unocc",
				"energy": -0.00883,
				"method": "rhf"
			},
			{
				"type": "unocc",
				"energy": -0.00506,
				"method": "rhf"
			},
			{
				"type": "unocc",
				"energy": 0.00394,
				"method": "rhf"
			},
			{
				"type": "unocc",
				"energy": 0.02984,
				"method": "rhf"
			},
			{
				"type": "unocc",
				"energy": 0.0682,
				"method": "rhf"
			}
		],
		"cosmo_sigma_profile": { 
			"-0.025": 0.0,
			"-0.024": 0.0,
			"-0.023": 0.0,
			"-0.022": 0.0,
			"-0.021": 0.0,
			"-0.02": 0.0,
			"-0.019": 0.102345455886,
			"-0.018": 0.844497438699,
			"-0.017": 0.81451949336,
			"-0.016": 1.64998599414,
			"-0.015": 1.48559639497,
			"-0.014": 1.92587900004,
			"-0.013": 1.29866597404,
			"-0.012": 2.02311910617,
			"-0.011": 1.54729898429,
			"-0.01": 1.42200032172,
			"-0.009": 3.00587487193,
			"-0.008": 5.23517136261,
			"-0.007": 6.74128964722,
			"-0.006": 11.7951113798,
			"-0.005": 17.2274902573,
			"-0.004": 19.6145349777,
			"-0.003": 19.6647519794,
			"-0.002": 17.4247410125,
			"-0.001": 16.4205547227,
			"0.0": 13.6672230809,
			"0.001": 16.2862016345,
			"0.002": 17.6501162325,
			"0.003": 18.6948385492,
			"0.004": 15.5243540826,
			"0.005": 14.7459797346,
			"0.006": 8.42682757734,
			"0.007": 4.77824568235,
			"0.008": 4.75130838294,
			"0.009": 3.8814999894,
			"0.01": 4.45375514754,
			"0.011": 3.23557791819,
			"0.012": 2.81157993542,
			"0.013": 1.16533877572,
			"0.014": 2.30495753727,
			"0.015": 1.18723298468,
			"0.016": 1.41644203225,
			"0.017": 1.04933431276,
			"0.018": 0.838005395942,
			"0.019": 0.101260306355,
			"0.02": 0.0,
			"0.021": 0.0,
			"0.022": 0.0,
			"0.023": 0.0,
			"0.024": 0.0,
			"0.025": 0.0
		}
	}
}
