{
	 "smiles": "CC1=NOC(=N1)C1=C(Cl)N=CC=C1", 
	 "Tm": 339.15, 
	 "num_atms": 19, 
	 "gaussian": { 
		 "optdone": 1, 
		 "sigma_profile": "yes", 
		 "theory": "DFT", 
		 "functional": "B3LYP", 
		 "basiset": "6-31G**", 
		 "properties": { 
			 "R2extent": 2914.2792, 
			 "electric_dipole_moment_norm": 2.02700773062, 
			 "electric_quadrupole_moment_norm": 17.5769662806, 
			 "total_energy": -1008.09572127, 
			 "HOMO_LUMO_gap": 0.18423, 
			 "cosmo_polarized_energy": -10.72, 
			 "cosmo_cavitation_energy": 25.98, 
			 "cosmo_dispersion_energy": -19.57, 
			 "cosmo_repulsion_energy": 1.55, 
			 "cosmo_total_nonelectrostatic_energy": 7.96, 
			 "SMD_solvation_energy": 1.49 
		},
		"coords": [
			{
				"x": -2.1031311821,
				"y": 3.9387233014,
				"z": -0.0187196834,
				"element": "C" 
			},
			{
				"x": -1.4665082163,
				"y": 2.6973895194,
				"z": -0.5454057147,
				"element": "C" 
			},
			{
				"x": -1.6283364842,
				"y": 2.2960292966,
				"z": -1.7833857787,
				"element": "N" 
			},
			{
				"x": -0.87142884,
				"y": 1.116835858,
				"z": -1.8432317955,
				"element": "O" 
			},
			{
				"x": -0.3314690469,
				"y": 0.93761204,
				"z": -0.6148332921,
				"element": "C" 
			},
			{
				"x": -0.6646056295,
				"y": 1.8804287161,
				"z": 0.2215609551,
				"element": "N" 
			},
			{
				"x": 0.5011831713,
				"y": -0.2556876846,
				"z": -0.4417022667,
				"element": "C" 
			},
			{
				"x": 1.2295396553,
				"y": -0.5872090915,
				"z": 0.725426769,
				"element": "C" 
			},
			{
				"x": 1.2218706888,
				"y": 0.4424908219,
				"z": 2.1387939563,
				"element": "Cl" 
			},
			{
				"x": 1.9682830098,
				"y": -1.678127224,
				"z": 0.8437356455,
				"element": "N" 
			},
			{
				"x": 2.0414787892,
				"y": -2.5233044914,
				"z": -0.1895640168,
				"element": "C" 
			},
			{
				"x": 1.3748171237,
				"y": -2.307952823,
				"z": -1.3937989511,
				"element": "C" 
			},
			{
				"x": 0.599916267,
				"y": -1.1620998684,
				"z": -1.5125145863,
				"element": "C" 
			},
			{
				"x": -1.3365623957,
				"y": 4.6324228636,
				"z": 0.3391926642,
				"element": "H" 
			},
			{
				"x": -2.7522718456,
				"y": 3.6988915784,
				"z": 0.8286521574,
				"element": "H" 
			},
			{
				"x": -2.6923409903,
				"y": 4.4234107728,
				"z": -0.7986767125,
				"element": "H" 
			},
			{
				"x": 2.6606510246,
				"y": -3.4048904484,
				"z": -0.039370293,
				"element": "H" 
			},
			{
				"x": 1.4587227455,
				"y": -3.0155693324,
				"z": -2.2112578153,
				"element": "H" 
			},
			{
				"x": 0.0602921555,
				"y": -0.9509938046,
				"z": -2.4286012413,
				"element": "H" 
			}
		],
		 "valence_orbital": [ 
			{
				"type": "occ",
				"energy": -0.32144,
				"method": "rhf"
			},
			{
				"type": "occ",
				"energy": -0.29001,
				"method": "rhf"
			},
			{
				"type": "occ",
				"energy": -0.28927,
				"method": "rhf"
			},
			{
				"type": "occ",
				"energy": -0.28272,
				"method": "rhf"
			},
			{
				"type": "occ",
				"energy": -0.26111,
				"method": "rhf"
			},
			{
				"type": "unocc",
				"energy": -0.07688,
				"method": "rhf"
			},
			{
				"type": "unocc",
				"energy": -0.04381,
				"method": "rhf"
			},
			{
				"type": "unocc",
				"energy": 0.00444,
				"method": "rhf"
			},
			{
				"type": "unocc",
				"energy": 0.03272,
				"method": "rhf"
			},
			{
				"type": "unocc",
				"energy": 0.04625,
				"method": "rhf"
			}
		],
		"cosmo_sigma_profile": { 
			"-0.025": 0.0,
			"-0.024": 0.0,
			"-0.023": 0.0,
			"-0.022": 0.0,
			"-0.021": 0.0,
			"-0.02": 0.0,
			"-0.019": 0.0,
			"-0.018": 0.0,
			"-0.017": 0.0,
			"-0.016": 0.0,
			"-0.015": 0.0,
			"-0.014": 0.0,
			"-0.013": 0.0,
			"-0.012": 0.0,
			"-0.011": 0.0,
			"-0.01": 0.0,
			"-0.009": 0.90205628949,
			"-0.008": 6.75301412904,
			"-0.007": 7.92152919646,
			"-0.006": 10.6060053961,
			"-0.005": 10.4130303166,
			"-0.004": 15.9349320989,
			"-0.003": 21.8193908181,
			"-0.002": 23.4781530425,
			"-0.001": 20.4812276387,
			"0.0": 15.2092074495,
			"0.001": 8.92966353407,
			"0.002": 8.6399309884,
			"0.003": 9.67577669132,
			"0.004": 10.3348677137,
			"0.005": 8.21936532731,
			"0.006": 6.67606389817,
			"0.007": 4.64143677101,
			"0.008": 4.58584732679,
			"0.009": 3.44956456531,
			"0.01": 3.5040683248,
			"0.011": 4.17613043073,
			"0.012": 3.29294084718,
			"0.013": 1.84268544004,
			"0.014": 0.547109677834,
			"0.015": 0.00771166187568,
			"0.016": 0.0,
			"0.017": 0.0,
			"0.018": 0.0,
			"0.019": 0.0,
			"0.02": 0.0,
			"0.021": 0.0,
			"0.022": 0.0,
			"0.023": 0.0,
			"0.024": 0.0,
			"0.025": 0.0
		}
	}
}
