{
	 "smiles": "OC(=O)C1=CC2=C(SCC(=O)N2)C=C1", 
	 "Tm": 525.15, 
	 "num_atms": 21, 
	 "gaussian": { 
		 "optdone": 1, 
		 "sigma_profile": "yes", 
		 "theory": "DFT", 
		 "functional": "B3LYP", 
		 "basiset": "6-31G**", 
		 "properties": { 
			 "R2extent": 3737.9641, 
			 "electric_dipole_moment_norm": 2.92964068957, 
			 "electric_quadrupole_moment_norm": 26.4983579637, 
			 "total_energy": -1025.81153054, 
			 "HOMO_LUMO_gap": 0.17011, 
			 "cosmo_polarized_energy": -22.02, 
			 "cosmo_cavitation_energy": 27.28, 
			 "cosmo_dispersion_energy": -20.86, 
			 "cosmo_repulsion_energy": 1.57, 
			 "cosmo_total_nonelectrostatic_energy": 8.0, 
			 "SMD_solvation_energy": 5.87 
		},
		"coords": [
			{
				"x": -2.8352390002,
				"y": -1.4844798782,
				"z": 2.7760267213,
				"element": "O" 
			},
			{
				"x": -1.5330804426,
				"y": -1.8697840919,
				"z": 2.8757203311,
				"element": "C" 
			},
			{
				"x": -1.1725929025,
				"y": -2.5463281578,
				"z": 3.8091200283,
				"element": "O" 
			},
			{
				"x": -0.6097444624,
				"y": -1.4158899753,
				"z": 1.7863253632,
				"element": "C" 
			},
			{
				"x": -1.0636259249,
				"y": -1.0531732488,
				"z": 0.5131812227,
				"element": "C" 
			},
			{
				"x": -0.1648052937,
				"y": -0.6636237249,
				"z": -0.4857279779,
				"element": "C" 
			},
			{
				"x": 1.212480621,
				"y": -0.6012684557,
				"z": -0.1900516965,
				"element": "C" 
			},
			{
				"x": 2.3799860201,
				"y": -0.1631939627,
				"z": -1.4491494737,
				"element": "S" 
			},
			{
				"x": 1.3067441883,
				"y": 0.9665413424,
				"z": -2.4099425401,
				"element": "C" 
			},
			{
				"x": -0.0304933954,
				"y": 0.3417439189,
				"z": -2.776098482,
				"element": "C" 
			},
			{
				"x": -0.5602645804,
				"y": 0.5044889044,
				"z": -3.8609050134,
				"element": "O" 
			},
			{
				"x": -0.6430839298,
				"y": -0.3863557047,
				"z": -1.7759304044,
				"element": "N" 
			},
			{
				"x": 1.6581355035,
				"y": -0.9604634738,
				"z": 1.0881966135,
				"element": "C" 
			},
			{
				"x": 0.7633465426,
				"y": -1.3853583208,
				"z": 2.0624943053,
				"element": "C" 
			},
			{
				"x": -2.9301364583,
				"y": -0.7971380943,
				"z": 2.1024270365,
				"element": "H" 
			},
			{
				"x": -2.1187679697,
				"y": -1.1207583853,
				"z": 0.2568943289,
				"element": "H" 
			},
			{
				"x": 1.829433111,
				"y": 1.2086433335,
				"z": -3.3351098478,
				"element": "H" 
			},
			{
				"x": 1.1400603189,
				"y": 1.8911649251,
				"z": -1.8463176916,
				"element": "H" 
			},
			{
				"x": -1.5699495892,
				"y": -0.7115296895,
				"z": -2.0212400131,
				"element": "H" 
			},
			{
				"x": 2.7197536343,
				"y": -0.9087459598,
				"z": 1.3093282188,
				"element": "H" 
			},
			{
				"x": 1.1047440093,
				"y": -1.6836913007,
				"z": 3.0470589709,
				"element": "H" 
			}
		],
		 "valence_orbital": [ 
			{
				"type": "occ",
				"energy": -0.31315,
				"method": "rhf"
			},
			{
				"type": "occ",
				"energy": -0.2818,
				"method": "rhf"
			},
			{
				"type": "occ",
				"energy": -0.28001,
				"method": "rhf"
			},
			{
				"type": "occ",
				"energy": -0.25788,
				"method": "rhf"
			},
			{
				"type": "occ",
				"energy": -0.23485,
				"method": "rhf"
			},
			{
				"type": "unocc",
				"energy": -0.06474,
				"method": "rhf"
			},
			{
				"type": "unocc",
				"energy": -0.04367,
				"method": "rhf"
			},
			{
				"type": "unocc",
				"energy": -0.0044,
				"method": "rhf"
			},
			{
				"type": "unocc",
				"energy": 0.01912,
				"method": "rhf"
			},
			{
				"type": "unocc",
				"energy": 0.03912,
				"method": "rhf"
			}
		],
		"cosmo_sigma_profile": { 
			"-0.025": 0.0,
			"-0.024": 0.0,
			"-0.023": 0.0,
			"-0.022": 0.0,
			"-0.021": 0.0,
			"-0.02": 0.0,
			"-0.019": 0.42693102742,
			"-0.018": 1.27075467016,
			"-0.017": 0.829425674383,
			"-0.016": 1.07100790611,
			"-0.015": 2.61202984822,
			"-0.014": 2.24124910105,
			"-0.013": 2.89071363663,
			"-0.012": 2.54505706421,
			"-0.011": 2.29200721507,
			"-0.01": 2.30626010878,
			"-0.009": 4.09013419219,
			"-0.008": 7.89696313244,
			"-0.007": 8.13670447722,
			"-0.006": 10.6055977255,
			"-0.005": 9.58654985288,
			"-0.004": 10.7096889526,
			"-0.003": 10.3569646777,
			"-0.002": 9.66292546284,
			"-0.001": 11.9131689804,
			"0.0": 12.6591924589,
			"0.001": 16.7783391682,
			"0.002": 16.9329388506,
			"0.003": 12.0093969002,
			"0.004": 6.21563276503,
			"0.005": 5.86062082545,
			"0.006": 6.04074294132,
			"0.007": 5.22760987366,
			"0.008": 3.72805980045,
			"0.009": 4.6533178744,
			"0.01": 6.8230541819,
			"0.011": 7.75556524665,
			"0.012": 9.94730046118,
			"0.013": 4.28978424225,
			"0.014": 0.165967974094,
			"0.015": 0.0,
			"0.016": 0.0,
			"0.017": 0.0,
			"0.018": 0.0,
			"0.019": 0.0,
			"0.02": 0.0,
			"0.021": 0.0,
			"0.022": 0.0,
			"0.023": 0.0,
			"0.024": 0.0,
			"0.025": 0.0
		}
	}
}
