{
	 "smiles": "CC1=CC=C(NC(=O)OC(C)(C)C)S1", 
	 "Tm": 377.15, 
	 "num_atms": 29, 
	 "gaussian": { 
		 "optdone": 1, 
		 "sigma_profile": "yes", 
		 "theory": "DFT", 
		 "functional": "B3LYP", 
		 "basiset": "6-31G**", 
		 "properties": { 
			 "R2extent": 3963.3848, 
			 "electric_dipole_moment_norm": 1.70191557076, 
			 "electric_quadrupole_moment_norm": 10.8713250025, 
			 "total_energy": -993.516531144, 
			 "HOMO_LUMO_gap": 0.18975, 
			 "cosmo_polarized_energy": -9.66, 
			 "cosmo_cavitation_energy": 33.07, 
			 "cosmo_dispersion_energy": -23.65, 
			 "cosmo_repulsion_energy": 1.83, 
			 "cosmo_total_nonelectrostatic_energy": 11.25, 
			 "SMD_solvation_energy": 6.74 
		},
		"coords": [
			{
				"x": -3.617290151,
				"y": 3.1802570558,
				"z": 0.6945002111,
				"element": "C" 
			},
			{
				"x": -2.1319519743,
				"y": 3.0072209632,
				"z": 0.8007996273,
				"element": "C" 
			},
			{
				"x": -1.1884262434,
				"y": 3.9163237247,
				"z": 1.1843754464,
				"element": "C" 
			},
			{
				"x": 0.1468119727,
				"y": 3.4086543191,
				"z": 1.1707707661,
				"element": "C" 
			},
			{
				"x": 0.2125666867,
				"y": 2.098262276,
				"z": 0.771460792,
				"element": "C" 
			},
			{
				"x": 1.3956883558,
				"y": 1.3618800861,
				"z": 0.6708504933,
				"element": "N" 
			},
			{
				"x": 1.6484027719,
				"y": 0.059322273,
				"z": 0.2936778986,
				"element": "C" 
			},
			{
				"x": 2.7824713082,
				"y": -0.3898602569,
				"z": 0.2779757202,
				"element": "O" 
			},
			{
				"x": 0.5144046679,
				"y": -0.5854880211,
				"z": -0.0309666131,
				"element": "O" 
			},
			{
				"x": 0.5420041949,
				"y": -1.9985887102,
				"z": -0.4657510021,
				"element": "C" 
			},
			{
				"x": 1.3584037065,
				"y": -2.1258585843,
				"z": -1.7552671822,
				"element": "C" 
			},
			{
				"x": -0.93599215,
				"y": -2.2992539896,
				"z": -0.7222942176,
				"element": "C" 
			},
			{
				"x": 1.0910192613,
				"y": -2.875012582,
				"z": 0.6638664269,
				"element": "C" 
			},
			{
				"x": -1.3812169966,
				"y": 1.4680339456,
				"z": 0.4042793328,
				"element": "S" 
			},
			{
				"x": -3.8875266223,
				"y": 4.2006122212,
				"z": 0.9814185089,
				"element": "H" 
			},
			{
				"x": -3.9824157727,
				"y": 3.0136865587,
				"z": -0.3260207914,
				"element": "H" 
			},
			{
				"x": -4.1631165694,
				"y": 2.4937866536,
				"z": 1.3528033435,
				"element": "H" 
			},
			{
				"x": -1.4354374619,
				"y": 4.9327524199,
				"z": 1.4729788989,
				"element": "H" 
			},
			{
				"x": 1.0211726271,
				"y": 3.989220349,
				"z": 1.4450239266,
				"element": "H" 
			},
			{
				"x": 2.2431280586,
				"y": 1.8546895199,
				"z": 0.9163012668,
				"element": "H" 
			},
			{
				"x": 2.4083517452,
				"y": -1.8908589663,
				"z": -1.579519402,
				"element": "H" 
			},
			{
				"x": 0.9652429327,
				"y": -1.4512880182,
				"z": -2.5222242989,
				"element": "H" 
			},
			{
				"x": 1.2836592551,
				"y": -3.1505271736,
				"z": -2.1334650387,
				"element": "H" 
			},
			{
				"x": -1.5237035057,
				"y": -2.159559601,
				"z": 0.189242045,
				"element": "H" 
			},
			{
				"x": -1.0513975114,
				"y": -3.3351249954,
				"z": -1.054932677,
				"element": "H" 
			},
			{
				"x": -1.3370341414,
				"y": -1.6391559124,
				"z": -1.4964155692,
				"element": "H" 
			},
			{
				"x": 0.5110623777,
				"y": -2.7225476962,
				"z": 1.5794246612,
				"element": "H" 
			},
			{
				"x": 2.1380250799,
				"y": -2.6464148673,
				"z": 0.8640497393,
				"element": "H" 
			},
			{
				"x": 1.007094098,
				"y": -3.9290629911,
				"z": 0.3801576874,
				"element": "H" 
			}
		],
		 "valence_orbital": [ 
			{
				"type": "occ",
				"energy": -0.30429,
				"method": "rhf"
			},
			{
				"type": "occ",
				"energy": -0.29203,
				"method": "rhf"
			},
			{
				"type": "occ",
				"energy": -0.2709,
				"method": "rhf"
			},
			{
				"type": "occ",
				"energy": -0.24505,
				"method": "rhf"
			},
			{
				"type": "occ",
				"energy": -0.19517,
				"method": "rhf"
			},
			{
				"type": "unocc",
				"energy": -0.00542,
				"method": "rhf"
			},
			{
				"type": "unocc",
				"energy": 0.0358,
				"method": "rhf"
			},
			{
				"type": "unocc",
				"energy": 0.05526,
				"method": "rhf"
			},
			{
				"type": "unocc",
				"energy": 0.0695,
				"method": "rhf"
			},
			{
				"type": "unocc",
				"energy": 0.08905,
				"method": "rhf"
			}
		],
		"cosmo_sigma_profile": { 
			"-0.025": 0.0,
			"-0.024": 0.0,
			"-0.023": 0.0,
			"-0.022": 0.0,
			"-0.021": 0.0,
			"-0.02": 0.0,
			"-0.019": 0.0,
			"-0.018": 0.0,
			"-0.017": 0.0,
			"-0.016": 0.157482846897,
			"-0.015": 1.00322707732,
			"-0.014": 1.03242150669,
			"-0.013": 0.952329758831,
			"-0.012": 0.685384635624,
			"-0.011": 0.945790420855,
			"-0.01": 1.7473830682,
			"-0.009": 0.657492697935,
			"-0.008": 1.18694876215,
			"-0.007": 1.83534148658,
			"-0.006": 3.59341309173,
			"-0.005": 8.00777843932,
			"-0.004": 22.241720579,
			"-0.003": 27.1741933202,
			"-0.002": 25.2841119767,
			"-0.001": 30.2014293376,
			"0.0": 35.3659834092,
			"0.001": 22.549486314,
			"0.002": 12.7696018985,
			"0.003": 12.6062607229,
			"0.004": 12.5632108528,
			"0.005": 14.5341449357,
			"0.006": 9.83979884524,
			"0.007": 3.63018516333,
			"0.008": 0.972975985703,
			"0.009": 1.01057409759,
			"0.01": 1.41948153806,
			"0.011": 1.52734053713,
			"0.012": 2.47601430288,
			"0.013": 3.38360697925,
			"0.014": 0.336522547034,
			"0.015": 0.0,
			"0.016": 0.0,
			"0.017": 0.0,
			"0.018": 0.0,
			"0.019": 0.0,
			"0.02": 0.0,
			"0.021": 0.0,
			"0.022": 0.0,
			"0.023": 0.0,
			"0.024": 0.0,
			"0.025": 0.0
		}
	}
}
