{
	 "smiles": "CC(=O)OC1=C(C=CC2=CC=CC=C2)C=CC=C1", 
	 "Tm": 329.15, 
	 "num_atms": 32, 
	 "gaussian": { 
		 "optdone": 1, 
		 "sigma_profile": "yes", 
		 "theory": "DFT", 
		 "functional": "B3LYP", 
		 "basiset": "6-31G**", 
		 "properties": { 
			 "R2extent": 6389.3507, 
			 "electric_dipole_moment_norm": 1.73735795103, 
			 "electric_quadrupole_moment_norm": 14.8644023005, 
			 "total_energy": -768.5913388, 
			 "HOMO_LUMO_gap": 0.15237, 
			 "cosmo_polarized_energy": -10.84, 
			 "cosmo_cavitation_energy": 37.01, 
			 "cosmo_dispersion_energy": -26.06, 
			 "cosmo_repulsion_energy": 2.01, 
			 "cosmo_total_nonelectrostatic_energy": 12.96, 
			 "SMD_solvation_energy": 7.44 
		},
		"coords": [
			{
				"x": 4.3303225342,
				"y": 0.8914198626,
				"z": -0.9357433573,
				"element": "C" 
			},
			{
				"x": 3.7311498282,
				"y": -0.4900943177,
				"z": -0.8394036753,
				"element": "C" 
			},
			{
				"x": 4.0373584806,
				"y": -1.4445289776,
				"z": -1.5084904933,
				"element": "O" 
			},
			{
				"x": 2.7665548423,
				"y": -0.5029529171,
				"z": 0.1386089319,
				"element": "O" 
			},
			{
				"x": 2.0634087563,
				"y": -1.6740899185,
				"z": 0.4380989724,
				"element": "C" 
			},
			{
				"x": 0.6622618114,
				"y": -1.5611846614,
				"z": 0.5495428569,
				"element": "C" 
			},
			{
				"x": -0.0005844542,
				"y": -0.2834060256,
				"z": 0.2742835923,
				"element": "C" 
			},
			{
				"x": -1.2681599401,
				"y": 0.038408462,
				"z": 0.6045617934,
				"element": "C" 
			},
			{
				"x": -1.9559885104,
				"y": 1.3015143762,
				"z": 0.3198185739,
				"element": "C" 
			},
			{
				"x": -3.2158590378,
				"y": 1.5336367574,
				"z": 0.9032283036,
				"element": "C" 
			},
			{
				"x": -3.9118249059,
				"y": 2.7194649297,
				"z": 0.6764040975,
				"element": "C" 
			},
			{
				"x": -3.3650656039,
				"y": 3.7049120422,
				"z": -0.1465087509,
				"element": "C" 
			},
			{
				"x": -2.1181997716,
				"y": 3.4884590605,
				"z": -0.7419301122,
				"element": "C" 
			},
			{
				"x": -1.424344633,
				"y": 2.3039858683,
				"z": -0.5158038748,
				"element": "C" 
			},
			{
				"x": -0.0393398708,
				"y": -2.7247213848,
				"z": 0.9235501561,
				"element": "C" 
			},
			{
				"x": 0.617320237,
				"y": -3.9213610009,
				"z": 1.1849811851,
				"element": "C" 
			},
			{
				"x": 2.0087317589,
				"y": -3.9939040763,
				"z": 1.0754644119,
				"element": "C" 
			},
			{
				"x": 2.7353701691,
				"y": -2.8662675259,
				"z": 0.7000678811,
				"element": "C" 
			},
			{
				"x": 5.1159991579,
				"y": 0.8917777865,
				"z": -1.6903448547,
				"element": "H" 
			},
			{
				"x": 3.5578890223,
				"y": 1.6188254672,
				"z": -1.2028610526,
				"element": "H" 
			},
			{
				"x": 4.738320734,
				"y": 1.1920651215,
				"z": 0.0335538047,
				"element": "H" 
			},
			{
				"x": 0.6200705678,
				"y": 0.4574942108,
				"z": -0.2193251433,
				"element": "H" 
			},
			{
				"x": -1.8653464257,
				"y": -0.682126839,
				"z": 1.161157273,
				"element": "H" 
			},
			{
				"x": -3.6472528835,
				"y": 0.7707530065,
				"z": 1.546737273,
				"element": "H" 
			},
			{
				"x": -4.8813898918,
				"y": 2.8730579743,
				"z": 1.1417387978,
				"element": "H" 
			},
			{
				"x": -3.904857126,
				"y": 4.6296412317,
				"z": -0.3281545793,
				"element": "H" 
			},
			{
				"x": -1.6888031808,
				"y": 4.2459963998,
				"z": -1.3917363921,
				"element": "H" 
			},
			{
				"x": -0.4661637996,
				"y": 2.1494976108,
				"z": -1.0021448983,
				"element": "H" 
			},
			{
				"x": -1.1218993072,
				"y": -2.6875730279,
				"z": 0.9883742227,
				"element": "H" 
			},
			{
				"x": 0.0452149881,
				"y": -4.800462126,
				"z": 1.4660247017,
				"element": "H" 
			},
			{
				"x": 2.5286948711,
				"y": -4.9256611317,
				"z": 1.2757136418,
				"element": "H" 
			},
			{
				"x": 3.8129115831,
				"y": -2.9069762374,
				"z": 0.6041367132,
				"element": "H" 
			}
		],
		 "valence_orbital": [ 
			{
				"type": "occ",
				"energy": -0.28019,
				"method": "rhf"
			},
			{
				"type": "occ",
				"energy": -0.26254,
				"method": "rhf"
			},
			{
				"type": "occ",
				"energy": -0.25168,
				"method": "rhf"
			},
			{
				"type": "occ",
				"energy": -0.24465,
				"method": "rhf"
			},
			{
				"type": "occ",
				"energy": -0.20557,
				"method": "rhf"
			},
			{
				"type": "unocc",
				"energy": -0.0532,
				"method": "rhf"
			},
			{
				"type": "unocc",
				"energy": -0.01059,
				"method": "rhf"
			},
			{
				"type": "unocc",
				"energy": -0.00112,
				"method": "rhf"
			},
			{
				"type": "unocc",
				"energy": 0.00996,
				"method": "rhf"
			},
			{
				"type": "unocc",
				"energy": 0.01775,
				"method": "rhf"
			}
		],
		"cosmo_sigma_profile": { 
			"-0.025": 0.0,
			"-0.024": 0.0,
			"-0.023": 0.0,
			"-0.022": 0.0,
			"-0.021": 0.0,
			"-0.02": 0.0,
			"-0.019": 0.0,
			"-0.018": 0.0,
			"-0.017": 0.0,
			"-0.016": 0.0,
			"-0.015": 0.0,
			"-0.014": 0.0,
			"-0.013": 0.0,
			"-0.012": 0.0,
			"-0.011": 0.0,
			"-0.01": 0.0,
			"-0.009": 0.0,
			"-0.008": 0.0851183905926,
			"-0.007": 5.87870094166,
			"-0.006": 21.7910777717,
			"-0.005": 26.2254705667,
			"-0.004": 29.0032119223,
			"-0.003": 27.3166562229,
			"-0.002": 22.2610409377,
			"-0.001": 16.638444489,
			"0.0": 13.6225871559,
			"0.001": 15.5240537862,
			"0.002": 19.1675013965,
			"0.003": 23.6633039002,
			"0.004": 27.6555694009,
			"0.005": 23.0500480298,
			"0.006": 8.64816288373,
			"0.007": 2.58184779194,
			"0.008": 1.99256400233,
			"0.009": 1.74976337456,
			"0.01": 3.11910910365,
			"0.011": 4.33713369275,
			"0.012": 2.32014437699,
			"0.013": 0.0524717609944,
			"0.014": 0.0,
			"0.015": 0.0,
			"0.016": 0.0,
			"0.017": 0.0,
			"0.018": 0.0,
			"0.019": 0.0,
			"0.02": 0.0,
			"0.021": 0.0,
			"0.022": 0.0,
			"0.023": 0.0,
			"0.024": 0.0,
			"0.025": 0.0
		}
	}
}
