{
	 "smiles": "CN(C)S(=O)(=O)N(SC(F)(Cl)Cl)C1=CC=C(C)C=C1", 
	 "Tm": 369.15, 
	 "num_atms": 32, 
	 "gaussian": { 
		 "optdone": 1, 
		 "sigma_profile": "yes", 
		 "theory": "DFT", 
		 "functional": "B3LYP", 
		 "basiset": "6-31G**", 
		 "properties": { 
			 "R2extent": 8325.3378, 
			 "electric_dipole_moment_norm": 2.18066863829, 
			 "electric_quadrupole_moment_norm": 17.7717364391, 
			 "total_energy": -2465.32754277, 
			 "HOMO_LUMO_gap": 0.19602, 
			 "cosmo_polarized_energy": -11.78, 
			 "cosmo_cavitation_energy": 41.44, 
			 "cosmo_dispersion_energy": -28.49, 
			 "cosmo_repulsion_energy": 2.11, 
			 "cosmo_total_nonelectrostatic_energy": 15.06, 
			 "SMD_solvation_energy": 5.57 
		},
		"coords": [
			{
				"x": -3.4270668161,
				"y": 2.393065448,
				"z": -0.4299042542,
				"element": "C" 
			},
			{
				"x": -2.7204599957,
				"y": 1.7472555926,
				"z": 0.6789618764,
				"element": "N" 
			},
			{
				"x": -2.6101414901,
				"y": 2.4893112413,
				"z": 1.9359207397,
				"element": "C" 
			},
			{
				"x": -1.6988133832,
				"y": 0.4819638139,
				"z": 0.4117810358,
				"element": "S" 
			},
			{
				"x": -2.1493177916,
				"y": -0.1965208745,
				"z": -0.8025229414,
				"element": "O" 
			},
			{
				"x": -1.506368722,
				"y": -0.224171712,
				"z": 1.6705608496,
				"element": "O" 
			},
			{
				"x": -0.0985460565,
				"y": 1.1602750516,
				"z": 0.0776053916,
				"element": "N" 
			},
			{
				"x": 0.0625970358,
				"y": 1.834071807,
				"z": -1.5017512179,
				"element": "S" 
			},
			{
				"x": 0.787907248,
				"y": 3.4704521926,
				"z": -1.0979355762,
				"element": "C" 
			},
			{
				"x": 1.9424098895,
				"y": 3.3389140289,
				"z": -0.4195321162,
				"element": "F" 
			},
			{
				"x": -0.257797746,
				"y": 4.5663565494,
				"z": -0.1153546254,
				"element": "Cl" 
			},
			{
				"x": 1.1384072362,
				"y": 4.2224955148,
				"z": -2.6956458148,
				"element": "Cl" 
			},
			{
				"x": 1.0178548767,
				"y": 0.382234469,
				"z": 0.5810315436,
				"element": "C" 
			},
			{
				"x": 1.3655052432,
				"y": -0.8489659147,
				"z": 0.0163608232,
				"element": "C" 
			},
			{
				"x": 2.4467835677,
				"y": -1.5600765207,
				"z": 0.5269561279,
				"element": "C" 
			},
			{
				"x": 3.2007469476,
				"y": -1.0634249366,
				"z": 1.6016938271,
				"element": "C" 
			},
			{
				"x": 4.3879478646,
				"y": -1.8328864457,
				"z": 2.1299016641,
				"element": "C" 
			},
			{
				"x": 2.8334263703,
				"y": 0.1696252909,
				"z": 2.1540605105,
				"element": "C" 
			},
			{
				"x": 1.7507466061,
				"y": 0.8913184274,
				"z": 1.6518021841,
				"element": "C" 
			},
			{
				"x": -4.4472706436,
				"y": 2.615227716,
				"z": -0.0992650253,
				"element": "H" 
			},
			{
				"x": -3.4754851605,
				"y": 1.7087783133,
				"z": -1.2751605363,
				"element": "H" 
			},
			{
				"x": -2.9387493357,
				"y": 3.3248466839,
				"z": -0.7364476859,
				"element": "H" 
			},
			{
				"x": -3.6151743514,
				"y": 2.8085997124,
				"z": 2.2290832226,
				"element": "H" 
			},
			{
				"x": -2.2173187799,
				"y": 1.8328104024,
				"z": 2.7115235722,
				"element": "H" 
			},
			{
				"x": -1.9675613545,
				"y": 3.3710794648,
				"z": 1.8367203892,
				"element": "H" 
			},
			{
				"x": 0.7847437787,
				"y": -1.2456277827,
				"z": -0.8109960314,
				"element": "H" 
			},
			{
				"x": 2.7088026671,
				"y": -2.5190870124,
				"z": 0.0874215603,
				"element": "H" 
			},
			{
				"x": 4.1752507036,
				"y": -2.9051932461,
				"z": 2.1869066703,
				"element": "H" 
			},
			{
				"x": 4.6749181588,
				"y": -1.4907910156,
				"z": 3.1280516295,
				"element": "H" 
			},
			{
				"x": 5.2605586835,
				"y": -1.7109452028,
				"z": 1.4762671785,
				"element": "H" 
			},
			{
				"x": 3.4004107966,
				"y": 0.5717941787,
				"z": 2.9895069586,
				"element": "H" 
			},
			{
				"x": 1.4706539526,
				"y": 1.8476147648,
				"z": 2.0800980699,
				"element": "H" 
			}
		],
		 "valence_orbital": [ 
			{
				"type": "occ",
				"energy": -0.29086,
				"method": "rhf"
			},
			{
				"type": "occ",
				"energy": -0.27968,
				"method": "rhf"
			},
			{
				"type": "occ",
				"energy": -0.25734,
				"method": "rhf"
			},
			{
				"type": "occ",
				"energy": -0.25499,
				"method": "rhf"
			},
			{
				"type": "occ",
				"energy": -0.24249,
				"method": "rhf"
			},
			{
				"type": "unocc",
				"energy": -0.04647,
				"method": "rhf"
			},
			{
				"type": "unocc",
				"energy": -0.03175,
				"method": "rhf"
			},
			{
				"type": "unocc",
				"energy": -0.01691,
				"method": "rhf"
			},
			{
				"type": "unocc",
				"energy": -0.00928,
				"method": "rhf"
			},
			{
				"type": "unocc",
				"energy": 0.015,
				"method": "rhf"
			}
		],
		"cosmo_sigma_profile": { 
			"-0.025": 0.0,
			"-0.024": 0.0,
			"-0.023": 0.0,
			"-0.022": 0.0,
			"-0.021": 0.0,
			"-0.02": 0.0,
			"-0.019": 0.0,
			"-0.018": 0.0,
			"-0.017": 0.0,
			"-0.016": 0.0,
			"-0.015": 0.0,
			"-0.014": 0.0,
			"-0.013": 0.0,
			"-0.012": 0.0,
			"-0.011": 0.0,
			"-0.01": 0.01324259508,
			"-0.009": 0.174741854651,
			"-0.008": 0.173024843872,
			"-0.007": 1.75912999873,
			"-0.006": 11.8602882589,
			"-0.005": 19.8755639448,
			"-0.004": 31.9160560555,
			"-0.003": 36.9431279675,
			"-0.002": 32.3310688487,
			"-0.001": 28.7741706497,
			"0.0": 29.3413988078,
			"0.001": 32.1424136041,
			"0.002": 36.1513156761,
			"0.003": 23.4570281865,
			"0.004": 13.4948844851,
			"0.005": 6.18156103148,
			"0.006": 4.45278240275,
			"0.007": 4.25361106757,
			"0.008": 4.52676362772,
			"0.009": 6.95704415845,
			"0.01": 8.27610367785,
			"0.011": 2.29149358015,
			"0.012": 0.0,
			"0.013": 0.0,
			"0.014": 0.0,
			"0.015": 0.0,
			"0.016": 0.0,
			"0.017": 0.0,
			"0.018": 0.0,
			"0.019": 0.0,
			"0.02": 0.0,
			"0.021": 0.0,
			"0.022": 0.0,
			"0.023": 0.0,
			"0.024": 0.0,
			"0.025": 0.0
		}
	}
}
