{
	 "smiles": "OC1=CC2=C(CCC(=O)N2)C=C1", 
	 "Tm": 505.15, 
	 "num_atms": 21, 
	 "gaussian": { 
		 "optdone": 1, 
		 "sigma_profile": "yes", 
		 "theory": "DFT", 
		 "functional": "B3LYP", 
		 "basiset": "6-31G**", 
		 "properties": { 
			 "R2extent": 2476.3004, 
			 "electric_dipole_moment_norm": 4.16815731469, 
			 "electric_quadrupole_moment_norm": 8.29831032078, 
			 "total_energy": -553.606963527, 
			 "HOMO_LUMO_gap": 0.20153, 
			 "cosmo_polarized_energy": -14.97, 
			 "cosmo_cavitation_energy": 24.43, 
			 "cosmo_dispersion_energy": -18.51, 
			 "cosmo_repulsion_energy": 1.47, 
			 "cosmo_total_nonelectrostatic_energy": 7.38, 
			 "SMD_solvation_energy": 4.72 
		},
		"coords": [
			{
				"x": -2.9798887863,
				"y": 2.6668910278,
				"z": 0.3116973994,
				"element": "O" 
			},
			{
				"x": -1.8689940535,
				"y": 1.9267184482,
				"z": 0.0215089443,
				"element": "C" 
			},
			{
				"x": -2.0769396652,
				"y": 0.6072963791,
				"z": -0.3890838199,
				"element": "C" 
			},
			{
				"x": -0.98006652,
				"y": -0.1985809112,
				"z": -0.6982997959,
				"element": "C" 
			},
			{
				"x": 0.3366541914,
				"y": 0.2935687355,
				"z": -0.600827113,
				"element": "C" 
			},
			{
				"x": 1.4750386022,
				"y": -0.6583590844,
				"z": -0.8859169879,
				"element": "C" 
			},
			{
				"x": 1.0958664557,
				"y": -1.6471118746,
				"z": -1.9983660102,
				"element": "C" 
			},
			{
				"x": -0.243965203,
				"y": -2.3235032303,
				"z": -1.7465356503,
				"element": "C" 
			},
			{
				"x": -0.5161126656,
				"y": -3.4585062469,
				"z": -2.1030576473,
				"element": "O" 
			},
			{
				"x": -1.1757610083,
				"y": -1.5294720913,
				"z": -1.1031049669,
				"element": "N" 
			},
			{
				"x": 0.5115144488,
				"y": 1.6171485933,
				"z": -0.2035045158,
				"element": "C" 
			},
			{
				"x": -0.5715939535,
				"y": 2.4407368994,
				"z": 0.1100051719,
				"element": "C" 
			},
			{
				"x": -2.7066562965,
				"y": 3.5554325951,
				"z": 0.5737404387,
				"element": "H" 
			},
			{
				"x": -3.0923763577,
				"y": 0.2321952192,
				"z": -0.4695109866,
				"element": "H" 
			},
			{
				"x": 1.719840189,
				"y": -1.2246437662,
				"z": 0.0249739848,
				"element": "H" 
			},
			{
				"x": 2.3802179793,
				"y": -0.1068874693,
				"z": -1.1598810181,
				"element": "H" 
			},
			{
				"x": 1.8413069872,
				"y": -2.4343600392,
				"z": -2.127682678,
				"element": "H" 
			},
			{
				"x": 1.0103445842,
				"y": -1.1164323632,
				"z": -2.9566957753,
				"element": "H" 
			},
			{
				"x": -2.0978648311,
				"y": -1.9386571313,
				"z": -1.0223381308,
				"element": "H" 
			},
			{
				"x": 1.5201529102,
				"y": 2.0157658604,
				"z": -0.1277639624,
				"element": "H" 
			},
			{
				"x": -0.4087170073,
				"y": 3.4700604501,
				"z": 0.4201431193,
				"element": "H" 
			}
		],
		 "valence_orbital": [ 
			{
				"type": "occ",
				"energy": -0.33161,
				"method": "rhf"
			},
			{
				"type": "occ",
				"energy": -0.29797,
				"method": "rhf"
			},
			{
				"type": "occ",
				"energy": -0.25084,
				"method": "rhf"
			},
			{
				"type": "occ",
				"energy": -0.23459,
				"method": "rhf"
			},
			{
				"type": "occ",
				"energy": -0.21287,
				"method": "rhf"
			},
			{
				"type": "unocc",
				"energy": -0.01134,
				"method": "rhf"
			},
			{
				"type": "unocc",
				"energy": 0.00034,
				"method": "rhf"
			},
			{
				"type": "unocc",
				"energy": 0.04085,
				"method": "rhf"
			},
			{
				"type": "unocc",
				"energy": 0.06657,
				"method": "rhf"
			},
			{
				"type": "unocc",
				"energy": 0.08886,
				"method": "rhf"
			}
		],
		"cosmo_sigma_profile": { 
			"-0.025": 0.0,
			"-0.024": 0.0,
			"-0.023": 0.0,
			"-0.022": 0.0,
			"-0.021": 0.0,
			"-0.02": 0.0,
			"-0.019": 0.0,
			"-0.018": 0.276825686412,
			"-0.017": 0.9339608577,
			"-0.016": 1.08101571495,
			"-0.015": 1.49179135475,
			"-0.014": 1.86187791306,
			"-0.013": 2.39033655399,
			"-0.012": 1.76625227532,
			"-0.011": 1.61896729538,
			"-0.01": 2.72958638017,
			"-0.009": 2.49261062643,
			"-0.008": 2.48816959117,
			"-0.007": 2.59349736505,
			"-0.006": 6.54008785768,
			"-0.005": 13.8235378809,
			"-0.004": 16.0943140643,
			"-0.003": 15.3510615539,
			"-0.002": 14.0220193034,
			"-0.001": 12.665924925,
			"0.0": 9.11088978787,
			"0.001": 7.90217897161,
			"0.002": 9.31726939819,
			"0.003": 9.64705777392,
			"0.004": 11.518931732,
			"0.005": 11.4788445496,
			"0.006": 6.56830384536,
			"0.007": 3.10284644654,
			"0.008": 2.47848283991,
			"0.009": 3.00972357744,
			"0.01": 2.71905291389,
			"0.011": 3.61771019269,
			"0.012": 2.95708445374,
			"0.013": 5.90208760321,
			"0.014": 3.44354856826,
			"0.015": 0.360975691212,
			"0.016": 0.0,
			"0.017": 0.0,
			"0.018": 0.0,
			"0.019": 0.0,
			"0.02": 0.0,
			"0.021": 0.0,
			"0.022": 0.0,
			"0.023": 0.0,
			"0.024": 0.0,
			"0.025": 0.0
		}
	}
}
