{
	 "smiles": "NC(=O)C1CCCC1", 
	 "Tm": 447.15, 
	 "num_atms": 19, 
	 "gaussian": { 
		 "optdone": 1, 
		 "sigma_profile": "yes", 
		 "theory": "DFT", 
		 "functional": "B3LYP", 
		 "basiset": "6-31G**", 
		 "properties": { 
			 "R2extent": 1358.0676, 
			 "electric_dipole_moment_norm": 3.42112950646, 
			 "electric_quadrupole_moment_norm": 11.8550447608, 
			 "total_energy": -365.268456808, 
			 "HOMO_LUMO_gap": 0.27553, 
			 "cosmo_polarized_energy": -11.71, 
			 "cosmo_cavitation_energy": 20.87, 
			 "cosmo_dispersion_energy": -15.68, 
			 "cosmo_repulsion_energy": 1.34, 
			 "cosmo_total_nonelectrostatic_energy": 6.53, 
			 "SMD_solvation_energy": 3.78 
		},
		"coords": [
			{
				"x": 1.3417884332,
				"y": -1.5144391237,
				"z": 1.1767891752,
				"element": "N" 
			},
			{
				"x": 0.1927183915,
				"y": -0.8489136129,
				"z": 1.5048925809,
				"element": "C" 
			},
			{
				"x": -0.1930555601,
				"y": -0.7539372753,
				"z": 2.6629448198,
				"element": "O" 
			},
			{
				"x": -0.5815703151,
				"y": -0.2452714367,
				"z": 0.335610151,
				"element": "C" 
			},
			{
				"x": -0.7367952173,
				"y": 1.2880278547,
				"z": 0.480128903,
				"element": "C" 
			},
			{
				"x": -2.0214458304,
				"y": 1.6022787912,
				"z": -0.2986888476,
				"element": "C" 
			},
			{
				"x": -2.9632423343,
				"y": 0.457279287,
				"z": 0.1119772202,
				"element": "C" 
			},
			{
				"x": -2.0474461333,
				"y": -0.7868970046,
				"z": 0.2627830793,
				"element": "C" 
			},
			{
				"x": 1.9013621278,
				"y": -1.8942011176,
				"z": 1.9255688563,
				"element": "H" 
			},
			{
				"x": 1.6965127205,
				"y": -1.5490026486,
				"z": 0.2356463642,
				"element": "H" 
			},
			{
				"x": -0.0665224258,
				"y": -0.4648299145,
				"z": -0.6083158714,
				"element": "H" 
			},
			{
				"x": 0.1412050309,
				"y": 1.8359607374,
				"z": 0.1224874372,
				"element": "H" 
			},
			{
				"x": -0.872177216,
				"y": 1.5234576196,
				"z": 1.5418314816,
				"element": "H" 
			},
			{
				"x": -1.8240605489,
				"y": 1.5664236853,
				"z": -1.378416659,
				"element": "H" 
			},
			{
				"x": -2.4271497512,
				"y": 2.5941687629,
				"z": -0.074402272,
				"element": "H" 
			},
			{
				"x": -3.7780861083,
				"y": 0.2966022027,
				"z": -0.6007912807,
				"element": "H" 
			},
			{
				"x": -3.4226742832,
				"y": 0.6952187429,
				"z": 1.0779875455,
				"element": "H" 
			},
			{
				"x": -2.1537918866,
				"y": -1.4694004762,
				"z": -0.5862406373,
				"element": "H" 
			},
			{
				"x": -2.2909690934,
				"y": -1.3474250734,
				"z": 1.1684079536,
				"element": "H" 
			}
		],
		 "valence_orbital": [ 
			{
				"type": "occ",
				"energy": -0.3251,
				"method": "rhf"
			},
			{
				"type": "occ",
				"energy": -0.32356,
				"method": "rhf"
			},
			{
				"type": "occ",
				"energy": -0.31553,
				"method": "rhf"
			},
			{
				"type": "occ",
				"energy": -0.26134,
				"method": "rhf"
			},
			{
				"type": "occ",
				"energy": -0.24108,
				"method": "rhf"
			},
			{
				"type": "unocc",
				"energy": 0.03445,
				"method": "rhf"
			},
			{
				"type": "unocc",
				"energy": 0.06714,
				"method": "rhf"
			},
			{
				"type": "unocc",
				"energy": 0.09676,
				"method": "rhf"
			},
			{
				"type": "unocc",
				"energy": 0.10258,
				"method": "rhf"
			},
			{
				"type": "unocc",
				"energy": 0.13385,
				"method": "rhf"
			}
		],
		"cosmo_sigma_profile": { 
			"-0.025": 0.0,
			"-0.024": 0.0,
			"-0.023": 0.0,
			"-0.022": 0.0,
			"-0.021": 0.0,
			"-0.02": 0.0,
			"-0.019": 0.0,
			"-0.018": 0.0,
			"-0.017": 0.0,
			"-0.016": 0.0,
			"-0.015": 0.0447581159423,
			"-0.014": 0.918920888354,
			"-0.013": 2.63113479922,
			"-0.012": 2.58930348354,
			"-0.011": 2.20460798106,
			"-0.01": 2.1434817,
			"-0.009": 2.43493558537,
			"-0.008": 2.51138869315,
			"-0.007": 2.13331939142,
			"-0.006": 1.48942761716,
			"-0.005": 2.28417166328,
			"-0.004": 3.46741863807,
			"-0.003": 11.1391162747,
			"-0.002": 21.8094191409,
			"-0.001": 24.9368291893,
			"0.0": 21.6973933283,
			"0.001": 19.1891474418,
			"0.002": 6.96047979019,
			"0.003": 3.37212341091,
			"0.004": 2.91074916098,
			"0.005": 2.93022072217,
			"0.006": 2.08436285932,
			"0.007": 1.65201829335,
			"0.008": 1.66993443542,
			"0.009": 1.07109146316,
			"0.01": 1.34022117023,
			"0.011": 1.54167112511,
			"0.012": 1.59750418441,
			"0.013": 2.13019195659,
			"0.014": 4.59331353884,
			"0.015": 3.68250014322,
			"0.016": 0.262208395599,
			"0.017": 0.0,
			"0.018": 0.0,
			"0.019": 0.0,
			"0.02": 0.0,
			"0.021": 0.0,
			"0.022": 0.0,
			"0.023": 0.0,
			"0.024": 0.0,
			"0.025": 0.0
		}
	}
}
