{
	 "smiles": "CC1=NC(C)=C(S1)S(N)(=O)=O", 
	 "Tm": 416.15, 
	 "num_atms": 19, 
	 "gaussian": { 
		 "optdone": 1, 
		 "sigma_profile": "yes", 
		 "theory": "DFT", 
		 "functional": "B3LYP", 
		 "basiset": "6-31G**", 
		 "properties": { 
			 "R2extent": 3161.9104, 
			 "electric_dipole_moment_norm": 5.39177776341, 
			 "electric_quadrupole_moment_norm": 17.2568329597, 
			 "total_energy": -1251.60576692, 
			 "HOMO_LUMO_gap": 0.2012, 
			 "cosmo_polarized_energy": -18.48, 
			 "cosmo_cavitation_energy": 25.85, 
			 "cosmo_dispersion_energy": -19.91, 
			 "cosmo_repulsion_energy": 1.53, 
			 "cosmo_total_nonelectrostatic_energy": 7.47, 
			 "SMD_solvation_energy": 2.58 
		},
		"coords": [
			{
				"x": -3.8517928023,
				"y": -0.7313886346,
				"z": -1.8900466584,
				"element": "C" 
			},
			{
				"x": -2.4627115716,
				"y": -0.2117435736,
				"z": -1.6773644568,
				"element": "C" 
			},
			{
				"x": -2.1927850537,
				"y": 0.8994109955,
				"z": -1.0489429425,
				"element": "N" 
			},
			{
				"x": -0.8387436017,
				"y": 1.1620182442,
				"z": -1.0041484805,
				"element": "C" 
			},
			{
				"x": -0.3879409623,
				"y": 2.4110835268,
				"z": -0.307387181,
				"element": "C" 
			},
			{
				"x": -0.0615522823,
				"y": 0.2085306543,
				"z": -1.6236964489,
				"element": "C" 
			},
			{
				"x": -1.058081786,
				"y": -1.0596125758,
				"z": -2.2965103018,
				"element": "S" 
			},
			{
				"x": 1.7089878589,
				"y": 0.1017862965,
				"z": -1.7787919361,
				"element": "S" 
			},
			{
				"x": 2.2901417221,
				"y": -0.5970557453,
				"z": -0.367893688,
				"element": "N" 
			},
			{
				"x": 1.9673413355,
				"y": -0.871108883,
				"z": -2.8365966853,
				"element": "O" 
			},
			{
				"x": 2.2465348523,
				"y": 1.4596618491,
				"z": -1.7950998284,
				"element": "O" 
			},
			{
				"x": -3.9720445932,
				"y": -1.7385644394,
				"z": -1.4781009307,
				"element": "H" 
			},
			{
				"x": -4.5518736116,
				"y": -0.058160786,
				"z": -1.3924796368,
				"element": "H" 
			},
			{
				"x": -4.1014060064,
				"y": -0.7756045938,
				"z": -2.9553726936,
				"element": "H" 
			},
			{
				"x": -0.6238997676,
				"y": 2.3506533184,
				"z": 0.7613340236,
				"element": "H" 
			},
			{
				"x": -0.9414538763,
				"y": 3.2666055803,
				"z": -0.7063565037,
				"element": "H" 
			},
			{
				"x": 0.6784004335,
				"y": 2.589674215,
				"z": -0.4394059537,
				"element": "H" 
			},
			{
				"x": 2.1503863096,
				"y": -0.0145078181,
				"z": 0.4515724608,
				"element": "H" 
			},
			{
				"x": 1.9701934031,
				"y": -1.5520776305,
				"z": -0.2405121584,
				"element": "H" 
			}
		],
		 "valence_orbital": [ 
			{
				"type": "occ",
				"energy": -0.31963,
				"method": "rhf"
			},
			{
				"type": "occ",
				"energy": -0.31076,
				"method": "rhf"
			},
			{
				"type": "occ",
				"energy": -0.2931,
				"method": "rhf"
			},
			{
				"type": "occ",
				"energy": -0.2816,
				"method": "rhf"
			},
			{
				"type": "occ",
				"energy": -0.25486,
				"method": "rhf"
			},
			{
				"type": "unocc",
				"energy": -0.05366,
				"method": "rhf"
			},
			{
				"type": "unocc",
				"energy": -0.00136,
				"method": "rhf"
			},
			{
				"type": "unocc",
				"energy": 0.01823,
				"method": "rhf"
			},
			{
				"type": "unocc",
				"energy": 0.04999,
				"method": "rhf"
			},
			{
				"type": "unocc",
				"energy": 0.05503,
				"method": "rhf"
			}
		],
		"cosmo_sigma_profile": { 
			"-0.025": 0.0,
			"-0.024": 0.0,
			"-0.023": 0.0,
			"-0.022": 0.0,
			"-0.021": 0.0,
			"-0.02": 0.0,
			"-0.019": 0.0,
			"-0.018": 0.0,
			"-0.017": 0.0,
			"-0.016": 0.357120192632,
			"-0.015": 2.24807820528,
			"-0.014": 1.90936186764,
			"-0.013": 3.27029798162,
			"-0.012": 3.41648232024,
			"-0.011": 2.88248104504,
			"-0.01": 1.92346193595,
			"-0.009": 2.49843092878,
			"-0.008": 2.23602079761,
			"-0.007": 3.30334706688,
			"-0.006": 9.86154020428,
			"-0.005": 12.7023720075,
			"-0.004": 12.8101129443,
			"-0.003": 13.9270891989,
			"-0.002": 18.0339956334,
			"-0.001": 18.3422333043,
			"0.0": 12.3319375641,
			"0.001": 12.5001191178,
			"0.002": 8.8999631698,
			"0.003": 6.72385707053,
			"0.004": 4.95309895176,
			"0.005": 5.93364059506,
			"0.006": 4.84066549104,
			"0.007": 5.48464971474,
			"0.008": 6.83012024361,
			"0.009": 5.50549175569,
			"0.01": 9.63854713412,
			"0.011": 10.0307236659,
			"0.012": 2.31966158103,
			"0.013": 0.884149447051,
			"0.014": 0.844387103595,
			"0.015": 0.0732299228194,
			"0.016": 0.0,
			"0.017": 0.0,
			"0.018": 0.0,
			"0.019": 0.0,
			"0.02": 0.0,
			"0.021": 0.0,
			"0.022": 0.0,
			"0.023": 0.0,
			"0.024": 0.0,
			"0.025": 0.0
		}
	}
}
