{
	 "smiles": "O=C=NC1=CC=C(OCC2=CC=CC=C2)C=C1", 
	 "Tm": 335.15, 
	 "num_atms": 28, 
	 "gaussian": { 
		 "optdone": 1, 
		 "sigma_profile": "yes", 
		 "theory": "DFT", 
		 "functional": "B3LYP", 
		 "basiset": "6-31G**", 
		 "properties": { 
			 "R2extent": 8485.6892, 
			 "electric_dipole_moment_norm": 3.66562807306, 
			 "electric_quadrupole_moment_norm": 12.9994365455, 
			 "total_energy": -745.308837058, 
			 "HOMO_LUMO_gap": 0.20018, 
			 "cosmo_polarized_energy": -8.85, 
			 "cosmo_cavitation_energy": 34.23, 
			 "cosmo_dispersion_energy": -24.5, 
			 "cosmo_repulsion_energy": 1.89, 
			 "cosmo_total_nonelectrostatic_energy": 11.62, 
			 "SMD_solvation_energy": 8.21 
		},
		"coords": [
			{
				"x": 4.5725388141,
				"y": 3.7980527573,
				"z": -4.3699855705,
				"element": "O" 
			},
			{
				"x": 3.9696637325,
				"y": 2.9662276443,
				"z": -3.7888949363,
				"element": "C" 
			},
			{
				"x": 3.341917422,
				"y": 2.0469864526,
				"z": -3.3191141119,
				"element": "N" 
			},
			{
				"x": 2.8174601193,
				"y": 1.6009338709,
				"z": -2.1015448677,
				"element": "C" 
			},
			{
				"x": 2.9686422552,
				"y": 2.3325067592,
				"z": -0.9107748071,
				"element": "C" 
			},
			{
				"x": 2.4332811121,
				"y": 1.8530285498,
				"z": 0.2749243251,
				"element": "C" 
			},
			{
				"x": 1.7354395332,
				"y": 0.6348039596,
				"z": 0.30093885,
				"element": "C" 
			},
			{
				"x": 1.2489275637,
				"y": 0.2600046217,
				"z": 1.5193078592,
				"element": "O" 
			},
			{
				"x": 0.5669494112,
				"y": -0.9890419996,
				"z": 1.6253385839,
				"element": "C" 
			},
			{
				"x": 0.192163586,
				"y": -1.2247216271,
				"z": 3.0686201888,
				"element": "C" 
			},
			{
				"x": -1.0401408282,
				"y": -1.804971841,
				"z": 3.3863773534,
				"element": "C" 
			},
			{
				"x": -1.3744988537,
				"y": -2.0797765662,
				"z": 4.713841573,
				"element": "C" 
			},
			{
				"x": -0.4809914857,
				"y": -1.7652223026,
				"z": 5.7381516188,
				"element": "C" 
			},
			{
				"x": 0.7479082731,
				"y": -1.1772857628,
				"z": 5.4280427992,
				"element": "C" 
			},
			{
				"x": 1.0852221024,
				"y": -0.912404256,
				"z": 4.1012958436,
				"element": "C" 
			},
			{
				"x": 1.5805446573,
				"y": -0.0950610203,
				"z": -0.8834980643,
				"element": "C" 
			},
			{
				"x": 2.122137872,
				"y": 0.3908252255,
				"z": -2.0751413327,
				"element": "C" 
			},
			{
				"x": 3.5071652287,
				"y": 3.2754454412,
				"z": -0.9223613824,
				"element": "H" 
			},
			{
				"x": 2.5421621226,
				"y": 2.4075188685,
				"z": 1.2010745924,
				"element": "H" 
			},
			{
				"x": 1.2254196258,
				"y": -1.7935955469,
				"z": 1.26277294,
				"element": "H" 
			},
			{
				"x": -0.3314956236,
				"y": -0.9875651056,
				"z": 0.9927941379,
				"element": "H" 
			},
			{
				"x": -1.7449448523,
				"y": -2.0407642433,
				"z": 2.592479536,
				"element": "H" 
			},
			{
				"x": -2.3354877171,
				"y": -2.5295869697,
				"z": 4.9463801058,
				"element": "H" 
			},
			{
				"x": -0.7414117667,
				"y": -1.9721195229,
				"z": 6.7721654468,
				"element": "H" 
			},
			{
				"x": 1.4456259636,
				"y": -0.9254255175,
				"z": 6.2217278056,
				"element": "H" 
			},
			{
				"x": 2.0361249388,
				"y": -0.4486800802,
				"z": 3.8593301756,
				"element": "H" 
			},
			{
				"x": 1.0428899666,
				"y": -1.0351615164,
				"z": -0.89608605,
				"element": "H" 
			},
			{
				"x": 2.0057868271,
				"y": -0.1701502726,
				"z": -2.9962626119,
				"element": "H" 
			}
		],
		 "valence_orbital": [ 
			{
				"type": "occ",
				"energy": -0.29714,
				"method": "rhf"
			},
			{
				"type": "occ",
				"energy": -0.26409,
				"method": "rhf"
			},
			{
				"type": "occ",
				"energy": -0.255,
				"method": "rhf"
			},
			{
				"type": "occ",
				"energy": -0.25031,
				"method": "rhf"
			},
			{
				"type": "occ",
				"energy": -0.21529,
				"method": "rhf"
			},
			{
				"type": "unocc",
				"energy": -0.01511,
				"method": "rhf"
			},
			{
				"type": "unocc",
				"energy": -0.0126,
				"method": "rhf"
			},
			{
				"type": "unocc",
				"energy": -0.00788,
				"method": "rhf"
			},
			{
				"type": "unocc",
				"energy": -0.00573,
				"method": "rhf"
			},
			{
				"type": "unocc",
				"energy": 0.0174,
				"method": "rhf"
			}
		],
		"cosmo_sigma_profile": { 
			"-0.025": 0.0,
			"-0.024": 0.0,
			"-0.023": 0.0,
			"-0.022": 0.0,
			"-0.021": 0.0,
			"-0.02": 0.0,
			"-0.019": 0.0,
			"-0.018": 0.0,
			"-0.017": 0.0,
			"-0.016": 0.0,
			"-0.015": 0.0,
			"-0.014": 0.0,
			"-0.013": 0.0,
			"-0.012": 0.0,
			"-0.011": 0.0,
			"-0.01": 0.0,
			"-0.009": 0.0,
			"-0.008": 1.24249526645,
			"-0.007": 7.39418643467,
			"-0.006": 19.3294223198,
			"-0.005": 23.1637848536,
			"-0.004": 21.3065188246,
			"-0.003": 21.0632284093,
			"-0.002": 19.3361333803,
			"-0.001": 17.172213353,
			"0.0": 16.2375661411,
			"0.001": 17.0591119437,
			"0.002": 19.2702434657,
			"0.003": 26.6356105981,
			"0.004": 22.8180225697,
			"0.005": 16.4949768996,
			"0.006": 12.7557369743,
			"0.007": 5.93007618611,
			"0.008": 7.41907576325,
			"0.009": 0.716278282446,
			"0.01": 0.319028418402,
			"0.011": 0.0,
			"0.012": 0.0,
			"0.013": 0.0,
			"0.014": 0.0,
			"0.015": 0.0,
			"0.016": 0.0,
			"0.017": 0.0,
			"0.018": 0.0,
			"0.019": 0.0,
			"0.02": 0.0,
			"0.021": 0.0,
			"0.022": 0.0,
			"0.023": 0.0,
			"0.024": 0.0,
			"0.025": 0.0
		}
	}
}
