{
	 "smiles": "CC1=NN=C(NC(=O)CCl)S1", 
	 "Tm": 504.15, 
	 "num_atms": 17, 
	 "gaussian": { 
		 "optdone": 1, 
		 "sigma_profile": "yes", 
		 "theory": "DFT", 
		 "functional": "B3LYP", 
		 "basiset": "6-31G**", 
		 "properties": { 
			 "R2extent": 3198.2557, 
			 "electric_dipole_moment_norm": 4.08814968659, 
			 "electric_quadrupole_moment_norm": 18.3590160314, 
			 "total_energy": -1291.98356964, 
			 "HOMO_LUMO_gap": 0.20521, 
			 "cosmo_polarized_energy": -19.75, 
			 "cosmo_cavitation_energy": 25.55, 
			 "cosmo_dispersion_energy": -19.52, 
			 "cosmo_repulsion_energy": 1.55, 
			 "cosmo_total_nonelectrostatic_energy": 7.58, 
			 "SMD_solvation_energy": 2.97 
		},
		"coords": [
			{
				"x": -3.3821573139,
				"y": 2.8149909021,
				"z": -0.2187466301,
				"element": "C" 
			},
			{
				"x": -2.1277301351,
				"y": 2.090660837,
				"z": 0.1513120958,
				"element": "C" 
			},
			{
				"x": -1.0940499598,
				"y": 2.6602422429,
				"z": 0.6923537341,
				"element": "N" 
			},
			{
				"x": -0.0491207897,
				"y": 1.8135969794,
				"z": 0.9513516273,
				"element": "N" 
			},
			{
				"x": -0.3048502255,
				"y": 0.5908333286,
				"z": 0.5984768386,
				"element": "C" 
			},
			{
				"x": 0.5490004116,
				"y": -0.4959549912,
				"z": 0.7301318375,
				"element": "N" 
			},
			{
				"x": 1.8253407877,
				"y": -0.4856730271,
				"z": 1.2579698556,
				"element": "C" 
			},
			{
				"x": 2.4142887417,
				"y": 0.4779286705,
				"z": 1.6954926311,
				"element": "O" 
			},
			{
				"x": 2.5529832777,
				"y": -1.8372637071,
				"z": 1.2835767177,
				"element": "C" 
			},
			{
				"x": 1.6611429628,
				"y": -3.2761436564,
				"z": 0.6242409374,
				"element": "Cl" 
			},
			{
				"x": -1.9076927178,
				"y": 0.3563917839,
				"z": -0.109216209,
				"element": "S" 
			},
			{
				"x": -3.2552571687,
				"y": 3.8662738059,
				"z": 0.0463046172,
				"element": "H" 
			},
			{
				"x": -3.5869250924,
				"y": 2.7417361258,
				"z": -1.2918006554,
				"element": "H" 
			},
			{
				"x": -4.2496157038,
				"y": 2.4160845863,
				"z": 0.3170988324,
				"element": "H" 
			},
			{
				"x": 0.2084360924,
				"y": -1.3928488188,
				"z": 0.4082651848,
				"element": "H" 
			},
			{
				"x": 3.4723349116,
				"y": -1.7370257421,
				"z": 0.7063692139,
				"element": "H" 
			},
			{
				"x": 2.807971921,
				"y": -2.0641293198,
				"z": 2.3189193712,
				"element": "H" 
			}
		],
		 "valence_orbital": [ 
			{
				"type": "occ",
				"energy": -0.31112,
				"method": "rhf"
			},
			{
				"type": "occ",
				"energy": -0.29924,
				"method": "rhf"
			},
			{
				"type": "occ",
				"energy": -0.28265,
				"method": "rhf"
			},
			{
				"type": "occ",
				"energy": -0.25814,
				"method": "rhf"
			},
			{
				"type": "occ",
				"energy": -0.25198,
				"method": "rhf"
			},
			{
				"type": "unocc",
				"energy": -0.04677,
				"method": "rhf"
			},
			{
				"type": "unocc",
				"energy": -0.01947,
				"method": "rhf"
			},
			{
				"type": "unocc",
				"energy": -0.00103,
				"method": "rhf"
			},
			{
				"type": "unocc",
				"energy": 0.00096,
				"method": "rhf"
			},
			{
				"type": "unocc",
				"energy": 0.05301,
				"method": "rhf"
			}
		],
		"cosmo_sigma_profile": { 
			"-0.025": 0.0,
			"-0.024": 0.0,
			"-0.023": 0.0,
			"-0.022": 0.0,
			"-0.021": 0.0,
			"-0.02": 0.0,
			"-0.019": 0.0,
			"-0.018": 0.0,
			"-0.017": 0.0,
			"-0.016": 0.0,
			"-0.015": 0.788566737453,
			"-0.014": 1.14589473048,
			"-0.013": 0.930832248752,
			"-0.012": 0.540312101459,
			"-0.011": 1.22132583108,
			"-0.01": 3.56253481165,
			"-0.009": 5.75280165072,
			"-0.008": 5.57221909003,
			"-0.007": 7.948646481,
			"-0.006": 15.6853892388,
			"-0.005": 11.6940995277,
			"-0.004": 12.6480060656,
			"-0.003": 12.0855871764,
			"-0.002": 21.2581199868,
			"-0.001": 13.9475255661,
			"0.0": 12.9307159088,
			"0.001": 10.5838974054,
			"0.002": 8.93674204777,
			"0.003": 7.26808896478,
			"0.004": 7.86307280601,
			"0.005": 8.84247346016,
			"0.006": 2.64962490604,
			"0.007": 2.79387719516,
			"0.008": 2.59315288589,
			"0.009": 3.50402519039,
			"0.01": 3.42447163731,
			"0.011": 7.20338754254,
			"0.012": 5.66429282913,
			"0.013": 3.292043376,
			"0.014": 2.53836675628,
			"0.015": 1.66884057627,
			"0.016": 1.37263915944,
			"0.017": 0.983056461529,
			"0.018": 0.126227084018,
			"0.019": 0.0,
			"0.02": 0.0,
			"0.021": 0.0,
			"0.022": 0.0,
			"0.023": 0.0,
			"0.024": 0.0,
			"0.025": 0.0
		}
	}
}
