{
	 "smiles": "ClC1=C2C(=O)OC(=O)C2=CC=C1", 
	 "Tm": 397.15, 
	 "num_atms": 15, 
	 "gaussian": { 
		 "optdone": 1, 
		 "sigma_profile": "yes", 
		 "theory": "DFT", 
		 "functional": "B3LYP", 
		 "basiset": "6-31G**", 
		 "properties": { 
			 "R2extent": 2574.439, 
			 "electric_dipole_moment_norm": 5.60938452774, 
			 "electric_quadrupole_moment_norm": 7.65964178862, 
			 "total_energy": -992.533035385, 
			 "HOMO_LUMO_gap": 0.18056, 
			 "cosmo_polarized_energy": -11.69, 
			 "cosmo_cavitation_energy": 22.6, 
			 "cosmo_dispersion_energy": -16.89, 
			 "cosmo_repulsion_energy": 1.33, 
			 "cosmo_total_nonelectrostatic_energy": 7.04, 
			 "SMD_solvation_energy": 5.52 
		},
		"coords": [
			{
				"x": -2.8056830293,
				"y": 1.8543014297,
				"z": -2.1663988868,
				"element": "Cl" 
			},
			{
				"x": -1.2605856186,
				"y": 1.3197689907,
				"z": -1.5731527154,
				"element": "C" 
			},
			{
				"x": -1.1189936529,
				"y": 0.7016827,
				"z": -0.3326866421,
				"element": "C" 
			},
			{
				"x": -2.0993627754,
				"y": 0.3508353398,
				"z": 0.728860742,
				"element": "C" 
			},
			{
				"x": -3.28371024,
				"y": 0.5114524233,
				"z": 0.7925412748,
				"element": "O" 
			},
			{
				"x": -1.3786792742,
				"y": -0.2621533958,
				"z": 1.7627681395,
				"element": "O" 
			},
			{
				"x": -0.0237790938,
				"y": -0.3277344004,
				"z": 1.4431988981,
				"element": "C" 
			},
			{
				"x": 0.7912746425,
				"y": -0.811987621,
				"z": 2.1771901711,
				"element": "O" 
			},
			{
				"x": 0.141013368,
				"y": 0.2889894681,
				"z": 0.1027067617,
				"element": "C" 
			},
			{
				"x": 1.2910849393,
				"y": 0.4654083217,
				"z": -0.6525103826,
				"element": "C" 
			},
			{
				"x": 1.1419346848,
				"y": 1.0866802903,
				"z": -1.8970415349,
				"element": "C" 
			},
			{
				"x": -0.1120422316,
				"y": 1.5083075997,
				"z": -2.3532041983,
				"element": "C" 
			},
			{
				"x": 2.2566277718,
				"y": 0.1338174615,
				"z": -0.2867973439,
				"element": "H" 
			},
			{
				"x": 2.0099319974,
				"y": 1.2492480121,
				"z": -2.5283943513,
				"element": "H" 
			},
			{
				"x": -0.2070314879,
				"y": 1.9880833801,
				"z": -3.321179932,
				"element": "H" 
			}
		],
		 "valence_orbital": [ 
			{
				"type": "occ",
				"energy": -0.33842,
				"method": "rhf"
			},
			{
				"type": "occ",
				"energy": -0.31923,
				"method": "rhf"
			},
			{
				"type": "occ",
				"energy": -0.30513,
				"method": "rhf"
			},
			{
				"type": "occ",
				"energy": -0.29274,
				"method": "rhf"
			},
			{
				"type": "occ",
				"energy": -0.28426,
				"method": "rhf"
			},
			{
				"type": "unocc",
				"energy": -0.1037,
				"method": "rhf"
			},
			{
				"type": "unocc",
				"energy": -0.06961,
				"method": "rhf"
			},
			{
				"type": "unocc",
				"energy": 0.00736,
				"method": "rhf"
			},
			{
				"type": "unocc",
				"energy": 0.00865,
				"method": "rhf"
			},
			{
				"type": "unocc",
				"energy": 0.04673,
				"method": "rhf"
			}
		],
		"cosmo_sigma_profile": { 
			"-0.025": 0.0,
			"-0.024": 0.0,
			"-0.023": 0.0,
			"-0.022": 0.0,
			"-0.021": 0.0,
			"-0.02": 0.0,
			"-0.019": 0.0,
			"-0.018": 0.0,
			"-0.017": 0.0,
			"-0.016": 0.0,
			"-0.015": 0.0,
			"-0.014": 0.0,
			"-0.013": 0.0,
			"-0.012": 0.0,
			"-0.011": 0.0,
			"-0.01": 0.542447370142,
			"-0.009": 5.28821572286,
			"-0.008": 9.75582402355,
			"-0.007": 8.46877231734,
			"-0.006": 8.20499350233,
			"-0.005": 7.63939018574,
			"-0.004": 11.273858581,
			"-0.003": 11.7932084823,
			"-0.002": 16.5361695061,
			"-0.001": 16.5760763283,
			"0.0": 14.5683773561,
			"0.001": 7.77650699747,
			"0.002": 8.45940462613,
			"0.003": 11.6083003255,
			"0.004": 5.05256395347,
			"0.005": 4.6396683503,
			"0.006": 6.91328011525,
			"0.007": 6.90896535807,
			"0.008": 6.83783406266,
			"0.009": 10.6754598474,
			"0.01": 6.11214342547,
			"0.011": 0.292933662524,
			"0.012": 0.0,
			"0.013": 0.0,
			"0.014": 0.0,
			"0.015": 0.0,
			"0.016": 0.0,
			"0.017": 0.0,
			"0.018": 0.0,
			"0.019": 0.0,
			"0.02": 0.0,
			"0.021": 0.0,
			"0.022": 0.0,
			"0.023": 0.0,
			"0.024": 0.0,
			"0.025": 0.0
		}
	}
}
