{
	 "smiles": "[O-][N+](=O)C1=CC(Br)=C(C=C1)C1=CC=C(O1)C=O", 
	 "Tm": 407.15, 
	 "num_atms": 23, 
	 "gaussian": { 
		 "optdone": 1, 
		 "sigma_profile": "yes", 
		 "theory": "DFT", 
		 "functional": "B3LYP", 
		 "basiset": "6-31G**", 
		 "properties": { 
			 "R2extent": 7223.0161, 
			 "electric_dipole_moment_norm": 2.55821463916, 
			 "electric_quadrupole_moment_norm": 33.2124093354, 
			 "total_energy": -3349.6998753, 
			 "HOMO_LUMO_gap": 0.13679, 
			 "cosmo_polarized_energy": -13.61, 
			 "cosmo_cavitation_energy": 32.34, 
			 "cosmo_dispersion_energy": -23.23, 
			 "cosmo_repulsion_energy": 1.78, 
			 "cosmo_total_nonelectrostatic_energy": 10.89, 
			 "SMD_solvation_energy": 8.26 
		},
		"coords": [
			{
				"x": -0.9282897382,
				"y": -0.0226279679,
				"z": 4.9707246481,
				"element": "O" 
			},
			{
				"x": -0.6752790133,
				"y": -0.8566837984,
				"z": 4.1035545738,
				"element": "N" 
			},
			{
				"x": -0.4723255376,
				"y": -2.0522223813,
				"z": 4.3093047918,
				"element": "O" 
			},
			{
				"x": -0.6083330669,
				"y": -0.391347236,
				"z": 2.708675402,
				"element": "C" 
			},
			{
				"x": -0.8208863325,
				"y": 0.956528214,
				"z": 2.4423423947,
				"element": "C" 
			},
			{
				"x": -0.7575006753,
				"y": 1.4066967726,
				"z": 1.1263560208,
				"element": "C" 
			},
			{
				"x": -0.9780235618,
				"y": 3.2813224176,
				"z": 0.8639438639,
				"element": "Br" 
			},
			{
				"x": -0.4951353036,
				"y": 0.5124483887,
				"z": 0.064254893,
				"element": "C" 
			},
			{
				"x": -0.2863123545,
				"y": -0.8450377718,
				"z": 0.3906948632,
				"element": "C" 
			},
			{
				"x": -0.3326086925,
				"y": -1.307355006,
				"z": 1.6972194622,
				"element": "C" 
			},
			{
				"x": -0.3990150648,
				"y": 0.8781046753,
				"z": -1.3479090992,
				"element": "C" 
			},
			{
				"x": 0.3866912365,
				"y": 0.3583569937,
				"z": -2.3586077918,
				"element": "C" 
			},
			{
				"x": 0.045326746,
				"y": 1.0592610832,
				"z": -3.5396855627,
				"element": "C" 
			},
			{
				"x": -0.9300270817,
				"y": 1.9614533754,
				"z": -3.1861144147,
				"element": "C" 
			},
			{
				"x": -1.2015351682,
				"y": 1.8514609545,
				"z": -1.8486050585,
				"element": "O" 
			},
			{
				"x": -1.6808418215,
				"y": 2.954973413,
				"z": -3.9442268044,
				"element": "C" 
			},
			{
				"x": -1.5247733171,
				"y": 3.1372003618,
				"z": -5.1389858796,
				"element": "O" 
			},
			{
				"x": -1.0182932277,
				"y": 1.6392319655,
				"z": 3.2577137008,
				"element": "H" 
			},
			{
				"x": -0.1099351126,
				"y": -1.5487924304,
				"z": -0.4153096526,
				"element": "H" 
			},
			{
				"x": -0.1782853879,
				"y": -2.3504154969,
				"z": 1.9412667392,
				"element": "H" 
			},
			{
				"x": 1.1359878317,
				"y": -0.4120849829,
				"z": -2.2490391779,
				"element": "H" 
			},
			{
				"x": 0.455995697,
				"y": 0.9382838287,
				"z": -4.5311452469,
				"element": "H" 
			},
			{
				"x": -2.4101010535,
				"y": 3.5355446274,
				"z": -3.3429226651,
				"element": "H" 
			}
		],
		 "valence_orbital": [ 
			{
				"type": "occ",
				"energy": -0.30482,
				"method": "rhf"
			},
			{
				"type": "occ",
				"energy": -0.30124,
				"method": "rhf"
			},
			{
				"type": "occ",
				"energy": -0.27755,
				"method": "rhf"
			},
			{
				"type": "occ",
				"energy": -0.2694,
				"method": "rhf"
			},
			{
				"type": "occ",
				"energy": -0.24885,
				"method": "rhf"
			},
			{
				"type": "unocc",
				"energy": -0.11206,
				"method": "rhf"
			},
			{
				"type": "unocc",
				"energy": -0.07385,
				"method": "rhf"
			},
			{
				"type": "unocc",
				"energy": -0.04966,
				"method": "rhf"
			},
			{
				"type": "unocc",
				"energy": -0.02917,
				"method": "rhf"
			},
			{
				"type": "unocc",
				"energy": -0.01733,
				"method": "rhf"
			}
		],
		"cosmo_sigma_profile": { 
			"-0.025": 0.0,
			"-0.024": 0.0,
			"-0.023": 0.0,
			"-0.022": 0.0,
			"-0.021": 0.0,
			"-0.02": 0.0,
			"-0.019": 0.0,
			"-0.018": 0.0,
			"-0.017": 0.0,
			"-0.016": 0.0,
			"-0.015": 0.0,
			"-0.014": 0.0,
			"-0.013": 0.0,
			"-0.012": 0.0,
			"-0.011": 0.0,
			"-0.01": 0.0615113350793,
			"-0.009": 5.06611774679,
			"-0.008": 8.20592978439,
			"-0.007": 11.5611191701,
			"-0.006": 12.2389305255,
			"-0.005": 13.4753175227,
			"-0.004": 14.804883128,
			"-0.003": 16.5212014986,
			"-0.002": 22.9830792408,
			"-0.001": 32.4151154711,
			"0.0": 22.8495770469,
			"0.001": 17.2958781563,
			"0.002": 14.8523768682,
			"0.003": 13.215088788,
			"0.004": 10.0489392752,
			"0.005": 5.31973281693,
			"0.006": 7.53480460212,
			"0.007": 11.6416804266,
			"0.008": 6.62310220136,
			"0.009": 6.2498951688,
			"0.01": 3.73826162513,
			"0.011": 4.700018111,
			"0.012": 2.84139852526,
			"0.013": 0.609181700125,
			"0.014": 0.0,
			"0.015": 0.0,
			"0.016": 0.0,
			"0.017": 0.0,
			"0.018": 0.0,
			"0.019": 0.0,
			"0.02": 0.0,
			"0.021": 0.0,
			"0.022": 0.0,
			"0.023": 0.0,
			"0.024": 0.0,
			"0.025": 0.0
		}
	}
}
