{
	 "smiles": "CC(C)CC1=CC=C(C=C1)C(=O)C1=CC=CS1", 
	 "Tm": 386.15, 
	 "num_atms": 33, 
	 "gaussian": { 
		 "optdone": 1, 
		 "sigma_profile": "yes", 
		 "theory": "DFT", 
		 "functional": "B3LYP", 
		 "basiset": "6-31G**", 
		 "properties": { 
			 "R2extent": 6744.0037, 
			 "electric_dipole_moment_norm": 2.76592184091, 
			 "electric_quadrupole_moment_norm": 20.7159380748, 
			 "total_energy": -1054.65383326, 
			 "HOMO_LUMO_gap": 0.17342, 
			 "cosmo_polarized_energy": -9.16, 
			 "cosmo_cavitation_energy": 37.22, 
			 "cosmo_dispersion_energy": -26.74, 
			 "cosmo_repulsion_energy": 2.02, 
			 "cosmo_total_nonelectrostatic_energy": 12.5, 
			 "SMD_solvation_energy": 6.57 
		},
		"coords": [
			{
				"x": -2.8345579336,
				"y": 2.1728763609,
				"z": 2.1627447163,
				"element": "C" 
			},
			{
				"x": -3.5594682591,
				"y": 1.5841978636,
				"z": 0.9445089338,
				"element": "C" 
			},
			{
				"x": -4.1319381875,
				"y": 0.1951857772,
				"z": 1.2593781039,
				"element": "C" 
			},
			{
				"x": -2.6742951129,
				"y": 1.5895980526,
				"z": -0.3358671895,
				"element": "C" 
			},
			{
				"x": -1.4205225228,
				"y": 0.7429290923,
				"z": -0.278289191,
				"element": "C" 
			},
			{
				"x": -1.438192495,
				"y": -0.607535435,
				"z": -0.6673236801,
				"element": "C" 
			},
			{
				"x": -0.2926832901,
				"y": -1.3914747719,
				"z": -0.5997278339,
				"element": "C" 
			},
			{
				"x": 0.9259396526,
				"y": -0.842789476,
				"z": -0.1686911315,
				"element": "C" 
			},
			{
				"x": 0.9531022034,
				"y": 0.5035325847,
				"z": 0.2239045,
				"element": "C" 
			},
			{
				"x": -0.2048834494,
				"y": 1.278487071,
				"z": 0.1698126522,
				"element": "C" 
			},
			{
				"x": 2.1080322481,
				"y": -1.7585845808,
				"z": -0.0947886929,
				"element": "C" 
			},
			{
				"x": 1.941569744,
				"y": -2.9602048196,
				"z": 0.1001970702,
				"element": "O" 
			},
			{
				"x": 3.4923991074,
				"y": -1.2538906839,
				"z": -0.2743393415,
				"element": "C" 
			},
			{
				"x": 4.6176247965,
				"y": -1.9963077416,
				"z": 0.0178798652,
				"element": "C" 
			},
			{
				"x": 5.8317248302,
				"y": -1.3441116406,
				"z": -0.3162575506,
				"element": "C" 
			},
			{
				"x": 5.6262647456,
				"y": -0.1108855107,
				"z": -0.8830978116,
				"element": "C" 
			},
			{
				"x": 3.9478429243,
				"y": 0.2749211574,
				"z": -1.0018679468,
				"element": "S" 
			},
			{
				"x": -1.9804153985,
				"y": 1.5537983306,
				"z": 2.4568763603,
				"element": "H" 
			},
			{
				"x": -2.462433525,
				"y": 3.1835439047,
				"z": 1.9594560882,
				"element": "H" 
			},
			{
				"x": -3.5107985593,
				"y": 2.2345463692,
				"z": 3.0221092479,
				"element": "H" 
			},
			{
				"x": -4.406188873,
				"y": 2.245788994,
				"z": 0.7121152117,
				"element": "H" 
			},
			{
				"x": -4.8175978488,
				"y": 0.2444843112,
				"z": 2.1120653578,
				"element": "H" 
			},
			{
				"x": -4.6891353224,
				"y": -0.2122698354,
				"z": 0.4081360102,
				"element": "H" 
			},
			{
				"x": -3.3389958049,
				"y": -0.5164216088,
				"z": 1.5125778189,
				"element": "H" 
			},
			{
				"x": -2.3936926201,
				"y": 2.6281253645,
				"z": -0.5501299328,
				"element": "H" 
			},
			{
				"x": -3.2923419312,
				"y": 1.2530259693,
				"z": -1.1772967271,
				"element": "H" 
			},
			{
				"x": -2.3645922585,
				"y": -1.0446592244,
				"z": -1.0303099366,
				"element": "H" 
			},
			{
				"x": -0.315639125,
				"y": -2.4381138416,
				"z": -0.8845697762,
				"element": "H" 
			},
			{
				"x": 1.8687046225,
				"y": 0.9456652972,
				"z": 0.6012112002,
				"element": "H" 
			},
			{
				"x": -0.162498799,
				"y": 2.3190760963,
				"z": 0.4800546509,
				"element": "H" 
			},
			{
				"x": 4.5393838292,
				"y": -2.9844556753,
				"z": 0.4541785721,
				"element": "H" 
			},
			{
				"x": 6.8152743667,
				"y": -1.7689133649,
				"z": -0.1518544669,
				"element": "H" 
			},
			{
				"x": 6.3673082459,
				"y": 0.5935356136,
				"z": -1.2365951506,
				"element": "H" 
			}
		],
		 "valence_orbital": [ 
			{
				"type": "occ",
				"energy": -0.26074,
				"method": "rhf"
			},
			{
				"type": "occ",
				"energy": -0.25697,
				"method": "rhf"
			},
			{
				"type": "occ",
				"energy": -0.25385,
				"method": "rhf"
			},
			{
				"type": "occ",
				"energy": -0.24393,
				"method": "rhf"
			},
			{
				"type": "occ",
				"energy": -0.23954,
				"method": "rhf"
			},
			{
				"type": "unocc",
				"energy": -0.06612,
				"method": "rhf"
			},
			{
				"type": "unocc",
				"energy": -0.01725,
				"method": "rhf"
			},
			{
				"type": "unocc",
				"energy": -0.0093,
				"method": "rhf"
			},
			{
				"type": "unocc",
				"energy": 0.03065,
				"method": "rhf"
			},
			{
				"type": "unocc",
				"energy": 0.03871,
				"method": "rhf"
			}
		],
		"cosmo_sigma_profile": { 
			"-0.025": 0.0,
			"-0.024": 0.0,
			"-0.023": 0.0,
			"-0.022": 0.0,
			"-0.021": 0.0,
			"-0.02": 0.0,
			"-0.019": 0.0,
			"-0.018": 0.0,
			"-0.017": 0.0,
			"-0.016": 0.0,
			"-0.015": 0.0,
			"-0.014": 0.0,
			"-0.013": 0.0,
			"-0.012": 0.0,
			"-0.011": 0.0,
			"-0.01": 0.101655670723,
			"-0.009": 2.07070862143,
			"-0.008": 2.53244691231,
			"-0.007": 4.44253308261,
			"-0.006": 7.01413899954,
			"-0.005": 12.6935946077,
			"-0.004": 18.8277777532,
			"-0.003": 23.3408067469,
			"-0.002": 32.7093381198,
			"-0.001": 33.9181968591,
			"0.0": 33.992113207,
			"0.001": 34.9718673336,
			"0.002": 29.8692205989,
			"0.003": 20.6442027115,
			"0.004": 17.6138128191,
			"0.005": 4.22969848573,
			"0.006": 1.94839723601,
			"0.007": 1.6736151082,
			"0.008": 1.76965151422,
			"0.009": 1.92320796888,
			"0.01": 1.84351373225,
			"0.011": 2.64800738803,
			"0.012": 4.18947765595,
			"0.013": 1.62315756034,
			"0.014": 0.0,
			"0.015": 0.0,
			"0.016": 0.0,
			"0.017": 0.0,
			"0.018": 0.0,
			"0.019": 0.0,
			"0.02": 0.0,
			"0.021": 0.0,
			"0.022": 0.0,
			"0.023": 0.0,
			"0.024": 0.0,
			"0.025": 0.0
		}
	}
}
