{
	 "smiles": "NC(=O)C1=CC=CN=C1OC1=CC=CC=C1", 
	 "Tm": 435.15, 
	 "num_atms": 26, 
	 "gaussian": { 
		 "optdone": 1, 
		 "sigma_profile": "yes", 
		 "theory": "DFT", 
		 "functional": "B3LYP", 
		 "basiset": "6-31G**", 
		 "properties": { 
			 "R2extent": 3607.4236, 
			 "electric_dipole_moment_norm": 5.07046626456, 
			 "electric_quadrupole_moment_norm": 12.3129306617, 
			 "total_energy": -723.251941265, 
			 "HOMO_LUMO_gap": 0.17982, 
			 "cosmo_polarized_energy": -19.71, 
			 "cosmo_cavitation_energy": 30.83, 
			 "cosmo_dispersion_energy": -21.56, 
			 "cosmo_repulsion_energy": 1.69, 
			 "cosmo_total_nonelectrostatic_energy": 10.96, 
			 "SMD_solvation_energy": 4.58 
		},
		"coords": [
			{
				"x": -0.3825998539,
				"y": 0.5876272832,
				"z": -2.392993775,
				"element": "N" 
			},
			{
				"x": 0.1227204655,
				"y": 1.2356550309,
				"z": -1.2897966013,
				"element": "C" 
			},
			{
				"x": 1.0232008882,
				"y": 2.0562227837,
				"z": -1.3646404032,
				"element": "O" 
			},
			{
				"x": -0.5875094944,
				"y": 0.9208350523,
				"z": 0.0008115288,
				"element": "C" 
			},
			{
				"x": -1.9840859319,
				"y": 0.8873058355,
				"z": 0.048409766,
				"element": "C" 
			},
			{
				"x": -2.6394610627,
				"y": 0.7417236337,
				"z": 1.2707558757,
				"element": "C" 
			},
			{
				"x": -1.8564673212,
				"y": 0.6395657298,
				"z": 2.4170256819,
				"element": "C" 
			},
			{
				"x": -0.5175653965,
				"y": 0.6367458189,
				"z": 2.3987204471,
				"element": "N" 
			},
			{
				"x": 0.0954964024,
				"y": 0.7701076236,
				"z": 1.2299489673,
				"element": "C" 
			},
			{
				"x": 1.4601036258,
				"y": 0.7952716875,
				"z": 1.3101349536,
				"element": "O" 
			},
			{
				"x": 2.2254631155,
				"y": -0.0684506437,
				"z": 0.5469293489,
				"element": "C" 
			},
			{
				"x": 1.8265335057,
				"y": -1.381923352,
				"z": 0.2880763418,
				"element": "C" 
			},
			{
				"x": 2.6795444693,
				"y": -2.2227411615,
				"z": -0.4309190037,
				"element": "C" 
			},
			{
				"x": 3.9185123167,
				"y": -1.7622480867,
				"z": -0.8776254713,
				"element": "C" 
			},
			{
				"x": 4.3052294091,
				"y": -0.4472122906,
				"z": -0.6020106849,
				"element": "C" 
			},
			{
				"x": 3.4615079423,
				"y": 0.4057902771,
				"z": 0.1059089627,
				"element": "C" 
			},
			{
				"x": -0.8686717014,
				"y": -0.2891907574,
				"z": -2.2809204787,
				"element": "H" 
			},
			{
				"x": 0.1392112954,
				"y": 0.7161409174,
				"z": -3.2489677417,
				"element": "H" 
			},
			{
				"x": -2.5487941984,
				"y": 1.0159409534,
				"z": -0.8704042429,
				"element": "H" 
			},
			{
				"x": -3.7222560377,
				"y": 0.7279597626,
				"z": 1.3332377255,
				"element": "H" 
			},
			{
				"x": -2.3175418448,
				"y": 0.5488677025,
				"z": 3.398678762,
				"element": "H" 
			},
			{
				"x": 0.8756563453,
				"y": -1.7463471801,
				"z": 0.6632476312,
				"element": "H" 
			},
			{
				"x": 2.3750816368,
				"y": -3.2469747819,
				"z": -0.6277004708,
				"element": "H" 
			},
			{
				"x": 4.5792541463,
				"y": -2.4218073301,
				"z": -1.431886504,
				"element": "H" 
			},
			{
				"x": 5.266754027,
				"y": -0.0790007446,
				"z": -0.9478604155,
				"element": "H" 
			},
			{
				"x": 3.7305832515,
				"y": 1.4350362364,
				"z": 0.3136398006,
				"element": "H" 
			}
		],
		 "valence_orbital": [ 
			{
				"type": "occ",
				"energy": -0.27467,
				"method": "rhf"
			},
			{
				"type": "occ",
				"energy": -0.26487,
				"method": "rhf"
			},
			{
				"type": "occ",
				"energy": -0.25216,
				"method": "rhf"
			},
			{
				"type": "occ",
				"energy": -0.24892,
				"method": "rhf"
			},
			{
				"type": "occ",
				"energy": -0.22564,
				"method": "rhf"
			},
			{
				"type": "unocc",
				"energy": -0.04582,
				"method": "rhf"
			},
			{
				"type": "unocc",
				"energy": -0.02633,
				"method": "rhf"
			},
			{
				"type": "unocc",
				"energy": -0.0008,
				"method": "rhf"
			},
			{
				"type": "unocc",
				"energy": 0.0078,
				"method": "rhf"
			},
			{
				"type": "unocc",
				"energy": 0.03593,
				"method": "rhf"
			}
		],
		"cosmo_sigma_profile": { 
			"-0.025": 0.0,
			"-0.024": 0.0,
			"-0.023": 0.0,
			"-0.022": 0.0,
			"-0.021": 0.0,
			"-0.02": 0.0,
			"-0.019": 0.0,
			"-0.018": 0.0,
			"-0.017": 0.0,
			"-0.016": 0.0,
			"-0.015": 0.260667304441,
			"-0.014": 1.692910419,
			"-0.013": 2.55639622138,
			"-0.012": 2.67583886431,
			"-0.011": 1.83066477735,
			"-0.01": 2.48432926417,
			"-0.009": 2.00589886948,
			"-0.008": 4.32810347221,
			"-0.007": 10.2479981047,
			"-0.006": 16.0916914424,
			"-0.005": 16.6474616199,
			"-0.004": 18.0764796598,
			"-0.003": 15.2212806101,
			"-0.002": 13.9317977981,
			"-0.001": 12.1964443094,
			"0.0": 15.7274675533,
			"0.001": 17.2073585285,
			"0.002": 14.8774630952,
			"0.003": 12.9201872858,
			"0.004": 12.9845651304,
			"0.005": 11.9125306505,
			"0.006": 6.65164353891,
			"0.007": 4.44605972166,
			"0.008": 4.36039275687,
			"0.009": 4.26977857545,
			"0.01": 3.31042071927,
			"0.011": 4.54452630216,
			"0.012": 3.85839815276,
			"0.013": 5.70815692341,
			"0.014": 2.56545570253,
			"0.015": 1.05599912452,
			"0.016": 0.246173037065,
			"0.017": 0.0,
			"0.018": 0.0,
			"0.019": 0.0,
			"0.02": 0.0,
			"0.021": 0.0,
			"0.022": 0.0,
			"0.023": 0.0,
			"0.024": 0.0,
			"0.025": 0.0
		}
	}
}
