{
	 "smiles": "COC1=CC=C(C=O)C2=C1C=CC=C2", 
	 "Tm": 307.55, 
	 "num_atms": 24, 
	 "gaussian": { 
		 "optdone": 1, 
		 "sigma_profile": "yes", 
		 "theory": "DFT", 
		 "functional": "B3LYP", 
		 "basiset": "6-31G**", 
		 "properties": { 
			 "R2extent": 3368.5591, 
			 "electric_dipole_moment_norm": 5.03206843554, 
			 "electric_quadrupole_moment_norm": 13.5748229565, 
			 "total_energy": -613.744760495, 
			 "HOMO_LUMO_gap": 0.15323, 
			 "cosmo_polarized_energy": -10.3, 
			 "cosmo_cavitation_energy": 27.58, 
			 "cosmo_dispersion_energy": -20.53, 
			 "cosmo_repulsion_energy": 1.57, 
			 "cosmo_total_nonelectrostatic_energy": 8.62, 
			 "SMD_solvation_energy": 6.27 
		},
		"coords": [
			{
				"x": 3.606597223,
				"y": -0.7180221878,
				"z": -2.0804493168,
				"element": "C" 
			},
			{
				"x": 2.7530703395,
				"y": 0.2075832321,
				"z": -1.4193564768,
				"element": "O" 
			},
			{
				"x": 1.4112071224,
				"y": 0.0560611724,
				"z": -1.5350435514,
				"element": "C" 
			},
			{
				"x": 0.8028507918,
				"y": -0.9528690948,
				"z": -2.2624643199,
				"element": "C" 
			},
			{
				"x": -0.600466006,
				"y": -1.012399314,
				"z": -2.3126408126,
				"element": "C" 
			},
			{
				"x": -1.4128379768,
				"y": -0.0980082124,
				"z": -1.6607240839,
				"element": "C" 
			},
			{
				"x": -2.8631197067,
				"y": -0.3000633928,
				"z": -1.8135496837,
				"element": "C" 
			},
			{
				"x": -3.7663122421,
				"y": 0.3695968703,
				"z": -1.3379136178,
				"element": "O" 
			},
			{
				"x": -0.8029933645,
				"y": 0.9622354931,
				"z": -0.8965618241,
				"element": "C" 
			},
			{
				"x": 0.6258424424,
				"y": 1.0356177752,
				"z": -0.8362447514,
				"element": "C" 
			},
			{
				"x": 1.2485508233,
				"y": 2.06839769,
				"z": -0.0918014238,
				"element": "C" 
			},
			{
				"x": 0.4882927071,
				"y": 3.0043320788,
				"z": 0.5758081793,
				"element": "C" 
			},
			{
				"x": -0.9198114859,
				"y": 2.9377937642,
				"z": 0.5205274644,
				"element": "C" 
			},
			{
				"x": -1.5536874534,
				"y": 1.9432730613,
				"z": -0.1965783819,
				"element": "C" 
			},
			{
				"x": 3.4549718652,
				"y": -0.6958946964,
				"z": -3.1662217845,
				"element": "H" 
			},
			{
				"x": 4.6246987546,
				"y": -0.4023407416,
				"z": -1.8501891688,
				"element": "H" 
			},
			{
				"x": 3.4497480997,
				"y": -1.7390712601,
				"z": -1.7125659644,
				"element": "H" 
			},
			{
				"x": 1.387381017,
				"y": -1.6947310303,
				"z": -2.7916518126,
				"element": "H" 
			},
			{
				"x": -1.0667946933,
				"y": -1.8095768857,
				"z": -2.8873016865,
				"element": "H" 
			},
			{
				"x": -3.1078342298,
				"y": -1.1826589245,
				"z": -2.4482559688,
				"element": "H" 
			},
			{
				"x": 2.3308947193,
				"y": 2.1069009009,
				"z": -0.0584399505,
				"element": "H" 
			},
			{
				"x": 0.9729244995,
				"y": 3.7928510974,
				"z": 1.1442012881,
				"element": "H" 
			},
			{
				"x": -1.5142595042,
				"y": 3.678079189,
				"z": 1.0486749449,
				"element": "H" 
			},
			{
				"x": -2.6332137422,
				"y": 1.8893134158,
				"z": -0.2411572964,
				"element": "H" 
			}
		],
		 "valence_orbital": [ 
			{
				"type": "occ",
				"energy": -0.32005,
				"method": "rhf"
			},
			{
				"type": "occ",
				"energy": -0.26552,
				"method": "rhf"
			},
			{
				"type": "occ",
				"energy": -0.25058,
				"method": "rhf"
			},
			{
				"type": "occ",
				"energy": -0.24145,
				"method": "rhf"
			},
			{
				"type": "occ",
				"energy": -0.21476,
				"method": "rhf"
			},
			{
				"type": "unocc",
				"energy": -0.06153,
				"method": "rhf"
			},
			{
				"type": "unocc",
				"energy": -0.01516,
				"method": "rhf"
			},
			{
				"type": "unocc",
				"energy": -0.00441,
				"method": "rhf"
			},
			{
				"type": "unocc",
				"energy": 0.06449,
				"method": "rhf"
			},
			{
				"type": "unocc",
				"energy": 0.08505,
				"method": "rhf"
			}
		],
		"cosmo_sigma_profile": { 
			"-0.025": 0.0,
			"-0.024": 0.0,
			"-0.023": 0.0,
			"-0.022": 0.0,
			"-0.021": 0.0,
			"-0.02": 0.0,
			"-0.019": 0.0,
			"-0.018": 0.0,
			"-0.017": 0.0,
			"-0.016": 0.0,
			"-0.015": 0.0,
			"-0.014": 0.0,
			"-0.013": 0.0,
			"-0.012": 0.0,
			"-0.011": 0.0,
			"-0.01": 0.0,
			"-0.009": 0.0,
			"-0.008": 0.624708425069,
			"-0.007": 7.19724889923,
			"-0.006": 18.1883434559,
			"-0.005": 19.5722405305,
			"-0.004": 18.5865023403,
			"-0.003": 16.0365642132,
			"-0.002": 12.0694910826,
			"-0.001": 11.7546701111,
			"0.0": 11.9105590883,
			"0.001": 15.7696384114,
			"0.002": 21.8990393431,
			"0.003": 22.4263657416,
			"0.004": 17.0332791108,
			"0.005": 9.81454286763,
			"0.006": 2.85204266675,
			"0.007": 2.57419641757,
			"0.008": 1.78671582817,
			"0.009": 1.30566264556,
			"0.01": 2.34234423076,
			"0.011": 2.81542633577,
			"0.012": 2.71970323047,
			"0.013": 1.76495415318,
			"0.014": 0.358112214005,
			"0.015": 0.0,
			"0.016": 0.0,
			"0.017": 0.0,
			"0.018": 0.0,
			"0.019": 0.0,
			"0.02": 0.0,
			"0.021": 0.0,
			"0.022": 0.0,
			"0.023": 0.0,
			"0.024": 0.0,
			"0.025": 0.0
		}
	}
}
