{
	 "smiles": "FC1=CC=C(C=C2CCCC(=CC3=CC=C(F)C=C3)C2=O)C=C1", 
	 "Tm": 423.15, 
	 "num_atms": 39, 
	 "gaussian": { 
		 "optdone": 1, 
		 "sigma_profile": "yes", 
		 "theory": "DFT", 
		 "functional": "B3LYP", 
		 "basiset": "6-31G**", 
		 "properties": { 
			 "R2extent": 13150.7413, 
			 "electric_dipole_moment_norm": 3.27423432882, 
			 "electric_quadrupole_moment_norm": 20.9952256239, 
			 "total_energy": -1046.64027059, 
			 "HOMO_LUMO_gap": 0.14629, 
			 "cosmo_polarized_energy": -10.17, 
			 "cosmo_cavitation_energy": 43.56, 
			 "cosmo_dispersion_energy": -30.82, 
			 "cosmo_repulsion_energy": 2.28, 
			 "cosmo_total_nonelectrostatic_energy": 15.02, 
			 "SMD_solvation_energy": 8.05 
		},
		"coords": [
			{
				"x": -1.4293145833,
				"y": 7.7052900872,
				"z": 2.9280465321,
				"element": "F" 
			},
			{
				"x": -1.4240821489,
				"y": 6.3579483347,
				"z": 2.8684522443,
				"element": "C" 
			},
			{
				"x": -1.5713163662,
				"y": 5.7326608998,
				"z": 1.6353978114,
				"element": "C" 
			},
			{
				"x": -1.5694346137,
				"y": 4.3416769935,
				"z": 1.5710803281,
				"element": "C" 
			},
			{
				"x": -1.4118353122,
				"y": 3.5643261856,
				"z": 2.7377176215,
				"element": "C" 
			},
			{
				"x": -1.3930583452,
				"y": 2.0974740106,
				"z": 2.7938182847,
				"element": "C" 
			},
			{
				"x": -1.1132695389,
				"y": 1.1144371902,
				"z": 1.902902398,
				"element": "C" 
			},
			{
				"x": -1.1458365797,
				"y": -0.3413849959,
				"z": 2.330690141,
				"element": "C" 
			},
			{
				"x": 0.2353799132,
				"y": -1.0277049745,
				"z": 2.2096656187,
				"element": "C" 
			},
			{
				"x": 1.1202030796,
				"y": -0.4123114125,
				"z": 1.0929013338,
				"element": "C" 
			},
			{
				"x": 0.3220455262,
				"y": 0.2728857097,
				"z": 0.0062984819,
				"element": "C" 
			},
			{
				"x": 0.4529553653,
				"y": 0.1144088086,
				"z": -1.3307113369,
				"element": "C" 
			},
			{
				"x": 1.3939410266,
				"y": -0.7086338593,
				"z": -2.0981452349,
				"element": "C" 
			},
			{
				"x": 0.9554130683,
				"y": -1.2635458515,
				"z": -3.3178976847,
				"element": "C" 
			},
			{
				"x": 1.7895758563,
				"y": -2.0548503764,
				"z": -4.1008819607,
				"element": "C" 
			},
			{
				"x": 3.0946145978,
				"y": -2.2741128524,
				"z": -3.6710119886,
				"element": "C" 
			},
			{
				"x": 3.9139963291,
				"y": -3.0326485195,
				"z": -4.4256451677,
				"element": "F" 
			},
			{
				"x": 3.5824902109,
				"y": -1.7171016463,
				"z": -2.4942323311,
				"element": "C" 
			},
			{
				"x": 2.7307381984,
				"y": -0.9369223008,
				"z": -1.7152778716,
				"element": "C" 
			},
			{
				"x": -0.7177110194,
				"y": 1.257580398,
				"z": 0.4695916934,
				"element": "C" 
			},
			{
				"x": -1.2084774313,
				"y": 2.0792732485,
				"z": -0.3032954056,
				"element": "O" 
			},
			{
				"x": -1.2902156416,
				"y": 4.2429613416,
				"z": 3.9700730087,
				"element": "C" 
			},
			{
				"x": -1.2862197121,
				"y": 5.6313862914,
				"z": 4.0463484456,
				"element": "C" 
			},
			{
				"x": -1.697480025,
				"y": 6.3362248853,
				"z": 0.7428323147,
				"element": "H" 
			},
			{
				"x": -1.7053883137,
				"y": 3.8420162074,
				"z": 0.6212337279,
				"element": "H" 
			},
			{
				"x": -1.5937121646,
				"y": 1.7291792035,
				"z": 3.8015779684,
				"element": "H" 
			},
			{
				"x": -1.8606159889,
				"y": -0.8718541579,
				"z": 1.6869342202,
				"element": "H" 
			},
			{
				"x": -1.5301852903,
				"y": -0.4296445578,
				"z": 3.3517314893,
				"element": "H" 
			},
			{
				"x": 0.0865404942,
				"y": -2.0953600057,
				"z": 2.017583234,
				"element": "H" 
			},
			{
				"x": 0.7703724623,
				"y": -0.9521154357,
				"z": 3.1619304543,
				"element": "H" 
			},
			{
				"x": 1.7641977797,
				"y": -1.186313304,
				"z": 0.671252042,
				"element": "H" 
			},
			{
				"x": 1.7890375612,
				"y": 0.332541958,
				"z": 1.5460755217,
				"element": "H" 
			},
			{
				"x": -0.2677915083,
				"y": 0.6720483915,
				"z": -1.9277958753,
				"element": "H" 
			},
			{
				"x": -0.0631047814,
				"y": -1.0769130993,
				"z": -3.6464846211,
				"element": "H" 
			},
			{
				"x": 1.4507469378,
				"y": -2.4929500135,
				"z": -5.033377529,
				"element": "H" 
			},
			{
				"x": 4.6155303396,
				"y": -1.8862514494,
				"z": -2.2102851069,
				"element": "H" 
			},
			{
				"x": 3.1236517722,
				"y": -0.4660309156,
				"z": -0.8217232626,
				"element": "H" 
			},
			{
				"x": -1.1853765314,
				"y": 3.6655967315,
				"z": 4.8849344199,
				"element": "H" 
			},
			{
				"x": -1.1847046226,
				"y": 6.1519328516,
				"z": 4.9923960409,
				"element": "H" 
			}
		],
		 "valence_orbital": [ 
			{
				"type": "occ",
				"energy": -0.26928,
				"method": "rhf"
			},
			{
				"type": "occ",
				"energy": -0.25765,
				"method": "rhf"
			},
			{
				"type": "occ",
				"energy": -0.24696,
				"method": "rhf"
			},
			{
				"type": "occ",
				"energy": -0.22907,
				"method": "rhf"
			},
			{
				"type": "occ",
				"energy": -0.22082,
				"method": "rhf"
			},
			{
				"type": "unocc",
				"energy": -0.07453,
				"method": "rhf"
			},
			{
				"type": "unocc",
				"energy": -0.03332,
				"method": "rhf"
			},
			{
				"type": "unocc",
				"energy": -0.01973,
				"method": "rhf"
			},
			{
				"type": "unocc",
				"energy": -0.00691,
				"method": "rhf"
			},
			{
				"type": "unocc",
				"energy": 0.01087,
				"method": "rhf"
			}
		],
		"cosmo_sigma_profile": { 
			"-0.025": 0.0,
			"-0.024": 0.0,
			"-0.023": 0.0,
			"-0.022": 0.0,
			"-0.021": 0.0,
			"-0.02": 0.0,
			"-0.019": 0.0,
			"-0.018": 0.0,
			"-0.017": 0.0,
			"-0.016": 0.0,
			"-0.015": 0.0,
			"-0.014": 0.0,
			"-0.013": 0.0,
			"-0.012": 0.0,
			"-0.011": 0.0,
			"-0.01": 0.0,
			"-0.009": 0.0,
			"-0.008": 0.966517128935,
			"-0.007": 9.78739216598,
			"-0.006": 17.5630351956,
			"-0.005": 18.7381655128,
			"-0.004": 23.5963430469,
			"-0.003": 29.7864371899,
			"-0.002": 28.7394503737,
			"-0.001": 24.8903265473,
			"0.0": 31.8795303201,
			"0.001": 32.6118917276,
			"0.002": 29.530671351,
			"0.003": 38.9067340517,
			"0.004": 37.9932552741,
			"0.005": 8.50388947485,
			"0.006": 2.79921374094,
			"0.007": 2.18480963378,
			"0.008": 1.33392618747,
			"0.009": 2.45188556799,
			"0.01": 1.74529433352,
			"0.011": 2.70952274219,
			"0.012": 1.66013350439,
			"0.013": 0.266158863339,
			"0.014": 0.0,
			"0.015": 0.0,
			"0.016": 0.0,
			"0.017": 0.0,
			"0.018": 0.0,
			"0.019": 0.0,
			"0.02": 0.0,
			"0.021": 0.0,
			"0.022": 0.0,
			"0.023": 0.0,
			"0.024": 0.0,
			"0.025": 0.0
		}
	}
}
