{
	 "smiles": "OCC(F)(F)C(F)(F)C(F)(F)C(F)(F)CO", 
	 "Tm": 342.15, 
	 "num_atms": 22, 
	 "gaussian": { 
		 "optdone": 1, 
		 "sigma_profile": "yes", 
		 "theory": "DFT", 
		 "functional": "B3LYP", 
		 "basiset": "6-31G**", 
		 "properties": { 
			 "R2extent": 4013.9189, 
			 "electric_dipole_moment_norm": 2.96697269789, 
			 "electric_quadrupole_moment_norm": 6.17878619552, 
			 "total_energy": -1181.37624794, 
			 "HOMO_LUMO_gap": 0.31612, 
			 "cosmo_polarized_energy": -11.95, 
			 "cosmo_cavitation_energy": 27.95, 
			 "cosmo_dispersion_energy": -19.38, 
			 "cosmo_repulsion_energy": 1.38, 
			 "cosmo_total_nonelectrostatic_energy": 9.95, 
			 "SMD_solvation_energy": 7.24 
		},
		"coords": [
			{
				"x": -1.0019264484,
				"y": 1.6579819569,
				"z": -0.128626728,
				"element": "O" 
			},
			{
				"x": -0.6470212671,
				"y": 0.9745138029,
				"z": -1.3031304494,
				"element": "C" 
			},
			{
				"x": 0.6494093223,
				"y": 0.1649699962,
				"z": -1.1886747598,
				"element": "C" 
			},
			{
				"x": 1.0300537997,
				"y": -0.1676679469,
				"z": -2.460788794,
				"element": "F" 
			},
			{
				"x": 1.6355071421,
				"y": 0.9122517123,
				"z": -0.6340594703,
				"element": "F" 
			},
			{
				"x": 0.5901176771,
				"y": -1.1929019419,
				"z": -0.4328280462,
				"element": "C" 
			},
			{
				"x": 1.8138238608,
				"y": -1.7651741731,
				"z": -0.5118616171,
				"element": "F" 
			},
			{
				"x": -0.3075087738,
				"y": -1.9825852937,
				"z": -1.0812963688,
				"element": "F" 
			},
			{
				"x": 0.1692896984,
				"y": -1.1471714965,
				"z": 1.0596282863,
				"element": "C" 
			},
			{
				"x": 0.8033190564,
				"y": -0.1370102121,
				"z": 1.6965983509,
				"element": "F" 
			},
			{
				"x": -1.1853293044,
				"y": -0.8791504108,
				"z": 1.0902393862,
				"element": "F" 
			},
			{
				"x": 0.4032650271,
				"y": -2.4389860213,
				"z": 1.8791663073,
				"element": "C" 
			},
			{
				"x": 1.739719748,
				"y": -2.6302693562,
				"z": 1.990402919,
				"element": "F" 
			},
			{
				"x": -0.117234417,
				"y": -3.4956930921,
				"z": 1.1755793225,
				"element": "F" 
			},
			{
				"x": -0.2460496352,
				"y": -2.4176371416,
				"z": 3.265994679,
				"element": "C" 
			},
			{
				"x": -0.0230318696,
				"y": -3.6354982827,
				"z": 3.9313971274,
				"element": "O" 
			},
			{
				"x": -1.4144975587,
				"y": 1.0330884455,
				"z": 0.4798626361,
				"element": "H" 
			},
			{
				"x": -0.446412852,
				"y": 1.7270244708,
				"z": -2.0712220265,
				"element": "H" 
			},
			{
				"x": -1.4332058941,
				"y": 0.3079872272,
				"z": -1.6813917795,
				"element": "H" 
			},
			{
				"x": -1.3121977249,
				"y": -2.1836426466,
				"z": 3.1468747539,
				"element": "H" 
			},
			{
				"x": 0.2196690884,
				"y": -1.6263437537,
				"z": 3.8578776565,
				"element": "H" 
			},
			{
				"x": -0.4068586752,
				"y": -4.3402858426,
				"z": 3.3914586147,
				"element": "H" 
			}
		],
		 "valence_orbital": [ 
			{
				"type": "occ",
				"energy": -0.36876,
				"method": "rhf"
			},
			{
				"type": "occ",
				"energy": -0.35323,
				"method": "rhf"
			},
			{
				"type": "occ",
				"energy": -0.34018,
				"method": "rhf"
			},
			{
				"type": "occ",
				"energy": -0.29989,
				"method": "rhf"
			},
			{
				"type": "occ",
				"energy": -0.29422,
				"method": "rhf"
			},
			{
				"type": "unocc",
				"energy": 0.0219,
				"method": "rhf"
			},
			{
				"type": "unocc",
				"energy": 0.03291,
				"method": "rhf"
			},
			{
				"type": "unocc",
				"energy": 0.06554,
				"method": "rhf"
			},
			{
				"type": "unocc",
				"energy": 0.087,
				"method": "rhf"
			},
			{
				"type": "unocc",
				"energy": 0.09713,
				"method": "rhf"
			}
		],
		"cosmo_sigma_profile": { 
			"-0.025": 0.0,
			"-0.024": 0.0,
			"-0.023": 0.0,
			"-0.022": 0.0,
			"-0.021": 0.0,
			"-0.02": 0.0,
			"-0.019": 0.0,
			"-0.018": 0.0,
			"-0.017": 0.0195334202827,
			"-0.016": 0.502464611723,
			"-0.015": 0.921535121536,
			"-0.014": 0.896714524454,
			"-0.013": 0.94230623925,
			"-0.012": 1.40610465006,
			"-0.011": 2.05652327404,
			"-0.01": 1.84312157835,
			"-0.009": 2.66812463175,
			"-0.008": 5.8896057144,
			"-0.007": 10.5350725334,
			"-0.006": 10.996827674,
			"-0.005": 11.3663516867,
			"-0.004": 9.06328562406,
			"-0.003": 7.48525307882,
			"-0.002": 8.7998485285,
			"-0.001": 8.55325150871,
			"0.0": 10.4576238667,
			"0.001": 23.1961486428,
			"0.002": 37.647428189,
			"0.003": 32.8426651742,
			"0.004": 6.40022863813,
			"0.005": 3.77749457906,
			"0.006": 3.44089581338,
			"0.007": 3.12538434338,
			"0.008": 2.57243731707,
			"0.009": 1.36837283696,
			"0.01": 3.81015832506,
			"0.011": 2.96055853345,
			"0.012": 3.8101929938,
			"0.013": 1.82705476499,
			"0.014": 0.0,
			"0.015": 0.0,
			"0.016": 0.0,
			"0.017": 0.0,
			"0.018": 0.0,
			"0.019": 0.0,
			"0.02": 0.0,
			"0.021": 0.0,
			"0.022": 0.0,
			"0.023": 0.0,
			"0.024": 0.0,
			"0.025": 0.0
		}
	}
}
