{
	 "smiles": "ClCC1=NC(=NO1)C1=NC=CC=C1", 
	 "Tm": 376.15, 
	 "num_atms": 19, 
	 "gaussian": { 
		 "optdone": 1, 
		 "sigma_profile": "yes", 
		 "theory": "DFT", 
		 "functional": "B3LYP", 
		 "basiset": "6-31G**", 
		 "properties": { 
			 "R2extent": 4021.7907, 
			 "electric_dipole_moment_norm": 2.60553885789, 
			 "electric_quadrupole_moment_norm": 19.2270002915, 
			 "total_energy": -1008.08902787, 
			 "HOMO_LUMO_gap": 0.1956, 
			 "cosmo_polarized_energy": -12.82, 
			 "cosmo_cavitation_energy": 26.59, 
			 "cosmo_dispersion_energy": -19.91, 
			 "cosmo_repulsion_energy": 1.59, 
			 "cosmo_total_nonelectrostatic_energy": 8.27, 
			 "SMD_solvation_energy": 1.25 
		},
		"coords": [
			{
				"x": 2.501164575,
				"y": -2.1347925663,
				"z": 2.5235772914,
				"element": "Cl" 
			},
			{
				"x": 0.768847219,
				"y": -1.7549692777,
				"z": 2.1322457517,
				"element": "C" 
			},
			{
				"x": 0.5962174601,
				"y": -1.3752019952,
				"z": 0.7057872452,
				"element": "C" 
			},
			{
				"x": 0.4127039062,
				"y": -0.1869526563,
				"z": 0.2174479895,
				"element": "N" 
			},
			{
				"x": 0.3145216536,
				"y": -0.4416124897,
				"z": -1.1352705503,
				"element": "C" 
			},
			{
				"x": 0.430322663,
				"y": -1.7140594226,
				"z": -1.4547903911,
				"element": "N" 
			},
			{
				"x": 0.6170199034,
				"y": -2.3468230822,
				"z": -0.2258511384,
				"element": "O" 
			},
			{
				"x": 0.0975825657,
				"y": 0.5999589654,
				"z": -2.1616176156,
				"element": "C" 
			},
			{
				"x": -0.0632258176,
				"y": 1.8550366854,
				"z": -1.7183673481,
				"element": "N" 
			},
			{
				"x": -0.2607690904,
				"y": 2.8104385607,
				"z": -2.6307921751,
				"element": "C" 
			},
			{
				"x": -0.3082992475,
				"y": 2.5715864591,
				"z": -4.0059366614,
				"element": "C" 
			},
			{
				"x": -0.1402386996,
				"y": 1.2617704273,
				"z": -4.4555020543,
				"element": "C" 
			},
			{
				"x": 0.0673303992,
				"y": 0.2527293498,
				"z": -3.5203065383,
				"element": "C" 
			},
			{
				"x": 0.4669129193,
				"y": -0.9192728298,
				"z": 2.7603428188,
				"element": "H" 
			},
			{
				"x": 0.1909443772,
				"y": -2.6470913987,
				"z": 2.3738975011,
				"element": "H" 
			},
			{
				"x": -0.3877602649,
				"y": 3.819443804,
				"z": -2.2427821819,
				"element": "H" 
			},
			{
				"x": -0.4717087742,
				"y": 3.3900719341,
				"z": -4.6997311334,
				"element": "H" 
			},
			{
				"x": -0.1690405121,
				"y": 1.0296024086,
				"z": -5.5159309315,
				"element": "H" 
			},
			{
				"x": 0.2048747645,
				"y": -0.7805628758,
				"z": -3.8187198784,
				"element": "H" 
			}
		],
		 "valence_orbital": [ 
			{
				"type": "occ",
				"energy": -0.30784,
				"method": "rhf"
			},
			{
				"type": "occ",
				"energy": -0.30598,
				"method": "rhf"
			},
			{
				"type": "occ",
				"energy": -0.29657,
				"method": "rhf"
			},
			{
				"type": "occ",
				"energy": -0.2647,
				"method": "rhf"
			},
			{
				"type": "occ",
				"energy": -0.26091,
				"method": "rhf"
			},
			{
				"type": "unocc",
				"energy": -0.06531,
				"method": "rhf"
			},
			{
				"type": "unocc",
				"energy": -0.04283,
				"method": "rhf"
			},
			{
				"type": "unocc",
				"energy": -0.02756,
				"method": "rhf"
			},
			{
				"type": "unocc",
				"energy": 0.0327,
				"method": "rhf"
			},
			{
				"type": "unocc",
				"energy": 0.06054,
				"method": "rhf"
			}
		],
		"cosmo_sigma_profile": { 
			"-0.025": 0.0,
			"-0.024": 0.0,
			"-0.023": 0.0,
			"-0.022": 0.0,
			"-0.021": 0.0,
			"-0.02": 0.0,
			"-0.019": 0.0,
			"-0.018": 0.0,
			"-0.017": 0.0,
			"-0.016": 0.0,
			"-0.015": 0.0,
			"-0.014": 0.0,
			"-0.013": 0.0,
			"-0.012": 0.0,
			"-0.011": 0.487023728889,
			"-0.01": 4.32621554477,
			"-0.009": 4.00690590305,
			"-0.008": 6.53463918806,
			"-0.007": 12.3233607496,
			"-0.006": 13.9355611604,
			"-0.005": 10.8862148461,
			"-0.004": 9.40805357694,
			"-0.003": 9.76741531438,
			"-0.002": 13.5618073767,
			"-0.001": 15.0333078693,
			"0.0": 17.8320812053,
			"0.001": 20.0389360982,
			"0.002": 15.8897069475,
			"0.003": 9.18503612768,
			"0.004": 12.4906540003,
			"0.005": 14.2608536359,
			"0.006": 5.57357827305,
			"0.007": 3.78065747508,
			"0.008": 2.78018630003,
			"0.009": 2.10173485001,
			"0.01": 2.89347256099,
			"0.011": 2.04324869058,
			"0.012": 1.57382930759,
			"0.013": 1.31101842407,
			"0.014": 1.27753188247,
			"0.015": 1.26691922692,
			"0.016": 1.29269058124,
			"0.017": 1.06794908795,
			"0.018": 0.167394318897,
			"0.019": 0.0,
			"0.02": 0.0,
			"0.021": 0.0,
			"0.022": 0.0,
			"0.023": 0.0,
			"0.024": 0.0,
			"0.025": 0.0
		}
	}
}
