{
	 "smiles": "CC1=NNC2=C1C=C(N)C=N2", 
	 "Tm": 460.15, 
	 "num_atms": 19, 
	 "gaussian": { 
		 "optdone": 1, 
		 "sigma_profile": "yes", 
		 "theory": "DFT", 
		 "functional": "B3LYP", 
		 "basiset": "6-31G**", 
		 "properties": { 
			 "R2extent": 2238.8953, 
			 "electric_dipole_moment_norm": 3.02368489264, 
			 "electric_quadrupole_moment_norm": 10.5415711144, 
			 "total_energy": -490.56323249, 
			 "HOMO_LUMO_gap": 0.16234, 
			 "cosmo_polarized_energy": -13.94, 
			 "cosmo_cavitation_energy": 23.07, 
			 "cosmo_dispersion_energy": -17.47, 
			 "cosmo_repulsion_energy": 1.41, 
			 "cosmo_total_nonelectrostatic_energy": 7.01, 
			 "SMD_solvation_energy": 1.26 
		},
		"coords": [
			{
				"x": 0.1652094025,
				"y": -0.9331790242,
				"z": -1.8320586906,
				"element": "C" 
			},
			{
				"x": -0.1967315998,
				"y": -0.9157266274,
				"z": -0.3803238254,
				"element": "C" 
			},
			{
				"x": 0.1402311196,
				"y": -1.9203810839,
				"z": 0.4187958937,
				"element": "N" 
			},
			{
				"x": -0.324392195,
				"y": -1.6110037969,
				"z": 1.6569381421,
				"element": "N" 
			},
			{
				"x": -0.9654390683,
				"y": -0.4031494959,
				"z": 1.6767749923,
				"element": "C" 
			},
			{
				"x": -0.9058500223,
				"y": 0.091893583,
				"z": 0.3528594203,
				"element": "C" 
			},
			{
				"x": -1.5043122006,
				"y": 1.3343237062,
				"z": 0.0964703462,
				"element": "C" 
			},
			{
				"x": -2.1100689425,
				"y": 1.9924038715,
				"z": 1.1670183029,
				"element": "C" 
			},
			{
				"x": -2.6789575472,
				"y": 3.2667939119,
				"z": 1.0323417022,
				"element": "N" 
			},
			{
				"x": -2.0912735795,
				"y": 1.3723832008,
				"z": 2.4494182368,
				"element": "C" 
			},
			{
				"x": -1.5380435746,
				"y": 0.1959002746,
				"z": 2.7246043937,
				"element": "N" 
			},
			{
				"x": 0.7986868272,
				"y": -0.0787771863,
				"z": -2.0981306132,
				"element": "H" 
			},
			{
				"x": 0.7093419997,
				"y": -1.8510235815,
				"z": -2.0648890808,
				"element": "H" 
			},
			{
				"x": -0.7261024552,
				"y": -0.8890127594,
				"z": -2.4691711367,
				"element": "H" 
			},
			{
				"x": -0.1721653085,
				"y": -2.2423824182,
				"z": 2.4266745356,
				"element": "H" 
			},
			{
				"x": -1.4976293999,
				"y": 1.7782682192,
				"z": -0.8960245349,
				"element": "H" 
			},
			{
				"x": -3.4039928514,
				"y": 3.4738548189,
				"z": 1.7067746706,
				"element": "H" 
			},
			{
				"x": -2.9844807174,
				"y": 3.4909461352,
				"z": 0.0945882574,
				"element": "H" 
			},
			{
				"x": -2.5619298869,
				"y": 1.8900682526,
				"z": 3.2855389878,
				"element": "H" 
			}
		],
		 "valence_orbital": [ 
			{
				"type": "occ",
				"energy": -0.28904,
				"method": "rhf"
			},
			{
				"type": "occ",
				"energy": -0.28301,
				"method": "rhf"
			},
			{
				"type": "occ",
				"energy": -0.26156,
				"method": "rhf"
			},
			{
				"type": "occ",
				"energy": -0.23257,
				"method": "rhf"
			},
			{
				"type": "occ",
				"energy": -0.19979,
				"method": "rhf"
			},
			{
				"type": "unocc",
				"energy": -0.03745,
				"method": "rhf"
			},
			{
				"type": "unocc",
				"energy": 0.02755,
				"method": "rhf"
			},
			{
				"type": "unocc",
				"energy": 0.05731,
				"method": "rhf"
			},
			{
				"type": "unocc",
				"energy": 0.07634,
				"method": "rhf"
			},
			{
				"type": "unocc",
				"energy": 0.09906,
				"method": "rhf"
			}
		],
		"cosmo_sigma_profile": { 
			"-0.025": 0.0,
			"-0.024": 0.0,
			"-0.023": 0.0,
			"-0.022": 0.0,
			"-0.021": 0.0,
			"-0.02": 0.0,
			"-0.019": 0.0,
			"-0.018": 0.0,
			"-0.017": 0.0,
			"-0.016": 0.838033388777,
			"-0.015": 1.33964640039,
			"-0.014": 1.19920592282,
			"-0.013": 1.10847250623,
			"-0.012": 4.34490116614,
			"-0.011": 3.28885942946,
			"-0.01": 3.7613363002,
			"-0.009": 5.26947887888,
			"-0.008": 3.81075417192,
			"-0.007": 4.55313363826,
			"-0.006": 5.24941931317,
			"-0.005": 6.08154284815,
			"-0.004": 11.1426799697,
			"-0.003": 11.9420841933,
			"-0.002": 9.63891615287,
			"-0.001": 11.2048495901,
			"0.0": 11.0626679387,
			"0.001": 8.37621397572,
			"0.002": 17.5181968352,
			"0.003": 15.3742574276,
			"0.004": 9.727833255,
			"0.005": 6.12160841713,
			"0.006": 4.24749215344,
			"0.007": 3.50938539229,
			"0.008": 4.00206796382,
			"0.009": 2.35917004241,
			"0.01": 2.01531825669,
			"0.011": 3.46578778875,
			"0.012": 2.69756524986,
			"0.013": 3.31714263873,
			"0.014": 1.97475683145,
			"0.015": 1.97229141328,
			"0.016": 0.96908930448,
			"0.017": 0.0,
			"0.018": 0.0,
			"0.019": 0.0,
			"0.02": 0.0,
			"0.021": 0.0,
			"0.022": 0.0,
			"0.023": 0.0,
			"0.024": 0.0,
			"0.025": 0.0
		}
	}
}
