{
	 "smiles": "O=S1(=O)CCN1", 
	 "Tm": 325.15, 
	 "num_atms": 11, 
	 "gaussian": { 
		 "optdone": 1, 
		 "sigma_profile": "yes", 
		 "theory": "DFT", 
		 "functional": "B3LYP", 
		 "basiset": "6-31G**", 
		 "properties": { 
			 "R2extent": 1031.9481, 
			 "electric_dipole_moment_norm": 4.79718461704, 
			 "electric_quadrupole_moment_norm": 9.1811665615, 
			 "total_energy": -682.514789367, 
			 "HOMO_LUMO_gap": 0.30436, 
			 "cosmo_polarized_energy": -15.55, 
			 "cosmo_cavitation_energy": 15.65, 
			 "cosmo_dispersion_energy": -12.91, 
			 "cosmo_repulsion_energy": 1.06, 
			 "cosmo_total_nonelectrostatic_energy": 3.8, 
			 "SMD_solvation_energy": 0.51 
		},
		"coords": [
			{
				"x": -2.0263298612,
				"y": 0.1386534631,
				"z": -0.1813493339,
				"element": "O" 
			},
			{
				"x": -1.0998744251,
				"y": -0.9697183247,
				"z": -0.3845964838,
				"element": "S" 
			},
			{
				"x": -1.0055519473,
				"y": -2.0350632781,
				"z": 0.620724453,
				"element": "O" 
			},
			{
				"x": 0.5546674615,
				"y": -0.5146594562,
				"z": -1.0316809757,
				"element": "C" 
			},
			{
				"x": 0.2978032368,
				"y": -1.516429723,
				"z": -2.1808251175,
				"element": "C" 
			},
			{
				"x": -1.176566216,
				"y": -1.6064267792,
				"z": -1.9853688285,
				"element": "N" 
			},
			{
				"x": 0.5721237961,
				"y": 0.5325173603,
				"z": -1.3352052832,
				"element": "H" 
			},
			{
				"x": 1.3617831683,
				"y": -0.7476448249,
				"z": -0.338351358,
				"element": "H" 
			},
			{
				"x": 0.5447159755,
				"y": -1.1300682791,
				"z": -3.1723309526,
				"element": "H" 
			},
			{
				"x": 0.8208309978,
				"y": -2.4632809277,
				"z": -2.013080405,
				"element": "H" 
			},
			{
				"x": -1.6026021865,
				"y": -2.5287792305,
				"z": -2.0564357146,
				"element": "H" 
			}
		],
		 "valence_orbital": [ 
			{
				"type": "occ",
				"energy": -0.34528,
				"method": "rhf"
			},
			{
				"type": "occ",
				"energy": -0.32929,
				"method": "rhf"
			},
			{
				"type": "occ",
				"energy": -0.31702,
				"method": "rhf"
			},
			{
				"type": "occ",
				"energy": -0.30956,
				"method": "rhf"
			},
			{
				"type": "occ",
				"energy": -0.27243,
				"method": "rhf"
			},
			{
				"type": "unocc",
				"energy": 0.03193,
				"method": "rhf"
			},
			{
				"type": "unocc",
				"energy": 0.04328,
				"method": "rhf"
			},
			{
				"type": "unocc",
				"energy": 0.05942,
				"method": "rhf"
			},
			{
				"type": "unocc",
				"energy": 0.06932,
				"method": "rhf"
			},
			{
				"type": "unocc",
				"energy": 0.07707,
				"method": "rhf"
			}
		],
		"cosmo_sigma_profile": { 
			"-0.025": 0.0,
			"-0.024": 0.0,
			"-0.023": 0.0,
			"-0.022": 0.0,
			"-0.021": 0.0,
			"-0.02": 0.0,
			"-0.019": 0.0,
			"-0.018": 0.0,
			"-0.017": 0.0,
			"-0.016": 0.0,
			"-0.015": 0.555531744113,
			"-0.014": 1.37329455407,
			"-0.013": 1.94880863151,
			"-0.012": 1.21813759214,
			"-0.011": 1.27840422637,
			"-0.01": 1.22235448754,
			"-0.009": 3.96544799574,
			"-0.008": 7.42968789259,
			"-0.007": 10.2330156424,
			"-0.006": 12.0787110391,
			"-0.005": 10.3737005238,
			"-0.004": 9.32212590837,
			"-0.003": 4.65858946059,
			"-0.002": 1.84905389013,
			"-0.001": 2.73274117732,
			"0.0": 1.68311171063,
			"0.001": 2.07751288428,
			"0.002": 2.18630597104,
			"0.003": 1.89798077617,
			"0.004": 2.1226736174,
			"0.005": 2.21262937181,
			"0.006": 2.81892553693,
			"0.007": 2.47682291181,
			"0.008": 3.42468874878,
			"0.009": 4.19204681439,
			"0.01": 10.5048605581,
			"0.011": 14.5162140107,
			"0.012": 2.95959913628,
			"0.013": 0.554540351512,
			"0.014": 0.140450183451,
			"0.015": 0.0,
			"0.016": 0.0,
			"0.017": 0.0,
			"0.018": 0.0,
			"0.019": 0.0,
			"0.02": 0.0,
			"0.021": 0.0,
			"0.022": 0.0,
			"0.023": 0.0,
			"0.024": 0.0,
			"0.025": 0.0
		}
	}
}
