{
	 "smiles": "CC1=CC(C=O)=C(C)N1C1=NC=CS1", 
	 "Tm": 317.15, 
	 "num_atms": 24, 
	 "gaussian": { 
		 "optdone": 1, 
		 "sigma_profile": "yes", 
		 "theory": "DFT", 
		 "functional": "B3LYP", 
		 "basiset": "6-31G**", 
		 "properties": { 
			 "R2extent": 3378.6112, 
			 "electric_dipole_moment_norm": 5.35978365235, 
			 "electric_quadrupole_moment_norm": 14.0788577743, 
			 "total_energy": -969.979169611, 
			 "HOMO_LUMO_gap": 0.16342, 
			 "cosmo_polarized_energy": -10.15, 
			 "cosmo_cavitation_energy": 28.83, 
			 "cosmo_dispersion_energy": -21.79, 
			 "cosmo_repulsion_energy": 1.63, 
			 "cosmo_total_nonelectrostatic_energy": 8.67, 
			 "SMD_solvation_energy": 5.79 
		},
		"coords": [
			{
				"x": 1.6137516103,
				"y": -1.4369579396,
				"z": -1.2803851656,
				"element": "C" 
			},
			{
				"x": 0.8795039105,
				"y": -0.184396979,
				"z": -0.9221303559,
				"element": "C" 
			},
			{
				"x": 1.1699927581,
				"y": 1.07853392,
				"z": -1.3409378259,
				"element": "C" 
			},
			{
				"x": 0.2237309606,
				"y": 1.9863255593,
				"z": -0.7679181537,
				"element": "C" 
			},
			{
				"x": 0.2364801577,
				"y": 3.4272132622,
				"z": -1.0046609232,
				"element": "C" 
			},
			{
				"x": -0.5366394683,
				"y": 4.2583396654,
				"z": -0.5506544828,
				"element": "O" 
			},
			{
				"x": -0.6569218385,
				"y": 1.2509985604,
				"z": 0.014364446,
				"element": "C" 
			},
			{
				"x": -1.8102738385,
				"y": 1.7736892382,
				"z": 0.8046834626,
				"element": "C" 
			},
			{
				"x": -0.2590938052,
				"y": -0.0921870744,
				"z": -0.0750512054,
				"element": "N" 
			},
			{
				"x": -0.9083615517,
				"y": -1.1483258802,
				"z": 0.5827612601,
				"element": "C" 
			},
			{
				"x": -1.9498552769,
				"y": -0.9759716471,
				"z": 1.3442253225,
				"element": "N" 
			},
			{
				"x": -2.3968522516,
				"y": -2.1625687727,
				"z": 1.8693982551,
				"element": "C" 
			},
			{
				"x": -1.6994468725,
				"y": -3.2760483694,
				"z": 1.5165689934,
				"element": "C" 
			},
			{
				"x": -0.3932453469,
				"y": -2.8433846054,
				"z": 0.4594296687,
				"element": "S" 
			},
			{
				"x": 0.9939036704,
				"y": -2.1645714304,
				"z": -1.816438353,
				"element": "H" 
			},
			{
				"x": 2.0544362804,
				"y": -1.9438806084,
				"z": -0.4144710316,
				"element": "H" 
			},
			{
				"x": 2.4351329612,
				"y": -1.1591637422,
				"z": -1.9454641795,
				"element": "H" 
			},
			{
				"x": 1.9868665029,
				"y": 1.3403413161,
				"z": -2.0003378357,
				"element": "H" 
			},
			{
				"x": 1.06158167,
				"y": 3.749691321,
				"z": -1.6798477592,
				"element": "H" 
			},
			{
				"x": -2.7561988741,
				"y": 1.3271481378,
				"z": 0.485704326,
				"element": "H" 
			},
			{
				"x": -1.8422235637,
				"y": 2.8531099361,
				"z": 0.6585005828,
				"element": "H" 
			},
			{
				"x": -1.7090953772,
				"y": 1.545562656,
				"z": 1.869412928,
				"element": "H" 
			},
			{
				"x": -3.2613917519,
				"y": -2.1518933562,
				"z": 2.5223348803,
				"element": "H" 
			},
			{
				"x": -1.8626806651,
				"y": -4.3051031674,
				"z": 1.802113146,
				"element": "H" 
			}
		],
		 "valence_orbital": [ 
			{
				"type": "occ",
				"energy": -0.28902,
				"method": "rhf"
			},
			{
				"type": "occ",
				"energy": -0.28819,
				"method": "rhf"
			},
			{
				"type": "occ",
				"energy": -0.23884,
				"method": "rhf"
			},
			{
				"type": "occ",
				"energy": -0.23254,
				"method": "rhf"
			},
			{
				"type": "occ",
				"energy": -0.21759,
				"method": "rhf"
			},
			{
				"type": "unocc",
				"energy": -0.05417,
				"method": "rhf"
			},
			{
				"type": "unocc",
				"energy": -0.01745,
				"method": "rhf"
			},
			{
				"type": "unocc",
				"energy": 0.00396,
				"method": "rhf"
			},
			{
				"type": "unocc",
				"energy": 0.02447,
				"method": "rhf"
			},
			{
				"type": "unocc",
				"energy": 0.05569,
				"method": "rhf"
			}
		],
		"cosmo_sigma_profile": { 
			"-0.025": 0.0,
			"-0.024": 0.0,
			"-0.023": 0.0,
			"-0.022": 0.0,
			"-0.021": 0.0,
			"-0.02": 0.0,
			"-0.019": 0.0,
			"-0.018": 0.0,
			"-0.017": 0.0,
			"-0.016": 0.0,
			"-0.015": 0.0,
			"-0.014": 0.0,
			"-0.013": 0.0,
			"-0.012": 0.0,
			"-0.011": 0.0,
			"-0.01": 0.797527847739,
			"-0.009": 2.21737457326,
			"-0.008": 2.60644887838,
			"-0.007": 4.67715537036,
			"-0.006": 9.79895969115,
			"-0.005": 16.0414024116,
			"-0.004": 16.0537586264,
			"-0.003": 16.6103808871,
			"-0.002": 20.8543752012,
			"-0.001": 22.6512088356,
			"0.0": 24.9844982137,
			"0.001": 18.9164309415,
			"0.002": 20.2788004822,
			"0.003": 15.6020551899,
			"0.004": 10.4326569231,
			"0.005": 6.69971046021,
			"0.006": 4.32835636853,
			"0.007": 3.17141404075,
			"0.008": 3.15851032709,
			"0.009": 1.81637925566,
			"0.01": 2.02429723113,
			"0.011": 2.81910313421,
			"0.012": 3.42997999366,
			"0.013": 1.99588564558,
			"0.014": 0.761128789054,
			"0.015": 0.0,
			"0.016": 0.0,
			"0.017": 0.0,
			"0.018": 0.0,
			"0.019": 0.0,
			"0.02": 0.0,
			"0.021": 0.0,
			"0.022": 0.0,
			"0.023": 0.0,
			"0.024": 0.0,
			"0.025": 0.0
		}
	}
}
