{
	 "smiles": "CC(C)(C)C1=CC=C(NC2=C(C=CC=N2)C(N)=S)C=C1", 
	 "Tm": 426.15, 
	 "num_atms": 39, 
	 "gaussian": { 
		 "optdone": 1, 
		 "sigma_profile": "yes", 
		 "theory": "DFT", 
		 "functional": "B3LYP", 
		 "basiset": "6-31G**", 
		 "properties": { 
			 "R2extent": 8253.8494, 
			 "electric_dipole_moment_norm": 4.21408257157, 
			 "electric_quadrupole_moment_norm": 26.9585534632, 
			 "total_energy": -1183.61387889, 
			 "HOMO_LUMO_gap": 0.1492, 
			 "cosmo_polarized_energy": -21.55, 
			 "cosmo_cavitation_energy": 42.59, 
			 "cosmo_dispersion_energy": -29.07, 
			 "cosmo_repulsion_energy": 2.21, 
			 "cosmo_total_nonelectrostatic_energy": 15.74, 
			 "SMD_solvation_energy": 4.91 
		},
		"coords": [
			{
				"x": -2.7666858806,
				"y": -3.1251404275,
				"z": 1.3077169633,
				"element": "C" 
			},
			{
				"x": -1.7595021233,
				"y": -2.888669823,
				"z": 0.1569989785,
				"element": "C" 
			},
			{
				"x": -2.4056166591,
				"y": -3.3775935807,
				"z": -1.1531449563,
				"element": "C" 
			},
			{
				"x": -0.4867811339,
				"y": -3.7316869546,
				"z": 0.4104122517,
				"element": "C" 
			},
			{
				"x": -1.3835079616,
				"y": -1.3974194565,
				"z": 0.1007910654,
				"element": "C" 
			},
			{
				"x": -0.7822563117,
				"y": -0.7791445668,
				"z": 1.2114485325,
				"element": "C" 
			},
			{
				"x": -0.4121075909,
				"y": 0.5603570759,
				"z": 1.1981292748,
				"element": "C" 
			},
			{
				"x": -0.6471021756,
				"y": 1.351654668,
				"z": 0.0653623952,
				"element": "C" 
			},
			{
				"x": -0.3154567542,
				"y": 2.7234670888,
				"z": 0.1163408078,
				"element": "N" 
			},
			{
				"x": -0.0412727714,
				"y": 3.5899071163,
				"z": -0.9228320417,
				"element": "C" 
			},
			{
				"x": 0.6787208404,
				"y": 3.2368898924,
				"z": -2.0998401192,
				"element": "C" 
			},
			{
				"x": 0.7842924971,
				"y": 4.2174521314,
				"z": -3.0948722673,
				"element": "C" 
			},
			{
				"x": 0.2796896821,
				"y": 5.4995013369,
				"z": -2.8917198568,
				"element": "C" 
			},
			{
				"x": -0.3113230868,
				"y": 5.7641826123,
				"z": -1.6577201439,
				"element": "C" 
			},
			{
				"x": -0.4891193035,
				"y": 4.8412112361,
				"z": -0.7128059917,
				"element": "N" 
			},
			{
				"x": 1.4402591343,
				"y": 1.9673429153,
				"z": -2.2868759525,
				"element": "C" 
			},
			{
				"x": 1.1875937184,
				"y": 1.3374855508,
				"z": -3.4575983603,
				"element": "N" 
			},
			{
				"x": 2.6078720344,
				"y": 1.4354616407,
				"z": -1.2295367615,
				"element": "S" 
			},
			{
				"x": -1.264595609,
				"y": 0.7614396553,
				"z": -1.0414821752,
				"element": "C" 
			},
			{
				"x": -1.611124181,
				"y": -0.5907006733,
				"z": -1.0213826563,
				"element": "C" 
			},
			{
				"x": -2.3516207823,
				"y": -2.8346714371,
				"z": 2.2774200132,
				"element": "H" 
			},
			{
				"x": -3.6834063611,
				"y": -2.5471210376,
				"z": 1.1507743197,
				"element": "H" 
			},
			{
				"x": -3.0386821994,
				"y": -4.1852719438,
				"z": 1.3665723681,
				"element": "H" 
			},
			{
				"x": -2.6535182989,
				"y": -4.4406342304,
				"z": -1.0683233693,
				"element": "H" 
			},
			{
				"x": -1.7298588436,
				"y": -3.2642802034,
				"z": -2.0074529768,
				"element": "H" 
			},
			{
				"x": -3.3332894146,
				"y": -2.8399515068,
				"z": -1.3761116382,
				"element": "H" 
			},
			{
				"x": 0.2433474233,
				"y": -3.5894049896,
				"z": -0.3929309081,
				"element": "H" 
			},
			{
				"x": -0.7374354256,
				"y": -4.7976301698,
				"z": 0.4591543091,
				"element": "H" 
			},
			{
				"x": -0.0004233177,
				"y": -3.4611015908,
				"z": 1.3522664327,
				"element": "H" 
			},
			{
				"x": -0.5817802941,
				"y": -1.3575443113,
				"z": 2.1085840062,
				"element": "H" 
			},
			{
				"x": 0.0771628275,
				"y": 1.0020406413,
				"z": 2.0614494422,
				"element": "H" 
			},
			{
				"x": -0.6418304432,
				"y": 3.2250332891,
				"z": 0.9327584603,
				"element": "H" 
			},
			{
				"x": 1.3262622936,
				"y": 3.9808969533,
				"z": -4.0062703436,
				"element": "H" 
			},
			{
				"x": 0.3775145018,
				"y": 6.2734845582,
				"z": -3.6447411087,
				"element": "H" 
			},
			{
				"x": -0.6689122407,
				"y": 6.7639485815,
				"z": -1.4165830676,
				"element": "H" 
			},
			{
				"x": 1.6872822029,
				"y": 0.4839719776,
				"z": -3.6631696127,
				"element": "H" 
			},
			{
				"x": 0.3917660879,
				"y": 1.5880295704,
				"z": -4.0256765525,
				"element": "H" 
			},
			{
				"x": -1.4957344282,
				"y": 1.3625016071,
				"z": -1.9150752316,
				"element": "H" 
			},
			{
				"x": -2.0882196517,
				"y": -1.0054931957,
				"z": -1.902333529,
				"element": "H" 
			}
		],
		 "valence_orbital": [ 
			{
				"type": "occ",
				"energy": -0.25618,
				"method": "rhf"
			},
			{
				"type": "occ",
				"energy": -0.24752,
				"method": "rhf"
			},
			{
				"type": "occ",
				"energy": -0.22458,
				"method": "rhf"
			},
			{
				"type": "occ",
				"energy": -0.20495,
				"method": "rhf"
			},
			{
				"type": "occ",
				"energy": -0.19825,
				"method": "rhf"
			},
			{
				"type": "unocc",
				"energy": -0.04905,
				"method": "rhf"
			},
			{
				"type": "unocc",
				"energy": -0.0234,
				"method": "rhf"
			},
			{
				"type": "unocc",
				"energy": -0.00538,
				"method": "rhf"
			},
			{
				"type": "unocc",
				"energy": 0.00247,
				"method": "rhf"
			},
			{
				"type": "unocc",
				"energy": 0.02267,
				"method": "rhf"
			}
		],
		"cosmo_sigma_profile": { 
			"-0.025": 0.0,
			"-0.024": 0.0,
			"-0.023": 0.0,
			"-0.022": 0.0,
			"-0.021": 0.0,
			"-0.02": 0.0,
			"-0.019": 0.0,
			"-0.018": 0.0,
			"-0.017": 0.0,
			"-0.016": 0.0889750305152,
			"-0.015": 1.77713640867,
			"-0.014": 2.60160485019,
			"-0.013": 3.07215851742,
			"-0.012": 3.13327867199,
			"-0.011": 3.00675657296,
			"-0.01": 3.55338261111,
			"-0.009": 2.79851385832,
			"-0.008": 2.95964765421,
			"-0.007": 8.26518094615,
			"-0.006": 11.5660610043,
			"-0.005": 16.4536328026,
			"-0.004": 17.2827385122,
			"-0.003": 24.3591097822,
			"-0.002": 31.2877839457,
			"-0.001": 26.5945782526,
			"0.0": 25.7454275863,
			"0.001": 34.2578157477,
			"0.002": 26.0306027885,
			"0.003": 17.0170139316,
			"0.004": 12.1679354999,
			"0.005": 10.7730370929,
			"0.006": 11.1259981385,
			"0.007": 8.07116433573,
			"0.008": 9.3995506225,
			"0.009": 8.72784688614,
			"0.01": 5.4820564262,
			"0.011": 4.6091393923,
			"0.012": 3.71895666723,
			"0.013": 1.51851703316,
			"0.014": 0.850308180003,
			"0.015": 0.0629452801903,
			"0.016": 0.0,
			"0.017": 0.0,
			"0.018": 0.0,
			"0.019": 0.0,
			"0.02": 0.0,
			"0.021": 0.0,
			"0.022": 0.0,
			"0.023": 0.0,
			"0.024": 0.0,
			"0.025": 0.0
		}
	}
}
