{
	 "smiles": "CC(C)(C)C1=NC=C(N)C=N1", 
	 "Tm": 393.15, 
	 "num_atms": 24, 
	 "gaussian": { 
		 "optdone": 1, 
		 "sigma_profile": "yes", 
		 "theory": "DFT", 
		 "functional": "B3LYP", 
		 "basiset": "6-31G**", 
		 "properties": { 
			 "R2extent": 2334.9848, 
			 "electric_dipole_moment_norm": 3.59306228446, 
			 "electric_quadrupole_moment_norm": 19.7153265, 
			 "total_energy": -476.951648583, 
			 "HOMO_LUMO_gap": 0.18878, 
			 "cosmo_polarized_energy": -11.33, 
			 "cosmo_cavitation_energy": 26.36, 
			 "cosmo_dispersion_energy": -19.04, 
			 "cosmo_repulsion_energy": 1.54, 
			 "cosmo_total_nonelectrostatic_energy": 8.86, 
			 "SMD_solvation_energy": 3.0 
		},
		"coords": [
			{
				"x": 1.3683925793,
				"y": -0.4757531477,
				"z": 1.8273688967,
				"element": "C" 
			},
			{
				"x": 0.2249083604,
				"y": 0.030927092,
				"z": 0.9340033566,
				"element": "C" 
			},
			{
				"x": -0.1773840773,
				"y": 1.4596385812,
				"z": 1.3664178545,
				"element": "C" 
			},
			{
				"x": -0.9978417262,
				"y": -0.9044345044,
				"z": 1.0755602556,
				"element": "C" 
			},
			{
				"x": 0.6451456802,
				"y": 0.0666070093,
				"z": -0.5382699366,
				"element": "C" 
			},
			{
				"x": 1.8808184826,
				"y": -0.3241574485,
				"z": -0.8766449137,
				"element": "N" 
			},
			{
				"x": 2.2155645571,
				"y": -0.2793713616,
				"z": -2.1669838939,
				"element": "C" 
			},
			{
				"x": 1.3356774506,
				"y": 0.1552918638,
				"z": -3.1669311098,
				"element": "C" 
			},
			{
				"x": 1.7052155555,
				"y": 0.2581474054,
				"z": -4.5034327533,
				"element": "N" 
			},
			{
				"x": 0.0656049649,
				"y": 0.5375790797,
				"z": -2.7033512185,
				"element": "C" 
			},
			{
				"x": -0.2762799612,
				"y": 0.4954459941,
				"z": -1.4200711832,
				"element": "N" 
			},
			{
				"x": 2.2504500156,
				"y": 0.1657506287,
				"z": 1.7506174923,
				"element": "H" 
			},
			{
				"x": 1.6763243969,
				"y": -1.4871088002,
				"z": 1.5484256675,
				"element": "H" 
			},
			{
				"x": 1.0402371171,
				"y": -0.4896123265,
				"z": 2.8726103002,
				"element": "H" 
			},
			{
				"x": -0.5266855915,
				"y": 1.4570399806,
				"z": 2.4050123347,
				"element": "H" 
			},
			{
				"x": -0.9780523624,
				"y": 1.8463785428,
				"z": 0.7307379966,
				"element": "H" 
			},
			{
				"x": 0.674308468,
				"y": 2.1456030247,
				"z": 1.2991911506,
				"element": "H" 
			},
			{
				"x": -1.8170284852,
				"y": -0.5717584131,
				"z": 0.4329011238,
				"element": "H" 
			},
			{
				"x": -0.7409175427,
				"y": -1.9328347228,
				"z": 0.7980423958,
				"element": "H" 
			},
			{
				"x": -1.349955272,
				"y": -0.9137608194,
				"z": 2.113148413,
				"element": "H" 
			},
			{
				"x": 3.2260441434,
				"y": -0.6008691925,
				"z": -2.4242139761,
				"element": "H" 
			},
			{
				"x": 0.9435237383,
				"y": 0.2359804158,
				"z": -5.1677892038,
				"element": "H" 
			},
			{
				"x": 2.474043454,
				"y": -0.3333438763,
				"z": -4.7881264269,
				"element": "H" 
			},
			{
				"x": -0.6923139453,
				"y": 0.888714995,
				"z": -3.4058226221,
				"element": "H" 
			}
		],
		 "valence_orbital": [ 
			{
				"type": "occ",
				"energy": -0.31332,
				"method": "rhf"
			},
			{
				"type": "occ",
				"energy": -0.30588,
				"method": "rhf"
			},
			{
				"type": "occ",
				"energy": -0.2898,
				"method": "rhf"
			},
			{
				"type": "occ",
				"energy": -0.23588,
				"method": "rhf"
			},
			{
				"type": "occ",
				"energy": -0.2199,
				"method": "rhf"
			},
			{
				"type": "unocc",
				"energy": -0.03112,
				"method": "rhf"
			},
			{
				"type": "unocc",
				"energy": -0.00175,
				"method": "rhf"
			},
			{
				"type": "unocc",
				"energy": 0.06737,
				"method": "rhf"
			},
			{
				"type": "unocc",
				"energy": 0.10299,
				"method": "rhf"
			},
			{
				"type": "unocc",
				"energy": 0.1188,
				"method": "rhf"
			}
		],
		"cosmo_sigma_profile": { 
			"-0.025": 0.0,
			"-0.024": 0.0,
			"-0.023": 0.0,
			"-0.022": 0.0,
			"-0.021": 0.0,
			"-0.02": 0.0,
			"-0.019": 0.0,
			"-0.018": 0.0,
			"-0.017": 0.0,
			"-0.016": 0.0,
			"-0.015": 0.0,
			"-0.014": 0.0764489558906,
			"-0.013": 2.51897340637,
			"-0.012": 3.19690951367,
			"-0.011": 3.73083057228,
			"-0.01": 3.04824354416,
			"-0.009": 3.0495189051,
			"-0.008": 3.60610239318,
			"-0.007": 4.91468935552,
			"-0.006": 4.35661103352,
			"-0.005": 3.79749655503,
			"-0.004": 2.9877789977,
			"-0.003": 9.20108002631,
			"-0.002": 20.7829477626,
			"-0.001": 19.6840560124,
			"0.0": 23.3311401531,
			"0.001": 31.5150342948,
			"0.002": 22.3949443042,
			"0.003": 7.20259231726,
			"0.004": 5.84465501948,
			"0.005": 4.77577537999,
			"0.006": 4.35730131803,
			"0.007": 4.52305521478,
			"0.008": 3.7756991892,
			"0.009": 2.61696915915,
			"0.01": 3.09528935117,
			"0.011": 2.35111579013,
			"0.012": 2.39535485263,
			"0.013": 1.85063263101,
			"0.014": 0.908173029565,
			"0.015": 0.143046408793,
			"0.016": 0.0,
			"0.017": 0.0,
			"0.018": 0.0,
			"0.019": 0.0,
			"0.02": 0.0,
			"0.021": 0.0,
			"0.022": 0.0,
			"0.023": 0.0,
			"0.024": 0.0,
			"0.025": 0.0
		}
	}
}
