{
	 "smiles": "NNC(=O)CCC1=C(O)C=CC=C1", 
	 "Tm": 440.15, 
	 "num_atms": 25, 
	 "gaussian": { 
		 "optdone": 1, 
		 "sigma_profile": "yes", 
		 "theory": "DFT", 
		 "functional": "B3LYP", 
		 "basiset": "6-31G**", 
		 "properties": { 
			 "R2extent": 2998.6204, 
			 "electric_dipole_moment_norm": 1.67049628554, 
			 "electric_quadrupole_moment_norm": 10.8282363652, 
			 "total_energy": -610.125431935, 
			 "HOMO_LUMO_gap": 0.21871, 
			 "cosmo_polarized_energy": -17.06, 
			 "cosmo_cavitation_energy": 28.7, 
			 "cosmo_dispersion_energy": -20.11, 
			 "cosmo_repulsion_energy": 1.62, 
			 "cosmo_total_nonelectrostatic_energy": 10.22, 
			 "SMD_solvation_energy": 5.73 
		},
		"coords": [
			{
				"x": 2.7077391909,
				"y": 0.3895599622,
				"z": -3.2376098455,
				"element": "N" 
			},
			{
				"x": 2.8085475071,
				"y": 0.5973278461,
				"z": -1.8472966717,
				"element": "N" 
			},
			{
				"x": 2.9064302891,
				"y": -0.4502467281,
				"z": -0.9754462193,
				"element": "C" 
			},
			{
				"x": 3.0280201828,
				"y": -1.6076519017,
				"z": -1.3628790804,
				"element": "O" 
			},
			{
				"x": 2.886115463,
				"y": -0.0773361022,
				"z": 0.5036336126,
				"element": "C" 
			},
			{
				"x": 1.957958534,
				"y": -1.0248428504,
				"z": 1.2947236485,
				"element": "C" 
			},
			{
				"x": 0.4892262722,
				"y": -0.8220748868,
				"z": 0.9848046964,
				"element": "C" 
			},
			{
				"x": -0.2319920737,
				"y": 0.2493759869,
				"z": 1.5451175923,
				"element": "C" 
			},
			{
				"x": 0.3372705599,
				"y": 1.1465414899,
				"z": 2.4141372165,
				"element": "O" 
			},
			{
				"x": -1.5764819917,
				"y": 0.4558402837,
				"z": 1.2232852799,
				"element": "C" 
			},
			{
				"x": -2.2170865905,
				"y": -0.4022622492,
				"z": 0.3327794842,
				"element": "C" 
			},
			{
				"x": -1.5217316359,
				"y": -1.472025018,
				"z": -0.2354416689,
				"element": "C" 
			},
			{
				"x": -0.1814050358,
				"y": -1.67106044,
				"z": 0.0940338903,
				"element": "C" 
			},
			{
				"x": 2.1271913461,
				"y": -0.4394526555,
				"z": -3.3714805461,
				"element": "H" 
			},
			{
				"x": 3.6331982116,
				"y": 0.125324153,
				"z": -3.5740517721,
				"element": "H" 
			},
			{
				"x": 2.4890412008,
				"y": 1.5009698428,
				"z": -1.5303801108,
				"element": "H" 
			},
			{
				"x": 3.9142818026,
				"y": -0.1791378158,
				"z": 0.8726458088,
				"element": "H" 
			},
			{
				"x": 2.5917581832,
				"y": 0.9690149782,
				"z": 0.6459933886,
				"element": "H" 
			},
			{
				"x": 2.1580439701,
				"y": -0.9072789464,
				"z": 2.3701735905,
				"element": "H" 
			},
			{
				"x": 2.244565505,
				"y": -2.050032677,
				"z": 1.046770882,
				"element": "H" 
			},
			{
				"x": 1.2032668654,
				"y": 0.8206988271,
				"z": 2.6889107896,
				"element": "H" 
			},
			{
				"x": -2.0965322286,
				"y": 1.2902926265,
				"z": 1.6825724024,
				"element": "H" 
			},
			{
				"x": -3.2620458429,
				"y": -0.2357630162,
				"z": 0.0870508464,
				"element": "H" 
			},
			{
				"x": -2.0175932631,
				"y": -2.1449620602,
				"z": -0.9281138271,
				"element": "H" 
			},
			{
				"x": 0.3737135783,
				"y": -2.491618649,
				"z": -0.352033387,
				"element": "H" 
			}
		],
		 "valence_orbital": [ 
			{
				"type": "occ",
				"energy": -0.285,
				"method": "rhf"
			},
			{
				"type": "occ",
				"energy": -0.26014,
				"method": "rhf"
			},
			{
				"type": "occ",
				"energy": -0.25749,
				"method": "rhf"
			},
			{
				"type": "occ",
				"energy": -0.24383,
				"method": "rhf"
			},
			{
				"type": "occ",
				"energy": -0.21879,
				"method": "rhf"
			},
			{
				"type": "unocc",
				"energy": -8e-05,
				"method": "rhf"
			},
			{
				"type": "unocc",
				"energy": 0.0123,
				"method": "rhf"
			},
			{
				"type": "unocc",
				"energy": 0.02063,
				"method": "rhf"
			},
			{
				"type": "unocc",
				"energy": 0.05591,
				"method": "rhf"
			},
			{
				"type": "unocc",
				"energy": 0.08185,
				"method": "rhf"
			}
		],
		"cosmo_sigma_profile": { 
			"-0.025": 0.0,
			"-0.024": 0.0,
			"-0.023": 0.0,
			"-0.022": 0.0,
			"-0.021": 0.0,
			"-0.02": 0.0,
			"-0.019": 0.0,
			"-0.018": 0.0,
			"-0.017": 0.0267112298199,
			"-0.016": 0.76092706063,
			"-0.015": 1.04715594203,
			"-0.014": 2.25622323327,
			"-0.013": 1.62243397206,
			"-0.012": 2.81984850565,
			"-0.011": 3.75120950371,
			"-0.01": 3.91020119249,
			"-0.009": 5.37074264603,
			"-0.008": 4.73988799797,
			"-0.007": 3.93475492052,
			"-0.006": 7.05210170579,
			"-0.005": 14.1283398083,
			"-0.004": 16.5471852042,
			"-0.003": 18.7722914187,
			"-0.002": 14.8488132845,
			"-0.001": 12.8509002641,
			"0.0": 10.0545461279,
			"0.001": 10.8599873163,
			"0.002": 10.4806849419,
			"0.003": 12.3964608675,
			"0.004": 13.2858650353,
			"0.005": 12.277390662,
			"0.006": 10.3254773069,
			"0.007": 4.82676663578,
			"0.008": 3.63748037511,
			"0.009": 3.96311324932,
			"0.01": 3.03590724812,
			"0.011": 3.69201536608,
			"0.012": 2.85371343928,
			"0.013": 3.97465895861,
			"0.014": 4.14310754345,
			"0.015": 0.767337977901,
			"0.016": 0.536066448745,
			"0.017": 0.318396031093,
			"0.018": 0.0,
			"0.019": 0.0,
			"0.02": 0.0,
			"0.021": 0.0,
			"0.022": 0.0,
			"0.023": 0.0,
			"0.024": 0.0,
			"0.025": 0.0
		}
	}
}
