{
	 "smiles": "CC(C)(C)OC(=O)N1CCCC(C1)C#N", 
	 "Tm": 338.15, 
	 "num_atms": 33, 
	 "gaussian": { 
		 "optdone": 1, 
		 "sigma_profile": "yes", 
		 "theory": "DFT", 
		 "functional": "B3LYP", 
		 "basiset": "6-31G**", 
		 "properties": { 
			 "R2extent": 4263.728, 
			 "electric_dipole_moment_norm": 4.47889567862, 
			 "electric_quadrupole_moment_norm": 23.3731654163, 
			 "total_energy": -689.989571222, 
			 "HOMO_LUMO_gap": 0.26763, 
			 "cosmo_polarized_energy": -14.58, 
			 "cosmo_cavitation_energy": 34.46, 
			 "cosmo_dispersion_energy": -23.28, 
			 "cosmo_repulsion_energy": 1.85, 
			 "cosmo_total_nonelectrostatic_energy": 13.02, 
			 "SMD_solvation_energy": 7.25 
		},
		"coords": [
			{
				"x": 2.9149912614,
				"y": 1.6067026179,
				"z": -1.1845662428,
				"element": "C" 
			},
			{
				"x": 2.2869912132,
				"y": 0.2145083729,
				"z": -1.3087933371,
				"element": "C" 
			},
			{
				"x": 2.2261664322,
				"y": -0.2701268774,
				"z": -2.7610443954,
				"element": "C" 
			},
			{
				"x": 3.0277450598,
				"y": -0.7964371593,
				"z": -0.4294926746,
				"element": "C" 
			},
			{
				"x": 0.9360962393,
				"y": 0.2158136673,
				"z": -0.7220629521,
				"element": "O" 
			},
			{
				"x": -0.041044197,
				"y": 1.0008350046,
				"z": -1.2315015188,
				"element": "C" 
			},
			{
				"x": 0.0714219413,
				"y": 1.7632179949,
				"z": -2.1814212691,
				"element": "O" 
			},
			{
				"x": -1.2037195091,
				"y": 0.8367126908,
				"z": -0.5167615328,
				"element": "N" 
			},
			{
				"x": -1.3259689715,
				"y": -0.1303268348,
				"z": 0.5851824275,
				"element": "C" 
			},
			{
				"x": -2.6322323802,
				"y": 0.1169819711,
				"z": 1.3434745269,
				"element": "C" 
			},
			{
				"x": -3.87420894,
				"y": -0.0185103452,
				"z": 0.4398145801,
				"element": "C" 
			},
			{
				"x": -3.6059633365,
				"y": 0.529515108,
				"z": -1.0015588186,
				"element": "C" 
			},
			{
				"x": -2.4058229624,
				"y": 1.5029192036,
				"z": -1.0020803342,
				"element": "C" 
			},
			{
				"x": -3.3780970008,
				"y": -0.5687014011,
				"z": -1.9524948876,
				"element": "C" 
			},
			{
				"x": -3.2003499148,
				"y": -1.4491051684,
				"z": -2.6883454817,
				"element": "N" 
			},
			{
				"x": 3.9575373996,
				"y": 1.5694100375,
				"z": -1.5169621607,
				"element": "H" 
			},
			{
				"x": 2.9036803007,
				"y": 1.9373262825,
				"z": -0.1409088365,
				"element": "H" 
			},
			{
				"x": 2.3761715105,
				"y": 2.3334202066,
				"z": -1.7926760166,
				"element": "H" 
			},
			{
				"x": 1.7316384336,
				"y": -1.2449530648,
				"z": -2.8157307187,
				"element": "H" 
			},
			{
				"x": 3.2425244233,
				"y": -0.3814434372,
				"z": -3.1528591415,
				"element": "H" 
			},
			{
				"x": 1.6816245407,
				"y": 0.437299788,
				"z": -3.3864454315,
				"element": "H" 
			},
			{
				"x": 3.0334507173,
				"y": -0.4705570973,
				"z": 0.6149391459,
				"element": "H" 
			},
			{
				"x": 4.0638522972,
				"y": -0.8977652021,
				"z": -0.7657616547,
				"element": "H" 
			},
			{
				"x": 2.5487223109,
				"y": -1.7783590149,
				"z": -0.4827594149,
				"element": "H" 
			},
			{
				"x": -1.2994524422,
				"y": -1.157840158,
				"z": 0.196212464,
				"element": "H" 
			},
			{
				"x": -0.4693837873,
				"y": -0.0185725636,
				"z": 1.2536689539,
				"element": "H" 
			},
			{
				"x": -2.7000757001,
				"y": -0.5885796834,
				"z": 2.1774921972,
				"element": "H" 
			},
			{
				"x": -2.5980653207,
				"y": 1.1191772,
				"z": 1.7863440712,
				"element": "H" 
			},
			{
				"x": -4.7115537785,
				"y": 0.5324596376,
				"z": 0.8788270948,
				"element": "H" 
			},
			{
				"x": -4.1852879769,
				"y": -1.0650273956,
				"z": 0.3760004625,
				"element": "H" 
			},
			{
				"x": -4.487169929,
				"y": 1.077305549,
				"z": -1.3555957694,
				"element": "H" 
			},
			{
				"x": -2.6684731584,
				"y": 2.364044012,
				"z": -0.3718647412,
				"element": "H" 
			},
			{
				"x": -2.1930447753,
				"y": 1.8785560586,
				"z": -2.0028685938,
				"element": "H" 
			}
		],
		 "valence_orbital": [ 
			{
				"type": "occ",
				"energy": -0.32075,
				"method": "rhf"
			},
			{
				"type": "occ",
				"energy": -0.31745,
				"method": "rhf"
			},
			{
				"type": "occ",
				"energy": -0.28653,
				"method": "rhf"
			},
			{
				"type": "occ",
				"energy": -0.26095,
				"method": "rhf"
			},
			{
				"type": "occ",
				"energy": -0.23975,
				"method": "rhf"
			},
			{
				"type": "unocc",
				"energy": 0.02788,
				"method": "rhf"
			},
			{
				"type": "unocc",
				"energy": 0.03669,
				"method": "rhf"
			},
			{
				"type": "unocc",
				"energy": 0.05504,
				"method": "rhf"
			},
			{
				"type": "unocc",
				"energy": 0.06892,
				"method": "rhf"
			},
			{
				"type": "unocc",
				"energy": 0.08847,
				"method": "rhf"
			}
		],
		"cosmo_sigma_profile": { 
			"-0.025": 0.0,
			"-0.024": 0.0,
			"-0.023": 0.0,
			"-0.022": 0.0,
			"-0.021": 0.0,
			"-0.02": 0.0,
			"-0.019": 0.0,
			"-0.018": 0.0,
			"-0.017": 0.0,
			"-0.016": 0.0,
			"-0.015": 0.0,
			"-0.014": 0.0,
			"-0.013": 0.0,
			"-0.012": 0.0,
			"-0.011": 0.0,
			"-0.01": 0.0,
			"-0.009": 0.763673572578,
			"-0.008": 3.65609817865,
			"-0.007": 4.48844030173,
			"-0.006": 8.19139716922,
			"-0.005": 13.3777491147,
			"-0.004": 31.815520235,
			"-0.003": 34.154293008,
			"-0.002": 27.5680274706,
			"-0.001": 24.6063182154,
			"0.0": 29.1099944903,
			"0.001": 23.7567249237,
			"0.002": 9.00934205774,
			"0.003": 7.28929910349,
			"0.004": 5.53615939339,
			"0.005": 6.47860086044,
			"0.006": 5.36137566504,
			"0.007": 4.79168540374,
			"0.008": 4.10558599056,
			"0.009": 4.67221250127,
			"0.01": 4.56874910895,
			"0.011": 4.99272434467,
			"0.012": 4.11985338414,
			"0.013": 5.14638580922,
			"0.014": 1.30248711444,
			"0.015": 0.0,
			"0.016": 0.0,
			"0.017": 0.0,
			"0.018": 0.0,
			"0.019": 0.0,
			"0.02": 0.0,
			"0.021": 0.0,
			"0.022": 0.0,
			"0.023": 0.0,
			"0.024": 0.0,
			"0.025": 0.0
		}
	}
}
