{
	 "smiles": "CC1=C(C=CC=C1)C1=NON=C1N", 
	 "Tm": 362.15, 
	 "num_atms": 22, 
	 "gaussian": { 
		 "optdone": 1, 
		 "sigma_profile": "yes", 
		 "theory": "DFT", 
		 "functional": "B3LYP", 
		 "basiset": "6-31G**", 
		 "properties": { 
			 "R2extent": 2537.4866, 
			 "electric_dipole_moment_norm": 4.82996066858, 
			 "electric_quadrupole_moment_norm": 12.1522590966, 
			 "total_energy": -587.783852963, 
			 "HOMO_LUMO_gap": 0.20559, 
			 "cosmo_polarized_energy": -13.03, 
			 "cosmo_cavitation_energy": 26.24, 
			 "cosmo_dispersion_energy": -18.99, 
			 "cosmo_repulsion_energy": 1.51, 
			 "cosmo_total_nonelectrostatic_energy": 8.75, 
			 "SMD_solvation_energy": 4.14 
		},
		"coords": [
			{
				"x": -0.5201221894,
				"y": -1.9187636264,
				"z": 0.5488112141,
				"element": "C" 
			},
			{
				"x": 0.5875806031,
				"y": -0.9071540536,
				"z": 0.3643699267,
				"element": "C" 
			},
			{
				"x": 0.4082951784,
				"y": 0.4592513874,
				"z": 0.6795171569,
				"element": "C" 
			},
			{
				"x": 1.483189363,
				"y": 1.3544178584,
				"z": 0.5706704076,
				"element": "C" 
			},
			{
				"x": 2.7319589789,
				"y": 0.9205719566,
				"z": 0.1310572885,
				"element": "C" 
			},
			{
				"x": 2.9117488826,
				"y": -0.4211252004,
				"z": -0.2042580165,
				"element": "C" 
			},
			{
				"x": 1.8499153486,
				"y": -1.3177772812,
				"z": -0.0822943532,
				"element": "C" 
			},
			{
				"x": -0.8978569474,
				"y": 0.9834558633,
				"z": 1.1369948028,
				"element": "C" 
			},
			{
				"x": -1.0613264985,
				"y": 1.588296803,
				"z": 2.2877878105,
				"element": "N" 
			},
			{
				"x": -2.3659255403,
				"y": 1.9907276241,
				"z": 2.3331184017,
				"element": "O" 
			},
			{
				"x": -3.0421999853,
				"y": 1.6505643655,
				"z": 1.1719303697,
				"element": "N" 
			},
			{
				"x": -2.1558699917,
				"y": 1.0302984417,
				"z": 0.4332788068,
				"element": "C" 
			},
			{
				"x": -2.4393317418,
				"y": 0.4881741853,
				"z": -0.8052130856,
				"element": "N" 
			},
			{
				"x": -0.8752183606,
				"y": -1.9267646414,
				"z": 1.5853989895,
				"element": "H" 
			},
			{
				"x": -1.3877212406,
				"y": -1.6999727359,
				"z": -0.082388544,
				"element": "H" 
			},
			{
				"x": -0.16816903,
				"y": -2.9250539197,
				"z": 0.3077433373,
				"element": "H" 
			},
			{
				"x": 1.3250155366,
				"y": 2.3957306218,
				"z": 0.8336654315,
				"element": "H" 
			},
			{
				"x": 3.5544981467,
				"y": 1.6246834157,
				"z": 0.0501820835,
				"element": "H" 
			},
			{
				"x": 3.8785741818,
				"y": -0.7734322456,
				"z": -0.5523156022,
				"element": "H" 
			},
			{
				"x": 2.0031325258,
				"y": -2.3662202506,
				"z": -0.3244480474,
				"element": "H" 
			},
			{
				"x": -1.6633688287,
				"y": 0.5093508924,
				"z": -1.4540386039,
				"element": "H" 
			},
			{
				"x": -3.3001983912,
				"y": 0.8306405396,
				"z": -1.2122697743,
				"element": "H" 
			}
		],
		 "valence_orbital": [ 
			{
				"type": "occ",
				"energy": -0.3049,
				"method": "rhf"
			},
			{
				"type": "occ",
				"energy": -0.30291,
				"method": "rhf"
			},
			{
				"type": "occ",
				"energy": -0.2606,
				"method": "rhf"
			},
			{
				"type": "occ",
				"energy": -0.2514,
				"method": "rhf"
			},
			{
				"type": "occ",
				"energy": -0.24515,
				"method": "rhf"
			},
			{
				"type": "unocc",
				"energy": -0.03956,
				"method": "rhf"
			},
			{
				"type": "unocc",
				"energy": -0.01401,
				"method": "rhf"
			},
			{
				"type": "unocc",
				"energy": -0.00753,
				"method": "rhf"
			},
			{
				"type": "unocc",
				"energy": 0.05715,
				"method": "rhf"
			},
			{
				"type": "unocc",
				"energy": 0.07044,
				"method": "rhf"
			}
		],
		"cosmo_sigma_profile": { 
			"-0.025": 0.0,
			"-0.024": 0.0,
			"-0.023": 0.0,
			"-0.022": 0.0,
			"-0.021": 0.0,
			"-0.02": 0.0,
			"-0.019": 0.0,
			"-0.018": 0.0,
			"-0.017": 0.0,
			"-0.016": 0.0,
			"-0.015": 0.0429581586548,
			"-0.014": 1.84944595826,
			"-0.013": 2.55090112965,
			"-0.012": 2.35128213388,
			"-0.011": 2.78882531654,
			"-0.01": 2.55880181928,
			"-0.009": 2.0920107051,
			"-0.008": 2.01427618184,
			"-0.007": 2.56592338955,
			"-0.006": 8.52937254159,
			"-0.005": 12.2396895703,
			"-0.004": 16.0164202807,
			"-0.003": 15.333478124,
			"-0.002": 13.3417735493,
			"-0.001": 15.1607713521,
			"0.0": 16.8682880904,
			"0.001": 11.4498179537,
			"0.002": 10.3718589063,
			"0.003": 11.5204993468,
			"0.004": 13.5857005264,
			"0.005": 11.9175076618,
			"0.006": 8.9273124197,
			"0.007": 9.36982096653,
			"0.008": 4.1752477366,
			"0.009": 3.43113374603,
			"0.01": 2.50791378347,
			"0.011": 2.60376744165,
			"0.012": 2.09083859072,
			"0.013": 1.15702897222,
			"0.014": 0.00922885880811,
			"0.015": 0.0,
			"0.016": 0.0,
			"0.017": 0.0,
			"0.018": 0.0,
			"0.019": 0.0,
			"0.02": 0.0,
			"0.021": 0.0,
			"0.022": 0.0,
			"0.023": 0.0,
			"0.024": 0.0,
			"0.025": 0.0
		}
	}
}
