{
	 "smiles": "CCOC(CCl)OCC", 
	 "Tm": 228.15, 
	 "num_atms": 22, 
	 "gaussian": { 
		 "optdone": 1, 
		 "sigma_profile": "yes", 
		 "theory": "DFT", 
		 "functional": "B3LYP", 
		 "basiset": "6-31G**", 
		 "properties": { 
			 "R2extent": 2860.3512, 
			 "electric_dipole_moment_norm": 2.24138771523, 
			 "electric_quadrupole_moment_norm": 7.61831138508, 
			 "total_energy": -847.105278018, 
			 "HOMO_LUMO_gap": 0.28496, 
			 "cosmo_polarized_energy": -6.57, 
			 "cosmo_cavitation_energy": 26.12, 
			 "cosmo_dispersion_energy": -18.48, 
			 "cosmo_repulsion_energy": 1.57, 
			 "cosmo_total_nonelectrostatic_energy": 9.2, 
			 "SMD_solvation_energy": 4.53 
		},
		"coords": [
			{
				"x": -1.7974093324,
				"y": 1.8900195803,
				"z": -0.3943203013,
				"element": "C" 
			},
			{
				"x": -0.5072708996,
				"y": 1.970340403,
				"z": -1.1921262839,
				"element": "C" 
			},
			{
				"x": 0.1222947334,
				"y": 0.6866552069,
				"z": -1.1390656845,
				"element": "O" 
			},
			{
				"x": 1.3045865633,
				"y": 0.5349649796,
				"z": -1.8944705039,
				"element": "C" 
			},
			{
				"x": 2.526740619,
				"y": 0.3983634125,
				"z": -0.9847330535,
				"element": "C" 
			},
			{
				"x": 2.8815179338,
				"y": 1.9320819922,
				"z": -0.0917217971,
				"element": "Cl" 
			},
			{
				"x": 1.2877779597,
				"y": -0.6661883586,
				"z": -2.6101931391,
				"element": "O" 
			},
			{
				"x": 0.2472885793,
				"y": -0.7982441141,
				"z": -3.587775983,
				"element": "C" 
			},
			{
				"x": -0.8781754315,
				"y": -1.6952790166,
				"z": -3.088711071,
				"element": "C" 
			},
			{
				"x": -1.5879684524,
				"y": 1.6179949364,
				"z": 0.6439689004,
				"element": "H" 
			},
			{
				"x": -2.3076969012,
				"y": 2.8583567381,
				"z": -0.4027020105,
				"element": "H" 
			},
			{
				"x": -2.4714029155,
				"y": 1.138942577,
				"z": -0.8168662228,
				"element": "H" 
			},
			{
				"x": -0.71469612,
				"y": 2.2443877908,
				"z": -2.2385644488,
				"element": "H" 
			},
			{
				"x": 0.1561857078,
				"y": 2.7365827919,
				"z": -0.7721929407,
				"element": "H" 
			},
			{
				"x": 1.4187178389,
				"y": 1.3980190707,
				"z": -2.5737654299,
				"element": "H" 
			},
			{
				"x": 2.3388193138,
				"y": -0.3768379733,
				"z": -0.2421496884,
				"element": "H" 
			},
			{
				"x": 3.4119598795,
				"y": 0.1531961076,
				"z": -1.5705352161,
				"element": "H" 
			},
			{
				"x": 0.718708273,
				"y": -1.2318831538,
				"z": -4.4774963654,
				"element": "H" 
			},
			{
				"x": -0.1356094889,
				"y": 0.1925681427,
				"z": -3.8670668385,
				"element": "H" 
			},
			{
				"x": -0.4851347726,
				"y": -2.6792394238,
				"z": -2.815836933,
				"element": "H" 
			},
			{
				"x": -1.3520101027,
				"y": -1.2580074741,
				"z": -2.2076040474,
				"element": "H" 
			},
			{
				"x": -1.6329229849,
				"y": -1.8325942153,
				"z": -3.8713709416,
				"element": "H" 
			}
		],
		 "valence_orbital": [ 
			{
				"type": "occ",
				"energy": -0.32034,
				"method": "rhf"
			},
			{
				"type": "occ",
				"energy": -0.30344,
				"method": "rhf"
			},
			{
				"type": "occ",
				"energy": -0.29554,
				"method": "rhf"
			},
			{
				"type": "occ",
				"energy": -0.27801,
				"method": "rhf"
			},
			{
				"type": "occ",
				"energy": -0.25792,
				"method": "rhf"
			},
			{
				"type": "unocc",
				"energy": 0.02704,
				"method": "rhf"
			},
			{
				"type": "unocc",
				"energy": 0.07779,
				"method": "rhf"
			},
			{
				"type": "unocc",
				"energy": 0.10376,
				"method": "rhf"
			},
			{
				"type": "unocc",
				"energy": 0.11401,
				"method": "rhf"
			},
			{
				"type": "unocc",
				"energy": 0.12093,
				"method": "rhf"
			}
		],
		"cosmo_sigma_profile": { 
			"-0.025": 0.0,
			"-0.024": 0.0,
			"-0.023": 0.0,
			"-0.022": 0.0,
			"-0.021": 0.0,
			"-0.02": 0.0,
			"-0.019": 0.0,
			"-0.018": 0.0,
			"-0.017": 0.0,
			"-0.016": 0.0,
			"-0.015": 0.0,
			"-0.014": 0.0,
			"-0.013": 0.0,
			"-0.012": 0.0,
			"-0.011": 0.0,
			"-0.01": 0.0,
			"-0.009": 0.0,
			"-0.008": 0.596435869513,
			"-0.007": 3.23567172668,
			"-0.006": 5.36739232044,
			"-0.005": 10.9091436024,
			"-0.004": 15.8745961931,
			"-0.003": 26.0904596181,
			"-0.002": 24.2729962043,
			"-0.001": 21.7695241507,
			"0.0": 21.2178804283,
			"0.001": 18.0568118229,
			"0.002": 8.65157205118,
			"0.003": 8.18940816639,
			"0.004": 7.4549845598,
			"0.005": 7.73388447269,
			"0.006": 10.9671692304,
			"0.007": 4.42119007425,
			"0.008": 2.84698671375,
			"0.009": 3.12108690346,
			"0.01": 1.97703475592,
			"0.011": 1.80891477346,
			"0.012": 0.712735937283,
			"0.013": 0.0697389707845,
			"0.014": 0.0,
			"0.015": 0.0,
			"0.016": 0.0,
			"0.017": 0.0,
			"0.018": 0.0,
			"0.019": 0.0,
			"0.02": 0.0,
			"0.021": 0.0,
			"0.022": 0.0,
			"0.023": 0.0,
			"0.024": 0.0,
			"0.025": 0.0
		}
	}
}
