{
	 "smiles": "CCCCCC=CBr", 
	 "Tm": 175.15, 
	 "num_atms": 21, 
	 "gaussian": { 
		 "optdone": 1, 
		 "sigma_profile": "yes", 
		 "theory": "DFT", 
		 "functional": "B3LYP", 
		 "basiset": "6-31G**", 
		 "properties": { 
			 "R2extent": 4883.2661, 
			 "electric_dipole_moment_norm": 2.16218529271, 
			 "electric_quadrupole_moment_norm": 10.9727798392, 
			 "total_energy": -2845.97458732, 
			 "HOMO_LUMO_gap": 0.24737, 
			 "cosmo_polarized_energy": -3.25, 
			 "cosmo_cavitation_energy": 25.21, 
			 "cosmo_dispersion_energy": -18.57, 
			 "cosmo_repulsion_energy": 1.58, 
			 "cosmo_total_nonelectrostatic_energy": 8.23, 
			 "SMD_solvation_energy": 3.09 
		},
		"coords": [
			{
				"x": 1.4376113394,
				"y": -1.6273495386,
				"z": -1.4872418421,
				"element": "C" 
			},
			{
				"x": 1.6957832433,
				"y": -0.2291710627,
				"z": -0.9131686811,
				"element": "C" 
			},
			{
				"x": 0.9751025084,
				"y": 0.9104874386,
				"z": -1.6557572421,
				"element": "C" 
			},
			{
				"x": -0.5648552337,
				"y": 0.8560135173,
				"z": -1.6298211818,
				"element": "C" 
			},
			{
				"x": -1.211306334,
				"y": 1.0060734854,
				"z": -0.2428360891,
				"element": "C" 
			},
			{
				"x": -1.1389089256,
				"y": 2.3633317612,
				"z": 0.4177763931,
				"element": "C" 
			},
			{
				"x": -0.7545889244,
				"y": 3.495358661,
				"z": -0.1650868531,
				"element": "C" 
			},
			{
				"x": -0.7475366628,
				"y": 5.1745896009,
				"z": 0.7479541469,
				"element": "Br" 
			},
			{
				"x": 2.0306696755,
				"y": -2.3833502429,
				"z": -0.9622861594,
				"element": "H" 
			},
			{
				"x": 1.7059839558,
				"y": -1.6736800818,
				"z": -2.5492284637,
				"element": "H" 
			},
			{
				"x": 0.3861774019,
				"y": -1.9210431927,
				"z": -1.400200037,
				"element": "H" 
			},
			{
				"x": 2.7735367491,
				"y": -0.0254846766,
				"z": -0.9444207956,
				"element": "H" 
			},
			{
				"x": 1.4251898303,
				"y": -0.2135480437,
				"z": 0.1505781052,
				"element": "H" 
			},
			{
				"x": 1.2992814053,
				"y": 0.9028463476,
				"z": -2.7053489392,
				"element": "H" 
			},
			{
				"x": 1.3142294403,
				"y": 1.8659814966,
				"z": -1.2391715398,
				"element": "H" 
			},
			{
				"x": -0.9630239135,
				"y": 1.628869325,
				"z": -2.2996241142,
				"element": "H" 
			},
			{
				"x": -0.8999268559,
				"y": -0.0968095823,
				"z": -2.0560891148,
				"element": "H" 
			},
			{
				"x": -0.7833634136,
				"y": 0.2695900609,
				"z": 0.4506929813,
				"element": "H" 
			},
			{
				"x": -2.2753513384,
				"y": 0.7351651655,
				"z": -0.3140651518,
				"element": "H" 
			},
			{
				"x": -1.4607489907,
				"y": 2.3995989527,
				"z": 1.4569236762,
				"element": "H" 
			},
			{
				"x": -0.4170549569,
				"y": 3.5897306087,
				"z": -1.1884790981,
				"element": "H" 
			}
		],
		 "valence_orbital": [ 
			{
				"type": "occ",
				"energy": -0.3241,
				"method": "rhf"
			},
			{
				"type": "occ",
				"energy": -0.31854,
				"method": "rhf"
			},
			{
				"type": "occ",
				"energy": -0.31568,
				"method": "rhf"
			},
			{
				"type": "occ",
				"energy": -0.27919,
				"method": "rhf"
			},
			{
				"type": "occ",
				"energy": -0.2399,
				"method": "rhf"
			},
			{
				"type": "unocc",
				"energy": 0.00747,
				"method": "rhf"
			},
			{
				"type": "unocc",
				"energy": 0.01548,
				"method": "rhf"
			},
			{
				"type": "unocc",
				"energy": 0.08093,
				"method": "rhf"
			},
			{
				"type": "unocc",
				"energy": 0.09893,
				"method": "rhf"
			},
			{
				"type": "unocc",
				"energy": 0.12138,
				"method": "rhf"
			}
		],
		"cosmo_sigma_profile": { 
			"-0.025": 0.0,
			"-0.024": 0.0,
			"-0.023": 0.0,
			"-0.022": 0.0,
			"-0.021": 0.0,
			"-0.02": 0.0,
			"-0.019": 0.0,
			"-0.018": 0.0,
			"-0.017": 0.0,
			"-0.016": 0.0,
			"-0.015": 0.0,
			"-0.014": 0.0,
			"-0.013": 0.0,
			"-0.012": 0.0,
			"-0.011": 0.0,
			"-0.01": 0.0,
			"-0.009": 0.0,
			"-0.008": 0.415562648068,
			"-0.007": 1.4248950225,
			"-0.006": 3.12612150314,
			"-0.005": 4.47641956146,
			"-0.004": 8.17283521289,
			"-0.003": 16.8462473907,
			"-0.002": 27.360390194,
			"-0.001": 29.9485709542,
			"0.0": 28.9292313586,
			"0.001": 27.9233563691,
			"0.002": 13.7367196574,
			"0.003": 7.41399276716,
			"0.004": 11.6108176124,
			"0.005": 13.8825589577,
			"0.006": 4.50374177172,
			"0.007": 0.0,
			"0.008": 0.0,
			"0.009": 0.0,
			"0.01": 0.0,
			"0.011": 0.0,
			"0.012": 0.0,
			"0.013": 0.0,
			"0.014": 0.0,
			"0.015": 0.0,
			"0.016": 0.0,
			"0.017": 0.0,
			"0.018": 0.0,
			"0.019": 0.0,
			"0.02": 0.0,
			"0.021": 0.0,
			"0.022": 0.0,
			"0.023": 0.0,
			"0.024": 0.0,
			"0.025": 0.0
		}
	}
}
