{
	 "smiles": "NC1=C(C(O)=O)C(Br)=CC=C1F", 
	 "Tm": 402.15, 
	 "num_atms": 17, 
	 "gaussian": { 
		 "optdone": 1, 
		 "sigma_profile": "yes", 
		 "theory": "DFT", 
		 "functional": "B3LYP", 
		 "basiset": "6-31G**", 
		 "properties": { 
			 "R2extent": 3021.0595, 
			 "electric_dipole_moment_norm": 3.433159855, 
			 "electric_quadrupole_moment_norm": 9.11411124246, 
			 "total_energy": -3146.20751989, 
			 "HOMO_LUMO_gap": 0.16352, 
			 "cosmo_polarized_energy": -9.76, 
			 "cosmo_cavitation_energy": 23.51, 
			 "cosmo_dispersion_energy": -18.47, 
			 "cosmo_repulsion_energy": 1.42, 
			 "cosmo_total_nonelectrostatic_energy": 6.45, 
			 "SMD_solvation_energy": 4.38 
		},
		"coords": [
			{
				"x": 0.6528695816,
				"y": -1.0562098767,
				"z": -2.4411296397,
				"element": "N" 
			},
			{
				"x": 0.0259377648,
				"y": -0.727782161,
				"z": -1.2865901237,
				"element": "C" 
			},
			{
				"x": -0.0001788374,
				"y": 0.5924340491,
				"z": -0.7226443816,
				"element": "C" 
			},
			{
				"x": 0.7310406396,
				"y": 1.6575410944,
				"z": -1.4887734513,
				"element": "C" 
			},
			{
				"x": 1.0392266065,
				"y": 2.8249373543,
				"z": -0.9065964842,
				"element": "O" 
			},
			{
				"x": 1.0992713436,
				"y": 1.4882517207,
				"z": -2.6423238823,
				"element": "O" 
			},
			{
				"x": -0.7124483828,
				"y": 0.7436917011,
				"z": 0.4965967152,
				"element": "C" 
			},
			{
				"x": -0.9380678832,
				"y": 2.4491935408,
				"z": 1.3817632564,
				"element": "Br" 
			},
			{
				"x": -1.3437281486,
				"y": -0.2987589815,
				"z": 1.1525895066,
				"element": "C" 
			},
			{
				"x": -1.2882508612,
				"y": -1.5866223477,
				"z": 0.6013643455,
				"element": "C" 
			},
			{
				"x": -0.6202711323,
				"y": -1.7704161244,
				"z": -0.5790978614,
				"element": "C" 
			},
			{
				"x": -0.5617924768,
				"y": -3.0020068824,
				"z": -1.1447555479,
				"element": "F" 
			},
			{
				"x": 0.9852218975,
				"y": -0.2966884763,
				"z": -3.0227346036,
				"element": "H" 
			},
			{
				"x": 0.5466040721,
				"y": -1.9951925489,
				"z": -2.7864588064,
				"element": "H" 
			},
			{
				"x": 0.682847664,
				"y": 2.8935031491,
				"z": -0.0034530672,
				"element": "H" 
			},
			{
				"x": -1.8776886847,
				"y": -0.1212994023,
				"z": 2.0766807167,
				"element": "H" 
			},
			{
				"x": -1.7683931628,
				"y": -2.4301758081,
				"z": 1.084863309,
				"element": "H" 
			}
		],
		 "valence_orbital": [ 
			{
				"type": "occ",
				"energy": -0.31601,
				"method": "rhf"
			},
			{
				"type": "occ",
				"energy": -0.30971,
				"method": "rhf"
			},
			{
				"type": "occ",
				"energy": -0.281,
				"method": "rhf"
			},
			{
				"type": "occ",
				"energy": -0.26752,
				"method": "rhf"
			},
			{
				"type": "occ",
				"energy": -0.22083,
				"method": "rhf"
			},
			{
				"type": "unocc",
				"energy": -0.05731,
				"method": "rhf"
			},
			{
				"type": "unocc",
				"energy": -0.02489,
				"method": "rhf"
			},
			{
				"type": "unocc",
				"energy": -0.01108,
				"method": "rhf"
			},
			{
				"type": "unocc",
				"energy": 0.04421,
				"method": "rhf"
			},
			{
				"type": "unocc",
				"energy": 0.08411,
				"method": "rhf"
			}
		],
		"cosmo_sigma_profile": { 
			"-0.025": 0.0,
			"-0.024": 0.0,
			"-0.023": 0.0,
			"-0.022": 0.0,
			"-0.021": 0.0,
			"-0.02": 0.0,
			"-0.019": 0.0,
			"-0.018": 0.0,
			"-0.017": 0.0,
			"-0.016": 0.0,
			"-0.015": 0.0,
			"-0.014": 0.111257798473,
			"-0.013": 0.808111485814,
			"-0.012": 0.805796427922,
			"-0.011": 1.42925409674,
			"-0.01": 2.99863982825,
			"-0.009": 2.91360594361,
			"-0.008": 5.2745356486,
			"-0.007": 6.50112184214,
			"-0.006": 7.21122303516,
			"-0.005": 8.12441483307,
			"-0.004": 8.45890582463,
			"-0.003": 11.3999263236,
			"-0.002": 11.0884627484,
			"-0.001": 13.2458895668,
			"0.0": 21.7342285408,
			"0.001": 23.3142553799,
			"0.002": 19.0960987711,
			"0.003": 14.7597552835,
			"0.004": 6.94283843818,
			"0.005": 3.97794254373,
			"0.006": 2.83062360672,
			"0.007": 2.36549137357,
			"0.008": 2.47210202617,
			"0.009": 2.8652755368,
			"0.01": 4.0526781325,
			"0.011": 3.4504166064,
			"0.012": 2.64660464822,
			"0.013": 1.45433017757,
			"0.014": 0.200298849621,
			"0.015": 0.0,
			"0.016": 0.0,
			"0.017": 0.0,
			"0.018": 0.0,
			"0.019": 0.0,
			"0.02": 0.0,
			"0.021": 0.0,
			"0.022": 0.0,
			"0.023": 0.0,
			"0.024": 0.0,
			"0.025": 0.0
		}
	}
}
