{
	 "smiles": "CCC(CC)C1=CC=NC=C1", 
	 "Tm": 399.15, 
	 "num_atms": 26, 
	 "gaussian": { 
		 "optdone": 1, 
		 "sigma_profile": "yes", 
		 "theory": "DFT", 
		 "functional": "B3LYP", 
		 "basiset": "6-31G**", 
		 "properties": { 
			 "R2extent": 3311.672, 
			 "electric_dipole_moment_norm": 2.69460785273, 
			 "electric_quadrupole_moment_norm": 12.2136125888, 
			 "total_energy": -444.867345733, 
			 "HOMO_LUMO_gap": 0.22986, 
			 "cosmo_polarized_energy": -6.0, 
			 "cosmo_cavitation_energy": 27.41, 
			 "cosmo_dispersion_energy": -19.36, 
			 "cosmo_repulsion_energy": 1.57, 
			 "cosmo_total_nonelectrostatic_energy": 9.62, 
			 "SMD_solvation_energy": 3.27 
		},
		"coords": [
			{
				"x": -3.8190868603,
				"y": 1.0366052612,
				"z": -0.2855768822,
				"element": "C" 
			},
			{
				"x": -2.3103945558,
				"y": 0.9017943234,
				"z": -0.5191117003,
				"element": "C" 
			},
			{
				"x": -1.5036635746,
				"y": 0.6179242216,
				"z": 0.7649118907,
				"element": "C" 
			},
			{
				"x": 0.0295038298,
				"y": 0.7574246377,
				"z": 0.5427599212,
				"element": "C" 
			},
			{
				"x": 0.6597964397,
				"y": -0.211296836,
				"z": -0.4637659814,
				"element": "C" 
			},
			{
				"x": -1.84637711,
				"y": -0.7047334601,
				"z": 1.437173367,
				"element": "C" 
			},
			{
				"x": -1.8950662742,
				"y": -0.7932648215,
				"z": 2.8348174685,
				"element": "C" 
			},
			{
				"x": -2.1689661388,
				"y": -2.0165142833,
				"z": 3.4446623174,
				"element": "C" 
			},
			{
				"x": -2.3993528486,
				"y": -3.1510175382,
				"z": 2.7710028582,
				"element": "N" 
			},
			{
				"x": -2.3565089135,
				"y": -3.0675570098,
				"z": 1.4358572482,
				"element": "C" 
			},
			{
				"x": -2.0900116065,
				"y": -1.8916049435,
				"z": 0.7327774144,
				"element": "C" 
			},
			{
				"x": -4.2470131411,
				"y": 0.1138778582,
				"z": 0.1184733684,
				"element": "H" 
			},
			{
				"x": -4.0374148928,
				"y": 1.8416328736,
				"z": 0.4254550049,
				"element": "H" 
			},
			{
				"x": -4.3425411596,
				"y": 1.2670993008,
				"z": -1.2190167281,
				"element": "H" 
			},
			{
				"x": -2.1237719513,
				"y": 0.1238678273,
				"z": -1.2688149596,
				"element": "H" 
			},
			{
				"x": -1.9263456341,
				"y": 1.8326050907,
				"z": -0.9563078665,
				"element": "H" 
			},
			{
				"x": -1.7702139764,
				"y": 1.4054615241,
				"z": 1.4841047739,
				"element": "H" 
			},
			{
				"x": 0.2236452629,
				"y": 1.7889983634,
				"z": 0.2208580967,
				"element": "H" 
			},
			{
				"x": 0.5279697436,
				"y": 0.639970314,
				"z": 1.5128751294,
				"element": "H" 
			},
			{
				"x": 0.2431522716,
				"y": -0.0864113197,
				"z": -1.4685505347,
				"element": "H" 
			},
			{
				"x": 1.7381368881,
				"y": -0.0359411421,
				"z": -0.5341949332,
				"element": "H" 
			},
			{
				"x": 0.5141704818,
				"y": -1.2542564702,
				"z": -0.1661824975,
				"element": "H" 
			},
			{
				"x": -1.7234592909,
				"y": 0.0887641833,
				"z": 3.446707839,
				"element": "H" 
			},
			{
				"x": -2.2097792895,
				"y": -2.0872193385,
				"z": 4.5307178359,
				"element": "H" 
			},
			{
				"x": -2.5471459108,
				"y": -3.9920359833,
				"z": 0.8924340837,
				"element": "H" 
			},
			{
				"x": -2.0806617887,
				"y": -1.9124726331,
				"z": -0.3521665339,
				"element": "H" 
			}
		],
		 "valence_orbital": [ 
			{
				"type": "occ",
				"energy": -0.33002,
				"method": "rhf"
			},
			{
				"type": "occ",
				"energy": -0.31811,
				"method": "rhf"
			},
			{
				"type": "occ",
				"energy": -0.26905,
				"method": "rhf"
			},
			{
				"type": "occ",
				"energy": -0.25692,
				"method": "rhf"
			},
			{
				"type": "occ",
				"energy": -0.2482,
				"method": "rhf"
			},
			{
				"type": "unocc",
				"energy": -0.01834,
				"method": "rhf"
			},
			{
				"type": "unocc",
				"energy": -0.00742,
				"method": "rhf"
			},
			{
				"type": "unocc",
				"energy": 0.0803,
				"method": "rhf"
			},
			{
				"type": "unocc",
				"energy": 0.09989,
				"method": "rhf"
			},
			{
				"type": "unocc",
				"energy": 0.11561,
				"method": "rhf"
			}
		],
		"cosmo_sigma_profile": { 
			"-0.025": 0.0,
			"-0.024": 0.0,
			"-0.023": 0.0,
			"-0.022": 0.0,
			"-0.021": 0.0,
			"-0.02": 0.0,
			"-0.019": 0.0,
			"-0.018": 0.0,
			"-0.017": 0.0,
			"-0.016": 0.0,
			"-0.015": 0.0,
			"-0.014": 0.0,
			"-0.013": 0.0,
			"-0.012": 0.0,
			"-0.011": 0.0,
			"-0.01": 0.0,
			"-0.009": 0.0,
			"-0.008": 0.0,
			"-0.007": 0.152156046615,
			"-0.006": 6.00434685165,
			"-0.005": 9.35821884166,
			"-0.004": 11.1736284694,
			"-0.003": 17.783950953,
			"-0.002": 30.1400155325,
			"-0.001": 30.2967482703,
			"0.0": 31.9822345588,
			"0.001": 28.843065773,
			"0.002": 15.463399148,
			"0.003": 11.9266114969,
			"0.004": 5.29327420784,
			"0.005": 2.40813967241,
			"0.006": 1.87191008591,
			"0.007": 1.19975426052,
			"0.008": 1.15140622508,
			"0.009": 1.57497514358,
			"0.01": 1.77568699259,
			"0.011": 0.755453014592,
			"0.012": 0.50776297403,
			"0.013": 0.920531191505,
			"0.014": 1.055848742,
			"0.015": 1.08617220009,
			"0.016": 0.837409523245,
			"0.017": 0.621389146813,
			"0.018": 0.124577649944,
			"0.019": 0.0,
			"0.02": 0.0,
			"0.021": 0.0,
			"0.022": 0.0,
			"0.023": 0.0,
			"0.024": 0.0,
			"0.025": 0.0
		}
	}
}
