{
	 "smiles": "CC1=CC=C(N)C(=C1)C(=O)NN", 
	 "Tm": 407.15, 
	 "num_atms": 23, 
	 "gaussian": { 
		 "optdone": 1, 
		 "sigma_profile": "yes", 
		 "theory": "DFT", 
		 "functional": "B3LYP", 
		 "basiset": "6-31G**", 
		 "properties": { 
			 "R2extent": 2616.9722, 
			 "electric_dipole_moment_norm": 1.63420333496, 
			 "electric_quadrupole_moment_norm": 7.22065991652, 
			 "total_energy": -550.959814446, 
			 "HOMO_LUMO_gap": 0.1639, 
			 "cosmo_polarized_energy": -12.23, 
			 "cosmo_cavitation_energy": 26.31, 
			 "cosmo_dispersion_energy": -19.72, 
			 "cosmo_repulsion_energy": 1.59, 
			 "cosmo_total_nonelectrostatic_energy": 8.17, 
			 "SMD_solvation_energy": 5.34 
		},
		"coords": [
			{
				"x": 1.1546625533,
				"y": 1.9919859654,
				"z": 1.547645779,
				"element": "C" 
			},
			{
				"x": 0.5313810094,
				"y": 1.3804666958,
				"z": 0.3151308144,
				"element": "C" 
			},
			{
				"x": 0.4615595685,
				"y": 2.0956058413,
				"z": -0.8951064429,
				"element": "C" 
			},
			{
				"x": -0.1335410708,
				"y": 1.5579130643,
				"z": -2.0227318192,
				"element": "C" 
			},
			{
				"x": -0.694041877,
				"y": 0.2606444591,
				"z": -2.0136137192,
				"element": "C" 
			},
			{
				"x": -1.2548152297,
				"y": -0.2577000276,
				"z": -3.1548361931,
				"element": "N" 
			},
			{
				"x": -0.6052364298,
				"y": -0.489895268,
				"z": -0.8086162473,
				"element": "C" 
			},
			{
				"x": -0.0091782715,
				"y": 0.0995805751,
				"z": 0.3241583788,
				"element": "C" 
			},
			{
				"x": -1.1604193912,
				"y": -1.8663176903,
				"z": -0.749730944,
				"element": "C" 
			},
			{
				"x": -1.9937801338,
				"y": -2.3117284503,
				"z": -1.5519304348,
				"element": "O" 
			},
			{
				"x": -0.6987236366,
				"y": -2.6739066006,
				"z": 0.2680548106,
				"element": "N" 
			},
			{
				"x": -1.0640739878,
				"y": -4.0390512404,
				"z": 0.2986596903,
				"element": "N" 
			},
			{
				"x": 0.6423706521,
				"y": 2.9146340248,
				"z": 1.8457563184,
				"element": "H" 
			},
			{
				"x": 2.2077522707,
				"y": 2.2501208937,
				"z": 1.3824694858,
				"element": "H" 
			},
			{
				"x": 1.1135726308,
				"y": 1.303680166,
				"z": 2.3968623233,
				"element": "H" 
			},
			{
				"x": 0.8724675455,
				"y": 3.1016658484,
				"z": -0.9453438234,
				"element": "H" 
			},
			{
				"x": -0.1805525075,
				"y": 2.1385141585,
				"z": -2.9409425642,
				"element": "H" 
			},
			{
				"x": -1.8575645616,
				"y": -1.0607614091,
				"z": -3.015127822,
				"element": "H" 
			},
			{
				"x": -1.5042812602,
				"y": 0.3946430789,
				"z": -3.8815046712,
				"element": "H" 
			},
			{
				"x": -0.0067218107,
				"y": -0.4559504591,
				"z": 1.25815555,
				"element": "H" 
			},
			{
				"x": 0.2223724187,
				"y": -2.4953979886,
				"z": 0.6407944668,
				"element": "H" 
			},
			{
				"x": -1.2763817165,
				"y": -4.3003459682,
				"z": -0.666266317,
				"element": "H" 
			},
			{
				"x": -1.9547267644,
				"y": -4.1006996692,
				"z": 0.791263381,
				"element": "H" 
			}
		],
		 "valence_orbital": [ 
			{
				"type": "occ",
				"energy": -0.28583,
				"method": "rhf"
			},
			{
				"type": "occ",
				"energy": -0.2617,
				"method": "rhf"
			},
			{
				"type": "occ",
				"energy": -0.2537,
				"method": "rhf"
			},
			{
				"type": "occ",
				"energy": -0.24679,
				"method": "rhf"
			},
			{
				"type": "occ",
				"energy": -0.19626,
				"method": "rhf"
			},
			{
				"type": "unocc",
				"energy": -0.03236,
				"method": "rhf"
			},
			{
				"type": "unocc",
				"energy": 0.01498,
				"method": "rhf"
			},
			{
				"type": "unocc",
				"energy": 0.05564,
				"method": "rhf"
			},
			{
				"type": "unocc",
				"energy": 0.09326,
				"method": "rhf"
			},
			{
				"type": "unocc",
				"energy": 0.09502,
				"method": "rhf"
			}
		],
		"cosmo_sigma_profile": { 
			"-0.025": 0.0,
			"-0.024": 0.0,
			"-0.023": 0.0,
			"-0.022": 0.0,
			"-0.021": 0.0,
			"-0.02": 0.0,
			"-0.019": 0.0,
			"-0.018": 0.0,
			"-0.017": 0.0,
			"-0.016": 0.0,
			"-0.015": 0.0,
			"-0.014": 0.368634639696,
			"-0.013": 1.30995019149,
			"-0.012": 2.5815841727,
			"-0.011": 3.64812865001,
			"-0.01": 3.65511919999,
			"-0.009": 4.86491347935,
			"-0.008": 5.57683840093,
			"-0.007": 5.55300357435,
			"-0.006": 7.35625441662,
			"-0.005": 8.96650319002,
			"-0.004": 12.06792729,
			"-0.003": 14.3748095341,
			"-0.002": 14.3912747301,
			"-0.001": 13.757868908,
			"0.0": 14.6926338502,
			"0.001": 15.1536328221,
			"0.002": 11.0803680191,
			"0.003": 11.5606863509,
			"0.004": 11.9583938092,
			"0.005": 13.6844728654,
			"0.006": 9.29826263251,
			"0.007": 2.12363140263,
			"0.008": 2.37196579701,
			"0.009": 3.08577169916,
			"0.01": 3.04691590563,
			"0.011": 3.00368827409,
			"0.012": 3.48214112098,
			"0.013": 2.51616009,
			"0.014": 0.506732566056,
			"0.015": 0.222819447783,
			"0.016": 1.05637762083,
			"0.017": 0.273949106067,
			"0.018": 0.0,
			"0.019": 0.0,
			"0.02": 0.0,
			"0.021": 0.0,
			"0.022": 0.0,
			"0.023": 0.0,
			"0.024": 0.0,
			"0.025": 0.0
		}
	}
}
