{
	 "smiles": "OC(=O)C1=CC=C(CNC(=O)C=C)C=C1", 
	 "Tm": 471.15, 
	 "num_atms": 26, 
	 "gaussian": { 
		 "optdone": 1, 
		 "sigma_profile": "yes", 
		 "theory": "DFT", 
		 "functional": "B3LYP", 
		 "basiset": "6-31G**", 
		 "properties": { 
			 "R2extent": 4813.3097, 
			 "electric_dipole_moment_norm": 3.08097077883, 
			 "electric_quadrupole_moment_norm": 31.969363534, 
			 "total_energy": -706.219609925, 
			 "HOMO_LUMO_gap": 0.19862, 
			 "cosmo_polarized_energy": -23.08, 
			 "cosmo_cavitation_energy": 31.32, 
			 "cosmo_dispersion_energy": -22.02, 
			 "cosmo_repulsion_energy": 1.73, 
			 "cosmo_total_nonelectrostatic_energy": 11.03, 
			 "SMD_solvation_energy": 7.68 
		},
		"coords": [
			{
				"x": 3.7887610253,
				"y": -2.889687418,
				"z": 1.5213362261,
				"element": "O" 
			},
			{
				"x": 3.4377424509,
				"y": -2.2820563342,
				"z": 0.3562265179,
				"element": "C" 
			},
			{
				"x": 4.1727517965,
				"y": -2.3440283214,
				"z": -0.6013250568,
				"element": "O" 
			},
			{
				"x": 2.1249397965,
				"y": -1.5585152834,
				"z": 0.3382805238,
				"element": "C" 
			},
			{
				"x": 1.5555638366,
				"y": -1.2744212982,
				"z": -0.9118821347,
				"element": "C" 
			},
			{
				"x": 0.3445592345,
				"y": -0.5990078449,
				"z": -0.9936462975,
				"element": "C" 
			},
			{
				"x": -0.3235546903,
				"y": -0.1769174827,
				"z": 0.1662048958,
				"element": "C" 
			},
			{
				"x": -1.6627026129,
				"y": 0.5401469199,
				"z": 0.0296031931,
				"element": "C" 
			},
			{
				"x": -2.194256329,
				"y": 1.1327448181,
				"z": 1.2436850091,
				"element": "N" 
			},
			{
				"x": -1.9318184924,
				"y": 2.3768102254,
				"z": 1.7784651229,
				"element": "C" 
			},
			{
				"x": -2.5637055034,
				"y": 2.7773460929,
				"z": 2.7504615217,
				"element": "O" 
			},
			{
				"x": -0.8517116137,
				"y": 3.1821296461,
				"z": 1.1304948834,
				"element": "C" 
			},
			{
				"x": -0.6177020158,
				"y": 4.4306154329,
				"z": 1.5404525511,
				"element": "C" 
			},
			{
				"x": 0.2550389516,
				"y": -0.4393426721,
				"z": 1.4101612896,
				"element": "C" 
			},
			{
				"x": 1.4679075113,
				"y": -1.1239655647,
				"z": 1.4959350768,
				"element": "C" 
			},
			{
				"x": 3.0423787572,
				"y": -2.8924421893,
				"z": 2.1361907759,
				"element": "H" 
			},
			{
				"x": 2.084753178,
				"y": -1.5913544842,
				"z": -1.8040697967,
				"element": "H" 
			},
			{
				"x": -0.0880697651,
				"y": -0.3909549978,
				"z": -1.9697536102,
				"element": "H" 
			},
			{
				"x": -1.5863297435,
				"y": 1.2996421509,
				"z": -0.7571225426,
				"element": "H" 
			},
			{
				"x": -2.4083389873,
				"y": -0.1776401603,
				"z": -0.3324557526,
				"element": "H" 
			},
			{
				"x": -2.9376704099,
				"y": 0.6491096174,
				"z": 1.7287879175,
				"element": "H" 
			},
			{
				"x": -0.2516232743,
				"y": 2.7353964133,
				"z": 0.3436506053,
				"element": "H" 
			},
			{
				"x": 0.1645091227,
				"y": 5.0401085263,
				"z": 1.0996699726,
				"element": "H" 
			},
			{
				"x": -1.2169211504,
				"y": 4.8585552434,
				"z": 2.338444861,
				"element": "H" 
			},
			{
				"x": -0.2400530237,
				"y": -0.0958501737,
				"z": 2.3122651434,
				"element": "H" 
			},
			{
				"x": 1.9097519506,
				"y": -1.2749208617,
				"z": 2.4783391042,
				"element": "H" 
			}
		],
		 "valence_orbital": [ 
			{
				"type": "occ",
				"energy": -0.27908,
				"method": "rhf"
			},
			{
				"type": "occ",
				"energy": -0.27678,
				"method": "rhf"
			},
			{
				"type": "occ",
				"energy": -0.26727,
				"method": "rhf"
			},
			{
				"type": "occ",
				"energy": -0.26187,
				"method": "rhf"
			},
			{
				"type": "occ",
				"energy": -0.2557,
				"method": "rhf"
			},
			{
				"type": "unocc",
				"energy": -0.05708,
				"method": "rhf"
			},
			{
				"type": "unocc",
				"energy": -0.04339,
				"method": "rhf"
			},
			{
				"type": "unocc",
				"energy": -0.02706,
				"method": "rhf"
			},
			{
				"type": "unocc",
				"energy": 0.03914,
				"method": "rhf"
			},
			{
				"type": "unocc",
				"energy": 0.05848,
				"method": "rhf"
			}
		],
		"cosmo_sigma_profile": { 
			"-0.025": 0.0,
			"-0.024": 0.0,
			"-0.023": 0.0,
			"-0.022": 0.0,
			"-0.021": 0.0,
			"-0.02": 0.0,
			"-0.019": 0.132835874181,
			"-0.018": 0.853877678683,
			"-0.017": 0.750801663752,
			"-0.016": 1.2216708874,
			"-0.015": 1.07708496941,
			"-0.014": 1.36811052932,
			"-0.013": 1.81663370399,
			"-0.012": 3.19026693728,
			"-0.011": 1.76928715287,
			"-0.01": 2.72983398465,
			"-0.009": 2.30531857593,
			"-0.008": 3.60206683942,
			"-0.007": 10.6706928917,
			"-0.006": 17.1262407107,
			"-0.005": 17.446347015,
			"-0.004": 16.4701934292,
			"-0.003": 15.3332131557,
			"-0.002": 15.0009009422,
			"-0.001": 13.7196623869,
			"0.0": 13.6729760595,
			"0.001": 14.713404923,
			"0.002": 15.0737786363,
			"0.003": 17.5099320275,
			"0.004": 10.0224256377,
			"0.005": 4.47757552085,
			"0.006": 3.96798137769,
			"0.007": 3.78639949732,
			"0.008": 4.24287722478,
			"0.009": 4.76741481942,
			"0.01": 5.35556374496,
			"0.011": 6.72289300987,
			"0.012": 7.52580268941,
			"0.013": 5.06847043406,
			"0.014": 5.56940435479,
			"0.015": 0.750185576473,
			"0.016": 0.0,
			"0.017": 0.0,
			"0.018": 0.0,
			"0.019": 0.0,
			"0.02": 0.0,
			"0.021": 0.0,
			"0.022": 0.0,
			"0.023": 0.0,
			"0.024": 0.0,
			"0.025": 0.0
		}
	}
}
