{
	 "smiles": "N#CC1=C(N=CC=N1)C#N", 
	 "Tm": 405.15, 
	 "num_atms": 12, 
	 "gaussian": { 
		 "optdone": 1, 
		 "sigma_profile": "yes", 
		 "theory": "DFT", 
		 "functional": "B3LYP", 
		 "basiset": "6-31G**", 
		 "properties": { 
			 "R2extent": 1628.1845, 
			 "electric_dipole_moment_norm": 6.19969456828, 
			 "electric_quadrupole_moment_norm": 12.1386179184, 
			 "total_energy": -448.775578725, 
			 "HOMO_LUMO_gap": 0.19397, 
			 "cosmo_polarized_energy": -13.71, 
			 "cosmo_cavitation_energy": 19.82, 
			 "cosmo_dispersion_energy": -13.45, 
			 "cosmo_repulsion_energy": 1.09, 
			 "cosmo_total_nonelectrostatic_energy": 7.46, 
			 "SMD_solvation_energy": 3.49 
		},
		"coords": [
			{
				"x": 3.0541427572,
				"y": -0.7526907749,
				"z": -0.8870049533,
				"element": "N" 
			},
			{
				"x": 2.0625600799,
				"y": -0.2789160566,
				"z": -0.5105236446,
				"element": "C" 
			},
			{
				"x": 0.8385391281,
				"y": 0.3196069076,
				"z": -0.0474406562,
				"element": "C" 
			},
			{
				"x": 0.7013331728,
				"y": 1.7234296764,
				"z": 0.0528123522,
				"element": "C" 
			},
			{
				"x": -0.4374423797,
				"y": 2.2854882013,
				"z": 0.4839950479,
				"element": "N" 
			},
			{
				"x": -1.4262602949,
				"y": 1.4549446197,
				"z": 0.8107529261,
				"element": "C" 
			},
			{
				"x": -1.2902683956,
				"y": 0.0636953188,
				"z": 0.7114078714,
				"element": "C" 
			},
			{
				"x": -0.1645430349,
				"y": -0.5063216144,
				"z": 0.2846129453,
				"element": "N" 
			},
			{
				"x": 1.7807300813,
				"y": 2.605569228,
				"z": -0.3046870672,
				"element": "C" 
			},
			{
				"x": 2.65689486,
				"y": 3.3108658141,
				"z": -0.5952541035,
				"element": "N" 
			},
			{
				"x": -2.3517198622,
				"y": 1.9049601076,
				"z": 1.1609326414,
				"element": "H" 
			},
			{
				"x": -2.106766112,
				"y": -0.6009314274,
				"z": 0.9819966405,
				"element": "H" 
			}
		],
		 "valence_orbital": [ 
			{
				"type": "occ",
				"energy": -0.37068,
				"method": "rhf"
			},
			{
				"type": "occ",
				"energy": -0.35654,
				"method": "rhf"
			},
			{
				"type": "occ",
				"energy": -0.34993,
				"method": "rhf"
			},
			{
				"type": "occ",
				"energy": -0.30966,
				"method": "rhf"
			},
			{
				"type": "occ",
				"energy": -0.30458,
				"method": "rhf"
			},
			{
				"type": "unocc",
				"energy": -0.11061,
				"method": "rhf"
			},
			{
				"type": "unocc",
				"energy": -0.1099,
				"method": "rhf"
			},
			{
				"type": "unocc",
				"energy": -0.01342,
				"method": "rhf"
			},
			{
				"type": "unocc",
				"energy": 0.01795,
				"method": "rhf"
			},
			{
				"type": "unocc",
				"energy": 0.02369,
				"method": "rhf"
			}
		],
		"cosmo_sigma_profile": { 
			"-0.025": 0.0,
			"-0.024": 0.0,
			"-0.023": 0.0,
			"-0.022": 0.0,
			"-0.021": 0.0,
			"-0.02": 0.0,
			"-0.019": 0.0,
			"-0.018": 0.0,
			"-0.017": 0.0,
			"-0.016": 0.0,
			"-0.015": 0.0,
			"-0.014": 0.0,
			"-0.013": 0.0,
			"-0.012": 0.0,
			"-0.011": 0.868436996289,
			"-0.01": 6.55313891845,
			"-0.009": 6.40429774955,
			"-0.008": 7.96411978207,
			"-0.007": 8.95783300398,
			"-0.006": 8.28847096469,
			"-0.005": 9.95420072082,
			"-0.004": 10.2090220393,
			"-0.003": 6.86005959422,
			"-0.002": 6.33281595358,
			"-0.001": 6.13955117177,
			"0.0": 7.3025371286,
			"0.001": 8.24825788865,
			"0.002": 7.54440613485,
			"0.003": 9.66354282298,
			"0.004": 5.57034553404,
			"0.005": 7.10830985271,
			"0.006": 8.18110602121,
			"0.007": 7.33314034027,
			"0.008": 7.86068188304,
			"0.009": 6.07830436294,
			"0.01": 6.29984505818,
			"0.011": 3.89865011789,
			"0.012": 0.117230985962,
			"0.013": 0.0,
			"0.014": 0.0,
			"0.015": 0.0,
			"0.016": 0.0,
			"0.017": 0.0,
			"0.018": 0.0,
			"0.019": 0.0,
			"0.02": 0.0,
			"0.021": 0.0,
			"0.022": 0.0,
			"0.023": 0.0,
			"0.024": 0.0,
			"0.025": 0.0
		}
	}
}
