{
	 "smiles": "CC1=CC=CN2C(=O)C=C(CCl)N=C12", 
	 "Tm": 384.15, 
	 "num_atms": 23, 
	 "gaussian": { 
		 "optdone": 1, 
		 "sigma_profile": "yes", 
		 "theory": "DFT", 
		 "functional": "B3LYP", 
		 "basiset": "6-31G**", 
		 "properties": { 
			 "R2extent": 3914.6643, 
			 "electric_dipole_moment_norm": 4.15590854928, 
			 "electric_quadrupole_moment_norm": 17.6421173769, 
			 "total_energy": -1031.42589441, 
			 "HOMO_LUMO_gap": 0.15874, 
			 "cosmo_polarized_energy": -12.48, 
			 "cosmo_cavitation_energy": 28.87, 
			 "cosmo_dispersion_energy": -21.08, 
			 "cosmo_repulsion_energy": 1.66, 
			 "cosmo_total_nonelectrostatic_energy": 9.44, 
			 "SMD_solvation_energy": 4.61 
		},
		"coords": [
			{
				"x": -2.5953837624,
				"y": -1.9256896861,
				"z": 1.2723103137,
				"element": "C" 
			},
			{
				"x": -1.1485439425,
				"y": -1.7739253263,
				"z": 1.6489029816,
				"element": "C" 
			},
			{
				"x": -0.6667885669,
				"y": -2.0765684547,
				"z": 2.8981727335,
				"element": "C" 
			},
			{
				"x": 0.709304909,
				"y": -1.9212525286,
				"z": 3.2134435234,
				"element": "C" 
			},
			{
				"x": 1.5651200876,
				"y": -1.4644991041,
				"z": 2.2591869715,
				"element": "C" 
			},
			{
				"x": 1.107120914,
				"y": -1.154745278,
				"z": 0.9986543333,
				"element": "N" 
			},
			{
				"x": 2.106920918,
				"y": -0.6686066839,
				"z": 0.0410738854,
				"element": "C" 
			},
			{
				"x": 3.2692350702,
				"y": -0.5591867423,
				"z": 0.4056165683,
				"element": "O" 
			},
			{
				"x": 1.5465931147,
				"y": -0.3806033782,
				"z": -1.2388541215,
				"element": "C" 
			},
			{
				"x": 0.202124602,
				"y": -0.5563107478,
				"z": -1.4842373892,
				"element": "C" 
			},
			{
				"x": -0.3738146465,
				"y": -0.2508736603,
				"z": -2.8408327835,
				"element": "C" 
			},
			{
				"x": -0.5514219141,
				"y": -1.7648781903,
				"z": -3.8431461077,
				"element": "Cl" 
			},
			{
				"x": -0.6869468432,
				"y": -0.9956681097,
				"z": -0.565688498,
				"element": "N" 
			},
			{
				"x": -0.2350676228,
				"y": -1.2921990955,
				"z": 0.6450591258,
				"element": "C" 
			},
			{
				"x": -2.7067980436,
				"y": -2.6079868244,
				"z": 0.4241423401,
				"element": "H" 
			},
			{
				"x": -3.1773838963,
				"y": -2.3056964727,
				"z": 2.1155299885,
				"element": "H" 
			},
			{
				"x": -3.0170910711,
				"y": -0.9680135201,
				"z": 0.951645492,
				"element": "H" 
			},
			{
				"x": -1.3508222411,
				"y": -2.4425377618,
				"z": 3.6585124335,
				"element": "H" 
			},
			{
				"x": 1.0860357292,
				"y": -2.1615265573,
				"z": 4.2007039711,
				"element": "H" 
			},
			{
				"x": 2.6279841758,
				"y": -1.3080569174,
				"z": 2.3863880524,
				"element": "H" 
			},
			{
				"x": 2.2288179358,
				"y": -0.0272859052,
				"z": -2.0022828769,
				"element": "H" 
			},
			{
				"x": -1.3764597473,
				"y": 0.1633050126,
				"z": -2.7411374397,
				"element": "H" 
			},
			{
				"x": 0.2642648412,
				"y": 0.4216059322,
				"z": -3.4130634977,
				"element": "H" 
			}
		],
		 "valence_orbital": [ 
			{
				"type": "occ",
				"energy": -0.29481,
				"method": "rhf"
			},
			{
				"type": "occ",
				"energy": -0.28183,
				"method": "rhf"
			},
			{
				"type": "occ",
				"energy": -0.27527,
				"method": "rhf"
			},
			{
				"type": "occ",
				"energy": -0.2687,
				"method": "rhf"
			},
			{
				"type": "occ",
				"energy": -0.22172,
				"method": "rhf"
			},
			{
				"type": "unocc",
				"energy": -0.06298,
				"method": "rhf"
			},
			{
				"type": "unocc",
				"energy": -0.05846,
				"method": "rhf"
			},
			{
				"type": "unocc",
				"energy": 0.00173,
				"method": "rhf"
			},
			{
				"type": "unocc",
				"energy": 0.03807,
				"method": "rhf"
			},
			{
				"type": "unocc",
				"energy": 0.08079,
				"method": "rhf"
			}
		],
		"cosmo_sigma_profile": { 
			"-0.025": 0.0,
			"-0.024": 0.0,
			"-0.023": 0.0,
			"-0.022": 0.0,
			"-0.021": 0.0,
			"-0.02": 0.0,
			"-0.019": 0.0,
			"-0.018": 0.0,
			"-0.017": 0.0,
			"-0.016": 0.0,
			"-0.015": 0.0,
			"-0.014": 0.0,
			"-0.013": 0.0,
			"-0.012": 0.0,
			"-0.011": 0.0,
			"-0.01": 0.0,
			"-0.009": 0.641403873227,
			"-0.008": 8.48058112206,
			"-0.007": 12.7092943777,
			"-0.006": 11.8196666737,
			"-0.005": 12.1853067187,
			"-0.004": 16.7424718778,
			"-0.003": 17.5227806221,
			"-0.002": 16.6223862716,
			"-0.001": 22.5888234643,
			"0.0": 21.5057775938,
			"0.001": 17.9339815776,
			"0.002": 11.6652738727,
			"0.003": 7.9269148155,
			"0.004": 7.95617842314,
			"0.005": 8.64292063341,
			"0.006": 12.2934654739,
			"0.007": 6.39545909042,
			"0.008": 3.55672718189,
			"0.009": 2.37468495549,
			"0.01": 2.55546005813,
			"0.011": 3.08359143092,
			"0.012": 3.43972131567,
			"0.013": 3.69570440424,
			"0.014": 0.981236900144,
			"0.015": 0.0,
			"0.016": 0.0,
			"0.017": 0.0,
			"0.018": 0.0,
			"0.019": 0.0,
			"0.02": 0.0,
			"0.021": 0.0,
			"0.022": 0.0,
			"0.023": 0.0,
			"0.024": 0.0,
			"0.025": 0.0
		}
	}
}
