{
	 "smiles": "NS(=O)(=O)C1=C(Cl)C=C(Cl)C=C1Cl", 
	 "Tm": 453.15, 
	 "num_atms": 17, 
	 "gaussian": { 
		 "optdone": 1, 
		 "sigma_profile": "yes", 
		 "theory": "DFT", 
		 "functional": "B3LYP", 
		 "basiset": "6-31G**", 
		 "properties": { 
			 "R2extent": 3867.0101, 
			 "electric_dipole_moment_norm": 3.2299363616, 
			 "electric_quadrupole_moment_norm": 14.0039548657, 
			 "total_energy": -2214.91720626, 
			 "HOMO_LUMO_gap": 0.2096, 
			 "cosmo_polarized_energy": -14.19, 
			 "cosmo_cavitation_energy": 27.85, 
			 "cosmo_dispersion_energy": -21.61, 
			 "cosmo_repulsion_energy": 1.66, 
			 "cosmo_total_nonelectrostatic_energy": 7.9, 
			 "SMD_solvation_energy": 3.67 
		},
		"coords": [
			{
				"x": -2.1066258948,
				"y": -2.4677603998,
				"z": -0.2713751575,
				"element": "N" 
			},
			{
				"x": -0.4317511641,
				"y": -2.4273642328,
				"z": -0.0940232572,
				"element": "S" 
			},
			{
				"x": 0.1009186936,
				"y": -2.9576956418,
				"z": -1.3435405738,
				"element": "O" 
			},
			{
				"x": -0.0467685878,
				"y": -2.9829086713,
				"z": 1.2009942955,
				"element": "O" 
			},
			{
				"x": -0.1093156847,
				"y": -0.6305176867,
				"z": -0.001698599,
				"element": "C" 
			},
			{
				"x": 0.7884452243,
				"y": 0.0432380065,
				"z": -0.8559226598,
				"element": "C" 
			},
			{
				"x": 1.7087201719,
				"y": -0.7291920954,
				"z": -2.1226936436,
				"element": "Cl" 
			},
			{
				"x": 1.0188422223,
				"y": 1.4166055072,
				"z": -0.7282344682,
				"element": "C" 
			},
			{
				"x": 0.362663981,
				"y": 2.1345411514,
				"z": 0.2615509262,
				"element": "C" 
			},
			{
				"x": 0.6482013877,
				"y": 3.8504478982,
				"z": 0.4153835243,
				"element": "Cl" 
			},
			{
				"x": -0.514912467,
				"y": 1.5062703099,
				"z": 1.1389887033,
				"element": "C" 
			},
			{
				"x": -0.7331740424,
				"y": 0.1382637879,
				"z": 1.0043307996,
				"element": "C" 
			},
			{
				"x": -1.8363940078,
				"y": -0.5564941871,
				"z": 2.1749314185,
				"element": "Cl" 
			},
			{
				"x": -2.3278964353,
				"y": -3.0554769745,
				"z": -1.0705323779,
				"element": "H" 
			},
			{
				"x": -2.5647411678,
				"y": -2.7742303361,
				"z": 0.58115491,
				"element": "H" 
			},
			{
				"x": 1.7108601238,
				"y": 1.9060133609,
				"z": -1.4013197186,
				"element": "H" 
			},
			{
				"x": -1.018572353,
				"y": 2.0628602034,
				"z": 1.9187058784,
				"element": "H" 
			}
		],
		 "valence_orbital": [ 
			{
				"type": "occ",
				"energy": -0.31968,
				"method": "rhf"
			},
			{
				"type": "occ",
				"energy": -0.31268,
				"method": "rhf"
			},
			{
				"type": "occ",
				"energy": -0.29854,
				"method": "rhf"
			},
			{
				"type": "occ",
				"energy": -0.2769,
				"method": "rhf"
			},
			{
				"type": "occ",
				"energy": -0.27343,
				"method": "rhf"
			},
			{
				"type": "unocc",
				"energy": -0.06383,
				"method": "rhf"
			},
			{
				"type": "unocc",
				"energy": -0.05122,
				"method": "rhf"
			},
			{
				"type": "unocc",
				"energy": -0.03217,
				"method": "rhf"
			},
			{
				"type": "unocc",
				"energy": 0.02135,
				"method": "rhf"
			},
			{
				"type": "unocc",
				"energy": 0.03181,
				"method": "rhf"
			}
		],
		"cosmo_sigma_profile": { 
			"-0.025": 0.0,
			"-0.024": 0.0,
			"-0.023": 0.0,
			"-0.022": 0.0,
			"-0.021": 0.0,
			"-0.02": 0.0,
			"-0.019": 0.0,
			"-0.018": 0.0,
			"-0.017": 0.0,
			"-0.016": 0.128348486555,
			"-0.015": 1.78469818997,
			"-0.014": 2.0189435287,
			"-0.013": 2.99465430284,
			"-0.012": 2.13316200902,
			"-0.011": 1.80456261658,
			"-0.01": 2.19079647593,
			"-0.009": 4.67808834472,
			"-0.008": 3.71174917411,
			"-0.007": 5.51157633839,
			"-0.006": 5.57575646018,
			"-0.005": 5.62766021149,
			"-0.004": 8.98091107281,
			"-0.003": 14.2762051343,
			"-0.002": 23.4866850338,
			"-0.001": 26.2830926454,
			"0.0": 15.9216260336,
			"0.001": 15.2080090786,
			"0.002": 19.001294054,
			"0.003": 21.0579580916,
			"0.004": 7.53026920638,
			"0.005": 4.05207429545,
			"0.006": 4.40150271845,
			"0.007": 5.07079438333,
			"0.008": 4.46656960992,
			"0.009": 6.35424425574,
			"0.01": 11.6491058815,
			"0.011": 4.37054687944,
			"0.012": 0.0190428393609,
			"0.013": 0.0,
			"0.014": 0.0,
			"0.015": 0.0,
			"0.016": 0.0,
			"0.017": 0.0,
			"0.018": 0.0,
			"0.019": 0.0,
			"0.02": 0.0,
			"0.021": 0.0,
			"0.022": 0.0,
			"0.023": 0.0,
			"0.024": 0.0,
			"0.025": 0.0
		}
	}
}
