{
	 "smiles": "CN1CC(=O)NC2=C(C=CC=C2)C1=O", 
	 "Tm": 523.15, 
	 "num_atms": 24, 
	 "gaussian": { 
		 "optdone": 1, 
		 "sigma_profile": "yes", 
		 "theory": "DFT", 
		 "functional": "B3LYP", 
		 "basiset": "6-31G**", 
		 "properties": { 
			 "R2extent": 2811.9507, 
			 "electric_dipole_moment_norm": 2.74540445472, 
			 "electric_quadrupole_moment_norm": 14.6582991394, 
			 "total_energy": -647.066819344, 
			 "HOMO_LUMO_gap": 0.19241, 
			 "cosmo_polarized_energy": -16.1, 
			 "cosmo_cavitation_energy": 27.35, 
			 "cosmo_dispersion_energy": -20.14, 
			 "cosmo_repulsion_energy": 1.56, 
			 "cosmo_total_nonelectrostatic_energy": 8.76, 
			 "SMD_solvation_energy": 5.75 
		},
		"coords": [
			{
				"x": 1.3662981218,
				"y": -2.5587132355,
				"z": 2.1952735983,
				"element": "C" 
			},
			{
				"x": 0.6361049774,
				"y": -1.7174394945,
				"z": 1.2528667996,
				"element": "N" 
			},
			{
				"x": 1.378069241,
				"y": -1.1276433756,
				"z": 0.1458636058,
				"element": "C" 
			},
			{
				"x": 1.5522841176,
				"y": 0.3760475718,
				"z": 0.3208898588,
				"element": "C" 
			},
			{
				"x": 2.6328777163,
				"y": 0.9250597293,
				"z": 0.4556389543,
				"element": "O" 
			},
			{
				"x": 0.369792125,
				"y": 1.085777282,
				"z": 0.3192244759,
				"element": "N" 
			},
			{
				"x": -0.929255491,
				"y": 0.6215542008,
				"z": 0.0253149212,
				"element": "C" 
			},
			{
				"x": -1.4306190551,
				"y": -0.6268620629,
				"z": 0.4579395428,
				"element": "C" 
			},
			{
				"x": -2.7587784653,
				"y": -0.9599436397,
				"z": 0.1416048422,
				"element": "C" 
			},
			{
				"x": -3.576358934,
				"y": -0.105877159,
				"z": -0.5859583831,
				"element": "C" 
			},
			{
				"x": -3.0775453755,
				"y": 1.1349094519,
				"z": -0.9943290354,
				"element": "C" 
			},
			{
				"x": -1.7703560872,
				"y": 1.491629479,
				"z": -0.690404622,
				"element": "C" 
			},
			{
				"x": -0.7258958636,
				"y": -1.5941505317,
				"z": 1.3728013548,
				"element": "C" 
			},
			{
				"x": -1.371406781,
				"y": -2.2437844097,
				"z": 2.1936218316,
				"element": "O" 
			},
			{
				"x": 0.6824370298,
				"y": -2.8422555476,
				"z": 2.9934893396,
				"element": "H" 
			},
			{
				"x": 2.2171310789,
				"y": -2.008461245,
				"z": 2.6103905218,
				"element": "H" 
			},
			{
				"x": 1.7384155664,
				"y": -3.467422441,
				"z": 1.7060716902,
				"element": "H" 
			},
			{
				"x": 0.8782978409,
				"y": -1.3348767963,
				"z": -0.8091216471,
				"element": "H" 
			},
			{
				"x": 2.3749927312,
				"y": -1.5657798587,
				"z": 0.1116501765,
				"element": "H" 
			},
			{
				"x": 0.5060089055,
				"y": 2.0892240189,
				"z": 0.3396056374,
				"element": "H" 
			},
			{
				"x": -3.1337457962,
				"y": -1.9057007601,
				"z": 0.5168871203,
				"element": "H" 
			},
			{
				"x": -4.5964626305,
				"y": -0.3933073712,
				"z": -0.8196483113,
				"element": "H" 
			},
			{
				"x": -3.7048259411,
				"y": 1.8237414123,
				"z": -1.5523813699,
				"element": "H" 
			},
			{
				"x": -1.3775590317,
				"y": 2.4525747828,
				"z": -1.0121909023,
				"element": "H" 
			}
		],
		 "valence_orbital": [ 
			{
				"type": "occ",
				"energy": -0.28229,
				"method": "rhf"
			},
			{
				"type": "occ",
				"energy": -0.27102,
				"method": "rhf"
			},
			{
				"type": "occ",
				"energy": -0.25096,
				"method": "rhf"
			},
			{
				"type": "occ",
				"energy": -0.24227,
				"method": "rhf"
			},
			{
				"type": "occ",
				"energy": -0.23261,
				"method": "rhf"
			},
			{
				"type": "unocc",
				"energy": -0.0402,
				"method": "rhf"
			},
			{
				"type": "unocc",
				"energy": -0.0237,
				"method": "rhf"
			},
			{
				"type": "unocc",
				"energy": 0.01671,
				"method": "rhf"
			},
			{
				"type": "unocc",
				"energy": 0.04788,
				"method": "rhf"
			},
			{
				"type": "unocc",
				"energy": 0.07703,
				"method": "rhf"
			}
		],
		"cosmo_sigma_profile": { 
			"-0.025": 0.0,
			"-0.024": 0.0,
			"-0.023": 0.0,
			"-0.022": 0.0,
			"-0.021": 0.0,
			"-0.02": 0.0,
			"-0.019": 0.0,
			"-0.018": 0.0,
			"-0.017": 0.0,
			"-0.016": 0.0270830424595,
			"-0.015": 0.774296905199,
			"-0.014": 1.26138289978,
			"-0.013": 0.972819442442,
			"-0.012": 1.19686691174,
			"-0.011": 1.07825504478,
			"-0.01": 1.86659700293,
			"-0.009": 0.983810138382,
			"-0.008": 3.12182791133,
			"-0.007": 8.66505937162,
			"-0.006": 13.621090937,
			"-0.005": 20.3008479056,
			"-0.004": 18.0365083067,
			"-0.003": 15.9283716765,
			"-0.002": 16.1280731219,
			"-0.001": 14.9460196368,
			"0.0": 12.9398361308,
			"0.001": 11.9667065882,
			"0.002": 10.5269399116,
			"0.003": 10.496060026,
			"0.004": 11.6813330467,
			"0.005": 4.56600153717,
			"0.006": 3.3409959346,
			"0.007": 2.89191442201,
			"0.008": 2.08916849474,
			"0.009": 2.46985367224,
			"0.01": 3.40965534685,
			"0.011": 3.63188649355,
			"0.012": 6.47290145179,
			"0.013": 8.12274490352,
			"0.014": 4.09258044402,
			"0.015": 0.13606597696,
			"0.016": 0.0,
			"0.017": 0.0,
			"0.018": 0.0,
			"0.019": 0.0,
			"0.02": 0.0,
			"0.021": 0.0,
			"0.022": 0.0,
			"0.023": 0.0,
			"0.024": 0.0,
			"0.025": 0.0
		}
	}
}
