{
	 "smiles": "NNC(=O)COC1=CC=C(OCC2=CC=CC=C2)C=C1", 
	 "Tm": 416.15, 
	 "num_atms": 36, 
	 "gaussian": { 
		 "optdone": 1, 
		 "sigma_profile": "yes", 
		 "theory": "DFT", 
		 "functional": "B3LYP", 
		 "basiset": "6-31G**", 
		 "properties": { 
			 "R2extent": 7892.5515, 
			 "electric_dipole_moment_norm": 1.48126496617, 
			 "electric_quadrupole_moment_norm": 13.263187192, 
			 "total_energy": -916.371812712, 
			 "HOMO_LUMO_gap": 0.19415, 
			 "cosmo_polarized_energy": -16.29, 
			 "cosmo_cavitation_energy": 40.54, 
			 "cosmo_dispersion_energy": -28.26, 
			 "cosmo_repulsion_energy": 2.23, 
			 "cosmo_total_nonelectrostatic_energy": 14.51, 
			 "SMD_solvation_energy": 8.17 
		},
		"coords": [
			{
				"x": -2.437680521,
				"y": -1.2205896151,
				"z": -3.9099418923,
				"element": "N" 
			},
			{
				"x": -2.0150408964,
				"y": -2.0226996627,
				"z": -2.8343508666,
				"element": "N" 
			},
			{
				"x": -2.712614346,
				"y": -2.1066987745,
				"z": -1.6722099357,
				"element": "C" 
			},
			{
				"x": -3.7618517841,
				"y": -1.5081030377,
				"z": -1.4658257414,
				"element": "O" 
			},
			{
				"x": -2.1242928314,
				"y": -3.0721537277,
				"z": -0.637923869,
				"element": "C" 
			},
			{
				"x": -0.7486394185,
				"y": -3.3710358731,
				"z": -0.8268407336,
				"element": "O" 
			},
			{
				"x": 0.1854815749,
				"y": -2.4733061132,
				"z": -0.3453545749,
				"element": "C" 
			},
			{
				"x": 1.5150211744,
				"y": -2.9170031531,
				"z": -0.3651478872,
				"element": "C" 
			},
			{
				"x": 2.5332168845,
				"y": -2.0931485174,
				"z": 0.0900275578,
				"element": "C" 
			},
			{
				"x": 2.2446890996,
				"y": -0.8085130749,
				"z": 0.5763063974,
				"element": "C" 
			},
			{
				"x": 3.3280867062,
				"y": -0.0865590323,
				"z": 1.0121565776,
				"element": "O" 
			},
			{
				"x": 3.1089642269,
				"y": 1.1521787932,
				"z": 1.6798848442,
				"element": "C" 
			},
			{
				"x": 2.8063713696,
				"y": 2.3166627479,
				"z": 0.754840317,
				"element": "C" 
			},
			{
				"x": 2.0320360277,
				"y": 3.390381008,
				"z": 1.2096627681,
				"element": "C" 
			},
			{
				"x": 1.7986510905,
				"y": 4.4954578895,
				"z": 0.3891549701,
				"element": "C" 
			},
			{
				"x": 2.3318332871,
				"y": 4.5329669441,
				"z": -0.9002498123,
				"element": "C" 
			},
			{
				"x": 3.1004907705,
				"y": 3.4619534743,
				"z": -1.3618193181,
				"element": "C" 
			},
			{
				"x": 3.3400764505,
				"y": 2.3617576252,
				"z": -0.5382318881,
				"element": "C" 
			},
			{
				"x": 0.9224030524,
				"y": -0.3625071326,
				"z": 0.5882342158,
				"element": "C" 
			},
			{
				"x": -0.1073063246,
				"y": -1.1947015601,
				"z": 0.1277224977,
				"element": "C" 
			},
			{
				"x": -2.4520482474,
				"y": -0.2529112225,
				"z": -3.5863967065,
				"element": "H" 
			},
			{
				"x": -3.4128292853,
				"y": -1.4560596185,
				"z": -4.0937761352,
				"element": "H" 
			},
			{
				"x": -1.1557723964,
				"y": -2.5363269928,
				"z": -2.9609948528,
				"element": "H" 
			},
			{
				"x": -2.3271782483,
				"y": -2.6695704452,
				"z": 0.359763121,
				"element": "H" 
			},
			{
				"x": -2.6519645229,
				"y": -4.0270207312,
				"z": -0.7296229654,
				"element": "H" 
			},
			{
				"x": 1.7274124704,
				"y": -3.9155793723,
				"z": -0.7331213406,
				"element": "H" 
			},
			{
				"x": 3.5650881256,
				"y": -2.4287716637,
				"z": 0.0884565841,
				"element": "H" 
			},
			{
				"x": 4.048522958,
				"y": 1.3361311455,
				"z": 2.2131034059,
				"element": "H" 
			},
			{
				"x": 2.3194394711,
				"y": 1.0460154214,
				"z": 2.4363421681,
				"element": "H" 
			},
			{
				"x": 1.6076746082,
				"y": 3.3628146841,
				"z": 2.2111739515,
				"element": "H" 
			},
			{
				"x": 1.1945189989,
				"y": 5.3212457485,
				"z": 0.7541941363,
				"element": "H" 
			},
			{
				"x": 2.1464886256,
				"y": 5.388994548,
				"z": -1.5426231812,
				"element": "H" 
			},
			{
				"x": 3.5151079026,
				"y": 3.4835124285,
				"z": -2.3657808534,
				"element": "H" 
			},
			{
				"x": 3.9340843575,
				"y": 1.5262264228,
				"z": -0.8951519086,
				"element": "H" 
			},
			{
				"x": 0.6731473583,
				"y": 0.6362355732,
				"z": 0.9246089968,
				"element": "H" 
			},
			{
				"x": -1.1223877688,
				"y": -0.8141751339,
				"z": 0.1333319535,
				"element": "H" 
			}
		],
		 "valence_orbital": [ 
			{
				"type": "occ",
				"energy": -0.25635,
				"method": "rhf"
			},
			{
				"type": "occ",
				"energy": -0.25381,
				"method": "rhf"
			},
			{
				"type": "occ",
				"energy": -0.25235,
				"method": "rhf"
			},
			{
				"type": "occ",
				"energy": -0.24689,
				"method": "rhf"
			},
			{
				"type": "occ",
				"energy": -0.20584,
				"method": "rhf"
			},
			{
				"type": "unocc",
				"energy": -0.01169,
				"method": "rhf"
			},
			{
				"type": "unocc",
				"energy": -0.00661,
				"method": "rhf"
			},
			{
				"type": "unocc",
				"energy": -0.00294,
				"method": "rhf"
			},
			{
				"type": "unocc",
				"energy": 0.01921,
				"method": "rhf"
			},
			{
				"type": "unocc",
				"energy": 0.02197,
				"method": "rhf"
			}
		],
		"cosmo_sigma_profile": { 
			"-0.025": 0.0,
			"-0.024": 0.0,
			"-0.023": 0.0,
			"-0.022": 0.0,
			"-0.021": 0.0,
			"-0.02": 0.0,
			"-0.019": 0.0,
			"-0.018": 0.0,
			"-0.017": 0.0,
			"-0.016": 0.0,
			"-0.015": 0.0,
			"-0.014": 0.0,
			"-0.013": 0.703120396172,
			"-0.012": 0.923884025928,
			"-0.011": 2.69436416834,
			"-0.01": 3.42172898327,
			"-0.009": 2.77514077377,
			"-0.008": 5.34621806766,
			"-0.007": 7.64950619244,
			"-0.006": 21.2102100128,
			"-0.005": 27.842700426,
			"-0.004": 28.9604949952,
			"-0.003": 24.488465405,
			"-0.002": 17.3899945289,
			"-0.001": 18.548950113,
			"0.0": 16.5522353352,
			"0.001": 18.4358588085,
			"0.002": 18.462347965,
			"0.003": 20.1111110193,
			"0.004": 23.4081791726,
			"0.005": 22.229313035,
			"0.006": 10.6750761473,
			"0.007": 4.02817306696,
			"0.008": 3.49070774922,
			"0.009": 3.78273774678,
			"0.01": 3.01613337695,
			"0.011": 2.15233216771,
			"0.012": 2.63000405135,
			"0.013": 5.60244868764,
			"0.014": 3.68953732119,
			"0.015": 1.02290393283,
			"0.016": 0.690032437338,
			"0.017": 0.0587659327721,
			"0.018": 0.0,
			"0.019": 0.0,
			"0.02": 0.0,
			"0.021": 0.0,
			"0.022": 0.0,
			"0.023": 0.0,
			"0.024": 0.0,
			"0.025": 0.0
		}
	}
}
