{
	 "smiles": "O=C(C1CCNCC1)N1CCCC1", 
	 "Tm": 319.15, 
	 "num_atms": 31, 
	 "gaussian": { 
		 "optdone": 1, 
		 "sigma_profile": "yes", 
		 "theory": "DFT", 
		 "functional": "B3LYP", 
		 "basiset": "6-31G**", 
		 "properties": { 
			 "R2extent": 3491.7506, 
			 "electric_dipole_moment_norm": 3.36134657689, 
			 "electric_quadrupole_moment_norm": 9.81879651077, 
			 "total_energy": -576.641854248, 
			 "HOMO_LUMO_gap": 0.24411, 
			 "cosmo_polarized_energy": -12.96, 
			 "cosmo_cavitation_energy": 30.15, 
			 "cosmo_dispersion_energy": -22.27, 
			 "cosmo_repulsion_energy": 1.78, 
			 "cosmo_total_nonelectrostatic_energy": 9.66, 
			 "SMD_solvation_energy": 1.38 
		},
		"coords": [
			{
				"x": -1.4036270216,
				"y": 1.1601575496,
				"z": 2.6056583561,
				"element": "O" 
			},
			{
				"x": -0.7893466767,
				"y": 0.3824194046,
				"z": 1.8736718595,
				"element": "C" 
			},
			{
				"x": 0.6896056884,
				"y": 0.0901217942,
				"z": 2.1564054576,
				"element": "C" 
			},
			{
				"x": 1.6471069553,
				"y": 0.8458079642,
				"z": 1.1944610078,
				"element": "C" 
			},
			{
				"x": 3.0898349406,
				"y": 0.2811002219,
				"z": 1.3076354366,
				"element": "C" 
			},
			{
				"x": 3.3936592641,
				"y": -0.3088872254,
				"z": 2.6114917313,
				"element": "N" 
			},
			{
				"x": 2.5280737345,
				"y": -1.4622136583,
				"z": 2.9124254573,
				"element": "C" 
			},
			{
				"x": 1.1125357119,
				"y": -1.3859116844,
				"z": 2.2742026176,
				"element": "C" 
			},
			{
				"x": -1.4265374106,
				"y": -0.1906975941,
				"z": 0.8056316282,
				"element": "N" 
			},
			{
				"x": -0.9116460504,
				"y": -1.1104264365,
				"z": -0.2181656845,
				"element": "C" 
			},
			{
				"x": -1.9492052754,
				"y": -0.9997498449,
				"z": -1.3450389535,
				"element": "C" 
			},
			{
				"x": -3.2619721032,
				"y": -0.7703084154,
				"z": -0.5794821613,
				"element": "C" 
			},
			{
				"x": -2.8431955951,
				"y": 0.1489420777,
				"z": 0.5762774765,
				"element": "C" 
			},
			{
				"x": 0.8130529068,
				"y": 0.534309341,
				"z": 3.1495294483,
				"element": "H" 
			},
			{
				"x": 1.3041757819,
				"y": 0.7750211228,
				"z": 0.1551659975,
				"element": "H" 
			},
			{
				"x": 1.6265371229,
				"y": 1.9112535478,
				"z": 1.4502026486,
				"element": "H" 
			},
			{
				"x": 3.2458736295,
				"y": -0.5005686045,
				"z": 0.5532006721,
				"element": "H" 
			},
			{
				"x": 3.8239208191,
				"y": 1.0649886998,
				"z": 1.0925285347,
				"element": "H" 
			},
			{
				"x": 3.2749308055,
				"y": 0.3998376187,
				"z": 3.3302831375,
				"element": "H" 
			},
			{
				"x": 2.4440596104,
				"y": -1.5391600445,
				"z": 4.0017675842,
				"element": "H" 
			},
			{
				"x": 3.0272941156,
				"y": -2.3792734537,
				"z": 2.5711246394,
				"element": "H" 
			},
			{
				"x": 0.3971569869,
				"y": -1.952987939,
				"z": 2.8806011598,
				"element": "H" 
			},
			{
				"x": 1.1336893789,
				"y": -1.8621543689,
				"z": 1.2892076839,
				"element": "H" 
			},
			{
				"x": -0.8655991092,
				"y": -2.1412394063,
				"z": 0.1603135804,
				"element": "H" 
			},
			{
				"x": 0.0919794825,
				"y": -0.8312072937,
				"z": -0.5473547315,
				"element": "H" 
			},
			{
				"x": -1.7221664783,
				"y": -0.132108535,
				"z": -1.9751515791,
				"element": "H" 
			},
			{
				"x": -1.9639270557,
				"y": -1.8863632505,
				"z": -1.9849788055,
				"element": "H" 
			},
			{
				"x": -3.6385968567,
				"y": -1.7229364223,
				"z": -0.1891885658,
				"element": "H" 
			},
			{
				"x": -4.0495478234,
				"y": -0.3301668529,
				"z": -1.1967263263,
				"element": "H" 
			},
			{
				"x": -3.4224635677,
				"y": -0.0024063314,
				"z": 1.4909394742,
				"element": "H" 
			},
			{
				"x": -2.9325559107,
				"y": 1.2107080196,
				"z": 0.3144612186,
				"element": "H" 
			}
		],
		 "valence_orbital": [ 
			{
				"type": "occ",
				"energy": -0.31064,
				"method": "rhf"
			},
			{
				"type": "occ",
				"energy": -0.30984,
				"method": "rhf"
			},
			{
				"type": "occ",
				"energy": -0.23423,
				"method": "rhf"
			},
			{
				"type": "occ",
				"energy": -0.22929,
				"method": "rhf"
			},
			{
				"type": "occ",
				"energy": -0.21275,
				"method": "rhf"
			},
			{
				"type": "unocc",
				"energy": 0.03136,
				"method": "rhf"
			},
			{
				"type": "unocc",
				"energy": 0.06316,
				"method": "rhf"
			},
			{
				"type": "unocc",
				"energy": 0.07958,
				"method": "rhf"
			},
			{
				"type": "unocc",
				"energy": 0.09934,
				"method": "rhf"
			},
			{
				"type": "unocc",
				"energy": 0.10953,
				"method": "rhf"
			}
		],
		"cosmo_sigma_profile": { 
			"-0.025": 0.0,
			"-0.024": 0.0,
			"-0.023": 0.0,
			"-0.022": 0.0,
			"-0.021": 0.0,
			"-0.02": 0.0,
			"-0.019": 0.0,
			"-0.018": 0.0,
			"-0.017": 0.0,
			"-0.016": 0.0,
			"-0.015": 0.0,
			"-0.014": 0.0,
			"-0.013": 0.0,
			"-0.012": 0.0,
			"-0.011": 0.0,
			"-0.01": 0.185174310253,
			"-0.009": 1.35390097186,
			"-0.008": 1.36759332537,
			"-0.007": 1.78195702952,
			"-0.006": 2.82211840278,
			"-0.005": 6.55994158595,
			"-0.004": 19.4085456087,
			"-0.003": 44.3082656782,
			"-0.002": 44.2115812725,
			"-0.001": 31.7323921218,
			"0.0": 25.2521496109,
			"0.001": 7.99542508435,
			"0.002": 6.22411135363,
			"0.003": 3.78420111874,
			"0.004": 2.88334435575,
			"0.005": 1.62014500144,
			"0.006": 2.40494135378,
			"0.007": 2.56204052513,
			"0.008": 2.16632629755,
			"0.009": 1.74830704536,
			"0.01": 2.95947733048,
			"0.011": 1.99191065586,
			"0.012": 1.94125891423,
			"0.013": 2.25242075501,
			"0.014": 4.17831729956,
			"0.015": 5.74128201143,
			"0.016": 1.83948130158,
			"0.017": 0.308735486562,
			"0.018": 0.809241494521,
			"0.019": 0.194670175291,
			"0.02": 0.0,
			"0.021": 0.0,
			"0.022": 0.0,
			"0.023": 0.0,
			"0.024": 0.0,
			"0.025": 0.0
		}
	}
}
