{
	 "smiles": "OC1=C2C=CC=C(OC(F)(F)F)C2=NC=C1", 
	 "Tm": 419.15, 
	 "num_atms": 22, 
	 "gaussian": { 
		 "optdone": 1, 
		 "sigma_profile": "yes", 
		 "theory": "DFT", 
		 "functional": "B3LYP", 
		 "basiset": "6-31G**", 
		 "properties": { 
			 "R2extent": 3993.3294, 
			 "electric_dipole_moment_norm": 4.43826327971, 
			 "electric_quadrupole_moment_norm": 7.52604437935, 
			 "total_energy": -889.398975428, 
			 "HOMO_LUMO_gap": 0.17489, 
			 "cosmo_polarized_energy": -13.14, 
			 "cosmo_cavitation_energy": 28.03, 
			 "cosmo_dispersion_energy": -20.33, 
			 "cosmo_repulsion_energy": 1.5, 
			 "cosmo_total_nonelectrostatic_energy": 9.2, 
			 "SMD_solvation_energy": 5.42 
		},
		"coords": [
			{
				"x": -3.2772775673,
				"y": -1.3463032301,
				"z": 0.5303021091,
				"element": "O" 
			},
			{
				"x": -1.9434436575,
				"y": -1.5789089236,
				"z": 0.5846894577,
				"element": "C" 
			},
			{
				"x": -0.9939247321,
				"y": -0.8258914462,
				"z": -0.1749730276,
				"element": "C" 
			},
			{
				"x": -1.3452034733,
				"y": 0.2340996458,
				"z": -1.050670345,
				"element": "C" 
			},
			{
				"x": -0.3777669814,
				"y": 0.9165341172,
				"z": -1.753359323,
				"element": "C" 
			},
			{
				"x": 0.9842997855,
				"y": 0.5689580069,
				"z": -1.6135846507,
				"element": "C" 
			},
			{
				"x": 1.3448983792,
				"y": -0.4510618274,
				"z": -0.7661692683,
				"element": "C" 
			},
			{
				"x": 2.6808627666,
				"y": -0.8429341454,
				"z": -0.6858658594,
				"element": "O" 
			},
			{
				"x": 3.4944428333,
				"y": -0.1320106784,
				"z": 0.135265563,
				"element": "C" 
			},
			{
				"x": 3.6980150267,
				"y": 1.1258954537,
				"z": -0.3229721155,
				"element": "F" 
			},
			{
				"x": 4.6708167936,
				"y": -0.7542492801,
				"z": 0.1779053928,
				"element": "F" 
			},
			{
				"x": 3.0099392327,
				"y": -0.0185551188,
				"z": 1.3812357249,
				"element": "F" 
			},
			{
				"x": 0.3841883185,
				"y": -1.1895525519,
				"z": -0.012905681,
				"element": "C" 
			},
			{
				"x": 0.8140685853,
				"y": -2.1850782139,
				"z": 0.8044819286,
				"element": "N" 
			},
			{
				"x": -0.1100313918,
				"y": -2.8431695611,
				"z": 1.4800185794,
				"element": "C" 
			},
			{
				"x": -1.4939825262,
				"y": -2.5882006586,
				"z": 1.4120429726,
				"element": "C" 
			},
			{
				"x": -3.4695409564,
				"y": -0.6240865639,
				"z": -0.0805497502,
				"element": "H" 
			},
			{
				"x": -2.3845290978,
				"y": 0.5266863561,
				"z": -1.1842313923,
				"element": "H" 
			},
			{
				"x": -0.6556541267,
				"y": 1.7246093779,
				"z": -2.4221827024,
				"element": "H" 
			},
			{
				"x": 1.7536319263,
				"y": 1.0931024704,
				"z": -2.1685482155,
				"element": "H" 
			},
			{
				"x": 0.2473134817,
				"y": -3.6387880821,
				"z": 2.13248663,
				"element": "H" 
			},
			{
				"x": -2.2028226189,
				"y": -3.1666951465,
				"z": 1.9933839732,
				"element": "H" 
			}
		],
		 "valence_orbital": [ 
			{
				"type": "occ",
				"energy": -0.32854,
				"method": "rhf"
			},
			{
				"type": "occ",
				"energy": -0.28725,
				"method": "rhf"
			},
			{
				"type": "occ",
				"energy": -0.26634,
				"method": "rhf"
			},
			{
				"type": "occ",
				"energy": -0.26162,
				"method": "rhf"
			},
			{
				"type": "occ",
				"energy": -0.23394,
				"method": "rhf"
			},
			{
				"type": "unocc",
				"energy": -0.05905,
				"method": "rhf"
			},
			{
				"type": "unocc",
				"energy": -0.02989,
				"method": "rhf"
			},
			{
				"type": "unocc",
				"energy": 0.01625,
				"method": "rhf"
			},
			{
				"type": "unocc",
				"energy": 0.03962,
				"method": "rhf"
			},
			{
				"type": "unocc",
				"energy": 0.07952,
				"method": "rhf"
			}
		],
		"cosmo_sigma_profile": { 
			"-0.025": 0.0,
			"-0.024": 0.0,
			"-0.023": 0.0,
			"-0.022": 0.0,
			"-0.021": 0.0,
			"-0.02": 0.0926741984002,
			"-0.019": 0.640941312208,
			"-0.018": 1.17828784289,
			"-0.017": 0.845189063968,
			"-0.016": 0.601421292424,
			"-0.015": 1.00941823311,
			"-0.014": 0.949901229309,
			"-0.013": 0.91635646443,
			"-0.012": 1.5557257841,
			"-0.011": 0.9131877287,
			"-0.01": 0.864873864445,
			"-0.009": 1.27824541663,
			"-0.008": 2.32343557994,
			"-0.007": 8.62584128846,
			"-0.006": 11.4894670732,
			"-0.005": 9.23755930516,
			"-0.004": 6.717210465,
			"-0.003": 7.08874179199,
			"-0.002": 9.34107495982,
			"-0.001": 11.8246156369,
			"0.0": 22.59080946,
			"0.001": 31.690633167,
			"0.002": 44.2196137075,
			"0.003": 16.3316471514,
			"0.004": 6.25415386548,
			"0.005": 5.1703881519,
			"0.006": 3.64750612549,
			"0.007": 4.04803119605,
			"0.008": 3.87813074618,
			"0.009": 3.41214916537,
			"0.01": 2.40212598282,
			"0.011": 1.20432903229,
			"0.012": 1.2873103183,
			"0.013": 1.06037864855,
			"0.014": 0.802198314984,
			"0.015": 0.500858931798,
			"0.016": 0.0993871719034,
			"0.017": 0.0,
			"0.018": 0.0,
			"0.019": 0.0,
			"0.02": 0.0,
			"0.021": 0.0,
			"0.022": 0.0,
			"0.023": 0.0,
			"0.024": 0.0,
			"0.025": 0.0
		}
	}
}
