{
	 "smiles": "CCCCCCCCCCCCCCCCO", 
	 "Tm": 324.23, 
	 "num_atms": 51, 
	 "gaussian": { 
		 "optdone": 1, 
		 "sigma_profile": "no", 
		 "theory": "DFT", 
		 "functional": "B3LYP", 
		 "basiset": "6-31G**", 
		 "properties": { 
			 "R2extent": 8814.8736, 
			 "electric_dipole_moment_norm": 1.42634427822, 
			 "electric_quadrupole_moment_norm": 8.88124652512, 
			 "total_energy": -705.442631424, 
			 "HOMO_LUMO_gap": 0.33201, 
			 "cosmo_polarized_energy": -5.48, 
			 "cosmo_cavitation_energy": 47.76, 
			 "cosmo_dispersion_energy": -31.74, 
			 "cosmo_repulsion_energy": 2.59, 
			 "cosmo_total_nonelectrostatic_energy": 18.6, 
			 "SMD_solvation_energy": 6.26 
		},
		"coords": [
			{
				"x": -0.7053356608,
				"y": -1.655267597,
				"z": -5.4219480915,
				"element": "C" 
			},
			{
				"x": -1.9659655122,
				"y": -1.2134162629,
				"z": -4.6697797932,
				"element": "C" 
			},
			{
				"x": -2.0829685546,
				"y": -1.7089243606,
				"z": -3.2167675653,
				"element": "C" 
			},
			{
				"x": -2.1851013735,
				"y": -3.2441710684,
				"z": -3.0534010278,
				"element": "C" 
			},
			{
				"x": -0.8562701738,
				"y": -4.0087579854,
				"z": -2.8403505417,
				"element": "C" 
			},
			{
				"x": -0.474498818,
				"y": -4.249612044,
				"z": -1.3662358606,
				"element": "C" 
			},
			{
				"x": -0.1551774735,
				"y": -3.0085413944,
				"z": -0.5145486086,
				"element": "C" 
			},
			{
				"x": 1.1250369498,
				"y": -2.2642746614,
				"z": -0.9188002155,
				"element": "C" 
			},
			{
				"x": 1.4386304387,
				"y": -1.0630741386,
				"z": -0.0161792544,
				"element": "C" 
			},
			{
				"x": 2.7378031953,
				"y": -0.3409238466,
				"z": -0.4054586634,
				"element": "C" 
			},
			{
				"x": 3.1641918697,
				"y": 0.8306734108,
				"z": 0.5050349029,
				"element": "C" 
			},
			{
				"x": 2.5564189835,
				"y": 2.2103785043,
				"z": 0.1797884595,
				"element": "C" 
			},
			{
				"x": 1.0467763169,
				"y": 2.4078039547,
				"z": 0.4188746738,
				"element": "C" 
			},
			{
				"x": 0.4892431842,
				"y": 2.0929953731,
				"z": 1.820639932,
				"element": "C" 
			},
			{
				"x": 0.9407073642,
				"y": 3.0020328319,
				"z": 2.9805809868,
				"element": "C" 
			},
			{
				"x": 2.3052308654,
				"y": 2.6848589205,
				"z": 3.5910430117,
				"element": "C" 
			},
			{
				"x": 2.2963196637,
				"y": 1.3258294331,
				"z": 4.0259314824,
				"element": "O" 
			},
			{
				"x": -0.6580592547,
				"y": -2.7429737277,
				"z": -5.5362206089,
				"element": "H" 
			},
			{
				"x": -0.6772339148,
				"y": -1.2195461627,
				"z": -6.4265403071,
				"element": "H" 
			},
			{
				"x": 0.2035770461,
				"y": -1.3364739983,
				"z": -4.8981932824,
				"element": "H" 
			},
			{
				"x": -2.8522843534,
				"y": -1.5473233163,
				"z": -5.2273173702,
				"element": "H" 
			},
			{
				"x": -2.0092879277,
				"y": -0.1162429901,
				"z": -4.6657381996,
				"element": "H" 
			},
			{
				"x": -1.2355682966,
				"y": -1.3238685464,
				"z": -2.6357756206,
				"element": "H" 
			},
			{
				"x": -2.9779283263,
				"y": -1.2456485408,
				"z": -2.7820296005,
				"element": "H" 
			},
			{
				"x": -2.6953123013,
				"y": -3.6470976902,
				"z": -3.9385873328,
				"element": "H" 
			},
			{
				"x": -2.8490950215,
				"y": -3.4728325333,
				"z": -2.2092832559,
				"element": "H" 
			},
			{
				"x": -0.0385172225,
				"y": -3.4965617038,
				"z": -3.3599079619,
				"element": "H" 
			},
			{
				"x": -0.9363620499,
				"y": -4.9939935322,
				"z": -3.3172809881,
				"element": "H" 
			},
			{
				"x": -1.2971063766,
				"y": -4.7990043875,
				"z": -0.8876788534,
				"element": "H" 
			},
			{
				"x": 0.3931589122,
				"y": -4.9237206122,
				"z": -1.3368912509,
				"element": "H" 
			},
			{
				"x": -1.0053491433,
				"y": -2.3135096214,
				"z": -0.5309471947,
				"element": "H" 
			},
			{
				"x": -0.0552028406,
				"y": -3.3270558256,
				"z": 0.5321868453,
				"element": "H" 
			},
			{
				"x": 1.0489759628,
				"y": -1.9196530334,
				"z": -1.9590309639,
				"element": "H" 
			},
			{
				"x": 1.9709872256,
				"y": -2.9668964404,
				"z": -0.8967011775,
				"element": "H" 
			},
			{
				"x": 1.5178399901,
				"y": -1.4042439212,
				"z": 1.02577448,
				"element": "H" 
			},
			{
				"x": 0.5908846113,
				"y": -0.3679142336,
				"z": -0.0415423764,
				"element": "H" 
			},
			{
				"x": 3.544132877,
				"y": -1.0873619667,
				"z": -0.4067317917,
				"element": "H" 
			},
			{
				"x": 2.6635568554,
				"y": 0.0142842768,
				"z": -1.4439008853,
				"element": "H" 
			},
			{
				"x": 4.2535575638,
				"y": 0.9404655991,
				"z": 0.4202036598,
				"element": "H" 
			},
			{
				"x": 2.9712125472,
				"y": 0.5724285899,
				"z": 1.5543942358,
				"element": "H" 
			},
			{
				"x": 2.761334051,
				"y": 2.4374463596,
				"z": -0.8761585014,
				"element": "H" 
			},
			{
				"x": 3.1093562028,
				"y": 2.9685723515,
				"z": 0.7487549165,
				"element": "H" 
			},
			{
				"x": 0.4914323748,
				"y": 1.7996231939,
				"z": -0.3063197067,
				"element": "H" 
			},
			{
				"x": 0.800855168,
				"y": 3.4505349065,
				"z": 0.1712016862,
				"element": "H" 
			},
			{
				"x": 0.6987858401,
				"y": 1.0537977449,
				"z": 2.093331442,
				"element": "H" 
			},
			{
				"x": -0.6035406839,
				"y": 2.1688926067,
				"z": 1.7523110514,
				"element": "H" 
			},
			{
				"x": 0.2023497715,
				"y": 2.921952826,
				"z": 3.7880619796,
				"element": "H" 
			},
			{
				"x": 0.9418778453,
				"y": 4.0542390154,
				"z": 2.6640198875,
				"element": "H" 
			},
			{
				"x": 2.4832824238,
				"y": 3.3652652591,
				"z": 4.4395414873,
				"element": "H" 
			},
			{
				"x": 3.1105288275,
				"y": 2.8555361064,
				"z": 2.863461331,
				"element": "H" 
			},
			{
				"x": 3.1723203517,
				"y": 1.1157748787,
				"z": 4.3715104003,
				"element": "H" 
			}
		],
		 "valence_orbital": [ 
			{
				"type": "occ",
				"energy": -0.29822,
				"method": "rhf"
			},
			{
				"type": "occ",
				"energy": -0.29742,
				"method": "rhf"
			},
			{
				"type": "occ",
				"energy": -0.29557,
				"method": "rhf"
			},
			{
				"type": "occ",
				"energy": -0.28698,
				"method": "rhf"
			},
			{
				"type": "occ",
				"energy": -0.26211,
				"method": "rhf"
			},
			{
				"type": "unocc",
				"energy": 0.0699,
				"method": "rhf"
			},
			{
				"type": "unocc",
				"energy": 0.07546,
				"method": "rhf"
			},
			{
				"type": "unocc",
				"energy": 0.09062,
				"method": "rhf"
			},
			{
				"type": "unocc",
				"energy": 0.10212,
				"method": "rhf"
			},
			{
				"type": "unocc",
				"energy": 0.10275,
				"method": "rhf"
			}
		],
		"cosmo_sigma_profile": { 
			"0.0": 0.0,
			"0.0": 0.0,
			"0.0": 0.0,
			"0.0": 0.0,
			"0.0": 0.0,
			"0.0": 0.0,
			"0.0": 0.0,
			"0.0": 0.0,
			"0.0": 0.0,
			"0.0": 0.0,
			"0.0": 0.0,
			"0.0": 0.0,
			"0.0": 0.0,
			"0.0": 0.0,
			"0.0": 0.0,
			"0.0": 0.0,
			"0.0": 0.0,
			"0.0": 0.0,
			"0.0": 0.0,
			"0.0": 0.0,
			"0.0": 0.0,
			"0.0": 0.0,
			"0.0": 0.0,
			"0.0": 0.0,
			"0.0": 0.0,
			"0.0": 0.0,
			"0.0": 0.0,
			"0.0": 0.0,
			"0.0": 0.0,
			"0.0": 0.0,
			"0.0": 0.0,
			"0.0": 0.0,
			"0.0": 0.0,
			"0.0": 0.0,
			"0.0": 0.0,
			"0.0": 0.0,
			"0.0": 0.0,
			"0.0": 0.0,
			"0.0": 0.0,
			"0.0": 0.0,
			"0.0": 0.0,
			"0.0": 0.0,
			"0.0": 0.0,
			"0.0": 0.0,
			"0.0": 0.0,
			"0.0": 0.0,
			"0.0": 0.0,
			"0.0": 0.0,
			"0.0": 0.0,
			"0.0": 0.0,
			"0.0": 0.0
		}
	}
}
