{
	 "smiles": "BrC1=CC=C2NC=C(C=O)C2=C1", 
	 "Tm": 479.15, 
	 "num_atms": 18, 
	 "gaussian": { 
		 "optdone": 1, 
		 "sigma_profile": "yes", 
		 "theory": "DFT", 
		 "functional": "B3LYP", 
		 "basiset": "6-31G**", 
		 "properties": { 
			 "R2extent": 3758.9468, 
			 "electric_dipole_moment_norm": 6.83417544478, 
			 "electric_quadrupole_moment_norm": 9.45870980895, 
			 "total_energy": -3047.95123131, 
			 "HOMO_LUMO_gap": 0.1781, 
			 "cosmo_polarized_energy": -16.71, 
			 "cosmo_cavitation_energy": 25.14, 
			 "cosmo_dispersion_energy": -18.99, 
			 "cosmo_repulsion_energy": 1.5, 
			 "cosmo_total_nonelectrostatic_energy": 7.66, 
			 "SMD_solvation_energy": 4.05 
		},
		"coords": [
			{
				"x": 0.4053449509,
				"y": -3.4613072222,
				"z": 2.0027412742,
				"element": "Br" 
			},
			{
				"x": -0.4459713887,
				"y": -2.1775570911,
				"z": 0.864899553,
				"element": "C" 
			},
			{
				"x": -1.6123672098,
				"y": -2.5678778145,
				"z": 0.1801953232,
				"element": "C" 
			},
			{
				"x": -2.2675960972,
				"y": -1.672704385,
				"z": -0.6579105254,
				"element": "C" 
			},
			{
				"x": -1.723433242,
				"y": -0.3927684229,
				"z": -0.7852458945,
				"element": "C" 
			},
			{
				"x": -2.1476767775,
				"y": 0.6974827973,
				"z": -1.5357547942,
				"element": "N" 
			},
			{
				"x": -1.2924341277,
				"y": 1.7461666718,
				"z": -1.3440521679,
				"element": "C" 
			},
			{
				"x": -0.2885690311,
				"y": 1.3758384284,
				"z": -0.4672412141,
				"element": "C" 
			},
			{
				"x": 0.8014373197,
				"y": 2.2297880899,
				"z": -0.0262830322,
				"element": "C" 
			},
			{
				"x": 1.6828012812,
				"y": 1.8879097409,
				"z": 0.7477480877,
				"element": "O" 
			},
			{
				"x": -0.5497763426,
				"y": 0.0021479083,
				"z": -0.097154291,
				"element": "C" 
			},
			{
				"x": 0.1035490734,
				"y": -0.9092400972,
				"z": 0.7462371522,
				"element": "C" 
			},
			{
				"x": -1.9962807601,
				"y": -3.5726090049,
				"z": 0.3113473931,
				"element": "H" 
			},
			{
				"x": -3.1676868562,
				"y": -1.9686045963,
				"z": -1.1884582088,
				"element": "H" 
			},
			{
				"x": -2.9611803486,
				"y": 0.7136215077,
				"z": -2.130650922,
				"element": "H" 
			},
			{
				"x": -1.4506518471,
				"y": 2.692193689,
				"z": -1.8435105266,
				"element": "H" 
			},
			{
				"x": 0.7897487133,
				"y": 3.2574045923,
				"z": -0.4552831975,
				"element": "H" 
			},
			{
				"x": 1.00084269,
				"y": -0.6174847916,
				"z": 1.276475991,
				"element": "H" 
			}
		],
		 "valence_orbital": [ 
			{
				"type": "occ",
				"energy": -0.29029,
				"method": "rhf"
			},
			{
				"type": "occ",
				"energy": -0.28039,
				"method": "rhf"
			},
			{
				"type": "occ",
				"energy": -0.24726,
				"method": "rhf"
			},
			{
				"type": "occ",
				"energy": -0.23441,
				"method": "rhf"
			},
			{
				"type": "occ",
				"energy": -0.22668,
				"method": "rhf"
			},
			{
				"type": "unocc",
				"energy": -0.04858,
				"method": "rhf"
			},
			{
				"type": "unocc",
				"energy": -0.01863,
				"method": "rhf"
			},
			{
				"type": "unocc",
				"energy": 0.00624,
				"method": "rhf"
			},
			{
				"type": "unocc",
				"energy": 0.01246,
				"method": "rhf"
			},
			{
				"type": "unocc",
				"energy": 0.05797,
				"method": "rhf"
			}
		],
		"cosmo_sigma_profile": { 
			"-0.025": 0.0,
			"-0.024": 0.0,
			"-0.023": 0.0,
			"-0.022": 0.0,
			"-0.021": 0.0,
			"-0.02": 0.0,
			"-0.019": 0.0,
			"-0.018": 0.0,
			"-0.017": 1.26702170023,
			"-0.016": 2.08225274409,
			"-0.015": 1.50596848895,
			"-0.014": 1.184156599,
			"-0.013": 1.10443370888,
			"-0.012": 1.68066775432,
			"-0.011": 1.43878115324,
			"-0.01": 3.7101646032,
			"-0.009": 3.66389445233,
			"-0.008": 4.81118013764,
			"-0.007": 5.76262005221,
			"-0.006": 7.32821074995,
			"-0.005": 8.74263246097,
			"-0.004": 8.20428121783,
			"-0.003": 9.34212472883,
			"-0.002": 8.70880341107,
			"-0.001": 10.2290010818,
			"0.0": 11.6076452782,
			"0.001": 16.0780701124,
			"0.002": 20.1357536979,
			"0.003": 26.3601706213,
			"0.004": 19.1466037606,
			"0.005": 12.412297615,
			"0.006": 2.99022788309,
			"0.007": 1.34348066381,
			"0.008": 2.01650484998,
			"0.009": 1.44581610425,
			"0.01": 1.99143548665,
			"0.011": 2.69749236734,
			"0.012": 3.59188137924,
			"0.013": 2.1572051836,
			"0.014": 1.13013584489,
			"0.015": 0.0163403682648,
			"0.016": 0.0,
			"0.017": 0.0,
			"0.018": 0.0,
			"0.019": 0.0,
			"0.02": 0.0,
			"0.021": 0.0,
			"0.022": 0.0,
			"0.023": 0.0,
			"0.024": 0.0,
			"0.025": 0.0
		}
	}
}
