{
	 "smiles": "CC1=CC(N2C=NC(O)=N2)=C(C)C=C1", 
	 "Tm": 440.15, 
	 "num_atms": 25, 
	 "gaussian": { 
		 "optdone": 1, 
		 "sigma_profile": "yes", 
		 "theory": "DFT", 
		 "functional": "B3LYP", 
		 "basiset": "6-31G**", 
		 "properties": { 
			 "R2extent": 3503.7506, 
			 "electric_dipole_moment_norm": 3.9471192964, 
			 "electric_quadrupole_moment_norm": 18.8539670995, 
			 "total_energy": -627.165873897, 
			 "HOMO_LUMO_gap": 0.20286, 
			 "cosmo_polarized_energy": -13.23, 
			 "cosmo_cavitation_energy": 29.14, 
			 "cosmo_dispersion_energy": -21.01, 
			 "cosmo_repulsion_energy": 1.65, 
			 "cosmo_total_nonelectrostatic_energy": 9.78, 
			 "SMD_solvation_energy": 3.53 
		},
		"coords": [
			{
				"x": -1.3109251425,
				"y": -2.4692974396,
				"z": -2.6742839042,
				"element": "C" 
			},
			{
				"x": -0.4772570271,
				"y": -1.7202765582,
				"z": -1.6616142384,
				"element": "C" 
			},
			{
				"x": -0.5102923505,
				"y": -0.323814281,
				"z": -1.5958055159,
				"element": "C" 
			},
			{
				"x": 0.2379715112,
				"y": 0.3736065556,
				"z": -0.6435765829,
				"element": "C" 
			},
			{
				"x": 0.1828593842,
				"y": 1.7981843802,
				"z": -0.6721668272,
				"element": "N" 
			},
			{
				"x": 0.3184725775,
				"y": 2.6238057118,
				"z": -1.738031363,
				"element": "C" 
			},
			{
				"x": 0.1517923278,
				"y": 3.8876496677,
				"z": -1.3890137808,
				"element": "N" 
			},
			{
				"x": -0.0952924173,
				"y": 3.7800421228,
				"z": -0.0585878693,
				"element": "C" 
			},
			{
				"x": -0.3291742952,
				"y": 4.8721824322,
				"z": 0.6880148172,
				"element": "O" 
			},
			{
				"x": -0.0932886265,
				"y": 2.5534644997,
				"z": 0.4434016978,
				"element": "N" 
			},
			{
				"x": 1.0471913683,
				"y": -0.2962488487,
				"z": 0.2928588637,
				"element": "C" 
			},
			{
				"x": 1.8895266997,
				"y": 0.4328761531,
				"z": 1.3096977765,
				"element": "C" 
			},
			{
				"x": 1.05643028,
				"y": -1.6938829349,
				"z": 0.2231921808,
				"element": "C" 
			},
			{
				"x": 0.3195253248,
				"y": -2.3949413229,
				"z": -0.7307335194,
				"element": "C" 
			},
			{
				"x": -0.8412439673,
				"y": -3.417095437,
				"z": -2.9534557651,
				"element": "H" 
			},
			{
				"x": -1.4588558579,
				"y": -1.8830362244,
				"z": -3.5860851521,
				"element": "H" 
			},
			{
				"x": -2.3047712368,
				"y": -2.7039782924,
				"z": -2.2732815239,
				"element": "H" 
			},
			{
				"x": -1.1406351781,
				"y": 0.2370403858,
				"z": -2.2802111389,
				"element": "H" 
			},
			{
				"x": 0.5533593204,
				"y": 2.2608158053,
				"z": -2.7288191614,
				"element": "H" 
			},
			{
				"x": -0.4871910133,
				"y": 4.5709992535,
				"z": 1.5942159628,
				"element": "H" 
			},
			{
				"x": 2.5551584222,
				"y": -0.2657561787,
				"z": 1.8232764296,
				"element": "H" 
			},
			{
				"x": 1.2684840117,
				"y": 0.9393444402,
				"z": 2.0532405413,
				"element": "H" 
			},
			{
				"x": 2.5032807645,
				"y": 1.2074499859,
				"z": 0.8378956139,
				"element": "H" 
			},
			{
				"x": 1.6743655899,
				"y": -2.2442779767,
				"z": 0.9277227551,
				"element": "H" 
			},
			{
				"x": 0.3667095304,
				"y": -3.4807558993,
				"z": -0.7512502961,
				"element": "H" 
			}
		],
		 "valence_orbital": [ 
			{
				"type": "occ",
				"energy": -0.294,
				"method": "rhf"
			},
			{
				"type": "occ",
				"energy": -0.27827,
				"method": "rhf"
			},
			{
				"type": "occ",
				"energy": -0.26239,
				"method": "rhf"
			},
			{
				"type": "occ",
				"energy": -0.24721,
				"method": "rhf"
			},
			{
				"type": "occ",
				"energy": -0.22797,
				"method": "rhf"
			},
			{
				"type": "unocc",
				"energy": -0.02511,
				"method": "rhf"
			},
			{
				"type": "unocc",
				"energy": -0.01,
				"method": "rhf"
			},
			{
				"type": "unocc",
				"energy": 0.01919,
				"method": "rhf"
			},
			{
				"type": "unocc",
				"energy": 0.07645,
				"method": "rhf"
			},
			{
				"type": "unocc",
				"energy": 0.07755,
				"method": "rhf"
			}
		],
		"cosmo_sigma_profile": { 
			"-0.025": 0.0,
			"-0.024": 0.0,
			"-0.023": 0.0,
			"-0.022": 0.0,
			"-0.021": 0.0,
			"-0.02": 0.0,
			"-0.019": 0.216311506858,
			"-0.018": 0.707299953691,
			"-0.017": 1.21699502681,
			"-0.016": 0.430869946344,
			"-0.015": 0.663525497455,
			"-0.014": 0.978277996877,
			"-0.013": 0.30810901823,
			"-0.012": 0.849259809669,
			"-0.011": 1.38532804639,
			"-0.01": 2.48647872872,
			"-0.009": 1.66054961473,
			"-0.008": 2.67448069545,
			"-0.007": 3.44340676225,
			"-0.006": 7.73317086259,
			"-0.005": 12.0715151544,
			"-0.004": 18.9171682014,
			"-0.003": 16.929409733,
			"-0.002": 20.2314398124,
			"-0.001": 20.8194404141,
			"0.0": 24.1781474175,
			"0.001": 16.826304713,
			"0.002": 11.1954296737,
			"0.003": 11.571283274,
			"0.004": 13.1261166411,
			"0.005": 10.0626221817,
			"0.006": 4.70842160262,
			"0.007": 3.27643551826,
			"0.008": 4.19616957791,
			"0.009": 3.55183235806,
			"0.01": 5.37492589397,
			"0.011": 3.05993894625,
			"0.012": 2.12049028882,
			"0.013": 1.56677655597,
			"0.014": 1.59946529008,
			"0.015": 0.765637890296,
			"0.016": 0.933155505295,
			"0.017": 0.0,
			"0.018": 0.0,
			"0.019": 0.0,
			"0.02": 0.0,
			"0.021": 0.0,
			"0.022": 0.0,
			"0.023": 0.0,
			"0.024": 0.0,
			"0.025": 0.0
		}
	}
}
