{
	 "smiles": "CC(=O)NC1=CC(=C(C=CC2=CC=CC=C2)C(=C1C=CC1=CC=CC=C1)[N+]([O-])=O)[N+]([O-])=O", 
	 "Tm": 444.15, 
	 "num_atms": 51, 
	 "gaussian": { 
		 "optdone": 1, 
		 "sigma_profile": "yes", 
		 "theory": "DFT", 
		 "functional": "B3LYP", 
		 "basiset": "6-31G**", 
		 "properties": { 
			 "R2extent": 18272.1484, 
			 "electric_dipole_moment_norm": 3.23493281229, 
			 "electric_quadrupole_moment_norm": 22.3231285108, 
			 "total_energy": -1466.15333899, 
			 "HOMO_LUMO_gap": 0.11749, 
			 "cosmo_polarized_energy": -22.07, 
			 "cosmo_cavitation_energy": 57.68, 
			 "cosmo_dispersion_energy": -37.76, 
			 "cosmo_repulsion_energy": 2.81, 
			 "cosmo_total_nonelectrostatic_energy": 22.73, 
			 "SMD_solvation_energy": 15.06 
		},
		"coords": [
			{
				"x": 2.8911584666,
				"y": -1.9118607828,
				"z": 1.9580739555,
				"element": "C" 
			},
			{
				"x": 2.9656681372,
				"y": -3.0172849756,
				"z": 0.925058235,
				"element": "C" 
			},
			{
				"x": 3.4481503296,
				"y": -4.1148383039,
				"z": 1.1491138785,
				"element": "O" 
			},
			{
				"x": 2.4462079587,
				"y": -2.7404362697,
				"z": -0.3362998518,
				"element": "N" 
			},
			{
				"x": 1.9158329458,
				"y": -1.513088588,
				"z": -0.8185298376,
				"element": "C" 
			},
			{
				"x": 2.6879446223,
				"y": -0.7749465196,
				"z": -1.7071024373,
				"element": "C" 
			},
			{
				"x": 2.2478182904,
				"y": 0.4398257407,
				"z": -2.226110319,
				"element": "C" 
			},
			{
				"x": 1.0043246928,
				"y": 1.0024027881,
				"z": -1.858687976,
				"element": "C" 
			},
			{
				"x": 0.492234123,
				"y": 2.2835957871,
				"z": -2.3766039257,
				"element": "C" 
			},
			{
				"x": -0.0414003705,
				"y": 3.2495154187,
				"z": -1.6041226051,
				"element": "C" 
			},
			{
				"x": -0.5501477858,
				"y": 4.5453518935,
				"z": -2.0649204302,
				"element": "C" 
			},
			{
				"x": -1.2913667518,
				"y": 5.3335797336,
				"z": -1.1657635983,
				"element": "C" 
			},
			{
				"x": -1.813509406,
				"y": 6.5660372904,
				"z": -1.5529324966,
				"element": "C" 
			},
			{
				"x": -1.5955358758,
				"y": 7.0408836269,
				"z": -2.8470692445,
				"element": "C" 
			},
			{
				"x": -0.8485490927,
				"y": 6.2754730255,
				"z": -3.7481820707,
				"element": "C" 
			},
			{
				"x": -0.3292051956,
				"y": 5.0434414343,
				"z": -3.3632614474,
				"element": "C" 
			},
			{
				"x": 0.2491886852,
				"y": 0.2045473611,
				"z": -0.9805948694,
				"element": "C" 
			},
			{
				"x": 0.6259687452,
				"y": -1.0450814721,
				"z": -0.4431252492,
				"element": "C" 
			},
			{
				"x": -0.3193327031,
				"y": -1.7628864057,
				"z": 0.4207986775,
				"element": "C" 
			},
			{
				"x": -0.4162292263,
				"y": -3.1006566697,
				"z": 0.5897585923,
				"element": "C" 
			},
			{
				"x": -1.4091090215,
				"y": -3.7960297999,
				"z": 1.4111039491,
				"element": "C" 
			},
			{
				"x": -2.5203583356,
				"y": -3.157320904,
				"z": 1.9973825629,
				"element": "C" 
			},
			{
				"x": -3.4203617761,
				"y": -3.8754025055,
				"z": 2.7771748465,
				"element": "C" 
			},
			{
				"x": -3.2366794417,
				"y": -5.2461600483,
				"z": 2.9885291499,
				"element": "C" 
			},
			{
				"x": -2.1460032634,
				"y": -5.8956163698,
				"z": 2.408605411,
				"element": "C" 
			},
			{
				"x": -1.2450881422,
				"y": -5.1779025558,
				"z": 1.6251670286,
				"element": "C" 
			},
			{
				"x": -1.1341163811,
				"y": 0.6523971205,
				"z": -0.6777194399,
				"element": "N" 
			},
			{
				"x": -1.3331580807,
				"y": 1.1649857284,
				"z": 0.4242355804,
				"element": "O" 
			},
			{
				"x": -1.9833553314,
				"y": 0.4454989544,
				"z": -1.5319656693,
				"element": "O" 
			},
			{
				"x": 3.1859133678,
				"y": 1.1288242309,
				"z": -3.1291114322,
				"element": "N" 
			},
			{
				"x": 2.9210758748,
				"y": 2.2735678597,
				"z": -3.4957545195,
				"element": "O" 
			},
			{
				"x": 4.1986274222,
				"y": 0.5139153019,
				"z": -3.4663420432,
				"element": "O" 
			},
			{
				"x": 3.2884617471,
				"y": -0.9691473147,
				"z": 1.5702632754,
				"element": "H" 
			},
			{
				"x": 3.4681304435,
				"y": -2.226352041,
				"z": 2.8270777008,
				"element": "H" 
			},
			{
				"x": 1.8537724895,
				"y": -1.7380284933,
				"z": 2.2596511248,
				"element": "H" 
			},
			{
				"x": 2.6595354197,
				"y": -3.4632252714,
				"z": -1.0135494336,
				"element": "H" 
			},
			{
				"x": 3.6691556991,
				"y": -1.1319341433,
				"z": -1.9923255251,
				"element": "H" 
			},
			{
				"x": 0.6078526266,
				"y": 2.440342779,
				"z": -3.4414886829,
				"element": "H" 
			},
			{
				"x": -0.1094888729,
				"y": 3.0873612021,
				"z": -0.5310030163,
				"element": "H" 
			},
			{
				"x": -1.4653231832,
				"y": 4.9646040902,
				"z": -0.1582563761,
				"element": "H" 
			},
			{
				"x": -2.3882796542,
				"y": 7.1554248235,
				"z": -0.8444943762,
				"element": "H" 
			},
			{
				"x": -1.9970761876,
				"y": 8.0030764572,
				"z": -3.1511847556,
				"element": "H" 
			},
			{
				"x": -0.6640991469,
				"y": 6.6457594132,
				"z": -4.7524848448,
				"element": "H" 
			},
			{
				"x": 0.2693950966,
				"y": 4.4747852873,
				"z": -4.0679033985,
				"element": "H" 
			},
			{
				"x": -1.0339140519,
				"y": -1.1290364895,
				"z": 0.934529887,
				"element": "H" 
			},
			{
				"x": 0.2940659975,
				"y": -3.7495871626,
				"z": 0.0881506102,
				"element": "H" 
			},
			{
				"x": -2.691883364,
				"y": -2.0985152134,
				"z": 1.8306170949,
				"element": "H" 
			},
			{
				"x": -4.2732559751,
				"y": -3.3676667665,
				"z": 3.2178646553,
				"element": "H" 
			},
			{
				"x": -3.9436308453,
				"y": -5.8026851025,
				"z": 3.5967017291,
				"element": "H" 
			},
			{
				"x": -1.996977877,
				"y": -6.9597705337,
				"z": 2.5653120865,
				"element": "H" 
			},
			{
				"x": -0.3935478415,
				"y": -5.6847366456,
				"z": 1.1787198409,
				"element": "H" 
			}
		],
		 "valence_orbital": [ 
			{
				"type": "occ",
				"energy": -0.26621,
				"method": "rhf"
			},
			{
				"type": "occ",
				"energy": -0.26166,
				"method": "rhf"
			},
			{
				"type": "occ",
				"energy": -0.2573,
				"method": "rhf"
			},
			{
				"type": "occ",
				"energy": -0.23626,
				"method": "rhf"
			},
			{
				"type": "occ",
				"energy": -0.22841,
				"method": "rhf"
			},
			{
				"type": "unocc",
				"energy": -0.11092,
				"method": "rhf"
			},
			{
				"type": "unocc",
				"energy": -0.09105,
				"method": "rhf"
			},
			{
				"type": "unocc",
				"energy": -0.06653,
				"method": "rhf"
			},
			{
				"type": "unocc",
				"energy": -0.06273,
				"method": "rhf"
			},
			{
				"type": "unocc",
				"energy": -0.02879,
				"method": "rhf"
			}
		],
		"cosmo_sigma_profile": { 
			"-0.025": 0.0,
			"-0.024": 0.0,
			"-0.023": 0.0,
			"-0.022": 0.0,
			"-0.021": 0.0,
			"-0.02": 0.0,
			"-0.019": 0.0,
			"-0.018": 0.0,
			"-0.017": 0.0,
			"-0.016": 0.0,
			"-0.015": 0.503730215852,
			"-0.014": 1.26880377251,
			"-0.013": 1.08507628009,
			"-0.012": 0.89915917999,
			"-0.011": 1.18946154345,
			"-0.01": 1.16667168747,
			"-0.009": 1.87641110972,
			"-0.008": 5.08995814533,
			"-0.007": 12.1895763509,
			"-0.006": 28.6221253205,
			"-0.005": 35.4882101121,
			"-0.004": 39.3536776564,
			"-0.003": 38.5224957286,
			"-0.002": 41.8275927553,
			"-0.001": 30.2049644974,
			"0.0": 24.6275918549,
			"0.001": 24.4719437002,
			"0.002": 27.5017382249,
			"0.003": 28.1286057866,
			"0.004": 28.7130127271,
			"0.005": 26.0852427752,
			"0.006": 14.7889613957,
			"0.007": 16.0257606508,
			"0.008": 10.8129343806,
			"0.009": 6.64940316524,
			"0.01": 3.14480199614,
			"0.011": 1.52656312198,
			"0.012": 2.74551532791,
			"0.013": 5.91324964571,
			"0.014": 2.27595260146,
			"0.015": 0.205422511977,
			"0.016": 0.0,
			"0.017": 0.0,
			"0.018": 0.0,
			"0.019": 0.0,
			"0.02": 0.0,
			"0.021": 0.0,
			"0.022": 0.0,
			"0.023": 0.0,
			"0.024": 0.0,
			"0.025": 0.0
		}
	}
}
