{
	 "smiles": "CCC(C)(C)C(C)(C)C", 
	 "Tm": 263.25, 
	 "num_atms": 29, 
	 "gaussian": { 
		 "optdone": 1, 
		 "sigma_profile": "yes", 
		 "theory": "DFT", 
		 "functional": "B3LYP", 
		 "basiset": "6-31G**", 
		 "properties": { 
			 "R2extent": 1760.5473, 
			 "electric_dipole_moment_norm": 0.0850861915942, 
			 "electric_quadrupole_moment_norm": 0.447816658913, 
			 "total_energy": -355.029410625, 
			 "HOMO_LUMO_gap": 0.35905, 
			 "cosmo_polarized_energy": -0.89, 
			 "cosmo_cavitation_energy": 26.15, 
			 "cosmo_dispersion_energy": -18.92, 
			 "cosmo_repulsion_energy": 1.48, 
			 "cosmo_total_nonelectrostatic_energy": 8.71, 
			 "SMD_solvation_energy": 4.7 
		},
		"coords": [
			{
				"x": 2.5509697887,
				"y": 1.8043348719,
				"z": -0.6171503208,
				"element": "C" 
			},
			{
				"x": 2.177622947,
				"y": 0.4329656927,
				"z": -1.1980008005,
				"element": "C" 
			},
			{
				"x": 1.7028043527,
				"y": -0.7199518358,
				"z": -0.2557978791,
				"element": "C" 
			},
			{
				"x": 1.4819180403,
				"y": -1.9375852385,
				"z": -1.1888523892,
				"element": "C" 
			},
			{
				"x": 2.8587679146,
				"y": -1.0882178408,
				"z": 0.7009266149,
				"element": "C" 
			},
			{
				"x": 0.3662180681,
				"y": -0.3930886568,
				"z": 0.5511761288,
				"element": "C" 
			},
			{
				"x": 0.6263171265,
				"y": 0.4944855423,
				"z": 1.792414388,
				"element": "C" 
			},
			{
				"x": -0.2993229505,
				"y": -1.689285573,
				"z": 1.0758874602,
				"element": "C" 
			},
			{
				"x": -0.6688772267,
				"y": 0.3230656502,
				"z": -0.3452460255,
				"element": "C" 
			},
			{
				"x": 3.2657795709,
				"y": 1.7266027024,
				"z": 0.2082356521,
				"element": "H" 
			},
			{
				"x": 1.6829101562,
				"y": 2.3623483377,
				"z": -0.2560588486,
				"element": "H" 
			},
			{
				"x": 3.0223543349,
				"y": 2.4152441814,
				"z": -1.3950604531,
				"element": "H" 
			},
			{
				"x": 3.0641712411,
				"y": 0.0474055981,
				"z": -1.7190051368,
				"element": "H" 
			},
			{
				"x": 1.425491027,
				"y": 0.5791507028,
				"z": -1.9825404354,
				"element": "H" 
			},
			{
				"x": 0.6278830831,
				"y": -1.7955437236,
				"z": -1.8594868541,
				"element": "H" 
			},
			{
				"x": 1.3192055406,
				"y": -2.8617179358,
				"z": -0.6282141422,
				"element": "H" 
			},
			{
				"x": 2.3654872738,
				"y": -2.0921009055,
				"z": -1.8176527381,
				"element": "H" 
			},
			{
				"x": 2.5858825049,
				"y": -1.9107105052,
				"z": 1.3701279976,
				"element": "H" 
			},
			{
				"x": 3.7309452152,
				"y": -1.4160905851,
				"z": 0.1238614516,
				"element": "H" 
			},
			{
				"x": 3.1760328998,
				"y": -0.2481572413,
				"z": 1.3237804062,
				"element": "H" 
			},
			{
				"x": 1.1467917847,
				"y": 1.4232625381,
				"z": 1.5532397476,
				"element": "H" 
			},
			{
				"x": -0.3296881521,
				"y": 0.7648122872,
				"z": 2.2552691933,
				"element": "H" 
			},
			{
				"x": 1.2131659535,
				"y": -0.0321811533,
				"z": 2.5508564707,
				"element": "H" 
			},
			{
				"x": -1.1362577504,
				"y": -1.4321793046,
				"z": 1.7346865375,
				"element": "H" 
			},
			{
				"x": 0.3945002901,
				"y": -2.3039230433,
				"z": 1.6588839383,
				"element": "H" 
			},
			{
				"x": -0.7006044876,
				"y": -2.3073242945,
				"z": 0.2680794612,
				"element": "H" 
			},
			{
				"x": -0.346001456,
				"y": 1.3278288449,
				"z": -0.6323895859,
				"element": "H" 
			},
			{
				"x": -1.6178913517,
				"y": 0.4282152095,
				"z": 0.192455717,
				"element": "H" 
			},
			{
				"x": -0.8768757388,
				"y": -0.2376643221,
				"z": -1.2624255556,
				"element": "H" 
			}
		],
		 "valence_orbital": [ 
			{
				"type": "occ",
				"energy": -0.32994,
				"method": "rhf"
			},
			{
				"type": "occ",
				"energy": -0.3274,
				"method": "rhf"
			},
			{
				"type": "occ",
				"energy": -0.29707,
				"method": "rhf"
			},
			{
				"type": "occ",
				"energy": -0.29387,
				"method": "rhf"
			},
			{
				"type": "occ",
				"energy": -0.28733,
				"method": "rhf"
			},
			{
				"type": "unocc",
				"energy": 0.07172,
				"method": "rhf"
			},
			{
				"type": "unocc",
				"energy": 0.11383,
				"method": "rhf"
			},
			{
				"type": "unocc",
				"energy": 0.11731,
				"method": "rhf"
			},
			{
				"type": "unocc",
				"energy": 0.12356,
				"method": "rhf"
			},
			{
				"type": "unocc",
				"energy": 0.12782,
				"method": "rhf"
			}
		],
		"cosmo_sigma_profile": { 
			"-0.025": 0.0,
			"-0.024": 0.0,
			"-0.023": 0.0,
			"-0.022": 0.0,
			"-0.021": 0.0,
			"-0.02": 0.0,
			"-0.019": 0.0,
			"-0.018": 0.0,
			"-0.017": 0.0,
			"-0.016": 0.0,
			"-0.015": 0.0,
			"-0.014": 0.0,
			"-0.013": 0.0,
			"-0.012": 0.0,
			"-0.011": 0.0,
			"-0.01": 0.0,
			"-0.009": 0.0,
			"-0.008": 0.0,
			"-0.007": 0.0,
			"-0.006": 0.0,
			"-0.005": 0.0,
			"-0.004": 0.0,
			"-0.003": 6.39079568667,
			"-0.002": 31.3182012944,
			"-0.001": 43.9972662168,
			"0.0": 40.2450820988,
			"0.001": 35.1310217862,
			"0.002": 37.3224171569,
			"0.003": 4.96951828429,
			"0.004": 0.0,
			"0.005": 0.0,
			"0.006": 0.0,
			"0.007": 0.0,
			"0.008": 0.0,
			"0.009": 0.0,
			"0.01": 0.0,
			"0.011": 0.0,
			"0.012": 0.0,
			"0.013": 0.0,
			"0.014": 0.0,
			"0.015": 0.0,
			"0.016": 0.0,
			"0.017": 0.0,
			"0.018": 0.0,
			"0.019": 0.0,
			"0.02": 0.0,
			"0.021": 0.0,
			"0.022": 0.0,
			"0.023": 0.0,
			"0.024": 0.0,
			"0.025": 0.0
		}
	}
}
