{
	 "smiles": "CN1C=C(C(=O)NC2=C(C=C(F)C=C2)C2=CC(Cl)=C(Cl)C=C2)C(=N1)C(F)F", 
	 "Tm": 420.15, 
	 "num_atms": 39, 
	 "gaussian": { 
		 "optdone": 1, 
		 "sigma_profile": "yes", 
		 "theory": "DFT", 
		 "functional": "B3LYP", 
		 "basiset": "6-31G**", 
		 "properties": { 
			 "R2extent": 14998.7025, 
			 "electric_dipole_moment_norm": 6.05914958224, 
			 "electric_quadrupole_moment_norm": 29.0014356041, 
			 "total_energy": -2152.51039575, 
			 "HOMO_LUMO_gap": 0.17711, 
			 "cosmo_polarized_energy": -20.81, 
			 "cosmo_cavitation_energy": 49.84, 
			 "cosmo_dispersion_energy": -32.96, 
			 "cosmo_repulsion_energy": 2.47, 
			 "cosmo_total_nonelectrostatic_energy": 19.35, 
			 "SMD_solvation_energy": 9.18 
		},
		"coords": [
			{
				"x": -3.6549974314,
				"y": -0.1296203657,
				"z": 3.2004616847,
				"element": "C" 
			},
			{
				"x": -3.5275339573,
				"y": -0.7594951853,
				"z": 1.8971116725,
				"element": "N" 
			},
			{
				"x": -2.5509738157,
				"y": -0.58681485,
				"z": 0.9777441827,
				"element": "C" 
			},
			{
				"x": -2.8802537932,
				"y": -1.3815719282,
				"z": -0.11412547,
				"element": "C" 
			},
			{
				"x": -2.259214151,
				"y": -1.4968974041,
				"z": -1.4504487784,
				"element": "C" 
			},
			{
				"x": -2.9235127674,
				"y": -1.8184219486,
				"z": -2.4317397894,
				"element": "O" 
			},
			{
				"x": -0.9245883942,
				"y": -1.1585317708,
				"z": -1.6118031417,
				"element": "N" 
			},
			{
				"x": 0.1345406701,
				"y": -1.1393534573,
				"z": -0.6692008075,
				"element": "C" 
			},
			{
				"x": 1.1438162896,
				"y": -0.1520998473,
				"z": -0.7640884691,
				"element": "C" 
			},
			{
				"x": 2.2196589032,
				"y": -0.2028681625,
				"z": 0.1370816488,
				"element": "C" 
			},
			{
				"x": 2.2704298613,
				"y": -1.1893599553,
				"z": 1.1105608374,
				"element": "C" 
			},
			{
				"x": 3.303429664,
				"y": -1.1989856174,
				"z": 1.9765640001,
				"element": "F" 
			},
			{
				"x": 1.2866826982,
				"y": -2.1655767307,
				"z": 1.2146965851,
				"element": "C" 
			},
			{
				"x": 0.2333157894,
				"y": -2.1436047952,
				"z": 0.3056557832,
				"element": "C" 
			},
			{
				"x": 1.1287894579,
				"y": 0.9221426472,
				"z": -1.7965572724,
				"element": "C" 
			},
			{
				"x": -0.0087679106,
				"y": 1.7119909901,
				"z": -2.0175384646,
				"element": "C" 
			},
			{
				"x": 0.0050950688,
				"y": 2.7481983264,
				"z": -2.9510347243,
				"element": "C" 
			},
			{
				"x": -1.4418866174,
				"y": 3.7025083089,
				"z": -3.1599564373,
				"element": "Cl" 
			},
			{
				"x": 1.1664937076,
				"y": 3.0107021036,
				"z": -3.6915549631,
				"element": "C" 
			},
			{
				"x": 1.2291783677,
				"y": 4.2916879704,
				"z": -4.8731652868,
				"element": "Cl" 
			},
			{
				"x": 2.3022488454,
				"y": 2.2264178756,
				"z": -3.4813902091,
				"element": "C" 
			},
			{
				"x": 2.284196764,
				"y": 1.1969583538,
				"z": -2.5457236892,
				"element": "C" 
			},
			{
				"x": -4.1049960163,
				"y": -1.9969007422,
				"z": 0.2700076361,
				"element": "C" 
			},
			{
				"x": -4.483151433,
				"y": -1.6231175747,
				"z": 1.4861519154,
				"element": "N" 
			},
			{
				"x": -4.8999289185,
				"y": -2.9984181815,
				"z": -0.5202287084,
				"element": "C" 
			},
			{
				"x": -6.0753268829,
				"y": -3.2703204524,
				"z": 0.110015215,
				"element": "F" 
			},
			{
				"x": -4.1844837713,
				"y": -4.1686170287,
				"z": -0.6021652063,
				"element": "F" 
			},
			{
				"x": -4.5595154771,
				"y": 0.4826171733,
				"z": 3.2324233572,
				"element": "H" 
			},
			{
				"x": -3.716042512,
				"y": -0.8962476318,
				"z": 3.9760455797,
				"element": "H" 
			},
			{
				"x": -2.7814429331,
				"y": 0.4995474197,
				"z": 3.3766115644,
				"element": "H" 
			},
			{
				"x": -1.7161925771,
				"y": 0.0737896804,
				"z": 1.1559677025,
				"element": "H" 
			},
			{
				"x": -0.6702842558,
				"y": -1.1134698624,
				"z": -2.5921722384,
				"element": "H" 
			},
			{
				"x": 3.0031520923,
				"y": 0.5458581936,
				"z": 0.1017244034,
				"element": "H" 
			},
			{
				"x": 1.3647632194,
				"y": -2.9363285029,
				"z": 1.9733593295,
				"element": "H" 
			},
			{
				"x": -0.5218787247,
				"y": -2.9206034658,
				"z": 0.3387614801,
				"element": "H" 
			},
			{
				"x": -0.9169561455,
				"y": 1.5343124949,
				"z": -1.4550769376,
				"element": "H" 
			},
			{
				"x": 3.195627137,
				"y": 2.4279154179,
				"z": -4.0619303109,
				"element": "H" 
			},
			{
				"x": 3.1727161639,
				"y": 0.5895975224,
				"z": -2.4061238372,
				"element": "H" 
			},
			{
				"x": -5.1016062144,
				"y": -2.6593190175,
				"z": -1.538619836,
				"element": "H" 
			}
		],
		 "valence_orbital": [ 
			{
				"type": "occ",
				"energy": -0.27201,
				"method": "rhf"
			},
			{
				"type": "occ",
				"energy": -0.27128,
				"method": "rhf"
			},
			{
				"type": "occ",
				"energy": -0.26066,
				"method": "rhf"
			},
			{
				"type": "occ",
				"energy": -0.25666,
				"method": "rhf"
			},
			{
				"type": "occ",
				"energy": -0.23605,
				"method": "rhf"
			},
			{
				"type": "unocc",
				"energy": -0.05894,
				"method": "rhf"
			},
			{
				"type": "unocc",
				"energy": -0.04167,
				"method": "rhf"
			},
			{
				"type": "unocc",
				"energy": -0.03506,
				"method": "rhf"
			},
			{
				"type": "unocc",
				"energy": -0.01613,
				"method": "rhf"
			},
			{
				"type": "unocc",
				"energy": -0.00894,
				"method": "rhf"
			}
		],
		"cosmo_sigma_profile": { 
			"-0.025": 0.0,
			"-0.024": 0.0,
			"-0.023": 0.0,
			"-0.022": 0.0,
			"-0.021": 0.0,
			"-0.02": 0.0,
			"-0.019": 0.0,
			"-0.018": 0.0,
			"-0.017": 0.0,
			"-0.016": 0.0,
			"-0.015": 0.0,
			"-0.014": 0.425371515785,
			"-0.013": 0.546027844777,
			"-0.012": 1.19197690494,
			"-0.011": 1.22504173287,
			"-0.01": 2.89161234508,
			"-0.009": 3.54047759967,
			"-0.008": 6.70916581513,
			"-0.007": 19.4605111435,
			"-0.006": 23.7093084787,
			"-0.005": 21.7509610091,
			"-0.004": 23.9804886415,
			"-0.003": 22.372439412,
			"-0.002": 19.3787769098,
			"-0.001": 22.5203435641,
			"0.0": 38.0156143873,
			"0.001": 39.9843560505,
			"0.002": 34.8091068523,
			"0.003": 27.4668385623,
			"0.004": 41.5463571337,
			"0.005": 23.8655035707,
			"0.006": 4.53006919455,
			"0.007": 3.97212420993,
			"0.008": 2.92660302522,
			"0.009": 2.59809567319,
			"0.01": 2.83906494774,
			"0.011": 3.41501388788,
			"0.012": 3.77665072142,
			"0.013": 3.86334134457,
			"0.014": 1.32834376333,
			"0.015": 0.132747294325,
			"0.016": 0.0,
			"0.017": 0.0,
			"0.018": 0.0,
			"0.019": 0.0,
			"0.02": 0.0,
			"0.021": 0.0,
			"0.022": 0.0,
			"0.023": 0.0,
			"0.024": 0.0,
			"0.025": 0.0
		}
	}
}
