{
	 "smiles": "CCC1CC(C)(C)C2=C1C(=C(C)C(N)=C2)[N+]([O-])=O", 
	 "Tm": 445.15, 
	 "num_atms": 38, 
	 "gaussian": { 
		 "optdone": 1, 
		 "sigma_profile": "yes", 
		 "theory": "DFT", 
		 "functional": "B3LYP", 
		 "basiset": "6-31G**", 
		 "properties": { 
			 "R2extent": 4803.5892, 
			 "electric_dipole_moment_norm": 4.75542741192, 
			 "electric_quadrupole_moment_norm": 21.4178568036, 
			 "total_energy": -805.423699965, 
			 "HOMO_LUMO_gap": 0.13713, 
			 "cosmo_polarized_energy": -11.89, 
			 "cosmo_cavitation_energy": 37.75, 
			 "cosmo_dispersion_energy": -25.91, 
			 "cosmo_repulsion_energy": 1.99, 
			 "cosmo_total_nonelectrostatic_energy": 13.84, 
			 "SMD_solvation_energy": 8.15 
		},
		"coords": [
			{
				"x": -1.692105004,
				"y": -0.5609961686,
				"z": 2.0928040079,
				"element": "C" 
			},
			{
				"x": -1.5428802529,
				"y": 0.7250388741,
				"z": 1.269540594,
				"element": "C" 
			},
			{
				"x": -0.759741205,
				"y": 0.588966826,
				"z": -0.0589725677,
				"element": "C" 
			},
			{
				"x": -1.542517755,
				"y": -0.2123551073,
				"z": -1.1355093346,
				"element": "C" 
			},
			{
				"x": -0.5027907595,
				"y": -0.9293085179,
				"z": -2.04153706,
				"element": "C" 
			},
			{
				"x": -0.1360146113,
				"y": -0.0499795323,
				"z": -3.2596638377,
				"element": "C" 
			},
			{
				"x": -1.0071918579,
				"y": -2.2979730451,
				"z": -2.5263714616,
				"element": "C" 
			},
			{
				"x": 0.699448222,
				"y": -1.025152044,
				"z": -1.1069925277,
				"element": "C" 
			},
			{
				"x": 0.5758409461,
				"y": -0.1465378074,
				"z": -0.0247591019,
				"element": "C" 
			},
			{
				"x": 1.6478946752,
				"y": -0.0678213,
				"z": 0.8669644252,
				"element": "C" 
			},
			{
				"x": 2.8116354715,
				"y": -0.8448409928,
				"z": 0.7547975889,
				"element": "C" 
			},
			{
				"x": 3.9778607171,
				"y": -0.7736492322,
				"z": 1.7105893158,
				"element": "C" 
			},
			{
				"x": 2.8946978678,
				"y": -1.7230290023,
				"z": -0.3534132769,
				"element": "C" 
			},
			{
				"x": 4.0063708052,
				"y": -2.5544985176,
				"z": -0.4975160966,
				"element": "N" 
			},
			{
				"x": 1.8403875845,
				"y": -1.7980845688,
				"z": -1.277658576,
				"element": "C" 
			},
			{
				"x": 1.5440252135,
				"y": 0.9022360115,
				"z": 1.972186457,
				"element": "N" 
			},
			{
				"x": 1.3114157046,
				"y": 2.0716407262,
				"z": 1.6673899094,
				"element": "O" 
			},
			{
				"x": 1.6801961662,
				"y": 0.4939847642,
				"z": 3.1262113287,
				"element": "O" 
			},
			{
				"x": -0.7243938214,
				"y": -0.9283091547,
				"z": 2.4466902003,
				"element": "H" 
			},
			{
				"x": -2.3141352612,
				"y": -0.3755441093,
				"z": 2.9742827286,
				"element": "H" 
			},
			{
				"x": -2.1663488319,
				"y": -1.3670067959,
				"z": 1.5225582153,
				"element": "H" 
			},
			{
				"x": -1.074963824,
				"y": 1.4962087329,
				"z": 1.8886920913,
				"element": "H" 
			},
			{
				"x": -2.5383219483,
				"y": 1.1123175285,
				"z": 1.0147471515,
				"element": "H" 
			},
			{
				"x": -0.5778676507,
				"y": 1.609063442,
				"z": -0.4241948993,
				"element": "H" 
			},
			{
				"x": -2.1617316818,
				"y": -0.9684461471,
				"z": -0.6395977805,
				"element": "H" 
			},
			{
				"x": -2.2191187261,
				"y": 0.428892221,
				"z": -1.7100502418,
				"element": "H" 
			},
			{
				"x": -1.0002854798,
				"y": 0.065164144,
				"z": -3.9237522203,
				"element": "H" 
			},
			{
				"x": 0.1887687334,
				"y": 0.947971887,
				"z": -2.9481048612,
				"element": "H" 
			},
			{
				"x": 0.6778572693,
				"y": -0.4992479834,
				"z": -3.8389689692,
				"element": "H" 
			},
			{
				"x": -0.2689530633,
				"y": -2.7979191963,
				"z": -3.1635622386,
				"element": "H" 
			},
			{
				"x": -1.9227229151,
				"y": -2.1818420365,
				"z": -3.117238402,
				"element": "H" 
			},
			{
				"x": -1.2287995991,
				"y": -2.9599591733,
				"z": -1.6831305913,
				"element": "H" 
			},
			{
				"x": 3.8041710331,
				"y": -0.090391412,
				"z": 2.538496108,
				"element": "H" 
			},
			{
				"x": 4.8912828933,
				"y": -0.4497524477,
				"z": 1.1920899222,
				"element": "H" 
			},
			{
				"x": 4.1802784362,
				"y": -1.7628597449,
				"z": 2.1384821445,
				"element": "H" 
			},
			{
				"x": 4.132164726,
				"y": -2.9381640501,
				"z": -1.4237257974,
				"element": "H" 
			},
			{
				"x": 4.8727928384,
				"y": -2.2116754226,
				"z": -0.1085044165,
				"element": "H" 
			},
			{
				"x": 1.9292949452,
				"y": -2.4721416473,
				"z": -2.1267979297,
				"element": "H" 
			}
		],
		 "valence_orbital": [ 
			{
				"type": "occ",
				"energy": -0.30015,
				"method": "rhf"
			},
			{
				"type": "occ",
				"energy": -0.29296,
				"method": "rhf"
			},
			{
				"type": "occ",
				"energy": -0.28452,
				"method": "rhf"
			},
			{
				"type": "occ",
				"energy": -0.24655,
				"method": "rhf"
			},
			{
				"type": "occ",
				"energy": -0.2085,
				"method": "rhf"
			},
			{
				"type": "unocc",
				"energy": -0.07137,
				"method": "rhf"
			},
			{
				"type": "unocc",
				"energy": -0.00523,
				"method": "rhf"
			},
			{
				"type": "unocc",
				"energy": 0.00671,
				"method": "rhf"
			},
			{
				"type": "unocc",
				"energy": 0.06934,
				"method": "rhf"
			},
			{
				"type": "unocc",
				"energy": 0.07974,
				"method": "rhf"
			}
		],
		"cosmo_sigma_profile": { 
			"-0.025": 0.0,
			"-0.024": 0.0,
			"-0.023": 0.0,
			"-0.022": 0.0,
			"-0.021": 0.0,
			"-0.02": 0.0,
			"-0.019": 0.0,
			"-0.018": 0.0,
			"-0.017": 0.0,
			"-0.016": 0.0,
			"-0.015": 0.0,
			"-0.014": 0.0,
			"-0.013": 0.517655687752,
			"-0.012": 2.30319194755,
			"-0.011": 2.45195319554,
			"-0.01": 3.79388617154,
			"-0.009": 2.84689492591,
			"-0.008": 2.77664842898,
			"-0.007": 3.79562843958,
			"-0.006": 4.37656209946,
			"-0.005": 5.86676535849,
			"-0.004": 9.23571514089,
			"-0.003": 26.2554973369,
			"-0.002": 37.9664127534,
			"-0.001": 38.4587496692,
			"0.0": 36.5437589334,
			"0.001": 34.8820394756,
			"0.002": 17.6303816534,
			"0.003": 11.5705768423,
			"0.004": 12.714691773,
			"0.005": 7.95589000753,
			"0.006": 4.81112549927,
			"0.007": 7.98086676887,
			"0.008": 8.7908189927,
			"0.009": 5.32935929276,
			"0.01": 3.08055071216,
			"0.011": 0.772314165443,
			"0.012": 0.604910563472,
			"0.013": 0.447570981991,
			"0.014": 0.346105114829,
			"0.015": 0.0,
			"0.016": 0.0,
			"0.017": 0.0,
			"0.018": 0.0,
			"0.019": 0.0,
			"0.02": 0.0,
			"0.021": 0.0,
			"0.022": 0.0,
			"0.023": 0.0,
			"0.024": 0.0,
			"0.025": 0.0
		}
	}
}
