{
	 "smiles": "O=C(NC1CCNCC1)NC1=CC=CC=C1", 
	 "Tm": 443.15, 
	 "num_atms": 33, 
	 "gaussian": { 
		 "optdone": 1, 
		 "sigma_profile": "yes", 
		 "theory": "DFT", 
		 "functional": "B3LYP", 
		 "basiset": "6-31G**", 
		 "properties": { 
			 "R2extent": 4433.4017, 
			 "electric_dipole_moment_norm": 1.89188210256, 
			 "electric_quadrupole_moment_norm": 17.0999535181, 
			 "total_energy": -707.004149276, 
			 "HOMO_LUMO_gap": 0.20931, 
			 "cosmo_polarized_energy": -14.57, 
			 "cosmo_cavitation_energy": 33.87, 
			 "cosmo_dispersion_energy": -24.0, 
			 "cosmo_repulsion_energy": 1.89, 
			 "cosmo_total_nonelectrostatic_energy": 11.76, 
			 "SMD_solvation_energy": 2.77 
		},
		"coords": [
			{
				"x": -2.6873456396,
				"y": -2.378048551,
				"z": -2.0695598204,
				"element": "O" 
			},
			{
				"x": -1.7664591262,
				"y": -1.8005908148,
				"z": -1.505797188,
				"element": "C" 
			},
			{
				"x": -1.8663131878,
				"y": -0.470343924,
				"z": -1.1012214468,
				"element": "N" 
			},
			{
				"x": -0.9029375665,
				"y": 0.5988360164,
				"z": -1.4747707979,
				"element": "C" 
			},
			{
				"x": 0.3558421931,
				"y": 0.7097371395,
				"z": -0.6091108606,
				"element": "C" 
			},
			{
				"x": 1.0631114862,
				"y": 2.063329973,
				"z": -0.9064500515,
				"element": "C" 
			},
			{
				"x": 0.8731569673,
				"y": 2.5690213661,
				"z": -2.2767531526,
				"element": "N" 
			},
			{
				"x": 0.7164884006,
				"y": 1.4821802307,
				"z": -3.2437128484,
				"element": "C" 
			},
			{
				"x": -0.5089519423,
				"y": 0.5644039959,
				"z": -2.9707434081,
				"element": "C" 
			},
			{
				"x": -0.5591883854,
				"y": -2.4622688053,
				"z": -1.2548494102,
				"element": "N" 
			},
			{
				"x": 0.158683378,
				"y": -2.5213861931,
				"z": -0.0278426212,
				"element": "C" 
			},
			{
				"x": 1.4280006242,
				"y": -3.1174812321,
				"z": -0.045305683,
				"element": "C" 
			},
			{
				"x": 2.1596580612,
				"y": -3.2536995905,
				"z": 1.1332130137,
				"element": "C" 
			},
			{
				"x": 1.6435483173,
				"y": -2.7846630169,
				"z": 2.3425830835,
				"element": "C" 
			},
			{
				"x": 0.3810126852,
				"y": -2.1889495989,
				"z": 2.3589728145,
				"element": "C" 
			},
			{
				"x": -0.367475317,
				"y": -2.0644102753,
				"z": 1.1885188908,
				"element": "C" 
			},
			{
				"x": -2.8160927814,
				"y": -0.1869618418,
				"z": -1.3161214215,
				"element": "H" 
			},
			{
				"x": -1.4773689371,
				"y": 1.5168504571,
				"z": -1.2963151286,
				"element": "H" 
			},
			{
				"x": 0.1040201993,
				"y": 0.6387792143,
				"z": 0.4523369022,
				"element": "H" 
			},
			{
				"x": 1.0313480408,
				"y": -0.1224996434,
				"z": -0.8277495754,
				"element": "H" 
			},
			{
				"x": 0.7041317523,
				"y": 2.8346218662,
				"z": -0.2159199833,
				"element": "H" 
			},
			{
				"x": 2.1383942598,
				"y": 1.9509738039,
				"z": -0.7158910976,
				"element": "H" 
			},
			{
				"x": 0.0523347654,
				"y": 3.1674000035,
				"z": -2.3102025848,
				"element": "H" 
			},
			{
				"x": 0.6596152304,
				"y": 1.9084653291,
				"z": -4.2506668332,
				"element": "H" 
			},
			{
				"x": 1.6373473402,
				"y": 0.8869602297,
				"z": -3.2132630112,
				"element": "H" 
			},
			{
				"x": -1.3698095893,
				"y": 0.8682359461,
				"z": -3.578886463,
				"element": "H" 
			},
			{
				"x": -0.2669091125,
				"y": -0.4656214507,
				"z": -3.2562485029,
				"element": "H" 
			},
			{
				"x": -0.5641662312,
				"y": -3.3424576881,
				"z": -1.7570407182,
				"element": "H" 
			},
			{
				"x": 1.8366629059,
				"y": -3.4683892147,
				"z": -0.9892245651,
				"element": "H" 
			},
			{
				"x": 3.1397124311,
				"y": -3.7211942593,
				"z": 1.1018357082,
				"element": "H" 
			},
			{
				"x": 2.2160141567,
				"y": -2.8841015225,
				"z": 3.259631432,
				"element": "H" 
			},
			{
				"x": -0.0375552288,
				"y": -1.8291439625,
				"z": 3.2948113944,
				"element": "H" 
			},
			{
				"x": -1.3498101499,
				"y": -1.6074839867,
				"z": 1.2111439342,
				"element": "H" 
			}
		],
		 "valence_orbital": [ 
			{
				"type": "occ",
				"energy": -0.27329,
				"method": "rhf"
			},
			{
				"type": "occ",
				"energy": -0.25459,
				"method": "rhf"
			},
			{
				"type": "occ",
				"energy": -0.24238,
				"method": "rhf"
			},
			{
				"type": "occ",
				"energy": -0.22131,
				"method": "rhf"
			},
			{
				"type": "occ",
				"energy": -0.21751,
				"method": "rhf"
			},
			{
				"type": "unocc",
				"energy": -0.0082,
				"method": "rhf"
			},
			{
				"type": "unocc",
				"energy": -0.00627,
				"method": "rhf"
			},
			{
				"type": "unocc",
				"energy": 0.03611,
				"method": "rhf"
			},
			{
				"type": "unocc",
				"energy": 0.06337,
				"method": "rhf"
			},
			{
				"type": "unocc",
				"energy": 0.08742,
				"method": "rhf"
			}
		],
		"cosmo_sigma_profile": { 
			"-0.025": 0.0,
			"-0.024": 0.0,
			"-0.023": 0.0,
			"-0.022": 0.0,
			"-0.021": 0.0,
			"-0.02": 0.0,
			"-0.019": 0.0,
			"-0.018": 0.0,
			"-0.017": 0.0,
			"-0.016": 0.0,
			"-0.015": 0.0,
			"-0.014": 0.230406844045,
			"-0.013": 0.882798556596,
			"-0.012": 1.9612875662,
			"-0.011": 1.84111108835,
			"-0.01": 3.02683391612,
			"-0.009": 3.3253453444,
			"-0.008": 4.12929606089,
			"-0.007": 3.9182197372,
			"-0.006": 9.89794162563,
			"-0.005": 14.1830979075,
			"-0.004": 17.3960680774,
			"-0.003": 27.4032723609,
			"-0.002": 29.6847940596,
			"-0.001": 25.1947338641,
			"0.0": 22.8473806163,
			"0.001": 14.9374700825,
			"0.002": 12.8397538984,
			"0.003": 13.8200627982,
			"0.004": 11.8673168597,
			"0.005": 11.3333705107,
			"0.006": 7.81667027795,
			"0.007": 3.03950398542,
			"0.008": 1.6651840262,
			"0.009": 1.49986273212,
			"0.01": 1.8802491068,
			"0.011": 2.26486197179,
			"0.012": 2.58502529108,
			"0.013": 6.19128900154,
			"0.014": 4.72662575446,
			"0.015": 0.507634882132,
			"0.016": 0.749912855647,
			"0.017": 0.401613187191,
			"0.018": 0.54212251193,
			"0.019": 0.307213651135,
			"0.02": 0.0,
			"0.021": 0.0,
			"0.022": 0.0,
			"0.023": 0.0,
			"0.024": 0.0,
			"0.025": 0.0
		}
	}
}
