{
	 "smiles": "ClC1=C2C=CNC2=NC=C1", 
	 "Tm": 451.15, 
	 "num_atms": 15, 
	 "gaussian": { 
		 "optdone": 1, 
		 "sigma_profile": "yes", 
		 "theory": "DFT", 
		 "functional": "B3LYP", 
		 "basiset": "6-31G**", 
		 "properties": { 
			 "R2extent": 1646.6232, 
			 "electric_dipole_moment_norm": 2.24795295769, 
			 "electric_quadrupole_moment_norm": 10.7506974574, 
			 "total_energy": -839.456211087, 
			 "HOMO_LUMO_gap": 0.18761, 
			 "cosmo_polarized_energy": -8.48, 
			 "cosmo_cavitation_energy": 20.98, 
			 "cosmo_dispersion_energy": -16.13, 
			 "cosmo_repulsion_energy": 1.29, 
			 "cosmo_total_nonelectrostatic_energy": 6.14, 
			 "SMD_solvation_energy": 1.77 
		},
		"coords": [
			{
				"x": 0.0519658561,
				"y": 2.8507937044,
				"z": -0.1707376829,
				"element": "Cl" 
			},
			{
				"x": 0.1815265517,
				"y": 1.1406688396,
				"z": 0.1853713424,
				"element": "C" 
			},
			{
				"x": 0.7842634933,
				"y": 0.2704903339,
				"z": -0.7290806562,
				"element": "C" 
			},
			{
				"x": 1.4003385093,
				"y": 0.3582388364,
				"z": -2.0183627525,
				"element": "C" 
			},
			{
				"x": 1.7904170031,
				"y": -0.9134284814,
				"z": -2.3530079152,
				"element": "C" 
			},
			{
				"x": 1.4512899408,
				"y": -1.7925558197,
				"z": -1.3417681466,
				"element": "N" 
			},
			{
				"x": 0.831682857,
				"y": -1.0986905491,
				"z": -0.3289452822,
				"element": "C" 
			},
			{
				"x": 0.3725454273,
				"y": -1.6310143276,
				"z": 0.8013745109,
				"element": "N" 
			},
			{
				"x": -0.191483559,
				"y": -0.7519909303,
				"z": 1.6335846549,
				"element": "C" 
			},
			{
				"x": -0.3118778502,
				"y": 0.6273809693,
				"z": 1.3787348099,
				"element": "C" 
			},
			{
				"x": 1.5349436597,
				"y": 1.2472339788,
				"z": -2.6157448233,
				"element": "H" 
			},
			{
				"x": 2.2895579285,
				"y": -1.2689458088,
				"z": -3.2427491557,
				"element": "H" 
			},
			{
				"x": 1.6189425422,
				"y": -2.786077066,
				"z": -1.3234524788,
				"element": "H" 
			},
			{
				"x": -0.5780268039,
				"y": -1.1526377542,
				"z": 2.567914821,
				"element": "H" 
			},
			{
				"x": -0.7838855557,
				"y": 1.2772340748,
				"z": 2.1062687541,
				"element": "H" 
			}
		],
		 "valence_orbital": [ 
			{
				"type": "occ",
				"energy": -0.31491,
				"method": "rhf"
			},
			{
				"type": "occ",
				"energy": -0.2873,
				"method": "rhf"
			},
			{
				"type": "occ",
				"energy": -0.26872,
				"method": "rhf"
			},
			{
				"type": "occ",
				"energy": -0.2425,
				"method": "rhf"
			},
			{
				"type": "occ",
				"energy": -0.22251,
				"method": "rhf"
			},
			{
				"type": "unocc",
				"energy": -0.0349,
				"method": "rhf"
			},
			{
				"type": "unocc",
				"energy": 0.01024,
				"method": "rhf"
			},
			{
				"type": "unocc",
				"energy": 0.03273,
				"method": "rhf"
			},
			{
				"type": "unocc",
				"energy": 0.05456,
				"method": "rhf"
			},
			{
				"type": "unocc",
				"energy": 0.08002,
				"method": "rhf"
			}
		],
		"cosmo_sigma_profile": { 
			"-0.025": 0.0,
			"-0.024": 0.0,
			"-0.023": 0.0,
			"-0.022": 0.0,
			"-0.021": 0.0,
			"-0.02": 0.0,
			"-0.019": 0.0,
			"-0.018": 0.0,
			"-0.017": 0.14811878315,
			"-0.016": 1.30227043432,
			"-0.015": 1.54290182089,
			"-0.014": 0.791358061509,
			"-0.013": 1.06855338519,
			"-0.012": 0.776778715709,
			"-0.011": 0.905781819806,
			"-0.01": 0.979455326283,
			"-0.009": 3.46871612643,
			"-0.008": 2.76503376958,
			"-0.007": 5.34533019032,
			"-0.006": 8.31365196263,
			"-0.005": 6.52516496014,
			"-0.004": 7.09153091815,
			"-0.003": 6.45277476738,
			"-0.002": 7.86451624994,
			"-0.001": 8.10576123269,
			"0.0": 8.8436809991,
			"0.001": 18.5919559064,
			"0.002": 25.3564834081,
			"0.003": 20.9985138664,
			"0.004": 15.7348137692,
			"0.005": 7.03549997606,
			"0.006": 1.90361442776,
			"0.007": 2.15795268241,
			"0.008": 0.870351361023,
			"0.009": 0.686911400616,
			"0.01": 1.07797159396,
			"0.011": 0.959821370614,
			"0.012": 1.20212982753,
			"0.013": 0.827120956836,
			"0.014": 0.724114437223,
			"0.015": 0.977976851398,
			"0.016": 0.119478716342,
			"0.017": 0.0,
			"0.018": 0.0,
			"0.019": 0.0,
			"0.02": 0.0,
			"0.021": 0.0,
			"0.022": 0.0,
			"0.023": 0.0,
			"0.024": 0.0,
			"0.025": 0.0
		}
	}
}
