{
	 "smiles": "OC(=O)C1(CC2=NC3=C(N2)C=CC=C3)CCCC1", 
	 "Tm": 529.15, 
	 "num_atms": 34, 
	 "gaussian": { 
		 "optdone": 1, 
		 "sigma_profile": "yes", 
		 "theory": "DFT", 
		 "functional": "B3LYP", 
		 "basiset": "6-31G**", 
		 "properties": { 
			 "R2extent": 5279.1912, 
			 "electric_dipole_moment_norm": 2.74885415583, 
			 "electric_quadrupole_moment_norm": 11.9788345915, 
			 "total_energy": -803.12391671, 
			 "HOMO_LUMO_gap": 0.20356, 
			 "cosmo_polarized_energy": -15.98, 
			 "cosmo_cavitation_energy": 35.52, 
			 "cosmo_dispersion_energy": -25.71, 
			 "cosmo_repulsion_energy": 1.98, 
			 "cosmo_total_nonelectrostatic_energy": 11.79, 
			 "SMD_solvation_energy": 3.89 
		},
		"coords": [
			{
				"x": -1.7100072075,
				"y": 1.3121827254,
				"z": -1.4497917325,
				"element": "O" 
			},
			{
				"x": -1.0321103931,
				"y": 0.6258789807,
				"z": -2.4218756986,
				"element": "C" 
			},
			{
				"x": -1.4141003176,
				"y": 0.6639894351,
				"z": -3.5701102034,
				"element": "O" 
			},
			{
				"x": 0.1645734019,
				"y": -0.1609499644,
				"z": -1.8934243666,
				"element": "C" 
			},
			{
				"x": 1.0366192158,
				"y": 0.6961959492,
				"z": -0.9191720833,
				"element": "C" 
			},
			{
				"x": 0.7194277342,
				"y": 0.6131641048,
				"z": 0.5457704935,
				"element": "C" 
			},
			{
				"x": 1.5236721946,
				"y": 0.0680259111,
				"z": 1.4327126639,
				"element": "N" 
			},
			{
				"x": 0.8724391802,
				"y": 0.2134529833,
				"z": 2.6502684644,
				"element": "C" 
			},
			{
				"x": -0.3693071778,
				"y": 0.8712509203,
				"z": 2.4676039712,
				"element": "C" 
			},
			{
				"x": -0.4306147893,
				"y": 1.1227245797,
				"z": 1.1092633965,
				"element": "N" 
			},
			{
				"x": -1.2373119189,
				"y": 1.1434555433,
				"z": 3.5271350727,
				"element": "C" 
			},
			{
				"x": -0.8264983662,
				"y": 0.7368373706,
				"z": 4.7947130114,
				"element": "C" 
			},
			{
				"x": 0.4065091764,
				"y": 0.0838832054,
				"z": 4.9955893532,
				"element": "C" 
			},
			{
				"x": 1.2660300155,
				"y": -0.1839142035,
				"z": 3.9344908166,
				"element": "C" 
			},
			{
				"x": 0.9798476276,
				"y": -0.6849438579,
				"z": -3.1056081915,
				"element": "C" 
			},
			{
				"x": 0.2461669213,
				"y": -1.9515483261,
				"z": -3.6136555831,
				"element": "C" 
			},
			{
				"x": -0.70778003,
				"y": -2.3857683464,
				"z": -2.4639103408,
				"element": "C" 
			},
			{
				"x": -0.3490013645,
				"y": -1.4896726658,
				"z": -1.2639253097,
				"element": "C" 
			},
			{
				"x": -2.4502206906,
				"y": 1.7461766955,
				"z": -1.9074423844,
				"element": "H" 
			},
			{
				"x": 2.0672020845,
				"y": 0.3444500839,
				"z": -0.9996200183,
				"element": "H" 
			},
			{
				"x": 1.0341088952,
				"y": 1.7441087767,
				"z": -1.2436311674,
				"element": "H" 
			},
			{
				"x": -1.1986073585,
				"y": 1.4999369118,
				"z": 0.5740677467,
				"element": "H" 
			},
			{
				"x": -2.1871211469,
				"y": 1.6482696278,
				"z": 3.3769060277,
				"element": "H" 
			},
			{
				"x": -1.4708913388,
				"y": 0.9286597299,
				"z": 5.6477359399,
				"element": "H" 
			},
			{
				"x": 0.6876179587,
				"y": -0.2144858318,
				"z": 6.0013484481,
				"element": "H" 
			},
			{
				"x": 2.2163774593,
				"y": -0.6865861468,
				"z": 4.0832927979,
				"element": "H" 
			},
			{
				"x": 1.097400517,
				"y": 0.0737509188,
				"z": -3.8831126805,
				"element": "H" 
			},
			{
				"x": 1.979379997,
				"y": -0.9486339075,
				"z": -2.7447188363,
				"element": "H" 
			},
			{
				"x": 0.9641670188,
				"y": -2.7388451853,
				"z": -3.8624282355,
				"element": "H" 
			},
			{
				"x": -0.3212773481,
				"y": -1.731413747,
				"z": -4.520260475,
				"element": "H" 
			},
			{
				"x": -0.613341416,
				"y": -3.4465997769,
				"z": -2.2144951722,
				"element": "H" 
			},
			{
				"x": -1.7495613942,
				"y": -2.2221936639,
				"z": -2.7587710919,
				"element": "H" 
			},
			{
				"x": -1.1790710195,
				"y": -1.338179389,
				"z": -0.5680570424,
				"element": "H" 
			},
			{
				"x": 0.4788838793,
				"y": -1.9165594411,
				"z": -0.6866875901,
				"element": "H" 
			}
		],
		 "valence_orbital": [ 
			{
				"type": "occ",
				"energy": -0.29606,
				"method": "rhf"
			},
			{
				"type": "occ",
				"energy": -0.2861,
				"method": "rhf"
			},
			{
				"type": "occ",
				"energy": -0.26332,
				"method": "rhf"
			},
			{
				"type": "occ",
				"energy": -0.22022,
				"method": "rhf"
			},
			{
				"type": "occ",
				"energy": -0.21568,
				"method": "rhf"
			},
			{
				"type": "unocc",
				"energy": -0.01212,
				"method": "rhf"
			},
			{
				"type": "unocc",
				"energy": -0.00611,
				"method": "rhf"
			},
			{
				"type": "unocc",
				"energy": 0.0284,
				"method": "rhf"
			},
			{
				"type": "unocc",
				"energy": 0.05202,
				"method": "rhf"
			},
			{
				"type": "unocc",
				"energy": 0.05878,
				"method": "rhf"
			}
		],
		"cosmo_sigma_profile": { 
			"-0.025": 0.0,
			"-0.024": 0.0,
			"-0.023": 0.0,
			"-0.022": 0.0,
			"-0.021": 0.0,
			"-0.02": 0.0,
			"-0.019": 0.139019706394,
			"-0.018": 0.679448738305,
			"-0.017": 1.07785472517,
			"-0.016": 0.782159470516,
			"-0.015": 1.11287733719,
			"-0.014": 0.482538608969,
			"-0.013": 0.60712468528,
			"-0.012": 1.31956658306,
			"-0.011": 1.45967168741,
			"-0.01": 1.65089371187,
			"-0.009": 1.81300667916,
			"-0.008": 1.9449753658,
			"-0.007": 4.05189626544,
			"-0.006": 8.36410464569,
			"-0.005": 13.9681767821,
			"-0.004": 17.6674166372,
			"-0.003": 28.664407347,
			"-0.002": 30.080132694,
			"-0.001": 29.461829883,
			"0.0": 24.2602825984,
			"0.001": 20.7251897543,
			"0.002": 12.7955881823,
			"0.003": 11.5113727055,
			"0.004": 13.3239979852,
			"0.005": 11.8151084775,
			"0.006": 12.212477774,
			"0.007": 5.84352636543,
			"0.008": 3.40751183439,
			"0.009": 3.12182685139,
			"0.01": 2.73501833761,
			"0.011": 4.89114817764,
			"0.012": 2.88483567837,
			"0.013": 0.805008039482,
			"0.014": 0.994254795746,
			"0.015": 0.85538625816,
			"0.016": 0.828575043898,
			"0.017": 0.702972157507,
			"0.018": 0.61015402371,
			"0.019": 0.0473592779304,
			"0.02": 0.0,
			"0.021": 0.0,
			"0.022": 0.0,
			"0.023": 0.0,
			"0.024": 0.0,
			"0.025": 0.0
		}
	}
}
