{
	 "smiles": "OC(=O)CC1=CC(=O)N(N1)C1=NC=CC=C1", 
	 "Tm": 372.15, 
	 "num_atms": 25, 
	 "gaussian": { 
		 "optdone": 1, 
		 "sigma_profile": "yes", 
		 "theory": "DFT", 
		 "functional": "B3LYP", 
		 "basiset": "6-31G**", 
		 "properties": { 
			 "R2extent": 4487.4521, 
			 "electric_dipole_moment_norm": 6.64634166064, 
			 "electric_quadrupole_moment_norm": 21.2976566319, 
			 "total_energy": -776.394726194, 
			 "HOMO_LUMO_gap": 0.18101, 
			 "cosmo_polarized_energy": -25.34, 
			 "cosmo_cavitation_energy": 30.63, 
			 "cosmo_dispersion_energy": -22.26, 
			 "cosmo_repulsion_energy": 1.75, 
			 "cosmo_total_nonelectrostatic_energy": 10.12, 
			 "SMD_solvation_energy": 6.07 
		},
		"coords": [
			{
				"x": -3.2295896674,
				"y": -2.9367239821,
				"z": -0.3517595973,
				"element": "O" 
			},
			{
				"x": -2.3446998764,
				"y": -1.9376714225,
				"z": -0.1845477692,
				"element": "C" 
			},
			{
				"x": -2.0011771636,
				"y": -1.5374181369,
				"z": 0.9097615749,
				"element": "O" 
			},
			{
				"x": -1.890213139,
				"y": -1.3674331105,
				"z": -1.5186341337,
				"element": "C" 
			},
			{
				"x": -0.5628702815,
				"y": -0.6752386009,
				"z": -1.461064252,
				"element": "C" 
			},
			{
				"x": 0.5238104109,
				"y": -0.8216441003,
				"z": -2.2521317523,
				"element": "C" 
			},
			{
				"x": 1.5838096008,
				"y": 0.0657735941,
				"z": -1.765809744,
				"element": "C" 
			},
			{
				"x": 2.6851383069,
				"y": 0.3065116543,
				"z": -2.2200981103,
				"element": "O" 
			},
			{
				"x": 1.0073608384,
				"y": 0.6646505644,
				"z": -0.5974364219,
				"element": "N" 
			},
			{
				"x": -0.3509513697,
				"y": 0.3088858694,
				"z": -0.499700467,
				"element": "N" 
			},
			{
				"x": 1.4426445787,
				"y": 1.8299108313,
				"z": 0.0665772795,
				"element": "C" 
			},
			{
				"x": 2.7575469879,
				"y": 1.9233484313,
				"z": 0.2737815092,
				"element": "N" 
			},
			{
				"x": 3.2055165636,
				"y": 3.0147189198,
				"z": 0.901723876,
				"element": "C" 
			},
			{
				"x": 2.3810092675,
				"y": 4.032111515,
				"z": 1.3812069933,
				"element": "C" 
			},
			{
				"x": 1.0063238854,
				"y": 3.9084693541,
				"z": 1.1722858822,
				"element": "C" 
			},
			{
				"x": 0.5167832569,
				"y": 2.7967952605,
				"z": 0.4954827555,
				"element": "C" 
			},
			{
				"x": -3.5036870893,
				"y": -3.2223130215,
				"z": 0.5369721387,
				"element": "H" 
			},
			{
				"x": -1.8712503516,
				"y": -2.1629744301,
				"z": -2.2659058558,
				"element": "H" 
			},
			{
				"x": -2.6734819756,
				"y": -0.6608854527,
				"z": -1.8296958125,
				"element": "H" 
			},
			{
				"x": 0.626619534,
				"y": -1.4460367038,
				"z": -3.1267439484,
				"element": "H" 
			},
			{
				"x": -0.6265909259,
				"y": 0.023028801,
				"z": 0.4419549429,
				"element": "H" 
			},
			{
				"x": 4.2838963859,
				"y": 3.067236408,
				"z": 1.0413454099,
				"element": "H" 
			},
			{
				"x": 2.8018588416,
				"y": 4.8865358527,
				"z": 1.9006492074,
				"element": "H" 
			},
			{
				"x": 0.3208228199,
				"y": 4.6761962422,
				"z": 1.519939435,
				"element": "H" 
			},
			{
				"x": -0.5391294384,
				"y": 2.6788656632,
				"z": 0.28404686,
				"element": "H" 
			}
		],
		 "valence_orbital": [ 
			{
				"type": "occ",
				"energy": -0.28136,
				"method": "rhf"
			},
			{
				"type": "occ",
				"energy": -0.26339,
				"method": "rhf"
			},
			{
				"type": "occ",
				"energy": -0.24726,
				"method": "rhf"
			},
			{
				"type": "occ",
				"energy": -0.2298,
				"method": "rhf"
			},
			{
				"type": "occ",
				"energy": -0.2103,
				"method": "rhf"
			},
			{
				"type": "unocc",
				"energy": -0.02929,
				"method": "rhf"
			},
			{
				"type": "unocc",
				"energy": -0.02157,
				"method": "rhf"
			},
			{
				"type": "unocc",
				"energy": -0.01792,
				"method": "rhf"
			},
			{
				"type": "unocc",
				"energy": 0.0064,
				"method": "rhf"
			},
			{
				"type": "unocc",
				"energy": 0.05494,
				"method": "rhf"
			}
		],
		"cosmo_sigma_profile": { 
			"-0.025": 0.0,
			"-0.024": 0.0,
			"-0.023": 0.0,
			"-0.022": 0.0,
			"-0.021": 0.0,
			"-0.02": 0.0,
			"-0.019": 0.554733008881,
			"-0.018": 0.905885141157,
			"-0.017": 1.30804834025,
			"-0.016": 0.723658959878,
			"-0.015": 0.658368220628,
			"-0.014": 0.582185246076,
			"-0.013": 0.495655938872,
			"-0.012": 1.28712864822,
			"-0.011": 1.9553563428,
			"-0.01": 1.94005250884,
			"-0.009": 4.60600630989,
			"-0.008": 6.55887591482,
			"-0.007": 14.4272086198,
			"-0.006": 16.478198522,
			"-0.005": 16.9378990893,
			"-0.004": 15.2762196132,
			"-0.003": 12.626906288,
			"-0.002": 12.062774482,
			"-0.001": 13.2109779267,
			"0.0": 12.9273493037,
			"0.001": 17.8463709331,
			"0.002": 19.7221743538,
			"0.003": 14.9586135412,
			"0.004": 5.9379326264,
			"0.005": 5.51205530062,
			"0.006": 5.05764817762,
			"0.007": 4.09762746358,
			"0.008": 5.08446431588,
			"0.009": 4.75121117268,
			"0.01": 3.12696051927,
			"0.011": 4.60876925366,
			"0.012": 2.48619289326,
			"0.013": 3.78891197275,
			"0.014": 5.92182166088,
			"0.015": 2.67167467297,
			"0.016": 1.43679347776,
			"0.017": 1.39617689291,
			"0.018": 1.01376841852,
			"0.019": 0.536234934884,
			"0.02": 0.00875740901345,
			"0.021": 0.0,
			"0.022": 0.0,
			"0.023": 0.0,
			"0.024": 0.0,
			"0.025": 0.0
		}
	}
}
