{
	 "smiles": "NCC(O)COC1=CC(F)=CC=C1", 
	 "Tm": 358.15, 
	 "num_atms": 25, 
	 "gaussian": { 
		 "optdone": 1, 
		 "sigma_profile": "yes", 
		 "theory": "DFT", 
		 "functional": "B3LYP", 
		 "basiset": "6-31G**", 
		 "properties": { 
			 "R2extent": 5251.4127, 
			 "electric_dipole_moment_norm": 1.96797262684, 
			 "electric_quadrupole_moment_norm": 6.74970626176, 
			 "total_energy": -655.204453625, 
			 "HOMO_LUMO_gap": 0.22313, 
			 "cosmo_polarized_energy": -11.41, 
			 "cosmo_cavitation_energy": 29.06, 
			 "cosmo_dispersion_energy": -21.09, 
			 "cosmo_repulsion_energy": 1.68, 
			 "cosmo_total_nonelectrostatic_energy": 9.64, 
			 "SMD_solvation_energy": 4.04 
		},
		"coords": [
			{
				"x": -0.2218251292,
				"y": -0.1430299445,
				"z": -4.4199244707,
				"element": "N" 
			},
			{
				"x": 0.7418257643,
				"y": -0.6699392825,
				"z": -3.4579503684,
				"element": "C" 
			},
			{
				"x": 0.4695952826,
				"y": -0.2907763578,
				"z": -1.9962776274,
				"element": "C" 
			},
			{
				"x": 0.4352517766,
				"y": 1.1285917069,
				"z": -1.9346272766,
				"element": "O" 
			},
			{
				"x": 1.5335673885,
				"y": -0.8341429725,
				"z": -1.0496484794,
				"element": "C" 
			},
			{
				"x": 1.1845430895,
				"y": -0.3673842693,
				"z": 0.2564676155,
				"element": "O" 
			},
			{
				"x": 2.0068310231,
				"y": -0.6522351367,
				"z": 1.3092466907,
				"element": "C" 
			},
			{
				"x": 3.1771593052,
				"y": -1.4107724638,
				"z": 1.200492278,
				"element": "C" 
			},
			{
				"x": 3.9259331539,
				"y": -1.6321586906,
				"z": 2.3541668216,
				"element": "C" 
			},
			{
				"x": 5.0538846454,
				"y": -2.3651232774,
				"z": 2.2412526114,
				"element": "F" 
			},
			{
				"x": 3.5642635839,
				"y": -1.1371026475,
				"z": 3.5981728149,
				"element": "C" 
			},
			{
				"x": 2.3891613562,
				"y": -0.3826725516,
				"z": 3.6801825784,
				"element": "C" 
			},
			{
				"x": 1.6118583606,
				"y": -0.1373926901,
				"z": 2.5536092077,
				"element": "C" 
			},
			{
				"x": -1.1451911564,
				"y": -0.5252118124,
				"z": -4.2244180257,
				"element": "H" 
			},
			{
				"x": -0.2983706791,
				"y": 0.8612832476,
				"z": -4.2730617183,
				"element": "H" 
			},
			{
				"x": 1.7356146137,
				"y": -0.2932261012,
				"z": -3.7310861735,
				"element": "H" 
			},
			{
				"x": 0.7738995508,
				"y": -1.7626264046,
				"z": -3.548200797,
				"element": "H" 
			},
			{
				"x": -0.5049728721,
				"y": -0.7111710832,
				"z": -1.690615739,
				"element": "H" 
			},
			{
				"x": 0.3658914803,
				"y": 1.3654076028,
				"z": -0.9993609923,
				"element": "H" 
			},
			{
				"x": 2.5221458693,
				"y": -0.4494539717,
				"z": -1.3341585299,
				"element": "H" 
			},
			{
				"x": 1.5571479491,
				"y": -1.9323424187,
				"z": -1.0689319599,
				"element": "H" 
			},
			{
				"x": 3.5213255871,
				"y": -1.8301752798,
				"z": 0.2643506758,
				"element": "H" 
			},
			{
				"x": 4.1839344666,
				"y": -1.3395235134,
				"z": 4.4638314049,
				"element": "H" 
			},
			{
				"x": 2.0782711495,
				"y": 0.0185767348,
				"z": 4.6400319995,
				"element": "H" 
			},
			{
				"x": 0.6990544405,
				"y": 0.4454015773,
				"z": 2.6107574597,
				"element": "H" 
			}
		],
		 "valence_orbital": [ 
			{
				"type": "occ",
				"energy": -0.3245,
				"method": "rhf"
			},
			{
				"type": "occ",
				"energy": -0.27692,
				"method": "rhf"
			},
			{
				"type": "occ",
				"energy": -0.2551,
				"method": "rhf"
			},
			{
				"type": "occ",
				"energy": -0.23518,
				"method": "rhf"
			},
			{
				"type": "occ",
				"energy": -0.23026,
				"method": "rhf"
			},
			{
				"type": "unocc",
				"energy": -0.00713,
				"method": "rhf"
			},
			{
				"type": "unocc",
				"energy": 0.00376,
				"method": "rhf"
			},
			{
				"type": "unocc",
				"energy": 0.07362,
				"method": "rhf"
			},
			{
				"type": "unocc",
				"energy": 0.08204,
				"method": "rhf"
			},
			{
				"type": "unocc",
				"energy": 0.09698,
				"method": "rhf"
			}
		],
		"cosmo_sigma_profile": { 
			"-0.025": 0.0,
			"-0.024": 0.0,
			"-0.023": 0.0,
			"-0.022": 0.0,
			"-0.021": 0.0,
			"-0.02": 0.0,
			"-0.019": 0.0,
			"-0.018": 0.0,
			"-0.017": 0.0,
			"-0.016": 0.0,
			"-0.015": 0.0,
			"-0.014": 0.0192441015128,
			"-0.013": 0.277349234605,
			"-0.012": 0.866943514174,
			"-0.011": 0.642247790865,
			"-0.01": 0.721601843764,
			"-0.009": 2.21290578975,
			"-0.008": 3.18374499017,
			"-0.007": 7.05862383435,
			"-0.006": 15.3019401847,
			"-0.005": 19.0426683257,
			"-0.004": 22.7073727609,
			"-0.003": 14.6499691536,
			"-0.002": 12.253395904,
			"-0.001": 13.5101745705,
			"0.0": 11.8443081389,
			"0.001": 14.4028245703,
			"0.002": 16.5751933954,
			"0.003": 17.2914150487,
			"0.004": 21.2598070959,
			"0.005": 13.062672534,
			"0.006": 2.61228548376,
			"0.007": 2.42729621022,
			"0.008": 2.5962081611,
			"0.009": 1.89287707495,
			"0.01": 2.22549889017,
			"0.011": 2.39616038945,
			"0.012": 1.6431994491,
			"0.013": 1.38600964592,
			"0.014": 1.02398610125,
			"0.015": 0.577565389673,
			"0.016": 0.322632952259,
			"0.017": 0.904091980368,
			"0.018": 0.901106982643,
			"0.019": 0.491051899055,
			"0.02": 0.292367315233,
			"0.021": 0.0,
			"0.022": 0.0,
			"0.023": 0.0,
			"0.024": 0.0,
			"0.025": 0.0
		}
	}
}
