{
	 "smiles": "ClC1=CC=C2SC(Br)=C(C=O)C2=C1", 
	 "Tm": 413.15, 
	 "num_atms": 17, 
	 "gaussian": { 
		 "optdone": 1, 
		 "sigma_profile": "yes", 
		 "theory": "DFT", 
		 "functional": "B3LYP", 
		 "basiset": "6-31G**", 
		 "properties": { 
			 "R2extent": 5707.9632, 
			 "electric_dipole_moment_norm": 3.62006072463, 
			 "electric_quadrupole_moment_norm": 13.145524365, 
			 "total_energy": -3850.36112483, 
			 "HOMO_LUMO_gap": 0.1647, 
			 "cosmo_polarized_energy": -7.2, 
			 "cosmo_cavitation_energy": 27.55, 
			 "cosmo_dispersion_energy": -21.35, 
			 "cosmo_repulsion_energy": 1.62, 
			 "cosmo_total_nonelectrostatic_energy": 7.82, 
			 "SMD_solvation_energy": 3.76 
		},
		"coords": [
			{
				"x": -0.4100592446,
				"y": -1.2853525093,
				"z": -5.7416322311,
				"element": "Cl" 
			},
			{
				"x": -0.6617117412,
				"y": -1.316412402,
				"z": -4.0032014928,
				"element": "C" 
			},
			{
				"x": -1.9183590373,
				"y": -1.7104400402,
				"z": -3.514860546,
				"element": "C" 
			},
			{
				"x": -2.1466532567,
				"y": -1.7446568534,
				"z": -2.1444502231,
				"element": "C" 
			},
			{
				"x": -1.1057667609,
				"y": -1.3815171865,
				"z": -1.2868533372,
				"element": "C" 
			},
			{
				"x": -1.157933692,
				"y": -1.347362466,
				"z": 0.4726339275,
				"element": "S" 
			},
			{
				"x": 0.4967571301,
				"y": -0.8083023814,
				"z": 0.5267850829,
				"element": "C" 
			},
			{
				"x": 1.2765643062,
				"y": -0.5064671735,
				"z": 2.2152529872,
				"element": "Br" 
			},
			{
				"x": 1.0863838749,
				"y": -0.652430629,
				"z": -0.7037359901,
				"element": "C" 
			},
			{
				"x": 2.4751458459,
				"y": -0.2068598269,
				"z": -0.8963415745,
				"element": "C" 
			},
			{
				"x": 3.0043621716,
				"y": -0.0666696874,
				"z": -1.9860889153,
				"element": "O" 
			},
			{
				"x": 0.1600977581,
				"y": -0.9844688375,
				"z": -1.7750034914,
				"element": "C" 
			},
			{
				"x": 0.3813956286,
				"y": -0.9530317876,
				"z": -3.1636198296,
				"element": "C" 
			},
			{
				"x": -2.7032738813,
				"y": -1.9857368791,
				"z": -4.2099348675,
				"element": "H" 
			},
			{
				"x": -3.1144216556,
				"y": -2.0478329426,
				"z": -1.7583032647,
				"element": "H" 
			},
			{
				"x": 3.0317409285,
				"y": 0.0011923809,
				"z": 0.0373701449,
				"element": "H" 
			},
			{
				"x": 1.3458316258,
				"y": -0.6509507785,
				"z": -3.5492163791,
				"element": "H" 
			}
		],
		 "valence_orbital": [ 
			{
				"type": "occ",
				"energy": -0.31046,
				"method": "rhf"
			},
			{
				"type": "occ",
				"energy": -0.30438,
				"method": "rhf"
			},
			{
				"type": "occ",
				"energy": -0.26512,
				"method": "rhf"
			},
			{
				"type": "occ",
				"energy": -0.24929,
				"method": "rhf"
			},
			{
				"type": "occ",
				"energy": -0.24525,
				"method": "rhf"
			},
			{
				"type": "unocc",
				"energy": -0.08055,
				"method": "rhf"
			},
			{
				"type": "unocc",
				"energy": -0.03359,
				"method": "rhf"
			},
			{
				"type": "unocc",
				"energy": -0.02748,
				"method": "rhf"
			},
			{
				"type": "unocc",
				"energy": -0.02571,
				"method": "rhf"
			},
			{
				"type": "unocc",
				"energy": -0.01041,
				"method": "rhf"
			}
		],
		"cosmo_sigma_profile": { 
			"-0.025": 0.0,
			"-0.024": 0.0,
			"-0.023": 0.0,
			"-0.022": 0.0,
			"-0.021": 0.0,
			"-0.02": 0.0,
			"-0.019": 0.0,
			"-0.018": 0.0,
			"-0.017": 0.0,
			"-0.016": 0.0,
			"-0.015": 0.0,
			"-0.014": 0.0,
			"-0.013": 0.0,
			"-0.012": 0.0,
			"-0.011": 0.0,
			"-0.01": 0.0804119053018,
			"-0.009": 1.63576890645,
			"-0.008": 3.8143066788,
			"-0.007": 5.87976925307,
			"-0.006": 8.80402138451,
			"-0.005": 8.43068295964,
			"-0.004": 11.9178242864,
			"-0.003": 13.604331715,
			"-0.002": 19.7642423929,
			"-0.001": 26.0638902345,
			"0.0": 25.905865613,
			"0.001": 30.4395627716,
			"0.002": 31.8876231709,
			"0.003": 11.2716738859,
			"0.004": 11.7527377818,
			"0.005": 6.31727330038,
			"0.006": 1.05880452739,
			"0.007": 1.85528792092,
			"0.008": 2.03759119516,
			"0.009": 2.06144720747,
			"0.01": 2.13804013905,
			"0.011": 2.54786119205,
			"0.012": 1.5109869181,
			"0.013": 0.295536663615,
			"0.014": 0.0,
			"0.015": 0.0,
			"0.016": 0.0,
			"0.017": 0.0,
			"0.018": 0.0,
			"0.019": 0.0,
			"0.02": 0.0,
			"0.021": 0.0,
			"0.022": 0.0,
			"0.023": 0.0,
			"0.024": 0.0,
			"0.025": 0.0
		}
	}
}
