{
	 "smiles": "NC(=S)NC1=CC(F)=CC=C1", 
	 "Tm": 388.15, 
	 "num_atms": 18, 
	 "gaussian": { 
		 "optdone": 1, 
		 "sigma_profile": "yes", 
		 "theory": "DFT", 
		 "functional": "B3LYP", 
		 "basiset": "6-31G**", 
		 "properties": { 
			 "R2extent": 3291.2567, 
			 "electric_dipole_moment_norm": 4.58535150779, 
			 "electric_quadrupole_moment_norm": 11.6888745639, 
			 "total_energy": -878.50503402, 
			 "HOMO_LUMO_gap": 0.17116, 
			 "cosmo_polarized_energy": -16.48, 
			 "cosmo_cavitation_energy": 24.51, 
			 "cosmo_dispersion_energy": -18.49, 
			 "cosmo_repulsion_energy": 1.43, 
			 "cosmo_total_nonelectrostatic_energy": 7.45, 
			 "SMD_solvation_energy": 3.87 
		},
		"coords": [
			{
				"x": 1.6549139034,
				"y": 0.5002877215,
				"z": 2.8451935873,
				"element": "N" 
			},
			{
				"x": 0.441984657,
				"y": 0.7611009492,
				"z": 2.2883150307,
				"element": "C" 
			},
			{
				"x": -0.8136633672,
				"y": 1.4643518157,
				"z": 3.1531877727,
				"element": "S" 
			},
			{
				"x": 0.2751650348,
				"y": 0.4294701199,
				"z": 0.9671536263,
				"element": "N" 
			},
			{
				"x": 1.1900026193,
				"y": -0.0808135247,
				"z": 0.021149736,
				"element": "C" 
			},
			{
				"x": 2.5370878405,
				"y": 0.313480344,
				"z": -0.0072484204,
				"element": "C" 
			},
			{
				"x": 3.3636221981,
				"y": -0.2158682175,
				"z": -0.9919889324,
				"element": "C" 
			},
			{
				"x": 4.6560243827,
				"y": 0.1659736432,
				"z": -1.0072647449,
				"element": "F" 
			},
			{
				"x": 2.91069579,
				"y": -1.0986367634,
				"z": -1.9644744646,
				"element": "C" 
			},
			{
				"x": 1.5622763019,
				"y": -1.4599112523,
				"z": -1.9381150504,
				"element": "C" 
			},
			{
				"x": 0.7069475528,
				"y": -0.9675927325,
				"z": -0.9555361274,
				"element": "C" 
			},
			{
				"x": 1.7038867734,
				"y": 0.6256608968,
				"z": 3.8444877364,
				"element": "H" 
			},
			{
				"x": 2.2771059232,
				"y": -0.1779172595,
				"z": 2.4270007193,
				"element": "H" 
			},
			{
				"x": -0.6816157477,
				"y": 0.5427071155,
				"z": 0.6614286063,
				"element": "H" 
			},
			{
				"x": 2.9344923946,
				"y": 1.0454843588,
				"z": 0.6846021516,
				"element": "H" 
			},
			{
				"x": 3.5966188393,
				"y": -1.4782925643,
				"z": -2.7127732585,
				"element": "H" 
			},
			{
				"x": 1.1768976545,
				"y": -2.1449724885,
				"z": -2.6869132125,
				"element": "H" 
			},
			{
				"x": -0.3348427508,
				"y": -1.2724121617,
				"z": -0.9314047555,
				"element": "H" 
			}
		],
		 "valence_orbital": [ 
			{
				"type": "occ",
				"energy": -0.31436,
				"method": "rhf"
			},
			{
				"type": "occ",
				"energy": -0.26875,
				"method": "rhf"
			},
			{
				"type": "occ",
				"energy": -0.25353,
				"method": "rhf"
			},
			{
				"type": "occ",
				"energy": -0.21604,
				"method": "rhf"
			},
			{
				"type": "occ",
				"energy": -0.21052,
				"method": "rhf"
			},
			{
				"type": "unocc",
				"energy": -0.03936,
				"method": "rhf"
			},
			{
				"type": "unocc",
				"energy": -0.02253,
				"method": "rhf"
			},
			{
				"type": "unocc",
				"energy": 0.01273,
				"method": "rhf"
			},
			{
				"type": "unocc",
				"energy": 0.06348,
				"method": "rhf"
			},
			{
				"type": "unocc",
				"energy": 0.07702,
				"method": "rhf"
			}
		],
		"cosmo_sigma_profile": { 
			"-0.025": 0.0,
			"-0.024": 0.0,
			"-0.023": 0.0,
			"-0.022": 0.0,
			"-0.021": 0.0,
			"-0.02": 0.0,
			"-0.019": 0.0,
			"-0.018": 0.0,
			"-0.017": 0.0,
			"-0.016": 0.0,
			"-0.015": 0.814041520827,
			"-0.014": 2.56046674996,
			"-0.013": 3.68275501729,
			"-0.012": 2.82577239402,
			"-0.011": 3.58965227593,
			"-0.01": 3.4841186906,
			"-0.009": 2.45958050252,
			"-0.008": 4.03115530705,
			"-0.007": 8.97705038341,
			"-0.006": 8.8101203668,
			"-0.005": 10.5889793603,
			"-0.004": 8.85785984302,
			"-0.003": 7.29425503035,
			"-0.002": 8.98917075007,
			"-0.001": 7.3727020375,
			"0.0": 14.5101683675,
			"0.001": 14.925863414,
			"0.002": 13.0996809488,
			"0.003": 14.6230227765,
			"0.004": 17.8928471804,
			"0.005": 6.15072758638,
			"0.006": 3.62633595941,
			"0.007": 2.94790419967,
			"0.008": 3.65289610945,
			"0.009": 4.82578104426,
			"0.01": 4.66976476663,
			"0.011": 8.31755736987,
			"0.012": 5.07596310916,
			"0.013": 0.294134962382,
			"0.014": 0.0,
			"0.015": 0.0,
			"0.016": 0.0,
			"0.017": 0.0,
			"0.018": 0.0,
			"0.019": 0.0,
			"0.02": 0.0,
			"0.021": 0.0,
			"0.022": 0.0,
			"0.023": 0.0,
			"0.024": 0.0,
			"0.025": 0.0
		}
	}
}
