{
	 "smiles": "NS(=O)(=O)C1=CC=C(C=CC(O)=O)C=C1", 
	 "Tm": 548.15, 
	 "num_atms": 24, 
	 "gaussian": { 
		 "optdone": 1, 
		 "sigma_profile": "yes", 
		 "theory": "DFT", 
		 "functional": "B3LYP", 
		 "basiset": "6-31G**", 
		 "properties": { 
			 "R2extent": 6103.4692, 
			 "electric_dipole_moment_norm": 6.34686801974, 
			 "electric_quadrupole_moment_norm": 31.5944981571, 
			 "total_energy": -1102.14201973, 
			 "HOMO_LUMO_gap": 0.16565, 
			 "cosmo_polarized_energy": -23.19, 
			 "cosmo_cavitation_energy": 30.72, 
			 "cosmo_dispersion_energy": -22.97, 
			 "cosmo_repulsion_energy": 1.74, 
			 "cosmo_total_nonelectrostatic_energy": 9.49, 
			 "SMD_solvation_energy": 6.19 
		},
		"coords": [
			{
				"x": 3.1876856797,
				"y": 2.3846535994,
				"z": 2.8234666961,
				"element": "N" 
			},
			{
				"x": 2.0522521246,
				"y": 3.3416130634,
				"z": 2.0360343144,
				"element": "S" 
			},
			{
				"x": 1.592912438,
				"y": 4.3084666551,
				"z": 3.0313031566,
				"element": "O" 
			},
			{
				"x": 2.672755213,
				"y": 3.7286107513,
				"z": 0.7711666768,
				"element": "O" 
			},
			{
				"x": 0.658634014,
				"y": 2.2694999757,
				"z": 1.6479102221,
				"element": "C" 
			},
			{
				"x": -0.4111169153,
				"y": 2.1860234126,
				"z": 2.5412314385,
				"element": "C" 
			},
			{
				"x": -1.468547756,
				"y": 1.3344842365,
				"z": 2.2430334284,
				"element": "C" 
			},
			{
				"x": -1.4825490452,
				"y": 0.5559647611,
				"z": 1.0648949734,
				"element": "C" 
			},
			{
				"x": -2.658106134,
				"y": -0.3008962072,
				"z": 0.8743706064,
				"element": "C" 
			},
			{
				"x": -3.0641226377,
				"y": -1.2024225672,
				"z": -0.0504900651,
				"element": "C" 
			},
			{
				"x": -2.4163535706,
				"y": -1.6844969118,
				"z": -1.2847604613,
				"element": "C" 
			},
			{
				"x": -3.2098800585,
				"y": -2.6077962296,
				"z": -1.8872379729,
				"element": "O" 
			},
			{
				"x": -1.3424739123,
				"y": -1.367247843,
				"z": -1.7670951496,
				"element": "O" 
			},
			{
				"x": -0.3942901013,
				"y": 0.6722991661,
				"z": 0.1750023286,
				"element": "C" 
			},
			{
				"x": 0.6655585208,
				"y": 1.526577185,
				"z": 0.4645541031,
				"element": "C" 
			},
			{
				"x": 2.8635264401,
				"y": 2.0392569907,
				"z": 3.7210677717,
				"element": "H" 
			},
			{
				"x": 3.577117725,
				"y": 1.6593075079,
				"z": 2.2298560887,
				"element": "H" 
			},
			{
				"x": -0.417327439,
				"y": 2.7968660501,
				"z": 3.4373948509,
				"element": "H" 
			},
			{
				"x": -2.307257614,
				"y": 1.2719307769,
				"z": 2.9311390372,
				"element": "H" 
			},
			{
				"x": -3.3772629991,
				"y": -0.1766427319,
				"z": 1.6836665202,
				"element": "H" 
			},
			{
				"x": -4.0272865011,
				"y": -1.67127327,
				"z": 0.1251314967,
				"element": "H" 
			},
			{
				"x": -2.7353549395,
				"y": -2.8853222169,
				"z": -2.6882401664,
				"element": "H" 
			},
			{
				"x": -0.3935856953,
				"y": 0.0931327774,
				"z": -0.7388024212,
				"element": "H" 
			},
			{
				"x": 1.4877731635,
				"y": 1.6358110682,
				"z": -0.234997473,
				"element": "H" 
			}
		],
		 "valence_orbital": [ 
			{
				"type": "occ",
				"energy": -0.30605,
				"method": "rhf"
			},
			{
				"type": "occ",
				"energy": -0.30544,
				"method": "rhf"
			},
			{
				"type": "occ",
				"energy": -0.28539,
				"method": "rhf"
			},
			{
				"type": "occ",
				"energy": -0.27729,
				"method": "rhf"
			},
			{
				"type": "occ",
				"energy": -0.25618,
				"method": "rhf"
			},
			{
				"type": "unocc",
				"energy": -0.09053,
				"method": "rhf"
			},
			{
				"type": "unocc",
				"energy": -0.02683,
				"method": "rhf"
			},
			{
				"type": "unocc",
				"energy": -0.01465,
				"method": "rhf"
			},
			{
				"type": "unocc",
				"energy": 0.04887,
				"method": "rhf"
			},
			{
				"type": "unocc",
				"energy": 0.06875,
				"method": "rhf"
			}
		],
		"cosmo_sigma_profile": { 
			"-0.025": 0.0,
			"-0.024": 0.0,
			"-0.023": 0.0,
			"-0.022": 0.0,
			"-0.021": 0.0,
			"-0.02": 0.0,
			"-0.019": 0.0,
			"-0.018": 0.70264047847,
			"-0.017": 0.867212483514,
			"-0.016": 1.08869992843,
			"-0.015": 3.57388733281,
			"-0.014": 3.16322584531,
			"-0.013": 2.87138638411,
			"-0.012": 3.9707691764,
			"-0.011": 3.76407482923,
			"-0.01": 3.23913403742,
			"-0.009": 2.88811171304,
			"-0.008": 6.31697969436,
			"-0.007": 11.8041938477,
			"-0.006": 10.8204893087,
			"-0.005": 9.7638931738,
			"-0.004": 8.39085150014,
			"-0.003": 9.46461468469,
			"-0.002": 11.3407425907,
			"-0.001": 12.707351001,
			"0.0": 15.3429852721,
			"0.001": 23.3267058244,
			"0.002": 22.7868876672,
			"0.003": 9.60629971742,
			"0.004": 5.74814715874,
			"0.005": 6.17363885598,
			"0.006": 6.00619425562,
			"0.007": 6.58626956358,
			"0.008": 7.58133046583,
			"0.009": 7.54944028135,
			"0.01": 10.9459008113,
			"0.011": 12.2222562678,
			"0.012": 5.07352991365,
			"0.013": 0.104826424216,
			"0.014": 0.0,
			"0.015": 0.0,
			"0.016": 0.0,
			"0.017": 0.0,
			"0.018": 0.0,
			"0.019": 0.0,
			"0.02": 0.0,
			"0.021": 0.0,
			"0.022": 0.0,
			"0.023": 0.0,
			"0.024": 0.0,
			"0.025": 0.0
		}
	}
}
