{
	 "smiles": "OC(=O)C1=NNC2=C(C=CC=C2)C1=O", 
	 "Tm": 533.15, 
	 "num_atms": 20, 
	 "gaussian": { 
		 "optdone": 1, 
		 "sigma_profile": "yes", 
		 "theory": "DFT", 
		 "functional": "B3LYP", 
		 "basiset": "6-31G**", 
		 "properties": { 
			 "R2extent": 4757.2953, 
			 "electric_dipole_moment_norm": 9.39666021627, 
			 "electric_quadrupole_moment_norm": 38.4026509922, 
			 "total_energy": -681.743871371, 
			 "HOMO_LUMO_gap": 0.16074, 
			 "cosmo_polarized_energy": -23.38, 
			 "cosmo_cavitation_energy": 25.02, 
			 "cosmo_dispersion_energy": -19.14, 
			 "cosmo_repulsion_energy": 1.47, 
			 "cosmo_total_nonelectrostatic_energy": 7.35, 
			 "SMD_solvation_energy": 5.17 
		},
		"coords": [
			{
				"x": 0.938822106,
				"y": 3.3328628632,
				"z": 4.5163985517,
				"element": "O" 
			},
			{
				"x": -0.1723137127,
				"y": 3.604298222,
				"z": 3.8237033109,
				"element": "C" 
			},
			{
				"x": -0.9646705885,
				"y": 4.4536562491,
				"z": 4.1551232287,
				"element": "O" 
			},
			{
				"x": -0.3660514606,
				"y": 2.7556350931,
				"z": 2.5749851324,
				"element": "C" 
			},
			{
				"x": -1.4542416912,
				"y": 3.0206008186,
				"z": 1.8921285681,
				"element": "N" 
			},
			{
				"x": -1.7031443778,
				"y": 2.3315973168,
				"z": 0.7903296319,
				"element": "N" 
			},
			{
				"x": -0.912629019,
				"y": 1.3302458816,
				"z": 0.2662549608,
				"element": "C" 
			},
			{
				"x": 0.2716458046,
				"y": 0.9981742557,
				"z": 0.953922908,
				"element": "C" 
			},
			{
				"x": 1.0985142206,
				"y": -0.0201871309,
				"z": 0.4425471741,
				"element": "C" 
			},
			{
				"x": 0.7476846213,
				"y": -0.6823817867,
				"z": -0.7199863894,
				"element": "C" 
			},
			{
				"x": -0.4408526292,
				"y": -0.3391034482,
				"z": -1.3975037865,
				"element": "C" 
			},
			{
				"x": -1.2719923318,
				"y": 0.6575820225,
				"z": -0.9174794885,
				"element": "C" 
			},
			{
				"x": 0.6038657644,
				"y": 1.7234537837,
				"z": 2.178299424,
				"element": "C" 
			},
			{
				"x": 1.6351950468,
				"y": 1.4810187356,
				"z": 2.8354032755,
				"element": "O" 
			},
			{
				"x": 1.4357121209,
				"y": 2.602957111,
				"z": 4.0613609022,
				"element": "H" 
			},
			{
				"x": -2.5609791696,
				"y": 2.5978347633,
				"z": 0.32470651,
				"element": "H" 
			},
			{
				"x": 2.0047509819,
				"y": -0.2584137038,
				"z": 0.9886756304,
				"element": "H" 
			},
			{
				"x": 1.3839193982,
				"y": -1.4674406728,
				"z": -1.1154241031,
				"element": "H" 
			},
			{
				"x": -0.7101019997,
				"y": -0.863069049,
				"z": -2.3095214328,
				"element": "H" 
			},
			{
				"x": -2.1875330844,
				"y": 0.9222786755,
				"z": -1.4389240083,
				"element": "H" 
			}
		],
		 "valence_orbital": [ 
			{
				"type": "occ",
				"energy": -0.29287,
				"method": "rhf"
			},
			{
				"type": "occ",
				"energy": -0.28928,
				"method": "rhf"
			},
			{
				"type": "occ",
				"energy": -0.27176,
				"method": "rhf"
			},
			{
				"type": "occ",
				"energy": -0.25574,
				"method": "rhf"
			},
			{
				"type": "occ",
				"energy": -0.25373,
				"method": "rhf"
			},
			{
				"type": "unocc",
				"energy": -0.09299,
				"method": "rhf"
			},
			{
				"type": "unocc",
				"energy": -0.06502,
				"method": "rhf"
			},
			{
				"type": "unocc",
				"energy": -0.02148,
				"method": "rhf"
			},
			{
				"type": "unocc",
				"energy": 0.02251,
				"method": "rhf"
			},
			{
				"type": "unocc",
				"energy": 0.048,
				"method": "rhf"
			}
		],
		"cosmo_sigma_profile": { 
			"-0.025": 0.0,
			"-0.024": 0.0,
			"-0.023": 0.0,
			"-0.022": 0.0,
			"-0.021": 0.0,
			"-0.02": 0.0,
			"-0.019": 0.0319280062551,
			"-0.018": 1.57069940617,
			"-0.017": 1.67637121358,
			"-0.016": 1.68396484437,
			"-0.015": 1.30367106957,
			"-0.014": 1.35253331124,
			"-0.013": 0.944903109296,
			"-0.012": 1.13056988384,
			"-0.011": 1.28667599603,
			"-0.01": 1.50825394401,
			"-0.009": 1.19312325918,
			"-0.008": 3.96014349577,
			"-0.007": 8.68996357365,
			"-0.006": 13.1960231946,
			"-0.005": 13.2038586428,
			"-0.004": 14.5412508456,
			"-0.003": 11.5155772404,
			"-0.002": 12.1282530824,
			"-0.001": 11.7659929773,
			"0.0": 13.8228995857,
			"0.001": 14.0764182156,
			"0.002": 13.277080421,
			"0.003": 5.56449316787,
			"0.004": 3.58908987179,
			"0.005": 3.53577034505,
			"0.006": 3.63427351678,
			"0.007": 3.6141297725,
			"0.008": 5.35136895162,
			"0.009": 4.55350686822,
			"0.01": 5.56088294918,
			"0.011": 7.93328100814,
			"0.012": 7.25103101398,
			"0.013": 4.65309840864,
			"0.014": 1.63203615084,
			"0.015": 1.13103626556,
			"0.016": 0.217853039278,
			"0.017": 0.0,
			"0.018": 0.0,
			"0.019": 0.0,
			"0.02": 0.0,
			"0.021": 0.0,
			"0.022": 0.0,
			"0.023": 0.0,
			"0.024": 0.0,
			"0.025": 0.0
		}
	}
}
