{
	 "smiles": "NCC1=CC=C(C=C1)N1CCS(=O)(=O)CC1", 
	 "Tm": 371.15, 
	 "num_atms": 32, 
	 "gaussian": { 
		 "optdone": 1, 
		 "sigma_profile": "yes", 
		 "theory": "DFT", 
		 "functional": "B3LYP", 
		 "basiset": "6-31G**", 
		 "properties": { 
			 "R2extent": 5645.838, 
			 "electric_dipole_moment_norm": 4.66079131908, 
			 "electric_quadrupole_moment_norm": 22.179540208, 
			 "total_energy": -1086.88075929, 
			 "HOMO_LUMO_gap": 0.19785, 
			 "cosmo_polarized_energy": -20.52, 
			 "cosmo_cavitation_energy": 34.19, 
			 "cosmo_dispersion_energy": -25.71, 
			 "cosmo_repulsion_energy": 1.95, 
			 "cosmo_total_nonelectrostatic_energy": 10.43, 
			 "SMD_solvation_energy": 2.36 
		},
		"coords": [
			{
				"x": -0.991564645,
				"y": 3.6551806434,
				"z": 3.3921731201,
				"element": "N" 
			},
			{
				"x": -0.3669936224,
				"y": 2.3439599462,
				"z": 3.5998623513,
				"element": "C" 
			},
			{
				"x": 0.0418602071,
				"y": 1.7079284809,
				"z": 2.2865664487,
				"element": "C" 
			},
			{
				"x": -0.0771026721,
				"y": 0.3340400646,
				"z": 2.0745007975,
				"element": "C" 
			},
			{
				"x": 0.324376611,
				"y": -0.2639079251,
				"z": 0.8791098972,
				"element": "C" 
			},
			{
				"x": 0.8758484871,
				"y": 0.5016088149,
				"z": -0.166688309,
				"element": "C" 
			},
			{
				"x": 0.9904147533,
				"y": 1.8916659873,
				"z": 0.0505245724,
				"element": "C" 
			},
			{
				"x": 0.5817143536,
				"y": 2.473609612,
				"z": 1.2449892394,
				"element": "C" 
			},
			{
				"x": 1.3463776126,
				"y": -0.0870862861,
				"z": -1.3642668112,
				"element": "N" 
			},
			{
				"x": 1.2495796575,
				"y": 0.6562575576,
				"z": -2.6192238431,
				"element": "C" 
			},
			{
				"x": -0.1588539105,
				"y": 0.5946304774,
				"z": -3.2450689217,
				"element": "C" 
			},
			{
				"x": -0.6002134973,
				"y": -1.1262898534,
				"z": -3.6293742349,
				"element": "S" 
			},
			{
				"x": -2.0435738572,
				"y": -1.2172047897,
				"z": -3.8933733971,
				"element": "O" 
			},
			{
				"x": 0.3801553451,
				"y": -1.6201550023,
				"z": -4.614902218,
				"element": "O" 
			},
			{
				"x": -0.2231107481,
				"y": -1.9279419554,
				"z": -2.0416199557,
				"element": "C" 
			},
			{
				"x": 1.1893537157,
				"y": -1.5220909543,
				"z": -1.5692156794,
				"element": "C" 
			},
			{
				"x": -1.8843411314,
				"y": 3.5400971571,
				"z": 2.9180366356,
				"element": "H" 
			},
			{
				"x": -1.1878315279,
				"y": 4.0933812607,
				"z": 4.2882816154,
				"element": "H" 
			},
			{
				"x": -0.9922370739,
				"y": 1.6250618327,
				"z": 4.1581566661,
				"element": "H" 
			},
			{
				"x": 0.5264518138,
				"y": 2.5103497261,
				"z": 4.2182954754,
				"element": "H" 
			},
			{
				"x": -0.5038380682,
				"y": -0.2945829777,
				"z": 2.8531710015,
				"element": "H" 
			},
			{
				"x": 0.1891306939,
				"y": -1.3336419209,
				"z": 0.7752410225,
				"element": "H" 
			},
			{
				"x": 1.426070745,
				"y": 2.5325358283,
				"z": -0.7074860282,
				"element": "H" 
			},
			{
				"x": 0.6744425445,
				"y": 3.5466625587,
				"z": 1.380270677,
				"element": "H" 
			},
			{
				"x": 1.5268119651,
				"y": 1.6994894235,
				"z": -2.4711734433,
				"element": "H" 
			},
			{
				"x": 1.9705331244,
				"y": 0.2336670407,
				"z": -3.3262859857,
				"element": "H" 
			},
			{
				"x": -0.2103428096,
				"y": 1.125070469,
				"z": -4.2004867524,
				"element": "H" 
			},
			{
				"x": -0.923137337,
				"y": 0.9882018968,
				"z": -2.5695162286,
				"element": "H" 
			},
			{
				"x": -0.3013236605,
				"y": -3.0018710955,
				"z": -2.2349137741,
				"element": "H" 
			},
			{
				"x": -1.0018868,
				"y": -1.6279166474,
				"z": -1.3362721673,
				"element": "H" 
			},
			{
				"x": 1.9117190824,
				"y": -1.8368899733,
				"z": -2.329426685,
				"element": "H" 
			},
			{
				"x": 1.4415106488,
				"y": -2.0583193966,
				"z": -0.6520850854,
				"element": "H" 
			}
		],
		 "valence_orbital": [ 
			{
				"type": "occ",
				"energy": -0.28851,
				"method": "rhf"
			},
			{
				"type": "occ",
				"energy": -0.2809,
				"method": "rhf"
			},
			{
				"type": "occ",
				"energy": -0.25278,
				"method": "rhf"
			},
			{
				"type": "occ",
				"energy": -0.2407,
				"method": "rhf"
			},
			{
				"type": "occ",
				"energy": -0.20381,
				"method": "rhf"
			},
			{
				"type": "unocc",
				"energy": -0.00596,
				"method": "rhf"
			},
			{
				"type": "unocc",
				"energy": 0.00374,
				"method": "rhf"
			},
			{
				"type": "unocc",
				"energy": 0.05987,
				"method": "rhf"
			},
			{
				"type": "unocc",
				"energy": 0.06891,
				"method": "rhf"
			},
			{
				"type": "unocc",
				"energy": 0.07413,
				"method": "rhf"
			}
		],
		"cosmo_sigma_profile": { 
			"-0.025": 0.0,
			"-0.024": 0.0,
			"-0.023": 0.0,
			"-0.022": 0.0,
			"-0.021": 0.0,
			"-0.02": 0.0,
			"-0.019": 0.0,
			"-0.018": 0.0,
			"-0.017": 0.0,
			"-0.016": 0.0,
			"-0.015": 0.0,
			"-0.014": 0.0,
			"-0.013": 0.0,
			"-0.012": 0.0,
			"-0.011": 0.0,
			"-0.01": 1.23553138579,
			"-0.009": 6.35938665941,
			"-0.008": 13.095884588,
			"-0.007": 15.3467169385,
			"-0.006": 19.9650538494,
			"-0.005": 21.3933478688,
			"-0.004": 22.1285063465,
			"-0.003": 20.4975935755,
			"-0.002": 17.7719769213,
			"-0.001": 13.7624175535,
			"0.0": 11.015069283,
			"0.001": 7.86505370035,
			"0.002": 10.6152905221,
			"0.003": 9.82866125166,
			"0.004": 8.61153913849,
			"0.005": 9.94089763432,
			"0.006": 11.2653831546,
			"0.007": 8.25951734523,
			"0.008": 3.98497216888,
			"0.009": 4.59015566083,
			"0.01": 4.93303603072,
			"0.011": 9.16281138931,
			"0.012": 11.7513682928,
			"0.013": 3.29023553909,
			"0.014": 0.3011416396,
			"0.015": 0.593105405874,
			"0.016": 0.568319531167,
			"0.017": 0.439418558553,
			"0.018": 0.0368124688056,
			"0.019": 0.0,
			"0.02": 0.0,
			"0.021": 0.0,
			"0.022": 0.0,
			"0.023": 0.0,
			"0.024": 0.0,
			"0.025": 0.0
		}
	}
}
