{
	 "smiles": "NC1=NON=C1C(O)=O", 
	 "Tm": 488.15, 
	 "num_atms": 12, 
	 "gaussian": { 
		 "optdone": 1, 
		 "sigma_profile": "yes", 
		 "theory": "DFT", 
		 "functional": "B3LYP", 
		 "basiset": "6-31G**", 
		 "properties": { 
			 "R2extent": 1650.2412, 
			 "electric_dipole_moment_norm": 5.81364258963, 
			 "electric_quadrupole_moment_norm": 17.7601556919, 
			 "total_energy": -505.961632442, 
			 "HOMO_LUMO_gap": 0.21059, 
			 "cosmo_polarized_energy": -19.29, 
			 "cosmo_cavitation_energy": 17.64, 
			 "cosmo_dispersion_energy": -13.38, 
			 "cosmo_repulsion_energy": 1.11, 
			 "cosmo_total_nonelectrostatic_energy": 5.37, 
			 "SMD_solvation_energy": 4.31 
		},
		"coords": [
			{
				"x": -0.0825729665,
				"y": 1.8241289441,
				"z": 1.315436638,
				"element": "N" 
			},
			{
				"x": 0.0558555156,
				"y": 0.454831969,
				"z": 1.0503723173,
				"element": "C" 
			},
			{
				"x": 1.052824647,
				"y": -0.0844287067,
				"z": 0.3990148579,
				"element": "N" 
			},
			{
				"x": 0.7234030754,
				"y": -1.4226698328,
				"z": 0.2986341174,
				"element": "O" 
			},
			{
				"x": -0.4626828175,
				"y": -1.7027064508,
				"z": 0.9038612273,
				"element": "N" 
			},
			{
				"x": -0.9055763352,
				"y": -0.5600173354,
				"z": 1.3666796374,
				"element": "C" 
			},
			{
				"x": -2.2354197697,
				"y": -0.4112833363,
				"z": 2.0431401908,
				"element": "C" 
			},
			{
				"x": -2.6780282761,
				"y": 0.8649147862,
				"z": 2.0987036297,
				"element": "O" 
			},
			{
				"x": -2.8598448697,
				"y": -1.3312636163,
				"z": 2.5008450541,
				"element": "O" 
			},
			{
				"x": 0.5919180606,
				"y": 2.3752328542,
				"z": 0.7928511625,
				"element": "H" 
			},
			{
				"x": 0.0034560741,
				"y": 2.0387964738,
				"z": 2.3061859378,
				"element": "H" 
			},
			{
				"x": -2.0771323381,
				"y": 1.471564251,
				"z": 1.6217752299,
				"element": "H" 
			}
		],
		 "valence_orbital": [ 
			{
				"type": "occ",
				"energy": -0.34311,
				"method": "rhf"
			},
			{
				"type": "occ",
				"energy": -0.34057,
				"method": "rhf"
			},
			{
				"type": "occ",
				"energy": -0.32523,
				"method": "rhf"
			},
			{
				"type": "occ",
				"energy": -0.30226,
				"method": "rhf"
			},
			{
				"type": "occ",
				"energy": -0.2926,
				"method": "rhf"
			},
			{
				"type": "unocc",
				"energy": -0.08201,
				"method": "rhf"
			},
			{
				"type": "unocc",
				"energy": -0.02784,
				"method": "rhf"
			},
			{
				"type": "unocc",
				"energy": 0.02566,
				"method": "rhf"
			},
			{
				"type": "unocc",
				"energy": 0.06824,
				"method": "rhf"
			},
			{
				"type": "unocc",
				"energy": 0.0844,
				"method": "rhf"
			}
		],
		"cosmo_sigma_profile": { 
			"-0.025": 0.0,
			"-0.024": 0.0,
			"-0.023": 0.0,
			"-0.022": 0.0,
			"-0.021": 0.0,
			"-0.02": 0.0,
			"-0.019": 0.0,
			"-0.018": 0.0,
			"-0.017": 0.000411595040417,
			"-0.016": 1.61423845504,
			"-0.015": 3.17026772615,
			"-0.014": 3.86184694569,
			"-0.013": 3.46171503434,
			"-0.012": 4.20369835779,
			"-0.011": 3.30065560912,
			"-0.01": 3.86140903757,
			"-0.009": 3.15954326155,
			"-0.008": 3.35142506233,
			"-0.007": 4.21073574995,
			"-0.006": 4.16559277303,
			"-0.005": 4.5729256055,
			"-0.004": 5.96292057694,
			"-0.003": 4.45927567959,
			"-0.002": 4.56703391574,
			"-0.001": 3.56351880511,
			"0.0": 4.48907511758,
			"0.001": 4.50891720742,
			"0.002": 4.85596895177,
			"0.003": 6.71246892672,
			"0.004": 10.0912361401,
			"0.005": 8.45868692731,
			"0.006": 5.54778894744,
			"0.007": 5.90132001591,
			"0.008": 6.09884549308,
			"0.009": 8.53418908398,
			"0.01": 8.73997852962,
			"0.011": 5.5170600642,
			"0.012": 0.865730312404,
			"0.013": 0.0,
			"0.014": 0.0,
			"0.015": 0.0,
			"0.016": 0.0,
			"0.017": 0.0,
			"0.018": 0.0,
			"0.019": 0.0,
			"0.02": 0.0,
			"0.021": 0.0,
			"0.022": 0.0,
			"0.023": 0.0,
			"0.024": 0.0,
			"0.025": 0.0
		}
	}
}
