{
	 "smiles": "CC1=C(C)C(C)=CS1", 
	 "Tm": 246.95, 
	 "num_atms": 18, 
	 "gaussian": { 
		 "optdone": 1, 
		 "sigma_profile": "yes", 
		 "theory": "DFT", 
		 "functional": "B3LYP", 
		 "basiset": "6-31G**", 
		 "properties": { 
			 "R2extent": 1875.3326, 
			 "electric_dipole_moment_norm": 1.2301599774, 
			 "electric_quadrupole_moment_norm": 5.37958012674, 
			 "total_energy": -670.963340941, 
			 "HOMO_LUMO_gap": 0.21627, 
			 "cosmo_polarized_energy": -3.55, 
			 "cosmo_cavitation_energy": 21.93, 
			 "cosmo_dispersion_energy": -16.72, 
			 "cosmo_repulsion_energy": 1.33, 
			 "cosmo_total_nonelectrostatic_energy": 6.55, 
			 "SMD_solvation_energy": 3.91 
		},
		"coords": [
			{
				"x": 1.7181069925,
				"y": -0.7076162774,
				"z": -2.5354904816,
				"element": "C" 
			},
			{
				"x": 1.0646778333,
				"y": -1.342817198,
				"z": -1.3418125179,
				"element": "C" 
			},
			{
				"x": 0.4039495606,
				"y": -0.7585993378,
				"z": -0.2881836325,
				"element": "C" 
			},
			{
				"x": 0.2049333079,
				"y": 0.7222492033,
				"z": -0.0988249645,
				"element": "C" 
			},
			{
				"x": -0.1103372402,
				"y": -1.7247300721,
				"z": 0.6582395492,
				"element": "C" 
			},
			{
				"x": -0.8687395702,
				"y": -1.3459542853,
				"z": 1.9013697386,
				"element": "C" 
			},
			{
				"x": 0.1720678609,
				"y": -3.0103625227,
				"z": 0.2947104301,
				"element": "C" 
			},
			{
				"x": 1.0645656626,
				"y": -3.086925622,
				"z": -1.1909457579,
				"element": "S" 
			},
			{
				"x": 1.8633489035,
				"y": 0.3637713963,
				"z": -2.3764306727,
				"element": "H" 
			},
			{
				"x": 2.7015033045,
				"y": -1.1454332425,
				"z": -2.7371819712,
				"element": "H" 
			},
			{
				"x": 1.1146135058,
				"y": -0.827782401,
				"z": -3.443660133,
				"element": "H" 
			},
			{
				"x": 0.692886808,
				"y": 1.3079385897,
				"z": -0.8807533446,
				"element": "H" 
			},
			{
				"x": 0.6055214908,
				"y": 1.0589647109,
				"z": 0.8650538192,
				"element": "H" 
			},
			{
				"x": -0.8599466595,
				"y": 0.9863238482,
				"z": -0.1091769448,
				"element": "H" 
			},
			{
				"x": -1.1654400982,
				"y": -2.2325777966,
				"z": 2.4679598689,
				"element": "H" 
			},
			{
				"x": -1.7789264577,
				"y": -0.781845201,
				"z": 1.6632084769,
				"element": "H" 
			},
			{
				"x": -0.2669382638,
				"y": -0.7122994773,
				"z": 2.5645403136,
				"element": "H" 
			},
			{
				"x": -0.0899469406,
				"y": -3.9196043146,
				"z": 0.8186782241,
				"element": "H" 
			}
		],
		 "valence_orbital": [ 
			{
				"type": "occ",
				"energy": -0.34419,
				"method": "rhf"
			},
			{
				"type": "occ",
				"energy": -0.33932,
				"method": "rhf"
			},
			{
				"type": "occ",
				"energy": -0.3237,
				"method": "rhf"
			},
			{
				"type": "occ",
				"energy": -0.22712,
				"method": "rhf"
			},
			{
				"type": "occ",
				"energy": -0.21226,
				"method": "rhf"
			},
			{
				"type": "unocc",
				"energy": 0.00401,
				"method": "rhf"
			},
			{
				"type": "unocc",
				"energy": 0.04042,
				"method": "rhf"
			},
			{
				"type": "unocc",
				"energy": 0.07394,
				"method": "rhf"
			},
			{
				"type": "unocc",
				"energy": 0.09017,
				"method": "rhf"
			},
			{
				"type": "unocc",
				"energy": 0.10088,
				"method": "rhf"
			}
		],
		"cosmo_sigma_profile": { 
			"-0.025": 0.0,
			"-0.024": 0.0,
			"-0.023": 0.0,
			"-0.022": 0.0,
			"-0.021": 0.0,
			"-0.02": 0.0,
			"-0.019": 0.0,
			"-0.018": 0.0,
			"-0.017": 0.0,
			"-0.016": 0.0,
			"-0.015": 0.0,
			"-0.014": 0.0,
			"-0.013": 0.0,
			"-0.012": 0.0,
			"-0.011": 0.0,
			"-0.01": 0.0,
			"-0.009": 0.0,
			"-0.008": 0.109585369141,
			"-0.007": 1.35530714014,
			"-0.006": 2.64222256263,
			"-0.005": 4.69569481191,
			"-0.004": 15.6033064416,
			"-0.003": 19.8707434953,
			"-0.002": 21.1696028318,
			"-0.001": 21.8465373854,
			"0.0": 24.1499106138,
			"0.001": 13.4088723198,
			"0.002": 8.01194126581,
			"0.003": 8.88721826817,
			"0.004": 8.31216735717,
			"0.005": 8.67395234281,
			"0.006": 13.314175236,
			"0.007": 2.8894525095,
			"0.008": 0.0,
			"0.009": 0.0,
			"0.01": 0.0,
			"0.011": 0.0,
			"0.012": 0.0,
			"0.013": 0.0,
			"0.014": 0.0,
			"0.015": 0.0,
			"0.016": 0.0,
			"0.017": 0.0,
			"0.018": 0.0,
			"0.019": 0.0,
			"0.02": 0.0,
			"0.021": 0.0,
			"0.022": 0.0,
			"0.023": 0.0,
			"0.024": 0.0,
			"0.025": 0.0
		}
	}
}
