{
	 "smiles": "NC1=CC(NC(=O)C2=COC=C2)=CC=C1", 
	 "Tm": 394.15, 
	 "num_atms": 25, 
	 "gaussian": { 
		 "optdone": 1, 
		 "sigma_profile": "yes", 
		 "theory": "DFT", 
		 "functional": "B3LYP", 
		 "basiset": "6-31G**", 
		 "properties": { 
			 "R2extent": 3381.1214, 
			 "electric_dipole_moment_norm": 4.06324755584, 
			 "electric_quadrupole_moment_norm": 11.4156387898, 
			 "total_energy": -685.131226919, 
			 "HOMO_LUMO_gap": 0.18197, 
			 "cosmo_polarized_energy": -15.67, 
			 "cosmo_cavitation_energy": 29.87, 
			 "cosmo_dispersion_energy": -21.26, 
			 "cosmo_repulsion_energy": 1.67, 
			 "cosmo_total_nonelectrostatic_energy": 10.27, 
			 "SMD_solvation_energy": 6.94 
		},
		"coords": [
			{
				"x": -0.6240443688,
				"y": -1.5630506839,
				"z": 3.3422646023,
				"element": "N" 
			},
			{
				"x": -1.2552646142,
				"y": -1.5326637353,
				"z": 2.0998762963,
				"element": "C" 
			},
			{
				"x": -0.5187240868,
				"y": -1.265744313,
				"z": 0.9347417821,
				"element": "C" 
			},
			{
				"x": -1.1608159875,
				"y": -1.1601136999,
				"z": -0.3033719498,
				"element": "C" 
			},
			{
				"x": -0.4233072689,
				"y": -0.9187565807,
				"z": -1.4928224814,
				"element": "N" 
			},
			{
				"x": 0.616557664,
				"y": -0.0486590728,
				"z": -1.7676069201,
				"element": "C" 
			},
			{
				"x": 1.2949382543,
				"y": -0.2162482092,
				"z": -2.7773675767,
				"element": "O" 
			},
			{
				"x": 0.8606249074,
				"y": 1.1219780307,
				"z": -0.890058066,
				"element": "C" 
			},
			{
				"x": 0.0627774295,
				"y": 1.7557919877,
				"z": 0.0258906475,
				"element": "C" 
			},
			{
				"x": 0.6735517853,
				"y": 2.8694078233,
				"z": 0.4973518192,
				"element": "O" 
			},
			{
				"x": 1.8907130108,
				"y": 2.9572819912,
				"z": -0.1278097822,
				"element": "C" 
			},
			{
				"x": 2.0532657477,
				"y": 1.9234098936,
				"z": -0.9891438251,
				"element": "C" 
			},
			{
				"x": -2.5440098797,
				"y": -1.3610635164,
				"z": -0.3995329187,
				"element": "C" 
			},
			{
				"x": -3.2688127574,
				"y": -1.6563372741,
				"z": 0.7555534748,
				"element": "C" 
			},
			{
				"x": -2.6440828969,
				"y": -1.7338034025,
				"z": 1.9966024509,
				"element": "C" 
			},
			{
				"x": -1.0902696657,
				"y": -2.109638476,
				"z": 4.0527470805,
				"element": "H" 
			},
			{
				"x": 0.3715366378,
				"y": -1.7345575109,
				"z": 3.3211859819,
				"element": "H" 
			},
			{
				"x": 0.5576995035,
				"y": -1.1400350738,
				"z": 0.9926012277,
				"element": "H" 
			},
			{
				"x": -0.5733519702,
				"y": -1.5627501943,
				"z": -2.2598468194,
				"element": "H" 
			},
			{
				"x": -0.9183529993,
				"y": 1.5525868008,
				"z": 0.4225255575,
				"element": "H" 
			},
			{
				"x": 2.4988790456,
				"y": 3.8028842552,
				"z": 0.1520606871,
				"element": "H" 
			},
			{
				"x": 2.8915115066,
				"y": 1.7221398126,
				"z": -1.6383290394,
				"element": "H" 
			},
			{
				"x": -3.0356345717,
				"y": -1.2764949961,
				"z": -1.3632952067,
				"element": "H" 
			},
			{
				"x": -4.3409838847,
				"y": -1.8175685822,
				"z": 0.6883625477,
				"element": "H" 
			},
			{
				"x": -3.2237005408,
				"y": -1.9486952741,
				"z": 2.8904204302,
				"element": "H" 
			}
		],
		 "valence_orbital": [ 
			{
				"type": "occ",
				"energy": -0.2742,
				"method": "rhf"
			},
			{
				"type": "occ",
				"energy": -0.24971,
				"method": "rhf"
			},
			{
				"type": "occ",
				"energy": -0.24059,
				"method": "rhf"
			},
			{
				"type": "occ",
				"energy": -0.22472,
				"method": "rhf"
			},
			{
				"type": "occ",
				"energy": -0.20901,
				"method": "rhf"
			},
			{
				"type": "unocc",
				"energy": -0.02704,
				"method": "rhf"
			},
			{
				"type": "unocc",
				"energy": 0.00338,
				"method": "rhf"
			},
			{
				"type": "unocc",
				"energy": 0.00675,
				"method": "rhf"
			},
			{
				"type": "unocc",
				"energy": 0.03207,
				"method": "rhf"
			},
			{
				"type": "unocc",
				"energy": 0.0745,
				"method": "rhf"
			}
		],
		"cosmo_sigma_profile": { 
			"-0.025": 0.0,
			"-0.024": 0.0,
			"-0.023": 0.0,
			"-0.022": 0.0,
			"-0.021": 0.0,
			"-0.02": 0.0,
			"-0.019": 0.0,
			"-0.018": 0.0,
			"-0.017": 0.0,
			"-0.016": 0.0,
			"-0.015": 0.0,
			"-0.014": 0.437900774236,
			"-0.013": 1.52323684163,
			"-0.012": 3.66275018234,
			"-0.011": 3.60312709031,
			"-0.01": 3.43713866356,
			"-0.009": 7.04282509356,
			"-0.008": 6.49027207974,
			"-0.007": 7.8257133625,
			"-0.006": 9.90458424733,
			"-0.005": 14.0315346856,
			"-0.004": 14.1851114122,
			"-0.003": 12.5296771696,
			"-0.002": 11.8148478209,
			"-0.001": 12.1772628131,
			"0.0": 13.0196111043,
			"0.001": 18.896294867,
			"0.002": 19.4082801716,
			"0.003": 15.105145506,
			"0.004": 14.2829116653,
			"0.005": 11.6916757993,
			"0.006": 10.1321180684,
			"0.007": 4.34551655896,
			"0.008": 3.88375538343,
			"0.009": 2.38250520078,
			"0.01": 2.0822680702,
			"0.011": 2.19263429487,
			"0.012": 2.91833363415,
			"0.013": 5.8366939905,
			"0.014": 3.53610561771,
			"0.015": 0.11940766503,
			"0.016": 0.0,
			"0.017": 0.0,
			"0.018": 0.0,
			"0.019": 0.0,
			"0.02": 0.0,
			"0.021": 0.0,
			"0.022": 0.0,
			"0.023": 0.0,
			"0.024": 0.0,
			"0.025": 0.0
		}
	}
}
