{
	 "smiles": "ClC1=CC=CC(C#N)=C1Cl", 
	 "Tm": 336.15, 
	 "num_atms": 13, 
	 "gaussian": { 
		 "optdone": 1, 
		 "sigma_profile": "yes", 
		 "theory": "DFT", 
		 "functional": "B3LYP", 
		 "basiset": "6-31G**", 
		 "properties": { 
			 "R2extent": 3671.3136, 
			 "electric_dipole_moment_norm": 4.61561903757, 
			 "electric_quadrupole_moment_norm": 2.70887610643, 
			 "total_energy": -1243.66254274, 
			 "HOMO_LUMO_gap": 0.19972, 
			 "cosmo_polarized_energy": -8.77, 
			 "cosmo_cavitation_energy": 22.18, 
			 "cosmo_dispersion_energy": -16.14, 
			 "cosmo_repulsion_energy": 1.31, 
			 "cosmo_total_nonelectrostatic_energy": 7.35, 
			 "SMD_solvation_energy": 4.66 
		},
		"coords": [
			{
				"x": -2.7664236267,
				"y": 3.8701471439,
				"z": 1.3085301237,
				"element": "Cl" 
			},
			{
				"x": -1.8873845286,
				"y": 2.4078725416,
				"z": 0.9513257025,
				"element": "C" 
			},
			{
				"x": -2.5437514559,
				"y": 1.1823364616,
				"z": 1.0893302728,
				"element": "C" 
			},
			{
				"x": -1.876124462,
				"y": -0.0089695741,
				"z": 0.8135321219,
				"element": "C" 
			},
			{
				"x": -0.5493271118,
				"y": 0.0156998267,
				"z": 0.398330466,
				"element": "C" 
			},
			{
				"x": 0.121099335,
				"y": 1.2409004981,
				"z": 0.2559039947,
				"element": "C" 
			},
			{
				"x": 1.4882166294,
				"y": 1.2374664578,
				"z": -0.1734995517,
				"element": "C" 
			},
			{
				"x": 2.5954969784,
				"y": 1.1844012001,
				"z": -0.524074354,
				"element": "N" 
			},
			{
				"x": -0.5500604501,
				"y": 2.4508388548,
				"z": 0.5338401883,
				"element": "C" 
			},
			{
				"x": 0.2895361808,
				"y": 3.9587686221,
				"z": 0.3540071316,
				"element": "Cl" 
			},
			{
				"x": -3.5782718095,
				"y": 1.17705934,
				"z": 1.4138681817,
				"element": "H" 
			},
			{
				"x": -2.3948087559,
				"y": -0.9553240627,
				"z": 0.9238290611,
				"element": "H" 
			},
			{
				"x": -0.014896923,
				"y": -0.90189731,
				"z": 0.1795766613,
				"element": "H" 
			}
		],
		 "valence_orbital": [ 
			{
				"type": "occ",
				"energy": -0.34563,
				"method": "rhf"
			},
			{
				"type": "occ",
				"energy": -0.34333,
				"method": "rhf"
			},
			{
				"type": "occ",
				"energy": -0.32327,
				"method": "rhf"
			},
			{
				"type": "occ",
				"energy": -0.27914,
				"method": "rhf"
			},
			{
				"type": "occ",
				"energy": -0.27232,
				"method": "rhf"
			},
			{
				"type": "unocc",
				"energy": -0.0726,
				"method": "rhf"
			},
			{
				"type": "unocc",
				"energy": -0.04643,
				"method": "rhf"
			},
			{
				"type": "unocc",
				"energy": -0.01478,
				"method": "rhf"
			},
			{
				"type": "unocc",
				"energy": 0.01882,
				"method": "rhf"
			},
			{
				"type": "unocc",
				"energy": 0.05236,
				"method": "rhf"
			}
		],
		"cosmo_sigma_profile": { 
			"-0.025": 0.0,
			"-0.024": 0.0,
			"-0.023": 0.0,
			"-0.022": 0.0,
			"-0.021": 0.0,
			"-0.02": 0.0,
			"-0.019": 0.0,
			"-0.018": 0.0,
			"-0.017": 0.0,
			"-0.016": 0.0,
			"-0.015": 0.0,
			"-0.014": 0.0,
			"-0.013": 0.0,
			"-0.012": 0.0,
			"-0.011": 0.0,
			"-0.01": 0.140025543063,
			"-0.009": 3.7920319328,
			"-0.008": 7.56783522256,
			"-0.007": 7.27579877613,
			"-0.006": 5.28989542764,
			"-0.005": 5.09067903957,
			"-0.004": 7.16044210177,
			"-0.003": 12.8797407391,
			"-0.002": 18.1973928511,
			"-0.001": 20.6081264143,
			"0.0": 17.8697038718,
			"0.001": 14.6620644078,
			"0.002": 13.9390788355,
			"0.003": 17.631223486,
			"0.004": 9.24728151463,
			"0.005": 3.51966531575,
			"0.006": 2.62416590413,
			"0.007": 2.83741382921,
			"0.008": 3.73465850668,
			"0.009": 2.84629719003,
			"0.01": 3.02031327551,
			"0.011": 2.51686898943,
			"0.012": 2.00744042056,
			"0.013": 0.30899918787,
			"0.014": 0.0,
			"0.015": 0.0,
			"0.016": 0.0,
			"0.017": 0.0,
			"0.018": 0.0,
			"0.019": 0.0,
			"0.02": 0.0,
			"0.021": 0.0,
			"0.022": 0.0,
			"0.023": 0.0,
			"0.024": 0.0,
			"0.025": 0.0
		}
	}
}
