{
	 "smiles": "OC(=O)CCCC(=O)C1=CC=CS1", 
	 "Tm": 369.15, 
	 "num_atms": 23, 
	 "gaussian": { 
		 "optdone": 1, 
		 "sigma_profile": "yes", 
		 "theory": "DFT", 
		 "functional": "B3LYP", 
		 "basiset": "6-31G**", 
		 "properties": { 
			 "R2extent": 4686.6642, 
			 "electric_dipole_moment_norm": 2.59122509443, 
			 "electric_quadrupole_moment_norm": 17.1909570382, 
			 "total_energy": -972.850076498, 
			 "HOMO_LUMO_gap": 0.18285, 
			 "cosmo_polarized_energy": -13.27, 
			 "cosmo_cavitation_energy": 28.97, 
			 "cosmo_dispersion_energy": -21.25, 
			 "cosmo_repulsion_energy": 1.65, 
			 "cosmo_total_nonelectrostatic_energy": 9.38, 
			 "SMD_solvation_energy": 6.41 
		},
		"coords": [
			{
				"x": -1.4841728284,
				"y": 3.3556851217,
				"z": -1.3429952727,
				"element": "O" 
			},
			{
				"x": -1.8690047536,
				"y": 2.0583588001,
				"z": -1.293633796,
				"element": "C" 
			},
			{
				"x": -3.0199453715,
				"y": 1.7169046467,
				"z": -1.4709512862,
				"element": "O" 
			},
			{
				"x": -0.6987897934,
				"y": 1.1430999432,
				"z": -1.0082179402,
				"element": "C" 
			},
			{
				"x": -1.0986129932,
				"y": -0.3327454678,
				"z": -0.9181475344,
				"element": "C" 
			},
			{
				"x": -1.92586574,
				"y": -0.6956805226,
				"z": 0.3395510697,
				"element": "C" 
			},
			{
				"x": -1.115664164,
				"y": -0.5543259972,
				"z": 1.618802497,
				"element": "C" 
			},
			{
				"x": -0.8212582773,
				"y": 0.5542661784,
				"z": 2.0561351274,
				"element": "O" 
			},
			{
				"x": -0.6403010176,
				"y": -1.7626542687,
				"z": 2.3261298267,
				"element": "C" 
			},
			{
				"x": 0.1399063241,
				"y": -1.7590958102,
				"z": 3.4638581212,
				"element": "C" 
			},
			{
				"x": 0.4592877839,
				"y": -3.0582958466,
				"z": 3.9328261845,
				"element": "C" 
			},
			{
				"x": -0.0796523969,
				"y": -4.0485281995,
				"z": 3.1479075224,
				"element": "C" 
			},
			{
				"x": -0.9859310302,
				"y": -3.4058244847,
				"z": 1.8274521919,
				"element": "S" 
			},
			{
				"x": -2.2895475884,
				"y": 3.8686535102,
				"z": -1.5245249642,
				"element": "H" 
			},
			{
				"x": 0.037373291,
				"y": 1.2972821525,
				"z": -1.8067777106,
				"element": "H" 
			},
			{
				"x": -0.2262112545,
				"y": 1.4857404397,
				"z": -0.0820812568,
				"element": "H" 
			},
			{
				"x": -1.6945588483,
				"y": -0.5958776093,
				"z": -1.7975768651,
				"element": "H" 
			},
			{
				"x": -0.1921605257,
				"y": -0.9485563068,
				"z": -0.9493150175,
				"element": "H" 
			},
			{
				"x": -2.3175004084,
				"y": -1.7116916252,
				"z": 0.2267998722,
				"element": "H" 
			},
			{
				"x": -2.7820380271,
				"y": -0.0184160876,
				"z": 0.4049081535,
				"element": "H" 
			},
			{
				"x": 0.4570795833,
				"y": -0.8315809694,
				"z": 3.9248129889,
				"element": "H" 
			},
			{
				"x": 1.0606897859,
				"y": -3.2574749266,
				"z": 4.8122996867,
				"element": "H" 
			},
			{
				"x": 0.0045782502,
				"y": -5.1195426705,
				"z": 3.2744384016,
				"element": "H" 
			}
		],
		 "valence_orbital": [ 
			{
				"type": "occ",
				"energy": -0.31494,
				"method": "rhf"
			},
			{
				"type": "occ",
				"energy": -0.2726,
				"method": "rhf"
			},
			{
				"type": "occ",
				"energy": -0.26609,
				"method": "rhf"
			},
			{
				"type": "occ",
				"energy": -0.24893,
				"method": "rhf"
			},
			{
				"type": "occ",
				"energy": -0.24777,
				"method": "rhf"
			},
			{
				"type": "unocc",
				"energy": -0.06492,
				"method": "rhf"
			},
			{
				"type": "unocc",
				"energy": 0.01368,
				"method": "rhf"
			},
			{
				"type": "unocc",
				"energy": 0.01614,
				"method": "rhf"
			},
			{
				"type": "unocc",
				"energy": 0.01921,
				"method": "rhf"
			},
			{
				"type": "unocc",
				"energy": 0.0792,
				"method": "rhf"
			}
		],
		"cosmo_sigma_profile": { 
			"-0.025": 0.0,
			"-0.024": 0.0,
			"-0.023": 0.0,
			"-0.022": 0.0,
			"-0.021": 0.0,
			"-0.02": 0.0,
			"-0.019": 0.0,
			"-0.018": 0.462068262962,
			"-0.017": 1.12100861131,
			"-0.016": 0.853945317294,
			"-0.015": 0.608189660833,
			"-0.014": 0.580034811533,
			"-0.013": 1.22013089372,
			"-0.012": 0.378392939379,
			"-0.011": 0.506631328677,
			"-0.01": 1.39143287023,
			"-0.009": 2.58899520799,
			"-0.008": 2.98570216024,
			"-0.007": 5.60843343114,
			"-0.006": 9.29922931722,
			"-0.005": 11.5281474741,
			"-0.004": 20.6987716519,
			"-0.003": 22.5604120642,
			"-0.002": 18.6956525003,
			"-0.001": 16.8101769229,
			"0.0": 13.4753260349,
			"0.001": 13.7003581263,
			"0.002": 18.9164661267,
			"0.003": 19.0891292694,
			"0.004": 8.60688749409,
			"0.005": 5.01739116299,
			"0.006": 4.56372141257,
			"0.007": 4.45218043733,
			"0.008": 3.69151058073,
			"0.009": 4.21059694217,
			"0.01": 4.96508313627,
			"0.011": 5.44374522301,
			"0.012": 7.35485559892,
			"0.013": 0.696068362639,
			"0.014": 0.0,
			"0.015": 0.0,
			"0.016": 0.0,
			"0.017": 0.0,
			"0.018": 0.0,
			"0.019": 0.0,
			"0.02": 0.0,
			"0.021": 0.0,
			"0.022": 0.0,
			"0.023": 0.0,
			"0.024": 0.0,
			"0.025": 0.0
		}
	}
}
