{
	 "smiles": "CC(CC(O)=O)C1=C(C=CC=C1)C(F)(F)F", 
	 "Tm": 350.15, 
	 "num_atms": 27, 
	 "gaussian": { 
		 "optdone": 1, 
		 "sigma_profile": "yes", 
		 "theory": "DFT", 
		 "functional": "B3LYP", 
		 "basiset": "6-31G**", 
		 "properties": { 
			 "R2extent": 3454.4056, 
			 "electric_dipole_moment_norm": 4.4009021132, 
			 "electric_quadrupole_moment_norm": 20.2014670413, 
			 "total_energy": -875.793102663, 
			 "HOMO_LUMO_gap": 0.22004, 
			 "cosmo_polarized_energy": -12.96, 
			 "cosmo_cavitation_energy": 30.6, 
			 "cosmo_dispersion_energy": -21.24, 
			 "cosmo_repulsion_energy": 1.59, 
			 "cosmo_total_nonelectrostatic_energy": 10.95, 
			 "SMD_solvation_energy": 7.17 
		},
		"coords": [
			{
				"x": -0.0971710852,
				"y": -0.2012194715,
				"z": 2.4730775276,
				"element": "C" 
			},
			{
				"x": -0.5443993201,
				"y": 0.2833269713,
				"z": 1.0786048634,
				"element": "C" 
			},
			{
				"x": -1.7333190516,
				"y": 1.2606328271,
				"z": 1.2090136686,
				"element": "C" 
			},
			{
				"x": -2.2603400098,
				"y": 1.9275911898,
				"z": -0.0623308248,
				"element": "C" 
			},
			{
				"x": -2.2010401642,
				"y": 1.2233810358,
				"z": -1.2177082581,
				"element": "O" 
			},
			{
				"x": -2.7643940556,
				"y": 3.0239506471,
				"z": -0.0491717099,
				"element": "O" 
			},
			{
				"x": 0.6375945067,
				"y": 0.8798095108,
				"z": 0.3123583593,
				"element": "C" 
			},
			{
				"x": 1.3070605164,
				"y": 0.1945026571,
				"z": -0.7239938338,
				"element": "C" 
			},
			{
				"x": 2.4015627979,
				"y": 0.7718154573,
				"z": -1.376763594,
				"element": "C" 
			},
			{
				"x": 2.8545025371,
				"y": 2.0367966162,
				"z": -1.0119147078,
				"element": "C" 
			},
			{
				"x": 2.2070305781,
				"y": 2.7262129332,
				"z": 0.0116097349,
				"element": "C" 
			},
			{
				"x": 1.115809958,
				"y": 2.1499354114,
				"z": 0.6604126231,
				"element": "C" 
			},
			{
				"x": 0.8597529846,
				"y": -1.1753181868,
				"z": -1.1627509935,
				"element": "C" 
			},
			{
				"x": 0.8643696782,
				"y": -2.0721188969,
				"z": -0.1484793211,
				"element": "F" 
			},
			{
				"x": 1.6202865269,
				"y": -1.685325151,
				"z": -2.1456501322,
				"element": "F" 
			},
			{
				"x": -0.4275321547,
				"y": -1.16243838,
				"z": -1.6444270428,
				"element": "F" 
			},
			{
				"x": -0.9368747914,
				"y": -0.6512166829,
				"z": 3.0130923154,
				"element": "H" 
			},
			{
				"x": 0.2875678181,
				"y": 0.6287703264,
				"z": 3.0744446246,
				"element": "H" 
			},
			{
				"x": 0.6923680231,
				"y": -0.9514436172,
				"z": 2.3814456895,
				"element": "H" 
			},
			{
				"x": -0.9026380296,
				"y": -0.6023677481,
				"z": 0.5496906036,
				"element": "H" 
			},
			{
				"x": -1.5084669004,
				"y": 2.0755232824,
				"z": 1.9013582026,
				"element": "H" 
			},
			{
				"x": -2.5775978035,
				"y": 0.7156833414,
				"z": 1.6524649844,
				"element": "H" 
			},
			{
				"x": -1.7159629877,
				"y": 0.390751508,
				"z": -1.1222497783,
				"element": "H" 
			},
			{
				"x": 2.8935948205,
				"y": 0.2251223373,
				"z": -2.1723120253,
				"element": "H" 
			},
			{
				"x": 3.7026094965,
				"y": 2.4782988959,
				"z": -1.5254108336,
				"element": "H" 
			},
			{
				"x": 2.5462534704,
				"y": 3.7149871374,
				"z": 0.3055975736,
				"element": "H" 
			},
			{
				"x": 0.6230726412,
				"y": 2.7043560484,
				"z": 1.4528922847,
				"element": "H" 
			}
		],
		 "valence_orbital": [ 
			{
				"type": "occ",
				"energy": -0.34766,
				"method": "rhf"
			},
			{
				"type": "occ",
				"energy": -0.30532,
				"method": "rhf"
			},
			{
				"type": "occ",
				"energy": -0.27872,
				"method": "rhf"
			},
			{
				"type": "occ",
				"energy": -0.26904,
				"method": "rhf"
			},
			{
				"type": "occ",
				"energy": -0.26015,
				"method": "rhf"
			},
			{
				"type": "unocc",
				"energy": -0.04011,
				"method": "rhf"
			},
			{
				"type": "unocc",
				"energy": -0.02723,
				"method": "rhf"
			},
			{
				"type": "unocc",
				"energy": 0.01689,
				"method": "rhf"
			},
			{
				"type": "unocc",
				"energy": 0.06941,
				"method": "rhf"
			},
			{
				"type": "unocc",
				"energy": 0.08451,
				"method": "rhf"
			}
		],
		"cosmo_sigma_profile": { 
			"-0.025": 0.0,
			"-0.024": 0.0,
			"-0.023": 0.0,
			"-0.022": 0.0,
			"-0.021": 0.0,
			"-0.02": 0.0,
			"-0.019": 0.0,
			"-0.018": 0.0,
			"-0.017": 0.0,
			"-0.016": 0.0,
			"-0.015": 0.0,
			"-0.014": 0.152817026509,
			"-0.013": 0.5439549986,
			"-0.012": 0.850990485693,
			"-0.011": 0.667232593242,
			"-0.01": 0.498301765361,
			"-0.009": 0.833907902695,
			"-0.008": 2.03687341171,
			"-0.007": 10.0450784508,
			"-0.006": 14.1040743383,
			"-0.005": 16.2104165372,
			"-0.004": 16.4884165441,
			"-0.003": 17.1067091008,
			"-0.002": 17.2763384529,
			"-0.001": 18.8425571664,
			"0.0": 23.0741412966,
			"0.001": 20.9241530384,
			"0.002": 28.8437214241,
			"0.003": 17.6191427898,
			"0.004": 6.49872918379,
			"0.005": 2.07311380046,
			"0.006": 2.120029923,
			"0.007": 2.48452892541,
			"0.008": 2.10972818568,
			"0.009": 3.02772692157,
			"0.01": 3.76049300101,
			"0.011": 5.09522090572,
			"0.012": 6.27480426691,
			"0.013": 3.32057769558,
			"0.014": 0.30835797879,
			"0.015": 0.0,
			"0.016": 0.0,
			"0.017": 0.0,
			"0.018": 0.0,
			"0.019": 0.0,
			"0.02": 0.0,
			"0.021": 0.0,
			"0.022": 0.0,
			"0.023": 0.0,
			"0.024": 0.0,
			"0.025": 0.0
		}
	}
}
