{
	 "smiles": "OCCN(CCO)CCC1=CC=C(COC2=CC=CC=C2)C=C1", 
	 "Tm": 356.15, 
	 "num_atms": 48, 
	 "gaussian": { 
		 "optdone": 1, 
		 "sigma_profile": "yes", 
		 "theory": "DFT", 
		 "functional": "B3LYP", 
		 "basiset": "6-31G**", 
		 "properties": { 
			 "R2extent": 9479.6565, 
			 "electric_dipole_moment_norm": 1.26501258492, 
			 "electric_quadrupole_moment_norm": 9.62260241878, 
			 "total_energy": -1019.47078302, 
			 "HOMO_LUMO_gap": 0.18521, 
			 "cosmo_polarized_energy": -15.25, 
			 "cosmo_cavitation_energy": 49.21, 
			 "cosmo_dispersion_energy": -31.75, 
			 "cosmo_repulsion_energy": 2.46, 
			 "cosmo_total_nonelectrostatic_energy": 19.92, 
			 "SMD_solvation_energy": 7.31 
		},
		"coords": [
			{
				"x": -1.6496820373,
				"y": 1.7452265592,
				"z": -3.3104754166,
				"element": "O" 
			},
			{
				"x": -1.1244784542,
				"y": 1.3686131238,
				"z": -2.0347731562,
				"element": "C" 
			},
			{
				"x": -1.9804676616,
				"y": 0.2621234387,
				"z": -1.4305306179,
				"element": "C" 
			},
			{
				"x": -1.7508561147,
				"y": -1.0691657332,
				"z": -1.9912958611,
				"element": "N" 
			},
			{
				"x": -2.0863930172,
				"y": -1.2450709688,
				"z": -3.4059700661,
				"element": "C" 
			},
			{
				"x": -3.5282762729,
				"y": -0.9557362407,
				"z": -3.8300065787,
				"element": "C" 
			},
			{
				"x": -4.4082446997,
				"y": -1.8557586367,
				"z": -3.159096451,
				"element": "O" 
			},
			{
				"x": -2.1830649104,
				"y": -2.1580866881,
				"z": -1.106264165,
				"element": "C" 
			},
			{
				"x": -1.0015915949,
				"y": -2.8374561026,
				"z": -0.3680686882,
				"element": "C" 
			},
			{
				"x": -0.2063590965,
				"y": -1.9068221972,
				"z": 0.5171903564,
				"element": "C" 
			},
			{
				"x": -0.6153830964,
				"y": -1.6274375111,
				"z": 1.8285735849,
				"element": "C" 
			},
			{
				"x": 0.0724290089,
				"y": -0.7034168031,
				"z": 2.6159145385,
				"element": "C" 
			},
			{
				"x": 1.1998692344,
				"y": -0.0407850844,
				"z": 2.118166645,
				"element": "C" 
			},
			{
				"x": 1.9630693083,
				"y": 0.9385979632,
				"z": 2.9880150404,
				"element": "C" 
			},
			{
				"x": 2.5826801123,
				"y": 2.0009545363,
				"z": 2.2636321497,
				"element": "O" 
			},
			{
				"x": 1.812467126,
				"y": 3.0283628934,
				"z": 1.7863829518,
				"element": "C" 
			},
			{
				"x": 2.5210928059,
				"y": 4.0675457034,
				"z": 1.1651936853,
				"element": "C" 
			},
			{
				"x": 1.8404878195,
				"y": 5.1666757494,
				"z": 0.6521205085,
				"element": "C" 
			},
			{
				"x": 0.4472700593,
				"y": 5.2484887237,
				"z": 0.7493986311,
				"element": "C" 
			},
			{
				"x": -0.2517875627,
				"y": 4.2124387286,
				"z": 1.3661424469,
				"element": "C" 
			},
			{
				"x": 0.4175378203,
				"y": 3.0990675152,
				"z": 1.8854584201,
				"element": "C" 
			},
			{
				"x": 1.6291643602,
				"y": -0.3325183349,
				"z": 0.8187740369,
				"element": "C" 
			},
			{
				"x": 0.9331644912,
				"y": -1.2485919097,
				"z": 0.0318407281,
				"element": "C" 
			},
			{
				"x": -1.0654503554,
				"y": 2.4153672066,
				"z": -3.6856627615,
				"element": "H" 
			},
			{
				"x": -0.0878805195,
				"y": 1.0114226011,
				"z": -2.1161073893,
				"element": "H" 
			},
			{
				"x": -1.132787912,
				"y": 2.2288391594,
				"z": -1.3476281835,
				"element": "H" 
			},
			{
				"x": -1.7211258476,
				"y": 0.2114708545,
				"z": -0.3696403588,
				"element": "H" 
			},
			{
				"x": -3.0395894053,
				"y": 0.5777522758,
				"z": -1.4807509575,
				"element": "H" 
			},
			{
				"x": -1.8413246664,
				"y": -2.2785819166,
				"z": -3.677293339,
				"element": "H" 
			},
			{
				"x": -1.4454830757,
				"y": -0.590776961,
				"z": -4.0045611778,
				"element": "H" 
			},
			{
				"x": -3.7753700728,
				"y": 0.090628344,
				"z": -3.6061859933,
				"element": "H" 
			},
			{
				"x": -3.5911844151,
				"y": -1.0778477158,
				"z": -4.9246313682,
				"element": "H" 
			},
			{
				"x": -5.3146834143,
				"y": -1.5779343066,
				"z": -3.3371465366,
				"element": "H" 
			},
			{
				"x": -2.7067470812,
				"y": -2.9183148435,
				"z": -1.690267369,
				"element": "H" 
			},
			{
				"x": -2.9152807278,
				"y": -1.7981624557,
				"z": -0.3689491359,
				"element": "H" 
			},
			{
				"x": -0.3400515445,
				"y": -3.2812606466,
				"z": -1.1206922079,
				"element": "H" 
			},
			{
				"x": -1.4081185908,
				"y": -3.6635202715,
				"z": 0.2304981776,
				"element": "H" 
			},
			{
				"x": -1.4918436089,
				"y": -2.1282283562,
				"z": 2.2338249577,
				"element": "H" 
			},
			{
				"x": -0.2742860635,
				"y": -0.4949869453,
				"z": 3.6262395766,
				"element": "H" 
			},
			{
				"x": 2.8025292323,
				"y": 0.4365281792,
				"z": 3.4815375569,
				"element": "H" 
			},
			{
				"x": 1.3132231973,
				"y": 1.3406436617,
				"z": 3.7771526454,
				"element": "H" 
			},
			{
				"x": 3.6018576515,
				"y": 3.9904442055,
				"z": 1.1028983486,
				"element": "H" 
			},
			{
				"x": 2.4016423453,
				"y": 5.9661495305,
				"z": 0.1761899873,
				"element": "H" 
			},
			{
				"x": -0.0825123023,
				"y": 6.1079783943,
				"z": 0.350369531,
				"element": "H" 
			},
			{
				"x": -1.3342415641,
				"y": 4.2603829873,
				"z": 1.4488712091,
				"element": "H" 
			},
			{
				"x": -0.1500787734,
				"y": 2.2967063934,
				"z": 2.3398460925,
				"element": "H" 
			},
			{
				"x": 2.5035500544,
				"y": 0.1748291292,
				"z": 0.4222971476,
				"element": "H" 
			},
			{
				"x": 1.2668898318,
				"y": -1.451477228,
				"z": -0.9816311749,
				"element": "H" 
			}
		],
		 "valence_orbital": [ 
			{
				"type": "occ",
				"energy": -0.24838,
				"method": "rhf"
			},
			{
				"type": "occ",
				"energy": -0.24594,
				"method": "rhf"
			},
			{
				"type": "occ",
				"energy": -0.23226,
				"method": "rhf"
			},
			{
				"type": "occ",
				"energy": -0.21662,
				"method": "rhf"
			},
			{
				"type": "occ",
				"energy": -0.18917,
				"method": "rhf"
			},
			{
				"type": "unocc",
				"energy": -0.00396,
				"method": "rhf"
			},
			{
				"type": "unocc",
				"energy": -0.00105,
				"method": "rhf"
			},
			{
				"type": "unocc",
				"energy": 0.00569,
				"method": "rhf"
			},
			{
				"type": "unocc",
				"energy": 0.01586,
				"method": "rhf"
			},
			{
				"type": "unocc",
				"energy": 0.07473,
				"method": "rhf"
			}
		],
		"cosmo_sigma_profile": { 
			"-0.025": 0.0,
			"-0.024": 0.0,
			"-0.023": 0.0,
			"-0.022": 0.0,
			"-0.021": 0.0,
			"-0.02": 0.0,
			"-0.019": 0.0,
			"-0.018": 0.0,
			"-0.017": 0.0,
			"-0.016": 0.244581169942,
			"-0.015": 1.85394304321,
			"-0.014": 2.44036954437,
			"-0.013": 1.57948846233,
			"-0.012": 1.70345472967,
			"-0.011": 1.92291038351,
			"-0.01": 1.40064149806,
			"-0.009": 1.50097123147,
			"-0.008": 1.19772756031,
			"-0.007": 2.30100622042,
			"-0.006": 11.27915672,
			"-0.005": 21.5076023997,
			"-0.004": 24.8950934538,
			"-0.003": 34.9190094382,
			"-0.002": 40.6303721854,
			"-0.001": 44.5464485484,
			"0.0": 31.5720934704,
			"0.001": 28.0286990942,
			"0.002": 23.8591439913,
			"0.003": 21.4784424626,
			"0.004": 23.0672968477,
			"0.005": 19.0371355017,
			"0.006": 16.799607221,
			"0.007": 6.31543341644,
			"0.008": 4.11134384801,
			"0.009": 4.91584952551,
			"0.01": 5.12386118507,
			"0.011": 3.00229841787,
			"0.012": 1.95570674017,
			"0.013": 1.44596596871,
			"0.014": 0.657468559755,
			"0.015": 0.168037257784,
			"0.016": 0.0,
			"0.017": 0.0,
			"0.018": 0.0,
			"0.019": 0.0,
			"0.02": 0.0,
			"0.021": 0.0,
			"0.022": 0.0,
			"0.023": 0.0,
			"0.024": 0.0,
			"0.025": 0.0
		}
	}
}
