{
	 "smiles": "O=C1OCCN1CC1=C(C=CC=C1)C#N", 
	 "Tm": 365.15, 
	 "num_atms": 25, 
	 "gaussian": { 
		 "optdone": 1, 
		 "sigma_profile": "yes", 
		 "theory": "DFT", 
		 "functional": "B3LYP", 
		 "basiset": "6-31G**", 
		 "properties": { 
			 "R2extent": 3705.357, 
			 "electric_dipole_moment_norm": 2.91044557757, 
			 "electric_quadrupole_moment_norm": 28.6871042402, 
			 "total_energy": -685.145654252, 
			 "HOMO_LUMO_gap": 0.19656, 
			 "cosmo_polarized_energy": -16.18, 
			 "cosmo_cavitation_energy": 30.1, 
			 "cosmo_dispersion_energy": -20.79, 
			 "cosmo_repulsion_energy": 1.63, 
			 "cosmo_total_nonelectrostatic_energy": 10.94, 
			 "SMD_solvation_energy": 6.92 
		},
		"coords": [
			{
				"x": -0.5677491005,
				"y": 2.1844231847,
				"z": -0.0698045012,
				"element": "O" 
			},
			{
				"x": -0.0695810763,
				"y": 1.2910278117,
				"z": -0.7188931401,
				"element": "C" 
			},
			{
				"x": 0.9041433056,
				"y": 1.4858963345,
				"z": -1.6597196173,
				"element": "O" 
			},
			{
				"x": 1.3799706379,
				"y": 0.2108480968,
				"z": -2.1278931427,
				"element": "C" 
			},
			{
				"x": 0.3048358955,
				"y": -0.8065126273,
				"z": -1.697264621,
				"element": "C" 
			},
			{
				"x": -0.3615894029,
				"y": -0.050527303,
				"z": -0.6515898815,
				"element": "N" 
			},
			{
				"x": -1.4868181497,
				"y": -0.5371102242,
				"z": 0.1323725923,
				"element": "C" 
			},
			{
				"x": -1.0608156046,
				"y": -1.1512985,
				"z": 1.4552407429,
				"element": "C" 
			},
			{
				"x": -0.9933363961,
				"y": -2.5468394003,
				"z": 1.6514688744,
				"element": "C" 
			},
			{
				"x": -0.5842373369,
				"y": -3.0786730784,
				"z": 2.8881909467,
				"element": "C" 
			},
			{
				"x": -0.2371119776,
				"y": -2.2245691868,
				"z": 3.9288621358,
				"element": "C" 
			},
			{
				"x": -0.2930947157,
				"y": -0.8403415694,
				"z": 3.7405210005,
				"element": "C" 
			},
			{
				"x": -0.7009258843,
				"y": -0.3131430367,
				"z": 2.5160844302,
				"element": "C" 
			},
			{
				"x": -1.3291456314,
				"y": -3.4454018445,
				"z": 0.5834377972,
				"element": "C" 
			},
			{
				"x": -1.5881833041,
				"y": -4.1667018454,
				"z": -0.292696616,
				"element": "N" 
			},
			{
				"x": 1.5147070935,
				"y": 0.2669288032,
				"z": -3.2094944584,
				"element": "H" 
			},
			{
				"x": 2.3458766095,
				"y": 0.004353218,
				"z": -1.6542658945,
				"element": "H" 
			},
			{
				"x": -0.3883123131,
				"y": -1.0597206541,
				"z": -2.5124536135,
				"element": "H" 
			},
			{
				"x": 0.7421510932,
				"y": -1.7369111357,
				"z": -1.3222411987,
				"element": "H" 
			},
			{
				"x": -2.0502950536,
				"y": -1.2582027778,
				"z": -0.4680239954,
				"element": "H" 
			},
			{
				"x": -2.1309429808,
				"y": 0.3246743826,
				"z": 0.3279327842,
				"element": "H" 
			},
			{
				"x": -0.5431466669,
				"y": -4.1552506869,
				"z": 3.01615901,
				"element": "H" 
			},
			{
				"x": 0.0759552618,
				"y": -2.6359208508,
				"z": 4.8833445713,
				"element": "H" 
			},
			{
				"x": -0.021643896,
				"y": -0.170759272,
				"z": 4.5512209781,
				"element": "H" 
			},
			{
				"x": -0.7398104063,
				"y": 0.7618321619,
				"z": 2.3638048164,
				"element": "H" 
			}
		],
		 "valence_orbital": [ 
			{
				"type": "occ",
				"energy": -0.29581,
				"method": "rhf"
			},
			{
				"type": "occ",
				"energy": -0.281,
				"method": "rhf"
			},
			{
				"type": "occ",
				"energy": -0.27503,
				"method": "rhf"
			},
			{
				"type": "occ",
				"energy": -0.27055,
				"method": "rhf"
			},
			{
				"type": "occ",
				"energy": -0.2532,
				"method": "rhf"
			},
			{
				"type": "unocc",
				"energy": -0.05664,
				"method": "rhf"
			},
			{
				"type": "unocc",
				"energy": -0.03093,
				"method": "rhf"
			},
			{
				"type": "unocc",
				"energy": 0.02712,
				"method": "rhf"
			},
			{
				"type": "unocc",
				"energy": 0.04722,
				"method": "rhf"
			},
			{
				"type": "unocc",
				"energy": 0.07071,
				"method": "rhf"
			}
		],
		"cosmo_sigma_profile": { 
			"-0.025": 0.0,
			"-0.024": 0.0,
			"-0.023": 0.0,
			"-0.022": 0.0,
			"-0.021": 0.0,
			"-0.02": 0.0,
			"-0.019": 0.0,
			"-0.018": 0.0,
			"-0.017": 0.0,
			"-0.016": 0.0,
			"-0.015": 0.0,
			"-0.014": 0.0,
			"-0.013": 0.0,
			"-0.012": 0.0,
			"-0.011": 0.0,
			"-0.01": 0.0,
			"-0.009": 0.0485122758351,
			"-0.008": 2.08084683346,
			"-0.007": 11.3200287766,
			"-0.006": 26.924644097,
			"-0.005": 27.3493377687,
			"-0.004": 21.4735475211,
			"-0.003": 16.7504654345,
			"-0.002": 13.7148897192,
			"-0.001": 13.193353088,
			"0.0": 12.9569431893,
			"0.001": 13.6933226939,
			"0.002": 14.3460468095,
			"0.003": 13.5998019005,
			"0.004": 4.37310597996,
			"0.005": 3.88085827061,
			"0.006": 3.89025681598,
			"0.007": 5.33577278419,
			"0.008": 4.63854035069,
			"0.009": 5.96390661614,
			"0.01": 7.05861940534,
			"0.011": 5.66108791658,
			"0.012": 5.84998809907,
			"0.013": 5.82038571706,
			"0.014": 1.40575092499,
			"0.015": 0.00116000576581,
			"0.016": 0.0,
			"0.017": 0.0,
			"0.018": 0.0,
			"0.019": 0.0,
			"0.02": 0.0,
			"0.021": 0.0,
			"0.022": 0.0,
			"0.023": 0.0,
			"0.024": 0.0,
			"0.025": 0.0
		}
	}
}
