{
	 "smiles": "CC1=CC=CN1", 
	 "Tm": 237.55, 
	 "num_atms": 13, 
	 "gaussian": { 
		 "optdone": 1, 
		 "sigma_profile": "yes", 
		 "theory": "DFT", 
		 "functional": "B3LYP", 
		 "basiset": "6-31G**", 
		 "properties": { 
			 "R2extent": 1336.0919, 
			 "electric_dipole_moment_norm": 1.96227711855, 
			 "electric_quadrupole_moment_norm": 8.98725526732, 
			 "total_energy": -249.493886475, 
			 "HOMO_LUMO_gap": 0.24198, 
			 "cosmo_polarized_energy": -6.67, 
			 "cosmo_cavitation_energy": 16.18, 
			 "cosmo_dispersion_energy": -12.28, 
			 "cosmo_repulsion_energy": 1.07, 
			 "cosmo_total_nonelectrostatic_energy": 4.96, 
			 "SMD_solvation_energy": 3.31 
		},
		"coords": [
			{
				"x": 0.3352324131,
				"y": 1.2833165794,
				"z": 0.7538469468,
				"element": "C" 
			},
			{
				"x": -0.5419618502,
				"y": 1.6267259954,
				"z": -0.4079653111,
				"element": "C" 
			},
			{
				"x": -0.8126177595,
				"y": 0.942818841,
				"z": -1.5767928004,
				"element": "C" 
			},
			{
				"x": -1.723167681,
				"y": 1.7256537697,
				"z": -2.3457630074,
				"element": "C" 
			},
			{
				"x": -1.9870450356,
				"y": 2.8697726208,
				"z": -1.6272277517,
				"element": "C" 
			},
			{
				"x": -1.2664221365,
				"y": 2.799774556,
				"z": -0.4548769781,
				"element": "N" 
			},
			{
				"x": 1.1337371084,
				"y": 2.0214081851,
				"z": 0.9052891782,
				"element": "H" 
			},
			{
				"x": -0.2274481072,
				"y": 1.212426892,
				"z": 1.6938935351,
				"element": "H" 
			},
			{
				"x": 0.812260955,
				"y": 0.315070341,
				"z": 0.5839509348,
				"element": "H" 
			},
			{
				"x": -0.3969926943,
				"y": -0.0188332015,
				"z": -1.8459151515,
				"element": "H" 
			},
			{
				"x": -2.1358818031,
				"y": 1.4770279436,
				"z": -3.3135137251,
				"element": "H" 
			},
			{
				"x": -2.6180349718,
				"y": 3.7185138909,
				"z": -1.8456754752,
				"element": "H" 
			},
			{
				"x": -1.2667584373,
				"y": 3.5031235865,
				"z": 0.2663496057,
				"element": "H" 
			}
		],
		 "valence_orbital": [ 
			{
				"type": "occ",
				"energy": -0.3721,
				"method": "rhf"
			},
			{
				"type": "occ",
				"energy": -0.37155,
				"method": "rhf"
			},
			{
				"type": "occ",
				"energy": -0.35135,
				"method": "rhf"
			},
			{
				"type": "occ",
				"energy": -0.22951,
				"method": "rhf"
			},
			{
				"type": "occ",
				"energy": -0.19279,
				"method": "rhf"
			},
			{
				"type": "unocc",
				"energy": 0.04919,
				"method": "rhf"
			},
			{
				"type": "unocc",
				"energy": 0.08213,
				"method": "rhf"
			},
			{
				"type": "unocc",
				"energy": 0.09867,
				"method": "rhf"
			},
			{
				"type": "unocc",
				"energy": 0.1237,
				"method": "rhf"
			},
			{
				"type": "unocc",
				"energy": 0.14943,
				"method": "rhf"
			}
		],
		"cosmo_sigma_profile": { 
			"-0.025": 0.0,
			"-0.024": 0.0,
			"-0.023": 0.0,
			"-0.022": 0.0,
			"-0.021": 0.0,
			"-0.02": 0.0,
			"-0.019": 0.0,
			"-0.018": 0.0,
			"-0.017": 0.0,
			"-0.016": 0.0,
			"-0.015": 0.55844724707,
			"-0.014": 1.2912498023,
			"-0.013": 1.45400816366,
			"-0.012": 1.3991912386,
			"-0.011": 0.799518921287,
			"-0.01": 0.974693675201,
			"-0.009": 1.33616290548,
			"-0.008": 1.05953228506,
			"-0.007": 1.74410394104,
			"-0.006": 3.74559782105,
			"-0.005": 3.95274860217,
			"-0.004": 11.1246537312,
			"-0.003": 11.2601419109,
			"-0.002": 11.9506307971,
			"-0.001": 10.354526143,
			"0.0": 12.6677458709,
			"0.001": 8.16694394551,
			"0.002": 5.50677290212,
			"0.003": 4.69586490582,
			"0.004": 5.49930028001,
			"0.005": 4.36860155164,
			"0.006": 5.31336273519,
			"0.007": 5.09469311322,
			"0.008": 5.33864490478,
			"0.009": 4.99574603029,
			"0.01": 3.35381648181,
			"0.011": 0.147553532625,
			"0.012": 0.0,
			"0.013": 0.0,
			"0.014": 0.0,
			"0.015": 0.0,
			"0.016": 0.0,
			"0.017": 0.0,
			"0.018": 0.0,
			"0.019": 0.0,
			"0.02": 0.0,
			"0.021": 0.0,
			"0.022": 0.0,
			"0.023": 0.0,
			"0.024": 0.0,
			"0.025": 0.0
		}
	}
}
