{
	 "smiles": "OC(=O)C1=C(N=CC=C1)N1C=CN=C1", 
	 "Tm": 453.15, 
	 "num_atms": 21, 
	 "gaussian": { 
		 "optdone": 1, 
		 "sigma_profile": "yes", 
		 "theory": "DFT", 
		 "functional": "B3LYP", 
		 "basiset": "6-31G**", 
		 "properties": { 
			 "R2extent": 2797.2296, 
			 "electric_dipole_moment_norm": 3.6415723939, 
			 "electric_quadrupole_moment_norm": 22.6447021619, 
			 "total_energy": -661.870366095, 
			 "HOMO_LUMO_gap": 0.15908, 
			 "cosmo_polarized_energy": -16.22, 
			 "cosmo_cavitation_energy": 26.18, 
			 "cosmo_dispersion_energy": -19.07, 
			 "cosmo_repulsion_energy": 1.48, 
			 "cosmo_total_nonelectrostatic_energy": 8.58, 
			 "SMD_solvation_energy": 3.92 
		},
		"coords": [
			{
				"x": -1.0573425917,
				"y": -0.884824773,
				"z": -0.4944647804,
				"element": "O" 
			},
			{
				"x": -0.3527191321,
				"y": -0.362560339,
				"z": -1.5189460583,
				"element": "C" 
			},
			{
				"x": -0.3148215281,
				"y": -0.8761939753,
				"z": -2.6190167511,
				"element": "O" 
			},
			{
				"x": 0.2938783979,
				"y": 0.9449328399,
				"z": -1.195876941,
				"element": "C" 
			},
			{
				"x": 0.7299973506,
				"y": 1.3980723446,
				"z": 0.0706426619,
				"element": "C" 
			},
			{
				"x": 1.1027584744,
				"y": 2.6626719419,
				"z": 0.2899253217,
				"element": "N" 
			},
			{
				"x": 1.1234667215,
				"y": 3.5163528757,
				"z": -0.7346561421,
				"element": "C" 
			},
			{
				"x": 0.8371541789,
				"y": 3.1440359025,
				"z": -2.0486416399,
				"element": "C" 
			},
			{
				"x": 0.4111016865,
				"y": 1.8407233564,
				"z": -2.2679462818,
				"element": "C" 
			},
			{
				"x": 0.8515728835,
				"y": 0.5576145466,
				"z": 1.1970699518,
				"element": "N" 
			},
			{
				"x": 1.2673533788,
				"y": -0.7691830352,
				"z": 1.2547247955,
				"element": "C" 
			},
			{
				"x": 1.3225685914,
				"y": -1.0784366747,
				"z": 2.5836843464,
				"element": "C" 
			},
			{
				"x": 0.9524566737,
				"y": 0.006519518,
				"z": 3.3595385534,
				"element": "N" 
			},
			{
				"x": 0.6943595566,
				"y": 0.9663601009,
				"z": 2.5106028105,
				"element": "C" 
			},
			{
				"x": -1.4514628061,
				"y": -1.7091384024,
				"z": -0.8267085924,
				"element": "H" 
			},
			{
				"x": 1.4021496723,
				"y": 4.5401409806,
				"z": -0.4934053017,
				"element": "H" 
			},
			{
				"x": 0.9203637911,
				"y": 3.8575304222,
				"z": -2.8608860665,
				"element": "H" 
			},
			{
				"x": 0.1270075667,
				"y": 1.4923072811,
				"z": -3.2552698831,
				"element": "H" 
			},
			{
				"x": 1.5049634097,
				"y": -1.3351470899,
				"z": 0.3693804599,
				"element": "H" 
			},
			{
				"x": 1.614150907,
				"y": -2.018068142,
				"z": 3.0319495602,
				"element": "H" 
			},
			{
				"x": 0.3859428175,
				"y": 1.973690321,
				"z": 2.745399977,
				"element": "H" 
			}
		],
		 "valence_orbital": [ 
			{
				"type": "occ",
				"energy": -0.2992,
				"method": "rhf"
			},
			{
				"type": "occ",
				"energy": -0.2827,
				"method": "rhf"
			},
			{
				"type": "occ",
				"energy": -0.26661,
				"method": "rhf"
			},
			{
				"type": "occ",
				"energy": -0.25836,
				"method": "rhf"
			},
			{
				"type": "occ",
				"energy": -0.22901,
				"method": "rhf"
			},
			{
				"type": "unocc",
				"energy": -0.06993,
				"method": "rhf"
			},
			{
				"type": "unocc",
				"energy": -0.04914,
				"method": "rhf"
			},
			{
				"type": "unocc",
				"energy": 0.02002,
				"method": "rhf"
			},
			{
				"type": "unocc",
				"energy": 0.03356,
				"method": "rhf"
			},
			{
				"type": "unocc",
				"energy": 0.06465,
				"method": "rhf"
			}
		],
		"cosmo_sigma_profile": { 
			"-0.025": 0.0,
			"-0.024": 0.0,
			"-0.023": 0.0,
			"-0.022": 0.0,
			"-0.021": 0.0,
			"-0.02": 0.0,
			"-0.019": 0.445432151341,
			"-0.018": 0.95353397218,
			"-0.017": 0.792720931808,
			"-0.016": 0.936328220988,
			"-0.015": 1.21200547546,
			"-0.014": 0.656300732322,
			"-0.013": 0.16172375508,
			"-0.012": 0.41630989881,
			"-0.011": 0.823317607723,
			"-0.01": 1.50190818755,
			"-0.009": 3.34344683179,
			"-0.008": 8.0598957715,
			"-0.007": 11.896091368,
			"-0.006": 11.7775941557,
			"-0.005": 9.43056058487,
			"-0.004": 11.4225173264,
			"-0.003": 12.7200481339,
			"-0.002": 13.2247550126,
			"-0.001": 14.5675642083,
			"0.0": 17.5917139608,
			"0.001": 12.5405469165,
			"0.002": 9.10948878626,
			"0.003": 9.1969400404,
			"0.004": 7.33369282853,
			"0.005": 9.1648948773,
			"0.006": 6.86643989705,
			"0.007": 5.41395867105,
			"0.008": 5.97769531654,
			"0.009": 4.05955368612,
			"0.01": 3.98878452485,
			"0.011": 7.40686472021,
			"0.012": 2.41004042698,
			"0.013": 1.19147314551,
			"0.014": 1.15644057126,
			"0.015": 1.2342194517,
			"0.016": 0.977400646704,
			"0.017": 1.0414284144,
			"0.018": 0.139868127552,
			"0.019": 0.0,
			"0.02": 0.0,
			"0.021": 0.0,
			"0.022": 0.0,
			"0.023": 0.0,
			"0.024": 0.0,
			"0.025": 0.0
		}
	}
}
