{
	 "smiles": "CC1=NN=C2N1N=C(Cl)C=C2N", 
	 "Tm": 501.15, 
	 "num_atms": 18, 
	 "gaussian": { 
		 "optdone": 1, 
		 "sigma_profile": "yes", 
		 "theory": "DFT", 
		 "functional": "B3LYP", 
		 "basiset": "6-31G**", 
		 "properties": { 
			 "R2extent": 2649.2996, 
			 "electric_dipole_moment_norm": 3.66188363278, 
			 "electric_quadrupole_moment_norm": 19.7373750955, 
			 "total_energy": -966.165867781, 
			 "HOMO_LUMO_gap": 0.17762, 
			 "cosmo_polarized_energy": -16.66, 
			 "cosmo_cavitation_energy": 24.55, 
			 "cosmo_dispersion_energy": -18.64, 
			 "cosmo_repulsion_energy": 1.5, 
			 "cosmo_total_nonelectrostatic_energy": 7.41, 
			 "SMD_solvation_energy": 1.35 
		},
		"coords": [
			{
				"x": 0.8483275248,
				"y": -2.4041822842,
				"z": 1.7093747478,
				"element": "C" 
			},
			{
				"x": -0.0194524055,
				"y": -1.3886663356,
				"z": 1.0574837475,
				"element": "C" 
			},
			{
				"x": -1.2733207463,
				"y": -1.5455555247,
				"z": 0.660563329,
				"element": "N" 
			},
			{
				"x": -1.7188299197,
				"y": -0.3727749999,
				"z": 0.1074391056,
				"element": "N" 
			},
			{
				"x": -0.7159742776,
				"y": 0.4829195401,
				"z": 0.1799182953,
				"element": "C" 
			},
			{
				"x": 0.3809442063,
				"y": -0.1082037194,
				"z": 0.7714727953,
				"element": "N" 
			},
			{
				"x": 1.5947665149,
				"y": 0.4611169837,
				"z": 1.0157475339,
				"element": "N" 
			},
			{
				"x": 1.6435675922,
				"y": 1.7044921591,
				"z": 0.616213078,
				"element": "C" 
			},
			{
				"x": 3.1741875485,
				"y": 2.5109963471,
				"z": 0.8945503095,
				"element": "Cl" 
			},
			{
				"x": 0.6134296029,
				"y": 2.4587596775,
				"z": -0.0060984073,
				"element": "C" 
			},
			{
				"x": -0.609718673,
				"y": 1.8469832398,
				"z": -0.2395098672,
				"element": "C" 
			},
			{
				"x": -1.6919019936,
				"y": 2.4124178235,
				"z": -0.8174242964,
				"element": "N" 
			},
			{
				"x": 0.2821836587,
				"y": -3.3305136455,
				"z": 1.8145677169,
				"element": "H" 
			},
			{
				"x": 1.1764601079,
				"y": -2.0683166415,
				"z": 2.6985283378,
				"element": "H" 
			},
			{
				"x": 1.7474080879,
				"y": -2.5968806336,
				"z": 1.1149249289,
				"element": "H" 
			},
			{
				"x": 0.7985510623,
				"y": 3.4881140001,
				"z": -0.284977749,
				"element": "H" 
			},
			{
				"x": -2.5267172535,
				"y": 1.8576108066,
				"z": -0.9294805917,
				"element": "H" 
			},
			{
				"x": -1.6848106373,
				"y": 3.3670832069,
				"z": -1.1336930139,
				"element": "H" 
			}
		],
		 "valence_orbital": [ 
			{
				"type": "occ",
				"energy": -0.30835,
				"method": "rhf"
			},
			{
				"type": "occ",
				"energy": -0.28291,
				"method": "rhf"
			},
			{
				"type": "occ",
				"energy": -0.26501,
				"method": "rhf"
			},
			{
				"type": "occ",
				"energy": -0.25663,
				"method": "rhf"
			},
			{
				"type": "occ",
				"energy": -0.22891,
				"method": "rhf"
			},
			{
				"type": "unocc",
				"energy": -0.05129,
				"method": "rhf"
			},
			{
				"type": "unocc",
				"energy": -0.01145,
				"method": "rhf"
			},
			{
				"type": "unocc",
				"energy": 0.01921,
				"method": "rhf"
			},
			{
				"type": "unocc",
				"energy": 0.04392,
				"method": "rhf"
			},
			{
				"type": "unocc",
				"energy": 0.05782,
				"method": "rhf"
			}
		],
		"cosmo_sigma_profile": { 
			"-0.025": 0.0,
			"-0.024": 0.0,
			"-0.023": 0.0,
			"-0.022": 0.0,
			"-0.021": 0.0,
			"-0.02": 0.0,
			"-0.019": 0.0,
			"-0.018": 0.0,
			"-0.017": 0.0,
			"-0.016": 0.731188620024,
			"-0.015": 1.98454507611,
			"-0.014": 1.93952990157,
			"-0.013": 2.49378058687,
			"-0.012": 2.65380090385,
			"-0.011": 2.95420866109,
			"-0.01": 2.15506141046,
			"-0.009": 2.41513239984,
			"-0.008": 2.76252263681,
			"-0.007": 2.59568442295,
			"-0.006": 6.10521977564,
			"-0.005": 8.45919001439,
			"-0.004": 12.093197612,
			"-0.003": 15.2973816923,
			"-0.002": 17.0879297468,
			"-0.001": 18.7185425039,
			"0.0": 15.7724440487,
			"0.001": 12.7389466556,
			"0.002": 11.1884685894,
			"0.003": 12.8072534945,
			"0.004": 9.58230322981,
			"0.005": 3.93366832674,
			"0.006": 4.13235535224,
			"0.007": 3.5912148251,
			"0.008": 3.56084949947,
			"0.009": 2.34718476442,
			"0.01": 3.51115997755,
			"0.011": 2.87674354371,
			"0.012": 3.07421052562,
			"0.013": 3.43990366884,
			"0.014": 2.89956821137,
			"0.015": 1.93584723212,
			"0.016": 1.15642130398,
			"0.017": 0.214741257273,
			"0.018": 0.0,
			"0.019": 0.0,
			"0.02": 0.0,
			"0.021": 0.0,
			"0.022": 0.0,
			"0.023": 0.0,
			"0.024": 0.0,
			"0.025": 0.0
		}
	}
}
