{
	 "smiles": "CC(O)[C@@]1(O)CC2C3CCC4(C)C[C@H](O)CCC4(C)C3CCC2(C)C1", 
	 "Tm": 493.15, 
	 "num_atms": 63, 
	 "gaussian": { 
		 "optdone": 1, 
		 "sigma_profile": "yes", 
		 "theory": "DFT", 
		 "functional": "B3LYP", 
		 "basiset": "6-31G**", 
		 "properties": { 
			 "R2extent": 10272.5158, 
			 "electric_dipole_moment_norm": 2.8390489869, 
			 "electric_quadrupole_moment_norm": 17.8982082844, 
			 "total_energy": -1086.91767914, 
			 "HOMO_LUMO_gap": 0.30442, 
			 "cosmo_polarized_energy": -13.44, 
			 "cosmo_cavitation_energy": 50.96, 
			 "cosmo_dispersion_energy": -35.49, 
			 "cosmo_repulsion_energy": 2.58, 
			 "cosmo_total_nonelectrostatic_energy": 18.05, 
			 "SMD_solvation_energy": 7.12 
		},
		"coords": [
			{
				"x": 4.0099696421,
				"y": 2.3005545673,
				"z": 0.4113049197,
				"element": "C" 
			},
			{
				"x": 3.5231798139,
				"y": 2.8351382622,
				"z": -0.9336569151,
				"element": "C" 
			},
			{
				"x": 3.7903265877,
				"y": 4.2466631998,
				"z": -1.0394038829,
				"element": "O" 
			},
			{
				"x": 2.0181823579,
				"y": 2.7015151805,
				"z": -1.2403347924,
				"element": "C" 
			},
			{
				"x": 1.8089960223,
				"y": 3.2856021825,
				"z": -2.5345578323,
				"element": "O" 
			},
			{
				"x": 1.4960319576,
				"y": 1.2642215708,
				"z": -1.3328325993,
				"element": "C" 
			},
			{
				"x": -0.043142244,
				"y": 1.4367067556,
				"z": -1.3727478626,
				"element": "C" 
			},
			{
				"x": -0.9084512391,
				"y": 0.1733872482,
				"z": -1.0813061522,
				"element": "C" 
			},
			{
				"x": -0.3671087402,
				"y": -1.0208580291,
				"z": -1.9081417748,
				"element": "C" 
			},
			{
				"x": -0.9387856086,
				"y": -2.4245896682,
				"z": -1.5812212308,
				"element": "C" 
			},
			{
				"x": -1.6470073224,
				"y": -2.5508465769,
				"z": -0.2043183522,
				"element": "C" 
			},
			{
				"x": -3.1356571334,
				"y": -2.1608291058,
				"z": -0.4210458472,
				"element": "C" 
			},
			{
				"x": -1.5905443779,
				"y": -4.032723262,
				"z": 0.2557793871,
				"element": "C" 
			},
			{
				"x": -2.1202751536,
				"y": -4.316998993,
				"z": 1.6727308192,
				"element": "C" 
			},
			{
				"x": -3.5412696206,
				"y": -4.1812805899,
				"z": 1.7848936743,
				"element": "O" 
			},
			{
				"x": -1.5055847075,
				"y": -3.3616097274,
				"z": 2.6974229063,
				"element": "C" 
			},
			{
				"x": -1.5651546126,
				"y": -1.8898714702,
				"z": 2.2576556173,
				"element": "C" 
			},
			{
				"x": -0.9318161425,
				"y": -1.6260278787,
				"z": 0.8612481288,
				"element": "C" 
			},
			{
				"x": 0.5846782981,
				"y": -1.9286080265,
				"z": 0.9707517595,
				"element": "C" 
			},
			{
				"x": -1.1763331769,
				"y": -0.1395782367,
				"z": 0.4443358491,
				"element": "C" 
			},
			{
				"x": -0.5642679459,
				"y": 0.9343758414,
				"z": 1.3636171607,
				"element": "C" 
			},
			{
				"x": -1.0040538019,
				"y": 2.3173256266,
				"z": 0.867643497,
				"element": "C" 
			},
			{
				"x": -0.3418831385,
				"y": 2.7045279944,
				"z": -0.4766306935,
				"element": "C" 
			},
			{
				"x": -1.2409391461,
				"y": 3.6966399361,
				"z": -1.2332202047,
				"element": "C" 
			},
			{
				"x": 1.0642357704,
				"y": 3.3325785533,
				"z": -0.2112097655,
				"element": "C" 
			},
			{
				"x": 5.0955579033,
				"y": 2.4285468433,
				"z": 0.4942119505,
				"element": "H" 
			},
			{
				"x": 3.7998760038,
				"y": 1.2326189186,
				"z": 0.5226668902,
				"element": "H" 
			},
			{
				"x": 3.5468586934,
				"y": 2.8395521841,
				"z": 1.2419677375,
				"element": "H" 
			},
			{
				"x": 4.0474158921,
				"y": 2.3054762888,
				"z": -1.7446468274,
				"element": "H" 
			},
			{
				"x": 4.7454723486,
				"y": 4.3721309302,
				"z": -1.0949840418,
				"element": "H" 
			},
			{
				"x": 2.2812296269,
				"y": 4.1318477673,
				"z": -2.502747583,
				"element": "H" 
			},
			{
				"x": 1.8124472466,
				"y": 0.6929784647,
				"z": -0.4532284228,
				"element": "H" 
			},
			{
				"x": 1.8949488901,
				"y": 0.7672397114,
				"z": -2.2214762194,
				"element": "H" 
			},
			{
				"x": -0.272628731,
				"y": 1.7216073392,
				"z": -2.4055730222,
				"element": "H" 
			},
			{
				"x": -1.8940110888,
				"y": 0.4130867524,
				"z": -1.5014310894,
				"element": "H" 
			},
			{
				"x": -0.5249246572,
				"y": -0.7963355217,
				"z": -2.9700667527,
				"element": "H" 
			},
			{
				"x": 0.7177827645,
				"y": -1.0646445721,
				"z": -1.7898203478,
				"element": "H" 
			},
			{
				"x": -1.6492296964,
				"y": -2.7340861375,
				"z": -2.3573184371,
				"element": "H" 
			},
			{
				"x": -0.1148512893,
				"y": -3.1463015971,
				"z": -1.6357210914,
				"element": "H" 
			},
			{
				"x": -3.2405591898,
				"y": -1.2016262936,
				"z": -0.9334899496,
				"element": "H" 
			},
			{
				"x": -3.7105205474,
				"y": -2.1324432729,
				"z": 0.5043727751,
				"element": "H" 
			},
			{
				"x": -3.6050049878,
				"y": -2.9110198706,
				"z": -1.0690546104,
				"element": "H" 
			},
			{
				"x": -2.1366459712,
				"y": -4.6557587591,
				"z": -0.4688522522,
				"element": "H" 
			},
			{
				"x": -0.5538441183,
				"y": -4.3895922992,
				"z": 0.2182596597,
				"element": "H" 
			},
			{
				"x": -1.8384852631,
				"y": -5.3497965536,
				"z": 1.9395202764,
				"element": "H" 
			},
			{
				"x": -3.9447526875,
				"y": -4.676287611,
				"z": 1.060296086,
				"element": "H" 
			},
			{
				"x": -2.0332459936,
				"y": -3.4902680325,
				"z": 3.6488975235,
				"element": "H" 
			},
			{
				"x": -0.4666502176,
				"y": -3.663873761,
				"z": 2.8727904696,
				"element": "H" 
			},
			{
				"x": -1.0529020397,
				"y": -1.282822186,
				"z": 3.0123326731,
				"element": "H" 
			},
			{
				"x": -2.6097407044,
				"y": -1.5611953104,
				"z": 2.2591407582,
				"element": "H" 
			},
			{
				"x": 1.1399585808,
				"y": -1.6563876488,
				"z": 0.0724698226,
				"element": "H" 
			},
			{
				"x": 1.0180306698,
				"y": -1.3644487338,
				"z": 1.8032012755,
				"element": "H" 
			},
			{
				"x": 0.789115495,
				"y": -2.9840119791,
				"z": 1.1664117326,
				"element": "H" 
			},
			{
				"x": -2.2554138135,
				"y": 0.0006438138,
				"z": 0.580115159,
				"element": "H" 
			},
			{
				"x": 0.5305986919,
				"y": 0.876164443,
				"z": 1.3984632889,
				"element": "H" 
			},
			{
				"x": -0.9115677055,
				"y": 0.7858262849,
				"z": 2.3914884395,
				"element": "H" 
			},
			{
				"x": -0.782776677,
				"y": 3.0917708571,
				"z": 1.6131281769,
				"element": "H" 
			},
			{
				"x": -2.0975878795,
				"y": 2.3089921047,
				"z": 0.7568465116,
				"element": "H" 
			},
			{
				"x": -2.1851207189,
				"y": 3.2243051239,
				"z": -1.5309629305,
				"element": "H" 
			},
			{
				"x": -1.4882536401,
				"y": 4.5622413299,
				"z": -0.6062424585,
				"element": "H" 
			},
			{
				"x": -0.7367477241,
				"y": 4.0575057297,
				"z": -2.1342438258,
				"element": "H" 
			},
			{
				"x": 1.3985355255,
				"y": 3.0825885813,
				"z": 0.8021498865,
				"element": "H" 
			},
			{
				"x": 1.056410671,
				"y": 4.4243613174,
				"z": -0.2836270443,
				"element": "H" 
			}
		],
		 "valence_orbital": [ 
			{
				"type": "occ",
				"energy": -0.27633,
				"method": "rhf"
			},
			{
				"type": "occ",
				"energy": -0.26849,
				"method": "rhf"
			},
			{
				"type": "occ",
				"energy": -0.25785,
				"method": "rhf"
			},
			{
				"type": "occ",
				"energy": -0.2504,
				"method": "rhf"
			},
			{
				"type": "occ",
				"energy": -0.24651,
				"method": "rhf"
			},
			{
				"type": "unocc",
				"energy": 0.05791,
				"method": "rhf"
			},
			{
				"type": "unocc",
				"energy": 0.06204,
				"method": "rhf"
			},
			{
				"type": "unocc",
				"energy": 0.08231,
				"method": "rhf"
			},
			{
				"type": "unocc",
				"energy": 0.08872,
				"method": "rhf"
			},
			{
				"type": "unocc",
				"energy": 0.10065,
				"method": "rhf"
			}
		],
		"cosmo_sigma_profile": { 
			"-0.025": 0.0,
			"-0.024": 0.0,
			"-0.023": 0.0,
			"-0.022": 0.0,
			"-0.021": 0.0,
			"-0.02": 0.0,
			"-0.019": 0.0,
			"-0.018": 0.0,
			"-0.017": 0.0,
			"-0.016": 0.379967874532,
			"-0.015": 0.993543253658,
			"-0.014": 1.39085431453,
			"-0.013": 1.98196924954,
			"-0.012": 1.4219026433,
			"-0.011": 2.298206012,
			"-0.01": 2.45703755588,
			"-0.009": 2.00445315559,
			"-0.008": 2.36885668986,
			"-0.007": 2.66798387417,
			"-0.006": 3.02976722587,
			"-0.005": 3.18403398862,
			"-0.004": 8.83435567767,
			"-0.003": 23.6223590749,
			"-0.002": 51.6196688816,
			"-0.001": 72.3551002957,
			"0.0": 69.2457087027,
			"0.001": 53.0281854028,
			"0.002": 32.3980454017,
			"0.003": 10.6790962584,
			"0.004": 5.28821118602,
			"0.005": 3.82895322864,
			"0.006": 3.90304947884,
			"0.007": 3.78250234763,
			"0.008": 5.11052042192,
			"0.009": 3.68399882479,
			"0.01": 2.41219142022,
			"0.011": 3.15353823136,
			"0.012": 2.79225560276,
			"0.013": 3.11607993238,
			"0.014": 2.50564395964,
			"0.015": 1.61799510126,
			"0.016": 0.00887364459385,
			"0.017": 0.0,
			"0.018": 0.0,
			"0.019": 0.0,
			"0.02": 0.0,
			"0.021": 0.0,
			"0.022": 0.0,
			"0.023": 0.0,
			"0.024": 0.0,
			"0.025": 0.0
		}
	}
}
