{
	 "smiles": "FC1=CC=C(CC2=CC=C(F)C=C2)C=C1", 
	 "Tm": 302.65, 
	 "num_atms": 25, 
	 "gaussian": { 
		 "optdone": 1, 
		 "sigma_profile": "yes", 
		 "theory": "DFT", 
		 "functional": "B3LYP", 
		 "basiset": "6-31G**", 
		 "properties": { 
			 "R2extent": 4852.4662, 
			 "electric_dipole_moment_norm": 1.4863698093, 
			 "electric_quadrupole_moment_norm": 13.3538806004, 
			 "total_energy": -701.085267933, 
			 "HOMO_LUMO_gap": 0.21631, 
			 "cosmo_polarized_energy": -5.79, 
			 "cosmo_cavitation_energy": 30.35, 
			 "cosmo_dispersion_energy": -21.26, 
			 "cosmo_repulsion_energy": 1.62, 
			 "cosmo_total_nonelectrostatic_energy": 10.71, 
			 "SMD_solvation_energy": 5.94 
		},
		"coords": [
			{
				"x": 3.6881429668,
				"y": -0.682280049,
				"z": -2.5698003085,
				"element": "F" 
			},
			{
				"x": 3.1283056999,
				"y": -0.3802220677,
				"z": -1.3784947195,
				"element": "C" 
			},
			{
				"x": 3.4028121259,
				"y": -1.1817886732,
				"z": -0.2788626095,
				"element": "C" 
			},
			{
				"x": 2.8161309644,
				"y": -0.858196166,
				"z": 0.9468915197,
				"element": "C" 
			},
			{
				"x": 1.9680283726,
				"y": 0.2474906384,
				"z": 1.0798849387,
				"element": "C" 
			},
			{
				"x": 1.3556089591,
				"y": 0.6059833417,
				"z": 2.424551556,
				"element": "C" 
			},
			{
				"x": -0.1590689692,
				"y": 0.7354632621,
				"z": 2.4195224742,
				"element": "C" 
			},
			{
				"x": -0.7835156837,
				"y": 1.9054925153,
				"z": 2.8673418805,
				"element": "C" 
			},
			{
				"x": -2.1751597928,
				"y": 2.0255831743,
				"z": 2.8872096363,
				"element": "C" 
			},
			{
				"x": -2.9403754213,
				"y": 0.9531162891,
				"z": 2.4499211521,
				"element": "C" 
			},
			{
				"x": -4.2868759716,
				"y": 1.056056498,
				"z": 2.4630998448,
				"element": "F" 
			},
			{
				"x": -2.3577862471,
				"y": -0.2260245465,
				"z": 1.9952562836,
				"element": "C" 
			},
			{
				"x": -0.9682710843,
				"y": -0.3245094452,
				"z": 1.9823242734,
				"element": "C" 
			},
			{
				"x": 1.7129136562,
				"y": 1.0302409708,
				"z": -0.0565812902,
				"element": "C" 
			},
			{
				"x": 2.2888289807,
				"y": 0.7258863431,
				"z": -1.2880055467,
				"element": "C" 
			},
			{
				"x": 4.0598054307,
				"y": -2.0379309925,
				"z": -0.3882220264,
				"element": "H" 
			},
			{
				"x": 3.0270561512,
				"y": -1.4785522407,
				"z": 1.8142757064,
				"element": "H" 
			},
			{
				"x": 1.6541512772,
				"y": -0.1534832087,
				"z": 3.1580758368,
				"element": "H" 
			},
			{
				"x": 1.7859466523,
				"y": 1.5504692332,
				"z": 2.7806890157,
				"element": "H" 
			},
			{
				"x": -0.1758466142,
				"y": 2.7390142019,
				"z": 3.2103488266,
				"element": "H" 
			},
			{
				"x": -2.6645756376,
				"y": 2.9300500837,
				"z": 3.2321401314,
				"element": "H" 
			},
			{
				"x": -2.9902403836,
				"y": -1.0410524827,
				"z": 1.659872213,
				"element": "H" 
			},
			{
				"x": -0.5035583644,
				"y": -1.2374920886,
				"z": 1.6201894581,
				"element": "H" 
			},
			{
				"x": 1.0482363058,
				"y": 1.8861376467,
				"z": 0.0222828281,
				"element": "H" 
			},
			{
				"x": 2.097306627,
				"y": 1.3263477624,
				"z": -2.1709110747,
				"element": "H" 
			}
		],
		 "valence_orbital": [ 
			{
				"type": "occ",
				"energy": -0.34015,
				"method": "rhf"
			},
			{
				"type": "occ",
				"energy": -0.26187,
				"method": "rhf"
			},
			{
				"type": "occ",
				"energy": -0.25978,
				"method": "rhf"
			},
			{
				"type": "occ",
				"energy": -0.24553,
				"method": "rhf"
			},
			{
				"type": "occ",
				"energy": -0.23224,
				"method": "rhf"
			},
			{
				"type": "unocc",
				"energy": -0.01593,
				"method": "rhf"
			},
			{
				"type": "unocc",
				"energy": -0.0105,
				"method": "rhf"
			},
			{
				"type": "unocc",
				"energy": -0.0037,
				"method": "rhf"
			},
			{
				"type": "unocc",
				"energy": 0.00636,
				"method": "rhf"
			},
			{
				"type": "unocc",
				"energy": 0.08479,
				"method": "rhf"
			}
		],
		"cosmo_sigma_profile": { 
			"-0.025": 0.0,
			"-0.024": 0.0,
			"-0.023": 0.0,
			"-0.022": 0.0,
			"-0.021": 0.0,
			"-0.02": 0.0,
			"-0.019": 0.0,
			"-0.018": 0.0,
			"-0.017": 0.0,
			"-0.016": 0.0,
			"-0.015": 0.0,
			"-0.014": 0.0,
			"-0.013": 0.0,
			"-0.012": 0.0,
			"-0.011": 0.0,
			"-0.01": 0.0,
			"-0.009": 0.0,
			"-0.008": 0.0103044243502,
			"-0.007": 4.82084601471,
			"-0.006": 13.7233454964,
			"-0.005": 17.6209580534,
			"-0.004": 20.6065577302,
			"-0.003": 17.5163845556,
			"-0.002": 15.0128348182,
			"-0.001": 15.0695807118,
			"0.0": 15.7595024906,
			"0.001": 21.1421995777,
			"0.002": 22.4025676963,
			"0.003": 21.9655230552,
			"0.004": 36.9367755708,
			"0.005": 20.6693978676,
			"0.006": 0.0,
			"0.007": 0.0,
			"0.008": 0.0,
			"0.009": 0.0,
			"0.01": 0.0,
			"0.011": 0.0,
			"0.012": 0.0,
			"0.013": 0.0,
			"0.014": 0.0,
			"0.015": 0.0,
			"0.016": 0.0,
			"0.017": 0.0,
			"0.018": 0.0,
			"0.019": 0.0,
			"0.02": 0.0,
			"0.021": 0.0,
			"0.022": 0.0,
			"0.023": 0.0,
			"0.024": 0.0,
			"0.025": 0.0
		}
	}
}
