{
	 "smiles": "CC(=O)N1CCN(CC1)S(=O)(=O)C1=CC(=CC=C1)C(O)=O", 
	 "Tm": 533.15, 
	 "num_atms": 37, 
	 "gaussian": { 
		 "optdone": 1, 
		 "sigma_profile": "yes", 
		 "theory": "DFT", 
		 "functional": "B3LYP", 
		 "basiset": "6-31G**", 
		 "properties": { 
			 "R2extent": 8594.5086, 
			 "electric_dipole_moment_norm": 3.66902530108, 
			 "electric_quadrupole_moment_norm": 31.7126831566, 
			 "total_energy": -1388.78968824, 
			 "HOMO_LUMO_gap": 0.17324, 
			 "cosmo_polarized_energy": -25.43, 
			 "cosmo_cavitation_energy": 41.41, 
			 "cosmo_dispersion_energy": -29.34, 
			 "cosmo_repulsion_energy": 2.21, 
			 "cosmo_total_nonelectrostatic_energy": 14.28, 
			 "SMD_solvation_energy": 6.65 
		},
		"coords": [
			{
				"x": 3.6876534454,
				"y": -3.2409627381,
				"z": -2.154521319,
				"element": "C" 
			},
			{
				"x": 3.6539395133,
				"y": -1.8552478194,
				"z": -1.5299122803,
				"element": "C" 
			},
			{
				"x": 4.6757402181,
				"y": -1.1966724555,
				"z": -1.3680137216,
				"element": "O" 
			},
			{
				"x": 2.413519841,
				"y": -1.3821409738,
				"z": -1.1557373029,
				"element": "N" 
			},
			{
				"x": 1.1677715564,
				"y": -2.1340312509,
				"z": -1.3424219355,
				"element": "C" 
			},
			{
				"x": -0.0333145634,
				"y": -1.2844905305,
				"z": -0.9169903678,
				"element": "C" 
			},
			{
				"x": 0.0592573706,
				"y": 0.023349352,
				"z": -1.568285501,
				"element": "N" 
			},
			{
				"x": 1.2905697417,
				"y": 0.8114272514,
				"z": -1.3356033042,
				"element": "C" 
			},
			{
				"x": 2.3099289921,
				"y": -0.0459400045,
				"z": -0.5787705781,
				"element": "C" 
			},
			{
				"x": -1.3342361463,
				"y": 0.8459786956,
				"z": -1.9902098977,
				"element": "S" 
			},
			{
				"x": -2.3286588977,
				"y": -0.1700209049,
				"z": -2.3416498021,
				"element": "O" 
			},
			{
				"x": -0.9193089239,
				"y": 1.9004687565,
				"z": -2.9157333823,
				"element": "O" 
			},
			{
				"x": -1.9111227273,
				"y": 1.663363383,
				"z": -0.4919332727,
				"element": "C" 
			},
			{
				"x": -2.7016336429,
				"y": 0.9522204307,
				"z": 0.4119230437,
				"element": "C" 
			},
			{
				"x": -3.1129868753,
				"y": 1.5798177971,
				"z": 1.5930518081,
				"element": "C" 
			},
			{
				"x": -2.7366033448,
				"y": 2.9051883211,
				"z": 1.8533448389,
				"element": "C" 
			},
			{
				"x": -1.9587352719,
				"y": 3.6063598401,
				"z": 0.9356223071,
				"element": "C" 
			},
			{
				"x": -1.5414426769,
				"y": 2.9891476163,
				"z": -0.2460710737,
				"element": "C" 
			},
			{
				"x": -3.9613329452,
				"y": 0.8841369337,
				"z": 2.6013551051,
				"element": "C" 
			},
			{
				"x": -4.2587188637,
				"y": -0.3898515539,
				"z": 2.2515684414,
				"element": "O" 
			},
			{
				"x": -4.3527060029,
				"y": 1.3857685321,
				"z": 3.6353641654,
				"element": "O" 
			},
			{
				"x": 3.1207438393,
				"y": -3.2721555789,
				"z": -3.091292012,
				"element": "H" 
			},
			{
				"x": 4.7287760904,
				"y": -3.4867903567,
				"z": -2.3599174819,
				"element": "H" 
			},
			{
				"x": 3.262847298,
				"y": -3.9988206073,
				"z": -1.4877143125,
				"element": "H" 
			},
			{
				"x": 1.043759769,
				"y": -2.4078754657,
				"z": -2.3964285628,
				"element": "H" 
			},
			{
				"x": 1.1687468996,
				"y": -3.060261148,
				"z": -0.7513843016,
				"element": "H" 
			},
			{
				"x": -0.0769017204,
				"y": -1.1961756913,
				"z": 0.1788488944,
				"element": "H" 
			},
			{
				"x": -0.9493593174,
				"y": -1.770314909,
				"z": -1.2540705381,
				"element": "H" 
			},
			{
				"x": 1.0817484089,
				"y": 1.7120606322,
				"z": -0.7421627962,
				"element": "H" 
			},
			{
				"x": 1.6911755804,
				"y": 1.1281831227,
				"z": -2.3018454044,
				"element": "H" 
			},
			{
				"x": 3.3005143556,
				"y": 0.4053152744,
				"z": -0.6402693555,
				"element": "H" 
			},
			{
				"x": 2.0385097891,
				"y": -0.108795568,
				"z": 0.4834130913,
				"element": "H" 
			},
			{
				"x": -3.0146030508,
				"y": -0.0606340689,
				"z": 0.1893769754,
				"element": "H" 
			},
			{
				"x": -3.0741933578,
				"y": 3.3659974768,
				"z": 2.7754004937,
				"element": "H" 
			},
			{
				"x": -1.6820479679,
				"y": 4.6373324226,
				"z": 1.1324247299,
				"element": "H" 
			},
			{
				"x": -0.9605526139,
				"y": 3.527237953,
				"z": -0.9871250805,
				"element": "H" 
			},
			{
				"x": -4.8160437988,
				"y": -0.7416721661,
				"z": 2.9651696903,
				"element": "H" 
			}
		],
		 "valence_orbital": [ 
			{
				"type": "occ",
				"energy": -0.28926,
				"method": "rhf"
			},
			{
				"type": "occ",
				"energy": -0.28673,
				"method": "rhf"
			},
			{
				"type": "occ",
				"energy": -0.26106,
				"method": "rhf"
			},
			{
				"type": "occ",
				"energy": -0.25037,
				"method": "rhf"
			},
			{
				"type": "occ",
				"energy": -0.24445,
				"method": "rhf"
			},
			{
				"type": "unocc",
				"energy": -0.07121,
				"method": "rhf"
			},
			{
				"type": "unocc",
				"energy": -0.04787,
				"method": "rhf"
			},
			{
				"type": "unocc",
				"energy": 0.02265,
				"method": "rhf"
			},
			{
				"type": "unocc",
				"energy": 0.02795,
				"method": "rhf"
			},
			{
				"type": "unocc",
				"energy": 0.05003,
				"method": "rhf"
			}
		],
		"cosmo_sigma_profile": { 
			"-0.025": 0.0,
			"-0.024": 0.0,
			"-0.023": 0.0,
			"-0.022": 0.0,
			"-0.021": 0.0,
			"-0.02": 0.0,
			"-0.019": 0.285757539754,
			"-0.018": 0.930707142372,
			"-0.017": 1.07167020199,
			"-0.016": 0.683623619865,
			"-0.015": 1.03709504318,
			"-0.014": 0.522769304195,
			"-0.013": 0.253833700567,
			"-0.012": 0.454463081799,
			"-0.011": 1.30616733027,
			"-0.01": 0.658888484384,
			"-0.009": 0.416104146183,
			"-0.008": 2.5155393017,
			"-0.007": 10.1460343873,
			"-0.006": 28.6048812249,
			"-0.005": 34.9566861952,
			"-0.004": 29.0536700194,
			"-0.003": 22.7178452373,
			"-0.002": 21.9486798678,
			"-0.001": 23.6571618168,
			"0.0": 22.2447296976,
			"0.001": 21.1254676055,
			"0.002": 11.8661304617,
			"0.003": 8.09915221749,
			"0.004": 8.75039727011,
			"0.005": 8.18390383117,
			"0.006": 7.26725039688,
			"0.007": 7.11262442402,
			"0.008": 6.89374021878,
			"0.009": 6.1567381013,
			"0.01": 10.4592561582,
			"0.011": 14.0411804656,
			"0.012": 5.15771572669,
			"0.013": 2.8989612746,
			"0.014": 4.68346860184,
			"0.015": 1.64797132114,
			"0.016": 0.0559058585461,
			"0.017": 0.0,
			"0.018": 0.0,
			"0.019": 0.0,
			"0.02": 0.0,
			"0.021": 0.0,
			"0.022": 0.0,
			"0.023": 0.0,
			"0.024": 0.0,
			"0.025": 0.0
		}
	}
}
