{
	 "smiles": "FC(F)(F)C(Cl)(Cl)C(Cl)(Cl)C(F)(F)F", 
	 "Tm": 356.65, 
	 "num_atms": 14, 
	 "gaussian": { 
		 "optdone": 1, 
		 "sigma_profile": "yes", 
		 "theory": "DFT", 
		 "functional": "B3LYP", 
		 "basiset": "6-31G**", 
		 "properties": { 
			 "R2extent": 3701.4631, 
			 "electric_dipole_moment_norm": 0.179909894114, 
			 "electric_quadrupole_moment_norm": 1.53994172617, 
			 "total_energy": -2592.19171088, 
			 "HOMO_LUMO_gap": 0.25971, 
			 "cosmo_polarized_energy": -1.27, 
			 "cosmo_cavitation_energy": 25.8, 
			 "cosmo_dispersion_energy": -18.77, 
			 "cosmo_repulsion_energy": 1.34, 
			 "cosmo_total_nonelectrostatic_energy": 8.36, 
			 "SMD_solvation_energy": 5.36 
		},
		"coords": [
			{
				"x": 1.4083327948,
				"y": -0.7115963776,
				"z": -0.5999353505,
				"element": "F" 
			},
			{
				"x": 0.4387163901,
				"y": -0.9824990117,
				"z": 0.283139319,
				"element": "C" 
			},
			{
				"x": 0.9998010749,
				"y": -1.3970272239,
				"z": 1.4226353634,
				"element": "F" 
			},
			{
				"x": -0.2993935116,
				"y": -1.9809814537,
				"z": -0.2108902353,
				"element": "F" 
			},
			{
				"x": -0.4724085385,
				"y": 0.2815451849,
				"z": 0.5138416334,
				"element": "C" 
			},
			{
				"x": -1.0330371797,
				"y": 0.7819860096,
				"z": -1.1195757959,
				"element": "Cl" 
			},
			{
				"x": -1.8950286174,
				"y": -0.2594518369,
				"z": 1.4682638868,
				"element": "Cl" 
			},
			{
				"x": 0.2204782788,
				"y": 1.5024232341,
				"z": 1.2720523284,
				"element": "C" 
			},
			{
				"x": 0.5555300923,
				"y": 1.0793598008,
				"z": 2.9871273727,
				"element": "Cl" 
			},
			{
				"x": -0.8923549012,
				"y": 2.9123108441,
				"z": 1.2353814102,
				"element": "Cl" 
			},
			{
				"x": 1.596629679,
				"y": 1.9826778465,
				"z": 0.6747424818,
				"element": "C" 
			},
			{
				"x": 1.5011351578,
				"y": 2.2375422035,
				"z": -0.6333152402,
				"element": "F" 
			},
			{
				"x": 2.5437294787,
				"y": 1.0550263032,
				"z": 0.8639891956,
				"element": "F" 
			},
			{
				"x": 1.9868698021,
				"y": 3.1003844772,
				"z": 1.2946436307,
				"element": "F" 
			}
		],
		 "valence_orbital": [ 
			{
				"type": "occ",
				"energy": -0.34808,
				"method": "rhf"
			},
			{
				"type": "occ",
				"energy": -0.34471,
				"method": "rhf"
			},
			{
				"type": "occ",
				"energy": -0.33941,
				"method": "rhf"
			},
			{
				"type": "occ",
				"energy": -0.32637,
				"method": "rhf"
			},
			{
				"type": "occ",
				"energy": -0.32257,
				"method": "rhf"
			},
			{
				"type": "unocc",
				"energy": -0.06286,
				"method": "rhf"
			},
			{
				"type": "unocc",
				"energy": -0.05554,
				"method": "rhf"
			},
			{
				"type": "unocc",
				"energy": -0.02112,
				"method": "rhf"
			},
			{
				"type": "unocc",
				"energy": -0.00017,
				"method": "rhf"
			},
			{
				"type": "unocc",
				"energy": 0.0607,
				"method": "rhf"
			}
		],
		"cosmo_sigma_profile": { 
			"-0.025": 0.0,
			"-0.024": 0.0,
			"-0.023": 0.0,
			"-0.022": 0.0,
			"-0.021": 0.0,
			"-0.02": 0.0,
			"-0.019": 0.0,
			"-0.018": 0.0,
			"-0.017": 0.0,
			"-0.016": 0.0,
			"-0.015": 0.0,
			"-0.014": 0.0,
			"-0.013": 0.0,
			"-0.012": 0.0,
			"-0.011": 0.0,
			"-0.01": 0.0,
			"-0.009": 0.0,
			"-0.008": 0.0,
			"-0.007": 0.0,
			"-0.006": 1.73756128496,
			"-0.005": 5.71944784568,
			"-0.004": 7.3574842683,
			"-0.003": 9.07539680181,
			"-0.002": 10.8657314342,
			"-0.001": 20.6755026184,
			"0.0": 45.4222878157,
			"0.001": 86.5098528709,
			"0.002": 26.7046639556,
			"0.003": 0.821344256348,
			"0.004": 0.0,
			"0.005": 0.0,
			"0.006": 0.0,
			"0.007": 0.0,
			"0.008": 0.0,
			"0.009": 0.0,
			"0.01": 0.0,
			"0.011": 0.0,
			"0.012": 0.0,
			"0.013": 0.0,
			"0.014": 0.0,
			"0.015": 0.0,
			"0.016": 0.0,
			"0.017": 0.0,
			"0.018": 0.0,
			"0.019": 0.0,
			"0.02": 0.0,
			"0.021": 0.0,
			"0.022": 0.0,
			"0.023": 0.0,
			"0.024": 0.0,
			"0.025": 0.0
		}
	}
}
