{
	 "smiles": "CC(=O)NC1=C(C=CC=C1Br)[N+]([O-])=O", 
	 "Tm": 466.15, 
	 "num_atms": 21, 
	 "gaussian": { 
		 "optdone": 1, 
		 "sigma_profile": "yes", 
		 "theory": "DFT", 
		 "functional": "B3LYP", 
		 "basiset": "6-31G**", 
		 "properties": { 
			 "R2extent": 4385.7511, 
			 "electric_dipole_moment_norm": 5.42716957078, 
			 "electric_quadrupole_moment_norm": 10.7890007489, 
			 "total_energy": -3215.54913966, 
			 "HOMO_LUMO_gap": 0.15075, 
			 "cosmo_polarized_energy": -13.9, 
			 "cosmo_cavitation_energy": 27.97, 
			 "cosmo_dispersion_energy": -20.32, 
			 "cosmo_repulsion_energy": 1.59, 
			 "cosmo_total_nonelectrostatic_energy": 9.23, 
			 "SMD_solvation_energy": 6.85 
		},
		"coords": [
			{
				"x": 1.7536922016,
				"y": -1.7009474983,
				"z": -0.9517504712,
				"element": "C" 
			},
			{
				"x": 2.6319172517,
				"y": -0.518397773,
				"z": -0.6048190903,
				"element": "C" 
			},
			{
				"x": 3.8440563833,
				"y": -0.5554520984,
				"z": -0.7048067893,
				"element": "O" 
			},
			{
				"x": 2.0379831875,
				"y": 0.6894743004,
				"z": -0.2168457309,
				"element": "N" 
			},
			{
				"x": 0.7119950931,
				"y": 1.0658666919,
				"z": -0.0254640664,
				"element": "C" 
			},
			{
				"x": -0.2547378466,
				"y": 0.3184083707,
				"z": 0.6865587917,
				"element": "C" 
			},
			{
				"x": -1.5892022948,
				"y": 0.7176287,
				"z": 0.7814582598,
				"element": "C" 
			},
			{
				"x": -1.9943777678,
				"y": 1.9249988842,
				"z": 0.2303963911,
				"element": "C" 
			},
			{
				"x": -1.0586462836,
				"y": 2.7273049873,
				"z": -0.4236580947,
				"element": "C" 
			},
			{
				"x": 0.2560885047,
				"y": 2.2965318656,
				"z": -0.5564099786,
				"element": "C" 
			},
			{
				"x": 1.4772450579,
				"y": 3.4198212903,
				"z": -1.5016855125,
				"element": "Br" 
			},
			{
				"x": 0.0993975519,
				"y": -0.8881580106,
				"z": 1.4577260273,
				"element": "N" 
			},
			{
				"x": 1.2269897158,
				"y": -0.9579983519,
				"z": 1.9402757552,
				"element": "O" 
			},
			{
				"x": -0.7798155048,
				"y": -1.736746623,
				"z": 1.6020347743,
				"element": "O" 
			},
			{
				"x": 2.1959612624,
				"y": -2.1847748994,
				"z": -1.824315263,
				"element": "H" 
			},
			{
				"x": 0.7165731824,
				"y": -1.4380277225,
				"z": -1.1695387237,
				"element": "H" 
			},
			{
				"x": 1.7714669047,
				"y": -2.417763079,
				"z": -0.126302161,
				"element": "H" 
			},
			{
				"x": 2.7113047349,
				"y": 1.4473622442,
				"z": -0.238818433,
				"element": "H" 
			},
			{
				"x": -2.277584232,
				"y": 0.0760189563,
				"z": 1.3167626973,
				"element": "H" 
			},
			{
				"x": -3.0257331321,
				"y": 2.2488504408,
				"z": 0.3163213446,
				"element": "H" 
			},
			{
				"x": -1.3494739704,
				"y": 3.6796993245,
				"z": -0.8515197266,
				"element": "H" 
			}
		],
		 "valence_orbital": [ 
			{
				"type": "occ",
				"energy": -0.31512,
				"method": "rhf"
			},
			{
				"type": "occ",
				"energy": -0.30171,
				"method": "rhf"
			},
			{
				"type": "occ",
				"energy": -0.28052,
				"method": "rhf"
			},
			{
				"type": "occ",
				"energy": -0.26615,
				"method": "rhf"
			},
			{
				"type": "occ",
				"energy": -0.25177,
				"method": "rhf"
			},
			{
				"type": "unocc",
				"energy": -0.10102,
				"method": "rhf"
			},
			{
				"type": "unocc",
				"energy": -0.04896,
				"method": "rhf"
			},
			{
				"type": "unocc",
				"energy": -0.02758,
				"method": "rhf"
			},
			{
				"type": "unocc",
				"energy": -0.02133,
				"method": "rhf"
			},
			{
				"type": "unocc",
				"energy": 0.01641,
				"method": "rhf"
			}
		],
		"cosmo_sigma_profile": { 
			"-0.025": 0.0,
			"-0.024": 0.0,
			"-0.023": 0.0,
			"-0.022": 0.0,
			"-0.021": 0.0,
			"-0.02": 0.0,
			"-0.019": 0.0,
			"-0.018": 0.0,
			"-0.017": 0.0,
			"-0.016": 0.0,
			"-0.015": 0.0,
			"-0.014": 0.0,
			"-0.013": 0.278742153417,
			"-0.012": 0.695646908141,
			"-0.011": 0.726663259732,
			"-0.01": 0.940056694128,
			"-0.009": 2.18267281994,
			"-0.008": 6.43369106711,
			"-0.007": 10.3073593673,
			"-0.006": 13.7092481503,
			"-0.005": 13.6596851392,
			"-0.004": 15.5590048884,
			"-0.003": 15.9926158227,
			"-0.002": 19.4379214707,
			"-0.001": 18.3957623238,
			"0.0": 18.1155145461,
			"0.001": 16.0875556369,
			"0.002": 11.9526396259,
			"0.003": 9.97448644264,
			"0.004": 5.775406325,
			"0.005": 5.40212906032,
			"0.006": 6.50300428687,
			"0.007": 9.99629719341,
			"0.008": 7.01741491966,
			"0.009": 4.25651580165,
			"0.01": 2.59728778308,
			"0.011": 2.37777472711,
			"0.012": 4.48569645809,
			"0.013": 3.96561942308,
			"0.014": 0.412386574335,
			"0.015": 0.0,
			"0.016": 0.0,
			"0.017": 0.0,
			"0.018": 0.0,
			"0.019": 0.0,
			"0.02": 0.0,
			"0.021": 0.0,
			"0.022": 0.0,
			"0.023": 0.0,
			"0.024": 0.0,
			"0.025": 0.0
		}
	}
}
