{
	 "smiles": "ClC1=CC=C(C=C1)C1=C(C=NNC(=S)NC2=CC=CC=C2)C2=C(N1)C=CC=C2", 
	 "Tm": 485.15, 
	 "num_atms": 45, 
	 "gaussian": { 
		 "optdone": 1, 
		 "sigma_profile": "yes", 
		 "theory": "DFT", 
		 "functional": "B3LYP", 
		 "basiset": "6-31G**", 
		 "properties": { 
			 "R2extent": 13091.9264, 
			 "electric_dipole_moment_norm": 6.75865519908, 
			 "electric_quadrupole_moment_norm": 22.8177424975, 
			 "total_energy": -1925.96378665, 
			 "HOMO_LUMO_gap": 0.12982, 
			 "cosmo_polarized_energy": -24.72, 
			 "cosmo_cavitation_energy": 53.86, 
			 "cosmo_dispersion_energy": -35.07, 
			 "cosmo_repulsion_energy": 2.61, 
			 "cosmo_total_nonelectrostatic_energy": 21.39, 
			 "SMD_solvation_energy": 7.1 
		},
		"coords": [
			{
				"x": -2.4327478262,
				"y": -0.5848109168,
				"z": -4.4688885533,
				"element": "Cl" 
			},
			{
				"x": -1.2650000755,
				"y": -0.2621954928,
				"z": -3.1963490485,
				"element": "C" 
			},
			{
				"x": -1.08756144,
				"y": 1.0430203614,
				"z": -2.742681597,
				"element": "C" 
			},
			{
				"x": -0.1610057998,
				"y": 1.2873347282,
				"z": -1.7312871417,
				"element": "C" 
			},
			{
				"x": 0.5912169202,
				"y": 0.2437585366,
				"z": -1.162758829,
				"element": "C" 
			},
			{
				"x": 0.3851251795,
				"y": -1.0621277592,
				"z": -1.6379211626,
				"element": "C" 
			},
			{
				"x": -0.5347295206,
				"y": -1.3182273229,
				"z": -2.6493032065,
				"element": "C" 
			},
			{
				"x": 1.6161654209,
				"y": 0.5451079424,
				"z": -0.1537249858,
				"element": "C" 
			},
			{
				"x": 2.0597620976,
				"y": -0.1144639721,
				"z": 0.9975187296,
				"element": "C" 
			},
			{
				"x": 1.5674156516,
				"y": -1.3025073354,
				"z": 1.6583016463,
				"element": "C" 
			},
			{
				"x": 0.4856860854,
				"y": -1.9326824649,
				"z": 1.3463126002,
				"element": "N" 
			},
			{
				"x": 0.2153988688,
				"y": -3.0463208409,
				"z": 2.0939096865,
				"element": "N" 
			},
			{
				"x": -0.8172287838,
				"y": -3.9027290175,
				"z": 1.8228280475,
				"element": "C" 
			},
			{
				"x": -0.737899333,
				"y": -5.4936083708,
				"z": 2.3631230667,
				"element": "S" 
			},
			{
				"x": -1.8809530384,
				"y": -3.440391269,
				"z": 1.1001433089,
				"element": "N" 
			},
			{
				"x": -2.4803640872,
				"y": -2.1519959154,
				"z": 1.0480939397,
				"element": "C" 
			},
			{
				"x": -3.3206665069,
				"y": -1.8760053556,
				"z": -0.0376909183,
				"element": "C" 
			},
			{
				"x": -4.0036947058,
				"y": -0.6629765765,
				"z": -0.1063308814,
				"element": "C" 
			},
			{
				"x": -3.849520411,
				"y": 0.2894071006,
				"z": 0.9020508996,
				"element": "C" 
			},
			{
				"x": -3.0129512667,
				"y": 0.0105106687,
				"z": 1.9849509398,
				"element": "C" 
			},
			{
				"x": -2.3353441715,
				"y": -1.2042668977,
				"z": 2.0691713024,
				"element": "C" 
			},
			{
				"x": 3.1485033014,
				"y": 0.6754942694,
				"z": 1.5394697898,
				"element": "C" 
			},
			{
				"x": 3.3174900901,
				"y": 1.7977102983,
				"z": 0.6914320081,
				"element": "C" 
			},
			{
				"x": 2.3662843143,
				"y": 1.6976735951,
				"z": -0.3037463785,
				"element": "N" 
			},
			{
				"x": 4.2948351567,
				"y": 2.7723829015,
				"z": 0.9117020076,
				"element": "C" 
			},
			{
				"x": 5.1166460932,
				"y": 2.6117375603,
				"z": 2.0212286021,
				"element": "C" 
			},
			{
				"x": 4.9611960625,
				"y": 1.5108720741,
				"z": 2.8877700499,
				"element": "C" 
			},
			{
				"x": 3.9863191361,
				"y": 0.5470546894,
				"z": 2.6610922679,
				"element": "C" 
			},
			{
				"x": -1.6709450306,
				"y": 1.8527091123,
				"z": -3.1665777296,
				"element": "H" 
			},
			{
				"x": -0.0458089176,
				"y": 2.3010943847,
				"z": -1.3583335185,
				"element": "H" 
			},
			{
				"x": 0.9507927445,
				"y": -1.8818663006,
				"z": -1.2134706776,
				"element": "H" 
			},
			{
				"x": -0.6813534032,
				"y": -2.3279673263,
				"z": -3.0161311755,
				"element": "H" 
			},
			{
				"x": 2.18632457,
				"y": -1.6589247168,
				"z": 2.4930679084,
				"element": "H" 
			},
			{
				"x": 0.9442554776,
				"y": -3.4525114928,
				"z": 2.6776627608,
				"element": "H" 
			},
			{
				"x": -2.4900933917,
				"y": -4.2014763739,
				"z": 0.8294739405,
				"element": "H" 
			},
			{
				"x": -3.429571159,
				"y": -2.6121566359,
				"z": -0.8293403992,
				"element": "H" 
			},
			{
				"x": -4.6511386537,
				"y": -0.4631472191,
				"z": -0.9550344015,
				"element": "H" 
			},
			{
				"x": -4.3781321612,
				"y": 1.2362310013,
				"z": 0.8476740143,
				"element": "H" 
			},
			{
				"x": -2.8940228737,
				"y": 0.738850926,
				"z": 2.7820745562,
				"element": "H" 
			},
			{
				"x": -1.707880635,
				"y": -1.4203331287,
				"z": 2.9254742052,
				"element": "H" 
			},
			{
				"x": 2.3325847344,
				"y": 2.2714756926,
				"z": -1.1321799872,
				"element": "H" 
			},
			{
				"x": 4.4066762987,
				"y": 3.6221364263,
				"z": 0.2445477244,
				"element": "H" 
			},
			{
				"x": 5.8884855119,
				"y": 3.3475590188,
				"z": 2.2252708517,
				"element": "H" 
			},
			{
				"x": 5.6162749574,
				"y": 1.4169679474,
				"z": 3.7486214833,
				"element": "H" 
			},
			{
				"x": 3.8827745192,
				"y": -0.2907965338,
				"z": 3.3444842544,
				"element": "H" 
			}
		],
		 "valence_orbital": [ 
			{
				"type": "occ",
				"energy": -0.23976,
				"method": "rhf"
			},
			{
				"type": "occ",
				"energy": -0.22955,
				"method": "rhf"
			},
			{
				"type": "occ",
				"energy": -0.21685,
				"method": "rhf"
			},
			{
				"type": "occ",
				"energy": -0.20785,
				"method": "rhf"
			},
			{
				"type": "occ",
				"energy": -0.19525,
				"method": "rhf"
			},
			{
				"type": "unocc",
				"energy": -0.06543,
				"method": "rhf"
			},
			{
				"type": "unocc",
				"energy": -0.03057,
				"method": "rhf"
			},
			{
				"type": "unocc",
				"energy": -0.02241,
				"method": "rhf"
			},
			{
				"type": "unocc",
				"energy": -0.00874,
				"method": "rhf"
			},
			{
				"type": "unocc",
				"energy": -0.00378,
				"method": "rhf"
			}
		],
		"cosmo_sigma_profile": { 
			"-0.025": 0.0,
			"-0.024": 0.0,
			"-0.023": 0.0,
			"-0.022": 0.0,
			"-0.021": 0.0,
			"-0.02": 0.0,
			"-0.019": 0.0,
			"-0.018": 0.0,
			"-0.017": 0.0,
			"-0.016": 0.590598512589,
			"-0.015": 1.87256631635,
			"-0.014": 3.61759376115,
			"-0.013": 2.98926802225,
			"-0.012": 2.68177049496,
			"-0.011": 3.78740469448,
			"-0.01": 4.19786188337,
			"-0.009": 3.87633364072,
			"-0.008": 7.64375802184,
			"-0.007": 12.7126871308,
			"-0.006": 19.0002595832,
			"-0.005": 26.314245021,
			"-0.004": 26.0164661796,
			"-0.003": 27.3393278546,
			"-0.002": 24.0814661424,
			"-0.001": 24.334690125,
			"0.0": 27.3502630879,
			"0.001": 31.3784159468,
			"0.002": 33.0323703182,
			"0.003": 37.4185181375,
			"0.004": 36.3948740033,
			"0.005": 29.3453353931,
			"0.006": 16.3680250696,
			"0.007": 7.06023762261,
			"0.008": 5.45304268347,
			"0.009": 5.21506546927,
			"0.01": 7.70137569774,
			"0.011": 6.60241800617,
			"0.012": 3.20321264144,
			"0.013": 0.133545284555,
			"0.014": 0.0,
			"0.015": 0.0,
			"0.016": 0.0,
			"0.017": 0.0,
			"0.018": 0.0,
			"0.019": 0.0,
			"0.02": 0.0,
			"0.021": 0.0,
			"0.022": 0.0,
			"0.023": 0.0,
			"0.024": 0.0,
			"0.025": 0.0
		}
	}
}
