{
	 "smiles": "COC1=CC=C(C=C1)C1=CC=C(O1)C(O)=O", 
	 "Tm": 450.15, 
	 "num_atms": 26, 
	 "gaussian": { 
		 "optdone": 1, 
		 "sigma_profile": "yes", 
		 "theory": "DFT", 
		 "functional": "B3LYP", 
		 "basiset": "6-31G**", 
		 "properties": { 
			 "R2extent": 5711.594, 
			 "electric_dipole_moment_norm": 6.61046160945, 
			 "electric_quadrupole_moment_norm": 31.7127149141, 
			 "total_energy": -764.183242371, 
			 "HOMO_LUMO_gap": 0.15346, 
			 "cosmo_polarized_energy": -15.75, 
			 "cosmo_cavitation_energy": 31.49, 
			 "cosmo_dispersion_energy": -23.01, 
			 "cosmo_repulsion_energy": 1.77, 
			 "cosmo_total_nonelectrostatic_energy": 10.25, 
			 "SMD_solvation_energy": 7.74 
		},
		"coords": [
			{
				"x": -3.1676466293,
				"y": 1.8422382657,
				"z": 2.6411491756,
				"element": "C" 
			},
			{
				"x": -3.2069657838,
				"y": 0.5145692307,
				"z": 2.1367834834,
				"element": "O" 
			},
			{
				"x": -2.2158676708,
				"y": 0.1108515833,
				"z": 1.2975952775,
				"element": "C" 
			},
			{
				"x": -1.1426271001,
				"y": 0.909782166,
				"z": 0.8833059937,
				"element": "C" 
			},
			{
				"x": -0.1833049522,
				"y": 0.3862464654,
				"z": 0.017944271,
				"element": "C" 
			},
			{
				"x": -0.2653261531,
				"y": -0.9322380267,
				"z": -0.453365723,
				"element": "C" 
			},
			{
				"x": -1.3528370422,
				"y": -1.7219337718,
				"z": -0.0256559859,
				"element": "C" 
			},
			{
				"x": -2.3108731783,
				"y": -1.2122496428,
				"z": 0.8333025513,
				"element": "C" 
			},
			{
				"x": 0.7345361144,
				"y": -1.4814457712,
				"z": -1.3568266272,
				"element": "C" 
			},
			{
				"x": 0.8942136907,
				"y": -2.7121548664,
				"z": -1.9566437276,
				"element": "C" 
			},
			{
				"x": 2.0766433218,
				"y": -2.6460938492,
				"z": -2.7401998591,
				"element": "C" 
			},
			{
				"x": 2.579820636,
				"y": -1.3844216065,
				"z": -2.5819944587,
				"element": "C" 
			},
			{
				"x": 1.7651170467,
				"y": -0.6641014299,
				"z": -1.7368745603,
				"element": "O" 
			},
			{
				"x": 3.7699369481,
				"y": -0.7283634021,
				"z": -3.1357780539,
				"element": "C" 
			},
			{
				"x": 3.9604487501,
				"y": 0.560678166,
				"z": -2.7527415199,
				"element": "O" 
			},
			{
				"x": 4.5389439501,
				"y": -1.2869421757,
				"z": -3.8850696181,
				"element": "O" 
			},
			{
				"x": -2.2625317501,
				"y": 2.0214790028,
				"z": 3.2349508489,
				"element": "H" 
			},
			{
				"x": -4.0441520781,
				"y": 1.9458576256,
				"z": 3.2819646969,
				"element": "H" 
			},
			{
				"x": -3.2211937942,
				"y": 2.5824894282,
				"z": 1.8329866852,
				"element": "H" 
			},
			{
				"x": -1.0438641233,
				"y": 1.9330046334,
				"z": 1.2250368735,
				"element": "H" 
			},
			{
				"x": 0.6426770962,
				"y": 1.0153008316,
				"z": -0.2951602064,
				"element": "H" 
			},
			{
				"x": -1.4470138242,
				"y": -2.7466088974,
				"z": -0.3713054209,
				"element": "H" 
			},
			{
				"x": -3.1483970622,
				"y": -1.817327336,
				"z": 1.1638863456,
				"element": "H" 
			},
			{
				"x": 0.2395638074,
				"y": -3.5640056098,
				"z": -1.8476525568,
				"element": "H" 
			},
			{
				"x": 2.5163288929,
				"y": -3.4210314728,
				"z": -3.3501724008,
				"element": "H" 
			},
			{
				"x": 3.2452708873,
				"y": 0.8297204595,
				"z": -2.1557654837,
				"element": "H" 
			}
		],
		 "valence_orbital": [ 
			{
				"type": "occ",
				"energy": -0.2974,
				"method": "rhf"
			},
			{
				"type": "occ",
				"energy": -0.27113,
				"method": "rhf"
			},
			{
				"type": "occ",
				"energy": -0.27107,
				"method": "rhf"
			},
			{
				"type": "occ",
				"energy": -0.26647,
				"method": "rhf"
			},
			{
				"type": "occ",
				"energy": -0.21147,
				"method": "rhf"
			},
			{
				"type": "unocc",
				"energy": -0.05801,
				"method": "rhf"
			},
			{
				"type": "unocc",
				"energy": -0.01753,
				"method": "rhf"
			},
			{
				"type": "unocc",
				"energy": -0.00574,
				"method": "rhf"
			},
			{
				"type": "unocc",
				"energy": 0.06352,
				"method": "rhf"
			},
			{
				"type": "unocc",
				"energy": 0.06573,
				"method": "rhf"
			}
		],
		"cosmo_sigma_profile": { 
			"-0.025": 0.0,
			"-0.024": 0.0,
			"-0.023": 0.0,
			"-0.022": 0.0,
			"-0.021": 0.0,
			"-0.02": 0.0,
			"-0.019": 0.0,
			"-0.018": 0.0,
			"-0.017": 0.0,
			"-0.016": 0.445630377024,
			"-0.015": 0.708260713279,
			"-0.014": 0.987757195058,
			"-0.013": 0.605892799274,
			"-0.012": 0.0704239588133,
			"-0.011": 0.982519834218,
			"-0.01": 1.55271455473,
			"-0.009": 2.06520083885,
			"-0.008": 5.66689500661,
			"-0.007": 7.66697411644,
			"-0.006": 17.4744368865,
			"-0.005": 19.5742160496,
			"-0.004": 18.4490540849,
			"-0.003": 18.095241425,
			"-0.002": 12.5886895154,
			"-0.001": 11.7818580478,
			"0.0": 17.9997373305,
			"0.001": 19.2478239296,
			"0.002": 20.5893332925,
			"0.003": 18.6402623084,
			"0.004": 16.3130537604,
			"0.005": 5.73650637172,
			"0.006": 3.40815254725,
			"0.007": 3.99325552898,
			"0.008": 4.56327624371,
			"0.009": 4.10499512268,
			"0.01": 5.92283500296,
			"0.011": 4.90144547583,
			"0.012": 5.85983825491,
			"0.013": 2.41011059634,
			"0.014": 0.19725639677,
			"0.015": 0.0,
			"0.016": 0.0,
			"0.017": 0.0,
			"0.018": 0.0,
			"0.019": 0.0,
			"0.02": 0.0,
			"0.021": 0.0,
			"0.022": 0.0,
			"0.023": 0.0,
			"0.024": 0.0,
			"0.025": 0.0
		}
	}
}
