{
	 "smiles": "OC(=O)C1=CC=C(Cl)O1", 
	 "Tm": 454.15, 
	 "num_atms": 12, 
	 "gaussian": { 
		 "optdone": 1, 
		 "sigma_profile": "yes", 
		 "theory": "DFT", 
		 "functional": "B3LYP", 
		 "basiset": "6-31G**", 
		 "properties": { 
			 "R2extent": 2580.6422, 
			 "electric_dipole_moment_norm": 1.01360237273, 
			 "electric_quadrupole_moment_norm": 10.5745988184, 
			 "total_energy": -878.182965903, 
			 "HOMO_LUMO_gap": 0.19187, 
			 "cosmo_polarized_energy": -9.19, 
			 "cosmo_cavitation_energy": 19.6, 
			 "cosmo_dispersion_energy": -14.74, 
			 "cosmo_repulsion_energy": 1.24, 
			 "cosmo_total_nonelectrostatic_energy": 6.09, 
			 "SMD_solvation_energy": 5.28 
		},
		"coords": [
			{
				"x": 0.2455976956,
				"y": -0.1936582043,
				"z": 1.3062994573,
				"element": "O" 
			},
			{
				"x": 1.2854088672,
				"y": -0.1283610724,
				"z": 0.4454784752,
				"element": "C" 
			},
			{
				"x": 2.1665882392,
				"y": -0.9640427645,
				"z": 0.3863533848,
				"element": "O" 
			},
			{
				"x": 1.246684932,
				"y": 1.0524533959,
				"z": -0.4149368754,
				"element": "C" 
			},
			{
				"x": 2.1122790152,
				"y": 1.4564697459,
				"z": -1.3961704768,
				"element": "C" 
			},
			{
				"x": 1.6013213286,
				"y": 2.6782468331,
				"z": -1.9182991037,
				"element": "C" 
			},
			{
				"x": 0.4576081544,
				"y": 2.9196762535,
				"z": -1.2067197359,
				"element": "C" 
			},
			{
				"x": -0.6752697067,
				"y": 4.2019209423,
				"z": -1.2885166064,
				"element": "Cl" 
			},
			{
				"x": 0.2177397984,
				"y": 1.9583930195,
				"z": -0.2942728225,
				"element": "O" 
			},
			{
				"x": 0.3776204742,
				"y": -1.0092195022,
				"z": 1.8176170604,
				"element": "H" 
			},
			{
				"x": 3.005332674,
				"y": 0.9281704033,
				"z": -1.6955784081,
				"element": "H" 
			},
			{
				"x": 2.0108885279,
				"y": 3.2948509498,
				"z": -2.7033543488,
				"element": "H" 
			}
		],
		 "valence_orbital": [ 
			{
				"type": "occ",
				"energy": -0.34492,
				"method": "rhf"
			},
			{
				"type": "occ",
				"energy": -0.32621,
				"method": "rhf"
			},
			{
				"type": "occ",
				"energy": -0.30602,
				"method": "rhf"
			},
			{
				"type": "occ",
				"energy": -0.28707,
				"method": "rhf"
			},
			{
				"type": "occ",
				"energy": -0.24556,
				"method": "rhf"
			},
			{
				"type": "unocc",
				"energy": -0.05369,
				"method": "rhf"
			},
			{
				"type": "unocc",
				"energy": 0.02285,
				"method": "rhf"
			},
			{
				"type": "unocc",
				"energy": 0.02542,
				"method": "rhf"
			},
			{
				"type": "unocc",
				"energy": 0.07406,
				"method": "rhf"
			},
			{
				"type": "unocc",
				"energy": 0.09873,
				"method": "rhf"
			}
		],
		"cosmo_sigma_profile": { 
			"-0.025": 0.0,
			"-0.024": 0.0,
			"-0.023": 0.0,
			"-0.022": 0.0,
			"-0.021": 0.0,
			"-0.02": 0.0,
			"-0.019": 0.247491203967,
			"-0.018": 1.12301080455,
			"-0.017": 0.909597603445,
			"-0.016": 0.663411442042,
			"-0.015": 0.713461127478,
			"-0.014": 1.12679654245,
			"-0.013": 0.222413933065,
			"-0.012": 0.584930240203,
			"-0.011": 1.46352234796,
			"-0.01": 0.548800275354,
			"-0.009": 3.59739569619,
			"-0.008": 3.4000800974,
			"-0.007": 3.79356409623,
			"-0.006": 4.78767929088,
			"-0.005": 4.68892255661,
			"-0.004": 6.2215476387,
			"-0.003": 7.8496779298,
			"-0.002": 12.2466585445,
			"-0.001": 15.6932791966,
			"0.0": 15.5904709725,
			"0.001": 16.3100592976,
			"0.002": 20.0191299716,
			"0.003": 6.60147981795,
			"0.004": 3.45570724506,
			"0.005": 4.25959422213,
			"0.006": 3.43216254933,
			"0.007": 2.09596029799,
			"0.008": 3.74596340328,
			"0.009": 3.92381647568,
			"0.01": 2.85736960187,
			"0.011": 4.46335543668,
			"0.012": 3.69316601772,
			"0.013": 0.0196258321669,
			"0.014": 0.0,
			"0.015": 0.0,
			"0.016": 0.0,
			"0.017": 0.0,
			"0.018": 0.0,
			"0.019": 0.0,
			"0.02": 0.0,
			"0.021": 0.0,
			"0.022": 0.0,
			"0.023": 0.0,
			"0.024": 0.0,
			"0.025": 0.0
		}
	}
}
