{
	 "smiles": "NC1=CC=NN1C1=CC=C(C=C1)C#N", 
	 "Tm": 388.15, 
	 "num_atms": 22, 
	 "gaussian": { 
		 "optdone": 1, 
		 "sigma_profile": "yes", 
		 "theory": "DFT", 
		 "functional": "B3LYP", 
		 "basiset": "6-31G**", 
		 "properties": { 
			 "R2extent": 3591.5658, 
			 "electric_dipole_moment_norm": 6.07879279051, 
			 "electric_quadrupole_moment_norm": 22.4862349154, 
			 "total_energy": -604.849884314, 
			 "HOMO_LUMO_gap": 0.1668, 
			 "cosmo_polarized_energy": -16.37, 
			 "cosmo_cavitation_energy": 27.58, 
			 "cosmo_dispersion_energy": -19.87, 
			 "cosmo_repulsion_energy": 1.55, 
			 "cosmo_total_nonelectrostatic_energy": 9.26, 
			 "SMD_solvation_energy": 5.81 
		},
		"coords": [
			{
				"x": 0.8998419967,
				"y": 0.0646609766,
				"z": -2.4352245709,
				"element": "N" 
			},
			{
				"x": -0.0518230224,
				"y": -0.618793431,
				"z": -1.6787588663,
				"element": "C" 
			},
			{
				"x": -0.8909259518,
				"y": -1.6604188512,
				"z": -2.0271554758,
				"element": "C" 
			},
			{
				"x": -1.6486319992,
				"y": -1.9139034932,
				"z": -0.8601863592,
				"element": "C" 
			},
			{
				"x": -1.3241064285,
				"y": -1.1169912334,
				"z": 0.1434789725,
				"element": "N" 
			},
			{
				"x": -0.3455162286,
				"y": -0.2949700614,
				"z": -0.3709591294,
				"element": "N" 
			},
			{
				"x": 0.2261344681,
				"y": 0.6870645235,
				"z": 0.4679716551,
				"element": "C" 
			},
			{
				"x": 0.7361488231,
				"y": 1.8866364649,
				"z": -0.0526027718,
				"element": "C" 
			},
			{
				"x": 1.2925098835,
				"y": 2.8313560397,
				"z": 0.8033175367,
				"element": "C" 
			},
			{
				"x": 1.3327552401,
				"y": 2.6011814714,
				"z": 2.1875091865,
				"element": "C" 
			},
			{
				"x": 0.7958921967,
				"y": 1.4076139581,
				"z": 2.7038063569,
				"element": "C" 
			},
			{
				"x": 0.2498328541,
				"y": 0.4579155437,
				"z": 1.8529404882,
				"element": "C" 
			},
			{
				"x": 1.9094600304,
				"y": 3.5755158957,
				"z": 3.0651111052,
				"element": "C" 
			},
			{
				"x": 2.3809673386,
				"y": 4.3661842126,
				"z": 3.7769136033,
				"element": "N" 
			},
			{
				"x": 1.0921876551,
				"y": -0.4118294937,
				"z": -3.3075240071,
				"element": "H" 
			},
			{
				"x": 1.7657053463,
				"y": 0.2493200795,
				"z": -1.9395151357,
				"element": "H" 
			},
			{
				"x": -0.9319845002,
				"y": -2.1682718625,
				"z": -2.9791899786,
				"element": "H" 
			},
			{
				"x": -2.4215685915,
				"y": -2.658073388,
				"z": -0.7176014293,
				"element": "H" 
			},
			{
				"x": 0.6727244851,
				"y": 2.0887916829,
				"z": -1.1147878381,
				"element": "H" 
			},
			{
				"x": 1.6835534109,
				"y": 3.7604486129,
				"z": 0.4024623581,
				"element": "H" 
			},
			{
				"x": 0.8177218663,
				"y": 1.2293734017,
				"z": 3.7736220258,
				"element": "H" 
			},
			{
				"x": -0.1730788727,
				"y": -0.4619110485,
				"z": 2.2362722739,
				"element": "H" 
			}
		],
		 "valence_orbital": [ 
			{
				"type": "occ",
				"energy": -0.2943,
				"method": "rhf"
			},
			{
				"type": "occ",
				"energy": -0.29398,
				"method": "rhf"
			},
			{
				"type": "occ",
				"energy": -0.27864,
				"method": "rhf"
			},
			{
				"type": "occ",
				"energy": -0.23796,
				"method": "rhf"
			},
			{
				"type": "occ",
				"energy": -0.22324,
				"method": "rhf"
			},
			{
				"type": "unocc",
				"energy": -0.05644,
				"method": "rhf"
			},
			{
				"type": "unocc",
				"energy": -0.02834,
				"method": "rhf"
			},
			{
				"type": "unocc",
				"energy": 0.02042,
				"method": "rhf"
			},
			{
				"type": "unocc",
				"energy": 0.03798,
				"method": "rhf"
			},
			{
				"type": "unocc",
				"energy": 0.06036,
				"method": "rhf"
			}
		],
		"cosmo_sigma_profile": { 
			"-0.025": 0.0,
			"-0.024": 0.0,
			"-0.023": 0.0,
			"-0.022": 0.0,
			"-0.021": 0.0,
			"-0.02": 0.0,
			"-0.019": 0.0,
			"-0.018": 0.0,
			"-0.017": 0.0,
			"-0.016": 0.0,
			"-0.015": 0.0,
			"-0.014": 0.647207937996,
			"-0.013": 2.26272031091,
			"-0.012": 2.93785043509,
			"-0.011": 3.25591388985,
			"-0.01": 3.30665145538,
			"-0.009": 2.78641066161,
			"-0.008": 6.14072185838,
			"-0.007": 10.8717133902,
			"-0.006": 13.7690844332,
			"-0.005": 10.8173226575,
			"-0.004": 10.39651919,
			"-0.003": 10.4053426598,
			"-0.002": 11.121343658,
			"-0.001": 15.2908715996,
			"0.0": 14.5255025102,
			"0.001": 17.2588365259,
			"0.002": 18.6137914058,
			"0.003": 9.38334138744,
			"0.004": 8.72108979811,
			"0.005": 9.72594439628,
			"0.006": 6.62303687687,
			"0.007": 5.56897508601,
			"0.008": 6.02927145581,
			"0.009": 5.54784588336,
			"0.01": 5.42282474524,
			"0.011": 3.75905978584,
			"0.012": 4.11343487829,
			"0.013": 2.50112722998,
			"0.014": 1.04218038996,
			"0.015": 0.140101436392,
			"0.016": 0.0,
			"0.017": 0.0,
			"0.018": 0.0,
			"0.019": 0.0,
			"0.02": 0.0,
			"0.021": 0.0,
			"0.022": 0.0,
			"0.023": 0.0,
			"0.024": 0.0,
			"0.025": 0.0
		}
	}
}
