{
	 "smiles": "CN(CC(O)=O)C1=C2NC=NC2=NC=N1", 
	 "Tm": 511.15, 
	 "num_atms": 24, 
	 "gaussian": { 
		 "optdone": 1, 
		 "sigma_profile": "yes", 
		 "theory": "DFT", 
		 "functional": "B3LYP", 
		 "basiset": "6-31G**", 
		 "properties": { 
			 "R2extent": 3420.1871, 
			 "electric_dipole_moment_norm": 6.26185412638, 
			 "electric_quadrupole_moment_norm": 22.9927037677, 
			 "total_energy": -734.489884409, 
			 "HOMO_LUMO_gap": 0.19047, 
			 "cosmo_polarized_energy": -24.53, 
			 "cosmo_cavitation_energy": 27.99, 
			 "cosmo_dispersion_energy": -20.79, 
			 "cosmo_repulsion_energy": 1.59, 
			 "cosmo_total_nonelectrostatic_energy": 8.8, 
			 "SMD_solvation_energy": 1.32 
		},
		"coords": [
			{
				"x": 2.0261508219,
				"y": 0.793283326,
				"z": -0.5795873394,
				"element": "C" 
			},
			{
				"x": 0.6235422458,
				"y": 0.5015576276,
				"z": -0.8722342317,
				"element": "N" 
			},
			{
				"x": 0.2774030722,
				"y": 0.4551330686,
				"z": -2.2882442233,
				"element": "C" 
			},
			{
				"x": -0.1040644816,
				"y": 1.8449798482,
				"z": -2.7887896027,
				"element": "C" 
			},
			{
				"x": -1.4545908615,
				"y": 2.0400751004,
				"z": -2.7615544228,
				"element": "O" 
			},
			{
				"x": 0.6668255235,
				"y": 2.7066887497,
				"z": -3.133461767,
				"element": "O" 
			},
			{
				"x": -0.1250539399,
				"y": -0.2079335833,
				"z": 0.0571662162,
				"element": "C" 
			},
			{
				"x": -1.5185968442,
				"y": -0.4050464121,
				"z": -0.0251714521,
				"element": "C" 
			},
			{
				"x": -2.5438082701,
				"y": -0.0134771372,
				"z": -0.8738663278,
				"element": "N" 
			},
			{
				"x": -3.6935864272,
				"y": -0.5392677818,
				"z": -0.3400720745,
				"element": "C" 
			},
			{
				"x": -3.5090607045,
				"y": -1.2433451348,
				"z": 0.750454147,
				"element": "N" 
			},
			{
				"x": -2.1492104555,
				"y": -1.1657799425,
				"z": 0.9837827287,
				"element": "C" 
			},
			{
				"x": -1.4944515519,
				"y": -1.6875232572,
				"z": 2.0369120078,
				"element": "N" 
			},
			{
				"x": -0.2006617909,
				"y": -1.394552838,
				"z": 2.0418239723,
				"element": "C" 
			},
			{
				"x": 0.5081278719,
				"y": -0.7026976165,
				"z": 1.1258813385,
				"element": "N" 
			},
			{
				"x": 2.1306927214,
				"y": 1.0496790129,
				"z": 0.4732791299,
				"element": "H" 
			},
			{
				"x": 2.3376075269,
				"y": 1.638620016,
				"z": -1.1976644796,
				"element": "H" 
			},
			{
				"x": 2.6766029605,
				"y": -0.0677084314,
				"z": -0.7872443204,
				"element": "H" 
			},
			{
				"x": 1.1430881513,
				"y": 0.1223690241,
				"z": -2.8721161542,
				"element": "H" 
			},
			{
				"x": -0.5368619108,
				"y": -0.250273327,
				"z": -2.4607075821,
				"element": "H" 
			},
			{
				"x": -1.6146145281,
				"y": 2.9627453308,
				"z": -3.0255440937,
				"element": "H" 
			},
			{
				"x": -2.4816395231,
				"y": 0.6710480807,
				"z": -1.617847726,
				"element": "H" 
			},
			{
				"x": -4.6539662883,
				"y": -0.3687603491,
				"z": -0.8102604132,
				"element": "H" 
			},
			{
				"x": 0.378426682,
				"y": -1.7659133744,
				"z": 2.8851666699,
				"element": "H" 
			}
		],
		 "valence_orbital": [ 
			{
				"type": "occ",
				"energy": -0.28134,
				"method": "rhf"
			},
			{
				"type": "occ",
				"energy": -0.27581,
				"method": "rhf"
			},
			{
				"type": "occ",
				"energy": -0.25941,
				"method": "rhf"
			},
			{
				"type": "occ",
				"energy": -0.24589,
				"method": "rhf"
			},
			{
				"type": "occ",
				"energy": -0.22153,
				"method": "rhf"
			},
			{
				"type": "unocc",
				"energy": -0.03106,
				"method": "rhf"
			},
			{
				"type": "unocc",
				"energy": -0.02736,
				"method": "rhf"
			},
			{
				"type": "unocc",
				"energy": 0.00279,
				"method": "rhf"
			},
			{
				"type": "unocc",
				"energy": 0.04121,
				"method": "rhf"
			},
			{
				"type": "unocc",
				"energy": 0.04497,
				"method": "rhf"
			}
		],
		"cosmo_sigma_profile": { 
			"-0.025": 0.0,
			"-0.024": 0.0,
			"-0.023": 0.0,
			"-0.022": 0.0,
			"-0.021": 0.0,
			"-0.02": 0.0103463793584,
			"-0.019": 0.73612038749,
			"-0.018": 1.09813825571,
			"-0.017": 0.747270196815,
			"-0.016": 0.995272916407,
			"-0.015": 0.598343280364,
			"-0.014": 0.737642510895,
			"-0.013": 1.40794613775,
			"-0.012": 1.33176830555,
			"-0.011": 1.5599073593,
			"-0.01": 4.40376220572,
			"-0.009": 4.14506780905,
			"-0.008": 7.79616344346,
			"-0.007": 10.3808574775,
			"-0.006": 10.6522676202,
			"-0.005": 11.391406246,
			"-0.004": 14.819466768,
			"-0.003": 14.8685550329,
			"-0.002": 13.7820199165,
			"-0.001": 16.1531981917,
			"0.0": 17.6593107997,
			"0.001": 11.6945403549,
			"0.002": 9.38677287135,
			"0.003": 6.2988611427,
			"0.004": 6.5865055308,
			"0.005": 5.61494921346,
			"0.006": 4.12820269015,
			"0.007": 5.31815931622,
			"0.008": 5.28443725456,
			"0.009": 5.87551332026,
			"0.01": 5.98243115222,
			"0.011": 7.23721919229,
			"0.012": 2.70666347804,
			"0.013": 3.32681855053,
			"0.014": 3.295540516,
			"0.015": 2.58996922779,
			"0.016": 2.598526004,
			"0.017": 0.944896727553,
			"0.018": 0.0,
			"0.019": 0.0,
			"0.02": 0.0,
			"0.021": 0.0,
			"0.022": 0.0,
			"0.023": 0.0,
			"0.024": 0.0,
			"0.025": 0.0
		}
	}
}
