{
	 "smiles": "CCCC(=O)OCC(COC(=O)CCC)OC(=O)CCC", 
	 "Tm": 198.15, 
	 "num_atms": 47, 
	 "gaussian": { 
		 "optdone": 1, 
		 "sigma_profile": "yes", 
		 "theory": "DFT", 
		 "functional": "B3LYP", 
		 "basiset": "6-31G**", 
		 "properties": { 
			 "R2extent": 8297.638, 
			 "electric_dipole_moment_norm": 1.12087677289, 
			 "electric_quadrupole_moment_norm": 17.7149235615, 
			 "total_energy": -1038.67298265, 
			 "HOMO_LUMO_gap": 0.27056, 
			 "cosmo_polarized_energy": -13.69, 
			 "cosmo_cavitation_energy": 49.11, 
			 "cosmo_dispersion_energy": -30.92, 
			 "cosmo_repulsion_energy": 2.46, 
			 "cosmo_total_nonelectrostatic_energy": 20.65, 
			 "SMD_solvation_energy": 9.94 
		},
		"coords": [
			{
				"x": 3.7883440552,
				"y": 2.31994287,
				"z": 0.1295410543,
				"element": "C" 
			},
			{
				"x": 3.8253243106,
				"y": 2.208889008,
				"z": 1.6572705446,
				"element": "C" 
			},
			{
				"x": 2.9019237778,
				"y": 3.2133346309,
				"z": 2.3693670069,
				"element": "C" 
			},
			{
				"x": 1.4302179705,
				"y": 3.0757687032,
				"z": 2.0334751523,
				"element": "C" 
			},
			{
				"x": 0.684643469,
				"y": 3.9931306269,
				"z": 1.7616569075,
				"element": "O" 
			},
			{
				"x": 1.0246452786,
				"y": 1.781908143,
				"z": 2.1027960157,
				"element": "O" 
			},
			{
				"x": -0.3631411063,
				"y": 1.5269956445,
				"z": 1.8250401862,
				"element": "C" 
			},
			{
				"x": -0.6387564024,
				"y": 1.5244889769,
				"z": 0.3163990991,
				"element": "C" 
			},
			{
				"x": -2.0925557347,
				"y": 1.1730339624,
				"z": 0.0001078286,
				"element": "C" 
			},
			{
				"x": -2.4417218753,
				"y": 1.6221592709,
				"z": -1.3248365536,
				"element": "O" 
			},
			{
				"x": -2.3627609108,
				"y": 0.7246283987,
				"z": -2.3383177015,
				"element": "C" 
			},
			{
				"x": -1.9941887853,
				"y": -0.4229078384,
				"z": -2.2034075136,
				"element": "O" 
			},
			{
				"x": -2.8439110952,
				"y": 1.3462463641,
				"z": -3.6358145256,
				"element": "C" 
			},
			{
				"x": -2.386939611,
				"y": 0.5803406685,
				"z": -4.8821655345,
				"element": "C" 
			},
			{
				"x": -0.8860251362,
				"y": 0.7127455521,
				"z": -5.1598729483,
				"element": "C" 
			},
			{
				"x": 0.2866943567,
				"y": 0.7062795297,
				"z": -0.4363883502,
				"element": "O" 
			},
			{
				"x": 0.3462561797,
				"y": -0.6300502393,
				"z": -0.195020994,
				"element": "C" 
			},
			{
				"x": -0.2553926227,
				"y": -1.184567682,
				"z": 0.7009856498,
				"element": "O" 
			},
			{
				"x": 1.2274045672,
				"y": -1.3197447089,
				"z": -1.2143932779,
				"element": "C" 
			},
			{
				"x": 1.7404711655,
				"y": -2.6855732207,
				"z": -0.7455711839,
				"element": "C" 
			},
			{
				"x": 2.7625312068,
				"y": -2.5948117742,
				"z": 0.3924097257,
				"element": "C" 
			},
			{
				"x": 4.5061933135,
				"y": 1.6316387716,
				"z": -0.3283331768,
				"element": "H" 
			},
			{
				"x": 4.0403935474,
				"y": 3.3331638983,
				"z": -0.2035867873,
				"element": "H" 
			},
			{
				"x": 2.7965285063,
				"y": 2.0715757448,
				"z": -0.2625660471,
				"element": "H" 
			},
			{
				"x": 4.8471518626,
				"y": 2.3801212329,
				"z": 2.0164071426,
				"element": "H" 
			},
			{
				"x": 3.5510237464,
				"y": 1.1937467803,
				"z": 1.961748439,
				"element": "H" 
			},
			{
				"x": 3.1792208634,
				"y": 4.2444673428,
				"z": 2.133579434,
				"element": "H" 
			},
			{
				"x": 2.9965994049,
				"y": 3.0896446485,
				"z": 3.4561949589,
				"element": "H" 
			},
			{
				"x": -0.5707810338,
				"y": 0.5567727132,
				"z": 2.2700394228,
				"element": "H" 
			},
			{
				"x": -0.976323383,
				"y": 2.3069824701,
				"z": 2.2857596376,
				"element": "H" 
			},
			{
				"x": -0.4420267428,
				"y": 2.5294180306,
				"z": -0.0627749984,
				"element": "H" 
			},
			{
				"x": -2.2727137587,
				"y": 0.1024470734,
				"z": 0.0958079117,
				"element": "H" 
			},
			{
				"x": -2.7555450444,
				"y": 1.725152964,
				"z": 0.6719938398,
				"element": "H" 
			},
			{
				"x": -3.9406764385,
				"y": 1.3699705368,
				"z": -3.5782778397,
				"element": "H" 
			},
			{
				"x": -2.5225939518,
				"y": 2.3932813064,
				"z": -3.661012012,
				"element": "H" 
			},
			{
				"x": -2.6483393167,
				"y": -0.4758222083,
				"z": -4.7589206538,
				"element": "H" 
			},
			{
				"x": -2.9552012212,
				"y": 0.9517876048,
				"z": -5.7429395115,
				"element": "H" 
			},
			{
				"x": -0.6015514294,
				"y": 1.7598858746,
				"z": -5.3155208235,
				"element": "H" 
			},
			{
				"x": -0.2959075114,
				"y": 0.3237081684,
				"z": -4.3245246246,
				"element": "H" 
			},
			{
				"x": -0.6018617187,
				"y": 0.1540963731,
				"z": -6.0572445583,
				"element": "H" 
			},
			{
				"x": 0.6000056122,
				"y": -1.427889071,
				"z": -2.1089679601,
				"element": "H" 
			},
			{
				"x": 2.0479888834,
				"y": -0.6481284362,
				"z": -1.4893178064,
				"element": "H" 
			},
			{
				"x": 0.8842914719,
				"y": -3.2878470178,
				"z": -0.424701872,
				"element": "H" 
			},
			{
				"x": 2.1876454192,
				"y": -3.1989788855,
				"z": -1.6049436876,
				"element": "H" 
			},
			{
				"x": 3.1120968477,
				"y": -3.5892991181,
				"z": 0.6877814225,
				"element": "H" 
			},
			{
				"x": 3.6400887711,
				"y": -2.0093128114,
				"z": 0.0933484765,
				"element": "H" 
			},
			{
				"x": 2.3232302429,
				"y": -2.1211208732,
				"z": 1.2757110863,
				"element": "H" 
			}
		],
		 "valence_orbital": [ 
			{
				"type": "occ",
				"energy": -0.30922,
				"method": "rhf"
			},
			{
				"type": "occ",
				"energy": -0.28686,
				"method": "rhf"
			},
			{
				"type": "occ",
				"energy": -0.277,
				"method": "rhf"
			},
			{
				"type": "occ",
				"energy": -0.27205,
				"method": "rhf"
			},
			{
				"type": "occ",
				"energy": -0.26566,
				"method": "rhf"
			},
			{
				"type": "unocc",
				"energy": 0.0049,
				"method": "rhf"
			},
			{
				"type": "unocc",
				"energy": 0.00616,
				"method": "rhf"
			},
			{
				"type": "unocc",
				"energy": 0.01405,
				"method": "rhf"
			},
			{
				"type": "unocc",
				"energy": 0.07384,
				"method": "rhf"
			},
			{
				"type": "unocc",
				"energy": 0.08493,
				"method": "rhf"
			}
		],
		"cosmo_sigma_profile": { 
			"-0.025": 0.0,
			"-0.024": 0.0,
			"-0.023": 0.0,
			"-0.022": 0.0,
			"-0.021": 0.0,
			"-0.02": 0.0,
			"-0.019": 0.0,
			"-0.018": 0.0,
			"-0.017": 0.0,
			"-0.016": 0.0,
			"-0.015": 0.0,
			"-0.014": 0.0,
			"-0.013": 0.0,
			"-0.012": 0.0,
			"-0.011": 0.0,
			"-0.01": 0.0429476145866,
			"-0.009": 1.35810296061,
			"-0.008": 2.77933785973,
			"-0.007": 4.44128590983,
			"-0.006": 9.95772722152,
			"-0.005": 15.2483922552,
			"-0.004": 22.6702408112,
			"-0.003": 43.3990277688,
			"-0.002": 55.6681648795,
			"-0.001": 49.9649748279,
			"0.0": 44.6980274477,
			"0.001": 37.9682885362,
			"0.002": 20.0880492313,
			"0.003": 12.0320374589,
			"0.004": 10.0599074111,
			"0.005": 8.3605626107,
			"0.006": 6.63401687849,
			"0.007": 7.02894162788,
			"0.008": 6.29080671192,
			"0.009": 4.74418594868,
			"0.01": 4.90728816203,
			"0.011": 6.39586271001,
			"0.012": 6.16191471464,
			"0.013": 0.943926007794,
			"0.014": 0.0,
			"0.015": 0.0,
			"0.016": 0.0,
			"0.017": 0.0,
			"0.018": 0.0,
			"0.019": 0.0,
			"0.02": 0.0,
			"0.021": 0.0,
			"0.022": 0.0,
			"0.023": 0.0,
			"0.024": 0.0,
			"0.025": 0.0
		}
	}
}
