{
	 "smiles": "OC(=O)CCC1=CC2=C(C=CC=C2)C=C1", 
	 "Tm": 409.15, 
	 "num_atms": 27, 
	 "gaussian": { 
		 "optdone": 1, 
		 "sigma_profile": "yes", 
		 "theory": "DFT", 
		 "functional": "B3LYP", 
		 "basiset": "6-31G**", 
		 "properties": { 
			 "R2extent": 3983.8367, 
			 "electric_dipole_moment_norm": 1.58886949433, 
			 "electric_quadrupole_moment_norm": 18.4454247192, 
			 "total_energy": -653.097244258, 
			 "HOMO_LUMO_gap": 0.17507, 
			 "cosmo_polarized_energy": -11.72, 
			 "cosmo_cavitation_energy": 30.85, 
			 "cosmo_dispersion_energy": -22.07, 
			 "cosmo_repulsion_energy": 1.72, 
			 "cosmo_total_nonelectrostatic_energy": 10.51, 
			 "SMD_solvation_energy": 5.83 
		},
		"coords": [
			{
				"x": -0.2767204405,
				"y": 4.0443831727,
				"z": 0.8644610346,
				"element": "O" 
			},
			{
				"x": 0.0103784854,
				"y": 3.1831004942,
				"z": 1.8779952332,
				"element": "C" 
			},
			{
				"x": -0.6759791429,
				"y": 3.1083527338,
				"z": 2.8715162137,
				"element": "O" 
			},
			{
				"x": 1.2815282699,
				"y": 2.401333659,
				"z": 1.6211650263,
				"element": "C" 
			},
			{
				"x": 1.4006520777,
				"y": 1.7735035648,
				"z": 0.2130872464,
				"element": "C" 
			},
			{
				"x": 0.3760200383,
				"y": 0.692609084,
				"z": -0.0648349883,
				"element": "C" 
			},
			{
				"x": 0.6481621899,
				"y": -0.6324231687,
				"z": 0.2136700031,
				"element": "C" 
			},
			{
				"x": -0.3068322019,
				"y": -1.6580820721,
				"z": -0.0157885126,
				"element": "C" 
			},
			{
				"x": -1.5868501565,
				"y": -1.3047572929,
				"z": -0.5538802358,
				"element": "C" 
			},
			{
				"x": -2.5425648545,
				"y": -2.3299905134,
				"z": -0.7867847513,
				"element": "C" 
			},
			{
				"x": -2.2500011181,
				"y": -3.6446378838,
				"z": -0.5009777018,
				"element": "C" 
			},
			{
				"x": -0.9840722457,
				"y": -3.994885349,
				"z": 0.0309879176,
				"element": "C" 
			},
			{
				"x": -0.0361163164,
				"y": -3.0246872345,
				"z": 0.2666036529,
				"element": "C" 
			},
			{
				"x": -1.8474923906,
				"y": 0.0621769266,
				"z": -0.8385583319,
				"element": "C" 
			},
			{
				"x": -0.898058083,
				"y": 1.0292814506,
				"z": -0.6026083861,
				"element": "C" 
			},
			{
				"x": -1.0867725104,
				"y": 4.5086837226,
				"z": 1.1349169772,
				"element": "H" 
			},
			{
				"x": 2.1165118656,
				"y": 3.0990501527,
				"z": 1.769297481,
				"element": "H" 
			},
			{
				"x": 1.3453658316,
				"y": 1.6371956606,
				"z": 2.3988003943,
				"element": "H" 
			},
			{
				"x": 1.3225878261,
				"y": 2.5680267369,
				"z": -0.5355525093,
				"element": "H" 
			},
			{
				"x": 2.407167031,
				"y": 1.3502862024,
				"z": 0.1255314609,
				"element": "H" 
			},
			{
				"x": 1.6198125918,
				"y": -0.9119285716,
				"z": 0.6170206789,
				"element": "H" 
			},
			{
				"x": -3.5125714846,
				"y": -2.0575505974,
				"z": -1.1952037876,
				"element": "H" 
			},
			{
				"x": -2.9892565294,
				"y": -4.4195258155,
				"z": -0.6822381906,
				"element": "H" 
			},
			{
				"x": -0.7645957541,
				"y": -5.0353736473,
				"z": 0.2527109567,
				"element": "H" 
			},
			{
				"x": 0.9354275168,
				"y": -3.2919956802,
				"z": 0.6748099741,
				"element": "H" 
			},
			{
				"x": -2.8146098067,
				"y": 0.3352284475,
				"z": -1.2535411959,
				"element": "H" 
			},
			{
				"x": -1.1132206889,
				"y": 2.069725818,
				"z": -0.8283056596,
				"element": "H" 
			}
		],
		 "valence_orbital": [ 
			{
				"type": "occ",
				"energy": -0.31648,
				"method": "rhf"
			},
			{
				"type": "occ",
				"energy": -0.28158,
				"method": "rhf"
			},
			{
				"type": "occ",
				"energy": -0.27209,
				"method": "rhf"
			},
			{
				"type": "occ",
				"energy": -0.23821,
				"method": "rhf"
			},
			{
				"type": "occ",
				"energy": -0.2126,
				"method": "rhf"
			},
			{
				"type": "unocc",
				"energy": -0.03753,
				"method": "rhf"
			},
			{
				"type": "unocc",
				"energy": -0.0087,
				"method": "rhf"
			},
			{
				"type": "unocc",
				"energy": 0.00875,
				"method": "rhf"
			},
			{
				"type": "unocc",
				"energy": 0.03407,
				"method": "rhf"
			},
			{
				"type": "unocc",
				"energy": 0.071,
				"method": "rhf"
			}
		],
		"cosmo_sigma_profile": { 
			"-0.025": 0.0,
			"-0.024": 0.0,
			"-0.023": 0.0,
			"-0.022": 0.0,
			"-0.021": 0.0,
			"-0.02": 0.0,
			"-0.019": 0.0,
			"-0.018": 0.48401899229,
			"-0.017": 1.03906953381,
			"-0.016": 0.420347870763,
			"-0.015": 1.12621221331,
			"-0.014": 0.742944818487,
			"-0.013": 0.846246230772,
			"-0.012": 0.634067893826,
			"-0.011": 0.467246411928,
			"-0.01": 0.578736688563,
			"-0.009": 0.796861555479,
			"-0.008": 0.486179754219,
			"-0.007": 2.2542602191,
			"-0.006": 10.0519110577,
			"-0.005": 21.3817859783,
			"-0.004": 22.791080413,
			"-0.003": 25.1826730958,
			"-0.002": 18.7710002378,
			"-0.001": 16.0145846463,
			"0.0": 11.3994168877,
			"0.001": 13.534919036,
			"0.002": 13.7210066974,
			"0.003": 14.5395413416,
			"0.004": 23.0373141232,
			"0.005": 20.2558494406,
			"0.006": 5.22649597146,
			"0.007": 2.80483832829,
			"0.008": 2.53111816247,
			"0.009": 2.40833982134,
			"0.01": 1.91472002419,
			"0.011": 3.75179354328,
			"0.012": 4.83020329659,
			"0.013": 1.04807763555,
			"0.014": 0.0,
			"0.015": 0.0,
			"0.016": 0.0,
			"0.017": 0.0,
			"0.018": 0.0,
			"0.019": 0.0,
			"0.02": 0.0,
			"0.021": 0.0,
			"0.022": 0.0,
			"0.023": 0.0,
			"0.024": 0.0,
			"0.025": 0.0
		}
	}
}
