{
	 "smiles": "CC1=CC=CC(C)=C1NC(=O)C1=CC=CNC1=O", 
	 "Tm": 539.15, 
	 "num_atms": 32, 
	 "gaussian": { 
		 "optdone": 1, 
		 "sigma_profile": "yes", 
		 "theory": "DFT", 
		 "functional": "B3LYP", 
		 "basiset": "6-31G**", 
		 "properties": { 
			 "R2extent": 5580.8945, 
			 "electric_dipole_moment_norm": 5.72827633237, 
			 "electric_quadrupole_moment_norm": 25.668584998, 
			 "total_energy": -801.924840827, 
			 "HOMO_LUMO_gap": 0.14764, 
			 "cosmo_polarized_energy": -18.51, 
			 "cosmo_cavitation_energy": 35.39, 
			 "cosmo_dispersion_energy": -25.2, 
			 "cosmo_repulsion_energy": 1.92, 
			 "cosmo_total_nonelectrostatic_energy": 12.12, 
			 "SMD_solvation_energy": 7.34 
		},
		"coords": [
			{
				"x": -1.7917318133,
				"y": 0.1907938212,
				"z": -2.1507336739,
				"element": "C" 
			},
			{
				"x": -2.4619377181,
				"y": -0.1553060162,
				"z": -0.841750739,
				"element": "C" 
			},
			{
				"x": -3.6752398576,
				"y": -0.8485322388,
				"z": -0.8260035144,
				"element": "C" 
			},
			{
				"x": -4.2895158413,
				"y": -1.1857787421,
				"z": 0.3788098714,
				"element": "C" 
			},
			{
				"x": -3.6986867014,
				"y": -0.8132827095,
				"z": 1.5829775287,
				"element": "C" 
			},
			{
				"x": -2.4907406507,
				"y": -0.104633721,
				"z": 1.6158498096,
				"element": "C" 
			},
			{
				"x": -1.9066546287,
				"y": 0.3324807829,
				"z": 2.9344270945,
				"element": "C" 
			},
			{
				"x": -1.8710454795,
				"y": 0.2023727167,
				"z": 0.3883273079,
				"element": "C" 
			},
			{
				"x": -0.655164269,
				"y": 0.9431401375,
				"z": 0.3429612302,
				"element": "N" 
			},
			{
				"x": 0.5301444266,
				"y": 0.558480538,
				"z": 0.9011313624,
				"element": "C" 
			},
			{
				"x": 0.6878549486,
				"y": -0.446207867,
				"z": 1.5924729596,
				"element": "O" 
			},
			{
				"x": 1.6936463275,
				"y": 1.4795682493,
				"z": 0.6213231643,
				"element": "C" 
			},
			{
				"x": 2.8900308378,
				"y": 1.1838037015,
				"z": 1.2331451712,
				"element": "C" 
			},
			{
				"x": 4.0558796342,
				"y": 1.9674061057,
				"z": 1.0448648271,
				"element": "C" 
			},
			{
				"x": 3.9737745003,
				"y": 3.051896003,
				"z": 0.2180717989,
				"element": "C" 
			},
			{
				"x": 2.7953640173,
				"y": 3.3488970293,
				"z": -0.3960966862,
				"element": "N" 
			},
			{
				"x": 1.5991904542,
				"y": 2.6282183568,
				"z": -0.2675224451,
				"element": "C" 
			},
			{
				"x": 0.6072963249,
				"y": 3.0174422138,
				"z": -0.9016589417,
				"element": "O" 
			},
			{
				"x": -0.7660022184,
				"y": -0.1924362793,
				"z": -2.1883396452,
				"element": "H" 
			},
			{
				"x": -2.3455042622,
				"y": -0.2341921106,
				"z": -2.9918554383,
				"element": "H" 
			},
			{
				"x": -1.7276502124,
				"y": 1.2741726451,
				"z": -2.3111991118,
				"element": "H" 
			},
			{
				"x": -4.1338556224,
				"y": -1.1325037972,
				"z": -1.7696199815,
				"element": "H" 
			},
			{
				"x": -5.2298210383,
				"y": -1.7298345517,
				"z": 0.3781108422,
				"element": "H" 
			},
			{
				"x": -4.1851440842,
				"y": -1.0592534766,
				"z": 2.5233400448,
				"element": "H" 
			},
			{
				"x": -2.6425599493,
				"y": 0.2279241172,
				"z": 3.7363521883,
				"element": "H" 
			},
			{
				"x": -1.5878827207,
				"y": 1.3800876272,
				"z": 2.8955386492,
				"element": "H" 
			},
			{
				"x": -1.0203909324,
				"y": -0.2592139265,
				"z": 3.1820772121,
				"element": "H" 
			},
			{
				"x": -0.5881096971,
				"y": 1.7421983184,
				"z": -0.2906334243,
				"element": "H" 
			},
			{
				"x": 2.9039210299,
				"y": 0.3085654975,
				"z": 1.8761215387,
				"element": "H" 
			},
			{
				"x": 4.9883955151,
				"y": 1.7220410649,
				"z": 1.5369246467,
				"element": "H" 
			},
			{
				"x": 4.805005645,
				"y": 3.7152469354,
				"z": 0.0069758237,
				"element": "H" 
			},
			{
				"x": 2.724634036,
				"y": 4.1480395748,
				"z": -1.0149894701,
				"element": "H" 
			}
		],
		 "valence_orbital": [ 
			{
				"type": "occ",
				"energy": -0.2646,
				"method": "rhf"
			},
			{
				"type": "occ",
				"energy": -0.24791,
				"method": "rhf"
			},
			{
				"type": "occ",
				"energy": -0.23696,
				"method": "rhf"
			},
			{
				"type": "occ",
				"energy": -0.22446,
				"method": "rhf"
			},
			{
				"type": "occ",
				"energy": -0.21462,
				"method": "rhf"
			},
			{
				"type": "unocc",
				"energy": -0.06698,
				"method": "rhf"
			},
			{
				"type": "unocc",
				"energy": -0.00869,
				"method": "rhf"
			},
			{
				"type": "unocc",
				"energy": 0.01032,
				"method": "rhf"
			},
			{
				"type": "unocc",
				"energy": 0.01731,
				"method": "rhf"
			},
			{
				"type": "unocc",
				"energy": 0.05134,
				"method": "rhf"
			}
		],
		"cosmo_sigma_profile": { 
			"-0.025": 0.0,
			"-0.024": 0.0,
			"-0.023": 0.0,
			"-0.022": 0.0,
			"-0.021": 0.0,
			"-0.02": 0.0,
			"-0.019": 0.0,
			"-0.018": 0.0,
			"-0.017": 0.703178864225,
			"-0.016": 1.77299080718,
			"-0.015": 1.37652158356,
			"-0.014": 0.740326079989,
			"-0.013": 1.20746694,
			"-0.012": 1.4252479059,
			"-0.011": 1.8314521591,
			"-0.01": 3.3685303603,
			"-0.009": 2.53558271832,
			"-0.008": 3.52638234708,
			"-0.007": 5.33810425055,
			"-0.006": 7.18184680182,
			"-0.005": 13.1764370114,
			"-0.004": 17.8531824317,
			"-0.003": 21.2408125484,
			"-0.002": 22.9017158055,
			"-0.001": 28.7297811964,
			"0.0": 30.238133633,
			"0.001": 27.8398353859,
			"0.002": 18.3712092762,
			"0.003": 10.3444176971,
			"0.004": 9.7622496487,
			"0.005": 10.9008035152,
			"0.006": 10.0107965853,
			"0.007": 4.42602435095,
			"0.008": 3.22759428979,
			"0.009": 2.75901588448,
			"0.01": 4.07294032668,
			"0.011": 2.35161219336,
			"0.012": 4.12341831881,
			"0.013": 5.49007876947,
			"0.014": 3.21200466361,
			"0.015": 0.108090467167,
			"0.016": 0.0,
			"0.017": 0.0,
			"0.018": 0.0,
			"0.019": 0.0,
			"0.02": 0.0,
			"0.021": 0.0,
			"0.022": 0.0,
			"0.023": 0.0,
			"0.024": 0.0,
			"0.025": 0.0
		}
	}
}
