{
	 "smiles": "O=CC1=CC=C(CN2C=CC=N2)C=C1", 
	 "Tm": 331.15, 
	 "num_atms": 24, 
	 "gaussian": { 
		 "optdone": 1, 
		 "sigma_profile": "yes", 
		 "theory": "DFT", 
		 "functional": "B3LYP", 
		 "basiset": "6-31G**", 
		 "properties": { 
			 "R2extent": 3757.442, 
			 "electric_dipole_moment_norm": 4.1944467609, 
			 "electric_quadrupole_moment_norm": 17.2370446011, 
			 "total_energy": -609.891547613, 
			 "HOMO_LUMO_gap": 0.18192, 
			 "cosmo_polarized_energy": -13.02, 
			 "cosmo_cavitation_energy": 28.99, 
			 "cosmo_dispersion_energy": -20.56, 
			 "cosmo_repulsion_energy": 1.6, 
			 "cosmo_total_nonelectrostatic_energy": 10.03, 
			 "SMD_solvation_energy": 5.69 
		},
		"coords": [
			{
				"x": -3.4104068465,
				"y": -2.4021518869,
				"z": -3.4654701024,
				"element": "O" 
			},
			{
				"x": -2.2389821025,
				"y": -2.1872175291,
				"z": -3.7124375486,
				"element": "C" 
			},
			{
				"x": -1.3525981622,
				"y": -1.3217600192,
				"z": -2.9024648935,
				"element": "C" 
			},
			{
				"x": -1.8430748747,
				"y": -0.675488324,
				"z": -1.7558018959,
				"element": "C" 
			},
			{
				"x": -1.00770006,
				"y": 0.1361670518,
				"z": -1.0003979458,
				"element": "C" 
			},
			{
				"x": 0.3353051464,
				"y": 0.3137245645,
				"z": -1.3745119422,
				"element": "C" 
			},
			{
				"x": 1.2438619699,
				"y": 1.2263441766,
				"z": -0.567902314,
				"element": "C" 
			},
			{
				"x": 1.1827423979,
				"y": 1.000127231,
				"z": 0.8686654113,
				"element": "N" 
			},
			{
				"x": 1.8470916869,
				"y": 0.0628093549,
				"z": 1.5984870338,
				"element": "C" 
			},
			{
				"x": 1.3949369354,
				"y": 0.1747706885,
				"z": 2.8990914543,
				"element": "C" 
			},
			{
				"x": 0.4399334705,
				"y": 1.2135953326,
				"z": 2.8502872084,
				"element": "C" 
			},
			{
				"x": 0.3088789761,
				"y": 1.7111682134,
				"z": 1.6200048925,
				"element": "N" 
			},
			{
				"x": 0.8229477728,
				"y": -0.3335060148,
				"z": -2.5149414206,
				"element": "C" 
			},
			{
				"x": -0.0164021873,
				"y": -1.1446174544,
				"z": -3.2775865533,
				"element": "C" 
			},
			{
				"x": -1.7487953385,
				"y": -2.6490236267,
				"z": -4.5990806576,
				"element": "H" 
			},
			{
				"x": -2.8827850582,
				"y": -0.8255011077,
				"z": -1.4824479911,
				"element": "H" 
			},
			{
				"x": -1.3788249627,
				"y": 0.6388070017,
				"z": -0.1122789403,
				"element": "H" 
			},
			{
				"x": 2.281960471,
				"y": 1.1089140484,
				"z": -0.8926355371,
				"element": "H" 
			},
			{
				"x": 0.9639573034,
				"y": 2.2731028581,
				"z": -0.7188188129,
				"element": "H" 
			},
			{
				"x": 2.5761535904,
				"y": -0.5932142854,
				"z": 1.1451852495,
				"element": "H" 
			},
			{
				"x": 1.715242893,
				"y": -0.4002537149,
				"z": 3.7549019014,
				"element": "H" 
			},
			{
				"x": -0.1498164308,
				"y": 1.6260539805,
				"z": 3.6580821799,
				"element": "H" 
			},
			{
				"x": 1.8619447149,
				"y": -0.2026693005,
				"z": -2.8071364364,
				"element": "H" 
			},
			{
				"x": 0.3655286947,
				"y": -1.6476812384,
				"z": -4.1630923395,
				"element": "H" 
			}
		],
		 "valence_orbital": [ 
			{
				"type": "occ",
				"energy": -0.26914,
				"method": "rhf"
			},
			{
				"type": "occ",
				"energy": -0.2659,
				"method": "rhf"
			},
			{
				"type": "occ",
				"energy": -0.25614,
				"method": "rhf"
			},
			{
				"type": "occ",
				"energy": -0.25087,
				"method": "rhf"
			},
			{
				"type": "occ",
				"energy": -0.24813,
				"method": "rhf"
			},
			{
				"type": "unocc",
				"energy": -0.06621,
				"method": "rhf"
			},
			{
				"type": "unocc",
				"energy": -0.01886,
				"method": "rhf"
			},
			{
				"type": "unocc",
				"energy": 0.01277,
				"method": "rhf"
			},
			{
				"type": "unocc",
				"energy": 0.03286,
				"method": "rhf"
			},
			{
				"type": "unocc",
				"energy": 0.06736,
				"method": "rhf"
			}
		],
		"cosmo_sigma_profile": { 
			"-0.025": 0.0,
			"-0.024": 0.0,
			"-0.023": 0.0,
			"-0.022": 0.0,
			"-0.021": 0.0,
			"-0.02": 0.0,
			"-0.019": 0.0,
			"-0.018": 0.0,
			"-0.017": 0.0,
			"-0.016": 0.0,
			"-0.015": 0.0,
			"-0.014": 0.0,
			"-0.013": 0.0,
			"-0.012": 0.0,
			"-0.011": 0.0,
			"-0.01": 0.0,
			"-0.009": 1.45578415495,
			"-0.008": 6.86506964513,
			"-0.007": 13.8731667839,
			"-0.006": 16.77341556,
			"-0.005": 15.938666111,
			"-0.004": 18.4672399018,
			"-0.003": 14.3157922208,
			"-0.002": 13.2170062077,
			"-0.001": 13.3435786917,
			"0.0": 12.5393875604,
			"0.001": 16.6745902547,
			"0.002": 16.4050737986,
			"0.003": 20.944305901,
			"0.004": 11.2038753714,
			"0.005": 9.27384976644,
			"0.006": 5.75519706309,
			"0.007": 3.559176146,
			"0.008": 2.91041040685,
			"0.009": 3.21241138564,
			"0.01": 3.16793981307,
			"0.011": 5.29367455321,
			"0.012": 4.06088179134,
			"0.013": 1.8323617583,
			"0.014": 0.558300198301,
			"0.015": 0.686204632438,
			"0.016": 0.334015237256,
			"0.017": 0.0,
			"0.018": 0.0,
			"0.019": 0.0,
			"0.02": 0.0,
			"0.021": 0.0,
			"0.022": 0.0,
			"0.023": 0.0,
			"0.024": 0.0,
			"0.025": 0.0
		}
	}
}
