{
	 "smiles": "C=CC=CC#N", 
	 "Tm": 213.15, 
	 "num_atms": 11, 
	 "gaussian": { 
		 "optdone": 1, 
		 "sigma_profile": "yes", 
		 "theory": "DFT", 
		 "functional": "B3LYP", 
		 "basiset": "6-31G**", 
		 "properties": { 
			 "R2extent": 829.0934, 
			 "electric_dipole_moment_norm": 4.55587716801, 
			 "electric_quadrupole_moment_norm": 9.84395082373, 
			 "total_energy": -248.234500213, 
			 "HOMO_LUMO_gap": 0.17848, 
			 "cosmo_polarized_energy": -8.37, 
			 "cosmo_cavitation_energy": 16.71, 
			 "cosmo_dispersion_energy": -11.27, 
			 "cosmo_repulsion_energy": 0.98, 
			 "cosmo_total_nonelectrostatic_energy": 6.42, 
			 "SMD_solvation_energy": 5.42 
		},
		"coords": [
			{
				"x": 1.3147913863,
				"y": 1.2027438484,
				"z": 1.0310030957,
				"element": "C" 
			},
			{
				"x": 1.6504878144,
				"y": 0.1355660345,
				"z": 0.2922808354,
				"element": "C" 
			},
			{
				"x": 0.71480154,
				"y": -0.7908493166,
				"z": -0.3442512616,
				"element": "C" 
			},
			{
				"x": -0.5481216716,
				"y": -0.4927966174,
				"z": -0.7168896168,
				"element": "C" 
			},
			{
				"x": -1.4210271231,
				"y": -1.451849521,
				"z": -1.3071354517,
				"element": "C" 
			},
			{
				"x": -2.1489170805,
				"y": -2.2206457502,
				"z": -1.7925187622,
				"element": "N" 
			},
			{
				"x": 0.2798830503,
				"y": 1.4544563552,
				"z": 1.245421865,
				"element": "H" 
			},
			{
				"x": 2.0726721322,
				"y": 1.8484309693,
				"z": 1.4622388436,
				"element": "H" 
			},
			{
				"x": 2.7049475261,
				"y": -0.1017405727,
				"z": 0.1622030431,
				"element": "H" 
			},
			{
				"x": 1.085428939,
				"y": -1.7940134308,
				"z": -0.5450722693,
				"element": "H" 
			},
			{
				"x": -0.9510465132,
				"y": 0.5088980012,
				"z": -0.5910803212,
				"element": "H" 
			}
		],
		 "valence_orbital": [ 
			{
				"type": "occ",
				"energy": -0.37771,
				"method": "rhf"
			},
			{
				"type": "occ",
				"energy": -0.35723,
				"method": "rhf"
			},
			{
				"type": "occ",
				"energy": -0.32894,
				"method": "rhf"
			},
			{
				"type": "occ",
				"energy": -0.3253,
				"method": "rhf"
			},
			{
				"type": "occ",
				"energy": -0.25535,
				"method": "rhf"
			},
			{
				"type": "unocc",
				"energy": -0.07687,
				"method": "rhf"
			},
			{
				"type": "unocc",
				"energy": 0.03027,
				"method": "rhf"
			},
			{
				"type": "unocc",
				"energy": 0.03383,
				"method": "rhf"
			},
			{
				"type": "unocc",
				"energy": 0.08856,
				"method": "rhf"
			},
			{
				"type": "unocc",
				"energy": 0.1033,
				"method": "rhf"
			}
		],
		"cosmo_sigma_profile": { 
			"-0.025": 0.0,
			"-0.024": 0.0,
			"-0.023": 0.0,
			"-0.022": 0.0,
			"-0.021": 0.0,
			"-0.02": 0.0,
			"-0.019": 0.0,
			"-0.018": 0.0,
			"-0.017": 0.0,
			"-0.016": 0.0,
			"-0.015": 0.0,
			"-0.014": 0.0,
			"-0.013": 0.0,
			"-0.012": 0.0,
			"-0.011": 0.0,
			"-0.01": 0.970102944534,
			"-0.009": 2.08474555504,
			"-0.008": 4.672699114,
			"-0.007": 8.82936949144,
			"-0.006": 9.46976401565,
			"-0.005": 8.41548523585,
			"-0.004": 8.41325754237,
			"-0.003": 8.44058203622,
			"-0.002": 8.97293534418,
			"-0.001": 8.54623883132,
			"0.0": 10.7048096352,
			"0.001": 10.316701449,
			"0.002": 8.43787505311,
			"0.003": 4.97387191627,
			"0.004": 4.5471225911,
			"0.005": 2.51949063762,
			"0.006": 3.4995530528,
			"0.007": 2.43088193916,
			"0.008": 4.02767416347,
			"0.009": 3.2196980054,
			"0.01": 3.83409076206,
			"0.011": 2.56597069172,
			"0.012": 2.91729107231,
			"0.013": 1.85670564888,
			"0.014": 0.395399886258,
			"0.015": 0.00806208250112,
			"0.016": 0.0709622447815,
			"0.017": 0.0262917300127,
			"0.018": 0.00589990470474,
			"0.019": 0.0,
			"0.02": 0.0,
			"0.021": 0.0,
			"0.022": 0.0,
			"0.023": 0.0,
			"0.024": 0.0,
			"0.025": 0.0
		}
	}
}
