{
	 "smiles": "OC1=C2C(C=CC=C2[N+]([O-])=O)=NC=N1", 
	 "Tm": 513.15, 
	 "num_atms": 19, 
	 "gaussian": { 
		 "optdone": 1, 
		 "sigma_profile": "yes", 
		 "theory": "DFT", 
		 "functional": "B3LYP", 
		 "basiset": "6-31G**", 
		 "properties": { 
			 "R2extent": 2568.7527, 
			 "electric_dipole_moment_norm": 4.25652798534, 
			 "electric_quadrupole_moment_norm": 5.33156135199, 
			 "total_energy": -697.687958652, 
			 "HOMO_LUMO_gap": 0.13208, 
			 "cosmo_polarized_energy": -12.91, 
			 "cosmo_cavitation_energy": 23.99, 
			 "cosmo_dispersion_energy": -18.44, 
			 "cosmo_repulsion_energy": 1.39, 
			 "cosmo_total_nonelectrostatic_energy": 6.94, 
			 "SMD_solvation_energy": 3.55 
		},
		"coords": [
			{
				"x": 1.296181979,
				"y": 2.1093728637,
				"z": 1.9602476599,
				"element": "O" 
			},
			{
				"x": 0.601594751,
				"y": 2.1308053345,
				"z": 0.8338299263,
				"element": "C" 
			},
			{
				"x": 0.3180522875,
				"y": 0.9554486637,
				"z": 0.0212247103,
				"element": "C" 
			},
			{
				"x": -0.4727759481,
				"y": 1.2394230368,
				"z": -1.1452727555,
				"element": "C" 
			},
			{
				"x": -0.8631064008,
				"y": 0.1991147946,
				"z": -2.0323680657,
				"element": "C" 
			},
			{
				"x": -0.5310279198,
				"y": -1.1082805244,
				"z": -1.78084616,
				"element": "C" 
			},
			{
				"x": 0.2118776622,
				"y": -1.4239057823,
				"z": -0.6308532703,
				"element": "C" 
			},
			{
				"x": 0.6358094555,
				"y": -0.4309599903,
				"z": 0.2351283447,
				"element": "C" 
			},
			{
				"x": 1.4590160753,
				"y": -0.9559968257,
				"z": 1.3431217975,
				"element": "N" 
			},
			{
				"x": 1.2969748854,
				"y": -2.119365124,
				"z": 1.6810344746,
				"element": "O" 
			},
			{
				"x": 2.3287149534,
				"y": -0.2277487064,
				"z": 1.857903473,
				"element": "O" 
			},
			{
				"x": -0.9085471388,
				"y": 2.4884820679,
				"z": -1.4669694426,
				"element": "N" 
			},
			{
				"x": -0.5810860488,
				"y": 3.4435722402,
				"z": -0.6240895292,
				"element": "C" 
			},
			{
				"x": 0.1448140203,
				"y": 3.3249184735,
				"z": 0.4998966103,
				"element": "N" 
			},
			{
				"x": 1.7790518736,
				"y": 1.2538575918,
				"z": 2.0412337082,
				"element": "H" 
			},
			{
				"x": -1.4415292011,
				"y": 0.4936556969,
				"z": -2.901009284,
				"element": "H" 
			},
			{
				"x": -0.8343219988,
				"y": -1.9019233315,
				"z": -2.4554236043,
				"element": "H" 
			},
			{
				"x": 0.4761137378,
				"y": -2.449396862,
				"z": -0.4092521045,
				"element": "H" 
			},
			{
				"x": -0.9306070249,
				"y": 4.448126383,
				"z": -0.8561364887,
				"element": "H" 
			}
		],
		 "valence_orbital": [ 
			{
				"type": "occ",
				"energy": -0.31448,
				"method": "rhf"
			},
			{
				"type": "occ",
				"energy": -0.31008,
				"method": "rhf"
			},
			{
				"type": "occ",
				"energy": -0.30093,
				"method": "rhf"
			},
			{
				"type": "occ",
				"energy": -0.26698,
				"method": "rhf"
			},
			{
				"type": "occ",
				"energy": -0.25829,
				"method": "rhf"
			},
			{
				"type": "unocc",
				"energy": -0.12621,
				"method": "rhf"
			},
			{
				"type": "unocc",
				"energy": -0.06381,
				"method": "rhf"
			},
			{
				"type": "unocc",
				"energy": -0.05332,
				"method": "rhf"
			},
			{
				"type": "unocc",
				"energy": 0.00192,
				"method": "rhf"
			},
			{
				"type": "unocc",
				"energy": 0.06028,
				"method": "rhf"
			}
		],
		"cosmo_sigma_profile": { 
			"-0.025": 0.0,
			"-0.024": 0.0,
			"-0.023": 0.0,
			"-0.022": 0.0,
			"-0.021": 0.0,
			"-0.02": 0.0,
			"-0.019": 0.0,
			"-0.018": 0.0,
			"-0.017": 0.0,
			"-0.016": 0.0,
			"-0.015": 0.0744396753844,
			"-0.014": 0.309664350906,
			"-0.013": 0.420590795916,
			"-0.012": 0.353572750407,
			"-0.011": 0.607571222464,
			"-0.01": 0.955801982718,
			"-0.009": 2.87054993921,
			"-0.008": 8.97072040912,
			"-0.007": 10.5859019497,
			"-0.006": 10.653648845,
			"-0.005": 11.2564619202,
			"-0.004": 12.3387734122,
			"-0.003": 13.7211088474,
			"-0.002": 15.8444541619,
			"-0.001": 16.1063317099,
			"0.0": 14.6085714431,
			"0.001": 8.54109488398,
			"0.002": 6.18221935137,
			"0.003": 6.59415251187,
			"0.004": 6.46841514787,
			"0.005": 6.24184771747,
			"0.006": 10.2208354168,
			"0.007": 7.11227016234,
			"0.008": 5.89108552775,
			"0.009": 3.91059695085,
			"0.01": 2.9985754216,
			"0.011": 2.73633988655,
			"0.012": 2.70551817232,
			"0.013": 2.45271540672,
			"0.014": 1.98508977512,
			"0.015": 0.971844705987,
			"0.016": 0.0855523577929,
			"0.017": 0.0,
			"0.018": 0.0,
			"0.019": 0.0,
			"0.02": 0.0,
			"0.021": 0.0,
			"0.022": 0.0,
			"0.023": 0.0,
			"0.024": 0.0,
			"0.025": 0.0
		}
	}
}
