{
	 "smiles": "OC(=O)C=CC1=C(Cl)C=CC=C1Cl", 
	 "Tm": 467.15, 
	 "num_atms": 19, 
	 "gaussian": { 
		 "optdone": 1, 
		 "sigma_profile": "yes", 
		 "theory": "DFT", 
		 "functional": "B3LYP", 
		 "basiset": "6-31G**", 
		 "properties": { 
			 "R2extent": 3863.5964, 
			 "electric_dipole_moment_norm": 6.19474105431, 
			 "electric_quadrupole_moment_norm": 10.8938073813, 
			 "total_energy": -1417.38836339, 
			 "HOMO_LUMO_gap": 0.18122, 
			 "cosmo_polarized_energy": -14.76, 
			 "cosmo_cavitation_energy": 27.69, 
			 "cosmo_dispersion_energy": -20.22, 
			 "cosmo_repulsion_energy": 1.62, 
			 "cosmo_total_nonelectrostatic_energy": 9.08, 
			 "SMD_solvation_energy": 5.55 
		},
		"coords": [
			{
				"x": -0.0666899497,
				"y": 0.7698463047,
				"z": 4.2963629019,
				"element": "O" 
			},
			{
				"x": 0.236103849,
				"y": -0.3107707427,
				"z": 3.5259337532,
				"element": "C" 
			},
			{
				"x": 0.7123008576,
				"y": -1.3033826834,
				"z": 4.0238081426,
				"element": "O" 
			},
			{
				"x": -0.0259365664,
				"y": -0.2044219786,
				"z": 2.0626460518,
				"element": "C" 
			},
			{
				"x": -0.0309001233,
				"y": 0.9575400253,
				"z": 1.3884274223,
				"element": "C" 
			},
			{
				"x": -0.1970225405,
				"y": 1.1502232194,
				"z": -0.0618810571,
				"element": "C" 
			},
			{
				"x": 0.5623865556,
				"y": 2.1440271424,
				"z": -0.7230492263,
				"element": "C" 
			},
			{
				"x": 1.7335234462,
				"y": 3.0945612673,
				"z": 0.1822370079,
				"element": "Cl" 
			},
			{
				"x": 0.4507048636,
				"y": 2.4047087142,
				"z": -2.0851064134,
				"element": "C" 
			},
			{
				"x": -0.4544712776,
				"y": 1.6687767104,
				"z": -2.8452913086,
				"element": "C" 
			},
			{
				"x": -1.2383924069,
				"y": 0.689462919,
				"z": -2.2419856663,
				"element": "C" 
			},
			{
				"x": -1.108359486,
				"y": 0.4400444711,
				"z": -0.8767098601,
				"element": "C" 
			},
			{
				"x": -2.1850830117,
				"y": -0.773953903,
				"z": -0.2024403013,
				"element": "Cl" 
			},
			{
				"x": -0.5943236274,
				"y": 1.4011015063,
				"z": 3.7874516147,
				"element": "H" 
			},
			{
				"x": -0.1150792656,
				"y": -1.1617341419,
				"z": 1.5637862503,
				"element": "H" 
			},
			{
				"x": 0.1814986088,
				"y": 1.8753956341,
				"z": 1.9334739723,
				"element": "H" 
			},
			{
				"x": 1.0693873301,
				"y": 3.1714594531,
				"z": -2.5363364291,
				"element": "H" 
			},
			{
				"x": -0.5526799327,
				"y": 1.8617335302,
				"z": -3.9087339429,
				"element": "H" 
			},
			{
				"x": -1.9571673231,
				"y": 0.1187825519,
				"z": -2.8181929118,
				"element": "H" 
			}
		],
		 "valence_orbital": [ 
			{
				"type": "occ",
				"energy": -0.32169,
				"method": "rhf"
			},
			{
				"type": "occ",
				"energy": -0.31366,
				"method": "rhf"
			},
			{
				"type": "occ",
				"energy": -0.27457,
				"method": "rhf"
			},
			{
				"type": "occ",
				"energy": -0.26675,
				"method": "rhf"
			},
			{
				"type": "occ",
				"energy": -0.26098,
				"method": "rhf"
			},
			{
				"type": "unocc",
				"energy": -0.07976,
				"method": "rhf"
			},
			{
				"type": "unocc",
				"energy": -0.03976,
				"method": "rhf"
			},
			{
				"type": "unocc",
				"energy": -0.01421,
				"method": "rhf"
			},
			{
				"type": "unocc",
				"energy": -0.00848,
				"method": "rhf"
			},
			{
				"type": "unocc",
				"energy": 0.03629,
				"method": "rhf"
			}
		],
		"cosmo_sigma_profile": { 
			"-0.025": 0.0,
			"-0.024": 0.0,
			"-0.023": 0.0,
			"-0.022": 0.0,
			"-0.021": 0.0,
			"-0.02": 0.0,
			"-0.019": 0.416511950722,
			"-0.018": 0.664251418964,
			"-0.017": 0.999749835363,
			"-0.016": 0.973046194805,
			"-0.015": 0.871964179515,
			"-0.014": 0.670518363405,
			"-0.013": 1.32959848897,
			"-0.012": 1.45066067126,
			"-0.011": 1.01153703724,
			"-0.01": 0.803698515119,
			"-0.009": 1.23435337253,
			"-0.008": 5.37434978282,
			"-0.007": 9.31001743714,
			"-0.006": 9.88168313653,
			"-0.005": 8.42000760916,
			"-0.004": 8.71475217291,
			"-0.003": 12.2149011806,
			"-0.002": 14.1527760799,
			"-0.001": 15.3199749004,
			"0.0": 25.9819041324,
			"0.001": 27.6928957945,
			"0.002": 19.6194798071,
			"0.003": 15.792759986,
			"0.004": 13.3813150653,
			"0.005": 2.04697085933,
			"0.006": 2.39974931862,
			"0.007": 2.63186357263,
			"0.008": 3.04433547336,
			"0.009": 2.37617329238,
			"0.01": 5.76212996731,
			"0.011": 5.00958258356,
			"0.012": 5.52318563543,
			"0.013": 1.95603018236,
			"0.014": 0.0382971212651,
			"0.015": 0.0,
			"0.016": 0.0,
			"0.017": 0.0,
			"0.018": 0.0,
			"0.019": 0.0,
			"0.02": 0.0,
			"0.021": 0.0,
			"0.022": 0.0,
			"0.023": 0.0,
			"0.024": 0.0,
			"0.025": 0.0
		}
	}
}
