{
	 "smiles": "CC1=CC(=O)OC2=C1C(O)=CC(O)=C2", 
	 "Tm": 572.15, 
	 "num_atms": 22, 
	 "gaussian": { 
		 "optdone": 1, 
		 "sigma_profile": "yes", 
		 "theory": "DFT", 
		 "functional": "B3LYP", 
		 "basiset": "6-31G**", 
		 "properties": { 
			 "R2extent": 3284.706, 
			 "electric_dipole_moment_norm": 6.01435230761, 
			 "electric_quadrupole_moment_norm": 17.939024061, 
			 "total_energy": -686.778908333, 
			 "HOMO_LUMO_gap": 0.16549, 
			 "cosmo_polarized_energy": -19.63, 
			 "cosmo_cavitation_energy": 26.1, 
			 "cosmo_dispersion_energy": -19.85, 
			 "cosmo_repulsion_energy": 1.52, 
			 "cosmo_total_nonelectrostatic_energy": 7.78, 
			 "SMD_solvation_energy": 6.15 
		},
		"coords": [
			{
				"x": -1.7791540768,
				"y": -1.4818542464,
				"z": 1.1840045669,
				"element": "C" 
			},
			{
				"x": -0.3405061839,
				"y": -1.2625831805,
				"z": 0.7705678786,
				"element": "C" 
			},
			{
				"x": 0.6233275211,
				"y": -1.4077091585,
				"z": 1.7191204905,
				"element": "C" 
			},
			{
				"x": 2.0373280828,
				"y": -1.2265056245,
				"z": 1.4572921677,
				"element": "C" 
			},
			{
				"x": 2.939100697,
				"y": -1.3410620577,
				"z": 2.2545421761,
				"element": "O" 
			},
			{
				"x": 2.3646990743,
				"y": -0.8861953526,
				"z": 0.1467736922,
				"element": "O" 
			},
			{
				"x": 1.4349559,
				"y": -0.7293099472,
				"z": -0.8376633192,
				"element": "C" 
			},
			{
				"x": 0.04582348,
				"y": -0.9064713258,
				"z": -0.5867493809,
				"element": "C" 
			},
			{
				"x": -0.814404553,
				"y": -0.7120832857,
				"z": -1.7051347894,
				"element": "C" 
			},
			{
				"x": -2.1702796509,
				"y": -0.8368510151,
				"z": -1.6632217936,
				"element": "O" 
			},
			{
				"x": -0.3089343655,
				"y": -0.3701306726,
				"z": -2.9564272243,
				"element": "C" 
			},
			{
				"x": 1.066967685,
				"y": -0.208985436,
				"z": -3.1435481171,
				"element": "C" 
			},
			{
				"x": 1.5984491353,
				"y": 0.1239496698,
				"z": -4.3480949321,
				"element": "O" 
			},
			{
				"x": 1.9512120842,
				"y": -0.388449366,
				"z": -2.0808892656,
				"element": "C" 
			},
			{
				"x": -2.240848957,
				"y": -2.3132693682,
				"z": 0.6348735856,
				"element": "H" 
			},
			{
				"x": -2.3874578663,
				"y": -0.5782385511,
				"z": 1.045256063,
				"element": "H" 
			},
			{
				"x": -1.8360166679,
				"y": -1.737541344,
				"z": 2.243804755,
				"element": "H" 
			},
			{
				"x": 0.3747840299,
				"y": -1.6719408142,
				"z": 2.7402944746,
				"element": "H" 
			},
			{
				"x": -2.469171333,
				"y": -1.0766124157,
				"z": -0.7807872035,
				"element": "H" 
			},
			{
				"x": -1.0126404105,
				"y": -0.2349228969,
				"z": -3.7720201081,
				"element": "H" 
			},
			{
				"x": 0.8891078391,
				"y": 0.2194535919,
				"z": -4.9972618904,
				"element": "H" 
			},
			{
				"x": 3.0185585359,
				"y": -0.266787203,
				"z": -2.2128318259,
				"element": "H" 
			}
		],
		 "valence_orbital": [ 
			{
				"type": "occ",
				"energy": -0.32583,
				"method": "rhf"
			},
			{
				"type": "occ",
				"energy": -0.28592,
				"method": "rhf"
			},
			{
				"type": "occ",
				"energy": -0.26785,
				"method": "rhf"
			},
			{
				"type": "occ",
				"energy": -0.23462,
				"method": "rhf"
			},
			{
				"type": "occ",
				"energy": -0.22331,
				"method": "rhf"
			},
			{
				"type": "unocc",
				"energy": -0.05782,
				"method": "rhf"
			},
			{
				"type": "unocc",
				"energy": -0.00714,
				"method": "rhf"
			},
			{
				"type": "unocc",
				"energy": 0.01274,
				"method": "rhf"
			},
			{
				"type": "unocc",
				"energy": 0.057,
				"method": "rhf"
			},
			{
				"type": "unocc",
				"energy": 0.06275,
				"method": "rhf"
			}
		],
		"cosmo_sigma_profile": { 
			"-0.025": 0.0,
			"-0.024": 0.0,
			"-0.023": 0.0,
			"-0.022": 0.0,
			"-0.021": 0.0,
			"-0.02": 0.0,
			"-0.019": 0.186686604326,
			"-0.018": 1.24001968877,
			"-0.017": 0.978575913013,
			"-0.016": 1.4117249649,
			"-0.015": 1.01993958154,
			"-0.014": 1.85514846076,
			"-0.013": 1.51846354491,
			"-0.012": 1.82343899564,
			"-0.011": 3.78533711002,
			"-0.01": 3.17475386026,
			"-0.009": 3.10720801193,
			"-0.008": 4.33814620644,
			"-0.007": 9.71983012605,
			"-0.006": 8.9032578955,
			"-0.005": 7.89308803485,
			"-0.004": 9.11871388648,
			"-0.003": 11.8661019018,
			"-0.002": 11.9370458896,
			"-0.001": 10.6248371037,
			"0.0": 12.2204889821,
			"0.001": 16.3091238564,
			"0.002": 18.3717159048,
			"0.003": 14.2742633422,
			"0.004": 7.17094821099,
			"0.005": 4.22588274498,
			"0.006": 5.02004767324,
			"0.007": 5.45213281799,
			"0.008": 4.72593177139,
			"0.009": 5.22342982909,
			"0.01": 6.09816807604,
			"0.011": 4.15346654131,
			"0.012": 5.83564508645,
			"0.013": 4.55414755817,
			"0.014": 0.718790447282,
			"0.015": 0.0,
			"0.016": 0.0,
			"0.017": 0.0,
			"0.018": 0.0,
			"0.019": 0.0,
			"0.02": 0.0,
			"0.021": 0.0,
			"0.022": 0.0,
			"0.023": 0.0,
			"0.024": 0.0,
			"0.025": 0.0
		}
	}
}
