{
	 "smiles": "CC1=CC(N)=NN1C1=C(Cl)C=CC=C1", 
	 "Tm": 337.15, 
	 "num_atms": 24, 
	 "gaussian": { 
		 "optdone": 1, 
		 "sigma_profile": "yes", 
		 "theory": "DFT", 
		 "functional": "B3LYP", 
		 "basiset": "6-31G**", 
		 "properties": { 
			 "R2extent": 3394.9581, 
			 "electric_dipole_moment_norm": 3.29325230585, 
			 "electric_quadrupole_moment_norm": 13.6845808865, 
			 "total_energy": -1011.51798185, 
			 "HOMO_LUMO_gap": 0.17342, 
			 "cosmo_polarized_energy": -13.89, 
			 "cosmo_cavitation_energy": 30.03, 
			 "cosmo_dispersion_energy": -21.2, 
			 "cosmo_repulsion_energy": 1.69, 
			 "cosmo_total_nonelectrostatic_energy": 10.53, 
			 "SMD_solvation_energy": 4.27 
		},
		"coords": [
			{
				"x": -1.369692823,
				"y": 1.3116053803,
				"z": 1.9714129173,
				"element": "C" 
			},
			{
				"x": -2.0352296599,
				"y": 0.7577543823,
				"z": 0.7511135855,
				"element": "C" 
			},
			{
				"x": -3.3652027452,
				"y": 0.7512545262,
				"z": 0.3819410068,
				"element": "C" 
			},
			{
				"x": -3.3940810385,
				"y": 0.1271196685,
				"z": -0.8946831501,
				"element": "C" 
			},
			{
				"x": -4.5062274288,
				"y": -0.0600263224,
				"z": -1.717795548,
				"element": "N" 
			},
			{
				"x": -2.1825289399,
				"y": -0.2384950476,
				"z": -1.2963615623,
				"element": "N" 
			},
			{
				"x": -1.3506766118,
				"y": 0.1658931059,
				"z": -0.278868317,
				"element": "N" 
			},
			{
				"x": 0.0428153178,
				"y": -0.0771961912,
				"z": -0.3737670905,
				"element": "C" 
			},
			{
				"x": 0.8490208097,
				"y": 0.6049117212,
				"z": -1.3006549705,
				"element": "C" 
			},
			{
				"x": 0.168000431,
				"y": 1.8277804543,
				"z": -2.3473601003,
				"element": "Cl" 
			},
			{
				"x": 2.2158035855,
				"y": 0.3349779391,
				"z": -1.3826017156,
				"element": "C" 
			},
			{
				"x": 2.7929042424,
				"y": -0.604845306,
				"z": -0.5291497254,
				"element": "C" 
			},
			{
				"x": 2.0060159269,
				"y": -1.2810583139,
				"z": 0.4037648705,
				"element": "C" 
			},
			{
				"x": 0.6387431047,
				"y": -1.0215215074,
				"z": 0.4701904282,
				"element": "C" 
			},
			{
				"x": -0.9259058265,
				"y": 0.5287742279,
				"z": 2.5966058993,
				"element": "H" 
			},
			{
				"x": -0.5690597365,
				"y": 2.0119990613,
				"z": 1.7101976853,
				"element": "H" 
			},
			{
				"x": -2.1036709022,
				"y": 1.8475941109,
				"z": 2.5770006094,
				"element": "H" 
			},
			{
				"x": -4.1933092011,
				"y": 1.1647108052,
				"z": 0.9388928767,
				"element": "H" 
			},
			{
				"x": -5.3271459251,
				"y": -0.3798311439,
				"z": -1.2191200873,
				"element": "H" 
			},
			{
				"x": -4.2927470654,
				"y": -0.6756141164,
				"z": -2.4938979205,
				"element": "H" 
			},
			{
				"x": 2.8181726329,
				"y": 0.8713181852,
				"z": -2.1073865206,
				"element": "H" 
			},
			{
				"x": 3.8578673113,
				"y": -0.8051195323,
				"z": -0.5971252306,
				"element": "H" 
			},
			{
				"x": 2.4498905888,
				"y": -2.0174444703,
				"z": 1.0662815581,
				"element": "H" 
			},
			{
				"x": 0.0040439528,
				"y": -1.5602416168,
				"z": 1.1663705016,
				"element": "H" 
			}
		],
		 "valence_orbital": [ 
			{
				"type": "occ",
				"energy": -0.27398,
				"method": "rhf"
			},
			{
				"type": "occ",
				"energy": -0.26826,
				"method": "rhf"
			},
			{
				"type": "occ",
				"energy": -0.24977,
				"method": "rhf"
			},
			{
				"type": "occ",
				"energy": -0.22723,
				"method": "rhf"
			},
			{
				"type": "occ",
				"energy": -0.19646,
				"method": "rhf"
			},
			{
				"type": "unocc",
				"energy": -0.02304,
				"method": "rhf"
			},
			{
				"type": "unocc",
				"energy": -0.01788,
				"method": "rhf"
			},
			{
				"type": "unocc",
				"energy": 0.03241,
				"method": "rhf"
			},
			{
				"type": "unocc",
				"energy": 0.03338,
				"method": "rhf"
			},
			{
				"type": "unocc",
				"energy": 0.08538,
				"method": "rhf"
			}
		],
		"cosmo_sigma_profile": { 
			"-0.025": 0.0,
			"-0.024": 0.0,
			"-0.023": 0.0,
			"-0.022": 0.0,
			"-0.021": 0.0,
			"-0.02": 0.0,
			"-0.019": 0.0,
			"-0.018": 0.0,
			"-0.017": 0.0,
			"-0.016": 0.0,
			"-0.015": 0.0,
			"-0.014": 0.0,
			"-0.013": 0.111547726376,
			"-0.012": 1.77430394742,
			"-0.011": 2.24318719468,
			"-0.01": 1.9951087254,
			"-0.009": 2.64897143966,
			"-0.008": 3.01861948949,
			"-0.007": 9.31160673823,
			"-0.006": 12.7325474689,
			"-0.005": 18.7683713718,
			"-0.004": 16.2903263466,
			"-0.003": 16.104337394,
			"-0.002": 15.6711337473,
			"-0.001": 17.7067974859,
			"0.0": 14.365898124,
			"0.001": 16.5618740763,
			"0.002": 16.0302294116,
			"0.003": 20.4252815029,
			"0.004": 14.5940669944,
			"0.005": 9.24493396446,
			"0.006": 7.39217314862,
			"0.007": 4.8378090449,
			"0.008": 3.23178448467,
			"0.009": 3.52891054715,
			"0.01": 2.67279263162,
			"0.011": 2.44492378647,
			"0.012": 2.09022454755,
			"0.013": 1.12033565803,
			"0.014": 1.97110863946,
			"0.015": 1.59326762839,
			"0.016": 0.991746974723,
			"0.017": 0.0847658720774,
			"0.018": 0.0,
			"0.019": 0.0,
			"0.02": 0.0,
			"0.021": 0.0,
			"0.022": 0.0,
			"0.023": 0.0,
			"0.024": 0.0,
			"0.025": 0.0
		}
	}
}
