{
	 "smiles": "OC(=O)C1=CC(=CC(O)=C1)C(F)(F)F", 
	 "Tm": 465.15, 
	 "num_atms": 19, 
	 "gaussian": { 
		 "optdone": 1, 
		 "sigma_profile": "yes", 
		 "theory": "DFT", 
		 "functional": "B3LYP", 
		 "basiset": "6-31G**", 
		 "properties": { 
			 "R2extent": 3700.1842, 
			 "electric_dipole_moment_norm": 5.45501547752, 
			 "electric_quadrupole_moment_norm": 16.5471127445, 
			 "total_energy": -833.066034086, 
			 "HOMO_LUMO_gap": 0.18987, 
			 "cosmo_polarized_energy": -18.19, 
			 "cosmo_cavitation_energy": 25.9, 
			 "cosmo_dispersion_energy": -18.48, 
			 "cosmo_repulsion_energy": 1.39, 
			 "cosmo_total_nonelectrostatic_energy": 8.82, 
			 "SMD_solvation_energy": 7.2 
		},
		"coords": [
			{
				"x": -3.8942979475,
				"y": 0.084506397,
				"z": -0.7855192872,
				"element": "O" 
			},
			{
				"x": -2.6604615941,
				"y": 0.2260703934,
				"z": -0.2362348533,
				"element": "C" 
			},
			{
				"x": -2.5411775775,
				"y": 0.6088610101,
				"z": 0.9026126948,
				"element": "O" 
			},
			{
				"x": -1.4867062916,
				"y": -0.1157565266,
				"z": -1.111361383,
				"element": "C" 
			},
			{
				"x": -0.2746739674,
				"y": -0.413856329,
				"z": -0.4757946872,
				"element": "C" 
			},
			{
				"x": 0.8392530399,
				"y": -0.7282524351,
				"z": -1.2480083526,
				"element": "C" 
			},
			{
				"x": 0.7690263588,
				"y": -0.7310597074,
				"z": -2.6440952132,
				"element": "C" 
			},
			{
				"x": -0.4353639566,
				"y": -0.4115132156,
				"z": -3.2744802721,
				"element": "C" 
			},
			{
				"x": -0.5768666967,
				"y": -0.3707805106,
				"z": -4.6270757452,
				"element": "O" 
			},
			{
				"x": -1.5652026099,
				"y": -0.1058822054,
				"z": -2.5064571167,
				"element": "C" 
			},
			{
				"x": 2.1309118306,
				"y": -1.1285027271,
				"z": -0.5802871983,
				"element": "C" 
			},
			{
				"x": 2.2014343489,
				"y": -2.4686402938,
				"z": -0.4139288004,
				"element": "F" 
			},
			{
				"x": 3.2049744735,
				"y": -0.7682206734,
				"z": -1.3193093756,
				"element": "F" 
			},
			{
				"x": 2.2634305997,
				"y": -0.5674151289,
				"z": 0.6367705794,
				"element": "F" 
			},
			{
				"x": -3.8362994539,
				"y": -0.3814178722,
				"z": -1.6311870029,
				"element": "H" 
			},
			{
				"x": -0.2242682613,
				"y": -0.3875388536,
				"z": 0.6055250998,
				"element": "H" 
			},
			{
				"x": 1.6533103187,
				"y": -0.9637926772,
				"z": -3.2302883974,
				"element": "H" 
			},
			{
				"x": 0.2656264819,
				"y": -0.5812567803,
				"z": -5.0508519993,
				"element": "H" 
			},
			{
				"x": -2.4705490958,
				"y": 0.1780481357,
				"z": -3.0348286896,
				"element": "H" 
			}
		],
		 "valence_orbital": [ 
			{
				"type": "occ",
				"energy": -0.36561,
				"method": "rhf"
			},
			{
				"type": "occ",
				"energy": -0.32458,
				"method": "rhf"
			},
			{
				"type": "occ",
				"energy": -0.29283,
				"method": "rhf"
			},
			{
				"type": "occ",
				"energy": -0.28137,
				"method": "rhf"
			},
			{
				"type": "occ",
				"energy": -0.25678,
				"method": "rhf"
			},
			{
				"type": "unocc",
				"energy": -0.06691,
				"method": "rhf"
			},
			{
				"type": "unocc",
				"energy": -0.03436,
				"method": "rhf"
			},
			{
				"type": "unocc",
				"energy": 0.03473,
				"method": "rhf"
			},
			{
				"type": "unocc",
				"energy": 0.04524,
				"method": "rhf"
			},
			{
				"type": "unocc",
				"energy": 0.05563,
				"method": "rhf"
			}
		],
		"cosmo_sigma_profile": { 
			"-0.025": 0.0,
			"-0.024": 0.0,
			"-0.023": 0.0,
			"-0.022": 0.0,
			"-0.021": 0.0,
			"-0.02": 0.0,
			"-0.019": 1.12097453844,
			"-0.018": 2.52859746054,
			"-0.017": 2.19775479408,
			"-0.016": 2.25750802632,
			"-0.015": 1.63636081935,
			"-0.014": 1.33132365738,
			"-0.013": 2.87060532573,
			"-0.012": 3.04409901821,
			"-0.011": 1.27067144339,
			"-0.01": 2.64931689865,
			"-0.009": 2.85869166326,
			"-0.008": 1.90118484844,
			"-0.007": 3.73746132493,
			"-0.006": 5.18372608124,
			"-0.005": 6.30893911075,
			"-0.004": 6.08646308652,
			"-0.003": 6.87300915846,
			"-0.002": 8.25094760632,
			"-0.001": 11.6205299552,
			"0.0": 17.9169588891,
			"0.001": 24.0240490416,
			"0.002": 26.7304430513,
			"0.003": 24.665084598,
			"0.004": 3.59107728481,
			"0.005": 3.14019871981,
			"0.006": 4.22817612348,
			"0.007": 3.42144057744,
			"0.008": 4.33450549142,
			"0.009": 5.55865995875,
			"0.01": 6.6228502479,
			"0.011": 5.64661578493,
			"0.012": 3.38565314202,
			"0.013": 0.762894695341,
			"0.014": 0.0,
			"0.015": 0.0,
			"0.016": 0.0,
			"0.017": 0.0,
			"0.018": 0.0,
			"0.019": 0.0,
			"0.02": 0.0,
			"0.021": 0.0,
			"0.022": 0.0,
			"0.023": 0.0,
			"0.024": 0.0,
			"0.025": 0.0
		}
	}
}
