{
	 "smiles": "CC(=O)C1=C(C)N(N=N1)C1=CC=CC=C1", 
	 "Tm": 373.15, 
	 "num_atms": 26, 
	 "gaussian": { 
		 "optdone": 1, 
		 "sigma_profile": "yes", 
		 "theory": "DFT", 
		 "functional": "B3LYP", 
		 "basiset": "6-31G**", 
		 "properties": { 
			 "R2extent": 4429.4528, 
			 "electric_dipole_moment_norm": 7.82057531707, 
			 "electric_quadrupole_moment_norm": 8.210077876, 
			 "total_energy": -665.239093505, 
			 "HOMO_LUMO_gap": 0.19598, 
			 "cosmo_polarized_energy": -20.65, 
			 "cosmo_cavitation_energy": 30.27, 
			 "cosmo_dispersion_energy": -21.74, 
			 "cosmo_repulsion_energy": 1.68, 
			 "cosmo_total_nonelectrostatic_energy": 10.21, 
			 "SMD_solvation_energy": 4.58 
		},
		"coords": [
			{
				"x": 1.3691569914,
				"y": -0.9120860938,
				"z": 3.1647109215,
				"element": "C" 
			},
			{
				"x": 1.3831059994,
				"y": -1.2425745046,
				"z": 1.6797185621,
				"element": "C" 
			},
			{
				"x": 1.9301292739,
				"y": -2.2532082299,
				"z": 1.2750064135,
				"element": "O" 
			},
			{
				"x": 0.7197785886,
				"y": -0.3081678315,
				"z": 0.7323147098,
				"element": "C" 
			},
			{
				"x": 0.0131326059,
				"y": 0.8777843286,
				"z": 0.9332647272,
				"element": "C" 
			},
			{
				"x": -0.4068055073,
				"y": 1.6248506159,
				"z": 2.1602569914,
				"element": "C" 
			},
			{
				"x": -0.3231617634,
				"y": 1.2695231444,
				"z": -0.329596962,
				"element": "N" 
			},
			{
				"x": 0.1413786946,
				"y": 0.363877453,
				"z": -1.2570679779,
				"element": "N" 
			},
			{
				"x": 0.7586757935,
				"y": -0.5658633907,
				"z": -0.6164984628,
				"element": "N" 
			},
			{
				"x": -1.0614011189,
				"y": 2.4018184794,
				"z": -0.7837343504,
				"element": "C" 
			},
			{
				"x": -2.0705911925,
				"y": 2.2064797255,
				"z": -1.731910323,
				"element": "C" 
			},
			{
				"x": -2.784267954,
				"y": 3.3054035607,
				"z": -2.2059365058,
				"element": "C" 
			},
			{
				"x": -2.5022814497,
				"y": 4.5890028478,
				"z": -1.7319446427,
				"element": "C" 
			},
			{
				"x": -1.4891570711,
				"y": 4.7754399467,
				"z": -0.7902544902,
				"element": "C" 
			},
			{
				"x": -0.7569021937,
				"y": 3.6849865117,
				"z": -0.3196816005,
				"element": "C" 
			},
			{
				"x": 2.0065107872,
				"y": -1.6315641602,
				"z": 3.6800700324,
				"element": "H" 
			},
			{
				"x": 1.7277333065,
				"y": 0.1035143592,
				"z": 3.3615644714,
				"element": "H" 
			},
			{
				"x": 0.3531240742,
				"y": -0.9897313818,
				"z": 3.5695833345,
				"element": "H" 
			},
			{
				"x": -0.6763934052,
				"y": 0.9337708606,
				"z": 2.9600808044,
				"element": "H" 
			},
			{
				"x": 0.3955520268,
				"y": 2.2685354676,
				"z": 2.5392378872,
				"element": "H" 
			},
			{
				"x": -1.2711045774,
				"y": 2.2593693174,
				"z": 1.9531411489,
				"element": "H" 
			},
			{
				"x": -2.2748028579,
				"y": 1.2037325832,
				"z": -2.0890550456,
				"element": "H" 
			},
			{
				"x": -3.5665057649,
				"y": 3.1564106563,
				"z": -2.9439001582,
				"element": "H" 
			},
			{
				"x": -3.0653960094,
				"y": 5.4410507516,
				"z": -2.100272817,
				"element": "H" 
			},
			{
				"x": -1.2544905899,
				"y": 5.772455904,
				"z": -0.4301566964,
				"element": "H" 
			},
			{
				"x": 0.0576833134,
				"y": 3.8308890788,
				"z": 0.3814600281,
				"element": "H" 
			}
		],
		 "valence_orbital": [ 
			{
				"type": "occ",
				"energy": -0.27548,
				"method": "rhf"
			},
			{
				"type": "occ",
				"energy": -0.27131,
				"method": "rhf"
			},
			{
				"type": "occ",
				"energy": -0.26467,
				"method": "rhf"
			},
			{
				"type": "occ",
				"energy": -0.25337,
				"method": "rhf"
			},
			{
				"type": "occ",
				"energy": -0.24207,
				"method": "rhf"
			},
			{
				"type": "unocc",
				"energy": -0.04609,
				"method": "rhf"
			},
			{
				"type": "unocc",
				"energy": -0.02908,
				"method": "rhf"
			},
			{
				"type": "unocc",
				"energy": -0.02503,
				"method": "rhf"
			},
			{
				"type": "unocc",
				"energy": 0.00547,
				"method": "rhf"
			},
			{
				"type": "unocc",
				"energy": 0.0662,
				"method": "rhf"
			}
		],
		"cosmo_sigma_profile": { 
			"-0.025": 0.0,
			"-0.024": 0.0,
			"-0.023": 0.0,
			"-0.022": 0.0,
			"-0.021": 0.0,
			"-0.02": 0.0,
			"-0.019": 0.0,
			"-0.018": 0.0,
			"-0.017": 0.0,
			"-0.016": 0.0,
			"-0.015": 0.0,
			"-0.014": 0.0,
			"-0.013": 0.0,
			"-0.012": 0.0,
			"-0.011": 0.0,
			"-0.01": 0.0,
			"-0.009": 0.459420780125,
			"-0.008": 3.52920018328,
			"-0.007": 13.4220970163,
			"-0.006": 19.7652993805,
			"-0.005": 23.6012942816,
			"-0.004": 21.6542160046,
			"-0.003": 22.3692505624,
			"-0.002": 19.2882603048,
			"-0.001": 15.6660118786,
			"0.0": 12.4816976468,
			"0.001": 9.86020717055,
			"0.002": 10.8435031643,
			"0.003": 13.664126328,
			"0.004": 10.8082428985,
			"0.005": 3.7176659561,
			"0.006": 3.37796425021,
			"0.007": 2.99776575018,
			"0.008": 2.94754178799,
			"0.009": 4.86117519911,
			"0.01": 5.19292532284,
			"0.011": 5.27761162205,
			"0.012": 6.88901053499,
			"0.013": 3.76536875263,
			"0.014": 2.21034957746,
			"0.015": 1.6486787494,
			"0.016": 1.5745145115,
			"0.017": 0.306494737196,
			"0.018": 0.0,
			"0.019": 0.0,
			"0.02": 0.0,
			"0.021": 0.0,
			"0.022": 0.0,
			"0.023": 0.0,
			"0.024": 0.0,
			"0.025": 0.0
		}
	}
}
