{
	 "smiles": "CC1=C(C=C(C=C1Br)S(C)(=O)=O)C(O)=O", 
	 "Tm": 408.15, 
	 "num_atms": 24, 
	 "gaussian": { 
		 "optdone": 1, 
		 "sigma_profile": "yes", 
		 "theory": "DFT", 
		 "functional": "B3LYP", 
		 "basiset": "6-31G**", 
		 "properties": { 
			 "R2extent": 6433.2333, 
			 "electric_dipole_moment_norm": 4.29936921304, 
			 "electric_quadrupole_moment_norm": 26.6246901892, 
			 "total_energy": -3618.81133664, 
			 "HOMO_LUMO_gap": 0.2002, 
			 "cosmo_polarized_energy": -22.58, 
			 "cosmo_cavitation_energy": 32.08, 
			 "cosmo_dispersion_energy": -23.63, 
			 "cosmo_repulsion_energy": 1.81, 
			 "cosmo_total_nonelectrostatic_energy": 10.26, 
			 "SMD_solvation_energy": 5.25 
		},
		"coords": [
			{
				"x": -0.1718802242,
				"y": 0.586735427,
				"z": -2.2571360919,
				"element": "C" 
			},
			{
				"x": 0.4559324735,
				"y": -0.1094743813,
				"z": -1.072108231,
				"element": "C" 
			},
			{
				"x": -0.3021155696,
				"y": -0.6337937715,
				"z": 0.0009093013,
				"element": "C" 
			},
			{
				"x": 0.3221003251,
				"y": -1.1873209666,
				"z": 1.1257378618,
				"element": "C" 
			},
			{
				"x": 1.7076207401,
				"y": -1.2663251745,
				"z": 1.1736416025,
				"element": "C" 
			},
			{
				"x": 2.4909387471,
				"y": -0.7990729522,
				"z": 0.1206128182,
				"element": "C" 
			},
			{
				"x": 1.8562507792,
				"y": -0.2226506313,
				"z": -0.975069356,
				"element": "C" 
			},
			{
				"x": 2.9719019018,
				"y": 0.4292178308,
				"z": -2.3859574709,
				"element": "Br" 
			},
			{
				"x": 2.5175174893,
				"y": -2.0071067384,
				"z": 2.6079646668,
				"element": "S" 
			},
			{
				"x": 2.6091463716,
				"y": -0.6426494179,
				"z": 3.7901145336,
				"element": "C" 
			},
			{
				"x": 1.6048250818,
				"y": -3.0173224112,
				"z": 3.1603303074,
				"element": "O" 
			},
			{
				"x": 3.8902782336,
				"y": -2.3480750438,
				"z": 2.2065232549,
				"element": "O" 
			},
			{
				"x": -1.8107977669,
				"y": -0.6174700743,
				"z": 0.0584481771,
				"element": "C" 
			},
			{
				"x": -2.4774713437,
				"y": -1.0004303173,
				"z": -1.0616402855,
				"element": "O" 
			},
			{
				"x": -2.4200165003,
				"y": -0.3194843692,
				"z": 1.0554361976,
				"element": "O" 
			},
			{
				"x": -1.2353064688,
				"y": 0.7744790023,
				"z": -2.1139937907,
				"element": "H" 
			},
			{
				"x": -0.0384099314,
				"y": 0.0030499476,
				"z": -3.1762050824,
				"element": "H" 
			},
			{
				"x": 0.3236048902,
				"y": 1.5454879912,
				"z": -2.4323040226,
				"element": "H" 
			},
			{
				"x": -0.2848417471,
				"y": -1.5688243607,
				"z": 1.9391956873,
				"element": "H" 
			},
			{
				"x": 3.5696505022,
				"y": -0.8946673537,
				"z": 0.158359705,
				"element": "H" 
			},
			{
				"x": 1.5999462187,
				"y": -0.3027386779,
				"z": 4.0264891857,
				"element": "H" 
			},
			{
				"x": 3.0925287359,
				"y": -1.0473118907,
				"z": 4.6818368587,
				"element": "H" 
			},
			{
				"x": 3.2099670945,
				"y": 0.1619639045,
				"z": 3.3640617408,
				"element": "H" 
			},
			{
				"x": -1.8580700326,
				"y": -1.3396155712,
				"z": -1.7233475677,
				"element": "H" 
			}
		],
		 "valence_orbital": [ 
			{
				"type": "occ",
				"energy": -0.30768,
				"method": "rhf"
			},
			{
				"type": "occ",
				"energy": -0.30636,
				"method": "rhf"
			},
			{
				"type": "occ",
				"energy": -0.29423,
				"method": "rhf"
			},
			{
				"type": "occ",
				"energy": -0.28653,
				"method": "rhf"
			},
			{
				"type": "occ",
				"energy": -0.27201,
				"method": "rhf"
			},
			{
				"type": "unocc",
				"energy": -0.07181,
				"method": "rhf"
			},
			{
				"type": "unocc",
				"energy": -0.059,
				"method": "rhf"
			},
			{
				"type": "unocc",
				"energy": -0.01952,
				"method": "rhf"
			},
			{
				"type": "unocc",
				"energy": 0.00531,
				"method": "rhf"
			},
			{
				"type": "unocc",
				"energy": 0.05057,
				"method": "rhf"
			}
		],
		"cosmo_sigma_profile": { 
			"-0.025": 0.0,
			"-0.024": 0.0,
			"-0.023": 0.0,
			"-0.022": 0.0,
			"-0.021": 0.0,
			"-0.02": 0.0,
			"-0.019": 0.660727322885,
			"-0.018": 0.755461858235,
			"-0.017": 0.993757152626,
			"-0.016": 0.953386300732,
			"-0.015": 1.01348218774,
			"-0.014": 0.705304386534,
			"-0.013": 0.746181385927,
			"-0.012": 1.33322462758,
			"-0.011": 0.825262194154,
			"-0.01": 0.872511421355,
			"-0.009": 6.26305727186,
			"-0.008": 8.83602957113,
			"-0.007": 10.4797932646,
			"-0.006": 14.3076586151,
			"-0.005": 17.8279159702,
			"-0.004": 17.9252638206,
			"-0.003": 16.9308080801,
			"-0.002": 16.3171697422,
			"-0.001": 20.9027239899,
			"0.0": 17.0778252338,
			"0.001": 10.2151628843,
			"0.002": 11.2270184998,
			"0.003": 11.8048910561,
			"0.004": 8.81085096634,
			"0.005": 4.62378328349,
			"0.006": 4.18337745637,
			"0.007": 5.08737042022,
			"0.008": 5.90977539384,
			"0.009": 8.12456508624,
			"0.01": 10.4878138168,
			"0.011": 15.4092695062,
			"0.012": 7.59569718529,
			"0.013": 0.103024422785,
			"0.014": 0.0,
			"0.015": 0.0,
			"0.016": 0.0,
			"0.017": 0.0,
			"0.018": 0.0,
			"0.019": 0.0,
			"0.02": 0.0,
			"0.021": 0.0,
			"0.022": 0.0,
			"0.023": 0.0,
			"0.024": 0.0,
			"0.025": 0.0
		}
	}
}
