{
	 "smiles": "CC(=O)OC1=C(NC2=CC(N)=C(C=CC3=CC=CC=C3)C=C12)C1=CC=CC=C1", 
	 "Tm": 539.15, 
	 "num_atms": 48, 
	 "gaussian": { 
		 "optdone": 1, 
		 "sigma_profile": "yes", 
		 "theory": "DFT", 
		 "functional": "B3LYP", 
		 "basiset": "6-31G**", 
		 "properties": { 
			 "R2extent": 16210.6827, 
			 "electric_dipole_moment_norm": 2.21440770862, 
			 "electric_quadrupole_moment_norm": 22.3044292702, 
			 "total_energy": -1186.57462103, 
			 "HOMO_LUMO_gap": 0.13501, 
			 "cosmo_polarized_energy": -21.22, 
			 "cosmo_cavitation_energy": 53.12, 
			 "cosmo_dispersion_energy": -36.8, 
			 "cosmo_repulsion_energy": 2.77, 
			 "cosmo_total_nonelectrostatic_energy": 19.09, 
			 "SMD_solvation_energy": 9.27 
		},
		"coords": [
			{
				"x": -1.1118509933,
				"y": 1.9320523679,
				"z": -3.8487668818,
				"element": "C" 
			},
			{
				"x": -0.291300035,
				"y": 1.1153360759,
				"z": -2.8811390444,
				"element": "C" 
			},
			{
				"x": 0.8454275343,
				"y": 1.3331390446,
				"z": -2.5480157261,
				"element": "O" 
			},
			{
				"x": -1.0420990284,
				"y": 0.0609895484,
				"z": -2.4160293499,
				"element": "O" 
			},
			{
				"x": -0.4716472901,
				"y": -0.8280152854,
				"z": -1.516351411,
				"element": "C" 
			},
			{
				"x": -0.3532768738,
				"y": -2.1827287882,
				"z": -1.753427827,
				"element": "C" 
			},
			{
				"x": 0.2324604911,
				"y": -2.7445961026,
				"z": -0.613416526,
				"element": "N" 
			},
			{
				"x": 0.4319505391,
				"y": -1.7745979615,
				"z": 0.3430361573,
				"element": "C" 
			},
			{
				"x": 0.9450235224,
				"y": -1.8796831605,
				"z": 1.6380031324,
				"element": "C" 
			},
			{
				"x": 1.0538489025,
				"y": -0.7200345346,
				"z": 2.4057006452,
				"element": "C" 
			},
			{
				"x": 1.5392068163,
				"y": -0.7850640043,
				"z": 3.7198391386,
				"element": "N" 
			},
			{
				"x": 0.6422894349,
				"y": 0.5508557118,
				"z": 1.8776433998,
				"element": "C" 
			},
			{
				"x": 0.7280446935,
				"y": 1.7432034542,
				"z": 2.729043503,
				"element": "C" 
			},
			{
				"x": 0.9798061886,
				"y": 2.9969062479,
				"z": 2.2971337383,
				"element": "C" 
			},
			{
				"x": 1.0035215738,
				"y": 4.2176462202,
				"z": 3.1097199429,
				"element": "C" 
			},
			{
				"x": 0.4998110384,
				"y": 4.2811027153,
				"z": 4.4243454481,
				"element": "C" 
			},
			{
				"x": 0.5658308951,
				"y": 5.460830568,
				"z": 5.1598322228,
				"element": "C" 
			},
			{
				"x": 1.1257601961,
				"y": 6.6141633217,
				"z": 4.6015094272,
				"element": "C" 
			},
			{
				"x": 1.6161237532,
				"y": 6.5740248052,
				"z": 3.2953051213,
				"element": "C" 
			},
			{
				"x": 1.5526470775,
				"y": 5.3917513395,
				"z": 2.560241759,
				"element": "C" 
			},
			{
				"x": 0.1385595951,
				"y": 0.6237478923,
				"z": 0.5774593103,
				"element": "C" 
			},
			{
				"x": 0.022737796,
				"y": -0.5312812069,
				"z": -0.2049972171,
				"element": "C" 
			},
			{
				"x": -0.6863302898,
				"y": -3.0007074225,
				"z": -2.9177899975,
				"element": "C" 
			},
			{
				"x": -1.6906026436,
				"y": -2.6068881261,
				"z": -3.8238942193,
				"element": "C" 
			},
			{
				"x": -2.0064493397,
				"y": -3.4025570844,
				"z": -4.9220683961,
				"element": "C" 
			},
			{
				"x": -1.3392239484,
				"y": -4.6105612274,
				"z": -5.1412084098,
				"element": "C" 
			},
			{
				"x": -0.3422226065,
				"y": -5.0125591967,
				"z": -4.2507757439,
				"element": "C" 
			},
			{
				"x": -0.015778411,
				"y": -4.2166713038,
				"z": -3.1547076407,
				"element": "C" 
			},
			{
				"x": -0.5325799133,
				"y": 2.7951724382,
				"z": -4.1746444071,
				"element": "H" 
			},
			{
				"x": -1.383528954,
				"y": 1.3197678817,
				"z": -4.7140782514,
				"element": "H" 
			},
			{
				"x": -2.0415380369,
				"y": 2.2590501067,
				"z": -3.3745592372,
				"element": "H" 
			},
			{
				"x": 0.2285058762,
				"y": -3.7346127009,
				"z": -0.4267415347,
				"element": "H" 
			},
			{
				"x": 1.2727903824,
				"y": -2.8364604008,
				"z": 2.0368924479,
				"element": "H" 
			},
			{
				"x": 2.1207871249,
				"y": -0.001564878,
				"z": 3.9871854084,
				"element": "H" 
			},
			{
				"x": 1.9905931059,
				"y": -1.6614883161,
				"z": 3.9465525872,
				"element": "H" 
			},
			{
				"x": 0.5666178035,
				"y": 1.5738975011,
				"z": 3.7932071348,
				"element": "H" 
			},
			{
				"x": 1.2201709941,
				"y": 3.1386637291,
				"z": 1.2440172873,
				"element": "H" 
			},
			{
				"x": 0.0370801529,
				"y": 3.4038524857,
				"z": 4.866408283,
				"element": "H" 
			},
			{
				"x": 0.1687299806,
				"y": 5.4854197238,
				"z": 6.17101827,
				"element": "H" 
			},
			{
				"x": 1.1706149583,
				"y": 7.5344934373,
				"z": 5.176551098,
				"element": "H" 
			},
			{
				"x": 2.0481203422,
				"y": 7.4646088486,
				"z": 2.8472528639,
				"element": "H" 
			},
			{
				"x": 1.9393119535,
				"y": 5.3667300798,
				"z": 1.5443704177,
				"element": "H" 
			},
			{
				"x": -0.1936542202,
				"y": 1.581478041,
				"z": 0.192936204,
				"element": "H" 
			},
			{
				"x": -2.2249658605,
				"y": -1.6798947116,
				"z": -3.6519728035,
				"element": "H" 
			},
			{
				"x": -2.7869958544,
				"y": -3.082021988,
				"z": -5.6065823447,
				"element": "H" 
			},
			{
				"x": -1.591856688,
				"y": -5.2294796883,
				"z": -5.997025721,
				"element": "H" 
			},
			{
				"x": 0.1922800933,
				"y": -5.9440623277,
				"z": -4.4148430159,
				"element": "H" 
			},
			{
				"x": 0.7904481716,
				"y": -4.5250531698,
				"z": -2.4949692423,
				"element": "H" 
			}
		],
		 "valence_orbital": [ 
			{
				"type": "occ",
				"energy": -0.24487,
				"method": "rhf"
			},
			{
				"type": "occ",
				"energy": -0.23828,
				"method": "rhf"
			},
			{
				"type": "occ",
				"energy": -0.23547,
				"method": "rhf"
			},
			{
				"type": "occ",
				"energy": -0.19209,
				"method": "rhf"
			},
			{
				"type": "occ",
				"energy": -0.1767,
				"method": "rhf"
			},
			{
				"type": "unocc",
				"energy": -0.04169,
				"method": "rhf"
			},
			{
				"type": "unocc",
				"energy": -0.02672,
				"method": "rhf"
			},
			{
				"type": "unocc",
				"energy": -0.00297,
				"method": "rhf"
			},
			{
				"type": "unocc",
				"energy": 0.0057,
				"method": "rhf"
			},
			{
				"type": "unocc",
				"energy": 0.01066,
				"method": "rhf"
			}
		],
		"cosmo_sigma_profile": { 
			"-0.025": 0.0,
			"-0.024": 0.0,
			"-0.023": 0.0,
			"-0.022": 0.0,
			"-0.021": 0.0,
			"-0.02": 0.0,
			"-0.019": 0.0,
			"-0.018": 0.0,
			"-0.017": 0.0,
			"-0.016": 0.0860663555755,
			"-0.015": 0.726778171488,
			"-0.014": 1.29414453801,
			"-0.013": 1.4350136053,
			"-0.012": 2.62038060859,
			"-0.011": 4.09979354789,
			"-0.01": 3.32973663321,
			"-0.009": 4.69811193612,
			"-0.008": 4.45899542662,
			"-0.007": 7.19585048462,
			"-0.006": 21.7537250162,
			"-0.005": 32.1992655118,
			"-0.004": 35.0447927871,
			"-0.003": 32.6556432936,
			"-0.002": 28.7699512909,
			"-0.001": 23.8430445033,
			"0.0": 21.6673350201,
			"0.001": 20.8464624352,
			"0.002": 24.5059814897,
			"0.003": 28.8323183654,
			"0.004": 36.5523385708,
			"0.005": 40.2596893439,
			"0.006": 23.0845770855,
			"0.007": 4.19062086456,
			"0.008": 3.85542668264,
			"0.009": 2.1912221868,
			"0.01": 3.25496811617,
			"0.011": 5.1226683978,
			"0.012": 4.68517043541,
			"0.013": 1.01022783351,
			"0.014": 0.651638007201,
			"0.015": 0.146886394916,
			"0.016": 0.0,
			"0.017": 0.0,
			"0.018": 0.0,
			"0.019": 0.0,
			"0.02": 0.0,
			"0.021": 0.0,
			"0.022": 0.0,
			"0.023": 0.0,
			"0.024": 0.0,
			"0.025": 0.0
		}
	}
}
