{
	 "smiles": "CNCC1=CC=C(C=C1)C1=CN=CN=C1", 
	 "Tm": 318.65, 
	 "num_atms": 28, 
	 "gaussian": { 
		 "optdone": 1, 
		 "sigma_profile": "yes", 
		 "theory": "DFT", 
		 "functional": "B3LYP", 
		 "basiset": "6-31G**", 
		 "properties": { 
			 "R2extent": 5417.6474, 
			 "electric_dipole_moment_norm": 2.18941447424, 
			 "electric_quadrupole_moment_norm": 20.0717696171, 
			 "total_energy": -629.353903741, 
			 "HOMO_LUMO_gap": 0.17424, 
			 "cosmo_polarized_energy": -11.0, 
			 "cosmo_cavitation_energy": 31.78, 
			 "cosmo_dispersion_energy": -22.79, 
			 "cosmo_repulsion_energy": 1.76, 
			 "cosmo_total_nonelectrostatic_energy": 10.75, 
			 "SMD_solvation_energy": 0.01 
		},
		"coords": [
			{
				"x": 2.6445678227,
				"y": 0.4140531195,
				"z": 2.2467004909,
				"element": "C" 
			},
			{
				"x": 2.8755551952,
				"y": 1.3585811827,
				"z": 1.1580824618,
				"element": "N" 
			},
			{
				"x": 2.374593787,
				"y": 0.923125852,
				"z": -0.1507387935,
				"element": "C" 
			},
			{
				"x": 0.8669740269,
				"y": 0.7482134143,
				"z": -0.2622570165,
				"element": "C" 
			},
			{
				"x": 0.2601477639,
				"y": -0.506711804,
				"z": -0.1245250423,
				"element": "C" 
			},
			{
				"x": -1.1252824569,
				"y": -0.6491514088,
				"z": -0.1831333256,
				"element": "C" 
			},
			{
				"x": -1.9549833868,
				"y": 0.4660186162,
				"z": -0.381464646,
				"element": "C" 
			},
			{
				"x": -1.347956148,
				"y": 1.7261439154,
				"z": -0.5227324204,
				"element": "C" 
			},
			{
				"x": 0.0362577253,
				"y": 1.859701944,
				"z": -0.4652555465,
				"element": "C" 
			},
			{
				"x": -3.4252186129,
				"y": 0.3186209945,
				"z": -0.4463692452,
				"element": "C" 
			},
			{
				"x": -4.132263468,
				"y": -0.5774799276,
				"z": 0.3699276174,
				"element": "C" 
			},
			{
				"x": -5.4589054206,
				"y": -0.7249386151,
				"z": 0.3177523764,
				"element": "N" 
			},
			{
				"x": -6.1005388005,
				"y": 0.0496062116,
				"z": -0.5635039407,
				"element": "C" 
			},
			{
				"x": -5.5518045073,
				"y": 0.9438776829,
				"z": -1.3925854792,
				"element": "N" 
			},
			{
				"x": -4.2228715803,
				"y": 1.0634984265,
				"z": -1.3285012323,
				"element": "C" 
			},
			{
				"x": 3.0444469016,
				"y": 0.8340793984,
				"z": 3.1746180764,
				"element": "H" 
			},
			{
				"x": 3.1938188619,
				"y": -0.512462459,
				"z": 2.0411689198,
				"element": "H" 
			},
			{
				"x": 1.5889040389,
				"y": 0.1449706536,
				"z": 2.418467476,
				"element": "H" 
			},
			{
				"x": 2.4594673756,
				"y": 2.2564337062,
				"z": 1.3933105382,
				"element": "H" 
			},
			{
				"x": 2.8722039158,
				"y": -0.0230275538,
				"z": -0.3966139151,
				"element": "H" 
			},
			{
				"x": 2.7090228626,
				"y": 1.660002719,
				"z": -0.890668752,
				"element": "H" 
			},
			{
				"x": 0.8815387443,
				"y": -1.3882297365,
				"z": 0.0132145555,
				"element": "H" 
			},
			{
				"x": -1.5654730282,
				"y": -1.6389596031,
				"z": -0.1027339937,
				"element": "H" 
			},
			{
				"x": -1.9667320894,
				"y": 2.6082415769,
				"z": -0.6604909206,
				"element": "H" 
			},
			{
				"x": 0.4808144664,
				"y": 2.8462756301,
				"z": -0.5797006489,
				"element": "H" 
			},
			{
				"x": -3.6054906834,
				"y": -1.1850149092,
				"z": 1.10441743,
				"element": "H" 
			},
			{
				"x": -7.1821917281,
				"y": -0.0591875147,
				"z": -0.610901388,
				"element": "H" 
			},
			{
				"x": -3.7660015775,
				"y": 1.7699184884,
				"z": -2.0200836357,
				"element": "H" 
			}
		],
		 "valence_orbital": [ 
			{
				"type": "occ",
				"energy": -0.30029,
				"method": "rhf"
			},
			{
				"type": "occ",
				"energy": -0.26358,
				"method": "rhf"
			},
			{
				"type": "occ",
				"energy": -0.25371,
				"method": "rhf"
			},
			{
				"type": "occ",
				"energy": -0.24245,
				"method": "rhf"
			},
			{
				"type": "occ",
				"energy": -0.22222,
				"method": "rhf"
			},
			{
				"type": "unocc",
				"energy": -0.04798,
				"method": "rhf"
			},
			{
				"type": "unocc",
				"energy": -0.04205,
				"method": "rhf"
			},
			{
				"type": "unocc",
				"energy": -0.01568,
				"method": "rhf"
			},
			{
				"type": "unocc",
				"energy": 0.0066,
				"method": "rhf"
			},
			{
				"type": "unocc",
				"energy": 0.08198,
				"method": "rhf"
			}
		],
		"cosmo_sigma_profile": { 
			"-0.025": 0.0,
			"-0.024": 0.0,
			"-0.023": 0.0,
			"-0.022": 0.0,
			"-0.021": 0.0,
			"-0.02": 0.0,
			"-0.019": 0.0,
			"-0.018": 0.0,
			"-0.017": 0.0,
			"-0.016": 0.0,
			"-0.015": 0.0,
			"-0.014": 0.0,
			"-0.013": 0.0,
			"-0.012": 0.0,
			"-0.011": 0.0,
			"-0.01": 0.207620934471,
			"-0.009": 1.40328300851,
			"-0.008": 2.22069996643,
			"-0.007": 10.5068860953,
			"-0.006": 12.9084116669,
			"-0.005": 16.3500102461,
			"-0.004": 21.7649356448,
			"-0.003": 19.1678620871,
			"-0.002": 21.7595413957,
			"-0.001": 27.3418255486,
			"0.0": 28.4751513817,
			"0.001": 14.6151772563,
			"0.002": 13.3912215222,
			"0.003": 12.34746504,
			"0.004": 10.9367060418,
			"0.005": 10.5201666761,
			"0.006": 3.86696599618,
			"0.007": 4.08485066089,
			"0.008": 2.47672263973,
			"0.009": 2.47993181451,
			"0.01": 2.20787568407,
			"0.011": 2.03114685972,
			"0.012": 2.7844865825,
			"0.013": 2.98062421934,
			"0.014": 2.18284436097,
			"0.015": 1.79481875155,
			"0.016": 0.862908200371,
			"0.017": 0.744877327015,
			"0.018": 0.413438763915,
			"0.019": 0.0342163462637,
			"0.02": 0.0,
			"0.021": 0.0,
			"0.022": 0.0,
			"0.023": 0.0,
			"0.024": 0.0,
			"0.025": 0.0
		}
	}
}
