{
	 "smiles": "CC1=C(C)C=C(C=C1)C1=NN(C=C1CO)C1=CC=CC=C1", 
	 "Tm": 408.15, 
	 "num_atms": 39, 
	 "gaussian": { 
		 "optdone": 1, 
		 "sigma_profile": "yes", 
		 "theory": "DFT", 
		 "functional": "B3LYP", 
		 "basiset": "6-31G**", 
		 "properties": { 
			 "R2extent": 9324.9579, 
			 "electric_dipole_moment_norm": 2.50325154349, 
			 "electric_quadrupole_moment_norm": 15.2305787516, 
			 "total_energy": -881.483187534, 
			 "HOMO_LUMO_gap": 0.17597, 
			 "cosmo_polarized_energy": -14.84, 
			 "cosmo_cavitation_energy": 42.16, 
			 "cosmo_dispersion_energy": -29.93, 
			 "cosmo_repulsion_energy": 2.26, 
			 "cosmo_total_nonelectrostatic_energy": 14.49, 
			 "SMD_solvation_energy": 6.6 
		},
		"coords": [
			{
				"x": -4.4391218786,
				"y": 2.68877393,
				"z": -2.8343267818,
				"element": "C" 
			},
			{
				"x": -3.177588844,
				"y": 2.3380750825,
				"z": -2.0826643651,
				"element": "C" 
			},
			{
				"x": -3.1963831725,
				"y": 2.1287513999,
				"z": -0.6875728627,
				"element": "C" 
			},
			{
				"x": -4.4862830101,
				"y": 2.2375895164,
				"z": 0.0920198601,
				"element": "C" 
			},
			{
				"x": -2.0079863585,
				"y": 1.8060057304,
				"z": -0.02498544,
				"element": "C" 
			},
			{
				"x": -0.7882881885,
				"y": 1.6878045805,
				"z": -0.7109694237,
				"element": "C" 
			},
			{
				"x": -0.781028762,
				"y": 1.889925615,
				"z": -2.0985464658,
				"element": "C" 
			},
			{
				"x": -1.9607746125,
				"y": 2.2083337977,
				"z": -2.7637526928,
				"element": "C" 
			},
			{
				"x": 0.4597843542,
				"y": 1.3486336972,
				"z": -0.0049499179,
				"element": "C" 
			},
			{
				"x": 1.4306742713,
				"y": 0.6917193599,
				"z": -0.6433870432,
				"element": "N" 
			},
			{
				"x": 2.4373133622,
				"y": 0.5564360404,
				"z": 0.2568743851,
				"element": "N" 
			},
			{
				"x": 2.1180060453,
				"y": 1.1265736555,
				"z": 1.4547721061,
				"element": "C" 
			},
			{
				"x": 0.8505447091,
				"y": 1.6543245765,
				"z": 1.3389110414,
				"element": "C" 
			},
			{
				"x": 0.1193771123,
				"y": 2.4257124755,
				"z": 2.3887762268,
				"element": "C" 
			},
			{
				"x": -0.828298655,
				"y": 1.5748790017,
				"z": 3.0478318222,
				"element": "O" 
			},
			{
				"x": 3.6375833158,
				"y": -0.1052102991,
				"z": -0.1079827354,
				"element": "C" 
			},
			{
				"x": 4.5058280713,
				"y": -0.5942598342,
				"z": 0.8754541519,
				"element": "C" 
			},
			{
				"x": 5.6921585336,
				"y": -1.2223960419,
				"z": 0.4981787687,
				"element": "C" 
			},
			{
				"x": 6.0122502419,
				"y": -1.3822455318,
				"z": -0.8506783558,
				"element": "C" 
			},
			{
				"x": 5.1314389979,
				"y": -0.9069465116,
				"z": -1.8250996461,
				"element": "C" 
			},
			{
				"x": 3.948401146,
				"y": -0.2668642296,
				"z": -1.4634666793,
				"element": "C" 
			},
			{
				"x": -5.2037933859,
				"y": 1.9088611225,
				"z": -2.7305363998,
				"element": "H" 
			},
			{
				"x": -4.888722478,
				"y": 3.6185759335,
				"z": -2.4640593891,
				"element": "H" 
			},
			{
				"x": -4.2390922712,
				"y": 2.8178477951,
				"z": -3.9013858282,
				"element": "H" 
			},
			{
				"x": -4.3231742447,
				"y": 2.0296233103,
				"z": 1.1527238406,
				"element": "H" 
			},
			{
				"x": -5.2424986877,
				"y": 1.5317728983,
				"z": -0.2730281563,
				"element": "H" 
			},
			{
				"x": -4.9276223617,
				"y": 3.2389009867,
				"z": 0.0105076238,
				"element": "H" 
			},
			{
				"x": -2.0327960353,
				"y": 1.6073808846,
				"z": 1.042886181,
				"element": "H" 
			},
			{
				"x": 0.1527623021,
				"y": 1.7987316514,
				"z": -2.6430232585,
				"element": "H" 
			},
			{
				"x": -1.9397420543,
				"y": 2.3661544707,
				"z": -3.8395895459,
				"element": "H" 
			},
			{
				"x": 2.810672973,
				"y": 1.1511327972,
				"z": 2.2820226316,
				"element": "H" 
			},
			{
				"x": -0.3897434563,
				"y": 3.2821998592,
				"z": 1.9232301382,
				"element": "H" 
			},
			{
				"x": 0.8440951462,
				"y": 2.8254853055,
				"z": 3.1138817656,
				"element": "H" 
			},
			{
				"x": -1.342209634,
				"y": 2.1282097317,
				"z": 3.6514172625,
				"element": "H" 
			},
			{
				"x": 4.2520273537,
				"y": -0.5082752371,
				"z": 1.9264099481,
				"element": "H" 
			},
			{
				"x": 6.360599083,
				"y": -1.5994508836,
				"z": 1.266638254,
				"element": "H" 
			},
			{
				"x": 6.9344453361,
				"y": -1.8771615174,
				"z": -1.1392764642,
				"element": "H" 
			},
			{
				"x": 5.3672952754,
				"y": -1.0296746398,
				"z": -2.8781947599,
				"element": "H" 
			},
			{
				"x": 3.2561904605,
				"y": 0.1074695202,
				"z": -2.2070597962,
				"element": "H" 
			}
		],
		 "valence_orbital": [ 
			{
				"type": "occ",
				"energy": -0.2565,
				"method": "rhf"
			},
			{
				"type": "occ",
				"energy": -0.25204,
				"method": "rhf"
			},
			{
				"type": "occ",
				"energy": -0.23576,
				"method": "rhf"
			},
			{
				"type": "occ",
				"energy": -0.23031,
				"method": "rhf"
			},
			{
				"type": "occ",
				"energy": -0.20361,
				"method": "rhf"
			},
			{
				"type": "unocc",
				"energy": -0.02764,
				"method": "rhf"
			},
			{
				"type": "unocc",
				"energy": -0.00666,
				"method": "rhf"
			},
			{
				"type": "unocc",
				"energy": 0.00164,
				"method": "rhf"
			},
			{
				"type": "unocc",
				"energy": 0.01347,
				"method": "rhf"
			},
			{
				"type": "unocc",
				"energy": 0.0404,
				"method": "rhf"
			}
		],
		"cosmo_sigma_profile": { 
			"-0.025": 0.0,
			"-0.024": 0.0,
			"-0.023": 0.0,
			"-0.022": 0.0,
			"-0.021": 0.0,
			"-0.02": 0.0,
			"-0.019": 0.0,
			"-0.018": 0.0,
			"-0.017": 0.0,
			"-0.016": 0.281577568827,
			"-0.015": 1.23550225541,
			"-0.014": 1.01609138235,
			"-0.013": 1.0347620561,
			"-0.012": 1.03849867869,
			"-0.011": 0.702095117737,
			"-0.01": 1.91959029309,
			"-0.009": 2.89523395305,
			"-0.008": 3.53410021354,
			"-0.007": 4.64453723624,
			"-0.006": 9.23498528024,
			"-0.005": 16.899971838,
			"-0.004": 30.1846081274,
			"-0.003": 32.1604705618,
			"-0.002": 26.8492587901,
			"-0.001": 24.5123123616,
			"0.0": 29.7218346086,
			"0.001": 24.8974440836,
			"0.002": 20.8150581,
			"0.003": 23.6971473841,
			"0.004": 23.8096439452,
			"0.005": 20.7790117475,
			"0.006": 13.9256850211,
			"0.007": 4.60647205542,
			"0.008": 2.99491881414,
			"0.009": 2.24688536667,
			"0.01": 1.87700997446,
			"0.011": 2.29112781882,
			"0.012": 1.67371000455,
			"0.013": 2.01634760048,
			"0.014": 1.43950893734,
			"0.015": 0.295097627801,
			"0.016": 0.0,
			"0.017": 0.0,
			"0.018": 0.0,
			"0.019": 0.0,
			"0.02": 0.0,
			"0.021": 0.0,
			"0.022": 0.0,
			"0.023": 0.0,
			"0.024": 0.0,
			"0.025": 0.0
		}
	}
}
