{
	 "smiles": "CC(C)NC(=O)N1CCC(CC1)C(O)=O", 
	 "Tm": 411.15, 
	 "num_atms": 33, 
	 "gaussian": { 
		 "optdone": 1, 
		 "sigma_profile": "yes", 
		 "theory": "DFT", 
		 "functional": "B3LYP", 
		 "basiset": "6-31G**", 
		 "properties": { 
			 "R2extent": 4161.841, 
			 "electric_dipole_moment_norm": 1.77291613733, 
			 "electric_quadrupole_moment_norm": 25.5762678587, 
			 "total_energy": -727.129218019, 
			 "HOMO_LUMO_gap": 0.23319, 
			 "cosmo_polarized_energy": -19.59, 
			 "cosmo_cavitation_energy": 33.77, 
			 "cosmo_dispersion_energy": -23.62, 
			 "cosmo_repulsion_energy": 1.85, 
			 "cosmo_total_nonelectrostatic_energy": 12.01, 
			 "SMD_solvation_energy": 5.42 
		},
		"coords": [
			{
				"x": 3.5173948251,
				"y": -2.1028929136,
				"z": -1.0116069939,
				"element": "C" 
			},
			{
				"x": 2.8336743848,
				"y": -0.8172271902,
				"z": -0.5380387195,
				"element": "C" 
			},
			{
				"x": 3.8484724977,
				"y": 0.2280256947,
				"z": -0.0515578544,
				"element": "C" 
			},
			{
				"x": 1.8493270753,
				"y": -1.1553979689,
				"z": 0.5123180445,
				"element": "N" 
			},
			{
				"x": 0.8499084294,
				"y": -0.2654645766,
				"z": 0.9155362875,
				"element": "C" 
			},
			{
				"x": 0.6678749937,
				"y": 0.0006277497,
				"z": 2.1021259054,
				"element": "O" 
			},
			{
				"x": 0.0805861086,
				"y": 0.2852161242,
				"z": -0.1046280865,
				"element": "N" 
			},
			{
				"x": -0.3754686198,
				"y": -0.5188544608,
				"z": -1.2498096512,
				"element": "C" 
			},
			{
				"x": -1.7333788727,
				"y": -1.1876720686,
				"z": -0.9675159879,
				"element": "C" 
			},
			{
				"x": -2.8032709366,
				"y": -0.193567432,
				"z": -0.4798832961,
				"element": "C" 
			},
			{
				"x": -2.2433134416,
				"y": 0.6732405788,
				"z": 0.6790543025,
				"element": "C" 
			},
			{
				"x": -0.8933972999,
				"y": 1.3000108531,
				"z": 0.3040905252,
				"element": "C" 
			},
			{
				"x": -3.3282396836,
				"y": 0.6754246736,
				"z": -1.6264151561,
				"element": "C" 
			},
			{
				"x": -4.400956874,
				"y": 1.457278175,
				"z": -1.3229247871,
				"element": "O" 
			},
			{
				"x": -2.8650229446,
				"y": 0.7109186643,
				"z": -2.7409064599,
				"element": "O" 
			},
			{
				"x": 4.0700453908,
				"y": -2.5751798096,
				"z": -0.1903827575,
				"element": "H" 
			},
			{
				"x": 4.2322819227,
				"y": -1.8900579501,
				"z": -1.8124717266,
				"element": "H" 
			},
			{
				"x": 2.7832448014,
				"y": -2.8243810926,
				"z": -1.3814923589,
				"element": "H" 
			},
			{
				"x": 2.2778374154,
				"y": -0.3869620313,
				"z": -1.3750270812,
				"element": "H" 
			},
			{
				"x": 3.3426706804,
				"y": 1.142490771,
				"z": 0.272254983,
				"element": "H" 
			},
			{
				"x": 4.5514955342,
				"y": 0.4907615562,
				"z": -0.84945034,
				"element": "H" 
			},
			{
				"x": 4.4294764465,
				"y": -0.1567058544,
				"z": 0.7950533443,
				"element": "H" 
			},
			{
				"x": 2.3003832818,
				"y": -1.503612116,
				"z": 1.3528240915,
				"element": "H" 
			},
			{
				"x": -0.4629954934,
				"y": 0.1332233003,
				"z": -2.1239430847,
				"element": "H" 
			},
			{
				"x": 0.3624130157,
				"y": -1.2895246161,
				"z": -1.4682392543,
				"element": "H" 
			},
			{
				"x": -2.0789194455,
				"y": -1.6922402232,
				"z": -1.8750331052,
				"element": "H" 
			},
			{
				"x": -1.5956369747,
				"y": -1.9521016592,
				"z": -0.1934474509,
				"element": "H" 
			},
			{
				"x": -3.6668139245,
				"y": -0.7608511451,
				"z": -0.1021107928,
				"element": "H" 
			},
			{
				"x": -2.949997776,
				"y": 1.462189458,
				"z": 0.9662941233,
				"element": "H" 
			},
			{
				"x": -2.0927950555,
				"y": 0.0403190884,
				"z": 1.5592404805,
				"element": "H" 
			},
			{
				"x": -0.4833881561,
				"y": 1.8416523256,
				"z": 1.1563023589,
				"element": "H" 
			},
			{
				"x": -1.0152605414,
				"y": 2.0020750058,
				"z": -0.5309199225,
				"element": "H" 
			},
			{
				"x": -4.6755307634,
				"y": 1.3088390895,
				"z": -0.4068895796,
				"element": "H" 
			}
		],
		 "valence_orbital": [ 
			{
				"type": "occ",
				"energy": -0.31766,
				"method": "rhf"
			},
			{
				"type": "occ",
				"energy": -0.27271,
				"method": "rhf"
			},
			{
				"type": "occ",
				"energy": -0.26947,
				"method": "rhf"
			},
			{
				"type": "occ",
				"energy": -0.23859,
				"method": "rhf"
			},
			{
				"type": "occ",
				"energy": -0.22996,
				"method": "rhf"
			},
			{
				"type": "unocc",
				"energy": 0.00323,
				"method": "rhf"
			},
			{
				"type": "unocc",
				"energy": 0.03639,
				"method": "rhf"
			},
			{
				"type": "unocc",
				"energy": 0.0471,
				"method": "rhf"
			},
			{
				"type": "unocc",
				"energy": 0.07687,
				"method": "rhf"
			},
			{
				"type": "unocc",
				"energy": 0.09856,
				"method": "rhf"
			}
		],
		"cosmo_sigma_profile": { 
			"-0.025": 0.0,
			"-0.024": 0.0,
			"-0.023": 0.0,
			"-0.022": 0.0,
			"-0.021": 0.0,
			"-0.02": 0.0,
			"-0.019": 0.221214712301,
			"-0.018": 0.844268557969,
			"-0.017": 1.17097500254,
			"-0.016": 1.0744426147,
			"-0.015": 1.11876164351,
			"-0.014": 0.650757991359,
			"-0.013": 1.14986952021,
			"-0.012": 1.50178681887,
			"-0.011": 1.91923781365,
			"-0.01": 1.92473958988,
			"-0.009": 2.53344433371,
			"-0.008": 3.23316353658,
			"-0.007": 3.24383447751,
			"-0.006": 4.72976611831,
			"-0.005": 8.79702185556,
			"-0.004": 23.5493780729,
			"-0.003": 36.3514902225,
			"-0.002": 29.9586565451,
			"-0.001": 25.2751543753,
			"0.0": 22.7753432048,
			"0.001": 18.0481558901,
			"0.002": 8.05883266698,
			"0.003": 5.92627077411,
			"0.004": 5.39671235655,
			"0.005": 4.54469861959,
			"0.006": 5.2250747845,
			"0.007": 4.84245727639,
			"0.008": 4.47469030047,
			"0.009": 4.61301598163,
			"0.01": 6.25143703864,
			"0.011": 6.48545852444,
			"0.012": 5.10189902934,
			"0.013": 4.27303609035,
			"0.014": 4.71573723634,
			"0.015": 1.90596547247,
			"0.016": 0.0205376547188,
			"0.017": 0.0,
			"0.018": 0.0,
			"0.019": 0.0,
			"0.02": 0.0,
			"0.021": 0.0,
			"0.022": 0.0,
			"0.023": 0.0,
			"0.024": 0.0,
			"0.025": 0.0
		}
	}
}
