{
	 "smiles": "OC1=C(C=CC=C1)C1=NC(CCl)=NO1", 
	 "Tm": 350.15, 
	 "num_atms": 21, 
	 "gaussian": { 
		 "optdone": 1, 
		 "sigma_profile": "yes", 
		 "theory": "DFT", 
		 "functional": "B3LYP", 
		 "basiset": "6-31G**", 
		 "properties": { 
			 "R2extent": 4037.1704, 
			 "electric_dipole_moment_norm": 2.30831149111, 
			 "electric_quadrupole_moment_norm": 9.25795026396, 
			 "total_energy": -1067.28562386, 
			 "HOMO_LUMO_gap": 0.16997, 
			 "cosmo_polarized_energy": -9.87, 
			 "cosmo_cavitation_energy": 27.9, 
			 "cosmo_dispersion_energy": -21.05, 
			 "cosmo_repulsion_energy": 1.66, 
			 "cosmo_total_nonelectrostatic_energy": 8.51, 
			 "SMD_solvation_energy": 2.59 
		},
		"coords": [
			{
				"x": -1.6785712638,
				"y": 2.4682825545,
				"z": -1.8472474953,
				"element": "O" 
			},
			{
				"x": -0.7932625533,
				"y": 1.5141170527,
				"z": -2.213490927,
				"element": "C" 
			},
			{
				"x": -0.3401770471,
				"y": 0.4685965062,
				"z": -1.3706381349,
				"element": "C" 
			},
			{
				"x": 0.5893137749,
				"y": -0.4679532051,
				"z": -1.8719855082,
				"element": "C" 
			},
			{
				"x": 1.0608547751,
				"y": -0.3806973902,
				"z": -3.1704167423,
				"element": "C" 
			},
			{
				"x": 0.605420531,
				"y": 0.6569958721,
				"z": -3.9978716561,
				"element": "C" 
			},
			{
				"x": -0.3071425537,
				"y": 1.5901436863,
				"z": -3.5275377221,
				"element": "C" 
			},
			{
				"x": -0.7890492527,
				"y": 0.3085042726,
				"z": 0.001051729,
				"element": "C" 
			},
			{
				"x": -0.4589845353,
				"y": -0.6141039967,
				"z": 0.8671895317,
				"element": "N" 
			},
			{
				"x": -1.182556696,
				"y": -0.2608971031,
				"z": 1.976140017,
				"element": "C" 
			},
			{
				"x": -1.156830953,
				"y": -1.0236904663,
				"z": 3.2564937509,
				"element": "C" 
			},
			{
				"x": 0.4141807647,
				"y": -0.7990708999,
				"z": 4.1369634332,
				"element": "Cl" 
			},
			{
				"x": -1.9335488382,
				"y": 0.8061993609,
				"z": 1.8481364064,
				"element": "N" 
			},
			{
				"x": -1.6763681639,
				"y": 1.1987946044,
				"z": 0.5192695824,
				"element": "O" 
			},
			{
				"x": -1.9573827455,
				"y": 2.3463659312,
				"z": -0.9263092357,
				"element": "H" 
			},
			{
				"x": 0.9225234189,
				"y": -1.2569538291,
				"z": -1.2064804499,
				"element": "H" 
			},
			{
				"x": 1.7755699165,
				"y": -1.1074630977,
				"z": -3.5415234105,
				"element": "H" 
			},
			{
				"x": 0.9684619535,
				"y": 0.7360666031,
				"z": -5.0184995858,
				"element": "H" 
			},
			{
				"x": -0.6682720201,
				"y": 2.3985739837,
				"z": -4.1539256462,
				"element": "H" 
			},
			{
				"x": -1.9516830044,
				"y": -0.6797818336,
				"z": 3.9164503407,
				"element": "H" 
			},
			{
				"x": -1.2549955074,
				"y": -2.092028606,
				"z": 3.0644317226,
				"element": "H" 
			}
		],
		 "valence_orbital": [ 
			{
				"type": "occ",
				"energy": -0.31331,
				"method": "rhf"
			},
			{
				"type": "occ",
				"energy": -0.30792,
				"method": "rhf"
			},
			{
				"type": "occ",
				"energy": -0.30529,
				"method": "rhf"
			},
			{
				"type": "occ",
				"energy": -0.26134,
				"method": "rhf"
			},
			{
				"type": "occ",
				"energy": -0.23829,
				"method": "rhf"
			},
			{
				"type": "unocc",
				"energy": -0.06832,
				"method": "rhf"
			},
			{
				"type": "unocc",
				"energy": -0.02839,
				"method": "rhf"
			},
			{
				"type": "unocc",
				"energy": -0.00634,
				"method": "rhf"
			},
			{
				"type": "unocc",
				"energy": 0.03126,
				"method": "rhf"
			},
			{
				"type": "unocc",
				"energy": 0.05245,
				"method": "rhf"
			}
		],
		"cosmo_sigma_profile": { 
			"-0.025": 0.0,
			"-0.024": 0.0,
			"-0.023": 0.0,
			"-0.022": 0.0,
			"-0.021": 0.0,
			"-0.02": 0.0,
			"-0.019": 0.0,
			"-0.018": 0.0,
			"-0.017": 0.0,
			"-0.016": 0.0,
			"-0.015": 0.0,
			"-0.014": 0.0,
			"-0.013": 0.0452814887678,
			"-0.012": 0.526916833176,
			"-0.011": 0.675198558824,
			"-0.01": 1.36732361362,
			"-0.009": 5.23490247976,
			"-0.008": 5.08051369803,
			"-0.007": 9.40389665558,
			"-0.006": 14.3211744392,
			"-0.005": 14.7763085008,
			"-0.004": 14.1633376419,
			"-0.003": 11.339287057,
			"-0.002": 11.7419430075,
			"-0.001": 12.0628075801,
			"0.0": 15.2060394299,
			"0.001": 17.0245837562,
			"0.002": 18.8329476001,
			"0.003": 17.2743620742,
			"0.004": 16.5077961983,
			"0.005": 13.8089980856,
			"0.006": 9.30361297044,
			"0.007": 3.09533643037,
			"0.008": 4.59746763193,
			"0.009": 3.3611064423,
			"0.01": 3.82231877704,
			"0.011": 2.60912815723,
			"0.012": 0.885689572089,
			"0.013": 0.0,
			"0.014": 0.0,
			"0.015": 0.0,
			"0.016": 0.0,
			"0.017": 0.0,
			"0.018": 0.0,
			"0.019": 0.0,
			"0.02": 0.0,
			"0.021": 0.0,
			"0.022": 0.0,
			"0.023": 0.0,
			"0.024": 0.0,
			"0.025": 0.0
		}
	}
}
