{
	 "smiles": "NS(=O)(=O)C1=CC(=C(C=C1)N1CCC(CC1)C(O)=O)[N+]([O-])=O", 
	 "Tm": 455.15, 
	 "num_atms": 37, 
	 "gaussian": { 
		 "optdone": 1, 
		 "sigma_profile": "yes", 
		 "theory": "DFT", 
		 "functional": "B3LYP", 
		 "basiset": "6-31G**", 
		 "properties": { 
			 "R2extent": 8500.8293, 
			 "electric_dipole_moment_norm": 7.25608480725, 
			 "electric_quadrupole_moment_norm": 22.9895325005, 
			 "total_energy": -1479.93510134, 
			 "HOMO_LUMO_gap": 0.14309, 
			 "cosmo_polarized_energy": -28.39, 
			 "cosmo_cavitation_energy": 41.08, 
			 "cosmo_dispersion_energy": -28.95, 
			 "cosmo_repulsion_energy": 2.17, 
			 "cosmo_total_nonelectrostatic_energy": 14.3, 
			 "SMD_solvation_energy": 8.96 
		},
		"coords": [
			{
				"x": 1.2563818022,
				"y": 4.7468531978,
				"z": -3.1125886663,
				"element": "N" 
			},
			{
				"x": 2.0754768047,
				"y": 3.3051225938,
				"z": -2.7465071319,
				"element": "S" 
			},
			{
				"x": 3.0553702898,
				"y": 3.6761318771,
				"z": -1.7210452885,
				"element": "O" 
			},
			{
				"x": 2.4670174373,
				"y": 2.6362976447,
				"z": -3.9909633206,
				"element": "O" 
			},
			{
				"x": 0.8100220164,
				"y": 2.3120888069,
				"z": -1.9802251984,
				"element": "C" 
			},
			{
				"x": 0.2289717304,
				"y": 1.2704846655,
				"z": -2.6820571322,
				"element": "C" 
			},
			{
				"x": -0.7690988503,
				"y": 0.4992799597,
				"z": -2.0798820929,
				"element": "C" 
			},
			{
				"x": -1.1476643865,
				"y": 0.6815638577,
				"z": -0.7179023551,
				"element": "C" 
			},
			{
				"x": -0.541846122,
				"y": 1.7866175124,
				"z": -0.053874683,
				"element": "C" 
			},
			{
				"x": 0.4054824058,
				"y": 2.5832447074,
				"z": -0.663902806,
				"element": "C" 
			},
			{
				"x": -1.9838598975,
				"y": -0.1650109535,
				"z": -0.0361180837,
				"element": "N" 
			},
			{
				"x": -2.0759803503,
				"y": -1.6057875034,
				"z": -0.3173848989,
				"element": "C" 
			},
			{
				"x": -2.1053542931,
				"y": -2.4128204994,
				"z": 1.0025115432,
				"element": "C" 
			},
			{
				"x": -1.3109866774,
				"y": -1.7116207281,
				"z": 2.1158435988,
				"element": "C" 
			},
			{
				"x": -1.9573079223,
				"y": -0.3403199823,
				"z": 2.4504036117,
				"element": "C" 
			},
			{
				"x": -2.6576797929,
				"y": 0.2333253628,
				"z": 1.1990803178,
				"element": "C" 
			},
			{
				"x": 0.1645847007,
				"y": -1.6262464173,
				"z": 1.7388785146,
				"element": "C" 
			},
			{
				"x": 0.8562077507,
				"y": -0.7662295048,
				"z": 2.5238148827,
				"element": "O" 
			},
			{
				"x": 0.6998701933,
				"y": -2.2789395962,
				"z": 0.8686541436,
				"element": "O" 
			},
			{
				"x": -1.4917027581,
				"y": -0.3918691615,
				"z": -2.9913634577,
				"element": "N" 
			},
			{
				"x": -2.7011474063,
				"y": -0.5501464467,
				"z": -2.8012130436,
				"element": "O" 
			},
			{
				"x": -0.8690404916,
				"y": -0.8738618555,
				"z": -3.9385648971,
				"element": "O" 
			},
			{
				"x": 1.8823083243,
				"y": 5.5227895638,
				"z": -2.9084514327,
				"element": "H" 
			},
			{
				"x": 0.9802406186,
				"y": 4.7533951423,
				"z": -4.0919013037,
				"element": "H" 
			},
			{
				"x": 0.513115884,
				"y": 1.0573249567,
				"z": -3.7051696419,
				"element": "H" 
			},
			{
				"x": -0.7791998166,
				"y": 1.970520724,
				"z": 0.98635068,
				"element": "H" 
			},
			{
				"x": 0.8724673818,
				"y": 3.391438545,
				"z": -0.1112429705,
				"element": "H" 
			},
			{
				"x": -2.9557853715,
				"y": -1.8312251615,
				"z": -0.9296875822,
				"element": "H" 
			},
			{
				"x": -1.1891195285,
				"y": -1.8932699202,
				"z": -0.885305787,
				"element": "H" 
			},
			{
				"x": -3.1359438926,
				"y": -2.5493834063,
				"z": 1.3481121519,
				"element": "H" 
			},
			{
				"x": -1.6974037975,
				"y": -3.4068929933,
				"z": 0.8055351049,
				"element": "H" 
			},
			{
				"x": -1.327263558,
				"y": -2.3315942599,
				"z": 3.0220534562,
				"element": "H" 
			},
			{
				"x": -2.7001028386,
				"y": -0.4654289421,
				"z": 3.2454328298,
				"element": "H" 
			},
			{
				"x": -1.1974628316,
				"y": 0.346669368,
				"z": 2.8292267544,
				"element": "H" 
			},
			{
				"x": -3.6830354608,
				"y": -0.151386017,
				"z": 1.1376419168,
				"element": "H" 
			},
			{
				"x": -2.7452774869,
				"y": 1.3196224951,
				"z": 1.2424140927,
				"element": "H" 
			},
			{
				"x": 1.7799461907,
				"y": -0.8090376315,
				"z": 2.2229981745,
				"element": "H" 
			}
		],
		 "valence_orbital": [ 
			{
				"type": "occ",
				"energy": -0.29514,
				"method": "rhf"
			},
			{
				"type": "occ",
				"energy": -0.28714,
				"method": "rhf"
			},
			{
				"type": "occ",
				"energy": -0.28573,
				"method": "rhf"
			},
			{
				"type": "occ",
				"energy": -0.27513,
				"method": "rhf"
			},
			{
				"type": "occ",
				"energy": -0.22451,
				"method": "rhf"
			},
			{
				"type": "unocc",
				"energy": -0.08142,
				"method": "rhf"
			},
			{
				"type": "unocc",
				"energy": -0.03688,
				"method": "rhf"
			},
			{
				"type": "unocc",
				"energy": -0.0178,
				"method": "rhf"
			},
			{
				"type": "unocc",
				"energy": -0.0063,
				"method": "rhf"
			},
			{
				"type": "unocc",
				"energy": 0.04901,
				"method": "rhf"
			}
		],
		"cosmo_sigma_profile": { 
			"-0.025": 0.0,
			"-0.024": 0.0,
			"-0.023": 0.0,
			"-0.022": 0.0,
			"-0.021": 0.0,
			"-0.02": 0.0,
			"-0.019": 0.068217446715,
			"-0.018": 0.798446226802,
			"-0.017": 1.03966492476,
			"-0.016": 0.874970031696,
			"-0.015": 1.57214446725,
			"-0.014": 2.64142947497,
			"-0.013": 3.79718230046,
			"-0.012": 3.87851951257,
			"-0.011": 2.84334466035,
			"-0.01": 2.56719956668,
			"-0.009": 3.06415734315,
			"-0.008": 6.50631153832,
			"-0.007": 10.6963221621,
			"-0.006": 16.1161931636,
			"-0.005": 21.0802609361,
			"-0.004": 27.4343837377,
			"-0.003": 23.264204826,
			"-0.002": 20.1113914563,
			"-0.001": 21.2875118707,
			"0.0": 18.0854092735,
			"0.001": 17.2793343726,
			"0.002": 13.3242760383,
			"0.003": 9.69992540693,
			"0.004": 7.8803034,
			"0.005": 8.50591715463,
			"0.006": 9.60954807358,
			"0.007": 11.0759557001,
			"0.008": 14.5020874919,
			"0.009": 12.0365251395,
			"0.01": 12.9813317783,
			"0.011": 13.4655029505,
			"0.012": 6.25500317359,
			"0.013": 0.0643257025567,
			"0.014": 0.0,
			"0.015": 0.0,
			"0.016": 0.0,
			"0.017": 0.0,
			"0.018": 0.0,
			"0.019": 0.0,
			"0.02": 0.0,
			"0.021": 0.0,
			"0.022": 0.0,
			"0.023": 0.0,
			"0.024": 0.0,
			"0.025": 0.0
		}
	}
}
