{
	 "smiles": "O=C(CC#N)NCC1=CC=CC=C1", 
	 "Tm": 399.15, 
	 "num_atms": 23, 
	 "gaussian": { 
		 "optdone": 1, 
		 "sigma_profile": "yes", 
		 "theory": "DFT", 
		 "functional": "B3LYP", 
		 "basiset": "6-31G**", 
		 "properties": { 
			 "R2extent": 3204.8541, 
			 "electric_dipole_moment_norm": 7.37993880056, 
			 "electric_quadrupole_moment_norm": 31.3439649966, 
			 "total_energy": -571.80668958, 
			 "HOMO_LUMO_gap": 0.23806, 
			 "cosmo_polarized_energy": -20.62, 
			 "cosmo_cavitation_energy": 28.38, 
			 "cosmo_dispersion_energy": -19.41, 
			 "cosmo_repulsion_energy": 1.56, 
			 "cosmo_total_nonelectrostatic_energy": 10.53, 
			 "SMD_solvation_energy": 6.74 
		},
		"coords": [
			{
				"x": -2.0703852416,
				"y": 2.7507412431,
				"z": -1.8112572065,
				"element": "O" 
			},
			{
				"x": -1.1049438579,
				"y": 2.0107805424,
				"z": -1.8709137196,
				"element": "C" 
			},
			{
				"x": 0.2577962607,
				"y": 2.3664660816,
				"z": -1.2453842689,
				"element": "C" 
			},
			{
				"x": 0.222741585,
				"y": 3.6298740638,
				"z": -0.5133412044,
				"element": "C" 
			},
			{
				"x": 0.2460195757,
				"y": 4.6249525105,
				"z": 0.0810536584,
				"element": "N" 
			},
			{
				"x": -1.145584478,
				"y": 0.8042254299,
				"z": -2.520029535,
				"element": "N" 
			},
			{
				"x": -0.1000848596,
				"y": -0.2067814562,
				"z": -2.6088377582,
				"element": "C" 
			},
			{
				"x": 0.1441923893,
				"y": -1.0248229665,
				"z": -1.3451769696,
				"element": "C" 
			},
			{
				"x": -0.8783429419,
				"y": -1.2740791904,
				"z": -0.4224193334,
				"element": "C" 
			},
			{
				"x": -0.6389860723,
				"y": -2.0658075768,
				"z": 0.7021128853,
				"element": "C" 
			},
			{
				"x": 0.6241684424,
				"y": -2.6199563097,
				"z": 0.9164092689,
				"element": "C" 
			},
			{
				"x": 1.6500092081,
				"y": -2.3744377549,
				"z": 0.0017650644,
				"element": "C" 
			},
			{
				"x": 1.4107459118,
				"y": -1.5787424496,
				"z": -1.1191805802,
				"element": "C" 
			},
			{
				"x": 0.581752396,
				"y": 1.5654676836,
				"z": -0.5704577857,
				"element": "H" 
			},
			{
				"x": 1.0173503141,
				"y": 2.4356707275,
				"z": -2.0344825988,
				"element": "H" 
			},
			{
				"x": -2.053677332,
				"y": 0.5993009674,
				"z": -2.9142343135,
				"element": "H" 
			},
			{
				"x": -0.3887562746,
				"y": -0.876657088,
				"z": -3.4268023264,
				"element": "H" 
			},
			{
				"x": 0.8414846331,
				"y": 0.2553434871,
				"z": -2.9289531116,
				"element": "H" 
			},
			{
				"x": -1.861133442,
				"y": -0.8391968945,
				"z": -0.578844087,
				"element": "H" 
			},
			{
				"x": -1.4407308073,
				"y": -2.2472649935,
				"z": 1.4120305951,
				"element": "H" 
			},
			{
				"x": 0.8096891522,
				"y": -3.2334706281,
				"z": 1.793012896,
				"element": "H" 
			},
			{
				"x": 2.6385062839,
				"y": -2.7940532917,
				"z": 0.1646748145,
				"element": "H" 
			},
			{
				"x": 2.2161691551,
				"y": -1.3861521371,
				"z": -1.8248443836,
				"element": "H" 
			}
		],
		 "valence_orbital": [ 
			{
				"type": "occ",
				"energy": -0.32121,
				"method": "rhf"
			},
			{
				"type": "occ",
				"energy": -0.27482,
				"method": "rhf"
			},
			{
				"type": "occ",
				"energy": -0.26884,
				"method": "rhf"
			},
			{
				"type": "occ",
				"energy": -0.26676,
				"method": "rhf"
			},
			{
				"type": "occ",
				"energy": -0.25987,
				"method": "rhf"
			},
			{
				"type": "unocc",
				"energy": -0.02181,
				"method": "rhf"
			},
			{
				"type": "unocc",
				"energy": -0.01982,
				"method": "rhf"
			},
			{
				"type": "unocc",
				"energy": 0.00898,
				"method": "rhf"
			},
			{
				"type": "unocc",
				"energy": 0.03457,
				"method": "rhf"
			},
			{
				"type": "unocc",
				"energy": 0.04159,
				"method": "rhf"
			}
		],
		"cosmo_sigma_profile": { 
			"-0.025": 0.0,
			"-0.024": 0.0,
			"-0.023": 0.0,
			"-0.022": 0.0,
			"-0.021": 0.0,
			"-0.02": 0.0,
			"-0.019": 0.0,
			"-0.018": 0.0,
			"-0.017": 0.0,
			"-0.016": 0.0,
			"-0.015": 0.0566468664917,
			"-0.014": 1.26117613231,
			"-0.013": 1.31412994337,
			"-0.012": 1.5369636998,
			"-0.011": 1.58655455821,
			"-0.01": 4.4305387551,
			"-0.009": 5.0931730283,
			"-0.008": 6.29836941316,
			"-0.007": 9.01921175297,
			"-0.006": 14.3220576337,
			"-0.005": 18.2402348538,
			"-0.004": 17.6577990787,
			"-0.003": 16.1375717145,
			"-0.002": 12.1540559008,
			"-0.001": 10.7479793913,
			"0.0": 8.66657664996,
			"0.001": 10.8382836667,
			"0.002": 9.05697850383,
			"0.003": 9.82815518802,
			"0.004": 10.4180278092,
			"0.005": 10.788011063,
			"0.006": 8.40068779551,
			"0.007": 4.03636862374,
			"0.008": 5.9639399308,
			"0.009": 5.60358814656,
			"0.01": 4.59264325383,
			"0.011": 5.00232340156,
			"0.012": 6.19190021286,
			"0.013": 6.87046005453,
			"0.014": 0.690440628439,
			"0.015": 0.0,
			"0.016": 0.0,
			"0.017": 0.0,
			"0.018": 0.0,
			"0.019": 0.0,
			"0.02": 0.0,
			"0.021": 0.0,
			"0.022": 0.0,
			"0.023": 0.0,
			"0.024": 0.0,
			"0.0": 0.0
		}
	}
}
