{
	 "smiles": "CCC1=CC=CC=C1CC1=CC=CC=C1", 
	 "Tm": 262.15, 
	 "num_atms": 31, 
	 "gaussian": { 
		 "optdone": 1, 
		 "sigma_profile": "yes", 
		 "theory": "DFT", 
		 "functional": "B3LYP", 
		 "basiset": "6-31G**", 
		 "properties": { 
			 "R2extent": 3651.8193, 
			 "electric_dipole_moment_norm": 0.273756132351, 
			 "electric_quadrupole_moment_norm": 3.56623971993, 
			 "total_energy": -581.256136705, 
			 "HOMO_LUMO_gap": 0.22757, 
			 "cosmo_polarized_energy": -5.27, 
			 "cosmo_cavitation_energy": 33.15, 
			 "cosmo_dispersion_energy": -23.06, 
			 "cosmo_repulsion_energy": 1.82, 
			 "cosmo_total_nonelectrostatic_energy": 11.9, 
			 "SMD_solvation_energy": 5.33 
		},
		"coords": [
			{
				"x": 1.4337451627,
				"y": 1.3188551929,
				"z": -2.5838307746,
				"element": "C" 
			},
			{
				"x": 0.4403001753,
				"y": 0.4226423464,
				"z": -1.8203706096,
				"element": "C" 
			},
			{
				"x": -0.5770760829,
				"y": 1.2150259538,
				"z": -1.0213840979,
				"element": "C" 
			},
			{
				"x": -1.7746039988,
				"y": 1.6006175721,
				"z": -1.6382852488,
				"element": "C" 
			},
			{
				"x": -2.7321408911,
				"y": 2.3646244237,
				"z": -0.9712706326,
				"element": "C" 
			},
			{
				"x": -2.4984832554,
				"y": 2.7602480567,
				"z": 0.3444949428,
				"element": "C" 
			},
			{
				"x": -1.310869935,
				"y": 2.3831898559,
				"z": 0.9720774994,
				"element": "C" 
			},
			{
				"x": -0.3423369508,
				"y": 1.6137990786,
				"z": 0.313070607,
				"element": "C" 
			},
			{
				"x": 0.922000663,
				"y": 1.2221572012,
				"z": 1.0599736588,
				"element": "C" 
			},
			{
				"x": 0.9805359225,
				"y": -0.2242047344,
				"z": 1.542300788,
				"element": "C" 
			},
			{
				"x": 2.1988506583,
				"y": -0.9171626414,
				"z": 1.5397350012,
				"element": "C" 
			},
			{
				"x": 2.2844615835,
				"y": -2.2239247286,
				"z": 2.0233396173,
				"element": "C" 
			},
			{
				"x": 1.1464739292,
				"y": -2.8626056509,
				"z": 2.5178291302,
				"element": "C" 
			},
			{
				"x": -0.0737156254,
				"y": -2.1837309562,
				"z": 2.5229066939,
				"element": "C" 
			},
			{
				"x": -0.1557039501,
				"y": -0.8776404713,
				"z": 2.0385759374,
				"element": "C" 
			},
			{
				"x": 0.9082473726,
				"y": 1.9753708357,
				"z": -3.2849056471,
				"element": "H" 
			},
			{
				"x": 2.003568287,
				"y": 1.9585555012,
				"z": -1.9016726589,
				"element": "H" 
			},
			{
				"x": 2.1472960658,
				"y": 0.7144709028,
				"z": -3.1539876321,
				"element": "H" 
			},
			{
				"x": -0.0915116852,
				"y": -0.2081700814,
				"z": -2.5423924444,
				"element": "H" 
			},
			{
				"x": 0.9902465522,
				"y": -0.2611458746,
				"z": -1.1668304833,
				"element": "H" 
			},
			{
				"x": -1.9572999043,
				"y": 1.2906404977,
				"z": -2.6649608944,
				"element": "H" 
			},
			{
				"x": -3.652112801,
				"y": 2.6459714068,
				"z": -1.476014542,
				"element": "H" 
			},
			{
				"x": -3.2316319698,
				"y": 3.3566466591,
				"z": 0.8800790234,
				"element": "H" 
			},
			{
				"x": -1.1257706975,
				"y": 2.693411846,
				"z": 1.9980241958,
				"element": "H" 
			},
			{
				"x": 1.8058192398,
				"y": 1.4176305457,
				"z": 0.4427740319,
				"element": "H" 
			},
			{
				"x": 1.0205257694,
				"y": 1.8819759767,
				"z": 1.9320806363,
				"element": "H" 
			},
			{
				"x": 3.0905228843,
				"y": -0.4264260882,
				"z": 1.1557972867,
				"element": "H" 
			},
			{
				"x": 3.2390564281,
				"y": -2.7428237589,
				"z": 2.0091861378,
				"element": "H" 
			},
			{
				"x": 1.2086982904,
				"y": -3.8803841492,
				"z": 2.8923081849,
				"element": "H" 
			},
			{
				"x": -0.9665646181,
				"y": -2.6730297432,
				"z": 2.9026614132,
				"element": "H" 
			},
			{
				"x": -1.1110266187,
				"y": -0.3609849748,
				"z": 2.0381908796,
				"element": "H" 
			}
		],
		 "valence_orbital": [ 
			{
				"type": "occ",
				"energy": -0.31712,
				"method": "rhf"
			},
			{
				"type": "occ",
				"energy": -0.24577,
				"method": "rhf"
			},
			{
				"type": "occ",
				"energy": -0.24156,
				"method": "rhf"
			},
			{
				"type": "occ",
				"energy": -0.23909,
				"method": "rhf"
			},
			{
				"type": "occ",
				"energy": -0.23045,
				"method": "rhf"
			},
			{
				"type": "unocc",
				"energy": -0.00288,
				"method": "rhf"
			},
			{
				"type": "unocc",
				"energy": 0.00037,
				"method": "rhf"
			},
			{
				"type": "unocc",
				"energy": 0.00369,
				"method": "rhf"
			},
			{
				"type": "unocc",
				"energy": 0.01138,
				"method": "rhf"
			},
			{
				"type": "unocc",
				"energy": 0.09178,
				"method": "rhf"
			}
		],
		"cosmo_sigma_profile": { 
			"-0.025": 0.0,
			"-0.024": 0.0,
			"-0.023": 0.0,
			"-0.022": 0.0,
			"-0.021": 0.0,
			"-0.02": 0.0,
			"-0.019": 0.0,
			"-0.018": 0.0,
			"-0.017": 0.0,
			"-0.016": 0.0,
			"-0.015": 0.0,
			"-0.014": 0.0,
			"-0.013": 0.0,
			"-0.012": 0.0,
			"-0.011": 0.0,
			"-0.01": 0.0,
			"-0.009": 0.0,
			"-0.008": 0.0,
			"-0.007": 0.0,
			"-0.006": 2.15654974133,
			"-0.005": 17.4220686086,
			"-0.004": 24.1000918042,
			"-0.003": 31.5854870354,
			"-0.002": 26.839041017,
			"-0.001": 27.8191080078,
			"0.0": 24.9250765755,
			"0.001": 25.0910363576,
			"0.002": 15.8448345893,
			"0.003": 15.2625176845,
			"0.004": 16.0530929465,
			"0.005": 14.7538991726,
			"0.006": 14.8877225515,
			"0.007": 5.86157366017,
			"0.008": 0.0,
			"0.009": 0.0,
			"0.01": 0.0,
			"0.011": 0.0,
			"0.012": 0.0,
			"0.013": 0.0,
			"0.014": 0.0,
			"0.015": 0.0,
			"0.016": 0.0,
			"0.017": 0.0,
			"0.018": 0.0,
			"0.019": 0.0,
			"0.02": 0.0,
			"0.021": 0.0,
			"0.022": 0.0,
			"0.023": 0.0,
			"0.024": 0.0,
			"0.025": 0.0
		}
	}
}
