{
	 "smiles": "CC(C)OP(C)(F)=O", 
	 "Tm": 216.15, 
	 "num_atms": 18, 
	 "gaussian": { 
		 "optdone": 1, 
		 "sigma_profile": "yes", 
		 "theory": "DFT", 
		 "functional": "B3LYP", 
		 "basiset": "6-31G**", 
		 "properties": { 
			 "R2extent": 1440.5848, 
			 "electric_dipole_moment_norm": 2.74474467483, 
			 "electric_quadrupole_moment_norm": 13.1131526568, 
			 "total_energy": -750.189332203, 
			 "HOMO_LUMO_gap": 0.35357, 
			 "cosmo_polarized_energy": -9.71, 
			 "cosmo_cavitation_energy": 22.44, 
			 "cosmo_dispersion_energy": -16.37, 
			 "cosmo_repulsion_energy": 1.32, 
			 "cosmo_total_nonelectrostatic_energy": 7.39, 
			 "SMD_solvation_energy": 6.03 
		},
		"coords": [
			{
				"x": 2.0582652478,
				"y": -0.3801416937,
				"z": 0.9839856084,
				"element": "C" 
			},
			{
				"x": 1.0867793373,
				"y": 0.423235027,
				"z": 0.1250583241,
				"element": "C" 
			},
			{
				"x": 1.4856111678,
				"y": 0.5009967223,
				"z": -1.3444218525,
				"element": "C" 
			},
			{
				"x": -0.2865103652,
				"y": -0.0820759385,
				"z": 0.2477828094,
				"element": "O" 
			},
			{
				"x": -0.7023272681,
				"y": -1.617629345,
				"z": 0.0526538583,
				"element": "P" 
			},
			{
				"x": -2.4878660216,
				"y": -1.4987142169,
				"z": -0.1713363192,
				"element": "C" 
			},
			{
				"x": -0.5983287208,
				"y": -2.1959376048,
				"z": 1.5413329438,
				"element": "F" 
			},
			{
				"x": 0.0657085744,
				"y": -2.4299719118,
				"z": -0.9165201641,
				"element": "O" 
			},
			{
				"x": 2.1910447361,
				"y": -1.3896242629,
				"z": 0.5842345362,
				"element": "H" 
			},
			{
				"x": 1.7018402155,
				"y": -0.4512017723,
				"z": 2.0149912217,
				"element": "H" 
			},
			{
				"x": 3.034495907,
				"y": 0.1150542861,
				"z": 0.9903848422,
				"element": "H" 
			},
			{
				"x": 0.9957872841,
				"y": 1.4343697841,
				"z": 0.5339267664,
				"element": "H" 
			},
			{
				"x": 2.4595576509,
				"y": 0.9927791558,
				"z": -1.437573192,
				"element": "H" 
			},
			{
				"x": 1.5501583103,
				"y": -0.4994104403,
				"z": -1.7785625296,
				"element": "H" 
			},
			{
				"x": 0.7529601565,
				"y": 1.0842365503,
				"z": -1.9096783705,
				"element": "H" 
			},
			{
				"x": -2.9179779577,
				"y": -2.5019778058,
				"z": -0.1329140767,
				"element": "H" 
			},
			{
				"x": -2.6970359193,
				"y": -1.0586882788,
				"z": -1.1485085065,
				"element": "H" 
			},
			{
				"x": -2.932262335,
				"y": -0.8790982551,
				"z": 0.6100641006,
				"element": "H" 
			}
		],
		 "valence_orbital": [ 
			{
				"type": "occ",
				"energy": -0.36073,
				"method": "rhf"
			},
			{
				"type": "occ",
				"energy": -0.33861,
				"method": "rhf"
			},
			{
				"type": "occ",
				"energy": -0.32132,
				"method": "rhf"
			},
			{
				"type": "occ",
				"energy": -0.29411,
				"method": "rhf"
			},
			{
				"type": "occ",
				"energy": -0.28511,
				"method": "rhf"
			},
			{
				"type": "unocc",
				"energy": 0.06846,
				"method": "rhf"
			},
			{
				"type": "unocc",
				"energy": 0.0789,
				"method": "rhf"
			},
			{
				"type": "unocc",
				"energy": 0.09408,
				"method": "rhf"
			},
			{
				"type": "unocc",
				"energy": 0.09827,
				"method": "rhf"
			},
			{
				"type": "unocc",
				"energy": 0.12043,
				"method": "rhf"
			}
		],
		"cosmo_sigma_profile": { 
			"-0.025": 0.0,
			"-0.024": 0.0,
			"-0.023": 0.0,
			"-0.022": 0.0,
			"-0.021": 0.0,
			"-0.02": 0.0,
			"-0.019": 0.0,
			"-0.018": 0.0,
			"-0.017": 0.0,
			"-0.016": 0.0,
			"-0.015": 0.0,
			"-0.014": 0.0,
			"-0.013": 0.0,
			"-0.012": 0.0,
			"-0.011": 0.0,
			"-0.01": 0.0,
			"-0.009": 0.113590743609,
			"-0.008": 3.77219514375,
			"-0.007": 5.99696215309,
			"-0.006": 6.21010857251,
			"-0.005": 12.324642814,
			"-0.004": 16.9211286171,
			"-0.003": 18.07401976,
			"-0.002": 17.0326289724,
			"-0.001": 16.820489068,
			"0.0": 17.5210776087,
			"0.001": 8.1632038984,
			"0.002": 5.771605691,
			"0.003": 5.82564705537,
			"0.004": 11.0517862257,
			"0.005": 5.68635098667,
			"0.006": 2.91042052686,
			"0.007": 2.70857095927,
			"0.008": 2.11317763515,
			"0.009": 2.34744537745,
			"0.01": 0.597559648433,
			"0.011": 1.07683781244,
			"0.012": 1.58491614181,
			"0.013": 2.60130677146,
			"0.014": 5.10154256119,
			"0.015": 1.15558255668,
			"0.016": 0.0,
			"0.017": 0.0,
			"0.018": 0.0,
			"0.019": 0.0,
			"0.02": 0.0,
			"0.021": 0.0,
			"0.022": 0.0,
			"0.023": 0.0,
			"0.024": 0.0,
			"0.025": 0.0
		}
	}
}
