{
	 "smiles": "CC(=O)NC1=CNC(C)=C1C(O)=O", 
	 "Tm": 457.15, 
	 "num_atms": 23, 
	 "gaussian": { 
		 "optdone": 1, 
		 "sigma_profile": "yes", 
		 "theory": "DFT", 
		 "functional": "B3LYP", 
		 "basiset": "6-31G**", 
		 "properties": { 
			 "R2extent": 2925.6649, 
			 "electric_dipole_moment_norm": 5.24565672628, 
			 "electric_quadrupole_moment_norm": 14.5463203797, 
			 "total_energy": -646.088868111, 
			 "HOMO_LUMO_gap": 0.18447, 
			 "cosmo_polarized_energy": -20.18, 
			 "cosmo_cavitation_energy": 27.09, 
			 "cosmo_dispersion_energy": -19.99, 
			 "cosmo_repulsion_energy": 1.59, 
			 "cosmo_total_nonelectrostatic_energy": 8.68, 
			 "SMD_solvation_energy": 6.66 
		},
		"coords": [
			{
				"x": -3.2348685165,
				"y": -0.9884604468,
				"z": -1.2921271225,
				"element": "C" 
			},
			{
				"x": -2.5331927203,
				"y": 0.1358400781,
				"z": -2.0258989592,
				"element": "C" 
			},
			{
				"x": -3.0576715193,
				"y": 0.7315071485,
				"z": -2.9574819554,
				"element": "O" 
			},
			{
				"x": -1.2605393679,
				"y": 0.4923664509,
				"z": -1.6225220389,
				"element": "N" 
			},
			{
				"x": -0.4171813524,
				"y": 0.0137594184,
				"z": -0.6184590174,
				"element": "C" 
			},
			{
				"x": -0.6062333218,
				"y": -0.9936652533,
				"z": 0.3061089548,
				"element": "C" 
			},
			{
				"x": 0.5451585069,
				"y": -1.0674216137,
				"z": 1.0790946834,
				"element": "N" 
			},
			{
				"x": 1.4650513259,
				"y": -0.1515784463,
				"z": 0.6913511488,
				"element": "C" 
			},
			{
				"x": 2.7940280998,
				"y": -0.0198103586,
				"z": 1.3600331064,
				"element": "C" 
			},
			{
				"x": 0.9045410436,
				"y": 0.5552946716,
				"z": -0.3769512629,
				"element": "C" 
			},
			{
				"x": 1.6152474091,
				"y": 1.6284756325,
				"z": -1.05352739,
				"element": "C" 
			},
			{
				"x": 0.8992691797,
				"y": 2.1968260432,
				"z": -2.073287428,
				"element": "O" 
			},
			{
				"x": 2.7366082586,
				"y": 2.0250068668,
				"z": -0.7838772813,
				"element": "O" 
			},
			{
				"x": -3.3591205844,
				"y": -0.7509589347,
				"z": -0.2303205006,
				"element": "H" 
			},
			{
				"x": -2.6696500189,
				"y": -1.9234000302,
				"z": -1.367529046,
				"element": "H" 
			},
			{
				"x": -4.2149307354,
				"y": -1.1217904717,
				"z": -1.7488160225,
				"element": "H" 
			},
			{
				"x": -0.8754823972,
				"y": 1.2522559603,
				"z": -2.1726764347,
				"element": "H" 
			},
			{
				"x": -1.4301677267,
				"y": -1.6581489489,
				"z": 0.4925830254,
				"element": "H" 
			},
			{
				"x": 0.6803047159,
				"y": -1.7207910144,
				"z": 1.8348150477,
				"element": "H" 
			},
			{
				"x": 2.8942742066,
				"y": -0.7476430382,
				"z": 2.1717666768,
				"element": "H" 
			},
			{
				"x": 2.9297796156,
				"y": 0.98507212,
				"z": 1.7695800709,
				"element": "H" 
			},
			{
				"x": 3.6093148968,
				"y": -0.172888979,
				"z": 0.6474106811,
				"element": "H" 
			},
			{
				"x": 1.4684610023,
				"y": 2.8905531456,
				"z": -2.4442689359,
				"element": "H" 
			}
		],
		 "valence_orbital": [ 
			{
				"type": "occ",
				"energy": -0.31131,
				"method": "rhf"
			},
			{
				"type": "occ",
				"energy": -0.27396,
				"method": "rhf"
			},
			{
				"type": "occ",
				"energy": -0.24532,
				"method": "rhf"
			},
			{
				"type": "occ",
				"energy": -0.24021,
				"method": "rhf"
			},
			{
				"type": "occ",
				"energy": -0.20421,
				"method": "rhf"
			},
			{
				"type": "unocc",
				"energy": -0.01974,
				"method": "rhf"
			},
			{
				"type": "unocc",
				"energy": 0.0148,
				"method": "rhf"
			},
			{
				"type": "unocc",
				"energy": 0.05455,
				"method": "rhf"
			},
			{
				"type": "unocc",
				"energy": 0.05966,
				"method": "rhf"
			},
			{
				"type": "unocc",
				"energy": 0.07968,
				"method": "rhf"
			}
		],
		"cosmo_sigma_profile": { 
			"-0.025": 0.0,
			"-0.024": 0.0,
			"-0.023": 0.0,
			"-0.022": 0.0,
			"-0.021": 0.0,
			"-0.02": 0.0,
			"-0.019": 0.0,
			"-0.018": 0.39506917441,
			"-0.017": 0.938050602796,
			"-0.016": 2.53151198526,
			"-0.015": 2.12813543222,
			"-0.014": 2.10253804107,
			"-0.013": 1.42573315967,
			"-0.012": 2.5050518107,
			"-0.011": 2.24883501289,
			"-0.01": 1.91668166589,
			"-0.009": 1.96254134569,
			"-0.008": 4.11494226709,
			"-0.007": 4.73983741628,
			"-0.006": 8.22603720211,
			"-0.005": 10.9023214984,
			"-0.004": 12.8079118822,
			"-0.003": 13.6081931207,
			"-0.002": 13.9825477668,
			"-0.001": 21.1717543854,
			"0.0": 16.4453729393,
			"0.001": 12.3409573014,
			"0.002": 12.7387524866,
			"0.003": 11.6592905382,
			"0.004": 10.1907164908,
			"0.005": 7.67616114935,
			"0.006": 2.77063122681,
			"0.007": 2.23906355383,
			"0.008": 3.24696680446,
			"0.009": 2.96870803152,
			"0.01": 2.57012187947,
			"0.011": 3.3838579477,
			"0.012": 6.02718347106,
			"0.013": 6.70101720445,
			"0.014": 4.95859890842,
			"0.015": 0.958171074078,
			"0.016": 0.0,
			"0.017": 0.0,
			"0.018": 0.0,
			"0.019": 0.0,
			"0.02": 0.0,
			"0.021": 0.0,
			"0.022": 0.0,
			"0.023": 0.0,
			"0.024": 0.0,
			"0.025": 0.0
		}
	}
}
