{
	 "smiles": "[O-][N+](=O)C1=CC=C2C(=O)C(C3=CC=C(C=C3)C3=[N+]([O-])C4=C(C=CC(=C4)[N+]([O-])=O)C3=O)=[N+]([O-])C2=C1", 
	 "Tm": 567.15, 
	 "num_atms": 44, 
	 "gaussian": { 
		 "optdone": 1, 
		 "sigma_profile": "yes", 
		 "theory": "DFT", 
		 "functional": "B3LYP", 
		 "basiset": "6-31G**", 
		 "properties": { 
			 "R2extent": 30513.671, 
			 "electric_dipole_moment_norm": 0.000244948974278, 
			 "electric_quadrupole_moment_norm": 49.4567204299, 
			 "total_energy": -1664.82630942, 
			 "HOMO_LUMO_gap": 0.08454, 
			 "cosmo_polarized_energy": -21.64, 
			 "cosmo_cavitation_energy": 53.2, 
			 "cosmo_dispersion_energy": -38.52, 
			 "cosmo_repulsion_energy": 2.7, 
			 "cosmo_total_nonelectrostatic_energy": 17.39, 
			 "SMD_solvation_energy": 15.61 
		},
		"coords": [
			{
				"x": -7.233597407,
				"y": -4.2896958628,
				"z": -1.1388064952,
				"element": "O" 
			},
			{
				"x": -7.370134354,
				"y": -3.9318849927,
				"z": 0.02856446,
				"element": "N" 
			},
			{
				"x": -8.3422177826,
				"y": -4.1810084687,
				"z": 0.7378485649,
				"element": "O" 
			},
			{
				"x": -6.2752348957,
				"y": -3.1383514687,
				"z": 0.623694966,
				"element": "C" 
			},
			{
				"x": -6.4036443714,
				"y": -2.7180606731,
				"z": 1.9471143412,
				"element": "C" 
			},
			{
				"x": -5.3795779869,
				"y": -1.9627231127,
				"z": 2.5392476012,
				"element": "C" 
			},
			{
				"x": -4.2698150941,
				"y": -1.6658078929,
				"z": 1.765311195,
				"element": "C" 
			},
			{
				"x": -3.0097445125,
				"y": -0.9029743911,
				"z": 2.0421751374,
				"element": "C" 
			},
			{
				"x": -2.7247510635,
				"y": -0.3648098005,
				"z": 3.0972980121,
				"element": "O" 
			},
			{
				"x": -2.2125653391,
				"y": -0.9510435166,
				"z": 0.7768116921,
				"element": "C" 
			},
			{
				"x": -0.910850432,
				"y": -0.3603026769,
				"z": 0.5271841832,
				"element": "C" 
			},
			{
				"x": -0.2626219752,
				"y": 0.3580483009,
				"z": 1.5585861228,
				"element": "C" 
			},
			{
				"x": 0.9802329425,
				"y": 0.9363978916,
				"z": 1.3592941932,
				"element": "C" 
			},
			{
				"x": 1.6401406274,
				"y": 0.8246250231,
				"z": 0.1121838893,
				"element": "C" 
			},
			{
				"x": 0.9919223615,
				"y": 0.106250733,
				"z": -0.9192077163,
				"element": "C" 
			},
			{
				"x": -0.2509190528,
				"y": -0.4721207293,
				"z": -0.7199076009,
				"element": "C" 
			},
			{
				"x": 2.9418423256,
				"y": 1.4153776571,
				"z": -0.1374910766,
				"element": "C" 
			},
			{
				"x": 3.6603005686,
				"y": 2.1232527628,
				"z": 0.7608183354,
				"element": "N" 
			},
			{
				"x": 3.3915601059,
				"y": 2.4215575163,
				"z": 1.9534076421,
				"element": "O" 
			},
			{
				"x": 4.9173601664,
				"y": 2.5711096669,
				"z": 0.1867179462,
				"element": "C" 
			},
			{
				"x": 4.9990199655,
				"y": 2.1301477816,
				"z": -1.1261366984,
				"element": "C" 
			},
			{
				"x": 6.1087684358,
				"y": 2.4269836784,
				"z": -1.9001241819,
				"element": "C" 
			},
			{
				"x": 7.1328763334,
				"y": 3.1823226787,
				"z": -1.3080655707,
				"element": "C" 
			},
			{
				"x": 7.0044989964,
				"y": 3.6027328812,
				"z": 0.01531941,
				"element": "C" 
			},
			{
				"x": 5.8891328683,
				"y": 3.3129541171,
				"z": 0.8165191875,
				"element": "C" 
			},
			{
				"x": 8.0994063307,
				"y": 4.3963312838,
				"z": 0.6103483902,
				"element": "N" 
			},
			{
				"x": 9.0717821386,
				"y": 4.644801344,
				"z": -0.0987633995,
				"element": "O" 
			},
			{
				"x": 7.962535385,
				"y": 4.7549303293,
				"z": 1.7774375503,
				"element": "O" 
			},
			{
				"x": 3.7389528302,
				"y": 1.36727185,
				"z": -1.4028933078,
				"element": "C" 
			},
			{
				"x": 3.4539459784,
				"y": 0.8289725103,
				"z": -2.4579436414,
				"element": "O" 
			},
			{
				"x": -2.9310461621,
				"y": -1.6587517497,
				"z": -0.1216071685,
				"element": "N" 
			},
			{
				"x": -2.662209681,
				"y": -1.9570466984,
				"z": -1.3141771448,
				"element": "O" 
			},
			{
				"x": -4.1881098153,
				"y": -2.1066782527,
				"z": 0.4524281539,
				"element": "C" 
			},
			{
				"x": -5.1598578793,
				"y": -2.8484826233,
				"z": -0.1774576336,
				"element": "C" 
			},
			{
				"x": -7.2990375634,
				"y": -2.9864870932,
				"z": 2.4933552844,
				"element": "H" 
			},
			{
				"x": -5.4512068348,
				"y": -1.6218071032,
				"z": 3.5663921737,
				"element": "H" 
			},
			{
				"x": -0.7461188563,
				"y": 0.4580311783,
				"z": 2.5214675657,
				"element": "H" 
			},
			{
				"x": 1.4529951296,
				"y": 1.4797664078,
				"z": 2.1646112595,
				"element": "H" 
			},
			{
				"x": 1.4754176347,
				"y": 0.0062738761,
				"z": -1.8820917862,
				"element": "H" 
			},
			{
				"x": -0.7236534523,
				"y": -1.0155494076,
				"z": -1.5252027589,
				"element": "H" 
			},
			{
				"x": 6.1803549937,
				"y": 2.0860045233,
				"z": -2.927250789,
				"element": "H" 
			},
			{
				"x": 8.0282911159,
				"y": 3.4506340574,
				"z": -1.854327365,
				"element": "H" 
			},
			{
				"x": 5.8083456773,
				"y": 3.6483708103,
				"z": 1.8415457685,
				"element": "H" 
			},
			{
				"x": -5.0790684001,
				"y": -3.1837623453,
				"z": -1.2025286909,
				"element": "H" 
			}
		],
		 "valence_orbital": [ 
			{
				"type": "occ",
				"energy": -0.28982,
				"method": "rhf"
			},
			{
				"type": "occ",
				"energy": -0.28188,
				"method": "rhf"
			},
			{
				"type": "occ",
				"energy": -0.27015,
				"method": "rhf"
			},
			{
				"type": "occ",
				"energy": -0.26979,
				"method": "rhf"
			},
			{
				"type": "occ",
				"energy": -0.22686,
				"method": "rhf"
			},
			{
				"type": "unocc",
				"energy": -0.14232,
				"method": "rhf"
			},
			{
				"type": "unocc",
				"energy": -0.13657,
				"method": "rhf"
			},
			{
				"type": "unocc",
				"energy": -0.11104,
				"method": "rhf"
			},
			{
				"type": "unocc",
				"energy": -0.09752,
				"method": "rhf"
			},
			{
				"type": "unocc",
				"energy": -0.06524,
				"method": "rhf"
			}
		],
		"cosmo_sigma_profile": { 
			"-0.025": 0.0,
			"-0.024": 0.0,
			"-0.023": 0.0,
			"-0.022": 0.0,
			"-0.021": 0.0,
			"-0.02": 0.0,
			"-0.019": 0.0,
			"-0.018": 0.0,
			"-0.017": 0.0,
			"-0.016": 0.0,
			"-0.015": 0.0,
			"-0.014": 0.0,
			"-0.013": 0.0,
			"-0.012": 0.0,
			"-0.011": 0.0,
			"-0.01": 0.642034492964,
			"-0.009": 7.1394854686,
			"-0.008": 15.5299679199,
			"-0.007": 17.0325876328,
			"-0.006": 16.4283100183,
			"-0.005": 24.2083589632,
			"-0.004": 30.9712221721,
			"-0.003": 48.5677576504,
			"-0.002": 38.3030229321,
			"-0.001": 30.3907645124,
			"0.0": 23.4035059109,
			"0.001": 23.2651711038,
			"0.002": 24.6434040961,
			"0.003": 20.640639498,
			"0.004": 12.2979433874,
			"0.005": 12.6045344972,
			"0.006": 18.2242265921,
			"0.007": 24.7059009527,
			"0.008": 20.1201669622,
			"0.009": 18.6778861185,
			"0.01": 4.98015723966,
			"0.011": 0.291744093795,
			"0.012": 0.0,
			"0.013": 0.0,
			"0.014": 0.0,
			"0.015": 0.0,
			"0.016": 0.0,
			"0.017": 0.0,
			"0.018": 0.0,
			"0.019": 0.0,
			"0.02": 0.0,
			"0.021": 0.0,
			"0.022": 0.0,
			"0.023": 0.0,
			"0.024": 0.0,
			"0.025": 0.0
		}
	}
}
