{
	 "smiles": "[O-][N+](=O)C1=CC2=C(C=C1)N=CC=C2", 
	 "Tm": 427.15, 
	 "num_atms": 19, 
	 "gaussian": { 
		 "optdone": 1, 
		 "sigma_profile": "yes", 
		 "theory": "DFT", 
		 "functional": "B3LYP", 
		 "basiset": "6-31G**", 
		 "properties": { 
			 "R2extent": 2627.3605, 
			 "electric_dipole_moment_norm": 4.4160282087, 
			 "electric_quadrupole_moment_norm": 15.0282916541, 
			 "total_energy": -606.428296086, 
			 "HOMO_LUMO_gap": 0.16074, 
			 "cosmo_polarized_energy": -10.19, 
			 "cosmo_cavitation_energy": 24.24, 
			 "cosmo_dispersion_energy": -18.14, 
			 "cosmo_repulsion_energy": 1.4, 
			 "cosmo_total_nonelectrostatic_energy": 7.5, 
			 "SMD_solvation_energy": 4.85 
		},
		"coords": [
			{
				"x": 0.1582589916,
				"y": 2.7834618546,
				"z": -2.8460421965,
				"element": "O" 
			},
			{
				"x": -0.7192963075,
				"y": 2.6598113744,
				"z": -1.9919971257,
				"element": "N" 
			},
			{
				"x": -1.7597409344,
				"y": 3.3158326951,
				"z": -1.9555723038,
				"element": "O" 
			},
			{
				"x": -0.5130114336,
				"y": 1.6553689937,
				"z": -0.935503576,
				"element": "C" 
			},
			{
				"x": 0.6411744837,
				"y": 0.9073056086,
				"z": -0.9510463903,
				"element": "C" 
			},
			{
				"x": 0.8467757589,
				"y": -0.0601719385,
				"z": 0.0611737357,
				"element": "C" 
			},
			{
				"x": -0.1486815237,
				"y": -0.2386267623,
				"z": 1.0767401985,
				"element": "C" 
			},
			{
				"x": -1.3233958022,
				"y": 0.5627497788,
				"z": 1.0438634326,
				"element": "C" 
			},
			{
				"x": -1.5100580676,
				"y": 1.4982621436,
				"z": 0.0552933049,
				"element": "C" 
			},
			{
				"x": -0.0148859973,
				"y": -1.1517065516,
				"z": 2.0803826088,
				"element": "N" 
			},
			{
				"x": 1.0794606411,
				"y": -1.8868743568,
				"z": 2.0970693646,
				"element": "C" 
			},
			{
				"x": 2.1246731479,
				"y": -1.7909059415,
				"z": 1.1419183981,
				"element": "C" 
			},
			{
				"x": 2.0066369608,
				"y": -0.8762805077,
				"z": 0.1237978185,
				"element": "C" 
			},
			{
				"x": 1.3751097225,
				"y": 1.0659341515,
				"z": -1.732657408,
				"element": "H" 
			},
			{
				"x": -2.0603126714,
				"y": 0.4070834545,
				"z": 1.8242743342,
				"element": "H" 
			},
			{
				"x": -2.3954390427,
				"y": 2.1193958626,
				"z": 0.0096287209,
				"element": "H" 
			},
			{
				"x": 1.1624770711,
				"y": -2.6087117356,
				"z": 2.9087565153,
				"element": "H" 
			},
			{
				"x": 2.9943204106,
				"y": -2.4342206748,
				"z": 1.2270747905,
				"element": "H" 
			},
			{
				"x": 2.7806345923,
				"y": -0.7661074487,
				"z": -0.6310542224,
				"element": "H" 
			}
		],
		 "valence_orbital": [ 
			{
				"type": "occ",
				"energy": -0.30998,
				"method": "rhf"
			},
			{
				"type": "occ",
				"energy": -0.29408,
				"method": "rhf"
			},
			{
				"type": "occ",
				"energy": -0.27782,
				"method": "rhf"
			},
			{
				"type": "occ",
				"energy": -0.27376,
				"method": "rhf"
			},
			{
				"type": "occ",
				"energy": -0.25876,
				"method": "rhf"
			},
			{
				"type": "unocc",
				"energy": -0.09802,
				"method": "rhf"
			},
			{
				"type": "unocc",
				"energy": -0.06578,
				"method": "rhf"
			},
			{
				"type": "unocc",
				"energy": -0.02294,
				"method": "rhf"
			},
			{
				"type": "unocc",
				"energy": 0.00132,
				"method": "rhf"
			},
			{
				"type": "unocc",
				"energy": 0.07696,
				"method": "rhf"
			}
		],
		"cosmo_sigma_profile": { 
			"-0.025": 0.0,
			"-0.024": 0.0,
			"-0.023": 0.0,
			"-0.022": 0.0,
			"-0.021": 0.0,
			"-0.02": 0.0,
			"-0.019": 0.0,
			"-0.018": 0.0,
			"-0.017": 0.0,
			"-0.016": 0.0,
			"-0.015": 0.0,
			"-0.014": 0.0,
			"-0.013": 0.0,
			"-0.012": 0.0,
			"-0.011": 0.0,
			"-0.01": 0.136500243182,
			"-0.009": 1.99137153752,
			"-0.008": 4.98693425558,
			"-0.007": 11.7209331375,
			"-0.006": 12.875615513,
			"-0.005": 11.4177272735,
			"-0.004": 10.3733950351,
			"-0.003": 9.08341733187,
			"-0.002": 12.8834012935,
			"-0.001": 19.3671292439,
			"0.0": 24.4650024847,
			"0.001": 17.2993719783,
			"0.002": 10.0827042893,
			"0.003": 4.56666186784,
			"0.004": 5.12505687571,
			"0.005": 4.2339068045,
			"0.006": 4.87803429243,
			"0.007": 9.5090577817,
			"0.008": 8.17720081864,
			"0.009": 5.50239172907,
			"0.01": 3.1664183232,
			"0.011": 1.18616923902,
			"0.012": 0.611962749286,
			"0.013": 0.904958550042,
			"0.014": 0.657445156505,
			"0.015": 0.726165923201,
			"0.016": 0.0885270969594,
			"0.017": 0.0,
			"0.018": 0.0,
			"0.019": 0.0,
			"0.02": 0.0,
			"0.021": 0.0,
			"0.022": 0.0,
			"0.023": 0.0,
			"0.024": 0.0,
			"0.025": 0.0
		}
	}
}
