{
	 "smiles": "FC1=C(C#N)C(I)=CC=C1", 
	 "Tm": 323.15, 
	 "num_atms": 13, 
	 "gaussian": { 
		 "optdone": 1, 
		 "sigma_profile": "no", 
		 "theory": "DFT", 
		 "functional": "B3LYP", 
		 "basiset": "6-31G**", 
		 "properties": { 
			 "R2extent": 2161.9597, 
			 "electric_dipole_moment_norm": 5.31619077254, 
			 "electric_quadrupole_moment_norm": 17.2372446464, 
			 "total_energy": -434.49755626, 
			 "HOMO_LUMO_gap": 0.19155, 
			 "cosmo_polarized_energy": -85320.57, 
			 "cosmo_cavitation_energy": 22.29, 
			 "cosmo_dispersion_energy": -17.08, 
			 "cosmo_repulsion_energy": 1.33, 
			 "cosmo_total_nonelectrostatic_energy": 6.54, 
			 "SMD_solvation_energy": 4.73 
		},
		"coords": [
			{
				"x": -1.3968043476,
				"y": -1.7145494367,
				"z": -1.8313867242,
				"element": "F" 
			},
			{
				"x": -1.1682967084,
				"y": -0.8223086101,
				"z": -0.8592652625,
				"element": "C" 
			},
			{
				"x": -2.1377801749,
				"y": 0.1693208507,
				"z": -0.6282474216,
				"element": "C" 
			},
			{
				"x": -3.3156240868,
				"y": 0.1784653248,
				"z": -1.4376809386,
				"element": "C" 
			},
			{
				"x": -4.2658870035,
				"y": 0.1673823903,
				"z": -2.1075535049,
				"element": "N" 
			},
			{
				"x": -1.8895050973,
				"y": 1.1059881578,
				"z": 0.3981335274,
				"element": "C" 
			},
			{
				"x": -3.2830347212,
				"y": 2.6303884982,
				"z": 0.8205778366,
				"element": "I" 
			},
			{
				"x": -0.7161782029,
				"y": 1.0359979103,
				"z": 1.1489063477,
				"element": "C" 
			},
			{
				"x": 0.220367621,
				"y": 0.0336444424,
				"z": 0.8852180453,
				"element": "C" 
			},
			{
				"x": 0.002665898,
				"y": -0.9051758491,
				"z": -0.1218696414,
				"element": "C" 
			},
			{
				"x": -0.5328612811,
				"y": 1.7585572553,
				"z": 1.9349278544,
				"element": "H" 
			},
			{
				"x": 1.1306876168,
				"y": -0.0130027285,
				"z": 1.4746743356,
				"element": "H" 
			},
			{
				"x": 0.7150504879,
				"y": -1.6912082054,
				"z": -0.3439344536,
				"element": "H" 
			}
		],
		 "valence_orbital": [ 
			{
				"type": "occ",
				"energy": -0.34246,
				"method": "rhf"
			},
			{
				"type": "occ",
				"energy": -0.31739,
				"method": "rhf"
			},
			{
				"type": "occ",
				"energy": -0.28248,
				"method": "rhf"
			},
			{
				"type": "occ",
				"energy": -0.27719,
				"method": "rhf"
			},
			{
				"type": "occ",
				"energy": -0.26195,
				"method": "rhf"
			},
			{
				"type": "unocc",
				"energy": -0.0704,
				"method": "rhf"
			},
			{
				"type": "unocc",
				"energy": -0.05785,
				"method": "rhf"
			},
			{
				"type": "unocc",
				"energy": -0.0379,
				"method": "rhf"
			},
			{
				"type": "unocc",
				"energy": 0.02151,
				"method": "rhf"
			},
			{
				"type": "unocc",
				"energy": 0.04426,
				"method": "rhf"
			}
		],
		"cosmo_sigma_profile": { 
			"0.0": 0.0,
			"0.0": 0.0,
			"0.0": 0.0,
			"0.0": 0.0,
			"0.0": 0.0,
			"0.0": 0.0,
			"0.0": 0.0,
			"0.0": 0.0,
			"0.0": 0.0,
			"0.0": 0.0,
			"0.0": 0.0,
			"0.0": 0.0,
			"0.0": 0.0,
			"0.0": 0.0,
			"0.0": 0.0,
			"0.0": 0.0,
			"0.0": 0.0,
			"0.0": 0.0,
			"0.0": 0.0,
			"0.0": 0.0,
			"0.0": 0.0,
			"0.0": 0.0,
			"0.0": 0.0,
			"0.0": 0.0,
			"0.0": 0.0,
			"0.0": 0.0,
			"0.0": 0.0,
			"0.0": 0.0,
			"0.0": 0.0,
			"0.0": 0.0,
			"0.0": 0.0,
			"0.0": 0.0,
			"0.0": 0.0,
			"0.0": 0.0,
			"0.0": 0.0,
			"0.0": 0.0,
			"0.0": 0.0,
			"0.0": 0.0,
			"0.0": 0.0,
			"0.0": 0.0,
			"0.0": 0.0,
			"0.0": 0.0,
			"0.0": 0.0,
			"0.0": 0.0,
			"0.0": 0.0,
			"0.0": 0.0,
			"0.0": 0.0,
			"0.0": 0.0,
			"0.0": 0.0,
			"0.0": 0.0,
			"0.0": 0.0
		}
	}
}
