{
	 "smiles": "OC(=O)CCN1C(=O)OC2=C1C=CC(=C2)S(=O)(=O)N1CCCC1", 
	 "Tm": 464.15, 
	 "num_atms": 39, 
	 "gaussian": { 
		 "optdone": 1, 
		 "sigma_profile": "yes", 
		 "theory": "DFT", 
		 "functional": "B3LYP", 
		 "basiset": "6-31G**", 
		 "properties": { 
			 "R2extent": 11389.6503, 
			 "electric_dipole_moment_norm": 4.99772379989, 
			 "electric_quadrupole_moment_norm": 40.6565523599, 
			 "total_energy": -1502.13424611, 
			 "HOMO_LUMO_gap": 0.19511, 
			 "cosmo_polarized_energy": -26.53, 
			 "cosmo_cavitation_energy": 44.39, 
			 "cosmo_dispersion_energy": -31.48, 
			 "cosmo_repulsion_energy": 2.37, 
			 "cosmo_total_nonelectrostatic_energy": 15.29, 
			 "SMD_solvation_energy": 7.45 
		},
		"coords": [
			{
				"x": 5.2910572123,
				"y": -4.5913347228,
				"z": 1.9572343046,
				"element": "O" 
			},
			{
				"x": 4.2124496763,
				"y": -3.9035491273,
				"z": 2.3891288001,
				"element": "C" 
			},
			{
				"x": 4.0390222303,
				"y": -3.602826075,
				"z": 3.5505534219,
				"element": "O" 
			},
			{
				"x": 3.2788691234,
				"y": -3.5555782749,
				"z": 1.2506342324,
				"element": "C" 
			},
			{
				"x": 1.9785536028,
				"y": -2.931534905,
				"z": 1.7687996622,
				"element": "C" 
			},
			{
				"x": 1.1132779633,
				"y": -2.4833210903,
				"z": 0.6865216138,
				"element": "N" 
			},
			{
				"x": 0.2377498,
				"y": -3.3444700756,
				"z": 0.037258023,
				"element": "C" 
			},
			{
				"x": 0.0356662937,
				"y": -4.5106359732,
				"z": 0.2599356991,
				"element": "O" 
			},
			{
				"x": -0.4002412444,
				"y": -2.6120096365,
				"z": -0.9574807494,
				"element": "O" 
			},
			{
				"x": 0.0944230001,
				"y": -1.3291028056,
				"z": -0.9206479848,
				"element": "C" 
			},
			{
				"x": 1.0520040777,
				"y": -1.226145969,
				"z": 0.0983290441,
				"element": "C" 
			},
			{
				"x": 1.7210542054,
				"y": -0.0300108565,
				"z": 0.3340339528,
				"element": "C" 
			},
			{
				"x": 1.3891525841,
				"y": 1.0607575467,
				"z": -0.4786949597,
				"element": "C" 
			},
			{
				"x": 0.4239942687,
				"y": 0.9386888333,
				"z": -1.4856860616,
				"element": "C" 
			},
			{
				"x": -0.2458134635,
				"y": -0.2719473926,
				"z": -1.7373916312,
				"element": "C" 
			},
			{
				"x": -0.0049076035,
				"y": 2.382748475,
				"z": -2.4687684817,
				"element": "S" 
			},
			{
				"x": -0.6046064818,
				"y": 1.8880394203,
				"z": -3.7095271445,
				"element": "O" 
			},
			{
				"x": 1.1576611887,
				"y": 3.2732556956,
				"z": -2.449735838,
				"element": "O" 
			},
			{
				"x": -1.2143674193,
				"y": 3.1766610389,
				"z": -1.6488402145,
				"element": "N" 
			},
			{
				"x": -2.5920410655,
				"y": 2.6281744405,
				"z": -1.6226082897,
				"element": "C" 
			},
			{
				"x": -3.2053023769,
				"y": 3.2496547148,
				"z": -0.3498177515,
				"element": "C" 
			},
			{
				"x": -2.3080794061,
				"y": 4.4625452868,
				"z": -0.0422104862,
				"element": "C" 
			},
			{
				"x": -0.9139541612,
				"y": 3.9703012394,
				"z": -0.4433386238,
				"element": "C" 
			},
			{
				"x": 5.8398111971,
				"y": -4.765841101,
				"z": 2.7407845353,
				"element": "H" 
			},
			{
				"x": 3.0680418268,
				"y": -4.4594015627,
				"z": 0.6698988559,
				"element": "H" 
			},
			{
				"x": 3.8042302514,
				"y": -2.8687320201,
				"z": 0.5756864523,
				"element": "H" 
			},
			{
				"x": 1.4189076295,
				"y": -3.6630855698,
				"z": 2.3551012082,
				"element": "H" 
			},
			{
				"x": 2.1906601852,
				"y": -2.0820588907,
				"z": 2.4211479028,
				"element": "H" 
			},
			{
				"x": 2.4782127858,
				"y": 0.0607502372,
				"z": 1.10522751,
				"element": "H" 
			},
			{
				"x": 1.9051666452,
				"y": 2.0062030751,
				"z": -0.3571150641,
				"element": "H" 
			},
			{
				"x": -0.9568515649,
				"y": -0.3676262793,
				"z": -2.5487153558,
				"element": "H" 
			},
			{
				"x": -2.5964269899,
				"y": 1.5330680356,
				"z": -1.5778589573,
				"element": "H" 
			},
			{
				"x": -3.1158842763,
				"y": 2.9274871423,
				"z": -2.534660756,
				"element": "H" 
			},
			{
				"x": -3.1548406015,
				"y": 2.5321479097,
				"z": 0.4764016784,
				"element": "H" 
			},
			{
				"x": -4.2555582402,
				"y": 3.5178190939,
				"z": -0.4899550363,
				"element": "H" 
			},
			{
				"x": -2.5898473063,
				"y": 5.3170105401,
				"z": -0.6663315793,
				"element": "H" 
			},
			{
				"x": -2.353635119,
				"y": 4.7746209621,
				"z": 1.0045922336,
				"element": "H" 
			},
			{
				"x": -0.2137669757,
				"y": 4.7702440976,
				"z": -0.6882713507,
				"element": "H" 
			},
			{
				"x": -0.4749414517,
				"y": 3.3511345433,
				"z": 0.3553871855,
				"element": "H" 
			}
		],
		 "valence_orbital": [ 
			{
				"type": "occ",
				"energy": -0.29883,
				"method": "rhf"
			},
			{
				"type": "occ",
				"energy": -0.29595,
				"method": "rhf"
			},
			{
				"type": "occ",
				"energy": -0.27488,
				"method": "rhf"
			},
			{
				"type": "occ",
				"energy": -0.25885,
				"method": "rhf"
			},
			{
				"type": "occ",
				"energy": -0.23704,
				"method": "rhf"
			},
			{
				"type": "unocc",
				"energy": -0.04193,
				"method": "rhf"
			},
			{
				"type": "unocc",
				"energy": -0.02904,
				"method": "rhf"
			},
			{
				"type": "unocc",
				"energy": -0.00915,
				"method": "rhf"
			},
			{
				"type": "unocc",
				"energy": 0.02849,
				"method": "rhf"
			},
			{
				"type": "unocc",
				"energy": 0.05432,
				"method": "rhf"
			}
		],
		"cosmo_sigma_profile": { 
			"-0.025": 0.0,
			"-0.024": 0.0,
			"-0.023": 0.0,
			"-0.022": 0.0,
			"-0.021": 0.0,
			"-0.02": 0.0,
			"-0.019": 0.0489712594124,
			"-0.018": 0.70781200325,
			"-0.017": 1.22224109219,
			"-0.016": 0.665969860061,
			"-0.015": 0.66191210857,
			"-0.014": 1.22504723807,
			"-0.013": 0.590912579451,
			"-0.012": 0.320606078075,
			"-0.011": 0.677521444763,
			"-0.01": 1.33899874619,
			"-0.009": 3.07448947641,
			"-0.008": 7.05333095983,
			"-0.007": 13.3820667087,
			"-0.006": 17.1857735169,
			"-0.005": 22.2492045215,
			"-0.004": 37.7323843458,
			"-0.003": 40.3877359251,
			"-0.002": 28.3119545154,
			"-0.001": 23.3085922357,
			"0.0": 21.2786502866,
			"0.001": 16.1445164178,
			"0.002": 12.2991786322,
			"0.003": 8.99082561216,
			"0.004": 7.87000001721,
			"0.005": 8.60630314733,
			"0.006": 9.98223788663,
			"0.007": 10.1350985313,
			"0.008": 8.41243507625,
			"0.009": 8.4651012297,
			"0.01": 11.3793714705,
			"0.011": 17.6797204959,
			"0.012": 10.2270662247,
			"0.013": 0.114892012313,
			"0.014": 0.0,
			"0.015": 0.0,
			"0.016": 0.0,
			"0.017": 0.0,
			"0.018": 0.0,
			"0.019": 0.0,
			"0.02": 0.0,
			"0.021": 0.0,
			"0.022": 0.0,
			"0.023": 0.0,
			"0.024": 0.0,
			"0.025": 0.0
		}
	}
}
