{
	 "smiles": "CC(Cl)C(=O)NC1=CC(=CC=C1)S(=O)(=O)N1CCCCC1", 
	 "Tm": 437.15, 
	 "num_atms": 40, 
	 "gaussian": { 
		 "optdone": 1, 
		 "sigma_profile": "yes", 
		 "theory": "DFT", 
		 "functional": "B3LYP", 
		 "basiset": "6-31G**", 
		 "properties": { 
			 "R2extent": 9641.5845, 
			 "electric_dipole_moment_norm": 5.96014481116, 
			 "electric_quadrupole_moment_norm": 22.9381653617, 
			 "total_energy": -1738.45372155, 
			 "HOMO_LUMO_gap": 0.19842, 
			 "cosmo_polarized_energy": -20.13, 
			 "cosmo_cavitation_energy": 44.42, 
			 "cosmo_dispersion_energy": -31.08, 
			 "cosmo_repulsion_energy": 2.36, 
			 "cosmo_total_nonelectrostatic_energy": 15.7, 
			 "SMD_solvation_energy": 5.13 
		},
		"coords": [
			{
				"x": -5.8412327394,
				"y": 1.9419878008,
				"z": 0.4381706623,
				"element": "C" 
			},
			{
				"x": -5.1811519093,
				"y": 0.6235278498,
				"z": 0.0436405442,
				"element": "C" 
			},
			{
				"x": -6.0977075224,
				"y": -0.7844106829,
				"z": 0.789880466,
				"element": "Cl" 
			},
			{
				"x": -3.6752814654,
				"y": 0.6463602306,
				"z": 0.3670406975,
				"element": "C" 
			},
			{
				"x": -2.9920488139,
				"y": 1.4573202271,
				"z": -0.2440860368,
				"element": "O" 
			},
			{
				"x": -3.2225894798,
				"y": -0.2138990201,
				"z": 1.3235177789,
				"element": "N" 
			},
			{
				"x": -1.9020773146,
				"y": -0.3727888293,
				"z": 1.7933711491,
				"element": "C" 
			},
			{
				"x": -0.8666069139,
				"y": 0.5152492981,
				"z": 1.4715058432,
				"element": "C" 
			},
			{
				"x": 0.4057936713,
				"y": 0.2766724335,
				"z": 1.9953377147,
				"element": "C" 
			},
			{
				"x": 0.6739854342,
				"y": -0.8027434955,
				"z": 2.8382788398,
				"element": "C" 
			},
			{
				"x": -0.3706825473,
				"y": -1.6724598727,
				"z": 3.1572757629,
				"element": "C" 
			},
			{
				"x": -1.6445004883,
				"y": -1.465861214,
				"z": 2.6375543406,
				"element": "C" 
			},
			{
				"x": 1.7528890101,
				"y": 1.3879581527,
				"z": 1.5333846279,
				"element": "S" 
			},
			{
				"x": 1.1610359082,
				"y": 2.700949618,
				"z": 1.2696355169,
				"element": "O" 
			},
			{
				"x": 2.812401217,
				"y": 1.1910739511,
				"z": 2.5262982999,
				"element": "O" 
			},
			{
				"x": 2.3621131147,
				"y": 0.8304354718,
				"z": 0.0797016537,
				"element": "N" 
			},
			{
				"x": 1.6501870865,
				"y": 1.1618245181,
				"z": -1.1764706283,
				"element": "C" 
			},
			{
				"x": 1.2349477142,
				"y": -0.1076611877,
				"z": -1.9250983211,
				"element": "C" 
			},
			{
				"x": 2.4637308197,
				"y": -0.9782180363,
				"z": -2.2839507104,
				"element": "C" 
			},
			{
				"x": 3.6299883602,
				"y": -0.7518193571,
				"z": -1.2955045417,
				"element": "C" 
			},
			{
				"x": 3.1296034862,
				"y": -0.4329251941,
				"z": 0.1149594957,
				"element": "C" 
			},
			{
				"x": -5.8181714242,
				"y": 2.082245346,
				"z": 1.5221675999,
				"element": "H" 
			},
			{
				"x": -6.8794538861,
				"y": 1.967847977,
				"z": 0.1012147514,
				"element": "H" 
			},
			{
				"x": -5.2879230537,
				"y": 2.7571435651,
				"z": -0.0352383771,
				"element": "H" 
			},
			{
				"x": -5.2598440292,
				"y": 0.4616107675,
				"z": -1.0324286924,
				"element": "H" 
			},
			{
				"x": -3.9115638045,
				"y": -0.8504224461,
				"z": 1.7037574159,
				"element": "H" 
			},
			{
				"x": -1.0611945823,
				"y": 1.3770445412,
				"z": 0.8498281129,
				"element": "H" 
			},
			{
				"x": 1.6672339396,
				"y": -0.9324659565,
				"z": 3.2514752143,
				"element": "H" 
			},
			{
				"x": -0.1924244867,
				"y": -2.5148908857,
				"z": 3.8185221306,
				"element": "H" 
			},
			{
				"x": -2.450323713,
				"y": -2.1505986905,
				"z": 2.8903499296,
				"element": "H" 
			},
			{
				"x": 2.3152855161,
				"y": 1.77270885,
				"z": -1.8005137945,
				"element": "H" 
			},
			{
				"x": 0.7899637714,
				"y": 1.7882421521,
				"z": -0.9372342459,
				"element": "H" 
			},
			{
				"x": 0.540938793,
				"y": -0.6717504796,
				"z": -1.2914720459,
				"element": "H" 
			},
			{
				"x": 0.6776822574,
				"y": 0.1691373189,
				"z": -2.8264238064,
				"element": "H" 
			},
			{
				"x": 2.1728921282,
				"y": -2.034775235,
				"z": -2.2847966368,
				"element": "H" 
			},
			{
				"x": 2.8056327672,
				"y": -0.7518333262,
				"z": -3.2999425546,
				"element": "H" 
			},
			{
				"x": 4.2593003993,
				"y": 0.0794365902,
				"z": -1.6333630208,
				"element": "H" 
			},
			{
				"x": 4.2766832093,
				"y": -1.6342642697,
				"z": -1.2509428635,
				"element": "H" 
			},
			{
				"x": 3.9619206271,
				"y": -0.3061258372,
				"z": 0.809647536,
				"element": "H" 
			},
			{
				"x": 2.5091689432,
				"y": -1.2664626435,
				"z": 0.4833501921,
				"element": "H" 
			}
		],
		 "valence_orbital": [ 
			{
				"type": "occ",
				"energy": -0.29214,
				"method": "rhf"
			},
			{
				"type": "occ",
				"energy": -0.27736,
				"method": "rhf"
			},
			{
				"type": "occ",
				"energy": -0.27253,
				"method": "rhf"
			},
			{
				"type": "occ",
				"energy": -0.24449,
				"method": "rhf"
			},
			{
				"type": "occ",
				"energy": -0.23849,
				"method": "rhf"
			},
			{
				"type": "unocc",
				"energy": -0.04007,
				"method": "rhf"
			},
			{
				"type": "unocc",
				"energy": -0.03288,
				"method": "rhf"
			},
			{
				"type": "unocc",
				"energy": -0.00123,
				"method": "rhf"
			},
			{
				"type": "unocc",
				"energy": 0.02112,
				"method": "rhf"
			},
			{
				"type": "unocc",
				"energy": 0.06252,
				"method": "rhf"
			}
		],
		"cosmo_sigma_profile": { 
			"-0.025": 0.0,
			"-0.024": 0.0,
			"-0.023": 0.0,
			"-0.022": 0.0,
			"-0.021": 0.0,
			"-0.02": 0.0,
			"-0.019": 0.0,
			"-0.018": 0.0,
			"-0.017": 0.0,
			"-0.016": 0.0,
			"-0.015": 0.00320637262165,
			"-0.014": 0.694738320373,
			"-0.013": 1.07321044612,
			"-0.012": 0.639911589894,
			"-0.011": 0.869763161129,
			"-0.01": 1.27678733485,
			"-0.009": 3.10088791293,
			"-0.008": 4.01196847584,
			"-0.007": 7.27056253829,
			"-0.006": 10.3344998333,
			"-0.005": 16.5762722019,
			"-0.004": 27.9042452964,
			"-0.003": 42.7835097085,
			"-0.002": 45.6054689954,
			"-0.001": 32.7077134456,
			"0.0": 30.5745726991,
			"0.001": 19.3351827642,
			"0.002": 18.8974590226,
			"0.003": 16.3511208604,
			"0.004": 10.827966942,
			"0.005": 12.1272693899,
			"0.006": 7.3238785631,
			"0.007": 5.90620380929,
			"0.008": 4.84656023455,
			"0.009": 5.0007193242,
			"0.01": 7.67398693995,
			"0.011": 10.3356719812,
			"0.012": 7.50730042173,
			"0.013": 0.840281273747,
			"0.014": 0.0,
			"0.015": 0.0,
			"0.016": 0.0,
			"0.017": 0.0,
			"0.018": 0.0,
			"0.019": 0.0,
			"0.02": 0.0,
			"0.021": 0.0,
			"0.022": 0.0,
			"0.023": 0.0,
			"0.024": 0.0,
			"0.025": 0.0
		}
	}
}
