{
	 "smiles": "NCC1=C(NS(=O)(=O)C2=CC=CC=C2)C=CC=C1", 
	 "Tm": 462.15, 
	 "num_atms": 32, 
	 "gaussian": { 
		 "optdone": 1, 
		 "sigma_profile": "yes", 
		 "theory": "DFT", 
		 "functional": "B3LYP", 
		 "basiset": "6-31G**", 
		 "properties": { 
			 "R2extent": 5159.5012, 
			 "electric_dipole_moment_norm": 5.11934048682, 
			 "electric_quadrupole_moment_norm": 17.7039223165, 
			 "total_energy": -1161.88372102, 
			 "HOMO_LUMO_gap": 0.18646, 
			 "cosmo_polarized_energy": -18.79, 
			 "cosmo_cavitation_energy": 36.96, 
			 "cosmo_dispersion_energy": -25.41, 
			 "cosmo_repulsion_energy": 1.94, 
			 "cosmo_total_nonelectrostatic_energy": 13.49, 
			 "SMD_solvation_energy": 3.68 
		},
		"coords": [
			{
				"x": -1.3105412653,
				"y": -1.4169055459,
				"z": 3.2332907979,
				"element": "N" 
			},
			{
				"x": -0.6141730236,
				"y": -1.3442734564,
				"z": 1.9363135483,
				"element": "C" 
			},
			{
				"x": -1.4809256814,
				"y": -1.5139164087,
				"z": 0.6985663129,
				"element": "C" 
			},
			{
				"x": -2.1995508261,
				"y": -0.4440010935,
				"z": 0.1209622891,
				"element": "C" 
			},
			{
				"x": -2.1241567462,
				"y": 0.8665217371,
				"z": 0.6793409569,
				"element": "N" 
			},
			{
				"x": -1.6346282484,
				"y": 2.234951646,
				"z": -0.210177136,
				"element": "S" 
			},
			{
				"x": -2.4943345266,
				"y": 2.3218714036,
				"z": -1.3892752164,
				"element": "O" 
			},
			{
				"x": -1.5704389756,
				"y": 3.2936804199,
				"z": 0.7981170283,
				"element": "O" 
			},
			{
				"x": 0.0360360793,
				"y": 1.9019328291,
				"z": -0.7787217332,
				"element": "C" 
			},
			{
				"x": 1.1135538106,
				"y": 2.3102392477,
				"z": 0.0121842556,
				"element": "C" 
			},
			{
				"x": 2.4104006769,
				"y": 2.0263586871,
				"z": -0.4155984512,
				"element": "C" 
			},
			{
				"x": 2.6187064956,
				"y": 1.3419657799,
				"z": -1.6158577841,
				"element": "C" 
			},
			{
				"x": 1.5323362481,
				"y": 0.9451025551,
				"z": -2.3990322793,
				"element": "C" 
			},
			{
				"x": 0.2295732623,
				"y": 1.2253079004,
				"z": -1.9857150561,
				"element": "C" 
			},
			{
				"x": -3.0334394255,
				"y": -0.6631822176,
				"z": -0.9851008672,
				"element": "C" 
			},
			{
				"x": -3.139461339,
				"y": -1.9362426083,
				"z": -1.540292938,
				"element": "C" 
			},
			{
				"x": -2.4380697145,
				"y": -3.0059835367,
				"z": -0.9823220998,
				"element": "C" 
			},
			{
				"x": -1.6276452608,
				"y": -2.7860503971,
				"z": 0.1299601912,
				"element": "C" 
			},
			{
				"x": -1.8027230537,
				"y": -2.3060886751,
				"z": 3.2946416976,
				"element": "H" 
			},
			{
				"x": -2.0375018381,
				"y": -0.7055930819,
				"z": 3.2878294983,
				"element": "H" 
			},
			{
				"x": -0.0668936653,
				"y": -0.3947303593,
				"z": 1.9002024838,
				"element": "H" 
			},
			{
				"x": 0.1518659144,
				"y": -2.1264364091,
				"z": 1.9357259678,
				"element": "H" 
			},
			{
				"x": -1.7156608121,
				"y": 0.9326538949,
				"z": 1.6044601566,
				"element": "H" 
			},
			{
				"x": 0.9307877014,
				"y": 2.8595096375,
				"z": 0.9295225906,
				"element": "H" 
			},
			{
				"x": 3.2569949061,
				"y": 2.3462439268,
				"z": 0.1842598568,
				"element": "H" 
			},
			{
				"x": 3.6304772318,
				"y": 1.1243538118,
				"z": -1.9451374114,
				"element": "H" 
			},
			{
				"x": 1.6977731764,
				"y": 0.4226868036,
				"z": -3.3363230658,
				"element": "H" 
			},
			{
				"x": -0.6241357428,
				"y": 0.9423077186,
				"z": -2.5905737637,
				"element": "H" 
			},
			{
				"x": -3.5891757442,
				"y": 0.171258811,
				"z": -1.3952337963,
				"element": "H" 
			},
			{
				"x": -3.7845027442,
				"y": -2.0918182295,
				"z": -2.4000239647,
				"element": "H" 
			},
			{
				"x": -2.5229799069,
				"y": -4.0018074526,
				"z": -1.4069022393,
				"element": "H" 
			},
			{
				"x": -1.0768669626,
				"y": -3.6162173382,
				"z": 0.566910171,
				"element": "H" 
			}
		],
		 "valence_orbital": [ 
			{
				"type": "occ",
				"energy": -0.27506,
				"method": "rhf"
			},
			{
				"type": "occ",
				"energy": -0.2733,
				"method": "rhf"
			},
			{
				"type": "occ",
				"energy": -0.26441,
				"method": "rhf"
			},
			{
				"type": "occ",
				"energy": -0.24522,
				"method": "rhf"
			},
			{
				"type": "occ",
				"energy": -0.23101,
				"method": "rhf"
			},
			{
				"type": "unocc",
				"energy": -0.04455,
				"method": "rhf"
			},
			{
				"type": "unocc",
				"energy": -0.02497,
				"method": "rhf"
			},
			{
				"type": "unocc",
				"energy": -0.0135,
				"method": "rhf"
			},
			{
				"type": "unocc",
				"energy": -0.01207,
				"method": "rhf"
			},
			{
				"type": "unocc",
				"energy": 0.04695,
				"method": "rhf"
			}
		],
		"cosmo_sigma_profile": { 
			"-0.025": 0.0,
			"-0.024": 0.0,
			"-0.023": 0.0,
			"-0.022": 0.0,
			"-0.021": 0.0,
			"-0.02": 0.0,
			"-0.019": 0.0,
			"-0.018": 0.0,
			"-0.017": 0.0,
			"-0.016": 0.0,
			"-0.015": 0.609590081584,
			"-0.014": 1.30606189549,
			"-0.013": 1.25402421545,
			"-0.012": 1.32418779223,
			"-0.011": 1.67627404932,
			"-0.01": 2.4078036873,
			"-0.009": 3.24037002335,
			"-0.008": 4.33488660986,
			"-0.007": 11.2578068464,
			"-0.006": 17.9657845137,
			"-0.005": 23.797743869,
			"-0.004": 21.3902223224,
			"-0.003": 18.5535681586,
			"-0.002": 17.6705867061,
			"-0.001": 18.7242035484,
			"0.0": 15.2930696409,
			"0.001": 19.2240654978,
			"0.002": 21.2952897356,
			"0.003": 23.5578646721,
			"0.004": 15.311956317,
			"0.005": 11.8026188662,
			"0.006": 5.57779935363,
			"0.007": 5.60550826243,
			"0.008": 4.11664087602,
			"0.009": 5.26099384677,
			"0.01": 7.42497607246,
			"0.011": 8.44886162125,
			"0.012": 1.45763187881,
			"0.013": 0.393568340647,
			"0.014": 0.55843237507,
			"0.015": 1.11989056657,
			"0.016": 0.637870970904,
			"0.017": 0.467840582731,
			"0.018": 0.668357109728,
			"0.019": 0.627773978104,
			"0.02": 0.132292023018,
			"0.021": 0.0,
			"0.022": 0.0,
			"0.023": 0.0,
			"0.024": 0.0,
			"0.025": 0.0
		}
	}
}
