{
	 "smiles": "CCS(=O)(=O)C1=CC=CC=C1", 
	 "Tm": 315.15, 
	 "num_atms": 21, 
	 "gaussian": { 
		 "optdone": 1, 
		 "sigma_profile": "yes", 
		 "theory": "DFT", 
		 "functional": "B3LYP", 
		 "basiset": "6-31G**", 
		 "properties": { 
			 "R2extent": 3565.5806, 
			 "electric_dipole_moment_norm": 5.17008209993, 
			 "electric_quadrupole_moment_norm": 20.8889945189, 
			 "total_energy": -859.455042774, 
			 "HOMO_LUMO_gap": 0.23229, 
			 "cosmo_polarized_energy": -13.67, 
			 "cosmo_cavitation_energy": 25.57, 
			 "cosmo_dispersion_energy": -18.93, 
			 "cosmo_repulsion_energy": 1.47, 
			 "cosmo_total_nonelectrostatic_energy": 8.12, 
			 "SMD_solvation_energy": 3.79 
		},
		"coords": [
			{
				"x": -0.9782604369,
				"y": -1.4406852754,
				"z": 0.142326532,
				"element": "C" 
			},
			{
				"x": -2.2956121415,
				"y": -0.9645912908,
				"z": -0.4581124178,
				"element": "C" 
			},
			{
				"x": -2.4002758281,
				"y": 0.8440256637,
				"z": -0.6690062532,
				"element": "S" 
			},
			{
				"x": -3.743184662,
				"y": 1.1293424515,
				"z": -1.2017898626,
				"element": "O" 
			},
			{
				"x": -1.9224592018,
				"y": 1.4708899765,
				"z": 0.5760103546,
				"element": "O" 
			},
			{
				"x": -1.2043085832,
				"y": 1.2191477955,
				"z": -1.9644403837,
				"element": "C" 
			},
			{
				"x": -1.5934203522,
				"y": 1.1092798308,
				"z": -3.3015709005,
				"element": "C" 
			},
			{
				"x": -0.6652508713,
				"y": 1.4004458375,
				"z": -4.3012205778,
				"element": "C" 
			},
			{
				"x": 0.6293619346,
				"y": 1.801379065,
				"z": -3.9596943627,
				"element": "C" 
			},
			{
				"x": 1.0011364028,
				"y": 1.9208633283,
				"z": -2.618663148,
				"element": "C" 
			},
			{
				"x": 0.0817900934,
				"y": 1.630382529,
				"z": -1.6092385101,
				"element": "C" 
			},
			{
				"x": -1.0140461299,
				"y": -2.523622374,
				"z": 0.2947996072,
				"element": "H" 
			},
			{
				"x": -0.7996215022,
				"y": -0.960251553,
				"z": 1.1070009962,
				"element": "H" 
			},
			{
				"x": -0.1336522064,
				"y": -1.2219120291,
				"z": -0.5173575875,
				"element": "H" 
			},
			{
				"x": -3.1482082037,
				"y": -1.1841699655,
				"z": 0.1925760539,
				"element": "H" 
			},
			{
				"x": -2.4995917029,
				"y": -1.3966171762,
				"z": -1.4418666717,
				"element": "H" 
			},
			{
				"x": -2.611722816,
				"y": 0.8250004719,
				"z": -3.5456131327,
				"element": "H" 
			},
			{
				"x": -0.954551419,
				"y": 1.3243260596,
				"z": -5.3450378103,
				"element": "H" 
			},
			{
				"x": 1.3474775225,
				"y": 2.0301304721,
				"z": -4.7417704353,
				"element": "H" 
			},
			{
				"x": 2.0034986096,
				"y": 2.2468514888,
				"z": -2.3577937918,
				"element": "H" 
			},
			{
				"x": 0.338801494,
				"y": 1.738384694,
				"z": -0.5610376983,
				"element": "H" 
			}
		],
		 "valence_orbital": [ 
			{
				"type": "occ",
				"energy": -0.30828,
				"method": "rhf"
			},
			{
				"type": "occ",
				"energy": -0.29277,
				"method": "rhf"
			},
			{
				"type": "occ",
				"energy": -0.28278,
				"method": "rhf"
			},
			{
				"type": "occ",
				"energy": -0.27366,
				"method": "rhf"
			},
			{
				"type": "occ",
				"energy": -0.2724,
				"method": "rhf"
			},
			{
				"type": "unocc",
				"energy": -0.04011,
				"method": "rhf"
			},
			{
				"type": "unocc",
				"energy": -0.02358,
				"method": "rhf"
			},
			{
				"type": "unocc",
				"energy": 0.06281,
				"method": "rhf"
			},
			{
				"type": "unocc",
				"energy": 0.08079,
				"method": "rhf"
			},
			{
				"type": "unocc",
				"energy": 0.08754,
				"method": "rhf"
			}
		],
		"cosmo_sigma_profile": { 
			"-0.025": 0.0,
			"-0.024": 0.0,
			"-0.023": 0.0,
			"-0.022": 0.0,
			"-0.021": 0.0,
			"-0.02": 0.0,
			"-0.019": 0.0,
			"-0.018": 0.0,
			"-0.017": 0.0,
			"-0.016": 0.0,
			"-0.015": 0.0,
			"-0.014": 0.0,
			"-0.013": 0.0,
			"-0.012": 0.0,
			"-0.011": 0.0,
			"-0.01": 0.0,
			"-0.009": 0.0464144202062,
			"-0.008": 2.86878404043,
			"-0.007": 11.2759371214,
			"-0.006": 15.1024359224,
			"-0.005": 17.2742458992,
			"-0.004": 18.2298788942,
			"-0.003": 17.7850447732,
			"-0.002": 15.2406838426,
			"-0.001": 15.2028643038,
			"0.0": 12.2760287163,
			"0.001": 9.91860223569,
			"0.002": 12.1137772209,
			"0.003": 14.2641486355,
			"0.004": 5.58762289225,
			"0.005": 2.5967890646,
			"0.006": 2.45909063272,
			"0.007": 2.80241308353,
			"0.008": 2.07963844447,
			"0.009": 3.66493338986,
			"0.01": 4.001891305,
			"0.011": 7.68563592191,
			"0.012": 8.65816683583,
			"0.013": 2.09246125995,
			"0.014": 0.0,
			"0.015": 0.0,
			"0.016": 0.0,
			"0.017": 0.0,
			"0.018": 0.0,
			"0.019": 0.0,
			"0.02": 0.0,
			"0.021": 0.0,
			"0.022": 0.0,
			"0.023": 0.0,
			"0.024": 0.0,
			"0.025": 0.0
		}
	}
}
