{
	 "smiles": "FC1(F)C(=O)NC(=O)C2=C1C=CC=C2", 
	 "Tm": 383.15, 
	 "num_atms": 19, 
	 "gaussian": { 
		 "optdone": 1, 
		 "sigma_profile": "yes", 
		 "theory": "DFT", 
		 "functional": "B3LYP", 
		 "basiset": "6-31G**", 
		 "properties": { 
			 "R2extent": 2771.6204, 
			 "electric_dipole_moment_norm": 3.84324690073, 
			 "electric_quadrupole_moment_norm": 14.1660537123, 
			 "total_energy": -750.869912589, 
			 "HOMO_LUMO_gap": 0.19592, 
			 "cosmo_polarized_energy": -12.0, 
			 "cosmo_cavitation_energy": 24.81, 
			 "cosmo_dispersion_energy": -18.02, 
			 "cosmo_repulsion_energy": 1.35, 
			 "cosmo_total_nonelectrostatic_energy": 8.14, 
			 "SMD_solvation_energy": 6.31 
		},
		"coords": [
			{
				"x": 2.5468504264,
				"y": 1.2467596615,
				"z": 1.242883556,
				"element": "F" 
			},
			{
				"x": 1.4852147887,
				"y": 0.7003773517,
				"z": 0.5924662722,
				"element": "C" 
			},
			{
				"x": 1.9745843646,
				"y": 0.1452992336,
				"z": -0.5690886598,
				"element": "F" 
			},
			{
				"x": 0.5490191525,
				"y": 1.8449041206,
				"z": 0.1461400049,
				"element": "C" 
			},
			{
				"x": 0.9790453395,
				"y": 2.9080626034,
				"z": -0.2400395674,
				"element": "O" 
			},
			{
				"x": -0.7994259688,
				"y": 1.532718063,
				"z": 0.1445760509,
				"element": "N" 
			},
			{
				"x": -1.4334052919,
				"y": 0.4304704371,
				"z": 0.7327567658,
				"element": "C" 
			},
			{
				"x": -2.6452399633,
				"y": 0.3232574278,
				"z": 0.6782932786,
				"element": "O" 
			},
			{
				"x": -0.5420084372,
				"y": -0.5343022905,
				"z": 1.4311152126,
				"element": "C" 
			},
			{
				"x": 0.8507242162,
				"y": -0.3799042661,
				"z": 1.4252390134,
				"element": "C" 
			},
			{
				"x": 1.6556451167,
				"y": -1.2775747372,
				"z": 2.1294099773,
				"element": "C" 
			},
			{
				"x": 1.0685174082,
				"y": -2.3255642563,
				"z": 2.8367036644,
				"element": "C" 
			},
			{
				"x": -0.3216316988,
				"y": -2.4842196991,
				"z": 2.839496927,
				"element": "C" 
			},
			{
				"x": -1.1267054253,
				"y": -1.5898166083,
				"z": 2.1407737548,
				"element": "C" 
			},
			{
				"x": -1.4194961376,
				"y": 2.2372062491,
				"z": -0.2426499544,
				"element": "H" 
			},
			{
				"x": 2.7323545243,
				"y": -1.1467681215,
				"z": 2.1242552105,
				"element": "H" 
			},
			{
				"x": 1.6952315669,
				"y": -3.0206184429,
				"z": 3.3872219906,
				"element": "H" 
			},
			{
				"x": -0.7737522155,
				"y": -3.3027005151,
				"z": 3.3910391423,
				"element": "H" 
			},
			{
				"x": -2.2073217654,
				"y": -1.6810862108,
				"z": 2.1322073601,
				"element": "H" 
			}
		],
		 "valence_orbital": [ 
			{
				"type": "occ",
				"energy": -0.30553,
				"method": "rhf"
			},
			{
				"type": "occ",
				"energy": -0.30119,
				"method": "rhf"
			},
			{
				"type": "occ",
				"energy": -0.28774,
				"method": "rhf"
			},
			{
				"type": "occ",
				"energy": -0.28394,
				"method": "rhf"
			},
			{
				"type": "occ",
				"energy": -0.28032,
				"method": "rhf"
			},
			{
				"type": "unocc",
				"energy": -0.0844,
				"method": "rhf"
			},
			{
				"type": "unocc",
				"energy": -0.04466,
				"method": "rhf"
			},
			{
				"type": "unocc",
				"energy": -0.01872,
				"method": "rhf"
			},
			{
				"type": "unocc",
				"energy": 0.04421,
				"method": "rhf"
			},
			{
				"type": "unocc",
				"energy": 0.07863,
				"method": "rhf"
			}
		],
		"cosmo_sigma_profile": { 
			"-0.025": 0.0,
			"-0.024": 0.0,
			"-0.023": 0.0,
			"-0.022": 0.0,
			"-0.021": 0.0,
			"-0.02": 0.0,
			"-0.019": 0.0,
			"-0.018": 0.0,
			"-0.017": 0.40696326152,
			"-0.016": 0.888752081409,
			"-0.015": 0.99752487115,
			"-0.014": 1.06754366439,
			"-0.013": 0.572861806306,
			"-0.012": 0.674645619045,
			"-0.011": 1.04435313555,
			"-0.01": 1.45679165972,
			"-0.009": 1.39320800132,
			"-0.008": 3.67818983277,
			"-0.007": 10.1605020128,
			"-0.006": 13.4425606767,
			"-0.005": 10.326136955,
			"-0.004": 12.2712038252,
			"-0.003": 9.79322528643,
			"-0.002": 9.04014333337,
			"-0.001": 11.6982314698,
			"0.0": 13.1960401789,
			"0.001": 17.5732923339,
			"0.002": 17.8346170708,
			"0.003": 18.7430515472,
			"0.004": 9.71413588781,
			"0.005": 3.0603505104,
			"0.006": 3.55718943267,
			"0.007": 2.72008062381,
			"0.008": 4.1113453556,
			"0.009": 4.58513854761,
			"0.01": 7.95385554507,
			"0.011": 7.36344248968,
			"0.012": 0.582001831046,
			"0.013": 0.0,
			"0.014": 0.0,
			"0.015": 0.0,
			"0.016": 0.0,
			"0.017": 0.0,
			"0.018": 0.0,
			"0.019": 0.0,
			"0.02": 0.0,
			"0.021": 0.0,
			"0.022": 0.0,
			"0.023": 0.0,
			"0.024": 0.0,
			"0.025": 0.0
		}
	}
}
