{
	 "smiles": "CCOC(=O)C1=CC=C(Br)C=C1", 
	 "Tm": 291.15, 
	 "num_atms": 21, 
	 "gaussian": { 
		 "optdone": 1, 
		 "sigma_profile": "yes", 
		 "theory": "DFT", 
		 "functional": "B3LYP", 
		 "basiset": "6-31G**", 
		 "properties": { 
			 "R2extent": 4959.1003, 
			 "electric_dipole_moment_norm": 1.99331569, 
			 "electric_quadrupole_moment_norm": 8.32467242659, 
			 "total_energy": -3070.25433078, 
			 "HOMO_LUMO_gap": 0.19708, 
			 "cosmo_polarized_energy": -6.67, 
			 "cosmo_cavitation_energy": 27.78, 
			 "cosmo_dispersion_energy": -20.71, 
			 "cosmo_repulsion_energy": 1.67, 
			 "cosmo_total_nonelectrostatic_energy": 8.74, 
			 "SMD_solvation_energy": 4.75 
		},
		"coords": [
			{
				"x": -4.1103837793,
				"y": 2.3531417183,
				"z": -0.6445126817,
				"element": "C" 
			},
			{
				"x": -4.2150417176,
				"y": 0.9237079252,
				"z": -0.1347175717,
				"element": "C" 
			},
			{
				"x": -2.9199573034,
				"y": 0.2761505254,
				"z": -0.111924381,
				"element": "O" 
			},
			{
				"x": -2.1630786004,
				"y": 0.4799530784,
				"z": 0.9894148827,
				"element": "C" 
			},
			{
				"x": -2.5150608524,
				"y": 1.1580305647,
				"z": 1.9362785822,
				"element": "O" 
			},
			{
				"x": -0.8515127532,
				"y": -0.2253358677,
				"z": 0.9122354559,
				"element": "C" 
			},
			{
				"x": -0.4749399753,
				"y": -0.9974758772,
				"z": -0.194887576,
				"element": "C" 
			},
			{
				"x": 0.7625389487,
				"y": -1.6370304822,
				"z": -0.2181512572,
				"element": "C" 
			},
			{
				"x": 1.619634733,
				"y": -1.4982943486,
				"z": 0.8739660657,
				"element": "C" 
			},
			{
				"x": 3.3160545778,
				"y": -2.3732543977,
				"z": 0.8463723989,
				"element": "Br" 
			},
			{
				"x": 1.2631121789,
				"y": -0.7335878613,
				"z": 1.9857516912,
				"element": "C" 
			},
			{
				"x": 0.0246722751,
				"y": -0.0987136125,
				"z": 1.9981670887,
				"element": "C" 
			},
			{
				"x": -5.1104871826,
				"y": 2.7921764385,
				"z": -0.7237846571,
				"element": "H" 
			},
			{
				"x": -3.5216963683,
				"y": 2.9639893456,
				"z": 0.0440170831,
				"element": "H" 
			},
			{
				"x": -3.6433908408,
				"y": 2.3817739741,
				"z": -1.6333951974,
				"element": "H" 
			},
			{
				"x": -4.8158297919,
				"y": 0.3020781895,
				"z": -0.8028304585,
				"element": "H" 
			},
			{
				"x": -4.6399528777,
				"y": 0.8936389346,
				"z": 0.8712072886,
				"element": "H" 
			},
			{
				"x": -1.1518720441,
				"y": -1.095410152,
				"z": -1.0355191799,
				"element": "H" 
			},
			{
				"x": 1.0599549834,
				"y": -2.2357566891,
				"z": -1.0712810029,
				"element": "H" 
			},
			{
				"x": 1.9439915375,
				"y": -0.6387880548,
				"z": 2.8236981503,
				"element": "H" 
			},
			{
				"x": -0.2825551473,
				"y": 0.5028066487,
				"z": 2.8468952761,
				"element": "H" 
			}
		],
		 "valence_orbital": [ 
			{
				"type": "occ",
				"energy": -0.30248,
				"method": "rhf"
			},
			{
				"type": "occ",
				"energy": -0.29336,
				"method": "rhf"
			},
			{
				"type": "occ",
				"energy": -0.27765,
				"method": "rhf"
			},
			{
				"type": "occ",
				"energy": -0.27128,
				"method": "rhf"
			},
			{
				"type": "occ",
				"energy": -0.25113,
				"method": "rhf"
			},
			{
				"type": "unocc",
				"energy": -0.05405,
				"method": "rhf"
			},
			{
				"type": "unocc",
				"energy": -0.02029,
				"method": "rhf"
			},
			{
				"type": "unocc",
				"energy": 0.00197,
				"method": "rhf"
			},
			{
				"type": "unocc",
				"energy": 0.04827,
				"method": "rhf"
			},
			{
				"type": "unocc",
				"energy": 0.10427,
				"method": "rhf"
			}
		],
		"cosmo_sigma_profile": { 
			"-0.025": 0.0,
			"-0.024": 0.0,
			"-0.023": 0.0,
			"-0.022": 0.0,
			"-0.021": 0.0,
			"-0.02": 0.0,
			"-0.019": 0.0,
			"-0.018": 0.0,
			"-0.017": 0.0,
			"-0.016": 0.0,
			"-0.015": 0.0,
			"-0.014": 0.0,
			"-0.013": 0.0,
			"-0.012": 0.0,
			"-0.011": 0.0,
			"-0.01": 0.0,
			"-0.009": 0.0,
			"-0.008": 0.993864202428,
			"-0.007": 5.23212073615,
			"-0.006": 8.602472648,
			"-0.005": 12.3058021053,
			"-0.004": 16.1012226539,
			"-0.003": 20.3428976069,
			"-0.002": 19.166059735,
			"-0.001": 19.7344827867,
			"0.0": 23.8638563148,
			"0.001": 23.7379255005,
			"0.002": 25.6543406914,
			"0.003": 14.8497185057,
			"0.004": 14.5369648738,
			"0.005": 5.37667501427,
			"0.006": 2.24909628978,
			"0.007": 1.24594298682,
			"0.008": 1.61120626689,
			"0.009": 1.62968310683,
			"0.01": 1.47190772457,
			"0.011": 2.98954347311,
			"0.012": 3.29255965765,
			"0.013": 0.0146680584034,
			"0.014": 0.0,
			"0.015": 0.0,
			"0.016": 0.0,
			"0.017": 0.0,
			"0.018": 0.0,
			"0.019": 0.0,
			"0.02": 0.0,
			"0.021": 0.0,
			"0.022": 0.0,
			"0.023": 0.0,
			"0.024": 0.0,
			"0.025": 0.0
		}
	}
}
