{
	 "smiles": "COC1=C(OC)C=C2CC(=O)NCCC2=C1", 
	 "Tm": 466.15, 
	 "num_atms": 31, 
	 "gaussian": { 
		 "optdone": 1, 
		 "sigma_profile": "yes", 
		 "theory": "DFT", 
		 "functional": "B3LYP", 
		 "basiset": "6-31G**", 
		 "properties": { 
			 "R2extent": 4718.4677, 
			 "electric_dipole_moment_norm": 3.84749619753, 
			 "electric_quadrupole_moment_norm": 24.9133328929, 
			 "total_energy": -746.724885287, 
			 "HOMO_LUMO_gap": 0.21624, 
			 "cosmo_polarized_energy": -14.47, 
			 "cosmo_cavitation_energy": 33.11, 
			 "cosmo_dispersion_energy": -23.95, 
			 "cosmo_repulsion_energy": 1.88, 
			 "cosmo_total_nonelectrostatic_energy": 11.04, 
			 "SMD_solvation_energy": 6.6 
		},
		"coords": [
			{
				"x": 2.4823791457,
				"y": 1.0275658917,
				"z": -2.7491736829,
				"element": "C" 
			},
			{
				"x": 2.0553534348,
				"y": 0.081608932,
				"z": -1.7613120459,
				"element": "O" 
			},
			{
				"x": 0.7454764497,
				"y": 0.2188938716,
				"z": -1.3571150605,
				"element": "C" 
			},
			{
				"x": -0.3299477618,
				"y": -0.0713109004,
				"z": -2.2144346179,
				"element": "C" 
			},
			{
				"x": -0.1298004286,
				"y": -0.4550757901,
				"z": -3.5222156777,
				"element": "O" 
			},
			{
				"x": 0.4352242381,
				"y": -1.7620501974,
				"z": -3.6831743976,
				"element": "C" 
			},
			{
				"x": -1.6368577527,
				"y": 0.0738566237,
				"z": -1.7465091691,
				"element": "C" 
			},
			{
				"x": -1.9000736407,
				"y": 0.4846648535,
				"z": -0.4368825753,
				"element": "C" 
			},
			{
				"x": -3.3229986775,
				"y": 0.6562590591,
				"z": 0.0450844604,
				"element": "C" 
			},
			{
				"x": -3.7968855988,
				"y": -0.2950201675,
				"z": 1.1499883452,
				"element": "C" 
			},
			{
				"x": -4.8603117865,
				"y": -0.893328241,
				"z": 1.0343161618,
				"element": "O" 
			},
			{
				"x": -3.0649981295,
				"y": -0.4163057446,
				"z": 2.3051493166,
				"element": "N" 
			},
			{
				"x": -1.712252795,
				"y": -0.0069844051,
				"z": 2.6859957695,
				"element": "C" 
			},
			{
				"x": -1.1041880574,
				"y": 1.1349550754,
				"z": 1.8620921008,
				"element": "C" 
			},
			{
				"x": -0.8243292113,
				"y": 0.745179592,
				"z": 0.4294998673,
				"element": "C" 
			},
			{
				"x": 0.4834646674,
				"y": 0.6142189941,
				"z": -0.0443058306,
				"element": "C" 
			},
			{
				"x": 1.8854219818,
				"y": 0.9479438471,
				"z": -3.6627593764,
				"element": "H" 
			},
			{
				"x": 2.4170443337,
				"y": 2.0512061817,
				"z": -2.3591719495,
				"element": "H" 
			},
			{
				"x": 3.5260061211,
				"y": 0.7915330107,
				"z": -2.9672130833,
				"element": "H" 
			},
			{
				"x": -0.2316115951,
				"y": -2.5264759018,
				"z": -3.2651291542,
				"element": "H" 
			},
			{
				"x": 0.5356994356,
				"y": -1.9212345007,
				"z": -4.7587574103,
				"element": "H" 
			},
			{
				"x": 1.4169350919,
				"y": -1.8341338586,
				"z": -3.2046338114,
				"element": "H" 
			},
			{
				"x": -2.4495358081,
				"y": -0.1438642371,
				"z": -2.4332688231,
				"element": "H" 
			},
			{
				"x": -4.0272690859,
				"y": 0.5043064103,
				"z": -0.7737189024,
				"element": "H" 
			},
			{
				"x": -3.4743996272,
				"y": 1.6822693013,
				"z": 0.4102887017,
				"element": "H" 
			},
			{
				"x": -3.5043807346,
				"y": -1.081247944,
				"z": 2.9304640472,
				"element": "H" 
			},
			{
				"x": -1.0326163177,
				"y": -0.8702239657,
				"z": 2.6319626967,
				"element": "H" 
			},
			{
				"x": -1.7522061262,
				"y": 0.304116362,
				"z": 3.7375174014,
				"element": "H" 
			},
			{
				"x": -1.7672663296,
				"y": 2.0089994955,
				"z": 1.9100816114,
				"element": "H" 
			},
			{
				"x": -0.170630594,
				"y": 1.425106951,
				"z": 2.3549118665,
				"element": "H" 
			},
			{
				"x": 1.3323551587,
				"y": 0.8206714014,
				"z": 0.6017232217,
				"element": "H" 
			}
		],
		 "valence_orbital": [ 
			{
				"type": "occ",
				"energy": -0.26544,
				"method": "rhf"
			},
			{
				"type": "occ",
				"energy": -0.25238,
				"method": "rhf"
			},
			{
				"type": "occ",
				"energy": -0.24376,
				"method": "rhf"
			},
			{
				"type": "occ",
				"energy": -0.23866,
				"method": "rhf"
			},
			{
				"type": "occ",
				"energy": -0.22011,
				"method": "rhf"
			},
			{
				"type": "unocc",
				"energy": -0.00387,
				"method": "rhf"
			},
			{
				"type": "unocc",
				"energy": -0.00282,
				"method": "rhf"
			},
			{
				"type": "unocc",
				"energy": 0.03305,
				"method": "rhf"
			},
			{
				"type": "unocc",
				"energy": 0.07784,
				"method": "rhf"
			},
			{
				"type": "unocc",
				"energy": 0.08794,
				"method": "rhf"
			}
		],
		"cosmo_sigma_profile": { 
			"-0.025": 0.0,
			"-0.024": 0.0,
			"-0.023": 0.0,
			"-0.022": 0.0,
			"-0.021": 0.0,
			"-0.02": 0.0,
			"-0.019": 0.0,
			"-0.018": 0.0,
			"-0.017": 0.0,
			"-0.016": 0.0,
			"-0.015": 0.0,
			"-0.014": 0.0,
			"-0.013": 0.647673626639,
			"-0.012": 1.40668895347,
			"-0.011": 0.69651517933,
			"-0.01": 0.859395766102,
			"-0.009": 1.1847184633,
			"-0.008": 1.19757159941,
			"-0.007": 2.00708305471,
			"-0.006": 11.2254247848,
			"-0.005": 21.9181926376,
			"-0.004": 27.9984465978,
			"-0.003": 32.6231584631,
			"-0.002": 28.1355685814,
			"-0.001": 18.3861806352,
			"0.0": 18.1999491495,
			"0.001": 14.1216912566,
			"0.002": 11.7173606889,
			"0.003": 11.8296755567,
			"0.004": 13.9530795077,
			"0.005": 7.81937133435,
			"0.006": 3.45695234028,
			"0.007": 3.47714767945,
			"0.008": 3.27949970594,
			"0.009": 2.91803577157,
			"0.01": 2.85142661411,
			"0.011": 3.80426934959,
			"0.012": 3.85538506046,
			"0.013": 2.16119507836,
			"0.014": 6.0444862973,
			"0.015": 2.62468168347,
			"0.016": 0.0708915728083,
			"0.017": 0.0,
			"0.018": 0.0,
			"0.019": 0.0,
			"0.02": 0.0,
			"0.021": 0.0,
			"0.022": 0.0,
			"0.023": 0.0,
			"0.024": 0.0,
			"0.025": 0.0
		}
	}
}
