{
	 "smiles": "CC1=C(N)C=CC(OC2=C(C=CC=N2)C#N)=C1", 
	 "Tm": 432.15, 
	 "num_atms": 28, 
	 "gaussian": { 
		 "optdone": 1, 
		 "sigma_profile": "yes", 
		 "theory": "DFT", 
		 "functional": "B3LYP", 
		 "basiset": "6-31G**", 
		 "properties": { 
			 "R2extent": 5110.7293, 
			 "electric_dipole_moment_norm": 6.07043896353, 
			 "electric_quadrupole_moment_norm": 25.1757946548, 
			 "total_energy": -741.473093588, 
			 "HOMO_LUMO_gap": 0.14358, 
			 "cosmo_polarized_energy": -17.64, 
			 "cosmo_cavitation_energy": 34.07, 
			 "cosmo_dispersion_energy": -23.75, 
			 "cosmo_repulsion_energy": 1.87, 
			 "cosmo_total_nonelectrostatic_energy": 12.19, 
			 "SMD_solvation_energy": 6.33 
		},
		"coords": [
			{
				"x": -0.3758551015,
				"y": 4.4139003719,
				"z": 1.1350589623,
				"element": "C" 
			},
			{
				"x": 0.1609792346,
				"y": 3.0098646582,
				"z": 1.258670469,
				"element": "C" 
			},
			{
				"x": 0.4166358318,
				"y": 2.4554343299,
				"z": 2.5350195652,
				"element": "C" 
			},
			{
				"x": 0.2135029663,
				"y": 3.22320804,
				"z": 3.6873125423,
				"element": "N" 
			},
			{
				"x": 0.9397176924,
				"y": 1.1564633176,
				"z": 2.630740755,
				"element": "C" 
			},
			{
				"x": 1.2067940074,
				"y": 0.4031577873,
				"z": 1.4905701428,
				"element": "C" 
			},
			{
				"x": 0.9401531187,
				"y": 0.9525121326,
				"z": 0.2434972929,
				"element": "C" 
			},
			{
				"x": 1.2857025059,
				"y": 0.240812265,
				"z": -0.9177875287,
				"element": "O" 
			},
			{
				"x": 0.3794946317,
				"y": -0.574425691,
				"z": -1.4974110161,
				"element": "C" 
			},
			{
				"x": 0.8071296207,
				"y": -1.2565486611,
				"z": -2.6665110524,
				"element": "C" 
			},
			{
				"x": -0.1100283185,
				"y": -2.1090451261,
				"z": -3.2894201942,
				"element": "C" 
			},
			{
				"x": -1.3862061292,
				"y": -2.2535066115,
				"z": -2.7480305927,
				"element": "C" 
			},
			{
				"x": -1.6918527132,
				"y": -1.5319324559,
				"z": -1.59647123,
				"element": "C" 
			},
			{
				"x": -0.832330516,
				"y": -0.7089911469,
				"z": -0.9802086344,
				"element": "N" 
			},
			{
				"x": 2.1257534295,
				"y": -1.0781981527,
				"z": -3.1872970552,
				"element": "C" 
			},
			{
				"x": 3.1919935248,
				"y": -0.9538857808,
				"z": -3.6357703968,
				"element": "N" 
			},
			{
				"x": 0.4276104344,
				"y": 2.2397518884,
				"z": 0.1253133731,
				"element": "C" 
			},
			{
				"x": -0.4554082314,
				"y": 4.7148997365,
				"z": 0.0877823446,
				"element": "H" 
			},
			{
				"x": 0.2726133343,
				"y": 5.135536484,
				"z": 1.6469766896,
				"element": "H" 
			},
			{
				"x": -1.377988441,
				"y": 4.5117675966,
				"z": 1.5769231023,
				"element": "H" 
			},
			{
				"x": -0.5321226553,
				"y": 3.9030236603,
				"z": 3.6287548679,
				"element": "H" 
			},
			{
				"x": 0.1588229609,
				"y": 2.6882547736,
				"z": 4.5434189998,
				"element": "H" 
			},
			{
				"x": 1.1446728822,
				"y": 0.7359184372,
				"z": 3.6121356415,
				"element": "H" 
			},
			{
				"x": 1.6178033627,
				"y": -0.5978724222,
				"z": 1.5666875006,
				"element": "H" 
			},
			{
				"x": 0.186572953,
				"y": -2.644953436,
				"z": -4.1850605876,
				"element": "H" 
			},
			{
				"x": -2.1211361096,
				"y": -2.9059152576,
				"z": -3.2055763663,
				"element": "H" 
			},
			{
				"x": -2.6758122773,
				"y": -1.6133806139,
				"z": -1.1387671615,
				"element": "H" 
			},
			{
				"x": 0.2439880016,
				"y": 2.6484498767,
				"z": -0.863750433,
				"element": "H" 
			}
		],
		 "valence_orbital": [ 
			{
				"type": "occ",
				"energy": -0.29416,
				"method": "rhf"
			},
			{
				"type": "occ",
				"energy": -0.27959,
				"method": "rhf"
			},
			{
				"type": "occ",
				"energy": -0.24979,
				"method": "rhf"
			},
			{
				"type": "occ",
				"energy": -0.24477,
				"method": "rhf"
			},
			{
				"type": "occ",
				"energy": -0.20218,
				"method": "rhf"
			},
			{
				"type": "unocc",
				"energy": -0.0586,
				"method": "rhf"
			},
			{
				"type": "unocc",
				"energy": -0.02123,
				"method": "rhf"
			},
			{
				"type": "unocc",
				"energy": 0.00057,
				"method": "rhf"
			},
			{
				"type": "unocc",
				"energy": 0.01466,
				"method": "rhf"
			},
			{
				"type": "unocc",
				"energy": 0.03877,
				"method": "rhf"
			}
		],
		"cosmo_sigma_profile": { 
			"-0.025": 0.0,
			"-0.024": 0.0,
			"-0.023": 0.0,
			"-0.022": 0.0,
			"-0.021": 0.0,
			"-0.02": 0.0,
			"-0.019": 0.0,
			"-0.018": 0.0,
			"-0.017": 0.0,
			"-0.016": 0.0,
			"-0.015": 0.0,
			"-0.014": 0.0,
			"-0.013": 0.191417269188,
			"-0.012": 1.51927884136,
			"-0.011": 2.92427387502,
			"-0.01": 2.63893536909,
			"-0.009": 6.03758924022,
			"-0.008": 7.44468027558,
			"-0.007": 11.7805713204,
			"-0.006": 13.7936488872,
			"-0.005": 14.4038588638,
			"-0.004": 16.4923209378,
			"-0.003": 17.5715299158,
			"-0.002": 23.8202868553,
			"-0.001": 21.2555927643,
			"0.0": 20.7126740164,
			"0.001": 15.5830457216,
			"0.002": 11.4358394114,
			"0.003": 11.5068560858,
			"0.004": 11.435636784,
			"0.005": 13.853838681,
			"0.006": 11.5287718204,
			"0.007": 8.62591961862,
			"0.008": 5.75321861411,
			"0.009": 5.74066128398,
			"0.01": 4.94681721134,
			"0.011": 4.42855793754,
			"0.012": 4.43352165564,
			"0.013": 2.66100846695,
			"0.014": 0.867534644047,
			"0.015": 0.201728299099,
			"0.016": 0.0,
			"0.017": 0.0,
			"0.018": 0.0,
			"0.019": 0.0,
			"0.02": 0.0,
			"0.021": 0.0,
			"0.022": 0.0,
			"0.023": 0.0,
			"0.024": 0.0,
			"0.025": 0.0
		}
	}
}
