{
	 "smiles": "CC1(C)N(Br)C(=O)N(Cl)C1=O", 
	 "Tm": 436.65, 
	 "num_atms": 17, 
	 "gaussian": { 
		 "optdone": 1, 
		 "sigma_profile": "yes", 
		 "theory": "DFT", 
		 "functional": "B3LYP", 
		 "basiset": "6-31G**", 
		 "properties": { 
			 "R2extent": 3831.8402, 
			 "electric_dipole_moment_norm": 3.42095392252, 
			 "electric_quadrupole_moment_norm": 13.5918648209, 
			 "total_energy": -3485.65037522, 
			 "HOMO_LUMO_gap": 0.17673, 
			 "cosmo_polarized_energy": -11.03, 
			 "cosmo_cavitation_energy": 25.43, 
			 "cosmo_dispersion_energy": -18.26, 
			 "cosmo_repulsion_energy": 1.47, 
			 "cosmo_total_nonelectrostatic_energy": 8.64, 
			 "SMD_solvation_energy": 4.5 
		},
		"coords": [
			{
				"x": 0.1764839138,
				"y": -0.5142308672,
				"z": -0.8590200323,
				"element": "C" 
			},
			{
				"x": 0.8430465228,
				"y": 0.3320804235,
				"z": 0.2334329105,
				"element": "C" 
			},
			{
				"x": 2.3056740149,
				"y": -0.0692159719,
				"z": 0.4648893094,
				"element": "C" 
			},
			{
				"x": 0.694907398,
				"y": 1.7744644806,
				"z": -0.012899544,
				"element": "N" 
			},
			{
				"x": 1.4235110941,
				"y": 2.6602351469,
				"z": -1.4852040785,
				"element": "Br" 
			},
			{
				"x": -0.0332884189,
				"y": 2.4654028978,
				"z": 0.9245716717,
				"element": "C" 
			},
			{
				"x": -0.3176640916,
				"y": 3.6329914511,
				"z": 0.9879226441,
				"element": "O" 
			},
			{
				"x": -0.4075784756,
				"y": 1.4498839488,
				"z": 1.8679447451,
				"element": "N" 
			},
			{
				"x": -1.3409817028,
				"y": 1.8180793506,
				"z": 3.2440949688,
				"element": "Cl" 
			},
			{
				"x": 0.0506270544,
				"y": 0.1821660674,
				"z": 1.5581123026,
				"element": "C" 
			},
			{
				"x": -0.1189978999,
				"y": -0.8416440995,
				"z": 2.1747789693,
				"element": "O" 
			},
			{
				"x": 0.7193487996,
				"y": -0.4023378377,
				"z": -1.8016802703,
				"element": "H" 
			},
			{
				"x": -0.8607811372,
				"y": -0.2064202339,
				"z": -1.0152918816,
				"element": "H" 
			},
			{
				"x": 0.1907978159,
				"y": -1.5660551295,
				"z": -0.5642623456,
				"element": "H" 
			},
			{
				"x": 2.7645398876,
				"y": 0.5508978834,
				"z": 1.2394715207,
				"element": "H" 
			},
			{
				"x": 2.8763840259,
				"y": 0.0492378747,
				"z": -0.4603633742,
				"element": "H" 
			},
			{
				"x": 2.351171199,
				"y": -1.1147353852,
				"z": 0.7783024844,
				"element": "H" 
			}
		],
		 "valence_orbital": [ 
			{
				"type": "occ",
				"energy": -0.32248,
				"method": "rhf"
			},
			{
				"type": "occ",
				"energy": -0.31344,
				"method": "rhf"
			},
			{
				"type": "occ",
				"energy": -0.28909,
				"method": "rhf"
			},
			{
				"type": "occ",
				"energy": -0.28541,
				"method": "rhf"
			},
			{
				"type": "occ",
				"energy": -0.26109,
				"method": "rhf"
			},
			{
				"type": "unocc",
				"energy": -0.08436,
				"method": "rhf"
			},
			{
				"type": "unocc",
				"energy": -0.04057,
				"method": "rhf"
			},
			{
				"type": "unocc",
				"energy": -0.02664,
				"method": "rhf"
			},
			{
				"type": "unocc",
				"energy": 0.03994,
				"method": "rhf"
			},
			{
				"type": "unocc",
				"energy": 0.0797,
				"method": "rhf"
			}
		],
		"cosmo_sigma_profile": { 
			"-0.025": 0.0,
			"-0.024": 0.0,
			"-0.023": 0.0,
			"-0.022": 0.0,
			"-0.021": 0.0,
			"-0.02": 0.0,
			"-0.019": 0.0,
			"-0.018": 0.0,
			"-0.017": 0.0,
			"-0.016": 0.0,
			"-0.015": 0.0,
			"-0.014": 0.0,
			"-0.013": 0.0,
			"-0.012": 0.0,
			"-0.011": 0.0,
			"-0.01": 0.43070597128,
			"-0.009": 2.0909194615,
			"-0.008": 3.80715556984,
			"-0.007": 5.261064619,
			"-0.006": 9.91316427777,
			"-0.005": 17.8994533128,
			"-0.004": 16.7257053445,
			"-0.003": 16.623981626,
			"-0.002": 22.4987196577,
			"-0.001": 18.5032348511,
			"0.0": 12.6500367485,
			"0.001": 13.591560265,
			"0.002": 15.776072201,
			"0.003": 9.74181332991,
			"0.004": 4.38293020834,
			"0.005": 3.73188078281,
			"0.006": 4.04130804704,
			"0.007": 3.77787694414,
			"0.008": 4.05246333954,
			"0.009": 4.34856167935,
			"0.01": 8.79519762416,
			"0.011": 8.69396872788,
			"0.012": 0.45400825786,
			"0.013": 0.0,
			"0.014": 0.0,
			"0.015": 0.0,
			"0.016": 0.0,
			"0.017": 0.0,
			"0.018": 0.0,
			"0.019": 0.0,
			"0.02": 0.0,
			"0.021": 0.0,
			"0.022": 0.0,
			"0.023": 0.0,
			"0.024": 0.0,
			"0.025": 0.0
		}
	}
}
