{
	 "smiles": "ClCC1=NC=C(O1)C1=CC=C(Br)C=C1", 
	 "Tm": 354.15, 
	 "num_atms": 21, 
	 "gaussian": { 
		 "optdone": 1, 
		 "sigma_profile": "yes", 
		 "theory": "DFT", 
		 "functional": "B3LYP", 
		 "basiset": "6-31G**", 
		 "properties": { 
			 "R2extent": 7116.7979, 
			 "electric_dipole_moment_norm": 1.83749499863, 
			 "electric_quadrupole_moment_norm": 11.7931975528, 
			 "total_energy": -3546.84834719, 
			 "HOMO_LUMO_gap": 0.16559, 
			 "cosmo_polarized_energy": -9.4, 
			 "cosmo_cavitation_energy": 30.56, 
			 "cosmo_dispersion_energy": -22.79, 
			 "cosmo_repulsion_energy": 1.8, 
			 "cosmo_total_nonelectrostatic_energy": 9.56, 
			 "SMD_solvation_energy": 2.25 
		},
		"coords": [
			{
				"x": 4.5868927045,
				"y": 2.3803150328,
				"z": -0.6701861722,
				"element": "Cl" 
			},
			{
				"x": 4.5605236649,
				"y": 0.6801033702,
				"z": 0.0067331603,
				"element": "C" 
			},
			{
				"x": 3.3554475815,
				"y": -0.0717554098,
				"z": -0.4034984621,
				"element": "C" 
			},
			{
				"x": 3.2722175838,
				"y": -1.0224229363,
				"z": -1.2869933543,
				"element": "N" 
			},
			{
				"x": 1.9376649744,
				"y": -1.3775290679,
				"z": -1.2900023606,
				"element": "C" 
			},
			{
				"x": 1.2493571684,
				"y": -0.6069923028,
				"z": -0.3905959172,
				"element": "C" 
			},
			{
				"x": 2.1686983032,
				"y": 0.2368385081,
				"z": 0.1866069185,
				"element": "O" 
			},
			{
				"x": -0.1372801213,
				"y": -0.5137440082,
				"z": 0.0391385777,
				"element": "C" 
			},
			{
				"x": -1.1023907884,
				"y": -1.3952829911,
				"z": -0.4798006588,
				"element": "C" 
			},
			{
				"x": -2.4316050169,
				"y": -1.3144519642,
				"z": -0.0789958039,
				"element": "C" 
			},
			{
				"x": -2.8077068367,
				"y": -0.3450215443,
				"z": 0.8518129026,
				"element": "C" 
			},
			{
				"x": -4.6301118649,
				"y": -0.2319806246,
				"z": 1.4061767821,
				"element": "Br" 
			},
			{
				"x": -1.8702145795,
				"y": 0.5403550599,
				"z": 1.3815220334,
				"element": "C" 
			},
			{
				"x": -0.5414554365,
				"y": 0.4541135794,
				"z": 0.9745278561,
				"element": "C" 
			},
			{
				"x": 5.4433190572,
				"y": 0.1721387683,
				"z": -0.375716977,
				"element": "H" 
			},
			{
				"x": 4.619336028,
				"y": 0.7916839481,
				"z": 1.0894404666,
				"element": "H" 
			},
			{
				"x": 1.563885069,
				"y": -2.1569941469,
				"z": -1.9372369306,
				"element": "H" 
			},
			{
				"x": -0.8149554309,
				"y": -2.1536768022,
				"z": -1.2013630563,
				"element": "H" 
			},
			{
				"x": -3.1696338006,
				"y": -1.9976423129,
				"z": -0.4831592142,
				"element": "H" 
			},
			{
				"x": -2.1749124461,
				"y": 1.2899136921,
				"z": 2.1028031276,
				"element": "H" 
			},
			{
				"x": 0.1897241869,
				"y": 1.1435321523,
				"z": 1.3817870821,
				"element": "H" 
			}
		],
		 "valence_orbital": [ 
			{
				"type": "occ",
				"energy": -0.30151,
				"method": "rhf"
			},
			{
				"type": "occ",
				"energy": -0.29448,
				"method": "rhf"
			},
			{
				"type": "occ",
				"energy": -0.28017,
				"method": "rhf"
			},
			{
				"type": "occ",
				"energy": -0.27593,
				"method": "rhf"
			},
			{
				"type": "occ",
				"energy": -0.22758,
				"method": "rhf"
			},
			{
				"type": "unocc",
				"energy": -0.06199,
				"method": "rhf"
			},
			{
				"type": "unocc",
				"energy": -0.02626,
				"method": "rhf"
			},
			{
				"type": "unocc",
				"energy": -0.01718,
				"method": "rhf"
			},
			{
				"type": "unocc",
				"energy": 6e-05,
				"method": "rhf"
			},
			{
				"type": "unocc",
				"energy": 0.04259,
				"method": "rhf"
			}
		],
		"cosmo_sigma_profile": { 
			"-0.025": 0.0,
			"-0.024": 0.0,
			"-0.023": 0.0,
			"-0.022": 0.0,
			"-0.021": 0.0,
			"-0.02": 0.0,
			"-0.019": 0.0,
			"-0.018": 0.0,
			"-0.017": 0.0,
			"-0.016": 0.0,
			"-0.015": 0.0,
			"-0.014": 0.0,
			"-0.013": 0.0,
			"-0.012": 0.0,
			"-0.011": 0.0,
			"-0.01": 0.900252293175,
			"-0.009": 5.78958585163,
			"-0.008": 8.30184793209,
			"-0.007": 10.4660863011,
			"-0.006": 13.7072479788,
			"-0.005": 11.3048336764,
			"-0.004": 10.1117877895,
			"-0.003": 11.4325453395,
			"-0.002": 11.8333049007,
			"-0.001": 17.228429826,
			"0.0": 21.6327844721,
			"0.001": 23.1205604897,
			"0.002": 29.6761403453,
			"0.003": 26.3385617834,
			"0.004": 19.4676620435,
			"0.005": 12.9525781424,
			"0.006": 8.8112854771,
			"0.007": 0.914252581922,
			"0.008": 1.21704189952,
			"0.009": 1.16433035422,
			"0.01": 1.08675492032,
			"0.011": 0.963827171116,
			"0.012": 0.912947771908,
			"0.013": 0.780370135556,
			"0.014": 0.952521761181,
			"0.015": 0.705464664798,
			"0.016": 0.0340448630145,
			"0.017": 0.0,
			"0.018": 0.0,
			"0.019": 0.0,
			"0.02": 0.0,
			"0.021": 0.0,
			"0.022": 0.0,
			"0.023": 0.0,
			"0.024": 0.0,
			"0.025": 0.0
		}
	}
}
