{
	 "smiles": "CC1=C(C)C(C)=C(N1)C(O)=O", 
	 "Tm": 354.15, 
	 "num_atms": 22, 
	 "gaussian": { 
		 "optdone": 1, 
		 "sigma_profile": "yes", 
		 "theory": "DFT", 
		 "functional": "B3LYP", 
		 "basiset": "6-31G**", 
		 "properties": { 
			 "R2extent": 2130.9118, 
			 "electric_dipole_moment_norm": 5.60657350884, 
			 "electric_quadrupole_moment_norm": 16.2648400247, 
			 "total_energy": -516.701185346, 
			 "HOMO_LUMO_gap": 0.19092, 
			 "cosmo_polarized_energy": -17.04, 
			 "cosmo_cavitation_energy": 25.34, 
			 "cosmo_dispersion_energy": -18.43, 
			 "cosmo_repulsion_energy": 1.5, 
			 "cosmo_total_nonelectrostatic_energy": 8.41, 
			 "SMD_solvation_energy": 5.59 
		},
		"coords": [
			{
				"x": 2.2696127934,
				"y": 0.058351464,
				"z": 1.8282125115,
				"element": "C" 
			},
			{
				"x": 1.0922126717,
				"y": -0.2033213051,
				"z": 0.9437892074,
				"element": "C" 
			},
			{
				"x": 0.3307549673,
				"y": 0.6481995759,
				"z": 0.1562508218,
				"element": "C" 
			},
			{
				"x": 0.4674992512,
				"y": 2.1374265832,
				"z": 0.032129754,
				"element": "C" 
			},
			{
				"x": -0.6444545169,
				"y": -0.1459844941,
				"z": -0.5257079652,
				"element": "C" 
			},
			{
				"x": -1.6937436806,
				"y": 0.3690673711,
				"z": -1.4634018476,
				"element": "C" 
			},
			{
				"x": -0.4611460461,
				"y": -1.4606343622,
				"z": -0.1206214655,
				"element": "C" 
			},
			{
				"x": 0.5804957047,
				"y": -1.4739108505,
				"z": 0.8080757576,
				"element": "N" 
			},
			{
				"x": -1.2067138856,
				"y": -2.6699176817,
				"z": -0.4717959591,
				"element": "C" 
			},
			{
				"x": -1.0813060021,
				"y": -3.7132233182,
				"z": 0.4179546182,
				"element": "O" 
			},
			{
				"x": -1.8868598565,
				"y": -2.8103384532,
				"z": -1.4644999964,
				"element": "O" 
			},
			{
				"x": 2.0389025332,
				"y": -0.1313858843,
				"z": 2.8838227095,
				"element": "H" 
			},
			{
				"x": 2.5916260234,
				"y": 1.0978513498,
				"z": 1.7425903684,
				"element": "H" 
			},
			{
				"x": 3.1265845937,
				"y": -0.5727394961,
				"z": 1.5608633364,
				"element": "H" 
			},
			{
				"x": -0.4229206438,
				"y": 2.6584001613,
				"z": 0.4054037542,
				"element": "H" 
			},
			{
				"x": 0.5977773409,
				"y": 2.4411048746,
				"z": -1.0132792693,
				"element": "H" 
			},
			{
				"x": 1.3255751437,
				"y": 2.5173241579,
				"z": 0.5932194618,
				"element": "H" 
			},
			{
				"x": -2.3497759183,
				"y": 1.0953233641,
				"z": -0.9675047018,
				"element": "H" 
			},
			{
				"x": -1.2341791144,
				"y": 0.8870508408,
				"z": -2.3141411364,
				"element": "H" 
			},
			{
				"x": -2.3002687939,
				"y": -0.4486538313,
				"z": -1.8532358659,
				"element": "H" 
			},
			{
				"x": 1.1138562867,
				"y": -2.3036315852,
				"z": 1.0256482849,
				"element": "H" 
			},
			{
				"x": -0.8039288518,
				"y": -3.3660584809,
				"z": 1.2780276215,
				"element": "H" 
			}
		],
		 "valence_orbital": [ 
			{
				"type": "occ",
				"energy": -0.34499,
				"method": "rhf"
			},
			{
				"type": "occ",
				"energy": -0.30701,
				"method": "rhf"
			},
			{
				"type": "occ",
				"energy": -0.26335,
				"method": "rhf"
			},
			{
				"type": "occ",
				"energy": -0.24174,
				"method": "rhf"
			},
			{
				"type": "occ",
				"energy": -0.21622,
				"method": "rhf"
			},
			{
				"type": "unocc",
				"energy": -0.0253,
				"method": "rhf"
			},
			{
				"type": "unocc",
				"energy": 0.04724,
				"method": "rhf"
			},
			{
				"type": "unocc",
				"energy": 0.05341,
				"method": "rhf"
			},
			{
				"type": "unocc",
				"energy": 0.08399,
				"method": "rhf"
			},
			{
				"type": "unocc",
				"energy": 0.10348,
				"method": "rhf"
			}
		],
		"cosmo_sigma_profile": { 
			"-0.025": 0.0,
			"-0.024": 0.0,
			"-0.023": 0.0,
			"-0.022": 0.0,
			"-0.021": 0.0,
			"-0.02": 0.0,
			"-0.019": 0.0,
			"-0.018": 0.317802234299,
			"-0.017": 1.46057269804,
			"-0.016": 2.27776421695,
			"-0.015": 1.88002809704,
			"-0.014": 2.08331032414,
			"-0.013": 1.68331161392,
			"-0.012": 1.11595488058,
			"-0.011": 1.74310164719,
			"-0.01": 2.50758289794,
			"-0.009": 1.1906474216,
			"-0.008": 1.74145239985,
			"-0.007": 1.87624868051,
			"-0.006": 2.7031417624,
			"-0.005": 6.73130874873,
			"-0.004": 11.9525226231,
			"-0.003": 18.0907882907,
			"-0.002": 17.4863410528,
			"-0.001": 21.6463457455,
			"0.0": 22.1953151362,
			"0.001": 16.2201121043,
			"0.002": 7.89384793407,
			"0.003": 6.91105548288,
			"0.004": 6.8029768063,
			"0.005": 7.82582930642,
			"0.006": 5.8146167192,
			"0.007": 2.42415604915,
			"0.008": 2.82620064953,
			"0.009": 3.18867797909,
			"0.01": 3.24255793978,
			"0.011": 4.69432816772,
			"0.012": 5.80622405831,
			"0.013": 3.96796678407,
			"0.014": 1.32451636876,
			"0.015": 0.0,
			"0.016": 0.0,
			"0.017": 0.0,
			"0.018": 0.0,
			"0.019": 0.0,
			"0.02": 0.0,
			"0.021": 0.0,
			"0.022": 0.0,
			"0.023": 0.0,
			"0.024": 0.0,
			"0.025": 0.0
		}
	}
}
