{
	 "smiles": "OC(=O)C(=O)C1=CC(F)=C(F)C=C1", 
	 "Tm": 362.15, 
	 "num_atms": 17, 
	 "gaussian": { 
		 "optdone": 1, 
		 "sigma_profile": "yes", 
		 "theory": "DFT", 
		 "functional": "B3LYP", 
		 "basiset": "6-31G**", 
		 "properties": { 
			 "R2extent": 3497.913, 
			 "electric_dipole_moment_norm": 1.43927324022, 
			 "electric_quadrupole_moment_norm": 18.387838718, 
			 "total_energy": -732.597482138, 
			 "HOMO_LUMO_gap": 0.16258, 
			 "cosmo_polarized_energy": -8.68, 
			 "cosmo_cavitation_energy": 23.71, 
			 "cosmo_dispersion_energy": -17.34, 
			 "cosmo_repulsion_energy": 1.31, 
			 "cosmo_total_nonelectrostatic_energy": 7.68, 
			 "SMD_solvation_energy": 7.05 
		},
		"coords": [
			{
				"x": 4.4426182735,
				"y": -0.7268949514,
				"z": 2.1279243395,
				"element": "O" 
			},
			{
				"x": 3.8150256773,
				"y": 0.0554983446,
				"z": 1.2496716763,
				"element": "C" 
			},
			{
				"x": 4.3907845744,
				"y": 0.7614015197,
				"z": 0.4545437485,
				"element": "O" 
			},
			{
				"x": 2.2692198976,
				"y": -0.0752013718,
				"z": 1.4003384039,
				"element": "C" 
			},
			{
				"x": 1.8950928524,
				"y": -0.8532688174,
				"z": 2.2761864022,
				"element": "O" 
			},
			{
				"x": 1.3259123026,
				"y": 0.6783702262,
				"z": 0.5551606264,
				"element": "C" 
			},
			{
				"x": -0.0475913197,
				"y": 0.4648901185,
				"z": 0.7985903393,
				"element": "C" 
			},
			{
				"x": -0.986784651,
				"y": 1.1366919311,
				"z": 0.0453399785,
				"element": "C" 
			},
			{
				"x": -2.2988661371,
				"y": 0.9544684603,
				"z": 0.2534191057,
				"element": "F" 
			},
			{
				"x": -0.5817690901,
				"y": 2.0272544201,
				"z": -0.9571332497,
				"element": "C" 
			},
			{
				"x": -1.5181907253,
				"y": 2.6619254436,
				"z": -1.6684991776,
				"element": "F" 
			},
			{
				"x": 0.7661041183,
				"y": 2.2472978934,
				"z": -1.2079286179,
				"element": "C" 
			},
			{
				"x": 1.7255597569,
				"y": 1.5745586426,
				"z": -0.453708867,
				"element": "C" 
			},
			{
				"x": 3.7348713914,
				"y": -1.177958218,
				"z": 2.6368365192,
				"element": "H" 
			},
			{
				"x": -0.3629810736,
				"y": -0.2236988299,
				"z": 1.573786016,
				"element": "H" 
			},
			{
				"x": 1.0461981409,
				"y": 2.9430400678,
				"z": -1.9910920531,
				"element": "H" 
			},
			{
				"x": 2.7788960115,
				"y": 1.7358251207,
				"z": -0.6376351904,
				"element": "H" 
			}
		],
		 "valence_orbital": [ 
			{
				"type": "occ",
				"energy": -0.34393,
				"method": "rhf"
			},
			{
				"type": "occ",
				"energy": -0.33377,
				"method": "rhf"
			},
			{
				"type": "occ",
				"energy": -0.28704,
				"method": "rhf"
			},
			{
				"type": "occ",
				"energy": -0.27401,
				"method": "rhf"
			},
			{
				"type": "occ",
				"energy": -0.27374,
				"method": "rhf"
			},
			{
				"type": "unocc",
				"energy": -0.11116,
				"method": "rhf"
			},
			{
				"type": "unocc",
				"energy": -0.033,
				"method": "rhf"
			},
			{
				"type": "unocc",
				"energy": -0.02201,
				"method": "rhf"
			},
			{
				"type": "unocc",
				"energy": 0.05766,
				"method": "rhf"
			},
			{
				"type": "unocc",
				"energy": 0.06552,
				"method": "rhf"
			}
		],
		"cosmo_sigma_profile": { 
			"-0.025": 0.0,
			"-0.024": 0.0,
			"-0.023": 0.0,
			"-0.022": 0.0,
			"-0.021": 0.0,
			"-0.02": 0.0,
			"-0.019": 0.0,
			"-0.018": 0.0,
			"-0.017": 0.0,
			"-0.016": 0.0,
			"-0.015": 0.223605362867,
			"-0.014": 0.899989900566,
			"-0.013": 0.558910649419,
			"-0.012": 0.342165678089,
			"-0.011": 0.721297345539,
			"-0.01": 0.58420986108,
			"-0.009": 3.17837682053,
			"-0.008": 7.81802972562,
			"-0.007": 6.5846061805,
			"-0.006": 7.35672183506,
			"-0.005": 6.69312124517,
			"-0.004": 7.47474669794,
			"-0.003": 11.7930581865,
			"-0.002": 16.7649994703,
			"-0.001": 21.2478584925,
			"0.0": 16.311849235,
			"0.001": 11.8976560106,
			"0.002": 12.3384968933,
			"0.003": 22.0800244149,
			"0.004": 5.83322539256,
			"0.005": 3.45294690059,
			"0.006": 4.50923676085,
			"0.007": 4.97534594912,
			"0.008": 6.527701736,
			"0.009": 6.38897286629,
			"0.01": 3.0796238247,
			"0.011": 2.15168416548,
			"0.012": 0.413920051799,
			"0.013": 0.0,
			"0.014": 0.0,
			"0.015": 0.0,
			"0.016": 0.0,
			"0.017": 0.0,
			"0.018": 0.0,
			"0.019": 0.0,
			"0.02": 0.0,
			"0.021": 0.0,
			"0.022": 0.0,
			"0.023": 0.0,
			"0.024": 0.0,
			"0.025": 0.0
		}
	}
}
