{
	 "smiles": "ClCC(=O)NCC1=CC=C(C=C1)C(=O)N1CCCC1", 
	 "Tm": 402.15, 
	 "num_atms": 36, 
	 "gaussian": { 
		 "optdone": 1, 
		 "sigma_profile": "yes", 
		 "theory": "DFT", 
		 "functional": "B3LYP", 
		 "basiset": "6-31G**", 
		 "properties": { 
			 "R2extent": 9457.9922, 
			 "electric_dipole_moment_norm": 2.67962188564, 
			 "electric_quadrupole_moment_norm": 32.2104646083, 
			 "total_energy": -1263.90676241, 
			 "HOMO_LUMO_gap": 0.20097, 
			 "cosmo_polarized_energy": -20.5, 
			 "cosmo_cavitation_energy": 40.44, 
			 "cosmo_dispersion_energy": -28.52, 
			 "cosmo_repulsion_energy": 2.24, 
			 "cosmo_total_nonelectrostatic_energy": 14.16, 
			 "SMD_solvation_energy": 6.14 
		},
		"coords": [
			{
				"x": -1.236583301,
				"y": 6.032067029,
				"z": 1.9547885967,
				"element": "Cl" 
			},
			{
				"x": 0.083531408,
				"y": 4.7979316199,
				"z": 1.7562649658,
				"element": "C" 
			},
			{
				"x": 0.4352696803,
				"y": 4.1167370141,
				"z": 3.0800879877,
				"element": "C" 
			},
			{
				"x": 1.4741834665,
				"y": 4.3909771406,
				"z": 3.6626851535,
				"element": "O" 
			},
			{
				"x": -0.4492710015,
				"y": 3.1916628278,
				"z": 3.5627680576,
				"element": "N" 
			},
			{
				"x": -1.6571600056,
				"y": 2.6887549851,
				"z": 2.9250564465,
				"element": "C" 
			},
			{
				"x": -1.4489934332,
				"y": 1.6154398848,
				"z": 1.862083844,
				"element": "C" 
			},
			{
				"x": -2.4980714885,
				"y": 1.3199870544,
				"z": 0.9784387227,
				"element": "C" 
			},
			{
				"x": -2.3652415425,
				"y": 0.3157859886,
				"z": 0.0265641351,
				"element": "C" 
			},
			{
				"x": -1.1644957543,
				"y": -0.4001802238,
				"z": -0.0931266129,
				"element": "C" 
			},
			{
				"x": -0.1194558058,
				"y": -0.1104125738,
				"z": 0.7913979946,
				"element": "C" 
			},
			{
				"x": -0.2626986765,
				"y": 0.8837440631,
				"z": 1.7617683485,
				"element": "C" 
			},
			{
				"x": -1.124227266,
				"y": -1.5097108165,
				"z": -1.1096507026,
				"element": "C" 
			},
			{
				"x": -2.1396257019,
				"y": -2.1662228332,
				"z": -1.34590854,
				"element": "O" 
			},
			{
				"x": 0.05442957,
				"y": -1.782765562,
				"z": -1.752268168,
				"element": "N" 
			},
			{
				"x": 0.0498989142,
				"y": -2.8581744419,
				"z": -2.7630685968,
				"element": "C" 
			},
			{
				"x": 1.4155473717,
				"y": -2.7256901858,
				"z": -3.4514104387,
				"element": "C" 
			},
			{
				"x": 1.7321486775,
				"y": -1.2272735446,
				"z": -3.3202247931,
				"element": "C" 
			},
			{
				"x": 1.2212110579,
				"y": -0.8962049056,
				"z": -1.9103744526,
				"element": "C" 
			},
			{
				"x": 0.9687785363,
				"y": 5.3321660458,
				"z": 1.4195476644,
				"element": "H" 
			},
			{
				"x": -0.2526311337,
				"y": 4.0917781061,
				"z": 0.9953874141,
				"element": "H" 
			},
			{
				"x": -0.1507679858,
				"y": 2.7735707345,
				"z": 4.4338158074,
				"element": "H" 
			},
			{
				"x": -2.2167579758,
				"y": 3.5261415564,
				"z": 2.4971316659,
				"element": "H" 
			},
			{
				"x": -2.2926542589,
				"y": 2.2868161463,
				"z": 3.72285269,
				"element": "H" 
			},
			{
				"x": -3.4296822688,
				"y": 1.8777285946,
				"z": 1.04406295,
				"element": "H" 
			},
			{
				"x": -3.1860146682,
				"y": 0.0635726168,
				"z": -0.6363687705,
				"element": "H" 
			},
			{
				"x": 0.8046268808,
				"y": -0.6773316825,
				"z": 0.748577322,
				"element": "H" 
			},
			{
				"x": 0.5560513927,
				"y": 1.0893598582,
				"z": 2.4445218468,
				"element": "H" 
			},
			{
				"x": -0.7840235634,
				"y": -2.7019419751,
				"z": -3.4575763676,
				"element": "H" 
			},
			{
				"x": -0.1075542163,
				"y": -3.8308754931,
				"z": -2.2879964757,
				"element": "H" 
			},
			{
				"x": 1.3915013151,
				"y": -3.0732656663,
				"z": -4.4874835733,
				"element": "H" 
			},
			{
				"x": 2.1704374014,
				"y": -3.316385582,
				"z": -2.9195344652,
				"element": "H" 
			},
			{
				"x": 1.16818944,
				"y": -0.654442395,
				"z": -4.0652789304,
				"element": "H" 
			},
			{
				"x": 2.792656901,
				"y": -0.9915987064,
				"z": -3.4446189254,
				"element": "H" 
			},
			{
				"x": 1.995023942,
				"y": -1.1255373701,
				"z": -1.1643863962,
				"element": "H" 
			},
			{
				"x": 0.9388240917,
				"y": 0.1516926917,
				"z": -1.7870254042,
				"element": "H" 
			}
		],
		 "valence_orbital": [ 
			{
				"type": "occ",
				"energy": -0.26499,
				"method": "rhf"
			},
			{
				"type": "occ",
				"energy": -0.26078,
				"method": "rhf"
			},
			{
				"type": "occ",
				"energy": -0.25893,
				"method": "rhf"
			},
			{
				"type": "occ",
				"energy": -0.24248,
				"method": "rhf"
			},
			{
				"type": "occ",
				"energy": -0.2378,
				"method": "rhf"
			},
			{
				"type": "unocc",
				"energy": -0.03683,
				"method": "rhf"
			},
			{
				"type": "unocc",
				"energy": -0.02597,
				"method": "rhf"
			},
			{
				"type": "unocc",
				"energy": -0.01416,
				"method": "rhf"
			},
			{
				"type": "unocc",
				"energy": 0.04613,
				"method": "rhf"
			},
			{
				"type": "unocc",
				"energy": 0.05034,
				"method": "rhf"
			}
		],
		"cosmo_sigma_profile": { 
			"-0.025": 0.0,
			"-0.024": 0.0,
			"-0.023": 0.0,
			"-0.022": 0.0,
			"-0.021": 0.0,
			"-0.02": 0.0,
			"-0.019": 0.0,
			"-0.018": 0.0,
			"-0.017": 0.0,
			"-0.016": 0.0,
			"-0.015": 0.196584211689,
			"-0.014": 1.06153097944,
			"-0.013": 1.17950432757,
			"-0.012": 1.41937448849,
			"-0.011": 1.19328952231,
			"-0.01": 1.00708031166,
			"-0.009": 1.31421554571,
			"-0.008": 3.97305514972,
			"-0.007": 7.72233749796,
			"-0.006": 15.866493022,
			"-0.005": 20.2362046566,
			"-0.004": 29.3312856353,
			"-0.003": 36.4256383684,
			"-0.002": 33.5441053016,
			"-0.001": 24.3865237925,
			"0.0": 21.6057943125,
			"0.001": 17.0365565995,
			"0.002": 15.9290489019,
			"0.003": 15.9288235417,
			"0.004": 16.4525154106,
			"0.005": 13.7514741018,
			"0.006": 5.32395896109,
			"0.007": 3.35504720247,
			"0.008": 1.99456596783,
			"0.009": 2.42686633927,
			"0.01": 3.45206044461,
			"0.011": 3.62805197259,
			"0.012": 4.11967234545,
			"0.013": 8.39674117913,
			"0.014": 6.8171782609,
			"0.015": 2.01151782614,
			"0.016": 0.00765777042853,
			"0.017": 0.0,
			"0.018": 0.0,
			"0.019": 0.0,
			"0.02": 0.0,
			"0.021": 0.0,
			"0.022": 0.0,
			"0.023": 0.0,
			"0.024": 0.0,
			"0.025": 0.0
		}
	}
}
