{
	 "smiles": "CN(C)C1=NC(C=O)=CC=N1", 
	 "Tm": 324.15, 
	 "num_atms": 20, 
	 "gaussian": { 
		 "optdone": 1, 
		 "sigma_profile": "yes", 
		 "theory": "DFT", 
		 "functional": "B3LYP", 
		 "basiset": "6-31G**", 
		 "properties": { 
			 "R2extent": 2503.4118, 
			 "electric_dipole_moment_norm": 2.74285584382, 
			 "electric_quadrupole_moment_norm": 16.0432960152, 
			 "total_energy": -511.631060506, 
			 "HOMO_LUMO_gap": 0.13847, 
			 "cosmo_polarized_energy": -10.77, 
			 "cosmo_cavitation_energy": 24.25, 
			 "cosmo_dispersion_energy": -17.75, 
			 "cosmo_repulsion_energy": 1.43, 
			 "cosmo_total_nonelectrostatic_energy": 7.93, 
			 "SMD_solvation_energy": 3.88 
		},
		"coords": [
			{
				"x": 1.7214065744,
				"y": 0.8933963715,
				"z": 2.6413971238,
				"element": "C" 
			},
			{
				"x": 2.0704899451,
				"y": 0.6371430792,
				"z": 1.2541563744,
				"element": "N" 
			},
			{
				"x": 3.2631752328,
				"y": 1.3087134203,
				"z": 0.761740423,
				"element": "C" 
			},
			{
				"x": 1.327200498,
				"y": -0.1833745792,
				"z": 0.4562705227,
				"element": "C" 
			},
			{
				"x": 1.7362626465,
				"y": -0.3550628425,
				"z": -0.818395129,
				"element": "N" 
			},
			{
				"x": 0.9964735539,
				"y": -1.1602512826,
				"z": -1.5806060053,
				"element": "C" 
			},
			{
				"x": 1.4306286336,
				"y": -1.3679981421,
				"z": -3.0037499012,
				"element": "C" 
			},
			{
				"x": 2.4033270475,
				"y": -0.8576041474,
				"z": -3.5102553771,
				"element": "O" 
			},
			{
				"x": -0.149192543,
				"y": -1.809270589,
				"z": -1.1173526167,
				"element": "C" 
			},
			{
				"x": -0.482248745,
				"y": -1.56114593,
				"z": 0.2178111692,
				"element": "C" 
			},
			{
				"x": 0.2280689662,
				"y": -0.7669441266,
				"z": 1.0077838086,
				"element": "N" 
			},
			{
				"x": 2.5393122091,
				"y": 0.5799116856,
				"z": 3.303454825,
				"element": "H" 
			},
			{
				"x": 0.8191132247,
				"y": 0.3441580132,
				"z": 2.8987694845,
				"element": "H" 
			},
			{
				"x": 1.5511682329,
				"y": 1.9666567165,
				"z": 2.7985259114,
				"element": "H" 
			},
			{
				"x": 4.1377060338,
				"y": 1.0110719906,
				"z": 1.3548827012,
				"element": "H" 
			},
			{
				"x": 3.1483112432,
				"y": 2.3970684254,
				"z": 0.8484595149,
				"element": "H" 
			},
			{
				"x": 3.4263750602,
				"y": 1.0444617435,
				"z": -0.2804494254,
				"element": "H" 
			},
			{
				"x": 0.7666387655,
				"y": -2.0515859128,
				"z": -3.5791827365,
				"element": "H" 
			},
			{
				"x": -0.7409202084,
				"y": -2.4614631871,
				"z": -1.7494045396,
				"element": "H" 
			},
			{
				"x": -1.3598963709,
				"y": -2.0231807064,
				"z": 0.6688438719,
				"element": "H" 
			}
		],
		 "valence_orbital": [ 
			{
				"type": "occ",
				"energy": -0.31378,
				"method": "rhf"
			},
			{
				"type": "occ",
				"energy": -0.31078,
				"method": "rhf"
			},
			{
				"type": "occ",
				"energy": -0.26376,
				"method": "rhf"
			},
			{
				"type": "occ",
				"energy": -0.24596,
				"method": "rhf"
			},
			{
				"type": "occ",
				"energy": -0.21743,
				"method": "rhf"
			},
			{
				"type": "unocc",
				"energy": -0.07896,
				"method": "rhf"
			},
			{
				"type": "unocc",
				"energy": -0.01124,
				"method": "rhf"
			},
			{
				"type": "unocc",
				"energy": 0.03374,
				"method": "rhf"
			},
			{
				"type": "unocc",
				"energy": 0.09515,
				"method": "rhf"
			},
			{
				"type": "unocc",
				"energy": 0.10523,
				"method": "rhf"
			}
		],
		"cosmo_sigma_profile": { 
			"-0.025": 0.0,
			"-0.024": 0.0,
			"-0.023": 0.0,
			"-0.022": 0.0,
			"-0.021": 0.0,
			"-0.02": 0.0,
			"-0.019": 0.0,
			"-0.018": 0.0,
			"-0.017": 0.0,
			"-0.016": 0.0,
			"-0.015": 0.0,
			"-0.014": 0.0,
			"-0.013": 0.0,
			"-0.012": 0.0,
			"-0.011": 0.0,
			"-0.01": 0.0,
			"-0.009": 0.659696250476,
			"-0.008": 4.28214288146,
			"-0.007": 8.27309692755,
			"-0.006": 7.42800119516,
			"-0.005": 11.0353315469,
			"-0.004": 18.3519279434,
			"-0.003": 17.9367382623,
			"-0.002": 21.3160518782,
			"-0.001": 19.7210332778,
			"0.0": 15.193258723,
			"0.001": 14.0338206847,
			"0.002": 8.606988436,
			"0.003": 5.77959346497,
			"0.004": 4.46591334074,
			"0.005": 4.1139207785,
			"0.006": 3.98225669551,
			"0.007": 4.07208433316,
			"0.008": 3.89404062643,
			"0.009": 4.41110598891,
			"0.01": 5.83621676225,
			"0.011": 4.66150859363,
			"0.012": 2.8051021542,
			"0.013": 1.30773674314,
			"0.014": 0.919100958941,
			"0.015": 0.464214469673,
			"0.016": 2.95880302739e-05,
			"0.017": 0.0,
			"0.018": 0.0,
			"0.019": 0.0,
			"0.02": 0.0,
			"0.021": 0.0,
			"0.022": 0.0,
			"0.023": 0.0,
			"0.024": 0.0,
			"0.025": 0.0
		}
	}
}
