{
	 "smiles": "CCCCCCNC(=S)NCCCCCC", 
	 "Tm": 313.15, 
	 "num_atms": 44, 
	 "gaussian": { 
		 "optdone": 1, 
		 "sigma_profile": "yes", 
		 "theory": "DFT", 
		 "functional": "B3LYP", 
		 "basiset": "6-31G**", 
		 "properties": { 
			 "R2extent": 6842.9003, 
			 "electric_dipole_moment_norm": 5.51412564057, 
			 "electric_quadrupole_moment_norm": 17.2317470855, 
			 "total_energy": -1019.99859197, 
			 "HOMO_LUMO_gap": 0.20465, 
			 "cosmo_polarized_energy": -17.02, 
			 "cosmo_cavitation_energy": 45.38, 
			 "cosmo_dispersion_energy": -29.93, 
			 "cosmo_repulsion_energy": 2.4, 
			 "cosmo_total_nonelectrostatic_energy": 17.85, 
			 "SMD_solvation_energy": 5.26 
		},
		"coords": [
			{
				"x": 2.082067545,
				"y": 2.6214914933,
				"z": -2.9355695408,
				"element": "C" 
			},
			{
				"x": 1.1285731866,
				"y": 1.4796443637,
				"z": -2.5696858857,
				"element": "C" 
			},
			{
				"x": 0.7261619007,
				"y": 0.6305015004,
				"z": -3.7863480663,
				"element": "C" 
			},
			{
				"x": -0.2511037606,
				"y": -0.5285564169,
				"z": -3.4892491142,
				"element": "C" 
			},
			{
				"x": 0.3995801363,
				"y": -1.8968225682,
				"z": -3.2131709185,
				"element": "C" 
			},
			{
				"x": 1.3253303755,
				"y": -1.9878288514,
				"z": -1.9968086341,
				"element": "C" 
			},
			{
				"x": 0.5970230405,
				"y": -1.7343627668,
				"z": -0.7562286028,
				"element": "N" 
			},
			{
				"x": 1.1840618582,
				"y": -1.4056572446,
				"z": 0.4238570116,
				"element": "C" 
			},
			{
				"x": 2.82979487,
				"y": -1.0522354696,
				"z": 0.5849573623,
				"element": "S" 
			},
			{
				"x": 0.3683159903,
				"y": -1.3723364363,
				"z": 1.5190128111,
				"element": "N" 
			},
			{
				"x": -1.0851236651,
				"y": -1.4872363481,
				"z": 1.5589246915,
				"element": "C" 
			},
			{
				"x": -1.846116089,
				"y": -0.2305900741,
				"z": 1.093496767,
				"element": "C" 
			},
			{
				"x": -1.5650842279,
				"y": 1.0342508761,
				"z": 1.9200786881,
				"element": "C" 
			},
			{
				"x": -2.0493535346,
				"y": 0.9751059329,
				"z": 3.3758173931,
				"element": "C" 
			},
			{
				"x": -1.8225265444,
				"y": 2.2865266995,
				"z": 4.1398657562,
				"element": "C" 
			},
			{
				"x": -2.3023671324,
				"y": 2.2305193457,
				"z": 5.5935095122,
				"element": "C" 
			},
			{
				"x": 1.6366219361,
				"y": 3.2906312585,
				"z": -3.6814947352,
				"element": "H" 
			},
			{
				"x": 2.338232416,
				"y": 3.222535974,
				"z": -2.0573404414,
				"element": "H" 
			},
			{
				"x": 3.0181328972,
				"y": 2.2355567336,
				"z": -3.3551513654,
				"element": "H" 
			},
			{
				"x": 1.5930236747,
				"y": 0.8569484373,
				"z": -1.7968753016,
				"element": "H" 
			},
			{
				"x": 0.21791373,
				"y": 1.896278243,
				"z": -2.1167487051,
				"element": "H" 
			},
			{
				"x": 1.6293936247,
				"y": 0.2327910178,
				"z": -4.2715390843,
				"element": "H" 
			},
			{
				"x": 0.2659614383,
				"y": 1.2987016215,
				"z": -4.526361879,
				"element": "H" 
			},
			{
				"x": -0.9006631424,
				"y": -0.2480549082,
				"z": -2.6489571151,
				"element": "H" 
			},
			{
				"x": -0.9202866666,
				"y": -0.6626863512,
				"z": -4.3479795799,
				"element": "H" 
			},
			{
				"x": -0.3914249384,
				"y": -2.6562711185,
				"z": -3.1198611365,
				"element": "H" 
			},
			{
				"x": 0.9899952085,
				"y": -2.1943273496,
				"z": -4.0889435819,
				"element": "H" 
			},
			{
				"x": 2.141007522,
				"y": -1.2655168526,
				"z": -2.0554329381,
				"element": "H" 
			},
			{
				"x": 1.7943291398,
				"y": -2.9812042607,
				"z": -1.9609124061,
				"element": "H" 
			},
			{
				"x": -0.3608250099,
				"y": -2.0560790852,
				"z": -0.7356545304,
				"element": "H" 
			},
			{
				"x": 0.8496589096,
				"y": -1.07200601,
				"z": 2.3534896374,
				"element": "H" 
			},
			{
				"x": -1.3502445218,
				"y": -1.730302212,
				"z": 2.5919821544,
				"element": "H" 
			},
			{
				"x": -1.4016545279,
				"y": -2.3577830283,
				"z": 0.96791145,
				"element": "H" 
			},
			{
				"x": -1.5925522042,
				"y": -0.0333951396,
				"z": 0.0450715254,
				"element": "H" 
			},
			{
				"x": -2.9203036663,
				"y": -0.4603486384,
				"z": 1.1180274555,
				"element": "H" 
			},
			{
				"x": -0.4884945009,
				"y": 1.2480294414,
				"z": 1.8969750409,
				"element": "H" 
			},
			{
				"x": -2.0495963355,
				"y": 1.8836842315,
				"z": 1.4216030323,
				"element": "H" 
			},
			{
				"x": -3.1203445625,
				"y": 0.7253966747,
				"z": 3.3938526844,
				"element": "H" 
			},
			{
				"x": -1.5414439328,
				"y": 0.1623823281,
				"z": 3.9144059348,
				"element": "H" 
			},
			{
				"x": -0.753731499,
				"y": 2.538033275,
				"z": 4.115347017,
				"element": "H" 
			},
			{
				"x": -2.3373261022,
				"y": 3.1022178894,
				"z": 3.614406145,
				"element": "H" 
			},
			{
				"x": -1.7781605481,
				"y": 1.4485878252,
				"z": 6.1549289915,
				"element": "H" 
			},
			{
				"x": -3.375309988,
				"y": 2.0135293793,
				"z": 5.6493668804,
				"element": "H" 
			},
			{
				"x": -2.1286422996,
				"y": 3.1808565886,
				"z": 6.1084256203,
				"element": "H" 
			}
		],
		 "valence_orbital": [ 
			{
				"type": "occ",
				"energy": -0.31125,
				"method": "rhf"
			},
			{
				"type": "occ",
				"energy": -0.30944,
				"method": "rhf"
			},
			{
				"type": "occ",
				"energy": -0.2519,
				"method": "rhf"
			},
			{
				"type": "occ",
				"energy": -0.20191,
				"method": "rhf"
			},
			{
				"type": "occ",
				"energy": -0.1938,
				"method": "rhf"
			},
			{
				"type": "unocc",
				"energy": 0.01085,
				"method": "rhf"
			},
			{
				"type": "unocc",
				"energy": 0.04972,
				"method": "rhf"
			},
			{
				"type": "unocc",
				"energy": 0.06446,
				"method": "rhf"
			},
			{
				"type": "unocc",
				"energy": 0.08646,
				"method": "rhf"
			},
			{
				"type": "unocc",
				"energy": 0.08961,
				"method": "rhf"
			}
		],
		"cosmo_sigma_profile": { 
			"-0.025": 0.0,
			"-0.024": 0.0,
			"-0.023": 0.0,
			"-0.022": 0.0,
			"-0.021": 0.0,
			"-0.02": 0.0,
			"-0.019": 0.0,
			"-0.018": 0.0,
			"-0.017": 0.0,
			"-0.016": 0.0,
			"-0.015": 0.0,
			"-0.014": 0.395693605642,
			"-0.013": 1.56811775507,
			"-0.012": 1.5410018844,
			"-0.011": 2.39716458324,
			"-0.01": 2.36806611808,
			"-0.009": 2.55269508112,
			"-0.008": 3.36218184618,
			"-0.007": 3.67454723948,
			"-0.006": 4.28982457833,
			"-0.005": 5.91254772746,
			"-0.004": 11.0247251465,
			"-0.003": 25.20839529,
			"-0.002": 53.2668747576,
			"-0.001": 58.0591206445,
			"0.0": 55.6132741399,
			"0.001": 44.5052089199,
			"0.002": 24.4634695578,
			"0.003": 6.68017451181,
			"0.004": 4.70832566625,
			"0.005": 4.66654593946,
			"0.006": 3.81565357366,
			"0.007": 3.84358142398,
			"0.008": 3.71181876977,
			"0.009": 3.89470295995,
			"0.01": 4.64734275847,
			"0.011": 5.25066520938,
			"0.012": 6.70573864271,
			"0.013": 3.89137015762,
			"0.014": 0.101690137584,
			"0.015": 0.0,
			"0.016": 0.0,
			"0.017": 0.0,
			"0.018": 0.0,
			"0.019": 0.0,
			"0.02": 0.0,
			"0.021": 0.0,
			"0.022": 0.0,
			"0.023": 0.0,
			"0.024": 0.0,
			"0.025": 0.0
		}
	}
}
