{
	 "smiles": "COC(=O)C1=C(C)C2=C(S1)C=CC=C2", 
	 "Tm": 376.65, 
	 "num_atms": 24, 
	 "gaussian": { 
		 "optdone": 1, 
		 "sigma_profile": "yes", 
		 "theory": "DFT", 
		 "functional": "B3LYP", 
		 "basiset": "6-31G**", 
		 "properties": { 
			 "R2extent": 4213.3436, 
			 "electric_dipole_moment_norm": 2.99337138691, 
			 "electric_quadrupole_moment_norm": 16.0951986247, 
			 "total_energy": -973.850158769, 
			 "HOMO_LUMO_gap": 0.16118, 
			 "cosmo_polarized_energy": -9.11, 
			 "cosmo_cavitation_energy": 29.25, 
			 "cosmo_dispersion_energy": -21.94, 
			 "cosmo_repulsion_energy": 1.66, 
			 "cosmo_total_nonelectrostatic_energy": 8.97, 
			 "SMD_solvation_energy": 6.07 
		},
		"coords": [
			{
				"x": -0.1140758291,
				"y": -4.2732465717,
				"z": -1.9096506373,
				"element": "C" 
			},
			{
				"x": -0.1792299424,
				"y": -2.8992116231,
				"z": -1.4933910522,
				"element": "O" 
			},
			{
				"x": -1.4147501633,
				"y": -2.4691647076,
				"z": -1.1429810919,
				"element": "C" 
			},
			{
				"x": -2.4020649568,
				"y": -3.1814455448,
				"z": -1.1737535181,
				"element": "O" 
			},
			{
				"x": -1.4380660719,
				"y": -1.0594460676,
				"z": -0.7237502876,
				"element": "C" 
			},
			{
				"x": -0.4304533441,
				"y": -0.1261103208,
				"z": -0.6316561354,
				"element": "C" 
			},
			{
				"x": 1.0187420411,
				"y": -0.3643428657,
				"z": -0.9646047998,
				"element": "C" 
			},
			{
				"x": -0.9357619141,
				"y": 1.1464275826,
				"z": -0.1652968829,
				"element": "C" 
			},
			{
				"x": -2.3332093521,
				"y": 1.121377538,
				"z": 0.0807558283,
				"element": "C" 
			},
			{
				"x": -3.0215230109,
				"y": -0.4466545758,
				"z": -0.2562054893,
				"element": "S" 
			},
			{
				"x": -3.0185350664,
				"y": 2.2538162465,
				"z": 0.5386314205,
				"element": "C" 
			},
			{
				"x": -2.2998660672,
				"y": 3.422439335,
				"z": 0.7525587708,
				"element": "C" 
			},
			{
				"x": -0.9125310982,
				"y": 3.4690000472,
				"z": 0.5146452332,
				"element": "C" 
			},
			{
				"x": -0.2336711769,
				"y": 2.3487727867,
				"z": 0.0615212296,
				"element": "C" 
			},
			{
				"x": 0.9326191226,
				"y": -4.4556271166,
				"z": -2.1529707488,
				"element": "H" 
			},
			{
				"x": -0.7474518762,
				"y": -4.4411896222,
				"z": -2.7841531451,
				"element": "H" 
			},
			{
				"x": -0.443247709,
				"y": -4.9354300885,
				"z": -1.1051115205,
				"element": "H" 
			},
			{
				"x": 1.6121606394,
				"y": 0.5380818106,
				"z": -0.8066195353,
				"element": "H" 
			},
			{
				"x": 1.4394882789,
				"y": -1.1638818945,
				"z": -0.3486967864,
				"element": "H" 
			},
			{
				"x": 1.1389504777,
				"y": -0.6761719747,
				"z": -2.0057327035,
				"element": "H" 
			},
			{
				"x": -4.0880067912,
				"y": 2.2174992139,
				"z": 0.7219064989,
				"element": "H" 
			},
			{
				"x": -2.814331381,
				"y": 4.3105508315,
				"z": 1.1075126956,
				"element": "H" 
			},
			{
				"x": -0.3704646815,
				"y": 4.3935787364,
				"z": 0.688704942,
				"element": "H" 
			},
			{
				"x": 0.8357798726,
				"y": 2.3999788451,
				"z": -0.1173622847,
				"element": "H" 
			}
		],
		 "valence_orbital": [ 
			{
				"type": "occ",
				"energy": -0.30233,
				"method": "rhf"
			},
			{
				"type": "occ",
				"energy": -0.283,
				"method": "rhf"
			},
			{
				"type": "occ",
				"energy": -0.27618,
				"method": "rhf"
			},
			{
				"type": "occ",
				"energy": -0.23917,
				"method": "rhf"
			},
			{
				"type": "occ",
				"energy": -0.21911,
				"method": "rhf"
			},
			{
				"type": "unocc",
				"energy": -0.05793,
				"method": "rhf"
			},
			{
				"type": "unocc",
				"energy": -0.00641,
				"method": "rhf"
			},
			{
				"type": "unocc",
				"energy": 0.02091,
				"method": "rhf"
			},
			{
				"type": "unocc",
				"energy": 0.02589,
				"method": "rhf"
			},
			{
				"type": "unocc",
				"energy": 0.08414,
				"method": "rhf"
			}
		],
		"cosmo_sigma_profile": { 
			"-0.025": 0.0,
			"-0.024": 0.0,
			"-0.023": 0.0,
			"-0.022": 0.0,
			"-0.021": 0.0,
			"-0.02": 0.0,
			"-0.019": 0.0,
			"-0.018": 0.0,
			"-0.017": 0.0,
			"-0.016": 0.0,
			"-0.015": 0.0,
			"-0.014": 0.0,
			"-0.013": 0.0,
			"-0.012": 0.0,
			"-0.011": 0.0,
			"-0.01": 0.0,
			"-0.009": 0.0,
			"-0.008": 0.658625598651,
			"-0.007": 5.21247294501,
			"-0.006": 13.9143280016,
			"-0.005": 16.9022396245,
			"-0.004": 21.8732892929,
			"-0.003": 18.6784866775,
			"-0.002": 17.6977630069,
			"-0.001": 20.2442417419,
			"0.0": 15.9719828833,
			"0.001": 17.6850717025,
			"0.002": 21.0406253483,
			"0.003": 19.1307210378,
			"0.004": 20.2466827951,
			"0.005": 9.76720013084,
			"0.006": 1.73416101437,
			"0.007": 2.3832197804,
			"0.008": 1.5186296964,
			"0.009": 1.76858060971,
			"0.01": 2.18849299208,
			"0.011": 2.71330297091,
			"0.012": 4.44368825948,
			"0.013": 0.212226537698,
			"0.014": 0.0,
			"0.015": 0.0,
			"0.016": 0.0,
			"0.017": 0.0,
			"0.018": 0.0,
			"0.019": 0.0,
			"0.02": 0.0,
			"0.021": 0.0,
			"0.022": 0.0,
			"0.023": 0.0,
			"0.024": 0.0,
			"0.025": 0.0
		}
	}
}
