{
	 "smiles": "NC(=NO)C1=C(C=CN=C1)C(F)(F)F", 
	 "Tm": 457.15, 
	 "num_atms": 20, 
	 "gaussian": { 
		 "optdone": 1, 
		 "sigma_profile": "yes", 
		 "theory": "DFT", 
		 "functional": "B3LYP", 
		 "basiset": "6-31G**", 
		 "properties": { 
			 "R2extent": 2830.1508, 
			 "electric_dipole_moment_norm": 1.50776034236, 
			 "electric_quadrupole_moment_norm": 10.6628461477, 
			 "total_energy": -809.303706457, 
			 "HOMO_LUMO_gap": 0.15755, 
			 "cosmo_polarized_energy": -11.85, 
			 "cosmo_cavitation_energy": 25.63, 
			 "cosmo_dispersion_energy": -18.64, 
			 "cosmo_repulsion_energy": 1.42, 
			 "cosmo_total_nonelectrostatic_energy": 8.4, 
			 "SMD_solvation_energy": 3.9 
		},
		"coords": [
			{
				"x": -1.8579025141,
				"y": -0.9708523009,
				"z": -0.0121386128,
				"element": "N" 
			},
			{
				"x": -0.6789465736,
				"y": -0.4788568286,
				"z": -0.5105826682,
				"element": "C" 
			},
			{
				"x": -0.5271813052,
				"y": -0.0253589525,
				"z": -1.7143869909,
				"element": "N" 
			},
			{
				"x": -1.779099178,
				"y": -0.0696313311,
				"z": -2.3883042354,
				"element": "O" 
			},
			{
				"x": 0.5689099863,
				"y": -0.5485140069,
				"z": 0.2996037495,
				"element": "C" 
			},
			{
				"x": 0.7246879409,
				"y": -0.0766497712,
				"z": 1.6167198113,
				"element": "C" 
			},
			{
				"x": 1.9684222209,
				"y": -0.2068291755,
				"z": 2.2360216406,
				"element": "C" 
			},
			{
				"x": 3.0188002042,
				"y": -0.7875267524,
				"z": 1.5287653882,
				"element": "C" 
			},
			{
				"x": 2.901190737,
				"y": -1.2289031384,
				"z": 0.2720618696,
				"element": "N" 
			},
			{
				"x": 1.7065112854,
				"y": -1.1085481438,
				"z": -0.3097996637,
				"element": "C" 
			},
			{
				"x": -0.3952233932,
				"y": 0.5849492309,
				"z": 2.3862527721,
				"element": "C" 
			},
			{
				"x": -1.0672554326,
				"y": 1.4808919959,
				"z": 1.6418495822,
				"element": "F" 
			},
			{
				"x": 0.0534875496,
				"y": 1.2211199824,
				"z": 3.4835364591,
				"element": "F" 
			},
			{
				"x": -1.3085058137,
				"y": -0.3339910403,
				"z": 2.8220625518,
				"element": "F" 
			},
			{
				"x": -1.9626455241,
				"y": -1.0647769246,
				"z": 0.984514238,
				"element": "H" 
			},
			{
				"x": -2.6811030325,
				"y": -0.7055981359,
				"z": -0.5339107732,
				"element": "H" 
			},
			{
				"x": -1.5725127191,
				"y": 0.3711369453,
				"z": -3.2213566168,
				"element": "H" 
			},
			{
				"x": 2.11882863,
				"y": 0.1563264752,
				"z": 3.2452888893,
				"element": "H" 
			},
			{
				"x": 3.996949547,
				"y": -0.8961678637,
				"z": 1.9924755913,
				"element": "H" 
			},
			{
				"x": 1.6173873847,
				"y": -1.4713202639,
				"z": -1.3294729819,
				"element": "H" 
			}
		],
		 "valence_orbital": [ 
			{
				"type": "occ",
				"energy": -0.3087,
				"method": "rhf"
			},
			{
				"type": "occ",
				"energy": -0.28628,
				"method": "rhf"
			},
			{
				"type": "occ",
				"energy": -0.27624,
				"method": "rhf"
			},
			{
				"type": "occ",
				"energy": -0.26798,
				"method": "rhf"
			},
			{
				"type": "occ",
				"energy": -0.21723,
				"method": "rhf"
			},
			{
				"type": "unocc",
				"energy": -0.05968,
				"method": "rhf"
			},
			{
				"type": "unocc",
				"energy": -0.03525,
				"method": "rhf"
			},
			{
				"type": "unocc",
				"energy": 0.03996,
				"method": "rhf"
			},
			{
				"type": "unocc",
				"energy": 0.0715,
				"method": "rhf"
			},
			{
				"type": "unocc",
				"energy": 0.10392,
				"method": "rhf"
			}
		],
		"cosmo_sigma_profile": { 
			"-0.025": 0.0,
			"-0.024": 0.0,
			"-0.023": 0.0,
			"-0.022": 0.0,
			"-0.021": 0.0,
			"-0.02": 0.0,
			"-0.019": 0.0,
			"-0.018": 0.00981115718547,
			"-0.017": 0.615418081069,
			"-0.016": 0.900291954318,
			"-0.015": 1.08682294158,
			"-0.014": 0.856604490267,
			"-0.013": 0.626543230019,
			"-0.012": 1.21112411555,
			"-0.011": 1.65088694128,
			"-0.01": 2.95760368967,
			"-0.009": 2.44842514542,
			"-0.008": 5.74234186209,
			"-0.007": 8.69485619215,
			"-0.006": 7.37753243012,
			"-0.005": 7.82435163073,
			"-0.004": 7.81280426461,
			"-0.003": 9.51354613296,
			"-0.002": 13.6139391477,
			"-0.001": 17.3631014051,
			"0.0": 16.9759919897,
			"0.001": 20.05374271,
			"0.002": 28.6618861412,
			"0.003": 6.54605304086,
			"0.004": 4.35828543948,
			"0.005": 4.86345939896,
			"0.006": 6.38622413185,
			"0.007": 6.38310266439,
			"0.008": 5.44129286735,
			"0.009": 3.56036925308,
			"0.01": 4.44007514624,
			"0.011": 1.62889384696,
			"0.012": 1.49110765883,
			"0.013": 2.13436219639,
			"0.014": 1.35153051471,
			"0.015": 0.696160941449,
			"0.016": 0.188354163755,
			"0.017": 0.0,
			"0.018": 0.0,
			"0.019": 0.0,
			"0.02": 0.0,
			"0.021": 0.0,
			"0.022": 0.0,
			"0.023": 0.0,
			"0.024": 0.0,
			"0.025": 0.0
		}
	}
}
