{
	 "smiles": "CC1=CC=CC=C1NC(=N)NC1=CC=CC=C1C", 
	 "Tm": 451.15, 
	 "num_atms": 35, 
	 "gaussian": { 
		 "optdone": 1, 
		 "sigma_profile": "yes", 
		 "theory": "DFT", 
		 "functional": "B3LYP", 
		 "basiset": "6-31G**", 
		 "properties": { 
			 "R2extent": 6561.6459, 
			 "electric_dipole_moment_norm": 2.36148865761, 
			 "electric_quadrupole_moment_norm": 16.3699169915, 
			 "total_energy": -746.109788576, 
			 "HOMO_LUMO_gap": 0.19502, 
			 "cosmo_polarized_energy": -12.69, 
			 "cosmo_cavitation_energy": 37.69, 
			 "cosmo_dispersion_energy": -26.3, 
			 "cosmo_repulsion_energy": 2.03, 
			 "cosmo_total_nonelectrostatic_energy": 13.42, 
			 "SMD_solvation_energy": 5.5 
		},
		"coords": [
			{
				"x": -0.0455347729,
				"y": 2.0418559567,
				"z": 1.3040319361,
				"element": "C" 
			},
			{
				"x": -0.024565743,
				"y": 1.1207353623,
				"z": 2.498834577,
				"element": "C" 
			},
			{
				"x": 0.0205787348,
				"y": 1.6377937641,
				"z": 3.8006567237,
				"element": "C" 
			},
			{
				"x": -0.0303323421,
				"y": 0.8105599933,
				"z": 4.9223032565,
				"element": "C" 
			},
			{
				"x": -0.1251567646,
				"y": -0.5717718905,
				"z": 4.7602252105,
				"element": "C" 
			},
			{
				"x": -0.1443405785,
				"y": -1.1113391677,
				"z": 3.4757183572,
				"element": "C" 
			},
			{
				"x": -0.0887385534,
				"y": -0.2818214323,
				"z": 2.3486373948,
				"element": "C" 
			},
			{
				"x": -0.1599474544,
				"y": -0.8642234278,
				"z": 1.0515295702,
				"element": "N" 
			},
			{
				"x": 0.9082293431,
				"y": -0.89486025,
				"z": 0.1600154535,
				"element": "C" 
			},
			{
				"x": 2.0631650713,
				"y": -0.348577073,
				"z": 0.2965062292,
				"element": "N" 
			},
			{
				"x": 0.6332712028,
				"y": -1.5167345801,
				"z": -1.0610121986,
				"element": "N" 
			},
			{
				"x": -0.2592286174,
				"y": -2.5694381001,
				"z": -1.344179045,
				"element": "C" 
			},
			{
				"x": -0.5876156316,
				"y": -3.5485729893,
				"z": -0.3914998663,
				"element": "C" 
			},
			{
				"x": -1.4868126043,
				"y": -4.5695665299,
				"z": -0.7006634653,
				"element": "C" 
			},
			{
				"x": -2.042045422,
				"y": -4.6477015273,
				"z": -1.9760393003,
				"element": "C" 
			},
			{
				"x": -1.6886956159,
				"y": -3.6957134803,
				"z": -2.9346040656,
				"element": "C" 
			},
			{
				"x": -0.8106918009,
				"y": -2.6479140324,
				"z": -2.6450662147,
				"element": "C" 
			},
			{
				"x": -0.4560470591,
				"y": -1.6184594615,
				"z": -3.6888997249,
				"element": "C" 
			},
			{
				"x": 0.8742727762,
				"y": 1.9674573085,
				"z": 0.7138170687,
				"element": "H" 
			},
			{
				"x": -0.8678625925,
				"y": 1.780929264,
				"z": 0.6296083425,
				"element": "H" 
			},
			{
				"x": -0.1701307039,
				"y": 3.0813158714,
				"z": 1.6180608621,
				"element": "H" 
			},
			{
				"x": 0.0743824795,
				"y": 2.7156075899,
				"z": 3.9312574176,
				"element": "H" 
			},
			{
				"x": -0.0042442704,
				"y": 1.24503034,
				"z": 5.9174038606,
				"element": "H" 
			},
			{
				"x": -0.1704940133,
				"y": -1.2269866905,
				"z": 5.6250609988,
				"element": "H" 
			},
			{
				"x": -0.1940460717,
				"y": -2.1873408101,
				"z": 3.3326448163,
				"element": "H" 
			},
			{
				"x": -0.9179962172,
				"y": -1.5092534554,
				"z": 0.8811910631,
				"element": "H" 
			},
			{
				"x": 2.1425061764,
				"y": 0.1097320435,
				"z": 1.2025979774,
				"element": "H" 
			},
			{
				"x": 1.3812431893,
				"y": -1.3507835309,
				"z": -1.7207487236,
				"element": "H" 
			},
			{
				"x": -0.1061743072,
				"y": -3.5298065012,
				"z": 0.5809898081,
				"element": "H" 
			},
			{
				"x": -1.7302807715,
				"y": -5.314154211,
				"z": 0.0518612659,
				"element": "H" 
			},
			{
				"x": -2.7374607369,
				"y": -5.4426536923,
				"z": -2.2273906802,
				"element": "H" 
			},
			{
				"x": -2.1154817846,
				"y": -3.7554443888,
				"z": -3.9328068691,
				"element": "H" 
			},
			{
				"x": 0.5868756921,
				"y": -1.7112419659,
				"z": -4.0216694524,
				"element": "H" 
			},
			{
				"x": -0.5735034471,
				"y": -0.6020644245,
				"z": -3.2978093061,
				"element": "H" 
			},
			{
				"x": -1.0875967891,
				"y": -1.7260938809,
				"z": -4.5743632775,
				"element": "H" 
			}
		],
		 "valence_orbital": [ 
			{
				"type": "occ",
				"energy": -0.25542,
				"method": "rhf"
			},
			{
				"type": "occ",
				"energy": -0.24784,
				"method": "rhf"
			},
			{
				"type": "occ",
				"energy": -0.24526,
				"method": "rhf"
			},
			{
				"type": "occ",
				"energy": -0.22474,
				"method": "rhf"
			},
			{
				"type": "occ",
				"energy": -0.20585,
				"method": "rhf"
			},
			{
				"type": "unocc",
				"energy": -0.01083,
				"method": "rhf"
			},
			{
				"type": "unocc",
				"energy": -0.00357,
				"method": "rhf"
			},
			{
				"type": "unocc",
				"energy": -0.00296,
				"method": "rhf"
			},
			{
				"type": "unocc",
				"energy": -0.00226,
				"method": "rhf"
			},
			{
				"type": "unocc",
				"energy": 0.06844,
				"method": "rhf"
			}
		],
		"cosmo_sigma_profile": { 
			"-0.025": 0.0,
			"-0.024": 0.0,
			"-0.023": 0.0,
			"-0.022": 0.0,
			"-0.021": 0.0,
			"-0.02": 0.0,
			"-0.019": 0.0,
			"-0.018": 0.0,
			"-0.017": 0.0,
			"-0.016": 0.0,
			"-0.015": 0.0,
			"-0.014": 0.0,
			"-0.013": 0.0,
			"-0.012": 0.627061361525,
			"-0.011": 1.6643085488,
			"-0.01": 2.1468220933,
			"-0.009": 2.30248677333,
			"-0.008": 2.50052082979,
			"-0.007": 3.06505199558,
			"-0.006": 10.9682473899,
			"-0.005": 23.2999855537,
			"-0.004": 26.2087267682,
			"-0.003": 27.2874373281,
			"-0.002": 23.201113948,
			"-0.001": 24.3315383659,
			"0.0": 27.1902497592,
			"0.001": 22.7964311137,
			"0.002": 19.3367373659,
			"0.003": 18.5973631543,
			"0.004": 18.3826273577,
			"0.005": 18.1040312947,
			"0.006": 11.7715537918,
			"0.007": 1.51417475993,
			"0.008": 1.29196775969,
			"0.009": 1.63892778178,
			"0.01": 1.15652776386,
			"0.011": 0.829215557026,
			"0.012": 1.02612432508,
			"0.013": 1.52343946437,
			"0.014": 0.909455661821,
			"0.015": 1.25727794324,
			"0.016": 0.840972049859,
			"0.017": 1.38583433898,
			"0.018": 1.30083562945,
			"0.019": 0.620316875556,
			"0.02": 0.0,
			"0.021": 0.0,
			"0.022": 0.0,
			"0.023": 0.0,
			"0.024": 0.0,
			"0.025": 0.0
		}
	}
}
