{
	 "smiles": "CN1C(=O)[C@@]2(Cl)[C@@H](C(=C)[C@@]2(Cl)C1=O)C1=CC=CC=C1", 
	 "Tm": 407.5, 
	 "num_atms": 30, 
	 "gaussian": { 
		 "optdone": 1, 
		 "sigma_profile": "yes", 
		 "theory": "DFT", 
		 "functional": "B3LYP", 
		 "basiset": "6-31G**", 
		 "properties": { 
			 "R2extent": 5549.8604, 
			 "electric_dipole_moment_norm": 2.90435907904, 
			 "electric_quadrupole_moment_norm": 12.7437623813, 
			 "total_energy": -1665.67491971, 
			 "HOMO_LUMO_gap": 0.19358, 
			 "cosmo_polarized_energy": -13.91, 
			 "cosmo_cavitation_energy": 37.68, 
			 "cosmo_dispersion_energy": -25.11, 
			 "cosmo_repulsion_energy": 1.93, 
			 "cosmo_total_nonelectrostatic_energy": 14.5, 
			 "SMD_solvation_energy": 7.62 
		},
		"coords": [
			{
				"x": 3.4309450543,
				"y": -0.965952438,
				"z": 2.6588018391,
				"element": "C" 
			},
			{
				"x": 2.3103671747,
				"y": -0.2668998968,
				"z": 2.0424004156,
				"element": "N" 
			},
			{
				"x": 2.125024934,
				"y": -0.2054407736,
				"z": 0.6604287387,
				"element": "C" 
			},
			{
				"x": 2.8561609101,
				"y": -0.7089287095,
				"z": -0.1612351159,
				"element": "O" 
			},
			{
				"x": 0.8132118565,
				"y": 0.543779179,
				"z": 0.4059169252,
				"element": "C" 
			},
			{
				"x": 1.0146650449,
				"y": 1.7681476708,
				"z": -0.8574027899,
				"element": "Cl" 
			},
			{
				"x": -0.439213559,
				"y": -0.441948407,
				"z": 0.2843935833,
				"element": "C" 
			},
			{
				"x": -0.920620063,
				"y": 0.1027242655,
				"z": 1.62694123,
				"element": "C" 
			},
			{
				"x": -2.0103759313,
				"y": -0.066879716,
				"z": 2.3666719407,
				"element": "C" 
			},
			{
				"x": 0.3058945857,
				"y": 0.9751062162,
				"z": 1.8209280879,
				"element": "C" 
			},
			{
				"x": 0.0280772723,
				"y": 2.7012015145,
				"z": 2.1979672293,
				"element": "Cl" 
			},
			{
				"x": 1.3403016409,
				"y": 0.3841160901,
				"z": 2.7986933123,
				"element": "C" 
			},
			{
				"x": 1.3212991044,
				"y": 0.4334791752,
				"z": 4.0060789719,
				"element": "O" 
			},
			{
				"x": -1.3393286221,
				"y": -0.3460563197,
				"z": -0.924890088,
				"element": "C" 
			},
			{
				"x": -1.1826818011,
				"y": -1.270989534,
				"z": -1.9660792206,
				"element": "C" 
			},
			{
				"x": -1.9849223975,
				"y": -1.2042421,
				"z": -3.1047960768,
				"element": "C" 
			},
			{
				"x": -2.9581600373,
				"y": -0.2097517247,
				"z": -3.2157163626,
				"element": "C" 
			},
			{
				"x": -3.1213570354,
				"y": 0.7161158905,
				"z": -2.1836460015,
				"element": "C" 
			},
			{
				"x": -2.3175379298,
				"y": 0.6496627528,
				"z": -1.045635851,
				"element": "C" 
			},
			{
				"x": 4.147984029,
				"y": -0.2485037505,
				"z": 3.06664411,
				"element": "H" 
			},
			{
				"x": 3.9110277884,
				"y": -1.5676464641,
				"z": 1.8873583455,
				"element": "H" 
			},
			{
				"x": 3.062726456,
				"y": -1.5957484245,
				"z": 3.4707917116,
				"element": "H" 
			},
			{
				"x": -0.0816893266,
				"y": -1.4756517798,
				"z": 0.3626320215,
				"element": "H" 
			},
			{
				"x": -2.8105503862,
				"y": -0.7275130862,
				"z": 2.0470250151,
				"element": "H" 
			},
			{
				"x": -2.1396269527,
				"y": 0.4678919542,
				"z": 3.3025408805,
				"element": "H" 
			},
			{
				"x": -0.4244138441,
				"y": -2.0457376803,
				"z": -1.884668271,
				"element": "H" 
			},
			{
				"x": -1.8517859496,
				"y": -1.9302129717,
				"z": -3.9015677772,
				"element": "H" 
			},
			{
				"x": -3.5868272114,
				"y": -0.1578129229,
				"z": -4.0998972485,
				"element": "H" 
			},
			{
				"x": -3.8761874847,
				"y": 1.4930833339,
				"z": -2.2630605337,
				"element": "H" 
			},
			{
				"x": -2.4530073194,
				"y": 1.3708086565,
				"z": -0.2460190215,
				"element": "H" 
			}
		],
		 "valence_orbital": [ 
			{
				"type": "occ",
				"energy": -0.29382,
				"method": "rhf"
			},
			{
				"type": "occ",
				"energy": -0.28099,
				"method": "rhf"
			},
			{
				"type": "occ",
				"energy": -0.27252,
				"method": "rhf"
			},
			{
				"type": "occ",
				"energy": -0.2574,
				"method": "rhf"
			},
			{
				"type": "occ",
				"energy": -0.25316,
				"method": "rhf"
			},
			{
				"type": "unocc",
				"energy": -0.05958,
				"method": "rhf"
			},
			{
				"type": "unocc",
				"energy": -0.04215,
				"method": "rhf"
			},
			{
				"type": "unocc",
				"energy": -0.0184,
				"method": "rhf"
			},
			{
				"type": "unocc",
				"energy": -0.00932,
				"method": "rhf"
			},
			{
				"type": "unocc",
				"energy": 0.01066,
				"method": "rhf"
			}
		],
		"cosmo_sigma_profile": { 
			"-0.025": 0.0,
			"-0.024": 0.0,
			"-0.023": 0.0,
			"-0.022": 0.0,
			"-0.021": 0.0,
			"-0.02": 0.0,
			"-0.019": 0.0,
			"-0.018": 0.0,
			"-0.017": 0.0,
			"-0.016": 0.0,
			"-0.015": 0.0,
			"-0.014": 0.0,
			"-0.013": 0.0,
			"-0.012": 0.0152060563879,
			"-0.011": 0.461476966269,
			"-0.01": 1.09283834997,
			"-0.009": 1.91071374466,
			"-0.008": 4.13712831899,
			"-0.007": 10.9013837203,
			"-0.006": 19.3630680865,
			"-0.005": 23.8403453689,
			"-0.004": 27.2561242968,
			"-0.003": 24.0731772059,
			"-0.002": 19.1790105476,
			"-0.001": 17.7684883864,
			"0.0": 18.3717847177,
			"0.001": 18.0114602745,
			"0.002": 19.2518646173,
			"0.003": 20.7449746934,
			"0.004": 23.6033569682,
			"0.005": 18.6046787361,
			"0.006": 9.07876916318,
			"0.007": 3.59893033028,
			"0.008": 4.4552538174,
			"0.009": 4.65657453323,
			"0.01": 8.67915451817,
			"0.011": 5.80393462192,
			"0.012": 0.485044024956,
			"0.013": 0.0,
			"0.014": 0.0,
			"0.015": 0.0,
			"0.016": 0.0,
			"0.017": 0.0,
			"0.018": 0.0,
			"0.019": 0.0,
			"0.02": 0.0,
			"0.021": 0.0,
			"0.022": 0.0,
			"0.023": 0.0,
			"0.024": 0.0,
			"0.025": 0.0
		}
	}
}
