{
	 "smiles": "IC1=CN=C(C=C1)N1CCOCC1", 
	 "Tm": 406.15, 
	 "num_atms": 24, 
	 "gaussian": { 
		 "optdone": 1, 
		 "sigma_profile": "no", 
		 "theory": "DFT", 
		 "functional": "B3LYP", 
		 "basiset": "6-31G**", 
		 "properties": { 
			 "R2extent": 3229.9966, 
			 "electric_dipole_moment_norm": 2.56980281539, 
			 "electric_quadrupole_moment_norm": 11.2903438778, 
			 "total_energy": -545.676099486, 
			 "HOMO_LUMO_gap": 0.1694, 
			 "cosmo_polarized_energy": -109052.62, 
			 "cosmo_cavitation_energy": 29.41, 
			 "cosmo_dispersion_energy": -23.68, 
			 "cosmo_repulsion_energy": 1.84, 
			 "cosmo_total_nonelectrostatic_energy": 7.57, 
			 "SMD_solvation_energy": 2.33 
		},
		"coords": [
			{
				"x": -3.8097833213,
				"y": -1.9697326746,
				"z": 2.3939804727,
				"element": "I" 
			},
			{
				"x": -1.9944793177,
				"y": -1.3801123585,
				"z": 1.4833092112,
				"element": "C" 
			},
			{
				"x": -1.8338802063,
				"y": -0.0830993072,
				"z": 0.9980754888,
				"element": "C" 
			},
			{
				"x": -0.7111802556,
				"y": 0.3456294434,
				"z": 0.4213907375,
				"element": "N" 
			},
			{
				"x": 0.3269991242,
				"y": -0.5035822998,
				"z": 0.2878052285,
				"element": "C" 
			},
			{
				"x": 0.2479476071,
				"y": -1.8410786372,
				"z": 0.7524546657,
				"element": "C" 
			},
			{
				"x": -0.9249078423,
				"y": -2.2716164388,
				"z": 1.3532201479,
				"element": "C" 
			},
			{
				"x": 1.4618663647,
				"y": -0.0192812,
				"z": -0.3176095129,
				"element": "N" 
			},
			{
				"x": 1.5483438461,
				"y": 1.3510817882,
				"z": -0.8126119344,
				"element": "C" 
			},
			{
				"x": 2.146570764,
				"y": 1.3680403109,
				"z": -2.2202921044,
				"element": "C" 
			},
			{
				"x": 3.3177112582,
				"y": 0.5513645635,
				"z": -2.3541917476,
				"element": "O" 
			},
			{
				"x": 3.7584740509,
				"y": -0.0369449254,
				"z": -1.1456354814,
				"element": "C" 
			},
			{
				"x": 2.6490634847,
				"y": -0.8535292299,
				"z": -0.4811971642,
				"element": "C" 
			},
			{
				"x": -2.6400514559,
				"y": 0.6427300484,
				"z": 1.0777919824,
				"element": "H" 
			},
			{
				"x": 1.0781442916,
				"y": -2.5275028198,
				"z": 0.6438039921,
				"element": "H" 
			},
			{
				"x": -1.0046885685,
				"y": -3.2914729574,
				"z": 1.7145024467,
				"element": "H" 
			},
			{
				"x": 2.1481435783,
				"y": 1.9706667933,
				"z": -0.1304942489,
				"element": "H" 
			},
			{
				"x": 0.543166575,
				"y": 1.7717871264,
				"z": -0.8261915153,
				"element": "H" 
			},
			{
				"x": 2.3976313258,
				"y": 2.40205049,
				"z": -2.495653693,
				"element": "H" 
			},
			{
				"x": 1.407666654,
				"y": 0.9954288379,
				"z": -2.9405203501,
				"element": "H" 
			},
			{
				"x": 4.147199454,
				"y": 0.7182007353,
				"z": -0.4445194509,
				"element": "H" 
			},
			{
				"x": 4.5895900309,
				"y": -0.6972958826,
				"z": -1.4078682588,
				"element": "H" 
			},
			{
				"x": 2.4190413086,
				"y": -1.7245333624,
				"z": -1.1117820775,
				"element": "H" 
			},
			{
				"x": 3.0054112494,
				"y": -1.2313980438,
				"z": 0.489633166,
				"element": "H" 
			}
		],
		 "valence_orbital": [ 
			{
				"type": "occ",
				"energy": -0.27089,
				"method": "rhf"
			},
			{
				"type": "occ",
				"energy": -0.26266,
				"method": "rhf"
			},
			{
				"type": "occ",
				"energy": -0.25969,
				"method": "rhf"
			},
			{
				"type": "occ",
				"energy": -0.25698,
				"method": "rhf"
			},
			{
				"type": "occ",
				"energy": -0.20361,
				"method": "rhf"
			},
			{
				"type": "unocc",
				"energy": -0.03421,
				"method": "rhf"
			},
			{
				"type": "unocc",
				"energy": -0.02672,
				"method": "rhf"
			},
			{
				"type": "unocc",
				"energy": -0.00289,
				"method": "rhf"
			},
			{
				"type": "unocc",
				"energy": 0.04502,
				"method": "rhf"
			},
			{
				"type": "unocc",
				"energy": 0.05224,
				"method": "rhf"
			}
		],
		"cosmo_sigma_profile": { 
			"0.0": 0.0,
			"0.0": 0.0,
			"0.0": 0.0,
			"0.0": 0.0,
			"0.0": 0.0,
			"0.0": 0.0,
			"0.0": 0.0,
			"0.0": 0.0,
			"0.0": 0.0,
			"0.0": 0.0,
			"0.0": 0.0,
			"0.0": 0.0,
			"0.0": 0.0,
			"0.0": 0.0,
			"0.0": 0.0,
			"0.0": 0.0,
			"0.0": 0.0,
			"0.0": 0.0,
			"0.0": 0.0,
			"0.0": 0.0,
			"0.0": 0.0,
			"0.0": 0.0,
			"0.0": 0.0,
			"0.0": 0.0,
			"0.0": 0.0,
			"0.0": 0.0,
			"0.0": 0.0,
			"0.0": 0.0,
			"0.0": 0.0,
			"0.0": 0.0,
			"0.0": 0.0,
			"0.0": 0.0,
			"0.0": 0.0,
			"0.0": 0.0,
			"0.0": 0.0,
			"0.0": 0.0,
			"0.0": 0.0,
			"0.0": 0.0,
			"0.0": 0.0,
			"0.0": 0.0,
			"0.0": 0.0,
			"0.0": 0.0,
			"0.0": 0.0,
			"0.0": 0.0,
			"0.0": 0.0,
			"0.0": 0.0,
			"0.0": 0.0,
			"0.0": 0.0,
			"0.0": 0.0,
			"0.0": 0.0,
			"0.0": 0.0
		}
	}
}
