{
	 "smiles": "NC(=O)C1=C(Cl)C=CC(N)=C1", 
	 "Tm": 427.15, 
	 "num_atms": 18, 
	 "gaussian": { 
		 "optdone": 1, 
		 "sigma_profile": "yes", 
		 "theory": "DFT", 
		 "functional": "B3LYP", 
		 "basiset": "6-31G**", 
		 "properties": { 
			 "R2extent": 2325.9834, 
			 "electric_dipole_moment_norm": 5.46679666075, 
			 "electric_quadrupole_moment_norm": 12.7468043148, 
			 "total_energy": -915.89736112, 
			 "HOMO_LUMO_gap": 0.18168, 
			 "cosmo_polarized_energy": -19.6, 
			 "cosmo_cavitation_energy": 24.3, 
			 "cosmo_dispersion_energy": -18.0, 
			 "cosmo_repulsion_energy": 1.48, 
			 "cosmo_total_nonelectrostatic_energy": 7.78, 
			 "SMD_solvation_energy": 4.68 
		},
		"coords": [
			{
				"x": 0.6154142025,
				"y": -0.7715919779,
				"z": -2.53961197,
				"element": "N" 
			},
			{
				"x": -0.2078888117,
				"y": -0.9527251357,
				"z": -1.4524717082,
				"element": "C" 
			},
			{
				"x": -0.7099844656,
				"y": -2.0305974183,
				"z": -1.1822096987,
				"element": "O" 
			},
			{
				"x": -0.3665162735,
				"y": 0.2766931668,
				"z": -0.589026273,
				"element": "C" 
			},
			{
				"x": -1.6119654529,
				"y": 0.7127988582,
				"z": -0.1143856164,
				"element": "C" 
			},
			{
				"x": -3.1116149869,
				"y": -0.0691547165,
				"z": -0.5866499191,
				"element": "Cl" 
			},
			{
				"x": -1.6868197135,
				"y": 1.8276041841,
				"z": 0.7211883638,
				"element": "C" 
			},
			{
				"x": -0.5353312797,
				"y": 2.5056694104,
				"z": 1.1060118048,
				"element": "C" 
			},
			{
				"x": 0.725674867,
				"y": 2.0877831203,
				"z": 0.6502009608,
				"element": "C" 
			},
			{
				"x": 1.8818070808,
				"y": 2.7903041386,
				"z": 0.9881590991,
				"element": "N" 
			},
			{
				"x": 0.7842398283,
				"y": 0.9765019447,
				"z": -0.2046347485,
				"element": "C" 
			},
			{
				"x": 0.783060647,
				"y": 0.1553567613,
				"z": -2.8995247104,
				"element": "H" 
			},
			{
				"x": 0.6674855426,
				"y": -1.5437118468,
				"z": -3.1890318556,
				"element": "H" 
			},
			{
				"x": -2.6567970279,
				"y": 2.1630429692,
				"z": 1.0718221631,
				"element": "H" 
			},
			{
				"x": -0.6146943258,
				"y": 3.3684132042,
				"z": 1.7622430102,
				"element": "H" 
			},
			{
				"x": 2.7403958759,
				"y": 2.2597061491,
				"z": 0.9359880696,
				"element": "H" 
			},
			{
				"x": 1.8245357828,
				"y": 3.3304322622,
				"z": 1.8404025473,
				"element": "H" 
			},
			{
				"x": 1.7489985106,
				"y": 0.6278749259,
				"z": -0.5630695188,
				"element": "H" 
			}
		],
		 "valence_orbital": [ 
			{
				"type": "occ",
				"energy": -0.29345,
				"method": "rhf"
			},
			{
				"type": "occ",
				"energy": -0.26961,
				"method": "rhf"
			},
			{
				"type": "occ",
				"energy": -0.26603,
				"method": "rhf"
			},
			{
				"type": "occ",
				"energy": -0.24586,
				"method": "rhf"
			},
			{
				"type": "occ",
				"energy": -0.21048,
				"method": "rhf"
			},
			{
				"type": "unocc",
				"energy": -0.0288,
				"method": "rhf"
			},
			{
				"type": "unocc",
				"energy": -0.00318,
				"method": "rhf"
			},
			{
				"type": "unocc",
				"energy": 0.03701,
				"method": "rhf"
			},
			{
				"type": "unocc",
				"energy": 0.04609,
				"method": "rhf"
			},
			{
				"type": "unocc",
				"energy": 0.07361,
				"method": "rhf"
			}
		],
		"cosmo_sigma_profile": { 
			"-0.025": 0.0,
			"-0.024": 0.0,
			"-0.023": 0.0,
			"-0.022": 0.0,
			"-0.021": 0.0,
			"-0.02": 0.0,
			"-0.019": 0.0,
			"-0.018": 0.0,
			"-0.017": 0.0,
			"-0.016": 0.0,
			"-0.015": 0.0339839230386,
			"-0.014": 1.53302469024,
			"-0.013": 4.10895854624,
			"-0.012": 5.20375225327,
			"-0.011": 5.75432399495,
			"-0.01": 4.62013073415,
			"-0.009": 5.86644122701,
			"-0.008": 4.80016734114,
			"-0.007": 8.39854509632,
			"-0.006": 7.49338847428,
			"-0.005": 7.8404484517,
			"-0.004": 6.12663249188,
			"-0.003": 6.53189792108,
			"-0.002": 7.97438999555,
			"-0.001": 8.65626683553,
			"0.0": 9.05442663356,
			"0.001": 10.9619310517,
			"0.002": 11.3371206029,
			"0.003": 16.1887397413,
			"0.004": 19.0963446266,
			"0.005": 10.6690078958,
			"0.006": 5.31286421839,
			"0.007": 3.3641664813,
			"0.008": 2.73452306547,
			"0.009": 2.58399340793,
			"0.01": 2.42089119181,
			"0.011": 3.05880085648,
			"0.012": 2.81455238515,
			"0.013": 6.38309618733,
			"0.014": 3.92948791231,
			"0.015": 0.326939889598,
			"0.016": 0.0,
			"0.017": 0.0,
			"0.018": 0.0,
			"0.019": 0.0,
			"0.02": 0.0,
			"0.021": 0.0,
			"0.022": 0.0,
			"0.023": 0.0,
			"0.024": 0.0,
			"0.025": 0.0
		}
	}
}
