{
	 "smiles": "CC(=O)N(C1=NC(CCl)=CS1)C1=CC(C)=CC=C1", 
	 "Tm": 391.15, 
	 "num_atms": 31, 
	 "gaussian": { 
		 "optdone": 1, 
		 "sigma_profile": "yes", 
		 "theory": "DFT", 
		 "functional": "B3LYP", 
		 "basiset": "6-31G**", 
		 "properties": { 
			 "R2extent": 7823.0391, 
			 "electric_dipole_moment_norm": 4.13588735944, 
			 "electric_quadrupole_moment_norm": 9.50221601523, 
			 "total_energy": -1546.33552893, 
			 "HOMO_LUMO_gap": 0.1886, 
			 "cosmo_polarized_energy": -13.77, 
			 "cosmo_cavitation_energy": 38.77, 
			 "cosmo_dispersion_energy": -26.81, 
			 "cosmo_repulsion_energy": 2.09, 
			 "cosmo_total_nonelectrostatic_energy": 14.05, 
			 "SMD_solvation_energy": 6.44 
		},
		"coords": [
			{
				"x": 0.1020470831,
				"y": 2.7919832049,
				"z": 1.1236344908,
				"element": "C" 
			},
			{
				"x": -0.0417698949,
				"y": 1.3187504246,
				"z": 1.4228619784,
				"element": "C" 
			},
			{
				"x": 0.5745090642,
				"y": 0.7692002177,
				"z": 2.3153374761,
				"element": "O" 
			},
			{
				"x": -0.9511681499,
				"y": 0.5425306502,
				"z": 0.6479815916,
				"element": "N" 
			},
			{
				"x": -1.6680426963,
				"y": 0.9923782181,
				"z": -0.4569954094,
				"element": "C" 
			},
			{
				"x": -1.3712787013,
				"y": 2.0219878398,
				"z": -1.1932514239,
				"element": "N" 
			},
			{
				"x": -2.3144170891,
				"y": 2.2191824188,
				"z": -2.1820982206,
				"element": "C" 
			},
			{
				"x": -2.1456836496,
				"y": 3.3573245603,
				"z": -3.1279760814,
				"element": "C" 
			},
			{
				"x": -2.6237709291,
				"y": 4.9634941087,
				"z": -2.3796160164,
				"element": "Cl" 
			},
			{
				"x": -3.332920173,
				"y": 1.311171152,
				"z": -2.2193380509,
				"element": "C" 
			},
			{
				"x": -3.1509270907,
				"y": 0.1420021475,
				"z": -0.948536401,
				"element": "S" 
			},
			{
				"x": -1.1473432841,
				"y": -0.8305163044,
				"z": 1.0620963056,
				"element": "C" 
			},
			{
				"x": -0.5233452888,
				"y": -1.8568740807,
				"z": 0.350801615,
				"element": "C" 
			},
			{
				"x": -0.7071102578,
				"y": -3.1940429701,
				"z": 0.7189401916,
				"element": "C" 
			},
			{
				"x": -0.0552448441,
				"y": -4.3089202825,
				"z": -0.0647625846,
				"element": "C" 
			},
			{
				"x": -1.5251861529,
				"y": -3.4715801844,
				"z": 1.8233142785,
				"element": "C" 
			},
			{
				"x": -2.1440945828,
				"y": -2.4455112101,
				"z": 2.5367761161,
				"element": "C" 
			},
			{
				"x": -1.9597742207,
				"y": -1.1154506189,
				"z": 2.1597465896,
				"element": "C" 
			},
			{
				"x": -0.865853953,
				"y": 3.2928607109,
				"z": 1.0483683342,
				"element": "H" 
			},
			{
				"x": 0.6034791688,
				"y": 2.9482162695,
				"z": 0.1664666092,
				"element": "H" 
			},
			{
				"x": 0.6936497149,
				"y": 3.2205404689,
				"z": 1.932962691,
				"element": "H" 
			},
			{
				"x": -2.770358947,
				"y": 3.2410627931,
				"z": -4.012666402,
				"element": "H" 
			},
			{
				"x": -1.1020235564,
				"y": 3.4749089224,
				"z": -3.4188316903,
				"element": "H" 
			},
			{
				"x": -4.1559898592,
				"y": 1.2536669419,
				"z": -2.9173814029,
				"element": "H" 
			},
			{
				"x": 0.1147503752,
				"y": -1.6035033149,
				"z": -0.4911599765,
				"element": "H" 
			},
			{
				"x": 0.236239938,
				"y": -5.137360173,
				"z": 0.5878912207,
				"element": "H" 
			},
			{
				"x": 0.8388414387,
				"y": -3.959978767,
				"z": -0.589051555,
				"element": "H" 
			},
			{
				"x": -0.7405742944,
				"y": -4.7148230268,
				"z": -0.8192905045,
				"element": "H" 
			},
			{
				"x": -1.6738122053,
				"y": -4.5039663967,
				"z": 2.1296350544,
				"element": "H" 
			},
			{
				"x": -2.768570553,
				"y": -2.6811306511,
				"z": 3.3932772155,
				"element": "H" 
			},
			{
				"x": -2.4258564094,
				"y": -0.3058030686,
				"z": 2.711263961,
				"element": "H" 
			}
		],
		 "valence_orbital": [ 
			{
				"type": "occ",
				"energy": -0.28491,
				"method": "rhf"
			},
			{
				"type": "occ",
				"energy": -0.26477,
				"method": "rhf"
			},
			{
				"type": "occ",
				"energy": -0.26081,
				"method": "rhf"
			},
			{
				"type": "occ",
				"energy": -0.25047,
				"method": "rhf"
			},
			{
				"type": "occ",
				"energy": -0.22631,
				"method": "rhf"
			},
			{
				"type": "unocc",
				"energy": -0.03771,
				"method": "rhf"
			},
			{
				"type": "unocc",
				"energy": -0.02055,
				"method": "rhf"
			},
			{
				"type": "unocc",
				"energy": -0.01378,
				"method": "rhf"
			},
			{
				"type": "unocc",
				"energy": -0.00479,
				"method": "rhf"
			},
			{
				"type": "unocc",
				"energy": 0.01075,
				"method": "rhf"
			}
		],
		"cosmo_sigma_profile": { 
			"-0.025": 0.0,
			"-0.024": 0.0,
			"-0.023": 0.0,
			"-0.022": 0.0,
			"-0.021": 0.0,
			"-0.02": 0.0,
			"-0.019": 0.0,
			"-0.018": 0.0,
			"-0.017": 0.0,
			"-0.016": 0.0,
			"-0.015": 0.0,
			"-0.014": 0.0,
			"-0.013": 0.0,
			"-0.012": 0.0,
			"-0.011": 0.0,
			"-0.01": 0.706972612613,
			"-0.009": 3.5342485837,
			"-0.008": 5.99135214348,
			"-0.007": 7.03353538018,
			"-0.006": 13.3219800199,
			"-0.005": 23.1544883663,
			"-0.004": 28.8232357848,
			"-0.003": 22.0612062062,
			"-0.002": 24.6829745879,
			"-0.001": 27.9564078119,
			"0.0": 22.9573451958,
			"0.001": 21.4138595967,
			"0.002": 22.6608686256,
			"0.003": 20.3624502885,
			"0.004": 13.8759519949,
			"0.005": 12.7383922925,
			"0.006": 15.1525059178,
			"0.007": 9.20382246764,
			"0.008": 2.01647613127,
			"0.009": 2.70491727448,
			"0.01": 2.17916645849,
			"0.011": 2.81661033308,
			"0.012": 5.0396835949,
			"0.013": 2.61306218249,
			"0.014": 0.123540824039,
			"0.015": 0.0,
			"0.016": 0.0,
			"0.017": 0.0,
			"0.018": 0.0,
			"0.019": 0.0,
			"0.02": 0.0,
			"0.021": 0.0,
			"0.022": 0.0,
			"0.023": 0.0,
			"0.024": 0.0,
			"0.025": 0.0
		}
	}
}
