{
	 "smiles": "NC1=NC(CN2CCN(CC3=CC=CC=C3)CC2)=CS1", 
	 "Tm": 384.15, 
	 "num_atms": 40, 
	 "gaussian": { 
		 "optdone": 1, 
		 "sigma_profile": "yes", 
		 "theory": "DFT", 
		 "functional": "B3LYP", 
		 "basiset": "6-31G**", 
		 "properties": { 
			 "R2extent": 8678.8022, 
			 "electric_dipole_moment_norm": 0.950381197205, 
			 "electric_quadrupole_moment_norm": 16.3521981703, 
			 "total_energy": -1200.81041477, 
			 "HOMO_LUMO_gap": 0.19313, 
			 "cosmo_polarized_energy": -15.51, 
			 "cosmo_cavitation_energy": 43.12, 
			 "cosmo_dispersion_energy": -30.17, 
			 "cosmo_repulsion_energy": 2.29, 
			 "cosmo_total_nonelectrostatic_energy": 15.24, 
			 "SMD_solvation_energy": 2.19 
		},
		"coords": [
			{
				"x": -6.1031805374,
				"y": -1.0946718181,
				"z": 1.74601889,
				"element": "N" 
			},
			{
				"x": -4.9037814889,
				"y": -0.4275462434,
				"z": 1.6148651221,
				"element": "C" 
			},
			{
				"x": -3.7464852814,
				"y": -0.9507121143,
				"z": 1.8877720528,
				"element": "N" 
			},
			{
				"x": -2.7192534426,
				"y": -0.0703240701,
				"z": 1.5871493328,
				"element": "C" 
			},
			{
				"x": -1.2924971711,
				"y": -0.476192199,
				"z": 1.8495933555,
				"element": "C" 
			},
			{
				"x": -0.8701579,
				"y": -1.6080433434,
				"z": 1.0167212454,
				"element": "N" 
			},
			{
				"x": 0.3028040082,
				"y": -2.3053292111,
				"z": 1.5226808205,
				"element": "C" 
			},
			{
				"x": 1.6152011014,
				"y": -1.4815078116,
				"z": 1.4149293711,
				"element": "C" 
			},
			{
				"x": 1.5051415459,
				"y": -0.4898799473,
				"z": 0.3383211644,
				"element": "N" 
			},
			{
				"x": 2.8065239175,
				"y": 0.073864742,
				"z": -0.0069328722,
				"element": "C" 
			},
			{
				"x": 2.7193669067,
				"y": 1.326706827,
				"z": -0.8589804179,
				"element": "C" 
			},
			{
				"x": 3.5330962152,
				"y": 1.4845327451,
				"z": -1.9862007697,
				"element": "C" 
			},
			{
				"x": 3.488287974,
				"y": 2.6578156624,
				"z": -2.7434283642,
				"element": "C" 
			},
			{
				"x": 2.6198242471,
				"y": 3.6883516708,
				"z": -2.3836810754,
				"element": "C" 
			},
			{
				"x": 1.7978385534,
				"y": 3.5382039829,
				"z": -1.2631534544,
				"element": "C" 
			},
			{
				"x": 1.84865722,
				"y": 2.3678781995,
				"z": -0.5072308232,
				"element": "C" 
			},
			{
				"x": 0.7795693324,
				"y": -1.0418455403,
				"z": -0.8051727672,
				"element": "C" 
			},
			{
				"x": -0.6978929496,
				"y": -1.2939413315,
				"z": -0.4094336476,
				"element": "C" 
			},
			{
				"x": -3.1039321476,
				"y": 1.1398630875,
				"z": 1.0909124512,
				"element": "C" 
			},
			{
				"x": -4.8466313686,
				"y": 1.2168093396,
				"z": 0.953085854,
				"element": "S" 
			},
			{
				"x": -6.9089832231,
				"y": -0.535275143,
				"z": 1.9876040592,
				"element": "H" 
			},
			{
				"x": -6.0159096726,
				"y": -1.9405182728,
				"z": 2.2948198191,
				"element": "H" 
			},
			{
				"x": -1.2225020209,
				"y": -0.8056409411,
				"z": 2.8937598493,
				"element": "H" 
			},
			{
				"x": -0.6426509757,
				"y": 0.4063774872,
				"z": 1.7378209207,
				"element": "H" 
			},
			{
				"x": 0.131395629,
				"y": -2.603968806,
				"z": 2.5623198399,
				"element": "H" 
			},
			{
				"x": 0.4074852246,
				"y": -3.2325431981,
				"z": 0.9453593521,
				"element": "H" 
			},
			{
				"x": 1.8248313396,
				"y": -0.9471045563,
				"z": 2.3502738905,
				"element": "H" 
			},
			{
				"x": 2.4611693051,
				"y": -2.1779789245,
				"z": 1.2473461961,
				"element": "H" 
			},
			{
				"x": 3.4570465529,
				"y": -0.667675452,
				"z": -0.5116931796,
				"element": "H" 
			},
			{
				"x": 3.3083541344,
				"y": 0.3206165494,
				"z": 0.9391982814,
				"element": "H" 
			},
			{
				"x": 4.2076179968,
				"y": 0.6814065335,
				"z": -2.2740641914,
				"element": "H" 
			},
			{
				"x": 4.1270356826,
				"y": 2.7622127141,
				"z": -3.616148731,
				"element": "H" 
			},
			{
				"x": 2.5803027522,
				"y": 4.6006905064,
				"z": -2.9721117721,
				"element": "H" 
			},
			{
				"x": 1.1178238251,
				"y": 4.3365105015,
				"z": -0.978021441,
				"element": "H" 
			},
			{
				"x": 1.2066299914,
				"y": 2.2429755159,
				"z": 0.3597068645,
				"element": "H" 
			},
			{
				"x": 1.2519006874,
				"y": -1.9771390606,
				"z": -1.1674092312,
				"element": "H" 
			},
			{
				"x": 0.8274529323,
				"y": -0.3280876172,
				"z": -1.6323607909,
				"element": "H" 
			},
			{
				"x": -1.3026465204,
				"y": -0.4128389214,
				"z": -0.6393225716,
				"element": "H" 
			},
			{
				"x": -1.0946768487,
				"y": -2.1192754565,
				"z": -1.017289036,
				"element": "H" 
			},
			{
				"x": -2.4869755266,
				"y": 1.9806239146,
				"z": 0.8089764043,
				"element": "H" 
			}
		],
		 "valence_orbital": [ 
			{
				"type": "occ",
				"energy": -0.24595,
				"method": "rhf"
			},
			{
				"type": "occ",
				"energy": -0.24,
				"method": "rhf"
			},
			{
				"type": "occ",
				"energy": -0.2115,
				"method": "rhf"
			},
			{
				"type": "occ",
				"energy": -0.20504,
				"method": "rhf"
			},
			{
				"type": "occ",
				"energy": -0.19331,
				"method": "rhf"
			},
			{
				"type": "unocc",
				"energy": -0.00018,
				"method": "rhf"
			},
			{
				"type": "unocc",
				"energy": 0.00228,
				"method": "rhf"
			},
			{
				"type": "unocc",
				"energy": 0.00365,
				"method": "rhf"
			},
			{
				"type": "unocc",
				"energy": 0.0183,
				"method": "rhf"
			},
			{
				"type": "unocc",
				"energy": 0.06019,
				"method": "rhf"
			}
		],
		"cosmo_sigma_profile": { 
			"-0.025": 0.0,
			"-0.024": 0.0,
			"-0.023": 0.0,
			"-0.022": 0.0,
			"-0.021": 0.0,
			"-0.02": 0.0,
			"-0.019": 0.0,
			"-0.018": 0.0,
			"-0.017": 0.0,
			"-0.016": 0.0,
			"-0.015": 0.134774084059,
			"-0.014": 1.71824947807,
			"-0.013": 2.50598696777,
			"-0.012": 2.27599497358,
			"-0.011": 3.00346336823,
			"-0.01": 2.49469719921,
			"-0.009": 1.97910151131,
			"-0.008": 2.73573482757,
			"-0.007": 3.53708289948,
			"-0.006": 4.69717230848,
			"-0.005": 13.6539677134,
			"-0.004": 21.8758684773,
			"-0.003": 33.6098096671,
			"-0.002": 42.9601722024,
			"-0.001": 42.6941457986,
			"0.0": 28.1172105392,
			"0.001": 18.3503807826,
			"0.002": 19.764090103,
			"0.003": 21.8017356251,
			"0.004": 20.5265170181,
			"0.005": 16.9562684128,
			"0.006": 12.3381662061,
			"0.007": 5.81901047355,
			"0.008": 2.01801620365,
			"0.009": 1.89471914736,
			"0.01": 2.59347229401,
			"0.011": 2.03310370742,
			"0.012": 1.70194022121,
			"0.013": 1.45438804892,
			"0.014": 1.05267434862,
			"0.015": 1.45213774446,
			"0.016": 1.63568199359,
			"0.017": 1.20585328149,
			"0.018": 0.527465257313,
			"0.019": 0.0,
			"0.02": 0.0,
			"0.021": 0.0,
			"0.022": 0.0,
			"0.023": 0.0,
			"0.024": 0.0,
			"0.025": 0.0
		}
	}
}
