{
	 "smiles": "OC(=O)C1CN(C(=O)C1)C1=CC=C(F)C=C1", 
	 "Tm": 395.15, 
	 "num_atms": 26, 
	 "gaussian": { 
		 "optdone": 1, 
		 "sigma_profile": "yes", 
		 "theory": "DFT", 
		 "functional": "B3LYP", 
		 "basiset": "6-31G**", 
		 "properties": { 
			 "R2extent": 4383.552, 
			 "electric_dipole_moment_norm": 4.44718318602, 
			 "electric_quadrupole_moment_norm": 9.4566987411, 
			 "total_energy": -805.485039812, 
			 "HOMO_LUMO_gap": 0.1996, 
			 "cosmo_polarized_energy": -16.25, 
			 "cosmo_cavitation_energy": 30.44, 
			 "cosmo_dispersion_energy": -22.13, 
			 "cosmo_repulsion_energy": 1.69, 
			 "cosmo_total_nonelectrostatic_energy": 10.0, 
			 "SMD_solvation_energy": 6.94 
		},
		"coords": [
			{
				"x": 1.4349622348,
				"y": -4.1165568477,
				"z": -1.1528233822,
				"element": "O" 
			},
			{
				"x": 0.9744487059,
				"y": -2.9015834734,
				"z": -1.5281924741,
				"element": "C" 
			},
			{
				"x": 0.0471426954,
				"y": -2.7606392649,
				"z": -2.2935474538,
				"element": "O" 
			},
			{
				"x": 1.7957164362,
				"y": -1.7812833875,
				"z": -0.8981342331,
				"element": "C" 
			},
			{
				"x": 1.1623737764,
				"y": -0.4045997179,
				"z": -1.1638931879,
				"element": "C" 
			},
			{
				"x": 0.422933441,
				"y": -0.0920890064,
				"z": 0.0641854263,
				"element": "N" 
			},
			{
				"x": 0.7924704931,
				"y": -0.8978493676,
				"z": 1.1305790681,
				"element": "C" 
			},
			{
				"x": 0.3707560682,
				"y": -0.8451213724,
				"z": 2.2739864735,
				"element": "O" 
			},
			{
				"x": 1.8593185417,
				"y": -1.8717264888,
				"z": 0.637666704,
				"element": "C" 
			},
			{
				"x": -0.4662863256,
				"y": 1.0114005873,
				"z": 0.117679508,
				"element": "C" 
			},
			{
				"x": -0.5413715541,
				"y": 1.8924792878,
				"z": -0.9749423144,
				"element": "C" 
			},
			{
				"x": -1.4131423481,
				"y": 2.9807356949,
				"z": -0.9574683305,
				"element": "C" 
			},
			{
				"x": -2.2103609618,
				"y": 3.1886592143,
				"z": 0.1585821137,
				"element": "C" 
			},
			{
				"x": -3.0559502393,
				"y": 4.2418372814,
				"z": 0.1805024696,
				"element": "F" 
			},
			{
				"x": -2.1551200579,
				"y": 2.3349633812,
				"z": 1.2536513178,
				"element": "C" 
			},
			{
				"x": -1.2872713708,
				"y": 1.2464202361,
				"z": 1.2373592424,
				"element": "C" 
			},
			{
				"x": 0.8779901034,
				"y": -4.7734244782,
				"z": -1.6038184826,
				"element": "H" 
			},
			{
				"x": 2.7936965333,
				"y": -1.8509848334,
				"z": -1.3434702451,
				"element": "H" 
			},
			{
				"x": 1.930958914,
				"y": 0.3552306549,
				"z": -1.3569657355,
				"element": "H" 
			},
			{
				"x": 0.4853424607,
				"y": -0.4491344424,
				"z": -2.0198261923,
				"element": "H" 
			},
			{
				"x": 2.8302704689,
				"y": -1.5370322985,
				"z": 1.0193995693,
				"element": "H" 
			},
			{
				"x": 1.679525873,
				"y": -2.8708933852,
				"z": 1.035877622,
				"element": "H" 
			},
			{
				"x": 0.0791394412,
				"y": 1.7448791264,
				"z": -1.8501624784,
				"element": "H" 
			},
			{
				"x": -1.4742482435,
				"y": 3.6621609992,
				"z": -1.7989190025,
				"element": "H" 
			},
			{
				"x": -2.7913274774,
				"y": 2.5234107385,
				"z": 2.1118020525,
				"element": "H" 
			},
			{
				"x": -1.2297676088,
				"y": 0.5808411623,
				"z": 2.0858919453,
				"element": "H" 
			}
		],
		 "valence_orbital": [ 
			{
				"type": "occ",
				"energy": -0.2954,
				"method": "rhf"
			},
			{
				"type": "occ",
				"energy": -0.29136,
				"method": "rhf"
			},
			{
				"type": "occ",
				"energy": -0.2596,
				"method": "rhf"
			},
			{
				"type": "occ",
				"energy": -0.25522,
				"method": "rhf"
			},
			{
				"type": "occ",
				"energy": -0.21672,
				"method": "rhf"
			},
			{
				"type": "unocc",
				"energy": -0.01712,
				"method": "rhf"
			},
			{
				"type": "unocc",
				"energy": -0.00938,
				"method": "rhf"
			},
			{
				"type": "unocc",
				"energy": -0.00682,
				"method": "rhf"
			},
			{
				"type": "unocc",
				"energy": 0.04064,
				"method": "rhf"
			},
			{
				"type": "unocc",
				"energy": 0.06124,
				"method": "rhf"
			}
		],
		"cosmo_sigma_profile": { 
			"-0.025": 0.0,
			"-0.024": 0.0,
			"-0.023": 0.0,
			"-0.022": 0.0,
			"-0.021": 0.0,
			"-0.02": 0.0,
			"-0.019": 0.224154209048,
			"-0.018": 1.09817772595,
			"-0.017": 0.959021518795,
			"-0.016": 1.02498593771,
			"-0.015": 0.105968970493,
			"-0.014": 0.4533512713,
			"-0.013": 0.935320701018,
			"-0.012": 1.08986784345,
			"-0.011": 1.05924032148,
			"-0.01": 0.124406828613,
			"-0.009": 0.40123875604,
			"-0.008": 4.32686575667,
			"-0.007": 15.9102831297,
			"-0.006": 20.5606620708,
			"-0.005": 15.8383198691,
			"-0.004": 13.5478317421,
			"-0.003": 11.7107254766,
			"-0.002": 12.4624080235,
			"-0.001": 11.1143295746,
			"0.0": 10.9405069367,
			"0.001": 16.3646269043,
			"0.002": 16.0972475134,
			"0.003": 18.7007633112,
			"0.004": 23.3780312115,
			"0.005": 9.53670555321,
			"0.006": 4.39617488476,
			"0.007": 4.06434561566,
			"0.008": 4.27711168815,
			"0.009": 3.31342257085,
			"0.01": 3.84523652339,
			"0.011": 6.88430067636,
			"0.012": 4.19187929472,
			"0.013": 2.69714858635,
			"0.014": 1.01738260648,
			"0.015": 0.0,
			"0.016": 0.0,
			"0.017": 0.0,
			"0.018": 0.0,
			"0.019": 0.0,
			"0.02": 0.0,
			"0.021": 0.0,
			"0.022": 0.0,
			"0.023": 0.0,
			"0.024": 0.0,
			"0.025": 0.0
		}
	}
}
