{
	 "smiles": "COC(=O)C1=NOC(C)=C1C(C)=O", 
	 "Tm": 310.15, 
	 "num_atms": 22, 
	 "gaussian": { 
		 "optdone": 1, 
		 "sigma_profile": "yes", 
		 "theory": "DFT", 
		 "functional": "B3LYP", 
		 "basiset": "6-31G**", 
		 "properties": { 
			 "R2extent": 2758.7507, 
			 "electric_dipole_moment_norm": 4.88188631678, 
			 "electric_quadrupole_moment_norm": 19.5744327946, 
			 "total_energy": -665.870909885, 
			 "HOMO_LUMO_gap": 0.20752, 
			 "cosmo_polarized_energy": -16.41, 
			 "cosmo_cavitation_energy": 27.45, 
			 "cosmo_dispersion_energy": -19.27, 
			 "cosmo_repulsion_energy": 1.54, 
			 "cosmo_total_nonelectrostatic_energy": 9.73, 
			 "SMD_solvation_energy": 6.95 
		},
		"coords": [
			{
				"x": 2.2987668068,
				"y": 0.1930205326,
				"z": -2.1139329177,
				"element": "C" 
			},
			{
				"x": 0.8911816931,
				"y": 0.1125384138,
				"z": -1.8218385703,
				"element": "O" 
			},
			{
				"x": 0.4862935798,
				"y": 0.8485974716,
				"z": -0.7780254105,
				"element": "C" 
			},
			{
				"x": 1.1730803037,
				"y": 1.6165107436,
				"z": -0.1478879934,
				"element": "O" 
			},
			{
				"x": -0.971929662,
				"y": 0.6048901633,
				"z": -0.4980380049,
				"element": "C" 
			},
			{
				"x": -1.8562739128,
				"y": 1.5153859417,
				"z": -0.8101446073,
				"element": "N" 
			},
			{
				"x": -3.0866220623,
				"y": 0.9831379015,
				"z": -0.3877605102,
				"element": "O" 
			},
			{
				"x": -2.9015438421,
				"y": -0.2266535961,
				"z": 0.1649128079,
				"element": "C" 
			},
			{
				"x": -4.1367967428,
				"y": -0.8941144258,
				"z": 0.670178817,
				"element": "C" 
			},
			{
				"x": -1.5612003542,
				"y": -0.5428408087,
				"z": 0.1301411199,
				"element": "C" 
			},
			{
				"x": -0.8035940551,
				"y": -1.7104950842,
				"z": 0.6239212919,
				"element": "C" 
			},
			{
				"x": -1.5616217636,
				"y": -2.8923377673,
				"z": 1.1982075276,
				"element": "C" 
			},
			{
				"x": 0.4179006472,
				"y": -1.710257414,
				"z": 0.5662043554,
				"element": "O" 
			},
			{
				"x": 2.4503277925,
				"y": -0.4329900258,
				"z": -2.9925619154,
				"element": "H" 
			},
			{
				"x": 2.590099536,
				"y": 1.2255690871,
				"z": -2.3192040452,
				"element": "H" 
			},
			{
				"x": 2.8765240173,
				"y": -0.1848734822,
				"z": -1.2672299109,
				"element": "H" 
			},
			{
				"x": -5.0049729409,
				"y": -0.2778324914,
				"z": 0.4297213519,
				"element": "H" 
			},
			{
				"x": -4.0977901946,
				"y": -1.028852065,
				"z": 1.7557876755,
				"element": "H" 
			},
			{
				"x": -4.2704683167,
				"y": -1.879976943,
				"z": 0.2160293976,
				"element": "H" 
			},
			{
				"x": -2.1512293776,
				"y": -2.5931304046,
				"z": 2.0718810709,
				"element": "H" 
			},
			{
				"x": -2.2560383556,
				"y": -3.3094885395,
				"z": 0.4604148543,
				"element": "H" 
			},
			{
				"x": -0.8435927962,
				"y": -3.6578072078,
				"z": 1.4939236159,
				"element": "H" 
			}
		],
		 "valence_orbital": [ 
			{
				"type": "occ",
				"energy": -0.31708,
				"method": "rhf"
			},
			{
				"type": "occ",
				"energy": -0.30355,
				"method": "rhf"
			},
			{
				"type": "occ",
				"energy": -0.27864,
				"method": "rhf"
			},
			{
				"type": "occ",
				"energy": -0.27313,
				"method": "rhf"
			},
			{
				"type": "occ",
				"energy": -0.26324,
				"method": "rhf"
			},
			{
				"type": "unocc",
				"energy": -0.05572,
				"method": "rhf"
			},
			{
				"type": "unocc",
				"energy": -0.02499,
				"method": "rhf"
			},
			{
				"type": "unocc",
				"energy": 0.006,
				"method": "rhf"
			},
			{
				"type": "unocc",
				"energy": 0.06132,
				"method": "rhf"
			},
			{
				"type": "unocc",
				"energy": 0.06542,
				"method": "rhf"
			}
		],
		"cosmo_sigma_profile": { 
			"-0.025": 0.0,
			"-0.024": 0.0,
			"-0.023": 0.0,
			"-0.022": 0.0,
			"-0.021": 0.0,
			"-0.02": 0.0,
			"-0.019": 0.0,
			"-0.018": 0.0,
			"-0.017": 0.0,
			"-0.016": 0.0,
			"-0.015": 0.0,
			"-0.014": 0.0,
			"-0.013": 0.0,
			"-0.012": 0.0,
			"-0.011": 0.0,
			"-0.01": 0.00602094619329,
			"-0.009": 1.0975255974,
			"-0.008": 5.69917527557,
			"-0.007": 12.0356862852,
			"-0.006": 15.2530079431,
			"-0.005": 18.7329551404,
			"-0.004": 23.3398312038,
			"-0.003": 22.8038309903,
			"-0.002": 16.0509220829,
			"-0.001": 12.4400429114,
			"0.0": 7.39300058402,
			"0.001": 6.42638915442,
			"0.002": 6.69067569236,
			"0.003": 5.81147234732,
			"0.004": 7.1261813247,
			"0.005": 8.09317729607,
			"0.006": 10.6347987126,
			"0.007": 8.92589677288,
			"0.008": 5.17075292918,
			"0.009": 6.34859412678,
			"0.01": 6.70969012686,
			"0.011": 7.47220469375,
			"0.012": 3.17788312455,
			"0.013": 0.927649455108,
			"0.014": 0.0,
			"0.015": 0.0,
			"0.016": 0.0,
			"0.017": 0.0,
			"0.018": 0.0,
			"0.019": 0.0,
			"0.02": 0.0,
			"0.021": 0.0,
			"0.022": 0.0,
			"0.023": 0.0,
			"0.024": 0.0,
			"0.025": 0.0
		}
	}
}
