{
	 "smiles": "[O-][N+](=O)C1=C(Br)C=CC(F)=C1", 
	 "Tm": 311.15, 
	 "num_atms": 14, 
	 "gaussian": { 
		 "optdone": 1, 
		 "sigma_profile": "yes", 
		 "theory": "DFT", 
		 "functional": "B3LYP", 
		 "basiset": "6-31G**", 
		 "properties": { 
			 "R2extent": 2902.713, 
			 "electric_dipole_moment_norm": 3.98799132145, 
			 "electric_quadrupole_moment_norm": 8.29754760336, 
			 "total_energy": -3106.76535781, 
			 "HOMO_LUMO_gap": 0.16616, 
			 "cosmo_polarized_energy": -8.03, 
			 "cosmo_cavitation_energy": 22.2, 
			 "cosmo_dispersion_energy": -16.66, 
			 "cosmo_repulsion_energy": 1.31, 
			 "cosmo_total_nonelectrostatic_energy": 6.85, 
			 "SMD_solvation_energy": 5.58 
		},
		"coords": [
			{
				"x": 2.9462214601,
				"y": -0.6463674265,
				"z": 1.9097493333,
				"element": "O" 
			},
			{
				"x": 2.540376342,
				"y": -1.0365409392,
				"z": 0.8214156698,
				"element": "N" 
			},
			{
				"x": 3.1345652349,
				"y": -1.816556331,
				"z": 0.078166322,
				"element": "O" 
			},
			{
				"x": 1.2150403832,
				"y": -0.5694777755,
				"z": 0.3659517387,
				"element": "C" 
			},
			{
				"x": 0.6792638676,
				"y": 0.6823770356,
				"z": 0.7002796497,
				"element": "C" 
			},
			{
				"x": 1.5923435982,
				"y": 2.0156194544,
				"z": 1.6950724068,
				"element": "Br" 
			},
			{
				"x": -0.5953970654,
				"y": 1.0084652743,
				"z": 0.223841427,
				"element": "C" 
			},
			{
				"x": -1.3285284166,
				"y": 0.1129206869,
				"z": -0.5487426001,
				"element": "C" 
			},
			{
				"x": -0.7642335888,
				"y": -1.1186987879,
				"z": -0.8654280444,
				"element": "C" 
			},
			{
				"x": -1.4598137161,
				"y": -1.988630996,
				"z": -1.6151800097,
				"element": "F" 
			},
			{
				"x": 0.5023925487,
				"y": -1.4693750968,
				"z": -0.4287231466,
				"element": "C" 
			},
			{
				"x": -1.0091773733,
				"y": 1.9804000664,
				"z": 0.4648757492,
				"element": "H" 
			},
			{
				"x": -2.3202291823,
				"y": 0.362196932,
				"z": -0.9093017551,
				"element": "H" 
			},
			{
				"x": 0.9430759079,
				"y": -2.4216320966,
				"z": -0.6937767406,
				"element": "H" 
			}
		],
		 "valence_orbital": [ 
			{
				"type": "occ",
				"energy": -0.31781,
				"method": "rhf"
			},
			{
				"type": "occ",
				"energy": -0.31587,
				"method": "rhf"
			},
			{
				"type": "occ",
				"energy": -0.29772,
				"method": "rhf"
			},
			{
				"type": "occ",
				"energy": -0.28499,
				"method": "rhf"
			},
			{
				"type": "occ",
				"energy": -0.26428,
				"method": "rhf"
			},
			{
				"type": "unocc",
				"energy": -0.09812,
				"method": "rhf"
			},
			{
				"type": "unocc",
				"energy": -0.04237,
				"method": "rhf"
			},
			{
				"type": "unocc",
				"energy": -0.02321,
				"method": "rhf"
			},
			{
				"type": "unocc",
				"energy": -0.01633,
				"method": "rhf"
			},
			{
				"type": "unocc",
				"energy": 0.07823,
				"method": "rhf"
			}
		],
		"cosmo_sigma_profile": { 
			"-0.025": 0.0,
			"-0.024": 0.0,
			"-0.023": 0.0,
			"-0.022": 0.0,
			"-0.021": 0.0,
			"-0.02": 0.0,
			"-0.019": 0.0,
			"-0.018": 0.0,
			"-0.017": 0.0,
			"-0.016": 0.0,
			"-0.015": 0.0,
			"-0.014": 0.0,
			"-0.013": 0.0,
			"-0.012": 0.0,
			"-0.011": 0.0,
			"-0.01": 0.61412068275,
			"-0.009": 3.96203430862,
			"-0.008": 6.64909131207,
			"-0.007": 6.74260604779,
			"-0.006": 6.09256969385,
			"-0.005": 8.00639700576,
			"-0.004": 8.24372985694,
			"-0.003": 9.42621794353,
			"-0.002": 18.6523002349,
			"-0.001": 21.1972843299,
			"0.0": 15.3948682237,
			"0.001": 8.36113321567,
			"0.002": 11.4102434972,
			"0.003": 18.6534039612,
			"0.004": 8.55241702395,
			"0.005": 4.00219169477,
			"0.006": 5.44009942125,
			"0.007": 10.7772231871,
			"0.008": 6.83870181712,
			"0.009": 3.15013627307,
			"0.01": 0.505728587972,
			"0.011": 0.0,
			"0.012": 0.0,
			"0.013": 0.0,
			"0.014": 0.0,
			"0.015": 0.0,
			"0.016": 0.0,
			"0.017": 0.0,
			"0.018": 0.0,
			"0.019": 0.0,
			"0.02": 0.0,
			"0.021": 0.0,
			"0.022": 0.0,
			"0.023": 0.0,
			"0.024": 0.0,
			"0.025": 0.0
		}
	}
}
