{
	 "smiles": "CC(=O)NC(CC(O)=O)C(O)=O", 
	 "Tm": 411.15, 
	 "num_atms": 21, 
	 "gaussian": { 
		 "optdone": 1, 
		 "sigma_profile": "yes", 
		 "theory": "DFT", 
		 "functional": "B3LYP", 
		 "basiset": "6-31G**", 
		 "properties": { 
			 "R2extent": 3235.6394, 
			 "electric_dipole_moment_norm": 6.62767163791, 
			 "electric_quadrupole_moment_norm": 22.016814213, 
			 "total_energy": -664.971284115, 
			 "HOMO_LUMO_gap": 0.22217, 
			 "cosmo_polarized_energy": -25.48, 
			 "cosmo_cavitation_energy": 25.91, 
			 "cosmo_dispersion_energy": -18.46, 
			 "cosmo_repulsion_energy": 1.52, 
			 "cosmo_total_nonelectrostatic_energy": 8.97, 
			 "SMD_solvation_energy": 7.17 
		},
		"coords": [
			{
				"x": -0.3048704574,
				"y": -0.1936273354,
				"z": -2.8406895311,
				"element": "C" 
			},
			{
				"x": -0.4681365647,
				"y": -0.4304794979,
				"z": -1.3498845294,
				"element": "C" 
			},
			{
				"x": -1.464246472,
				"y": -0.0842461586,
				"z": -0.7284429891,
				"element": "O" 
			},
			{
				"x": 0.5738842355,
				"y": -1.07701218,
				"z": -0.7341368372,
				"element": "N" 
			},
			{
				"x": 0.5663271361,
				"y": -1.2719735332,
				"z": 0.7004280022,
				"element": "C" 
			},
			{
				"x": -0.1925422859,
				"y": -2.5802283309,
				"z": 1.1022752457,
				"element": "C" 
			},
			{
				"x": -0.9607764781,
				"y": -2.5997553367,
				"z": 2.4299641936,
				"element": "C" 
			},
			{
				"x": -0.3798295488,
				"y": -2.0351898592,
				"z": 3.5103567406,
				"element": "O" 
			},
			{
				"x": -2.0432429342,
				"y": -3.1238841842,
				"z": 2.5181779866,
				"element": "O" 
			},
			{
				"x": 2.0164740293,
				"y": -1.2842671117,
				"z": 1.156400851,
				"element": "C" 
			},
			{
				"x": 2.1210488006,
				"y": -1.2753522354,
				"z": 2.5115619415,
				"element": "O" 
			},
			{
				"x": 2.9854609826,
				"y": -1.3230974096,
				"z": 0.435459199,
				"element": "O" 
			},
			{
				"x": -1.1225352089,
				"y": -0.6938055149,
				"z": -3.3667186733,
				"element": "H" 
			},
			{
				"x": -0.3989389911,
				"y": 0.8776811287,
				"z": -3.0372154305,
				"element": "H" 
			},
			{
				"x": 0.6473755184,
				"y": -0.5507889611,
				"z": -3.2414209211,
				"element": "H" 
			},
			{
				"x": 1.4483808706,
				"y": -1.2425206534,
				"z": -1.2130758332,
				"element": "H" 
			},
			{
				"x": 0.0488862901,
				"y": -0.4196946891,
				"z": 1.1577821,
				"element": "H" 
			},
			{
				"x": -0.947688858,
				"y": -2.7554635431,
				"z": 0.3368467253,
				"element": "H" 
			},
			{
				"x": 0.4907772199,
				"y": -3.4391052945,
				"z": 1.0821531289,
				"element": "H" 
			},
			{
				"x": 0.5219657079,
				"y": -1.7290843374,
				"z": 3.3152944956,
				"element": "H" 
			},
			{
				"x": 3.0644270079,
				"y": -1.3318049625,
				"z": 2.7411841351,
				"element": "H" 
			}
		],
		 "valence_orbital": [ 
			{
				"type": "occ",
				"energy": -0.32532,
				"method": "rhf"
			},
			{
				"type": "occ",
				"energy": -0.30769,
				"method": "rhf"
			},
			{
				"type": "occ",
				"energy": -0.27797,
				"method": "rhf"
			},
			{
				"type": "occ",
				"energy": -0.26185,
				"method": "rhf"
			},
			{
				"type": "occ",
				"energy": -0.25867,
				"method": "rhf"
			},
			{
				"type": "unocc",
				"energy": -0.0365,
				"method": "rhf"
			},
			{
				"type": "unocc",
				"energy": 0.01119,
				"method": "rhf"
			},
			{
				"type": "unocc",
				"energy": 0.01657,
				"method": "rhf"
			},
			{
				"type": "unocc",
				"energy": 0.03208,
				"method": "rhf"
			},
			{
				"type": "unocc",
				"energy": 0.07346,
				"method": "rhf"
			}
		],
		"cosmo_sigma_profile": { 
			"-0.025": 0.0,
			"-0.024": 0.0,
			"-0.023": 0.0,
			"-0.022": 0.0,
			"-0.021": 0.123833011638,
			"-0.02": 0.7096472613,
			"-0.019": 0.92788902249,
			"-0.018": 1.5982658603,
			"-0.017": 0.301188658295,
			"-0.016": 0.610535918218,
			"-0.015": 0.641784203499,
			"-0.014": 1.16486365158,
			"-0.013": 0.819449632349,
			"-0.012": 1.21639291908,
			"-0.011": 2.55186746756,
			"-0.01": 2.7872925438,
			"-0.009": 6.40964444398,
			"-0.008": 9.61027008662,
			"-0.007": 9.03269473446,
			"-0.006": 11.3582638888,
			"-0.005": 12.0293372276,
			"-0.004": 14.1421675525,
			"-0.003": 12.9499674855,
			"-0.002": 15.9909253392,
			"-0.001": 11.023320182,
			"0.0": 6.79760384156,
			"0.001": 6.23355141263,
			"0.002": 6.22640331027,
			"0.003": 4.4291403896,
			"0.004": 3.47909137892,
			"0.005": 5.17064107522,
			"0.006": 4.01602483799,
			"0.007": 4.49863297613,
			"0.008": 6.55648959675,
			"0.009": 6.91242425641,
			"0.01": 7.61817604895,
			"0.011": 8.17791282663,
			"0.012": 7.91423582608,
			"0.013": 6.4275298791,
			"0.014": 3.0896240188,
			"0.015": 0.907207109341,
			"0.016": 0.0,
			"0.017": 0.0,
			"0.018": 0.0,
			"0.019": 0.0,
			"0.02": 0.0,
			"0.021": 0.0,
			"0.022": 0.0,
			"0.023": 0.0,
			"0.024": 0.0,
			"0.025": 0.0
		}
	}
}
