{
	 "smiles": "CC1CCC2=C1CC(CCC2C)C(C)(C)O", 
	 "Tm": 364.15, 
	 "num_atms": 42, 
	 "gaussian": { 
		 "optdone": 1, 
		 "sigma_profile": "yes", 
		 "theory": "DFT", 
		 "functional": "B3LYP", 
		 "basiset": "6-31G**", 
		 "properties": { 
			 "R2extent": 4301.573, 
			 "electric_dipole_moment_norm": 1.29452429873, 
			 "electric_quadrupole_moment_norm": 8.57057612008, 
			 "total_energy": -662.495763716, 
			 "HOMO_LUMO_gap": 0.24121, 
			 "cosmo_polarized_energy": -6.24, 
			 "cosmo_cavitation_energy": 38.12, 
			 "cosmo_dispersion_energy": -26.52, 
			 "cosmo_repulsion_energy": 2.05, 
			 "cosmo_total_nonelectrostatic_energy": 13.66, 
			 "SMD_solvation_energy": 5.43 
		},
		"coords": [
			{
				"x": -0.128614492,
				"y": -1.731219214,
				"z": -3.1467049289,
				"element": "C" 
			},
			{
				"x": -1.0366184801,
				"y": -0.6261886565,
				"z": -2.5913162541,
				"element": "C" 
			},
			{
				"x": -1.0971862867,
				"y": 0.6204157781,
				"z": -3.5030474656,
				"element": "C" 
			},
			{
				"x": -1.3376981695,
				"y": 1.8069739259,
				"z": -2.551349346,
				"element": "C" 
			},
			{
				"x": -0.8128224388,
				"y": 1.3024075858,
				"z": -1.2164192752,
				"element": "C" 
			},
			{
				"x": -0.6355216806,
				"y": -0.0327247371,
				"z": -1.2395091267,
				"element": "C" 
			},
			{
				"x": -0.2130981681,
				"y": -0.9581774887,
				"z": -0.1219229321,
				"element": "C" 
			},
			{
				"x": 0.4529980133,
				"y": -0.3273328727,
				"z": 1.126389305,
				"element": "C" 
			},
			{
				"x": 1.4442735533,
				"y": 0.7786692615,
				"z": 0.697459047,
				"element": "C" 
			},
			{
				"x": 0.8038185021,
				"y": 2.1754299806,
				"z": 0.5602256616,
				"element": "C" 
			},
			{
				"x": -0.6375290005,
				"y": 2.2044977136,
				"z": -0.0032390931,
				"element": "C" 
			},
			{
				"x": -1.0688977707,
				"y": 3.6602891397,
				"z": -0.2436721197,
				"element": "C" 
			},
			{
				"x": 1.0949681839,
				"y": -1.3943561906,
				"z": 2.0724253171,
				"element": "C" 
			},
			{
				"x": 2.3413401693,
				"y": -2.0736506889,
				"z": 1.4801514552,
				"element": "C" 
			},
			{
				"x": 0.0683475989,
				"y": -2.4508713033,
				"z": 2.4971622233,
				"element": "C" 
			},
			{
				"x": 1.454180421,
				"y": -0.7510500202,
				"z": 3.3080847939,
				"element": "O" 
			},
			{
				"x": -0.1465125116,
				"y": -2.6343175306,
				"z": -2.5278728452,
				"element": "H" 
			},
			{
				"x": 0.9106098239,
				"y": -1.3880348693,
				"z": -3.2154597907,
				"element": "H" 
			},
			{
				"x": -0.4508423784,
				"y": -2.0204212064,
				"z": -4.1531956451,
				"element": "H" 
			},
			{
				"x": -2.049157231,
				"y": -1.0540259852,
				"z": -2.4869767232,
				"element": "H" 
			},
			{
				"x": -1.8514495247,
				"y": 0.5357024669,
				"z": -4.291873767,
				"element": "H" 
			},
			{
				"x": -0.1238746819,
				"y": 0.7423747455,
				"z": -3.9949135465,
				"element": "H" 
			},
			{
				"x": -0.8450518913,
				"y": 2.7242649539,
				"z": -2.8936722721,
				"element": "H" 
			},
			{
				"x": -2.4090177639,
				"y": 2.0497023256,
				"z": -2.4737461613,
				"element": "H" 
			},
			{
				"x": -1.0866576074,
				"y": -1.5541865882,
				"z": 0.1816950573,
				"element": "H" 
			},
			{
				"x": 0.4894566255,
				"y": -1.6865509508,
				"z": -0.5490262327,
				"element": "H" 
			},
			{
				"x": -0.3228837699,
				"y": 0.1316782243,
				"z": 1.7507414568,
				"element": "H" 
			},
			{
				"x": 1.9082029893,
				"y": 0.4914818977,
				"z": -0.252858929,
				"element": "H" 
			},
			{
				"x": 2.2718586102,
				"y": 0.8700989804,
				"z": 1.4127956597,
				"element": "H" 
			},
			{
				"x": 1.4492395086,
				"y": 2.8000003905,
				"z": -0.0718410024,
				"element": "H" 
			},
			{
				"x": 0.7793743224,
				"y": 2.6599865105,
				"z": 1.5454892901,
				"element": "H" 
			},
			{
				"x": -1.2971561541,
				"y": 1.8146196889,
				"z": 0.7843640173,
				"element": "H" 
			},
			{
				"x": -0.9805150347,
				"y": 4.238534058,
				"z": 0.6822790296,
				"element": "H" 
			},
			{
				"x": -2.108671567,
				"y": 3.7276946816,
				"z": -0.5781101185,
				"element": "H" 
			},
			{
				"x": -0.4409909351,
				"y": 4.1489455978,
				"z": -0.9967773133,
				"element": "H" 
			},
			{
				"x": 2.7606995192,
				"y": -2.7657515642,
				"z": 2.2162499163,
				"element": "H" 
			},
			{
				"x": 3.1161153071,
				"y": -1.3414901426,
				"z": 1.2273136772,
				"element": "H" 
			},
			{
				"x": 2.1133369269,
				"y": -2.6407741187,
				"z": 0.5724880004,
				"element": "H" 
			},
			{
				"x": -0.2221516291,
				"y": -3.0946584676,
				"z": 1.6632133242,
				"element": "H" 
			},
			{
				"x": -0.8296384773,
				"y": -1.9733992431,
				"z": 2.9018223766,
				"element": "H" 
			},
			{
				"x": 0.4999839207,
				"y": -3.0774464647,
				"z": 3.2826905777,
				"element": "H" 
			},
			{
				"x": 2.1776536489,
				"y": -0.1378396037,
				"z": 3.1255647017,
				"element": "H" 
			}
		],
		 "valence_orbital": [ 
			{
				"type": "occ",
				"energy": -0.30485,
				"method": "rhf"
			},
			{
				"type": "occ",
				"energy": -0.299,
				"method": "rhf"
			},
			{
				"type": "occ",
				"energy": -0.29547,
				"method": "rhf"
			},
			{
				"type": "occ",
				"energy": -0.2551,
				"method": "rhf"
			},
			{
				"type": "occ",
				"energy": -0.21189,
				"method": "rhf"
			},
			{
				"type": "unocc",
				"energy": 0.02932,
				"method": "rhf"
			},
			{
				"type": "unocc",
				"energy": 0.06503,
				"method": "rhf"
			},
			{
				"type": "unocc",
				"energy": 0.09079,
				"method": "rhf"
			},
			{
				"type": "unocc",
				"energy": 0.09258,
				"method": "rhf"
			},
			{
				"type": "unocc",
				"energy": 0.1013,
				"method": "rhf"
			}
		],
		"cosmo_sigma_profile": { 
			"-0.025": 0.0,
			"-0.024": 0.0,
			"-0.023": 0.0,
			"-0.022": 0.0,
			"-0.021": 0.0,
			"-0.02": 0.0,
			"-0.019": 0.0,
			"-0.018": 0.0,
			"-0.017": 0.0,
			"-0.016": 0.0,
			"-0.015": 0.0,
			"-0.014": 0.362513866085,
			"-0.013": 0.563406621293,
			"-0.012": 1.07958937505,
			"-0.011": 0.858720444648,
			"-0.01": 1.48308257539,
			"-0.009": 0.623758819567,
			"-0.008": 0.912999493419,
			"-0.007": 0.887303063448,
			"-0.006": 1.03463658023,
			"-0.005": 1.59264465925,
			"-0.004": 3.19370094664,
			"-0.003": 16.9021986743,
			"-0.002": 47.8024293219,
			"-0.001": 58.4631682227,
			"0.0": 55.5150808839,
			"0.001": 48.3214270414,
			"0.002": 24.6844005248,
			"0.003": 4.9822133877,
			"0.004": 3.79887797551,
			"0.005": 3.24972891951,
			"0.006": 3.08534392211,
			"0.007": 1.68935226399,
			"0.008": 1.45763294628,
			"0.009": 0.905103877848,
			"0.01": 1.11369545102,
			"0.011": 1.35368389672,
			"0.012": 1.0189548263,
			"0.013": 1.61075238502,
			"0.014": 1.78999175434,
			"0.015": 1.4165272088,
			"0.016": 0.0149945788597,
			"0.017": 0.0,
			"0.018": 0.0,
			"0.019": 0.0,
			"0.02": 0.0,
			"0.021": 0.0,
			"0.022": 0.0,
			"0.023": 0.0,
			"0.024": 0.0,
			"0.025": 0.0
		}
	}
}
