{
	 "smiles": "CC1=CC(=C(C)S1)S(N)(=O)=O", 
	 "Tm": 413.15, 
	 "num_atms": 20, 
	 "gaussian": { 
		 "optdone": 1, 
		 "sigma_profile": "yes", 
		 "theory": "DFT", 
		 "functional": "B3LYP", 
		 "basiset": "6-31G**", 
		 "properties": { 
			 "R2extent": 2472.8927, 
			 "electric_dipole_moment_norm": 3.70583603523, 
			 "electric_quadrupole_moment_norm": 13.1641839322, 
			 "total_energy": -1235.56547902, 
			 "HOMO_LUMO_gap": 0.20134, 
			 "cosmo_polarized_energy": -14.27, 
			 "cosmo_cavitation_energy": 26.35, 
			 "cosmo_dispersion_energy": -20.27, 
			 "cosmo_repulsion_energy": 1.55, 
			 "cosmo_total_nonelectrostatic_energy": 7.62, 
			 "SMD_solvation_energy": 4.09 
		},
		"coords": [
			{
				"x": 3.2837101431,
				"y": 0.5397770686,
				"z": 0.2452520422,
				"element": "C" 
			},
			{
				"x": 1.7870348404,
				"y": 0.4979547563,
				"z": 0.3262868245,
				"element": "C" 
			},
			{
				"x": 0.9576423918,
				"y": -0.5794556964,
				"z": 0.1993727776,
				"element": "C" 
			},
			{
				"x": -0.4254691188,
				"y": -0.2349860981,
				"z": 0.3304984129,
				"element": "C" 
			},
			{
				"x": -0.6697781482,
				"y": 1.0999990035,
				"z": 0.5520812278,
				"element": "C" 
			},
			{
				"x": -1.9753467324,
				"y": 1.8112535589,
				"z": 0.7434203493,
				"element": "C" 
			},
			{
				"x": 0.8473420395,
				"y": 1.9497399735,
				"z": 0.608139683,
				"element": "S" 
			},
			{
				"x": -1.7001688951,
				"y": -1.4582511213,
				"z": 0.1616932367,
				"element": "S" 
			},
			{
				"x": -2.4213102291,
				"y": -1.4507291411,
				"z": 1.7021879754,
				"element": "N" 
			},
			{
				"x": -1.0302305345,
				"y": -2.7421915204,
				"z": -0.0744027258,
				"element": "O" 
			},
			{
				"x": -2.7516503323,
				"y": -0.9771176732,
				"z": -0.7402033044,
				"element": "O" 
			},
			{
				"x": 3.6313848419,
				"y": 1.1838426987,
				"z": -0.5702554857,
				"element": "H" 
			},
			{
				"x": 3.6685423821,
				"y": -0.4672856577,
				"z": 0.0638391275,
				"element": "H" 
			},
			{
				"x": 3.7344805123,
				"y": 0.9098635996,
				"z": 1.1730095844,
				"element": "H" 
			},
			{
				"x": 1.2960190587,
				"y": -1.5907908959,
				"z": 0.0114772506,
				"element": "H" 
			},
			{
				"x": -2.6539195301,
				"y": 1.5835924546,
				"z": -0.0833948853,
				"element": "H" 
			},
			{
				"x": -2.4584097242,
				"y": 1.4744587449,
				"z": 1.6672583237,
				"element": "H" 
			},
			{
				"x": -1.8370539366,
				"y": 2.8934259144,
				"z": 0.7992660931,
				"element": "H" 
			},
			{
				"x": -1.9821245234,
				"y": -2.1504062211,
				"z": 2.2969493052,
				"element": "H" 
			},
			{
				"x": -3.4105945049,
				"y": -1.6576937477,
				"z": 1.5796241874,
				"element": "H" 
			}
		],
		 "valence_orbital": [ 
			{
				"type": "occ",
				"energy": -0.31203,
				"method": "rhf"
			},
			{
				"type": "occ",
				"energy": -0.30004,
				"method": "rhf"
			},
			{
				"type": "occ",
				"energy": -0.29258,
				"method": "rhf"
			},
			{
				"type": "occ",
				"energy": -0.26267,
				"method": "rhf"
			},
			{
				"type": "occ",
				"energy": -0.23417,
				"method": "rhf"
			},
			{
				"type": "unocc",
				"energy": -0.03283,
				"method": "rhf"
			},
			{
				"type": "unocc",
				"energy": 0.00793,
				"method": "rhf"
			},
			{
				"type": "unocc",
				"energy": 0.02756,
				"method": "rhf"
			},
			{
				"type": "unocc",
				"energy": 0.06001,
				"method": "rhf"
			},
			{
				"type": "unocc",
				"energy": 0.08162,
				"method": "rhf"
			}
		],
		"cosmo_sigma_profile": { 
			"-0.025": 0.0,
			"-0.024": 0.0,
			"-0.023": 0.0,
			"-0.022": 0.0,
			"-0.021": 0.0,
			"-0.02": 0.0,
			"-0.019": 0.0,
			"-0.018": 0.0,
			"-0.017": 0.0,
			"-0.016": 0.0,
			"-0.015": 0.944665088991,
			"-0.014": 2.66384241012,
			"-0.013": 2.79889673133,
			"-0.012": 2.78846128415,
			"-0.011": 1.98733097486,
			"-0.01": 2.56525859077,
			"-0.009": 0.955017751496,
			"-0.008": 1.40339357483,
			"-0.007": 2.44332256321,
			"-0.006": 6.67648612371,
			"-0.005": 12.5218230311,
			"-0.004": 15.5639458625,
			"-0.003": 15.560237682,
			"-0.002": 18.4002705062,
			"-0.001": 20.1220558728,
			"0.0": 12.4505962739,
			"0.001": 12.7720331673,
			"0.002": 16.3325566526,
			"0.003": 15.3057286871,
			"0.004": 7.86906432685,
			"0.005": 3.7132970441,
			"0.006": 2.85978642479,
			"0.007": 4.23942174033,
			"0.008": 4.09881467051,
			"0.009": 3.60086738988,
			"0.01": 6.47596309478,
			"0.011": 8.9903154511,
			"0.012": 4.71969655267,
			"0.013": 0.0,
			"0.014": 0.0,
			"0.015": 0.0,
			"0.016": 0.0,
			"0.017": 0.0,
			"0.018": 0.0,
			"0.019": 0.0,
			"0.02": 0.0,
			"0.021": 0.0,
			"0.022": 0.0,
			"0.023": 0.0,
			"0.024": 0.0,
			"0.025": 0.0
		}
	}
}
