{
	 "smiles": "CC1=NN(C=C1N)C1=CC=CC=C1", 
	 "Tm": 355.15, 
	 "num_atms": 24, 
	 "gaussian": { 
		 "optdone": 1, 
		 "sigma_profile": "yes", 
		 "theory": "DFT", 
		 "functional": "B3LYP", 
		 "basiset": "6-31G**", 
		 "properties": { 
			 "R2extent": 3311.177, 
			 "electric_dipole_moment_norm": 2.52932048187, 
			 "electric_quadrupole_moment_norm": 10.2818022399, 
			 "total_energy": -551.930371817, 
			 "HOMO_LUMO_gap": 0.17576, 
			 "cosmo_polarized_energy": -12.04, 
			 "cosmo_cavitation_energy": 27.78, 
			 "cosmo_dispersion_energy": -20.6, 
			 "cosmo_repulsion_energy": 1.63, 
			 "cosmo_total_nonelectrostatic_energy": 8.81, 
			 "SMD_solvation_energy": 4.29 
		},
		"coords": [
			{
				"x": -2.2754826006,
				"y": 2.7352163812,
				"z": -0.4922037806,
				"element": "C" 
			},
			{
				"x": -1.15456328,
				"y": 1.7496939148,
				"z": -0.3896932132,
				"element": "C" 
			},
			{
				"x": -0.9701258598,
				"y": 0.8108176447,
				"z": -1.3136128178,
				"element": "N" 
			},
			{
				"x": 0.1043118681,
				"y": 0.0957372668,
				"z": -0.9039602386,
				"element": "N" 
			},
			{
				"x": 0.6179980274,
				"y": 0.5848584369,
				"z": 0.2768123192,
				"element": "C" 
			},
			{
				"x": -0.1734436283,
				"y": 1.6536612464,
				"z": 0.6412195964,
				"element": "C" 
			},
			{
				"x": -0.1146503647,
				"y": 2.4465762676,
				"z": 1.7977881266,
				"element": "N" 
			},
			{
				"x": 0.571166319,
				"y": -0.9937856989,
				"z": -1.6737984788,
				"element": "C" 
			},
			{
				"x": 1.4617832565,
				"y": -1.9261519542,
				"z": -1.1252485281,
				"element": "C" 
			},
			{
				"x": 1.9243577363,
				"y": -2.9851449394,
				"z": -1.9058322109,
				"element": "C" 
			},
			{
				"x": 1.4983639606,
				"y": -3.1347014335,
				"z": -3.2259179337,
				"element": "C" 
			},
			{
				"x": 0.59912074,
				"y": -2.208978725,
				"z": -3.7615242796,
				"element": "C" 
			},
			{
				"x": 0.1366271598,
				"y": -1.1402096246,
				"z": -2.9984902667,
				"element": "C" 
			},
			{
				"x": -2.8744266541,
				"y": 2.5226843521,
				"z": -1.3801611216,
				"element": "H" 
			},
			{
				"x": -1.9075318538,
				"y": 3.7667573687,
				"z": -0.5715328242,
				"element": "H" 
			},
			{
				"x": -2.9280949857,
				"y": 2.6897291509,
				"z": 0.3875988343,
				"element": "H" 
			},
			{
				"x": 1.4949429331,
				"y": 0.1647082418,
				"z": 0.7425772885,
				"element": "H" 
			},
			{
				"x": -0.3632453561,
				"y": 3.4133561923,
				"z": 1.6229622986,
				"element": "H" 
			},
			{
				"x": 0.7838042133,
				"y": 2.4091487824,
				"z": 2.2634106458,
				"element": "H" 
			},
			{
				"x": 1.7785441333,
				"y": -1.8428006478,
				"z": -0.0914902186,
				"element": "H" 
			},
			{
				"x": 2.6143248199,
				"y": -3.7021881977,
				"z": -1.4702190756,
				"element": "H" 
			},
			{
				"x": 1.8584106291,
				"y": -3.9632655671,
				"z": -3.8280204906,
				"element": "H" 
			},
			{
				"x": 0.2565550636,
				"y": -2.3143988036,
				"z": -4.787033452,
				"element": "H" 
			},
			{
				"x": -0.5576462769,
				"y": -0.4143196546,
				"z": -3.402630179,
				"element": "H" 
			}
		],
		 "valence_orbital": [ 
			{
				"type": "occ",
				"energy": -0.28019,
				"method": "rhf"
			},
			{
				"type": "occ",
				"energy": -0.26711,
				"method": "rhf"
			},
			{
				"type": "occ",
				"energy": -0.24903,
				"method": "rhf"
			},
			{
				"type": "occ",
				"energy": -0.22544,
				"method": "rhf"
			},
			{
				"type": "occ",
				"energy": -0.18946,
				"method": "rhf"
			},
			{
				"type": "unocc",
				"energy": -0.0137,
				"method": "rhf"
			},
			{
				"type": "unocc",
				"energy": 0.00074,
				"method": "rhf"
			},
			{
				"type": "unocc",
				"energy": 0.05013,
				"method": "rhf"
			},
			{
				"type": "unocc",
				"energy": 0.06865,
				"method": "rhf"
			},
			{
				"type": "unocc",
				"energy": 0.08835,
				"method": "rhf"
			}
		],
		"cosmo_sigma_profile": { 
			"-0.025": 0.0,
			"-0.024": 0.0,
			"-0.023": 0.0,
			"-0.022": 0.0,
			"-0.021": 0.0,
			"-0.02": 0.0,
			"-0.019": 0.0,
			"-0.018": 0.0,
			"-0.017": 0.0,
			"-0.016": 0.0,
			"-0.015": 0.0,
			"-0.014": 0.0,
			"-0.013": 0.0615352536412,
			"-0.012": 1.19089886473,
			"-0.011": 3.49433750102,
			"-0.01": 1.86649419171,
			"-0.009": 4.8597198255,
			"-0.008": 7.14969986236,
			"-0.007": 4.64134721261,
			"-0.006": 8.29482035774,
			"-0.005": 12.4256296553,
			"-0.004": 17.4492272629,
			"-0.003": 16.4276976068,
			"-0.002": 13.0106066746,
			"-0.001": 14.019896844,
			"0.0": 14.4663959735,
			"0.001": 12.5486841705,
			"0.002": 13.0173885652,
			"0.003": 15.4838535556,
			"0.004": 17.1377395176,
			"0.005": 17.5649251017,
			"0.006": 8.4168420101,
			"0.007": 3.54586170334,
			"0.008": 2.44030494737,
			"0.009": 1.70019859556,
			"0.01": 2.62968009868,
			"0.011": 2.47679017512,
			"0.012": 1.55863962122,
			"0.013": 1.37576350159,
			"0.014": 0.708484860968,
			"0.015": 0.457399313607,
			"0.016": 0.910747410393,
			"0.017": 0.0,
			"0.018": 0.0,
			"0.019": 0.0,
			"0.02": 0.0,
			"0.021": 0.0,
			"0.022": 0.0,
			"0.023": 0.0,
			"0.024": 0.0,
			"0.025": 0.0
		}
	}
}
