{
	 "smiles": "ClC1=C(Br)C=CC(Br)=C1", 
	 "Tm": 313.15, 
	 "num_atms": 12, 
	 "gaussian": { 
		 "optdone": 1, 
		 "sigma_profile": "yes", 
		 "theory": "DFT", 
		 "functional": "B3LYP", 
		 "basiset": "6-31G**", 
		 "properties": { 
			 "R2extent": 4481.6658, 
			 "electric_dipole_moment_norm": 1.3709575814, 
			 "electric_quadrupole_moment_norm": 6.9567631985, 
			 "total_energy": -5833.44066339, 
			 "HOMO_LUMO_gap": 0.21127, 
			 "cosmo_polarized_energy": -3.89, 
			 "cosmo_cavitation_energy": 22.82, 
			 "cosmo_dispersion_energy": -17.95, 
			 "cosmo_repulsion_energy": 1.46, 
			 "cosmo_total_nonelectrostatic_energy": 6.33, 
			 "SMD_solvation_energy": 1.44 
		},
		"coords": [
			{
				"x": -1.0564544612,
				"y": 0.2454002108,
				"z": -2.1449153072,
				"element": "Cl" 
			},
			{
				"x": -0.6779704179,
				"y": -0.6855604216,
				"z": -0.7198711586,
				"element": "C" 
			},
			{
				"x": -1.2849036114,
				"y": -1.9217599089,
				"z": -0.4615611979,
				"element": "C" 
			},
			{
				"x": -2.5656872276,
				"y": -2.6769841989,
				"z": -1.6434273165,
				"element": "Br" 
			},
			{
				"x": -0.9451750896,
				"y": -2.6260732646,
				"z": 0.6951964915,
				"element": "C" 
			},
			{
				"x": -0.0120787457,
				"y": -2.1150063098,
				"z": 1.5931281088,
				"element": "C" 
			},
			{
				"x": 0.5836439119,
				"y": -0.8840137112,
				"z": 1.3231532824,
				"element": "C" 
			},
			{
				"x": 1.8636304351,
				"y": -0.1664545912,
				"z": 2.5393791535,
				"element": "Br" 
			},
			{
				"x": 0.2597859695,
				"y": -0.1655116718,
				"z": 0.1764962027,
				"element": "C" 
			},
			{
				"x": -1.4176268072,
				"y": -3.581564667,
				"z": 0.8899746484,
				"element": "H" 
			},
			{
				"x": 0.2458257152,
				"y": -2.6679161009,
				"z": 2.4883475185,
				"element": "H" 
			},
			{
				"x": 0.7247103289,
				"y": 0.7902446354,
				"z": -0.0296004256,
				"element": "H" 
			}
		],
		 "valence_orbital": [ 
			{
				"type": "occ",
				"energy": -0.30198,
				"method": "rhf"
			},
			{
				"type": "occ",
				"energy": -0.30126,
				"method": "rhf"
			},
			{
				"type": "occ",
				"energy": -0.2952,
				"method": "rhf"
			},
			{
				"type": "occ",
				"energy": -0.27247,
				"method": "rhf"
			},
			{
				"type": "occ",
				"energy": -0.24897,
				"method": "rhf"
			},
			{
				"type": "unocc",
				"energy": -0.0377,
				"method": "rhf"
			},
			{
				"type": "unocc",
				"energy": -0.03713,
				"method": "rhf"
			},
			{
				"type": "unocc",
				"energy": -0.02728,
				"method": "rhf"
			},
			{
				"type": "unocc",
				"energy": 0.00102,
				"method": "rhf"
			},
			{
				"type": "unocc",
				"energy": 0.04856,
				"method": "rhf"
			}
		],
		"cosmo_sigma_profile": { 
			"-0.025": 0.0,
			"-0.024": 0.0,
			"-0.023": 0.0,
			"-0.022": 0.0,
			"-0.021": 0.0,
			"-0.02": 0.0,
			"-0.019": 0.0,
			"-0.018": 0.0,
			"-0.017": 0.0,
			"-0.016": 0.0,
			"-0.015": 0.0,
			"-0.014": 0.0,
			"-0.013": 0.0,
			"-0.012": 0.0,
			"-0.011": 0.0,
			"-0.01": 0.0,
			"-0.009": 1.12032795338,
			"-0.008": 4.86489138406,
			"-0.007": 5.76589717548,
			"-0.006": 4.78527116639,
			"-0.005": 6.75107957832,
			"-0.004": 8.72005502686,
			"-0.003": 8.87787932369,
			"-0.002": 11.3190906449,
			"-0.001": 15.5384324431,
			"0.0": 27.0895479681,
			"0.001": 29.1341758328,
			"0.002": 17.937986577,
			"0.003": 23.2239336021,
			"0.004": 23.8294090418,
			"0.005": 3.80524452737,
			"0.006": 0.094735179612,
			"0.007": 0.0,
			"0.008": 0.0,
			"0.009": 0.0,
			"0.01": 0.0,
			"0.011": 0.0,
			"0.012": 0.0,
			"0.013": 0.0,
			"0.014": 0.0,
			"0.015": 0.0,
			"0.016": 0.0,
			"0.017": 0.0,
			"0.018": 0.0,
			"0.019": 0.0,
			"0.02": 0.0,
			"0.021": 0.0,
			"0.022": 0.0,
			"0.023": 0.0,
			"0.024": 0.0,
			"0.025": 0.0
		}
	}
}
