{
	 "smiles": "O=C(OC(=O)C1=CC=CC=C1)C1=CC=CC=C1", 
	 "Tm": 315.35, 
	 "num_atms": 27, 
	 "gaussian": { 
		 "optdone": 1, 
		 "sigma_profile": "yes", 
		 "theory": "DFT", 
		 "functional": "B3LYP", 
		 "basiset": "6-31G**", 
		 "properties": { 
			 "R2extent": 5590.4731, 
			 "electric_dipole_moment_norm": 4.32310774097, 
			 "electric_quadrupole_moment_norm": 21.4343473542, 
			 "total_energy": -765.208795592, 
			 "HOMO_LUMO_gap": 0.19845, 
			 "cosmo_polarized_energy": -12.0, 
			 "cosmo_cavitation_energy": 33.07, 
			 "cosmo_dispersion_energy": -23.57, 
			 "cosmo_repulsion_energy": 1.81, 
			 "cosmo_total_nonelectrostatic_energy": 11.31, 
			 "SMD_solvation_energy": 7.34 
		},
		"coords": [
			{
				"x": -2.1916049926,
				"y": -0.48644709,
				"z": 1.8590727304,
				"element": "O" 
			},
			{
				"x": -1.6394943935,
				"y": 0.4287609154,
				"z": 1.3050742975,
				"element": "C" 
			},
			{
				"x": -0.3447968172,
				"y": 0.3299758084,
				"z": 0.7968273217,
				"element": "O" 
			},
			{
				"x": 0.5872221149,
				"y": -0.512018066,
				"z": 1.4024125746,
				"element": "C" 
			},
			{
				"x": 0.5748951426,
				"y": -0.7534083179,
				"z": 2.5817868256,
				"element": "O" 
			},
			{
				"x": 1.6046626374,
				"y": -0.9926533527,
				"z": 0.4332494257,
				"element": "C" 
			},
			{
				"x": 1.5243400403,
				"y": -0.7277219919,
				"z": -0.9414720723,
				"element": "C" 
			},
			{
				"x": 2.5079335329,
				"y": -1.2155515147,
				"z": -1.8002148937,
				"element": "C" 
			},
			{
				"x": 3.5719783014,
				"y": -1.9652284592,
				"z": -1.2930652889,
				"element": "C" 
			},
			{
				"x": 3.6539455673,
				"y": -2.2311649846,
				"z": 0.0770854783,
				"element": "C" 
			},
			{
				"x": 2.673943347,
				"y": -1.7475704244,
				"z": 0.9387024839,
				"element": "C" 
			},
			{
				"x": -2.245537268,
				"y": 1.7523550961,
				"z": 1.0112928837,
				"element": "C" 
			},
			{
				"x": -3.5920287831,
				"y": 1.9389636713,
				"z": 1.3589604335,
				"element": "C" 
			},
			{
				"x": -4.2116313483,
				"y": 3.160913221,
				"z": 1.1148400252,
				"element": "C" 
			},
			{
				"x": -3.4912962532,
				"y": 4.2032105963,
				"z": 0.5236613251,
				"element": "C" 
			},
			{
				"x": -2.150112521,
				"y": 4.0217237957,
				"z": 0.1777082187,
				"element": "C" 
			},
			{
				"x": -1.5250024444,
				"y": 2.7994509316,
				"z": 0.4189033307,
				"element": "C" 
			},
			{
				"x": 0.6944574798,
				"y": -0.1478438901,
				"z": -1.3282811042,
				"element": "H" 
			},
			{
				"x": 2.4441829297,
				"y": -1.0121496847,
				"z": -2.8649653082,
				"element": "H" 
			},
			{
				"x": 4.3368844135,
				"y": -2.3434430337,
				"z": -1.9653296974,
				"element": "H" 
			},
			{
				"x": 4.4806243799,
				"y": -2.8152380168,
				"z": 0.4701326667,
				"element": "H" 
			},
			{
				"x": 2.7137997888,
				"y": -1.9427389984,
				"z": 2.004971144,
				"element": "H" 
			},
			{
				"x": -4.1286680961,
				"y": 1.116111032,
				"z": 1.8188968368,
				"element": "H" 
			},
			{
				"x": -5.2536888676,
				"y": 3.3034476924,
				"z": 1.3847042906,
				"element": "H" 
			},
			{
				"x": -3.9752330659,
				"y": 5.1570721952,
				"z": 0.3338682922,
				"element": "H" 
			},
			{
				"x": -1.5912033198,
				"y": 4.8330523592,
				"z": -0.2789042686,
				"element": "H" 
			},
			{
				"x": -0.4839715049,
				"y": 2.6524405103,
				"z": 0.1557820482,
				"element": "H" 
			}
		],
		 "valence_orbital": [ 
			{
				"type": "occ",
				"energy": -0.2751,
				"method": "rhf"
			},
			{
				"type": "occ",
				"energy": -0.26706,
				"method": "rhf"
			},
			{
				"type": "occ",
				"energy": -0.26574,
				"method": "rhf"
			},
			{
				"type": "occ",
				"energy": -0.26491,
				"method": "rhf"
			},
			{
				"type": "occ",
				"energy": -0.26466,
				"method": "rhf"
			},
			{
				"type": "unocc",
				"energy": -0.06621,
				"method": "rhf"
			},
			{
				"type": "unocc",
				"energy": -0.0489,
				"method": "rhf"
			},
			{
				"type": "unocc",
				"energy": -0.01438,
				"method": "rhf"
			},
			{
				"type": "unocc",
				"energy": -0.01411,
				"method": "rhf"
			},
			{
				"type": "unocc",
				"energy": 0.03767,
				"method": "rhf"
			}
		],
		"cosmo_sigma_profile": { 
			"-0.025": 0.0,
			"-0.024": 0.0,
			"-0.023": 0.0,
			"-0.022": 0.0,
			"-0.021": 0.0,
			"-0.02": 0.0,
			"-0.019": 0.0,
			"-0.018": 0.0,
			"-0.017": 0.0,
			"-0.016": 0.0,
			"-0.015": 0.0,
			"-0.014": 0.0,
			"-0.013": 0.0,
			"-0.012": 0.0,
			"-0.011": 0.0,
			"-0.01": 0.0,
			"-0.009": 0.0,
			"-0.008": 0.0,
			"-0.007": 6.91692648202,
			"-0.006": 19.9651146572,
			"-0.005": 22.2440605185,
			"-0.004": 19.8735923763,
			"-0.003": 18.5412233342,
			"-0.002": 21.471380152,
			"-0.001": 20.6954024196,
			"0.0": 22.8628323473,
			"0.001": 20.3205202599,
			"0.002": 21.9833737339,
			"0.003": 27.9899056735,
			"0.004": 12.8204745738,
			"0.005": 2.26151156833,
			"0.006": 2.28584730152,
			"0.007": 2.40832989686,
			"0.008": 3.73548889879,
			"0.009": 4.29135274548,
			"0.01": 8.08831998788,
			"0.011": 6.37942655389,
			"0.012": 1.68995828328,
			"0.013": 0.00803776258797,
			"0.014": 0.0,
			"0.015": 0.0,
			"0.016": 0.0,
			"0.017": 0.0,
			"0.018": 0.0,
			"0.019": 0.0,
			"0.02": 0.0,
			"0.021": 0.0,
			"0.022": 0.0,
			"0.023": 0.0,
			"0.024": 0.0,
			"0.025": 0.0
		}
	}
}
