{
	 "smiles": "CC1=NC(=CS1)C1=CC=C(C=C1)N=C=O", 
	 "Tm": 353.65, 
	 "num_atms": 23, 
	 "gaussian": { 
		 "optdone": 1, 
		 "sigma_profile": "yes", 
		 "theory": "DFT", 
		 "functional": "B3LYP", 
		 "basiset": "6-31G**", 
		 "properties": { 
			 "R2extent": 5580.8521, 
			 "electric_dipole_moment_norm": 3.55045289224, 
			 "electric_quadrupole_moment_norm": 12.2258807834, 
			 "total_energy": -1006.91166841, 
			 "HOMO_LUMO_gap": 0.16692, 
			 "cosmo_polarized_energy": -8.24, 
			 "cosmo_cavitation_energy": 30.79, 
			 "cosmo_dispersion_energy": -22.79, 
			 "cosmo_repulsion_energy": 1.73, 
			 "cosmo_total_nonelectrostatic_energy": 9.73, 
			 "SMD_solvation_energy": 6.31 
		},
		"coords": [
			{
				"x": -0.6606363505,
				"y": 3.9912495031,
				"z": 1.3999581846,
				"element": "C" 
			},
			{
				"x": -1.0548453983,
				"y": 2.7965106639,
				"z": 0.5864374289,
				"element": "C" 
			},
			{
				"x": -0.5260752923,
				"y": 1.6176348367,
				"z": 0.7091203981,
				"element": "N" 
			},
			{
				"x": -1.0774531936,
				"y": 0.6946619231,
				"z": -0.1676067085,
				"element": "C" 
			},
			{
				"x": -2.059619855,
				"y": 1.2053839648,
				"z": -0.9796517438,
				"element": "C" 
			},
			{
				"x": -2.3117983581,
				"y": 2.8849716857,
				"z": -0.6495110008,
				"element": "S" 
			},
			{
				"x": -0.5784974403,
				"y": -0.6925045607,
				"z": -0.1475706536,
				"element": "C" 
			},
			{
				"x": 0.4390171638,
				"y": -1.0557430446,
				"z": 0.7516582321,
				"element": "C" 
			},
			{
				"x": 0.9305296038,
				"y": -2.3548685376,
				"z": 0.7948227035,
				"element": "C" 
			},
			{
				"x": 0.4117210928,
				"y": -3.3310969838,
				"z": -0.0680344643,
				"element": "C" 
			},
			{
				"x": -0.6026057589,
				"y": -2.9841422189,
				"z": -0.9697096257,
				"element": "C" 
			},
			{
				"x": -1.0873466305,
				"y": -1.6824513593,
				"z": -1.0051506942,
				"element": "C" 
			},
			{
				"x": 0.8728356893,
				"y": -4.6497104987,
				"z": -0.0623446913,
				"element": "N" 
			},
			{
				"x": 1.6770669387,
				"y": -5.3542635096,
				"z": 0.502886214,
				"element": "C" 
			},
			{
				"x": 2.4146107476,
				"y": -6.1464973288,
				"z": 0.9704884921,
				"element": "O" 
			},
			{
				"x": 0.1321056615,
				"y": 3.694919813,
				"z": 2.0891247177,
				"element": "H" 
			},
			{
				"x": -0.2914420649,
				"y": 4.8044725936,
				"z": 0.7662849856,
				"element": "H" 
			},
			{
				"x": -1.5051896839,
				"y": 4.3784885673,
				"z": 1.979641217,
				"element": "H" 
			},
			{
				"x": -2.6403811855,
				"y": 0.703960921,
				"z": -1.7395208966,
				"element": "H" 
			},
			{
				"x": 0.8380717049,
				"y": -0.2991469834,
				"z": 1.417272779,
				"element": "H" 
			},
			{
				"x": 1.7170699304,
				"y": -2.6192132138,
				"z": 1.4956094084,
				"element": "H" 
			},
			{
				"x": -0.9996895886,
				"y": -3.7437212593,
				"z": -1.6344511323,
				"element": "H" 
			},
			{
				"x": -1.8735477324,
				"y": -1.4398949739,
				"z": -1.71325315,
				"element": "H" 
			}
		],
		 "valence_orbital": [ 
			{
				"type": "occ",
				"energy": -0.28903,
				"method": "rhf"
			},
			{
				"type": "occ",
				"energy": -0.27717,
				"method": "rhf"
			},
			{
				"type": "occ",
				"energy": -0.26558,
				"method": "rhf"
			},
			{
				"type": "occ",
				"energy": -0.26096,
				"method": "rhf"
			},
			{
				"type": "occ",
				"energy": -0.21384,
				"method": "rhf"
			},
			{
				"type": "unocc",
				"energy": -0.04692,
				"method": "rhf"
			},
			{
				"type": "unocc",
				"energy": -0.01693,
				"method": "rhf"
			},
			{
				"type": "unocc",
				"energy": -0.00695,
				"method": "rhf"
			},
			{
				"type": "unocc",
				"energy": 0.01143,
				"method": "rhf"
			},
			{
				"type": "unocc",
				"energy": 0.01573,
				"method": "rhf"
			}
		],
		"cosmo_sigma_profile": { 
			"-0.025": 0.0,
			"-0.024": 0.0,
			"-0.023": 0.0,
			"-0.022": 0.0,
			"-0.021": 0.0,
			"-0.02": 0.0,
			"-0.019": 0.0,
			"-0.018": 0.0,
			"-0.017": 0.0,
			"-0.016": 0.0,
			"-0.015": 0.0,
			"-0.014": 0.0,
			"-0.013": 0.0,
			"-0.012": 0.0,
			"-0.011": 0.0,
			"-0.01": 0.366262461138,
			"-0.009": 2.86779434565,
			"-0.008": 3.89165131581,
			"-0.007": 6.69686076378,
			"-0.006": 10.8099127169,
			"-0.005": 16.9555897915,
			"-0.004": 16.8259696118,
			"-0.003": 18.1148101149,
			"-0.002": 19.0035055328,
			"-0.001": 17.7484696846,
			"0.0": 15.0253970288,
			"0.001": 20.1749311728,
			"0.002": 25.9426164265,
			"0.003": 28.5866299269,
			"0.004": 20.5250470692,
			"0.005": 6.4310210374,
			"0.006": 4.40207195198,
			"0.007": 8.50238596465,
			"0.008": 4.58939408746,
			"0.009": 1.8123163416,
			"0.01": 1.32541165177,
			"0.011": 0.692060406086,
			"0.012": 0.0,
			"0.013": 0.0,
			"0.014": 0.0,
			"0.015": 0.0,
			"0.016": 0.0,
			"0.017": 0.0,
			"0.018": 0.0,
			"0.019": 0.0,
			"0.02": 0.0,
			"0.021": 0.0,
			"0.022": 0.0,
			"0.023": 0.0,
			"0.024": 0.0,
			"0.025": 0.0
		}
	}
}
