{
	 "smiles": "COC1=C(CN2C=NC3=C2C=C(C)C(C)=C3)C=CC=C1", 
	 "Tm": 400.15, 
	 "num_atms": 38, 
	 "gaussian": { 
		 "optdone": 1, 
		 "sigma_profile": "yes", 
		 "theory": "DFT", 
		 "functional": "B3LYP", 
		 "basiset": "6-31G**", 
		 "properties": { 
			 "R2extent": 7282.0179, 
			 "electric_dipole_moment_norm": 4.16759811642, 
			 "electric_quadrupole_moment_norm": 24.6956545139, 
			 "total_energy": -843.39604384, 
			 "HOMO_LUMO_gap": 0.19021, 
			 "cosmo_polarized_energy": -14.07, 
			 "cosmo_cavitation_energy": 40.58, 
			 "cosmo_dispersion_energy": -28.01, 
			 "cosmo_repulsion_energy": 2.12, 
			 "cosmo_total_nonelectrostatic_energy": 14.69, 
			 "SMD_solvation_energy": 5.41 
		},
		"coords": [
			{
				"x": -4.6613916983,
				"y": -1.0070296964,
				"z": 1.8178846728,
				"element": "C" 
			},
			{
				"x": -3.7038992906,
				"y": -0.0254240943,
				"z": 1.4463768261,
				"element": "O" 
			},
			{
				"x": -3.1323591043,
				"y": -0.104205168,
				"z": 0.2083049024,
				"element": "C" 
			},
			{
				"x": -2.1528862307,
				"y": 0.8727515858,
				"z": -0.0714179164,
				"element": "C" 
			},
			{
				"x": -1.7832163485,
				"y": 1.9039951212,
				"z": 0.9755542374,
				"element": "C" 
			},
			{
				"x": -1.0264086273,
				"y": 1.3744048522,
				"z": 2.1071490121,
				"element": "N" 
			},
			{
				"x": -1.5032226208,
				"y": 1.1572605209,
				"z": 3.3826374013,
				"element": "C" 
			},
			{
				"x": -0.6164796505,
				"y": 0.6790585119,
				"z": 4.2175252281,
				"element": "N" 
			},
			{
				"x": 0.5405416126,
				"y": 0.5606432357,
				"z": 3.4567880145,
				"element": "C" 
			},
			{
				"x": 0.3068894117,
				"y": 0.9877444021,
				"z": 2.1310745384,
				"element": "C" 
			},
			{
				"x": 1.3150304288,
				"y": 0.9773831954,
				"z": 1.1648442289,
				"element": "C" 
			},
			{
				"x": 2.583801251,
				"y": 0.5299327932,
				"z": 1.5368508955,
				"element": "C" 
			},
			{
				"x": 3.6924403195,
				"y": 0.5063811151,
				"z": 0.5098235212,
				"element": "C" 
			},
			{
				"x": 2.8360259562,
				"y": 0.0947802923,
				"z": 2.8718182263,
				"element": "C" 
			},
			{
				"x": 4.2140651474,
				"y": -0.3895695763,
				"z": 3.2624437038,
				"element": "C" 
			},
			{
				"x": 1.8155449884,
				"y": 0.1126376899,
				"z": 3.8208432268,
				"element": "C" 
			},
			{
				"x": -1.5532931417,
				"y": 0.8738936414,
				"z": -1.3300317829,
				"element": "C" 
			},
			{
				"x": -1.888774113,
				"y": -0.0738474795,
				"z": -2.3011672207,
				"element": "C" 
			},
			{
				"x": -2.8451659663,
				"y": -1.0399235502,
				"z": -2.0033225549,
				"element": "C" 
			},
			{
				"x": -3.4724048065,
				"y": -1.0599265884,
				"z": -0.7538909605,
				"element": "C" 
			},
			{
				"x": -4.9559871998,
				"y": -0.7678445268,
				"z": 2.8405148255,
				"element": "H" 
			},
			{
				"x": -5.5456066213,
				"y": -0.9738097302,
				"z": 1.1689772287,
				"element": "H" 
			},
			{
				"x": -4.2315709611,
				"y": -2.0156416027,
				"z": 1.7930271201,
				"element": "H" 
			},
			{
				"x": -1.1934310309,
				"y": 2.6999770501,
				"z": 0.5084423361,
				"element": "H" 
			},
			{
				"x": -2.6852741438,
				"y": 2.3634098577,
				"z": 1.3896554696,
				"element": "H" 
			},
			{
				"x": -2.5357914858,
				"y": 1.3750045786,
				"z": 3.6225004108,
				"element": "H" 
			},
			{
				"x": 1.1291190836,
				"y": 1.2958383283,
				"z": 0.1437340111,
				"element": "H" 
			},
			{
				"x": 4.540180629,
				"y": 1.1349712222,
				"z": 0.809709188,
				"element": "H" 
			},
			{
				"x": 3.3390182843,
				"y": 0.8676608747,
				"z": -0.4598831738,
				"element": "H" 
			},
			{
				"x": 4.0904355949,
				"y": -0.5052349975,
				"z": 0.3619579172,
				"element": "H" 
			},
			{
				"x": 4.2400752291,
				"y": -0.6837873229,
				"z": 4.3149754993,
				"element": "H" 
			},
			{
				"x": 4.97783822,
				"y": 0.3843329053,
				"z": 3.1152056301,
				"element": "H" 
			},
			{
				"x": 4.5277908963,
				"y": -1.2566520893,
				"z": 2.6676686458,
				"element": "H" 
			},
			{
				"x": 1.9997577484,
				"y": -0.2155272986,
				"z": 4.8397960862,
				"element": "H" 
			},
			{
				"x": -0.810800679,
				"y": 1.6361212142,
				"z": -1.5543459663,
				"element": "H" 
			},
			{
				"x": -1.4067808112,
				"y": -0.0550980512,
				"z": -3.2733466284,
				"element": "H" 
			},
			{
				"x": -3.1166141671,
				"y": -1.7873136935,
				"z": -2.7433225977,
				"element": "H" 
			},
			{
				"x": -4.2203961027,
				"y": -1.8148475224,
				"z": -0.5435542024,
				"element": "H" 
			}
		],
		 "valence_orbital": [ 
			{
				"type": "occ",
				"energy": -0.25775,
				"method": "rhf"
			},
			{
				"type": "occ",
				"energy": -0.25389,
				"method": "rhf"
			},
			{
				"type": "occ",
				"energy": -0.228,
				"method": "rhf"
			},
			{
				"type": "occ",
				"energy": -0.20629,
				"method": "rhf"
			},
			{
				"type": "occ",
				"energy": -0.20383,
				"method": "rhf"
			},
			{
				"type": "unocc",
				"energy": -0.01362,
				"method": "rhf"
			},
			{
				"type": "unocc",
				"energy": 0.00012,
				"method": "rhf"
			},
			{
				"type": "unocc",
				"energy": 0.00439,
				"method": "rhf"
			},
			{
				"type": "unocc",
				"energy": 0.03262,
				"method": "rhf"
			},
			{
				"type": "unocc",
				"energy": 0.06758,
				"method": "rhf"
			}
		],
		"cosmo_sigma_profile": { 
			"-0.025": 0.0,
			"-0.024": 0.0,
			"-0.023": 0.0,
			"-0.022": 0.0,
			"-0.021": 0.0,
			"-0.02": 0.0,
			"-0.019": 0.0,
			"-0.018": 0.0,
			"-0.017": 0.0,
			"-0.016": 0.0,
			"-0.015": 0.0,
			"-0.014": 0.0,
			"-0.013": 0.0,
			"-0.012": 0.0,
			"-0.011": 0.0,
			"-0.01": 0.0,
			"-0.009": 0.0751781283997,
			"-0.008": 1.85374789606,
			"-0.007": 6.30265434563,
			"-0.006": 17.1573720198,
			"-0.005": 24.0932380119,
			"-0.004": 32.5784859294,
			"-0.003": 35.0179088589,
			"-0.002": 23.278597856,
			"-0.001": 23.5578337281,
			"0.0": 25.9681138538,
			"0.001": 21.7220339654,
			"0.002": 17.63815973,
			"0.003": 19.8155513656,
			"0.004": 19.4757692429,
			"0.005": 20.0198390932,
			"0.006": 16.5365876339,
			"0.007": 3.50375721407,
			"0.008": 1.2139458947,
			"0.009": 2.02336876375,
			"0.01": 1.28233205391,
			"0.011": 1.0269290274,
			"0.012": 1.51863014751,
			"0.013": 0.963384326863,
			"0.014": 1.20038327586,
			"0.015": 0.890078724764,
			"0.016": 1.36571356785,
			"0.017": 1.03071265526,
			"0.018": 0.767050625613,
			"0.019": 0.0395958265131,
			"0.02": 0.0,
			"0.021": 0.0,
			"0.022": 0.0,
			"0.023": 0.0,
			"0.024": 0.0,
			"0.025": 0.0
		}
	}
}
