{
	 "smiles": "CCCOC1=CC=C2NC(NC(=O)OC)=NC2=C1", 
	 "Tm": 503.15, 
	 "num_atms": 33, 
	 "gaussian": { 
		 "optdone": 1, 
		 "sigma_profile": "yes", 
		 "theory": "DFT", 
		 "functional": "B3LYP", 
		 "basiset": "6-31G**", 
		 "properties": { 
			 "R2extent": 8260.1397, 
			 "electric_dipole_moment_norm": 2.76183624605, 
			 "electric_quadrupole_moment_norm": 28.5641879254, 
			 "total_energy": -856.277526319, 
			 "HOMO_LUMO_gap": 0.18307, 
			 "cosmo_polarized_energy": -16.64, 
			 "cosmo_cavitation_energy": 37.32, 
			 "cosmo_dispersion_energy": -27.43, 
			 "cosmo_repulsion_energy": 2.14, 
			 "cosmo_total_nonelectrostatic_energy": 12.04, 
			 "SMD_solvation_energy": 5.94 
		},
		"coords": [
			{
				"x": -3.8512657048,
				"y": 1.1567497732,
				"z": -4.329180232,
				"element": "C" 
			},
			{
				"x": -3.7936646901,
				"y": 2.2666193777,
				"z": -3.2753596055,
				"element": "C" 
			},
			{
				"x": -3.0810091684,
				"y": 1.8500694503,
				"z": -1.9944544655,
				"element": "C" 
			},
			{
				"x": -1.7256946948,
				"y": 1.555927295,
				"z": -2.3201094653,
				"element": "O" 
			},
			{
				"x": -0.8880155549,
				"y": 1.1333821665,
				"z": -1.3225844763,
				"element": "C" 
			},
			{
				"x": 0.4331659894,
				"y": 0.8547772092,
				"z": -1.7429104189,
				"element": "C" 
			},
			{
				"x": 1.4024907845,
				"y": 0.4179916284,
				"z": -0.8475745078,
				"element": "C" 
			},
			{
				"x": 1.0171236332,
				"y": 0.2657044778,
				"z": 0.4835044757,
				"element": "C" 
			},
			{
				"x": 1.695048791,
				"y": -0.1405668183,
				"z": 1.6308310402,
				"element": "N" 
			},
			{
				"x": 0.7816225045,
				"y": -0.0882023279,
				"z": 2.6482369632,
				"element": "C" 
			},
			{
				"x": 1.0629649362,
				"y": -0.419921312,
				"z": 3.9686621187,
				"element": "N" 
			},
			{
				"x": 2.217955211,
				"y": -0.8531290518,
				"z": 4.5769819659,
				"element": "C" 
			},
			{
				"x": 2.2977599418,
				"y": -1.1037637057,
				"z": 5.7611954289,
				"element": "O" 
			},
			{
				"x": 3.2494315894,
				"y": -0.9652051218,
				"z": 3.6978732993,
				"element": "O" 
			},
			{
				"x": 4.4836765654,
				"y": -1.4165740587,
				"z": 4.2870225347,
				"element": "C" 
			},
			{
				"x": -0.415931475,
				"y": 0.3085121319,
				"z": 2.2842234733,
				"element": "N" 
			},
			{
				"x": -0.2977520765,
				"y": 0.5397630938,
				"z": 0.9200104621,
				"element": "C" 
			},
			{
				"x": -1.2705547446,
				"y": 0.9806105987,
				"z": 0.0112437899,
				"element": "C" 
			},
			{
				"x": -2.8442967732,
				"y": 0.8323213231,
				"z": -4.6044183932,
				"element": "H" 
			},
			{
				"x": -4.3598358678,
				"y": 1.5001532346,
				"z": -5.2354831517,
				"element": "H" 
			},
			{
				"x": -4.3940277235,
				"y": 0.2822456258,
				"z": -3.9520595003,
				"element": "H" 
			},
			{
				"x": -3.2859024102,
				"y": 3.1485294394,
				"z": -3.6839509129,
				"element": "H" 
			},
			{
				"x": -4.8080845764,
				"y": 2.5847376487,
				"z": -3.0033113602,
				"element": "H" 
			},
			{
				"x": -3.1204814591,
				"y": 2.6572325011,
				"z": -1.2485694187,
				"element": "H" 
			},
			{
				"x": -3.562287013,
				"y": 0.9629286596,
				"z": -1.5551162245,
				"element": "H" 
			},
			{
				"x": 0.6688229209,
				"y": 0.9932316734,
				"z": -2.792482239,
				"element": "H" 
			},
			{
				"x": 2.4133007307,
				"y": 0.2076018852,
				"z": -1.1835543114,
				"element": "H" 
			},
			{
				"x": 2.6557298472,
				"y": -0.4238738061,
				"z": 1.7388718635,
				"element": "H" 
			},
			{
				"x": 0.2719577191,
				"y": -0.3241296787,
				"z": 4.5907136598,
				"element": "H" 
			},
			{
				"x": 5.200189763,
				"y": -1.4547293165,
				"z": 3.4667457808,
				"element": "H" 
			},
			{
				"x": 4.8170107172,
				"y": -0.7178725347,
				"z": 5.0569778333,
				"element": "H" 
			},
			{
				"x": 4.3550433537,
				"y": -2.4053056301,
				"z": 4.7319696411,
				"element": "H" 
			},
			{
				"x": -2.2740910659,
				"y": 1.1881841689,
				"z": 0.3591543529,
				"element": "H" 
			}
		],
		 "valence_orbital": [ 
			{
				"type": "occ",
				"energy": -0.29652,
				"method": "rhf"
			},
			{
				"type": "occ",
				"energy": -0.27919,
				"method": "rhf"
			},
			{
				"type": "occ",
				"energy": -0.2753,
				"method": "rhf"
			},
			{
				"type": "occ",
				"energy": -0.21509,
				"method": "rhf"
			},
			{
				"type": "occ",
				"energy": -0.19528,
				"method": "rhf"
			},
			{
				"type": "unocc",
				"energy": -0.01221,
				"method": "rhf"
			},
			{
				"type": "unocc",
				"energy": 0.02861,
				"method": "rhf"
			},
			{
				"type": "unocc",
				"energy": 0.03939,
				"method": "rhf"
			},
			{
				"type": "unocc",
				"energy": 0.07413,
				"method": "rhf"
			},
			{
				"type": "unocc",
				"energy": 0.08649,
				"method": "rhf"
			}
		],
		"cosmo_sigma_profile": { 
			"-0.025": 0.0,
			"-0.024": 0.0,
			"-0.023": 0.0,
			"-0.022": 0.0,
			"-0.021": 0.0,
			"-0.02": 0.0,
			"-0.019": 0.0,
			"-0.018": 0.0,
			"-0.017": 0.0,
			"-0.016": 0.423335563506,
			"-0.015": 1.00474443343,
			"-0.014": 1.56835139196,
			"-0.013": 1.6811743061,
			"-0.012": 1.20950969193,
			"-0.011": 1.42326475137,
			"-0.01": 1.86642654457,
			"-0.009": 1.44476475877,
			"-0.008": 2.10602800909,
			"-0.007": 5.76454923303,
			"-0.006": 12.0410193522,
			"-0.005": 15.230097485,
			"-0.004": 25.4174721061,
			"-0.003": 33.0349669761,
			"-0.002": 27.0789380749,
			"-0.001": 24.2098104435,
			"0.0": 21.7333296676,
			"0.001": 20.8852239775,
			"0.002": 14.1178698752,
			"0.003": 10.6117154913,
			"0.004": 12.8745112063,
			"0.005": 17.9064470359,
			"0.006": 10.297473639,
			"0.007": 5.82526737138,
			"0.008": 3.4921990988,
			"0.009": 3.25082543915,
			"0.01": 3.90447596106,
			"0.011": 3.95543855923,
			"0.012": 6.36288584157,
			"0.013": 1.63063783165,
			"0.014": 1.2541806019,
			"0.015": 0.936494811054,
			"0.016": 0.634010393108,
			"0.017": 0.472085553801,
			"0.018": 0.0,
			"0.019": 0.0,
			"0.02": 0.0,
			"0.021": 0.0,
			"0.022": 0.0,
			"0.023": 0.0,
			"0.024": 0.0,
			"0.025": 0.0
		}
	}
}
