{
	 "smiles": "CC1=CC=C(S1)C1=CSC(N)=N1", 
	 "Tm": 403.15, 
	 "num_atms": 20, 
	 "gaussian": { 
		 "optdone": 1, 
		 "sigma_profile": "yes", 
		 "theory": "DFT", 
		 "functional": "B3LYP", 
		 "basiset": "6-31G**", 
		 "properties": { 
			 "R2extent": 4013.8322, 
			 "electric_dipole_moment_norm": 1.49906262378, 
			 "electric_quadrupole_moment_norm": 19.0167634796, 
			 "total_energy": -1215.54243512, 
			 "HOMO_LUMO_gap": 0.15974, 
			 "cosmo_polarized_energy": -11.34, 
			 "cosmo_cavitation_energy": 27.5, 
			 "cosmo_dispersion_energy": -21.48, 
			 "cosmo_repulsion_energy": 1.63, 
			 "cosmo_total_nonelectrostatic_energy": 7.64, 
			 "SMD_solvation_energy": 3.0 
		},
		"coords": [
			{
				"x": -4.1041978374,
				"y": -2.3658610941,
				"z": -1.1756934785,
				"element": "C" 
			},
			{
				"x": -2.7437730519,
				"y": -1.7378328289,
				"z": -1.1388472804,
				"element": "C" 
			},
			{
				"x": -2.3002693804,
				"y": -0.6191752395,
				"z": -1.7932628708,
				"element": "C" 
			},
			{
				"x": -0.9366539763,
				"y": -0.2988623213,
				"z": -1.5304917026,
				"element": "C" 
			},
			{
				"x": -0.3279182435,
				"y": -1.177566344,
				"z": -0.6677496494,
				"element": "C" 
			},
			{
				"x": -1.4566412817,
				"y": -2.423482162,
				"z": -0.1695878495,
				"element": "S" 
			},
			{
				"x": 1.0501661324,
				"y": -1.1331449194,
				"z": -0.1971779679,
				"element": "C" 
			},
			{
				"x": 1.6512214778,
				"y": -2.0104437711,
				"z": 0.6656025398,
				"element": "C" 
			},
			{
				"x": 3.3113516345,
				"y": -1.54951981,
				"z": 0.9435219449,
				"element": "S" 
			},
			{
				"x": 3.0580878289,
				"y": -0.1923151488,
				"z": -0.1671459515,
				"element": "C" 
			},
			{
				"x": 4.0570991882,
				"y": 0.7271722786,
				"z": -0.3974658731,
				"element": "N" 
			},
			{
				"x": 1.8631980604,
				"y": -0.1075929365,
				"z": -0.6672561835,
				"element": "N" 
			},
			{
				"x": -4.7579328114,
				"y": -1.7887370204,
				"z": -1.8356253305,
				"element": "H" 
			},
			{
				"x": -4.0718723161,
				"y": -3.3949564044,
				"z": -1.5520839541,
				"element": "H" 
			},
			{
				"x": -4.5703455895,
				"y": -2.3950761276,
				"z": -0.1839341365,
				"element": "H" 
			},
			{
				"x": -2.9388284442,
				"y": -0.0372109517,
				"z": -2.4498226943,
				"element": "H" 
			},
			{
				"x": -0.4070205847,
				"y": 0.5457022294,
				"z": -1.9528589448,
				"element": "H" 
			},
			{
				"x": 1.2351987172,
				"y": -2.8846224398,
				"z": 1.1441129486,
				"element": "H" 
			},
			{
				"x": 3.8562140832,
				"y": 1.3350875225,
				"z": -1.1809723978,
				"element": "H" 
			},
			{
				"x": 5.0060163946,
				"y": 0.3814374889,
				"z": -0.3826611681,
				"element": "H" 
			}
		],
		 "valence_orbital": [ 
			{
				"type": "occ",
				"energy": -0.27998,
				"method": "rhf"
			},
			{
				"type": "occ",
				"energy": -0.2737,
				"method": "rhf"
			},
			{
				"type": "occ",
				"energy": -0.24364,
				"method": "rhf"
			},
			{
				"type": "occ",
				"energy": -0.23376,
				"method": "rhf"
			},
			{
				"type": "occ",
				"energy": -0.19025,
				"method": "rhf"
			},
			{
				"type": "unocc",
				"energy": -0.03051,
				"method": "rhf"
			},
			{
				"type": "unocc",
				"energy": 0.00929,
				"method": "rhf"
			},
			{
				"type": "unocc",
				"energy": 0.01659,
				"method": "rhf"
			},
			{
				"type": "unocc",
				"energy": 0.03225,
				"method": "rhf"
			},
			{
				"type": "unocc",
				"energy": 0.06021,
				"method": "rhf"
			}
		],
		"cosmo_sigma_profile": { 
			"-0.025": 0.0,
			"-0.024": 0.0,
			"-0.023": 0.0,
			"-0.022": 0.0,
			"-0.021": 0.0,
			"-0.02": 0.0,
			"-0.019": 0.0,
			"-0.018": 0.0,
			"-0.017": 0.0,
			"-0.016": 0.0,
			"-0.015": 0.443268997281,
			"-0.014": 1.86806713442,
			"-0.013": 2.93215249816,
			"-0.012": 2.21591548741,
			"-0.011": 2.759914784,
			"-0.01": 2.43773259515,
			"-0.009": 2.29187935186,
			"-0.008": 4.04734839569,
			"-0.007": 3.44429181154,
			"-0.006": 5.18166474886,
			"-0.005": 11.97683074,
			"-0.004": 13.3501941963,
			"-0.003": 14.4759458238,
			"-0.002": 15.5956412749,
			"-0.001": 15.7126838239,
			"0.0": 12.1681409822,
			"0.001": 12.9232294459,
			"0.002": 16.3932971246,
			"0.003": 19.6895127136,
			"0.004": 24.6250201717,
			"0.005": 19.9935250446,
			"0.006": 7.23940498956,
			"0.007": 2.80962535615,
			"0.008": 2.10871184408,
			"0.009": 1.71903733737,
			"0.01": 2.21783285346,
			"0.011": 2.28442975633,
			"0.012": 1.08359235334,
			"0.013": 0.0,
			"0.014": 0.0,
			"0.015": 0.0,
			"0.016": 0.0,
			"0.017": 0.0,
			"0.018": 0.0,
			"0.019": 0.0,
			"0.02": 0.0,
			"0.021": 0.0,
			"0.022": 0.0,
			"0.023": 0.0,
			"0.024": 0.0,
			"0.025": 0.0
		}
	}
}
