{
	 "smiles": "CC1=CC(C)=C(O)C(=C1)C(C)(C)C", 
	 "Tm": 295.45, 
	 "num_atms": 31, 
	 "gaussian": { 
		 "optdone": 1, 
		 "sigma_profile": "yes", 
		 "theory": "DFT", 
		 "functional": "B3LYP", 
		 "basiset": "6-31G**", 
		 "properties": { 
			 "R2extent": 3458.0247, 
			 "electric_dipole_moment_norm": 1.51993932116, 
			 "electric_quadrupole_moment_norm": 3.77611776697, 
			 "total_energy": -543.369970184, 
			 "HOMO_LUMO_gap": 0.21244, 
			 "cosmo_polarized_energy": -6.12, 
			 "cosmo_cavitation_energy": 31.06, 
			 "cosmo_dispersion_energy": -22.29, 
			 "cosmo_repulsion_energy": 1.75, 
			 "cosmo_total_nonelectrostatic_energy": 10.53, 
			 "SMD_solvation_energy": 5.6 
		},
		"coords": [
			{
				"x": 4.2844719721,
				"y": 0.7275884034,
				"z": 2.6138219496,
				"element": "C" 
			},
			{
				"x": 3.2685501022,
				"y": 0.1404306576,
				"z": 1.6608417321,
				"element": "C" 
			},
			{
				"x": 3.6115789454,
				"y": -0.9111748687,
				"z": 0.8043936071,
				"element": "C" 
			},
			{
				"x": 2.6877410012,
				"y": -1.4668227297,
				"z": -0.0765990347,
				"element": "C" 
			},
			{
				"x": 3.0555666994,
				"y": -2.6002820017,
				"z": -1.0010700644,
				"element": "C" 
			},
			{
				"x": 1.3779052541,
				"y": -0.9506947386,
				"z": -0.0991950326,
				"element": "C" 
			},
			{
				"x": 0.547682905,
				"y": -1.5713172168,
				"z": -1.0058167739,
				"element": "O" 
			},
			{
				"x": 0.9807772394,
				"y": 0.1090414599,
				"z": 0.7435182571,
				"element": "C" 
			},
			{
				"x": 1.9609342755,
				"y": 0.6252216544,
				"z": 1.6090223982,
				"element": "C" 
			},
			{
				"x": -0.4554287218,
				"y": 0.6837197722,
				"z": 0.726421236,
				"element": "C" 
			},
			{
				"x": -0.7877006105,
				"y": 1.2774565426,
				"z": -0.6688865188,
				"element": "C" 
			},
			{
				"x": -0.6340635942,
				"y": 1.8337823337,
				"z": 1.7396559832,
				"element": "C" 
			},
			{
				"x": -1.4837496707,
				"y": -0.4095095938,
				"z": 1.122994506,
				"element": "C" 
			},
			{
				"x": 5.1716329005,
				"y": 1.0928123666,
				"z": 2.0830071277,
				"element": "H" 
			},
			{
				"x": 3.8654953094,
				"y": 1.5679254985,
				"z": 3.1750525305,
				"element": "H" 
			},
			{
				"x": 4.6317623062,
				"y": -0.0155301107,
				"z": 3.3419648531,
				"element": "H" 
			},
			{
				"x": 4.6237758664,
				"y": -1.3107559407,
				"z": 0.8204424006,
				"element": "H" 
			},
			{
				"x": 2.4285709741,
				"y": -3.4806855399,
				"z": -0.8217337251,
				"element": "H" 
			},
			{
				"x": 4.1015734219,
				"y": -2.888172386,
				"z": -0.8659230664,
				"element": "H" 
			},
			{
				"x": 2.9057395657,
				"y": -2.3236795137,
				"z": -2.0505664408,
				"element": "H" 
			},
			{
				"x": -0.3275727327,
				"y": -1.1739198026,
				"z": -0.9732211616,
				"element": "H" 
			},
			{
				"x": 1.7005892041,
				"y": 1.4403876808,
				"z": 2.2739269878,
				"element": "H" 
			},
			{
				"x": -0.1071757722,
				"y": 2.1032584414,
				"z": -0.8981044228,
				"element": "H" 
			},
			{
				"x": -1.8119845882,
				"y": 1.6661584034,
				"z": -0.6835253802,
				"element": "H" 
			},
			{
				"x": -0.6973504205,
				"y": 0.5630055457,
				"z": -1.4930398387,
				"element": "H" 
			},
			{
				"x": -0.451571832,
				"y": 1.5050292095,
				"z": 2.767255247,
				"element": "H" 
			},
			{
				"x": -1.663015927,
				"y": 2.2047708686,
				"z": 1.6893932695,
				"element": "H" 
			},
			{
				"x": 0.0311288395,
				"y": 2.6753960605,
				"z": 1.523908823,
				"element": "H" 
			},
			{
				"x": -1.2879588859,
				"y": -0.7584073876,
				"z": 2.141591758,
				"element": "H" 
			},
			{
				"x": -2.501435764,
				"y": -0.0048266495,
				"z": 1.0912752874,
				"element": "H" 
			},
			{
				"x": -1.4643682623,
				"y": -1.2964064189,
				"z": 0.4819935061,
				"element": "H" 
			}
		],
		 "valence_orbital": [ 
			{
				"type": "occ",
				"energy": -0.31912,
				"method": "rhf"
			},
			{
				"type": "occ",
				"energy": -0.31028,
				"method": "rhf"
			},
			{
				"type": "occ",
				"energy": -0.30917,
				"method": "rhf"
			},
			{
				"type": "occ",
				"energy": -0.22981,
				"method": "rhf"
			},
			{
				"type": "occ",
				"energy": -0.20159,
				"method": "rhf"
			},
			{
				"type": "unocc",
				"energy": 0.01085,
				"method": "rhf"
			},
			{
				"type": "unocc",
				"energy": 0.02208,
				"method": "rhf"
			},
			{
				"type": "unocc",
				"energy": 0.06538,
				"method": "rhf"
			},
			{
				"type": "unocc",
				"energy": 0.10005,
				"method": "rhf"
			},
			{
				"type": "unocc",
				"energy": 0.11549,
				"method": "rhf"
			}
		],
		"cosmo_sigma_profile": { 
			"-0.025": 0.0,
			"-0.024": 0.0,
			"-0.023": 0.0,
			"-0.022": 0.0,
			"-0.021": 0.0,
			"-0.02": 0.0,
			"-0.019": 0.0,
			"-0.018": 0.0,
			"-0.017": 0.0,
			"-0.016": 0.0,
			"-0.015": 0.154456691012,
			"-0.014": 0.34621356814,
			"-0.013": 0.755124055161,
			"-0.012": 0.693439685856,
			"-0.011": 0.498702688552,
			"-0.01": 0.864346055575,
			"-0.009": 0.476488123098,
			"-0.008": 1.40314428999,
			"-0.007": 0.734995329527,
			"-0.006": 0.994979312053,
			"-0.005": 1.98439619443,
			"-0.004": 11.0465281844,
			"-0.003": 33.5550442823,
			"-0.002": 31.4996848013,
			"-0.001": 31.1854244919,
			"0.0": 34.6489733842,
			"0.001": 32.9571963235,
			"0.002": 11.4920026007,
			"0.003": 9.23054292361,
			"0.004": 7.82581812993,
			"0.005": 8.2987182704,
			"0.006": 8.27577183331,
			"0.007": 6.85551784216,
			"0.008": 1.87386639003,
			"0.009": 1.60300835467,
			"0.01": 1.99709344177,
			"0.011": 0.80867245837,
			"0.012": 0.0,
			"0.013": 0.0,
			"0.014": 0.0,
			"0.015": 0.0,
			"0.016": 0.0,
			"0.017": 0.0,
			"0.018": 0.0,
			"0.019": 0.0,
			"0.02": 0.0,
			"0.021": 0.0,
			"0.022": 0.0,
			"0.023": 0.0,
			"0.024": 0.0,
			"0.025": 0.0
		}
	}
}
