{
	 "smiles": "OC(=O)C=CC1=CC=C(S1)C1=CC=CC=C1", 
	 "Tm": 290.15, 
	 "num_atms": 26, 
	 "gaussian": { 
		 "optdone": 1, 
		 "sigma_profile": "yes", 
		 "theory": "DFT", 
		 "functional": "B3LYP", 
		 "basiset": "6-31G**", 
		 "properties": { 
			 "R2extent": 6036.9018, 
			 "electric_dipole_moment_norm": 3.85324717219, 
			 "electric_quadrupole_moment_norm": 12.4712168817, 
			 "total_energy": -1050.03451824, 
			 "HOMO_LUMO_gap": 0.13495, 
			 "cosmo_polarized_energy": -11.66, 
			 "cosmo_cavitation_energy": 32.51, 
			 "cosmo_dispersion_energy": -24.36, 
			 "cosmo_repulsion_energy": 1.83, 
			 "cosmo_total_nonelectrostatic_energy": 9.98, 
			 "SMD_solvation_energy": 6.49 
		},
		"coords": [
			{
				"x": 1.4142270631,
				"y": 0.5711077174,
				"z": -3.8352713167,
				"element": "O" 
			},
			{
				"x": 2.745146993,
				"y": 0.7803633013,
				"z": -3.6394190356,
				"element": "C" 
			},
			{
				"x": 3.4916652238,
				"y": 0.9737053269,
				"z": -4.5827166026,
				"element": "O" 
			},
			{
				"x": 3.2144718523,
				"y": 0.7603977657,
				"z": -2.2487855389,
				"element": "C" 
			},
			{
				"x": 2.5984957989,
				"y": 0.5749270759,
				"z": -1.0519077077,
				"element": "C" 
			},
			{
				"x": 1.2434498239,
				"y": 0.3178911997,
				"z": -0.6173092943,
				"element": "C" 
			},
			{
				"x": 0.0320441913,
				"y": 0.135190429,
				"z": -1.2642430515,
				"element": "C" 
			},
			{
				"x": -1.0485708483,
				"y": -0.1008361227,
				"z": -0.3869705256,
				"element": "C" 
			},
			{
				"x": -0.7025235663,
				"y": -0.1076738477,
				"z": 0.9527677298,
				"element": "C" 
			},
			{
				"x": 1.0029992229,
				"y": 0.1953417363,
				"z": 1.1250465318,
				"element": "S" 
			},
			{
				"x": -1.5735366589,
				"y": -0.3219294227,
				"z": 2.1135398839,
				"element": "C" 
			},
			{
				"x": -2.9479069649,
				"y": -0.0278363369,
				"z": 2.0304501338,
				"element": "C" 
			},
			{
				"x": -3.7886714398,
				"y": -0.2398982784,
				"z": 3.1199536235,
				"element": "C" 
			},
			{
				"x": -3.2766105467,
				"y": -0.7390710447,
				"z": 4.319901702,
				"element": "C" 
			},
			{
				"x": -1.9139154707,
				"y": -1.0270169623,
				"z": 4.4188865074,
				"element": "C" 
			},
			{
				"x": -1.0716527549,
				"y": -0.8247551765,
				"z": 3.3280909434,
				"element": "C" 
			},
			{
				"x": 1.2925838993,
				"y": 0.6214830976,
				"z": -4.7980296033,
				"element": "H" 
			},
			{
				"x": 4.284284145,
				"y": 0.937535,
				"z": -2.2149713387,
				"element": "H" 
			},
			{
				"x": 3.2925719494,
				"y": 0.6351244532,
				"z": -0.2134072073,
				"element": "H" 
			},
			{
				"x": -0.0559742696,
				"y": 0.1626239926,
				"z": -2.3392873888,
				"element": "H" 
			},
			{
				"x": -2.0586886826,
				"y": -0.2935540503,
				"z": -0.7298913584,
				"element": "H" 
			},
			{
				"x": -3.3510134467,
				"y": 0.3902063627,
				"z": 1.1134508301,
				"element": "H" 
			},
			{
				"x": -4.8454669636,
				"y": -0.003623871,
				"z": 3.0352146853,
				"element": "H" 
			},
			{
				"x": -3.9329356662,
				"y": -0.8995551342,
				"z": 5.1699919641,
				"element": "H" 
			},
			{
				"x": -1.5055762194,
				"y": -1.4191447845,
				"z": 5.345778037,
				"element": "H" 
			},
			{
				"x": -0.0184966642,
				"y": -1.0779024265,
				"z": 3.4099373973,
				"element": "H" 
			}
		],
		 "valence_orbital": [ 
			{
				"type": "occ",
				"energy": -0.27096,
				"method": "rhf"
			},
			{
				"type": "occ",
				"energy": -0.26815,
				"method": "rhf"
			},
			{
				"type": "occ",
				"energy": -0.26291,
				"method": "rhf"
			},
			{
				"type": "occ",
				"energy": -0.25934,
				"method": "rhf"
			},
			{
				"type": "occ",
				"energy": -0.2128,
				"method": "rhf"
			},
			{
				"type": "unocc",
				"energy": -0.07785,
				"method": "rhf"
			},
			{
				"type": "unocc",
				"energy": -0.02542,
				"method": "rhf"
			},
			{
				"type": "unocc",
				"energy": -0.01302,
				"method": "rhf"
			},
			{
				"type": "unocc",
				"energy": 0.01457,
				"method": "rhf"
			},
			{
				"type": "unocc",
				"energy": 0.02601,
				"method": "rhf"
			}
		],
		"cosmo_sigma_profile": { 
			"-0.025": 0.0,
			"-0.024": 0.0,
			"-0.023": 0.0,
			"-0.022": 0.0,
			"-0.021": 0.0,
			"-0.02": 0.0,
			"-0.019": 0.0,
			"-0.018": 0.477965792535,
			"-0.017": 0.715323295129,
			"-0.016": 1.31445948766,
			"-0.015": 0.825387983385,
			"-0.014": 0.263345939142,
			"-0.013": 0.495252150347,
			"-0.012": 0.26059406087,
			"-0.011": 1.18378956486,
			"-0.01": 1.22672702973,
			"-0.009": 0.367798300341,
			"-0.008": 2.4930169898,
			"-0.007": 8.08239175863,
			"-0.006": 14.0529754606,
			"-0.005": 17.135320624,
			"-0.004": 17.72771708,
			"-0.003": 15.0928250329,
			"-0.002": 14.788229815,
			"-0.001": 16.8884241461,
			"0.0": 17.1448578254,
			"0.001": 21.6439274496,
			"0.002": 29.4479890032,
			"0.003": 32.2575009844,
			"0.004": 19.9496449513,
			"0.005": 11.8765402428,
			"0.006": 1.8609943035,
			"0.007": 0.580104571186,
			"0.008": 1.45575006405,
			"0.009": 1.71661430576,
			"0.01": 1.65013242547,
			"0.011": 2.36620056983,
			"0.012": 5.16179385191,
			"0.013": 2.77606410708,
			"0.014": 0.18684701843,
			"0.015": 0.0,
			"0.016": 0.0,
			"0.017": 0.0,
			"0.018": 0.0,
			"0.019": 0.0,
			"0.02": 0.0,
			"0.021": 0.0,
			"0.022": 0.0,
			"0.023": 0.0,
			"0.024": 0.0,
			"0.025": 0.0
		}
	}
}
