{
	 "smiles": "CCCCCCCCC=CCCCCCCCCCCCC(N)=O", 
	 "Tm": 351.35, 
	 "num_atms": 67, 
	 "gaussian": { 
		 "optdone": 1, 
		 "sigma_profile": "yes", 
		 "theory": "DFT", 
		 "functional": "B3LYP", 
		 "basiset": "6-31G**", 
		 "properties": { 
			 "R2extent": 13502.9782, 
			 "electric_dipole_moment_norm": 3.82687588641, 
			 "electric_quadrupole_moment_norm": 25.0301135886, 
			 "total_energy": -994.279405626, 
			 "HOMO_LUMO_gap": 0.25432, 
			 "cosmo_polarized_energy": -13.07, 
			 "cosmo_cavitation_energy": 64.22, 
			 "cosmo_dispersion_energy": -38.91, 
			 "cosmo_repulsion_energy": 3.1, 
			 "cosmo_total_nonelectrostatic_energy": 28.41, 
			 "SMD_solvation_energy": 8.85 
		},
		"coords": [
			{
				"x": 4.7586099388,
				"y": 5.2181228254,
				"z": 0.5332172723,
				"element": "C" 
			},
			{
				"x": 3.4979761181,
				"y": 4.3467964523,
				"z": 0.5191125729,
				"element": "C" 
			},
			{
				"x": 2.2544196212,
				"y": 5.0938461806,
				"z": 1.0284548734,
				"element": "C" 
			},
			{
				"x": 0.9258076416,
				"y": 4.3115244844,
				"z": 0.9349479689,
				"element": "C" 
			},
			{
				"x": 0.5509053928,
				"y": 3.4413179717,
				"z": 2.1491795928,
				"element": "C" 
			},
			{
				"x": 1.4887025467,
				"y": 2.2627279437,
				"z": 2.4525161749,
				"element": "C" 
			},
			{
				"x": 0.9777168603,
				"y": 1.3229942936,
				"z": 3.5612084094,
				"element": "C" 
			},
			{
				"x": -0.266294347,
				"y": 0.4768636137,
				"z": 3.203502354,
				"element": "C" 
			},
			{
				"x": -0.0250303356,
				"y": -0.5405026122,
				"z": 2.1198630404,
				"element": "C" 
			},
			{
				"x": -0.177415341,
				"y": -1.8614552824,
				"z": 2.2590813951,
				"element": "C" 
			},
			{
				"x": 0.1215131356,
				"y": -2.9013156366,
				"z": 1.2105433749,
				"element": "C" 
			},
			{
				"x": -0.9384552887,
				"y": -4.0173531751,
				"z": 1.0451358972,
				"element": "C" 
			},
			{
				"x": -2.1175239516,
				"y": -3.7827516109,
				"z": 0.0789277633,
				"element": "C" 
			},
			{
				"x": -3.1861541961,
				"y": -2.7394532591,
				"z": 0.4738240171,
				"element": "C" 
			},
			{
				"x": -2.9847809626,
				"y": -1.2802603807,
				"z": 0.0205025679,
				"element": "C" 
			},
			{
				"x": -2.9826207718,
				"y": -1.0439611314,
				"z": -1.5095606538,
				"element": "C" 
			},
			{
				"x": -1.5899270607,
				"y": -0.9242610469,
				"z": -2.1496185659,
				"element": "C" 
			},
			{
				"x": -1.6417814265,
				"y": -0.611707587,
				"z": -3.6516022819,
				"element": "C" 
			},
			{
				"x": -0.2704295549,
				"y": -0.5974136339,
				"z": -4.3511621141,
				"element": "C" 
			},
			{
				"x": 0.7478853389,
				"y": 0.4239352989,
				"z": -3.8178668568,
				"element": "C" 
			},
			{
				"x": 0.328093954,
				"y": 1.8890066869,
				"z": -4.0014603446,
				"element": "C" 
			},
			{
				"x": 1.2955042064,
				"y": 2.8473833538,
				"z": -3.3113563152,
				"element": "C" 
			},
			{
				"x": 1.572805793,
				"y": 3.9983880564,
				"z": -3.9904003499,
				"element": "N" 
			},
			{
				"x": 1.7798254529,
				"y": 2.6083059253,
				"z": -2.2105353543,
				"element": "O" 
			},
			{
				"x": 5.6298836544,
				"y": 4.670706603,
				"z": 0.1576156947,
				"element": "H" 
			},
			{
				"x": 4.6328260353,
				"y": 6.1105397992,
				"z": -0.0922303694,
				"element": "H" 
			},
			{
				"x": 4.9957857397,
				"y": 5.5624108355,
				"z": 1.547032342,
				"element": "H" 
			},
			{
				"x": 3.6748072549,
				"y": 3.4493258492,
				"z": 1.1227485843,
				"element": "H" 
			},
			{
				"x": 3.2997046313,
				"y": 3.986174604,
				"z": -0.4977077828,
				"element": "H" 
			},
			{
				"x": 2.1564861875,
				"y": 6.0157076227,
				"z": 0.4374102135,
				"element": "H" 
			},
			{
				"x": 2.4177047992,
				"y": 5.4267332709,
				"z": 2.06459575,
				"element": "H" 
			},
			{
				"x": 0.9406169851,
				"y": 3.6906590216,
				"z": 0.0297659382,
				"element": "H" 
			},
			{
				"x": 0.1101597211,
				"y": 5.0335106439,
				"z": 0.7951126647,
				"element": "H" 
			},
			{
				"x": -0.4642832168,
				"y": 3.0589376522,
				"z": 1.9787629351,
				"element": "H" 
			},
			{
				"x": 0.4828898483,
				"y": 4.0787012096,
				"z": 3.0434697028,
				"element": "H" 
			},
			{
				"x": 2.4663578988,
				"y": 2.6500469032,
				"z": 2.7628752037,
				"element": "H" 
			},
			{
				"x": 1.6717841224,
				"y": 1.6935623126,
				"z": 1.5318816995,
				"element": "H" 
			},
			{
				"x": 1.785356171,
				"y": 0.6392507769,
				"z": 3.8518060368,
				"element": "H" 
			},
			{
				"x": 0.7452167083,
				"y": 1.921478742,
				"z": 4.4530341533,
				"element": "H" 
			},
			{
				"x": -1.0822734923,
				"y": 1.1481202816,
				"z": 2.899952478,
				"element": "H" 
			},
			{
				"x": -0.6162822856,
				"y": -0.0377073171,
				"z": 4.1069400438,
				"element": "H" 
			},
			{
				"x": 0.3062378776,
				"y": -0.1548891933,
				"z": 1.1543201509,
				"element": "H" 
			},
			{
				"x": -0.506008823,
				"y": -2.2506424732,
				"z": 3.2261296728,
				"element": "H" 
			},
			{
				"x": 1.0620096681,
				"y": -3.394943268,
				"z": 1.4996692091,
				"element": "H" 
			},
			{
				"x": 0.3230449242,
				"y": -2.41825723,
				"z": 0.2461257485,
				"element": "H" 
			},
			{
				"x": -1.3361568786,
				"y": -4.2780343492,
				"z": 2.0364634563,
				"element": "H" 
			},
			{
				"x": -0.4179935786,
				"y": -4.916869373,
				"z": 0.6919925962,
				"element": "H" 
			},
			{
				"x": -1.7264716098,
				"y": -3.5624690562,
				"z": -0.9221671583,
				"element": "H" 
			},
			{
				"x": -2.6240197666,
				"y": -4.7520386242,
				"z": -0.0192065958,
				"element": "H" 
			},
			{
				"x": -4.1505104261,
				"y": -3.0746983128,
				"z": 0.0675318949,
				"element": "H" 
			},
			{
				"x": -3.3063807186,
				"y": -2.75374387,
				"z": 1.5657375698,
				"element": "H" 
			},
			{
				"x": -3.8036768769,
				"y": -0.6981656197,
				"z": 0.4622519628,
				"element": "H" 
			},
			{
				"x": -2.0674535686,
				"y": -0.8749121483,
				"z": 0.4585420397,
				"element": "H" 
			},
			{
				"x": -3.5288176422,
				"y": -0.1160975981,
				"z": -1.7268723168,
				"element": "H" 
			},
			{
				"x": -3.549005561,
				"y": -1.841698838,
				"z": -2.011490894,
				"element": "H" 
			},
			{
				"x": -1.0314633603,
				"y": -0.1384093981,
				"z": -1.624328716,
				"element": "H" 
			},
			{
				"x": -1.0200989539,
				"y": -1.8502881279,
				"z": -1.9966277031,
				"element": "H" 
			},
			{
				"x": -2.1547222722,
				"y": 0.3485811753,
				"z": -3.8029994945,
				"element": "H" 
			},
			{
				"x": -2.2715378739,
				"y": -1.361054258,
				"z": -4.1502614764,
				"element": "H" 
			},
			{
				"x": 0.1755417002,
				"y": -1.5974286155,
				"z": -4.2657535686,
				"element": "H" 
			},
			{
				"x": -0.4229014734,
				"y": -0.4279590761,
				"z": -5.4262770931,
				"element": "H" 
			},
			{
				"x": 1.7063257592,
				"y": 0.2665885583,
				"z": -4.328413795,
				"element": "H" 
			},
			{
				"x": 0.9448163234,
				"y": 0.2605516966,
				"z": -2.7543534695,
				"element": "H" 
			},
			{
				"x": -0.6553997477,
				"y": 2.0589730598,
				"z": -3.5444150939,
				"element": "H" 
			},
			{
				"x": 0.2240670306,
				"y": 2.1335190581,
				"z": -5.0662708926,
				"element": "H" 
			},
			{
				"x": 1.1681478928,
				"y": 4.2085297719,
				"z": -4.8876202457,
				"element": "H" 
			},
			{
				"x": 2.1686344288,
				"y": 4.6823195678,
				"z": -3.5485255137,
				"element": "H" 
			}
		],
		 "valence_orbital": [ 
			{
				"type": "occ",
				"energy": -0.28799,
				"method": "rhf"
			},
			{
				"type": "occ",
				"energy": -0.28622,
				"method": "rhf"
			},
			{
				"type": "occ",
				"energy": -0.26942,
				"method": "rhf"
			},
			{
				"type": "occ",
				"energy": -0.24951,
				"method": "rhf"
			},
			{
				"type": "occ",
				"energy": -0.22761,
				"method": "rhf"
			},
			{
				"type": "unocc",
				"energy": 0.02671,
				"method": "rhf"
			},
			{
				"type": "unocc",
				"energy": 0.03092,
				"method": "rhf"
			},
			{
				"type": "unocc",
				"energy": 0.06484,
				"method": "rhf"
			},
			{
				"type": "unocc",
				"energy": 0.08145,
				"method": "rhf"
			},
			{
				"type": "unocc",
				"energy": 0.09263,
				"method": "rhf"
			}
		],
		"cosmo_sigma_profile": { 
			"-0.025": 0.0,
			"-0.024": 0.0,
			"-0.023": 0.0,
			"-0.022": 0.0,
			"-0.021": 0.0,
			"-0.02": 0.0,
			"-0.019": 0.0,
			"-0.018": 0.0,
			"-0.017": 0.0,
			"-0.016": 0.0,
			"-0.015": 0.0,
			"-0.014": 1.21783880322,
			"-0.013": 2.00713570622,
			"-0.012": 2.70109479382,
			"-0.011": 2.18128316009,
			"-0.01": 2.80568838649,
			"-0.009": 2.71285633664,
			"-0.008": 1.76699095,
			"-0.007": 1.99532994172,
			"-0.006": 2.25536301664,
			"-0.005": 3.20402042312,
			"-0.004": 5.87632914633,
			"-0.003": 19.1651016015,
			"-0.002": 62.1749427108,
			"-0.001": 95.3181585907,
			"0.0": 104.081853422,
			"0.001": 82.6749519987,
			"0.002": 44.3328714734,
			"0.003": 13.5419273176,
			"0.004": 9.01897200946,
			"0.005": 7.78724739729,
			"0.006": 6.29681392984,
			"0.007": 4.3340006684,
			"0.008": 2.98405799627,
			"0.009": 2.8842439518,
			"0.01": 2.56880357402,
			"0.011": 1.30363698935,
			"0.012": 2.38314506331,
			"0.013": 1.46132316008,
			"0.014": 1.24110664349,
			"0.015": 0.0592590912988,
			"0.016": 0.0,
			"0.017": 0.0,
			"0.018": 0.0,
			"0.019": 0.0,
			"0.02": 0.0,
			"0.021": 0.0,
			"0.022": 0.0,
			"0.023": 0.0,
			"0.024": 0.0,
			"0.025": 0.0
		}
	}
}
