{
	 "smiles": "CC1=CC(Br)=CC=C1N=C=O", 
	 "Tm": 322.15, 
	 "num_atms": 17, 
	 "gaussian": { 
		 "optdone": 1, 
		 "sigma_profile": "yes", 
		 "theory": "DFT", 
		 "functional": "B3LYP", 
		 "basiset": "6-31G**", 
		 "properties": { 
			 "R2extent": 4335.048, 
			 "electric_dipole_moment_norm": 0.727809054629, 
			 "electric_quadrupole_moment_norm": 11.7135937103, 
			 "total_energy": -3009.85397279, 
			 "HOMO_LUMO_gap": 0.19896, 
			 "cosmo_polarized_energy": -5.2, 
			 "cosmo_cavitation_energy": 24.95, 
			 "cosmo_dispersion_energy": -18.25, 
			 "cosmo_repulsion_energy": 1.48, 
			 "cosmo_total_nonelectrostatic_energy": 8.17, 
			 "SMD_solvation_energy": 5.7 
		},
		"coords": [
			{
				"x": -2.1618838328,
				"y": 1.4554111422,
				"z": -0.5647120056,
				"element": "C" 
			},
			{
				"x": -1.3118835657,
				"y": 0.6806748524,
				"z": 0.4089901857,
				"element": "C" 
			},
			{
				"x": -1.6691008868,
				"y": 0.5729253828,
				"z": 1.7562648783,
				"element": "C" 
			},
			{
				"x": -0.876259037,
				"y": -0.1458420828,
				"z": 2.6488071896,
				"element": "C" 
			},
			{
				"x": -1.4009750288,
				"y": -0.2677887922,
				"z": 4.4815784172,
				"element": "Br" 
			},
			{
				"x": 0.291577731,
				"y": -0.7759785034,
				"z": 2.2257123021,
				"element": "C" 
			},
			{
				"x": 0.6607143523,
				"y": -0.6778580892,
				"z": 0.8871452493,
				"element": "C" 
			},
			{
				"x": -0.13026079,
				"y": 0.0428039571,
				"z": -0.0172917806,
				"element": "C" 
			},
			{
				"x": 0.2226038037,
				"y": 0.1538371449,
				"z": -1.3658158978,
				"element": "N" 
			},
			{
				"x": 1.0842418618,
				"y": -0.1981384448,
				"z": -2.1381819781,
				"element": "C" 
			},
			{
				"x": 1.8529765322,
				"y": -0.4719044849,
				"z": -2.9883182254,
				"element": "O" 
			},
			{
				"x": -1.593535499,
				"y": 2.2721984936,
				"z": -1.0223900245,
				"element": "H" 
			},
			{
				"x": -3.0366736217,
				"y": 1.8814565752,
				"z": -0.0679452124,
				"element": "H" 
			},
			{
				"x": -2.5080338861,
				"y": 0.8151769203,
				"z": -1.3831884372,
				"element": "H" 
			},
			{
				"x": -2.5741908563,
				"y": 1.0551195512,
				"z": 2.1089824537,
				"element": "H" 
			},
			{
				"x": 0.9028873446,
				"y": -1.3332262067,
				"z": 2.9258093478,
				"element": "H" 
			},
			{
				"x": 1.5676953788,
				"y": -1.1621674154,
				"z": 0.5379535379,
				"element": "H" 
			}
		],
		 "valence_orbital": [ 
			{
				"type": "occ",
				"energy": -0.31399,
				"method": "rhf"
			},
			{
				"type": "occ",
				"energy": -0.2971,
				"method": "rhf"
			},
			{
				"type": "occ",
				"energy": -0.29138,
				"method": "rhf"
			},
			{
				"type": "occ",
				"energy": -0.26691,
				"method": "rhf"
			},
			{
				"type": "occ",
				"energy": -0.23348,
				"method": "rhf"
			},
			{
				"type": "unocc",
				"energy": -0.03452,
				"method": "rhf"
			},
			{
				"type": "unocc",
				"energy": -0.02055,
				"method": "rhf"
			},
			{
				"type": "unocc",
				"energy": -0.00192,
				"method": "rhf"
			},
			{
				"type": "unocc",
				"energy": 0.01212,
				"method": "rhf"
			},
			{
				"type": "unocc",
				"energy": 0.06825,
				"method": "rhf"
			}
		],
		"cosmo_sigma_profile": { 
			"-0.025": 0.0,
			"-0.024": 0.0,
			"-0.023": 0.0,
			"-0.022": 0.0,
			"-0.021": 0.0,
			"-0.02": 0.0,
			"-0.019": 0.0,
			"-0.018": 0.0,
			"-0.017": 0.0,
			"-0.016": 0.0,
			"-0.015": 0.0,
			"-0.014": 0.0,
			"-0.013": 0.0,
			"-0.012": 0.0,
			"-0.011": 0.0,
			"-0.01": 0.0,
			"-0.009": 0.332829710371,
			"-0.008": 3.27220801027,
			"-0.007": 5.60214281641,
			"-0.006": 7.87189117409,
			"-0.005": 9.59641061043,
			"-0.004": 12.5443726213,
			"-0.003": 15.935766189,
			"-0.002": 15.559476148,
			"-0.001": 18.1865961784,
			"0.0": 20.4289011112,
			"0.001": 16.4072715744,
			"0.002": 23.0286655069,
			"0.003": 21.8476440497,
			"0.004": 12.9718743484,
			"0.005": 8.5274713301,
			"0.006": 2.60257208115,
			"0.007": 6.9495915601,
			"0.008": 2.7349114888,
			"0.009": 0.0,
			"0.01": 0.0,
			"0.011": 0.0,
			"0.012": 0.0,
			"0.013": 0.0,
			"0.014": 0.0,
			"0.015": 0.0,
			"0.016": 0.0,
			"0.017": 0.0,
			"0.018": 0.0,
			"0.019": 0.0,
			"0.02": 0.0,
			"0.021": 0.0,
			"0.022": 0.0,
			"0.023": 0.0,
			"0.024": 0.0,
			"0.025": 0.0
		}
	}
}
