{
	 "smiles": "CCOC(=O)CCC(N)C(O)=O", 
	 "Tm": 464.15, 
	 "num_atms": 25, 
	 "gaussian": { 
		 "optdone": 1, 
		 "sigma_profile": "yes", 
		 "theory": "DFT", 
		 "functional": "B3LYP", 
		 "basiset": "6-31G**", 
		 "properties": { 
			 "R2extent": 2843.3249, 
			 "electric_dipole_moment_norm": 3.03667737832, 
			 "electric_quadrupole_moment_norm": 12.2743258536, 
			 "total_energy": -630.256094693, 
			 "HOMO_LUMO_gap": 0.24244, 
			 "cosmo_polarized_energy": -16.67, 
			 "cosmo_cavitation_energy": 28.87, 
			 "cosmo_dispersion_energy": -20.02, 
			 "cosmo_repulsion_energy": 1.67, 
			 "cosmo_total_nonelectrostatic_energy": 10.52, 
			 "SMD_solvation_energy": 6.49 
		},
		"coords": [
			{
				"x": -0.6662919904,
				"y": -1.2473935343,
				"z": -3.6887568572,
				"element": "C" 
			},
			{
				"x": 0.6206437291,
				"y": -0.5825750877,
				"z": -3.2368838783,
				"element": "C" 
			},
			{
				"x": 0.7242867866,
				"y": -0.7571358899,
				"z": -1.8073227723,
				"element": "O" 
			},
			{
				"x": 1.8435110285,
				"y": -0.2444354292,
				"z": -1.238051817,
				"element": "C" 
			},
			{
				"x": 2.732885604,
				"y": 0.278836597,
				"z": -1.8715972573,
				"element": "O" 
			},
			{
				"x": 1.8865146981,
				"y": -0.5086670892,
				"z": 0.2563856267,
				"element": "C" 
			},
			{
				"x": 0.5737214745,
				"y": -0.3169679429,
				"z": 1.0262493874,
				"element": "C" 
			},
			{
				"x": 0.1467083073,
				"y": 1.1589674624,
				"z": 1.1442094939,
				"element": "C" 
			},
			{
				"x": -0.0405351734,
				"y": 1.7579872989,
				"z": -0.1686000803,
				"element": "N" 
			},
			{
				"x": -1.0329485019,
				"y": 1.2594500073,
				"z": 2.1231807729,
				"element": "C" 
			},
			{
				"x": -2.0598290967,
				"y": 2.0019901736,
				"z": 1.6406772227,
				"element": "O" 
			},
			{
				"x": -1.0597452147,
				"y": 0.7523687603,
				"z": 3.2235134326,
				"element": "O" 
			},
			{
				"x": -1.5363548363,
				"y": -0.7923460619,
				"z": -3.2055613931,
				"element": "H" 
			},
			{
				"x": -0.7813652757,
				"y": -1.1390490312,
				"z": -4.7718248394,
				"element": "H" 
			},
			{
				"x": -0.6609523137,
				"y": -2.3147244337,
				"z": -3.4489650405,
				"element": "H" 
			},
			{
				"x": 1.5003270643,
				"y": -1.0257001583,
				"z": -3.7140479889,
				"element": "H" 
			},
			{
				"x": 0.631888481,
				"y": 0.4889500336,
				"z": -3.4613264267,
				"element": "H" 
			},
			{
				"x": 2.6824871463,
				"y": 0.1214283938,
				"z": 0.6627987488,
				"element": "H" 
			},
			{
				"x": 2.2120215496,
				"y": -1.5505712038,
				"z": 0.3765284848,
				"element": "H" 
			},
			{
				"x": -0.2231765337,
				"y": -0.8897444418,
				"z": 0.5383000457,
				"element": "H" 
			},
			{
				"x": 0.6802604059,
				"y": -0.7162940585,
				"z": 2.0381816934,
				"element": "H" 
			},
			{
				"x": 0.9644425811,
				"y": 1.7002510658,
				"z": 1.6419582119,
				"element": "H" 
			},
			{
				"x": -0.8150957968,
				"y": 1.3089002166,
				"z": -0.6500797812,
				"element": "H" 
			},
			{
				"x": -0.279403235,
				"y": 2.7414898798,
				"z": -0.0825401748,
				"element": "H" 
			},
			{
				"x": -2.7326008879,
				"y": 2.0107844733,
				"z": 2.3428751861,
				"element": "H" 
			}
		],
		 "valence_orbital": [ 
			{
				"type": "occ",
				"energy": -0.32222,
				"method": "rhf"
			},
			{
				"type": "occ",
				"energy": -0.30217,
				"method": "rhf"
			},
			{
				"type": "occ",
				"energy": -0.29007,
				"method": "rhf"
			},
			{
				"type": "occ",
				"energy": -0.25683,
				"method": "rhf"
			},
			{
				"type": "occ",
				"energy": -0.24103,
				"method": "rhf"
			},
			{
				"type": "unocc",
				"energy": 0.00141,
				"method": "rhf"
			},
			{
				"type": "unocc",
				"energy": 0.02646,
				"method": "rhf"
			},
			{
				"type": "unocc",
				"energy": 0.0609,
				"method": "rhf"
			},
			{
				"type": "unocc",
				"energy": 0.08624,
				"method": "rhf"
			},
			{
				"type": "unocc",
				"energy": 0.10166,
				"method": "rhf"
			}
		],
		"cosmo_sigma_profile": { 
			"-0.025": 0.0,
			"-0.024": 0.0,
			"-0.023": 0.0,
			"-0.022": 0.0,
			"-0.021": 0.0,
			"-0.02": 0.0,
			"-0.019": 0.0,
			"-0.018": 0.670475628163,
			"-0.017": 0.856569171334,
			"-0.016": 1.04806417157,
			"-0.015": 0.99386844205,
			"-0.014": 0.573155093943,
			"-0.013": 0.528798525658,
			"-0.012": 0.28506507624,
			"-0.011": 1.28377689916,
			"-0.01": 1.85279731736,
			"-0.009": 2.31315576675,
			"-0.008": 3.91431695881,
			"-0.007": 5.50303794028,
			"-0.006": 10.0540918415,
			"-0.005": 13.8242099713,
			"-0.004": 21.5837482888,
			"-0.003": 23.8348161244,
			"-0.002": 23.6247908585,
			"-0.001": 15.9705450673,
			"0.0": 15.1349061423,
			"0.001": 9.1811578516,
			"0.002": 7.50831564953,
			"0.003": 6.58262509546,
			"0.004": 4.89862096901,
			"0.005": 5.74486117502,
			"0.006": 6.71146014959,
			"0.007": 4.51581749153,
			"0.008": 4.12869005517,
			"0.009": 4.02353330867,
			"0.01": 4.17028493122,
			"0.011": 7.14304809967,
			"0.012": 10.1619078478,
			"0.013": 4.79716019552,
			"0.014": 0.901045285742,
			"0.015": 0.118679514049,
			"0.016": 0.0,
			"0.017": 0.0,
			"0.018": 0.0,
			"0.019": 0.0,
			"0.02": 0.0,
			"0.021": 0.0,
			"0.022": 0.0,
			"0.023": 0.0,
			"0.024": 0.0,
			"0.025": 0.0
		}
	}
}
