{
	 "smiles": "COC(=O)C1=CC=C(O)C(O)=C1", 
	 "Tm": 409.15, 
	 "num_atms": 20, 
	 "gaussian": { 
		 "optdone": 1, 
		 "sigma_profile": "yes", 
		 "theory": "DFT", 
		 "functional": "B3LYP", 
		 "basiset": "6-31G**", 
		 "properties": { 
			 "R2extent": 2705.3982, 
			 "electric_dipole_moment_norm": 0.59900839727, 
			 "electric_quadrupole_moment_norm": 12.7834205243, 
			 "total_energy": -610.573814796, 
			 "HOMO_LUMO_gap": 0.18468, 
			 "cosmo_polarized_energy": -13.01, 
			 "cosmo_cavitation_energy": 24.79, 
			 "cosmo_dispersion_energy": -18.58, 
			 "cosmo_repulsion_energy": 1.48, 
			 "cosmo_total_nonelectrostatic_energy": 7.7, 
			 "SMD_solvation_energy": 6.54 
		},
		"coords": [
			{
				"x": 1.2766632339,
				"y": -0.0364143573,
				"z": -4.2114669581,
				"element": "C" 
			},
			{
				"x": 0.9099579519,
				"y": -0.2472570246,
				"z": -2.8410963812,
				"element": "O" 
			},
			{
				"x": 0.0355282959,
				"y": 0.6543604694,
				"z": -2.3336791228,
				"element": "C" 
			},
			{
				"x": -0.4114201723,
				"y": 1.5798064825,
				"z": -2.9874551223,
				"element": "O" 
			},
			{
				"x": -0.3042849791,
				"y": 0.3835648457,
				"z": -0.9154782739,
				"element": "C" 
			},
			{
				"x": 0.2301132318,
				"y": -0.6918844629,
				"z": -0.1945305663,
				"element": "C" 
			},
			{
				"x": -0.1299676766,
				"y": -0.891524425,
				"z": 1.1367146054,
				"element": "C" 
			},
			{
				"x": -1.0248318535,
				"y": -0.0208585944,
				"z": 1.7580662492,
				"element": "C" 
			},
			{
				"x": -1.375936334,
				"y": -0.2146578646,
				"z": 3.0543519788,
				"element": "O" 
			},
			{
				"x": -1.5619374481,
				"y": 1.0610449252,
				"z": 1.0314976489,
				"element": "C" 
			},
			{
				"x": -2.4326138238,
				"y": 1.8541832739,
				"z": 1.7422468955,
				"element": "O" 
			},
			{
				"x": -1.2060096118,
				"y": 1.2615750752,
				"z": -0.2906578836,
				"element": "C" 
			},
			{
				"x": 1.7522420138,
				"y": 0.9395720198,
				"z": -4.3384664441,
				"element": "H" 
			},
			{
				"x": 1.9746072182,
				"y": -0.8370663331,
				"z": -4.456925337,
				"element": "H" 
			},
			{
				"x": 0.3968089169,
				"y": -0.0825805022,
				"z": -4.8584469876,
				"element": "H" 
			},
			{
				"x": 0.925075622,
				"y": -1.367665671,
				"z": -0.6779392875,
				"element": "H" 
			},
			{
				"x": 0.2716992021,
				"y": -1.7177189891,
				"z": 1.7136752418,
				"element": "H" 
			},
			{
				"x": -1.9987038977,
				"y": 0.487521799,
				"z": 3.2972996772,
				"element": "H" 
			},
			{
				"x": -2.7568697196,
				"y": 2.5695039737,
				"z": 1.1814135317,
				"element": "H" 
			},
			{
				"x": -1.61042017,
				"y": 2.0902953599,
				"z": -0.8654234641,
				"element": "H" 
			}
		],
		 "valence_orbital": [ 
			{
				"type": "occ",
				"energy": -0.32853,
				"method": "rhf"
			},
			{
				"type": "occ",
				"energy": -0.29685,
				"method": "rhf"
			},
			{
				"type": "occ",
				"energy": -0.26914,
				"method": "rhf"
			},
			{
				"type": "occ",
				"energy": -0.24749,
				"method": "rhf"
			},
			{
				"type": "occ",
				"energy": -0.21942,
				"method": "rhf"
			},
			{
				"type": "unocc",
				"energy": -0.03474,
				"method": "rhf"
			},
			{
				"type": "unocc",
				"energy": 0.00133,
				"method": "rhf"
			},
			{
				"type": "unocc",
				"energy": 0.04951,
				"method": "rhf"
			},
			{
				"type": "unocc",
				"energy": 0.07235,
				"method": "rhf"
			},
			{
				"type": "unocc",
				"energy": 0.09554,
				"method": "rhf"
			}
		],
		"cosmo_sigma_profile": { 
			"-0.025": 0.0,
			"-0.024": 0.0,
			"-0.023": 0.0,
			"-0.022": 0.0,
			"-0.021": 0.0,
			"-0.02": 0.0,
			"-0.019": 0.25997354972,
			"-0.018": 1.21575450372,
			"-0.017": 1.01786765332,
			"-0.016": 1.08004945277,
			"-0.015": 1.42450050681,
			"-0.014": 1.49225811215,
			"-0.013": 2.22432539873,
			"-0.012": 1.14341652909,
			"-0.011": 1.39396956858,
			"-0.01": 1.39587958504,
			"-0.009": 2.06650377299,
			"-0.008": 1.55913563869,
			"-0.007": 2.54438812458,
			"-0.006": 8.3053039718,
			"-0.005": 12.0071834018,
			"-0.004": 13.0599691778,
			"-0.003": 14.1121595741,
			"-0.002": 10.9901206207,
			"-0.001": 9.53989279518,
			"0.0": 10.997903757,
			"0.001": 12.9168765858,
			"0.002": 17.9198455993,
			"0.003": 18.8109401281,
			"0.004": 13.3446709748,
			"0.005": 6.55544191715,
			"0.006": 6.43505041248,
			"0.007": 4.77003394535,
			"0.008": 2.92208449012,
			"0.009": 3.2292825034,
			"0.01": 3.31863761003,
			"0.011": 3.58311756958,
			"0.012": 4.66114960906,
			"0.013": 1.09543773628,
			"0.014": 0.0,
			"0.015": 0.0,
			"0.016": 0.0,
			"0.017": 0.0,
			"0.018": 0.0,
			"0.019": 0.0,
			"0.02": 0.0,
			"0.021": 0.0,
			"0.022": 0.0,
			"0.023": 0.0,
			"0.024": 0.0,
			"0.025": 0.0
		}
	}
}
