{
	 "smiles": "OC(=O)C1=CC(NN=C(/C#N)C2=NC3=C(S2)C=CC=C3)=CC=C1", 
	 "Tm": 473.15, 
	 "num_atms": 33, 
	 "gaussian": { 
		 "optdone": 1, 
		 "sigma_profile": "yes", 
		 "theory": "DFT", 
		 "functional": "B3LYP", 
		 "basiset": "6-31G**", 
		 "properties": { 
			 "R2extent": 12073.8897, 
			 "electric_dipole_moment_norm": 3.22160471349, 
			 "electric_quadrupole_moment_norm": 32.3809290009, 
			 "total_energy": -1383.33118882, 
			 "HOMO_LUMO_gap": 0.12623, 
			 "cosmo_polarized_energy": -23.55, 
			 "cosmo_cavitation_energy": 42.5, 
			 "cosmo_dispersion_energy": -30.36, 
			 "cosmo_repulsion_energy": 2.25, 
			 "cosmo_total_nonelectrostatic_energy": 14.39, 
			 "SMD_solvation_energy": 6.74 
		},
		"coords": [
			{
				"x": -2.0200163882,
				"y": 1.881860047,
				"z": 2.1481847203,
				"element": "O" 
			},
			{
				"x": -3.1845255572,
				"y": 1.1980307479,
				"z": 2.2826635779,
				"element": "C" 
			},
			{
				"x": -4.1709914067,
				"y": 1.7566871978,
				"z": 2.7008563832,
				"element": "O" 
			},
			{
				"x": -3.1725473617,
				"y": -0.2543906556,
				"z": 1.8942645125,
				"element": "C" 
			},
			{
				"x": -2.19426675,
				"y": -0.7952399244,
				"z": 1.0552553527,
				"element": "C" 
			},
			{
				"x": -2.2450062932,
				"y": -2.1545804184,
				"z": 0.7233499078,
				"element": "C" 
			},
			{
				"x": -1.2802068049,
				"y": -2.7299479351,
				"z": -0.1182113745,
				"element": "N" 
			},
			{
				"x": -0.2753525627,
				"y": -2.0193778707,
				"z": -0.582789443,
				"element": "N" 
			},
			{
				"x": 0.6159841617,
				"y": -2.5636499423,
				"z": -1.3712784817,
				"element": "C" 
			},
			{
				"x": 0.5091190627,
				"y": -3.9469477091,
				"z": -1.7436864057,
				"element": "C" 
			},
			{
				"x": 0.3051282135,
				"y": -5.0727544762,
				"z": -1.9652049009,
				"element": "N" 
			},
			{
				"x": 1.7260373853,
				"y": -1.7505213357,
				"z": -1.8701362675,
				"element": "C" 
			},
			{
				"x": 1.9097373637,
				"y": -0.4992557862,
				"z": -1.5793641464,
				"element": "N" 
			},
			{
				"x": 3.0395037869,
				"y": -0.007112144,
				"z": -2.2014846568,
				"element": "C" 
			},
			{
				"x": 3.7495231955,
				"y": -0.9363866103,
				"z": -3.0050866337,
				"element": "C" 
			},
			{
				"x": 2.9356328256,
				"y": -2.4850586829,
				"z": -2.9565064548,
				"element": "S" 
			},
			{
				"x": 4.9108573338,
				"y": -0.5718234957,
				"z": -3.6907302185,
				"element": "C" 
			},
			{
				"x": 5.3588748894,
				"y": 0.7402814176,
				"z": -3.5648583073,
				"element": "C" 
			},
			{
				"x": 4.6647870234,
				"y": 1.6727249692,
				"z": -2.77184937,
				"element": "C" 
			},
			{
				"x": 3.5108653883,
				"y": 1.3114406989,
				"z": -2.0899996397,
				"element": "C" 
			},
			{
				"x": -3.2695441994,
				"y": -2.9668815675,
				"z": 1.224393411,
				"element": "C" 
			},
			{
				"x": -4.2477145306,
				"y": -2.4129417451,
				"z": 2.0490303916,
				"element": "C" 
			},
			{
				"x": -4.2101965823,
				"y": -1.0614590653,
				"z": 2.3818959055,
				"element": "C" 
			},
			{
				"x": -1.291576859,
				"y": 1.2790774531,
				"z": 1.9437853923,
				"element": "H" 
			},
			{
				"x": -1.4075466685,
				"y": -0.1938699948,
				"z": 0.6125169691,
				"element": "H" 
			},
			{
				"x": -1.3741948975,
				"y": -3.7156419333,
				"z": -0.365862837,
				"element": "H" 
			},
			{
				"x": 5.4497097332,
				"y": -1.2867170564,
				"z": -4.3039071959,
				"element": "H" 
			},
			{
				"x": 6.2590984057,
				"y": 1.04708334,
				"z": -4.0886289749,
				"element": "H" 
			},
			{
				"x": 5.0387888385,
				"y": 2.6889624172,
				"z": -2.6938651759,
				"element": "H" 
			},
			{
				"x": 2.9644494285,
				"y": 2.0189982682,
				"z": -1.475513351,
				"element": "H" 
			},
			{
				"x": -3.3021884869,
				"y": -4.0222904537,
				"z": 0.9663108284,
				"element": "H" 
			},
			{
				"x": -5.0431553626,
				"y": -3.0452299113,
				"z": 2.4306865762,
				"element": "H" 
			},
			{
				"x": -4.9668663244,
				"y": -0.6099678427,
				"z": 3.0128699067,
				"element": "H" 
			}
		],
		 "valence_orbital": [ 
			{
				"type": "occ",
				"energy": -0.2859,
				"method": "rhf"
			},
			{
				"type": "occ",
				"energy": -0.27663,
				"method": "rhf"
			},
			{
				"type": "occ",
				"energy": -0.26347,
				"method": "rhf"
			},
			{
				"type": "occ",
				"energy": -0.24609,
				"method": "rhf"
			},
			{
				"type": "occ",
				"energy": -0.22549,
				"method": "rhf"
			},
			{
				"type": "unocc",
				"energy": -0.09926,
				"method": "rhf"
			},
			{
				"type": "unocc",
				"energy": -0.06012,
				"method": "rhf"
			},
			{
				"type": "unocc",
				"energy": -0.03201,
				"method": "rhf"
			},
			{
				"type": "unocc",
				"energy": -0.02147,
				"method": "rhf"
			},
			{
				"type": "unocc",
				"energy": -0.01655,
				"method": "rhf"
			}
		],
		"cosmo_sigma_profile": { 
			"-0.025": 0.0,
			"-0.024": 0.0,
			"-0.023": 0.0,
			"-0.022": 0.0,
			"-0.021": 0.0,
			"-0.02": 0.0,
			"-0.019": 0.588827676253,
			"-0.018": 0.455695612111,
			"-0.017": 1.17173217118,
			"-0.016": 1.52490743515,
			"-0.015": 2.71298301319,
			"-0.014": 1.84606104716,
			"-0.013": 2.2108668676,
			"-0.012": 1.44380947546,
			"-0.011": 2.72143362608,
			"-0.01": 3.72733253639,
			"-0.009": 2.59715867271,
			"-0.008": 5.33882459476,
			"-0.007": 11.35542765,
			"-0.006": 17.3039473947,
			"-0.005": 19.3756968654,
			"-0.004": 19.9262092112,
			"-0.003": 17.1360667177,
			"-0.002": 20.6275954047,
			"-0.001": 27.1345492355,
			"0.0": 24.2467200963,
			"0.001": 28.1995913312,
			"0.002": 29.7186217828,
			"0.003": 25.8388449685,
			"0.004": 15.9868528847,
			"0.005": 9.00243226908,
			"0.006": 6.54919360383,
			"0.007": 6.96969761925,
			"0.008": 6.67110900355,
			"0.009": 7.29600310599,
			"0.01": 8.86522268182,
			"0.011": 8.46043621843,
			"0.012": 5.76397982983,
			"0.013": 2.67260960938,
			"0.014": 0.901127213078,
			"0.015": 0.2521184451,
			"0.016": 0.0,
			"0.017": 0.0,
			"0.018": 0.0,
			"0.019": 0.0,
			"0.02": 0.0,
			"0.021": 0.0,
			"0.022": 0.0,
			"0.023": 0.0,
			"0.024": 0.0,
			"0.025": 0.0
		}
	}
}
