{
	 "smiles": "COC(=O)C1=NOC=N1", 
	 "Tm": 308.15, 
	 "num_atms": 13, 
	 "gaussian": { 
		 "optdone": 1, 
		 "sigma_profile": "yes", 
		 "theory": "DFT", 
		 "functional": "B3LYP", 
		 "basiset": "6-31G**", 
		 "properties": { 
			 "R2extent": 1818.186, 
			 "electric_dipole_moment_norm": 0.894830039728, 
			 "electric_quadrupole_moment_norm": 18.1485281232, 
			 "total_energy": -489.951094189, 
			 "HOMO_LUMO_gap": 0.22657, 
			 "cosmo_polarized_energy": -11.92, 
			 "cosmo_cavitation_energy": 18.88, 
			 "cosmo_dispersion_energy": -14.02, 
			 "cosmo_repulsion_energy": 1.16, 
			 "cosmo_total_nonelectrostatic_energy": 6.02, 
			 "SMD_solvation_energy": 4.18 
		},
		"coords": [
			{
				"x": -0.1424900382,
				"y": -1.5135064651,
				"z": -3.7619475887,
				"element": "C" 
			},
			{
				"x": -0.3067386983,
				"y": -0.5914520565,
				"z": -2.6687645371,
				"element": "O" 
			},
			{
				"x": -1.1958616154,
				"y": -0.9666137615,
				"z": -1.7379569202,
				"element": "C" 
			},
			{
				"x": -1.8428487523,
				"y": -1.9874609825,
				"z": -1.7556462915,
				"element": "O" 
			},
			{
				"x": -1.2988000321,
				"y": 0.050744348,
				"z": -0.6444879894,
				"element": "C" 
			},
			{
				"x": -0.5954977414,
				"y": 1.1595492263,
				"z": -0.6256924499,
				"element": "N" 
			},
			{
				"x": -1.0151653349,
				"y": 1.7782170587,
				"z": 0.5525617518,
				"element": "O" 
			},
			{
				"x": -1.9270599738,
				"y": 0.9602823527,
				"z": 1.1046576016,
				"element": "C" 
			},
			{
				"x": -2.1513974195,
				"y": -0.1181676378,
				"z": 0.425177646,
				"element": "N" 
			},
			{
				"x": -1.0882472957,
				"y": -1.6495938079,
				"z": -4.291869045,
				"element": "H" 
			},
			{
				"x": 0.2024407358,
				"y": -2.4830999873,
				"z": -3.3949240575,
				"element": "H" 
			},
			{
				"x": 0.603156639,
				"y": -1.0601299843,
				"z": -4.4136023607,
				"element": "H" 
			},
			{
				"x": -2.3723904731,
				"y": 1.2754316973,
				"z": 2.0380942406,
				"element": "H" 
			}
		],
		 "valence_orbital": [ 
			{
				"type": "occ",
				"energy": -0.34957,
				"method": "rhf"
			},
			{
				"type": "occ",
				"energy": -0.3176,
				"method": "rhf"
			},
			{
				"type": "occ",
				"energy": -0.31753,
				"method": "rhf"
			},
			{
				"type": "occ",
				"energy": -0.31309,
				"method": "rhf"
			},
			{
				"type": "occ",
				"energy": -0.29364,
				"method": "rhf"
			},
			{
				"type": "unocc",
				"energy": -0.06707,
				"method": "rhf"
			},
			{
				"type": "unocc",
				"energy": -0.01809,
				"method": "rhf"
			},
			{
				"type": "unocc",
				"energy": 0.07346,
				"method": "rhf"
			},
			{
				"type": "unocc",
				"energy": 0.08685,
				"method": "rhf"
			},
			{
				"type": "unocc",
				"energy": 0.10395,
				"method": "rhf"
			}
		],
		"cosmo_sigma_profile": { 
			"-0.025": 0.0,
			"-0.024": 0.0,
			"-0.023": 0.0,
			"-0.022": 0.0,
			"-0.021": 0.0,
			"-0.02": 0.0,
			"-0.019": 0.0,
			"-0.018": 0.0,
			"-0.017": 0.0,
			"-0.016": 0.0,
			"-0.015": 0.0,
			"-0.014": 0.660506407097,
			"-0.013": 2.43650511696,
			"-0.012": 2.05721601306,
			"-0.011": 1.71593159729,
			"-0.01": 1.07633032668,
			"-0.009": 1.25772706339,
			"-0.008": 1.89387376972,
			"-0.007": 5.73836264091,
			"-0.006": 13.3496917019,
			"-0.005": 15.4329876439,
			"-0.004": 14.8821261149,
			"-0.003": 9.11302921284,
			"-0.002": 6.69405007026,
			"-0.001": 4.99596784205,
			"0.0": 5.72206656026,
			"0.001": 5.39526757061,
			"0.002": 5.05804704486,
			"0.003": 5.81349774585,
			"0.004": 6.95406715615,
			"0.005": 5.511467231,
			"0.006": 4.54367269153,
			"0.007": 5.08951592187,
			"0.008": 3.76874040598,
			"0.009": 5.76628627398,
			"0.01": 6.78576388038,
			"0.011": 5.74581761406,
			"0.012": 3.15090115932,
			"0.013": 1.4497476338,
			"0.014": 0.22724765438,
			"0.015": 0.0,
			"0.016": 0.0,
			"0.017": 0.0,
			"0.018": 0.0,
			"0.019": 0.0,
			"0.02": 0.0,
			"0.021": 0.0,
			"0.022": 0.0,
			"0.023": 0.0,
			"0.024": 0.0,
			"0.025": 0.0
		}
	}
}
