{
	 "smiles": "[O-][N+](=O)C1=CC=C2C=CC=NC2=C1", 
	 "Tm": 405.15, 
	 "num_atms": 19, 
	 "gaussian": { 
		 "optdone": 1, 
		 "sigma_profile": "yes", 
		 "theory": "DFT", 
		 "functional": "B3LYP", 
		 "basiset": "6-31G**", 
		 "properties": { 
			 "R2extent": 2811.2255, 
			 "electric_dipole_moment_norm": 5.99947331938, 
			 "electric_quadrupole_moment_norm": 7.0636813143, 
			 "total_energy": -606.427496443, 
			 "HOMO_LUMO_gap": 0.16105, 
			 "cosmo_polarized_energy": -10.73, 
			 "cosmo_cavitation_energy": 24.26, 
			 "cosmo_dispersion_energy": -18.15, 
			 "cosmo_repulsion_energy": 1.4, 
			 "cosmo_total_nonelectrostatic_energy": 7.5, 
			 "SMD_solvation_energy": 4.85 
		},
		"coords": [
			{
				"x": -1.4766213704,
				"y": 1.6125329501,
				"z": -1.754484302,
				"element": "O" 
			},
			{
				"x": -0.3914360981,
				"y": 1.4257652326,
				"z": -1.2040465231,
				"element": "N" 
			},
			{
				"x": 0.5427165158,
				"y": 2.2246784609,
				"z": -1.2054642327,
				"element": "O" 
			},
			{
				"x": -0.2041381698,
				"y": 0.1481436759,
				"z": -0.4916078483,
				"element": "C" 
			},
			{
				"x": -1.2719240418,
				"y": -0.7792259157,
				"z": -0.4823925756,
				"element": "C" 
			},
			{
				"x": -1.1061327472,
				"y": -1.9720324952,
				"z": 0.178969207,
				"element": "C" 
			},
			{
				"x": 0.1136741614,
				"y": -2.2737365143,
				"z": 0.8432864053,
				"element": "C" 
			},
			{
				"x": 0.3407233546,
				"y": -3.4879630206,
				"z": 1.5410841264,
				"element": "C" 
			},
			{
				"x": 1.5537400204,
				"y": -3.6913543291,
				"z": 2.1537756422,
				"element": "C" 
			},
			{
				"x": 2.5441508612,
				"y": -2.6772173761,
				"z": 2.0689004609,
				"element": "C" 
			},
			{
				"x": 2.3811748712,
				"y": -1.5352089362,
				"z": 1.4339637075,
				"element": "N" 
			},
			{
				"x": 1.1809368572,
				"y": -1.3189318776,
				"z": 0.8202627697,
				"element": "C" 
			},
			{
				"x": 0.9961179819,
				"y": -0.0919067974,
				"z": 0.1339067614,
				"element": "C" 
			},
			{
				"x": -2.1906778508,
				"y": -0.526383629,
				"z": -0.9954445969,
				"element": "H" 
			},
			{
				"x": -1.9119143335,
				"y": -2.7005327973,
				"z": 0.2001208705,
				"element": "H" 
			},
			{
				"x": -0.4446890809,
				"y": -4.2381339029,
				"z": 1.5815665644,
				"element": "H" 
			},
			{
				"x": 1.7654463012,
				"y": -4.6067746545,
				"z": 2.6969620997,
				"element": "H" 
			},
			{
				"x": 3.5087738238,
				"y": -2.8293178888,
				"z": 2.5513579253,
				"element": "H" 
			},
			{
				"x": 1.7974789437,
				"y": 0.6351998152,
				"z": 0.1115835382,
				"element": "H" 
			}
		],
		 "valence_orbital": [ 
			{
				"type": "occ",
				"energy": -0.30846,
				"method": "rhf"
			},
			{
				"type": "occ",
				"energy": -0.29214,
				"method": "rhf"
			},
			{
				"type": "occ",
				"energy": -0.27742,
				"method": "rhf"
			},
			{
				"type": "occ",
				"energy": -0.27408,
				"method": "rhf"
			},
			{
				"type": "occ",
				"energy": -0.25861,
				"method": "rhf"
			},
			{
				"type": "unocc",
				"energy": -0.09756,
				"method": "rhf"
			},
			{
				"type": "unocc",
				"energy": -0.06401,
				"method": "rhf"
			},
			{
				"type": "unocc",
				"energy": -0.02203,
				"method": "rhf"
			},
			{
				"type": "unocc",
				"energy": -1e-05,
				"method": "rhf"
			},
			{
				"type": "unocc",
				"energy": 0.07747,
				"method": "rhf"
			}
		],
		"cosmo_sigma_profile": { 
			"-0.025": 0.0,
			"-0.024": 0.0,
			"-0.023": 0.0,
			"-0.022": 0.0,
			"-0.021": 0.0,
			"-0.02": 0.0,
			"-0.019": 0.0,
			"-0.018": 0.0,
			"-0.017": 0.0,
			"-0.016": 0.0,
			"-0.015": 0.0,
			"-0.014": 0.0,
			"-0.013": 0.0,
			"-0.012": 0.0,
			"-0.011": 0.0,
			"-0.01": 0.0,
			"-0.009": 0.370354906574,
			"-0.008": 6.07803428069,
			"-0.007": 12.7852145981,
			"-0.006": 12.5286080937,
			"-0.005": 10.6903826834,
			"-0.004": 10.786739196,
			"-0.003": 9.17590439513,
			"-0.002": 11.6514673878,
			"-0.001": 19.5161886685,
			"0.0": 25.686499436,
			"0.001": 19.1435187308,
			"0.002": 9.03059164147,
			"0.003": 4.74055021673,
			"0.004": 3.94412908726,
			"0.005": 4.70973979162,
			"0.006": 5.10558689465,
			"0.007": 9.57536890622,
			"0.008": 8.44421883489,
			"0.009": 5.39609579466,
			"0.01": 3.0212092917,
			"0.011": 0.64951910548,
			"0.012": 1.00209812823,
			"0.013": 0.58009211423,
			"0.014": 0.74702400648,
			"0.015": 0.675032345638,
			"0.016": 0.0561929871756,
			"0.017": 0.0,
			"0.018": 0.0,
			"0.019": 0.0,
			"0.02": 0.0,
			"0.021": 0.0,
			"0.022": 0.0,
			"0.023": 0.0,
			"0.024": 0.0,
			"0.025": 0.0
		}
	}
}
