{
	 "smiles": "NC1=NC(NC2=CC=C(F)C=C2)=NC=N1", 
	 "Tm": 523.15, 
	 "num_atms": 23, 
	 "gaussian": { 
		 "optdone": 1, 
		 "sigma_profile": "yes", 
		 "theory": "DFT", 
		 "functional": "B3LYP", 
		 "basiset": "6-31G**", 
		 "properties": { 
			 "R2extent": 4564.2273, 
			 "electric_dipole_moment_norm": 3.59418600103, 
			 "electric_quadrupole_moment_norm": 11.5423962711, 
			 "total_energy": -721.404955601, 
			 "HOMO_LUMO_gap": 0.18184, 
			 "cosmo_polarized_energy": -12.98, 
			 "cosmo_cavitation_energy": 28.54, 
			 "cosmo_dispersion_energy": -21.52, 
			 "cosmo_repulsion_energy": 1.65, 
			 "cosmo_total_nonelectrostatic_energy": 8.68, 
			 "SMD_solvation_energy": 1.81 
		},
		"coords": [
			{
				"x": 1.7654892608,
				"y": 4.531914497,
				"z": 1.9703968933,
				"element": "N" 
			},
			{
				"x": 1.8944717367,
				"y": 3.271506494,
				"z": 1.4964149465,
				"element": "C" 
			},
			{
				"x": 0.8532909457,
				"y": 2.7428701087,
				"z": 0.8424216442,
				"element": "N" 
			},
			{
				"x": 1.0482973431,
				"y": 1.481038668,
				"z": 0.4137793962,
				"element": "C" 
			},
			{
				"x": -0.0190616798,
				"y": 0.9470493962,
				"z": -0.2508567331,
				"element": "N" 
			},
			{
				"x": -0.2322298155,
				"y": -0.308585804,
				"z": -0.8509636468,
				"element": "C" 
			},
			{
				"x": 0.7146221636,
				"y": -1.3456821453,
				"z": -0.8759394015,
				"element": "C" 
			},
			{
				"x": 0.4037794066,
				"y": -2.5546358391,
				"z": -1.4980512978,
				"element": "C" 
			},
			{
				"x": -0.8400965119,
				"y": -2.7284798799,
				"z": -2.090148193,
				"element": "C" 
			},
			{
				"x": -1.1321786155,
				"y": -3.9036905908,
				"z": -2.6906367588,
				"element": "F" 
			},
			{
				"x": -1.7935577613,
				"y": -1.7174392667,
				"z": -2.0784971128,
				"element": "C" 
			},
			{
				"x": -1.4840747661,
				"y": -0.5110673814,
				"z": -1.4580352661,
				"element": "C" 
			},
			{
				"x": 2.1716462687,
				"y": 0.7590979898,
				"z": 0.5926215066,
				"element": "N" 
			},
			{
				"x": 3.1271759755,
				"y": 1.4145041935,
				"z": 1.2578930706,
				"element": "C" 
			},
			{
				"x": 3.0765898684,
				"y": 2.6503097713,
				"z": 1.738231666,
				"element": "N" 
			},
			{
				"x": 2.5623600488,
				"y": 4.9719769347,
				"z": 2.3988293826,
				"element": "H" 
			},
			{
				"x": 0.9378171311,
				"y": 5.060611782,
				"z": 1.7527417472,
				"element": "H" 
			},
			{
				"x": -0.7885182682,
				"y": 1.6002613762,
				"z": -0.3077699726,
				"element": "H" 
			},
			{
				"x": 1.6777385541,
				"y": -1.1938469066,
				"z": -0.4103200544,
				"element": "H" 
			},
			{
				"x": 1.1252846949,
				"y": -3.3642923211,
				"z": -1.5249519792,
				"element": "H" 
			},
			{
				"x": -2.7577741636,
				"y": -1.8783326595,
				"z": -2.5480356408,
				"element": "H" 
			},
			{
				"x": -2.2241677943,
				"y": 0.2854457391,
				"z": -1.4441213011,
				"element": "H" 
			},
			{
				"x": 4.0552959782,
				"y": 0.8680658437,
				"z": 1.423097105,
				"element": "H" 
			}
		],
		 "valence_orbital": [ 
			{
				"type": "occ",
				"energy": -0.26543,
				"method": "rhf"
			},
			{
				"type": "occ",
				"energy": -0.26294,
				"method": "rhf"
			},
			{
				"type": "occ",
				"energy": -0.25882,
				"method": "rhf"
			},
			{
				"type": "occ",
				"energy": -0.25118,
				"method": "rhf"
			},
			{
				"type": "occ",
				"energy": -0.20921,
				"method": "rhf"
			},
			{
				"type": "unocc",
				"energy": -0.02737,
				"method": "rhf"
			},
			{
				"type": "unocc",
				"energy": -0.01134,
				"method": "rhf"
			},
			{
				"type": "unocc",
				"energy": -0.0065,
				"method": "rhf"
			},
			{
				"type": "unocc",
				"energy": 0.03418,
				"method": "rhf"
			},
			{
				"type": "unocc",
				"energy": 0.07892,
				"method": "rhf"
			}
		],
		"cosmo_sigma_profile": { 
			"-0.025": 0.0,
			"-0.024": 0.0,
			"-0.023": 0.0,
			"-0.022": 0.0,
			"-0.021": 0.0,
			"-0.02": 0.0,
			"-0.019": 0.0,
			"-0.018": 0.0,
			"-0.017": 0.0,
			"-0.016": 0.0,
			"-0.015": 0.531154896117,
			"-0.014": 3.42913279891,
			"-0.013": 2.74355342983,
			"-0.012": 3.4884277838,
			"-0.011": 2.61025598321,
			"-0.01": 3.49212380877,
			"-0.009": 2.55921066923,
			"-0.008": 4.0640050001,
			"-0.007": 7.80078482424,
			"-0.006": 8.72456119747,
			"-0.005": 8.9354767236,
			"-0.004": 8.5910174478,
			"-0.003": 9.27569016204,
			"-0.002": 11.1030029257,
			"-0.001": 11.6189170798,
			"0.0": 14.5884547851,
			"0.001": 20.7119996513,
			"0.002": 22.6625799061,
			"0.003": 21.1672662273,
			"0.004": 26.0303148616,
			"0.005": 12.5280212033,
			"0.006": 5.49018842422,
			"0.007": 4.12010317065,
			"0.008": 3.57850122885,
			"0.009": 1.61156489371,
			"0.01": 2.22355603703,
			"0.011": 2.33358105503,
			"0.012": 1.38782410287,
			"0.013": 0.350597337795,
			"0.014": 1.15144013431,
			"0.015": 0.60457312847,
			"0.016": 0.0675240886364,
			"0.017": 0.0,
			"0.018": 0.0,
			"0.019": 0.0,
			"0.02": 0.0,
			"0.021": 0.0,
			"0.022": 0.0,
			"0.023": 0.0,
			"0.024": 0.0,
			"0.025": 0.0
		}
	}
}
