{
	 "smiles": "CC(C)OC(=O)C(C(=O)OC(C)C)=C1SCCS1", 
	 "Tm": 328.05, 
	 "num_atms": 36, 
	 "gaussian": { 
		 "optdone": 1, 
		 "sigma_profile": "yes", 
		 "theory": "DFT", 
		 "functional": "B3LYP", 
		 "basiset": "6-31G**", 
		 "properties": { 
			 "R2extent": 6577.8238, 
			 "electric_dipole_moment_norm": 0.507839876339, 
			 "electric_quadrupole_moment_norm": 24.8419536613, 
			 "total_energy": -1565.42669611, 
			 "HOMO_LUMO_gap": 0.17547, 
			 "cosmo_polarized_energy": -14.53, 
			 "cosmo_cavitation_energy": 41.07, 
			 "cosmo_dispersion_energy": -29.11, 
			 "cosmo_repulsion_energy": 2.22, 
			 "cosmo_total_nonelectrostatic_energy": 14.19, 
			 "SMD_solvation_energy": 8.09 
		},
		"coords": [
			{
				"x": -3.8800055249,
				"y": -1.8768891233,
				"z": -1.9148467528,
				"element": "C" 
			},
			{
				"x": -3.4198842042,
				"y": -0.4699218219,
				"z": -2.290514406,
				"element": "C" 
			},
			{
				"x": -3.1618307242,
				"y": -0.2717571307,
				"z": -3.7827780535,
				"element": "C" 
			},
			{
				"x": -2.2800783078,
				"y": -0.0401661017,
				"z": -1.4832390816,
				"element": "O" 
			},
			{
				"x": -1.1168549238,
				"y": -0.7085632355,
				"z": -1.5449606645,
				"element": "C" 
			},
			{
				"x": -0.894610605,
				"y": -1.6304083341,
				"z": -2.318881144,
				"element": "O" 
			},
			{
				"x": -0.0891350139,
				"y": -0.1652384095,
				"z": -0.6232374305,
				"element": "C" 
			},
			{
				"x": -0.4356567362,
				"y": 0.5759290124,
				"z": 0.6122395188,
				"element": "C" 
			},
			{
				"x": 0.3369496045,
				"y": 1.339596339,
				"z": 1.1754349492,
				"element": "O" 
			},
			{
				"x": -1.6549760746,
				"y": 0.2740482241,
				"z": 1.0959113855,
				"element": "O" 
			},
			{
				"x": -2.0767502441,
				"y": 0.9612111214,
				"z": 2.3093480037,
				"element": "C" 
			},
			{
				"x": -3.107934736,
				"y": 0.0500492362,
				"z": 2.9603732297,
				"element": "C" 
			},
			{
				"x": -2.6214721894,
				"y": 2.3403439077,
				"z": 1.9505394296,
				"element": "C" 
			},
			{
				"x": 1.2411072014,
				"y": -0.3591739844,
				"z": -0.9265283608,
				"element": "C" 
			},
			{
				"x": 1.7704355438,
				"y": -1.3248610948,
				"z": -2.3125042353,
				"element": "S" 
			},
			{
				"x": 3.5294205781,
				"y": -0.7962397546,
				"z": -2.2268964532,
				"element": "C" 
			},
			{
				"x": 3.8911214963,
				"y": -0.6304833861,
				"z": -0.7636321675,
				"element": "C" 
			},
			{
				"x": 2.5500530716,
				"y": 0.3378213463,
				"z": 0.0397421656,
				"element": "S" 
			},
			{
				"x": -4.8458239447,
				"y": -2.0803413402,
				"z": -2.3894425415,
				"element": "H" 
			},
			{
				"x": -4.0091298465,
				"y": -1.9575807804,
				"z": -0.8314532316,
				"element": "H" 
			},
			{
				"x": -3.1620685057,
				"y": -2.6298997087,
				"z": -2.2427941078,
				"element": "H" 
			},
			{
				"x": -4.1839693908,
				"y": 0.245101597,
				"z": -1.9688698484,
				"element": "H" 
			},
			{
				"x": -2.8101299317,
				"y": 0.7459149561,
				"z": -3.977280556,
				"element": "H" 
			},
			{
				"x": -2.4182818981,
				"y": -0.9793416058,
				"z": -4.1515588338,
				"element": "H" 
			},
			{
				"x": -4.096552522,
				"y": -0.418587379,
				"z": -4.3345357601,
				"element": "H" 
			},
			{
				"x": -1.1965071031,
				"y": 1.0687692761,
				"z": 2.9496453097,
				"element": "H" 
			},
			{
				"x": -3.9739477214,
				"y": -0.0869588525,
				"z": 2.3049038866,
				"element": "H" 
			},
			{
				"x": -2.6786621258,
				"y": -0.9326830053,
				"z": 3.174278946,
				"element": "H" 
			},
			{
				"x": -3.4543540342,
				"y": 0.4883568945,
				"z": 3.9014976291,
				"element": "H" 
			},
			{
				"x": -1.8431302668,
				"y": 2.9514457599,
				"z": 1.4880825195,
				"element": "H" 
			},
			{
				"x": -3.4628973414,
				"y": 2.2513039813,
				"z": 1.2560128056,
				"element": "H" 
			},
			{
				"x": -2.9693736376,
				"y": 2.8539462258,
				"z": 2.8529086186,
				"element": "H" 
			},
			{
				"x": 4.1205677431,
				"y": -1.5785946735,
				"z": -2.7115554285,
				"element": "H" 
			},
			{
				"x": 3.6551747946,
				"y": 0.1395503694,
				"z": -2.7791688065,
				"element": "H" 
			},
			{
				"x": 3.9900999911,
				"y": -1.5982025441,
				"z": -0.2633882791,
				"element": "H" 
			},
			{
				"x": 4.8167875292,
				"y": -0.0633959811,
				"z": -0.6295522546,
				"element": "H" 
			}
		],
		 "valence_orbital": [ 
			{
				"type": "occ",
				"energy": -0.28353,
				"method": "rhf"
			},
			{
				"type": "occ",
				"energy": -0.27416,
				"method": "rhf"
			},
			{
				"type": "occ",
				"energy": -0.25295,
				"method": "rhf"
			},
			{
				"type": "occ",
				"energy": -0.24609,
				"method": "rhf"
			},
			{
				"type": "occ",
				"energy": -0.22441,
				"method": "rhf"
			},
			{
				"type": "unocc",
				"energy": -0.04894,
				"method": "rhf"
			},
			{
				"type": "unocc",
				"energy": 0.00753,
				"method": "rhf"
			},
			{
				"type": "unocc",
				"energy": 0.01124,
				"method": "rhf"
			},
			{
				"type": "unocc",
				"energy": 0.05709,
				"method": "rhf"
			},
			{
				"type": "unocc",
				"energy": 0.07553,
				"method": "rhf"
			}
		],
		"cosmo_sigma_profile": { 
			"-0.025": 0.0,
			"-0.024": 0.0,
			"-0.023": 0.0,
			"-0.022": 0.0,
			"-0.021": 0.0,
			"-0.02": 0.0,
			"-0.019": 0.0,
			"-0.018": 0.0,
			"-0.017": 0.0,
			"-0.016": 0.0,
			"-0.015": 0.0,
			"-0.014": 0.0,
			"-0.013": 0.0,
			"-0.012": 0.0,
			"-0.011": 0.0,
			"-0.01": 0.0,
			"-0.009": 0.0,
			"-0.008": 2.49176688906,
			"-0.007": 7.9932149912,
			"-0.006": 11.5675528664,
			"-0.005": 16.4949075095,
			"-0.004": 33.1443807121,
			"-0.003": 32.6255791002,
			"-0.002": 30.410715162,
			"-0.001": 32.4051308469,
			"0.0": 43.0586807481,
			"0.001": 27.2775352806,
			"0.002": 12.9814812886,
			"0.003": 10.6707764655,
			"0.004": 9.54771221801,
			"0.005": 10.4986524216,
			"0.006": 9.79570235732,
			"0.007": 9.06219756907,
			"0.008": 5.84988432681,
			"0.009": 5.81429050032,
			"0.01": 4.60394255267,
			"0.011": 5.17766693417,
			"0.012": 4.38531552418,
			"0.013": 0.123114832731,
			"0.014": 0.0,
			"0.015": 0.0,
			"0.016": 0.0,
			"0.017": 0.0,
			"0.018": 0.0,
			"0.019": 0.0,
			"0.02": 0.0,
			"0.021": 0.0,
			"0.022": 0.0,
			"0.023": 0.0,
			"0.024": 0.0,
			"0.025": 0.0
		}
	}
}
