{
	 "smiles": "OC(=O)C(C1=CC=CC=C1)C1=CC=CC=C1", 
	 "Tm": 419.15, 
	 "num_atms": 28, 
	 "gaussian": { 
		 "optdone": 1, 
		 "sigma_profile": "yes", 
		 "theory": "DFT", 
		 "functional": "B3LYP", 
		 "basiset": "6-31G**", 
		 "properties": { 
			 "R2extent": 3697.0735, 
			 "electric_dipole_moment_norm": 4.60250430744, 
			 "electric_quadrupole_moment_norm": 17.3388236066, 
			 "total_energy": -691.177986022, 
			 "HOMO_LUMO_gap": 0.21502, 
			 "cosmo_polarized_energy": -14.28, 
			 "cosmo_cavitation_energy": 31.74, 
			 "cosmo_dispersion_energy": -22.32, 
			 "cosmo_repulsion_energy": 1.75, 
			 "cosmo_total_nonelectrostatic_energy": 11.16, 
			 "SMD_solvation_energy": 6.34 
		},
		"coords": [
			{
				"x": 2.917622376,
				"y": 1.7325319862,
				"z": -0.1873450716,
				"element": "O" 
			},
			{
				"x": 1.793896058,
				"y": 1.8196753048,
				"z": 0.5604035114,
				"element": "C" 
			},
			{
				"x": 1.7821491365,
				"y": 2.4772301401,
				"z": 1.5706628625,
				"element": "O" 
			},
			{
				"x": 0.5471211904,
				"y": 1.1061307449,
				"z": -0.0225098764,
				"element": "C" 
			},
			{
				"x": 0.9148251082,
				"y": -0.0852390634,
				"z": -0.9102828014,
				"element": "C" 
			},
			{
				"x": 0.9868562339,
				"y": 0.0719935599,
				"z": -2.3032335916,
				"element": "C" 
			},
			{
				"x": 1.3587027009,
				"y": -0.9933904113,
				"z": -3.1283115264,
				"element": "C" 
			},
			{
				"x": 1.6631005221,
				"y": -2.2339254704,
				"z": -2.5697600123,
				"element": "C" 
			},
			{
				"x": 1.5921842182,
				"y": -2.4031274452,
				"z": -1.1839860255,
				"element": "C" 
			},
			{
				"x": 1.2216642632,
				"y": -1.3405516413,
				"z": -0.3618984057,
				"element": "C" 
			},
			{
				"x": -0.5083684228,
				"y": 0.7674475907,
				"z": 1.0225036825,
				"element": "C" 
			},
			{
				"x": -0.1867476318,
				"y": 0.3808823957,
				"z": 2.3302061918,
				"element": "C" 
			},
			{
				"x": -1.1910293525,
				"y": 0.0125169954,
				"z": 3.227216585,
				"element": "C" 
			},
			{
				"x": -2.5298893468,
				"y": 0.0272130119,
				"z": 2.8346721649,
				"element": "C" 
			},
			{
				"x": -2.8609712562,
				"y": 0.4166826914,
				"z": 1.5358161146,
				"element": "C" 
			},
			{
				"x": -1.8563746033,
				"y": 0.7819476449,
				"z": 0.6402806841,
				"element": "C" 
			},
			{
				"x": 2.7716767474,
				"y": 1.1194916297,
				"z": -0.9266552955,
				"element": "H" 
			},
			{
				"x": 0.1128895653,
				"y": 1.868381088,
				"z": -0.6851747809,
				"element": "H" 
			},
			{
				"x": 0.7377428017,
				"y": 1.0334385649,
				"z": -2.7471839493,
				"element": "H" 
			},
			{
				"x": 1.401681844,
				"y": -0.8519303815,
				"z": -4.2043260314,
				"element": "H" 
			},
			{
				"x": 1.9494170321,
				"y": -3.0650357651,
				"z": -3.2073418341,
				"element": "H" 
			},
			{
				"x": 1.8240673097,
				"y": -3.3678566882,
				"z": -0.7420677795,
				"element": "H" 
			},
			{
				"x": 1.1542549033,
				"y": -1.4857004312,
				"z": 0.7118875439,
				"element": "H" 
			},
			{
				"x": 0.8453028363,
				"y": 0.3988612728,
				"z": 2.6615724718,
				"element": "H" 
			},
			{
				"x": -0.9235200372,
				"y": -0.278173835,
				"z": 4.2391346145,
				"element": "H" 
			},
			{
				"x": -3.3091225597,
				"y": -0.2552146875,
				"z": 3.5366691708,
				"element": "H" 
			},
			{
				"x": -3.8999797538,
				"y": 0.4394207444,
				"z": 1.2195950223,
				"element": "H" 
			},
			{
				"x": -2.1216518831,
				"y": 1.0799004545,
				"z": -0.3714436386,
				"element": "H" 
			}
		],
		 "valence_orbital": [ 
			{
				"type": "occ",
				"energy": -0.28402,
				"method": "rhf"
			},
			{
				"type": "occ",
				"energy": -0.26868,
				"method": "rhf"
			},
			{
				"type": "occ",
				"energy": -0.2572,
				"method": "rhf"
			},
			{
				"type": "occ",
				"energy": -0.24921,
				"method": "rhf"
			},
			{
				"type": "occ",
				"energy": -0.24098,
				"method": "rhf"
			},
			{
				"type": "unocc",
				"energy": -0.02596,
				"method": "rhf"
			},
			{
				"type": "unocc",
				"energy": -0.02358,
				"method": "rhf"
			},
			{
				"type": "unocc",
				"energy": -0.00571,
				"method": "rhf"
			},
			{
				"type": "unocc",
				"energy": 0.00113,
				"method": "rhf"
			},
			{
				"type": "unocc",
				"energy": 0.01511,
				"method": "rhf"
			}
		],
		"cosmo_sigma_profile": { 
			"-0.025": 0.0,
			"-0.024": 0.0,
			"-0.023": 0.0,
			"-0.022": 0.0,
			"-0.021": 0.0,
			"-0.02": 0.0,
			"-0.019": 0.0,
			"-0.018": 0.0,
			"-0.017": 0.0,
			"-0.016": 0.0,
			"-0.015": 0.0,
			"-0.014": 0.10528640671,
			"-0.013": 0.404584879799,
			"-0.012": 0.793193854736,
			"-0.011": 0.407208279029,
			"-0.01": 1.68196588353,
			"-0.009": 3.14708697875,
			"-0.008": 4.43491034086,
			"-0.007": 6.37315082772,
			"-0.006": 16.0278397014,
			"-0.005": 22.9460553288,
			"-0.004": 24.4305609463,
			"-0.003": 19.5068534858,
			"-0.002": 15.4252543034,
			"-0.001": 13.5772779597,
			"0.0": 12.6617693199,
			"0.001": 13.9630015338,
			"0.002": 14.2376309525,
			"0.003": 15.6956960954,
			"0.004": 16.9455598603,
			"0.005": 15.0630198397,
			"0.006": 9.84997881592,
			"0.007": 2.49503305766,
			"0.008": 2.82078446244,
			"0.009": 3.96432280476,
			"0.01": 5.13981488877,
			"0.011": 5.2592386378,
			"0.012": 5.0184404558,
			"0.013": 1.37005289188,
			"0.014": 0.00924470780502,
			"0.015": 0.0,
			"0.016": 0.0,
			"0.017": 0.0,
			"0.018": 0.0,
			"0.019": 0.0,
			"0.02": 0.0,
			"0.021": 0.0,
			"0.022": 0.0,
			"0.023": 0.0,
			"0.024": 0.0,
			"0.025": 0.0
		}
	}
}
