{
	 "smiles": "FC(F)(F)C1=C(NNC2=CN=CC=C2)C(=O)N=C2C=CC=CC2=N1", 
	 "Tm": 430.15, 
	 "num_atms": 34, 
	 "gaussian": { 
		 "optdone": 1, 
		 "sigma_profile": "yes", 
		 "theory": "DFT", 
		 "functional": "B3LYP", 
		 "basiset": "6-31G**", 
		 "properties": { 
			 "R2extent": 8867.7753, 
			 "electric_dipole_moment_norm": 4.33765622082, 
			 "electric_quadrupole_moment_norm": 20.2639171238, 
			 "total_energy": -1226.03813082, 
			 "HOMO_LUMO_gap": 0.09905, 
			 "cosmo_polarized_energy": -19.23, 
			 "cosmo_cavitation_energy": 40.86, 
			 "cosmo_dispersion_energy": -28.6, 
			 "cosmo_repulsion_energy": 2.08, 
			 "cosmo_total_nonelectrostatic_energy": 14.34, 
			 "SMD_solvation_energy": 4.74 
		},
		"coords": [
			{
				"x": -1.2518488752,
				"y": -0.5175447929,
				"z": 2.364389017,
				"element": "F" 
			},
			{
				"x": -0.4246597305,
				"y": 0.5845916733,
				"z": 2.4144963004,
				"element": "C" 
			},
			{
				"x": -1.2467676632,
				"y": 1.6510495754,
				"z": 2.5293968576,
				"element": "F" 
			},
			{
				"x": 0.2954707999,
				"y": 0.4863885376,
				"z": 3.523931682,
				"element": "F" 
			},
			{
				"x": 0.424553972,
				"y": 0.6684645641,
				"z": 1.1487000475,
				"element": "C" 
			},
			{
				"x": -0.276867493,
				"y": 0.8202599375,
				"z": -0.0911553284,
				"element": "C" 
			},
			{
				"x": -1.5625313116,
				"y": 0.4746938436,
				"z": -0.1959434711,
				"element": "N" 
			},
			{
				"x": -2.4201651025,
				"y": 0.9367983962,
				"z": -1.1805104455,
				"element": "N" 
			},
			{
				"x": -3.0929947984,
				"y": -0.0166748005,
				"z": -1.9671525753,
				"element": "C" 
			},
			{
				"x": -3.9083565258,
				"y": 0.4529904753,
				"z": -3.0146948536,
				"element": "C" 
			},
			{
				"x": -4.6273879603,
				"y": -0.3436162918,
				"z": -3.8002766938,
				"element": "N" 
			},
			{
				"x": -4.5817317299,
				"y": -1.6643657966,
				"z": -3.5700507485,
				"element": "C" 
			},
			{
				"x": -3.8086337047,
				"y": -2.2282952961,
				"z": -2.5574554439,
				"element": "C" 
			},
			{
				"x": -3.0437843949,
				"y": -1.3958177942,
				"z": -1.7411709607,
				"element": "C" 
			},
			{
				"x": 0.3785870492,
				"y": 1.5211626311,
				"z": -1.2477494968,
				"element": "C" 
			},
			{
				"x": -0.280259754,
				"y": 2.3900060028,
				"z": -1.8429382013,
				"element": "O" 
			},
			{
				"x": 1.5841159447,
				"y": 1.0973787035,
				"z": -1.6494460652,
				"element": "N" 
			},
			{
				"x": 2.6333479782,
				"y": 0.658839109,
				"z": -0.9544485992,
				"element": "C" 
			},
			{
				"x": 3.7948766234,
				"y": 0.3089791322,
				"z": -1.720055733,
				"element": "C" 
			},
			{
				"x": 4.9871942192,
				"y": 0.0041799952,
				"z": -1.1168227135,
				"element": "C" 
			},
			{
				"x": 5.1118159218,
				"y": 0.0052938732,
				"z": 0.3013195464,
				"element": "C" 
			},
			{
				"x": 4.0146892906,
				"y": 0.2741082195,
				"z": 1.0758294497,
				"element": "C" 
			},
			{
				"x": 2.7377769724,
				"y": 0.554143727,
				"z": 0.4927663875,
				"element": "C" 
			},
			{
				"x": 1.7161757282,
				"y": 0.6080553777,
				"z": 1.3646357638,
				"element": "N" 
			},
			{
				"x": -2.0174414284,
				"y": 0.017133016,
				"z": 0.5880203015,
				"element": "H" 
			},
			{
				"x": -1.9613087156,
				"y": 1.719143125,
				"z": -1.6676429176,
				"element": "H" 
			},
			{
				"x": -3.9670672678,
				"y": 1.523079107,
				"z": -3.2106180904,
				"element": "H" 
			},
			{
				"x": -5.1857047323,
				"y": -2.2898076023,
				"z": -4.2231911449,
				"element": "H" 
			},
			{
				"x": -3.7929256378,
				"y": -3.3039553886,
				"z": -2.4124854497,
				"element": "H" 
			},
			{
				"x": -2.4119180493,
				"y": -1.8146829423,
				"z": -0.9646218864,
				"element": "H" 
			},
			{
				"x": 3.6950416583,
				"y": 0.3516822886,
				"z": -2.7991559138,
				"element": "H" 
			},
			{
				"x": 5.8551013654,
				"y": -0.225677135,
				"z": -1.7284535715,
				"element": "H" 
			},
			{
				"x": 6.0682226384,
				"y": -0.222473839,
				"z": 0.7608215557,
				"element": "H" 
			},
			{
				"x": 4.0566847136,
				"y": 0.2498903683,
				"z": 2.1596333947,
				"element": "H" 
			}
		],
		 "valence_orbital": [ 
			{
				"type": "occ",
				"energy": -0.26939,
				"method": "rhf"
			},
			{
				"type": "occ",
				"energy": -0.26296,
				"method": "rhf"
			},
			{
				"type": "occ",
				"energy": -0.26147,
				"method": "rhf"
			},
			{
				"type": "occ",
				"energy": -0.24254,
				"method": "rhf"
			},
			{
				"type": "occ",
				"energy": -0.2138,
				"method": "rhf"
			},
			{
				"type": "unocc",
				"energy": -0.11475,
				"method": "rhf"
			},
			{
				"type": "unocc",
				"energy": -0.0667,
				"method": "rhf"
			},
			{
				"type": "unocc",
				"energy": -0.03246,
				"method": "rhf"
			},
			{
				"type": "unocc",
				"energy": -0.0154,
				"method": "rhf"
			},
			{
				"type": "unocc",
				"energy": -0.01043,
				"method": "rhf"
			}
		],
		"cosmo_sigma_profile": { 
			"-0.025": 0.0,
			"-0.024": 0.0,
			"-0.023": 0.0,
			"-0.022": 0.0,
			"-0.021": 0.0,
			"-0.02": 0.0,
			"-0.019": 0.0,
			"-0.018": 0.0,
			"-0.017": 0.0144397784779,
			"-0.016": 0.615009476237,
			"-0.015": 0.581473822539,
			"-0.014": 1.1832280801,
			"-0.013": 1.18827418181,
			"-0.012": 1.17213607505,
			"-0.011": 1.50377271562,
			"-0.01": 2.29824267795,
			"-0.009": 2.48509578186,
			"-0.008": 5.18290404796,
			"-0.007": 10.8301346876,
			"-0.006": 19.453898175,
			"-0.005": 24.1766621062,
			"-0.004": 21.0226323225,
			"-0.003": 19.1619401357,
			"-0.002": 17.5480012482,
			"-0.001": 18.0707167744,
			"0.0": 23.8389382737,
			"0.001": 33.1783257048,
			"0.002": 46.2185306241,
			"0.003": 25.7351088252,
			"0.004": 9.35523674683,
			"0.005": 5.72901177121,
			"0.006": 5.24762775813,
			"0.007": 4.55733282634,
			"0.008": 5.25370885875,
			"0.009": 3.6716692696,
			"0.01": 3.6591237587,
			"0.011": 3.84130094939,
			"0.012": 4.03525925577,
			"0.013": 3.69066723585,
			"0.014": 3.1821520599,
			"0.015": 1.84114008374,
			"0.016": 0.812108123091,
			"0.017": 0.127209716625,
			"0.018": 0.0,
			"0.019": 0.0,
			"0.02": 0.0,
			"0.021": 0.0,
			"0.022": 0.0,
			"0.023": 0.0,
			"0.024": 0.0,
			"0.025": 0.0
		}
	}
}
