{
	 "smiles": "CC1=C(OC2=C1C=C(F)C=C2F)C(O)=O", 
	 "Tm": 613.15, 
	 "num_atms": 21, 
	 "gaussian": { 
		 "optdone": 1, 
		 "sigma_profile": "yes", 
		 "theory": "DFT", 
		 "functional": "B3LYP", 
		 "basiset": "6-31G**", 
		 "properties": { 
			 "R2extent": 3917.6937, 
			 "electric_dipole_moment_norm": 3.05276737732, 
			 "electric_quadrupole_moment_norm": 13.8503710994, 
			 "total_energy": -810.019620528, 
			 "HOMO_LUMO_gap": 0.17477, 
			 "cosmo_polarized_energy": -11.12, 
			 "cosmo_cavitation_energy": 27.42, 
			 "cosmo_dispersion_energy": -19.75, 
			 "cosmo_repulsion_energy": 1.48, 
			 "cosmo_total_nonelectrostatic_energy": 9.15, 
			 "SMD_solvation_energy": 7.19 
		},
		"coords": [
			{
				"x": 1.2052182481,
				"y": -3.5768720523,
				"z": 1.1504897785,
				"element": "C" 
			},
			{
				"x": 0.8067570954,
				"y": -2.1829973259,
				"z": 0.7743254942,
				"element": "C" 
			},
			{
				"x": -0.4320757949,
				"y": -1.6144791218,
				"z": 0.8889047231,
				"element": "C" 
			},
			{
				"x": -0.453646151,
				"y": -0.2998162959,
				"z": 0.445904947,
				"element": "O" 
			},
			{
				"x": 0.8180961922,
				"y": -0.0314655951,
				"z": 0.037683559,
				"element": "C" 
			},
			{
				"x": 1.6499762085,
				"y": -1.1513800363,
				"z": 0.2124566562,
				"element": "C" 
			},
			{
				"x": 3.0071267203,
				"y": -1.0835643309,
				"z": -0.1486950461,
				"element": "C" 
			},
			{
				"x": 3.4541210093,
				"y": 0.1175904093,
				"z": -0.6696649573,
				"element": "C" 
			},
			{
				"x": 4.7471734566,
				"y": 0.2334203053,
				"z": -1.0312190199,
				"element": "F" 
			},
			{
				"x": 2.6322186752,
				"y": 1.2433718349,
				"z": -0.8488839242,
				"element": "C" 
			},
			{
				"x": 1.296823005,
				"y": 1.1650187849,
				"z": -0.4895681266,
				"element": "C" 
			},
			{
				"x": 0.4782075637,
				"y": 2.2160747199,
				"z": -0.6441104215,
				"element": "F" 
			},
			{
				"x": -1.698819152,
				"y": -2.1689792053,
				"z": 1.3934037421,
				"element": "C" 
			},
			{
				"x": -2.7582619811,
				"y": -1.3287416741,
				"z": 1.370933782,
				"element": "O" 
			},
			{
				"x": -1.791331349,
				"y": -3.3047084421,
				"z": 1.8043952029,
				"element": "O" 
			},
			{
				"x": 0.6166586958,
				"y": -4.3144011155,
				"z": 0.5976520955,
				"element": "H" 
			},
			{
				"x": 2.264446852,
				"y": -3.7489452356,
				"z": 0.9456417543,
				"element": "H" 
			},
			{
				"x": 1.018189197,
				"y": -3.7640716792,
				"z": 2.2115988574,
				"element": "H" 
			},
			{
				"x": 3.6881752889,
				"y": -1.9182771002,
				"z": -0.0336717606,
				"element": "H" 
			},
			{
				"x": 3.0388512833,
				"y": 2.1581927404,
				"z": -1.262147294,
				"element": "H" 
			},
			{
				"x": -2.4895050634,
				"y": -0.4685695845,
				"z": 1.0104699581,
				"element": "H" 
			}
		],
		 "valence_orbital": [ 
			{
				"type": "occ",
				"energy": -0.32381,
				"method": "rhf"
			},
			{
				"type": "occ",
				"energy": -0.30583,
				"method": "rhf"
			},
			{
				"type": "occ",
				"energy": -0.28476,
				"method": "rhf"
			},
			{
				"type": "occ",
				"energy": -0.25756,
				"method": "rhf"
			},
			{
				"type": "occ",
				"energy": -0.24701,
				"method": "rhf"
			},
			{
				"type": "unocc",
				"energy": -0.07224,
				"method": "rhf"
			},
			{
				"type": "unocc",
				"energy": -0.01001,
				"method": "rhf"
			},
			{
				"type": "unocc",
				"energy": 0.0037,
				"method": "rhf"
			},
			{
				"type": "unocc",
				"energy": 0.05719,
				"method": "rhf"
			},
			{
				"type": "unocc",
				"energy": 0.0819,
				"method": "rhf"
			}
		],
		"cosmo_sigma_profile": { 
			"-0.025": 0.0,
			"-0.024": 0.0,
			"-0.023": 0.0,
			"-0.022": 0.0,
			"-0.021": 0.0,
			"-0.02": 0.0,
			"-0.019": 0.0,
			"-0.018": 0.0,
			"-0.017": 0.308513328859,
			"-0.016": 0.718854625415,
			"-0.015": 1.08808821075,
			"-0.014": 0.294679112681,
			"-0.013": 0.387765318147,
			"-0.012": 0.81686864645,
			"-0.011": 1.03107527714,
			"-0.01": 1.18658605053,
			"-0.009": 2.52204182076,
			"-0.008": 4.89241256913,
			"-0.007": 5.74663767561,
			"-0.006": 6.34566191417,
			"-0.005": 9.25995512023,
			"-0.004": 10.0610390801,
			"-0.003": 11.3502764584,
			"-0.002": 21.4871300952,
			"-0.001": 28.7113203239,
			"0.0": 24.9472181832,
			"0.001": 17.755321165,
			"0.002": 12.8156422036,
			"0.003": 17.2845734095,
			"0.004": 13.177686278,
			"0.005": 2.80188569635,
			"0.006": 2.52875416445,
			"0.007": 2.92603808641,
			"0.008": 2.80544727387,
			"0.009": 4.248734261,
			"0.01": 4.60407189224,
			"0.011": 4.48129193604,
			"0.012": 3.34909326619,
			"0.013": 0.881829208651,
			"0.014": 0.0,
			"0.015": 0.0,
			"0.016": 0.0,
			"0.017": 0.0,
			"0.018": 0.0,
			"0.019": 0.0,
			"0.02": 0.0,
			"0.021": 0.0,
			"0.022": 0.0,
			"0.023": 0.0,
			"0.024": 0.0,
			"0.025": 0.0
		}
	}
}
