{
	 "smiles": "CCNC1=NC=CC(=C1)C(O)=O", 
	 "Tm": 565.15, 
	 "num_atms": 22, 
	 "gaussian": { 
		 "optdone": 1, 
		 "sigma_profile": "yes", 
		 "theory": "DFT", 
		 "functional": "B3LYP", 
		 "basiset": "6-31G**", 
		 "properties": { 
			 "R2extent": 3016.3477, 
			 "electric_dipole_moment_norm": 0.759447963984, 
			 "electric_quadrupole_moment_norm": 11.7418058581, 
			 "total_energy": -570.853631832, 
			 "HOMO_LUMO_gap": 0.15389, 
			 "cosmo_polarized_energy": -12.21, 
			 "cosmo_cavitation_energy": 26.44, 
			 "cosmo_dispersion_energy": -19.6, 
			 "cosmo_repulsion_energy": 1.59, 
			 "cosmo_total_nonelectrostatic_energy": 8.43, 
			 "SMD_solvation_energy": 4.17 
		},
		"coords": [
			{
				"x": -2.824673889,
				"y": -2.3689758659,
				"z": -2.2790574905,
				"element": "C" 
			},
			{
				"x": -1.5612229879,
				"y": -1.548907359,
				"z": -2.0329276962,
				"element": "C" 
			},
			{
				"x": -1.6448120676,
				"y": -0.8580792999,
				"z": -0.7523856178,
				"element": "N" 
			},
			{
				"x": -0.7262703111,
				"y": 0.0853776173,
				"z": -0.3605520126,
				"element": "C" 
			},
			{
				"x": 0.1431303767,
				"y": 0.5279060535,
				"z": -1.2854912756,
				"element": "N" 
			},
			{
				"x": 1.014480452,
				"y": 1.4792638711,
				"z": -0.9234267869,
				"element": "C" 
			},
			{
				"x": 1.0921165879,
				"y": 2.0342632072,
				"z": 0.3479060776,
				"element": "C" 
			},
			{
				"x": 0.186665885,
				"y": 1.558463512,
				"z": 1.3120542023,
				"element": "C" 
			},
			{
				"x": -0.7327126148,
				"y": 0.5800574471,
				"z": 0.9643368277,
				"element": "C" 
			},
			{
				"x": 0.1661977666,
				"y": 2.0641513127,
				"z": 2.7158489995,
				"element": "C" 
			},
			{
				"x": 1.0971325538,
				"y": 3.0207932791,
				"z": 2.9449872198,
				"element": "O" 
			},
			{
				"x": -0.5926859421,
				"y": 1.6773124278,
				"z": 3.5817467394,
				"element": "O" 
			},
			{
				"x": -2.7617428006,
				"y": -2.8834544186,
				"z": -3.2421628587,
				"element": "H" 
			},
			{
				"x": -2.9627619837,
				"y": -3.1347653986,
				"z": -1.5060272975,
				"element": "H" 
			},
			{
				"x": -3.7129375607,
				"y": -1.7297153653,
				"z": -2.2874999662,
				"element": "H" 
			},
			{
				"x": -1.4305887398,
				"y": -0.7947059373,
				"z": -2.8130698475,
				"element": "H" 
			},
			{
				"x": -0.6708599229,
				"y": -2.195218809,
				"z": -2.0775575862,
				"element": "H" 
			},
			{
				"x": -2.12451694,
				"y": -1.3445201144,
				"z": -0.0089996105,
				"element": "H" 
			},
			{
				"x": 1.6964742004,
				"y": 1.8109483073,
				"z": -1.7047692988,
				"element": "H" 
			},
			{
				"x": 1.8213173316,
				"y": 2.7969760125,
				"z": 0.5882635892,
				"element": "H" 
			},
			{
				"x": -1.4362566002,
				"y": 0.2165070811,
				"z": 1.7061047954,
				"element": "H" 
			},
			{
				"x": 0.9942272063,
				"y": 3.2732224394,
				"z": 3.877378894,
				"element": "H" 
			}
		],
		 "valence_orbital": [ 
			{
				"type": "occ",
				"energy": -0.30285,
				"method": "rhf"
			},
			{
				"type": "occ",
				"energy": -0.28202,
				"method": "rhf"
			},
			{
				"type": "occ",
				"energy": -0.28182,
				"method": "rhf"
			},
			{
				"type": "occ",
				"energy": -0.25679,
				"method": "rhf"
			},
			{
				"type": "occ",
				"energy": -0.20831,
				"method": "rhf"
			},
			{
				"type": "unocc",
				"energy": -0.05442,
				"method": "rhf"
			},
			{
				"type": "unocc",
				"energy": 0.00355,
				"method": "rhf"
			},
			{
				"type": "unocc",
				"energy": 0.05922,
				"method": "rhf"
			},
			{
				"type": "unocc",
				"energy": 0.07577,
				"method": "rhf"
			},
			{
				"type": "unocc",
				"energy": 0.08514,
				"method": "rhf"
			}
		],
		"cosmo_sigma_profile": { 
			"-0.025": 0.0,
			"-0.024": 0.0,
			"-0.023": 0.0,
			"-0.022": 0.0,
			"-0.021": 0.0,
			"-0.02": 0.0,
			"-0.019": 0.271139788039,
			"-0.018": 0.849136833642,
			"-0.017": 0.607548391314,
			"-0.016": 1.30040545424,
			"-0.015": 0.446032464014,
			"-0.014": 0.595879865968,
			"-0.013": 2.1301107604,
			"-0.012": 1.70799383875,
			"-0.011": 2.49147023137,
			"-0.01": 2.23875114896,
			"-0.009": 1.97505645178,
			"-0.008": 2.0085844433,
			"-0.007": 3.45225499367,
			"-0.006": 6.08243308622,
			"-0.005": 6.99699505115,
			"-0.004": 9.46786615859,
			"-0.003": 15.9464362743,
			"-0.002": 20.6158410619,
			"-0.001": 18.2041857766,
			"0.0": 17.9207885014,
			"0.001": 17.8763340995,
			"0.002": 18.0171803431,
			"0.003": 13.0969742924,
			"0.004": 7.08107406488,
			"0.005": 6.61758666227,
			"0.006": 5.17408534773,
			"0.007": 5.5665538648,
			"0.008": 3.57257814004,
			"0.009": 3.2310173886,
			"0.01": 3.75368441974,
			"0.011": 5.16153379782,
			"0.012": 3.48560524617,
			"0.013": 0.740060218749,
			"0.014": 0.658121184111,
			"0.015": 0.053311257457,
			"0.016": 0.0,
			"0.017": 0.0,
			"0.018": 0.0,
			"0.019": 0.0,
			"0.02": 0.0,
			"0.021": 0.0,
			"0.022": 0.0,
			"0.023": 0.0,
			"0.024": 0.0,
			"0.025": 0.0
		}
	}
}
