{
	 "smiles": "CN1C(=NC2=C1C=CC=C2)C(N)C1=CC=CC=C1", 
	 "Tm": 384.15, 
	 "num_atms": 33, 
	 "gaussian": { 
		 "optdone": 1, 
		 "sigma_profile": "yes", 
		 "theory": "DFT", 
		 "functional": "B3LYP", 
		 "basiset": "6-31G**", 
		 "properties": { 
			 "R2extent": 5005.4572, 
			 "electric_dipole_moment_norm": 3.16722436528, 
			 "electric_quadrupole_moment_norm": 5.21540746251, 
			 "total_energy": -744.903127864, 
			 "HOMO_LUMO_gap": 0.20266, 
			 "cosmo_polarized_energy": -13.48, 
			 "cosmo_cavitation_energy": 36.04, 
			 "cosmo_dispersion_energy": -25.22, 
			 "cosmo_repulsion_energy": 1.95, 
			 "cosmo_total_nonelectrostatic_energy": 12.77, 
			 "SMD_solvation_energy": 2.99 
		},
		"coords": [
			{
				"x": 0.4530436876,
				"y": 1.1194760759,
				"z": -2.0461626445,
				"element": "C" 
			},
			{
				"x": -0.3377558076,
				"y": 1.2443557078,
				"z": -0.8346867938,
				"element": "N" 
			},
			{
				"x": 0.0591794506,
				"y": 1.0275893961,
				"z": 0.4750450087,
				"element": "C" 
			},
			{
				"x": -0.8970165342,
				"y": 1.2516633145,
				"z": 1.3481999457,
				"element": "N" 
			},
			{
				"x": -1.9943322366,
				"y": 1.6453986695,
				"z": 0.5957490554,
				"element": "C" 
			},
			{
				"x": -1.6622778057,
				"y": 1.6531895165,
				"z": -0.7792506061,
				"element": "C" 
			},
			{
				"x": -2.5769054846,
				"y": 2.0170958943,
				"z": -1.7701480679,
				"element": "C" 
			},
			{
				"x": -3.8550353316,
				"y": 2.3730809828,
				"z": -1.3430488722,
				"element": "C" 
			},
			{
				"x": -4.2033464187,
				"y": 2.3680761907,
				"z": 0.0222169003,
				"element": "C" 
			},
			{
				"x": -3.2838681414,
				"y": 2.0071593737,
				"z": 1.0032389624,
				"element": "C" 
			},
			{
				"x": 1.4597921501,
				"y": 0.5825377653,
				"z": 0.8606532479,
				"element": "C" 
			},
			{
				"x": 1.738304376,
				"y": 0.7339968722,
				"z": 2.292277401,
				"element": "N" 
			},
			{
				"x": 1.7496191646,
				"y": -0.8585309514,
				"z": 0.4407328806,
				"element": "C" 
			},
			{
				"x": 3.0423673563,
				"y": -1.2211293171,
				"z": 0.0412534033,
				"element": "C" 
			},
			{
				"x": 3.3381941484,
				"y": -2.5412965293,
				"z": -0.2986222769,
				"element": "C" 
			},
			{
				"x": 2.3425972769,
				"y": -3.5190247322,
				"z": -0.2378420519,
				"element": "C" 
			},
			{
				"x": 1.0532603512,
				"y": -3.1682599953,
				"z": 0.1654253473,
				"element": "C" 
			},
			{
				"x": 0.7577330588,
				"y": -1.8454553175,
				"z": 0.5008615254,
				"element": "C" 
			},
			{
				"x": 1.3292970016,
				"y": 0.5006858872,
				"z": -1.853160665,
				"element": "H" 
			},
			{
				"x": -0.1412845752,
				"y": 0.6299522926,
				"z": -2.8230597514,
				"element": "H" 
			},
			{
				"x": 0.7759774545,
				"y": 2.0993302933,
				"z": -2.4167257476,
				"element": "H" 
			},
			{
				"x": -2.3133302696,
				"y": 2.0278942435,
				"z": -2.8234227295,
				"element": "H" 
			},
			{
				"x": -4.5985818077,
				"y": 2.6627299424,
				"z": -2.079816912,
				"element": "H" 
			},
			{
				"x": -5.2106117306,
				"y": 2.6535548295,
				"z": 0.3110324934,
				"element": "H" 
			},
			{
				"x": -3.5459699389,
				"y": 2.0025931273,
				"z": 2.0564896849,
				"element": "H" 
			},
			{
				"x": 2.1720759121,
				"y": 1.2292832236,
				"z": 0.3293472758,
				"element": "H" 
			},
			{
				"x": 1.0848843192,
				"y": 0.1409926773,
				"z": 2.801659164,
				"element": "H" 
			},
			{
				"x": 1.4862509546,
				"y": 1.6823341104,
				"z": 2.5676653606,
				"element": "H" 
			},
			{
				"x": 3.821828468,
				"y": -0.4639963981,
				"z": 0.0082544173,
				"element": "H" 
			},
			{
				"x": 4.3449250551,
				"y": -2.8068200468,
				"z": -0.6088372784,
				"element": "H" 
			},
			{
				"x": 2.570876738,
				"y": -4.5473268345,
				"z": -0.5032222756,
				"element": "H" 
			},
			{
				"x": 0.274224382,
				"y": -3.9236613426,
				"z": 0.2172210356,
				"element": "H" 
			},
			{
				"x": -0.2478152234,
				"y": -1.5765689215,
				"z": 0.8128835634,
				"element": "H" 
			}
		],
		 "valence_orbital": [ 
			{
				"type": "occ",
				"energy": -0.25424,
				"method": "rhf"
			},
			{
				"type": "occ",
				"energy": -0.25068,
				"method": "rhf"
			},
			{
				"type": "occ",
				"energy": -0.24155,
				"method": "rhf"
			},
			{
				"type": "occ",
				"energy": -0.22054,
				"method": "rhf"
			},
			{
				"type": "occ",
				"energy": -0.21763,
				"method": "rhf"
			},
			{
				"type": "unocc",
				"energy": -0.01497,
				"method": "rhf"
			},
			{
				"type": "unocc",
				"energy": -0.00523,
				"method": "rhf"
			},
			{
				"type": "unocc",
				"energy": -0.0046,
				"method": "rhf"
			},
			{
				"type": "unocc",
				"energy": 0.02361,
				"method": "rhf"
			},
			{
				"type": "unocc",
				"energy": 0.05583,
				"method": "rhf"
			}
		],
		"cosmo_sigma_profile": { 
			"-0.025": 0.0,
			"-0.024": 0.0,
			"-0.023": 0.0,
			"-0.022": 0.0,
			"-0.021": 0.0,
			"-0.02": 0.0,
			"-0.019": 0.0,
			"-0.018": 0.0,
			"-0.017": 0.0,
			"-0.016": 0.0,
			"-0.015": 0.0,
			"-0.014": 0.0,
			"-0.013": 0.0,
			"-0.012": 0.0,
			"-0.011": 0.0,
			"-0.01": 0.302987939328,
			"-0.009": 1.33314905404,
			"-0.008": 2.34581212308,
			"-0.007": 2.86568001026,
			"-0.006": 20.2357963086,
			"-0.005": 29.3453944326,
			"-0.004": 30.4393660857,
			"-0.003": 28.6979213026,
			"-0.002": 17.6543726168,
			"-0.001": 18.2549488536,
			"0.0": 16.2208882288,
			"0.001": 14.5634135956,
			"0.002": 16.6500822535,
			"0.003": 14.2254473178,
			"0.004": 17.5803914028,
			"0.005": 19.6473717402,
			"0.006": 15.7545867129,
			"0.007": 4.55402276758,
			"0.008": 2.63551366222,
			"0.009": 1.19474497869,
			"0.01": 1.32684395159,
			"0.011": 2.50931531616,
			"0.012": 1.86006828967,
			"0.013": 1.32689206628,
			"0.014": 1.63670290045,
			"0.015": 1.04678915459,
			"0.016": 1.17128410098,
			"0.017": 0.939632870502,
			"0.018": 0.47893632162,
			"0.019": 0.0959522614688,
			"0.02": 0.0,
			"0.021": 0.0,
			"0.022": 0.0,
			"0.023": 0.0,
			"0.024": 0.0,
			"0.025": 0.0
		}
	}
}
