{
	 "smiles": "CC1=NOC2=C1C(=O)N(C1=CC=CC=C1)C1=CC=CC=C21", 
	 "Tm": 556.15, 
	 "num_atms": 33, 
	 "gaussian": { 
		 "optdone": 1, 
		 "sigma_profile": "yes", 
		 "theory": "DFT", 
		 "functional": "B3LYP", 
		 "basiset": "6-31G**", 
		 "properties": { 
			 "R2extent": 6046.0746, 
			 "electric_dipole_moment_norm": 4.24084794469, 
			 "electric_quadrupole_moment_norm": 4.3830874746, 
			 "total_energy": -914.979374974, 
			 "HOMO_LUMO_gap": 0.16949, 
			 "cosmo_polarized_energy": -13.66, 
			 "cosmo_cavitation_energy": 37.58, 
			 "cosmo_dispersion_energy": -26.52, 
			 "cosmo_repulsion_energy": 1.99, 
			 "cosmo_total_nonelectrostatic_energy": 13.05, 
			 "SMD_solvation_energy": 6.61 
		},
		"coords": [
			{
				"x": -2.2926897072,
				"y": 4.4405226004,
				"z": 1.0627697539,
				"element": "C" 
			},
			{
				"x": -0.964520533,
				"y": 3.8057532074,
				"z": 0.8060185408,
				"element": "C" 
			},
			{
				"x": 0.1399134066,
				"y": 4.5146606574,
				"z": 0.8423481071,
				"element": "N" 
			},
			{
				"x": 1.2057551417,
				"y": 3.6118830448,
				"z": 0.5567252555,
				"element": "O" 
			},
			{
				"x": 0.6813749706,
				"y": 2.39520795,
				"z": 0.361556437,
				"element": "C" 
			},
			{
				"x": -0.6812219035,
				"y": 2.4356577765,
				"z": 0.5017107198,
				"element": "C" 
			},
			{
				"x": -1.5157255063,
				"y": 1.2622597694,
				"z": 0.345949138,
				"element": "C" 
			},
			{
				"x": -2.7340930638,
				"y": 1.2343367752,
				"z": 0.4587943486,
				"element": "O" 
			},
			{
				"x": -0.7734029628,
				"y": 0.0878269061,
				"z": 0.0366401607,
				"element": "N" 
			},
			{
				"x": -1.5531482392,
				"y": -1.1173136046,
				"z": -0.1311318638,
				"element": "C" 
			},
			{
				"x": -1.8138565988,
				"y": -1.9325009715,
				"z": 0.9713792927,
				"element": "C" 
			},
			{
				"x": -2.5663304491,
				"y": -3.0958341712,
				"z": 0.8066234571,
				"element": "C" 
			},
			{
				"x": -3.0565579871,
				"y": -3.4404489086,
				"z": -0.4546585226,
				"element": "C" 
			},
			{
				"x": -2.7955247933,
				"y": -2.6188617849,
				"z": -1.5531772933,
				"element": "C" 
			},
			{
				"x": -2.0435739672,
				"y": -1.454453449,
				"z": -1.3935915802,
				"element": "C" 
			},
			{
				"x": 0.624210217,
				"y": 0.0357658986,
				"z": -0.1093633294,
				"element": "C" 
			},
			{
				"x": 1.2832539605,
				"y": -1.1701093135,
				"z": -0.4167466238,
				"element": "C" 
			},
			{
				"x": 2.6652115017,
				"y": -1.1992149209,
				"z": -0.5564374503,
				"element": "C" 
			},
			{
				"x": 3.4398301958,
				"y": -0.0409396797,
				"z": -0.3975179064,
				"element": "C" 
			},
			{
				"x": 2.8120186961,
				"y": 1.1563586383,
				"z": -0.0949396034,
				"element": "C" 
			},
			{
				"x": 1.4155078862,
				"y": 1.2082851768,
				"z": 0.0507666598,
				"element": "C" 
			},
			{
				"x": -2.7855293425,
				"y": 3.9586355795,
				"z": 1.9119820515,
				"element": "H" 
			},
			{
				"x": -2.9499400246,
				"y": 4.3076219929,
				"z": 0.1986665488,
				"element": "H" 
			},
			{
				"x": -2.1695570254,
				"y": 5.5054458628,
				"z": 1.2677463974,
				"element": "H" 
			},
			{
				"x": -1.4319703012,
				"y": -1.6491198312,
				"z": 1.9470179413,
				"element": "H" 
			},
			{
				"x": -2.7719252896,
				"y": -3.7296995376,
				"z": 1.6639818043,
				"element": "H" 
			},
			{
				"x": -3.6433843734,
				"y": -4.3455150771,
				"z": -0.5805918047,
				"element": "H" 
			},
			{
				"x": -3.1797334686,
				"y": -2.8810809524,
				"z": -2.5343707672,
				"element": "H" 
			},
			{
				"x": -1.8384889019,
				"y": -0.8033441758,
				"z": -2.2373970781,
				"element": "H" 
			},
			{
				"x": 0.7079933538,
				"y": -2.0780256333,
				"z": -0.5444907457,
				"element": "H" 
			},
			{
				"x": 3.1479605189,
				"y": -2.1427323919,
				"z": -0.7937123109,
				"element": "H" 
			},
			{
				"x": 4.5181720257,
				"y": -0.0818137994,
				"z": -0.5102219752,
				"element": "H" 
			},
			{
				"x": 3.3808725642,
				"y": 2.0713863668,
				"z": 0.0347722409,
				"element": "H" 
			}
		],
		 "valence_orbital": [ 
			{
				"type": "occ",
				"energy": -0.26571,
				"method": "rhf"
			},
			{
				"type": "occ",
				"energy": -0.26345,
				"method": "rhf"
			},
			{
				"type": "occ",
				"energy": -0.25798,
				"method": "rhf"
			},
			{
				"type": "occ",
				"energy": -0.24728,
				"method": "rhf"
			},
			{
				"type": "occ",
				"energy": -0.22589,
				"method": "rhf"
			},
			{
				"type": "unocc",
				"energy": -0.0564,
				"method": "rhf"
			},
			{
				"type": "unocc",
				"energy": -0.02033,
				"method": "rhf"
			},
			{
				"type": "unocc",
				"energy": -0.01732,
				"method": "rhf"
			},
			{
				"type": "unocc",
				"energy": -0.01321,
				"method": "rhf"
			},
			{
				"type": "unocc",
				"energy": 0.00566,
				"method": "rhf"
			}
		],
		"cosmo_sigma_profile": { 
			"-0.025": 0.0,
			"-0.024": 0.0,
			"-0.023": 0.0,
			"-0.022": 0.0,
			"-0.021": 0.0,
			"-0.02": 0.0,
			"-0.019": 0.0,
			"-0.018": 0.0,
			"-0.017": 0.0,
			"-0.016": 0.0,
			"-0.015": 0.0,
			"-0.014": 0.0,
			"-0.013": 0.0,
			"-0.012": 0.0,
			"-0.011": 0.0,
			"-0.01": 0.0,
			"-0.009": 0.0,
			"-0.008": 0.0218981039109,
			"-0.007": 7.20484070536,
			"-0.006": 20.069608713,
			"-0.005": 26.0391794718,
			"-0.004": 25.8076608813,
			"-0.003": 24.9939428861,
			"-0.002": 31.2183845346,
			"-0.001": 29.0733016879,
			"0.0": 20.7996696864,
			"0.001": 19.1211496432,
			"0.002": 18.3402432952,
			"0.003": 20.491426478,
			"0.004": 14.1784504457,
			"0.005": 6.89452337168,
			"0.006": 5.15866146394,
			"0.007": 6.45541264,
			"0.008": 4.90074796189,
			"0.009": 3.63817577621,
			"0.01": 2.81165392291,
			"0.011": 4.40922772318,
			"0.012": 3.69280402373,
			"0.013": 6.33125895119,
			"0.014": 0.848491072947,
			"0.015": 0.0,
			"0.016": 0.0,
			"0.017": 0.0,
			"0.018": 0.0,
			"0.019": 0.0,
			"0.02": 0.0,
			"0.021": 0.0,
			"0.022": 0.0,
			"0.023": 0.0,
			"0.024": 0.0,
			"0.025": 0.0
		}
	}
}
