{
	 "smiles": "NCC1=C(CN2CCC(O)CC2)C=CC=C1", 
	 "Tm": 357.15, 
	 "num_atms": 36, 
	 "gaussian": { 
		 "optdone": 1, 
		 "sigma_profile": "yes", 
		 "theory": "DFT", 
		 "functional": "B3LYP", 
		 "basiset": "6-31G**", 
		 "properties": { 
			 "R2extent": 5106.9034, 
			 "electric_dipole_moment_norm": 2.81016500227, 
			 "electric_quadrupole_moment_norm": 9.67741911824, 
			 "total_energy": -692.139840781, 
			 "HOMO_LUMO_gap": 0.19152, 
			 "cosmo_polarized_energy": -12.75, 
			 "cosmo_cavitation_energy": 35.52, 
			 "cosmo_dispersion_energy": -25.49, 
			 "cosmo_repulsion_energy": 2.01, 
			 "cosmo_total_nonelectrostatic_energy": 12.05, 
			 "SMD_solvation_energy": 2.61 
		},
		"coords": [
			{
				"x": -2.4313413792,
				"y": 2.5571539517,
				"z": -0.4621939208,
				"element": "N" 
			},
			{
				"x": -1.0762485572,
				"y": 2.1636864894,
				"z": -0.0425843615,
				"element": "C" 
			},
			{
				"x": -1.1286568136,
				"y": 1.195459872,
				"z": 1.1260672238,
				"element": "C" 
			},
			{
				"x": -1.6573169579,
				"y": -0.1103978041,
				"z": 1.0082694804,
				"element": "C" 
			},
			{
				"x": -2.1306459258,
				"y": -0.6934571669,
				"z": -0.3258491015,
				"element": "C" 
			},
			{
				"x": -1.2206498197,
				"y": -1.6242700955,
				"z": -1.0029222165,
				"element": "N" 
			},
			{
				"x": -1.0287118805,
				"y": -2.9289938777,
				"z": -0.3727835899,
				"element": "C" 
			},
			{
				"x": -0.5649988527,
				"y": -3.9570804182,
				"z": -1.4295515496,
				"element": "C" 
			},
			{
				"x": 0.2449085893,
				"y": -3.289716824,
				"z": -2.5513777868,
				"element": "C" 
			},
			{
				"x": 1.1165407884,
				"y": -4.2850398087,
				"z": -3.08734366,
				"element": "O" 
			},
			{
				"x": 1.0094038373,
				"y": -2.0902611113,
				"z": -1.9862753739,
				"element": "C" 
			},
			{
				"x": 0.0374052317,
				"y": -1.0196359494,
				"z": -1.4476193119,
				"element": "C" 
			},
			{
				"x": -1.7331893162,
				"y": -0.9044447118,
				"z": 2.1618882037,
				"element": "C" 
			},
			{
				"x": -1.2844285056,
				"y": -0.4499128081,
				"z": 3.4019242752,
				"element": "C" 
			},
			{
				"x": -0.7495319296,
				"y": 0.832292189,
				"z": 3.5110887582,
				"element": "C" 
			},
			{
				"x": -0.6840706219,
				"y": 1.6424920187,
				"z": 2.3779797243,
				"element": "C" 
			},
			{
				"x": -2.910900593,
				"y": 3.0051688549,
				"z": 0.3152691804,
				"element": "H" 
			},
			{
				"x": -2.3756929102,
				"y": 3.2458146268,
				"z": -1.2093835796,
				"element": "H" 
			},
			{
				"x": -0.5905489007,
				"y": 1.6968485148,
				"z": -0.9065832394,
				"element": "H" 
			},
			{
				"x": -0.4369707289,
				"y": 3.0144131848,
				"z": 0.2473404809,
				"element": "H" 
			},
			{
				"x": -2.364730543,
				"y": 0.1221969764,
				"z": -1.0149310885,
				"element": "H" 
			},
			{
				"x": -3.0694639244,
				"y": -1.233681397,
				"z": -0.1538956853,
				"element": "H" 
			},
			{
				"x": -1.9851529143,
				"y": -3.2466363392,
				"z": 0.0551654387,
				"element": "H" 
			},
			{
				"x": -0.3116107641,
				"y": -2.8942780379,
				"z": 0.4679827085,
				"element": "H" 
			},
			{
				"x": -1.4228935948,
				"y": -4.4812085493,
				"z": -1.8621549633,
				"element": "H" 
			},
			{
				"x": 0.075549453,
				"y": -4.7132605132,
				"z": -0.9618680099,
				"element": "H" 
			},
			{
				"x": -0.4449151352,
				"y": -2.9323967031,
				"z": -3.3310918522,
				"element": "H" 
			},
			{
				"x": 1.5629481096,
				"y": -3.9034124867,
				"z": -3.8543190239,
				"element": "H" 
			},
			{
				"x": 1.6695346833,
				"y": -2.4540722699,
				"z": -1.1898370959,
				"element": "H" 
			},
			{
				"x": 1.6582746382,
				"y": -1.6473222823,
				"z": -2.7521314142,
				"element": "H" 
			},
			{
				"x": 0.5422579545,
				"y": -0.4549271258,
				"z": -0.6430732456,
				"element": "H" 
			},
			{
				"x": -0.2038969477,
				"y": -0.2975636413,
				"z": -2.2403993392,
				"element": "H" 
			},
			{
				"x": -2.1655055856,
				"y": -1.8987110619,
				"z": 2.0874122237,
				"element": "H" 
			},
			{
				"x": -1.3595811004,
				"y": -1.0911111918,
				"z": 4.2758136178,
				"element": "H" 
			},
			{
				"x": -0.3968967806,
				"y": 1.2040601886,
				"z": 4.4689632884,
				"element": "H" 
			},
			{
				"x": -0.2802723021,
				"y": 2.6491053081,
				"z": 2.4624048051,
				"element": "H" 
			}
		],
		 "valence_orbital": [ 
			{
				"type": "occ",
				"energy": -0.2568,
				"method": "rhf"
			},
			{
				"type": "occ",
				"energy": -0.24342,
				"method": "rhf"
			},
			{
				"type": "occ",
				"energy": -0.24052,
				"method": "rhf"
			},
			{
				"type": "occ",
				"energy": -0.23432,
				"method": "rhf"
			},
			{
				"type": "occ",
				"energy": -0.19445,
				"method": "rhf"
			},
			{
				"type": "unocc",
				"energy": -0.00293,
				"method": "rhf"
			},
			{
				"type": "unocc",
				"energy": 0.00213,
				"method": "rhf"
			},
			{
				"type": "unocc",
				"energy": 0.07881,
				"method": "rhf"
			},
			{
				"type": "unocc",
				"energy": 0.08454,
				"method": "rhf"
			},
			{
				"type": "unocc",
				"energy": 0.09292,
				"method": "rhf"
			}
		],
		"cosmo_sigma_profile": { 
			"-0.025": 0.0,
			"-0.024": 0.0,
			"-0.023": 0.0,
			"-0.022": 0.0,
			"-0.021": 0.0,
			"-0.02": 0.0,
			"-0.019": 0.0,
			"-0.018": 0.0,
			"-0.017": 0.0,
			"-0.016": 0.0,
			"-0.015": 0.545424264532,
			"-0.014": 1.1001536404,
			"-0.013": 1.06026338599,
			"-0.012": 0.903835366941,
			"-0.011": 0.503914802663,
			"-0.01": 2.00925105377,
			"-0.009": 3.55359679863,
			"-0.008": 3.75877542916,
			"-0.007": 3.8184898369,
			"-0.006": 5.21282909934,
			"-0.005": 11.7043730825,
			"-0.004": 18.3651385779,
			"-0.003": 29.3356052538,
			"-0.002": 36.4288490881,
			"-0.001": 33.1987949864,
			"0.0": 25.4446807772,
			"0.001": 16.3893274277,
			"0.002": 12.0871779952,
			"0.003": 11.151539325,
			"0.004": 9.69029352212,
			"0.005": 9.98340456706,
			"0.006": 11.2927259015,
			"0.007": 6.33814302115,
			"0.008": 2.85320299288,
			"0.009": 2.47414366131,
			"0.01": 3.383517129,
			"0.011": 2.80830300368,
			"0.012": 2.4654770027,
			"0.013": 2.60272597901,
			"0.014": 3.23113050149,
			"0.015": 1.30972747839,
			"0.016": 0.417989272446,
			"0.017": 0.0261569262491,
			"0.018": 0.0,
			"0.019": 0.0,
			"0.02": 0.0,
			"0.021": 0.0,
			"0.022": 0.0,
			"0.023": 0.0,
			"0.024": 0.0,
			"0.025": 0.0
		}
	}
}
