{
	 "smiles": "NC(=O)C1=C(SC2=CC=C(Cl)C=C2)N=CC=C1", 
	 "Tm": 483.15, 
	 "num_atms": 26, 
	 "gaussian": { 
		 "optdone": 1, 
		 "sigma_profile": "yes", 
		 "theory": "DFT", 
		 "functional": "B3LYP", 
		 "basiset": "6-31G**", 
		 "properties": { 
			 "R2extent": 6978.3477, 
			 "electric_dipole_moment_norm": 1.68513413709, 
			 "electric_quadrupole_moment_norm": 18.627022626, 
			 "total_energy": -1505.81572628, 
			 "HOMO_LUMO_gap": 0.18946, 
			 "cosmo_polarized_energy": -13.95, 
			 "cosmo_cavitation_energy": 34.45, 
			 "cosmo_dispersion_energy": -25.27, 
			 "cosmo_repulsion_energy": 1.94, 
			 "cosmo_total_nonelectrostatic_energy": 11.12, 
			 "SMD_solvation_energy": 5.29 
		},
		"coords": [
			{
				"x": 0.9312383354,
				"y": -2.9417680345,
				"z": -0.0427737701,
				"element": "N" 
			},
			{
				"x": 2.1792158201,
				"y": -2.4441808929,
				"z": -0.2626775023,
				"element": "C" 
			},
			{
				"x": 3.1424160552,
				"y": -3.1803298115,
				"z": -0.4504257745,
				"element": "O" 
			},
			{
				"x": 2.3662579488,
				"y": -0.9423038036,
				"z": -0.229834154,
				"element": "C" 
			},
			{
				"x": 1.4111982041,
				"y": 0.0800065172,
				"z": -0.4483429765,
				"element": "C" 
			},
			{
				"x": -0.2913277683,
				"y": -0.3098800639,
				"z": -0.9353986307,
				"element": "S" 
			},
			{
				"x": -1.1122503901,
				"y": 1.2732914336,
				"z": -0.7826750672,
				"element": "C" 
			},
			{
				"x": -1.1955898739,
				"y": 2.124519644,
				"z": -1.8897916513,
				"element": "C" 
			},
			{
				"x": -1.8942026941,
				"y": 3.3273620456,
				"z": -1.8014966755,
				"element": "C" 
			},
			{
				"x": -2.5090291048,
				"y": 3.6686959474,
				"z": -0.5966819242,
				"element": "C" 
			},
			{
				"x": -3.39325773,
				"y": 5.181138016,
				"z": -0.4797928581,
				"element": "Cl" 
			},
			{
				"x": -2.4393831124,
				"y": 2.8301969751,
				"z": 0.5157809634,
				"element": "C" 
			},
			{
				"x": -1.7392036273,
				"y": 1.6286020441,
				"z": 0.4163864125,
				"element": "C" 
			},
			{
				"x": 1.7046933834,
				"y": 1.3762622575,
				"z": -0.3705433579,
				"element": "N" 
			},
			{
				"x": 2.9568149244,
				"y": 1.7406730216,
				"z": -0.0778811311,
				"element": "C" 
			},
			{
				"x": 3.988394202,
				"y": 0.8269437556,
				"z": 0.1212526509,
				"element": "C" 
			},
			{
				"x": 3.6766998102,
				"y": -0.5249267626,
				"z": 0.0350530726,
				"element": "C" 
			},
			{
				"x": 0.139885044,
				"y": -2.3658901919,
				"z": 0.202653372,
				"element": "H" 
			},
			{
				"x": 0.8381020201,
				"y": -3.9463339821,
				"z": -0.0366342336,
				"element": "H" 
			},
			{
				"x": -0.7114876246,
				"y": 1.8473243116,
				"z": -2.8199281644,
				"element": "H" 
			},
			{
				"x": -1.9617432389,
				"y": 3.9926618331,
				"z": -2.6549461714,
				"element": "H" 
			},
			{
				"x": -2.9267618449,
				"y": 3.1126053554,
				"z": 1.4422274795,
				"element": "H" 
			},
			{
				"x": -1.6800427538,
				"y": 0.9669853735,
				"z": 1.2741779642,
				"element": "H" 
			},
			{
				"x": 3.1352361685,
				"y": 2.812335064,
				"z": -0.0114076094,
				"element": "H" 
			},
			{
				"x": 4.9970736997,
				"y": 1.1630234923,
				"z": 0.3362763789,
				"element": "H" 
			},
			{
				"x": 4.4267541472,
				"y": -1.2970135446,
				"z": 0.169023358,
				"element": "H" 
			}
		],
		 "valence_orbital": [ 
			{
				"type": "occ",
				"energy": -0.27277,
				"method": "rhf"
			},
			{
				"type": "occ",
				"energy": -0.2707,
				"method": "rhf"
			},
			{
				"type": "occ",
				"energy": -0.25536,
				"method": "rhf"
			},
			{
				"type": "occ",
				"energy": -0.25184,
				"method": "rhf"
			},
			{
				"type": "occ",
				"energy": -0.23871,
				"method": "rhf"
			},
			{
				"type": "unocc",
				"energy": -0.04925,
				"method": "rhf"
			},
			{
				"type": "unocc",
				"energy": -0.0372,
				"method": "rhf"
			},
			{
				"type": "unocc",
				"energy": -0.02922,
				"method": "rhf"
			},
			{
				"type": "unocc",
				"energy": -0.02238,
				"method": "rhf"
			},
			{
				"type": "unocc",
				"energy": 0.01861,
				"method": "rhf"
			}
		],
		"cosmo_sigma_profile": { 
			"-0.025": 0.0,
			"-0.024": 0.0,
			"-0.023": 0.0,
			"-0.022": 0.0,
			"-0.021": 0.0,
			"-0.02": 0.0,
			"-0.019": 0.0,
			"-0.018": 0.0,
			"-0.017": 0.0,
			"-0.016": 0.0,
			"-0.015": 0.25037453247,
			"-0.014": 1.0008126177,
			"-0.013": 1.09781386262,
			"-0.012": 1.08618583479,
			"-0.011": 1.86823418522,
			"-0.01": 1.85024032031,
			"-0.009": 1.80050067596,
			"-0.008": 4.58092198994,
			"-0.007": 14.8638998196,
			"-0.006": 16.0605455611,
			"-0.005": 13.1820189364,
			"-0.004": 12.2655288775,
			"-0.003": 13.4482504253,
			"-0.002": 14.7506003928,
			"-0.001": 21.2559177151,
			"0.0": 27.4420820789,
			"0.001": 31.3606777911,
			"0.002": 29.673109218,
			"0.003": 18.6453928959,
			"0.004": 17.6147207953,
			"0.005": 7.61853719587,
			"0.006": 4.85783770472,
			"0.007": 3.77830999428,
			"0.008": 3.1059332313,
			"0.009": 2.10673389354,
			"0.01": 2.01881634793,
			"0.011": 2.70844836447,
			"0.012": 3.33621866151,
			"0.013": 4.68446649667,
			"0.014": 2.72758614086,
			"0.015": 0.0511463227942,
			"0.016": 0.0,
			"0.017": 0.0,
			"0.018": 0.0,
			"0.019": 0.0,
			"0.02": 0.0,
			"0.021": 0.0,
			"0.022": 0.0,
			"0.023": 0.0,
			"0.024": 0.0,
			"0.025": 0.0
		}
	}
}
