{
	 "smiles": "OC1=C(Br)C=C(C=C1Br)C#N", 
	 "Tm": 463.15, 
	 "num_atms": 14, 
	 "gaussian": { 
		 "optdone": 1, 
		 "sigma_profile": "yes", 
		 "theory": "DFT", 
		 "functional": "B3LYP", 
		 "basiset": "6-31G**", 
		 "properties": { 
			 "R2extent": 4614.5, 
			 "electric_dipole_moment_norm": 3.75046865338, 
			 "electric_quadrupole_moment_norm": 12.6772973358, 
			 "total_energy": -5541.31142696, 
			 "HOMO_LUMO_gap": 0.19445, 
			 "cosmo_polarized_energy": -10.83, 
			 "cosmo_cavitation_energy": 24.57, 
			 "cosmo_dispersion_energy": -18.55, 
			 "cosmo_repulsion_energy": 1.49, 
			 "cosmo_total_nonelectrostatic_energy": 7.52, 
			 "SMD_solvation_energy": 3.87 
		},
		"coords": [
			{
				"x": -0.215281488,
				"y": -0.7304459692,
				"z": -3.1447256217,
				"element": "O" 
			},
			{
				"x": -0.3680888494,
				"y": -0.6016786024,
				"z": -1.8176908833,
				"element": "C" 
			},
			{
				"x": 0.705421504,
				"y": -0.6250722095,
				"z": -0.9075613116,
				"element": "C" 
			},
			{
				"x": 2.4696942911,
				"y": -0.852611917,
				"z": -1.6101072357,
				"element": "Br" 
			},
			{
				"x": 0.5188225779,
				"y": -0.4896552848,
				"z": 0.4594167372,
				"element": "C" 
			},
			{
				"x": -0.7817074958,
				"y": -0.3233535444,
				"z": 0.9589406121,
				"element": "C" 
			},
			{
				"x": -1.8718636378,
				"y": -0.296242862,
				"z": 0.0732387363,
				"element": "C" 
			},
			{
				"x": -1.6632289518,
				"y": -0.4335029174,
				"z": -1.2913084475,
				"element": "C" 
			},
			{
				"x": -3.1448861965,
				"y": -0.3946751539,
				"z": -2.4768719619,
				"element": "Br" 
			},
			{
				"x": -0.9953402648,
				"y": -0.1816928546,
				"z": 2.3675977598,
				"element": "C" 
			},
			{
				"x": -1.1670438262,
				"y": -0.0667046618,
				"z": 3.5124101614,
				"element": "N" 
			},
			{
				"x": 0.7303316801,
				"y": -0.8372454213,
				"z": -3.3440061891,
				"element": "H" 
			},
			{
				"x": 1.3668082483,
				"y": -0.5120256061,
				"z": 1.1326265131,
				"element": "H" 
			},
			{
				"x": -2.8780375911,
				"y": -0.1680929957,
				"z": 0.4529411307,
				"element": "H" 
			}
		],
		 "valence_orbital": [ 
			{
				"type": "occ",
				"energy": -0.33205,
				"method": "rhf"
			},
			{
				"type": "occ",
				"energy": -0.31572,
				"method": "rhf"
			},
			{
				"type": "occ",
				"energy": -0.30269,
				"method": "rhf"
			},
			{
				"type": "occ",
				"energy": -0.27204,
				"method": "rhf"
			},
			{
				"type": "occ",
				"energy": -0.25476,
				"method": "rhf"
			},
			{
				"type": "unocc",
				"energy": -0.06031,
				"method": "rhf"
			},
			{
				"type": "unocc",
				"energy": -0.04977,
				"method": "rhf"
			},
			{
				"type": "unocc",
				"energy": -0.04118,
				"method": "rhf"
			},
			{
				"type": "unocc",
				"energy": -0.00147,
				"method": "rhf"
			},
			{
				"type": "unocc",
				"energy": 0.03337,
				"method": "rhf"
			}
		],
		"cosmo_sigma_profile": { 
			"-0.025": 0.0,
			"-0.024": 0.0,
			"-0.023": 0.0,
			"-0.022": 0.0,
			"-0.021": 0.0,
			"-0.02": 0.0,
			"-0.019": 0.0,
			"-0.018": 0.0,
			"-0.017": 0.0,
			"-0.016": 0.385716334192,
			"-0.015": 0.725532467012,
			"-0.014": 0.536351178948,
			"-0.013": 0.396502176251,
			"-0.012": 1.04079108193,
			"-0.011": 1.19567865155,
			"-0.01": 2.07603630149,
			"-0.009": 4.54947164431,
			"-0.008": 5.22999019007,
			"-0.007": 5.18908685612,
			"-0.006": 6.91111054206,
			"-0.005": 8.14400488614,
			"-0.004": 8.2005834375,
			"-0.003": 11.1699234463,
			"-0.002": 21.8757627738,
			"-0.001": 21.5399098545,
			"0.0": 21.5899916141,
			"0.001": 11.3166423394,
			"0.002": 14.3130942832,
			"0.003": 16.2728854536,
			"0.004": 9.02218774224,
			"0.005": 5.55415104963,
			"0.006": 4.57876030097,
			"0.007": 4.18388064895,
			"0.008": 5.73565559789,
			"0.009": 4.96055798757,
			"0.01": 3.19286049632,
			"0.011": 2.70624889628,
			"0.012": 2.45683033778,
			"0.013": 1.01910649884,
			"0.014": 0.0,
			"0.015": 0.0,
			"0.016": 0.0,
			"0.017": 0.0,
			"0.018": 0.0,
			"0.019": 0.0,
			"0.02": 0.0,
			"0.021": 0.0,
			"0.022": 0.0,
			"0.023": 0.0,
			"0.024": 0.0,
			"0.025": 0.0
		}
	}
}
