{
	 "smiles": "NC(CC1CCOC1)C(O)=O", 
	 "Tm": 543.15, 
	 "num_atms": 24, 
	 "gaussian": { 
		 "optdone": 1, 
		 "sigma_profile": "yes", 
		 "theory": "DFT", 
		 "functional": "B3LYP", 
		 "basiset": "6-31G**", 
		 "properties": { 
			 "R2extent": 2313.4778, 
			 "electric_dipole_moment_norm": 2.31945296352, 
			 "electric_quadrupole_moment_norm": 10.7011533192, 
			 "total_energy": -554.998536874, 
			 "HOMO_LUMO_gap": 0.24063, 
			 "cosmo_polarized_energy": -14.52, 
			 "cosmo_cavitation_energy": 26.11, 
			 "cosmo_dispersion_energy": -18.91, 
			 "cosmo_repulsion_energy": 1.55, 
			 "cosmo_total_nonelectrostatic_energy": 8.75, 
			 "SMD_solvation_energy": 3.85 
		},
		"coords": [
			{
				"x": 0.2922529413,
				"y": 2.7991293748,
				"z": -1.0147234002,
				"element": "N" 
			},
			{
				"x": -0.3702889047,
				"y": 1.4973954996,
				"z": -0.8843176378,
				"element": "C" 
			},
			{
				"x": 0.3563918687,
				"y": 0.5072101151,
				"z": 0.0600190535,
				"element": "C" 
			},
			{
				"x": -0.1741703844,
				"y": -0.9318528269,
				"z": 0.0901216789,
				"element": "C" 
			},
			{
				"x": 0.7299071976,
				"y": -1.905714415,
				"z": 0.8698653824,
				"element": "C" 
			},
			{
				"x": -0.216742261,
				"y": -3.0739838817,
				"z": 1.1641342083,
				"element": "C" 
			},
			{
				"x": -1.5376227474,
				"y": -2.522970013,
				"z": 1.218146463,
				"element": "O" 
			},
			{
				"x": -1.5125998296,
				"y": -1.1527743727,
				"z": 0.8172526411,
				"element": "C" 
			},
			{
				"x": -1.7734726326,
				"y": 1.8033183373,
				"z": -0.3731913195,
				"element": "C" 
			},
			{
				"x": -2.7496963497,
				"y": 1.3038443907,
				"z": -1.1617356991,
				"element": "O" 
			},
			{
				"x": -1.9997568653,
				"y": 2.4266957002,
				"z": 0.6416582249,
				"element": "O" 
			},
			{
				"x": 0.2693440857,
				"y": 3.2682969235,
				"z": -0.1114612266,
				"element": "H" 
			},
			{
				"x": 1.2691996183,
				"y": 2.6644010523,
				"z": -1.2628288992,
				"element": "H" 
			},
			{
				"x": -0.4556246572,
				"y": 1.0510199765,
				"z": -1.8808287913,
				"element": "H" 
			},
			{
				"x": 0.3502916525,
				"y": 0.9295120731,
				"z": 1.0737918999,
				"element": "H" 
			},
			{
				"x": 1.4050939254,
				"y": 0.4839687402,
				"z": -0.265334486,
				"element": "H" 
			},
			{
				"x": -0.2741193625,
				"y": -1.2997766858,
				"z": -0.9411009089,
				"element": "H" 
			},
			{
				"x": 1.6200359458,
				"y": -2.2086204958,
				"z": 0.3102068464,
				"element": "H" 
			},
			{
				"x": 1.0629816142,
				"y": -1.433386756,
				"z": 1.8024234529,
				"element": "H" 
			},
			{
				"x": 0.0048264605,
				"y": -3.5737838501,
				"z": 2.1147899622,
				"element": "H" 
			},
			{
				"x": -0.1742685847,
				"y": -3.8312853827,
				"z": 0.3673802869,
				"element": "H" 
			},
			{
				"x": -1.582236331,
				"y": -0.4958204797,
				"z": 1.69984523,
				"element": "H" 
			},
			{
				"x": -2.3834840566,
				"y": -0.9640984222,
				"z": 0.1823498222,
				"element": "H" 
			},
			{
				"x": -3.5930423433,
				"y": 1.5535753982,
				"z": -0.744962784,
				"element": "H" 
			}
		],
		 "valence_orbital": [ 
			{
				"type": "occ",
				"energy": -0.32425,
				"method": "rhf"
			},
			{
				"type": "occ",
				"energy": -0.30379,
				"method": "rhf"
			},
			{
				"type": "occ",
				"energy": -0.28258,
				"method": "rhf"
			},
			{
				"type": "occ",
				"energy": -0.24429,
				"method": "rhf"
			},
			{
				"type": "occ",
				"energy": -0.24049,
				"method": "rhf"
			},
			{
				"type": "unocc",
				"energy": 0.00014,
				"method": "rhf"
			},
			{
				"type": "unocc",
				"energy": 0.06877,
				"method": "rhf"
			},
			{
				"type": "unocc",
				"energy": 0.07897,
				"method": "rhf"
			},
			{
				"type": "unocc",
				"energy": 0.0889,
				"method": "rhf"
			},
			{
				"type": "unocc",
				"energy": 0.10125,
				"method": "rhf"
			}
		],
		"cosmo_sigma_profile": { 
			"-0.025": 0.0,
			"-0.024": 0.0,
			"-0.023": 0.0,
			"-0.022": 0.0,
			"-0.021": 0.0,
			"-0.02": 0.0,
			"-0.019": 0.11398886154,
			"-0.018": 1.05730440171,
			"-0.017": 0.498654659903,
			"-0.016": 1.11051675708,
			"-0.015": 1.01188475801,
			"-0.014": 0.529678426748,
			"-0.013": 0.335114028067,
			"-0.012": 0.961651798064,
			"-0.011": 1.11540990888,
			"-0.01": 2.17000852339,
			"-0.009": 2.34397207785,
			"-0.008": 3.7625578231,
			"-0.007": 4.47830376734,
			"-0.006": 4.37196167013,
			"-0.005": 5.66104961801,
			"-0.004": 15.7145569829,
			"-0.003": 29.2813290644,
			"-0.002": 27.5541000585,
			"-0.001": 18.843910148,
			"0.0": 12.8401074853,
			"0.001": 6.76146235358,
			"0.002": 5.647261812,
			"0.003": 6.24796600215,
			"0.004": 4.66537915303,
			"0.005": 5.40340591409,
			"0.006": 4.44001362277,
			"0.007": 3.3797036856,
			"0.008": 5.36990031613,
			"0.009": 4.28814121588,
			"0.01": 3.66825315055,
			"0.011": 5.4228683235,
			"0.012": 4.67995838059,
			"0.013": 2.78165260066,
			"0.014": 2.53674854359,
			"0.015": 1.06041376936,
			"0.016": 0.120219155132,
			"0.017": 0.78467146122,
			"0.018": 0.6326094998,
			"0.019": 0.0431887114526,
			"0.02": 0.0,
			"0.021": 0.0,
			"0.022": 0.0,
			"0.023": 0.0,
			"0.024": 0.0,
			"0.025": 0.0
		}
	}
}
