{
	 "smiles": "FC1=C(NC(=O)NCC#C)C=CC=C1", 
	 "Tm": 408.15, 
	 "num_atms": 23, 
	 "gaussian": { 
		 "optdone": 1, 
		 "sigma_profile": "yes", 
		 "theory": "DFT", 
		 "functional": "B3LYP", 
		 "basiset": "6-31G**", 
		 "properties": { 
			 "R2extent": 3642.5137, 
			 "electric_dipole_moment_norm": 3.82872277659, 
			 "electric_quadrupole_moment_norm": 8.06448931799, 
			 "total_energy": -670.993059581, 
			 "HOMO_LUMO_gap": 0.20581, 
			 "cosmo_polarized_energy": -12.72, 
			 "cosmo_cavitation_energy": 29.22, 
			 "cosmo_dispersion_energy": -20.33, 
			 "cosmo_repulsion_energy": 1.58, 
			 "cosmo_total_nonelectrostatic_energy": 10.48, 
			 "SMD_solvation_energy": 7.2 
		},
		"coords": [
			{
				"x": 2.7837503693,
				"y": -2.5466358683,
				"z": -0.0199471137,
				"element": "F" 
			},
			{
				"x": 2.0691352258,
				"y": -1.9342013392,
				"z": -0.9960503011,
				"element": "C" 
			},
			{
				"x": 0.7493154553,
				"y": -1.5613180165,
				"z": -0.692562476,
				"element": "C" 
			},
			{
				"x": 0.2673819066,
				"y": -1.8628970512,
				"z": 0.5878001582,
				"element": "N" 
			},
			{
				"x": -0.6771074087,
				"y": -1.2281299758,
				"z": 1.392972143,
				"element": "C" 
			},
			{
				"x": -1.0064219078,
				"y": -1.7207524882,
				"z": 2.4648895426,
				"element": "O" 
			},
			{
				"x": -1.2055957374,
				"y": -0.0514462671,
				"z": 0.9138930474,
				"element": "N" 
			},
			{
				"x": -2.0860281467,
				"y": 0.7165736073,
				"z": 1.7918469478,
				"element": "C" 
			},
			{
				"x": -2.8620318151,
				"y": 1.6978091148,
				"z": 1.0334279185,
				"element": "C" 
			},
			{
				"x": -3.4848390396,
				"y": 2.5266152246,
				"z": 0.4153339143,
				"element": "C" 
			},
			{
				"x": -0.001942612,
				"y": -0.9671868797,
				"z": -1.7192376163,
				"element": "C" 
			},
			{
				"x": 0.5739855946,
				"y": -0.7253241345,
				"z": -2.9688507655,
				"element": "C" 
			},
			{
				"x": 1.8923886694,
				"y": -1.0942703085,
				"z": -3.2329161446,
				"element": "C" 
			},
			{
				"x": 2.6462279653,
				"y": -1.7180355927,
				"z": -2.2346108885,
				"element": "C" 
			},
			{
				"x": 0.7604566044,
				"y": -2.5863945146,
				"z": 1.092258781,
				"element": "H" 
			},
			{
				"x": -0.6854200731,
				"y": 0.4692829337,
				"z": 0.2215455342,
				"element": "H" 
			},
			{
				"x": -1.5204267288,
				"y": 1.2260996825,
				"z": 2.5864941264,
				"element": "H" 
			},
			{
				"x": -2.7431569076,
				"y": 0.0021542863,
				"z": 2.296584,
				"element": "H" 
			},
			{
				"x": -4.048472987,
				"y": 3.2498470089,
				"z": -0.1273713672,
				"element": "H" 
			},
			{
				"x": -1.0431368847,
				"y": -0.7223708891,
				"z": -1.5443283842,
				"element": "H" 
			},
			{
				"x": -0.0263733668,
				"y": -0.260085897,
				"z": -3.7444795876,
				"element": "H" 
			},
			{
				"x": 2.3329862169,
				"y": -0.9104005416,
				"z": -4.2072290445,
				"element": "H" 
			},
			{
				"x": 3.6718256079,
				"y": -2.0313320939,
				"z": -2.3977624244,
				"element": "H" 
			}
		],
		 "valence_orbital": [ 
			{
				"type": "occ",
				"energy": -0.27846,
				"method": "rhf"
			},
			{
				"type": "occ",
				"energy": -0.27119,
				"method": "rhf"
			},
			{
				"type": "occ",
				"energy": -0.26094,
				"method": "rhf"
			},
			{
				"type": "occ",
				"energy": -0.25517,
				"method": "rhf"
			},
			{
				"type": "occ",
				"energy": -0.22583,
				"method": "rhf"
			},
			{
				"type": "unocc",
				"energy": -0.02002,
				"method": "rhf"
			},
			{
				"type": "unocc",
				"energy": -0.01051,
				"method": "rhf"
			},
			{
				"type": "unocc",
				"energy": 0.03451,
				"method": "rhf"
			},
			{
				"type": "unocc",
				"energy": 0.04417,
				"method": "rhf"
			},
			{
				"type": "unocc",
				"energy": 0.06227,
				"method": "rhf"
			}
		],
		"cosmo_sigma_profile": { 
			"-0.025": 0.0,
			"-0.024": 0.0,
			"-0.023": 0.0,
			"-0.022": 0.0,
			"-0.021": 0.0,
			"-0.02": 0.0,
			"-0.019": 0.0,
			"-0.018": 0.0,
			"-0.017": 0.0,
			"-0.016": 0.0,
			"-0.015": 0.0,
			"-0.014": 0.00848144628659,
			"-0.013": 0.562824401866,
			"-0.012": 2.11573145791,
			"-0.011": 3.2421036514,
			"-0.01": 3.02068898353,
			"-0.009": 3.1161237581,
			"-0.008": 3.94987197952,
			"-0.007": 7.19346981597,
			"-0.006": 15.5459549796,
			"-0.005": 15.265070478,
			"-0.004": 15.5817628437,
			"-0.003": 11.0389712367,
			"-0.002": 13.7579507199,
			"-0.001": 13.3242106655,
			"0.0": 15.1558337972,
			"0.001": 16.8766305354,
			"0.002": 16.1730718044,
			"0.003": 19.5027154087,
			"0.004": 19.3106665679,
			"0.005": 12.4470716644,
			"0.006": 8.91560643166,
			"0.007": 3.74941385225,
			"0.008": 0.576013375908,
			"0.009": 1.69131907585,
			"0.01": 1.63144895434,
			"0.011": 1.36388730701,
			"0.012": 1.27264103105,
			"0.013": 4.78177175425,
			"0.014": 3.93574158897,
			"0.015": 0.0930840137097,
			"0.016": 0.0,
			"0.017": 0.0,
			"0.018": 0.0,
			"0.019": 0.0,
			"0.02": 0.0,
			"0.021": 0.0,
			"0.022": 0.0,
			"0.023": 0.0,
			"0.024": 0.0,
			"0.025": 0.0
		}
	}
}
