{
	 "smiles": "CCCCCC(=O)CCCCC", 
	 "Tm": 287.95, 
	 "num_atms": 34, 
	 "gaussian": { 
		 "optdone": 1, 
		 "sigma_profile": "yes", 
		 "theory": "DFT", 
		 "functional": "B3LYP", 
		 "basiset": "6-31G**", 
		 "properties": { 
			 "R2extent": 4747.3736, 
			 "electric_dipole_moment_norm": 2.30312977924, 
			 "electric_quadrupole_moment_norm": 2.25800330823, 
			 "total_energy": -507.687214901, 
			 "HOMO_LUMO_gap": 0.23239, 
			 "cosmo_polarized_energy": -6.34, 
			 "cosmo_cavitation_energy": 35.0, 
			 "cosmo_dispersion_energy": -24.43, 
			 "cosmo_repulsion_energy": 2.04, 
			 "cosmo_total_nonelectrostatic_energy": 12.61, 
			 "SMD_solvation_energy": 5.61 
		},
		"coords": [
			{
				"x": -5.0426065107,
				"y": 1.3669752332,
				"z": -0.1972225443,
				"element": "C" 
			},
			{
				"x": -5.0276122094,
				"y": -0.0956929945,
				"z": 0.2632226116,
				"element": "C" 
			},
			{
				"x": -3.6399498193,
				"y": -0.7573241103,
				"z": 0.2339185055,
				"element": "C" 
			},
			{
				"x": -3.0462833142,
				"y": -0.9177798165,
				"z": -1.1733201475,
				"element": "C" 
			},
			{
				"x": -1.6995164844,
				"y": -1.6481371318,
				"z": -1.184973494,
				"element": "C" 
			},
			{
				"x": -0.5331120641,
				"y": -0.8317506874,
				"z": -0.634394934,
				"element": "C" 
			},
			{
				"x": -0.6129516145,
				"y": 0.3724978024,
				"z": -0.4682457084,
				"element": "O" 
			},
			{
				"x": 0.7390692172,
				"y": -1.6080913843,
				"z": -0.3045897911,
				"element": "C" 
			},
			{
				"x": 1.9768013636,
				"y": -0.7330781509,
				"z": -0.0835746436,
				"element": "C" 
			},
			{
				"x": 2.5254691016,
				"y": -0.104376878,
				"z": -1.3713030227,
				"element": "C" 
			},
			{
				"x": 3.7691880768,
				"y": 0.7621471055,
				"z": -1.1373322239,
				"element": "C" 
			},
			{
				"x": 4.3199736666,
				"y": 1.386518153,
				"z": -2.4233264755,
				"element": "C" 
			},
			{
				"x": -6.0440530274,
				"y": 1.7994171813,
				"z": -0.0999815681,
				"element": "H" 
			},
			{
				"x": -4.742044107,
				"y": 1.469105944,
				"z": -1.2448285136,
				"element": "H" 
			},
			{
				"x": -4.3559646321,
				"y": 1.975249351,
				"z": 0.4023575827,
				"element": "H" 
			},
			{
				"x": -5.7213503895,
				"y": -0.6819544822,
				"z": -0.355790817,
				"element": "H" 
			},
			{
				"x": -5.4180790057,
				"y": -0.1501232568,
				"z": 1.287585221,
				"element": "H" 
			},
			{
				"x": -3.7128935481,
				"y": -1.7494010248,
				"z": 0.701986845,
				"element": "H" 
			},
			{
				"x": -2.946912101,
				"y": -0.1709196511,
				"z": 0.8500070282,
				"element": "H" 
			},
			{
				"x": -3.7540062337,
				"y": -1.4714739146,
				"z": -1.8040857772,
				"element": "H" 
			},
			{
				"x": -2.9063642752,
				"y": 0.0651602064,
				"z": -1.6339870767,
				"element": "H" 
			},
			{
				"x": -1.7552118597,
				"y": -2.6023153077,
				"z": -0.6424489268,
				"element": "H" 
			},
			{
				"x": -1.4190424303,
				"y": -1.9200808604,
				"z": -2.2140533118,
				"element": "H" 
			},
			{
				"x": 0.9125701079,
				"y": -2.3581950574,
				"z": -1.0888910085,
				"element": "H" 
			},
			{
				"x": 0.5127904702,
				"y": -2.1898414102,
				"z": 0.6019794976,
				"element": "H" 
			},
			{
				"x": 1.7190411476,
				"y": 0.0612782964,
				"z": 0.6259061211,
				"element": "H" 
			},
			{
				"x": 2.7599413266,
				"y": -1.3410634756,
				"z": 0.3872052324,
				"element": "H" 
			},
			{
				"x": 1.7417166336,
				"y": 0.5069885844,
				"z": -1.8352164329,
				"element": "H" 
			},
			{
				"x": 2.7696039019,
				"y": -0.9003288248,
				"z": -2.0906696484,
				"element": "H" 
			},
			{
				"x": 4.5511525877,
				"y": 0.154697559,
				"z": -0.6607183306,
				"element": "H" 
			},
			{
				"x": 3.5230469906,
				"y": 1.5571027737,
				"z": -0.4207136327,
				"element": "H" 
			},
			{
				"x": 4.6071666385,
				"y": 0.6153287278,
				"z": -3.1475655496,
				"element": "H" 
			},
			{
				"x": 3.5716221855,
				"y": 2.0271234471,
				"z": -2.9035893002,
				"element": "H" 
			},
			{
				"x": 5.2045002104,
				"y": 2.0005380542,
				"z": -2.2242457661,
				"element": "H" 
			}
		],
		 "valence_orbital": [ 
			{
				"type": "occ",
				"energy": -0.31737,
				"method": "rhf"
			},
			{
				"type": "occ",
				"energy": -0.31596,
				"method": "rhf"
			},
			{
				"type": "occ",
				"energy": -0.31278,
				"method": "rhf"
			},
			{
				"type": "occ",
				"energy": -0.30996,
				"method": "rhf"
			},
			{
				"type": "occ",
				"energy": -0.24189,
				"method": "rhf"
			},
			{
				"type": "unocc",
				"energy": -0.0095,
				"method": "rhf"
			},
			{
				"type": "unocc",
				"energy": 0.08148,
				"method": "rhf"
			},
			{
				"type": "unocc",
				"energy": 0.09977,
				"method": "rhf"
			},
			{
				"type": "unocc",
				"energy": 0.10172,
				"method": "rhf"
			},
			{
				"type": "unocc",
				"energy": 0.12161,
				"method": "rhf"
			}
		],
		"cosmo_sigma_profile": { 
			"-0.025": 0.0,
			"-0.024": 0.0,
			"-0.023": 0.0,
			"-0.022": 0.0,
			"-0.021": 0.0,
			"-0.02": 0.0,
			"-0.019": 0.0,
			"-0.018": 0.0,
			"-0.017": 0.0,
			"-0.016": 0.0,
			"-0.015": 0.0,
			"-0.014": 0.0,
			"-0.013": 0.0,
			"-0.012": 0.0,
			"-0.011": 0.0,
			"-0.01": 0.0,
			"-0.009": 0.0,
			"-0.008": 0.0,
			"-0.007": 0.0,
			"-0.006": 1.85623425512,
			"-0.005": 9.43715178352,
			"-0.004": 10.320221744,
			"-0.003": 15.1044459627,
			"-0.002": 40.9553443547,
			"-0.001": 53.7833856963,
			"0.0": 49.1222573695,
			"0.001": 42.0068353576,
			"0.002": 21.0447149786,
			"0.003": 3.58391984364,
			"0.004": 2.61044485077,
			"0.005": 2.10477633046,
			"0.006": 1.91645148735,
			"0.007": 1.4820735506,
			"0.008": 2.19582387889,
			"0.009": 2.32158041329,
			"0.01": 1.49248111938,
			"0.011": 2.02512994504,
			"0.012": 3.09300693494,
			"0.013": 2.34865156442,
			"0.014": 0.0399441302209,
			"0.015": 0.0,
			"0.016": 0.0,
			"0.017": 0.0,
			"0.018": 0.0,
			"0.019": 0.0,
			"0.02": 0.0,
			"0.021": 0.0,
			"0.022": 0.0,
			"0.023": 0.0,
			"0.024": 0.0,
			"0.025": 0.0
		}
	}
}
