{
	 "smiles": "CC(OC1=C(F)C=C(Br)C=C1)C(O)=O", 
	 "Tm": 387.15, 
	 "num_atms": 22, 
	 "gaussian": { 
		 "optdone": 1, 
		 "sigma_profile": "yes", 
		 "theory": "DFT", 
		 "functional": "B3LYP", 
		 "basiset": "6-31G**", 
		 "properties": { 
			 "R2extent": 6777.7576, 
			 "electric_dipole_moment_norm": 3.93385301454, 
			 "electric_quadrupole_moment_norm": 7.92558275775, 
			 "total_energy": -3244.68681889, 
			 "HOMO_LUMO_gap": 0.20614, 
			 "cosmo_polarized_energy": -13.12, 
			 "cosmo_cavitation_energy": 29.88, 
			 "cosmo_dispersion_energy": -21.45, 
			 "cosmo_repulsion_energy": 1.71, 
			 "cosmo_total_nonelectrostatic_energy": 10.14, 
			 "SMD_solvation_energy": 5.83 
		},
		"coords": [
			{
				"x": 0.472720463,
				"y": -1.0657286373,
				"z": 2.5713931668,
				"element": "C" 
			},
			{
				"x": -0.1154831355,
				"y": -0.5139052625,
				"z": 1.271702104,
				"element": "C" 
			},
			{
				"x": 0.5643781262,
				"y": 0.6979120299,
				"z": 0.9969073714,
				"element": "O" 
			},
			{
				"x": 0.414723147,
				"y": 1.2802381655,
				"z": -0.2270337541,
				"element": "C" 
			},
			{
				"x": 1.1428869711,
				"y": 2.4650839762,
				"z": -0.4284680595,
				"element": "C" 
			},
			{
				"x": 1.9002134818,
				"y": 2.9297215093,
				"z": 0.5795377772,
				"element": "F" 
			},
			{
				"x": 1.1055690612,
				"y": 3.157488384,
				"z": -1.6262701277,
				"element": "C" 
			},
			{
				"x": 0.3171858477,
				"y": 2.6564837389,
				"z": -2.6645551932,
				"element": "C" 
			},
			{
				"x": 0.2530530732,
				"y": 3.5971928646,
				"z": -4.3252230251,
				"element": "Br" 
			},
			{
				"x": -0.4167966302,
				"y": 1.4885624586,
				"z": -2.5009285214,
				"element": "C" 
			},
			{
				"x": -0.3663538453,
				"y": 0.8029733334,
				"z": -1.2819481789,
				"element": "C" 
			},
			{
				"x": -1.6192329814,
				"y": -0.2700298891,
				"z": 1.4376691282,
				"element": "C" 
			},
			{
				"x": -2.3033141755,
				"y": -1.4295354883,
				"z": 1.2805063267,
				"element": "O" 
			},
			{
				"x": -2.139826688,
				"y": 0.7847949489,
				"z": 1.7033334173,
				"element": "O" 
			},
			{
				"x": 1.5435273809,
				"y": -1.2388681938,
				"z": 2.4424141157,
				"element": "H" 
			},
			{
				"x": -0.0130041896,
				"y": -2.007867212,
				"z": 2.8363860801,
				"element": "H" 
			},
			{
				"x": 0.3290465209,
				"y": -0.3457421616,
				"z": 3.3811114035,
				"element": "H" 
			},
			{
				"x": 0.0347208605,
				"y": -1.2380910018,
				"z": 0.4606373988,
				"element": "H" 
			},
			{
				"x": 1.6849109715,
				"y": 4.0662432386,
				"z": -1.7329173995,
				"element": "H" 
			},
			{
				"x": -1.0289093024,
				"y": 1.1084014194,
				"z": -3.310002702,
				"element": "H" 
			},
			{
				"x": -0.9515779,
				"y": -0.1023740383,
				"z": -1.1715803099,
				"element": "H" 
			},
			{
				"x": -3.2386370571,
				"y": -1.2239541825,
				"z": 1.4499289815,
				"element": "H" 
			}
		],
		 "valence_orbital": [ 
			{
				"type": "occ",
				"energy": -0.29896,
				"method": "rhf"
			},
			{
				"type": "occ",
				"energy": -0.28814,
				"method": "rhf"
			},
			{
				"type": "occ",
				"energy": -0.28787,
				"method": "rhf"
			},
			{
				"type": "occ",
				"energy": -0.26145,
				"method": "rhf"
			},
			{
				"type": "occ",
				"energy": -0.22534,
				"method": "rhf"
			},
			{
				"type": "unocc",
				"energy": -0.0192,
				"method": "rhf"
			},
			{
				"type": "unocc",
				"energy": -0.00841,
				"method": "rhf"
			},
			{
				"type": "unocc",
				"energy": -0.00451,
				"method": "rhf"
			},
			{
				"type": "unocc",
				"energy": 0.00413,
				"method": "rhf"
			},
			{
				"type": "unocc",
				"energy": 0.05924,
				"method": "rhf"
			}
		],
		"cosmo_sigma_profile": { 
			"-0.025": 0.0,
			"-0.024": 0.0,
			"-0.023": 0.0,
			"-0.022": 0.0,
			"-0.021": 0.0,
			"-0.02": 0.0,
			"-0.019": 0.41979872147,
			"-0.018": 0.883567799733,
			"-0.017": 1.13605016086,
			"-0.016": 0.363046462319,
			"-0.015": 1.12123276338,
			"-0.014": 0.598651854559,
			"-0.013": 0.871018686474,
			"-0.012": 0.604566472135,
			"-0.011": 0.892519172131,
			"-0.01": 0.679857540604,
			"-0.009": 1.41151499944,
			"-0.008": 5.75808937388,
			"-0.007": 9.15644587784,
			"-0.006": 9.16550312996,
			"-0.005": 12.3364437914,
			"-0.004": 14.4135106203,
			"-0.003": 15.2658576507,
			"-0.002": 14.6689393697,
			"-0.001": 15.4953221265,
			"0.0": 18.3004102534,
			"0.001": 17.3435476086,
			"0.002": 20.4142374652,
			"0.003": 20.7303068928,
			"0.004": 22.635937109,
			"0.005": 9.85995785567,
			"0.006": 3.77659931859,
			"0.007": 4.5106127506,
			"0.008": 5.09363283108,
			"0.009": 4.01876545396,
			"0.01": 3.06940004875,
			"0.011": 5.2074352437,
			"0.012": 1.27799628834,
			"0.013": 0.0,
			"0.014": 0.0,
			"0.015": 0.0,
			"0.016": 0.0,
			"0.017": 0.0,
			"0.018": 0.0,
			"0.019": 0.0,
			"0.02": 0.0,
			"0.021": 0.0,
			"0.022": 0.0,
			"0.023": 0.0,
			"0.024": 0.0,
			"0.025": 0.0
		}
	}
}
