{
	 "smiles": "CN1C=NC(=N1)C1=CC=C(C=C1)C(O)=O", 
	 "Tm": 548.15, 
	 "num_atms": 24, 
	 "gaussian": { 
		 "optdone": 1, 
		 "sigma_profile": "yes", 
		 "theory": "DFT", 
		 "functional": "B3LYP", 
		 "basiset": "6-31G**", 
		 "properties": { 
			 "R2extent": 5019.8077, 
			 "electric_dipole_moment_norm": 8.45653610469, 
			 "electric_quadrupole_moment_norm": 20.2168789471, 
			 "total_energy": -701.195272482, 
			 "HOMO_LUMO_gap": 0.18037, 
			 "cosmo_polarized_energy": -20.29, 
			 "cosmo_cavitation_energy": 29.38, 
			 "cosmo_dispersion_energy": -21.75, 
			 "cosmo_repulsion_energy": 1.68, 
			 "cosmo_total_nonelectrostatic_energy": 9.31, 
			 "SMD_solvation_energy": 4.42 
		},
		"coords": [
			{
				"x": -3.675879474,
				"y": -1.2503718511,
				"z": 1.3341397402,
				"element": "C" 
			},
			{
				"x": -2.365623342,
				"y": -1.5336780819,
				"z": 0.7791136258,
				"element": "N" 
			},
			{
				"x": -1.7872905482,
				"y": -2.7237698027,
				"z": 0.4939440628,
				"element": "C" 
			},
			{
				"x": -0.5780468793,
				"y": -2.5433542338,
				"z": -0.0008097289,
				"element": "N" 
			},
			{
				"x": -0.4485659275,
				"y": -1.1804329334,
				"z": -0.001780665,
				"element": "C" 
			},
			{
				"x": -1.5155299716,
				"y": -0.5294276166,
				"z": 0.4651565361,
				"element": "N" 
			},
			{
				"x": 0.7582483663,
				"y": -0.490437474,
				"z": -0.4747114343,
				"element": "C" 
			},
			{
				"x": 1.8506962075,
				"y": -1.2329719786,
				"z": -0.9507289038,
				"element": "C" 
			},
			{
				"x": 2.9968191928,
				"y": -0.5868558671,
				"z": -1.3973027906,
				"element": "C" 
			},
			{
				"x": 3.0720428458,
				"y": 0.81311124,
				"z": -1.3965052796,
				"element": "C" 
			},
			{
				"x": 1.9842140406,
				"y": 1.553334653,
				"z": -0.9072991931,
				"element": "C" 
			},
			{
				"x": 0.8392825349,
				"y": 0.91044139,
				"z": -0.4497840533,
				"element": "C" 
			},
			{
				"x": 4.3361584727,
				"y": 1.4450099009,
				"z": -1.8918390053,
				"element": "C" 
			},
			{
				"x": 4.2604846338,
				"y": 2.7517159314,
				"z": -2.2686567464,
				"element": "O" 
			},
			{
				"x": 5.3896851742,
				"y": 0.8572344079,
				"z": -1.9698837929,
				"element": "O" 
			},
			{
				"x": -4.1927309065,
				"y": -2.1947794097,
				"z": 1.5126456296,
				"element": "H" 
			},
			{
				"x": -3.573140036,
				"y": -0.7078072149,
				"z": 2.2769448669,
				"element": "H" 
			},
			{
				"x": -4.2558244846,
				"y": -0.6447809529,
				"z": 0.6335944117,
				"element": "H" 
			},
			{
				"x": -2.2792134594,
				"y": -3.6722725381,
				"z": 0.6617050136,
				"element": "H" 
			},
			{
				"x": 1.783607534,
				"y": -2.3152875333,
				"z": -0.9599599106,
				"element": "H" 
			},
			{
				"x": 3.8520283688,
				"y": -1.1488949197,
				"z": -1.756631692,
				"element": "H" 
			},
			{
				"x": 2.0342465865,
				"y": 2.6377260588,
				"z": -0.8391128611,
				"element": "H" 
			},
			{
				"x": 0.0031248211,
				"y": 1.4830419333,
				"z": -0.0634538523,
				"element": "H" 
			},
			{
				"x": 3.3358062502,
				"y": 3.0322068924,
				"z": -2.3071839776,
				"element": "H" 
			}
		],
		 "valence_orbital": [ 
			{
				"type": "occ",
				"energy": -0.29473,
				"method": "rhf"
			},
			{
				"type": "occ",
				"energy": -0.28626,
				"method": "rhf"
			},
			{
				"type": "occ",
				"energy": -0.26812,
				"method": "rhf"
			},
			{
				"type": "occ",
				"energy": -0.26341,
				"method": "rhf"
			},
			{
				"type": "occ",
				"energy": -0.23851,
				"method": "rhf"
			},
			{
				"type": "unocc",
				"energy": -0.05814,
				"method": "rhf"
			},
			{
				"type": "unocc",
				"energy": -0.0173,
				"method": "rhf"
			},
			{
				"type": "unocc",
				"energy": 0.00209,
				"method": "rhf"
			},
			{
				"type": "unocc",
				"energy": 0.02973,
				"method": "rhf"
			},
			{
				"type": "unocc",
				"energy": 0.06699,
				"method": "rhf"
			}
		],
		"cosmo_sigma_profile": { 
			"-0.025": 0.0,
			"-0.024": 0.0,
			"-0.023": 0.0,
			"-0.022": 0.0,
			"-0.021": 0.0,
			"-0.02": 0.0,
			"-0.019": 0.0856542492444,
			"-0.018": 0.821930799919,
			"-0.017": 1.51051719658,
			"-0.016": 0.409870605676,
			"-0.015": 0.794561400727,
			"-0.014": 1.31148823441,
			"-0.013": 1.17805282673,
			"-0.012": 0.866039555201,
			"-0.011": 2.75935654762,
			"-0.01": 4.30046988393,
			"-0.009": 4.03793730957,
			"-0.008": 4.78265732863,
			"-0.007": 8.53176728886,
			"-0.006": 13.9064923837,
			"-0.005": 14.0186760218,
			"-0.004": 17.6680970884,
			"-0.003": 13.0194382292,
			"-0.002": 10.6934764371,
			"-0.001": 10.294480767,
			"0.0": 11.6451492076,
			"0.001": 17.4918447138,
			"0.002": 20.6968796055,
			"0.003": 17.1560082834,
			"0.004": 6.0365645343,
			"0.005": 6.56057611369,
			"0.006": 5.01389168583,
			"0.007": 5.16179359638,
			"0.008": 5.42497277976,
			"0.009": 5.8689287075,
			"0.01": 6.10752334972,
			"0.011": 7.53485510581,
			"0.012": 6.58525159523,
			"0.013": 2.77384570274,
			"0.014": 0.944499476583,
			"0.015": 0.140249631912,
			"0.016": 0.0,
			"0.017": 0.0,
			"0.018": 0.0,
			"0.019": 0.0,
			"0.02": 0.0,
			"0.021": 0.0,
			"0.022": 0.0,
			"0.023": 0.0,
			"0.024": 0.0,
			"0.025": 0.0
		}
	}
}
