{
	 "smiles": "CCOC1=C(O)C=CC(C=C(C(O)=O)C2=CC=CC=C2)=C1", 
	 "Tm": 460.15, 
	 "num_atms": 37, 
	 "gaussian": { 
		 "optdone": 1, 
		 "sigma_profile": "yes", 
		 "theory": "DFT", 
		 "functional": "B3LYP", 
		 "basiset": "6-31G**", 
		 "properties": { 
			 "R2extent": 8586.2247, 
			 "electric_dipole_moment_norm": 4.4639067385, 
			 "electric_quadrupole_moment_norm": 15.6210771472, 
			 "total_energy": -958.344678798, 
			 "HOMO_LUMO_gap": 0.14442, 
			 "cosmo_polarized_energy": -15.9, 
			 "cosmo_cavitation_energy": 41.26, 
			 "cosmo_dispersion_energy": -28.75, 
			 "cosmo_repulsion_energy": 2.25, 
			 "cosmo_total_nonelectrostatic_energy": 14.76, 
			 "SMD_solvation_energy": 8.72 
		},
		"coords": [
			{
				"x": 2.3212406685,
				"y": -3.9824139501,
				"z": -2.3732965998,
				"element": "C" 
			},
			{
				"x": 1.5704246894,
				"y": -4.9028527412,
				"z": -1.4179968876,
				"element": "C" 
			},
			{
				"x": 1.8299920104,
				"y": -4.5981846155,
				"z": -0.0425923133,
				"element": "O" 
			},
			{
				"x": 1.1941610316,
				"y": -3.5370011277,
				"z": 0.5583688175,
				"element": "C" 
			},
			{
				"x": 1.6159604929,
				"y": -3.3186859449,
				"z": 1.8880204571,
				"element": "C" 
			},
			{
				"x": 2.5713539616,
				"y": -4.1104712921,
				"z": 2.4359668811,
				"element": "O" 
			},
			{
				"x": 1.0349047873,
				"y": -2.2961969206,
				"z": 2.6350615418,
				"element": "C" 
			},
			{
				"x": 0.0575999179,
				"y": -1.4796762953,
				"z": 2.0730669594,
				"element": "C" 
			},
			{
				"x": -0.3686208306,
				"y": -1.6729407624,
				"z": 0.7464555179,
				"element": "C" 
			},
			{
				"x": -1.4164283346,
				"y": -0.8975131243,
				"z": 0.0836081914,
				"element": "C" 
			},
			{
				"x": -1.9620625568,
				"y": 0.3119184125,
				"z": 0.3793746383,
				"element": "C" 
			},
			{
				"x": -3.1205765551,
				"y": 0.790572107,
				"z": -0.4232380994,
				"element": "C" 
			},
			{
				"x": -3.467340529,
				"y": -0.0336448366,
				"z": -1.4534864727,
				"element": "O" 
			},
			{
				"x": -3.7387958124,
				"y": 1.8172034297,
				"z": -0.2112786397,
				"element": "O" 
			},
			{
				"x": -1.4871299686,
				"y": 1.2527093216,
				"z": 1.43389072,
				"element": "C" 
			},
			{
				"x": -2.3348089375,
				"y": 1.6776412731,
				"z": 2.4682787653,
				"element": "C" 
			},
			{
				"x": -1.8763317918,
				"y": 2.5635059906,
				"z": 3.4433105569,
				"element": "C" 
			},
			{
				"x": -0.5687425195,
				"y": 3.0504898619,
				"z": 3.3929108148,
				"element": "C" 
			},
			{
				"x": 0.2784907155,
				"y": 2.6474428188,
				"z": 2.3587154203,
				"element": "C" 
			},
			{
				"x": -0.1779084642,
				"y": 1.7573804761,
				"z": 1.3872647571,
				"element": "C" 
			},
			{
				"x": 0.2099893499,
				"y": -2.7315671391,
				"z": 0.00508008,
				"element": "C" 
			},
			{
				"x": 3.3975913439,
				"y": -4.0365005588,
				"z": -2.186953889,
				"element": "H" 
			},
			{
				"x": 2.0068757676,
				"y": -2.9413565009,
				"z": -2.2631450921,
				"element": "H" 
			},
			{
				"x": 2.1349464581,
				"y": -4.2883066934,
				"z": -3.408098939,
				"element": "H" 
			},
			{
				"x": 1.9080900932,
				"y": -5.9360992701,
				"z": -1.5358308003,
				"element": "H" 
			},
			{
				"x": 0.4894766239,
				"y": -4.8872191645,
				"z": -1.6037344595,
				"element": "H" 
			},
			{
				"x": 2.830429825,
				"y": -4.7514202922,
				"z": 1.7547393512,
				"element": "H" 
			},
			{
				"x": 1.359911371,
				"y": -2.1571891064,
				"z": 3.6608104471,
				"element": "H" 
			},
			{
				"x": -0.3866710961,
				"y": -0.6983396623,
				"z": 2.6751795536,
				"element": "H" 
			},
			{
				"x": -1.8354265765,
				"y": -1.3921304593,
				"z": -0.7888036073,
				"element": "H" 
			},
			{
				"x": -4.2249974212,
				"y": 0.4023044022,
				"z": -1.8753476356,
				"element": "H" 
			},
			{
				"x": -3.3566510899,
				"y": 1.315045317,
				"z": 2.5027375037,
				"element": "H" 
			},
			{
				"x": -2.5443502305,
				"y": 2.8782219088,
				"z": 4.2401035586,
				"element": "H" 
			},
			{
				"x": -0.2145748313,
				"y": 3.7439427476,
				"z": 4.1504085748,
				"element": "H" 
			},
			{
				"x": 1.2942227892,
				"y": 3.0291526521,
				"z": 2.3050754374,
				"element": "H" 
			},
			{
				"x": 0.4815390919,
				"y": 1.4458002141,
				"z": 0.5827248429,
				"element": "H" 
			},
			{
				"x": -0.1253834433,
				"y": -2.8971204755,
				"z": -1.0128499528,
				"element": "H" 
			}
		],
		 "valence_orbital": [ 
			{
				"type": "occ",
				"energy": -0.26584,
				"method": "rhf"
			},
			{
				"type": "occ",
				"energy": -0.24525,
				"method": "rhf"
			},
			{
				"type": "occ",
				"energy": -0.24337,
				"method": "rhf"
			},
			{
				"type": "occ",
				"energy": -0.23698,
				"method": "rhf"
			},
			{
				"type": "occ",
				"energy": -0.202,
				"method": "rhf"
			},
			{
				"type": "unocc",
				"energy": -0.05758,
				"method": "rhf"
			},
			{
				"type": "unocc",
				"energy": -0.00249,
				"method": "rhf"
			},
			{
				"type": "unocc",
				"energy": 0.00316,
				"method": "rhf"
			},
			{
				"type": "unocc",
				"energy": 0.01013,
				"method": "rhf"
			},
			{
				"type": "unocc",
				"energy": 0.03219,
				"method": "rhf"
			}
		],
		"cosmo_sigma_profile": { 
			"-0.025": 0.0,
			"-0.024": 0.0,
			"-0.023": 0.0,
			"-0.022": 0.0,
			"-0.021": 0.0,
			"-0.02": 0.0,
			"-0.019": 0.0,
			"-0.018": 0.312117917303,
			"-0.017": 0.803036380986,
			"-0.016": 0.739078209454,
			"-0.015": 1.21649957587,
			"-0.014": 1.19021422044,
			"-0.013": 0.782378312396,
			"-0.012": 1.02259442783,
			"-0.011": 2.15100025851,
			"-0.01": 0.885341472432,
			"-0.009": 1.40064551212,
			"-0.008": 1.99971903342,
			"-0.007": 5.42767656111,
			"-0.006": 12.6736770764,
			"-0.005": 21.4012421088,
			"-0.004": 26.6603451703,
			"-0.003": 28.2898050572,
			"-0.002": 23.1115999516,
			"-0.001": 25.2400402096,
			"0.0": 25.9821740182,
			"0.001": 24.2741633358,
			"0.002": 26.8283885955,
			"0.003": 24.4256796199,
			"0.004": 22.3854570439,
			"0.005": 13.1574420244,
			"0.006": 7.44595436503,
			"0.007": 4.8114915296,
			"0.008": 5.05468259376,
			"0.009": 3.38829656374,
			"0.01": 3.34406048127,
			"0.011": 4.57137878048,
			"0.012": 5.3159884976,
			"0.013": 2.13142229122,
			"0.014": 0.0,
			"0.015": 0.0,
			"0.016": 0.0,
			"0.017": 0.0,
			"0.018": 0.0,
			"0.019": 0.0,
			"0.02": 0.0,
			"0.021": 0.0,
			"0.022": 0.0,
			"0.023": 0.0,
			"0.024": 0.0,
			"0.025": 0.0
		}
	}
}
