{
	 "smiles": "CC(C)C(Br)C(=O)NC1CCCCCC1", 
	 "Tm": 393.15, 
	 "num_atms": 37, 
	 "gaussian": { 
		 "optdone": 1, 
		 "sigma_profile": "yes", 
		 "theory": "DFT", 
		 "functional": "B3LYP", 
		 "basiset": "6-31G**", 
		 "properties": { 
			 "R2extent": 5705.5708, 
			 "electric_dipole_moment_norm": 2.06172497923, 
			 "electric_quadrupole_moment_norm": 9.19127787361, 
			 "total_energy": -3171.95774381, 
			 "HOMO_LUMO_gap": 0.23326, 
			 "cosmo_polarized_energy": -8.42, 
			 "cosmo_cavitation_energy": 37.7, 
			 "cosmo_dispersion_energy": -26.27, 
			 "cosmo_repulsion_energy": 2.07, 
			 "cosmo_total_nonelectrostatic_energy": 13.5, 
			 "SMD_solvation_energy": 4.54 
		},
		"coords": [
			{
				"x": -0.0119432419,
				"y": 4.3468590934,
				"z": -0.7572507883,
				"element": "C" 
			},
			{
				"x": 0.9267547329,
				"y": 3.3732130043,
				"z": -0.0211862941,
				"element": "C" 
			},
			{
				"x": 1.5479595057,
				"y": 2.3539515431,
				"z": -0.9847744227,
				"element": "C" 
			},
			{
				"x": 0.1999044306,
				"y": 2.7125588484,
				"z": 1.1750091414,
				"element": "C" 
			},
			{
				"x": 1.5610842997,
				"y": 1.9384152001,
				"z": 2.4443211702,
				"element": "Br" 
			},
			{
				"x": -0.89100876,
				"y": 1.7111640805,
				"z": 0.7685047412,
				"element": "C" 
			},
			{
				"x": -1.928363735,
				"y": 2.1764016562,
				"z": 0.2973871742,
				"element": "O" 
			},
			{
				"x": -0.6549388464,
				"y": 0.3874778489,
				"z": 0.9059444147,
				"element": "N" 
			},
			{
				"x": -1.6541067196,
				"y": -0.6255744026,
				"z": 0.5468086189,
				"element": "C" 
			},
			{
				"x": -1.5173718651,
				"y": -1.8166351894,
				"z": 1.5139447859,
				"element": "C" 
			},
			{
				"x": -2.2359633732,
				"y": -3.1041592546,
				"z": 1.0757525317,
				"element": "C" 
			},
			{
				"x": -1.660534085,
				"y": -3.8212825668,
				"z": -0.186915661,
				"element": "C" 
			},
			{
				"x": -0.313656319,
				"y": -3.2801560118,
				"z": -0.6966657289,
				"element": "C" 
			},
			{
				"x": -0.3911693546,
				"y": -1.8838319637,
				"z": -1.372428686,
				"element": "C" 
			},
			{
				"x": -1.5774077938,
				"y": -1.0057142034,
				"z": -0.9448267454,
				"element": "C" 
			},
			{
				"x": -0.4084359884,
				"y": 5.1087225339,
				"z": -0.0781722995,
				"element": "H" 
			},
			{
				"x": -0.8614680637,
				"y": 3.8232868304,
				"z": -1.2001908317,
				"element": "H" 
			},
			{
				"x": 0.5425999076,
				"y": 4.8583735531,
				"z": -1.5510985647,
				"element": "H" 
			},
			{
				"x": 1.7378968522,
				"y": 3.9639321567,
				"z": 0.420467344,
				"element": "H" 
			},
			{
				"x": 2.2223836252,
				"y": 1.668755069,
				"z": -0.4629931678,
				"element": "H" 
			},
			{
				"x": 2.1257513687,
				"y": 2.871614348,
				"z": -1.7566559078,
				"element": "H" 
			},
			{
				"x": 0.7768319853,
				"y": 1.762374485,
				"z": -1.4897426058,
				"element": "H" 
			},
			{
				"x": -0.287838376,
				"y": 3.4752354369,
				"z": 1.7812683932,
				"element": "H" 
			},
			{
				"x": 0.2059326172,
				"y": 0.1008001681,
				"z": 1.3511735914,
				"element": "H" 
			},
			{
				"x": -2.6269140595,
				"y": -0.1457054333,
				"z": 0.6988029213,
				"element": "H" 
			},
			{
				"x": -0.4527074874,
				"y": -2.0384564941,
				"z": 1.6635670716,
				"element": "H" 
			},
			{
				"x": -1.8955424781,
				"y": -1.5105662668,
				"z": 2.4963564594,
				"element": "H" 
			},
			{
				"x": -3.3003922639,
				"y": -2.8868234043,
				"z": 0.9237800806,
				"element": "H" 
			},
			{
				"x": -2.1966501936,
				"y": -3.7958947419,
				"z": 1.9248622023,
				"element": "H" 
			},
			{
				"x": -1.5407160293,
				"y": -4.8866966102,
				"z": 0.0401452425,
				"element": "H" 
			},
			{
				"x": -2.3904472653,
				"y": -3.7784359048,
				"z": -1.0039255032,
				"element": "H" 
			},
			{
				"x": 0.4024118994,
				"y": -3.2599766267,
				"z": 0.1332266418,
				"element": "H" 
			},
			{
				"x": 0.1012879554,
				"y": -3.9963713937,
				"z": -1.4155788822,
				"element": "H" 
			},
			{
				"x": -0.4660092591,
				"y": -2.0184331928,
				"z": -2.4584656255,
				"element": "H" 
			},
			{
				"x": 0.5484936595,
				"y": -1.3420101172,
				"z": -1.2059897219,
				"element": "H" 
			},
			{
				"x": -2.5145579051,
				"y": -1.5113506021,
				"z": -1.206573766,
				"element": "H" 
			},
			{
				"x": -1.5742493765,
				"y": -0.0746614759,
				"z": -1.5218873233,
				"element": "H" 
			}
		],
		 "valence_orbital": [ 
			{
				"type": "occ",
				"energy": -0.30887,
				"method": "rhf"
			},
			{
				"type": "occ",
				"energy": -0.28856,
				"method": "rhf"
			},
			{
				"type": "occ",
				"energy": -0.28028,
				"method": "rhf"
			},
			{
				"type": "occ",
				"energy": -0.2543,
				"method": "rhf"
			},
			{
				"type": "occ",
				"energy": -0.24731,
				"method": "rhf"
			},
			{
				"type": "unocc",
				"energy": -0.01405,
				"method": "rhf"
			},
			{
				"type": "unocc",
				"energy": 0.02433,
				"method": "rhf"
			},
			{
				"type": "unocc",
				"energy": 0.06591,
				"method": "rhf"
			},
			{
				"type": "unocc",
				"energy": 0.08365,
				"method": "rhf"
			},
			{
				"type": "unocc",
				"energy": 0.09523,
				"method": "rhf"
			}
		],
		"cosmo_sigma_profile": { 
			"-0.025": 0.0,
			"-0.024": 0.0,
			"-0.023": 0.0,
			"-0.022": 0.0,
			"-0.021": 0.0,
			"-0.02": 0.0,
			"-0.019": 0.0,
			"-0.018": 0.0,
			"-0.017": 0.0,
			"-0.016": 0.0,
			"-0.015": 0.0,
			"-0.014": 0.0,
			"-0.013": 0.0,
			"-0.012": 0.0,
			"-0.011": 0.0,
			"-0.01": 0.562977168134,
			"-0.009": 1.35089813777,
			"-0.008": 1.78625266532,
			"-0.007": 3.07107810434,
			"-0.006": 3.62845553924,
			"-0.005": 4.25874927675,
			"-0.004": 9.18076603956,
			"-0.003": 27.3548177822,
			"-0.002": 46.9681290926,
			"-0.001": 49.2301601659,
			"0.0": 49.1524350734,
			"0.001": 41.7388978097,
			"0.002": 11.8135473481,
			"0.003": 7.54760187058,
			"0.004": 7.41821094767,
			"0.005": 8.60295968108,
			"0.006": 4.85678926096,
			"0.007": 1.76075848593,
			"0.008": 1.25685386964,
			"0.009": 1.90259110342,
			"0.01": 1.0777341912,
			"0.011": 1.52643411822,
			"0.012": 1.92916277174,
			"0.013": 3.30436097268,
			"0.014": 2.62138613987,
			"0.015": 0.00782092192803,
			"0.016": 0.0,
			"0.017": 0.0,
			"0.018": 0.0,
			"0.019": 0.0,
			"0.02": 0.0,
			"0.021": 0.0,
			"0.022": 0.0,
			"0.023": 0.0,
			"0.024": 0.0,
			"0.025": 0.0
		}
	}
}
