{
	 "smiles": "CC1=C(NC(=O)C2=C(I)C=CC=C2)C=CC=C1N", 
	 "Tm": 472.15, 
	 "num_atms": 31, 
	 "gaussian": { 
		 "optdone": 1, 
		 "sigma_profile": "yes", 
		 "theory": "DFT", 
		 "functional": "B3LYP", 
		 "basiset": "6-31G**", 
		 "properties": { 
			 "R2extent": 5727.6171, 
			 "electric_dipole_moment_norm": 1.34254461006, 
			 "electric_quadrupole_moment_norm": 20.7103506735, 
			 "total_energy": -737.456306752, 
			 "HOMO_LUMO_gap": 0.15184, 
			 "cosmo_polarized_energy": -15.91, 
			 "cosmo_cavitation_energy": 37.52, 
			 "cosmo_dispersion_energy": -27.67, 
			 "cosmo_repulsion_energy": 2.1, 
			 "cosmo_total_nonelectrostatic_energy": 11.94, 
			 "SMD_solvation_energy": 5.99 
		},
		"coords": [
			{
				"x": 0.6161096678,
				"y": -0.5228084907,
				"z": -2.2754068227,
				"element": "C" 
			},
			{
				"x": -0.3840718193,
				"y": 0.5714036464,
				"z": -2.0071416243,
				"element": "C" 
			},
			{
				"x": -1.0917497919,
				"y": 0.6682742629,
				"z": -0.7982912191,
				"element": "C" 
			},
			{
				"x": -0.8397950195,
				"y": -0.2338800535,
				"z": 0.2780084034,
				"element": "N" 
			},
			{
				"x": 0.3746005322,
				"y": -0.4115141583,
				"z": 0.8893637531,
				"element": "C" 
			},
			{
				"x": 1.4043404849,
				"y": 0.1423689593,
				"z": 0.5256172039,
				"element": "O" 
			},
			{
				"x": 0.376212392,
				"y": -1.2909777213,
				"z": 2.1236320749,
				"element": "C" 
			},
			{
				"x": -0.2774252184,
				"y": -2.5192288091,
				"z": 2.3194440018,
				"element": "C" 
			},
			{
				"x": -1.3980340952,
				"y": -3.5270356257,
				"z": 0.8038825333,
				"element": "I" 
			},
			{
				"x": -0.1633506039,
				"y": -3.2080525963,
				"z": 3.53252627,
				"element": "C" 
			},
			{
				"x": 0.6033673039,
				"y": -2.6782941282,
				"z": 4.5686495357,
				"element": "C" 
			},
			{
				"x": 1.2785744404,
				"y": -1.4706973236,
				"z": 4.3878788806,
				"element": "C" 
			},
			{
				"x": 1.1699637673,
				"y": -0.7995051209,
				"z": 3.1760367123,
				"element": "C" 
			},
			{
				"x": -2.1044649254,
				"y": 1.6187331857,
				"z": -0.611731509,
				"element": "C" 
			},
			{
				"x": -2.4031965328,
				"y": 2.511384347,
				"z": -1.6356172807,
				"element": "C" 
			},
			{
				"x": -1.6772085074,
				"y": 2.4809356861,
				"z": -2.8222864697,
				"element": "C" 
			},
			{
				"x": -0.6650376776,
				"y": 1.5283686347,
				"z": -3.0122941633,
				"element": "C" 
			},
			{
				"x": 0.0193987907,
				"y": 1.4713498515,
				"z": -4.2329798141,
				"element": "N" 
			},
			{
				"x": 0.570842647,
				"y": -0.8311963108,
				"z": -3.3249839731,
				"element": "H" 
			},
			{
				"x": 0.4084034566,
				"y": -1.400585836,
				"z": -1.6604453308,
				"element": "H" 
			},
			{
				"x": 1.6404729465,
				"y": -0.2092367321,
				"z": -2.0418191445,
				"element": "H" 
			},
			{
				"x": -1.6539911105,
				"y": -0.5876070415,
				"z": 0.760255136,
				"element": "H" 
			},
			{
				"x": -0.6639945326,
				"y": -4.1607519286,
				"z": 3.6615220911,
				"element": "H" 
			},
			{
				"x": 0.6795591472,
				"y": -3.2200175968,
				"z": 5.5068183807,
				"element": "H" 
			},
			{
				"x": 1.890871871,
				"y": -1.0579296675,
				"z": 5.183652393,
				"element": "H" 
			},
			{
				"x": 1.7040898923,
				"y": 0.1285718811,
				"z": 3.0025030542,
				"element": "H" 
			},
			{
				"x": -2.629147955,
				"y": 1.6644021471,
				"z": 0.3379488024,
				"element": "H" 
			},
			{
				"x": -3.1860907228,
				"y": 3.2517152496,
				"z": -1.4997031745,
				"element": "H" 
			},
			{
				"x": -1.891453083,
				"y": 3.1953990372,
				"z": -3.6134645761,
				"element": "H" 
			},
			{
				"x": 0.9857006873,
				"y": 1.1818351945,
				"z": -4.1683778839,
				"element": "H" 
			},
			{
				"x": -0.0754964319,
				"y": 2.3050770581,
				"z": -4.7970962407,
				"element": "H" 
			}
		],
		 "valence_orbital": [ 
			{
				"type": "occ",
				"energy": -0.26601,
				"method": "rhf"
			},
			{
				"type": "occ",
				"energy": -0.25059,
				"method": "rhf"
			},
			{
				"type": "occ",
				"energy": -0.24771,
				"method": "rhf"
			},
			{
				"type": "occ",
				"energy": -0.22304,
				"method": "rhf"
			},
			{
				"type": "occ",
				"energy": -0.19888,
				"method": "rhf"
			},
			{
				"type": "unocc",
				"energy": -0.04704,
				"method": "rhf"
			},
			{
				"type": "unocc",
				"energy": -0.04153,
				"method": "rhf"
			},
			{
				"type": "unocc",
				"energy": -0.02235,
				"method": "rhf"
			},
			{
				"type": "unocc",
				"energy": 0.00759,
				"method": "rhf"
			},
			{
				"type": "unocc",
				"energy": 0.01621,
				"method": "rhf"
			}
		],
		"cosmo_sigma_profile": { 
			"-0.025": 0.0,
			"-0.024": 0.0,
			"-0.023": 0.0,
			"-0.022": 0.0,
			"-0.021": 0.0,
			"-0.02": 0.0,
			"-0.019": 0.0,
			"-0.018": 0.0,
			"-0.017": 0.0,
			"-0.016": 0.0,
			"-0.015": 0.0,
			"-0.014": 0.132144662561,
			"-0.013": 0.839569095802,
			"-0.012": 2.18161277758,
			"-0.011": 2.97398873169,
			"-0.01": 4.42052657026,
			"-0.009": 4.23051922871,
			"-0.008": 3.9644960792,
			"-0.007": 10.6100746888,
			"-0.006": 15.6846729771,
			"-0.005": 18.5994166739,
			"-0.004": 16.8430426107,
			"-0.003": 18.0887931525,
			"-0.002": 19.1463289028,
			"-0.001": 20.4596513861,
			"0.0": 19.8196450622,
			"0.001": 25.8434612275,
			"0.002": 26.3661655322,
			"0.003": 26.0586696303,
			"0.004": 19.3364363104,
			"0.005": 9.83463720711,
			"0.006": 11.141164596,
			"0.007": 7.18675149056,
			"0.008": 3.30255946135,
			"0.009": 2.41971659861,
			"0.01": 2.78896785281,
			"0.011": 2.11904585392,
			"0.012": 3.21429361844,
			"0.013": 4.45062999721,
			"0.014": 1.76817131175,
			"0.015": 0.170458111639,
			"0.016": 0.0,
			"0.017": 0.0,
			"0.018": 0.0,
			"0.019": 0.0,
			"0.02": 0.0,
			"0.021": 0.0,
			"0.022": 0.0,
			"0.023": 0.0,
			"0.024": 0.0,
			"0.025": 0.0
		}
	}
}
