{
	 "smiles": "NS(=O)(=O)C1=NC=CS1", 
	 "Tm": 393.15, 
	 "num_atms": 13, 
	 "gaussian": { 
		 "optdone": 1, 
		 "sigma_profile": "yes", 
		 "theory": "DFT", 
		 "functional": "B3LYP", 
		 "basiset": "6-31G**", 
		 "properties": { 
			 "R2extent": 1735.0058, 
			 "electric_dipole_moment_norm": 5.6489218582, 
			 "electric_quadrupole_moment_norm": 9.48157446999, 
			 "total_energy": -1172.95848677, 
			 "HOMO_LUMO_gap": 0.20733, 
			 "cosmo_polarized_energy": -17.02, 
			 "cosmo_cavitation_energy": 20.79, 
			 "cosmo_dispersion_energy": -16.63, 
			 "cosmo_repulsion_energy": 1.27, 
			 "cosmo_total_nonelectrostatic_energy": 5.43, 
			 "SMD_solvation_energy": 1.95 
		},
		"coords": [
			{
				"x": 0.8128812239,
				"y": -1.9521140575,
				"z": -0.5315878464,
				"element": "N" 
			},
			{
				"x": 0.1797806325,
				"y": -0.8986215605,
				"z": 0.5966370674,
				"element": "S" 
			},
			{
				"x": -0.4692051058,
				"y": -1.6979315811,
				"z": 1.6322751409,
				"element": "O" 
			},
			{
				"x": 1.2177768478,
				"y": 0.0799410007,
				"z": 0.8918642617,
				"element": "O" 
			},
			{
				"x": -1.1516957611,
				"y": -0.046836908,
				"z": -0.2702868784,
				"element": "C" 
			},
			{
				"x": -1.013365187,
				"y": 0.4089903702,
				"z": -1.4791906112,
				"element": "N" 
			},
			{
				"x": -2.1572470577,
				"y": 1.0575318381,
				"z": -1.8763304804,
				"element": "C" 
			},
			{
				"x": -3.1670438617,
				"y": 1.0896678008,
				"z": -0.9527203173,
				"element": "C" 
			},
			{
				"x": -2.6914045747,
				"y": 0.2648533449,
				"z": 0.49150783,
				"element": "S" 
			},
			{
				"x": 1.1872052314,
				"y": -1.459511393,
				"z": -1.338231346,
				"element": "H" 
			},
			{
				"x": 0.1551952529,
				"y": -2.6824571792,
				"z": -0.7882603916,
				"element": "H" 
			},
			{
				"x": -2.2036996544,
				"y": 1.4942757959,
				"z": -2.8665955214,
				"element": "H" 
			},
			{
				"x": -4.1468779863,
				"y": 1.5370125288,
				"z": -1.0449809073,
				"element": "H" 
			}
		],
		 "valence_orbital": [ 
			{
				"type": "occ",
				"energy": -0.32725,
				"method": "rhf"
			},
			{
				"type": "occ",
				"energy": -0.31445,
				"method": "rhf"
			},
			{
				"type": "occ",
				"energy": -0.30998,
				"method": "rhf"
			},
			{
				"type": "occ",
				"energy": -0.30177,
				"method": "rhf"
			},
			{
				"type": "occ",
				"energy": -0.27193,
				"method": "rhf"
			},
			{
				"type": "unocc",
				"energy": -0.0646,
				"method": "rhf"
			},
			{
				"type": "unocc",
				"energy": -0.00261,
				"method": "rhf"
			},
			{
				"type": "unocc",
				"energy": 0.0155,
				"method": "rhf"
			},
			{
				"type": "unocc",
				"energy": 0.03742,
				"method": "rhf"
			},
			{
				"type": "unocc",
				"energy": 0.0547,
				"method": "rhf"
			}
		],
		"cosmo_sigma_profile": { 
			"-0.025": 0.0,
			"-0.024": 0.0,
			"-0.023": 0.0,
			"-0.022": 0.0,
			"-0.021": 0.0,
			"-0.02": 0.0,
			"-0.019": 0.0,
			"-0.018": 0.0,
			"-0.017": 0.0489459617988,
			"-0.016": 1.45947867586,
			"-0.015": 2.47344288936,
			"-0.014": 2.24440620727,
			"-0.013": 2.59048998503,
			"-0.012": 2.07867053825,
			"-0.011": 2.56311800184,
			"-0.01": 3.64512640023,
			"-0.009": 5.11716346493,
			"-0.008": 5.71286735727,
			"-0.007": 5.2792683992,
			"-0.006": 5.07207281409,
			"-0.005": 4.98948037908,
			"-0.004": 6.68766492066,
			"-0.003": 6.32800640441,
			"-0.002": 8.7352845901,
			"-0.001": 12.3137130701,
			"0.0": 13.8853323056,
			"0.001": 11.6687395256,
			"0.002": 8.68300566562,
			"0.003": 3.60034746029,
			"0.004": 5.35063550209,
			"0.005": 4.8253515894,
			"0.006": 6.24006461939,
			"0.007": 5.57255928877,
			"0.008": 4.18630929595,
			"0.009": 7.44591964193,
			"0.01": 14.1153180319,
			"0.011": 6.05503087313,
			"0.012": 0.221230931944,
			"0.013": 0.0,
			"0.014": 0.0,
			"0.015": 0.0,
			"0.016": 0.0,
			"0.017": 0.0,
			"0.018": 0.0,
			"0.019": 0.0,
			"0.02": 0.0,
			"0.021": 0.0,
			"0.022": 0.0,
			"0.023": 0.0,
			"0.024": 0.0,
			"0.025": 0.0
		}
	}
}
