{
	 "smiles": "CCCN1C2=C(N(CCOC)C(CCl)=N2)C(=O)NC1=O", 
	 "Tm": 290.15, 
	 "num_atms": 37, 
	 "gaussian": { 
		 "optdone": 1, 
		 "sigma_profile": "yes", 
		 "theory": "DFT", 
		 "functional": "B3LYP", 
		 "basiset": "6-31G**", 
		 "properties": { 
			 "R2extent": 6895.4205, 
			 "electric_dipole_moment_norm": 4.05138875325, 
			 "electric_quadrupole_moment_norm": 15.5809272994, 
			 "total_energy": -1372.43967517, 
			 "HOMO_LUMO_gap": 0.17075, 
			 "cosmo_polarized_energy": -20.08, 
			 "cosmo_cavitation_energy": 41.55, 
			 "cosmo_dispersion_energy": -28.61, 
			 "cosmo_repulsion_energy": 2.21, 
			 "cosmo_total_nonelectrostatic_energy": 15.15, 
			 "SMD_solvation_energy": 6.32 
		},
		"coords": [
			{
				"x": -5.0074462991,
				"y": -0.8781315684,
				"z": 0.0167455427,
				"element": "C" 
			},
			{
				"x": -3.627399583,
				"y": -0.5818540173,
				"z": -0.5776516431,
				"element": "C" 
			},
			{
				"x": -3.11861697,
				"y": 0.8035141508,
				"z": -0.1647697892,
				"element": "C" 
			},
			{
				"x": -1.7927967832,
				"y": 1.1131627553,
				"z": -0.721153834,
				"element": "N" 
			},
			{
				"x": -0.6357948663,
				"y": 0.7940266299,
				"z": -0.0421992782,
				"element": "C" 
			},
			{
				"x": 0.6265773075,
				"y": 1.0377994955,
				"z": -0.5599420443,
				"element": "C" 
			},
			{
				"x": 1.5153759283,
				"y": 0.6146616459,
				"z": 0.4172947945,
				"element": "N" 
			},
			{
				"x": 2.9763984167,
				"y": 0.667219917,
				"z": 0.2968355147,
				"element": "C" 
			},
			{
				"x": 3.5306921017,
				"y": -0.3056606933,
				"z": -0.7560012515,
				"element": "C" 
			},
			{
				"x": 3.3293058947,
				"y": -1.6632270551,
				"z": -0.4330319483,
				"element": "O" 
			},
			{
				"x": 4.3502075342,
				"y": -2.2271842328,
				"z": 0.3693977978,
				"element": "C" 
			},
			{
				"x": 0.7430964982,
				"y": 0.15057833,
				"z": 1.4442366049,
				"element": "C" 
			},
			{
				"x": 1.2543132294,
				"y": -0.3645755165,
				"z": 2.739867874,
				"element": "C" 
			},
			{
				"x": 1.6024593148,
				"y": -2.1607872449,
				"z": 2.7277267639,
				"element": "Cl" 
			},
			{
				"x": -0.5659665961,
				"y": 0.2481218309,
				"z": 1.1943971755,
				"element": "N" 
			},
			{
				"x": 0.8333072543,
				"y": 1.6755537411,
				"z": -1.8318805774,
				"element": "C" 
			},
			{
				"x": 1.8947553069,
				"y": 1.9717682616,
				"z": -2.3733405584,
				"element": "O" 
			},
			{
				"x": -0.4052636149,
				"y": 1.9452358596,
				"z": -2.4380643818,
				"element": "N" 
			},
			{
				"x": -1.7072635973,
				"y": 1.697100764,
				"z": -1.9820321723,
				"element": "C" 
			},
			{
				"x": -2.6843225745,
				"y": 1.9875815801,
				"z": -2.653609392,
				"element": "O" 
			},
			{
				"x": -5.36019389,
				"y": -1.868127443,
				"z": -0.2872407782,
				"element": "H" 
			},
			{
				"x": -4.983257593,
				"y": -0.8563438919,
				"z": 1.1121673329,
				"element": "H" 
			},
			{
				"x": -5.7501007119,
				"y": -0.1443470089,
				"z": -0.3159888891,
				"element": "H" 
			},
			{
				"x": -3.6715267699,
				"y": -0.6259315396,
				"z": -1.6715759113,
				"element": "H" 
			},
			{
				"x": -2.9060391852,
				"y": -1.3390335508,
				"z": -0.2488711553,
				"element": "H" 
			},
			{
				"x": -3.7976819843,
				"y": 1.5811766684,
				"z": -0.5199519093,
				"element": "H" 
			},
			{
				"x": -3.0307055489,
				"y": 0.8740258444,
				"z": 0.9219704891,
				"element": "H" 
			},
			{
				"x": 3.4013948482,
				"y": 0.4588043958,
				"z": 1.2805056992,
				"element": "H" 
			},
			{
				"x": 3.2519174021,
				"y": 1.6854490628,
				"z": 0.0087522287,
				"element": "H" 
			},
			{
				"x": 3.0326291982,
				"y": -0.111940994,
				"z": -1.7085366865,
				"element": "H" 
			},
			{
				"x": 4.5999269193,
				"y": -0.0765476317,
				"z": -0.8898181393,
				"element": "H" 
			},
			{
				"x": 5.3288959202,
				"y": -2.1701032402,
				"z": -0.1313851698,
				"element": "H" 
			},
			{
				"x": 4.4316971638,
				"y": -1.7465586483,
				"z": 1.3550611583,
				"element": "H" 
			},
			{
				"x": 4.0897290315,
				"y": -3.2757264535,
				"z": 0.5260367973,
				"element": "H" 
			},
			{
				"x": 0.4839939175,
				"y": -0.2158072025,
				"z": 3.4937833881,
				"element": "H" 
			},
			{
				"x": 2.1776410238,
				"y": 0.1199896364,
				"z": 3.055375651,
				"element": "H" 
			},
			{
				"x": -0.3655376437,
				"y": 2.3832173633,
				"z": -3.3503093031,
				"element": "H" 
			}
		],
		 "valence_orbital": [ 
			{
				"type": "occ",
				"energy": -0.2856,
				"method": "rhf"
			},
			{
				"type": "occ",
				"energy": -0.28352,
				"method": "rhf"
			},
			{
				"type": "occ",
				"energy": -0.26623,
				"method": "rhf"
			},
			{
				"type": "occ",
				"energy": -0.26189,
				"method": "rhf"
			},
			{
				"type": "occ",
				"energy": -0.22451,
				"method": "rhf"
			},
			{
				"type": "unocc",
				"energy": -0.05376,
				"method": "rhf"
			},
			{
				"type": "unocc",
				"energy": 0.00118,
				"method": "rhf"
			},
			{
				"type": "unocc",
				"energy": 0.01869,
				"method": "rhf"
			},
			{
				"type": "unocc",
				"energy": 0.04596,
				"method": "rhf"
			},
			{
				"type": "unocc",
				"energy": 0.06715,
				"method": "rhf"
			}
		],
		"cosmo_sigma_profile": { 
			"-0.025": 0.0,
			"-0.024": 0.0,
			"-0.023": 0.0,
			"-0.022": 0.0,
			"-0.021": 0.0,
			"-0.02": 0.0,
			"-0.019": 0.0,
			"-0.018": 0.0,
			"-0.017": 0.0,
			"-0.016": 0.362675956455,
			"-0.015": 0.894083646455,
			"-0.014": 0.888771389948,
			"-0.013": 0.645205144616,
			"-0.012": 0.666886049325,
			"-0.011": 1.02958253643,
			"-0.01": 3.50967636226,
			"-0.009": 4.80264788186,
			"-0.008": 4.86250352606,
			"-0.007": 7.31568382087,
			"-0.006": 12.5967206702,
			"-0.005": 17.6682683181,
			"-0.004": 25.3105782388,
			"-0.003": 32.1571322622,
			"-0.002": 39.9087800366,
			"-0.001": 32.7676660814,
			"0.0": 23.8624522505,
			"0.001": 17.6803416369,
			"0.002": 12.6572745188,
			"0.003": 11.9553312703,
			"0.004": 10.2043991061,
			"0.005": 12.293012412,
			"0.006": 12.5776098168,
			"0.007": 5.042070768,
			"0.008": 4.32292665936,
			"0.009": 6.37471040723,
			"0.01": 4.15887154998,
			"0.011": 5.36423990165,
			"0.012": 9.24512164877,
			"0.013": 8.01011238656,
			"0.014": 0.316790277448,
			"0.015": 0.0,
			"0.016": 0.0,
			"0.017": 0.0,
			"0.018": 0.0,
			"0.019": 0.0,
			"0.02": 0.0,
			"0.021": 0.0,
			"0.022": 0.0,
			"0.023": 0.0,
			"0.024": 0.0,
			"0.025": 0.0
		}
	}
}
