{
	 "smiles": "NC(=S)C1=CN=C(N)C=C1", 
	 "Tm": 446.65, 
	 "num_atms": 17, 
	 "gaussian": { 
		 "optdone": 1, 
		 "sigma_profile": "yes", 
		 "theory": "DFT", 
		 "functional": "B3LYP", 
		 "basiset": "6-31G**", 
		 "properties": { 
			 "R2extent": 2041.8123, 
			 "electric_dipole_moment_norm": 6.78995254844, 
			 "electric_quadrupole_moment_norm": 13.4864358487, 
			 "total_energy": -795.314233273, 
			 "HOMO_LUMO_gap": 0.14697, 
			 "cosmo_polarized_energy": -21.65, 
			 "cosmo_cavitation_energy": 22.98, 
			 "cosmo_dispersion_energy": -17.76, 
			 "cosmo_repulsion_energy": 1.41, 
			 "cosmo_total_nonelectrostatic_energy": 6.63, 
			 "SMD_solvation_energy": 1.73 
		},
		"coords": [
			{
				"x": 2.6307407526,
				"y": 0.094268719,
				"z": -1.2373303616,
				"element": "N" 
			},
			{
				"x": 1.3341312682,
				"y": 0.1406329322,
				"z": -1.6403042663,
				"element": "C" 
			},
			{
				"x": 0.9404004023,
				"y": 0.0730595995,
				"z": -3.2642488355,
				"element": "S" 
			},
			{
				"x": 0.3366876505,
				"y": 0.2178873961,
				"z": -0.5540263609,
				"element": "C" 
			},
			{
				"x": -0.937662756,
				"y": 0.7659554287,
				"z": -0.7804632256,
				"element": "C" 
			},
			{
				"x": -1.8830827413,
				"y": 0.8873580271,
				"z": 0.1474335953,
				"element": "N" 
			},
			{
				"x": -1.6184307825,
				"y": 0.4347531429,
				"z": 1.3878853822,
				"element": "C" 
			},
			{
				"x": -2.6420878319,
				"y": 0.5328395633,
				"z": 2.2931514409,
				"element": "N" 
			},
			{
				"x": -0.3780665803,
				"y": -0.1470911747,
				"z": 1.7309537857,
				"element": "C" 
			},
			{
				"x": 0.5935720457,
				"y": -0.2450473205,
				"z": 0.7525713393,
				"element": "C" 
			},
			{
				"x": 3.3384566095,
				"y": 0.087557426,
				"z": -1.9574820821,
				"element": "H" 
			},
			{
				"x": 2.8992564986,
				"y": 0.4045810043,
				"z": -0.315094548,
				"element": "H" 
			},
			{
				"x": -1.1806888724,
				"y": 1.1331840569,
				"z": -1.7741523423,
				"element": "H" 
			},
			{
				"x": -3.4210226473,
				"y": 1.1094650556,
				"z": 2.0119662745,
				"element": "H" 
			},
			{
				"x": -2.4401485391,
				"y": 0.4828167816,
				"z": 3.2785599074,
				"element": "H" 
			},
			{
				"x": -0.204199072,
				"y": -0.5265443765,
				"z": 2.7332576483,
				"element": "H" 
			},
			{
				"x": 1.5395445952,
				"y": -0.7232762615,
				"z": 0.9910226485,
				"element": "H" 
			}
		],
		 "valence_orbital": [ 
			{
				"type": "occ",
				"energy": -0.29139,
				"method": "rhf"
			},
			{
				"type": "occ",
				"energy": -0.26493,
				"method": "rhf"
			},
			{
				"type": "occ",
				"energy": -0.238,
				"method": "rhf"
			},
			{
				"type": "occ",
				"energy": -0.21634,
				"method": "rhf"
			},
			{
				"type": "occ",
				"energy": -0.20027,
				"method": "rhf"
			},
			{
				"type": "unocc",
				"energy": -0.0533,
				"method": "rhf"
			},
			{
				"type": "unocc",
				"energy": -0.0254,
				"method": "rhf"
			},
			{
				"type": "unocc",
				"energy": 0.03004,
				"method": "rhf"
			},
			{
				"type": "unocc",
				"energy": 0.07104,
				"method": "rhf"
			},
			{
				"type": "unocc",
				"energy": 0.07652,
				"method": "rhf"
			}
		],
		"cosmo_sigma_profile": { 
			"-0.025": 0.0,
			"-0.024": 0.0,
			"-0.023": 0.0,
			"-0.022": 0.0,
			"-0.021": 0.0,
			"-0.02": 0.0,
			"-0.019": 0.0,
			"-0.018": 0.0,
			"-0.017": 0.0,
			"-0.016": 0.104596484879,
			"-0.015": 1.6549116072,
			"-0.014": 3.41667522525,
			"-0.013": 5.13037703561,
			"-0.012": 5.15193400436,
			"-0.011": 4.56550958144,
			"-0.01": 4.84449223686,
			"-0.009": 4.889853675,
			"-0.008": 5.4536914283,
			"-0.007": 6.31044231263,
			"-0.006": 5.97021505091,
			"-0.005": 5.69301584845,
			"-0.004": 5.08717408621,
			"-0.003": 6.67794641602,
			"-0.002": 5.76415045814,
			"-0.001": 7.37223434414,
			"0.0": 8.90432097548,
			"0.001": 13.2876364393,
			"0.002": 13.6954600524,
			"0.003": 11.0555785502,
			"0.004": 7.55365334914,
			"0.005": 8.35623621775,
			"0.006": 5.01713653507,
			"0.007": 6.82375409085,
			"0.008": 7.71489059749,
			"0.009": 7.6936439543,
			"0.01": 7.01957611247,
			"0.011": 4.81006182661,
			"0.012": 3.50825169391,
			"0.013": 0.631125478078,
			"0.014": 1.06012837903,
			"0.015": 0.604703151983,
			"0.016": 0.0210487865806,
			"0.017": 0.0,
			"0.018": 0.0,
			"0.019": 0.0,
			"0.02": 0.0,
			"0.021": 0.0,
			"0.022": 0.0,
			"0.023": 0.0,
			"0.024": 0.0,
			"0.025": 0.0
		}
	}
}
