{
	 "smiles": "NC1=C(O)C=C(Cl)C=C1", 
	 "Tm": 427.15, 
	 "num_atms": 15, 
	 "gaussian": { 
		 "optdone": 1, 
		 "sigma_profile": "yes", 
		 "theory": "DFT", 
		 "functional": "B3LYP", 
		 "basiset": "6-31G**", 
		 "properties": { 
			 "R2extent": 3027.955, 
			 "electric_dipole_moment_norm": 4.15227267168, 
			 "electric_quadrupole_moment_norm": 7.34672941247, 
			 "total_energy": -822.421341763, 
			 "HOMO_LUMO_gap": 0.20896, 
			 "cosmo_polarized_energy": -9.01, 
			 "cosmo_cavitation_energy": 20.69, 
			 "cosmo_dispersion_energy": -15.9, 
			 "cosmo_repulsion_energy": 1.32, 
			 "cosmo_total_nonelectrostatic_energy": 6.11, 
			 "SMD_solvation_energy": 3.96 
		},
		"coords": [
			{
				"x": 0.8762579765,
				"y": 0.3536409196,
				"z": -0.4394821885,
				"element": "N" 
			},
			{
				"x": -0.5484285519,
				"y": 0.5710924403,
				"z": -0.5043385696,
				"element": "C" 
			},
			{
				"x": -1.2282773774,
				"y": -0.2246034164,
				"z": -1.4485315172,
				"element": "C" 
			},
			{
				"x": -0.5300890374,
				"y": -1.1026540714,
				"z": -2.2001646067,
				"element": "O" 
			},
			{
				"x": -2.6128646831,
				"y": -0.1087629814,
				"z": -1.6084623052,
				"element": "C" 
			},
			{
				"x": -3.2984365257,
				"y": 0.807309283,
				"z": -0.8159649849,
				"element": "C" 
			},
			{
				"x": -5.0413406163,
				"y": 0.9588726028,
				"z": -1.0114977425,
				"element": "Cl" 
			},
			{
				"x": -2.651028579,
				"y": 1.6080868623,
				"z": 0.1265866365,
				"element": "C" 
			},
			{
				"x": -1.2684593289,
				"y": 1.4778156287,
				"z": 0.2716260295,
				"element": "C" 
			},
			{
				"x": 1.3959233868,
				"y": 1.2010670529,
				"z": -0.6525789082,
				"element": "H" 
			},
			{
				"x": 1.1672844223,
				"y": 0.0421514307,
				"z": 0.4835099814,
				"element": "H" 
			},
			{
				"x": 0.3958805794,
				"y": -0.9877070883,
				"z": -1.8987697007,
				"element": "H" 
			},
			{
				"x": -3.1256861632,
				"y": -0.7249340205,
				"z": -2.3368393107,
				"element": "H" 
			},
			{
				"x": -3.2137944903,
				"y": 2.3118215388,
				"z": 0.7280713107,
				"element": "H" 
			},
			{
				"x": -0.7439410119,
				"y": 2.091603819,
				"z": 0.999835876,
				"element": "H" 
			}
		],
		 "valence_orbital": [ 
			{
				"type": "occ",
				"energy": -0.31374,
				"method": "rhf"
			},
			{
				"type": "occ",
				"energy": -0.30816,
				"method": "rhf"
			},
			{
				"type": "occ",
				"energy": -0.2846,
				"method": "rhf"
			},
			{
				"type": "occ",
				"energy": -0.24795,
				"method": "rhf"
			},
			{
				"type": "occ",
				"energy": -0.22288,
				"method": "rhf"
			},
			{
				"type": "unocc",
				"energy": -0.01392,
				"method": "rhf"
			},
			{
				"type": "unocc",
				"energy": 0.006,
				"method": "rhf"
			},
			{
				"type": "unocc",
				"energy": 0.03303,
				"method": "rhf"
			},
			{
				"type": "unocc",
				"energy": 0.06502,
				"method": "rhf"
			},
			{
				"type": "unocc",
				"energy": 0.12073,
				"method": "rhf"
			}
		],
		"cosmo_sigma_profile": { 
			"-0.025": 0.0,
			"-0.024": 0.0,
			"-0.023": 0.0,
			"-0.022": 0.0,
			"-0.021": 0.0,
			"-0.02": 0.0,
			"-0.019": 0.0,
			"-0.018": 0.0,
			"-0.017": 0.0,
			"-0.016": 0.0,
			"-0.015": 0.0,
			"-0.014": 0.0,
			"-0.013": 0.0153413443872,
			"-0.012": 1.80842929082,
			"-0.011": 3.07961043963,
			"-0.01": 2.53202320101,
			"-0.009": 4.23920665915,
			"-0.008": 3.16455730185,
			"-0.007": 5.55205586229,
			"-0.006": 8.97797967642,
			"-0.005": 8.23354045261,
			"-0.004": 7.59394611608,
			"-0.003": 6.06548447489,
			"-0.002": 8.44813670557,
			"-0.001": 8.30136117397,
			"0.0": 8.78766302557,
			"0.001": 10.4767458344,
			"0.002": 15.2877719348,
			"0.003": 19.4587249366,
			"0.004": 19.2890570539,
			"0.005": 13.3266624554,
			"0.006": 2.58028805743,
			"0.007": 1.60549079132,
			"0.008": 1.90693535518,
			"0.009": 1.36374264917,
			"0.01": 1.90680286475,
			"0.011": 1.86894086085,
			"0.012": 1.09564301794,
			"0.013": 0.0,
			"0.014": 0.0,
			"0.015": 0.0,
			"0.016": 0.0,
			"0.017": 0.0,
			"0.018": 0.0,
			"0.019": 0.0,
			"0.02": 0.0,
			"0.021": 0.0,
			"0.022": 0.0,
			"0.023": 0.0,
			"0.024": 0.0,
			"0.025": 0.0
		}
	}
}
