{
	 "smiles": "[O-][N+](=O)C1=CC=CC=C1N1N=C(SC1=NC(=O)C1=CC=CC=C1)C(=O)C1=CC=CS1", 
	 "Tm": 512.15, 
	 "num_atms": 42, 
	 "gaussian": { 
		 "optdone": 1, 
		 "sigma_profile": "yes", 
		 "theory": "DFT", 
		 "functional": "B3LYP", 
		 "basiset": "6-31G**", 
		 "properties": { 
			 "R2extent": 15703.1575, 
			 "electric_dipole_moment_norm": 8.29087010633, 
			 "electric_quadrupole_moment_norm": 30.2751280554, 
			 "total_energy": -2085.49649072, 
			 "HOMO_LUMO_gap": 0.14002, 
			 "cosmo_polarized_energy": -20.89, 
			 "cosmo_cavitation_energy": 52.21, 
			 "cosmo_dispersion_energy": -36.47, 
			 "cosmo_repulsion_energy": 2.61, 
			 "cosmo_total_nonelectrostatic_energy": 18.36, 
			 "SMD_solvation_energy": 11.01 
		},
		"coords": [
			{
				"x": -0.3808582045,
				"y": -2.2625953605,
				"z": 0.7403442528,
				"element": "O" 
			},
			{
				"x": 0.670494994,
				"y": -2.0595065321,
				"z": 1.3391247022,
				"element": "N" 
			},
			{
				"x": 0.8977931758,
				"y": -2.3738611718,
				"z": 2.5054556118,
				"element": "O" 
			},
			{
				"x": 1.7771835059,
				"y": -1.4498865787,
				"z": 0.5832979404,
				"element": "C" 
			},
			{
				"x": 3.0623431909,
				"y": -1.8937424644,
				"z": 0.8882106473,
				"element": "C" 
			},
			{
				"x": 4.1464934454,
				"y": -1.452512893,
				"z": 0.134179625,
				"element": "C" 
			},
			{
				"x": 3.9406123338,
				"y": -0.5541521844,
				"z": -0.9137368103,
				"element": "C" 
			},
			{
				"x": 2.6594034667,
				"y": -0.0798832595,
				"z": -1.1888597746,
				"element": "C" 
			},
			{
				"x": 1.5619302096,
				"y": -0.52156711,
				"z": -0.4455526168,
				"element": "C" 
			},
			{
				"x": 0.2833978202,
				"y": 0.0290767274,
				"z": -0.7488458407,
				"element": "N" 
			},
			{
				"x": -0.1003843015,
				"y": 0.0536497207,
				"z": -2.0539169911,
				"element": "N" 
			},
			{
				"x": -1.2263195597,
				"y": 0.6811122988,
				"z": -2.1844683437,
				"element": "C" 
			},
			{
				"x": -1.9257063296,
				"y": 1.3484312058,
				"z": -0.7042183887,
				"element": "S" 
			},
			{
				"x": -0.536078369,
				"y": 0.6732867956,
				"z": 0.1665639053,
				"element": "C" 
			},
			{
				"x": -0.2380913984,
				"y": 0.7345317069,
				"z": 1.4225254587,
				"element": "N" 
			},
			{
				"x": -1.1222287825,
				"y": 1.4410919983,
				"z": 2.2390848842,
				"element": "C" 
			},
			{
				"x": -2.1345464562,
				"y": 1.996977693,
				"z": 1.8015588089,
				"element": "O" 
			},
			{
				"x": -0.7625006558,
				"y": 1.4935944767,
				"z": 3.682031969,
				"element": "C" 
			},
			{
				"x": 0.3211513515,
				"y": 0.7728085385,
				"z": 4.2049043032,
				"element": "C" 
			},
			{
				"x": 0.6151186599,
				"y": 0.8484716391,
				"z": 5.5655788407,
				"element": "C" 
			},
			{
				"x": -0.163538939,
				"y": 1.6443723662,
				"z": 6.4088969697,
				"element": "C" 
			},
			{
				"x": -1.245731539,
				"y": 2.3631468535,
				"z": 5.8915817394,
				"element": "C" 
			},
			{
				"x": -1.5464385571,
				"y": 2.2860035683,
				"z": 4.5349415226,
				"element": "C" 
			},
			{
				"x": -1.9513887597,
				"y": 0.9044307765,
				"z": -3.4711586984,
				"element": "C" 
			},
			{
				"x": -2.9495424083,
				"y": 1.6214833896,
				"z": -3.4340762642,
				"element": "O" 
			},
			{
				"x": -1.4882871929,
				"y": 0.2919497553,
				"z": -4.7164625603,
				"element": "C" 
			},
			{
				"x": -0.458400349,
				"y": -0.5896066364,
				"z": -4.9900870325,
				"element": "C" 
			},
			{
				"x": -0.3841116007,
				"y": -0.9405846247,
				"z": -6.3614770523,
				"element": "C" 
			},
			{
				"x": -1.3566258628,
				"y": -0.3255126685,
				"z": -7.1136187961,
				"element": "C" 
			},
			{
				"x": -2.3819008643,
				"y": 0.686918419,
				"z": -6.1701142231,
				"element": "S" 
			},
			{
				"x": 3.1844201352,
				"y": -2.5942403212,
				"z": 1.7052921541,
				"element": "H" 
			},
			{
				"x": 5.1441851797,
				"y": -1.8116702553,
				"z": 0.3638464001,
				"element": "H" 
			},
			{
				"x": 4.7790392388,
				"y": -0.2028654605,
				"z": -1.5066723573,
				"element": "H" 
			},
			{
				"x": 2.4908384082,
				"y": 0.6453892375,
				"z": -1.9767077627,
				"element": "H" 
			},
			{
				"x": 0.9123185865,
				"y": 0.1475301772,
				"z": 3.5468227063,
				"element": "H" 
			},
			{
				"x": 1.4501717916,
				"y": 0.283216169,
				"z": 5.9690851595,
				"element": "H" 
			},
			{
				"x": 0.0696255604,
				"y": 1.702350757,
				"z": 7.4685592791,
				"element": "H" 
			},
			{
				"x": -1.853067685,
				"y": 2.9800547044,
				"z": 6.5475366374,
				"element": "H" 
			},
			{
				"x": -2.3836907122,
				"y": 2.8300897647,
				"z": 4.1111468413,
				"element": "H" 
			},
			{
				"x": 0.207780394,
				"y": -0.9625357591,
				"z": -4.2242267136,
				"element": "H" 
			},
			{
				"x": 0.3531371354,
				"y": -1.6195004564,
				"z": -6.7738037609,
				"element": "H" 
			},
			{
				"x": -1.5242000563,
				"y": -0.4187450023,
				"z": -8.1784663715,
				"element": "H" 
			}
		],
		 "valence_orbital": [ 
			{
				"type": "occ",
				"energy": -0.2582,
				"method": "rhf"
			},
			{
				"type": "occ",
				"energy": -0.25495,
				"method": "rhf"
			},
			{
				"type": "occ",
				"energy": -0.25237,
				"method": "rhf"
			},
			{
				"type": "occ",
				"energy": -0.24851,
				"method": "rhf"
			},
			{
				"type": "occ",
				"energy": -0.23906,
				"method": "rhf"
			},
			{
				"type": "unocc",
				"energy": -0.09904,
				"method": "rhf"
			},
			{
				"type": "unocc",
				"energy": -0.09538,
				"method": "rhf"
			},
			{
				"type": "unocc",
				"energy": -0.06161,
				"method": "rhf"
			},
			{
				"type": "unocc",
				"energy": -0.04401,
				"method": "rhf"
			},
			{
				"type": "unocc",
				"energy": -0.03107,
				"method": "rhf"
			}
		],
		"cosmo_sigma_profile": { 
			"-0.025": 0.0,
			"-0.024": 0.0,
			"-0.023": 0.0,
			"-0.022": 0.0,
			"-0.021": 0.0,
			"-0.02": 0.0,
			"-0.019": 0.0,
			"-0.018": 0.0,
			"-0.017": 0.0,
			"-0.016": 0.0,
			"-0.015": 0.0,
			"-0.014": 0.0,
			"-0.013": 0.0,
			"-0.012": 0.0,
			"-0.011": 0.0,
			"-0.01": 1.0836000188,
			"-0.009": 3.10557589964,
			"-0.008": 11.5841014175,
			"-0.007": 17.716565914,
			"-0.006": 22.4765026036,
			"-0.005": 23.726583353,
			"-0.004": 26.8375311447,
			"-0.003": 22.6505480531,
			"-0.002": 26.3696964253,
			"-0.001": 30.4399005928,
			"0.0": 37.7212403967,
			"0.001": 48.6210472469,
			"0.002": 40.9664894721,
			"0.003": 31.2179173257,
			"0.004": 21.6566084823,
			"0.005": 11.5200874145,
			"0.006": 10.5066792816,
			"0.007": 10.8653055839,
			"0.008": 8.86444366083,
			"0.009": 6.82107080198,
			"0.01": 6.30518204712,
			"0.011": 4.41241049411,
			"0.012": 1.48925847224,
			"0.013": 0.0114027175307,
			"0.014": 0.0,
			"0.015": 0.0,
			"0.016": 0.0,
			"0.017": 0.0,
			"0.018": 0.0,
			"0.019": 0.0,
			"0.02": 0.0,
			"0.021": 0.0,
			"0.022": 0.0,
			"0.023": 0.0,
			"0.024": 0.0,
			"0.025": 0.0
		}
	}
}
