{
	 "smiles": "CC1CCCC(=O)N1", 
	 "Tm": 361.15, 
	 "num_atms": 19, 
	 "gaussian": { 
		 "optdone": 1, 
		 "sigma_profile": "yes", 
		 "theory": "DFT", 
		 "functional": "B3LYP", 
		 "basiset": "6-31G**", 
		 "properties": { 
			 "R2extent": 1143.3773, 
			 "electric_dipole_moment_norm": 4.07451910905, 
			 "electric_quadrupole_moment_norm": 10.1771118894, 
			 "total_energy": -365.269010724, 
			 "HOMO_LUMO_gap": 0.26917, 
			 "cosmo_polarized_energy": -10.55, 
			 "cosmo_cavitation_energy": 20.65, 
			 "cosmo_dispersion_energy": -15.61, 
			 "cosmo_repulsion_energy": 1.31, 
			 "cosmo_total_nonelectrostatic_energy": 6.35, 
			 "SMD_solvation_energy": 3.28 
		},
		"coords": [
			{
				"x": -1.6095020547,
				"y": 1.7005644229,
				"z": 0.9526445353,
				"element": "C" 
			},
			{
				"x": -0.6004905852,
				"y": 0.7167615796,
				"z": 0.3636494768,
				"element": "C" 
			},
			{
				"x": 0.2379196732,
				"y": 1.3484022363,
				"z": -0.7690981358,
				"element": "C" 
			},
			{
				"x": 1.5571244212,
				"y": 0.5791126656,
				"z": -1.0482474787,
				"element": "C" 
			},
			{
				"x": 1.6156761639,
				"y": -0.7821275083,
				"z": -0.3297442812,
				"element": "C" 
			},
			{
				"x": 1.3236048264,
				"y": -0.6393095271,
				"z": 1.158372946,
				"element": "C" 
			},
			{
				"x": 1.9458165888,
				"y": -1.2135028256,
				"z": 2.0414778075,
				"element": "O" 
			},
			{
				"x": 0.2908249357,
				"y": 0.2271928196,
				"z": 1.4166770075,
				"element": "N" 
			},
			{
				"x": -2.2776779055,
				"y": 2.0747360676,
				"z": 0.1714205282,
				"element": "H" 
			},
			{
				"x": -2.2279006339,
				"y": 1.2242607406,
				"z": 1.7214340008,
				"element": "H" 
			},
			{
				"x": -1.0956102553,
				"y": 2.5566213563,
				"z": 1.4029076691,
				"element": "H" 
			},
			{
				"x": -1.1629307213,
				"y": -0.1318666233,
				"z": -0.0593064705,
				"element": "H" 
			},
			{
				"x": -0.3871065977,
				"y": 1.3927212866,
				"z": -1.6680472962,
				"element": "H" 
			},
			{
				"x": 0.4695756678,
				"y": 2.3839988354,
				"z": -0.495707007,
				"element": "H" 
			},
			{
				"x": 1.697022168,
				"y": 0.4342230994,
				"z": -2.1242680946,
				"element": "H" 
			},
			{
				"x": 2.4065248618,
				"y": 1.1797196842,
				"z": -0.7067254918,
				"element": "H" 
			},
			{
				"x": 2.5940661213,
				"y": -1.2555511719,
				"z": -0.4330455859,
				"element": "H" 
			},
			{
				"x": 0.8739597518,
				"y": -1.4697556882,
				"z": -0.7603536733,
				"element": "H" 
			},
			{
				"x": -0.0120964262,
				"y": 0.2638985503,
				"z": 2.3817595439,
				"element": "H" 
			}
		],
		 "valence_orbital": [ 
			{
				"type": "occ",
				"energy": -0.34553,
				"method": "rhf"
			},
			{
				"type": "occ",
				"energy": -0.33361,
				"method": "rhf"
			},
			{
				"type": "occ",
				"energy": -0.33093,
				"method": "rhf"
			},
			{
				"type": "occ",
				"energy": -0.2441,
				"method": "rhf"
			},
			{
				"type": "occ",
				"energy": -0.23336,
				"method": "rhf"
			},
			{
				"type": "unocc",
				"energy": 0.03581,
				"method": "rhf"
			},
			{
				"type": "unocc",
				"energy": 0.07242,
				"method": "rhf"
			},
			{
				"type": "unocc",
				"energy": 0.1034,
				"method": "rhf"
			},
			{
				"type": "unocc",
				"energy": 0.10567,
				"method": "rhf"
			},
			{
				"type": "unocc",
				"energy": 0.11772,
				"method": "rhf"
			}
		],
		"cosmo_sigma_profile": { 
			"-0.025": 0.0,
			"-0.024": 0.0,
			"-0.023": 0.0,
			"-0.022": 0.0,
			"-0.021": 0.0,
			"-0.02": 0.0,
			"-0.019": 0.0,
			"-0.018": 0.0,
			"-0.017": 0.0,
			"-0.016": 0.0,
			"-0.015": 0.0,
			"-0.014": 0.0,
			"-0.013": 0.389032899062,
			"-0.012": 0.952332698032,
			"-0.011": 0.811368131239,
			"-0.01": 1.09279534537,
			"-0.009": 0.89229372606,
			"-0.008": 1.00739582576,
			"-0.007": 1.17441016865,
			"-0.006": 1.29062417569,
			"-0.005": 5.92431341552,
			"-0.004": 13.4084298607,
			"-0.003": 27.1077982004,
			"-0.002": 28.3737105696,
			"-0.001": 20.3182001378,
			"0.0": 17.5749433348,
			"0.001": 7.75875808063,
			"0.002": 2.58813107755,
			"0.003": 2.1383330948,
			"0.004": 2.7354429519,
			"0.005": 1.61801459543,
			"0.006": 1.76697426256,
			"0.007": 1.26573079288,
			"0.008": 1.1244366681,
			"0.009": 1.96478081719,
			"0.01": 1.09679847557,
			"0.011": 1.11272429741,
			"0.012": 1.27642561233,
			"0.013": 2.63741532947,
			"0.014": 5.40721233146,
			"0.015": 4.30193325214,
			"0.016": 0.703719559828,
			"0.017": 0.0,
			"0.018": 0.0,
			"0.019": 0.0,
			"0.02": 0.0,
			"0.021": 0.0,
			"0.022": 0.0,
			"0.023": 0.0,
			"0.024": 0.0,
			"0.025": 0.0
		}
	}
}
