{
	 "smiles": "FC1=CC(C#N)=C(C=C1)S(Cl)(=O)=O", 
	 "Tm": 338.15, 
	 "num_atms": 16, 
	 "gaussian": { 
		 "optdone": 1, 
		 "sigma_profile": "yes", 
		 "theory": "DFT", 
		 "functional": "B3LYP", 
		 "basiset": "6-31G**", 
		 "properties": { 
			 "R2extent": 3405.5928, 
			 "electric_dipole_moment_norm": 6.01342018738, 
			 "electric_quadrupole_moment_norm": 7.3181448544, 
			 "total_energy": -1431.86341824, 
			 "HOMO_LUMO_gap": 0.19321, 
			 "cosmo_polarized_energy": -13.79, 
			 "cosmo_cavitation_energy": 26.02, 
			 "cosmo_dispersion_energy": -18.7, 
			 "cosmo_repulsion_energy": 1.41, 
			 "cosmo_total_nonelectrostatic_energy": 8.72, 
			 "SMD_solvation_energy": 4.92 
		},
		"coords": [
			{
				"x": 3.6423005484,
				"y": -1.01406354,
				"z": 1.1470166261,
				"element": "F" 
			},
			{
				"x": 2.4180922315,
				"y": -0.4795360054,
				"z": 1.2203226241,
				"element": "C" 
			},
			{
				"x": 1.6841762978,
				"y": -0.3382379184,
				"z": 0.0473356966,
				"element": "C" 
			},
			{
				"x": 0.400458073,
				"y": 0.221452913,
				"z": 0.1049293614,
				"element": "C" 
			},
			{
				"x": -0.3303134997,
				"y": 0.3327795227,
				"z": -1.1244423717,
				"element": "C" 
			},
			{
				"x": -0.8580536327,
				"y": 0.37064808,
				"z": -2.1589761013,
				"element": "N" 
			},
			{
				"x": -0.1053715629,
				"y": 0.6237822524,
				"z": 1.3590666978,
				"element": "C" 
			},
			{
				"x": 0.6467627286,
				"y": 0.4669584734,
				"z": 2.5227270505,
				"element": "C" 
			},
			{
				"x": 1.9231961851,
				"y": -0.0874741277,
				"z": 2.4591966901,
				"element": "C" 
			},
			{
				"x": -1.7169526616,
				"y": 1.3971150742,
				"z": 1.5375884128,
				"element": "S" 
			},
			{
				"x": -3.002764094,
				"y": -0.2658391906,
				"z": 1.2795495495,
				"element": "Cl" 
			},
			{
				"x": -1.9535950788,
				"y": 2.2981458799,
				"z": 0.4210177601,
				"element": "O" 
			},
			{
				"x": -1.8617302703,
				"y": 1.8206735908,
				"z": 2.9243085523,
				"element": "O" 
			},
			{
				"x": 2.1047545343,
				"y": -0.6587560646,
				"z": -0.8982336326,
				"element": "H" 
			},
			{
				"x": 0.2289725869,
				"y": 0.7863277257,
				"z": 3.4700729655,
				"element": "H" 
			},
			{
				"x": 2.5299676145,
				"y": -0.2157766653,
				"z": 3.3482201188,
				"element": "H" 
			}
		],
		 "valence_orbital": [ 
			{
				"type": "occ",
				"energy": -0.34813,
				"method": "rhf"
			},
			{
				"type": "occ",
				"energy": -0.34452,
				"method": "rhf"
			},
			{
				"type": "occ",
				"energy": -0.32595,
				"method": "rhf"
			},
			{
				"type": "occ",
				"energy": -0.31053,
				"method": "rhf"
			},
			{
				"type": "occ",
				"energy": -0.30194,
				"method": "rhf"
			},
			{
				"type": "unocc",
				"energy": -0.10873,
				"method": "rhf"
			},
			{
				"type": "unocc",
				"energy": -0.08542,
				"method": "rhf"
			},
			{
				"type": "unocc",
				"energy": -0.06345,
				"method": "rhf"
			},
			{
				"type": "unocc",
				"energy": 0.00633,
				"method": "rhf"
			},
			{
				"type": "unocc",
				"energy": 0.03366,
				"method": "rhf"
			}
		],
		"cosmo_sigma_profile": { 
			"-0.025": 0.0,
			"-0.024": 0.0,
			"-0.023": 0.0,
			"-0.022": 0.0,
			"-0.021": 0.0,
			"-0.02": 0.0,
			"-0.019": 0.0,
			"-0.018": 0.0,
			"-0.017": 0.0,
			"-0.016": 0.0,
			"-0.015": 0.0,
			"-0.014": 0.0,
			"-0.013": 0.0,
			"-0.012": 0.00109475524492,
			"-0.011": 1.50835514429,
			"-0.01": 4.44976566699,
			"-0.009": 6.20879130434,
			"-0.008": 5.56356233338,
			"-0.007": 5.49527130105,
			"-0.006": 6.97832529509,
			"-0.005": 8.62798754861,
			"-0.004": 17.6281642048,
			"-0.003": 22.0032341809,
			"-0.002": 15.9122514048,
			"-0.001": 10.704761463,
			"0.0": 8.7497783124,
			"0.001": 12.1939525893,
			"0.002": 21.215532827,
			"0.003": 16.6097829747,
			"0.004": 5.56359357586,
			"0.005": 4.39736684606,
			"0.006": 7.97321756022,
			"0.007": 13.0583425493,
			"0.008": 10.5612558651,
			"0.009": 3.2675785628,
			"0.01": 2.78921200054,
			"0.011": 2.09765507933,
			"0.012": 0.695348284816,
			"0.013": 0.0,
			"0.014": 0.0,
			"0.015": 0.0,
			"0.016": 0.0,
			"0.017": 0.0,
			"0.018": 0.0,
			"0.019": 0.0,
			"0.02": 0.0,
			"0.021": 0.0,
			"0.022": 0.0,
			"0.023": 0.0,
			"0.024": 0.0,
			"0.025": 0.0
		}
	}
}
