{
	 "smiles": "O=C1NC(=CC2=CC=NC=C12)C1=CC=CC=C1", 
	 "Tm": 512.15, 
	 "num_atms": 27, 
	 "gaussian": { 
		 "optdone": 1, 
		 "sigma_profile": "yes", 
		 "theory": "DFT", 
		 "functional": "B3LYP", 
		 "basiset": "6-31G**", 
		 "properties": { 
			 "R2extent": 5061.4061, 
			 "electric_dipole_moment_norm": 6.37110023936, 
			 "electric_quadrupole_moment_norm": 17.1002237091, 
			 "total_energy": -724.270322873, 
			 "HOMO_LUMO_gap": 0.15686, 
			 "cosmo_polarized_energy": -15.27, 
			 "cosmo_cavitation_energy": 31.53, 
			 "cosmo_dispersion_energy": -23.29, 
			 "cosmo_repulsion_energy": 1.75, 
			 "cosmo_total_nonelectrostatic_energy": 9.99, 
			 "SMD_solvation_energy": 4.17 
		},
		"coords": [
			{
				"x": 3.5089458682,
				"y": -2.2153872062,
				"z": 0.0731956292,
				"element": "O" 
			},
			{
				"x": 2.4062888252,
				"y": -1.7533055819,
				"z": -0.1953752396,
				"element": "C" 
			},
			{
				"x": 1.9130673142,
				"y": -0.6493584325,
				"z": 0.5113468215,
				"element": "N" 
			},
			{
				"x": 0.7009840814,
				"y": -0.0177009279,
				"z": 0.3036793837,
				"element": "C" 
			},
			{
				"x": -0.1346742679,
				"y": -0.4806024614,
				"z": -0.672983685,
				"element": "C" 
			},
			{
				"x": 0.2511929473,
				"y": -1.6075710046,
				"z": -1.4735418433,
				"element": "C" 
			},
			{
				"x": -0.551543934,
				"y": -2.1491252319,
				"z": -2.4997113588,
				"element": "C" 
			},
			{
				"x": -0.0896814943,
				"y": -3.2439858503,
				"z": -3.210978656,
				"element": "C" 
			},
			{
				"x": 1.0982154601,
				"y": -3.8497933047,
				"z": -2.9947793231,
				"element": "N" 
			},
			{
				"x": 1.8596599155,
				"y": -3.3455125819,
				"z": -2.0278069801,
				"element": "C" 
			},
			{
				"x": 1.4958024593,
				"y": -2.2415930433,
				"z": -1.2397498634,
				"element": "C" 
			},
			{
				"x": 0.380199949,
				"y": 1.1232589043,
				"z": 1.1895546763,
				"element": "C" 
			},
			{
				"x": -0.3205990083,
				"y": 2.2339462339,
				"z": 0.6906588339,
				"element": "C" 
			},
			{
				"x": -0.6333311111,
				"y": 3.3064351066,
				"z": 1.5229022129,
				"element": "C" 
			},
			{
				"x": -0.2475036273,
				"y": 3.2915846847,
				"z": 2.8652972905,
				"element": "C" 
			},
			{
				"x": 0.4515150415,
				"y": 2.1944456012,
				"z": 3.3712791818,
				"element": "C" 
			},
			{
				"x": 0.7641296643,
				"y": 1.1185321373,
				"z": 2.5416356212,
				"element": "C" 
			},
			{
				"x": 2.5636129385,
				"y": -0.2669997886,
				"z": 1.1860568058,
				"element": "H" 
			},
			{
				"x": -1.105718376,
				"y": -0.0225749892,
				"z": -0.8139684227,
				"element": "H" 
			},
			{
				"x": -1.5192022485,
				"y": -1.7123748606,
				"z": -2.7285214369,
				"element": "H" 
			},
			{
				"x": -0.6986529439,
				"y": -3.6717929098,
				"z": -4.005398034,
				"element": "H" 
			},
			{
				"x": 2.8191583041,
				"y": -3.8226962333,
				"z": -1.8427830979,
				"element": "H" 
			},
			{
				"x": -0.5952597089,
				"y": 2.2634014393,
				"z": -0.3589644361,
				"element": "H" 
			},
			{
				"x": -1.1686170472,
				"y": 4.1608730839,
				"z": 1.1194823487,
				"element": "H" 
			},
			{
				"x": -0.4885594647,
				"y": 4.1300946184,
				"z": 3.5117416642,
				"element": "H" 
			},
			{
				"x": 0.7471121804,
				"y": 2.1704053902,
				"z": 4.4159130528,
				"element": "H" 
			},
			{
				"x": 1.2768582833,
				"y": 0.2556972084,
				"z": 2.9577188544,
				"element": "H" 
			}
		],
		 "valence_orbital": [ 
			{
				"type": "occ",
				"energy": -0.27261,
				"method": "rhf"
			},
			{
				"type": "occ",
				"energy": -0.26591,
				"method": "rhf"
			},
			{
				"type": "occ",
				"energy": -0.26439,
				"method": "rhf"
			},
			{
				"type": "occ",
				"energy": -0.24908,
				"method": "rhf"
			},
			{
				"type": "occ",
				"energy": -0.22013,
				"method": "rhf"
			},
			{
				"type": "unocc",
				"energy": -0.06327,
				"method": "rhf"
			},
			{
				"type": "unocc",
				"energy": -0.04136,
				"method": "rhf"
			},
			{
				"type": "unocc",
				"energy": -0.02429,
				"method": "rhf"
			},
			{
				"type": "unocc",
				"energy": -0.00982,
				"method": "rhf"
			},
			{
				"type": "unocc",
				"energy": 0.03667,
				"method": "rhf"
			}
		],
		"cosmo_sigma_profile": { 
			"-0.025": 0.0,
			"-0.024": 0.0,
			"-0.023": 0.0,
			"-0.022": 0.0,
			"-0.021": 0.0,
			"-0.02": 0.0,
			"-0.019": 0.0,
			"-0.018": 0.0,
			"-0.017": 0.0,
			"-0.016": 0.0,
			"-0.015": 0.293657732487,
			"-0.014": 1.05707740703,
			"-0.013": 0.655692907287,
			"-0.012": 1.14908191855,
			"-0.011": 1.6577063668,
			"-0.01": 1.07032488833,
			"-0.009": 1.16233277919,
			"-0.008": 2.00984028093,
			"-0.007": 9.50417681078,
			"-0.006": 18.0621579031,
			"-0.005": 18.5662929078,
			"-0.004": 17.2248370156,
			"-0.003": 14.5417077595,
			"-0.002": 16.0439897555,
			"-0.001": 17.658509686,
			"0.0": 22.3085253104,
			"0.001": 24.1033652945,
			"0.002": 21.7950915133,
			"0.003": 14.3856061291,
			"0.004": 14.752565946,
			"0.005": 6.70917066689,
			"0.006": 2.08576294746,
			"0.007": 2.88874814257,
			"0.008": 2.52317622652,
			"0.009": 2.73956067773,
			"0.01": 2.21381950805,
			"0.011": 1.93284436472,
			"0.012": 3.94518631173,
			"0.013": 6.46283466114,
			"0.014": 2.75927050317,
			"0.015": 0.768443268679,
			"0.016": 0.892096711144,
			"0.017": 0.23813552691,
			"0.018": 0.0,
			"0.019": 0.0,
			"0.02": 0.0,
			"0.021": 0.0,
			"0.022": 0.0,
			"0.023": 0.0,
			"0.024": 0.0,
			"0.025": 0.0
		}
	}
}
