{
	 "smiles": "OC1=CC=C(NC(=O)C2=CC=CS2)C=C1", 
	 "Tm": 440.15, 
	 "num_atms": 24, 
	 "gaussian": { 
		 "optdone": 1, 
		 "sigma_profile": "yes", 
		 "theory": "DFT", 
		 "functional": "B3LYP", 
		 "basiset": "6-31G**", 
		 "properties": { 
			 "R2extent": 3976.5596, 
			 "electric_dipole_moment_norm": 4.03300415199, 
			 "electric_quadrupole_moment_norm": 18.1769390762, 
			 "total_energy": -1027.97030541, 
			 "HOMO_LUMO_gap": 0.18574, 
			 "cosmo_polarized_energy": -16.38, 
			 "cosmo_cavitation_energy": 30.31, 
			 "cosmo_dispersion_energy": -22.16, 
			 "cosmo_repulsion_energy": 1.71, 
			 "cosmo_total_nonelectrostatic_energy": 9.85, 
			 "SMD_solvation_energy": 6.31 
		},
		"coords": [
			{
				"x": 3.8244878073,
				"y": 1.6259692915,
				"z": -2.7209030751,
				"element": "O" 
			},
			{
				"x": 2.6876852726,
				"y": 0.9327020967,
				"z": -2.4262377022,
				"element": "C" 
			},
			{
				"x": 2.517487679,
				"y": -0.4174678745,
				"z": -2.7528795723,
				"element": "C" 
			},
			{
				"x": 1.3327550469,
				"y": -1.0698343397,
				"z": -2.4157076172,
				"element": "C" 
			},
			{
				"x": 0.3043152557,
				"y": -0.3845520691,
				"z": -1.7614196189,
				"element": "C" 
			},
			{
				"x": -0.922518015,
				"y": -1.0552106761,
				"z": -1.4703826979,
				"element": "N" 
			},
			{
				"x": -1.5274835886,
				"y": -1.3001301994,
				"z": -0.2537182344,
				"element": "C" 
			},
			{
				"x": -2.7147852304,
				"y": -1.6131838429,
				"z": -0.216207724,
				"element": "O" 
			},
			{
				"x": -0.7402167525,
				"y": -1.2369846283,
				"z": 1.0068096676,
				"element": "C" 
			},
			{
				"x": -1.3431080161,
				"y": -1.3687457143,
				"z": 2.2382175942,
				"element": "C" 
			},
			{
				"x": -0.4284350458,
				"y": -1.3676054692,
				"z": 3.3237910595,
				"element": "C" 
			},
			{
				"x": 0.8729285249,
				"y": -1.2482696805,
				"z": 2.9097563739,
				"element": "C" 
			},
			{
				"x": 0.9985830669,
				"y": -1.1186031257,
				"z": 1.1907014084,
				"element": "S" 
			},
			{
				"x": 0.4774150694,
				"y": 0.9737582088,
				"z": -1.4553370543,
				"element": "C" 
			},
			{
				"x": 1.6618086095,
				"y": 1.6276761543,
				"z": -1.7728967385,
				"element": "C" 
			},
			{
				"x": 4.4501499372,
				"y": 1.0401163155,
				"z": -3.1664912227,
				"element": "H" 
			},
			{
				"x": 3.3111569555,
				"y": -0.9596647966,
				"z": -3.2623274034,
				"element": "H" 
			},
			{
				"x": 1.2004272359,
				"y": -2.1204406334,
				"z": -2.6549103663,
				"element": "H" 
			},
			{
				"x": -1.5790032816,
				"y": -1.1826339071,
				"z": -2.2319924112,
				"element": "H" 
			},
			{
				"x": -2.417148896,
				"y": -1.4749061361,
				"z": 2.3247233412,
				"element": "H" 
			},
			{
				"x": -0.7207171606,
				"y": -1.4545143508,
				"z": 4.3638872902,
				"element": "H" 
			},
			{
				"x": 1.7680141528,
				"y": -1.2184311615,
				"z": 3.5168130133,
				"element": "H" 
			},
			{
				"x": -0.3256970221,
				"y": 1.5122603353,
				"z": -0.9619401007,
				"element": "H" 
			},
			{
				"x": 1.8080983953,
				"y": 2.675596203,
				"z": -1.5339482093,
				"element": "H" 
			}
		],
		 "valence_orbital": [ 
			{
				"type": "occ",
				"energy": -0.26498,
				"method": "rhf"
			},
			{
				"type": "occ",
				"energy": -0.25243,
				"method": "rhf"
			},
			{
				"type": "occ",
				"energy": -0.2476,
				"method": "rhf"
			},
			{
				"type": "occ",
				"energy": -0.23538,
				"method": "rhf"
			},
			{
				"type": "occ",
				"energy": -0.22626,
				"method": "rhf"
			},
			{
				"type": "unocc",
				"energy": -0.04052,
				"method": "rhf"
			},
			{
				"type": "unocc",
				"energy": -0.01567,
				"method": "rhf"
			},
			{
				"type": "unocc",
				"energy": -0.00577,
				"method": "rhf"
			},
			{
				"type": "unocc",
				"energy": 0.04025,
				"method": "rhf"
			},
			{
				"type": "unocc",
				"energy": 0.04469,
				"method": "rhf"
			}
		],
		"cosmo_sigma_profile": { 
			"-0.025": 0.0,
			"-0.024": 0.0,
			"-0.023": 0.0,
			"-0.022": 0.0,
			"-0.021": 0.0,
			"-0.02": 0.0,
			"-0.019": 0.0,
			"-0.018": 0.790354274571,
			"-0.017": 1.11373115058,
			"-0.016": 1.40417095213,
			"-0.015": 0.798323847836,
			"-0.014": 1.53678008789,
			"-0.013": 1.5449703746,
			"-0.012": 1.97994530772,
			"-0.011": 2.04390203568,
			"-0.01": 2.13905795301,
			"-0.009": 3.37909845481,
			"-0.008": 3.92182824034,
			"-0.007": 8.21527050453,
			"-0.006": 13.3086931813,
			"-0.005": 13.8200740331,
			"-0.004": 13.6773469919,
			"-0.003": 13.4110136123,
			"-0.002": 11.7772485174,
			"-0.001": 12.6188387562,
			"0.0": 13.8431835368,
			"0.001": 13.8834118215,
			"0.002": 17.9634729231,
			"0.003": 28.0103436816,
			"0.004": 25.2566288904,
			"0.005": 8.95330371576,
			"0.006": 3.37432901193,
			"0.007": 2.84381990281,
			"0.008": 3.01502341474,
			"0.009": 2.57240108343,
			"0.01": 2.91299223578,
			"0.011": 3.30534488655,
			"0.012": 2.53263531252,
			"0.013": 4.48262283864,
			"0.014": 3.82322022095,
			"0.015": 0.067756470591,
			"0.016": 0.0,
			"0.017": 0.0,
			"0.018": 0.0,
			"0.019": 0.0,
			"0.02": 0.0,
			"0.021": 0.0,
			"0.022": 0.0,
			"0.023": 0.0,
			"0.024": 0.0,
			"0.025": 0.0
		}
	}
}
