{
	 "smiles": "COC1=CC=C(C=C1)C(CN)C1=CC=C(OC)C=C1", 
	 "Tm": 320.65, 
	 "num_atms": 38, 
	 "gaussian": { 
		 "optdone": 1, 
		 "sigma_profile": "yes", 
		 "theory": "DFT", 
		 "functional": "B3LYP", 
		 "basiset": "6-31G**", 
		 "properties": { 
			 "R2extent": 7293.5278, 
			 "electric_dipole_moment_norm": 1.86759030304, 
			 "electric_quadrupole_moment_norm": 15.872792959, 
			 "total_energy": -826.32718025, 
			 "HOMO_LUMO_gap": 0.20486, 
			 "cosmo_polarized_energy": -12.67, 
			 "cosmo_cavitation_energy": 40.45, 
			 "cosmo_dispersion_energy": -28.56, 
			 "cosmo_repulsion_energy": 2.23, 
			 "cosmo_total_nonelectrostatic_energy": 14.12, 
			 "SMD_solvation_energy": 6.95 
		},
		"coords": [
			{
				"x": -2.8700347433,
				"y": -4.7905000187,
				"z": 2.1918166196,
				"element": "C" 
			},
			{
				"x": -3.2453188391,
				"y": -3.4792603019,
				"z": 1.8057749128,
				"element": "O" 
			},
			{
				"x": -2.2694652884,
				"y": -2.5244621514,
				"z": 1.7341900112,
				"element": "C" 
			},
			{
				"x": -2.6905467576,
				"y": -1.2453139216,
				"z": 1.3510038144,
				"element": "C" 
			},
			{
				"x": -1.7720556097,
				"y": -0.2043777104,
				"z": 1.2504597962,
				"element": "C" 
			},
			{
				"x": -0.4091584404,
				"y": -0.3994471309,
				"z": 1.5271558955,
				"element": "C" 
			},
			{
				"x": -0.0109325068,
				"y": -1.6854305246,
				"z": 1.909537223,
				"element": "C" 
			},
			{
				"x": -0.9155384428,
				"y": -2.7431573711,
				"z": 2.0162982305,
				"element": "C" 
			},
			{
				"x": 0.6381399875,
				"y": 0.7044102849,
				"z": 1.4184763518,
				"element": "C" 
			},
			{
				"x": 0.0580700213,
				"y": 2.1225980224,
				"z": 1.6212397426,
				"element": "C" 
			},
			{
				"x": 1.1399467546,
				"y": 3.0943322242,
				"z": 1.7987785649,
				"element": "N" 
			},
			{
				"x": 1.4450300622,
				"y": 0.6258193222,
				"z": 0.1211776698,
				"element": "C" 
			},
			{
				"x": 0.8324205463,
				"y": 0.4197890993,
				"z": -1.1193496313,
				"element": "C" 
			},
			{
				"x": 1.5670315057,
				"y": 0.39152955,
				"z": -2.3075665805,
				"element": "C" 
			},
			{
				"x": 2.955036311,
				"y": 0.5707356601,
				"z": -2.2693068544,
				"element": "C" 
			},
			{
				"x": 3.7731455293,
				"y": 0.5575626986,
				"z": -3.3645167784,
				"element": "O" 
			},
			{
				"x": 3.1846995889,
				"y": 0.3444725575,
				"z": -4.6363121006,
				"element": "C" 
			},
			{
				"x": 3.5874856328,
				"y": 0.7765657736,
				"z": -1.0359374556,
				"element": "C" 
			},
			{
				"x": 2.8388433911,
				"y": 0.802306734,
				"z": 0.1359162592,
				"element": "C" 
			},
			{
				"x": -3.7867090889,
				"y": -5.3826034436,
				"z": 2.1828242316,
				"element": "H" 
			},
			{
				"x": -2.1502733435,
				"y": -5.2313020812,
				"z": 1.4894958504,
				"element": "H" 
			},
			{
				"x": -2.4394617789,
				"y": -4.8098935961,
				"z": 3.2016838909,
				"element": "H" 
			},
			{
				"x": -3.7433226179,
				"y": -1.0879217134,
				"z": 1.1391744463,
				"element": "H" 
			},
			{
				"x": -2.1341036736,
				"y": 0.7757031093,
				"z": 0.9559640656,
				"element": "H" 
			},
			{
				"x": 1.0378198293,
				"y": -1.8709542838,
				"z": 2.129179003,
				"element": "H" 
			},
			{
				"x": -0.5577410603,
				"y": -3.7199080874,
				"z": 2.3203692098,
				"element": "H" 
			},
			{
				"x": 1.3474151523,
				"y": 0.563172982,
				"z": 2.2430384978,
				"element": "H" 
			},
			{
				"x": -0.6166963969,
				"y": 2.3616739989,
				"z": 0.7805451112,
				"element": "H" 
			},
			{
				"x": -0.5517233339,
				"y": 2.1238109878,
				"z": 2.5324165876,
				"element": "H" 
			},
			{
				"x": 0.7480952014,
				"y": 4.0151278339,
				"z": 1.9789767703,
				"element": "H" 
			},
			{
				"x": 1.6713979671,
				"y": 3.1713827352,
				"z": 0.9342589573,
				"element": "H" 
			},
			{
				"x": -0.2411974363,
				"y": 0.2598271011,
				"z": -1.1657663325,
				"element": "H" 
			},
			{
				"x": 1.0514064929,
				"y": 0.2230194826,
				"z": -3.2458588047,
				"element": "H" 
			},
			{
				"x": 4.0038706595,
				"y": 0.3703656984,
				"z": -5.3568980637,
				"element": "H" 
			},
			{
				"x": 2.6846463475,
				"y": -0.6312459322,
				"z": -4.6949856798,
				"element": "H" 
			},
			{
				"x": 2.4605761321,
				"y": 1.1309770057,
				"z": -4.886855968,
				"element": "H" 
			},
			{
				"x": 4.6646526048,
				"y": 0.9087065002,
				"z": -1.0204342135,
				"element": "H" 
			},
			{
				"x": 3.343449641,
				"y": 0.9646889067,
				"z": 1.0848367495,
				"element": "H" 
			}
		],
		 "valence_orbital": [ 
			{
				"type": "occ",
				"energy": -0.24534,
				"method": "rhf"
			},
			{
				"type": "occ",
				"energy": -0.24531,
				"method": "rhf"
			},
			{
				"type": "occ",
				"energy": -0.22999,
				"method": "rhf"
			},
			{
				"type": "occ",
				"energy": -0.21429,
				"method": "rhf"
			},
			{
				"type": "occ",
				"energy": -0.20374,
				"method": "rhf"
			},
			{
				"type": "unocc",
				"energy": 0.00112,
				"method": "rhf"
			},
			{
				"type": "unocc",
				"energy": 0.00194,
				"method": "rhf"
			},
			{
				"type": "unocc",
				"energy": 0.01241,
				"method": "rhf"
			},
			{
				"type": "unocc",
				"energy": 0.02495,
				"method": "rhf"
			},
			{
				"type": "unocc",
				"energy": 0.09551,
				"method": "rhf"
			}
		],
		"cosmo_sigma_profile": { 
			"-0.025": 0.0,
			"-0.024": 0.0,
			"-0.023": 0.0,
			"-0.022": 0.0,
			"-0.021": 0.0,
			"-0.02": 0.0,
			"-0.019": 0.0,
			"-0.018": 0.0,
			"-0.017": 0.0,
			"-0.016": 0.0,
			"-0.015": 0.0,
			"-0.014": 0.0,
			"-0.013": 0.0,
			"-0.012": 0.0,
			"-0.011": 0.0,
			"-0.01": 0.542321666501,
			"-0.009": 1.41416998656,
			"-0.008": 1.97109837147,
			"-0.007": 2.6096185854,
			"-0.006": 11.3197457012,
			"-0.005": 31.3038928576,
			"-0.004": 34.1208217763,
			"-0.003": 41.2883598074,
			"-0.002": 28.0904775424,
			"-0.001": 20.8030477267,
			"0.0": 18.1688381214,
			"0.001": 15.2804111856,
			"0.002": 13.7469271061,
			"0.003": 16.6316055227,
			"0.004": 20.9144438181,
			"0.005": 21.587178552,
			"0.006": 17.0474326406,
			"0.007": 4.73584934975,
			"0.008": 3.19681318117,
			"0.009": 4.07737082269,
			"0.01": 3.36063792977,
			"0.011": 2.38414045929,
			"0.012": 0.671991508046,
			"0.013": 0.394655252764,
			"0.014": 0.645700403084,
			"0.015": 0.390211465205,
			"0.016": 0.696068877531,
			"0.017": 0.521945592489,
			"0.018": 0.460111346892,
			"0.019": 0.344650637675,
			"0.02": 0.298688772832,
			"0.021": 0.0,
			"0.022": 0.0,
			"0.023": 0.0,
			"0.024": 0.0,
			"0.025": 0.0
		}
	}
}
