{
	 "smiles": "OC(=O)C1CCN(CC1)C(=O)C1=CC=CO1", 
	 "Tm": 401.15, 
	 "num_atms": 29, 
	 "gaussian": { 
		 "optdone": 1, 
		 "sigma_profile": "yes", 
		 "theory": "DFT", 
		 "functional": "B3LYP", 
		 "basiset": "6-31G**", 
		 "properties": { 
			 "R2extent": 5126.5781, 
			 "electric_dipole_moment_norm": 4.69685769425, 
			 "electric_quadrupole_moment_norm": 29.9396920405, 
			 "total_energy": -782.644044869, 
			 "HOMO_LUMO_gap": 0.20529, 
			 "cosmo_polarized_energy": -24.2, 
			 "cosmo_cavitation_energy": 32.19, 
			 "cosmo_dispersion_energy": -23.09, 
			 "cosmo_repulsion_energy": 1.79, 
			 "cosmo_total_nonelectrostatic_energy": 10.88, 
			 "SMD_solvation_energy": 7.09 
		},
		"coords": [
			{
				"x": -0.7219780442,
				"y": -3.9293620405,
				"z": -3.3736323139,
				"element": "O" 
			},
			{
				"x": -0.3178011659,
				"y": -2.7036524777,
				"z": -2.9403858913,
				"element": "C" 
			},
			{
				"x": 0.4992672494,
				"y": -2.0833067392,
				"z": -3.573440142,
				"element": "O" 
			},
			{
				"x": -0.9611011253,
				"y": -2.217189993,
				"z": -1.6415369158,
				"element": "C" 
			},
			{
				"x": -0.5322988361,
				"y": -0.7797982236,
				"z": -1.3199702263,
				"element": "C" 
			},
			{
				"x": -1.1254473594,
				"y": -0.2900174956,
				"z": 0.0106439961,
				"element": "C" 
			},
			{
				"x": -0.8334489068,
				"y": -1.2211715364,
				"z": 1.1025276871,
				"element": "N" 
			},
			{
				"x": -1.2512104061,
				"y": -2.5983830471,
				"z": 0.8450729446,
				"element": "C" 
			},
			{
				"x": -0.6358981913,
				"y": -3.1478204267,
				"z": -0.4488956966,
				"element": "C" 
			},
			{
				"x": 0.0706157433,
				"y": -1.00734766,
				"z": 2.1265364184,
				"element": "C" 
			},
			{
				"x": 0.5818537684,
				"y": -1.928693457,
				"z": 2.756461529,
				"element": "O" 
			},
			{
				"x": 0.3545436835,
				"y": 0.4000854057,
				"z": 2.5130275652,
				"element": "C" 
			},
			{
				"x": -0.3847327447,
				"y": 1.5527091507,
				"z": 2.6023465376,
				"element": "C" 
			},
			{
				"x": 0.4437099577,
				"y": 2.5222257418,
				"z": 3.2454375106,
				"element": "C" 
			},
			{
				"x": 1.6250659668,
				"y": 1.8896951784,
				"z": 3.5005355643,
				"element": "C" 
			},
			{
				"x": 1.5846008615,
				"y": 0.6049392187,
				"z": 3.0732785758,
				"element": "O" 
			},
			{
				"x": -1.3821264925,
				"y": -4.2990599356,
				"z": -2.7704300921,
				"element": "H" 
			},
			{
				"x": -2.0530072841,
				"y": -2.2375283117,
				"z": -1.7955511984,
				"element": "H" 
			},
			{
				"x": 0.560913013,
				"y": -0.7391377292,
				"z": -1.2719099813,
				"element": "H" 
			},
			{
				"x": -0.8358173265,
				"y": -0.1061985765,
				"z": -2.1276650011,
				"element": "H" 
			},
			{
				"x": -0.7181220858,
				"y": 0.6897538537,
				"z": 0.2526748623,
				"element": "H" 
			},
			{
				"x": -2.216670108,
				"y": -0.1833368155,
				"z": -0.081255562,
				"element": "H" 
			},
			{
				"x": -2.3483790558,
				"y": -2.615545562,
				"z": 0.7676572229,
				"element": "H" 
			},
			{
				"x": -0.9497105241,
				"y": -3.2003740329,
				"z": 1.7017040669,
				"element": "H" 
			},
			{
				"x": -1.0121361716,
				"y": -4.1651360562,
				"z": -0.6169244383,
				"element": "H" 
			},
			{
				"x": 0.4507198762,
				"y": -3.223522798,
				"z": -0.326821384,
				"element": "H" 
			},
			{
				"x": -1.406160651,
				"y": 1.6857523448,
				"z": 2.2767119351,
				"element": "H" 
			},
			{
				"x": 0.1921550438,
				"y": 3.5447693043,
				"z": 3.4866634806,
				"element": "H" 
			},
			{
				"x": 2.5525013157,
				"y": 2.2051527161,
				"z": 3.9533389465,
				"element": "H" 
			}
		],
		 "valence_orbital": [ 
			{
				"type": "occ",
				"energy": -0.28962,
				"method": "rhf"
			},
			{
				"type": "occ",
				"energy": -0.27389,
				"method": "rhf"
			},
			{
				"type": "occ",
				"energy": -0.26238,
				"method": "rhf"
			},
			{
				"type": "occ",
				"energy": -0.24373,
				"method": "rhf"
			},
			{
				"type": "occ",
				"energy": -0.23619,
				"method": "rhf"
			},
			{
				"type": "unocc",
				"energy": -0.0309,
				"method": "rhf"
			},
			{
				"type": "unocc",
				"energy": 0.0045,
				"method": "rhf"
			},
			{
				"type": "unocc",
				"energy": 0.03571,
				"method": "rhf"
			},
			{
				"type": "unocc",
				"energy": 0.0438,
				"method": "rhf"
			},
			{
				"type": "unocc",
				"energy": 0.08107,
				"method": "rhf"
			}
		],
		"cosmo_sigma_profile": { 
			"-0.025": 0.0,
			"-0.024": 0.0,
			"-0.023": 0.0,
			"-0.022": 0.0,
			"-0.021": 0.0,
			"-0.02": 0.0,
			"-0.019": 0.0138981286493,
			"-0.018": 1.18829376188,
			"-0.017": 0.795318951931,
			"-0.016": 1.13042963098,
			"-0.015": 1.40831184978,
			"-0.014": 1.00522797081,
			"-0.013": 0.821968948087,
			"-0.012": 1.13376216104,
			"-0.011": 1.21244780983,
			"-0.01": 1.99530261936,
			"-0.009": 2.91698634985,
			"-0.008": 4.78383583725,
			"-0.007": 8.45019953311,
			"-0.006": 12.5061716555,
			"-0.005": 19.6261329267,
			"-0.004": 27.5818565081,
			"-0.003": 24.3481830711,
			"-0.002": 17.2902682157,
			"-0.001": 12.3114008732,
			"0.0": 11.1443076598,
			"0.001": 12.3648048828,
			"0.002": 12.8226025676,
			"0.003": 10.4479898474,
			"0.004": 9.10968560784,
			"0.005": 5.57214624075,
			"0.006": 4.34947371957,
			"0.007": 4.23003349918,
			"0.008": 5.12084727388,
			"0.009": 5.22644112072,
			"0.01": 6.98029768798,
			"0.011": 7.63870610054,
			"0.012": 7.49095487572,
			"0.013": 6.68431932606,
			"0.014": 3.64542505307,
			"0.015": 0.903366756213,
			"0.016": 0.0,
			"0.017": 0.0,
			"0.018": 0.0,
			"0.019": 0.0,
			"0.02": 0.0,
			"0.021": 0.0,
			"0.022": 0.0,
			"0.023": 0.0,
			"0.024": 0.0,
			"0.025": 0.0
		}
	}
}
