{
	 "smiles": "CN1C=C(CNC2=C(C=CC=C2)C(F)(F)F)C=N1", 
	 "Tm": 327.15, 
	 "num_atms": 30, 
	 "gaussian": { 
		 "optdone": 1, 
		 "sigma_profile": "yes", 
		 "theory": "DFT", 
		 "functional": "B3LYP", 
		 "basiset": "6-31G**", 
		 "properties": { 
			 "R2extent": 6306.4235, 
			 "electric_dipole_moment_norm": 0.962735939913, 
			 "electric_quadrupole_moment_norm": 15.3744421164, 
			 "total_energy": -928.269186126, 
			 "HOMO_LUMO_gap": 0.19056, 
			 "cosmo_polarized_energy": -10.5, 
			 "cosmo_cavitation_energy": 35.04, 
			 "cosmo_dispersion_energy": -24.31, 
			 "cosmo_repulsion_energy": 1.84, 
			 "cosmo_total_nonelectrostatic_energy": 12.58, 
			 "SMD_solvation_energy": 6.1 
		},
		"coords": [
			{
				"x": 3.4325963883,
				"y": -0.5239247465,
				"z": 1.4906591705,
				"element": "C" 
			},
			{
				"x": 2.0162446796,
				"y": -0.5049666202,
				"z": 1.8037888571,
				"element": "N" 
			},
			{
				"x": 0.9728202618,
				"y": -0.3787158339,
				"z": 0.9411938981,
				"element": "C" 
			},
			{
				"x": -0.1787066374,
				"y": -0.3048058052,
				"z": 1.7066990709,
				"element": "C" 
			},
			{
				"x": -1.6026356178,
				"y": -0.2109407138,
				"z": 1.2247508622,
				"element": "C" 
			},
			{
				"x": -1.7361603777,
				"y": 0.4021767788,
				"z": -0.0920833818,
				"element": "N" 
			},
			{
				"x": -1.7137670368,
				"y": 1.7745027386,
				"z": -0.2838832719,
				"element": "C" 
			},
			{
				"x": -2.082887526,
				"y": 2.3419532423,
				"z": -1.5338871894,
				"element": "C" 
			},
			{
				"x": -2.0534053661,
				"y": 3.7252337325,
				"z": -1.7204513739,
				"element": "C" 
			},
			{
				"x": -1.6584550253,
				"y": 4.5814355705,
				"z": -0.6958036462,
				"element": "C" 
			},
			{
				"x": -1.2786698864,
				"y": 4.0306101216,
				"z": 0.5286508815,
				"element": "C" 
			},
			{
				"x": -1.3032627842,
				"y": 2.6546857361,
				"z": 0.7371977165,
				"element": "C" 
			},
			{
				"x": -2.4612092604,
				"y": 1.4561710306,
				"z": -2.6827603947,
				"element": "C" 
			},
			{
				"x": -3.4750230785,
				"y": 0.5932781758,
				"z": -2.3562044756,
				"element": "F" 
			},
			{
				"x": -2.8786245584,
				"y": 2.1452313737,
				"z": -3.7615042203,
				"element": "F" 
			},
			{
				"x": -1.4336774166,
				"y": 0.6677503621,
				"z": -3.0858354178,
				"element": "F" 
			},
			{
				"x": 0.2930660448,
				"y": -0.3914267841,
				"z": 3.0379009848,
				"element": "C" 
			},
			{
				"x": 1.6203890585,
				"y": -0.509531048,
				"z": 3.0943073886,
				"element": "N" 
			},
			{
				"x": 3.9327518572,
				"y": -1.2174836398,
				"z": 2.1683344667,
				"element": "H" 
			},
			{
				"x": 3.8761733016,
				"y": 0.4703736851,
				"z": 1.6077793736,
				"element": "H" 
			},
			{
				"x": 3.56900975,
				"y": -0.8591683153,
				"z": 0.4606747316,
				"element": "H" 
			},
			{
				"x": 1.1123410177,
				"y": -0.3397972016,
				"z": -0.128960064,
				"element": "H" 
			},
			{
				"x": -2.2099545754,
				"y": 0.319640073,
				"z": 1.9747626367,
				"element": "H" 
			},
			{
				"x": -2.0351970693,
				"y": -1.2149833045,
				"z": 1.1406476941,
				"element": "H" 
			},
			{
				"x": -2.3226548446,
				"y": -0.1073690246,
				"z": -0.7338526143,
				"element": "H" 
			},
			{
				"x": -2.3451913572,
				"y": 4.1253893865,
				"z": -2.6847665655,
				"element": "H" 
			},
			{
				"x": -1.6410696663,
				"y": 5.6544977988,
				"z": -0.8537262109,
				"element": "H" 
			},
			{
				"x": -0.9577780787,
				"y": 4.6783732435,
				"z": 1.33988988,
				"element": "H" 
			},
			{
				"x": -0.9842859797,
				"y": 2.2535218085,
				"z": 1.691153676,
				"element": "H" 
			},
			{
				"x": -0.2816762167,
				"y": -0.3807118205,
				"z": 3.9556275375,
				"element": "H" 
			}
		],
		 "valence_orbital": [ 
			{
				"type": "occ",
				"energy": -0.28339,
				"method": "rhf"
			},
			{
				"type": "occ",
				"energy": -0.2591,
				"method": "rhf"
			},
			{
				"type": "occ",
				"energy": -0.24796,
				"method": "rhf"
			},
			{
				"type": "occ",
				"energy": -0.23451,
				"method": "rhf"
			},
			{
				"type": "occ",
				"energy": -0.20721,
				"method": "rhf"
			},
			{
				"type": "unocc",
				"energy": -0.01665,
				"method": "rhf"
			},
			{
				"type": "unocc",
				"energy": 0.00811,
				"method": "rhf"
			},
			{
				"type": "unocc",
				"energy": 0.01798,
				"method": "rhf"
			},
			{
				"type": "unocc",
				"energy": 0.05771,
				"method": "rhf"
			},
			{
				"type": "unocc",
				"energy": 0.09834,
				"method": "rhf"
			}
		],
		"cosmo_sigma_profile": { 
			"-0.025": 0.0,
			"-0.024": 0.0,
			"-0.023": 0.0,
			"-0.022": 0.0,
			"-0.021": 0.0,
			"-0.02": 0.0,
			"-0.019": 0.0,
			"-0.018": 0.0,
			"-0.017": 0.0,
			"-0.016": 0.0,
			"-0.015": 0.0,
			"-0.014": 0.0,
			"-0.013": 0.0,
			"-0.012": 0.349145243185,
			"-0.011": 0.73664979512,
			"-0.01": 1.06015834331,
			"-0.009": 1.10350524854,
			"-0.008": 3.60022250137,
			"-0.007": 5.9756811583,
			"-0.006": 14.6468440446,
			"-0.005": 19.2060436097,
			"-0.004": 25.0433189216,
			"-0.003": 24.1573302711,
			"-0.002": 17.8699881038,
			"-0.001": 16.0167432647,
			"0.0": 16.4741819351,
			"0.001": 17.3284645564,
			"0.002": 26.1058335349,
			"0.003": 37.6510509379,
			"0.004": 19.1028947528,
			"0.005": 14.3877774976,
			"0.006": 5.85853087724,
			"0.007": 1.89402797506,
			"0.008": 2.0576217241,
			"0.009": 1.83086671678,
			"0.01": 0.726312793978,
			"0.011": 0.724295182538,
			"0.012": 1.47850670545,
			"0.013": 1.56423946287,
			"0.014": 1.16587345161,
			"0.015": 0.476297176482,
			"0.016": 1.18521438289,
			"0.017": 0.0961710960195,
			"0.018": 0.0,
			"0.019": 0.0,
			"0.02": 0.0,
			"0.021": 0.0,
			"0.022": 0.0,
			"0.023": 0.0,
			"0.024": 0.0,
			"0.025": 0.0
		}
	}
}
