{
	 "smiles": "O=C(N1CCOCC1)C(C#N)=C(SCC1=CC=CC=C1)SCC1=CC=CC=C1", 
	 "Tm": 396.15, 
	 "num_atms": 50, 
	 "gaussian": { 
		 "optdone": 1, 
		 "sigma_profile": "yes", 
		 "theory": "DFT", 
		 "functional": "B3LYP", 
		 "basiset": "6-31G**", 
		 "properties": { 
			 "R2extent": 11635.1699, 
			 "electric_dipole_moment_norm": 7.01957206744, 
			 "electric_quadrupole_moment_norm": 23.0664872746, 
			 "total_energy": -1907.87389608, 
			 "HOMO_LUMO_gap": 0.16254, 
			 "cosmo_polarized_energy": -21.59, 
			 "cosmo_cavitation_energy": 56.04, 
			 "cosmo_dispersion_energy": -34.77, 
			 "cosmo_repulsion_energy": 2.57, 
			 "cosmo_total_nonelectrostatic_energy": 23.84, 
			 "SMD_solvation_energy": 9.01 
		},
		"coords": [
			{
				"x": 1.1411298218,
				"y": -3.0286106396,
				"z": -2.2329550774,
				"element": "O" 
			},
			{
				"x": 0.8084880937,
				"y": -2.2746952888,
				"z": -1.326054373,
				"element": "C" 
			},
			{
				"x": 1.7014227847,
				"y": -1.6271343244,
				"z": -0.526580105,
				"element": "N" 
			},
			{
				"x": 1.3552548608,
				"y": -0.7268568664,
				"z": 0.576329417,
				"element": "C" 
			},
			{
				"x": 2.5195984308,
				"y": -0.6762537197,
				"z": 1.5613191706,
				"element": "C" 
			},
			{
				"x": 3.7247993492,
				"y": -0.1971041755,
				"z": 0.9732154528,
				"element": "O" 
			},
			{
				"x": 3.8582023598,
				"y": -0.4810824784,
				"z": -0.4200051585,
				"element": "C" 
			},
			{
				"x": 3.1304453393,
				"y": -1.7511079951,
				"z": -0.8452968586,
				"element": "C" 
			},
			{
				"x": -0.6778632093,
				"y": -2.0749479021,
				"z": -1.0290086943,
				"element": "C" 
			},
			{
				"x": -1.3231883668,
				"y": -3.228347618,
				"z": -0.5013736985,
				"element": "C" 
			},
			{
				"x": -1.8286164343,
				"y": -4.1701074667,
				"z": -0.0345352023,
				"element": "N" 
			},
			{
				"x": -1.3772877285,
				"y": -0.9646196127,
				"z": -1.4088012095,
				"element": "C" 
			},
			{
				"x": -3.1143370395,
				"y": -0.6787902665,
				"z": -1.1819542837,
				"element": "S" 
			},
			{
				"x": -3.5510557171,
				"y": -1.260772164,
				"z": 0.5288656509,
				"element": "C" 
			},
			{
				"x": -2.7532235826,
				"y": -0.6477629493,
				"z": 1.6530765007,
				"element": "C" 
			},
			{
				"x": -2.7709808622,
				"y": 0.7356276996,
				"z": 1.8883754238,
				"element": "C" 
			},
			{
				"x": -2.0546148753,
				"y": 1.2848100281,
				"z": 2.9503147942,
				"element": "C" 
			},
			{
				"x": -1.3109300449,
				"y": 0.4580195913,
				"z": 3.7984616468,
				"element": "C" 
			},
			{
				"x": -1.2927157829,
				"y": -0.9191898973,
				"z": 3.5771519561,
				"element": "C" 
			},
			{
				"x": -2.0076011065,
				"y": -1.4694048387,
				"z": 2.5085608588,
				"element": "C" 
			},
			{
				"x": -0.5459291112,
				"y": 0.2412622868,
				"z": -2.414239959,
				"element": "S" 
			},
			{
				"x": -1.1616340922,
				"y": 1.8821412975,
				"z": -1.7754355312,
				"element": "C" 
			},
			{
				"x": -0.2896189946,
				"y": 2.9699719097,
				"z": -2.3467196749,
				"element": "C" 
			},
			{
				"x": -0.5791439056,
				"y": 3.5271560847,
				"z": -3.5998558089,
				"element": "C" 
			},
			{
				"x": 0.2308606747,
				"y": 4.5286968511,
				"z": -4.1356740944,
				"element": "C" 
			},
			{
				"x": 1.3421540053,
				"y": 4.9854211747,
				"z": -3.4246930797,
				"element": "C" 
			},
			{
				"x": 1.6403078887,
				"y": 4.4356019767,
				"z": -2.1759989176,
				"element": "C" 
			},
			{
				"x": 0.8311867807,
				"y": 3.4324624624,
				"z": -1.643193222,
				"element": "C" 
			},
			{
				"x": 0.459073004,
				"y": -1.0837147885,
				"z": 1.0878291518,
				"element": "H" 
			},
			{
				"x": 1.1452961649,
				"y": 0.2842909627,
				"z": 0.2005168824,
				"element": "H" 
			},
			{
				"x": 2.2722010589,
				"y": 0.0024347633,
				"z": 2.3839401376,
				"element": "H" 
			},
			{
				"x": 2.6757634886,
				"y": -1.6788557318,
				"z": 1.9889055576,
				"element": "H" 
			},
			{
				"x": 4.929330709,
				"y": -0.5832673421,
				"z": -0.621445297,
				"element": "H" 
			},
			{
				"x": 3.4846979945,
				"y": 0.3670166601,
				"z": -1.014080434,
				"element": "H" 
			},
			{
				"x": 3.558377309,
				"y": -2.6266399036,
				"z": -0.3393793479,
				"element": "H" 
			},
			{
				"x": 3.2306812214,
				"y": -1.9158420217,
				"z": -1.9205407655,
				"element": "H" 
			},
			{
				"x": -3.5164117874,
				"y": -2.3491391071,
				"z": 0.5612218779,
				"element": "H" 
			},
			{
				"x": -4.6018080347,
				"y": -0.9542746876,
				"z": 0.5785674015,
				"element": "H" 
			},
			{
				"x": -3.351586419,
				"y": 1.3817702551,
				"z": 1.2349474942,
				"element": "H" 
			},
			{
				"x": -2.0828212191,
				"y": 2.3569286584,
				"z": 3.1233177118,
				"element": "H" 
			},
			{
				"x": -0.7580499587,
				"y": 0.8858830922,
				"z": 4.6297336986,
				"element": "H" 
			},
			{
				"x": -0.7261933088,
				"y": -1.5706298681,
				"z": 4.2365754311,
				"element": "H" 
			},
			{
				"x": -1.9915126845,
				"y": -2.5422331998,
				"z": 2.3381636241,
				"element": "H" 
			},
			{
				"x": -2.2017045426,
				"y": 2.0029524021,
				"z": -2.0792350422,
				"element": "H" 
			},
			{
				"x": -1.1124309103,
				"y": 1.8543262275,
				"z": -0.6853101297,
				"element": "H" 
			},
			{
				"x": -1.4448836117,
				"y": 3.1752385543,
				"z": -4.1551195497,
				"element": "H" 
			},
			{
				"x": -0.0076079128,
				"y": 4.9536025982,
				"z": -5.1063168357,
				"element": "H" 
			},
			{
				"x": 1.9713688198,
				"y": 5.7671314733,
				"z": -3.8400699077,
				"element": "H" 
			},
			{
				"x": 2.5014382667,
				"y": 4.7888380069,
				"z": -1.6162173352,
				"element": "H" 
			},
			{
				"x": 1.0654728171,
				"y": 3.0085998366,
				"z": -0.669700247,
				"element": "H" 
			}
		],
		 "valence_orbital": [ 
			{
				"type": "occ",
				"energy": -0.25926,
				"method": "rhf"
			},
			{
				"type": "occ",
				"energy": -0.25753,
				"method": "rhf"
			},
			{
				"type": "occ",
				"energy": -0.25241,
				"method": "rhf"
			},
			{
				"type": "occ",
				"energy": -0.24463,
				"method": "rhf"
			},
			{
				"type": "occ",
				"energy": -0.23005,
				"method": "rhf"
			},
			{
				"type": "unocc",
				"energy": -0.06751,
				"method": "rhf"
			},
			{
				"type": "unocc",
				"energy": -0.03012,
				"method": "rhf"
			},
			{
				"type": "unocc",
				"energy": -0.02399,
				"method": "rhf"
			},
			{
				"type": "unocc",
				"energy": -0.018,
				"method": "rhf"
			},
			{
				"type": "unocc",
				"energy": -0.01419,
				"method": "rhf"
			}
		],
		"cosmo_sigma_profile": { 
			"-0.025": 0.0,
			"-0.024": 0.0,
			"-0.023": 0.0,
			"-0.022": 0.0,
			"-0.021": 0.0,
			"-0.02": 0.0,
			"-0.019": 0.0,
			"-0.018": 0.0,
			"-0.017": 0.0,
			"-0.016": 0.0,
			"-0.015": 0.0,
			"-0.014": 0.0,
			"-0.013": 0.0,
			"-0.012": 0.0,
			"-0.011": 0.0,
			"-0.01": 0.0,
			"-0.009": 0.457932888932,
			"-0.008": 2.2821297686,
			"-0.007": 3.46040823667,
			"-0.006": 24.4868068767,
			"-0.005": 43.0426414835,
			"-0.004": 51.8296815875,
			"-0.003": 43.5113098749,
			"-0.002": 38.4538951612,
			"-0.001": 30.7961858403,
			"0.0": 29.7517331388,
			"0.001": 27.2069011639,
			"0.002": 28.042230926,
			"0.003": 29.9208741482,
			"0.004": 24.4821917827,
			"0.005": 21.5109783044,
			"0.006": 9.00774722072,
			"0.007": 6.27910760774,
			"0.008": 5.02881676655,
			"0.009": 4.40714942393,
			"0.01": 4.45259835724,
			"0.011": 6.24008636156,
			"0.012": 6.44069472366,
			"0.013": 7.17884684596,
			"0.014": 0.952836836336,
			"0.015": 0.0,
			"0.016": 0.0,
			"0.017": 0.0,
			"0.018": 0.0,
			"0.019": 0.0,
			"0.02": 0.0,
			"0.021": 0.0,
			"0.022": 0.0,
			"0.023": 0.0,
			"0.024": 0.0,
			"0.025": 0.0
		}
	}
}
