{
	 "smiles": "CN1C=C(C=N1)S(=O)(=O)NCC(O)=O", 
	 "Tm": 475.15, 
	 "num_atms": 23, 
	 "gaussian": { 
		 "optdone": 1, 
		 "sigma_profile": "yes", 
		 "theory": "DFT", 
		 "functional": "B3LYP", 
		 "basiset": "6-31G**", 
		 "properties": { 
			 "R2extent": 4388.2107, 
			 "electric_dipole_moment_norm": 3.03096541386, 
			 "electric_quadrupole_moment_norm": 28.2859761451, 
			 "total_energy": -1097.31153102, 
			 "HOMO_LUMO_gap": 0.25025, 
			 "cosmo_polarized_energy": -22.02, 
			 "cosmo_cavitation_energy": 29.96, 
			 "cosmo_dispersion_energy": -21.85, 
			 "cosmo_repulsion_energy": 1.7, 
			 "cosmo_total_nonelectrostatic_energy": 9.81, 
			 "SMD_solvation_energy": 4.79 
		},
		"coords": [
			{
				"x": 0.9105430328,
				"y": -2.0603145059,
				"z": -5.2081993591,
				"element": "C" 
			},
			{
				"x": 1.0223066314,
				"y": -1.4963730491,
				"z": -3.8736408061,
				"element": "N" 
			},
			{
				"x": 0.0281600648,
				"y": -1.1967644764,
				"z": -3.0096874985,
				"element": "C" 
			},
			{
				"x": 0.6439558476,
				"y": -0.6839869225,
				"z": -1.8789559177,
				"element": "C" 
			},
			{
				"x": 2.0296453826,
				"y": -0.7230328004,
				"z": -2.161255915,
				"element": "C" 
			},
			{
				"x": 2.252648348,
				"y": -1.2124735795,
				"z": -3.3747894364,
				"element": "N" 
			},
			{
				"x": -0.1962771923,
				"y": -0.2068909398,
				"z": -0.4149633208,
				"element": "S" 
			},
			{
				"x": -1.6318371331,
				"y": -0.2989609249,
				"z": -0.7087624357,
				"element": "O" 
			},
			{
				"x": 0.3693759385,
				"y": -0.900761635,
				"z": 0.7467392964,
				"element": "O" 
			},
			{
				"x": 0.3075084393,
				"y": 1.4145408572,
				"z": -0.2682995084,
				"element": "N" 
			},
			{
				"x": 0.3991164077,
				"y": 1.9535182593,
				"z": 1.0867911327,
				"element": "C" 
			},
			{
				"x": -0.772138732,
				"y": 2.8663414365,
				"z": 1.4077592663,
				"element": "C" 
			},
			{
				"x": -0.7743869916,
				"y": 3.2323395132,
				"z": 2.703757357,
				"element": "O" 
			},
			{
				"x": -1.5799140987,
				"y": 3.2579682836,
				"z": 0.5946232151,
				"element": "O" 
			},
			{
				"x": 1.3393993593,
				"y": -1.3717941779,
				"z": -5.9400870118,
				"element": "H" 
			},
			{
				"x": 1.4463407758,
				"y": -3.0112024652,
				"z": -5.2549327357,
				"element": "H" 
			},
			{
				"x": -0.1436382316,
				"y": -2.2241854018,
				"z": -5.4352528134,
				"element": "H" 
			},
			{
				"x": -1.0171385459,
				"y": -1.3539367485,
				"z": -3.2277576858,
				"element": "H" 
			},
			{
				"x": 2.851962596,
				"y": -0.4105976765,
				"z": -1.5336453556,
				"element": "H" 
			},
			{
				"x": -0.3032146943,
				"y": 1.9992196421,
				"z": -0.8415853979,
				"element": "H" 
			},
			{
				"x": 1.3187342346,
				"y": 2.5440745256,
				"z": 1.1913868401,
				"element": "H" 
			},
			{
				"x": 0.4620519453,
				"y": 1.1407104971,
				"z": 1.8144576804,
				"element": "H" 
			},
			{
				"x": -1.525903384,
				"y": 3.8375622889,
				"z": 2.8234004102,
				"element": "H" 
			}
		],
		 "valence_orbital": [ 
			{
				"type": "occ",
				"energy": -0.29625,
				"method": "rhf"
			},
			{
				"type": "occ",
				"energy": -0.29208,
				"method": "rhf"
			},
			{
				"type": "occ",
				"energy": -0.28238,
				"method": "rhf"
			},
			{
				"type": "occ",
				"energy": -0.27454,
				"method": "rhf"
			},
			{
				"type": "occ",
				"energy": -0.25758,
				"method": "rhf"
			},
			{
				"type": "unocc",
				"energy": -0.00733,
				"method": "rhf"
			},
			{
				"type": "unocc",
				"energy": -0.00326,
				"method": "rhf"
			},
			{
				"type": "unocc",
				"energy": 0.01354,
				"method": "rhf"
			},
			{
				"type": "unocc",
				"energy": 0.06348,
				"method": "rhf"
			},
			{
				"type": "unocc",
				"energy": 0.06925,
				"method": "rhf"
			}
		],
		"cosmo_sigma_profile": { 
			"-0.025": 0.0,
			"-0.024": 0.0,
			"-0.023": 0.0,
			"-0.022": 0.0,
			"-0.021": 0.0,
			"-0.02": 0.0,
			"-0.019": 0.57898819976,
			"-0.018": 1.06822047209,
			"-0.017": 0.936512299273,
			"-0.016": 0.928608079532,
			"-0.015": 0.571462065349,
			"-0.014": 0.493290891139,
			"-0.013": 1.05785574763,
			"-0.012": 1.29661689811,
			"-0.011": 2.96819844644,
			"-0.01": 3.68950225101,
			"-0.009": 5.4583412484,
			"-0.008": 9.3687993646,
			"-0.007": 13.174468323,
			"-0.006": 15.513641762,
			"-0.005": 12.940015826,
			"-0.004": 17.2562194577,
			"-0.003": 14.5085453516,
			"-0.002": 9.03273989368,
			"-0.001": 9.82023614345,
			"0.0": 12.7178740078,
			"0.001": 10.6836423954,
			"0.002": 10.046271956,
			"0.003": 9.06603240153,
			"0.004": 8.15862796996,
			"0.005": 6.1364204395,
			"0.006": 7.09609703714,
			"0.007": 6.617407953,
			"0.008": 8.41629220216,
			"0.009": 7.94558135457,
			"0.01": 12.2906133179,
			"0.011": 13.4655907074,
			"0.012": 3.15737812429,
			"0.013": 1.14292568101,
			"0.014": 0.917496627202,
			"0.015": 0.128493727364,
			"0.016": 0.0,
			"0.017": 0.0,
			"0.018": 0.0,
			"0.019": 0.0,
			"0.02": 0.0,
			"0.021": 0.0,
			"0.022": 0.0,
			"0.023": 0.0,
			"0.024": 0.0,
			"0.025": 0.0
		}
	}
}
