{
	 "smiles": "CC1=CC=C(C=C1)C1=NNC(N)=C1", 
	 "Tm": 427.15, 
	 "num_atms": 24, 
	 "gaussian": { 
		 "optdone": 1, 
		 "sigma_profile": "yes", 
		 "theory": "DFT", 
		 "functional": "B3LYP", 
		 "basiset": "6-31G**", 
		 "properties": { 
			 "R2extent": 3514.809, 
			 "electric_dipole_moment_norm": 3.30990358017, 
			 "electric_quadrupole_moment_norm": 18.3017483479, 
			 "total_energy": -551.938790429, 
			 "HOMO_LUMO_gap": 0.19034, 
			 "cosmo_polarized_energy": -15.77, 
			 "cosmo_cavitation_energy": 27.95, 
			 "cosmo_dispersion_energy": -20.87, 
			 "cosmo_repulsion_energy": 1.66, 
			 "cosmo_total_nonelectrostatic_energy": 8.73, 
			 "SMD_solvation_energy": 3.9 
		},
		"coords": [
			{
				"x": 3.515553318,
				"y": 1.1748920798,
				"z": -2.0086469,
				"element": "C" 
			},
			{
				"x": 2.3505382239,
				"y": 0.5505236759,
				"z": -1.2777205434,
				"element": "C" 
			},
			{
				"x": 1.7348957217,
				"y": 1.1981557245,
				"z": -0.2009174196,
				"element": "C" 
			},
			{
				"x": 0.6740099198,
				"y": 0.6093235126,
				"z": 0.4866090069,
				"element": "C" 
			},
			{
				"x": 0.1904758226,
				"y": -0.6539811965,
				"z": 0.1191075431,
				"element": "C" 
			},
			{
				"x": 0.8045396772,
				"y": -1.3058948823,
				"z": -0.9643928844,
				"element": "C" 
			},
			{
				"x": 1.8600337184,
				"y": -0.7117994155,
				"z": -1.6466856199,
				"element": "C" 
			},
			{
				"x": -0.9307131817,
				"y": -1.285193105,
				"z": 0.83503423,
				"element": "C" 
			},
			{
				"x": -1.4621019814,
				"y": -2.4275347663,
				"z": 0.3906101936,
				"element": "N" 
			},
			{
				"x": -2.4418822542,
				"y": -2.7164483989,
				"z": 1.2852680201,
				"element": "N" 
			},
			{
				"x": -2.5455976742,
				"y": -1.795364578,
				"z": 2.2823171748,
				"element": "C" 
			},
			{
				"x": -3.5397587916,
				"y": -1.8994993077,
				"z": 3.2617418183,
				"element": "N" 
			},
			{
				"x": -1.5744274346,
				"y": -0.8449633593,
				"z": 2.0274629216,
				"element": "C" 
			},
			{
				"x": 3.4195683783,
				"y": 1.0546682023,
				"z": -3.0930923702,
				"element": "H" 
			},
			{
				"x": 4.4658231123,
				"y": 0.7095432573,
				"z": -1.7173067937,
				"element": "H" 
			},
			{
				"x": 3.5958583844,
				"y": 2.2445908451,
				"z": -1.7941013128,
				"element": "H" 
			},
			{
				"x": 2.0872924573,
				"y": 2.1808889863,
				"z": 0.1037359178,
				"element": "H" 
			},
			{
				"x": 0.2132578608,
				"y": 1.1473078687,
				"z": 1.3099574037,
				"element": "H" 
			},
			{
				"x": 0.4370352412,
				"y": -2.2825266479,
				"z": -1.2608991345,
				"element": "H" 
			},
			{
				"x": 2.3156033461,
				"y": -1.2368497679,
				"z": -2.4834975481,
				"element": "H" 
			},
			{
				"x": -3.0579568057,
				"y": -3.4943563027,
				"z": 1.1096585256,
				"element": "H" 
			},
			{
				"x": -3.5143604901,
				"y": -2.7787252337,
				"z": 3.7685581991,
				"element": "H" 
			},
			{
				"x": -3.4950834444,
				"y": -1.1328727461,
				"z": 3.9212203888,
				"element": "H" 
			},
			{
				"x": -1.3463031239,
				"y": 0.0180155551,
				"z": 2.6342791831,
				"element": "H" 
			}
		],
		 "valence_orbital": [ 
			{
				"type": "occ",
				"energy": -0.27627,
				"method": "rhf"
			},
			{
				"type": "occ",
				"energy": -0.26885,
				"method": "rhf"
			},
			{
				"type": "occ",
				"energy": -0.23688,
				"method": "rhf"
			},
			{
				"type": "occ",
				"energy": -0.21639,
				"method": "rhf"
			},
			{
				"type": "occ",
				"energy": -0.19859,
				"method": "rhf"
			},
			{
				"type": "unocc",
				"energy": -0.00825,
				"method": "rhf"
			},
			{
				"type": "unocc",
				"energy": 0.01195,
				"method": "rhf"
			},
			{
				"type": "unocc",
				"energy": 0.04701,
				"method": "rhf"
			},
			{
				"type": "unocc",
				"energy": 0.06746,
				"method": "rhf"
			},
			{
				"type": "unocc",
				"energy": 0.09697,
				"method": "rhf"
			}
		],
		"cosmo_sigma_profile": { 
			"-0.025": 0.0,
			"-0.024": 0.0,
			"-0.023": 0.0,
			"-0.022": 0.0,
			"-0.021": 0.0,
			"-0.02": 0.0,
			"-0.019": 0.0,
			"-0.018": 0.0,
			"-0.017": 0.0,
			"-0.016": 0.793822728374,
			"-0.015": 1.49754415444,
			"-0.014": 1.43149016775,
			"-0.013": 3.0961303376,
			"-0.012": 4.29959242448,
			"-0.011": 3.85726305564,
			"-0.01": 4.42828548218,
			"-0.009": 3.05226255027,
			"-0.008": 2.75821180733,
			"-0.007": 3.44976902335,
			"-0.006": 5.5278451998,
			"-0.005": 8.70235029352,
			"-0.004": 15.0150893286,
			"-0.003": 16.4510235763,
			"-0.002": 14.7116008776,
			"-0.001": 13.0623178043,
			"0.0": 16.4962660346,
			"0.001": 11.4885352129,
			"0.002": 8.65004828868,
			"0.003": 11.1977409381,
			"0.004": 15.0278007342,
			"0.005": 17.9831043345,
			"0.006": 17.0661013763,
			"0.007": 5.56298379101,
			"0.008": 2.98830071817,
			"0.009": 2.40178406306,
			"0.01": 2.43645833079,
			"0.011": 1.90721111881,
			"0.012": 1.80015281265,
			"0.013": 1.76079732545,
			"0.014": 1.77922842929,
			"0.015": 1.12277340964,
			"0.016": 0.117427273265,
			"0.017": 0.0,
			"0.018": 0.0,
			"0.019": 0.0,
			"0.02": 0.0,
			"0.021": 0.0,
			"0.022": 0.0,
			"0.023": 0.0,
			"0.024": 0.0,
			"0.025": 0.0
		}
	}
}
