{
	 "smiles": "CC1=C(C=CC=C1Cl)S(Cl)(=O)=O", 
	 "Tm": 345.15, 
	 "num_atms": 18, 
	 "gaussian": { 
		 "optdone": 1, 
		 "sigma_profile": "yes", 
		 "theory": "DFT", 
		 "functional": "B3LYP", 
		 "basiset": "6-31G**", 
		 "properties": { 
			 "R2extent": 3751.7059, 
			 "electric_dipole_moment_norm": 4.09650854875, 
			 "electric_quadrupole_moment_norm": 12.6689336102, 
			 "total_energy": -1739.31369464, 
			 "HOMO_LUMO_gap": 0.17923, 
			 "cosmo_polarized_energy": -7.66, 
			 "cosmo_cavitation_energy": 26.52, 
			 "cosmo_dispersion_energy": -20.27, 
			 "cosmo_repulsion_energy": 1.56, 
			 "cosmo_total_nonelectrostatic_energy": 7.81, 
			 "SMD_solvation_energy": 3.11 
		},
		"coords": [
			{
				"x": 1.8358072247,
				"y": 1.0927696308,
				"z": 0.3554937049,
				"element": "C" 
			},
			{
				"x": 0.6854972098,
				"y": 0.2269702741,
				"z": -0.0943500669,
				"element": "C" 
			},
			{
				"x": 0.8437871418,
				"y": -1.0625743179,
				"z": -0.6457014705,
				"element": "C" 
			},
			{
				"x": -0.2170304242,
				"y": -1.8604355252,
				"z": -1.0781485115,
				"element": "C" 
			},
			{
				"x": -1.5164553336,
				"y": -1.378396022,
				"z": -0.9539749918,
				"element": "C" 
			},
			{
				"x": -1.7331884404,
				"y": -0.1202668258,
				"z": -0.4015371339,
				"element": "C" 
			},
			{
				"x": -0.6503994754,
				"y": 0.6548687405,
				"z": 0.0184868491,
				"element": "C" 
			},
			{
				"x": -1.0220991324,
				"y": 2.2230228986,
				"z": 0.721755782,
				"element": "Cl" 
			},
			{
				"x": 2.4661686941,
				"y": -1.8320184274,
				"z": -0.7882284238,
				"element": "S" 
			},
			{
				"x": 3.3008840614,
				"y": -0.7810952325,
				"z": -2.4545163132,
				"element": "Cl" 
			},
			{
				"x": 2.2978476876,
				"y": -3.2095805813,
				"z": -1.2327886197,
				"element": "O" 
			},
			{
				"x": 3.2936744782,
				"y": -1.4998797769,
				"z": 0.3643695308,
				"element": "O" 
			},
			{
				"x": 2.7145602097,
				"y": 0.9640217676,
				"z": -0.2755761198,
				"element": "H" 
			},
			{
				"x": 2.1316926941,
				"y": 0.8347055303,
				"z": 1.3776840211,
				"element": "H" 
			},
			{
				"x": 1.5479635973,
				"y": 2.1435048697,
				"z": 0.3408101602,
				"element": "H" 
			},
			{
				"x": -0.016824766,
				"y": -2.839531279,
				"z": -1.4952427296,
				"element": "H" 
			},
			{
				"x": -2.3561607264,
				"y": -1.9821233457,
				"z": -1.2815723451,
				"element": "H" 
			},
			{
				"x": -2.7381247003,
				"y": 0.271137622,
				"z": -0.2903633224,
				"element": "H" 
			}
		],
		 "valence_orbital": [ 
			{
				"type": "occ",
				"energy": -0.33607,
				"method": "rhf"
			},
			{
				"type": "occ",
				"energy": -0.33011,
				"method": "rhf"
			},
			{
				"type": "occ",
				"energy": -0.31838,
				"method": "rhf"
			},
			{
				"type": "occ",
				"energy": -0.29229,
				"method": "rhf"
			},
			{
				"type": "occ",
				"energy": -0.27404,
				"method": "rhf"
			},
			{
				"type": "unocc",
				"energy": -0.09481,
				"method": "rhf"
			},
			{
				"type": "unocc",
				"energy": -0.05407,
				"method": "rhf"
			},
			{
				"type": "unocc",
				"energy": -0.04291,
				"method": "rhf"
			},
			{
				"type": "unocc",
				"energy": 0.00406,
				"method": "rhf"
			},
			{
				"type": "unocc",
				"energy": 0.05472,
				"method": "rhf"
			}
		],
		"cosmo_sigma_profile": { 
			"-0.025": 0.0,
			"-0.024": 0.0,
			"-0.023": 0.0,
			"-0.022": 0.0,
			"-0.021": 0.0,
			"-0.02": 0.0,
			"-0.019": 0.0,
			"-0.018": 0.0,
			"-0.017": 0.0,
			"-0.016": 0.0,
			"-0.015": 0.0,
			"-0.014": 0.0,
			"-0.013": 0.0,
			"-0.012": 0.0,
			"-0.011": 0.0,
			"-0.01": 0.0,
			"-0.009": 1.05536433914,
			"-0.008": 5.58164263818,
			"-0.007": 6.55697998593,
			"-0.006": 7.40858286065,
			"-0.005": 7.82989222255,
			"-0.004": 10.8255397714,
			"-0.003": 14.8580325765,
			"-0.002": 23.8981686469,
			"-0.001": 22.9126196124,
			"0.0": 22.9695183585,
			"0.001": 21.4429372647,
			"0.002": 15.8808854144,
			"0.003": 18.4167659236,
			"0.004": 12.5941573339,
			"0.005": 4.22922558499,
			"0.006": 3.46248560992,
			"0.007": 5.81041048956,
			"0.008": 8.90945609105,
			"0.009": 3.16375663876,
			"0.01": 0.0,
			"0.011": 0.0,
			"0.012": 0.0,
			"0.013": 0.0,
			"0.014": 0.0,
			"0.015": 0.0,
			"0.016": 0.0,
			"0.017": 0.0,
			"0.018": 0.0,
			"0.019": 0.0,
			"0.02": 0.0,
			"0.021": 0.0,
			"0.022": 0.0,
			"0.023": 0.0,
			"0.024": 0.0,
			"0.025": 0.0
		}
	}
}
