{
	 "smiles": "FC1=CC(CCNC2=NCCS2)=CC=C1", 
	 "Tm": 348.15, 
	 "num_atms": 28, 
	 "gaussian": { 
		 "optdone": 1, 
		 "sigma_profile": "yes", 
		 "theory": "DFT", 
		 "functional": "B3LYP", 
		 "basiset": "6-31G**", 
		 "properties": { 
			 "R2extent": 5409.4014, 
			 "electric_dipole_moment_norm": 1.3031366659, 
			 "electric_quadrupole_moment_norm": 9.32934867984, 
			 "total_energy": -1034.53569275, 
			 "HOMO_LUMO_gap": 0.20717, 
			 "cosmo_polarized_energy": -9.66, 
			 "cosmo_cavitation_energy": 33.27, 
			 "cosmo_dispersion_energy": -23.72, 
			 "cosmo_repulsion_energy": 1.81, 
			 "cosmo_total_nonelectrostatic_energy": 11.35, 
			 "SMD_solvation_energy": 2.03 
		},
		"coords": [
			{
				"x": -3.7329929741,
				"y": 1.3494442296,
				"z": -1.975848247,
				"element": "F" 
			},
			{
				"x": -2.7686075852,
				"y": 1.1064345027,
				"z": -1.0618997816,
				"element": "C" 
			},
			{
				"x": -1.5714858246,
				"y": 0.5450178516,
				"z": -1.4878431017,
				"element": "C" 
			},
			{
				"x": -0.5554835708,
				"y": 0.2903274026,
				"z": -0.5555947303,
				"element": "C" 
			},
			{
				"x": 0.7349095823,
				"y": -0.3667200898,
				"z": -0.9915454788,
				"element": "C" 
			},
			{
				"x": 0.6643592129,
				"y": -1.9119564804,
				"z": -0.9790092934,
				"element": "C" 
			},
			{
				"x": 0.4378757579,
				"y": -2.4960068494,
				"z": 0.3383258504,
				"element": "N" 
			},
			{
				"x": 1.4624170904,
				"y": -2.5835364181,
				"z": 1.2395865664,
				"element": "C" 
			},
			{
				"x": 2.6829780222,
				"y": -2.2829974229,
				"z": 1.0041574306,
				"element": "N" 
			},
			{
				"x": 3.5561613107,
				"y": -2.6689270267,
				"z": 2.1032330474,
				"element": "C" 
			},
			{
				"x": 2.7407167431,
				"y": -2.7535595082,
				"z": 3.4180996557,
				"element": "C" 
			},
			{
				"x": 1.0591321534,
				"y": -3.258382951,
				"z": 2.8783432944,
				"element": "S" 
			},
			{
				"x": -0.7835426877,
				"y": 0.6127885257,
				"z": 0.7910451335,
				"element": "C" 
			},
			{
				"x": -1.9963855209,
				"y": 1.1747165181,
				"z": 1.1965344816,
				"element": "C" 
			},
			{
				"x": -3.0075582992,
				"y": 1.4285002147,
				"z": 0.2695221609,
				"element": "C" 
			},
			{
				"x": -1.4398214581,
				"y": 0.3192106151,
				"z": -2.5418254228,
				"element": "H" 
			},
			{
				"x": 1.5610620119,
				"y": -0.0621785657,
				"z": -0.3421481583,
				"element": "H" 
			},
			{
				"x": 0.9890828625,
				"y": -0.0518435726,
				"z": -2.0107147054,
				"element": "H" 
			},
			{
				"x": -0.1416928329,
				"y": -2.2562075397,
				"z": -1.6358462696,
				"element": "H" 
			},
			{
				"x": 1.6073225052,
				"y": -2.3164872346,
				"z": -1.3534176402,
				"element": "H" 
			},
			{
				"x": -0.4849512929,
				"y": -2.3729041352,
				"z": 0.731203323,
				"element": "H" 
			},
			{
				"x": 4.3728087609,
				"y": -1.9464699958,
				"z": 2.2099173658,
				"element": "H" 
			},
			{
				"x": 4.0131120486,
				"y": -3.6448707513,
				"z": 1.8820838437,
				"element": "H" 
			},
			{
				"x": 3.1394303596,
				"y": -3.493272977,
				"z": 4.1146052993,
				"element": "H" 
			},
			{
				"x": 2.6783459045,
				"y": -1.7844253354,
				"z": 3.9207293458,
				"element": "H" 
			},
			{
				"x": -0.0007175026,
				"y": 0.4331954935,
				"z": 1.5222653089,
				"element": "H" 
			},
			{
				"x": -2.1547712756,
				"y": 1.4219343071,
				"z": 2.2421736092,
				"element": "H" 
			},
			{
				"x": -3.9565035014,
				"y": 1.8683771931,
				"z": 0.5558671123,
				"element": "H" 
			}
		],
		 "valence_orbital": [ 
			{
				"type": "occ",
				"energy": -0.25895,
				"method": "rhf"
			},
			{
				"type": "occ",
				"energy": -0.25693,
				"method": "rhf"
			},
			{
				"type": "occ",
				"energy": -0.24477,
				"method": "rhf"
			},
			{
				"type": "occ",
				"energy": -0.24004,
				"method": "rhf"
			},
			{
				"type": "occ",
				"energy": -0.21997,
				"method": "rhf"
			},
			{
				"type": "unocc",
				"energy": -0.0128,
				"method": "rhf"
			},
			{
				"type": "unocc",
				"energy": -0.00082,
				"method": "rhf"
			},
			{
				"type": "unocc",
				"energy": 0.01034,
				"method": "rhf"
			},
			{
				"type": "unocc",
				"energy": 0.0332,
				"method": "rhf"
			},
			{
				"type": "unocc",
				"energy": 0.08057,
				"method": "rhf"
			}
		],
		"cosmo_sigma_profile": { 
			"-0.025": 0.0,
			"-0.024": 0.0,
			"-0.023": 0.0,
			"-0.022": 0.0,
			"-0.021": 0.0,
			"-0.02": 0.0,
			"-0.019": 0.0,
			"-0.018": 0.0,
			"-0.017": 0.0,
			"-0.016": 0.0,
			"-0.015": 0.0,
			"-0.014": 0.0,
			"-0.013": 0.411752080561,
			"-0.012": 0.6234530216,
			"-0.011": 1.1390997442,
			"-0.01": 0.677884116385,
			"-0.009": 1.01994585789,
			"-0.008": 1.16552721024,
			"-0.007": 3.23160112437,
			"-0.006": 9.91957451647,
			"-0.005": 17.631952211,
			"-0.004": 28.4228388933,
			"-0.003": 27.1642673256,
			"-0.002": 24.7768838521,
			"-0.001": 17.9570362174,
			"0.0": 15.8754679371,
			"0.001": 16.6124407806,
			"0.002": 16.8402516784,
			"0.003": 17.5747217363,
			"0.004": 23.588408431,
			"0.005": 17.647019045,
			"0.006": 5.62565576437,
			"0.007": 4.514696923,
			"0.008": 4.65109375583,
			"0.009": 3.37797916872,
			"0.01": 1.20977744592,
			"0.011": 0.820607091095,
			"0.012": 0.662928225496,
			"0.013": 1.1244852954,
			"0.014": 0.542413366349,
			"0.015": 0.635550201521,
			"0.016": 0.113093776731,
			"0.017": 0.0,
			"0.018": 0.0,
			"0.019": 0.0,
			"0.02": 0.0,
			"0.021": 0.0,
			"0.022": 0.0,
			"0.023": 0.0,
			"0.024": 0.0,
			"0.025": 0.0
		}
	}
}
