{
	 "smiles": "ClS(=O)(=O)C1=C(C=CC=C1)C1=CC=CC=C1", 
	 "Tm": 368.15, 
	 "num_atms": 25, 
	 "gaussian": { 
		 "optdone": 1, 
		 "sigma_profile": "yes", 
		 "theory": "DFT", 
		 "functional": "B3LYP", 
		 "basiset": "6-31G**", 
		 "properties": { 
			 "R2extent": 4214.186, 
			 "electric_dipole_moment_norm": 5.15359259352, 
			 "electric_quadrupole_moment_norm": 19.0595392502, 
			 "total_energy": -1471.45860434, 
			 "HOMO_LUMO_gap": 0.16614, 
			 "cosmo_polarized_energy": -10.12, 
			 "cosmo_cavitation_energy": 32.05, 
			 "cosmo_dispersion_energy": -23.2, 
			 "cosmo_repulsion_energy": 1.76, 
			 "cosmo_total_nonelectrostatic_energy": 10.61, 
			 "SMD_solvation_energy": 4.13 
		},
		"coords": [
			{
				"x": 1.2599369912,
				"y": 0.1426820404,
				"z": 2.3039235978,
				"element": "Cl" 
			},
			{
				"x": -0.541806861,
				"y": 1.2740965115,
				"z": 2.2312927191,
				"element": "S" 
			},
			{
				"x": -0.3716632665,
				"y": 2.3543699896,
				"z": 3.1970053678,
				"element": "O" 
			},
			{
				"x": -1.6396914864,
				"y": 0.3243044624,
				"z": 2.3628793634,
				"element": "O" 
			},
			{
				"x": -0.471582751,
				"y": 1.9738072537,
				"z": 0.5697163514,
				"element": "C" 
			},
			{
				"x": -0.5177556073,
				"y": 1.1967054166,
				"z": -0.6072458794,
				"element": "C" 
			},
			{
				"x": -0.4228713891,
				"y": 1.9032661096,
				"z": -1.818508108,
				"element": "C" 
			},
			{
				"x": -0.30608825,
				"y": 3.2914185172,
				"z": -1.8622100127,
				"element": "C" 
			},
			{
				"x": -0.2715662853,
				"y": 4.0291038582,
				"z": -0.6801152441,
				"element": "C" 
			},
			{
				"x": -0.3440923851,
				"y": 3.3669096765,
				"z": 0.5424340623,
				"element": "C" 
			},
			{
				"x": -0.6222689513,
				"y": -0.2920298861,
				"z": -0.6860418679,
				"element": "C" 
			},
			{
				"x": -1.7791524099,
				"y": -0.9784720534,
				"z": -0.2896901494,
				"element": "C" 
			},
			{
				"x": -1.8725826985,
				"y": -2.3588170555,
				"z": -0.4658031032,
				"element": "C" 
			},
			{
				"x": -0.8165005594,
				"y": -3.0708728432,
				"z": -1.0362402842,
				"element": "C" 
			},
			{
				"x": 0.3365746616,
				"y": -2.3949995643,
				"z": -1.4387171799,
				"element": "C" 
			},
			{
				"x": 0.4296905903,
				"y": -1.0138993218,
				"z": -1.2726368106,
				"element": "C" 
			},
			{
				"x": -0.4567097063,
				"y": 1.333560556,
				"z": -2.7416658172,
				"element": "H" 
			},
			{
				"x": -0.2432669604,
				"y": 3.7943120012,
				"z": -2.8226414155,
				"element": "H" 
			},
			{
				"x": -0.1807702905,
				"y": 5.1102712156,
				"z": -0.7027416492,
				"element": "H" 
			},
			{
				"x": -0.2955634436,
				"y": 3.9136608018,
				"z": 1.4760989841,
				"element": "H" 
			},
			{
				"x": -2.6022082964,
				"y": -0.433052102,
				"z": 0.1561195553,
				"element": "H" 
			},
			{
				"x": -2.775036305,
				"y": -2.8770232827,
				"z": -0.1555112659,
				"element": "H" 
			},
			{
				"x": -0.8917238013,
				"y": -4.1464878839,
				"z": -1.1668347492,
				"element": "H" 
			},
			{
				"x": 1.1643407023,
				"y": -2.9410583754,
				"z": -1.8816375991,
				"element": "H" 
			},
			{
				"x": 1.3287587589,
				"y": -0.4890560421,
				"z": -1.5823288658,
				"element": "H" 
			}
		],
		 "valence_orbital": [ 
			{
				"type": "occ",
				"energy": -0.308,
				"method": "rhf"
			},
			{
				"type": "occ",
				"energy": -0.2866,
				"method": "rhf"
			},
			{
				"type": "occ",
				"energy": -0.28445,
				"method": "rhf"
			},
			{
				"type": "occ",
				"energy": -0.25633,
				"method": "rhf"
			},
			{
				"type": "occ",
				"energy": -0.25058,
				"method": "rhf"
			},
			{
				"type": "unocc",
				"energy": -0.08444,
				"method": "rhf"
			},
			{
				"type": "unocc",
				"energy": -0.04472,
				"method": "rhf"
			},
			{
				"type": "unocc",
				"energy": -0.03666,
				"method": "rhf"
			},
			{
				"type": "unocc",
				"energy": -0.00692,
				"method": "rhf"
			},
			{
				"type": "unocc",
				"energy": -0.00503,
				"method": "rhf"
			}
		],
		"cosmo_sigma_profile": { 
			"-0.025": 0.0,
			"-0.024": 0.0,
			"-0.023": 0.0,
			"-0.022": 0.0,
			"-0.021": 0.0,
			"-0.02": 0.0,
			"-0.019": 0.0,
			"-0.018": 0.0,
			"-0.017": 0.0,
			"-0.016": 0.0,
			"-0.015": 0.0,
			"-0.014": 0.0,
			"-0.013": 0.0,
			"-0.012": 0.0,
			"-0.011": 0.0,
			"-0.01": 0.0,
			"-0.009": 0.0,
			"-0.008": 2.45719073897,
			"-0.007": 8.22468327657,
			"-0.006": 16.8030606904,
			"-0.005": 16.9509741635,
			"-0.004": 20.3810326093,
			"-0.003": 19.0163458986,
			"-0.002": 16.9530848061,
			"-0.001": 17.6630302439,
			"0.0": 20.617491764,
			"0.001": 21.9240412865,
			"0.002": 23.3314094923,
			"0.003": 19.4974614862,
			"0.004": 18.7082247775,
			"0.005": 12.7501592455,
			"0.006": 5.83083580149,
			"0.007": 5.5507798954,
			"0.008": 7.58032638889,
			"0.009": 5.91195379477,
			"0.01": 0.118508924197,
			"0.011": 0.0,
			"0.012": 0.0,
			"0.013": 0.0,
			"0.014": 0.0,
			"0.015": 0.0,
			"0.016": 0.0,
			"0.017": 0.0,
			"0.018": 0.0,
			"0.019": 0.0,
			"0.02": 0.0,
			"0.021": 0.0,
			"0.022": 0.0,
			"0.023": 0.0,
			"0.024": 0.0,
			"0.025": 0.0
		}
	}
}
