{
	 "smiles": "CN1CCCN=C1C=CC1=CC=CS1", 
	 "Tm": 451.15, 
	 "num_atms": 28, 
	 "gaussian": { 
		 "optdone": 1, 
		 "sigma_profile": "yes", 
		 "theory": "DFT", 
		 "functional": "B3LYP", 
		 "basiset": "6-31G**", 
		 "properties": { 
			 "R2extent": 4825.0025, 
			 "electric_dipole_moment_norm": 1.8136414585, 
			 "electric_quadrupole_moment_norm": 11.8114105131, 
			 "total_energy": -935.256713922, 
			 "HOMO_LUMO_gap": 0.15277, 
			 "cosmo_polarized_energy": -9.12, 
			 "cosmo_cavitation_energy": 31.98, 
			 "cosmo_dispersion_energy": -23.89, 
			 "cosmo_repulsion_energy": 1.84, 
			 "cosmo_total_nonelectrostatic_energy": 9.93, 
			 "SMD_solvation_energy": 1.39 
		},
		"coords": [
			{
				"x": 2.1207940186,
				"y": 0.9506195607,
				"z": -0.0629717741,
				"element": "C" 
			},
			{
				"x": 1.0419411443,
				"y": 1.0263596559,
				"z": 0.9268068058,
				"element": "N" 
			},
			{
				"x": 1.4833830484,
				"y": 1.4840796353,
				"z": 2.2503924241,
				"element": "C" 
			},
			{
				"x": 1.2943045814,
				"y": 2.9971732102,
				"z": 2.3885259291,
				"element": "C" 
			},
			{
				"x": -0.1930548522,
				"y": 3.2945709528,
				"z": 2.1643510414,
				"element": "C" 
			},
			{
				"x": -0.8164412778,
				"y": 2.5547733392,
				"z": 1.0759872463,
				"element": "N" 
			},
			{
				"x": -0.1948426488,
				"y": 1.5735949256,
				"z": 0.5150060697,
				"element": "C" 
			},
			{
				"x": -0.905076871,
				"y": 0.9015655303,
				"z": -0.5902748012,
				"element": "C" 
			},
			{
				"x": -0.7131018544,
				"y": -0.3785952075,
				"z": -0.970010531,
				"element": "C" 
			},
			{
				"x": -1.4436457174,
				"y": -1.066932942,
				"z": -2.0190906537,
				"element": "C" 
			},
			{
				"x": -2.4119218125,
				"y": -0.6095146352,
				"z": -2.891004915,
				"element": "C" 
			},
			{
				"x": -2.8908417959,
				"y": -1.6070285249,
				"z": -3.7829365531,
				"element": "C" 
			},
			{
				"x": -2.2898043434,
				"y": -2.8250101562,
				"z": -3.5970605131,
				"element": "C" 
			},
			{
				"x": -1.1247127915,
				"y": -2.7659729522,
				"z": -2.3196404208,
				"element": "S" 
			},
			{
				"x": 2.8249853406,
				"y": 0.1590417433,
				"z": 0.2146727442,
				"element": "H" 
			},
			{
				"x": 1.7124901088,
				"y": 0.7199983583,
				"z": -1.046208276,
				"element": "H" 
			},
			{
				"x": 2.6813107706,
				"y": 1.8961236785,
				"z": -0.1420095127,
				"element": "H" 
			},
			{
				"x": 2.5248792225,
				"y": 1.181183473,
				"z": 2.3900533339,
				"element": "H" 
			},
			{
				"x": 0.8892287588,
				"y": 0.9664439325,
				"z": 3.0145361703,
				"element": "H" 
			},
			{
				"x": 1.9056180639,
				"y": 3.5098232097,
				"z": 1.6351317107,
				"element": "H" 
			},
			{
				"x": 1.6225583096,
				"y": 3.3538717843,
				"z": 3.3713262008,
				"element": "H" 
			},
			{
				"x": -0.3526428872,
				"y": 4.3633957017,
				"z": 1.9717529785,
				"element": "H" 
			},
			{
				"x": -0.7578577233,
				"y": 3.0741199106,
				"z": 3.0824828811,
				"element": "H" 
			},
			{
				"x": -1.6857111345,
				"y": 1.5091599957,
				"z": -1.0379132107,
				"element": "H" 
			},
			{
				"x": 0.0371782641,
				"y": -0.9610526218,
				"z": -0.4396919847,
				"element": "H" 
			},
			{
				"x": -2.7662734206,
				"y": 0.4148483238,
				"z": -2.8915978161,
				"element": "H" 
			},
			{
				"x": -3.6509716658,
				"y": -1.4277973595,
				"z": -4.5349999749,
				"element": "H" 
			},
			{
				"x": -2.4632708351,
				"y": -3.7477425221,
				"z": -4.1328145989,
				"element": "H" 
			}
		],
		 "valence_orbital": [ 
			{
				"type": "occ",
				"energy": -0.2798,
				"method": "rhf"
			},
			{
				"type": "occ",
				"energy": -0.25164,
				"method": "rhf"
			},
			{
				"type": "occ",
				"energy": -0.23814,
				"method": "rhf"
			},
			{
				"type": "occ",
				"energy": -0.21661,
				"method": "rhf"
			},
			{
				"type": "occ",
				"energy": -0.20311,
				"method": "rhf"
			},
			{
				"type": "unocc",
				"energy": -0.05034,
				"method": "rhf"
			},
			{
				"type": "unocc",
				"energy": 0.01843,
				"method": "rhf"
			},
			{
				"type": "unocc",
				"energy": 0.02638,
				"method": "rhf"
			},
			{
				"type": "unocc",
				"energy": 0.06039,
				"method": "rhf"
			},
			{
				"type": "unocc",
				"energy": 0.08536,
				"method": "rhf"
			}
		],
		"cosmo_sigma_profile": { 
			"-0.025": 0.0,
			"-0.024": 0.0,
			"-0.023": 0.0,
			"-0.022": 0.0,
			"-0.021": 0.0,
			"-0.02": 0.0,
			"-0.019": 0.0,
			"-0.018": 0.0,
			"-0.017": 0.0,
			"-0.016": 0.0,
			"-0.015": 0.0,
			"-0.014": 0.0,
			"-0.013": 0.0,
			"-0.012": 0.0,
			"-0.011": 0.0,
			"-0.01": 0.0,
			"-0.009": 0.479439423494,
			"-0.008": 2.1044287604,
			"-0.007": 5.40498398718,
			"-0.006": 8.15104614127,
			"-0.005": 9.45856937914,
			"-0.004": 19.6906370993,
			"-0.003": 33.2456614855,
			"-0.002": 31.3313904305,
			"-0.001": 31.5692785502,
			"0.0": 17.1519885032,
			"0.001": 13.6682365075,
			"0.002": 14.3408772846,
			"0.003": 15.5670313244,
			"0.004": 21.8054847853,
			"0.005": 13.4388646879,
			"0.006": 3.07724213378,
			"0.007": 2.66530685654,
			"0.008": 2.17099743905,
			"0.009": 1.70121241923,
			"0.01": 1.29517389431,
			"0.011": 0.543235637634,
			"0.012": 1.31763445569,
			"0.013": 1.07719761428,
			"0.014": 0.78358462833,
			"0.015": 0.891690596031,
			"0.016": 0.948878568181,
			"0.017": 0.548472745009,
			"0.018": 0.763839683275,
			"0.019": 0.0215212298248,
			"0.02": 0.0,
			"0.021": 0.0,
			"0.022": 0.0,
			"0.023": 0.0,
			"0.024": 0.0,
			"0.025": 0.0
		}
	}
}
