{
	 "smiles": "CCOC1=C(OCC)C=C(C(Br)=C1)[N+]([O-])=O", 
	 "Tm": 336.15, 
	 "num_atms": 28, 
	 "gaussian": { 
		 "optdone": 1, 
		 "sigma_profile": "yes", 
		 "theory": "DFT", 
		 "functional": "B3LYP", 
		 "basiset": "6-31G**", 
		 "properties": { 
			 "R2extent": 7534.9997, 
			 "electric_dipole_moment_norm": 7.13687227432, 
			 "electric_quadrupole_moment_norm": 22.3018996899, 
			 "total_energy": -3315.21983236, 
			 "HOMO_LUMO_gap": 0.15989, 
			 "cosmo_polarized_energy": -12.29, 
			 "cosmo_cavitation_energy": 34.58, 
			 "cosmo_dispersion_energy": -24.77, 
			 "cosmo_repulsion_energy": 1.99, 
			 "cosmo_total_nonelectrostatic_energy": 11.8, 
			 "SMD_solvation_energy": 7.87 
		},
		"coords": [
			{
				"x": -3.2377059807,
				"y": -1.9512907336,
				"z": 0.030887044,
				"element": "C" 
			},
			{
				"x": -2.1069006904,
				"y": -1.9807743657,
				"z": -0.9899860403,
				"element": "C" 
			},
			{
				"x": -1.1418152676,
				"y": -0.9378843651,
				"z": -0.7718354565,
				"element": "O" 
			},
			{
				"x": -0.1596775177,
				"y": -1.0914043332,
				"z": 0.1456645733,
				"element": "C" 
			},
			{
				"x": 0.762229473,
				"y": -0.0183137767,
				"z": 0.2524520662,
				"element": "C" 
			},
			{
				"x": 0.6789927582,
				"y": 1.0789510117,
				"z": -0.555987018,
				"element": "O" 
			},
			{
				"x": -0.4130363552,
				"y": 1.9865954855,
				"z": -0.3005977015,
				"element": "C" 
			},
			{
				"x": -0.3021940637,
				"y": 3.1222467778,
				"z": -1.3002667478,
				"element": "C" 
			},
			{
				"x": 1.8156906915,
				"y": -0.1240037717,
				"z": 1.1433635072,
				"element": "C" 
			},
			{
				"x": 1.9840845244,
				"y": -1.2550118469,
				"z": 1.9532985483,
				"element": "C" 
			},
			{
				"x": 1.073898553,
				"y": -2.3141663022,
				"z": 1.8588233886,
				"element": "C" 
			},
			{
				"x": 1.1896099914,
				"y": -3.9466009043,
				"z": 2.8271661537,
				"element": "Br" 
			},
			{
				"x": 0.0150522023,
				"y": -2.2209589064,
				"z": 0.9508924606,
				"element": "C" 
			},
			{
				"x": 3.1276063154,
				"y": -1.2253011458,
				"z": 2.8733366477,
				"element": "N" 
			},
			{
				"x": 4.0515688931,
				"y": -0.4597469522,
				"z": 2.5890463671,
				"element": "O" 
			},
			{
				"x": 3.0948323901,
				"y": -1.9360996518,
				"z": 3.8743673638,
				"element": "O" 
			},
			{
				"x": -3.979197475,
				"y": -2.7175843377,
				"z": -0.2174127288,
				"element": "H" 
			},
			{
				"x": -3.7349307712,
				"y": -0.9773019663,
				"z": 0.0200129519,
				"element": "H" 
			},
			{
				"x": -2.8793001801,
				"y": -2.1416499189,
				"z": 1.0459936226,
				"element": "H" 
			},
			{
				"x": -1.6040110918,
				"y": -2.954319927,
				"z": -1.0185675233,
				"element": "H" 
			},
			{
				"x": -2.4906380158,
				"y": -1.7790937837,
				"z": -1.9930817435,
				"element": "H" 
			},
			{
				"x": -1.3661157113,
				"y": 1.4578311098,
				"z": -0.4065678897,
				"element": "H" 
			},
			{
				"x": -0.334331078,
				"y": 2.3575435516,
				"z": 0.730698239,
				"element": "H" 
			},
			{
				"x": -0.3796788407,
				"y": 2.7422717329,
				"z": -2.3227885775,
				"element": "H" 
			},
			{
				"x": 0.6564568179,
				"y": 3.6379385629,
				"z": -1.1955697431,
				"element": "H" 
			},
			{
				"x": -1.106460948,
				"y": 3.8462655338,
				"z": -1.1362928601,
				"element": "H" 
			},
			{
				"x": 2.5359016291,
				"y": 0.6810447851,
				"z": 1.2105933032,
				"element": "H" 
			},
			{
				"x": -0.6647302521,
				"y": -3.0583815617,
				"z": 0.8806577928,
				"element": "H" 
			}
		],
		 "valence_orbital": [ 
			{
				"type": "occ",
				"energy": -0.29398,
				"method": "rhf"
			},
			{
				"type": "occ",
				"energy": -0.28726,
				"method": "rhf"
			},
			{
				"type": "occ",
				"energy": -0.27265,
				"method": "rhf"
			},
			{
				"type": "occ",
				"energy": -0.26035,
				"method": "rhf"
			},
			{
				"type": "occ",
				"energy": -0.24006,
				"method": "rhf"
			},
			{
				"type": "unocc",
				"energy": -0.08017,
				"method": "rhf"
			},
			{
				"type": "unocc",
				"energy": -0.02884,
				"method": "rhf"
			},
			{
				"type": "unocc",
				"energy": -0.00796,
				"method": "rhf"
			},
			{
				"type": "unocc",
				"energy": 0.00336,
				"method": "rhf"
			},
			{
				"type": "unocc",
				"energy": 0.07568,
				"method": "rhf"
			}
		],
		"cosmo_sigma_profile": { 
			"-0.025": 0.0,
			"-0.024": 0.0,
			"-0.023": 0.0,
			"-0.022": 0.0,
			"-0.021": 0.0,
			"-0.02": 0.0,
			"-0.019": 0.0,
			"-0.018": 0.0,
			"-0.017": 0.0,
			"-0.016": 0.0,
			"-0.015": 0.0,
			"-0.014": 0.0,
			"-0.013": 0.0,
			"-0.012": 0.0,
			"-0.011": 0.0,
			"-0.01": 0.090649155946,
			"-0.009": 1.22596367862,
			"-0.008": 2.06555791458,
			"-0.007": 4.12014503714,
			"-0.006": 8.73906629205,
			"-0.005": 14.2753930994,
			"-0.004": 27.7349430056,
			"-0.003": 30.8528132335,
			"-0.002": 27.0810329581,
			"-0.001": 30.8615943028,
			"0.0": 33.1740140376,
			"0.001": 17.9018185934,
			"0.002": 9.87176987291,
			"0.003": 13.5323947365,
			"0.004": 9.77335909231,
			"0.005": 5.24971655236,
			"0.006": 5.97748188965,
			"0.007": 8.76654596501,
			"0.008": 12.2829937843,
			"0.009": 8.35709328545,
			"0.01": 4.55241982069,
			"0.011": 0.988847327058,
			"0.012": 0.0,
			"0.013": 0.0,
			"0.014": 0.0,
			"0.015": 0.0,
			"0.016": 0.0,
			"0.017": 0.0,
			"0.018": 0.0,
			"0.019": 0.0,
			"0.02": 0.0,
			"0.021": 0.0,
			"0.022": 0.0,
			"0.023": 0.0,
			"0.024": 0.0,
			"0.025": 0.0
		}
	}
}
