{
	 "smiles": "CN(CC(O)=O)C(=O)C1=CC=CS1", 
	 "Tm": 375.15, 
	 "num_atms": 22, 
	 "gaussian": { 
		 "optdone": 1, 
		 "sigma_profile": "yes", 
		 "theory": "DFT", 
		 "functional": "B3LYP", 
		 "basiset": "6-31G**", 
		 "properties": { 
			 "R2extent": 3140.2485, 
			 "electric_dipole_moment_norm": 3.46793073893, 
			 "electric_quadrupole_moment_norm": 25.4095217818, 
			 "total_energy": -988.879210006, 
			 "HOMO_LUMO_gap": 0.19348, 
			 "cosmo_polarized_energy": -18.47, 
			 "cosmo_cavitation_energy": 27.81, 
			 "cosmo_dispersion_energy": -20.35, 
			 "cosmo_repulsion_energy": 1.57, 
			 "cosmo_total_nonelectrostatic_energy": 9.04, 
			 "SMD_solvation_energy": 6.94 
		},
		"coords": [
			{
				"x": -1.65381383,
				"y": 2.2025109653,
				"z": 0.4452535289,
				"element": "C" 
			},
			{
				"x": -1.2019941716,
				"y": 0.8192551929,
				"z": 0.2608539228,
				"element": "N" 
			},
			{
				"x": -2.2262272165,
				"y": -0.2034576454,
				"z": 0.3974630646,
				"element": "C" 
			},
			{
				"x": -3.3050954766,
				"y": -0.1496114192,
				"z": -0.6991094806,
				"element": "C" 
			},
			{
				"x": -2.9056777158,
				"y": 0.3573099304,
				"z": -1.8855166766,
				"element": "O" 
			},
			{
				"x": -4.4174070971,
				"y": -0.5787201489,
				"z": -0.5293710999,
				"element": "O" 
			},
			{
				"x": 0.1586459058,
				"y": 0.59878407,
				"z": 0.0624186022,
				"element": "C" 
			},
			{
				"x": 0.9068680585,
				"y": 1.5160368745,
				"z": -0.2636179102,
				"element": "O" 
			},
			{
				"x": 0.7072857309,
				"y": -0.7725788749,
				"z": 0.2412622491,
				"element": "C" 
			},
			{
				"x": 0.4495795339,
				"y": -1.7540839372,
				"z": 1.1754004409,
				"element": "C" 
			},
			{
				"x": 1.3333232598,
				"y": -2.864848029,
				"z": 1.0788587599,
				"element": "C" 
			},
			{
				"x": 2.2558133414,
				"y": -2.712258422,
				"z": 0.0763580293,
				"element": "C" 
			},
			{
				"x": 2.0840723498,
				"y": -1.2031933385,
				"z": -0.7420290479,
				"element": "S" 
			},
			{
				"x": -2.0895507348,
				"y": 2.3223981163,
				"z": 1.4442641629,
				"element": "H" 
			},
			{
				"x": -2.4122692829,
				"y": 2.4706861568,
				"z": -0.2975361976,
				"element": "H" 
			},
			{
				"x": -0.7954257018,
				"y": 2.8615307514,
				"z": 0.3320363976,
				"element": "H" 
			},
			{
				"x": -1.7723278233,
				"y": -1.1926211345,
				"z": 0.3269341996,
				"element": "H" 
			},
			{
				"x": -2.7450291666,
				"y": -0.1368460076,
				"z": 1.3600271884,
				"element": "H" 
			},
			{
				"x": -1.9821760112,
				"y": 0.6500341811,
				"z": -1.8052742721,
				"element": "H" 
			},
			{
				"x": -0.3206335529,
				"y": -1.6735929614,
				"z": 1.9335258643,
				"element": "H" 
			},
			{
				"x": 1.2854752007,
				"y": -3.7329261881,
				"z": 1.7258456155,
				"element": "H" 
			},
			{
				"x": 3.0300644003,
				"y": -3.4048081322,
				"z": -0.2249473411,
				"element": "H" 
			}
		],
		 "valence_orbital": [ 
			{
				"type": "occ",
				"energy": -0.29549,
				"method": "rhf"
			},
			{
				"type": "occ",
				"energy": -0.27988,
				"method": "rhf"
			},
			{
				"type": "occ",
				"energy": -0.2703,
				"method": "rhf"
			},
			{
				"type": "occ",
				"energy": -0.26014,
				"method": "rhf"
			},
			{
				"type": "occ",
				"energy": -0.25111,
				"method": "rhf"
			},
			{
				"type": "unocc",
				"energy": -0.05763,
				"method": "rhf"
			},
			{
				"type": "unocc",
				"energy": -0.0017,
				"method": "rhf"
			},
			{
				"type": "unocc",
				"energy": 0.01358,
				"method": "rhf"
			},
			{
				"type": "unocc",
				"energy": 0.0241,
				"method": "rhf"
			},
			{
				"type": "unocc",
				"energy": 0.05837,
				"method": "rhf"
			}
		],
		"cosmo_sigma_profile": { 
			"-0.025": 0.0,
			"-0.024": 0.0,
			"-0.023": 0.0,
			"-0.022": 0.0,
			"-0.021": 0.0,
			"-0.02": 0.0,
			"-0.019": 0.0,
			"-0.018": 0.0,
			"-0.017": 0.0,
			"-0.016": 0.33960899553,
			"-0.015": 0.798553217645,
			"-0.014": 1.19023244435,
			"-0.013": 1.40085774817,
			"-0.012": 1.49661311699,
			"-0.011": 1.29032095797,
			"-0.01": 1.00941320855,
			"-0.009": 3.77441936797,
			"-0.008": 9.26631072213,
			"-0.007": 13.456516485,
			"-0.006": 14.7896863338,
			"-0.005": 15.898383945,
			"-0.004": 12.5225058613,
			"-0.003": 14.5246029075,
			"-0.002": 13.8278303627,
			"-0.001": 10.0466496908,
			"0.0": 9.20093118087,
			"0.001": 9.64868627827,
			"0.002": 14.6911701151,
			"0.003": 15.6587718814,
			"0.004": 9.14259665041,
			"0.005": 4.69070097662,
			"0.006": 4.61714521998,
			"0.007": 3.94349611853,
			"0.008": 4.20904198663,
			"0.009": 5.76435650597,
			"0.01": 7.02825232178,
			"0.011": 6.71060622897,
			"0.012": 8.50625062513,
			"0.013": 4.36985027264,
			"0.014": 0.225253405251,
			"0.015": 0.0,
			"0.016": 0.0,
			"0.017": 0.0,
			"0.018": 0.0,
			"0.019": 0.0,
			"0.02": 0.0,
			"0.021": 0.0,
			"0.022": 0.0,
			"0.023": 0.0,
			"0.024": 0.0,
			"0.025": 0.0
		}
	}
}
