{
	 "smiles": "NC#N", 
	 "Tm": 317.95, 
	 "num_atms": 5, 
	 "gaussian": { 
		 "optdone": 1, 
		 "sigma_profile": "yes", 
		 "theory": "DFT", 
		 "functional": "B3LYP", 
		 "basiset": "6-31G**", 
		 "properties": { 
			 "R2extent": 210.5213, 
			 "electric_dipole_moment_norm": 4.51187658298, 
			 "electric_quadrupole_moment_norm": 6.63245359954, 
			 "total_energy": -148.78319264, 
			 "HOMO_LUMO_gap": 0.3076, 
			 "cosmo_polarized_energy": -14.33, 
			 "cosmo_cavitation_energy": 9.61, 
			 "cosmo_dispersion_energy": -6.66, 
			 "cosmo_repulsion_energy": 0.67, 
			 "cosmo_total_nonelectrostatic_energy": 3.62, 
			 "SMD_solvation_energy": 5.06 
		},
		"coords": [
			{
				"x": -1.2602622797,
				"y": 0.9858283188,
				"z": 0.1128527612,
				"element": "N" 
			},
			{
				"x": -0.3771900426,
				"y": 0.2452669695,
				"z": 0.8090501448,
				"element": "C" 
			},
			{
				"x": 0.4252989539,
				"y": -0.3619275059,
				"z": 1.3975402899,
				"element": "N" 
			},
			{
				"x": -1.9656069462,
				"y": 1.4471465405,
				"z": 0.6739456501,
				"element": "H" 
			},
			{
				"x": -1.6394396853,
				"y": 0.5343856771,
				"z": -0.710288846,
				"element": "H" 
			}
		],
		 "valence_orbital": [ 
			{
				"type": "occ",
				"energy": -0.56062,
				"method": "rhf"
			},
			{
				"type": "occ",
				"energy": -0.39853,
				"method": "rhf"
			},
			{
				"type": "occ",
				"energy": -0.35364,
				"method": "rhf"
			},
			{
				"type": "occ",
				"energy": -0.32719,
				"method": "rhf"
			},
			{
				"type": "occ",
				"energy": -0.27191,
				"method": "rhf"
			},
			{
				"type": "unocc",
				"energy": 0.03569,
				"method": "rhf"
			},
			{
				"type": "unocc",
				"energy": 0.03913,
				"method": "rhf"
			},
			{
				"type": "unocc",
				"energy": 0.08749,
				"method": "rhf"
			},
			{
				"type": "unocc",
				"energy": 0.13476,
				"method": "rhf"
			},
			{
				"type": "unocc",
				"energy": 0.19971,
				"method": "rhf"
			}
		],
		"cosmo_sigma_profile": { 
			"-0.025": 0.0,
			"-0.024": 0.0,
			"-0.023": 0.0,
			"-0.022": 0.0,
			"-0.021": 0.0,
			"-0.02": 0.0,
			"-0.019": 0.0,
			"-0.018": 0.0,
			"-0.017": 0.327762384806,
			"-0.016": 3.69256209244,
			"-0.015": 3.36015822845,
			"-0.014": 2.23235067627,
			"-0.013": 3.09214335223,
			"-0.012": 2.78857977316,
			"-0.011": 1.55080364266,
			"-0.01": 2.44894705834,
			"-0.009": 1.1529234897,
			"-0.008": 0.888379968429,
			"-0.007": 2.22453599623,
			"-0.006": 1.51058934555,
			"-0.005": 1.56339355001,
			"-0.004": 1.25759686134,
			"-0.003": 2.1266208523,
			"-0.002": 2.04918017433,
			"-0.001": 1.41657956228,
			"0.0": 1.92554846736,
			"0.001": 1.74898551875,
			"0.002": 3.25914971491,
			"0.003": 3.34187211297,
			"0.004": 2.60569578129,
			"0.005": 2.20191232685,
			"0.006": 2.84737484535,
			"0.007": 2.55486075489,
			"0.008": 3.08885438011,
			"0.009": 3.72084267286,
			"0.01": 3.69291590731,
			"0.011": 3.47088896013,
			"0.012": 3.51921925762,
			"0.013": 2.7783698479,
			"0.014": 2.45443082903,
			"0.015": 0.418059545171,
			"0.016": 0.0,
			"0.017": 0.0,
			"0.018": 0.0,
			"0.019": 0.0,
			"0.02": 0.0,
			"0.021": 0.0,
			"0.022": 0.0,
			"0.023": 0.0,
			"0.024": 0.0,
			"0.025": 0.0
		}
	}
}
