{
	 "smiles": "O=C1CCC2(OCC(N12)C1=CC=CC=C1)C1=CC=CC=C1", 
	 "Tm": 351.15, 
	 "num_atms": 38, 
	 "gaussian": { 
		 "optdone": 1, 
		 "sigma_profile": "yes", 
		 "theory": "DFT", 
		 "functional": "B3LYP", 
		 "basiset": "6-31G**", 
		 "properties": { 
			 "R2extent": 5689.8598, 
			 "electric_dipole_moment_norm": 2.79307524066, 
			 "electric_quadrupole_moment_norm": 11.2254219872, 
			 "total_energy": -901.368813753, 
			 "HOMO_LUMO_gap": 0.2271, 
			 "cosmo_polarized_energy": -12.95, 
			 "cosmo_cavitation_energy": 39.66, 
			 "cosmo_dispersion_energy": -27.16, 
			 "cosmo_repulsion_energy": 2.07, 
			 "cosmo_total_nonelectrostatic_energy": 14.58, 
			 "SMD_solvation_energy": 6.78 
		},
		"coords": [
			{
				"x": 0.5516082429,
				"y": -2.9690761091,
				"z": -1.4265991397,
				"element": "O" 
			},
			{
				"x": 1.1142310101,
				"y": -2.1751668776,
				"z": -0.6974582932,
				"element": "C" 
			},
			{
				"x": 2.6156709129,
				"y": -2.0326779204,
				"z": -0.4444304759,
				"element": "C" 
			},
			{
				"x": 2.6813106476,
				"y": -1.4793500164,
				"z": 0.9907279944,
				"element": "C" 
			},
			{
				"x": 1.3431736602,
				"y": -0.7112672695,
				"z": 1.1660858146,
				"element": "C" 
			},
			{
				"x": 0.6828848445,
				"y": -1.1120923922,
				"z": 2.3661931223,
				"element": "O" 
			},
			{
				"x": -0.7147721637,
				"y": -1.0072422526,
				"z": 2.0892350603,
				"element": "C" 
			},
			{
				"x": -0.8816767207,
				"y": -1.4879019905,
				"z": 0.6180088441,
				"element": "C" 
			},
			{
				"x": 0.4746379451,
				"y": -1.235184704,
				"z": 0.0992881703,
				"element": "N" 
			},
			{
				"x": -2.0234142709,
				"y": -0.8237053817,
				"z": -0.1255779862,
				"element": "C" 
			},
			{
				"x": -3.1392303527,
				"y": -1.5854874822,
				"z": -0.4899883084,
				"element": "C" 
			},
			{
				"x": -4.2281915879,
				"y": -0.996191965,
				"z": -1.1348926201,
				"element": "C" 
			},
			{
				"x": -4.2103922344,
				"y": 0.3671644218,
				"z": -1.4291269126,
				"element": "C" 
			},
			{
				"x": -3.0980690926,
				"y": 1.1350459529,
				"z": -1.0754703808,
				"element": "C" 
			},
			{
				"x": -2.0135676583,
				"y": 0.5454090684,
				"z": -0.4269473066,
				"element": "C" 
			},
			{
				"x": 1.5221910438,
				"y": 0.8075500134,
				"z": 1.1151260018,
				"element": "C" 
			},
			{
				"x": 1.589656934,
				"y": 1.4882321483,
				"z": -0.1068835611,
				"element": "C" 
			},
			{
				"x": 1.8344863403,
				"y": 2.8627288582,
				"z": -0.138853087,
				"element": "C" 
			},
			{
				"x": 2.0126402792,
				"y": 3.5717660385,
				"z": 1.0503154422,
				"element": "C" 
			},
			{
				"x": 1.9440002791,
				"y": 2.8986659864,
				"z": 2.2718206808,
				"element": "C" 
			},
			{
				"x": 1.7036223216,
				"y": 1.5244716162,
				"z": 2.3044466537,
				"element": "C" 
			},
			{
				"x": 3.0452695936,
				"y": -1.334425939,
				"z": -1.1723805602,
				"element": "H" 
			},
			{
				"x": 3.1077681591,
				"y": -2.9973852422,
				"z": -0.5791580141,
				"element": "H" 
			},
			{
				"x": 2.6778986472,
				"y": -2.2968746592,
				"z": 1.7175916743,
				"element": "H" 
			},
			{
				"x": 3.5499948765,
				"y": -0.8473923781,
				"z": 1.1817084378,
				"element": "H" 
			},
			{
				"x": -1.2510162315,
				"y": -1.6351750437,
				"z": 2.8035210624,
				"element": "H" 
			},
			{
				"x": -1.0576111446,
				"y": 0.0306802909,
				"z": 2.1933745372,
				"element": "H" 
			},
			{
				"x": -1.0413158203,
				"y": -2.5715515181,
				"z": 0.5886820384,
				"element": "H" 
			},
			{
				"x": -3.1511413013,
				"y": -2.6511742587,
				"z": -0.275502916,
				"element": "H" 
			},
			{
				"x": -5.0843644456,
				"y": -1.604196748,
				"z": -1.4129572037,
				"element": "H" 
			},
			{
				"x": -5.0538907133,
				"y": 0.8283107116,
				"z": -1.9349483016,
				"element": "H" 
			},
			{
				"x": -3.0741920648,
				"y": 2.1964080195,
				"z": -1.3065396551,
				"element": "H" 
			},
			{
				"x": -1.1501940473,
				"y": 1.1490140634,
				"z": -0.1642022801,
				"element": "H" 
			},
			{
				"x": 1.4304045896,
				"y": 0.9433898225,
				"z": -1.0324168624,
				"element": "H" 
			},
			{
				"x": 1.8801010184,
				"y": 3.3790296584,
				"z": -1.0936274248,
				"element": "H" 
			},
			{
				"x": 2.1995039454,
				"y": 4.6414774085,
				"z": 1.0254878826,
				"element": "H" 
			},
			{
				"x": 2.0757671471,
				"y": 3.4442499903,
				"z": 3.2020429134,
				"element": "H" 
			},
			{
				"x": 1.6448174118,
				"y": 0.997526079,
				"z": 3.2512049591,
				"element": "H" 
			}
		],
		 "valence_orbital": [ 
			{
				"type": "occ",
				"energy": -0.25499,
				"method": "rhf"
			},
			{
				"type": "occ",
				"energy": -0.25358,
				"method": "rhf"
			},
			{
				"type": "occ",
				"energy": -0.24916,
				"method": "rhf"
			},
			{
				"type": "occ",
				"energy": -0.24747,
				"method": "rhf"
			},
			{
				"type": "occ",
				"energy": -0.23865,
				"method": "rhf"
			},
			{
				"type": "unocc",
				"energy": -0.01155,
				"method": "rhf"
			},
			{
				"type": "unocc",
				"energy": -0.01028,
				"method": "rhf"
			},
			{
				"type": "unocc",
				"energy": -0.00372,
				"method": "rhf"
			},
			{
				"type": "unocc",
				"energy": 0.00109,
				"method": "rhf"
			},
			{
				"type": "unocc",
				"energy": 0.01783,
				"method": "rhf"
			}
		],
		"cosmo_sigma_profile": { 
			"-0.025": 0.0,
			"-0.024": 0.0,
			"-0.023": 0.0,
			"-0.022": 0.0,
			"-0.021": 0.0,
			"-0.02": 0.0,
			"-0.019": 0.0,
			"-0.018": 0.0,
			"-0.017": 0.0,
			"-0.016": 0.0,
			"-0.015": 0.0,
			"-0.014": 0.0,
			"-0.013": 0.0,
			"-0.012": 0.0,
			"-0.011": 0.0,
			"-0.01": 0.0,
			"-0.009": 0.0,
			"-0.008": 0.0,
			"-0.007": 1.31129875084,
			"-0.006": 18.6505578303,
			"-0.005": 32.3282752606,
			"-0.004": 34.3347023869,
			"-0.003": 33.5274242445,
			"-0.002": 27.1890949722,
			"-0.001": 24.0858442044,
			"0.0": 18.9890264552,
			"0.001": 17.1629501651,
			"0.002": 16.2634922246,
			"0.003": 17.1810459275,
			"0.004": 17.3551237343,
			"0.005": 20.8217284163,
			"0.006": 12.7606711973,
			"0.007": 2.43935100335,
			"0.008": 2.39771164629,
			"0.009": 3.02239383974,
			"0.01": 2.26379695303,
			"0.011": 3.27188512305,
			"0.012": 3.63170131309,
			"0.013": 4.9353195242,
			"0.014": 1.34413496952,
			"0.015": 0.0187690396039,
			"0.016": 0.0,
			"0.017": 0.0,
			"0.018": 0.0,
			"0.019": 0.0,
			"0.02": 0.0,
			"0.021": 0.0,
			"0.022": 0.0,
			"0.023": 0.0,
			"0.024": 0.0,
			"0.025": 0.0
		}
	}
}
