{
	 "smiles": "NCCCNCCO", 
	 "Tm": 290.15, 
	 "num_atms": 22, 
	 "gaussian": { 
		 "optdone": 1, 
		 "sigma_profile": "yes", 
		 "theory": "DFT", 
		 "functional": "B3LYP", 
		 "basiset": "6-31G**", 
		 "properties": { 
			 "R2extent": 2195.8041, 
			 "electric_dipole_moment_norm": 0.562595103071, 
			 "electric_quadrupole_moment_norm": 12.0964956392, 
			 "total_energy": -383.672260214, 
			 "HOMO_LUMO_gap": 0.28522, 
			 "cosmo_polarized_energy": -11.48, 
			 "cosmo_cavitation_energy": 23.82, 
			 "cosmo_dispersion_energy": -17.38, 
			 "cosmo_repulsion_energy": 1.5, 
			 "cosmo_total_nonelectrostatic_energy": 7.94, 
			 "SMD_solvation_energy": 1.74 
		},
		"coords": [
			{
				"x": 0.6800096845,
				"y": -1.1797638509,
				"z": -0.9222348707,
				"element": "N" 
			},
			{
				"x": 1.5173714371,
				"y": -0.0427447454,
				"z": -0.5213390402,
				"element": "C" 
			},
			{
				"x": 0.7570082313,
				"y": 1.2817028673,
				"z": -0.6803925719,
				"element": "C" 
			},
			{
				"x": -0.6209368804,
				"y": 1.2978309121,
				"z": -0.0068323482,
				"element": "C" 
			},
			{
				"x": -0.5457920175,
				"y": 0.8532911852,
				"z": 1.3874433817,
				"element": "N" 
			},
			{
				"x": -1.8167691608,
				"y": 0.7505507614,
				"z": 2.0982729096,
				"element": "C" 
			},
			{
				"x": -2.5589390851,
				"y": 2.068792399,
				"z": 2.3784857249,
				"element": "C" 
			},
			{
				"x": -3.7292829993,
				"y": 1.8644074444,
				"z": 3.1606485761,
				"element": "O" 
			},
			{
				"x": 0.0224357571,
				"y": -1.3672396379,
				"z": -0.1679301187,
				"element": "H" 
			},
			{
				"x": 1.2551810231,
				"y": -2.0143815874,
				"z": -1.0046167386,
				"element": "H" 
			},
			{
				"x": 1.8900511331,
				"y": -0.1210856431,
				"z": 0.5126122434,
				"element": "H" 
			},
			{
				"x": 2.3981097312,
				"y": -0.0178868785,
				"z": -1.1741441974,
				"element": "H" 
			},
			{
				"x": 0.6092533976,
				"y": 1.492294561,
				"z": -1.7460472239,
				"element": "H" 
			},
			{
				"x": 1.3781163259,
				"y": 2.0948826281,
				"z": -0.2783113193,
				"element": "H" 
			},
			{
				"x": -1.06353379,
				"y": 2.3009591043,
				"z": -0.1366901059,
				"element": "H" 
			},
			{
				"x": -1.2786319066,
				"y": 0.5972919245,
				"z": -0.5363240688,
				"element": "H" 
			},
			{
				"x": 0.0963076844,
				"y": 1.4460488892,
				"z": 1.9092647968,
				"element": "H" 
			},
			{
				"x": -2.4740393923,
				"y": 0.0870610376,
				"z": 1.5170355996,
				"element": "H" 
			},
			{
				"x": -1.6445141548,
				"y": 0.2537243305,
				"z": 3.0607391475,
				"element": "H" 
			},
			{
				"x": -1.9168457646,
				"y": 2.7327131389,
				"z": 2.9694125272,
				"element": "H" 
			},
			{
				"x": -2.7914646534,
				"y": 2.5944577136,
				"z": 1.4397762227,
				"element": "H" 
			},
			{
				"x": -4.3481946006,
				"y": 1.3433934463,
				"z": 2.6328714741,
				"element": "H" 
			}
		],
		 "valence_orbital": [ 
			{
				"type": "occ",
				"energy": -0.32399,
				"method": "rhf"
			},
			{
				"type": "occ",
				"energy": -0.32207,
				"method": "rhf"
			},
			{
				"type": "occ",
				"energy": -0.27944,
				"method": "rhf"
			},
			{
				"type": "occ",
				"energy": -0.2255,
				"method": "rhf"
			},
			{
				"type": "occ",
				"energy": -0.21596,
				"method": "rhf"
			},
			{
				"type": "unocc",
				"energy": 0.06926,
				"method": "rhf"
			},
			{
				"type": "unocc",
				"energy": 0.07618,
				"method": "rhf"
			},
			{
				"type": "unocc",
				"energy": 0.1058,
				"method": "rhf"
			},
			{
				"type": "unocc",
				"energy": 0.11477,
				"method": "rhf"
			},
			{
				"type": "unocc",
				"energy": 0.12052,
				"method": "rhf"
			}
		],
		"cosmo_sigma_profile": { 
			"-0.025": 0.0,
			"-0.024": 0.0,
			"-0.023": 0.0,
			"-0.022": 0.0,
			"-0.021": 0.0,
			"-0.02": 0.0,
			"-0.019": 0.0,
			"-0.018": 0.0,
			"-0.017": 0.0,
			"-0.016": 0.0630840979571,
			"-0.015": 0.974096507432,
			"-0.014": 0.899330123986,
			"-0.013": 0.93734531454,
			"-0.012": 1.16550473672,
			"-0.011": 1.02895587894,
			"-0.01": 0.619141531863,
			"-0.009": 3.02515198583,
			"-0.008": 3.98172662885,
			"-0.007": 5.37910574825,
			"-0.006": 4.83058410132,
			"-0.005": 6.69445465889,
			"-0.004": 7.51327495218,
			"-0.003": 18.1039237515,
			"-0.002": 24.4890707816,
			"-0.001": 22.9979602251,
			"0.0": 21.7832326682,
			"0.001": 12.7149585947,
			"0.002": 4.61111850415,
			"0.003": 3.94965800283,
			"0.004": 4.10348637296,
			"0.005": 3.22775815756,
			"0.006": 2.6106143663,
			"0.007": 3.56884635081,
			"0.008": 2.43754895491,
			"0.009": 2.85518796356,
			"0.01": 1.86927745088,
			"0.011": 2.48808461831,
			"0.012": 2.61478354918,
			"0.013": 3.21939527624,
			"0.014": 2.72107495007,
			"0.015": 2.21154360625,
			"0.016": 0.402161641871,
			"0.017": 0.34786227138,
			"0.018": 0.629420999683,
			"0.019": 0.707432081685,
			"0.02": 0.339715960909,
			"0.021": 0.075211429704,
			"0.022": 0.0,
			"0.023": 0.0,
			"0.024": 0.0,
			"0.025": 0.0
		}
	}
}
