{
	 "smiles": "COC1=CC2=C(NC=C2CC(O)=O)C=C1", 
	 "Tm": 422.15, 
	 "num_atms": 26, 
	 "gaussian": { 
		 "optdone": 1, 
		 "sigma_profile": "yes", 
		 "theory": "DFT", 
		 "functional": "B3LYP", 
		 "basiset": "6-31G**", 
		 "properties": { 
			 "R2extent": 3965.9492, 
			 "electric_dipole_moment_norm": 2.94238279121, 
			 "electric_quadrupole_moment_norm": 6.73627586653, 
			 "total_energy": -706.230266665, 
			 "HOMO_LUMO_gap": 0.18507, 
			 "cosmo_polarized_energy": -16.19, 
			 "cosmo_cavitation_energy": 30.33, 
			 "cosmo_dispersion_energy": -21.72, 
			 "cosmo_repulsion_energy": 1.71, 
			 "cosmo_total_nonelectrostatic_energy": 10.32, 
			 "SMD_solvation_energy": 6.83 
		},
		"coords": [
			{
				"x": -3.9983721307,
				"y": -2.8487438833,
				"z": 0.8350878514,
				"element": "C" 
			},
			{
				"x": -4.1173949699,
				"y": -1.4731439887,
				"z": 0.5168945521,
				"element": "O" 
			},
			{
				"x": -2.9668542218,
				"y": -0.7298122979,
				"z": 0.46233387,
				"element": "C" 
			},
			{
				"x": -1.6934959503,
				"y": -1.2332973073,
				"z": 0.7070366414,
				"element": "C" 
			},
			{
				"x": -0.5979382673,
				"y": -0.3508692938,
				"z": 0.6094766109,
				"element": "C" 
			},
			{
				"x": -0.8126500659,
				"y": 1.0062791156,
				"z": 0.2621615427,
				"element": "C" 
			},
			{
				"x": 0.4240408149,
				"y": 1.6266629771,
				"z": 0.2324538694,
				"element": "N" 
			},
			{
				"x": 1.398972464,
				"y": 0.7054885263,
				"z": 0.5522819041,
				"element": "C" 
			},
			{
				"x": 0.821865702,
				"y": -0.5179653505,
				"z": 0.7959369613,
				"element": "C" 
			},
			{
				"x": 1.5369167944,
				"y": -1.7794358403,
				"z": 1.2022316887,
				"element": "C" 
			},
			{
				"x": 1.3929241234,
				"y": -2.8712773364,
				"z": 0.1557194539,
				"element": "C" 
			},
			{
				"x": 2.3291896313,
				"y": -2.7720324984,
				"z": -0.8169434073,
				"element": "O" 
			},
			{
				"x": 0.5371832206,
				"y": -3.7307319188,
				"z": 0.1498161073,
				"element": "O" 
			},
			{
				"x": -2.0966888082,
				"y": 1.5082230133,
				"z": 0.0173818096,
				"element": "C" 
			},
			{
				"x": -3.16387939,
				"y": 0.6316555547,
				"z": 0.1229672701,
				"element": "C" 
			},
			{
				"x": -3.5669371773,
				"y": -2.9986427776,
				"z": 1.8338861747,
				"element": "H" 
			},
			{
				"x": -5.0121142143,
				"y": -3.25314363,
				"z": 0.8177868131,
				"element": "H" 
			},
			{
				"x": -3.3814120363,
				"y": -3.3841341576,
				"z": 0.1015842324,
				"element": "H" 
			},
			{
				"x": -1.5233519937,
				"y": -2.2765999246,
				"z": 0.9414441482,
				"element": "H" 
			},
			{
				"x": 0.5875592275,
				"y": 2.5969267686,
				"z": 0.0213605991,
				"element": "H" 
			},
			{
				"x": 2.4407803911,
				"y": 0.9922480349,
				"z": 0.5881372409,
				"element": "H" 
			},
			{
				"x": 1.1205519625,
				"y": -2.1798904972,
				"z": 2.1324901118,
				"element": "H" 
			},
			{
				"x": 2.5994866697,
				"y": -1.5720474932,
				"z": 1.3573878,
				"element": "H" 
			},
			{
				"x": 2.128114049,
				"y": -3.4765846479,
				"z": -1.455977671,
				"element": "H" 
			},
			{
				"x": -2.2593318649,
				"y": 2.5492489305,
				"z": -0.247406688,
				"element": "H" 
			},
			{
				"x": -4.1800639595,
				"y": 0.9658199224,
				"z": -0.0574294867,
				"element": "H" 
			}
		],
		 "valence_orbital": [ 
			{
				"type": "occ",
				"energy": -0.28848,
				"method": "rhf"
			},
			{
				"type": "occ",
				"energy": -0.27777,
				"method": "rhf"
			},
			{
				"type": "occ",
				"energy": -0.26356,
				"method": "rhf"
			},
			{
				"type": "occ",
				"energy": -0.20139,
				"method": "rhf"
			},
			{
				"type": "occ",
				"energy": -0.19206,
				"method": "rhf"
			},
			{
				"type": "unocc",
				"energy": -0.00699,
				"method": "rhf"
			},
			{
				"type": "unocc",
				"energy": 0.01292,
				"method": "rhf"
			},
			{
				"type": "unocc",
				"energy": 0.0428,
				"method": "rhf"
			},
			{
				"type": "unocc",
				"energy": 0.07203,
				"method": "rhf"
			},
			{
				"type": "unocc",
				"energy": 0.07915,
				"method": "rhf"
			}
		],
		"cosmo_sigma_profile": { 
			"-0.025": 0.0,
			"-0.024": 0.0,
			"-0.023": 0.0,
			"-0.022": 0.0,
			"-0.021": 0.0,
			"-0.02": 0.0,
			"-0.019": 0.0,
			"-0.018": 0.573367972914,
			"-0.017": 0.865674182472,
			"-0.016": 1.34092704175,
			"-0.015": 2.63989421188,
			"-0.014": 2.40602132156,
			"-0.013": 1.06505265214,
			"-0.012": 1.82251310955,
			"-0.011": 1.99452840235,
			"-0.01": 2.71819651447,
			"-0.009": 1.40172509403,
			"-0.008": 3.83888695388,
			"-0.007": 5.48831037816,
			"-0.006": 8.90387994494,
			"-0.005": 15.3808283032,
			"-0.004": 19.2115869168,
			"-0.003": 20.6328650735,
			"-0.002": 16.5092750514,
			"-0.001": 11.9167391087,
			"0.0": 9.67780420502,
			"0.001": 8.73583124966,
			"0.002": 10.4881075051,
			"0.003": 11.5712630408,
			"0.004": 13.7047268709,
			"0.005": 21.8566769784,
			"0.006": 18.1162281869,
			"0.007": 6.51827157613,
			"0.008": 4.21271107055,
			"0.009": 4.91925378975,
			"0.01": 4.3533441446,
			"0.011": 3.92814952658,
			"0.012": 3.87918016659,
			"0.013": 0.262030890318,
			"0.014": 0.0,
			"0.015": 0.0,
			"0.016": 0.0,
			"0.017": 0.0,
			"0.018": 0.0,
			"0.019": 0.0,
			"0.02": 0.0,
			"0.021": 0.0,
			"0.022": 0.0,
			"0.023": 0.0,
			"0.024": 0.0,
			"0.025": 0.0
		}
	}
}
