{
	 "smiles": "CC(=O)NCC1=CC=C(C=C1)S(N)(=O)=O", 
	 "Tm": 444.15, 
	 "num_atms": 27, 
	 "gaussian": { 
		 "optdone": 1, 
		 "sigma_profile": "yes", 
		 "theory": "DFT", 
		 "functional": "B3LYP", 
		 "basiset": "6-31G**", 
		 "properties": { 
			 "R2extent": 5747.6858, 
			 "electric_dipole_moment_norm": 5.61109870703, 
			 "electric_quadrupole_moment_norm": 32.7219646348, 
			 "total_energy": -1083.50396789, 
			 "HOMO_LUMO_gap": 0.2127, 
			 "cosmo_polarized_energy": -26.63, 
			 "cosmo_cavitation_energy": 32.77, 
			 "cosmo_dispersion_energy": -24.03, 
			 "cosmo_repulsion_energy": 1.86, 
			 "cosmo_total_nonelectrostatic_energy": 10.61, 
			 "SMD_solvation_energy": 5.42 
		},
		"coords": [
			{
				"x": 0.4579158999,
				"y": 3.4241729169,
				"z": 2.8388103379,
				"element": "C" 
			},
			{
				"x": -0.5287171948,
				"y": 3.1191056034,
				"z": 1.7237299709,
				"element": "C" 
			},
			{
				"x": -1.7372188339,
				"y": 3.0559741028,
				"z": 1.9235884989,
				"element": "O" 
			},
			{
				"x": 0.021397161,
				"y": 2.9275593232,
				"z": 0.4838676917,
				"element": "N" 
			},
			{
				"x": -0.7966293849,
				"y": 2.5850936899,
				"z": -0.6749884196,
				"element": "C" 
			},
			{
				"x": -0.8819296966,
				"y": 1.0927900407,
				"z": -0.943012416,
				"element": "C" 
			},
			{
				"x": -1.5415540466,
				"y": 0.2537528642,
				"z": -0.0300007513,
				"element": "C" 
			},
			{
				"x": -1.61408004,
				"y": -1.1180592022,
				"z": -0.2545905615,
				"element": "C" 
			},
			{
				"x": -1.0300730385,
				"y": -1.6552366924,
				"z": -1.4066505358,
				"element": "C" 
			},
			{
				"x": -0.3652482281,
				"y": -0.8410143309,
				"z": -2.3233304912,
				"element": "C" 
			},
			{
				"x": -0.2964296636,
				"y": 0.5323040769,
				"z": -2.0833953775,
				"element": "C" 
			},
			{
				"x": -1.1494164297,
				"y": -3.4225773793,
				"z": -1.7200316601,
				"element": "S" 
			},
			{
				"x": -2.5988554043,
				"y": -3.6750308673,
				"z": -2.5365537668,
				"element": "N" 
			},
			{
				"x": -1.3070121816,
				"y": -4.087851801,
				"z": -0.4281019744,
				"element": "O" 
			},
			{
				"x": -0.09652054,
				"y": -3.7692596516,
				"z": -2.6733758226,
				"element": "O" 
			},
			{
				"x": 1.4903894293,
				"y": 3.538434955,
				"z": 2.497656716,
				"element": "H" 
			},
			{
				"x": 0.4144852725,
				"y": 2.6188844233,
				"z": 3.577790468,
				"element": "H" 
			},
			{
				"x": 0.1429069355,
				"y": 4.3427986404,
				"z": 3.3399185118,
				"element": "H" 
			},
			{
				"x": 1.0248848234,
				"y": 2.8683113036,
				"z": 0.3972154059,
				"element": "H" 
			},
			{
				"x": -0.3960166401,
				"y": 3.1023933741,
				"z": -1.5527472284,
				"element": "H" 
			},
			{
				"x": -1.7925266703,
				"y": 2.9852917338,
				"z": -0.4673859695,
				"element": "H" 
			},
			{
				"x": -1.9918788466,
				"y": 0.689265019,
				"z": 0.8571643478,
				"element": "H" 
			},
			{
				"x": -2.1001050047,
				"y": -1.774079344,
				"z": 0.4601309406,
				"element": "H" 
			},
			{
				"x": 0.1078294928,
				"y": -1.2831271349,
				"z": -3.1936908907,
				"element": "H" 
			},
			{
				"x": 0.2244710391,
				"y": 1.1723913548,
				"z": -2.7913072653,
				"element": "H" 
			},
			{
				"x": -3.4125243573,
				"y": -3.451753532,
				"z": -1.9720761772,
				"element": "H" 
			},
			{
				"x": -2.6168438518,
				"y": -3.2355334864,
				"z": -3.4514335816,
				"element": "H" 
			}
		],
		 "valence_orbital": [ 
			{
				"type": "occ",
				"energy": -0.30174,
				"method": "rhf"
			},
			{
				"type": "occ",
				"energy": -0.27509,
				"method": "rhf"
			},
			{
				"type": "occ",
				"energy": -0.27433,
				"method": "rhf"
			},
			{
				"type": "occ",
				"energy": -0.25873,
				"method": "rhf"
			},
			{
				"type": "occ",
				"energy": -0.2561,
				"method": "rhf"
			},
			{
				"type": "unocc",
				"energy": -0.0434,
				"method": "rhf"
			},
			{
				"type": "unocc",
				"energy": -0.02537,
				"method": "rhf"
			},
			{
				"type": "unocc",
				"energy": 0.01834,
				"method": "rhf"
			},
			{
				"type": "unocc",
				"energy": 0.05179,
				"method": "rhf"
			},
			{
				"type": "unocc",
				"energy": 0.06327,
				"method": "rhf"
			}
		],
		"cosmo_sigma_profile": { 
			"-0.025": 0.0,
			"-0.024": 0.0,
			"-0.023": 0.0,
			"-0.022": 0.0,
			"-0.021": 0.0,
			"-0.02": 0.0,
			"-0.019": 0.0,
			"-0.018": 0.0,
			"-0.017": 0.0,
			"-0.016": 0.175704680035,
			"-0.015": 2.21829533564,
			"-0.014": 3.93515455866,
			"-0.013": 3.89730236217,
			"-0.012": 4.20323187369,
			"-0.011": 4.87114473579,
			"-0.01": 3.40279133307,
			"-0.009": 2.82949350009,
			"-0.008": 3.89604461786,
			"-0.007": 8.47251883151,
			"-0.006": 14.6714736023,
			"-0.005": 16.4122332808,
			"-0.004": 15.4494903416,
			"-0.003": 16.1132766071,
			"-0.002": 17.1758192875,
			"-0.001": 16.0017630417,
			"0.0": 14.1080595924,
			"0.001": 11.6035563752,
			"0.002": 15.3756521251,
			"0.003": 16.565923244,
			"0.004": 5.67194015582,
			"0.005": 4.66010204158,
			"0.006": 4.84799943909,
			"0.007": 5.52337793388,
			"0.008": 5.4113195101,
			"0.009": 6.20281724304,
			"0.01": 8.61636976346,
			"0.011": 11.9963145869,
			"0.012": 7.004872711,
			"0.013": 3.08576293639,
			"0.014": 3.77365859992,
			"0.015": 1.54445744973,
			"0.016": 0.0748711019108,
			"0.017": 0.0,
			"0.018": 0.0,
			"0.019": 0.0,
			"0.02": 0.0,
			"0.021": 0.0,
			"0.022": 0.0,
			"0.023": 0.0,
			"0.024": 0.0,
			"0.025": 0.0
		}
	}
}
