{
	 "smiles": "CC1=C(C=CC=C1N)S(=O)(=O)NC(C)(C)C", 
	 "Tm": 459.15, 
	 "num_atms": 34, 
	 "gaussian": { 
		 "optdone": 1, 
		 "sigma_profile": "yes", 
		 "theory": "DFT", 
		 "functional": "B3LYP", 
		 "basiset": "6-31G**", 
		 "properties": { 
			 "R2extent": 5203.7156, 
			 "electric_dipole_moment_norm": 3.98837519925, 
			 "electric_quadrupole_moment_norm": 23.2931593965, 
			 "total_energy": -1088.10737823, 
			 "HOMO_LUMO_gap": 0.19156, 
			 "cosmo_polarized_energy": -17.32, 
			 "cosmo_cavitation_energy": 35.77, 
			 "cosmo_dispersion_energy": -25.48, 
			 "cosmo_repulsion_energy": 1.92, 
			 "cosmo_total_nonelectrostatic_energy": 12.21, 
			 "SMD_solvation_energy": 5.56 
		},
		"coords": [
			{
				"x": -3.3793446806,
				"y": -1.0326575035,
				"z": -1.9198905353,
				"element": "C" 
			},
			{
				"x": -2.138708688,
				"y": -0.1743672186,
				"z": -1.8337475723,
				"element": "C" 
			},
			{
				"x": -1.1398413367,
				"y": -0.3205249765,
				"z": -0.8550860518,
				"element": "C" 
			},
			{
				"x": -0.0423513906,
				"y": 0.5387890261,
				"z": -0.7656010001,
				"element": "C" 
			},
			{
				"x": 0.0870509778,
				"y": 1.5644340505,
				"z": -1.7004832211,
				"element": "C" 
			},
			{
				"x": -0.8557984856,
				"y": 1.7148343129,
				"z": -2.7090034124,
				"element": "C" 
			},
			{
				"x": -1.964225491,
				"y": 0.8560926231,
				"z": -2.7895054188,
				"element": "C" 
			},
			{
				"x": -2.9287292086,
				"y": 1.0587761397,
				"z": -3.77887221,
				"element": "N" 
			},
			{
				"x": -1.3142062369,
				"y": -1.6600277618,
				"z": 0.3455952486,
				"element": "S" 
			},
			{
				"x": -2.3715309217,
				"y": -1.2946464711,
				"z": 1.3007336386,
				"element": "O" 
			},
			{
				"x": -1.4171055719,
				"y": -2.9162905751,
				"z": -0.4128284895,
				"element": "O" 
			},
			{
				"x": 0.1178314791,
				"y": -1.617494443,
				"z": 1.2315193508,
				"element": "N" 
			},
			{
				"x": 1.2173840372,
				"y": -2.629456531,
				"z": 1.1186044172,
				"element": "C" 
			},
			{
				"x": 1.7334013674,
				"y": -2.6909344885,
				"z": -0.3269325803,
				"element": "C" 
			},
			{
				"x": 0.7594060719,
				"y": -4.0203642921,
				"z": 1.5972081552,
				"element": "C" 
			},
			{
				"x": 2.3286921854,
				"y": -2.0985597305,
				"z": 2.0413372293,
				"element": "C" 
			},
			{
				"x": -3.2955074195,
				"y": -1.7824283471,
				"z": -2.7179847297,
				"element": "H" 
			},
			{
				"x": -4.2485076089,
				"y": -0.4030112763,
				"z": -2.1391883522,
				"element": "H" 
			},
			{
				"x": -3.5859036994,
				"y": -1.5688774333,
				"z": -0.9959338218,
				"element": "H" 
			},
			{
				"x": 0.6846579284,
				"y": 0.3993539589,
				"z": 0.0229046798,
				"element": "H" 
			},
			{
				"x": 0.9337214827,
				"y": 2.2422891227,
				"z": -1.6465187237,
				"element": "H" 
			},
			{
				"x": -0.7451981628,
				"y": 2.5067242872,
				"z": -3.4460252301,
				"element": "H" 
			},
			{
				"x": -3.409780942,
				"y": 0.2313121173,
				"z": -4.1013301521,
				"element": "H" 
			},
			{
				"x": -2.6276716325,
				"y": 1.6417190765,
				"z": -4.5474511294,
				"element": "H" 
			},
			{
				"x": -0.1562520019,
				"y": -1.43771664,
				"z": 2.1942932085,
				"element": "H" 
			},
			{
				"x": 2.049449517,
				"y": -1.7024250417,
				"z": -0.672402853,
				"element": "H" 
			},
			{
				"x": 0.9686514134,
				"y": -3.0719841194,
				"z": -1.0059209952,
				"element": "H" 
			},
			{
				"x": 2.5968930461,
				"y": -3.3617093229,
				"z": -0.3730280982,
				"element": "H" 
			},
			{
				"x": -0.0458889998,
				"y": -4.4002322526,
				"z": 0.9664491866,
				"element": "H" 
			},
			{
				"x": 1.5954838393,
				"y": -4.7274039804,
				"z": 1.565296022,
				"element": "H" 
			},
			{
				"x": 0.3987192257,
				"y": -3.974600227,
				"z": 2.6311197889,
				"element": "H" 
			},
			{
				"x": 3.1819006192,
				"y": -2.7836385353,
				"z": 2.0309626312,
				"element": "H" 
			},
			{
				"x": 2.6716753878,
				"y": -1.1115580704,
				"z": 1.7175253948,
				"element": "H" 
			},
			{
				"x": 1.9809339,
				"y": -2.0191154768,
				"z": 3.0780856255,
				"element": "H" 
			}
		],
		 "valence_orbital": [ 
			{
				"type": "occ",
				"energy": -0.29365,
				"method": "rhf"
			},
			{
				"type": "occ",
				"energy": -0.28988,
				"method": "rhf"
			},
			{
				"type": "occ",
				"energy": -0.26069,
				"method": "rhf"
			},
			{
				"type": "occ",
				"energy": -0.24833,
				"method": "rhf"
			},
			{
				"type": "occ",
				"energy": -0.21137,
				"method": "rhf"
			},
			{
				"type": "unocc",
				"energy": -0.01981,
				"method": "rhf"
			},
			{
				"type": "unocc",
				"energy": 0.00587,
				"method": "rhf"
			},
			{
				"type": "unocc",
				"energy": 0.05863,
				"method": "rhf"
			},
			{
				"type": "unocc",
				"energy": 0.06536,
				"method": "rhf"
			},
			{
				"type": "unocc",
				"energy": 0.08115,
				"method": "rhf"
			}
		],
		"cosmo_sigma_profile": { 
			"-0.025": 0.0,
			"-0.024": 0.0,
			"-0.023": 0.0,
			"-0.022": 0.0,
			"-0.021": 0.0,
			"-0.02": 0.0,
			"-0.019": 0.0,
			"-0.018": 0.0,
			"-0.017": 0.0,
			"-0.016": 0.0,
			"-0.015": 0.0,
			"-0.014": 0.0,
			"-0.013": 1.11823158623,
			"-0.012": 3.2073732806,
			"-0.011": 3.82130910446,
			"-0.01": 4.27922315003,
			"-0.009": 4.58240939212,
			"-0.008": 4.55265644475,
			"-0.007": 4.88155065543,
			"-0.006": 7.20618532809,
			"-0.005": 10.078024115,
			"-0.004": 19.3757519163,
			"-0.003": 23.8076360971,
			"-0.002": 23.950559727,
			"-0.001": 24.530512708,
			"0.0": 30.9892838548,
			"0.001": 25.8418764043,
			"0.002": 12.2308940227,
			"0.003": 11.0982161954,
			"0.004": 15.2887130878,
			"0.005": 10.763004796,
			"0.006": 4.51636616495,
			"0.007": 4.83867037584,
			"0.008": 3.9224557837,
			"0.009": 4.47539144402,
			"0.01": 4.9811938238,
			"0.011": 8.73589257029,
			"0.012": 5.81199462241,
			"0.013": 0.927311805091,
			"0.014": 0.228748094841,
			"0.015": 0.0,
			"0.016": 0.0,
			"0.017": 0.0,
			"0.018": 0.0,
			"0.019": 0.0,
			"0.02": 0.0,
			"0.021": 0.0,
			"0.022": 0.0,
			"0.023": 0.0,
			"0.024": 0.0,
			"0.025": 0.0
		}
	}
}
