{
	 "smiles": "COC1=CC=C(C=C1)P1(=S)SP(=S)(S1)C1=CC=C(OC)C=C1", 
	 "Tm": 502.15, 
	 "num_atms": 36, 
	 "gaussian": { 
		 "optdone": 1, 
		 "sigma_profile": "yes", 
		 "theory": "DFT", 
		 "functional": "B3LYP", 
		 "basiset": "6-31G**", 
		 "properties": { 
			 "R2extent": 12996.896, 
			 "electric_dipole_moment_norm": 10.4106551792, 
			 "electric_quadrupole_moment_norm": 31.9651088213, 
			 "total_energy": -2967.8807462, 
			 "HOMO_LUMO_gap": 0.14127, 
			 "cosmo_polarized_energy": -19.75, 
			 "cosmo_cavitation_energy": 48.9, 
			 "cosmo_dispersion_energy": -34.99, 
			 "cosmo_repulsion_energy": 2.46, 
			 "cosmo_total_nonelectrostatic_energy": 16.37, 
			 "SMD_solvation_energy": 6.21 
		},
		"coords": [
			{
				"x": 0.1263814749,
				"y": 1.3410710037,
				"z": 5.3608037124,
				"element": "C" 
			},
			{
				"x": 0.6381599885,
				"y": 0.0230338147,
				"z": 5.2045513922,
				"element": "O" 
			},
			{
				"x": 0.3273294901,
				"y": -0.6669585512,
				"z": 4.0796106269,
				"element": "C" 
			},
			{
				"x": -0.469583793,
				"y": -0.174271422,
				"z": 3.0365608371,
				"element": "C" 
			},
			{
				"x": -0.7245432719,
				"y": -0.9749078504,
				"z": 1.9236596438,
				"element": "C" 
			},
			{
				"x": -0.1976302303,
				"y": -2.2692006358,
				"z": 1.8331409877,
				"element": "C" 
			},
			{
				"x": 0.5924220262,
				"y": -2.7587753901,
				"z": 2.8912955181,
				"element": "C" 
			},
			{
				"x": 0.8553077658,
				"y": -1.9667903793,
				"z": 3.9967755998,
				"element": "C" 
			},
			{
				"x": -0.4768331144,
				"y": -3.3470556897,
				"z": 0.3919817391,
				"element": "P" 
			},
			{
				"x": -0.4450346803,
				"y": -5.2502675852,
				"z": 0.7873884955,
				"element": "S" 
			},
			{
				"x": -2.1920089333,
				"y": -2.5509906585,
				"z": -0.6562069335,
				"element": "S" 
			},
			{
				"x": -0.8500424981,
				"y": -2.0588535363,
				"z": -2.3112699209,
				"element": "P" 
			},
			{
				"x": -1.2166222167,
				"y": -2.9576933054,
				"z": -3.996505089,
				"element": "S" 
			},
			{
				"x": 0.8859406906,
				"y": -2.6782535969,
				"z": -1.1835691896,
				"element": "S" 
			},
			{
				"x": -0.7799157395,
				"y": -0.2423307594,
				"z": -2.4159213417,
				"element": "C" 
			},
			{
				"x": -1.4138125137,
				"y": 0.3933033876,
				"z": -3.4909121574,
				"element": "C" 
			},
			{
				"x": -1.4167278117,
				"y": 1.7829695881,
				"z": -3.6009984501,
				"element": "C" 
			},
			{
				"x": -0.7726622354,
				"y": 2.5578935953,
				"z": -2.6269094158,
				"element": "C" 
			},
			{
				"x": -0.709477336,
				"y": 3.9122543571,
				"z": -2.6348434201,
				"element": "O" 
			},
			{
				"x": -1.327862501,
				"y": 4.6173239773,
				"z": -3.7053633991,
				"element": "C" 
			},
			{
				"x": -0.1268173971,
				"y": 1.9254947743,
				"z": -1.5497684002,
				"element": "C" 
			},
			{
				"x": -0.1307558546,
				"y": 0.5442144115,
				"z": -1.4456813147,
				"element": "C" 
			},
			{
				"x": 0.4988383054,
				"y": 1.6936556772,
				"z": 6.3231082313,
				"element": "H" 
			},
			{
				"x": -0.9703294558,
				"y": 1.3473846502,
				"z": 5.3723788352,
				"element": "H" 
			},
			{
				"x": 0.4848911793,
				"y": 2.0081026912,
				"z": 4.5672690704,
				"element": "H" 
			},
			{
				"x": -0.9018816145,
				"y": 0.8178200431,
				"z": 3.0834144433,
				"element": "H" 
			},
			{
				"x": -1.3527037884,
				"y": -0.5858119918,
				"z": 1.1301086634,
				"element": "H" 
			},
			{
				"x": 0.9870543458,
				"y": -3.7681813202,
				"z": 2.84562223,
				"element": "H" 
			},
			{
				"x": 1.461133364,
				"y": -2.3334106058,
				"z": 4.8185091732,
				"element": "H" 
			},
			{
				"x": -1.9008545777,
				"y": -0.2042742841,
				"z": -4.2542467536,
				"element": "H" 
			},
			{
				"x": -1.9134995205,
				"y": 2.2446499023,
				"z": -4.4455313809,
				"element": "H" 
			},
			{
				"x": -1.1496767837,
				"y": 5.6749122738,
				"z": -3.5082810879,
				"element": "H" 
			},
			{
				"x": -2.4082407039,
				"y": 4.4314247367,
				"z": -3.7374776138,
				"element": "H" 
			},
			{
				"x": -0.8843493559,
				"y": 4.3486707674,
				"z": -4.6716512092,
				"element": "H" 
			},
			{
				"x": 0.3797907407,
				"y": 2.5429542045,
				"z": -0.8156152647,
				"element": "H" 
			},
			{
				"x": 0.3853165559,
				"y": 0.0725937064,
				"z": -0.6168268571,
				"element": "H" 
			}
		],
		 "valence_orbital": [ 
			{
				"type": "occ",
				"energy": -0.24994,
				"method": "rhf"
			},
			{
				"type": "occ",
				"energy": -0.24407,
				"method": "rhf"
			},
			{
				"type": "occ",
				"energy": -0.24072,
				"method": "rhf"
			},
			{
				"type": "occ",
				"energy": -0.23587,
				"method": "rhf"
			},
			{
				"type": "occ",
				"energy": -0.23233,
				"method": "rhf"
			},
			{
				"type": "unocc",
				"energy": -0.09106,
				"method": "rhf"
			},
			{
				"type": "unocc",
				"energy": -0.07105,
				"method": "rhf"
			},
			{
				"type": "unocc",
				"energy": -0.04201,
				"method": "rhf"
			},
			{
				"type": "unocc",
				"energy": -0.03068,
				"method": "rhf"
			},
			{
				"type": "unocc",
				"energy": -0.02307,
				"method": "rhf"
			}
		],
		"cosmo_sigma_profile": { 
			"-0.025": 0.0,
			"-0.024": 0.0,
			"-0.023": 0.0,
			"-0.022": 0.0,
			"-0.021": 0.0,
			"-0.02": 0.0307613963404,
			"-0.019": 0.141286456255,
			"-0.018": 0.270821628167,
			"-0.017": 0.288128316824,
			"-0.016": 0.127785397956,
			"-0.015": 0.0814094832252,
			"-0.014": 0.139274168729,
			"-0.013": 0.0459447935037,
			"-0.012": 0.00588881877558,
			"-0.011": 0.0724242582859,
			"-0.01": 0.111050570259,
			"-0.009": 0.038675313667,
			"-0.008": 2.41252958174,
			"-0.007": 13.9149031283,
			"-0.006": 29.8613283565,
			"-0.005": 33.0396976281,
			"-0.004": 30.8883557763,
			"-0.003": 28.5707703639,
			"-0.002": 21.3025538703,
			"-0.001": 21.153171984,
			"0.0": 22.6278264552,
			"0.001": 31.1337296768,
			"0.002": 41.6199322893,
			"0.003": 35.7270783215,
			"0.004": 18.1165633502,
			"0.005": 16.4009240266,
			"0.006": 14.7583212808,
			"0.007": 16.552308491,
			"0.008": 14.0514225704,
			"0.009": 6.07556676015,
			"0.01": 0.529971504004,
			"0.011": 0.0,
			"0.012": 0.0,
			"0.013": 0.0,
			"0.014": 0.0,
			"0.015": 0.0,
			"0.016": 0.0,
			"0.017": 0.0,
			"0.018": 0.0,
			"0.019": 0.0,
			"0.02": 0.0,
			"0.021": 0.0,
			"0.022": 0.0,
			"0.023": 0.0,
			"0.024": 0.0,
			"0.025": 0.0
		}
	}
}
