{
	 "smiles": "CC1=NN(C(C)=C1CC(O)=O)C1=C(F)C=CC=C1", 
	 "Tm": 448.15, 
	 "num_atms": 31, 
	 "gaussian": { 
		 "optdone": 1, 
		 "sigma_profile": "yes", 
		 "theory": "DFT", 
		 "functional": "B3LYP", 
		 "basiset": "6-31G**", 
		 "properties": { 
			 "R2extent": 5338.3842, 
			 "electric_dipole_moment_norm": 1.0163685552, 
			 "electric_quadrupole_moment_norm": 18.3652021309, 
			 "total_energy": -863.01385448, 
			 "HOMO_LUMO_gap": 0.19883, 
			 "cosmo_polarized_energy": -13.18, 
			 "cosmo_cavitation_energy": 35.64, 
			 "cosmo_dispersion_energy": -24.66, 
			 "cosmo_repulsion_energy": 1.9, 
			 "cosmo_total_nonelectrostatic_energy": 12.88, 
			 "SMD_solvation_energy": 6.75 
		},
		"coords": [
			{
				"x": 1.1517112207,
				"y": -0.7777774118,
				"z": -2.6648181685,
				"element": "C" 
			},
			{
				"x": 0.48882924,
				"y": -0.2109919735,
				"z": -1.4469359659,
				"element": "C" 
			},
			{
				"x": -0.8317392885,
				"y": -0.0802089296,
				"z": -1.3944321602,
				"element": "N" 
			},
			{
				"x": -1.0869390462,
				"y": 0.4639874557,
				"z": -0.1656996751,
				"element": "N" 
			},
			{
				"x": 0.0577028422,
				"y": 0.6562444314,
				"z": 0.5689259129,
				"element": "C" 
			},
			{
				"x": 0.0865038678,
				"y": 1.1499586889,
				"z": 1.9808054582,
				"element": "C" 
			},
			{
				"x": 1.1000375412,
				"y": 0.2440436303,
				"z": -0.2463616065,
				"element": "C" 
			},
			{
				"x": 2.568903594,
				"y": 0.2381540322,
				"z": 0.0947040931,
				"element": "C" 
			},
			{
				"x": 2.9261093517,
				"y": -0.9885711524,
				"z": 0.9152871952,
				"element": "C" 
			},
			{
				"x": 3.2323729895,
				"y": -2.051675415,
				"z": 0.1327040488,
				"element": "O" 
			},
			{
				"x": 2.9103775012,
				"y": -1.0539233904,
				"z": 2.1257953453,
				"element": "O" 
			},
			{
				"x": -2.4366507469,
				"y": 0.6723099944,
				"z": 0.209775174,
				"element": "C" 
			},
			{
				"x": -2.8703756698,
				"y": 1.8898494971,
				"z": 0.7440256759,
				"element": "C" 
			},
			{
				"x": -1.9853183676,
				"y": 2.8968596181,
				"z": 0.9034244035,
				"element": "F" 
			},
			{
				"x": -4.1950911963,
				"y": 2.1007656591,
				"z": 1.1052617583,
				"element": "C" 
			},
			{
				"x": -5.1259885996,
				"y": 1.0829973797,
				"z": 0.8988693789,
				"element": "C" 
			},
			{
				"x": -4.7215612778,
				"y": -0.1303741321,
				"z": 0.3361630791,
				"element": "C" 
			},
			{
				"x": -3.3859240716,
				"y": -0.3345853125,
				"z": -0.0023595415,
				"element": "C" 
			},
			{
				"x": 1.8100426044,
				"y": -0.0427362231,
				"z": -3.1435084678,
				"element": "H" 
			},
			{
				"x": 1.7654986509,
				"y": -1.6486761343,
				"z": -2.4109355112,
				"element": "H" 
			},
			{
				"x": 0.3941679576,
				"y": -1.0798746844,
				"z": -3.3909933314,
				"element": "H" 
			},
			{
				"x": -0.7878814609,
				"y": 0.8013841063,
				"z": 2.5388727507,
				"element": "H" 
			},
			{
				"x": 0.0921653146,
				"y": 2.2431306731,
				"z": 2.0330550186,
				"element": "H" 
			},
			{
				"x": 0.9783704094,
				"y": 0.7666158588,
				"z": 2.481199824,
				"element": "H" 
			},
			{
				"x": 2.8379743231,
				"y": 1.114403568,
				"z": 0.6897779576,
				"element": "H" 
			},
			{
				"x": 3.1662077272,
				"y": 0.2463599532,
				"z": -0.8211082639,
				"element": "H" 
			},
			{
				"x": 3.3879870132,
				"y": -2.7976253998,
				"z": 0.7367721798,
				"element": "H" 
			},
			{
				"x": -4.4764891788,
				"y": 3.0625257134,
				"z": 1.5202102935,
				"element": "H" 
			},
			{
				"x": -6.164386443,
				"y": 1.2423104101,
				"z": 1.1720785755,
				"element": "H" 
			},
			{
				"x": -5.4450814991,
				"y": -0.9213459374,
				"z": 0.1666247712,
				"element": "H" 
			},
			{
				"x": -3.0503353027,
				"y": -1.2651345737,
				"z": -0.445380202,
				"element": "H" 
			}
		],
		 "valence_orbital": [ 
			{
				"type": "occ",
				"energy": -0.28083,
				"method": "rhf"
			},
			{
				"type": "occ",
				"energy": -0.27186,
				"method": "rhf"
			},
			{
				"type": "occ",
				"energy": -0.25586,
				"method": "rhf"
			},
			{
				"type": "occ",
				"energy": -0.23168,
				"method": "rhf"
			},
			{
				"type": "occ",
				"energy": -0.22321,
				"method": "rhf"
			},
			{
				"type": "unocc",
				"energy": -0.02438,
				"method": "rhf"
			},
			{
				"type": "unocc",
				"energy": -0.00712,
				"method": "rhf"
			},
			{
				"type": "unocc",
				"energy": 0.00579,
				"method": "rhf"
			},
			{
				"type": "unocc",
				"energy": 0.03105,
				"method": "rhf"
			},
			{
				"type": "unocc",
				"energy": 0.06988,
				"method": "rhf"
			}
		],
		"cosmo_sigma_profile": { 
			"-0.025": 0.0,
			"-0.024": 0.0,
			"-0.023": 0.0,
			"-0.022": 0.0,
			"-0.021": 0.0,
			"-0.02": 0.0,
			"-0.019": 0.0557557522775,
			"-0.018": 0.697363873749,
			"-0.017": 0.980329292984,
			"-0.016": 0.790064792698,
			"-0.015": 0.648851071084,
			"-0.014": 0.990622873558,
			"-0.013": 0.707481810278,
			"-0.012": 0.427828867627,
			"-0.011": 0.665556901007,
			"-0.01": 0.805672164842,
			"-0.009": 0.542673444792,
			"-0.008": 1.03505163922,
			"-0.007": 5.60323995025,
			"-0.006": 12.1690003239,
			"-0.005": 17.6131044511,
			"-0.004": 21.7172671576,
			"-0.003": 21.7099812254,
			"-0.002": 23.4974702684,
			"-0.001": 24.2913569205,
			"0.0": 25.6198166186,
			"0.001": 21.3067223872,
			"0.002": 21.5811430942,
			"0.003": 23.5632758694,
			"0.004": 19.6408493963,
			"0.005": 6.41553900391,
			"0.006": 5.12053219481,
			"0.007": 3.10871055401,
			"0.008": 3.63384738125,
			"0.009": 4.45841414884,
			"0.01": 2.57258955327,
			"0.011": 4.3191742902,
			"0.012": 4.57154408799,
			"0.013": 0.894077764382,
			"0.014": 0.925225927852,
			"0.015": 0.693410801513,
			"0.016": 0.162714457953,
			"0.017": 0.0,
			"0.018": 0.0,
			"0.019": 0.0,
			"0.02": 0.0,
			"0.021": 0.0,
			"0.022": 0.0,
			"0.023": 0.0,
			"0.024": 0.0,
			"0.025": 0.0
		}
	}
}
