{
	 "smiles": "CN1C=CN=C(Cl)C1=O", 
	 "Tm": 392.15, 
	 "num_atms": 14, 
	 "gaussian": { 
		 "optdone": 1, 
		 "sigma_profile": "yes", 
		 "theory": "DFT", 
		 "functional": "B3LYP", 
		 "basiset": "6-31G**", 
		 "properties": { 
			 "R2extent": 1545.0465, 
			 "electric_dipole_moment_norm": 5.58747615744, 
			 "electric_quadrupole_moment_norm": 5.58386337942, 
			 "total_energy": -838.45274616, 
			 "HOMO_LUMO_gap": 0.16514, 
			 "cosmo_polarized_energy": -13.88, 
			 "cosmo_cavitation_energy": 20.08, 
			 "cosmo_dispersion_energy": -15.28, 
			 "cosmo_repulsion_energy": 1.25, 
			 "cosmo_total_nonelectrostatic_energy": 6.04, 
			 "SMD_solvation_energy": 3.13 
		},
		"coords": [
			{
				"x": 0.0174459057,
				"y": -1.7603557133,
				"z": 1.9155496326,
				"element": "C" 
			},
			{
				"x": 0.1675011579,
				"y": -0.7603066571,
				"z": 0.8533685303,
				"element": "N" 
			},
			{
				"x": 0.1450413941,
				"y": -1.1485735093,
				"z": -0.4604770259,
				"element": "C" 
			},
			{
				"x": 0.2832695531,
				"y": -0.2302607322,
				"z": -1.45488522,
				"element": "C" 
			},
			{
				"x": 0.4479836751,
				"y": 1.1013120155,
				"z": -1.1773972878,
				"element": "N" 
			},
			{
				"x": 0.4698668795,
				"y": 1.4729982293,
				"z": 0.0556131216,
				"element": "C" 
			},
			{
				"x": 0.6797296992,
				"y": 3.1657635931,
				"z": 0.4272904414,
				"element": "Cl" 
			},
			{
				"x": 0.332150944,
				"y": 0.5875821099,
				"z": 1.2341964503,
				"element": "C" 
			},
			{
				"x": 0.3532914848,
				"y": 0.9400200505,
				"z": 2.4034038555,
				"element": "O" 
			},
			{
				"x": 0.0649772038,
				"y": -1.2362435467,
				"z": 2.8680205436,
				"element": "H" 
			},
			{
				"x": 0.8250639158,
				"y": -2.4951237107,
				"z": 1.855810386,
				"element": "H" 
			},
			{
				"x": -0.9461989513,
				"y": -2.2681225572,
				"z": 1.8193053797,
				"element": "H" 
			},
			{
				"x": 0.0132567751,
				"y": -2.2082718838,
				"z": -0.6486219913,
				"element": "H" 
			},
			{
				"x": 0.2679203632,
				"y": -0.5195176879,
				"z": -2.4987768158,
				"element": "H" 
			}
		],
		 "valence_orbital": [ 
			{
				"type": "occ",
				"energy": -0.31459,
				"method": "rhf"
			},
			{
				"type": "occ",
				"energy": -0.31129,
				"method": "rhf"
			},
			{
				"type": "occ",
				"energy": -0.30881,
				"method": "rhf"
			},
			{
				"type": "occ",
				"energy": -0.26089,
				"method": "rhf"
			},
			{
				"type": "occ",
				"energy": -0.23451,
				"method": "rhf"
			},
			{
				"type": "unocc",
				"energy": -0.06937,
				"method": "rhf"
			},
			{
				"type": "unocc",
				"energy": -0.00961,
				"method": "rhf"
			},
			{
				"type": "unocc",
				"energy": 0.03919,
				"method": "rhf"
			},
			{
				"type": "unocc",
				"energy": 0.08026,
				"method": "rhf"
			},
			{
				"type": "unocc",
				"energy": 0.10423,
				"method": "rhf"
			}
		],
		"cosmo_sigma_profile": { 
			"-0.025": 0.0,
			"-0.024": 0.0,
			"-0.023": 0.0,
			"-0.022": 0.0,
			"-0.021": 0.0,
			"-0.02": 0.0,
			"-0.019": 0.0,
			"-0.018": 0.0,
			"-0.017": 0.0,
			"-0.016": 0.0,
			"-0.015": 0.0,
			"-0.014": 0.0,
			"-0.013": 0.0,
			"-0.012": 0.0,
			"-0.011": 0.709567280623,
			"-0.01": 2.93994278692,
			"-0.009": 2.79472214493,
			"-0.008": 6.16934859338,
			"-0.007": 9.77280574076,
			"-0.006": 8.30530240834,
			"-0.005": 10.9846285108,
			"-0.004": 13.5427353154,
			"-0.003": 12.5911504526,
			"-0.002": 9.17961047701,
			"-0.001": 7.87496128048,
			"0.0": 8.52455519392,
			"0.001": 8.83593264042,
			"0.002": 8.06583578347,
			"0.003": 7.79322265391,
			"0.004": 10.569236553,
			"0.005": 6.04982295745,
			"0.006": 4.17558609719,
			"0.007": 2.83146252665,
			"0.008": 3.33865747672,
			"0.009": 2.81794731373,
			"0.01": 2.72802185194,
			"0.011": 3.13350328753,
			"0.012": 5.36284409777,
			"0.013": 3.88150232937,
			"0.014": 0.611081401624,
			"0.015": 0.0,
			"0.016": 0.0,
			"0.017": 0.0,
			"0.018": 0.0,
			"0.019": 0.0,
			"0.02": 0.0,
			"0.021": 0.0,
			"0.022": 0.0,
			"0.023": 0.0,
			"0.024": 0.0,
			"0.025": 0.0
		}
	}
}
