{
	 "smiles": "CC(C)C1=CC=C(C=C1)C1(CCCC1)C(O)=O", 
	 "Tm": 427.15, 
	 "num_atms": 37, 
	 "gaussian": { 
		 "optdone": 1, 
		 "sigma_profile": "yes", 
		 "theory": "DFT", 
		 "functional": "B3LYP", 
		 "basiset": "6-31G**", 
		 "properties": { 
			 "R2extent": 5285.9394, 
			 "electric_dipole_moment_norm": 4.55651927462, 
			 "electric_quadrupole_moment_norm": 14.8250017288, 
			 "total_energy": -734.126545737, 
			 "HOMO_LUMO_gap": 0.22794, 
			 "cosmo_polarized_energy": -11.61, 
			 "cosmo_cavitation_energy": 37.34, 
			 "cosmo_dispersion_energy": -26.03, 
			 "cosmo_repulsion_energy": 2.03, 
			 "cosmo_total_nonelectrostatic_energy": 13.34, 
			 "SMD_solvation_energy": 6.74 
		},
		"coords": [
			{
				"x": 0.7588611449,
				"y": 4.0490419487,
				"z": 1.3666151569,
				"element": "C" 
			},
			{
				"x": 1.653368584,
				"y": 3.0988545721,
				"z": 0.5478328571,
				"element": "C" 
			},
			{
				"x": 3.0149214461,
				"y": 2.8892014759,
				"z": 1.237220465,
				"element": "C" 
			},
			{
				"x": 0.9562669204,
				"y": 1.7770513416,
				"z": 0.257070649,
				"element": "C" 
			},
			{
				"x": 0.6697768323,
				"y": 1.3876302132,
				"z": -1.0560343746,
				"element": "C" 
			},
			{
				"x": 0.0255748413,
				"y": 0.181487467,
				"z": -1.3366806206,
				"element": "C" 
			},
			{
				"x": -0.3626579446,
				"y": -0.689202311,
				"z": -0.3095182371,
				"element": "C" 
			},
			{
				"x": -0.0634837003,
				"y": -0.3034040261,
				"z": 1.0095763554,
				"element": "C" 
			},
			{
				"x": 0.5768246549,
				"y": 0.9025805965,
				"z": 1.2856354729,
				"element": "C" 
			},
			{
				"x": -0.9944619583,
				"y": -2.0589676125,
				"z": -0.5849295953,
				"element": "C" 
			},
			{
				"x": -1.759287668,
				"y": -2.1706603735,
				"z": -1.9651550592,
				"element": "C" 
			},
			{
				"x": -0.9084105318,
				"y": -3.1051432768,
				"z": -2.8428151863,
				"element": "C" 
			},
			{
				"x": -0.3077086485,
				"y": -4.0868150012,
				"z": -1.8269405244,
				"element": "C" 
			},
			{
				"x": 0.1023659476,
				"y": -3.1743007896,
				"z": -0.6611174496,
				"element": "C" 
			},
			{
				"x": -2.0340411007,
				"y": -2.410112875,
				"z": 0.4963779616,
				"element": "C" 
			},
			{
				"x": -2.9385268984,
				"y": -1.4336929498,
				"z": 0.7720080974,
				"element": "O" 
			},
			{
				"x": -2.1325102586,
				"y": -3.4874614808,
				"z": 1.0322268981,
				"element": "O" 
			},
			{
				"x": -0.1949071823,
				"y": 4.2305449354,
				"z": 0.8614316811,
				"element": "H" 
			},
			{
				"x": 0.5386658395,
				"y": 3.633464104,
				"z": 2.3560876463,
				"element": "H" 
			},
			{
				"x": 1.2551951098,
				"y": 5.0141562705,
				"z": 1.5151436826,
				"element": "H" 
			},
			{
				"x": 1.8450623439,
				"y": 3.5796840605,
				"z": -0.4205190409,
				"element": "H" 
			},
			{
				"x": 3.6664400003,
				"y": 2.2429334992,
				"z": 0.6409930696,
				"element": "H" 
			},
			{
				"x": 3.5250047794,
				"y": 3.8475824148,
				"z": 1.3826979462,
				"element": "H" 
			},
			{
				"x": 2.8951004569,
				"y": 2.4247380615,
				"z": 2.2221510684,
				"element": "H" 
			},
			{
				"x": 0.9556140735,
				"y": 2.0389126862,
				"z": -1.8787761285,
				"element": "H" 
			},
			{
				"x": -0.1602255056,
				"y": -0.0795911217,
				"z": -2.3738570671,
				"element": "H" 
			},
			{
				"x": -0.3332046066,
				"y": -0.9559620554,
				"z": 1.8361766086,
				"element": "H" 
			},
			{
				"x": 0.7828556184,
				"y": 1.1613213031,
				"z": 2.3208311785,
				"element": "H" 
			},
			{
				"x": -2.7387733275,
				"y": -2.6323164023,
				"z": -1.8004335245,
				"element": "H" 
			},
			{
				"x": -1.9502948008,
				"y": -1.1941512617,
				"z": -2.4168396572,
				"element": "H" 
			},
			{
				"x": -0.105724616,
				"y": -2.5417470363,
				"z": -3.3360975809,
				"element": "H" 
			},
			{
				"x": -1.4983621383,
				"y": -3.5901130775,
				"z": -3.6270555881,
				"element": "H" 
			},
			{
				"x": -1.0741516472,
				"y": -4.7950993108,
				"z": -1.4916468659,
				"element": "H" 
			},
			{
				"x": 0.5311705759,
				"y": -4.6656621126,
				"z": -2.2261550213,
				"element": "H" 
			},
			{
				"x": 0.1859910964,
				"y": -3.7032130866,
				"z": 0.2901287216,
				"element": "H" 
			},
			{
				"x": 1.0666480893,
				"y": -2.7044140872,
				"z": -0.8789870522,
				"element": "H" 
			},
			{
				"x": -2.6602758213,
				"y": -0.6088547019,
				"z": 0.3446530572,
				"element": "H" 
			}
		],
		 "valence_orbital": [ 
			{
				"type": "occ",
				"energy": -0.3249,
				"method": "rhf"
			},
			{
				"type": "occ",
				"energy": -0.30676,
				"method": "rhf"
			},
			{
				"type": "occ",
				"energy": -0.26373,
				"method": "rhf"
			},
			{
				"type": "occ",
				"energy": -0.25857,
				"method": "rhf"
			},
			{
				"type": "occ",
				"energy": -0.24248,
				"method": "rhf"
			},
			{
				"type": "unocc",
				"energy": -0.01454,
				"method": "rhf"
			},
			{
				"type": "unocc",
				"energy": -0.01134,
				"method": "rhf"
			},
			{
				"type": "unocc",
				"energy": 0.01582,
				"method": "rhf"
			},
			{
				"type": "unocc",
				"energy": 0.07783,
				"method": "rhf"
			},
			{
				"type": "unocc",
				"energy": 0.08407,
				"method": "rhf"
			}
		],
		"cosmo_sigma_profile": { 
			"-0.025": 0.0,
			"-0.024": 0.0,
			"-0.023": 0.0,
			"-0.022": 0.0,
			"-0.021": 0.0,
			"-0.02": 0.0,
			"-0.019": 0.0,
			"-0.018": 0.0,
			"-0.017": 0.0,
			"-0.016": 0.375159159591,
			"-0.015": 0.762862772633,
			"-0.014": 0.598449308907,
			"-0.013": 0.576116869993,
			"-0.012": 0.499292992731,
			"-0.011": 0.940858880459,
			"-0.01": 1.07734684474,
			"-0.009": 0.685234758803,
			"-0.008": 0.516019802094,
			"-0.007": 1.52644070989,
			"-0.006": 3.56545591258,
			"-0.005": 12.31980379,
			"-0.004": 19.2276678652,
			"-0.003": 32.0858940632,
			"-0.002": 38.8662651959,
			"-0.001": 37.8809820256,
			"0.0": 34.8820859073,
			"0.001": 35.062892784,
			"0.002": 13.8434000594,
			"0.003": 9.55274955633,
			"0.004": 8.50132368282,
			"0.005": 8.24355084855,
			"0.006": 5.01201011444,
			"0.007": 2.44677729368,
			"0.008": 2.89545198393,
			"0.009": 2.52303478691,
			"0.01": 4.38084255434,
			"0.011": 5.39255910178,
			"0.012": 4.96538873858,
			"0.013": 1.95121105455,
			"0.014": 0.108489713093,
			"0.015": 0.0,
			"0.016": 0.0,
			"0.017": 0.0,
			"0.018": 0.0,
			"0.019": 0.0,
			"0.02": 0.0,
			"0.021": 0.0,
			"0.022": 0.0,
			"0.023": 0.0,
			"0.024": 0.0,
			"0.025": 0.0
		}
	}
}
