{
	 "smiles": "CCCCNC(=O)C1=CC2=C(C=C1)C=C(O)C(O)=C2", 
	 "Tm": 467.15, 
	 "num_atms": 36, 
	 "gaussian": { 
		 "optdone": 1, 
		 "sigma_profile": "yes", 
		 "theory": "DFT", 
		 "functional": "B3LYP", 
		 "basiset": "6-31G**", 
		 "properties": { 
			 "R2extent": 8008.6529, 
			 "electric_dipole_moment_norm": 3.66130508562, 
			 "electric_quadrupole_moment_norm": 32.0229347779, 
			 "total_energy": -862.29996288, 
			 "HOMO_LUMO_gap": 0.16703, 
			 "cosmo_polarized_energy": -20.39, 
			 "cosmo_cavitation_energy": 39.34, 
			 "cosmo_dispersion_energy": -27.93, 
			 "cosmo_repulsion_energy": 2.14, 
			 "cosmo_total_nonelectrostatic_energy": 13.55, 
			 "SMD_solvation_energy": 7.1 
		},
		"coords": [
			{
				"x": -0.055981237,
				"y": 3.8696734755,
				"z": -0.5090208353,
				"element": "C" 
			},
			{
				"x": 1.2912222105,
				"y": 4.3135541294,
				"z": -1.092985533,
				"element": "C" 
			},
			{
				"x": 2.412271462,
				"y": 3.2612686721,
				"z": -1.0733335837,
				"element": "C" 
			},
			{
				"x": 2.2323696691,
				"y": 2.0498252219,
				"z": -2.0040984102,
				"element": "C" 
			},
			{
				"x": 1.2666186672,
				"y": 1.0567556763,
				"z": -1.5401054994,
				"element": "N" 
			},
			{
				"x": 1.6424034812,
				"y": 0.0499137846,
				"z": -0.692010436,
				"element": "C" 
			},
			{
				"x": 2.7908614642,
				"y": -0.040884558,
				"z": -0.2605601458,
				"element": "O" 
			},
			{
				"x": 0.5821612341,
				"y": -0.9490591982,
				"z": -0.3221179407,
				"element": "C" 
			},
			{
				"x": -0.7747621086,
				"y": -0.6826994834,
				"z": -0.380776429,
				"element": "C" 
			},
			{
				"x": -1.7359254261,
				"y": -1.656989697,
				"z": -0.0085222424,
				"element": "C" 
			},
			{
				"x": -1.2786942658,
				"y": -2.9400301677,
				"z": 0.4370676379,
				"element": "C" 
			},
			{
				"x": 0.1187538136,
				"y": -3.1830282927,
				"z": 0.5042149146,
				"element": "C" 
			},
			{
				"x": 1.0252522155,
				"y": -2.2146358969,
				"z": 0.1441605016,
				"element": "C" 
			},
			{
				"x": -2.2404598185,
				"y": -3.9194767162,
				"z": 0.8056107237,
				"element": "C" 
			},
			{
				"x": -3.5820301917,
				"y": -3.6366053073,
				"z": 0.7370905298,
				"element": "C" 
			},
			{
				"x": -4.590649103,
				"y": -4.5070636035,
				"z": 1.0678892548,
				"element": "O" 
			},
			{
				"x": -4.0430335466,
				"y": -2.3581381798,
				"z": 0.2981266834,
				"element": "C" 
			},
			{
				"x": -5.3795723289,
				"y": -2.1127432747,
				"z": 0.2436431103,
				"element": "O" 
			},
			{
				"x": -3.1321657244,
				"y": -1.3949297155,
				"z": -0.0629544662,
				"element": "C" 
			},
			{
				"x": -0.7568953313,
				"y": 4.7102620898,
				"z": -0.4656239875,
				"element": "H" 
			},
			{
				"x": -0.5261004446,
				"y": 3.0832761498,
				"z": -1.1072247236,
				"element": "H" 
			},
			{
				"x": 0.0626491212,
				"y": 3.4793278743,
				"z": 0.5076478514,
				"element": "H" 
			},
			{
				"x": 1.1446760097,
				"y": 4.6635213114,
				"z": -2.1250572007,
				"element": "H" 
			},
			{
				"x": 1.6411801924,
				"y": 5.1885943252,
				"z": -0.530279176,
				"element": "H" 
			},
			{
				"x": 3.3485710779,
				"y": 3.7534130326,
				"z": -1.3683197524,
				"element": "H" 
			},
			{
				"x": 2.5707028464,
				"y": 2.8887992546,
				"z": -0.0544061549,
				"element": "H" 
			},
			{
				"x": 1.9202890691,
				"y": 2.380358926,
				"z": -3.0016504338,
				"element": "H" 
			},
			{
				"x": 3.1946869878,
				"y": 1.538721404,
				"z": -2.1037857026,
				"element": "H" 
			},
			{
				"x": 0.3712107538,
				"y": 0.9943992138,
				"z": -1.9966964443,
				"element": "H" 
			},
			{
				"x": -1.1375175148,
				"y": 0.2971327675,
				"z": -0.681109048,
				"element": "H" 
			},
			{
				"x": 0.4653524667,
				"y": -4.1529858739,
				"z": 0.8521364272,
				"element": "H" 
			},
			{
				"x": 2.094033432,
				"y": -2.3854054203,
				"z": 0.208334198,
				"element": "H" 
			},
			{
				"x": -1.9036331063,
				"y": -4.8969704843,
				"z": 1.1450214458,
				"element": "H" 
			},
			{
				"x": -4.2186369977,
				"y": -5.3480882987,
				"z": 1.3614083222,
				"element": "H" 
			},
			{
				"x": -5.8382106197,
				"y": -2.9133216246,
				"z": 0.5397742598,
				"element": "H" 
			},
			{
				"x": -3.4966984091,
				"y": -0.427441516,
				"z": -0.3936877152,
				"element": "H" 
			}
		],
		 "valence_orbital": [ 
			{
				"type": "occ",
				"energy": -0.28212,
				"method": "rhf"
			},
			{
				"type": "occ",
				"energy": -0.24434,
				"method": "rhf"
			},
			{
				"type": "occ",
				"energy": -0.24202,
				"method": "rhf"
			},
			{
				"type": "occ",
				"energy": -0.2199,
				"method": "rhf"
			},
			{
				"type": "occ",
				"energy": -0.21069,
				"method": "rhf"
			},
			{
				"type": "unocc",
				"energy": -0.04366,
				"method": "rhf"
			},
			{
				"type": "unocc",
				"energy": -0.01351,
				"method": "rhf"
			},
			{
				"type": "unocc",
				"energy": 0.02444,
				"method": "rhf"
			},
			{
				"type": "unocc",
				"energy": 0.04416,
				"method": "rhf"
			},
			{
				"type": "unocc",
				"energy": 0.05816,
				"method": "rhf"
			}
		],
		"cosmo_sigma_profile": { 
			"-0.025": 0.0,
			"-0.024": 0.0,
			"-0.023": 0.0,
			"-0.022": 0.0,
			"-0.021": 0.0,
			"-0.02": 0.0,
			"-0.019": 0.411163362212,
			"-0.018": 1.42026480538,
			"-0.017": 0.524390438505,
			"-0.016": 1.4212135079,
			"-0.015": 1.35725938823,
			"-0.014": 1.4481817306,
			"-0.013": 1.69365487968,
			"-0.012": 3.02540201074,
			"-0.011": 3.25729939173,
			"-0.01": 3.75197797904,
			"-0.009": 2.89429697125,
			"-0.008": 2.69405155803,
			"-0.007": 6.04954757407,
			"-0.006": 12.0012187905,
			"-0.005": 10.6682642334,
			"-0.004": 11.0623946636,
			"-0.003": 18.0322222363,
			"-0.002": 27.1860325885,
			"-0.001": 27.5192441501,
			"0.0": 27.4871520657,
			"0.001": 31.2584756322,
			"0.002": 22.6271301863,
			"0.003": 21.154327682,
			"0.004": 27.5870677373,
			"0.005": 10.7999419551,
			"0.006": 5.46653799277,
			"0.007": 4.21701651575,
			"0.008": 2.86304127321,
			"0.009": 3.34750860086,
			"0.01": 3.35145480538,
			"0.011": 3.27659365691,
			"0.012": 2.34870189724,
			"0.013": 2.21835833138,
			"0.014": 4.67042826276,
			"0.015": 1.12660574335,
			"0.016": 0.0,
			"0.017": 0.0,
			"0.018": 0.0,
			"0.019": 0.0,
			"0.02": 0.0,
			"0.021": 0.0,
			"0.022": 0.0,
			"0.023": 0.0,
			"0.024": 0.0,
			"0.025": 0.0
		}
	}
}
