{
	 "smiles": "CC1=C(C(O)=NC=C1)[N+]([O-])=O", 
	 "Tm": 503.15, 
	 "num_atms": 17, 
	 "gaussian": { 
		 "optdone": 1, 
		 "sigma_profile": "yes", 
		 "theory": "DFT", 
		 "functional": "B3LYP", 
		 "basiset": "6-31G**", 
		 "properties": { 
			 "R2extent": 3070.4214, 
			 "electric_dipole_moment_norm": 3.91227897906, 
			 "electric_quadrupole_moment_norm": 14.3560555659, 
			 "total_energy": -567.323007519, 
			 "HOMO_LUMO_gap": 0.17902, 
			 "cosmo_polarized_energy": -10.95, 
			 "cosmo_cavitation_energy": 22.5, 
			 "cosmo_dispersion_energy": -16.06, 
			 "cosmo_repulsion_energy": 1.29, 
			 "cosmo_total_nonelectrostatic_energy": 7.73, 
			 "SMD_solvation_energy": 5.75 
		},
		"coords": [
			{
				"x": 0.6868142399,
				"y": -1.443650814,
				"z": 0.6131903464,
				"element": "C" 
			},
			{
				"x": -0.7634937996,
				"y": -1.1061315111,
				"z": 0.8377713608,
				"element": "C" 
			},
			{
				"x": -1.1838417265,
				"y": -0.4585895956,
				"z": 1.9960875991,
				"element": "C" 
			},
			{
				"x": -2.5354751034,
				"y": -0.150035177,
				"z": 2.1937184344,
				"element": "C" 
			},
			{
				"x": -2.8987151939,
				"y": 0.4764874089,
				"z": 3.3280228821,
				"element": "O" 
			},
			{
				"x": -3.4720188989,
				"y": -0.4530005664,
				"z": 1.3029596863,
				"element": "N" 
			},
			{
				"x": -3.0843034451,
				"y": -1.0770015661,
				"z": 0.1812873325,
				"element": "C" 
			},
			{
				"x": -1.7650997308,
				"y": -1.4194589991,
				"z": -0.093708066,
				"element": "C" 
			},
			{
				"x": -0.2025709365,
				"y": -0.0894600715,
				"z": 3.0321970319,
				"element": "N" 
			},
			{
				"x": 0.0273896058,
				"y": -0.9220667491,
				"z": 3.9039026921,
				"element": "O" 
			},
			{
				"x": 0.3247910366,
				"y": 1.0141257236,
				"z": 2.9324474457,
				"element": "O" 
			},
			{
				"x": 0.8278244793,
				"y": -1.9473325237,
				"z": -0.3447573945,
				"element": "H" 
			},
			{
				"x": 1.3012095265,
				"y": -0.5372120733,
				"z": 0.6239978051,
				"element": "H" 
			},
			{
				"x": 1.0595772997,
				"y": -2.0973405414,
				"z": 1.408773645,
				"element": "H" 
			},
			{
				"x": -3.8600779286,
				"y": 0.5996706857,
				"z": 3.2772071195,
				"element": "H" 
			},
			{
				"x": -3.8745028014,
				"y": -1.3113937947,
				"z": -0.5281007796,
				"element": "H" 
			},
			{
				"x": -1.510606623,
				"y": -1.9243098353,
				"z": -1.0193971408,
				"element": "H" 
			}
		],
		 "valence_orbital": [ 
			{
				"type": "occ",
				"energy": -0.31612,
				"method": "rhf"
			},
			{
				"type": "occ",
				"energy": -0.31549,
				"method": "rhf"
			},
			{
				"type": "occ",
				"energy": -0.28784,
				"method": "rhf"
			},
			{
				"type": "occ",
				"energy": -0.28669,
				"method": "rhf"
			},
			{
				"type": "occ",
				"energy": -0.25364,
				"method": "rhf"
			},
			{
				"type": "unocc",
				"energy": -0.07462,
				"method": "rhf"
			},
			{
				"type": "unocc",
				"energy": -0.0453,
				"method": "rhf"
			},
			{
				"type": "unocc",
				"energy": -0.01775,
				"method": "rhf"
			},
			{
				"type": "unocc",
				"energy": 0.07231,
				"method": "rhf"
			},
			{
				"type": "unocc",
				"energy": 0.08993,
				"method": "rhf"
			}
		],
		"cosmo_sigma_profile": { 
			"-0.025": 0.0,
			"-0.024": 0.0,
			"-0.023": 0.0,
			"-0.022": 0.0,
			"-0.021": 0.0,
			"-0.02": 0.0,
			"-0.019": 0.0324696194802,
			"-0.018": 0.722480432513,
			"-0.017": 0.774447623992,
			"-0.016": 0.805285049477,
			"-0.015": 0.632965346748,
			"-0.014": 0.601613491831,
			"-0.013": 0.549611951722,
			"-0.012": 1.01570569846,
			"-0.011": 0.535868950486,
			"-0.01": 0.645828527635,
			"-0.009": 0.694908901314,
			"-0.008": 1.99420046,
			"-0.007": 6.62401927992,
			"-0.006": 8.82218344646,
			"-0.005": 11.3625064203,
			"-0.004": 12.5640894473,
			"-0.003": 11.3648360977,
			"-0.002": 14.0198144992,
			"-0.001": 14.3445400313,
			"0.0": 12.7217609696,
			"0.001": 12.6211435653,
			"0.002": 10.2481925283,
			"0.003": 6.65278692695,
			"0.004": 4.67413977053,
			"0.005": 6.13988748082,
			"0.006": 9.42582612979,
			"0.007": 13.6885469969,
			"0.008": 8.78113812119,
			"0.009": 3.75214881702,
			"0.01": 0.769025952408,
			"0.011": 0.779884766623,
			"0.012": 0.847450986286,
			"0.013": 0.36913525947,
			"0.014": 0.0,
			"0.015": 0.0,
			"0.016": 0.0,
			"0.017": 0.0,
			"0.018": 0.0,
			"0.019": 0.0,
			"0.02": 0.0,
			"0.021": 0.0,
			"0.022": 0.0,
			"0.023": 0.0,
			"0.024": 0.0,
			"0.025": 0.0
		}
	}
}
