{
	 "smiles": "COC1=CSC=C1C(N)=O", 
	 "Tm": 393.15, 
	 "num_atms": 17, 
	 "gaussian": { 
		 "optdone": 1, 
		 "sigma_profile": "yes", 
		 "theory": "DFT", 
		 "functional": "B3LYP", 
		 "basiset": "6-31G**", 
		 "properties": { 
			 "R2extent": 2180.491, 
			 "electric_dipole_moment_norm": 5.08588105347, 
			 "electric_quadrupole_moment_norm": 5.18768614991, 
			 "total_energy": -836.232836506, 
			 "HOMO_LUMO_gap": 0.20166, 
			 "cosmo_polarized_energy": -12.85, 
			 "cosmo_cavitation_energy": 22.6, 
			 "cosmo_dispersion_energy": -17.55, 
			 "cosmo_repulsion_energy": 1.38, 
			 "cosmo_total_nonelectrostatic_energy": 6.43, 
			 "SMD_solvation_energy": 5.54 
		},
		"coords": [
			{
				"x": -2.8441983523,
				"y": 0.5940105423,
				"z": 0.5645015004,
				"element": "C" 
			},
			{
				"x": -1.4364778991,
				"y": 0.4805679908,
				"z": 0.3948820861,
				"element": "O" 
			},
			{
				"x": -0.7965628193,
				"y": -0.4469922165,
				"z": 1.1676552095,
				"element": "C" 
			},
			{
				"x": -1.3731400642,
				"y": -1.2806940231,
				"z": 2.0908221589,
				"element": "C" 
			},
			{
				"x": -0.1768941554,
				"y": -2.2973688203,
				"z": 2.8397683351,
				"element": "S" 
			},
			{
				"x": 1.084394522,
				"y": -1.5920012328,
				"z": 1.9052564253,
				"element": "C" 
			},
			{
				"x": 0.6329285582,
				"y": -0.6199509151,
				"z": 1.0517515616,
				"element": "C" 
			},
			{
				"x": 1.609781544,
				"y": 0.0925472091,
				"z": 0.1664738667,
				"element": "C" 
			},
			{
				"x": 1.0925876329,
				"y": 1.0467680087,
				"z": -0.656925008,
				"element": "N" 
			},
			{
				"x": 2.8061953157,
				"y": -0.1805019103,
				"z": 0.1943128752,
				"element": "O" 
			},
			{
				"x": -3.3461523669,
				"y": -0.3505120813,
				"z": 0.3211775378,
				"element": "H" 
			},
			{
				"x": -3.1762079748,
				"y": 1.3719278221,
				"z": -0.123800809,
				"element": "H" 
			},
			{
				"x": -3.0934813372,
				"y": 0.8826346606,
				"z": 1.593012106,
				"element": "H" 
			},
			{
				"x": -2.4105930453,
				"y": -1.3617350602,
				"z": 2.3753430256,
				"element": "H" 
			},
			{
				"x": 2.1136931421,
				"y": -1.905023372,
				"z": 2.004649423,
				"element": "H" 
			},
			{
				"x": 0.1066478536,
				"y": 1.2588988774,
				"z": -0.6674249793,
				"element": "H" 
			},
			{
				"x": 1.7361794462,
				"y": 1.5356245207,
				"z": -1.2590553146,
				"element": "H" 
			}
		],
		 "valence_orbital": [ 
			{
				"type": "occ",
				"energy": -0.33805,
				"method": "rhf"
			},
			{
				"type": "occ",
				"energy": -0.25578,
				"method": "rhf"
			},
			{
				"type": "occ",
				"energy": -0.24507,
				"method": "rhf"
			},
			{
				"type": "occ",
				"energy": -0.24293,
				"method": "rhf"
			},
			{
				"type": "occ",
				"energy": -0.22845,
				"method": "rhf"
			},
			{
				"type": "unocc",
				"energy": -0.02679,
				"method": "rhf"
			},
			{
				"type": "unocc",
				"energy": 0.02488,
				"method": "rhf"
			},
			{
				"type": "unocc",
				"energy": 0.02727,
				"method": "rhf"
			},
			{
				"type": "unocc",
				"energy": 0.07444,
				"method": "rhf"
			},
			{
				"type": "unocc",
				"energy": 0.08748,
				"method": "rhf"
			}
		],
		"cosmo_sigma_profile": { 
			"-0.025": 0.0,
			"-0.024": 0.0,
			"-0.023": 0.0,
			"-0.022": 0.0,
			"-0.021": 0.0,
			"-0.02": 0.0,
			"-0.019": 0.0,
			"-0.018": 0.0,
			"-0.017": 0.0,
			"-0.016": 0.0,
			"-0.015": 0.0,
			"-0.014": 0.337527977126,
			"-0.013": 1.1090782782,
			"-0.012": 1.35637635038,
			"-0.011": 0.656122862844,
			"-0.01": 2.30091203202,
			"-0.009": 3.10698648276,
			"-0.008": 4.83331839139,
			"-0.007": 5.61910075992,
			"-0.006": 11.0436901292,
			"-0.005": 12.2805056908,
			"-0.004": 12.9515089732,
			"-0.003": 11.3218751861,
			"-0.002": 8.26815231283,
			"-0.001": 8.182096393,
			"0.0": 12.2833440508,
			"0.001": 13.2125756159,
			"0.002": 16.5023789482,
			"0.003": 21.0003472458,
			"0.004": 11.6640575802,
			"0.005": 3.70629343689,
			"0.006": 2.37315926013,
			"0.007": 0.918104576586,
			"0.008": 1.3347993279,
			"0.009": 1.74939248182,
			"0.01": 1.04706890182,
			"0.011": 1.56012303341,
			"0.012": 1.71151302834,
			"0.013": 2.78285702929,
			"0.014": 5.73521313144,
			"0.015": 1.48003255,
			"0.016": 0.0110895655703,
			"0.017": 0.0,
			"0.018": 0.0,
			"0.019": 0.0,
			"0.02": 0.0,
			"0.021": 0.0,
			"0.022": 0.0,
			"0.023": 0.0,
			"0.024": 0.0,
			"0.025": 0.0
		}
	}
}
