{
	 "smiles": "CS(=O)(=O)N1CCC2=C1C=CC(=C2)C(O)=O", 
	 "Tm": 504.15, 
	 "num_atms": 27, 
	 "gaussian": { 
		 "optdone": 1, 
		 "sigma_profile": "yes", 
		 "theory": "DFT", 
		 "functional": "B3LYP", 
		 "basiset": "6-31G**", 
		 "properties": { 
			 "R2extent": 5470.407, 
			 "electric_dipole_moment_norm": 4.56217791082, 
			 "electric_quadrupole_moment_norm": 29.7320915645, 
			 "total_energy": -1141.47282323, 
			 "HOMO_LUMO_gap": 0.18645, 
			 "cosmo_polarized_energy": -24.41, 
			 "cosmo_cavitation_energy": 31.73, 
			 "cosmo_dispersion_energy": -23.69, 
			 "cosmo_repulsion_energy": 1.78, 
			 "cosmo_total_nonelectrostatic_energy": 9.81, 
			 "SMD_solvation_energy": 5.23 
		},
		"coords": [
			{
				"x": -3.4399854065,
				"y": -0.44269675,
				"z": -0.5048031549,
				"element": "C" 
			},
			{
				"x": -2.9774336832,
				"y": -1.8632346017,
				"z": 0.5121611549,
				"element": "S" 
			},
			{
				"x": -3.3206349971,
				"y": -3.0796603358,
				"z": -0.2195332561,
				"element": "O" 
			},
			{
				"x": -3.4604671876,
				"y": -1.6089799918,
				"z": 1.868005404,
				"element": "O" 
			},
			{
				"x": -1.2876412995,
				"y": -1.8273578128,
				"z": 0.5618503773,
				"element": "N" 
			},
			{
				"x": -0.5224302313,
				"y": -2.3638156076,
				"z": -0.599346291,
				"element": "C" 
			},
			{
				"x": 0.9360065687,
				"y": -1.9558400982,
				"z": -0.2909333259,
				"element": "C" 
			},
			{
				"x": 0.7780610631,
				"y": -0.8180061645,
				"z": 0.6936438617,
				"element": "C" 
			},
			{
				"x": -0.5374489519,
				"y": -0.809160451,
				"z": 1.192768902,
				"element": "C" 
			},
			{
				"x": -0.9285352745,
				"y": 0.0861969334,
				"z": 2.1900086428,
				"element": "C" 
			},
			{
				"x": 0.0189601961,
				"y": 1.0066708861,
				"z": 2.6449347651,
				"element": "C" 
			},
			{
				"x": 1.3250250852,
				"y": 1.0361093551,
				"z": 2.1361584933,
				"element": "C" 
			},
			{
				"x": 1.7062884666,
				"y": 0.0904895039,
				"z": 1.1652974258,
				"element": "C" 
			},
			{
				"x": 2.3717807382,
				"y": 1.997069628,
				"z": 2.6025749727,
				"element": "C" 
			},
			{
				"x": 1.944136856,
				"y": 3.1037831447,
				"z": 3.2700203352,
				"element": "O" 
			},
			{
				"x": 3.5549269341,
				"y": 1.834085931,
				"z": 2.4095177125,
				"element": "O" 
			},
			{
				"x": -3.0392591977,
				"y": -0.5751194567,
				"z": -1.5108055893,
				"element": "H" 
			},
			{
				"x": -4.5306256368,
				"y": -0.4187380266,
				"z": -0.5348614813,
				"element": "H" 
			},
			{
				"x": -3.0524382464,
				"y": 0.4658102449,
				"z": -0.0414504843,
				"element": "H" 
			},
			{
				"x": -0.6753640541,
				"y": -3.4394358007,
				"z": -0.6749335577,
				"element": "H" 
			},
			{
				"x": -0.8692531026,
				"y": -1.8989234748,
				"z": -1.5320226934,
				"element": "H" 
			},
			{
				"x": 1.4790434015,
				"y": -2.78671591,
				"z": 0.1753836504,
				"element": "H" 
			},
			{
				"x": 1.480499228,
				"y": -1.6766994063,
				"z": -1.1970369587,
				"element": "H" 
			},
			{
				"x": -1.92345148,
				"y": 0.0499027495,
				"z": 2.61540811,
				"element": "H" 
			},
			{
				"x": -0.2774258627,
				"y": 1.6789755509,
				"z": 3.4466825317,
				"element": "H" 
			},
			{
				"x": 2.7306657242,
				"y": 0.1012662013,
				"z": 0.8073440669,
				"element": "H" 
			},
			{
				"x": 0.9826003503,
				"y": 3.1821237597,
				"z": 3.2075663864,
				"element": "H" 
			}
		],
		 "valence_orbital": [ 
			{
				"type": "occ",
				"energy": -0.31685,
				"method": "rhf"
			},
			{
				"type": "occ",
				"energy": -0.31216,
				"method": "rhf"
			},
			{
				"type": "occ",
				"energy": -0.27575,
				"method": "rhf"
			},
			{
				"type": "occ",
				"energy": -0.27096,
				"method": "rhf"
			},
			{
				"type": "occ",
				"energy": -0.23704,
				"method": "rhf"
			},
			{
				"type": "unocc",
				"energy": -0.05059,
				"method": "rhf"
			},
			{
				"type": "unocc",
				"energy": -0.03136,
				"method": "rhf"
			},
			{
				"type": "unocc",
				"energy": 0.03899,
				"method": "rhf"
			},
			{
				"type": "unocc",
				"energy": 0.05092,
				"method": "rhf"
			},
			{
				"type": "unocc",
				"energy": 0.05908,
				"method": "rhf"
			}
		],
		"cosmo_sigma_profile": { 
			"-0.025": 0.0,
			"-0.024": 0.0,
			"-0.023": 0.0,
			"-0.022": 0.0,
			"-0.021": 0.0,
			"-0.02": 0.0,
			"-0.019": 0.244814094896,
			"-0.018": 0.6679783459,
			"-0.017": 1.05347849204,
			"-0.016": 1.2040233663,
			"-0.015": 0.812340049173,
			"-0.014": 0.627835063288,
			"-0.013": 0.595886310365,
			"-0.012": 1.45220703002,
			"-0.011": 1.65562517181,
			"-0.01": 2.07783391897,
			"-0.009": 5.47592528295,
			"-0.008": 7.42361397957,
			"-0.007": 9.04454768671,
			"-0.006": 18.3596669262,
			"-0.005": 23.3440225484,
			"-0.004": 20.9391694448,
			"-0.003": 16.2832708225,
			"-0.002": 12.3466801051,
			"-0.001": 9.50551564443,
			"0.0": 8.57906420016,
			"0.001": 9.73268026741,
			"0.002": 16.0145104778,
			"0.003": 15.0044133782,
			"0.004": 6.49146386997,
			"0.005": 4.85662651899,
			"0.006": 5.73886711413,
			"0.007": 5.21436508776,
			"0.008": 6.32517858315,
			"0.009": 7.05797361506,
			"0.01": 12.5285178318,
			"0.011": 13.0898679033,
			"0.012": 6.25576273664,
			"0.013": 2.32321592552,
			"0.014": 0.325935495603,
			"0.015": 0.0,
			"0.016": 0.0,
			"0.017": 0.0,
			"0.018": 0.0,
			"0.019": 0.0,
			"0.02": 0.0,
			"0.021": 0.0,
			"0.022": 0.0,
			"0.023": 0.0,
			"0.024": 0.0,
			"0.025": 0.0
		}
	}
}
