{
	 "smiles": "CN(C)C1=CC=C(C=C1)C(C1=CC=CC=C1)C1=CC=C(C=C1)N(C)C", 
	 "Tm": 374.15, 
	 "num_atms": 51, 
	 "gaussian": { 
		 "optdone": 1, 
		 "sigma_profile": "yes", 
		 "theory": "DFT", 
		 "functional": "B3LYP", 
		 "basiset": "6-31G**", 
		 "properties": { 
			 "R2extent": 11975.2578, 
			 "electric_dipole_moment_norm": 2.66605784446, 
			 "electric_quadrupole_moment_norm": 13.8563629225, 
			 "total_energy": -1001.61133521, 
			 "HOMO_LUMO_gap": 0.17854, 
			 "cosmo_polarized_energy": -11.4, 
			 "cosmo_cavitation_energy": 51.67, 
			 "cosmo_dispersion_energy": -35.57, 
			 "cosmo_repulsion_energy": 2.71, 
			 "cosmo_total_nonelectrostatic_energy": 18.81, 
			 "SMD_solvation_energy": 7.43 
		},
		"coords": [
			{
				"x": 1.4058042844,
				"y": 4.4240186435,
				"z": 3.581576462,
				"element": "C" 
			},
			{
				"x": 1.073166681,
				"y": 3.0749204181,
				"z": 4.0052520362,
				"element": "N" 
			},
			{
				"x": 0.1821627437,
				"y": 2.9284466667,
				"z": 5.1430618796,
				"element": "C" 
			},
			{
				"x": 1.1611013123,
				"y": 2.0351412813,
				"z": 3.0795390889,
				"element": "C" 
			},
			{
				"x": 0.6192634556,
				"y": 0.7596042204,
				"z": 3.3469289384,
				"element": "C" 
			},
			{
				"x": 0.7486166688,
				"y": -0.2854313997,
				"z": 2.4338187164,
				"element": "C" 
			},
			{
				"x": 1.4037392552,
				"y": -0.1190244887,
				"z": 1.2092545388,
				"element": "C" 
			},
			{
				"x": 1.9287456355,
				"y": 1.1511575328,
				"z": 0.9388489706,
				"element": "C" 
			},
			{
				"x": 1.8141562142,
				"y": 2.2061098223,
				"z": 1.8377536975,
				"element": "C" 
			},
			{
				"x": 1.5295047184,
				"y": -1.2329080892,
				"z": 0.1674936004,
				"element": "C" 
			},
			{
				"x": 1.6134567735,
				"y": -2.6234549677,
				"z": 0.8081512355,
				"element": "C" 
			},
			{
				"x": 0.5171587658,
				"y": -3.4919150092,
				"z": 0.8722729393,
				"element": "C" 
			},
			{
				"x": 0.6287319039,
				"y": -4.7405461499,
				"z": 1.4903840835,
				"element": "C" 
			},
			{
				"x": 1.8410058851,
				"y": -5.1448712887,
				"z": 2.0488969002,
				"element": "C" 
			},
			{
				"x": 2.9435957691,
				"y": -4.2887579685,
				"z": 1.9873592234,
				"element": "C" 
			},
			{
				"x": 2.8268535939,
				"y": -3.0421996695,
				"z": 1.3747010295,
				"element": "C" 
			},
			{
				"x": 0.4750750277,
				"y": -1.1437555549,
				"z": -0.9381617131,
				"element": "C" 
			},
			{
				"x": -0.7976635776,
				"y": -0.5981865778,
				"z": -0.7421427702,
				"element": "C" 
			},
			{
				"x": -1.7447682222,
				"y": -0.5548635319,
				"z": -1.7637835209,
				"element": "C" 
			},
			{
				"x": -1.4598336419,
				"y": -1.0679525391,
				"z": -3.0474557796,
				"element": "C" 
			},
			{
				"x": -0.1665505484,
				"y": -1.600347086,
				"z": -3.2515102384,
				"element": "C" 
			},
			{
				"x": 0.7625860902,
				"y": -1.6373827432,
				"z": -2.2173242049,
				"element": "C" 
			},
			{
				"x": -2.4124584526,
				"y": -1.0580411037,
				"z": -4.0665861494,
				"element": "N" 
			},
			{
				"x": -3.6212445802,
				"y": -0.2720089049,
				"z": -3.8903653346,
				"element": "C" 
			},
			{
				"x": -1.9901456131,
				"y": -1.343098588,
				"z": -5.4269881639,
				"element": "C" 
			},
			{
				"x": 0.7667604527,
				"y": 4.7922137948,
				"z": 2.7623901323,
				"element": "H" 
			},
			{
				"x": 2.4476236279,
				"y": 4.4849123389,
				"z": 3.2479707826,
				"element": "H" 
			},
			{
				"x": 1.2966505958,
				"y": 5.1018897826,
				"z": 4.4301840507,
				"element": "H" 
			},
			{
				"x": 0.2522739219,
				"y": 3.8200719552,
				"z": 5.7688924376,
				"element": "H" 
			},
			{
				"x": 0.4738006296,
				"y": 2.0721622368,
				"z": 5.7611048628,
				"element": "H" 
			},
			{
				"x": -0.8728488846,
				"y": 2.792471969,
				"z": 4.8540122358,
				"element": "H" 
			},
			{
				"x": 0.0965899551,
				"y": 0.5693207691,
				"z": 4.2764016125,
				"element": "H" 
			},
			{
				"x": 0.3314742549,
				"y": -1.2545918729,
				"z": 2.6908690065,
				"element": "H" 
			},
			{
				"x": 2.436372692,
				"y": 1.3262948025,
				"z": -0.0074172444,
				"element": "H" 
			},
			{
				"x": 2.2400959143,
				"y": 3.1649116815,
				"z": 1.5682905388,
				"element": "H" 
			},
			{
				"x": 2.4979595217,
				"y": -1.0753951907,
				"z": -0.3262118846,
				"element": "H" 
			},
			{
				"x": -0.4259138393,
				"y": -3.193998704,
				"z": 0.4250579846,
				"element": "H" 
			},
			{
				"x": -0.2346798887,
				"y": -5.3994982062,
				"z": 1.5281758649,
				"element": "H" 
			},
			{
				"x": 1.9290171174,
				"y": -6.1181425486,
				"z": 2.5235762316,
				"element": "H" 
			},
			{
				"x": 3.8953356056,
				"y": -4.5937258384,
				"z": 2.4142161847,
				"element": "H" 
			},
			{
				"x": 3.6874314022,
				"y": -2.3781810736,
				"z": 1.3360645582,
				"element": "H" 
			},
			{
				"x": -1.0559078665,
				"y": -0.1793162655,
				"z": 0.2258098013,
				"element": "H" 
			},
			{
				"x": -2.7090424384,
				"y": -0.1086410864,
				"z": -1.5531063182,
				"element": "H" 
			},
			{
				"x": 0.1226092687,
				"y": -1.9854156456,
				"z": -4.2217754811,
				"element": "H" 
			},
			{
				"x": 1.7445406456,
				"y": -2.0622664632,
				"z": -2.4154539741,
				"element": "H" 
			},
			{
				"x": -3.4242057058,
				"y": 0.8042686927,
				"z": -3.7565764549,
				"element": "H" 
			},
			{
				"x": -4.2588363094,
				"y": -0.3958024143,
				"z": -4.7677391619,
				"element": "H" 
			},
			{
				"x": -4.1908662764,
				"y": -0.6194948181,
				"z": -3.0214861288,
				"element": "H" 
			},
			{
				"x": -1.2440126186,
				"y": -0.6275731348,
				"z": -5.8096341205,
				"element": "H" 
			},
			{
				"x": -2.8606756103,
				"y": -1.3123051137,
				"z": -6.0848982621,
				"element": "H" 
			},
			{
				"x": -1.5608063094,
				"y": -2.3482225716,
				"z": -5.5015927194,
				"element": "H" 
			}
		],
		 "valence_orbital": [ 
			{
				"type": "occ",
				"energy": -0.23482,
				"method": "rhf"
			},
			{
				"type": "occ",
				"energy": -0.23379,
				"method": "rhf"
			},
			{
				"type": "occ",
				"energy": -0.22747,
				"method": "rhf"
			},
			{
				"type": "occ",
				"energy": -0.18384,
				"method": "rhf"
			},
			{
				"type": "occ",
				"energy": -0.17594,
				"method": "rhf"
			},
			{
				"type": "unocc",
				"energy": 0.0026,
				"method": "rhf"
			},
			{
				"type": "unocc",
				"energy": 0.00817,
				"method": "rhf"
			},
			{
				"type": "unocc",
				"energy": 0.01396,
				"method": "rhf"
			},
			{
				"type": "unocc",
				"energy": 0.0209,
				"method": "rhf"
			},
			{
				"type": "unocc",
				"energy": 0.02673,
				"method": "rhf"
			}
		],
		"cosmo_sigma_profile": { 
			"-0.025": 0.0,
			"-0.024": 0.0,
			"-0.023": 0.0,
			"-0.022": 0.0,
			"-0.021": 0.0,
			"-0.02": 0.0,
			"-0.019": 0.0,
			"-0.018": 0.0,
			"-0.017": 0.0,
			"-0.016": 0.0,
			"-0.015": 0.0,
			"-0.014": 0.0,
			"-0.013": 0.0,
			"-0.012": 0.0,
			"-0.011": 0.0,
			"-0.01": 0.0,
			"-0.009": 0.0,
			"-0.008": 0.0,
			"-0.007": 0.594503198953,
			"-0.006": 6.11239540921,
			"-0.005": 27.9836604004,
			"-0.004": 40.6309699062,
			"-0.003": 48.9709710892,
			"-0.002": 51.6187142669,
			"-0.001": 49.7686605336,
			"0.0": 30.5168860964,
			"0.001": 21.2154227356,
			"0.002": 18.6755323419,
			"0.003": 19.2965907892,
			"0.004": 20.3696400761,
			"0.005": 25.4166407324,
			"0.006": 25.6035802664,
			"0.007": 17.2684039547,
			"0.008": 3.74539329455,
			"0.009": 0.907668028155,
			"0.01": 0.0,
			"0.011": 0.0,
			"0.012": 0.0,
			"0.013": 0.0,
			"0.014": 0.0,
			"0.015": 0.0,
			"0.016": 0.0,
			"0.017": 0.0,
			"0.018": 0.0,
			"0.019": 0.0,
			"0.02": 0.0,
			"0.021": 0.0,
			"0.022": 0.0,
			"0.023": 0.0,
			"0.024": 0.0,
			"0.025": 0.0
		}
	}
}
