{
	 "smiles": "NC1=CC=C(C=C1)C1=CC=CN=C1", 
	 "Tm": 389.15, 
	 "num_atms": 23, 
	 "gaussian": { 
		 "optdone": 1, 
		 "sigma_profile": "yes", 
		 "theory": "DFT", 
		 "functional": "B3LYP", 
		 "basiset": "6-31G**", 
		 "properties": { 
			 "R2extent": 3037.5691, 
			 "electric_dipole_moment_norm": 3.62188138679, 
			 "electric_quadrupole_moment_norm": 15.52365714, 
			 "total_energy": -534.704130824, 
			 "HOMO_LUMO_gap": 0.17372, 
			 "cosmo_polarized_energy": -12.11, 
			 "cosmo_cavitation_energy": 26.97, 
			 "cosmo_dispersion_energy": -20.03, 
			 "cosmo_repulsion_energy": 1.56, 
			 "cosmo_total_nonelectrostatic_energy": 8.5, 
			 "SMD_solvation_energy": 2.96 
		},
		"coords": [
			{
				"x": 1.3253246852,
				"y": -4.2058931213,
				"z": 1.0395353911,
				"element": "N" 
			},
			{
				"x": 1.0571946747,
				"y": -2.9026423994,
				"z": 0.6252881123,
				"element": "C" 
			},
			{
				"x": 0.7837916843,
				"y": -2.615114638,
				"z": -0.7236158768,
				"element": "C" 
			},
			{
				"x": 0.462235635,
				"y": -1.3230444427,
				"z": -1.1220162216,
				"element": "C" 
			},
			{
				"x": 0.3986353593,
				"y": -0.2620330579,
				"z": -0.2023612946,
				"element": "C" 
			},
			{
				"x": 0.6725646545,
				"y": -0.5600217764,
				"z": 1.1438826015,
				"element": "C" 
			},
			{
				"x": 0.9951883337,
				"y": -1.8484066611,
				"z": 1.5534328856,
				"element": "C" 
			},
			{
				"x": 0.0597581073,
				"y": 1.1120618466,
				"z": -0.6345037705,
				"element": "C" 
			},
			{
				"x": -0.8787485358,
				"y": 1.3681989861,
				"z": -1.6464936222,
				"element": "C" 
			},
			{
				"x": -1.1548082212,
				"y": 2.6825029997,
				"z": -2.0128660972,
				"element": "C" 
			},
			{
				"x": -0.4920542598,
				"y": 3.7158109608,
				"z": -1.3496741362,
				"element": "C" 
			},
			{
				"x": 0.4101115498,
				"y": 3.504460397,
				"z": -0.3828415688,
				"element": "N" 
			},
			{
				"x": 0.6720088921,
				"y": 2.2373255791,
				"z": -0.050955142,
				"element": "C" 
			},
			{
				"x": 1.8388647971,
				"y": -4.2898736261,
				"z": 1.905722964,
				"element": "H" 
			},
			{
				"x": 1.6803815767,
				"y": -4.8250922055,
				"z": 0.3243188833,
				"element": "H" 
			},
			{
				"x": 0.8315950403,
				"y": -3.4122891023,
				"z": -1.4616152373,
				"element": "H" 
			},
			{
				"x": 0.2845715935,
				"y": -1.1285746605,
				"z": -2.1760422492,
				"element": "H" 
			},
			{
				"x": 0.6087946629,
				"y": 0.2268801506,
				"z": 1.8897561122,
				"element": "H" 
			},
			{
				"x": 1.187228677,
				"y": -2.048795596,
				"z": 2.6047316211,
				"element": "H" 
			},
			{
				"x": -1.4017238513,
				"y": 0.5437922521,
				"z": -2.1229579194,
				"element": "H" 
			},
			{
				"x": -1.8810840753,
				"y": 2.9049207663,
				"z": -2.7888744387,
				"element": "H" 
			},
			{
				"x": -0.6917469336,
				"y": 4.7553088708,
				"z": -1.6039857811,
				"element": "H" 
			},
			{
				"x": 1.4312159537,
				"y": 2.095618478,
				"z": 0.7166347847,
				"element": "H" 
			}
		],
		 "valence_orbital": [ 
			{
				"type": "occ",
				"energy": -0.27717,
				"method": "rhf"
			},
			{
				"type": "occ",
				"energy": -0.25645,
				"method": "rhf"
			},
			{
				"type": "occ",
				"energy": -0.25131,
				"method": "rhf"
			},
			{
				"type": "occ",
				"energy": -0.24505,
				"method": "rhf"
			},
			{
				"type": "occ",
				"energy": -0.19845,
				"method": "rhf"
			},
			{
				"type": "unocc",
				"energy": -0.02473,
				"method": "rhf"
			},
			{
				"type": "unocc",
				"energy": -0.01307,
				"method": "rhf"
			},
			{
				"type": "unocc",
				"energy": -0.00178,
				"method": "rhf"
			},
			{
				"type": "unocc",
				"energy": 0.03492,
				"method": "rhf"
			},
			{
				"type": "unocc",
				"energy": 0.07716,
				"method": "rhf"
			}
		],
		"cosmo_sigma_profile": { 
			"-0.025": 0.0,
			"-0.024": 0.0,
			"-0.023": 0.0,
			"-0.022": 0.0,
			"-0.021": 0.0,
			"-0.02": 0.0,
			"-0.019": 0.0,
			"-0.018": 0.0,
			"-0.017": 0.0,
			"-0.016": 0.0,
			"-0.015": 0.0,
			"-0.014": 0.0,
			"-0.013": 0.473101273499,
			"-0.012": 2.50752056519,
			"-0.011": 3.04403482545,
			"-0.01": 2.89454554489,
			"-0.009": 3.17906109621,
			"-0.008": 2.95611246142,
			"-0.007": 4.32438051807,
			"-0.006": 13.2341152847,
			"-0.005": 17.9921620677,
			"-0.004": 16.1196288382,
			"-0.003": 13.5801992812,
			"-0.002": 10.7574746875,
			"-0.001": 10.364587318,
			"0.0": 10.6051005043,
			"0.001": 11.769254435,
			"0.002": 16.7708315507,
			"0.003": 21.0477511211,
			"0.004": 11.8967857365,
			"0.005": 11.2890288852,
			"0.006": 12.4353768819,
			"0.007": 3.21708658318,
			"0.008": 2.66254928611,
			"0.009": 2.41364951177,
			"0.01": 2.24840913306,
			"0.011": 0.63210844985,
			"0.012": 2.02616769086,
			"0.013": 1.38577415143,
			"0.014": 1.30196245903,
			"0.015": 1.1372671827,
			"0.016": 0.850716504718,
			"0.017": 0.519394384946,
			"0.018": 0.0495050956365,
			"0.019": 0.0,
			"0.02": 0.0,
			"0.021": 0.0,
			"0.022": 0.0,
			"0.023": 0.0,
			"0.024": 0.0,
			"0.025": 0.0
		}
	}
}
