{
	 "smiles": "COC1=C(C=C2C(=O)CC2=C1)C(C)C", 
	 "Tm": 316.15, 
	 "num_atms": 28, 
	 "gaussian": { 
		 "optdone": 1, 
		 "sigma_profile": "yes", 
		 "theory": "DFT", 
		 "functional": "B3LYP", 
		 "basiset": "6-31G**", 
		 "properties": { 
			 "R2extent": 3334.7627, 
			 "electric_dipole_moment_norm": 5.17274709028, 
			 "electric_quadrupole_moment_norm": 17.1218576183, 
			 "total_energy": -616.123255604, 
			 "HOMO_LUMO_gap": 0.18279, 
			 "cosmo_polarized_energy": -9.62, 
			 "cosmo_cavitation_energy": 30.77, 
			 "cosmo_dispersion_energy": -21.96, 
			 "cosmo_repulsion_energy": 1.76, 
			 "cosmo_total_nonelectrostatic_energy": 10.57, 
			 "SMD_solvation_energy": 6.48 
		},
		"coords": [
			{
				"x": -0.1937032942,
				"y": 1.9081023118,
				"z": 3.0457742508,
				"element": "C" 
			},
			{
				"x": -0.6533995587,
				"y": 1.2736501853,
				"z": 1.8607438038,
				"element": "O" 
			},
			{
				"x": 0.1431467444,
				"y": 0.3513618231,
				"z": 1.2497828081,
				"element": "C" 
			},
			{
				"x": -0.431407536,
				"y": -0.2471254085,
				"z": 0.0832892441,
				"element": "C" 
			},
			{
				"x": 0.3062288753,
				"y": -1.2027699518,
				"z": -0.6164703966,
				"element": "C" 
			},
			{
				"x": 1.5778998846,
				"y": -1.5265802253,
				"z": -0.1375595545,
				"element": "C" 
			},
			{
				"x": 2.7985445238,
				"y": -2.3587977833,
				"z": -0.3366883729,
				"element": "C" 
			},
			{
				"x": 3.183337248,
				"y": -3.1880370213,
				"z": -1.1239574584,
				"element": "O" 
			},
			{
				"x": 3.4348906056,
				"y": -1.7025496756,
				"z": 0.9526394592,
				"element": "C" 
			},
			{
				"x": 2.1185105088,
				"y": -0.9335863932,
				"z": 1.0044139448,
				"element": "C" 
			},
			{
				"x": 1.4221338205,
				"y": 0.0180777737,
				"z": 1.7329860094,
				"element": "C" 
			},
			{
				"x": -1.8195258771,
				"y": 0.2012818095,
				"z": -0.3644434917,
				"element": "C" 
			},
			{
				"x": -1.7435959982,
				"y": 1.5478898395,
				"z": -1.1156242764,
				"element": "C" 
			},
			{
				"x": -2.5623157618,
				"y": -0.8458218406,
				"z": -1.207099422,
				"element": "C" 
			},
			{
				"x": -0.9940248297,
				"y": 2.582730832,
				"z": 3.3526809168,
				"element": "H" 
			},
			{
				"x": -0.0060976907,
				"y": 1.180624158,
				"z": 3.8449503828,
				"element": "H" 
			},
			{
				"x": 0.7192155316,
				"y": 2.4883584956,
				"z": 2.8639565753,
				"element": "H" 
			},
			{
				"x": -0.1045718182,
				"y": -1.6780348735,
				"z": -1.5003291249,
				"element": "H" 
			},
			{
				"x": 4.3411345495,
				"y": -1.1152358586,
				"z": 0.7659841001,
				"element": "H" 
			},
			{
				"x": 3.6287644004,
				"y": -2.40345843,
				"z": 1.7725204222,
				"element": "H" 
			},
			{
				"x": 1.8296263492,
				"y": 0.48385871,
				"z": 2.6218996801,
				"element": "H" 
			},
			{
				"x": -2.4062934192,
				"y": 0.3714797409,
				"z": 0.5454931167,
				"element": "H" 
			},
			{
				"x": -1.2725342683,
				"y": 2.3180740921,
				"z": -0.4996599597,
				"element": "H" 
			},
			{
				"x": -1.1623081872,
				"y": 1.4439589452,
				"z": -2.0386573433,
				"element": "H" 
			},
			{
				"x": -2.7471922401,
				"y": 1.8949725145,
				"z": -1.3855176215,
				"element": "H" 
			},
			{
				"x": -2.0955616137,
				"y": -0.9903726167,
				"z": -2.1877941085,
				"element": "H" 
			},
			{
				"x": -2.602927031,
				"y": -1.817456736,
				"z": -0.7045282946,
				"element": "H" 
			},
			{
				"x": -3.5902739175,
				"y": -0.5152944167,
				"z": -1.387185289,
				"element": "H" 
			}
		],
		 "valence_orbital": [ 
			{
				"type": "occ",
				"energy": -0.32188,
				"method": "rhf"
			},
			{
				"type": "occ",
				"energy": -0.31884,
				"method": "rhf"
			},
			{
				"type": "occ",
				"energy": -0.25624,
				"method": "rhf"
			},
			{
				"type": "occ",
				"energy": -0.2378,
				"method": "rhf"
			},
			{
				"type": "occ",
				"energy": -0.22646,
				"method": "rhf"
			},
			{
				"type": "unocc",
				"energy": -0.04367,
				"method": "rhf"
			},
			{
				"type": "unocc",
				"energy": -0.00899,
				"method": "rhf"
			},
			{
				"type": "unocc",
				"energy": 0.05745,
				"method": "rhf"
			},
			{
				"type": "unocc",
				"energy": 0.08827,
				"method": "rhf"
			},
			{
				"type": "unocc",
				"energy": 0.09202,
				"method": "rhf"
			}
		],
		"cosmo_sigma_profile": { 
			"-0.025": 0.0,
			"-0.024": 0.0,
			"-0.023": 0.0,
			"-0.022": 0.0,
			"-0.021": 0.0,
			"-0.02": 0.0,
			"-0.019": 0.0,
			"-0.018": 0.0,
			"-0.017": 0.0,
			"-0.016": 0.0,
			"-0.015": 0.0,
			"-0.014": 0.0,
			"-0.013": 0.0,
			"-0.012": 0.0,
			"-0.011": 0.0,
			"-0.01": 0.0,
			"-0.009": 0.0,
			"-0.008": 0.0801535200284,
			"-0.007": 2.51005623948,
			"-0.006": 12.2816155688,
			"-0.005": 15.8752476407,
			"-0.004": 17.3355285643,
			"-0.003": 23.1295603037,
			"-0.002": 25.1281494929,
			"-0.001": 28.1244345959,
			"0.0": 23.9596012419,
			"0.001": 26.0275038494,
			"0.002": 18.7362137476,
			"0.003": 14.1314378562,
			"0.004": 9.22086841841,
			"0.005": 2.92898626105,
			"0.006": 3.55978312947,
			"0.007": 2.38971381334,
			"0.008": 1.92111553808,
			"0.009": 1.40902361518,
			"0.01": 2.22411621356,
			"0.011": 4.40439878915,
			"0.012": 5.20003337829,
			"0.013": 2.38354086677,
			"0.014": 0.0864957326087,
			"0.015": 0.0,
			"0.016": 0.0,
			"0.017": 0.0,
			"0.018": 0.0,
			"0.019": 0.0,
			"0.02": 0.0,
			"0.021": 0.0,
			"0.022": 0.0,
			"0.023": 0.0,
			"0.024": 0.0,
			"0.025": 0.0
		}
	}
}
