{
	 "smiles": "ClS(=O)(=O)C1=CC=C(OC2=CC=C(C=C2)C#N)C=C1", 
	 "Tm": 384.15, 
	 "num_atms": 27, 
	 "gaussian": { 
		 "optdone": 1, 
		 "sigma_profile": "yes", 
		 "theory": "DFT", 
		 "functional": "B3LYP", 
		 "basiset": "6-31G**", 
		 "properties": { 
			 "R2extent": 9988.0791, 
			 "electric_dipole_moment_norm": 3.50536600942, 
			 "electric_quadrupole_moment_norm": 47.0724945009, 
			 "total_energy": -1638.91252877, 
			 "HOMO_LUMO_gap": 0.16696, 
			 "cosmo_polarized_energy": -17.05, 
			 "cosmo_cavitation_energy": 37.47, 
			 "cosmo_dispersion_energy": -26.72, 
			 "cosmo_repulsion_energy": 2.02, 
			 "cosmo_total_nonelectrostatic_energy": 12.77, 
			 "SMD_solvation_energy": 6.71 
		},
		"coords": [
			{
				"x": -3.8303366595,
				"y": 0.212101026,
				"z": -4.2263234981,
				"element": "Cl" 
			},
			{
				"x": -4.0079094377,
				"y": 1.7295897209,
				"z": -2.7301872932,
				"element": "S" 
			},
			{
				"x": -5.3756198219,
				"y": 1.6445319251,
				"z": -2.2339038109,
				"element": "O" 
			},
			{
				"x": -3.4646197804,
				"y": 2.9442140434,
				"z": -3.3251072899,
				"element": "O" 
			},
			{
				"x": -2.8888722608,
				"y": 1.13144137,
				"z": -1.4822467839,
				"element": "C" 
			},
			{
				"x": -3.3746025335,
				"y": 0.28141773,
				"z": -0.484964138,
				"element": "C" 
			},
			{
				"x": -2.4978617491,
				"y": -0.1779044995,
				"z": 0.4894766239,
				"element": "C" 
			},
			{
				"x": -1.1535863555,
				"y": 0.2143060661,
				"z": 0.455971562,
				"element": "C" 
			},
			{
				"x": -0.3754747468,
				"y": -0.2368751952,
				"z": 1.4913689996,
				"element": "O" 
			},
			{
				"x": 0.9882266071,
				"y": -0.4060350104,
				"z": 1.3547262479,
				"element": "C" 
			},
			{
				"x": 1.5506292737,
				"y": -1.0576210065,
				"z": 0.2519953543,
				"element": "C" 
			},
			{
				"x": 2.9245703087,
				"y": -1.2684849812,
				"z": 0.2140661093,
				"element": "C" 
			},
			{
				"x": 3.7378563546,
				"y": -0.8397809525,
				"z": 1.2775047461,
				"element": "C" 
			},
			{
				"x": 3.1554676874,
				"y": -0.1977524862,
				"z": 2.3839629076,
				"element": "C" 
			},
			{
				"x": 1.783032572,
				"y": 0.0204764134,
				"z": 2.4209150241,
				"element": "C" 
			},
			{
				"x": 5.1533675688,
				"y": -1.0600826912,
				"z": 1.2349193022,
				"element": "C" 
			},
			{
				"x": 6.3024290946,
				"y": -1.237967656,
				"z": 1.1999920959,
				"element": "N" 
			},
			{
				"x": -0.6779671347,
				"y": 1.076454942,
				"z": -0.5409587987,
				"element": "C" 
			},
			{
				"x": -1.5529220684,
				"y": 1.5346493754,
				"z": -1.5209424661,
				"element": "C" 
			},
			{
				"x": -4.4196848369,
				"y": -0.0065890356,
				"z": -0.4738850231,
				"element": "H" 
			},
			{
				"x": -2.8332474058,
				"y": -0.8348278115,
				"z": 1.2842251412,
				"element": "H" 
			},
			{
				"x": 0.9194067313,
				"y": -1.4014366122,
				"z": -0.5599213933,
				"element": "H" 
			},
			{
				"x": 3.373257983,
				"y": -1.7745059089,
				"z": -0.633916869,
				"element": "H" 
			},
			{
				"x": 3.7824283681,
				"y": 0.1302873474,
				"z": 3.2058871473,
				"element": "H" 
			},
			{
				"x": 1.3136445211,
				"y": 0.5134077992,
				"z": 3.265047043,
				"element": "H" 
			},
			{
				"x": 0.3582723732,
				"y": 1.3935228523,
				"z": -0.5435377149,
				"element": "H" 
			},
			{
				"x": -1.2104846523,
				"y": 2.2115632356,
				"z": -2.2955632254,
				"element": "H" 
			}
		],
		 "valence_orbital": [ 
			{
				"type": "occ",
				"energy": -0.31639,
				"method": "rhf"
			},
			{
				"type": "occ",
				"energy": -0.30207,
				"method": "rhf"
			},
			{
				"type": "occ",
				"energy": -0.29637,
				"method": "rhf"
			},
			{
				"type": "occ",
				"energy": -0.28928,
				"method": "rhf"
			},
			{
				"type": "occ",
				"energy": -0.26146,
				"method": "rhf"
			},
			{
				"type": "unocc",
				"energy": -0.0945,
				"method": "rhf"
			},
			{
				"type": "unocc",
				"energy": -0.06589,
				"method": "rhf"
			},
			{
				"type": "unocc",
				"energy": -0.05352,
				"method": "rhf"
			},
			{
				"type": "unocc",
				"energy": -0.04478,
				"method": "rhf"
			},
			{
				"type": "unocc",
				"energy": -0.04123,
				"method": "rhf"
			}
		],
		"cosmo_sigma_profile": { 
			"-0.025": 0.0,
			"-0.024": 0.0,
			"-0.023": 0.0,
			"-0.022": 0.0,
			"-0.021": 0.0,
			"-0.02": 0.0,
			"-0.019": 0.0,
			"-0.018": 0.0,
			"-0.017": 0.0,
			"-0.016": 0.0,
			"-0.015": 0.0,
			"-0.014": 0.0,
			"-0.013": 0.0,
			"-0.012": 0.0,
			"-0.011": 0.0,
			"-0.01": 0.0,
			"-0.009": 3.07850062422,
			"-0.008": 14.8138388625,
			"-0.007": 17.869977889,
			"-0.006": 15.3110664619,
			"-0.005": 14.1911615182,
			"-0.004": 15.6850169681,
			"-0.003": 14.3702665926,
			"-0.002": 19.789668682,
			"-0.001": 25.6575904549,
			"0.0": 33.8509954013,
			"0.001": 30.52855182,
			"0.002": 15.9651933997,
			"0.003": 16.2462087617,
			"0.004": 14.9427079485,
			"0.005": 5.81702945026,
			"0.006": 7.96939098079,
			"0.007": 8.62414651796,
			"0.008": 13.2359580543,
			"0.009": 8.29122564098,
			"0.01": 3.31823644423,
			"0.011": 2.57017516063,
			"0.012": 2.6240982096,
			"0.013": 1.51338496795,
			"0.014": 0.0185770295292,
			"0.015": 0.0,
			"0.016": 0.0,
			"0.017": 0.0,
			"0.018": 0.0,
			"0.019": 0.0,
			"0.02": 0.0,
			"0.021": 0.0,
			"0.022": 0.0,
			"0.023": 0.0,
			"0.024": 0.0,
			"0.025": 0.0
		}
	}
}
