{
	 "smiles": "CN1C2CCC1CC(C2)OC(=O)C(O)C1=CC=CC=C1", 
	 "Tm": 372.65, 
	 "num_atms": 41, 
	 "gaussian": { 
		 "optdone": 1, 
		 "sigma_profile": "yes", 
		 "theory": "DFT", 
		 "functional": "B3LYP", 
		 "basiset": "6-31G**", 
		 "properties": { 
			 "R2extent": 7095.1653, 
			 "electric_dipole_moment_norm": 2.63490119929, 
			 "electric_quadrupole_moment_norm": 9.85088716056, 
			 "total_energy": -902.78194719, 
			 "HOMO_LUMO_gap": 0.20848, 
			 "cosmo_polarized_energy": -11.11, 
			 "cosmo_cavitation_energy": 40.65, 
			 "cosmo_dispersion_energy": -28.51, 
			 "cosmo_repulsion_energy": 2.17, 
			 "cosmo_total_nonelectrostatic_energy": 14.31, 
			 "SMD_solvation_energy": 4.2 
		},
		"coords": [
			{
				"x": -2.8840585987,
				"y": 3.0703812294,
				"z": 1.9307038898,
				"element": "C" 
			},
			{
				"x": -2.4481256061,
				"y": 1.9448942454,
				"z": 1.1086812545,
				"element": "N" 
			},
			{
				"x": -1.4496353061,
				"y": 1.0781290277,
				"z": 1.7682754922,
				"element": "C" 
			},
			{
				"x": -0.0992995107,
				"y": 1.8451946199,
				"z": 1.6476120628,
				"element": "C" 
			},
			{
				"x": -0.2735154358,
				"y": 2.6921567082,
				"z": 0.3552403306,
				"element": "C" 
			},
			{
				"x": -1.7215544583,
				"y": 2.3477552716,
				"z": -0.115495207,
				"element": "C" 
			},
			{
				"x": -1.7816777943,
				"y": 1.1522657308,
				"z": -1.083038802,
				"element": "C" 
			},
			{
				"x": -1.1766246189,
				"y": -0.1277880063,
				"z": -0.4838315184,
				"element": "C" 
			},
			{
				"x": -1.4543532192,
				"y": -0.2686149433,
				"z": 1.018836582,
				"element": "C" 
			},
			{
				"x": 0.2817171682,
				"y": -0.113776968,
				"z": -0.6551149164,
				"element": "O" 
			},
			{
				"x": 0.7703861713,
				"y": -0.5412693804,
				"z": -1.8353219936,
				"element": "C" 
			},
			{
				"x": 0.1027731365,
				"y": -0.9913869348,
				"z": -2.7415347319,
				"element": "O" 
			},
			{
				"x": 2.2994509852,
				"y": -0.4132697576,
				"z": -1.8688596393,
				"element": "C" 
			},
			{
				"x": 2.7503237577,
				"y": 0.6890860217,
				"z": -1.1059809912,
				"element": "O" 
			},
			{
				"x": 2.9480276053,
				"y": -1.7442891338,
				"z": -1.466170044,
				"element": "C" 
			},
			{
				"x": 3.9802746854,
				"y": -1.7615924862,
				"z": -0.5241618264,
				"element": "C" 
			},
			{
				"x": 4.589273413,
				"y": -2.9671023772,
				"z": -0.1678367639,
				"element": "C" 
			},
			{
				"x": 4.1748868616,
				"y": -4.1638158511,
				"z": -0.7524873719,
				"element": "C" 
			},
			{
				"x": 3.1487266775,
				"y": -4.1490721952,
				"z": -1.7004806749,
				"element": "C" 
			},
			{
				"x": 2.5376863307,
				"y": -2.9474463887,
				"z": -2.057239124,
				"element": "C" 
			},
			{
				"x": -3.3899868744,
				"y": 2.6897530809,
				"z": 2.8238965366,
				"element": "H" 
			},
			{
				"x": -2.0770769396,
				"y": 3.7469531069,
				"z": 2.2632355883,
				"element": "H" 
			},
			{
				"x": -3.6088369515,
				"y": 3.6673643676,
				"z": 1.3679076255,
				"element": "H" 
			},
			{
				"x": -1.7370646246,
				"y": 0.9038085303,
				"z": 2.8103140126,
				"element": "H" 
			},
			{
				"x": 0.0500916037,
				"y": 2.4885577923,
				"z": 2.5199000844,
				"element": "H" 
			},
			{
				"x": 0.7548842208,
				"y": 1.1645321094,
				"z": 1.6044482343,
				"element": "H" 
			},
			{
				"x": -0.1904748881,
				"y": 3.7604008301,
				"z": 0.5761935847,
				"element": "H" 
			},
			{
				"x": 0.4770235471,
				"y": 2.4599927857,
				"z": -0.4034828319,
				"element": "H" 
			},
			{
				"x": -2.2211335998,
				"y": 3.2048377974,
				"z": -0.5784422625,
				"element": "H" 
			},
			{
				"x": -1.2873289984,
				"y": 1.3765197614,
				"z": -2.033455324,
				"element": "H" 
			},
			{
				"x": -2.8358966376,
				"y": 0.9532307505,
				"z": -1.3042468983,
				"element": "H" 
			},
			{
				"x": -1.5372270517,
				"y": -1.001440243,
				"z": -1.0306729503,
				"element": "H" 
			},
			{
				"x": -2.4507111269,
				"y": -0.7086244794,
				"z": 1.133628703,
				"element": "H" 
			},
			{
				"x": -0.7314792356,
				"y": -0.967923488,
				"z": 1.4530987959,
				"element": "H" 
			},
			{
				"x": 2.5577851221,
				"y": -0.1910950842,
				"z": -2.9097279512,
				"element": "H" 
			},
			{
				"x": 2.2952594265,
				"y": 0.6458822585,
				"z": -0.2526986574,
				"element": "H" 
			},
			{
				"x": 4.3110661569,
				"y": -0.8259540927,
				"z": -0.0867046922,
				"element": "H" 
			},
			{
				"x": 5.3912353148,
				"y": -2.9676529394,
				"z": 0.5652755534,
				"element": "H" 
			},
			{
				"x": 4.6494587498,
				"y": -5.1009544563,
				"z": -0.4758274822,
				"element": "H" 
			},
			{
				"x": 2.8222379649,
				"y": -5.0757485349,
				"z": -2.1641796075,
				"element": "H" 
			},
			{
				"x": 1.7386925777,
				"y": -2.9394782852,
				"z": -2.7925560683,
				"element": "H" 
			}
		],
		 "valence_orbital": [ 
			{
				"type": "occ",
				"energy": -0.29426,
				"method": "rhf"
			},
			{
				"type": "occ",
				"energy": -0.2655,
				"method": "rhf"
			},
			{
				"type": "occ",
				"energy": -0.24868,
				"method": "rhf"
			},
			{
				"type": "occ",
				"energy": -0.24194,
				"method": "rhf"
			},
			{
				"type": "occ",
				"energy": -0.21658,
				"method": "rhf"
			},
			{
				"type": "unocc",
				"energy": -0.0081,
				"method": "rhf"
			},
			{
				"type": "unocc",
				"energy": -0.00198,
				"method": "rhf"
			},
			{
				"type": "unocc",
				"energy": 0.01352,
				"method": "rhf"
			},
			{
				"type": "unocc",
				"energy": 0.05727,
				"method": "rhf"
			},
			{
				"type": "unocc",
				"energy": 0.07362,
				"method": "rhf"
			}
		],
		"cosmo_sigma_profile": { 
			"-0.025": 0.0,
			"-0.024": 0.0,
			"-0.023": 0.0,
			"-0.022": 0.0,
			"-0.021": 0.0,
			"-0.02": 0.0,
			"-0.019": 0.0,
			"-0.018": 0.0,
			"-0.017": 0.0,
			"-0.016": 0.0,
			"-0.015": 0.0,
			"-0.014": 0.0,
			"-0.013": 0.0,
			"-0.012": 0.0,
			"-0.011": 0.320195809783,
			"-0.01": 1.20711705695,
			"-0.009": 0.635621603506,
			"-0.008": 1.74831602091,
			"-0.007": 4.19433127883,
			"-0.006": 5.34149198735,
			"-0.005": 12.9245683636,
			"-0.004": 28.06411499,
			"-0.003": 39.3060374296,
			"-0.002": 44.0384738486,
			"-0.001": 38.271121859,
			"0.0": 32.5830021529,
			"0.001": 21.8615002812,
			"0.002": 15.8312352076,
			"0.003": 12.8523797112,
			"0.004": 12.1210558195,
			"0.005": 12.3639123792,
			"0.006": 9.56459547577,
			"0.007": 2.61171145733,
			"0.008": 3.04778694792,
			"0.009": 3.5331534296,
			"0.01": 3.31838489351,
			"0.011": 4.87702360935,
			"0.012": 3.93626428337,
			"0.013": 2.39306021447,
			"0.014": 0.250363718466,
			"0.015": 0.390763017817,
			"0.016": 0.297129259803,
			"0.017": 0.0846984928531,
			"0.018": 0.0,
			"0.019": 0.0,
			"0.02": 0.0,
			"0.021": 0.0,
			"0.022": 0.0,
			"0.023": 0.0,
			"0.024": 0.0,
			"0.025": 0.0
		}
	}
}
