{
	 "smiles": "CC1=CC=C(S1)C1CC1C(O)=O", 
	 "Tm": 319.15, 
	 "num_atms": 22, 
	 "gaussian": { 
		 "optdone": 1, 
		 "sigma_profile": "yes", 
		 "theory": "DFT", 
		 "functional": "B3LYP", 
		 "basiset": "6-31G**", 
		 "properties": { 
			 "R2extent": 2558.7778, 
			 "electric_dipole_moment_norm": 1.34026681672, 
			 "electric_quadrupole_moment_norm": 7.74934155332, 
			 "total_energy": -897.598023044, 
			 "HOMO_LUMO_gap": 0.20183, 
			 "cosmo_polarized_energy": -11.55, 
			 "cosmo_cavitation_energy": 27.52, 
			 "cosmo_dispersion_energy": -19.97, 
			 "cosmo_repulsion_energy": 1.59, 
			 "cosmo_total_nonelectrostatic_energy": 9.14, 
			 "SMD_solvation_energy": 5.14 
		},
		"coords": [
			{
				"x": 3.6119296186,
				"y": 0.3742115389,
				"z": -1.5787852583,
				"element": "C" 
			},
			{
				"x": 2.4335999491,
				"y": 0.2697069586,
				"z": -0.656783644,
				"element": "C" 
			},
			{
				"x": 2.3814321859,
				"y": -0.277524397,
				"z": 0.5983290702,
				"element": "C" 
			},
			{
				"x": 1.0863974935,
				"y": -0.2206290971,
				"z": 1.1945825584,
				"element": "C" 
			},
			{
				"x": 0.1414374862,
				"y": 0.3662878079,
				"z": 0.3940795923,
				"element": "C" 
			},
			{
				"x": 0.8609838676,
				"y": 0.8705981645,
				"z": -1.1183552496,
				"element": "S" 
			},
			{
				"x": -1.2798758124,
				"y": 0.6484271133,
				"z": 0.7195372483,
				"element": "C" 
			},
			{
				"x": -2.3584261001,
				"y": 0.7383697517,
				"z": -0.3149766648,
				"element": "C" 
			},
			{
				"x": -2.3868009318,
				"y": -0.4273598631,
				"z": 0.6453461484,
				"element": "C" 
			},
			{
				"x": -2.050047197,
				"y": -1.7728008307,
				"z": 0.11478433,
				"element": "C" 
			},
			{
				"x": -2.4810994978,
				"y": -2.7559477989,
				"z": 0.9460963381,
				"element": "O" 
			},
			{
				"x": -1.460672878,
				"y": -2.0062026603,
				"z": -0.9196322733,
				"element": "O" 
			},
			{
				"x": 3.8415399776,
				"y": 1.4142824327,
				"z": -1.8376252791,
				"element": "H" 
			},
			{
				"x": 3.4474198188,
				"y": -0.1682259031,
				"z": -2.5168767006,
				"element": "H" 
			},
			{
				"x": 4.495723203,
				"y": -0.0528184264,
				"z": -1.0963497561,
				"element": "H" 
			},
			{
				"x": 3.2487514174,
				"y": -0.715596477,
				"z": 1.081507227,
				"element": "H" 
			},
			{
				"x": 0.8603871756,
				"y": -0.6057164121,
				"z": 2.1835754403,
				"element": "H" 
			},
			{
				"x": -1.4108233026,
				"y": 1.3013743548,
				"z": 1.5809488247,
				"element": "H" 
			},
			{
				"x": -2.0921237242,
				"y": 0.4833839193,
				"z": -1.3359830937,
				"element": "H" 
			},
			{
				"x": -3.1203112138,
				"y": 1.5033703139,
				"z": -0.207686255,
				"element": "H" 
			},
			{
				"x": -3.1043553094,
				"y": -0.4229838011,
				"z": 1.4583585619,
				"element": "H" 
			},
			{
				"x": -2.2148662262,
				"y": -3.5912066888,
				"z": 0.5264088346,
				"element": "H" 
			}
		],
		 "valence_orbital": [ 
			{
				"type": "occ",
				"energy": -0.30923,
				"method": "rhf"
			},
			{
				"type": "occ",
				"energy": -0.29871,
				"method": "rhf"
			},
			{
				"type": "occ",
				"energy": -0.27245,
				"method": "rhf"
			},
			{
				"type": "occ",
				"energy": -0.23985,
				"method": "rhf"
			},
			{
				"type": "occ",
				"energy": -0.21205,
				"method": "rhf"
			},
			{
				"type": "unocc",
				"energy": -0.01022,
				"method": "rhf"
			},
			{
				"type": "unocc",
				"energy": 0.01085,
				"method": "rhf"
			},
			{
				"type": "unocc",
				"energy": 0.03807,
				"method": "rhf"
			},
			{
				"type": "unocc",
				"energy": 0.0682,
				"method": "rhf"
			},
			{
				"type": "unocc",
				"energy": 0.08344,
				"method": "rhf"
			}
		],
		"cosmo_sigma_profile": { 
			"-0.025": 0.0,
			"-0.024": 0.0,
			"-0.023": 0.0,
			"-0.022": 0.0,
			"-0.021": 0.0,
			"-0.02": 0.0,
			"-0.019": 0.00317992251808,
			"-0.018": 0.64496892332,
			"-0.017": 0.632090230086,
			"-0.016": 0.904627799114,
			"-0.015": 1.02302624809,
			"-0.014": 0.87477113631,
			"-0.013": 0.533795548575,
			"-0.012": 0.287755606747,
			"-0.011": 1.15143988184,
			"-0.01": 0.707867109882,
			"-0.009": 0.386105531323,
			"-0.008": 0.383640754093,
			"-0.007": 3.79666200414,
			"-0.006": 11.8909129701,
			"-0.005": 13.3193328639,
			"-0.004": 17.689093346,
			"-0.003": 17.8462627333,
			"-0.002": 20.336376748,
			"-0.001": 19.2444504329,
			"0.0": 18.4164479385,
			"0.001": 14.1051474764,
			"0.002": 10.3632589814,
			"0.003": 11.0579617946,
			"0.004": 10.6018166208,
			"0.005": 11.3835958634,
			"0.006": 8.4411624586,
			"0.007": 3.87692095376,
			"0.008": 4.1456717601,
			"0.009": 4.22776818853,
			"0.01": 3.01734356556,
			"0.011": 3.33791219047,
			"0.012": 4.55655960043,
			"0.013": 0.794704204168,
			"0.014": 0.0,
			"0.015": 0.0,
			"0.016": 0.0,
			"0.017": 0.0,
			"0.018": 0.0,
			"0.019": 0.0,
			"0.02": 0.0,
			"0.021": 0.0,
			"0.022": 0.0,
			"0.023": 0.0,
			"0.024": 0.0,
			"0.025": 0.0
		}
	}
}
