{
	 "smiles": "CCCCC1=NC(OCCN(C)C)=C2C=CC=CC2=C1", 
	 "Tm": 419.15, 
	 "num_atms": 44, 
	 "gaussian": { 
		 "optdone": 1, 
		 "sigma_profile": "yes", 
		 "theory": "DFT", 
		 "functional": "B3LYP", 
		 "basiset": "6-31G**", 
		 "properties": { 
			 "R2extent": 7297.4654, 
			 "electric_dipole_moment_norm": 0.796689368575, 
			 "electric_quadrupole_moment_norm": 8.81475635228, 
			 "total_energy": -847.018851063, 
			 "HOMO_LUMO_gap": 0.16581, 
			 "cosmo_polarized_energy": -7.09, 
			 "cosmo_cavitation_energy": 45.31, 
			 "cosmo_dispersion_energy": -29.98, 
			 "cosmo_repulsion_energy": 2.34, 
			 "cosmo_total_nonelectrostatic_energy": 17.67, 
			 "SMD_solvation_energy": 4.56 
		},
		"coords": [
			{
				"x": 0.4305557939,
				"y": 4.4697646239,
				"z": -2.8675038108,
				"element": "C" 
			},
			{
				"x": 0.0523471833,
				"y": 3.9574072354,
				"z": -1.4739098452,
				"element": "C" 
			},
			{
				"x": -1.4367985179,
				"y": 4.1437588538,
				"z": -1.1586809709,
				"element": "C" 
			},
			{
				"x": -1.8665230093,
				"y": 3.6698477432,
				"z": 0.2482924635,
				"element": "C" 
			},
			{
				"x": -1.7430792907,
				"y": 2.1784229679,
				"z": 0.466584977,
				"element": "C" 
			},
			{
				"x": -0.5639732631,
				"y": 1.7440975653,
				"z": 1.014245715,
				"element": "N" 
			},
			{
				"x": -0.392088442,
				"y": 0.4615259635,
				"z": 1.216959185,
				"element": "C" 
			},
			{
				"x": 0.7556487064,
				"y": 0.0070916281,
				"z": 1.774364244,
				"element": "O" 
			},
			{
				"x": 1.7535669763,
				"y": 0.9674238116,
				"z": 2.1775737824,
				"element": "C" 
			},
			{
				"x": 2.7231508684,
				"y": 1.365559598,
				"z": 1.0642944949,
				"element": "C" 
			},
			{
				"x": 3.7733376941,
				"y": 0.3816026328,
				"z": 0.8012467429,
				"element": "N" 
			},
			{
				"x": 3.2782152643,
				"y": -0.8171229592,
				"z": 0.1303617127,
				"element": "C" 
			},
			{
				"x": 4.8723280932,
				"y": 0.9741358888,
				"z": 0.04910785,
				"element": "C" 
			},
			{
				"x": -1.3625419549,
				"y": -0.5474086419,
				"z": 0.8949536896,
				"element": "C" 
			},
			{
				"x": -1.1607795395,
				"y": -1.9280223703,
				"z": 1.1296285209,
				"element": "C" 
			},
			{
				"x": -2.1424949192,
				"y": -2.8368154339,
				"z": 0.7924472122,
				"element": "C" 
			},
			{
				"x": -3.3545275308,
				"y": -2.3919313771,
				"z": 0.2143242051,
				"element": "C" 
			},
			{
				"x": -3.5725341895,
				"y": -1.0503287732,
				"z": -0.0167622012,
				"element": "C" 
			},
			{
				"x": -2.582463524,
				"y": -0.0897721475,
				"z": 0.317726315,
				"element": "C" 
			},
			{
				"x": -2.7490501267,
				"y": 1.3080532005,
				"z": 0.114390952,
				"element": "C" 
			},
			{
				"x": 0.2095296476,
				"y": 5.5384095306,
				"z": -2.9729947081,
				"element": "H" 
			},
			{
				"x": -0.1261395852,
				"y": 3.9404350866,
				"z": -3.6495529927,
				"element": "H" 
			},
			{
				"x": 1.497850241,
				"y": 4.3304202616,
				"z": -3.0689760832,
				"element": "H" 
			},
			{
				"x": 0.6489098936,
				"y": 4.4793183868,
				"z": -0.7137720384,
				"element": "H" 
			},
			{
				"x": 0.3165029218,
				"y": 2.8971876253,
				"z": -1.3863224602,
				"element": "H" 
			},
			{
				"x": -1.692638384,
				"y": 5.2080588291,
				"z": -1.2538995484,
				"element": "H" 
			},
			{
				"x": -2.0381672482,
				"y": 3.6158588149,
				"z": -1.9115786284,
				"element": "H" 
			},
			{
				"x": -1.2593367131,
				"y": 4.1787171705,
				"z": 1.0050521178,
				"element": "H" 
			},
			{
				"x": -2.908903872,
				"y": 3.9681232382,
				"z": 0.4107523843,
				"element": "H" 
			},
			{
				"x": 2.3043609952,
				"y": 0.4739084587,
				"z": 2.9820296113,
				"element": "H" 
			},
			{
				"x": 1.2479996088,
				"y": 1.8574055378,
				"z": 2.5578639976,
				"element": "H" 
			},
			{
				"x": 3.2161971966,
				"y": 2.2856385192,
				"z": 1.4017478806,
				"element": "H" 
			},
			{
				"x": 2.1483981044,
				"y": 1.6316550215,
				"z": 0.1581315706,
				"element": "H" 
			},
			{
				"x": 2.495133445,
				"y": -1.2888317759,
				"z": 0.7254187594,
				"element": "H" 
			},
			{
				"x": 4.0998248979,
				"y": -1.5310953991,
				"z": 0.0114194658,
				"element": "H" 
			},
			{
				"x": 2.8607306899,
				"y": -0.6072143528,
				"z": -0.8741752267,
				"element": "H" 
			},
			{
				"x": 5.2854921797,
				"y": 1.8272085145,
				"z": 0.5974270927,
				"element": "H" 
			},
			{
				"x": 4.5780191527,
				"y": 1.3265274275,
				"z": -0.959094815,
				"element": "H" 
			},
			{
				"x": 5.6704915921,
				"y": 0.2352478902,
				"z": -0.0765514206,
				"element": "H" 
			},
			{
				"x": -0.2292387447,
				"y": -2.2537635378,
				"z": 1.5782895761,
				"element": "H" 
			},
			{
				"x": -1.9884437795,
				"y": -3.8967714153,
				"z": 0.9711938039,
				"element": "H" 
			},
			{
				"x": -4.1204045211,
				"y": -3.1168758536,
				"z": -0.0472018953,
				"element": "H" 
			},
			{
				"x": -4.5057516664,
				"y": -0.7106598204,
				"z": -0.4579167771,
				"element": "H" 
			},
			{
				"x": -3.6738123244,
				"y": 1.6817018324,
				"z": -0.3158348997,
				"element": "H" 
			}
		],
		 "valence_orbital": [ 
			{
				"type": "occ",
				"energy": -0.26946,
				"method": "rhf"
			},
			{
				"type": "occ",
				"energy": -0.25812,
				"method": "rhf"
			},
			{
				"type": "occ",
				"energy": -0.25473,
				"method": "rhf"
			},
			{
				"type": "occ",
				"energy": -0.21123,
				"method": "rhf"
			},
			{
				"type": "occ",
				"energy": -0.20367,
				"method": "rhf"
			},
			{
				"type": "unocc",
				"energy": -0.03786,
				"method": "rhf"
			},
			{
				"type": "unocc",
				"energy": -0.01663,
				"method": "rhf"
			},
			{
				"type": "unocc",
				"energy": 0.03849,
				"method": "rhf"
			},
			{
				"type": "unocc",
				"energy": 0.08584,
				"method": "rhf"
			},
			{
				"type": "unocc",
				"energy": 0.08819,
				"method": "rhf"
			}
		],
		"cosmo_sigma_profile": { 
			"-0.025": 0.0,
			"-0.024": 0.0,
			"-0.023": 0.0,
			"-0.022": 0.0,
			"-0.021": 0.0,
			"-0.02": 0.0,
			"-0.019": 0.0,
			"-0.018": 0.0,
			"-0.017": 0.0,
			"-0.016": 0.0,
			"-0.015": 0.0,
			"-0.014": 0.0,
			"-0.013": 0.0,
			"-0.012": 0.0,
			"-0.011": 0.0,
			"-0.01": 0.0,
			"-0.009": 0.0,
			"-0.008": 0.0,
			"-0.007": 0.200808814566,
			"-0.006": 7.21738610712,
			"-0.005": 13.7682553567,
			"-0.004": 23.9259183282,
			"-0.003": 26.6444549175,
			"-0.002": 38.0332449514,
			"-0.001": 53.019524757,
			"0.0": 54.2233704927,
			"0.001": 43.4055293748,
			"0.002": 28.8381083969,
			"0.003": 21.7180088474,
			"0.004": 19.8025858612,
			"0.005": 9.54672304157,
			"0.006": 3.36705644757,
			"0.007": 2.95488425578,
			"0.008": 1.90912528105,
			"0.009": 1.74561045135,
			"0.01": 1.43741898917,
			"0.011": 0.659267660141,
			"0.012": 0.475155880656,
			"0.013": 0.772296831274,
			"0.014": 0.35050070306,
			"0.015": 0.246518829827,
			"0.016": 0.471844651559,
			"0.017": 0.0180419916424,
			"0.018": 0.0,
			"0.019": 0.0,
			"0.02": 0.0,
			"0.021": 0.0,
			"0.022": 0.0,
			"0.023": 0.0,
			"0.024": 0.0,
			"0.025": 0.0
		}
	}
}
