{
	 "smiles": "CC1=NC(=CS1)C1=CC=C(S1)S(Cl)(=O)=O", 
	 "Tm": 362.15, 
	 "num_atms": 21, 
	 "gaussian": { 
		 "optdone": 1, 
		 "sigma_profile": "yes", 
		 "theory": "DFT", 
		 "functional": "B3LYP", 
		 "basiset": "6-31G**", 
		 "properties": { 
			 "R2extent": 7499.8786, 
			 "electric_dipole_moment_norm": 6.83780135716, 
			 "electric_quadrupole_moment_norm": 13.7010840049, 
			 "total_energy": -2168.32634419, 
			 "HOMO_LUMO_gap": 0.14806, 
			 "cosmo_polarized_energy": -11.01, 
			 "cosmo_cavitation_energy": 32.81, 
			 "cosmo_dispersion_energy": -25.55, 
			 "cosmo_repulsion_energy": 1.86, 
			 "cosmo_total_nonelectrostatic_energy": 9.12, 
			 "SMD_solvation_energy": 2.62 
		},
		"coords": [
			{
				"x": 2.7466713479,
				"y": -0.8315514594,
				"z": 4.2506883725,
				"element": "C" 
			},
			{
				"x": 2.492350682,
				"y": -0.4067738282,
				"z": 2.8373078762,
				"element": "C" 
			},
			{
				"x": 1.5330850776,
				"y": -0.8666646773,
				"z": 2.0931456992,
				"element": "N" 
			},
			{
				"x": 1.5386646944,
				"y": -0.2946205641,
				"z": 0.8308947503,
				"element": "C" 
			},
			{
				"x": 2.5336386934,
				"y": 0.6262695673,
				"z": 0.6152833527,
				"element": "C" 
			},
			{
				"x": 3.5073421954,
				"y": 0.7956130454,
				"z": 2.032272331,
				"element": "S" 
			},
			{
				"x": 0.5110143002,
				"y": -0.7219557121,
				"z": -0.1117206281,
				"element": "C" 
			},
			{
				"x": -0.4814678066,
				"y": -1.6484892129,
				"z": 0.1198105329,
				"element": "C" 
			},
			{
				"x": -1.3354607142,
				"y": -1.8547175182,
				"z": -0.9945102983,
				"element": "C" 
			},
			{
				"x": -0.9794280832,
				"y": -1.077425124,
				"z": -2.0663738536,
				"element": "C" 
			},
			{
				"x": 0.4126085802,
				"y": -0.0746787634,
				"z": -1.7310206063,
				"element": "S" 
			},
			{
				"x": -1.7117826663,
				"y": -0.9597937476,
				"z": -3.6771104967,
				"element": "S" 
			},
			{
				"x": -3.3054167225,
				"y": -2.354978408,
				"z": -3.5006757029,
				"element": "Cl" 
			},
			{
				"x": -2.3188727014,
				"y": 0.3538303417,
				"z": -3.8456744971,
				"element": "O" 
			},
			{
				"x": -0.7934732524,
				"y": -1.4934379302,
				"z": -4.6743656684,
				"element": "O" 
			},
			{
				"x": 3.7427624475,
				"y": -1.2720799721,
				"z": 4.3627598258,
				"element": "H" 
			},
			{
				"x": 2.6766609949,
				"y": 0.0150759283,
				"z": 4.9414442408,
				"element": "H" 
			},
			{
				"x": 1.9990626841,
				"y": -1.5760813045,
				"z": 4.5294109749,
				"element": "H" 
			},
			{
				"x": 2.7424138736,
				"y": 1.2001020617,
				"z": -0.2767287555,
				"element": "H" 
			},
			{
				"x": -0.57956761,
				"y": -2.1572216047,
				"z": 1.0697971253,
				"element": "H" 
			},
			{
				"x": -2.1705060148,
				"y": -2.5420211178,
				"z": -1.0049345748,
				"element": "H" 
			}
		],
		 "valence_orbital": [ 
			{
				"type": "occ",
				"energy": -0.30933,
				"method": "rhf"
			},
			{
				"type": "occ",
				"energy": -0.29559,
				"method": "rhf"
			},
			{
				"type": "occ",
				"energy": -0.29459,
				"method": "rhf"
			},
			{
				"type": "occ",
				"energy": -0.28176,
				"method": "rhf"
			},
			{
				"type": "occ",
				"energy": -0.23641,
				"method": "rhf"
			},
			{
				"type": "unocc",
				"energy": -0.08835,
				"method": "rhf"
			},
			{
				"type": "unocc",
				"energy": -0.07712,
				"method": "rhf"
			},
			{
				"type": "unocc",
				"energy": -0.03334,
				"method": "rhf"
			},
			{
				"type": "unocc",
				"energy": -0.00939,
				"method": "rhf"
			},
			{
				"type": "unocc",
				"energy": -0.0005,
				"method": "rhf"
			}
		],
		"cosmo_sigma_profile": { 
			"-0.025": 0.0,
			"-0.024": 0.0,
			"-0.023": 0.0,
			"-0.022": 0.0,
			"-0.021": 0.0,
			"-0.02": 0.0,
			"-0.019": 0.0,
			"-0.018": 0.0,
			"-0.017": 0.0,
			"-0.016": 0.0,
			"-0.015": 0.0,
			"-0.014": 0.0,
			"-0.013": 0.0,
			"-0.012": 0.0,
			"-0.011": 0.133733947396,
			"-0.01": 1.82232410555,
			"-0.009": 3.06130159319,
			"-0.008": 4.62849860076,
			"-0.007": 6.114574675,
			"-0.006": 12.0455139151,
			"-0.005": 14.9188261092,
			"-0.004": 14.6044987899,
			"-0.003": 18.1954489845,
			"-0.002": 19.9208258147,
			"-0.001": 23.3437804343,
			"0.0": 30.641857491,
			"0.001": 33.9418655572,
			"0.002": 28.1044999604,
			"0.003": 15.9881046629,
			"0.004": 4.72152785984,
			"0.005": 5.18100055934,
			"0.006": 5.00280019606,
			"0.007": 9.00082695303,
			"0.008": 13.0151712211,
			"0.009": 5.12233868521,
			"0.01": 1.0172200978,
			"0.011": 0.713039138362,
			"0.012": 0.0,
			"0.013": 0.0,
			"0.014": 0.0,
			"0.015": 0.0,
			"0.016": 0.0,
			"0.017": 0.0,
			"0.018": 0.0,
			"0.019": 0.0,
			"0.02": 0.0,
			"0.021": 0.0,
			"0.022": 0.0,
			"0.023": 0.0,
			"0.024": 0.0,
			"0.025": 0.0
		}
	}
}
