{
	 "smiles": "COC1=CC=C(OC2=CC=C(C=C2C(Cl)=O)[N+]([O-])=O)C=C1", 
	 "Tm": 365.15, 
	 "num_atms": 31, 
	 "gaussian": { 
		 "optdone": 1, 
		 "sigma_profile": "yes", 
		 "theory": "DFT", 
		 "functional": "B3LYP", 
		 "basiset": "6-31G**", 
		 "properties": { 
			 "R2extent": 10482.1293, 
			 "electric_dipole_moment_norm": 7.84560184944, 
			 "electric_quadrupole_moment_norm": 19.3860980868, 
			 "total_energy": -1430.45749698, 
			 "HOMO_LUMO_gap": 0.14386, 
			 "cosmo_polarized_energy": -15.17, 
			 "cosmo_cavitation_energy": 39.5, 
			 "cosmo_dispersion_energy": -27.98, 
			 "cosmo_repulsion_energy": 2.15, 
			 "cosmo_total_nonelectrostatic_energy": 13.67, 
			 "SMD_solvation_energy": 10.6 
		},
		"coords": [
			{
				"x": -2.8058647133,
				"y": 4.5530044063,
				"z": 0.6645663336,
				"element": "C" 
			},
			{
				"x": -1.5633692621,
				"y": 4.3328015112,
				"z": 0.0121650404,
				"element": "O" 
			},
			{
				"x": -1.2389188251,
				"y": 3.0617547839,
				"z": -0.3510269753,
				"element": "C" 
			},
			{
				"x": -0.005823502,
				"y": 2.914856276,
				"z": -1.0081763848,
				"element": "C" 
			},
			{
				"x": 0.423468497,
				"y": 1.6612291301,
				"z": -1.4238800533,
				"element": "C" 
			},
			{
				"x": -0.3801602947,
				"y": 0.5462433423,
				"z": -1.1770107005,
				"element": "C" 
			},
			{
				"x": 0.0054316189,
				"y": -0.7064046104,
				"z": -1.6694196905,
				"element": "O" 
			},
			{
				"x": 0.8135959637,
				"y": -1.5088453852,
				"z": -0.9480305399,
				"element": "C" 
			},
			{
				"x": 1.2738955847,
				"y": -1.15689288,
				"z": 0.3332454603,
				"element": "C" 
			},
			{
				"x": 2.1050135046,
				"y": -2.0078355369,
				"z": 1.0425819718,
				"element": "C" 
			},
			{
				"x": 2.4862791501,
				"y": -3.2215780298,
				"z": 0.4690610497,
				"element": "C" 
			},
			{
				"x": 2.0522545454,
				"y": -3.5940006272,
				"z": -0.7942734611,
				"element": "C" 
			},
			{
				"x": 1.2081285755,
				"y": -2.7521437712,
				"z": -1.5269444955,
				"element": "C" 
			},
			{
				"x": 0.7049126568,
				"y": -3.1305477955,
				"z": -2.8706911703,
				"element": "C" 
			},
			{
				"x": 1.4753713977,
				"y": -4.6527815271,
				"z": -3.5725486752,
				"element": "Cl" 
			},
			{
				"x": -0.1170075613,
				"y": -2.5693991038,
				"z": -3.5241239319,
				"element": "O" 
			},
			{
				"x": 3.3656690745,
				"y": -4.1243301342,
				"z": 1.2181991954,
				"element": "N" 
			},
			{
				"x": 3.6804114027,
				"y": -5.1883529894,
				"z": 0.6873528295,
				"element": "O" 
			},
			{
				"x": 3.7335391991,
				"y": -3.7577058222,
				"z": 2.3349268836,
				"element": "O" 
			},
			{
				"x": -1.6048559872,
				"y": 0.675235101,
				"z": -0.5349833239,
				"element": "C" 
			},
			{
				"x": -2.0398250317,
				"y": 1.9363435468,
				"z": -0.1169298286,
				"element": "C" 
			},
			{
				"x": -3.6519862656,
				"y": 4.2562611047,
				"z": 0.0320261506,
				"element": "H" 
			},
			{
				"x": -2.8587405177,
				"y": 5.6255954881,
				"z": 0.8550126012,
				"element": "H" 
			},
			{
				"x": -2.8622378881,
				"y": 4.0139275599,
				"z": 1.6188470329,
				"element": "H" 
			},
			{
				"x": 0.5938620667,
				"y": 3.8006032894,
				"z": -1.187882971,
				"element": "H" 
			},
			{
				"x": 1.367322707,
				"y": 1.5409975548,
				"z": -1.9454940379,
				"element": "H" 
			},
			{
				"x": 0.9691455994,
				"y": -0.2106053239,
				"z": 0.7614612936,
				"element": "H" 
			},
			{
				"x": 2.464422374,
				"y": -1.7505855763,
				"z": 2.0313804152,
				"element": "H" 
			},
			{
				"x": 2.3715834094,
				"y": -4.5423309596,
				"z": -1.203079666,
				"element": "H" 
			},
			{
				"x": -2.2208976987,
				"y": -0.203103655,
				"z": -0.3728727563,
				"element": "H" 
			},
			{
				"x": -2.9982197797,
				"y": 2.0254906332,
				"z": 0.3795424043,
				"element": "H" 
			}
		],
		 "valence_orbital": [ 
			{
				"type": "occ",
				"energy": -0.29644,
				"method": "rhf"
			},
			{
				"type": "occ",
				"energy": -0.29119,
				"method": "rhf"
			},
			{
				"type": "occ",
				"energy": -0.27989,
				"method": "rhf"
			},
			{
				"type": "occ",
				"energy": -0.26828,
				"method": "rhf"
			},
			{
				"type": "occ",
				"energy": -0.23893,
				"method": "rhf"
			},
			{
				"type": "unocc",
				"energy": -0.09507,
				"method": "rhf"
			},
			{
				"type": "unocc",
				"energy": -0.08488,
				"method": "rhf"
			},
			{
				"type": "unocc",
				"energy": -0.02924,
				"method": "rhf"
			},
			{
				"type": "unocc",
				"energy": -0.01633,
				"method": "rhf"
			},
			{
				"type": "unocc",
				"energy": -0.01152,
				"method": "rhf"
			}
		],
		"cosmo_sigma_profile": { 
			"-0.025": 0.0,
			"-0.024": 0.0,
			"-0.023": 0.0,
			"-0.022": 0.0,
			"-0.021": 0.0,
			"-0.02": 0.0,
			"-0.019": 0.0,
			"-0.018": 0.0,
			"-0.017": 0.0,
			"-0.016": 0.0,
			"-0.015": 0.0,
			"-0.014": 0.0,
			"-0.013": 0.0,
			"-0.012": 0.0,
			"-0.011": 0.0,
			"-0.01": 0.0,
			"-0.009": 1.25291585256,
			"-0.008": 3.76373783317,
			"-0.007": 11.2240553778,
			"-0.006": 16.9958901316,
			"-0.005": 25.3520615443,
			"-0.004": 27.896821216,
			"-0.003": 32.0606054183,
			"-0.002": 27.8650958866,
			"-0.001": 20.9576331909,
			"0.0": 17.3975701783,
			"0.001": 16.837787987,
			"0.002": 17.4469723869,
			"0.003": 23.0789207922,
			"0.004": 17.8576681141,
			"0.005": 10.8813778621,
			"0.006": 8.82895098166,
			"0.007": 12.4290292576,
			"0.008": 13.5953406197,
			"0.009": 9.20023873918,
			"0.01": 5.02100071227,
			"0.011": 0.327320859686,
			"0.012": 0.0,
			"0.013": 0.0,
			"0.014": 0.0,
			"0.015": 0.0,
			"0.016": 0.0,
			"0.017": 0.0,
			"0.018": 0.0,
			"0.019": 0.0,
			"0.02": 0.0,
			"0.021": 0.0,
			"0.022": 0.0,
			"0.023": 0.0,
			"0.024": 0.0,
			"0.025": 0.0
		}
	}
}
