{
	 "smiles": "CC(=O)C1=C(C)N=C(S)C(=C1)C#N", 
	 "Tm": 401.15, 
	 "num_atms": 21, 
	 "gaussian": { 
		 "optdone": 1, 
		 "sigma_profile": "yes", 
		 "theory": "DFT", 
		 "functional": "B3LYP", 
		 "basiset": "6-31G**", 
		 "properties": { 
			 "R2extent": 4041.1544, 
			 "electric_dipole_moment_norm": 2.25290939898, 
			 "electric_quadrupole_moment_norm": 24.7270994799, 
			 "total_energy": -930.67790635, 
			 "HOMO_LUMO_gap": 0.17136, 
			 "cosmo_polarized_energy": -13.11, 
			 "cosmo_cavitation_energy": 28.15, 
			 "cosmo_dispersion_energy": -20.3, 
			 "cosmo_repulsion_energy": 1.57, 
			 "cosmo_total_nonelectrostatic_energy": 9.42, 
			 "SMD_solvation_energy": 5.25 
		},
		"coords": [
			{
				"x": 1.4746687633,
				"y": -1.7291650785,
				"z": 0.8616823366,
				"element": "C" 
			},
			{
				"x": 1.0388376691,
				"y": -0.4083987973,
				"z": 0.2430586417,
				"element": "C" 
			},
			{
				"x": 1.8712397343,
				"y": 0.4522615445,
				"z": -0.00177743,
				"element": "O" 
			},
			{
				"x": -0.415080235,
				"y": -0.1988359556,
				"z": -0.0514124521,
				"element": "C" 
			},
			{
				"x": -0.9127208114,
				"y": 1.0037974484,
				"z": -0.6291678296,
				"element": "C" 
			},
			{
				"x": -0.0492237255,
				"y": 2.1768688851,
				"z": -1.0012975939,
				"element": "C" 
			},
			{
				"x": -2.2204706029,
				"y": 1.1678254572,
				"z": -0.8840622038,
				"element": "N" 
			},
			{
				"x": -3.0961648633,
				"y": 0.2042310335,
				"z": -0.6021551743,
				"element": "C" 
			},
			{
				"x": -4.8030377913,
				"y": 0.5023611517,
				"z": -0.9706276329,
				"element": "S" 
			},
			{
				"x": -2.7034937179,
				"y": -1.0271344686,
				"z": -0.0271190613,
				"element": "C" 
			},
			{
				"x": -1.344198274,
				"y": -1.2020049104,
				"z": 0.2396817533,
				"element": "C" 
			},
			{
				"x": -3.6471481787,
				"y": -2.057042725,
				"z": 0.2731402613,
				"element": "C" 
			},
			{
				"x": -4.4138164686,
				"y": -2.8974012808,
				"z": 0.5185901808,
				"element": "N" 
			},
			{
				"x": 2.5551637852,
				"y": -1.6951009275,
				"z": 1.0009345326,
				"element": "H" 
			},
			{
				"x": 1.2224648962,
				"y": -2.5774307138,
				"z": 0.2158993111,
				"element": "H" 
			},
			{
				"x": 0.9928227718,
				"y": -1.8964519138,
				"z": 1.8312455733,
				"element": "H" 
			},
			{
				"x": 0.4938997209,
				"y": 2.5583056465,
				"z": -0.1324524148,
				"element": "H" 
			},
			{
				"x": 0.7196007877,
				"y": 1.8875517018,
				"z": -1.7228319474,
				"element": "H" 
			},
			{
				"x": -0.6850861061,
				"y": 2.9573398822,
				"z": -1.4207495043,
				"element": "H" 
			},
			{
				"x": -4.5642624463,
				"y": 1.7355962278,
				"z": -1.4565599797,
				"element": "H" 
			},
			{
				"x": -1.0257949073,
				"y": -2.1393722074,
				"z": 0.6801806332,
				"element": "H" 
			}
		],
		 "valence_orbital": [ 
			{
				"type": "occ",
				"energy": -0.32866,
				"method": "rhf"
			},
			{
				"type": "occ",
				"energy": -0.29864,
				"method": "rhf"
			},
			{
				"type": "occ",
				"energy": -0.28943,
				"method": "rhf"
			},
			{
				"type": "occ",
				"energy": -0.26394,
				"method": "rhf"
			},
			{
				"type": "occ",
				"energy": -0.25417,
				"method": "rhf"
			},
			{
				"type": "unocc",
				"energy": -0.08281,
				"method": "rhf"
			},
			{
				"type": "unocc",
				"energy": -0.07002,
				"method": "rhf"
			},
			{
				"type": "unocc",
				"energy": -0.00938,
				"method": "rhf"
			},
			{
				"type": "unocc",
				"energy": -0.00562,
				"method": "rhf"
			},
			{
				"type": "unocc",
				"energy": 0.02913,
				"method": "rhf"
			}
		],
		"cosmo_sigma_profile": { 
			"-0.025": 0.0,
			"-0.024": 0.0,
			"-0.023": 0.0,
			"-0.022": 0.0,
			"-0.021": 0.0,
			"-0.02": 0.0,
			"-0.019": 0.0,
			"-0.018": 0.0,
			"-0.017": 0.0,
			"-0.016": 0.0,
			"-0.015": 0.0,
			"-0.014": 0.0,
			"-0.013": 0.0,
			"-0.012": 0.854282918899,
			"-0.011": 1.2963114404,
			"-0.01": 2.58848238315,
			"-0.009": 4.2610532621,
			"-0.008": 4.78190223555,
			"-0.007": 7.79767648626,
			"-0.006": 6.85991889156,
			"-0.005": 9.85761574311,
			"-0.004": 15.8205097117,
			"-0.003": 24.903764834,
			"-0.002": 26.0788158735,
			"-0.001": 20.3120261823,
			"0.0": 16.3670179755,
			"0.001": 10.4951277681,
			"0.002": 11.5903615497,
			"0.003": 9.23251406389,
			"0.004": 8.31675576518,
			"0.005": 7.78795549308,
			"0.006": 7.73486554129,
			"0.007": 4.71327174179,
			"0.008": 5.78273832767,
			"0.009": 6.00007845189,
			"0.01": 5.05030415657,
			"0.011": 4.64620048504,
			"0.012": 4.40204265549,
			"0.013": 0.970356970278,
			"0.014": 0.0,
			"0.015": 0.0,
			"0.016": 0.0,
			"0.017": 0.0,
			"0.018": 0.0,
			"0.019": 0.0,
			"0.02": 0.0,
			"0.021": 0.0,
			"0.022": 0.0,
			"0.023": 0.0,
			"0.024": 0.0,
			"0.025": 0.0
		}
	}
}
