{
	 "smiles": "CCCCOC1=CC(=CC=C1OC)C(O)=O", 
	 "Tm": 416.15, 
	 "num_atms": 32, 
	 "gaussian": { 
		 "optdone": 1, 
		 "sigma_profile": "yes", 
		 "theory": "DFT", 
		 "functional": "B3LYP", 
		 "basiset": "6-31G**", 
		 "properties": { 
			 "R2extent": 4965.3325, 
			 "electric_dipole_moment_norm": 5.68087290212, 
			 "electric_quadrupole_moment_norm": 18.621636365, 
			 "total_energy": -767.804883922, 
			 "HOMO_LUMO_gap": 0.18417, 
			 "cosmo_polarized_energy": -16.73, 
			 "cosmo_cavitation_energy": 35.34, 
			 "cosmo_dispersion_energy": -24.35, 
			 "cosmo_repulsion_energy": 1.93, 
			 "cosmo_total_nonelectrostatic_energy": 12.91, 
			 "SMD_solvation_energy": 8.04 
		},
		"coords": [
			{
				"x": 1.8214798791,
				"y": 1.1454377898,
				"z": -2.8991813072,
				"element": "C" 
			},
			{
				"x": 1.6115685823,
				"y": -0.3702081376,
				"z": -3.0129397591,
				"element": "C" 
			},
			{
				"x": 0.663525231,
				"y": -0.9657895123,
				"z": -1.9579973381,
				"element": "C" 
			},
			{
				"x": 1.2343757783,
				"y": -0.9250495788,
				"z": -0.5388802219,
				"element": "C" 
			},
			{
				"x": 0.3980195907,
				"y": -1.5974726956,
				"z": 0.4097342498,
				"element": "O" 
			},
			{
				"x": -0.6495246241,
				"y": -0.9432262911,
				"z": 0.9873569887,
				"element": "C" 
			},
			{
				"x": -1.0358545583,
				"y": 0.3683654657,
				"z": 0.7022399504,
				"element": "C" 
			},
			{
				"x": -2.1155953685,
				"y": 0.9639331186,
				"z": 1.3790947609,
				"element": "C" 
			},
			{
				"x": -2.8248869979,
				"y": 0.2332155909,
				"z": 2.3340909455,
				"element": "C" 
			},
			{
				"x": -2.4445932134,
				"y": -1.0757073786,
				"z": 2.6207066059,
				"element": "C" 
			},
			{
				"x": -1.371622933,
				"y": -1.6752438583,
				"z": 1.9627045281,
				"element": "C" 
			},
			{
				"x": -1.0055773619,
				"y": -2.9398272567,
				"z": 2.3333657813,
				"element": "O" 
			},
			{
				"x": -1.1336055842,
				"y": -3.9662729427,
				"z": 1.3431511069,
				"element": "C" 
			},
			{
				"x": -2.560850487,
				"y": 2.3629790711,
				"z": 1.0907307124,
				"element": "C" 
			},
			{
				"x": -1.6310110162,
				"y": 3.1969811654,
				"z": 0.541161958,
				"element": "O" 
			},
			{
				"x": -3.6749460308,
				"y": 2.7728028943,
				"z": 1.3176049058,
				"element": "O" 
			},
			{
				"x": 2.3067139724,
				"y": 1.4272481802,
				"z": -1.9584108073,
				"element": "H" 
			},
			{
				"x": 2.455553377,
				"y": 1.514242391,
				"z": -3.7114225656,
				"element": "H" 
			},
			{
				"x": 0.8670302741,
				"y": 1.6815300438,
				"z": -2.957192541,
				"element": "H" 
			},
			{
				"x": 1.2059648405,
				"y": -0.599688375,
				"z": -4.0051723228,
				"element": "H" 
			},
			{
				"x": 2.5824526657,
				"y": -0.8815112272,
				"z": -2.9592772529,
				"element": "H" 
			},
			{
				"x": -0.3007341478,
				"y": -0.4438157125,
				"z": -1.9904543837,
				"element": "H" 
			},
			{
				"x": 0.4562781398,
				"y": -2.0147763119,
				"z": -2.2001132045,
				"element": "H" 
			},
			{
				"x": 1.4357185927,
				"y": 0.0979094227,
				"z": -0.199364645,
				"element": "H" 
			},
			{
				"x": 2.1815713408,
				"y": -1.4723399139,
				"z": -0.5032792148,
				"element": "H" 
			},
			{
				"x": -0.5264099925,
				"y": 0.9134337549,
				"z": -0.0841757843,
				"element": "H" 
			},
			{
				"x": -3.6661246482,
				"y": 0.6990191965,
				"z": 2.8342693754,
				"element": "H" 
			},
			{
				"x": -2.9676891482,
				"y": -1.6636356344,
				"z": 3.3678944509,
				"element": "H" 
			},
			{
				"x": -2.1704484962,
				"y": -4.0383254955,
				"z": 0.9910607022,
				"element": "H" 
			},
			{
				"x": -0.8581148575,
				"y": -4.8978141481,
				"z": 1.8409447352,
				"element": "H" 
			},
			{
				"x": -0.4680743616,
				"y": -3.7917805345,
				"z": 0.4940994738,
				"element": "H" 
			},
			{
				"x": -0.753688437,
				"y": 2.7956869198,
				"z": 0.6090501169,
				"element": "H" 
			}
		],
		 "valence_orbital": [ 
			{
				"type": "occ",
				"energy": -0.30921,
				"method": "rhf"
			},
			{
				"type": "occ",
				"energy": -0.2871,
				"method": "rhf"
			},
			{
				"type": "occ",
				"energy": -0.26767,
				"method": "rhf"
			},
			{
				"type": "occ",
				"energy": -0.25638,
				"method": "rhf"
			},
			{
				"type": "occ",
				"energy": -0.22696,
				"method": "rhf"
			},
			{
				"type": "unocc",
				"energy": -0.04279,
				"method": "rhf"
			},
			{
				"type": "unocc",
				"energy": -0.00828,
				"method": "rhf"
			},
			{
				"type": "unocc",
				"energy": 0.04444,
				"method": "rhf"
			},
			{
				"type": "unocc",
				"energy": 0.05559,
				"method": "rhf"
			},
			{
				"type": "unocc",
				"energy": 0.08185,
				"method": "rhf"
			}
		],
		"cosmo_sigma_profile": { 
			"-0.025": 0.0,
			"-0.024": 0.0,
			"-0.023": 0.0,
			"-0.022": 0.0,
			"-0.021": 0.0,
			"-0.02": 0.0,
			"-0.019": 0.0333681304136,
			"-0.018": 0.565408532002,
			"-0.017": 0.704869776863,
			"-0.016": 1.10278309348,
			"-0.015": 0.859916418291,
			"-0.014": 0.793506532514,
			"-0.013": 0.618208714754,
			"-0.012": 1.61879803357,
			"-0.011": 1.08416123175,
			"-0.01": 0.991301414485,
			"-0.009": 1.11147534164,
			"-0.008": 1.52602787605,
			"-0.007": 3.49140716153,
			"-0.006": 7.87438338626,
			"-0.005": 14.1174575453,
			"-0.004": 19.5323175285,
			"-0.003": 31.1102646464,
			"-0.002": 30.1494711667,
			"-0.001": 28.6306184069,
			"0.0": 26.5761379296,
			"0.001": 21.8572949728,
			"0.002": 16.7277847904,
			"0.003": 14.1509245429,
			"0.004": 7.72224124501,
			"0.005": 5.08833269537,
			"0.006": 3.77642610896,
			"0.007": 4.67730514108,
			"0.008": 5.29987990573,
			"0.009": 4.33890498395,
			"0.01": 7.1432312531,
			"0.011": 7.29039915095,
			"0.012": 5.78567889027,
			"0.013": 1.92455962509,
			"0.014": 0.108127180374,
			"0.015": 0.0,
			"0.016": 0.0,
			"0.017": 0.0,
			"0.018": 0.0,
			"0.019": 0.0,
			"0.02": 0.0,
			"0.021": 0.0,
			"0.022": 0.0,
			"0.023": 0.0,
			"0.024": 0.0,
			"0.025": 0.0
		}
	}
}
