{
	 "smiles": "CCOC(=O)C(=C(O)CCl)C1=NC(C)=CS1", 
	 "Tm": 350.15, 
	 "num_atms": 28, 
	 "gaussian": { 
		 "optdone": 1, 
		 "sigma_profile": "yes", 
		 "theory": "DFT", 
		 "functional": "B3LYP", 
		 "basiset": "6-31G**", 
		 "properties": { 
			 "R2extent": 6237.2315, 
			 "electric_dipole_moment_norm": 0.827214857217, 
			 "electric_quadrupole_moment_norm": 6.7089563242, 
			 "total_energy": -1527.09505779, 
			 "HOMO_LUMO_gap": 0.18801, 
			 "cosmo_polarized_energy": -12.95, 
			 "cosmo_cavitation_energy": 35.94, 
			 "cosmo_dispersion_energy": -25.59, 
			 "cosmo_repulsion_energy": 2.04, 
			 "cosmo_total_nonelectrostatic_energy": 12.39, 
			 "SMD_solvation_energy": 5.37 
		},
		"coords": [
			{
				"x": 3.59139917,
				"y": -0.3046298044,
				"z": 4.3208518117,
				"element": "C" 
			},
			{
				"x": 3.1684908469,
				"y": -1.2521695045,
				"z": 3.2081364985,
				"element": "C" 
			},
			{
				"x": 2.4235053112,
				"y": -0.557478616,
				"z": 2.181342512,
				"element": "O" 
			},
			{
				"x": 1.0999048904,
				"y": -0.4072117315,
				"z": 2.38883252,
				"element": "C" 
			},
			{
				"x": 0.5185919986,
				"y": -0.8510159928,
				"z": 3.3730069283,
				"element": "O" 
			},
			{
				"x": 0.4527089324,
				"y": 0.329176047,
				"z": 1.2909293137,
				"element": "C" 
			},
			{
				"x": -0.8993765564,
				"y": 0.5060097709,
				"z": 1.2883639446,
				"element": "C" 
			},
			{
				"x": -1.454852267,
				"y": 1.1936023868,
				"z": 0.2844336431,
				"element": "O" 
			},
			{
				"x": -1.8069372484,
				"y": -0.0327379368,
				"z": 2.3855148272,
				"element": "C" 
			},
			{
				"x": -3.5711411331,
				"y": 0.2583522221,
				"z": 2.0186560597,
				"element": "Cl" 
			},
			{
				"x": 1.2780183637,
				"y": 0.9109101906,
				"z": 0.206200198,
				"element": "C" 
			},
			{
				"x": 1.9317114622,
				"y": 2.0334432781,
				"z": 0.2922528055,
				"element": "N" 
			},
			{
				"x": 2.6294676684,
				"y": 2.3129086107,
				"z": -0.8665995431,
				"element": "C" 
			},
			{
				"x": 3.4379971279,
				"y": 3.5747961157,
				"z": -0.9441343737,
				"element": "C" 
			},
			{
				"x": 2.5018828696,
				"y": 1.3759704363,
				"z": -1.8562015148,
				"element": "C" 
			},
			{
				"x": 1.4724022904,
				"y": 0.0846121469,
				"z": -1.3386474224,
				"element": "S" 
			},
			{
				"x": 4.2244844364,
				"y": -0.8355261444,
				"z": 5.0397891571,
				"element": "H" 
			},
			{
				"x": 4.1588093326,
				"y": 0.5387960592,
				"z": 3.917311306,
				"element": "H" 
			},
			{
				"x": 2.71684975,
				"y": 0.0791374928,
				"z": 4.8517206148,
				"element": "H" 
			},
			{
				"x": 4.0333837309,
				"y": -1.6611377891,
				"z": 2.6806147285,
				"element": "H" 
			},
			{
				"x": 2.5586690564,
				"y": -2.0713115106,
				"z": 3.5966075729,
				"element": "H" 
			},
			{
				"x": -2.4214213536,
				"y": 1.2131885133,
				"z": 0.4020227136,
				"element": "H" 
			},
			{
				"x": -1.6807544612,
				"y": -1.1042911999,
				"z": 2.5179160371,
				"element": "H" 
			},
			{
				"x": -1.600257868,
				"y": 0.4487786341,
				"z": 3.3395930127,
				"element": "H" 
			},
			{
				"x": 3.9352071537,
				"y": 3.668176375,
				"z": -1.9129065705,
				"element": "H" 
			},
			{
				"x": 4.2016644349,
				"y": 3.5941525055,
				"z": -0.1591571508,
				"element": "H" 
			},
			{
				"x": 2.8003243707,
				"y": 4.4529132663,
				"z": -0.7957367526,
				"element": "H" 
			},
			{
				"x": 2.9470676903,
				"y": 1.3811861789,
				"z": -2.841312877,
				"element": "H" 
			}
		],
		 "valence_orbital": [ 
			{
				"type": "occ",
				"energy": -0.28043,
				"method": "rhf"
			},
			{
				"type": "occ",
				"energy": -0.27029,
				"method": "rhf"
			},
			{
				"type": "occ",
				"energy": -0.26273,
				"method": "rhf"
			},
			{
				"type": "occ",
				"energy": -0.24922,
				"method": "rhf"
			},
			{
				"type": "occ",
				"energy": -0.22727,
				"method": "rhf"
			},
			{
				"type": "unocc",
				"energy": -0.03926,
				"method": "rhf"
			},
			{
				"type": "unocc",
				"energy": -0.01839,
				"method": "rhf"
			},
			{
				"type": "unocc",
				"energy": 0.00155,
				"method": "rhf"
			},
			{
				"type": "unocc",
				"energy": 0.02828,
				"method": "rhf"
			},
			{
				"type": "unocc",
				"energy": 0.05675,
				"method": "rhf"
			}
		],
		"cosmo_sigma_profile": { 
			"-0.025": 0.0,
			"-0.024": 0.0,
			"-0.023": 0.0,
			"-0.022": 0.0,
			"-0.021": 0.0,
			"-0.02": 0.0,
			"-0.019": 0.0,
			"-0.018": 0.0,
			"-0.017": 0.0,
			"-0.016": 0.0,
			"-0.015": 0.516616481264,
			"-0.014": 0.357719317736,
			"-0.013": 0.485719567641,
			"-0.012": 1.12534820718,
			"-0.011": 0.805071994795,
			"-0.01": 0.781693447591,
			"-0.009": 4.01446050559,
			"-0.008": 5.95882692389,
			"-0.007": 8.06007486947,
			"-0.006": 7.39302547551,
			"-0.005": 14.016152157,
			"-0.004": 21.8713848435,
			"-0.003": 24.4000501916,
			"-0.002": 26.7235549428,
			"-0.001": 26.6765847538,
			"0.0": 27.2615708259,
			"0.001": 18.9593720587,
			"0.002": 16.8320923093,
			"0.003": 18.5575213952,
			"0.004": 18.7980149294,
			"0.005": 10.1799489364,
			"0.006": 7.46366365656,
			"0.007": 6.87955648379,
			"0.008": 6.52890605891,
			"0.009": 3.82571718829,
			"0.01": 3.22329875748,
			"0.011": 2.4516559356,
			"0.012": 2.63027709969,
			"0.013": 1.21058655313,
			"0.014": 0.494822792204,
			"0.015": 1.04713780834,
			"0.016": 0.142219244832,
			"0.017": 0.0,
			"0.018": 0.0,
			"0.019": 0.0,
			"0.02": 0.0,
			"0.021": 0.0,
			"0.022": 0.0,
			"0.023": 0.0,
			"0.024": 0.0,
			"0.025": 0.0
		}
	}
}
