{
	 "smiles": "OC(=O)CSC1=NC2=C(S1)C=CC=C2", 
	 "Tm": 433.15, 
	 "num_atms": 21, 
	 "gaussian": { 
		 "optdone": 1, 
		 "sigma_profile": "yes", 
		 "theory": "DFT", 
		 "functional": "B3LYP", 
		 "basiset": "6-31G**", 
		 "properties": { 
			 "R2extent": 3719.1559, 
			 "electric_dipole_moment_norm": 1.1612419257, 
			 "electric_quadrupole_moment_norm": 9.90784223128, 
			 "total_energy": -1348.76369461, 
			 "HOMO_LUMO_gap": 0.18851, 
			 "cosmo_polarized_energy": -12.83, 
			 "cosmo_cavitation_energy": 29.28, 
			 "cosmo_dispersion_energy": -22.03, 
			 "cosmo_repulsion_energy": 1.66, 
			 "cosmo_total_nonelectrostatic_energy": 8.91, 
			 "SMD_solvation_energy": 4.29 
		},
		"coords": [
			{
				"x": -2.9011271252,
				"y": -2.0214242253,
				"z": 0.0131783867,
				"element": "O" 
			},
			{
				"x": -2.703822326,
				"y": -1.5078735556,
				"z": -1.2154125733,
				"element": "C" 
			},
			{
				"x": -3.4888166549,
				"y": -0.7735444683,
				"z": -1.7689895401,
				"element": "O" 
			},
			{
				"x": -1.4322212555,
				"y": -1.9992425891,
				"z": -1.8923917149,
				"element": "C" 
			},
			{
				"x": -0.0534008747,
				"y": -2.556382842,
				"z": -0.8321332291,
				"element": "S" 
			},
			{
				"x": 0.3647367551,
				"y": -1.0157501374,
				"z": -0.0882015926,
				"element": "C" 
			},
			{
				"x": -0.2633682004,
				"y": 0.0945662132,
				"z": -0.2950407156,
				"element": "N" 
			},
			{
				"x": 0.3036319744,
				"y": 1.1305310737,
				"z": 0.4365431788,
				"element": "C" 
			},
			{
				"x": 1.4158855864,
				"y": 0.7706801293,
				"z": 1.2345011081,
				"element": "C" 
			},
			{
				"x": 1.7442409574,
				"y": -0.946160971,
				"z": 1.037426409,
				"element": "S" 
			},
			{
				"x": 2.0830834344,
				"y": 1.7093529671,
				"z": 2.0225794253,
				"element": "C" 
			},
			{
				"x": 1.6225571595,
				"y": 3.0250281095,
				"z": 2.0047875039,
				"element": "C" 
			},
			{
				"x": 0.5198977898,
				"y": 3.3947413461,
				"z": 1.2173717957,
				"element": "C" 
			},
			{
				"x": -0.1443794148,
				"y": 2.458320269,
				"z": 0.4322936551,
				"element": "C" 
			},
			{
				"x": -3.7424320255,
				"y": -1.6497970469,
				"z": 0.3273991583,
				"element": "H" 
			},
			{
				"x": -1.6852203577,
				"y": -2.8767214883,
				"z": -2.4971960933,
				"element": "H" 
			},
			{
				"x": -1.0922208709,
				"y": -1.2066428092,
				"z": -2.5585347732,
				"element": "H" 
			},
			{
				"x": 2.9355271168,
				"y": 1.4278029614,
				"z": 2.6322863597,
				"element": "H" 
			},
			{
				"x": 2.1261934272,
				"y": 3.7728922841,
				"z": 2.6097671841,
				"element": "H" 
			},
			{
				"x": 0.1819486892,
				"y": 4.4265714062,
				"z": 1.2220581887,
				"element": "H" 
			},
			{
				"x": -0.9974937843,
				"y": 2.7284533734,
				"z": -0.1810921212,
				"element": "H" 
			}
		],
		 "valence_orbital": [ 
			{
				"type": "occ",
				"energy": -0.29263,
				"method": "rhf"
			},
			{
				"type": "occ",
				"energy": -0.28652,
				"method": "rhf"
			},
			{
				"type": "occ",
				"energy": -0.27355,
				"method": "rhf"
			},
			{
				"type": "occ",
				"energy": -0.23943,
				"method": "rhf"
			},
			{
				"type": "occ",
				"energy": -0.22453,
				"method": "rhf"
			},
			{
				"type": "unocc",
				"energy": -0.03602,
				"method": "rhf"
			},
			{
				"type": "unocc",
				"energy": -0.01039,
				"method": "rhf"
			},
			{
				"type": "unocc",
				"energy": -0.00946,
				"method": "rhf"
			},
			{
				"type": "unocc",
				"energy": 0.00038,
				"method": "rhf"
			},
			{
				"type": "unocc",
				"energy": 0.0258,
				"method": "rhf"
			}
		],
		"cosmo_sigma_profile": { 
			"-0.025": 0.0,
			"-0.024": 0.0,
			"-0.023": 0.0,
			"-0.022": 0.0,
			"-0.021": 0.0,
			"-0.02": 0.0,
			"-0.019": 0.452094338252,
			"-0.018": 0.901277311299,
			"-0.017": 0.959434869016,
			"-0.016": 0.887402183871,
			"-0.015": 0.634659744001,
			"-0.014": 0.0699927320162,
			"-0.013": 0.692315244377,
			"-0.012": 1.19107151902,
			"-0.011": 1.61582847444,
			"-0.01": 3.65849048863,
			"-0.009": 2.79876987157,
			"-0.008": 3.95627507158,
			"-0.007": 7.58464129117,
			"-0.006": 11.8328059914,
			"-0.005": 14.9711650542,
			"-0.004": 12.6809406153,
			"-0.003": 12.2945262394,
			"-0.002": 10.6563764753,
			"-0.001": 13.8475335455,
			"0.0": 17.5161244866,
			"0.001": 18.4695044458,
			"0.002": 20.220244307,
			"0.003": 20.7891438455,
			"0.004": 18.0485927818,
			"0.005": 11.9145285587,
			"0.006": 4.99957690977,
			"0.007": 4.56438797936,
			"0.008": 4.98967389738,
			"0.009": 4.41274989846,
			"0.01": 3.49599256902,
			"0.011": 5.07620039867,
			"0.012": 2.83572531656,
			"0.013": 0.094740520135,
			"0.014": 0.0,
			"0.015": 0.0,
			"0.016": 0.0,
			"0.017": 0.0,
			"0.018": 0.0,
			"0.019": 0.0,
			"0.02": 0.0,
			"0.021": 0.0,
			"0.022": 0.0,
			"0.023": 0.0,
			"0.024": 0.0,
			"0.025": 0.0
		}
	}
}
