{
	 "smiles": "BrC1=CC=C(C=C1)C1C(C#N)C(=N)OC2=C1C(=O)OC1=C2C=CC=C1", 
	 "Tm": 527.15, 
	 "num_atms": 36, 
	 "gaussian": { 
		 "optdone": 1, 
		 "sigma_profile": "yes", 
		 "theory": "DFT", 
		 "functional": "B3LYP", 
		 "basiset": "6-31G**", 
		 "properties": { 
			 "R2extent": 12774.1169, 
			 "electric_dipole_moment_norm": 5.26921650912, 
			 "electric_quadrupole_moment_norm": 26.2191916613, 
			 "total_energy": -3637.20559852, 
			 "HOMO_LUMO_gap": 0.16162, 
			 "cosmo_polarized_energy": -18.14, 
			 "cosmo_cavitation_energy": 43.7, 
			 "cosmo_dispersion_energy": -30.6, 
			 "cosmo_repulsion_energy": 2.3, 
			 "cosmo_total_nonelectrostatic_energy": 15.39, 
			 "SMD_solvation_energy": 7.75 
		},
		"coords": [
			{
				"x": -4.0694700788,
				"y": 4.31590947,
				"z": 0.1766171442,
				"element": "Br" 
			},
			{
				"x": -3.3122948491,
				"y": 2.6341057915,
				"z": 0.6749812282,
				"element": "C" 
			},
			{
				"x": -2.2590562765,
				"y": 2.5969103755,
				"z": 1.5833758545,
				"element": "C" 
			},
			{
				"x": -1.7074491767,
				"y": 1.3652611738,
				"z": 1.9440283366,
				"element": "C" 
			},
			{
				"x": -2.2016372246,
				"y": 0.1691097034,
				"z": 1.4078747253,
				"element": "C" 
			},
			{
				"x": -3.2700367447,
				"y": 0.2354720122,
				"z": 0.4994078625,
				"element": "C" 
			},
			{
				"x": -3.8248487744,
				"y": 1.4584245795,
				"z": 0.1286988091,
				"element": "C" 
			},
			{
				"x": -1.6353272014,
				"y": -1.2112149114,
				"z": 1.7628622029,
				"element": "C" 
			},
			{
				"x": -0.8990503282,
				"y": -1.263679991,
				"z": 3.1328273003,
				"element": "C" 
			},
			{
				"x": -0.8343304193,
				"y": -2.6496934587,
				"z": 3.6239278256,
				"element": "C" 
			},
			{
				"x": -0.7872256114,
				"y": -3.7446806643,
				"z": 4.0049727852,
				"element": "N" 
			},
			{
				"x": 0.5158546638,
				"y": -0.7049234565,
				"z": 3.0463514401,
				"element": "C" 
			},
			{
				"x": 0.994046495,
				"y": 0.0495033999,
				"z": 3.9356799378,
				"element": "N" 
			},
			{
				"x": 1.263489272,
				"y": -1.0968945472,
				"z": 1.9509050791,
				"element": "O" 
			},
			{
				"x": 0.6639508873,
				"y": -1.6870897736,
				"z": 0.867734183,
				"element": "C" 
			},
			{
				"x": -0.684916602,
				"y": -1.7580041447,
				"z": 0.715592852,
				"element": "C" 
			},
			{
				"x": -1.247587402,
				"y": -2.4305571012,
				"z": -0.4503907624,
				"element": "C" 
			},
			{
				"x": -2.430041441,
				"y": -2.5976995208,
				"z": -0.6583469178,
				"element": "O" 
			},
			{
				"x": -0.3530126657,
				"y": -2.9203977554,
				"z": -1.3908798687,
				"element": "O" 
			},
			{
				"x": 0.9999599087,
				"y": -2.8245269225,
				"z": -1.2435740347,
				"element": "C" 
			},
			{
				"x": 1.5781032532,
				"y": -2.2162219328,
				"z": -0.1155201299,
				"element": "C" 
			},
			{
				"x": 2.9801964164,
				"y": -2.1577853718,
				"z": -0.0134686153,
				"element": "C" 
			},
			{
				"x": 3.7728882963,
				"y": -2.6925604984,
				"z": -1.0184481923,
				"element": "C" 
			},
			{
				"x": 3.1780020193,
				"y": -3.2931150383,
				"z": -2.1390219846,
				"element": "C" 
			},
			{
				"x": 1.7946985143,
				"y": -3.3625740056,
				"z": -2.2574943237,
				"element": "C" 
			},
			{
				"x": -1.8714898551,
				"y": 3.5151241486,
				"z": 2.0097250638,
				"element": "H" 
			},
			{
				"x": -0.8938894165,
				"y": 1.3666354154,
				"z": 2.6613876034,
				"element": "H" 
			},
			{
				"x": -3.6609190495,
				"y": -0.6813154403,
				"z": 0.0709691709,
				"element": "H" 
			},
			{
				"x": -4.6502268762,
				"y": 1.4957474949,
				"z": -0.5730940115,
				"element": "H" 
			},
			{
				"x": -2.4815726167,
				"y": -1.9025119841,
				"z": 1.8156631704,
				"element": "H" 
			},
			{
				"x": -1.4233929992,
				"y": -0.6642840161,
				"z": 3.8815632669,
				"element": "H" 
			},
			{
				"x": 1.9563931902,
				"y": 0.3180648569,
				"z": 3.7152753748,
				"element": "H" 
			},
			{
				"x": 3.4246832381,
				"y": -1.6907347598,
				"z": 0.8577575342,
				"element": "H" 
			},
			{
				"x": 4.8538930585,
				"y": -2.6467207423,
				"z": -0.9371554857,
				"element": "H" 
			},
			{
				"x": 3.801537703,
				"y": -3.7108600967,
				"z": -2.9234193758,
				"element": "H" 
			},
			{
				"x": 1.3126786928,
				"y": -3.8246222883,
				"z": -3.1117650484,
				"element": "H" 
			}
		],
		 "valence_orbital": [ 
			{
				"type": "occ",
				"energy": -0.29027,
				"method": "rhf"
			},
			{
				"type": "occ",
				"energy": -0.27005,
				"method": "rhf"
			},
			{
				"type": "occ",
				"energy": -0.26941,
				"method": "rhf"
			},
			{
				"type": "occ",
				"energy": -0.25363,
				"method": "rhf"
			},
			{
				"type": "occ",
				"energy": -0.24476,
				"method": "rhf"
			},
			{
				"type": "unocc",
				"energy": -0.08314,
				"method": "rhf"
			},
			{
				"type": "unocc",
				"energy": -0.03688,
				"method": "rhf"
			},
			{
				"type": "unocc",
				"energy": -0.02666,
				"method": "rhf"
			},
			{
				"type": "unocc",
				"energy": -0.02331,
				"method": "rhf"
			},
			{
				"type": "unocc",
				"energy": -0.02097,
				"method": "rhf"
			}
		],
		"cosmo_sigma_profile": { 
			"-0.025": 0.0,
			"-0.024": 0.0,
			"-0.023": 0.0,
			"-0.022": 0.0,
			"-0.021": 0.0,
			"-0.02": 0.0,
			"-0.019": 0.0,
			"-0.018": 0.0,
			"-0.017": 0.0,
			"-0.016": 0.0,
			"-0.015": 0.0,
			"-0.014": 0.046226092026,
			"-0.013": 0.963560837928,
			"-0.012": 1.30090158414,
			"-0.011": 2.16822437424,
			"-0.01": 2.62530301416,
			"-0.009": 3.07976723417,
			"-0.008": 5.72935693962,
			"-0.007": 15.9073821242,
			"-0.006": 17.976849804,
			"-0.005": 22.134715334,
			"-0.004": 24.1544567173,
			"-0.003": 24.5980176901,
			"-0.002": 21.8092883088,
			"-0.001": 26.380831747,
			"0.0": 24.2121099112,
			"0.001": 28.4988416543,
			"0.002": 29.9608747327,
			"0.003": 31.2370932844,
			"0.004": 18.4011217226,
			"0.005": 11.5165621279,
			"0.006": 5.35265587483,
			"0.007": 5.28205210574,
			"0.008": 7.01743695504,
			"0.009": 6.36266569914,
			"0.01": 5.73258011356,
			"0.011": 6.19846786051,
			"0.012": 5.3664477468,
			"0.013": 1.57023413306,
			"0.014": 0.951313626756,
			"0.015": 0.0991174986988,
			"0.016": 0.0,
			"0.017": 0.0,
			"0.018": 0.0,
			"0.019": 0.0,
			"0.02": 0.0,
			"0.021": 0.0,
			"0.022": 0.0,
			"0.023": 0.0,
			"0.024": 0.0,
			"0.025": 0.0
		}
	}
}
