{
	 "smiles": "CCC1(C(=O)NCNC1=O)C1=CC=CC=C1", 
	 "Tm": 554.15, 
	 "num_atms": 30, 
	 "gaussian": { 
		 "optdone": 1, 
		 "sigma_profile": "yes", 
		 "theory": "DFT", 
		 "functional": "B3LYP", 
		 "basiset": "6-31G**", 
		 "properties": { 
			 "R2extent": 3221.0702, 
			 "electric_dipole_moment_norm": 5.16339260758, 
			 "electric_quadrupole_moment_norm": 16.6033427948, 
			 "total_energy": -725.690893584, 
			 "HOMO_LUMO_gap": 0.23115, 
			 "cosmo_polarized_energy": -18.6, 
			 "cosmo_cavitation_energy": 31.52, 
			 "cosmo_dispersion_energy": -22.41, 
			 "cosmo_repulsion_energy": 1.75, 
			 "cosmo_total_nonelectrostatic_energy": 10.86, 
			 "SMD_solvation_energy": 5.04 
		},
		"coords": [
			{
				"x": 2.2470804181,
				"y": 2.3384298068,
				"z": 0.1796494045,
				"element": "C" 
			},
			{
				"x": 0.8399330752,
				"y": 2.5004877985,
				"z": -0.4015156839,
				"element": "C" 
			},
			{
				"x": 0.1419715959,
				"y": 1.1983539914,
				"z": -0.8826397274,
				"element": "C" 
			},
			{
				"x": 0.7771231134,
				"y": 0.6964808791,
				"z": -2.2025377896,
				"element": "C" 
			},
			{
				"x": 1.87058732,
				"y": 1.0557697081,
				"z": -2.6138246736,
				"element": "O" 
			},
			{
				"x": 0.0124703326,
				"y": -0.2057697908,
				"z": -2.8950328451,
				"element": "N" 
			},
			{
				"x": -1.3395238811,
				"y": -0.5484365297,
				"z": -2.5052610916,
				"element": "C" 
			},
			{
				"x": -1.9949435174,
				"y": 0.6288203655,
				"z": -1.9686236123,
				"element": "N" 
			},
			{
				"x": -1.3631758662,
				"y": 1.5097663005,
				"z": -1.1338857711,
				"element": "C" 
			},
			{
				"x": -1.9516722408,
				"y": 2.4495057236,
				"z": -0.6197391879,
				"element": "O" 
			},
			{
				"x": 0.2120652869,
				"y": 0.0904728321,
				"z": 0.1922389144,
				"element": "C" 
			},
			{
				"x": -0.6533219126,
				"y": 0.1316260465,
				"z": 1.2968643538,
				"element": "C" 
			},
			{
				"x": -0.5703961112,
				"y": -0.8312297112,
				"z": 2.3028964124,
				"element": "C" 
			},
			{
				"x": 0.3787334586,
				"y": -1.8519694433,
				"z": 2.2255119928,
				"element": "C" 
			},
			{
				"x": 1.2492006011,
				"y": -1.8969266909,
				"z": 1.1363474101,
				"element": "C" 
			},
			{
				"x": 1.1684711553,
				"y": -0.9335031444,
				"z": 0.1289487924,
				"element": "C" 
			},
			{
				"x": 2.6329413187,
				"y": 3.3201410557,
				"z": 0.4742262349,
				"element": "H" 
			},
			{
				"x": 2.9313478429,
				"y": 1.9107361169,
				"z": -0.5551070655,
				"element": "H" 
			},
			{
				"x": 2.2479250248,
				"y": 1.7033646279,
				"z": 1.0705729374,
				"element": "H" 
			},
			{
				"x": 0.8724842179,
				"y": 3.189309589,
				"z": -1.2523725075,
				"element": "H" 
			},
			{
				"x": 0.1751563968,
				"y": 2.9537250789,
				"z": 0.3379651604,
				"element": "H" 
			},
			{
				"x": 0.3773185463,
				"y": -0.5004148513,
				"z": -3.789716364,
				"element": "H" 
			},
			{
				"x": -1.3337286559,
				"y": -1.365029732,
				"z": -1.7675328811,
				"element": "H" 
			},
			{
				"x": -1.8877094846,
				"y": -0.8894001147,
				"z": -3.3869453001,
				"element": "H" 
			},
			{
				"x": -2.9916606548,
				"y": 0.7537191542,
				"z": -2.0776680704,
				"element": "H" 
			},
			{
				"x": -1.3909430619,
				"y": 0.924962732,
				"z": 1.3698552764,
				"element": "H" 
			},
			{
				"x": -1.2501007577,
				"y": -0.7812642842,
				"z": 3.1489214094,
				"element": "H" 
			},
			{
				"x": 0.4419335583,
				"y": -2.6020422941,
				"z": 3.0085506436,
				"element": "H" 
			},
			{
				"x": 1.9987894978,
				"y": -2.6803269063,
				"z": 1.0684031891,
				"element": "H" 
			},
			{
				"x": 1.8674433835,
				"y": -0.9718583136,
				"z": -0.7007495605,
				"element": "H" 
			}
		],
		 "valence_orbital": [ 
			{
				"type": "occ",
				"energy": -0.26819,
				"method": "rhf"
			},
			{
				"type": "occ",
				"energy": -0.26534,
				"method": "rhf"
			},
			{
				"type": "occ",
				"energy": -0.25345,
				"method": "rhf"
			},
			{
				"type": "occ",
				"energy": -0.24909,
				"method": "rhf"
			},
			{
				"type": "occ",
				"energy": -0.24446,
				"method": "rhf"
			},
			{
				"type": "unocc",
				"energy": -0.01331,
				"method": "rhf"
			},
			{
				"type": "unocc",
				"energy": -0.00734,
				"method": "rhf"
			},
			{
				"type": "unocc",
				"energy": 0.00772,
				"method": "rhf"
			},
			{
				"type": "unocc",
				"energy": 0.03273,
				"method": "rhf"
			},
			{
				"type": "unocc",
				"energy": 0.05593,
				"method": "rhf"
			}
		],
		"cosmo_sigma_profile": { 
			"-0.025": 0.0,
			"-0.024": 0.0,
			"-0.023": 0.0,
			"-0.022": 0.0,
			"-0.021": 0.0,
			"-0.02": 0.0,
			"-0.019": 0.0,
			"-0.018": 0.0,
			"-0.017": 0.0,
			"-0.016": 0.0269282192053,
			"-0.015": 1.71799253015,
			"-0.014": 2.93546115522,
			"-0.013": 2.58152480344,
			"-0.012": 2.32493906628,
			"-0.011": 2.24790970004,
			"-0.01": 2.36426836718,
			"-0.009": 4.62856647205,
			"-0.008": 4.39623525922,
			"-0.007": 2.62868447001,
			"-0.006": 8.50325775281,
			"-0.005": 16.2177989766,
			"-0.004": 14.1908011915,
			"-0.003": 15.0440859908,
			"-0.002": 16.3012577346,
			"-0.001": 19.3179547051,
			"0.0": 20.4998029927,
			"0.001": 25.8892369768,
			"0.002": 18.3584094404,
			"0.003": 12.9158695816,
			"0.004": 11.1748040483,
			"0.005": 9.33336499688,
			"0.006": 3.73869188115,
			"0.007": 3.04884239835,
			"0.008": 2.67589588844,
			"0.009": 2.97343093382,
			"0.01": 2.3067111044,
			"0.011": 3.17585989479,
			"0.012": 5.19813140831,
			"0.013": 8.9308290465,
			"0.014": 2.63775903947,
			"0.015": 0.0,
			"0.016": 0.0,
			"0.017": 0.0,
			"0.018": 0.0,
			"0.019": 0.0,
			"0.02": 0.0,
			"0.021": 0.0,
			"0.022": 0.0,
			"0.023": 0.0,
			"0.024": 0.0,
			"0.025": 0.0
		}
	}
}
