{
	 "smiles": "CS(=O)(=O)NCCC1CCCCN1", 
	 "Tm": 379.15, 
	 "num_atms": 31, 
	 "gaussian": { 
		 "optdone": 1, 
		 "sigma_profile": "yes", 
		 "theory": "DFT", 
		 "functional": "B3LYP", 
		 "basiset": "6-31G**", 
		 "properties": { 
			 "R2extent": 4485.3046, 
			 "electric_dipole_moment_norm": 3.83245440938, 
			 "electric_quadrupole_moment_norm": 21.0589417289, 
			 "total_energy": -973.773090753, 
			 "HOMO_LUMO_gap": 0.26614, 
			 "cosmo_polarized_energy": -15.48, 
			 "cosmo_cavitation_energy": 32.76, 
			 "cosmo_dispersion_energy": -23.8, 
			 "cosmo_repulsion_energy": 1.86, 
			 "cosmo_total_nonelectrostatic_energy": 10.81, 
			 "SMD_solvation_energy": 2.41 
		},
		"coords": [
			{
				"x": 0.7033216659,
				"y": 2.5766585784,
				"z": -3.3368232568,
				"element": "C" 
			},
			{
				"x": 1.5248713042,
				"y": 2.8834014907,
				"z": -1.7658998888,
				"element": "S" 
			},
			{
				"x": 1.1220352973,
				"y": 4.2042674231,
				"z": -1.2753996594,
				"element": "O" 
			},
			{
				"x": 2.939093612,
				"y": 2.5304602136,
				"z": -1.929281811,
				"element": "O" 
			},
			{
				"x": 0.7456677329,
				"y": 1.7639878864,
				"z": -0.745638269,
				"element": "N" 
			},
			{
				"x": 1.423364126,
				"y": 0.4660007653,
				"z": -0.5220141157,
				"element": "C" 
			},
			{
				"x": 0.6298284593,
				"y": -0.4143557318,
				"z": 0.4506895483,
				"element": "C" 
			},
			{
				"x": -0.6958764637,
				"y": -0.9921466019,
				"z": -0.065195414,
				"element": "C" 
			},
			{
				"x": -1.2247694884,
				"y": -2.086233937,
				"z": 0.8999694295,
				"element": "C" 
			},
			{
				"x": -2.7657633737,
				"y": -2.1671786426,
				"z": 0.884736278,
				"element": "C" 
			},
			{
				"x": -3.2984751815,
				"y": -1.8441643489,
				"z": -0.5153883418,
				"element": "C" 
			},
			{
				"x": -2.9105408538,
				"y": -0.4040600804,
				"z": -0.9220978415,
				"element": "C" 
			},
			{
				"x": -1.7222941445,
				"y": 0.0452781046,
				"z": -0.181893185,
				"element": "N" 
			},
			{
				"x": 0.8606231296,
				"y": 1.5364982247,
				"z": -3.6261011754,
				"element": "H" 
			},
			{
				"x": -0.3578001366,
				"y": 2.7985324001,
				"z": -3.2261508457,
				"element": "H" 
			},
			{
				"x": 1.1649065758,
				"y": 3.242059823,
				"z": -4.0684360915,
				"element": "H" 
			},
			{
				"x": 0.564540294,
				"y": 2.2632938771,
				"z": 0.1249491266,
				"element": "H" 
			},
			{
				"x": 1.5082532914,
				"y": -0.0376241151,
				"z": -1.4913816343,
				"element": "H" 
			},
			{
				"x": 2.4434717169,
				"y": 0.6158911971,
				"z": -0.1494813448,
				"element": "H" 
			},
			{
				"x": 1.2829221466,
				"y": -1.2525515149,
				"z": 0.7230334808,
				"element": "H" 
			},
			{
				"x": 0.4341849993,
				"y": 0.1384541538,
				"z": 1.3801491258,
				"element": "H" 
			},
			{
				"x": -0.4827584047,
				"y": -1.4670978153,
				"z": -1.046269251,
				"element": "H" 
			},
			{
				"x": -0.8814253662,
				"y": -1.8726607224,
				"z": 1.9196518642,
				"element": "H" 
			},
			{
				"x": -0.7872129178,
				"y": -3.051524099,
				"z": 0.6153860781,
				"element": "H" 
			},
			{
				"x": -3.0969014266,
				"y": -3.160935615,
				"z": 1.2062656352,
				"element": "H" 
			},
			{
				"x": -3.178137149,
				"y": -1.4472853855,
				"z": 1.5996828143,
				"element": "H" 
			},
			{
				"x": -4.3860346656,
				"y": -1.964069722,
				"z": -0.5635066483,
				"element": "H" 
			},
			{
				"x": -2.8777812253,
				"y": -2.5622064849,
				"z": -1.2310010242,
				"element": "H" 
			},
			{
				"x": -3.7301845766,
				"y": 0.2864969065,
				"z": -0.6870531668,
				"element": "H" 
			},
			{
				"x": -2.7684090918,
				"y": -0.3674047716,
				"z": -2.0180954659,
				"element": "H" 
			},
			{
				"x": -1.3283198852,
				"y": 0.8683185441,
				"z": -0.6283049498,
				"element": "H" 
			}
		],
		 "valence_orbital": [ 
			{
				"type": "occ",
				"energy": -0.31045,
				"method": "rhf"
			},
			{
				"type": "occ",
				"energy": -0.30923,
				"method": "rhf"
			},
			{
				"type": "occ",
				"energy": -0.3001,
				"method": "rhf"
			},
			{
				"type": "occ",
				"energy": -0.2754,
				"method": "rhf"
			},
			{
				"type": "occ",
				"energy": -0.21327,
				"method": "rhf"
			},
			{
				"type": "unocc",
				"energy": 0.05287,
				"method": "rhf"
			},
			{
				"type": "unocc",
				"energy": 0.06874,
				"method": "rhf"
			},
			{
				"type": "unocc",
				"energy": 0.08202,
				"method": "rhf"
			},
			{
				"type": "unocc",
				"energy": 0.08532,
				"method": "rhf"
			},
			{
				"type": "unocc",
				"energy": 0.08669,
				"method": "rhf"
			}
		],
		"cosmo_sigma_profile": { 
			"-0.025": 0.0,
			"-0.024": 0.0,
			"-0.023": 0.0,
			"-0.022": 0.0,
			"-0.021": 0.0,
			"-0.02": 0.0,
			"-0.019": 0.0,
			"-0.018": 0.0,
			"-0.017": 0.0,
			"-0.016": 0.0,
			"-0.015": 0.0,
			"-0.014": 0.335110240135,
			"-0.013": 0.75316356287,
			"-0.012": 1.46198174992,
			"-0.011": 1.20689001835,
			"-0.01": 0.789872303862,
			"-0.009": 3.57067883096,
			"-0.008": 7.47584820511,
			"-0.007": 6.54314138672,
			"-0.006": 7.68454608049,
			"-0.005": 8.53230050148,
			"-0.004": 16.2460048826,
			"-0.003": 20.1589923461,
			"-0.002": 27.8780526406,
			"-0.001": 39.8588932213,
			"0.0": 33.1756568807,
			"0.001": 19.07981668,
			"0.002": 6.94766786364,
			"0.003": 3.52584489053,
			"0.004": 2.99613389634,
			"0.005": 3.244630007,
			"0.006": 2.6912671456,
			"0.007": 3.39229420636,
			"0.008": 3.64415438867,
			"0.009": 3.53746957756,
			"0.01": 5.32624069819,
			"0.011": 12.5084388736,
			"0.012": 8.11210604481,
			"0.013": 0.530275885596,
			"0.014": 0.353691666626,
			"0.015": 0.682963951317,
			"0.016": 0.17060007374,
			"0.017": 0.445478392229,
			"0.018": 0.400410845037,
			"0.019": 0.0,
			"0.02": 0.0,
			"0.021": 0.0,
			"0.022": 0.0,
			"0.023": 0.0,
			"0.024": 0.0,
			"0.025": 0.0
		}
	}
}
