{
	 "smiles": "CC(=O)C1=NN(C(=N)S1)C1=CC=CC=C1[N+]([O-])=O", 
	 "Tm": 459.15, 
	 "num_atms": 26, 
	 "gaussian": { 
		 "optdone": 1, 
		 "sigma_profile": "yes", 
		 "theory": "DFT", 
		 "functional": "B3LYP", 
		 "basiset": "6-31G**", 
		 "properties": { 
			 "R2extent": 4841.9627, 
			 "electric_dipole_moment_norm": 6.77342091044, 
			 "electric_quadrupole_moment_norm": 17.6480919938, 
			 "total_energy": -1228.59740937, 
			 "HOMO_LUMO_gap": 0.12926, 
			 "cosmo_polarized_energy": -17.15, 
			 "cosmo_cavitation_energy": 33.92, 
			 "cosmo_dispersion_energy": -23.66, 
			 "cosmo_repulsion_energy": 1.78, 
			 "cosmo_total_nonelectrostatic_energy": 12.04, 
			 "SMD_solvation_energy": 7.26 
		},
		"coords": [
			{
				"x": 0.5228171579,
				"y": -1.7538767944,
				"z": -3.1872138543,
				"element": "C" 
			},
			{
				"x": -0.2798036739,
				"y": -2.5683940019,
				"z": -2.2000333793,
				"element": "C" 
			},
			{
				"x": -0.8886390124,
				"y": -3.5830722037,
				"z": -2.4950370379,
				"element": "O" 
			},
			{
				"x": -0.3344450108,
				"y": -2.0849672098,
				"z": -0.7944349106,
				"element": "C" 
			},
			{
				"x": 0.3156320026,
				"y": -1.0495352241,
				"z": -0.3751280535,
				"element": "N" 
			},
			{
				"x": 0.1031540565,
				"y": -0.8417246991,
				"z": 0.9506795453,
				"element": "N" 
			},
			{
				"x": -0.812724216,
				"y": -1.7085009977,
				"z": 1.6130269126,
				"element": "C" 
			},
			{
				"x": -1.2446931421,
				"y": -1.6936567631,
				"z": 2.8048004781,
				"element": "N" 
			},
			{
				"x": -1.3101081976,
				"y": -2.9301800182,
				"z": 0.4062618271,
				"element": "S" 
			},
			{
				"x": 0.6915434097,
				"y": 0.2946522832,
				"z": 1.5588502635,
				"element": "C" 
			},
			{
				"x": 1.4573206278,
				"y": 0.119841413,
				"z": 2.7176556349,
				"element": "C" 
			},
			{
				"x": 2.0921408115,
				"y": 1.2035695182,
				"z": 3.3229020612,
				"element": "C" 
			},
			{
				"x": 2.0043167068,
				"y": 2.4760636687,
				"z": 2.7558736403,
				"element": "C" 
			},
			{
				"x": 1.2625338175,
				"y": 2.6640322809,
				"z": 1.5926875482,
				"element": "C" 
			},
			{
				"x": 0.5892518239,
				"y": 1.5879443298,
				"z": 1.016951994,
				"element": "C" 
			},
			{
				"x": -0.2670989231,
				"y": 1.8868299975,
				"z": -0.1449811904,
				"element": "N" 
			},
			{
				"x": 0.0876972354,
				"y": 2.8107150215,
				"z": -0.8746627448,
				"element": "O" 
			},
			{
				"x": -1.2943116232,
				"y": 1.2290346274,
				"z": -0.2831836678,
				"element": "O" 
			},
			{
				"x": 1.548237712,
				"y": -1.614607129,
				"z": -2.8324323542,
				"element": "H" 
			},
			{
				"x": 0.5200556107,
				"y": -2.2639846837,
				"z": -4.150774952,
				"element": "H" 
			},
			{
				"x": 0.083903261,
				"y": -0.7560834434,
				"z": -3.292072544,
				"element": "H" 
			},
			{
				"x": -0.8810920437,
				"y": -0.9104197685,
				"z": 3.3469175426,
				"element": "H" 
			},
			{
				"x": 1.5727577562,
				"y": -0.8813408796,
				"z": 3.1189331431,
				"element": "H" 
			},
			{
				"x": 2.6783607082,
				"y": 1.0447747136,
				"z": 4.222427923,
				"element": "H" 
			},
			{
				"x": 2.5122083562,
				"y": 3.3186751594,
				"z": 3.2130566701,
				"element": "H" 
			},
			{
				"x": 1.177484789,
				"y": 3.6362108029,
				"z": 1.1226295047,
				"element": "H" 
			}
		],
		 "valence_orbital": [ 
			{
				"type": "occ",
				"energy": -0.29291,
				"method": "rhf"
			},
			{
				"type": "occ",
				"energy": -0.28982,
				"method": "rhf"
			},
			{
				"type": "occ",
				"energy": -0.28379,
				"method": "rhf"
			},
			{
				"type": "occ",
				"energy": -0.27008,
				"method": "rhf"
			},
			{
				"type": "occ",
				"energy": -0.23133,
				"method": "rhf"
			},
			{
				"type": "unocc",
				"energy": -0.10207,
				"method": "rhf"
			},
			{
				"type": "unocc",
				"energy": -0.07845,
				"method": "rhf"
			},
			{
				"type": "unocc",
				"energy": -0.05135,
				"method": "rhf"
			},
			{
				"type": "unocc",
				"energy": -0.02886,
				"method": "rhf"
			},
			{
				"type": "unocc",
				"energy": 0.00494,
				"method": "rhf"
			}
		],
		"cosmo_sigma_profile": { 
			"-0.025": 0.0,
			"-0.024": 0.0,
			"-0.023": 0.0,
			"-0.022": 0.0,
			"-0.021": 0.0,
			"-0.02": 0.0,
			"-0.019": 0.0,
			"-0.018": 0.0,
			"-0.017": 0.0,
			"-0.016": 0.0,
			"-0.015": 0.0,
			"-0.014": 0.0,
			"-0.013": 0.0,
			"-0.012": 0.0,
			"-0.011": 0.312734100229,
			"-0.01": 1.18196287533,
			"-0.009": 3.11158657169,
			"-0.008": 9.91505023695,
			"-0.007": 14.9327325256,
			"-0.006": 17.3866249961,
			"-0.005": 15.5911640481,
			"-0.004": 15.4368363227,
			"-0.003": 17.3743073313,
			"-0.002": 21.7007985976,
			"-0.001": 22.1415682123,
			"0.0": 23.0964601399,
			"0.001": 21.8067793529,
			"0.002": 15.2577691047,
			"0.003": 10.888712739,
			"0.004": 7.2739762608,
			"0.005": 7.34012666668,
			"0.006": 8.5249654183,
			"0.007": 11.4701131556,
			"0.008": 7.62573958235,
			"0.009": 7.08607267413,
			"0.01": 6.15879626246,
			"0.011": 3.41783463795,
			"0.012": 2.01706857247,
			"0.013": 0.984524032438,
			"0.014": 1.3587544876,
			"0.015": 0.956188047348,
			"0.016": 0.703708770709,
			"0.017": 0.0221105698553,
			"0.018": 0.0,
			"0.019": 0.0,
			"0.02": 0.0,
			"0.021": 0.0,
			"0.022": 0.0,
			"0.023": 0.0,
			"0.024": 0.0,
			"0.025": 0.0
		}
	}
}
