{
	 "smiles": "CC(C)(C)SC1=CC=C(C=C1)C(N)=S", 
	 "Tm": 437.15, 
	 "num_atms": 29, 
	 "gaussian": { 
		 "optdone": 1, 
		 "sigma_profile": "yes", 
		 "theory": "DFT", 
		 "functional": "B3LYP", 
		 "basiset": "6-31G**", 
		 "properties": { 
			 "R2extent": 5674.6083, 
			 "electric_dipole_moment_norm": 5.30544497003, 
			 "electric_quadrupole_moment_norm": 24.5150761883, 
			 "total_energy": -1279.36012688, 
			 "HOMO_LUMO_gap": 0.14212, 
			 "cosmo_polarized_energy": -16.3, 
			 "cosmo_cavitation_energy": 34.42, 
			 "cosmo_dispersion_energy": -24.94, 
			 "cosmo_repulsion_energy": 1.88, 
			 "cosmo_total_nonelectrostatic_energy": 11.36, 
			 "SMD_solvation_energy": 4.56 
		},
		"coords": [
			{
				"x": 0.5309648457,
				"y": -2.7067660325,
				"z": 2.552231784,
				"element": "C" 
			},
			{
				"x": 0.2588608402,
				"y": -1.4341718668,
				"z": 1.7350854568,
				"element": "C" 
			},
			{
				"x": 1.3558732874,
				"y": -0.3923152456,
				"z": 1.9818948195,
				"element": "C" 
			},
			{
				"x": -1.1229805234,
				"y": -0.8633706026,
				"z": 2.073396284,
				"element": "C" 
			},
			{
				"x": 0.3090711342,
				"y": -2.0408312065,
				"z": -0.0534932898,
				"element": "S" 
			},
			{
				"x": -0.0073991302,
				"y": -0.5686416701,
				"z": -1.0267317856,
				"element": "C" 
			},
			{
				"x": -1.3167264989,
				"y": -0.2259575551,
				"z": -1.4018543343,
				"element": "C" 
			},
			{
				"x": -1.5585754686,
				"y": 0.8818731824,
				"z": -2.207939813,
				"element": "C" 
			},
			{
				"x": -0.4989240302,
				"y": 1.6851647528,
				"z": -2.6569546054,
				"element": "C" 
			},
			{
				"x": 0.8131696906,
				"y": 1.3301068303,
				"z": -2.297256353,
				"element": "C" 
			},
			{
				"x": 1.0561329909,
				"y": 0.213669129,
				"z": -1.4996163295,
				"element": "C" 
			},
			{
				"x": -0.7691459021,
				"y": 2.8777055264,
				"z": -3.5088712491,
				"element": "C" 
			},
			{
				"x": 0.1302479708,
				"y": 3.8819883966,
				"z": -3.3892650742,
				"element": "N" 
			},
			{
				"x": -2.0555735469,
				"y": 2.9825204025,
				"z": -4.5660423303,
				"element": "S" 
			},
			{
				"x": 0.5235641884,
				"y": -2.4622549133,
				"z": 3.620602417,
				"element": "H" 
			},
			{
				"x": 1.507804584,
				"y": -3.1367178003,
				"z": 2.3104723555,
				"element": "H" 
			},
			{
				"x": -0.2348690587,
				"y": -3.4678545336,
				"z": 2.3743204308,
				"element": "H" 
			},
			{
				"x": 2.3463989358,
				"y": -0.7997843912,
				"z": 1.76013675,
				"element": "H" 
			},
			{
				"x": 1.341043987,
				"y": -0.0809980804,
				"z": 3.0339613012,
				"element": "H" 
			},
			{
				"x": 1.2054166559,
				"y": 0.5010561279,
				"z": 1.3689749936,
				"element": "H" 
			},
			{
				"x": -1.1491711405,
				"y": -0.5575476541,
				"z": 3.1268512986,
				"element": "H" 
			},
			{
				"x": -1.3539304339,
				"y": 0.0166164247,
				"z": 1.4663397638,
				"element": "H" 
			},
			{
				"x": -1.9087267807,
				"y": -1.607278694,
				"z": 1.91422334,
				"element": "H" 
			},
			{
				"x": -2.1442347384,
				"y": -0.8410214482,
				"z": -1.0642429431,
				"element": "H" 
			},
			{
				"x": -2.5691279463,
				"y": 1.1402896769,
				"z": -2.5049294031,
				"element": "H" 
			},
			{
				"x": 1.6562978308,
				"y": 1.8964865721,
				"z": -2.6822191996,
				"element": "H" 
			},
			{
				"x": 2.0748006928,
				"y": -0.0668193746,
				"z": -1.2530725448,
				"element": "H" 
			},
			{
				"x": 0.7791731624,
				"y": 3.9159184856,
				"z": -2.617080931,
				"element": "H" 
			},
			{
				"x": -0.0221355984,
				"y": 4.7218355617,
				"z": -3.9284208088,
				"element": "H" 
			}
		],
		 "valence_orbital": [ 
			{
				"type": "occ",
				"energy": -0.26779,
				"method": "rhf"
			},
			{
				"type": "occ",
				"energy": -0.26172,
				"method": "rhf"
			},
			{
				"type": "occ",
				"energy": -0.23198,
				"method": "rhf"
			},
			{
				"type": "occ",
				"energy": -0.22936,
				"method": "rhf"
			},
			{
				"type": "occ",
				"energy": -0.20978,
				"method": "rhf"
			},
			{
				"type": "unocc",
				"energy": -0.06766,
				"method": "rhf"
			},
			{
				"type": "unocc",
				"energy": -0.01917,
				"method": "rhf"
			},
			{
				"type": "unocc",
				"energy": 0.00408,
				"method": "rhf"
			},
			{
				"type": "unocc",
				"energy": 0.04851,
				"method": "rhf"
			},
			{
				"type": "unocc",
				"energy": 0.06115,
				"method": "rhf"
			}
		],
		"cosmo_sigma_profile": { 
			"-0.025": 0.0,
			"-0.024": 0.0,
			"-0.023": 0.0,
			"-0.022": 0.0,
			"-0.021": 0.0,
			"-0.02": 0.0,
			"-0.019": 0.0,
			"-0.018": 0.0,
			"-0.017": 0.0,
			"-0.016": 0.15669634198,
			"-0.015": 2.01755257798,
			"-0.014": 2.62166324934,
			"-0.013": 2.24902422772,
			"-0.012": 3.08817288288,
			"-0.011": 1.77418238727,
			"-0.01": 2.50950704585,
			"-0.009": 1.6351172581,
			"-0.008": 2.87460970095,
			"-0.007": 3.58054145666,
			"-0.006": 6.20528589406,
			"-0.005": 7.72969880176,
			"-0.004": 13.6599515676,
			"-0.003": 21.724157463,
			"-0.002": 26.6278876765,
			"-0.001": 28.7798635946,
			"0.0": 34.4225736812,
			"0.001": 24.3084477893,
			"0.002": 16.5568464208,
			"0.003": 16.0957782035,
			"0.004": 7.77465110098,
			"0.005": 7.38660269288,
			"0.006": 7.51044802052,
			"0.007": 6.72973339268,
			"0.008": 9.54982647076,
			"0.009": 7.6076127695,
			"0.01": 5.69018345828,
			"0.011": 3.29623010942,
			"0.012": 1.227691616,
			"0.013": 0.0,
			"0.014": 0.0,
			"0.015": 0.0,
			"0.016": 0.0,
			"0.017": 0.0,
			"0.018": 0.0,
			"0.019": 0.0,
			"0.02": 0.0,
			"0.021": 0.0,
			"0.022": 0.0,
			"0.023": 0.0,
			"0.024": 0.0,
			"0.025": 0.0
		}
	}
}
