{
	 "smiles": "SC1=C(S)C=CC=C1", 
	 "Tm": 301.65, 
	 "num_atms": 14, 
	 "gaussian": { 
		 "optdone": 1, 
		 "sigma_profile": "yes", 
		 "theory": "DFT", 
		 "functional": "B3LYP", 
		 "basiset": "6-31G**", 
		 "properties": { 
			 "R2extent": 1876.717, 
			 "electric_dipole_moment_norm": 1.12871235485, 
			 "electric_quadrupole_moment_norm": 5.13848449545, 
			 "total_energy": -1028.62088204, 
			 "HOMO_LUMO_gap": 0.20184, 
			 "cosmo_polarized_energy": -5.5, 
			 "cosmo_cavitation_energy": 20.76, 
			 "cosmo_dispersion_energy": -16.57, 
			 "cosmo_repulsion_energy": 1.26, 
			 "cosmo_total_nonelectrostatic_energy": 5.46, 
			 "SMD_solvation_energy": 2.63 
		},
		"coords": [
			{
				"x": 3.2975917889,
				"y": 0.0666692898,
				"z": 0.6558396204,
				"element": "S" 
			},
			{
				"x": 1.5157041847,
				"y": 0.28753731,
				"z": 0.7231283936,
				"element": "C" 
			},
			{
				"x": 0.8178845306,
				"y": 1.1964073459,
				"z": -0.1017091657,
				"element": "C" 
			},
			{
				"x": 1.605573062,
				"y": 2.3180273036,
				"z": -1.2444081451,
				"element": "S" 
			},
			{
				"x": -0.5799324691,
				"y": 1.2670626333,
				"z": -0.0045413514,
				"element": "C" 
			},
			{
				"x": -1.2794362332,
				"y": 0.4449210919,
				"z": 0.8747770103,
				"element": "C" 
			},
			{
				"x": -0.5923219002,
				"y": -0.4723158973,
				"z": 1.6704827558,
				"element": "C" 
			},
			{
				"x": 0.7968620573,
				"y": -0.5431133044,
				"z": 1.5933226832,
				"element": "C" 
			},
			{
				"x": 3.6460828439,
				"y": 1.3395297895,
				"z": 0.945880094,
				"element": "H" 
			},
			{
				"x": 2.7259012483,
				"y": 1.5846777036,
				"z": -1.4170051189,
				"element": "H" 
			},
			{
				"x": -1.118711109,
				"y": 1.9623945026,
				"z": -0.641226434,
				"element": "H" 
			},
			{
				"x": -2.3618598271,
				"y": 0.5149341282,
				"z": 0.9271637553,
				"element": "H" 
			},
			{
				"x": -1.1299224966,
				"y": -1.1215907385,
				"z": 2.3545019428,
				"element": "H" 
			},
			{
				"x": 1.3446843193,
				"y": -1.2374411582,
				"z": 2.2221939596,
				"element": "H" 
			}
		],
		 "valence_orbital": [ 
			{
				"type": "occ",
				"energy": -0.34237,
				"method": "rhf"
			},
			{
				"type": "occ",
				"energy": -0.29866,
				"method": "rhf"
			},
			{
				"type": "occ",
				"energy": -0.28117,
				"method": "rhf"
			},
			{
				"type": "occ",
				"energy": -0.24619,
				"method": "rhf"
			},
			{
				"type": "occ",
				"energy": -0.22416,
				"method": "rhf"
			},
			{
				"type": "unocc",
				"energy": -0.02232,
				"method": "rhf"
			},
			{
				"type": "unocc",
				"energy": -0.01363,
				"method": "rhf"
			},
			{
				"type": "unocc",
				"energy": 0.0136,
				"method": "rhf"
			},
			{
				"type": "unocc",
				"energy": 0.03037,
				"method": "rhf"
			},
			{
				"type": "unocc",
				"energy": 0.06509,
				"method": "rhf"
			}
		],
		"cosmo_sigma_profile": { 
			"-0.025": 0.0,
			"-0.024": 0.0,
			"-0.023": 0.0,
			"-0.022": 0.0,
			"-0.021": 0.0,
			"-0.02": 0.0,
			"-0.019": 0.0,
			"-0.018": 0.0,
			"-0.017": 0.0,
			"-0.016": 0.0,
			"-0.015": 0.0,
			"-0.014": 0.0,
			"-0.013": 0.0,
			"-0.012": 0.0,
			"-0.011": 0.0296621168875,
			"-0.01": 1.30793808581,
			"-0.009": 2.49841569081,
			"-0.008": 2.06121212201,
			"-0.007": 4.81104656293,
			"-0.006": 11.6482674574,
			"-0.005": 11.5948368639,
			"-0.004": 11.8338162338,
			"-0.003": 8.83320986453,
			"-0.002": 11.0291999785,
			"-0.001": 9.97126419411,
			"0.0": 9.91478415007,
			"0.001": 11.2560818811,
			"0.002": 13.6827449087,
			"0.003": 16.8749444153,
			"0.004": 18.9864308694,
			"0.005": 10.9162574397,
			"0.006": 5.05352444893,
			"0.007": 4.45111769568,
			"0.008": 3.30560549793,
			"0.009": 1.01662398549,
			"0.01": 0.0,
			"0.011": 0.0,
			"0.012": 0.0,
			"0.013": 0.0,
			"0.014": 0.0,
			"0.015": 0.0,
			"0.016": 0.0,
			"0.017": 0.0,
			"0.018": 0.0,
			"0.019": 0.0,
			"0.02": 0.0,
			"0.021": 0.0,
			"0.022": 0.0,
			"0.023": 0.0,
			"0.024": 0.0,
			"0.025": 0.0
		}
	}
}
