{
	 "smiles": "CC(=O)NCC(O)=O", 
	 "Tm": 481.15, 
	 "num_atms": 15, 
	 "gaussian": { 
		 "optdone": 1, 
		 "sigma_profile": "yes", 
		 "theory": "DFT", 
		 "functional": "B3LYP", 
		 "basiset": "6-31G**", 
		 "properties": { 
			 "R2extent": 1944.1168, 
			 "electric_dipole_moment_norm": 2.70393536535, 
			 "electric_quadrupole_moment_norm": 18.7931946031, 
			 "total_energy": -437.099554203, 
			 "HOMO_LUMO_gap": 0.23677, 
			 "cosmo_polarized_energy": -14.61, 
			 "cosmo_cavitation_energy": 19.74, 
			 "cosmo_dispersion_energy": -14.54, 
			 "cosmo_repulsion_energy": 1.25, 
			 "cosmo_total_nonelectrostatic_energy": 6.45, 
			 "SMD_solvation_energy": 5.0 
		},
		"coords": [
			{
				"x": 0.2211029001,
				"y": -1.4750493138,
				"z": -2.1717628657,
				"element": "C" 
			},
			{
				"x": 0.0507724944,
				"y": 0.0328919421,
				"z": -2.2633510591,
				"element": "C" 
			},
			{
				"x": -0.384809714,
				"y": 0.5887139845,
				"z": -3.2652197296,
				"element": "O" 
			},
			{
				"x": 0.4155242772,
				"y": 0.737064817,
				"z": -1.1526453148,
				"element": "N" 
			},
			{
				"x": 0.3013149909,
				"y": 2.1741194481,
				"z": -1.1171994703,
				"element": "C" 
			},
			{
				"x": 0.7766230375,
				"y": 2.6793181167,
				"z": 0.2264666186,
				"element": "C" 
			},
			{
				"x": 0.6899374812,
				"y": 4.0202698391,
				"z": 0.3098504704,
				"element": "O" 
			},
			{
				"x": 1.1872179262,
				"y": 1.9773851596,
				"z": 1.1266149375,
				"element": "O" 
			},
			{
				"x": -0.7487969294,
				"y": -1.9491250817,
				"z": -2.3449701316,
				"element": "H" 
			},
			{
				"x": 0.8903607684,
				"y": -1.8021441053,
				"z": -2.9721442829,
				"element": "H" 
			},
			{
				"x": 0.6188870598,
				"y": -1.8162275913,
				"z": -1.2122183263,
				"element": "H" 
			},
			{
				"x": 0.7766413894,
				"y": 0.2923564555,
				"z": -0.3199691953,
				"element": "H" 
			},
			{
				"x": -0.732881228,
				"y": 2.5040740613,
				"z": -1.2805703823,
				"element": "H" 
			},
			{
				"x": 0.8935327057,
				"y": 2.6487209239,
				"z": -1.9103840191,
				"element": "H" 
			},
			{
				"x": 1.0102728406,
				"y": 4.2664313444,
				"z": 1.1940027506,
				"element": "H" 
			}
		],
		 "valence_orbital": [ 
			{
				"type": "occ",
				"energy": -0.34945,
				"method": "rhf"
			},
			{
				"type": "occ",
				"energy": -0.33941,
				"method": "rhf"
			},
			{
				"type": "occ",
				"energy": -0.3015,
				"method": "rhf"
			},
			{
				"type": "occ",
				"energy": -0.25543,
				"method": "rhf"
			},
			{
				"type": "occ",
				"energy": -0.24527,
				"method": "rhf"
			},
			{
				"type": "unocc",
				"energy": -0.0085,
				"method": "rhf"
			},
			{
				"type": "unocc",
				"energy": 0.03144,
				"method": "rhf"
			},
			{
				"type": "unocc",
				"energy": 0.06266,
				"method": "rhf"
			},
			{
				"type": "unocc",
				"energy": 0.08891,
				"method": "rhf"
			},
			{
				"type": "unocc",
				"energy": 0.11236,
				"method": "rhf"
			}
		],
		"cosmo_sigma_profile": { 
			"-0.025": 0.0,
			"-0.024": 0.0,
			"-0.023": 0.0,
			"-0.022": 0.0,
			"-0.021": 0.0,
			"-0.02": 0.0,
			"-0.019": 0.487228950507,
			"-0.018": 1.17896246241,
			"-0.017": 0.674006439282,
			"-0.016": 0.962757786983,
			"-0.015": 0.729423319687,
			"-0.014": 1.08878164344,
			"-0.013": 0.348436266603,
			"-0.012": 0.912009293479,
			"-0.011": 2.32576729147,
			"-0.01": 1.24376498486,
			"-0.009": 1.9179282263,
			"-0.008": 3.87420437488,
			"-0.007": 5.8264803415,
			"-0.006": 8.43467028768,
			"-0.005": 10.3426015967,
			"-0.004": 10.2664064631,
			"-0.003": 11.4346585471,
			"-0.002": 14.3253517822,
			"-0.001": 12.8107234903,
			"0.0": 7.45049417989,
			"0.001": 6.98913970073,
			"0.002": 4.03682238105,
			"0.003": 3.8042312661,
			"0.004": 3.00657212849,
			"0.005": 3.38972645335,
			"0.006": 4.37866938042,
			"0.007": 2.91972758051,
			"0.008": 4.59068824778,
			"0.009": 4.17808296572,
			"0.01": 4.17957734168,
			"0.011": 4.61685629457,
			"0.012": 2.20770624654,
			"0.013": 2.27706205628,
			"0.014": 5.91216525048,
			"0.015": 2.09898712905,
			"0.016": 0.161899513809,
			"0.017": 0.0,
			"0.018": 0.0,
			"0.019": 0.0,
			"0.02": 0.0,
			"0.021": 0.0,
			"0.022": 0.0,
			"0.023": 0.0,
			"0.024": 0.0,
			"0.025": 0.0
		}
	}
}
