{
	 "smiles": "CN(C)C1=CC=C(C=C2C=C(OC(=C2)C2=CC=CC=C2)C2=CC=CC=C2)C=C1", 
	 "Tm": 454.15, 
	 "num_atms": 51, 
	 "gaussian": { 
		 "optdone": 1, 
		 "sigma_profile": "yes", 
		 "theory": "DFT", 
		 "functional": "B3LYP", 
		 "basiset": "6-31G**", 
		 "properties": { 
			 "R2extent": 16909.9805, 
			 "electric_dipole_moment_norm": 1.95561018099, 
			 "electric_quadrupole_moment_norm": 27.1418883665, 
			 "total_energy": -1134.57809203, 
			 "HOMO_LUMO_gap": 0.11435, 
			 "cosmo_polarized_energy": -11.98, 
			 "cosmo_cavitation_energy": 54.15, 
			 "cosmo_dispersion_energy": -38.23, 
			 "cosmo_repulsion_energy": 2.81, 
			 "cosmo_total_nonelectrostatic_energy": 18.74, 
			 "SMD_solvation_energy": 8.4 
		},
		"coords": [
			{
				"x": 2.4838281306,
				"y": -5.9451279017,
				"z": 0.539200007,
				"element": "C" 
			},
			{
				"x": 1.2036957271,
				"y": -5.6929465333,
				"z": 1.1776121956,
				"element": "N" 
			},
			{
				"x": 0.8470774999,
				"y": -6.4988856941,
				"z": 2.3323242701,
				"element": "C" 
			},
			{
				"x": 0.5859846334,
				"y": -4.4592670598,
				"z": 0.9944542745,
				"element": "C" 
			},
			{
				"x": -0.5411020967,
				"y": -4.0747036722,
				"z": 1.7570634635,
				"element": "C" 
			},
			{
				"x": -1.1641392327,
				"y": -2.8526942284,
				"z": 1.5473582295,
				"element": "C" 
			},
			{
				"x": -0.7084784555,
				"y": -1.9208916219,
				"z": 0.591713968,
				"element": "C" 
			},
			{
				"x": -1.424827677,
				"y": -0.6602205014,
				"z": 0.4277722966,
				"element": "C" 
			},
			{
				"x": -0.9738770585,
				"y": 0.5590496679,
				"z": -0.0017886137,
				"element": "C" 
			},
			{
				"x": 0.4080457989,
				"y": 0.9121187362,
				"z": -0.2900153982,
				"element": "C" 
			},
			{
				"x": 0.754984043,
				"y": 2.1379002421,
				"z": -0.74504324,
				"element": "C" 
			},
			{
				"x": -0.1825022748,
				"y": 3.1255012556,
				"z": -0.9551794821,
				"element": "O" 
			},
			{
				"x": -1.498922456,
				"y": 2.8850365621,
				"z": -0.6114436586,
				"element": "C" 
			},
			{
				"x": -1.8943906813,
				"y": 1.6729465621,
				"z": -0.1643363652,
				"element": "C" 
			},
			{
				"x": -2.3548819645,
				"y": 4.0616279447,
				"z": -0.8358516988,
				"element": "C" 
			},
			{
				"x": -1.9396430514,
				"y": 5.0888661704,
				"z": -1.7017860671,
				"element": "C" 
			},
			{
				"x": -2.7547167951,
				"y": 6.1961279569,
				"z": -1.9312622865,
				"element": "C" 
			},
			{
				"x": -3.9950839055,
				"y": 6.3033990832,
				"z": -1.3007557488,
				"element": "C" 
			},
			{
				"x": -4.4129239623,
				"y": 5.2928333693,
				"z": -0.4305873404,
				"element": "C" 
			},
			{
				"x": -3.6010153025,
				"y": 4.1870283746,
				"z": -0.1952515561,
				"element": "C" 
			},
			{
				"x": 2.122206334,
				"y": 2.6041866475,
				"z": -1.035006405,
				"element": "C" 
			},
			{
				"x": 2.4178961357,
				"y": 3.9787619057,
				"z": -1.0457431157,
				"element": "C" 
			},
			{
				"x": 3.7136992091,
				"y": 4.4234766283,
				"z": -1.3025442599,
				"element": "C" 
			},
			{
				"x": 4.7368350071,
				"y": 3.5089704889,
				"z": -1.5568388454,
				"element": "C" 
			},
			{
				"x": 4.4514973099,
				"y": 2.1409858431,
				"z": -1.5585114875,
				"element": "C" 
			},
			{
				"x": 3.1579298726,
				"y": 1.6924547846,
				"z": -1.3072310857,
				"element": "C" 
			},
			{
				"x": 0.4026772957,
				"y": -2.3222812255,
				"z": -0.1777202579,
				"element": "C" 
			},
			{
				"x": 1.0379664964,
				"y": -3.5427552474,
				"z": 0.0182197474,
				"element": "C" 
			},
			{
				"x": 3.2695822239,
				"y": -5.2405215972,
				"z": 0.8557133306,
				"element": "H" 
			},
			{
				"x": 2.8132055604,
				"y": -6.9561060418,
				"z": 0.7850021,
				"element": "H" 
			},
			{
				"x": 2.398648803,
				"y": -5.8852963654,
				"z": -0.5518411492,
				"element": "H" 
			},
			{
				"x": -0.2170820814,
				"y": -6.760094977,
				"z": 2.3160275731,
				"element": "H" 
			},
			{
				"x": 1.057143244,
				"y": -5.9971606479,
				"z": 3.2905688552,
				"element": "H" 
			},
			{
				"x": 1.411895826,
				"y": -7.432311934,
				"z": 2.3051579559,
				"element": "H" 
			},
			{
				"x": -0.9369038191,
				"y": -4.7330850533,
				"z": 2.5208275797,
				"element": "H" 
			},
			{
				"x": -2.0280765457,
				"y": -2.5976851415,
				"z": 2.1567722453,
				"element": "H" 
			},
			{
				"x": -2.4745029162,
				"y": -0.6979876375,
				"z": 0.7181759265,
				"element": "H" 
			},
			{
				"x": 1.1963536657,
				"y": 0.2033526632,
				"z": -0.0782118478,
				"element": "H" 
			},
			{
				"x": -2.9449886589,
				"y": 1.5146165103,
				"z": 0.0509524492,
				"element": "H" 
			},
			{
				"x": -0.9811142321,
				"y": 5.0056198583,
				"z": -2.2008104541,
				"element": "H" 
			},
			{
				"x": -2.4189979034,
				"y": 6.9765796347,
				"z": -2.6083171498,
				"element": "H" 
			},
			{
				"x": -4.6279324646,
				"y": 7.1678239727,
				"z": -1.4791148606,
				"element": "H" 
			},
			{
				"x": -5.3699867222,
				"y": 5.372393682,
				"z": 0.0770541774,
				"element": "H" 
			},
			{
				"x": -3.9256244626,
				"y": 3.4268605412,
				"z": 0.5080196406,
				"element": "H" 
			},
			{
				"x": 1.6278515813,
				"y": 4.6915284025,
				"z": -0.8396052459,
				"element": "H" 
			},
			{
				"x": 3.9242815709,
				"y": 5.4892167985,
				"z": -1.3005541981,
				"element": "H" 
			},
			{
				"x": 5.7455949783,
				"y": 3.8572886643,
				"z": -1.7585165047,
				"element": "H" 
			},
			{
				"x": 5.2370090523,
				"y": 1.4209528307,
				"z": -1.7694163681,
				"element": "H" 
			},
			{
				"x": 2.9448368749,
				"y": 0.6289941982,
				"z": -1.3437325062,
				"element": "H" 
			},
			{
				"x": 0.7584850027,
				"y": -1.6842118847,
				"z": -0.9798138768,
				"element": "H" 
			},
			{
				"x": 1.8839028431,
				"y": -3.7890650137,
				"z": -0.6121592116,
				"element": "H" 
			}
		],
		 "valence_orbital": [ 
			{
				"type": "occ",
				"energy": -0.25052,
				"method": "rhf"
			},
			{
				"type": "occ",
				"energy": -0.23843,
				"method": "rhf"
			},
			{
				"type": "occ",
				"energy": -0.22398,
				"method": "rhf"
			},
			{
				"type": "occ",
				"energy": -0.20552,
				"method": "rhf"
			},
			{
				"type": "occ",
				"energy": -0.15662,
				"method": "rhf"
			},
			{
				"type": "unocc",
				"energy": -0.04227,
				"method": "rhf"
			},
			{
				"type": "unocc",
				"energy": -0.03612,
				"method": "rhf"
			},
			{
				"type": "unocc",
				"energy": -0.00145,
				"method": "rhf"
			},
			{
				"type": "unocc",
				"energy": -0.00068,
				"method": "rhf"
			},
			{
				"type": "unocc",
				"energy": 0.0104,
				"method": "rhf"
			}
		],
		"cosmo_sigma_profile": { 
			"-0.025": 0.0,
			"-0.024": 0.0,
			"-0.023": 0.0,
			"-0.022": 0.0,
			"-0.021": 0.0,
			"-0.02": 0.0,
			"-0.019": 0.0,
			"-0.018": 0.0,
			"-0.017": 0.0,
			"-0.016": 0.0,
			"-0.015": 0.0,
			"-0.014": 0.0,
			"-0.013": 0.0,
			"-0.012": 0.0,
			"-0.011": 0.0,
			"-0.01": 0.0,
			"-0.009": 0.0,
			"-0.008": 0.41421909477,
			"-0.007": 4.384668536,
			"-0.006": 18.5140900949,
			"-0.005": 32.6913375439,
			"-0.004": 41.7859152774,
			"-0.003": 40.0007834657,
			"-0.002": 38.2383642069,
			"-0.001": 35.383681005,
			"0.0": 25.4356585339,
			"0.001": 31.2621775688,
			"0.002": 32.0938413595,
			"0.003": 35.2480333634,
			"0.004": 34.1127207639,
			"0.005": 33.184889656,
			"0.006": 18.484249492,
			"0.007": 10.6238590034,
			"0.008": 1.50506668259,
			"0.009": 0.0150701429763,
			"0.01": 0.0,
			"0.011": 0.0,
			"0.012": 0.0,
			"0.013": 0.0,
			"0.014": 0.0,
			"0.015": 0.0,
			"0.016": 0.0,
			"0.017": 0.0,
			"0.018": 0.0,
			"0.019": 0.0,
			"0.02": 0.0,
			"0.021": 0.0,
			"0.022": 0.0,
			"0.023": 0.0,
			"0.024": 0.0,
			"0.025": 0.0
		}
	}
}
