{
	 "smiles": "NC1=CC=C(C=C1)N=NC1=CC=C(C=C1)[N+]([O-])=NC1=CC=C(N)C=C1", 
	 "Tm": 520.15, 
	 "num_atms": 41, 
	 "gaussian": { 
		 "optdone": 1, 
		 "sigma_profile": "yes", 
		 "theory": "DFT", 
		 "functional": "B3LYP", 
		 "basiset": "6-31G**", 
		 "properties": { 
			 "R2extent": 10699.377, 
			 "electric_dipole_moment_norm": 7.95170587484, 
			 "electric_quadrupole_moment_norm": 52.6991170641, 
			 "total_energy": -1099.12836298, 
			 "HOMO_LUMO_gap": 0.11471, 
			 "cosmo_polarized_energy": -30.02, 
			 "cosmo_cavitation_energy": 46.79, 
			 "cosmo_dispersion_energy": -31.23, 
			 "cosmo_repulsion_energy": 2.37, 
			 "cosmo_total_nonelectrostatic_energy": 17.93, 
			 "SMD_solvation_energy": 5.87 
		},
		"coords": [
			{
				"x": 0.2160180947,
				"y": 4.1675280972,
				"z": 3.0787889335,
				"element": "N" 
			},
			{
				"x": -0.8298891889,
				"y": 3.5733240248,
				"z": 2.3951806039,
				"element": "C" 
			},
			{
				"x": -2.060096679,
				"y": 4.24125115,
				"z": 2.2345260759,
				"element": "C" 
			},
			{
				"x": -3.1223666901,
				"y": 3.6081117332,
				"z": 1.6094231146,
				"element": "C" 
			},
			{
				"x": -2.9863146374,
				"y": 2.3194526288,
				"z": 1.0641160845,
				"element": "C" 
			},
			{
				"x": -1.7645484639,
				"y": 1.6419758544,
				"z": 1.2434870589,
				"element": "C" 
			},
			{
				"x": -0.7127529087,
				"y": 2.2548766987,
				"z": 1.9069207105,
				"element": "C" 
			},
			{
				"x": -4.1825871557,
				"y": 1.7814372757,
				"z": 0.513490942,
				"element": "N" 
			},
			{
				"x": -4.2334965544,
				"y": 0.9125478377,
				"z": -0.3886305561,
				"element": "N" 
			},
			{
				"x": -3.1161360421,
				"y": 0.4781278052,
				"z": -1.1644754191,
				"element": "C" 
			},
			{
				"x": -2.3586314891,
				"y": 1.3752693571,
				"z": -1.9371954463,
				"element": "C" 
			},
			{
				"x": -1.4024510844,
				"y": 0.8931265761,
				"z": -2.8228959371,
				"element": "C" 
			},
			{
				"x": -1.1716367443,
				"y": -0.4803517948,
				"z": -2.905077989,
				"element": "C" 
			},
			{
				"x": -1.9362445821,
				"y": -1.3866544643,
				"z": -2.1700817512,
				"element": "C" 
			},
			{
				"x": -2.9282629332,
				"y": -0.9032195675,
				"z": -1.3230704609,
				"element": "C" 
			},
			{
				"x": -0.188833352,
				"y": -0.9472329612,
				"z": -3.8991741833,
				"element": "N" 
			},
			{
				"x": -0.274956867,
				"y": -0.367314968,
				"z": -5.0068310905,
				"element": "O" 
			},
			{
				"x": 0.6502367732,
				"y": -1.8999766289,
				"z": -3.7196925697,
				"element": "N" 
			},
			{
				"x": 0.9361816424,
				"y": -2.3714565408,
				"z": -2.4222257531,
				"element": "C" 
			},
			{
				"x": 1.1337879851,
				"y": -3.7558922719,
				"z": -2.2860269469,
				"element": "C" 
			},
			{
				"x": 1.5032000952,
				"y": -4.3137297731,
				"z": -1.0690833337,
				"element": "C" 
			},
			{
				"x": 1.7262652716,
				"y": -3.5000435594,
				"z": 0.0562903231,
				"element": "C" 
			},
			{
				"x": 2.1614076694,
				"y": -4.0486537727,
				"z": 1.2622295339,
				"element": "N" 
			},
			{
				"x": 1.5734285549,
				"y": -2.1095813246,
				"z": -0.0905283794,
				"element": "C" 
			},
			{
				"x": 1.1868582635,
				"y": -1.5546333166,
				"z": -1.304717662,
				"element": "C" 
			},
			{
				"x": 1.1390955337,
				"y": 3.7916524141,
				"z": 2.9196594614,
				"element": "H" 
			},
			{
				"x": 0.1976009563,
				"y": 5.173685068,
				"z": 3.1562849127,
				"element": "H" 
			},
			{
				"x": -2.1801502529,
				"y": 5.2469762508,
				"z": 2.6285897217,
				"element": "H" 
			},
			{
				"x": -4.0837410182,
				"y": 4.1030197527,
				"z": 1.5139702477,
				"element": "H" 
			},
			{
				"x": -1.6433789591,
				"y": 0.626060825,
				"z": 0.8878968792,
				"element": "H" 
			},
			{
				"x": 0.2170079792,
				"y": 1.7125159843,
				"z": 2.0597292939,
				"element": "H" 
			},
			{
				"x": -2.5372117941,
				"y": 2.4417489036,
				"z": -1.8528121929,
				"element": "H" 
			},
			{
				"x": -0.8355256657,
				"y": 1.5618826654,
				"z": -3.4599949496,
				"element": "H" 
			},
			{
				"x": -1.772780304,
				"y": -2.4527660142,
				"z": -2.2719190425,
				"element": "H" 
			},
			{
				"x": -3.5657305397,
				"y": -1.5873142667,
				"z": -0.7725373145,
				"element": "H" 
			},
			{
				"x": 0.9825519713,
				"y": -4.3872361805,
				"z": -3.1558963699,
				"element": "H" 
			},
			{
				"x": 1.6383098613,
				"y": -5.3894337154,
				"z": -0.9880488747,
				"element": "H" 
			},
			{
				"x": 1.9400455102,
				"y": -5.0250448508,
				"z": 1.399093623,
				"element": "H" 
			},
			{
				"x": 1.9682829951,
				"y": -3.4965722219,
				"z": 2.0861783655,
				"element": "H" 
			},
			{
				"x": 1.7789069818,
				"y": -1.4583095262,
				"z": 0.7557987018,
				"element": "H" 
			},
			{
				"x": 1.097837767,
				"y": -0.4769531834,
				"z": -1.3917383651,
				"element": "H" 
			}
		],
		 "valence_orbital": [ 
			{
				"type": "occ",
				"energy": -0.2544,
				"method": "rhf"
			},
			{
				"type": "occ",
				"energy": -0.24992,
				"method": "rhf"
			},
			{
				"type": "occ",
				"energy": -0.23195,
				"method": "rhf"
			},
			{
				"type": "occ",
				"energy": -0.20456,
				"method": "rhf"
			},
			{
				"type": "occ",
				"energy": -0.19266,
				"method": "rhf"
			},
			{
				"type": "unocc",
				"energy": -0.07795,
				"method": "rhf"
			},
			{
				"type": "unocc",
				"energy": -0.05415,
				"method": "rhf"
			},
			{
				"type": "unocc",
				"energy": -0.02492,
				"method": "rhf"
			},
			{
				"type": "unocc",
				"energy": -0.01156,
				"method": "rhf"
			},
			{
				"type": "unocc",
				"energy": -0.00756,
				"method": "rhf"
			}
		],
		"cosmo_sigma_profile": { 
			"-0.025": 0.0,
			"-0.024": 0.0,
			"-0.023": 0.0,
			"-0.022": 0.0,
			"-0.021": 0.0,
			"-0.02": 0.0,
			"-0.019": 0.0,
			"-0.018": 0.0,
			"-0.017": 0.0,
			"-0.016": 0.0,
			"-0.015": 0.0,
			"-0.014": 0.46093945558,
			"-0.013": 3.86348040416,
			"-0.012": 5.87184762209,
			"-0.011": 5.28359548557,
			"-0.01": 6.61438726704,
			"-0.009": 6.54935536708,
			"-0.008": 6.44470102628,
			"-0.007": 13.8300225359,
			"-0.006": 24.1692523954,
			"-0.005": 24.1428869603,
			"-0.004": 25.0971914888,
			"-0.003": 19.8138259844,
			"-0.002": 19.2238864493,
			"-0.001": 19.937379399,
			"0.0": 18.5314196657,
			"0.001": 20.5770503283,
			"0.002": 23.7566299395,
			"0.003": 23.4682450024,
			"0.004": 26.4265586693,
			"0.005": 20.4521421603,
			"0.006": 7.53466396441,
			"0.007": 6.3228129374,
			"0.008": 5.75040759423,
			"0.009": 4.93835549668,
			"0.01": 7.03989908447,
			"0.011": 9.4441655301,
			"0.012": 7.38645293219,
			"0.013": 5.95970878195,
			"0.014": 4.3391059299,
			"0.015": 0.604449321397,
			"0.016": 0.0,
			"0.017": 0.0,
			"0.018": 0.0,
			"0.019": 0.0,
			"0.02": 0.0,
			"0.021": 0.0,
			"0.022": 0.0,
			"0.023": 0.0,
			"0.024": 0.0,
			"0.025": 0.0
		}
	}
}
