{
	 "smiles": "CCCOC(=O)C1=C(C)NC(=O)NC1C1=CC=CC=C1", 
	 "Tm": 449.15, 
	 "num_atms": 38, 
	 "gaussian": { 
		 "optdone": 1, 
		 "sigma_profile": "yes", 
		 "theory": "DFT", 
		 "functional": "B3LYP", 
		 "basiset": "6-31G**", 
		 "properties": { 
			 "R2extent": 6565.1862, 
			 "electric_dipole_moment_norm": 2.27775248436, 
			 "electric_quadrupole_moment_norm": 26.3901045373, 
			 "total_energy": -917.665571908, 
			 "HOMO_LUMO_gap": 0.18779, 
			 "cosmo_polarized_energy": -17.25, 
			 "cosmo_cavitation_energy": 40.77, 
			 "cosmo_dispersion_energy": -27.32, 
			 "cosmo_repulsion_energy": 2.14, 
			 "cosmo_total_nonelectrostatic_energy": 15.59, 
			 "SMD_solvation_energy": 7.84 
		},
		"coords": [
			{
				"x": 1.1105064642,
				"y": 2.427530274,
				"z": 1.7415684101,
				"element": "C" 
			},
			{
				"x": 2.3587228731,
				"y": 1.5395451413,
				"z": 1.7414512675,
				"element": "C" 
			},
			{
				"x": 2.0579937005,
				"y": 0.0561513942,
				"z": 1.5878243073,
				"element": "C" 
			},
			{
				"x": 1.5115592648,
				"y": -0.1595719749,
				"z": 0.2677126025,
				"element": "O" 
			},
			{
				"x": 1.1304783037,
				"y": -1.4351584572,
				"z": -0.009515753,
				"element": "C" 
			},
			{
				"x": 1.2322646487,
				"y": -2.3253950433,
				"z": 0.8214858013,
				"element": "O" 
			},
			{
				"x": 0.6226720104,
				"y": -1.5503797074,
				"z": -1.3892590225,
				"element": "C" 
			},
			{
				"x": 0.2158127337,
				"y": -2.7390243807,
				"z": -1.9211528733,
				"element": "C" 
			},
			{
				"x": 0.1737105147,
				"y": -4.0794137602,
				"z": -1.2406260315,
				"element": "C" 
			},
			{
				"x": -0.213455298,
				"y": -2.7782919763,
				"z": -3.2373737596,
				"element": "N" 
			},
			{
				"x": 0.0052162875,
				"y": -1.7714159587,
				"z": -4.186185421,
				"element": "C" 
			},
			{
				"x": -0.2518610734,
				"y": -1.9451630233,
				"z": -5.367766596,
				"element": "O" 
			},
			{
				"x": 0.5695180404,
				"y": -0.6440933906,
				"z": -3.6615452956,
				"element": "N" 
			},
			{
				"x": 0.5412910054,
				"y": -0.2837186238,
				"z": -2.2319621664,
				"element": "C" 
			},
			{
				"x": -0.6614949112,
				"y": 0.6119472233,
				"z": -1.9142342651,
				"element": "C" 
			},
			{
				"x": -1.932794068,
				"y": 0.0814859616,
				"z": -1.6613713356,
				"element": "C" 
			},
			{
				"x": -3.0232258855,
				"y": 0.9240440074,
				"z": -1.445243368,
				"element": "C" 
			},
			{
				"x": -2.8587642647,
				"y": 2.3108243667,
				"z": -1.4772615119,
				"element": "C" 
			},
			{
				"x": -1.5960431918,
				"y": 2.8501686963,
				"z": -1.7258398191,
				"element": "C" 
			},
			{
				"x": -0.5068737041,
				"y": 2.0033944518,
				"z": -1.9424138866,
				"element": "C" 
			},
			{
				"x": 0.4410359772,
				"y": 2.1628752856,
				"z": 2.5680050895,
				"element": "H" 
			},
			{
				"x": 1.3796243617,
				"y": 3.4823611396,
				"z": 1.8562454404,
				"element": "H" 
			},
			{
				"x": 0.5484811489,
				"y": 2.3188101933,
				"z": 0.8101652809,
				"element": "H" 
			},
			{
				"x": 3.0441390591,
				"y": 1.8459465842,
				"z": 0.9415356372,
				"element": "H" 
			},
			{
				"x": 2.9071995629,
				"y": 1.663579712,
				"z": 2.6840215937,
				"element": "H" 
			},
			{
				"x": 1.3341999153,
				"y": -0.29192474,
				"z": 2.3322671585,
				"element": "H" 
			},
			{
				"x": 2.9605310759,
				"y": -0.5543123576,
				"z": 1.6967265958,
				"element": "H" 
			},
			{
				"x": 0.9097696649,
				"y": -4.7500381694,
				"z": -1.7009763298,
				"element": "H" 
			},
			{
				"x": -0.8151472924,
				"y": -4.5319813576,
				"z": -1.3822780087,
				"element": "H" 
			},
			{
				"x": 0.391001538,
				"y": -3.9903620183,
				"z": -0.180607932,
				"element": "H" 
			},
			{
				"x": -0.5019867327,
				"y": -3.6582030973,
				"z": -3.6407390694,
				"element": "H" 
			},
			{
				"x": 0.6132097185,
				"y": 0.1179257081,
				"z": -4.3245563346,
				"element": "H" 
			},
			{
				"x": 1.44095488,
				"y": 0.3083933192,
				"z": -2.0448676642,
				"element": "H" 
			},
			{
				"x": -2.0683597485,
				"y": -0.9952411117,
				"z": -1.6256247933,
				"element": "H" 
			},
			{
				"x": -4.0028497391,
				"y": 0.4975090895,
				"z": -1.2486052329,
				"element": "H" 
			},
			{
				"x": -3.708380192,
				"y": 2.9654748328,
				"z": -1.3060627069,
				"element": "H" 
			},
			{
				"x": -1.4567030368,
				"y": 3.9273484306,
				"z": -1.7473958354,
				"element": "H" 
			},
			{
				"x": 0.4769463888,
				"y": 2.4280733368,
				"z": -2.1310441723,
				"element": "H" 
			}
		],
		 "valence_orbital": [ 
			{
				"type": "occ",
				"energy": -0.26519,
				"method": "rhf"
			},
			{
				"type": "occ",
				"energy": -0.25953,
				"method": "rhf"
			},
			{
				"type": "occ",
				"energy": -0.25468,
				"method": "rhf"
			},
			{
				"type": "occ",
				"energy": -0.24432,
				"method": "rhf"
			},
			{
				"type": "occ",
				"energy": -0.22685,
				"method": "rhf"
			},
			{
				"type": "unocc",
				"energy": -0.03906,
				"method": "rhf"
			},
			{
				"type": "unocc",
				"energy": -0.00839,
				"method": "rhf"
			},
			{
				"type": "unocc",
				"energy": -0.00554,
				"method": "rhf"
			},
			{
				"type": "unocc",
				"energy": 0.05861,
				"method": "rhf"
			},
			{
				"type": "unocc",
				"energy": 0.07143,
				"method": "rhf"
			}
		],
		"cosmo_sigma_profile": { 
			"-0.025": 0.0,
			"-0.024": 0.0,
			"-0.023": 0.0,
			"-0.022": 0.0,
			"-0.021": 0.0,
			"-0.02": 0.0,
			"-0.019": 0.0,
			"-0.018": 0.0,
			"-0.017": 0.0,
			"-0.016": 0.0721485972107,
			"-0.015": 0.770174062898,
			"-0.014": 1.4088592602,
			"-0.013": 1.96905688939,
			"-0.012": 1.95189837909,
			"-0.011": 1.94922264339,
			"-0.01": 2.30009271067,
			"-0.009": 2.40141912876,
			"-0.008": 2.72092703115,
			"-0.007": 4.29616123435,
			"-0.006": 11.4857323442,
			"-0.005": 17.5639936309,
			"-0.004": 24.0752614126,
			"-0.003": 31.7098374321,
			"-0.002": 28.7185764295,
			"-0.001": 30.4592870545,
			"0.0": 28.7617378887,
			"0.001": 26.683910274,
			"0.002": 19.3940919338,
			"0.003": 14.766295216,
			"0.004": 14.447737992,
			"0.005": 14.6805790726,
			"0.006": 8.30343005899,
			"0.007": 2.73448213592,
			"0.008": 3.03312041869,
			"0.009": 2.54985759053,
			"0.01": 2.67492863337,
			"0.011": 3.57909652486,
			"0.012": 4.88678002021,
			"0.013": 7.02790659215,
			"0.014": 4.28598405206,
			"0.015": 0.139988006141,
			"0.016": 0.0,
			"0.017": 0.0,
			"0.018": 0.0,
			"0.019": 0.0,
			"0.02": 0.0,
			"0.021": 0.0,
			"0.022": 0.0,
			"0.023": 0.0,
			"0.024": 0.0,
			"0.025": 0.0
		}
	}
}
