{
	 "smiles": "CC1=CC(C(=O)CCl)=C(C)N1CC=C", 
	 "Tm": 311.15, 
	 "num_atms": 28, 
	 "gaussian": { 
		 "optdone": 1, 
		 "sigma_profile": "yes", 
		 "theory": "DFT", 
		 "functional": "B3LYP", 
		 "basiset": "6-31G**", 
		 "properties": { 
			 "R2extent": 4542.7219, 
			 "electric_dipole_moment_norm": 7.05509551034, 
			 "electric_quadrupole_moment_norm": 18.0672204152, 
			 "total_energy": -1017.75895117, 
			 "HOMO_LUMO_gap": 0.18305, 
			 "cosmo_polarized_energy": -14.25, 
			 "cosmo_cavitation_energy": 32.72, 
			 "cosmo_dispersion_energy": -22.82, 
			 "cosmo_repulsion_energy": 1.81, 
			 "cosmo_total_nonelectrostatic_energy": 11.72, 
			 "SMD_solvation_energy": 6.28 
		},
		"coords": [
			{
				"x": 0.9602644664,
				"y": 2.0129028888,
				"z": -1.7622538222,
				"element": "C" 
			},
			{
				"x": 0.7132620787,
				"y": 1.0193724379,
				"z": -0.6728946199,
				"element": "C" 
			},
			{
				"x": 1.4922815269,
				"y": 0.6663203615,
				"z": 0.3976321053,
				"element": "C" 
			},
			{
				"x": 0.7916179178,
				"y": -0.3366841409,
				"z": 1.1513764024,
				"element": "C" 
			},
			{
				"x": 1.2403652169,
				"y": -1.0077716384,
				"z": 2.3761177751,
				"element": "C" 
			},
			{
				"x": 0.5956865561,
				"y": -1.8545952197,
				"z": 2.9769774522,
				"element": "O" 
			},
			{
				"x": 2.6272884681,
				"y": -0.5608042091,
				"z": 2.8731904232,
				"element": "C" 
			},
			{
				"x": 3.1570670188,
				"y": -1.4028213272,
				"z": 4.3637178185,
				"element": "Cl" 
			},
			{
				"x": -0.4211772111,
				"y": -0.566839076,
				"z": 0.4949131304,
				"element": "C" 
			},
			{
				"x": -1.538570758,
				"y": -1.5036872715,
				"z": 0.8237885509,
				"element": "C" 
			},
			{
				"x": -0.4578834498,
				"y": 0.2629360873,
				"z": -0.6000857867,
				"element": "N" 
			},
			{
				"x": -1.5251315119,
				"y": 0.2922618379,
				"z": -1.5893030848,
				"element": "C" 
			},
			{
				"x": -1.3373843058,
				"y": -0.6558995497,
				"z": -2.7513116775,
				"element": "C" 
			},
			{
				"x": -0.3144326859,
				"y": -1.4926505459,
				"z": -2.9172631949,
				"element": "C" 
			},
			{
				"x": 0.2457807144,
				"y": 2.846207393,
				"z": -1.7406847297,
				"element": "H" 
			},
			{
				"x": 1.9595609703,
				"y": 2.4380715452,
				"z": -1.6439927857,
				"element": "H" 
			},
			{
				"x": 0.905447666,
				"y": 1.5573091042,
				"z": -2.7579870294,
				"element": "H" 
			},
			{
				"x": 2.46196152,
				"y": 1.0906178892,
				"z": 0.6175804958,
				"element": "H" 
			},
			{
				"x": 3.3778089291,
				"y": -0.7491035852,
				"z": 2.1016085526,
				"element": "H" 
			},
			{
				"x": 2.6182007815,
				"y": 0.5114782803,
				"z": 3.0837695939,
				"element": "H" 
			},
			{
				"x": -2.4601114571,
				"y": -0.9625130077,
				"z": 1.0761099755,
				"element": "H" 
			},
			{
				"x": -1.7653897685,
				"y": -2.1697617502,
				"z": -0.016842546,
				"element": "H" 
			},
			{
				"x": -1.2501364723,
				"y": -2.1019830297,
				"z": 1.6866429973,
				"element": "H" 
			},
			{
				"x": -2.4714744171,
				"y": 0.0709263818,
				"z": -1.0834873569,
				"element": "H" 
			},
			{
				"x": -1.6205984681,
				"y": 1.3180701496,
				"z": -1.9636585384,
				"element": "H" 
			},
			{
				"x": -2.1361716748,
				"y": -0.6168098597,
				"z": -3.4916873361,
				"element": "H" 
			},
			{
				"x": -0.2582400618,
				"y": -2.1444324765,
				"z": -3.7831859729,
				"element": "H" 
			},
			{
				"x": 0.4960084111,
				"y": -1.5562176692,
				"z": -2.1970867921,
				"element": "H" 
			}
		],
		 "valence_orbital": [ 
			{
				"type": "occ",
				"energy": -0.28523,
				"method": "rhf"
			},
			{
				"type": "occ",
				"energy": -0.27728,
				"method": "rhf"
			},
			{
				"type": "occ",
				"energy": -0.24896,
				"method": "rhf"
			},
			{
				"type": "occ",
				"energy": -0.24215,
				"method": "rhf"
			},
			{
				"type": "occ",
				"energy": -0.21196,
				"method": "rhf"
			},
			{
				"type": "unocc",
				"energy": -0.02891,
				"method": "rhf"
			},
			{
				"type": "unocc",
				"energy": 0.00138,
				"method": "rhf"
			},
			{
				"type": "unocc",
				"energy": 0.02907,
				"method": "rhf"
			},
			{
				"type": "unocc",
				"energy": 0.04045,
				"method": "rhf"
			},
			{
				"type": "unocc",
				"energy": 0.07639,
				"method": "rhf"
			}
		],
		"cosmo_sigma_profile": { 
			"-0.025": 0.0,
			"-0.024": 0.0,
			"-0.023": 0.0,
			"-0.022": 0.0,
			"-0.021": 0.0,
			"-0.02": 0.0,
			"-0.019": 0.0,
			"-0.018": 0.0,
			"-0.017": 0.0,
			"-0.016": 0.0,
			"-0.015": 0.0,
			"-0.014": 0.0,
			"-0.013": 0.0,
			"-0.012": 0.0,
			"-0.011": 0.0,
			"-0.01": 0.0,
			"-0.009": 0.536105147391,
			"-0.008": 3.63780672836,
			"-0.007": 8.69945414217,
			"-0.006": 16.5946208636,
			"-0.005": 20.3002131577,
			"-0.004": 20.998294987,
			"-0.003": 19.2962034576,
			"-0.002": 18.534644773,
			"-0.001": 23.1742260804,
			"0.0": 25.8726486088,
			"0.001": 16.107839022,
			"0.002": 13.2394886192,
			"0.003": 13.8385864378,
			"0.004": 12.5410395656,
			"0.005": 12.2544939038,
			"0.006": 12.9583971712,
			"0.007": 6.04466934649,
			"0.008": 1.92336183695,
			"0.009": 2.10192739971,
			"0.01": 2.31892964712,
			"0.011": 2.64642620459,
			"0.012": 3.11382810476,
			"0.013": 2.58910695122,
			"0.014": 1.55139133967,
			"0.015": 0.165813229972,
			"0.016": 0.0,
			"0.017": 0.0,
			"0.018": 0.0,
			"0.019": 0.0,
			"0.02": 0.0,
			"0.021": 0.0,
			"0.022": 0.0,
			"0.023": 0.0,
			"0.024": 0.0,
			"0.025": 0.0
		}
	}
}
