{
	 "smiles": "CC1=C2C(=NO1)C(=NN=C2C1=CC=CC=C1)C1=CC=C(C)C=C1", 
	 "Tm": 479.15, 
	 "num_atms": 38, 
	 "gaussian": { 
		 "optdone": 1, 
		 "sigma_profile": "yes", 
		 "theory": "DFT", 
		 "functional": "B3LYP", 
		 "basiset": "6-31G**", 
		 "properties": { 
			 "R2extent": 9596.1063, 
			 "electric_dipole_moment_norm": 3.39039491947, 
			 "electric_quadrupole_moment_norm": 25.1636664797, 
			 "total_energy": -972.468351378, 
			 "HOMO_LUMO_gap": 0.12976, 
			 "cosmo_polarized_energy": -14.83, 
			 "cosmo_cavitation_energy": 41.9, 
			 "cosmo_dispersion_energy": -30.55, 
			 "cosmo_repulsion_energy": 2.27, 
			 "cosmo_total_nonelectrostatic_energy": 13.63, 
			 "SMD_solvation_energy": 5.44 
		},
		"coords": [
			{
				"x": -0.5405658748,
				"y": 1.6519013482,
				"z": 3.5882063155,
				"element": "C" 
			},
			{
				"x": -0.8022983006,
				"y": 1.3892731835,
				"z": 2.1453960827,
				"element": "C" 
			},
			{
				"x": -0.2411216151,
				"y": 0.5988905806,
				"z": 1.1553271135,
				"element": "C" 
			},
			{
				"x": -0.9885008431,
				"y": 0.9417968083,
				"z": -0.0190066936,
				"element": "C" 
			},
			{
				"x": -1.9357809813,
				"y": 1.8314858649,
				"z": 0.2355240007,
				"element": "N" 
			},
			{
				"x": -1.801100113,
				"y": 2.0973699887,
				"z": 1.5991764369,
				"element": "O" 
			},
			{
				"x": -0.5836089214,
				"y": 0.3644668415,
				"z": -1.28419089,
				"element": "C" 
			},
			{
				"x": 0.4810148753,
				"y": -0.4172160834,
				"z": -1.3012457917,
				"element": "N" 
			},
			{
				"x": 1.1703665073,
				"y": -0.7746294754,
				"z": -0.1842978604,
				"element": "N" 
			},
			{
				"x": 0.8415083346,
				"y": -0.3311497274,
				"z": 1.0149029835,
				"element": "C" 
			},
			{
				"x": 1.6465517016,
				"y": -0.8542073306,
				"z": 2.1439908124,
				"element": "C" 
			},
			{
				"x": 3.0266926919,
				"y": -1.0556955752,
				"z": 1.9759547396,
				"element": "C" 
			},
			{
				"x": 3.7943210853,
				"y": -1.5769483088,
				"z": 3.014244521,
				"element": "C" 
			},
			{
				"x": 3.1959001234,
				"y": -1.919559092,
				"z": 4.2300768268,
				"element": "C" 
			},
			{
				"x": 1.8214856474,
				"y": -1.7447016293,
				"z": 4.3989692086,
				"element": "C" 
			},
			{
				"x": 1.051453736,
				"y": -1.2146671533,
				"z": 3.3633880018,
				"element": "C" 
			},
			{
				"x": -1.2620042029,
				"y": 0.6100018551,
				"z": -2.5744203774,
				"element": "C" 
			},
			{
				"x": -2.4070118269,
				"y": 1.4160042437,
				"z": -2.6841534177,
				"element": "C" 
			},
			{
				"x": -3.0147936527,
				"y": 1.6160935475,
				"z": -3.9235944072,
				"element": "C" 
			},
			{
				"x": -2.5113726606,
				"y": 1.0271479351,
				"z": -5.0876588205,
				"element": "C" 
			},
			{
				"x": -3.1712169251,
				"y": 1.2409541447,
				"z": -6.4280011136,
				"element": "C" 
			},
			{
				"x": -1.3656951737,
				"y": 0.2211070753,
				"z": -4.9720194376,
				"element": "C" 
			},
			{
				"x": -0.7520559754,
				"y": 0.0132117368,
				"z": -3.7458250128,
				"element": "C" 
			},
			{
				"x": -0.7659634644,
				"y": 2.6968268377,
				"z": 3.8158302927,
				"element": "H" 
			},
			{
				"x": -1.1733508819,
				"y": 1.0263132849,
				"z": 4.2284441685,
				"element": "H" 
			},
			{
				"x": 0.5002497676,
				"y": 1.4417838579,
				"z": 3.8358813682,
				"element": "H" 
			},
			{
				"x": 3.4770192911,
				"y": -0.8007740829,
				"z": 1.0230638213,
				"element": "H" 
			},
			{
				"x": 4.8622068626,
				"y": -1.7183033449,
				"z": 2.8751920845,
				"element": "H" 
			},
			{
				"x": 3.7963280141,
				"y": -2.32818054,
				"z": 5.0376714833,
				"element": "H" 
			},
			{
				"x": 1.3455125909,
				"y": -2.0312241742,
				"z": 5.3323341236,
				"element": "H" 
			},
			{
				"x": -0.0226065296,
				"y": -1.1179158999,
				"z": 3.4873097267,
				"element": "H" 
			},
			{
				"x": -2.823423884,
				"y": 1.8908549773,
				"z": -1.8043433473,
				"element": "H" 
			},
			{
				"x": -3.8996759005,
				"y": 2.2447829867,
				"z": -3.9830376711,
				"element": "H" 
			},
			{
				"x": -4.0264694507,
				"y": 1.9176757703,
				"z": -6.3507243651,
				"element": "H" 
			},
			{
				"x": -3.5296881513,
				"y": 0.2943837665,
				"z": -6.8496557246,
				"element": "H" 
			},
			{
				"x": -2.4688746554,
				"y": 1.6675058703,
				"z": -7.1535383909,
				"element": "H" 
			},
			{
				"x": -0.9521235003,
				"y": -0.2498058849,
				"z": -5.8608696682,
				"element": "H" 
			},
			{
				"x": 0.1298922556,
				"y": -0.6111542037,
				"z": -3.6655011221,
				"element": "H" 
			}
		],
		 "valence_orbital": [ 
			{
				"type": "occ",
				"energy": -0.26059,
				"method": "rhf"
			},
			{
				"type": "occ",
				"energy": -0.25567,
				"method": "rhf"
			},
			{
				"type": "occ",
				"energy": -0.24502,
				"method": "rhf"
			},
			{
				"type": "occ",
				"energy": -0.22982,
				"method": "rhf"
			},
			{
				"type": "occ",
				"energy": -0.2164,
				"method": "rhf"
			},
			{
				"type": "unocc",
				"energy": -0.08664,
				"method": "rhf"
			},
			{
				"type": "unocc",
				"energy": -0.0257,
				"method": "rhf"
			},
			{
				"type": "unocc",
				"energy": -0.0188,
				"method": "rhf"
			},
			{
				"type": "unocc",
				"energy": -0.01048,
				"method": "rhf"
			},
			{
				"type": "unocc",
				"energy": 0.00175,
				"method": "rhf"
			}
		],
		"cosmo_sigma_profile": { 
			"-0.025": 0.0,
			"-0.024": 0.0,
			"-0.023": 0.0,
			"-0.022": 0.0,
			"-0.021": 0.0,
			"-0.02": 0.0,
			"-0.019": 0.0,
			"-0.018": 0.0,
			"-0.017": 0.0,
			"-0.016": 0.0,
			"-0.015": 0.0,
			"-0.014": 0.0,
			"-0.013": 0.0,
			"-0.012": 0.0,
			"-0.011": 0.0,
			"-0.01": 0.0,
			"-0.009": 0.000339580153261,
			"-0.008": 1.80929942028,
			"-0.007": 7.34397916534,
			"-0.006": 14.7986593307,
			"-0.005": 24.0340415845,
			"-0.004": 35.2316645718,
			"-0.003": 35.5769153378,
			"-0.002": 30.9625526596,
			"-0.001": 24.6292185627,
			"0.0": 23.9884641251,
			"0.001": 20.4111485559,
			"0.002": 19.7176876869,
			"0.003": 22.6969428299,
			"0.004": 24.3122472271,
			"0.005": 19.9088166663,
			"0.006": 7.21183732371,
			"0.007": 5.38987984318,
			"0.008": 3.65036799084,
			"0.009": 3.32855631966,
			"0.01": 2.99058213265,
			"0.011": 2.22171941777,
			"0.012": 1.48057169588,
			"0.013": 1.54374563294,
			"0.014": 2.18260456023,
			"0.015": 1.10819079853,
			"0.016": 0.313953464475,
			"0.017": 0.0,
			"0.018": 0.0,
			"0.019": 0.0,
			"0.02": 0.0,
			"0.021": 0.0,
			"0.022": 0.0,
			"0.023": 0.0,
			"0.024": 0.0,
			"0.025": 0.0
		}
	}
}
