{
	 "smiles": "ClC1=CC=C(C=C1)C1=NOC(CBr)=C1", 
	 "Tm": 390.15, 
	 "num_atms": 21, 
	 "gaussian": { 
		 "optdone": 1, 
		 "sigma_profile": "yes", 
		 "theory": "DFT", 
		 "functional": "B3LYP", 
		 "basiset": "6-31G**", 
		 "properties": { 
			 "R2extent": 7626.5528, 
			 "electric_dipole_moment_norm": 2.99792155001, 
			 "electric_quadrupole_moment_norm": 11.7757227808, 
			 "total_energy": -3546.80951637, 
			 "HOMO_LUMO_gap": 0.18164, 
			 "cosmo_polarized_energy": -11.08, 
			 "cosmo_cavitation_energy": 30.5, 
			 "cosmo_dispersion_energy": -22.89, 
			 "cosmo_repulsion_energy": 1.81, 
			 "cosmo_total_nonelectrostatic_energy": 9.42, 
			 "SMD_solvation_energy": 3.63 
		},
		"coords": [
			{
				"x": 2.3150285791,
				"y": 1.003762195,
				"z": 5.5872672786,
				"element": "Cl" 
			},
			{
				"x": 1.830208301,
				"y": 0.5091617611,
				"z": 3.9742218353,
				"element": "C" 
			},
			{
				"x": 0.7811430441,
				"y": -0.3992370234,
				"z": 3.8195024151,
				"element": "C" 
			},
			{
				"x": 0.4010360834,
				"y": -0.7887905111,
				"z": 2.5397506771,
				"element": "C" 
			},
			{
				"x": 1.0584894791,
				"y": -0.2798986806,
				"z": 1.4070473016,
				"element": "C" 
			},
			{
				"x": 2.1078182321,
				"y": 0.6315163027,
				"z": 1.5899864027,
				"element": "C" 
			},
			{
				"x": 2.4983045245,
				"y": 1.0294055579,
				"z": 2.8672089646,
				"element": "C" 
			},
			{
				"x": 0.6467970144,
				"y": -0.6999855089,
				"z": 0.0567631072,
				"element": "C" 
			},
			{
				"x": -0.3629979042,
				"y": -1.5389412031,
				"z": -0.1036623485,
				"element": "N" 
			},
			{
				"x": -0.4915774423,
				"y": -1.7326405047,
				"z": -1.4712289109,
				"element": "O" 
			},
			{
				"x": 0.4462624339,
				"y": -1.0032500105,
				"z": -2.1153198715,
				"element": "C" 
			},
			{
				"x": 0.470115225,
				"y": -1.0895284183,
				"z": -3.588642665,
				"element": "C" 
			},
			{
				"x": -0.8139597643,
				"y": 0.1797426403,
				"z": -4.4418213703,
				"element": "Br" 
			},
			{
				"x": 1.2020396057,
				"y": -0.32641227,
				"z": -1.2061691658,
				"element": "C" 
			},
			{
				"x": 0.2715780342,
				"y": -0.7940792332,
				"z": 4.6913253918,
				"element": "H" 
			},
			{
				"x": -0.4121966161,
				"y": -1.4937887095,
				"z": 2.4068596395,
				"element": "H" 
			},
			{
				"x": 2.6309969473,
				"y": 1.0429463045,
				"z": 0.7327039518,
				"element": "H" 
			},
			{
				"x": 3.3101766054,
				"y": 1.7350090925,
				"z": 3.0028072304,
				"element": "H" 
			},
			{
				"x": 1.4460757162,
				"y": -0.8234886014,
				"z": -3.9873924865,
				"element": "H" 
			},
			{
				"x": 0.1672842796,
				"y": -2.0747178915,
				"z": -3.9378014418,
				"element": "H" 
			},
			{
				"x": 2.0256776218,
				"y": 0.3393147122,
				"z": -1.4106059354,
				"element": "H" 
			}
		],
		 "valence_orbital": [ 
			{
				"type": "occ",
				"energy": -0.29103,
				"method": "rhf"
			},
			{
				"type": "occ",
				"energy": -0.28472,
				"method": "rhf"
			},
			{
				"type": "occ",
				"energy": -0.27531,
				"method": "rhf"
			},
			{
				"type": "occ",
				"energy": -0.27042,
				"method": "rhf"
			},
			{
				"type": "occ",
				"energy": -0.24368,
				"method": "rhf"
			},
			{
				"type": "unocc",
				"energy": -0.06204,
				"method": "rhf"
			},
			{
				"type": "unocc",
				"energy": -0.0416,
				"method": "rhf"
			},
			{
				"type": "unocc",
				"energy": -0.02187,
				"method": "rhf"
			},
			{
				"type": "unocc",
				"energy": 0.02349,
				"method": "rhf"
			},
			{
				"type": "unocc",
				"energy": 0.02629,
				"method": "rhf"
			}
		],
		"cosmo_sigma_profile": { 
			"-0.025": 0.0,
			"-0.024": 0.0,
			"-0.023": 0.0,
			"-0.022": 0.0,
			"-0.021": 0.0,
			"-0.02": 0.0,
			"-0.019": 0.0,
			"-0.018": 0.0,
			"-0.017": 0.0,
			"-0.016": 0.0,
			"-0.015": 0.0,
			"-0.014": 0.0,
			"-0.013": 0.0,
			"-0.012": 0.0,
			"-0.011": 0.0889547605569,
			"-0.01": 2.66397343254,
			"-0.009": 7.83365226194,
			"-0.008": 8.65258431879,
			"-0.007": 10.3533227233,
			"-0.006": 13.505133178,
			"-0.005": 10.5356936573,
			"-0.004": 7.75326901516,
			"-0.003": 10.8046190562,
			"-0.002": 11.3403661139,
			"-0.001": 13.2910488263,
			"0.0": 21.3124059349,
			"0.001": 26.546561319,
			"0.002": 26.3478048762,
			"0.003": 24.9738774911,
			"0.004": 17.3664261438,
			"0.005": 17.4217086425,
			"0.006": 7.66899105732,
			"0.007": 4.95632465226,
			"0.008": 3.01840886736,
			"0.009": 1.05426258981,
			"0.01": 0.904420302353,
			"0.011": 1.57986162231,
			"0.012": 1.17591525328,
			"0.013": 0.199535403765,
			"0.014": 0.0,
			"0.015": 0.0,
			"0.016": 0.0,
			"0.017": 0.0,
			"0.018": 0.0,
			"0.019": 0.0,
			"0.02": 0.0,
			"0.021": 0.0,
			"0.022": 0.0,
			"0.023": 0.0,
			"0.024": 0.0,
			"0.025": 0.0
		}
	}
}
