{
	 "smiles": "CC1=C(N=NN1C1=C(F)C=C(Cl)C=C1)C(O)=O", 
	 "Tm": 438.15, 
	 "num_atms": 24, 
	 "gaussian": { 
		 "optdone": 1, 
		 "sigma_profile": "yes", 
		 "theory": "DFT", 
		 "functional": "B3LYP", 
		 "basiset": "6-31G**", 
		 "properties": { 
			 "R2extent": 6588.052, 
			 "electric_dipole_moment_norm": 6.41405466222, 
			 "electric_quadrupole_moment_norm": 21.8827335998, 
			 "total_energy": -1259.98229538, 
			 "HOMO_LUMO_gap": 0.20768, 
			 "cosmo_polarized_energy": -20.19, 
			 "cosmo_cavitation_energy": 32.39, 
			 "cosmo_dispersion_energy": -22.9, 
			 "cosmo_repulsion_energy": 1.76, 
			 "cosmo_total_nonelectrostatic_energy": 11.25, 
			 "SMD_solvation_energy": 5.78 
		},
		"coords": [
			{
				"x": 1.098035408,
				"y": -0.8312665673,
				"z": 0.0573791562,
				"element": "C" 
			},
			{
				"x": -0.3250861466,
				"y": -1.2021270118,
				"z": 0.3164795222,
				"element": "C" 
			},
			{
				"x": -1.0179383174,
				"y": -2.4067133662,
				"z": 0.2736682983,
				"element": "C" 
			},
			{
				"x": -2.324645266,
				"y": -2.1845632597,
				"z": 0.6261685934,
				"element": "N" 
			},
			{
				"x": -2.4975934329,
				"y": -0.9360105723,
				"z": 0.8819454051,
				"element": "N" 
			},
			{
				"x": -1.281586421,
				"y": -0.3087376248,
				"z": 0.6950505517,
				"element": "N" 
			},
			{
				"x": -1.1704123867,
				"y": 1.091210804,
				"z": 0.9095870012,
				"element": "C" 
			},
			{
				"x": -1.3889497442,
				"y": 1.6174339846,
				"z": 2.1873881013,
				"element": "C" 
			},
			{
				"x": -1.6615774564,
				"y": 0.789998768,
				"z": 3.2013378606,
				"element": "F" 
			},
			{
				"x": -1.3146218767,
				"y": 2.982859645,
				"z": 2.4332755704,
				"element": "C" 
			},
			{
				"x": -1.0061474734,
				"y": 3.8322665625,
				"z": 1.3713725866,
				"element": "C" 
			},
			{
				"x": -0.902494438,
				"y": 5.554631961,
				"z": 1.6638543727,
				"element": "Cl" 
			},
			{
				"x": -0.779648348,
				"y": 3.3384841239,
				"z": 0.0852304771,
				"element": "C" 
			},
			{
				"x": -0.8724270881,
				"y": 1.9664705884,
				"z": -0.1374605975,
				"element": "C" 
			},
			{
				"x": -0.5594666714,
				"y": -3.7637913433,
				"z": -0.0669518302,
				"element": "C" 
			},
			{
				"x": 0.7586674953,
				"y": -3.7837414805,
				"z": -0.4197513661,
				"element": "O" 
			},
			{
				"x": -1.2399304426,
				"y": -4.7638181634,
				"z": -0.0502388302,
				"element": "O" 
			},
			{
				"x": 1.2442466018,
				"y": -0.5266929865,
				"z": -0.9853598011,
				"element": "H" 
			},
			{
				"x": 1.7420895152,
				"y": -1.6907029325,
				"z": 0.2390068115,
				"element": "H" 
			},
			{
				"x": 1.408882643,
				"y": 0.0002083604,
				"z": 0.6954256947,
				"element": "H" 
			},
			{
				"x": -1.4892995287,
				"y": 3.3583138871,
				"z": 3.4340017701,
				"element": "H" 
			},
			{
				"x": -0.5490310198,
				"y": 4.0169985765,
				"z": -0.7272161007,
				"element": "H" 
			},
			{
				"x": -0.725453736,
				"y": 1.5644051436,
				"z": -1.1342953273,
				"element": "H" 
			},
			{
				"x": 0.9582881303,
				"y": -4.7145170965,
				"z": -0.6146979202,
				"element": "H" 
			}
		],
		 "valence_orbital": [ 
			{
				"type": "occ",
				"energy": -0.28847,
				"method": "rhf"
			},
			{
				"type": "occ",
				"energy": -0.28314,
				"method": "rhf"
			},
			{
				"type": "occ",
				"energy": -0.27695,
				"method": "rhf"
			},
			{
				"type": "occ",
				"energy": -0.27097,
				"method": "rhf"
			},
			{
				"type": "occ",
				"energy": -0.26324,
				"method": "rhf"
			},
			{
				"type": "unocc",
				"energy": -0.05556,
				"method": "rhf"
			},
			{
				"type": "unocc",
				"energy": -0.03952,
				"method": "rhf"
			},
			{
				"type": "unocc",
				"energy": -0.02902,
				"method": "rhf"
			},
			{
				"type": "unocc",
				"energy": -0.01119,
				"method": "rhf"
			},
			{
				"type": "unocc",
				"energy": 0.00418,
				"method": "rhf"
			}
		],
		"cosmo_sigma_profile": { 
			"-0.025": 0.0,
			"-0.024": 0.0,
			"-0.023": 0.0,
			"-0.022": 0.0,
			"-0.021": 0.0,
			"-0.02": 0.0,
			"-0.019": 0.141663866424,
			"-0.018": 1.1699143642,
			"-0.017": 0.645613269273,
			"-0.016": 0.55774199739,
			"-0.015": 1.01374515491,
			"-0.014": 0.901107527265,
			"-0.013": 0.256296649541,
			"-0.012": 0.45755080887,
			"-0.011": 0.946740409253,
			"-0.01": 1.05331436176,
			"-0.009": 4.67338686675,
			"-0.008": 7.60914562181,
			"-0.007": 10.4689619965,
			"-0.006": 11.8574888232,
			"-0.005": 10.5522910457,
			"-0.004": 12.4681982254,
			"-0.003": 20.6100103491,
			"-0.002": 23.9439606527,
			"-0.001": 21.271264375,
			"0.0": 22.6922317773,
			"0.001": 16.8498083913,
			"0.002": 14.0447823987,
			"0.003": 20.3118882011,
			"0.004": 13.4724440525,
			"0.005": 5.27638122812,
			"0.006": 4.04089084315,
			"0.007": 3.42151936001,
			"0.008": 3.58231795069,
			"0.009": 5.8724328556,
			"0.01": 4.70930555854,
			"0.011": 7.44893870305,
			"0.012": 5.44579208699,
			"0.013": 2.51066571671,
			"0.014": 2.26955893414,
			"0.015": 0.430537836059,
			"0.016": 0.0,
			"0.017": 0.0,
			"0.018": 0.0,
			"0.019": 0.0,
			"0.02": 0.0,
			"0.021": 0.0,
			"0.022": 0.0,
			"0.023": 0.0,
			"0.024": 0.0,
			"0.025": 0.0
		}
	}
}
