{
	 "smiles": "CC=CC(=O)C1=CC=CC=C1", 
	 "Tm": 293.65, 
	 "num_atms": 21, 
	 "gaussian": { 
		 "optdone": 1, 
		 "sigma_profile": "yes", 
		 "theory": "DFT", 
		 "functional": "B3LYP", 
		 "basiset": "6-31G**", 
		 "properties": { 
			 "R2extent": 2316.2294, 
			 "electric_dipole_moment_norm": 3.56968188078, 
			 "electric_quadrupole_moment_norm": 13.7358247146, 
			 "total_energy": -462.298713222, 
			 "HOMO_LUMO_gap": 0.18268, 
			 "cosmo_polarized_energy": -8.94, 
			 "cosmo_cavitation_energy": 25.16, 
			 "cosmo_dispersion_energy": -18.18, 
			 "cosmo_repulsion_energy": 1.48, 
			 "cosmo_total_nonelectrostatic_energy": 8.46, 
			 "SMD_solvation_energy": 5.18 
		},
		"coords": [
			{
				"x": -2.7774055117,
				"y": 1.2521771372,
				"z": 1.0853055646,
				"element": "C" 
			},
			{
				"x": -1.6512482026,
				"y": 0.6575766929,
				"z": 0.2958049042,
				"element": "C" 
			},
			{
				"x": -1.7866679718,
				"y": 0.0685469313,
				"z": -0.9023200368,
				"element": "C" 
			},
			{
				"x": -0.6830041506,
				"y": -0.413061725,
				"z": -1.7739032497,
				"element": "C" 
			},
			{
				"x": -0.85545426,
				"y": -0.4322820023,
				"z": -2.9892927638,
				"element": "O" 
			},
			{
				"x": 0.6332221107,
				"y": -0.8507622484,
				"z": -1.1969655214,
				"element": "C" 
			},
			{
				"x": 0.7581789486,
				"y": -1.4393729335,
				"z": 0.0707835269,
				"element": "C" 
			},
			{
				"x": 2.0031919883,
				"y": -1.8778757515,
				"z": 0.5247013399,
				"element": "C" 
			},
			{
				"x": 3.1346993289,
				"y": -1.7241216447,
				"z": -0.2776274349,
				"element": "C" 
			},
			{
				"x": 3.0169672925,
				"y": -1.147766939,
				"z": -1.54641635,
				"element": "C" 
			},
			{
				"x": 1.7731725677,
				"y": -0.7266323438,
				"z": -2.0072304681,
				"element": "C" 
			},
			{
				"x": -2.8412424985,
				"y": 0.793872245,
				"z": 2.0803878622,
				"element": "H" 
			},
			{
				"x": -3.7397296927,
				"y": 1.1228848457,
				"z": 0.5827564982,
				"element": "H" 
			},
			{
				"x": -2.6140263596,
				"y": 2.3249282443,
				"z": 1.2486257947,
				"element": "H" 
			},
			{
				"x": -0.6587699524,
				"y": 0.7450496279,
				"z": 0.7347319703,
				"element": "H" 
			},
			{
				"x": -2.7624768395,
				"y": 0.0283809283,
				"z": -1.3834730408,
				"element": "H" 
			},
			{
				"x": -0.1219194907,
				"y": -1.5819600845,
				"z": 0.6885551388,
				"element": "H" 
			},
			{
				"x": 2.0877182652,
				"y": -2.3439783326,
				"z": 1.5022080004,
				"element": "H" 
			},
			{
				"x": 4.1042511376,
				"y": -2.0593630078,
				"z": 0.079867469,
				"element": "H" 
			},
			{
				"x": 3.8950471542,
				"y": -1.0346095944,
				"z": -2.1757664698,
				"element": "H" 
			},
			{
				"x": 1.6564961364,
				"y": -0.2978300452,
				"z": -2.997032734,
				"element": "H" 
			}
		],
		 "valence_orbital": [ 
			{
				"type": "occ",
				"energy": -0.34409,
				"method": "rhf"
			},
			{
				"type": "occ",
				"energy": -0.26822,
				"method": "rhf"
			},
			{
				"type": "occ",
				"energy": -0.25793,
				"method": "rhf"
			},
			{
				"type": "occ",
				"energy": -0.25717,
				"method": "rhf"
			},
			{
				"type": "occ",
				"energy": -0.24044,
				"method": "rhf"
			},
			{
				"type": "unocc",
				"energy": -0.05776,
				"method": "rhf"
			},
			{
				"type": "unocc",
				"energy": -0.0099,
				"method": "rhf"
			},
			{
				"type": "unocc",
				"energy": -0.00327,
				"method": "rhf"
			},
			{
				"type": "unocc",
				"energy": 0.07686,
				"method": "rhf"
			},
			{
				"type": "unocc",
				"energy": 0.09207,
				"method": "rhf"
			}
		],
		"cosmo_sigma_profile": { 
			"-0.025": 0.0,
			"-0.024": 0.0,
			"-0.023": 0.0,
			"-0.022": 0.0,
			"-0.021": 0.0,
			"-0.02": 0.0,
			"-0.019": 0.0,
			"-0.018": 0.0,
			"-0.017": 0.0,
			"-0.016": 0.0,
			"-0.015": 0.0,
			"-0.014": 0.0,
			"-0.013": 0.0,
			"-0.012": 0.0,
			"-0.011": 0.0,
			"-0.01": 0.0,
			"-0.009": 0.0,
			"-0.008": 0.0,
			"-0.007": 0.541706836991,
			"-0.006": 8.53276377601,
			"-0.005": 19.1198529941,
			"-0.004": 23.3654516051,
			"-0.003": 19.7871203704,
			"-0.002": 16.8552109606,
			"-0.001": 21.7407930884,
			"0.0": 14.850208406,
			"0.001": 11.9845284684,
			"0.002": 12.1958078154,
			"0.003": 11.9564190777,
			"0.004": 14.2289702898,
			"0.005": 6.12020984908,
			"0.006": 1.90623718116,
			"0.007": 1.99041090609,
			"0.008": 1.95548218145,
			"0.009": 1.51322388483,
			"0.01": 1.66176952017,
			"0.011": 2.03425398719,
			"0.012": 4.17696418406,
			"0.013": 3.52349959898,
			"0.014": 0.701631544237,
			"0.015": 0.0,
			"0.016": 0.0,
			"0.017": 0.0,
			"0.018": 0.0,
			"0.019": 0.0,
			"0.02": 0.0,
			"0.021": 0.0,
			"0.022": 0.0,
			"0.023": 0.0,
			"0.024": 0.0,
			"0.025": 0.0
		}
	}
}
