{
	 "smiles": "COC(=O)C1=C(N)C=C(C)N1", 
	 "Tm": 402.15, 
	 "num_atms": 21, 
	 "gaussian": { 
		 "optdone": 1, 
		 "sigma_profile": "yes", 
		 "theory": "DFT", 
		 "functional": "B3LYP", 
		 "basiset": "6-31G**", 
		 "properties": { 
			 "R2extent": 2549.6534, 
			 "electric_dipole_moment_norm": 2.00778788222, 
			 "electric_quadrupole_moment_norm": 13.7000671206, 
			 "total_energy": -532.739325332, 
			 "HOMO_LUMO_gap": 0.17862, 
			 "cosmo_polarized_energy": -12.42, 
			 "cosmo_cavitation_energy": 25.02, 
			 "cosmo_dispersion_energy": -18.52, 
			 "cosmo_repulsion_energy": 1.52, 
			 "cosmo_total_nonelectrostatic_energy": 8.02, 
			 "SMD_solvation_energy": 5.75 
		},
		"coords": [
			{
				"x": 2.8090627776,
				"y": -1.5793994079,
				"z": -1.7997247799,
				"element": "C" 
			},
			{
				"x": 1.4238339831,
				"y": -1.4313629312,
				"z": -1.4622020973,
				"element": "O" 
			},
			{
				"x": 1.146230809,
				"y": -1.5086587185,
				"z": -0.1225451369,
				"element": "C" 
			},
			{
				"x": 2.0137269964,
				"y": -1.6846790568,
				"z": 0.7233385278,
				"element": "O" 
			},
			{
				"x": -0.2553683394,
				"y": -1.3526527352,
				"z": 0.1570747709,
				"element": "C" 
			},
			{
				"x": -1.3861341378,
				"y": -1.1309080249,
				"z": -0.641480923,
				"element": "C" 
			},
			{
				"x": -1.4250687028,
				"y": -1.1000991937,
				"z": -2.0263720409,
				"element": "N" 
			},
			{
				"x": -2.4947178987,
				"y": -1.0158147943,
				"z": 0.2404786868,
				"element": "C" 
			},
			{
				"x": -2.0286233439,
				"y": -1.1724854656,
				"z": 1.5409713878,
				"element": "C" 
			},
			{
				"x": -2.7770180533,
				"y": -1.1458302252,
				"z": 2.8353904359,
				"element": "C" 
			},
			{
				"x": -0.6872756439,
				"y": -1.37812139,
				"z": 1.4807315042,
				"element": "N" 
			},
			{
				"x": 3.1892488387,
				"y": -2.5473159618,
				"z": -1.4631767564,
				"element": "H" 
			},
			{
				"x": 3.4091325213,
				"y": -0.7896955871,
				"z": -1.3396453414,
				"element": "H" 
			},
			{
				"x": 2.857885375,
				"y": -1.5094378476,
				"z": -2.8869723668,
				"element": "H" 
			},
			{
				"x": -2.1472322164,
				"y": -0.5131420107,
				"z": -2.419393623,
				"element": "H" 
			},
			{
				"x": -0.5197186205,
				"y": -0.967861828,
				"z": -2.4573449639,
				"element": "H" 
			},
			{
				"x": -3.5258851182,
				"y": -0.8515810541,
				"z": -0.0414792305,
				"element": "H" 
			},
			{
				"x": -3.8375452479,
				"y": -0.9595550773,
				"z": 2.6527964571,
				"element": "H" 
			},
			{
				"x": -2.4081618909,
				"y": -0.3573733697,
				"z": 3.5026339974,
				"element": "H" 
			},
			{
				"x": -2.6920457311,
				"y": -2.0977738558,
				"z": 3.3733094519,
				"element": "H" 
			},
			{
				"x": -0.0476263564,
				"y": -1.5194514646,
				"z": 2.2475120402,
				"element": "H" 
			}
		],
		 "valence_orbital": [ 
			{
				"type": "occ",
				"energy": -0.31645,
				"method": "rhf"
			},
			{
				"type": "occ",
				"energy": -0.28716,
				"method": "rhf"
			},
			{
				"type": "occ",
				"energy": -0.26088,
				"method": "rhf"
			},
			{
				"type": "occ",
				"energy": -0.21835,
				"method": "rhf"
			},
			{
				"type": "occ",
				"energy": -0.18633,
				"method": "rhf"
			},
			{
				"type": "unocc",
				"energy": -0.00771,
				"method": "rhf"
			},
			{
				"type": "unocc",
				"energy": 0.06828,
				"method": "rhf"
			},
			{
				"type": "unocc",
				"energy": 0.09083,
				"method": "rhf"
			},
			{
				"type": "unocc",
				"energy": 0.09734,
				"method": "rhf"
			},
			{
				"type": "unocc",
				"energy": 0.11985,
				"method": "rhf"
			}
		],
		"cosmo_sigma_profile": { 
			"-0.025": 0.0,
			"-0.024": 0.0,
			"-0.023": 0.0,
			"-0.022": 0.0,
			"-0.021": 0.0,
			"-0.02": 0.0,
			"-0.019": 0.0,
			"-0.018": 0.0,
			"-0.017": 0.0,
			"-0.016": 0.0,
			"-0.015": 0.0402203775387,
			"-0.014": 0.683965016672,
			"-0.013": 1.00352422572,
			"-0.012": 1.96738878986,
			"-0.011": 2.53360593836,
			"-0.01": 2.33126234404,
			"-0.009": 2.24805026763,
			"-0.008": 3.07919210626,
			"-0.007": 3.6191639126,
			"-0.006": 6.34516730986,
			"-0.005": 15.3392769713,
			"-0.004": 18.2980543634,
			"-0.003": 17.7781968433,
			"-0.002": 15.1698913545,
			"-0.001": 14.5740185388,
			"0.0": 12.3742863516,
			"0.001": 9.74294455814,
			"0.002": 9.0948569774,
			"0.003": 9.63605831993,
			"0.004": 7.86326422962,
			"0.005": 9.52166083224,
			"0.006": 8.2563351317,
			"0.007": 5.85323942946,
			"0.008": 3.14456385839,
			"0.009": 2.21716597447,
			"0.01": 1.99636538537,
			"0.011": 2.36986613938,
			"0.012": 3.00039983995,
			"0.013": 5.24250945469,
			"0.014": 2.07657471307,
			"0.015": 0.178542187631,
			"0.016": 0.0,
			"0.017": 0.0,
			"0.018": 0.0,
			"0.019": 0.0,
			"0.02": 0.0,
			"0.021": 0.0,
			"0.022": 0.0,
			"0.023": 0.0,
			"0.024": 0.0,
			"0.025": 0.0
		}
	}
}
