{
	 "smiles": "CSC(SC)=CC(=O)C1=CN=CC=C1", 
	 "Tm": 377.15, 
	 "num_atms": 25, 
	 "gaussian": { 
		 "optdone": 1, 
		 "sigma_profile": "yes", 
		 "theory": "DFT", 
		 "functional": "B3LYP", 
		 "basiset": "6-31G**", 
		 "properties": { 
			 "R2extent": 5064.7127, 
			 "electric_dipole_moment_norm": 2.40998568668, 
			 "electric_quadrupole_moment_norm": 23.5662377876, 
			 "total_energy": -1314.01441923, 
			 "HOMO_LUMO_gap": 0.14932, 
			 "cosmo_polarized_energy": -12.98, 
			 "cosmo_cavitation_energy": 32.24, 
			 "cosmo_dispersion_energy": -24.07, 
			 "cosmo_repulsion_energy": 1.8, 
			 "cosmo_total_nonelectrostatic_energy": 9.96, 
			 "SMD_solvation_energy": 4.95 
		},
		"coords": [
			{
				"x": -4.2240445498,
				"y": 1.1634936764,
				"z": 1.7620670559,
				"element": "C" 
			},
			{
				"x": -3.3790451343,
				"y": 1.4655692221,
				"z": 0.1617894151,
				"element": "S" 
			},
			{
				"x": -1.968676891,
				"y": 0.3639950961,
				"z": 0.2994136494,
				"element": "C" 
			},
			{
				"x": -2.1704421634,
				"y": -1.3932530348,
				"z": 0.227214923,
				"element": "S" 
			},
			{
				"x": -3.8579643702,
				"y": -1.6082911429,
				"z": -0.4524541595,
				"element": "C" 
			},
			{
				"x": -0.7440376134,
				"y": 0.9485211925,
				"z": 0.4265483836,
				"element": "C" 
			},
			{
				"x": 0.5155794966,
				"y": 0.2033506404,
				"z": 0.4980712763,
				"element": "C" 
			},
			{
				"x": 0.5282974623,
				"y": -1.0214517358,
				"z": 0.6515853382,
				"element": "O" 
			},
			{
				"x": 1.8135460712,
				"y": 0.9504344636,
				"z": 0.4040948314,
				"element": "C" 
			},
			{
				"x": 1.9272356642,
				"y": 2.2870630873,
				"z": -0.0069080265,
				"element": "C" 
			},
			{
				"x": 3.0879066915,
				"y": 2.9459461182,
				"z": -0.1010032757,
				"element": "N" 
			},
			{
				"x": 4.201362037,
				"y": 2.2758552057,
				"z": 0.2196233691,
				"element": "C" 
			},
			{
				"x": 4.2099947265,
				"y": 0.9392597726,
				"z": 0.6289184828,
				"element": "C" 
			},
			{
				"x": 2.9974237622,
				"y": 0.2676149208,
				"z": 0.7181278067,
				"element": "C" 
			},
			{
				"x": -4.5156749327,
				"y": 0.1183609721,
				"z": 1.8765375911,
				"element": "H" 
			},
			{
				"x": -3.5830830325,
				"y": 1.4633389164,
				"z": 2.5927029614,
				"element": "H" 
			},
			{
				"x": -5.1201169646,
				"y": 1.7881853742,
				"z": 1.7502458002,
				"element": "H" 
			},
			{
				"x": -4.6445900725,
				"y": -1.3225879895,
				"z": 0.2467476328,
				"element": "H" 
			},
			{
				"x": -3.9297316939,
				"y": -2.6825207702,
				"z": -0.641791982,
				"element": "H" 
			},
			{
				"x": -3.9826110076,
				"y": -1.0687449531,
				"z": -1.3912962749,
				"element": "H" 
			},
			{
				"x": -0.7190937134,
				"y": 2.0287200077,
				"z": 0.5018207896,
				"element": "H" 
			},
			{
				"x": 1.046400533,
				"y": 2.8567400668,
				"z": -0.2941596595,
				"element": "H" 
			},
			{
				"x": 5.1332495826,
				"y": 2.8335916177,
				"z": 0.1426565698,
				"element": "H" 
			},
			{
				"x": 5.1465055985,
				"y": 0.4456253445,
				"z": 0.8690215471,
				"element": "H" 
			},
			{
				"x": 2.9324105136,
				"y": -0.7718160686,
				"z": 1.0227259549,
				"element": "H" 
			}
		],
		 "valence_orbital": [ 
			{
				"type": "occ",
				"energy": -0.26907,
				"method": "rhf"
			},
			{
				"type": "occ",
				"energy": -0.26403,
				"method": "rhf"
			},
			{
				"type": "occ",
				"energy": -0.25107,
				"method": "rhf"
			},
			{
				"type": "occ",
				"energy": -0.2411,
				"method": "rhf"
			},
			{
				"type": "occ",
				"energy": -0.22876,
				"method": "rhf"
			},
			{
				"type": "unocc",
				"energy": -0.07944,
				"method": "rhf"
			},
			{
				"type": "unocc",
				"energy": -0.02523,
				"method": "rhf"
			},
			{
				"type": "unocc",
				"energy": -0.01968,
				"method": "rhf"
			},
			{
				"type": "unocc",
				"energy": 0.01102,
				"method": "rhf"
			},
			{
				"type": "unocc",
				"energy": 0.05284,
				"method": "rhf"
			}
		],
		"cosmo_sigma_profile": { 
			"-0.025": 0.0,
			"-0.024": 0.0,
			"-0.023": 0.0,
			"-0.022": 0.0,
			"-0.021": 0.0,
			"-0.02": 0.0,
			"-0.019": 0.0,
			"-0.018": 0.0,
			"-0.017": 0.0,
			"-0.016": 0.0,
			"-0.015": 0.0,
			"-0.014": 0.0,
			"-0.013": 0.0,
			"-0.012": 0.0,
			"-0.011": 0.0,
			"-0.01": 0.00124307791834,
			"-0.009": 0.876052267541,
			"-0.008": 3.23422926874,
			"-0.007": 12.5285066728,
			"-0.006": 16.1510999645,
			"-0.005": 18.4618626987,
			"-0.004": 18.6597890686,
			"-0.003": 19.5884848989,
			"-0.002": 24.8977559298,
			"-0.001": 21.4168077642,
			"0.0": 20.4149580703,
			"0.001": 23.4724743571,
			"0.002": 16.4433401876,
			"0.003": 10.3094536883,
			"0.004": 9.66742763937,
			"0.005": 7.51919133481,
			"0.006": 7.20005087936,
			"0.007": 6.34561736343,
			"0.008": 4.5198431242,
			"0.009": 3.57611613496,
			"0.01": 3.13228651207,
			"0.011": 3.93373676823,
			"0.012": 5.28284332036,
			"0.013": 1.48178903391,
			"0.014": 0.738428144742,
			"0.015": 1.02614275336,
			"0.016": 0.637273101187,
			"0.017": 0.0,
			"0.018": 0.0,
			"0.019": 0.0,
			"0.02": 0.0,
			"0.021": 0.0,
			"0.022": 0.0,
			"0.023": 0.0,
			"0.024": 0.0,
			"0.025": 0.0
		}
	}
}
