{
	 "smiles": "OC(CN1C=NC=N1)C1=CC=C(Cl)C=C1", 
	 "Tm": 385.15, 
	 "num_atms": 25, 
	 "gaussian": { 
		 "optdone": 1, 
		 "sigma_profile": "yes", 
		 "theory": "DFT", 
		 "functional": "B3LYP", 
		 "basiset": "6-31G**", 
		 "properties": { 
			 "R2extent": 5021.5509, 
			 "electric_dipole_moment_norm": 3.50373340025, 
			 "electric_quadrupole_moment_norm": 11.3889277388, 
			 "total_energy": -1086.73677726, 
			 "HOMO_LUMO_gap": 0.22652, 
			 "cosmo_polarized_energy": -15.69, 
			 "cosmo_cavitation_energy": 31.17, 
			 "cosmo_dispersion_energy": -21.93, 
			 "cosmo_repulsion_energy": 1.72, 
			 "cosmo_total_nonelectrostatic_energy": 10.96, 
			 "SMD_solvation_energy": 2.86 
		},
		"coords": [
			{
				"x": 0.8710907306,
				"y": 1.878840335,
				"z": 0.9884593654,
				"element": "O" 
			},
			{
				"x": 0.2789301032,
				"y": 0.7279176566,
				"z": 0.3994918795,
				"element": "C" 
			},
			{
				"x": -0.5560875403,
				"y": 1.1891484164,
				"z": -0.8247779935,
				"element": "C" 
			},
			{
				"x": -1.3152047771,
				"y": 0.117603973,
				"z": -1.44086884,
				"element": "N" 
			},
			{
				"x": -1.1636277367,
				"y": -0.4762193294,
				"z": -2.6474883468,
				"element": "C" 
			},
			{
				"x": -2.0464718468,
				"y": -1.4488293973,
				"z": -2.8008493729,
				"element": "N" 
			},
			{
				"x": -2.7285793422,
				"y": -1.4130091836,
				"z": -1.6228938676,
				"element": "C" 
			},
			{
				"x": -2.327590158,
				"y": -0.4863381658,
				"z": -0.7617529634,
				"element": "N" 
			},
			{
				"x": 1.3783361513,
				"y": -0.2396528745,
				"z": 0.0130924948,
				"element": "C" 
			},
			{
				"x": 1.0949891299,
				"y": -1.6025237537,
				"z": -0.1389464608,
				"element": "C" 
			},
			{
				"x": 2.0861197731,
				"y": -2.5009589114,
				"z": -0.5339552891,
				"element": "C" 
			},
			{
				"x": 3.3749875514,
				"y": -2.0259000956,
				"z": -0.7713414133,
				"element": "C" 
			},
			{
				"x": 4.6345870276,
				"y": -3.1503167702,
				"z": -1.2633000417,
				"element": "Cl" 
			},
			{
				"x": 3.6832945891,
				"y": -0.6746626926,
				"z": -0.6184798685,
				"element": "C" 
			},
			{
				"x": 2.6807966643,
				"y": 0.2129456115,
				"z": -0.2284193931,
				"element": "C" 
			},
			{
				"x": 0.1723201543,
				"y": 2.4025379604,
				"z": 1.4002407912,
				"element": "H" 
			},
			{
				"x": -0.40683489,
				"y": 0.2303629227,
				"z": 1.0988629797,
				"element": "H" 
			},
			{
				"x": 0.1097703324,
				"y": 1.6163910312,
				"z": -1.5785183437,
				"element": "H" 
			},
			{
				"x": -1.2604731733,
				"y": 1.9643711596,
				"z": -0.5041337137,
				"element": "H" 
			},
			{
				"x": -0.413568524,
				"y": -0.1688164955,
				"z": -3.3630348713,
				"element": "H" 
			},
			{
				"x": -3.5460919233,
				"y": -2.0824593261,
				"z": -1.3922697317,
				"element": "H" 
			},
			{
				"x": 0.0916843848,
				"y": -1.9711302415,
				"z": 0.0560729203,
				"element": "H" 
			},
			{
				"x": 1.8632470477,
				"y": -3.5556317231,
				"z": -0.6503822588,
				"element": "H" 
			},
			{
				"x": 4.6937895763,
				"y": -0.3244031596,
				"z": -0.7983131208,
				"element": "H" 
			},
			{
				"x": 2.9126866957,
				"y": 1.2633330536,
				"z": -0.09219454,
				"element": "H" 
			}
		],
		 "valence_orbital": [ 
			{
				"type": "occ",
				"energy": -0.28752,
				"method": "rhf"
			},
			{
				"type": "occ",
				"energy": -0.2798,
				"method": "rhf"
			},
			{
				"type": "occ",
				"energy": -0.26939,
				"method": "rhf"
			},
			{
				"type": "occ",
				"energy": -0.26404,
				"method": "rhf"
			},
			{
				"type": "occ",
				"energy": -0.24502,
				"method": "rhf"
			},
			{
				"type": "unocc",
				"energy": -0.0185,
				"method": "rhf"
			},
			{
				"type": "unocc",
				"energy": -0.01634,
				"method": "rhf"
			},
			{
				"type": "unocc",
				"energy": -0.00037,
				"method": "rhf"
			},
			{
				"type": "unocc",
				"energy": 0.02995,
				"method": "rhf"
			},
			{
				"type": "unocc",
				"energy": 0.04824,
				"method": "rhf"
			}
		],
		"cosmo_sigma_profile": { 
			"-0.025": 0.0,
			"-0.024": 0.0,
			"-0.023": 0.0,
			"-0.022": 0.0,
			"-0.021": 0.0,
			"-0.02": 0.0,
			"-0.019": 0.0,
			"-0.018": 0.0,
			"-0.017": 0.340168443847,
			"-0.016": 1.31888680914,
			"-0.015": 1.15376495134,
			"-0.014": 1.44841076584,
			"-0.013": 0.799065302091,
			"-0.012": 1.00353904021,
			"-0.011": 1.86639057424,
			"-0.01": 4.05968782379,
			"-0.009": 3.61368905226,
			"-0.008": 7.38355581116,
			"-0.007": 8.71492595661,
			"-0.006": 11.3870895575,
			"-0.005": 14.311862112,
			"-0.004": 15.2235224405,
			"-0.003": 12.2268788285,
			"-0.002": 15.0441115695,
			"-0.001": 13.4024956818,
			"0.0": 15.2184444959,
			"0.001": 15.9751502387,
			"0.002": 19.977683868,
			"0.003": 21.6144344545,
			"0.004": 20.4099013192,
			"0.005": 12.5302248046,
			"0.006": 4.17834533077,
			"0.007": 4.3566975681,
			"0.008": 3.98577535314,
			"0.009": 3.97534053168,
			"0.01": 2.63860926924,
			"0.011": 3.5362058407,
			"0.012": 3.31629976155,
			"0.013": 1.73895950484,
			"0.014": 1.36718957728,
			"0.015": 1.56504595563,
			"0.016": 0.871967596711,
			"0.017": 0.459339703223,
			"0.018": 0.0,
			"0.019": 0.0,
			"0.02": 0.0,
			"0.021": 0.0,
			"0.022": 0.0,
			"0.023": 0.0,
			"0.024": 0.0,
			"0.025": 0.0
		}
	}
}
