{
	 "smiles": "NC1=C(CC2=NC(=NO2)C2=CSC=C2)C=CC=C1", 
	 "Tm": 392.15, 
	 "num_atms": 29, 
	 "gaussian": { 
		 "optdone": 1, 
		 "sigma_profile": "yes", 
		 "theory": "DFT", 
		 "functional": "B3LYP", 
		 "basiset": "6-31G**", 
		 "properties": { 
			 "R2extent": 7534.2468, 
			 "electric_dipole_moment_norm": 2.07112119636, 
			 "electric_quadrupole_moment_norm": 12.3077941756, 
			 "total_energy": -1139.63993888, 
			 "HOMO_LUMO_gap": 0.15615, 
			 "cosmo_polarized_energy": -11.4, 
			 "cosmo_cavitation_energy": 35.42, 
			 "cosmo_dispersion_energy": -26.15, 
			 "cosmo_repulsion_energy": 1.95, 
			 "cosmo_total_nonelectrostatic_energy": 11.22, 
			 "SMD_solvation_energy": 4.83 
		},
		"coords": [
			{
				"x": -1.0869320298,
				"y": 2.4003512545,
				"z": 0.1719912743,
				"element": "N" 
			},
			{
				"x": -0.5110365344,
				"y": 1.929145801,
				"z": 1.3533823485,
				"element": "C" 
			},
			{
				"x": 0.5682288016,
				"y": 1.0145583474,
				"z": 1.312469058,
				"element": "C" 
			},
			{
				"x": 1.118793769,
				"y": 0.5390564241,
				"z": -0.0242078468,
				"element": "C" 
			},
			{
				"x": 0.2460085419,
				"y": -0.4779608305,
				"z": -0.691722462,
				"element": "C" 
			},
			{
				"x": -0.8542878563,
				"y": -0.2768988707,
				"z": -1.362843202,
				"element": "N" 
			},
			{
				"x": -1.2463224845,
				"y": -1.5605117917,
				"z": -1.6972043451,
				"element": "C" 
			},
			{
				"x": -0.4328331143,
				"y": -2.4993331639,
				"z": -1.2656662837,
				"element": "N" 
			},
			{
				"x": 0.5658677121,
				"y": -1.7751346297,
				"z": -0.58991171,
				"element": "O" 
			},
			{
				"x": -2.4546406699,
				"y": -1.8436468325,
				"z": -2.4679510231,
				"element": "C" 
			},
			{
				"x": -2.9000083665,
				"y": -3.1091397156,
				"z": -2.7720538052,
				"element": "C" 
			},
			{
				"x": -4.3549064312,
				"y": -3.0655996694,
				"z": -3.6958351196,
				"element": "S" 
			},
			{
				"x": -4.3755122614,
				"y": -1.3289371591,
				"z": -3.6805227319,
				"element": "C" 
			},
			{
				"x": -3.3109998142,
				"y": -0.8205760995,
				"z": -2.9951089552,
				"element": "C" 
			},
			{
				"x": 1.1515842452,
				"y": 0.5855414919,
				"z": 2.5073620648,
				"element": "C" 
			},
			{
				"x": 0.7112784804,
				"y": 1.0541432663,
				"z": 3.7447466087,
				"element": "C" 
			},
			{
				"x": -0.3374347222,
				"y": 1.9748234546,
				"z": 3.7830146073,
				"element": "C" 
			},
			{
				"x": -0.9421941135,
				"y": 2.4032300869,
				"z": 2.605119822,
				"element": "C" 
			},
			{
				"x": -1.2130751574,
				"y": 1.7039867919,
				"z": -0.5575607364,
				"element": "H" 
			},
			{
				"x": -1.9297701266,
				"y": 2.9400712051,
				"z": 0.3174671597,
				"element": "H" 
			},
			{
				"x": 1.214152661,
				"y": 1.3900593463,
				"z": -0.7086607036,
				"element": "H" 
			},
			{
				"x": 2.109746442,
				"y": 0.1005960693,
				"z": 0.1156897568,
				"element": "H" 
			},
			{
				"x": -2.4446813506,
				"y": -4.0495134313,
				"z": -2.4963944754,
				"element": "H" 
			},
			{
				"x": -5.1703779651,
				"y": -0.7922508651,
				"z": -4.1789133312,
				"element": "H" 
			},
			{
				"x": -3.1208276421,
				"y": 0.2366517264,
				"z": -2.8610396473,
				"element": "H" 
			},
			{
				"x": 1.9763921019,
				"y": -0.1216577832,
				"z": 2.4610117136,
				"element": "H" 
			},
			{
				"x": 1.183274583,
				"y": 0.7121289132,
				"z": 4.6601454079,
				"element": "H" 
			},
			{
				"x": -0.6945049608,
				"y": 2.3571485562,
				"z": 4.7352847203,
				"element": "H" 
			},
			{
				"x": -1.7663817373,
				"y": 3.111968107,
				"z": 2.6436118365,
				"element": "H" 
			}
		],
		 "valence_orbital": [ 
			{
				"type": "occ",
				"energy": -0.29756,
				"method": "rhf"
			},
			{
				"type": "occ",
				"energy": -0.25718,
				"method": "rhf"
			},
			{
				"type": "occ",
				"energy": -0.2457,
				"method": "rhf"
			},
			{
				"type": "occ",
				"energy": -0.23933,
				"method": "rhf"
			},
			{
				"type": "occ",
				"energy": -0.20327,
				"method": "rhf"
			},
			{
				"type": "unocc",
				"energy": -0.04712,
				"method": "rhf"
			},
			{
				"type": "unocc",
				"energy": -0.01318,
				"method": "rhf"
			},
			{
				"type": "unocc",
				"energy": 0.00434,
				"method": "rhf"
			},
			{
				"type": "unocc",
				"energy": 0.01411,
				"method": "rhf"
			},
			{
				"type": "unocc",
				"energy": 0.01686,
				"method": "rhf"
			}
		],
		"cosmo_sigma_profile": { 
			"-0.025": 0.0,
			"-0.024": 0.0,
			"-0.023": 0.0,
			"-0.022": 0.0,
			"-0.021": 0.0,
			"-0.02": 0.0,
			"-0.019": 0.0,
			"-0.018": 0.0,
			"-0.017": 0.0,
			"-0.016": 0.0,
			"-0.015": 0.0,
			"-0.014": 0.0,
			"-0.013": 0.0306726630006,
			"-0.012": 0.867307993561,
			"-0.011": 1.53195983898,
			"-0.01": 1.94557768143,
			"-0.009": 3.55731168094,
			"-0.008": 5.6969469991,
			"-0.007": 9.56691985611,
			"-0.006": 12.8502492068,
			"-0.005": 18.8440191654,
			"-0.004": 18.7811346276,
			"-0.003": 19.4613353196,
			"-0.002": 17.22720851,
			"-0.001": 17.6877387893,
			"0.0": 19.8528362386,
			"0.001": 23.4615332789,
			"0.002": 26.0218495546,
			"0.003": 27.2025833764,
			"0.004": 13.8396171144,
			"0.005": 13.7952061066,
			"0.006": 14.0873469819,
			"0.007": 9.07883089798,
			"0.008": 2.08635966835,
			"0.009": 1.98685078959,
			"0.01": 2.37549640683,
			"0.011": 1.63918386523,
			"0.012": 1.96510263301,
			"0.013": 0.660577762526,
			"0.014": 0.519669617288,
			"0.015": 0.0812410191209,
			"0.016": 0.0,
			"0.017": 0.0,
			"0.018": 0.0,
			"0.019": 0.0,
			"0.02": 0.0,
			"0.021": 0.0,
			"0.022": 0.0,
			"0.023": 0.0,
			"0.024": 0.0,
			"0.025": 0.0
		}
	}
}
