{
	 "smiles": "CCOC1=C(OCC(F)(F)F)C=CC(C=O)=C1", 
	 "Tm": 312.15, 
	 "num_atms": 28, 
	 "gaussian": { 
		 "optdone": 1, 
		 "sigma_profile": "yes", 
		 "theory": "DFT", 
		 "functional": "B3LYP", 
		 "basiset": "6-31G**", 
		 "properties": { 
			 "R2extent": 4573.9282, 
			 "electric_dipole_moment_norm": 2.4217783053, 
			 "electric_quadrupole_moment_norm": 17.2396839881, 
			 "total_energy": -950.967008494, 
			 "HOMO_LUMO_gap": 0.16796, 
			 "cosmo_polarized_energy": -12.45, 
			 "cosmo_cavitation_energy": 33.29, 
			 "cosmo_dispersion_energy": -22.54, 
			 "cosmo_repulsion_energy": 1.7, 
			 "cosmo_total_nonelectrostatic_energy": 12.45, 
			 "SMD_solvation_energy": 8.25 
		},
		"coords": [
			{
				"x": 1.4642791533,
				"y": -0.4563173726,
				"z": -2.6843375483,
				"element": "C" 
			},
			{
				"x": 1.2449396066,
				"y": -1.7906359261,
				"z": -1.9811389005,
				"element": "C" 
			},
			{
				"x": 1.2090296581,
				"y": -1.6528229292,
				"z": -0.5537878731,
				"element": "O" 
			},
			{
				"x": 0.101713708,
				"y": -1.1547951208,
				"z": 0.0467935259,
				"element": "C" 
			},
			{
				"x": 0.242130559,
				"y": -0.8519161345,
				"z": 1.4244813985,
				"element": "C" 
			},
			{
				"x": 1.4518073365,
				"y": -1.1267854097,
				"z": 2.0281441573,
				"element": "O" 
			},
			{
				"x": 2.2432264396,
				"y": -0.0276537015,
				"z": 2.4319608477,
				"element": "C" 
			},
			{
				"x": 3.0951887148,
				"y": 0.5277686346,
				"z": 1.2957581726,
				"element": "C" 
			},
			{
				"x": 3.8837457874,
				"y": 1.5139444263,
				"z": 1.7832192247,
				"element": "F" 
			},
			{
				"x": 3.8864005389,
				"y": -0.4065252608,
				"z": 0.7488837484,
				"element": "F" 
			},
			{
				"x": 2.3388630679,
				"y": 1.0600249041,
				"z": 0.3116320861,
				"element": "F" 
			},
			{
				"x": -0.8307201565,
				"y": -0.3626911433,
				"z": 2.1636012359,
				"element": "C" 
			},
			{
				"x": -2.0630830939,
				"y": -0.14430637,
				"z": 1.5474477449,
				"element": "C" 
			},
			{
				"x": -2.2105058001,
				"y": -0.4304187932,
				"z": 0.1878924195,
				"element": "C" 
			},
			{
				"x": -3.5107923246,
				"y": -0.2006763161,
				"z": -0.4766652061,
				"element": "C" 
			},
			{
				"x": -3.7346705155,
				"y": -0.4135560228,
				"z": -1.6541796702,
				"element": "O" 
			},
			{
				"x": -1.1329095042,
				"y": -0.9347694199,
				"z": -0.5592838538,
				"element": "C" 
			},
			{
				"x": 1.5998694504,
				"y": -0.6191223403,
				"z": -3.7584907306,
				"element": "H" 
			},
			{
				"x": 2.3571258754,
				"y": 0.0326618037,
				"z": -2.2865502607,
				"element": "H" 
			},
			{
				"x": 0.6155355956,
				"y": 0.2192547691,
				"z": -2.547946522,
				"element": "H" 
			},
			{
				"x": 2.0896656808,
				"y": -2.4610902296,
				"z": -2.1579225735,
				"element": "H" 
			},
			{
				"x": 0.3404864178,
				"y": -2.2982902801,
				"z": -2.3381637479,
				"element": "H" 
			},
			{
				"x": 2.9219277278,
				"y": -0.3878456756,
				"z": 3.2086409434,
				"element": "H" 
			},
			{
				"x": 1.6416715919,
				"y": 0.7953983338,
				"z": 2.8347835933,
				"element": "H" 
			},
			{
				"x": -0.6913744753,
				"y": -0.1685809009,
				"z": 3.2228194742,
				"element": "H" 
			},
			{
				"x": -2.9043833956,
				"y": 0.2386262698,
				"z": 2.1185734108,
				"element": "H" 
			},
			{
				"x": -4.306637665,
				"y": 0.1960586907,
				"z": 0.1923958422,
				"element": "H" 
			},
			{
				"x": -1.301729979,
				"y": -1.132438485,
				"z": -1.6110609385,
				"element": "H" 
			}
		],
		 "valence_orbital": [ 
			{
				"type": "occ",
				"energy": -0.32522,
				"method": "rhf"
			},
			{
				"type": "occ",
				"energy": -0.30408,
				"method": "rhf"
			},
			{
				"type": "occ",
				"energy": -0.25874,
				"method": "rhf"
			},
			{
				"type": "occ",
				"energy": -0.25521,
				"method": "rhf"
			},
			{
				"type": "occ",
				"energy": -0.23041,
				"method": "rhf"
			},
			{
				"type": "unocc",
				"energy": -0.06245,
				"method": "rhf"
			},
			{
				"type": "unocc",
				"energy": -0.00847,
				"method": "rhf"
			},
			{
				"type": "unocc",
				"energy": 0.04083,
				"method": "rhf"
			},
			{
				"type": "unocc",
				"energy": 0.07573,
				"method": "rhf"
			},
			{
				"type": "unocc",
				"energy": 0.08941,
				"method": "rhf"
			}
		],
		"cosmo_sigma_profile": { 
			"-0.025": 0.0,
			"-0.024": 0.0,
			"-0.023": 0.0,
			"-0.022": 0.0,
			"-0.021": 0.0,
			"-0.02": 0.0,
			"-0.019": 0.0,
			"-0.018": 0.0,
			"-0.017": 0.0,
			"-0.016": 0.0,
			"-0.015": 0.0,
			"-0.014": 0.0,
			"-0.013": 0.0,
			"-0.012": 0.0,
			"-0.011": 0.0,
			"-0.01": 0.0619042091816,
			"-0.009": 2.72006845135,
			"-0.008": 6.81316296703,
			"-0.007": 13.0085548299,
			"-0.006": 15.3209031459,
			"-0.005": 15.3218238074,
			"-0.004": 17.8573169897,
			"-0.003": 18.8269408621,
			"-0.002": 16.2615669592,
			"-0.001": 14.6069363472,
			"0.0": 18.714369961,
			"0.001": 19.7547161685,
			"0.002": 32.1114050632,
			"0.003": 32.4663986448,
			"0.004": 5.73505869738,
			"0.005": 4.67037921039,
			"0.006": 4.02902337488,
			"0.007": 3.2306654627,
			"0.008": 3.88826628967,
			"0.009": 4.43385262533,
			"0.01": 4.5775385418,
			"0.011": 5.40429140499,
			"0.012": 4.01776338553,
			"0.013": 0.920070332706,
			"0.014": 0.0,
			"0.015": 0.0,
			"0.016": 0.0,
			"0.017": 0.0,
			"0.018": 0.0,
			"0.019": 0.0,
			"0.02": 0.0,
			"0.021": 0.0,
			"0.022": 0.0,
			"0.023": 0.0,
			"0.024": 0.0,
			"0.025": 0.0
		}
	}
}
