{
	 "smiles": "CCOC1=CC(CC=C)=C(O)C=C1", 
	 "Tm": 409.15, 
	 "num_atms": 27, 
	 "gaussian": { 
		 "optdone": 1, 
		 "sigma_profile": "yes", 
		 "theory": "DFT", 
		 "functional": "B3LYP", 
		 "basiset": "6-31G**", 
		 "properties": { 
			 "R2extent": 3280.2142, 
			 "electric_dipole_moment_norm": 2.69978740089, 
			 "electric_quadrupole_moment_norm": 6.51743024512, 
			 "total_energy": -578.024031257, 
			 "HOMO_LUMO_gap": 0.1937, 
			 "cosmo_polarized_energy": -10.46, 
			 "cosmo_cavitation_energy": 30.34, 
			 "cosmo_dispersion_energy": -21.65, 
			 "cosmo_repulsion_energy": 1.74, 
			 "cosmo_total_nonelectrostatic_energy": 10.43, 
			 "SMD_solvation_energy": 6.38 
		},
		"coords": [
			{
				"x": -3.1432658475,
				"y": -1.0046367628,
				"z": 2.5307233578,
				"element": "C" 
			},
			{
				"x": -1.7923001019,
				"y": -1.6991805673,
				"z": 2.6789659711,
				"element": "C" 
			},
			{
				"x": -0.6920282636,
				"y": -0.8224220111,
				"z": 2.443105376,
				"element": "O" 
			},
			{
				"x": -0.3248705703,
				"y": -0.5258726917,
				"z": 1.1555453232,
				"element": "C" 
			},
			{
				"x": 0.7306585474,
				"y": 0.3900313862,
				"z": 1.0297581184,
				"element": "C" 
			},
			{
				"x": 1.232824324,
				"y": 0.7698745638,
				"z": -0.2113218606,
				"element": "C" 
			},
			{
				"x": 2.3707303236,
				"y": 1.7678686128,
				"z": -0.3308767686,
				"element": "C" 
			},
			{
				"x": 1.9006209382,
				"y": 3.1476138899,
				"z": -0.7297170643,
				"element": "C" 
			},
			{
				"x": 2.0878091661,
				"y": 4.251788232,
				"z": -0.0073367278,
				"element": "C" 
			},
			{
				"x": 0.6478689754,
				"y": 0.2145341486,
				"z": -1.3655938978,
				"element": "C" 
			},
			{
				"x": 1.1587204895,
				"y": 0.6115766005,
				"z": -2.5803432504,
				"element": "O" 
			},
			{
				"x": -0.4004944358,
				"y": -0.6935618218,
				"z": -1.252327823,
				"element": "C" 
			},
			{
				"x": -0.8951018636,
				"y": -1.0692036337,
				"z": 0.0022255329,
				"element": "C" 
			},
			{
				"x": -3.9529673264,
				"y": -1.6982016974,
				"z": 2.7821656602,
				"element": "H" 
			},
			{
				"x": -3.3042155554,
				"y": -0.6459678743,
				"z": 1.5105640854,
				"element": "H" 
			},
			{
				"x": -3.2021938308,
				"y": -0.146162771,
				"z": 3.2058719695,
				"element": "H" 
			},
			{
				"x": -1.7224477888,
				"y": -2.5845718288,
				"z": 2.0329570626,
				"element": "H" 
			},
			{
				"x": -1.6551338425,
				"y": -2.0390864748,
				"z": 3.7097946366,
				"element": "H" 
			},
			{
				"x": 1.1602115988,
				"y": 0.8001958103,
				"z": 1.9388437256,
				"element": "H" 
			},
			{
				"x": 3.0790595825,
				"y": 1.4030616101,
				"z": -1.0862692563,
				"element": "H" 
			},
			{
				"x": 2.9075118078,
				"y": 1.8237722085,
				"z": 0.6219081746,
				"element": "H" 
			},
			{
				"x": 1.3742796501,
				"y": 3.2048873638,
				"z": -1.6812121575,
				"element": "H" 
			},
			{
				"x": 2.6080711403,
				"y": 4.2290737623,
				"z": 0.9478364172,
				"element": "H" 
			},
			{
				"x": 1.7307011574,
				"y": 5.2210553445,
				"z": -0.3433808459,
				"element": "H" 
			},
			{
				"x": 0.6880810032,
				"y": 0.1477592473,
				"z": -3.2841602204,
				"element": "H" 
			},
			{
				"x": -0.8474433763,
				"y": -1.1179748153,
				"z": -2.1494659401,
				"element": "H" 
			},
			{
				"x": -1.7140859016,
				"y": -1.7763498305,
				"z": 0.0526404017,
				"element": "H" 
			}
		],
		 "valence_orbital": [ 
			{
				"type": "occ",
				"energy": -0.31479,
				"method": "rhf"
			},
			{
				"type": "occ",
				"energy": -0.28812,
				"method": "rhf"
			},
			{
				"type": "occ",
				"energy": -0.24759,
				"method": "rhf"
			},
			{
				"type": "occ",
				"energy": -0.23867,
				"method": "rhf"
			},
			{
				"type": "occ",
				"energy": -0.19449,
				"method": "rhf"
			},
			{
				"type": "unocc",
				"energy": -0.00079,
				"method": "rhf"
			},
			{
				"type": "unocc",
				"energy": 0.02697,
				"method": "rhf"
			},
			{
				"type": "unocc",
				"energy": 0.03871,
				"method": "rhf"
			},
			{
				"type": "unocc",
				"energy": 0.07063,
				"method": "rhf"
			},
			{
				"type": "unocc",
				"energy": 0.09068,
				"method": "rhf"
			}
		],
		"cosmo_sigma_profile": { 
			"-0.025": 0.0,
			"-0.024": 0.0,
			"-0.023": 0.0,
			"-0.022": 0.0,
			"-0.021": 0.0,
			"-0.02": 0.0,
			"-0.019": 0.0,
			"-0.018": 0.0334416746017,
			"-0.017": 1.01480600246,
			"-0.016": 0.983678054885,
			"-0.015": 1.6721920937,
			"-0.014": 0.556731505118,
			"-0.013": 0.670713869086,
			"-0.012": 1.01186169826,
			"-0.011": 0.610916092251,
			"-0.01": 1.49614435761,
			"-0.009": 1.2325857878,
			"-0.008": 1.10694439275,
			"-0.007": 1.30565321981,
			"-0.006": 4.9134408109,
			"-0.005": 12.0119453737,
			"-0.004": 21.759478096,
			"-0.003": 22.9590271451,
			"-0.002": 22.6605651023,
			"-0.001": 19.4207964816,
			"0.0": 19.2604653007,
			"0.001": 16.1156109593,
			"0.002": 12.471342423,
			"0.003": 13.3347345941,
			"0.004": 15.8112193979,
			"0.005": 16.9315783308,
			"0.006": 13.9871340258,
			"0.007": 5.84939397407,
			"0.008": 3.4978816522,
			"0.009": 2.51543458742,
			"0.01": 2.37217610898,
			"0.011": 1.55603560974,
			"0.012": 0.0965913281182,
			"0.013": 0.0,
			"0.014": 0.0,
			"0.015": 0.0,
			"0.016": 0.0,
			"0.017": 0.0,
			"0.018": 0.0,
			"0.019": 0.0,
			"0.02": 0.0,
			"0.021": 0.0,
			"0.022": 0.0,
			"0.023": 0.0,
			"0.024": 0.0,
			"0.025": 0.0
		}
	}
}
