{
	 "smiles": "NC1=CC=C2N=C3C=CC=CC3=NC2=C1N", 
	 "Tm": 537.15, 
	 "num_atms": 26, 
	 "gaussian": { 
		 "optdone": 1, 
		 "sigma_profile": "yes", 
		 "theory": "DFT", 
		 "functional": "B3LYP", 
		 "basiset": "6-31G**", 
		 "properties": { 
			 "R2extent": 3945.6689, 
			 "electric_dipole_moment_norm": 1.8448399497, 
			 "electric_quadrupole_moment_norm": 15.3531040562, 
			 "total_energy": -682.327442242, 
			 "HOMO_LUMO_gap": 0.10454, 
			 "cosmo_polarized_energy": -12.85, 
			 "cosmo_cavitation_energy": 29.67, 
			 "cosmo_dispersion_energy": -22.61, 
			 "cosmo_repulsion_energy": 1.73, 
			 "cosmo_total_nonelectrostatic_energy": 8.79, 
			 "SMD_solvation_energy": 1.85 
		},
		"coords": [
			{
				"x": 3.4721192455,
				"y": -1.7568322477,
				"z": -0.3795820585,
				"element": "N" 
			},
			{
				"x": 2.1467082609,
				"y": -1.3114116304,
				"z": -0.3460317516,
				"element": "C" 
			},
			{
				"x": 1.0665691796,
				"y": -2.184969905,
				"z": -0.6770095395,
				"element": "C" 
			},
			{
				"x": -0.239013331,
				"y": -1.7714766881,
				"z": -0.6419129186,
				"element": "C" 
			},
			{
				"x": -0.547934593,
				"y": -0.4316985122,
				"z": -0.2637791977,
				"element": "C" 
			},
			{
				"x": -1.8213282081,
				"y": -0.0182875738,
				"z": -0.241743376,
				"element": "N" 
			},
			{
				"x": -2.0516270874,
				"y": 1.2511126158,
				"z": 0.1374921348,
				"element": "C" 
			},
			{
				"x": -3.3925632816,
				"y": 1.7402781748,
				"z": 0.1754478878,
				"element": "C" 
			},
			{
				"x": -3.6483617158,
				"y": 3.0288319421,
				"z": 0.5667988235,
				"element": "C" 
			},
			{
				"x": -2.5817266194,
				"y": 3.9000596478,
				"z": 0.9415967468,
				"element": "C" 
			},
			{
				"x": -1.2805343461,
				"y": 3.4689822831,
				"z": 0.917766978,
				"element": "C" 
			},
			{
				"x": -0.9721841513,
				"y": 2.1345544718,
				"z": 0.5142770928,
				"element": "C" 
			},
			{
				"x": 0.3058861264,
				"y": 1.7220168774,
				"z": 0.4904021051,
				"element": "N" 
			},
			{
				"x": 0.536773745,
				"y": 0.4578416767,
				"z": 0.1025306766,
				"element": "C" 
			},
			{
				"x": 1.8873771837,
				"y": -0.0076905986,
				"z": 0.0566547337,
				"element": "C" 
			},
			{
				"x": 2.9444104524,
				"y": 0.8614421606,
				"z": 0.3691194098,
				"element": "N" 
			},
			{
				"x": 4.1218221471,
				"y": -1.0230458907,
				"z": -0.6448391325,
				"element": "H" 
			},
			{
				"x": 3.6171208859,
				"y": -2.5944496843,
				"z": -0.928222022,
				"element": "H" 
			},
			{
				"x": 1.3048529608,
				"y": -3.2043310114,
				"z": -0.9725949534,
				"element": "H" 
			},
			{
				"x": -1.0582722789,
				"y": -2.4313687807,
				"z": -0.9045435981,
				"element": "H" 
			},
			{
				"x": -4.1842682412,
				"y": 1.0563885224,
				"z": -0.1135022744,
				"element": "H" 
			},
			{
				"x": -4.6695404509,
				"y": 3.3975012376,
				"z": 0.5948952015,
				"element": "H" 
			},
			{
				"x": -2.8108749228,
				"y": 4.9166855185,
				"z": 1.2480766707,
				"element": "H" 
			},
			{
				"x": -0.4546080026,
				"y": 4.1154331914,
				"z": 1.19732164,
				"element": "H" 
			},
			{
				"x": 2.5777529638,
				"y": 1.7518442497,
				"z": 0.692948568,
				"element": "H" 
			},
			{
				"x": 3.5870440789,
				"y": 0.4670899533,
				"z": 1.0501321537,
				"element": "H" 
			}
		],
		 "valence_orbital": [ 
			{
				"type": "occ",
				"energy": -0.28596,
				"method": "rhf"
			},
			{
				"type": "occ",
				"energy": -0.24196,
				"method": "rhf"
			},
			{
				"type": "occ",
				"energy": -0.23881,
				"method": "rhf"
			},
			{
				"type": "occ",
				"energy": -0.23026,
				"method": "rhf"
			},
			{
				"type": "occ",
				"energy": -0.18287,
				"method": "rhf"
			},
			{
				"type": "unocc",
				"energy": -0.07833,
				"method": "rhf"
			},
			{
				"type": "unocc",
				"energy": -0.0128,
				"method": "rhf"
			},
			{
				"type": "unocc",
				"energy": 0.01064,
				"method": "rhf"
			},
			{
				"type": "unocc",
				"energy": 0.03347,
				"method": "rhf"
			},
			{
				"type": "unocc",
				"energy": 0.06052,
				"method": "rhf"
			}
		],
		"cosmo_sigma_profile": { 
			"-0.025": 0.0,
			"-0.024": 0.0,
			"-0.023": 0.0,
			"-0.022": 0.0,
			"-0.021": 0.0,
			"-0.02": 0.0,
			"-0.019": 0.0,
			"-0.018": 0.0,
			"-0.017": 0.0,
			"-0.016": 0.0,
			"-0.015": 0.0,
			"-0.014": 0.0,
			"-0.013": 0.715572616189,
			"-0.012": 2.05439180487,
			"-0.011": 3.63042850596,
			"-0.01": 3.26461726734,
			"-0.009": 5.33126600461,
			"-0.008": 4.90990288953,
			"-0.007": 6.80088316465,
			"-0.006": 12.3716811099,
			"-0.005": 13.7816332957,
			"-0.004": 14.15742042,
			"-0.003": 10.8913450045,
			"-0.002": 11.170863602,
			"-0.001": 12.5968563303,
			"0.0": 13.4511124266,
			"0.001": 17.9698082311,
			"0.002": 24.1381167918,
			"0.003": 25.3774409115,
			"0.004": 21.1336206423,
			"0.005": 6.27367567926,
			"0.006": 5.68553188632,
			"0.007": 5.10345459443,
			"0.008": 4.36424129523,
			"0.009": 2.83835809162,
			"0.01": 1.84375190007,
			"0.011": 1.30075201875,
			"0.012": 2.3095599757,
			"0.013": 2.47282090966,
			"0.014": 1.09928644468,
			"0.015": 0.703717549329,
			"0.016": 0.0,
			"0.017": 0.0,
			"0.018": 0.0,
			"0.019": 0.0,
			"0.02": 0.0,
			"0.021": 0.0,
			"0.022": 0.0,
			"0.023": 0.0,
			"0.024": 0.0,
			"0.025": 0.0
		}
	}
}
