{
	 "smiles": "COC1=NNC(N)=C1C#N", 
	 "Tm": 453.15, 
	 "num_atms": 16, 
	 "gaussian": { 
		 "optdone": 1, 
		 "sigma_profile": "yes", 
		 "theory": "DFT", 
		 "functional": "B3LYP", 
		 "basiset": "6-31G**", 
		 "properties": { 
			 "R2extent": 2244.8726, 
			 "electric_dipole_moment_norm": 5.65161922727, 
			 "electric_quadrupole_moment_norm": 26.5037076491, 
			 "total_energy": -488.328601785, 
			 "HOMO_LUMO_gap": 0.22872, 
			 "cosmo_polarized_energy": -20.43, 
			 "cosmo_cavitation_energy": 21.86, 
			 "cosmo_dispersion_energy": -15.79, 
			 "cosmo_repulsion_energy": 1.32, 
			 "cosmo_total_nonelectrostatic_energy": 7.39, 
			 "SMD_solvation_energy": 5.37 
		},
		"coords": [
			{
				"x": 1.729674762,
				"y": -1.5040618289,
				"z": -0.5225051754,
				"element": "C" 
			},
			{
				"x": 1.8072682053,
				"y": -0.7460068191,
				"z": 0.6895399521,
				"element": "O" 
			},
			{
				"x": 0.787722933,
				"y": 0.0891791126,
				"z": 0.9213328317,
				"element": "C" 
			},
			{
				"x": -0.2473235286,
				"y": 0.2310620476,
				"z": 0.116865031,
				"element": "N" 
			},
			{
				"x": -1.0364554064,
				"y": 1.1643853522,
				"z": 0.7615696005,
				"element": "N" 
			},
			{
				"x": -0.5048499186,
				"y": 1.605327466,
				"z": 1.9223038638,
				"element": "C" 
			},
			{
				"x": -1.0754431532,
				"y": 2.5920780047,
				"z": 2.6966867538,
				"element": "N" 
			},
			{
				"x": 0.7023387584,
				"y": 0.9168807026,
				"z": 2.0877790904,
				"element": "C" 
			},
			{
				"x": 1.5733955609,
				"y": 1.0255175516,
				"z": 3.19113743,
				"element": "C" 
			},
			{
				"x": 2.2583247035,
				"y": 1.1481015649,
				"z": 4.1269863586,
				"element": "N" 
			},
			{
				"x": 1.7017946729,
				"y": -0.8421504695,
				"z": -1.3937224283,
				"element": "H" 
			},
			{
				"x": 2.6288494581,
				"y": -2.1199254541,
				"z": -0.5422538765,
				"element": "H" 
			},
			{
				"x": 0.834935454,
				"y": -2.1343228942,
				"z": -0.5299065585,
				"element": "H" 
			},
			{
				"x": -1.8377970729,
				"y": 1.5354431799,
				"z": 0.2773952693,
				"element": "H" 
			},
			{
				"x": -0.6188466055,
				"y": 2.7114419288,
				"z": 3.5921577604,
				"element": "H" 
			},
			{
				"x": -2.0826888229,
				"y": 2.5544505551,
				"z": 2.7857340973,
				"element": "H" 
			}
		],
		 "valence_orbital": [ 
			{
				"type": "occ",
				"energy": -0.32804,
				"method": "rhf"
			},
			{
				"type": "occ",
				"energy": -0.32454,
				"method": "rhf"
			},
			{
				"type": "occ",
				"energy": -0.3005,
				"method": "rhf"
			},
			{
				"type": "occ",
				"energy": -0.23656,
				"method": "rhf"
			},
			{
				"type": "occ",
				"energy": -0.22674,
				"method": "rhf"
			},
			{
				"type": "unocc",
				"energy": 0.00198,
				"method": "rhf"
			},
			{
				"type": "unocc",
				"energy": 0.02987,
				"method": "rhf"
			},
			{
				"type": "unocc",
				"energy": 0.03583,
				"method": "rhf"
			},
			{
				"type": "unocc",
				"energy": 0.05353,
				"method": "rhf"
			},
			{
				"type": "unocc",
				"energy": 0.08245,
				"method": "rhf"
			}
		],
		"cosmo_sigma_profile": { 
			"-0.025": 0.0,
			"-0.024": 0.0,
			"-0.023": 0.0,
			"-0.022": 0.0,
			"-0.021": 0.0,
			"-0.02": 0.0,
			"-0.019": 0.0,
			"-0.018": 0.0246152890228,
			"-0.017": 1.85291849735,
			"-0.016": 2.13115863685,
			"-0.015": 2.90870950632,
			"-0.014": 3.76123783753,
			"-0.013": 3.29254364921,
			"-0.012": 3.14579374662,
			"-0.011": 3.24907252119,
			"-0.01": 2.95583660092,
			"-0.009": 2.48805081077,
			"-0.008": 2.66448684439,
			"-0.007": 3.09663292384,
			"-0.006": 4.91768902551,
			"-0.005": 8.46568436528,
			"-0.004": 9.77119722949,
			"-0.003": 10.2276156437,
			"-0.002": 6.60640312415,
			"-0.001": 5.39183335461,
			"0.0": 7.24911166448,
			"0.001": 15.5638345468,
			"0.002": 10.6916508428,
			"0.003": 7.48906173035,
			"0.004": 6.99206417756,
			"0.005": 6.4420905824,
			"0.006": 5.98127676565,
			"0.007": 5.363451602,
			"0.008": 6.2999659272,
			"0.009": 5.94454006604,
			"0.01": 5.18888029178,
			"0.011": 5.25673646807,
			"0.012": 3.8390340797,
			"0.013": 3.74984357442,
			"0.014": 1.85784912899,
			"0.015": 0.0763003889821,
			"0.016": 0.0,
			"0.017": 0.0,
			"0.018": 0.0,
			"0.019": 0.0,
			"0.02": 0.0,
			"0.021": 0.0,
			"0.022": 0.0,
			"0.023": 0.0,
			"0.024": 0.0,
			"0.025": 0.0
		}
	}
}
