{
	 "smiles": "CC1=C(OC2=CC=C(Cl)C=C2)C(C)=NN1", 
	 "Tm": 413.15, 
	 "num_atms": 26, 
	 "gaussian": { 
		 "optdone": 1, 
		 "sigma_profile": "no", 
		 "theory": "DFT", 
		 "functional": "B3LYP", 
		 "basiset": "6-31G**", 
		 "properties": { 
			 "R2extent": 4740.463, 
			 "electric_dipole_moment_norm": 3.21223200594, 
			 "electric_quadrupole_moment_norm": 18.040459842, 
			 "total_energy": -1070.6982202, 
			 "HOMO_LUMO_gap": 0.20703, 
			 "cosmo_polarized_energy": -10.73, 
			 "cosmo_cavitation_energy": 32.43, 
			 "cosmo_dispersion_energy": -22.88, 
			 "cosmo_repulsion_energy": 1.84, 
			 "cosmo_total_nonelectrostatic_energy": 11.39, 
			 "SMD_solvation_energy": 4.71 
		},
		"coords": [
			{
				"x": -0.6904122293,
				"y": -0.3320257083,
				"z": -3.7797840908,
				"element": "C" 
			},
			{
				"x": -1.3877971282,
				"y": 0.012891626,
				"z": -2.5059324701,
				"element": "C" 
			},
			{
				"x": -1.2013851847,
				"y": -0.4468372316,
				"z": -1.2132921818,
				"element": "C" 
			},
			{
				"x": -0.3205559928,
				"y": -1.4400786261,
				"z": -0.8396196653,
				"element": "O" 
			},
			{
				"x": 0.844732019,
				"y": -1.1010633499,
				"z": -0.1854666507,
				"element": "C" 
			},
			{
				"x": 1.6181551482,
				"y": -2.1739873434,
				"z": 0.2710248498,
				"element": "C" 
			},
			{
				"x": 2.8195067533,
				"y": -1.9365892885,
				"z": 0.9315371922,
				"element": "C" 
			},
			{
				"x": 3.2431766503,
				"y": -0.6219820806,
				"z": 1.1357730897,
				"element": "C" 
			},
			{
				"x": 4.7612805898,
				"y": -0.3183845184,
				"z": 1.9734126603,
				"element": "Cl" 
			},
			{
				"x": 2.4779393761,
				"y": 0.4502975586,
				"z": 0.6845689888,
				"element": "C" 
			},
			{
				"x": 1.2733616728,
				"y": 0.2126242788,
				"z": 0.0191072485,
				"element": "C" 
			},
			{
				"x": -2.1609844043,
				"y": 0.2098341262,
				"z": -0.3982097992,
				"element": "C" 
			},
			{
				"x": -2.392931175,
				"y": 0.0577597372,
				"z": 1.0719479537,
				"element": "C" 
			},
			{
				"x": -2.8979011958,
				"y": 1.0355349276,
				"z": -1.1405760422,
				"element": "N" 
			},
			{
				"x": -2.4160318879,
				"y": 0.8990397281,
				"z": -2.4001681088,
				"element": "N" 
			},
			{
				"x": -0.1503328596,
				"y": 0.5254535172,
				"z": -4.1978793094,
				"element": "H" 
			},
			{
				"x": -1.3907376973,
				"y": -0.6908751576,
				"z": -4.5426327828,
				"element": "H" 
			},
			{
				"x": 0.0342958156,
				"y": -1.1264691904,
				"z": -3.5890153247,
				"element": "H" 
			},
			{
				"x": 1.2643949921,
				"y": -3.1853821005,
				"z": 0.1008944185,
				"element": "H" 
			},
			{
				"x": 3.4229274048,
				"y": -2.7642910118,
				"z": 1.2874723155,
				"element": "H" 
			},
			{
				"x": 2.8177267019,
				"y": 1.4671151036,
				"z": 0.8483226535,
				"element": "H" 
			},
			{
				"x": 0.6754601594,
				"y": 1.0427820799,
				"z": -0.3388661063,
				"element": "H" 
			},
			{
				"x": -2.5920483555,
				"y": -0.9868440907,
				"z": 1.3345510337,
				"element": "H" 
			},
			{
				"x": -1.5200609647,
				"y": 0.3769325564,
				"z": 1.6523894427,
				"element": "H" 
			},
			{
				"x": -3.2502677299,
				"y": 0.6634035466,
				"z": 1.3729853171,
				"element": "H" 
			},
			{
				"x": -2.8442104785,
				"y": 1.4293409117,
				"z": -3.1426446318,
				"element": "H" 
			}
		],
		 "valence_orbital": [ 
			{
				"type": "occ",
				"energy": -0.28397,
				"method": "rhf"
			},
			{
				"type": "occ",
				"energy": -0.26405,
				"method": "rhf"
			},
			{
				"type": "occ",
				"energy": -0.24666,
				"method": "rhf"
			},
			{
				"type": "occ",
				"energy": -0.2362,
				"method": "rhf"
			},
			{
				"type": "occ",
				"energy": -0.22211,
				"method": "rhf"
			},
			{
				"type": "unocc",
				"energy": -0.01508,
				"method": "rhf"
			},
			{
				"type": "unocc",
				"energy": -0.00077,
				"method": "rhf"
			},
			{
				"type": "unocc",
				"energy": 0.01732,
				"method": "rhf"
			},
			{
				"type": "unocc",
				"energy": 0.03305,
				"method": "rhf"
			},
			{
				"type": "unocc",
				"energy": 0.06955,
				"method": "rhf"
			}
		],
		"cosmo_sigma_profile": { 
			"0.0": 0.0,
			"0.0": 0.0,
			"0.0": 0.0,
			"0.0": 0.0,
			"0.0": 0.0,
			"0.0": 0.0,
			"0.0": 0.0,
			"0.0": 0.0,
			"0.0": 0.0,
			"0.0": 0.0,
			"0.0": 0.0,
			"0.0": 0.0,
			"0.0": 0.0,
			"0.0": 0.0,
			"0.0": 0.0,
			"0.0": 0.0,
			"0.0": 0.0,
			"0.0": 0.0,
			"0.0": 0.0,
			"0.0": 0.0,
			"0.0": 0.0,
			"0.0": 0.0,
			"0.0": 0.0,
			"0.0": 0.0,
			"0.0": 0.0,
			"0.0": 0.0,
			"0.0": 0.0,
			"0.0": 0.0,
			"0.0": 0.0,
			"0.0": 0.0,
			"0.0": 0.0,
			"0.0": 0.0,
			"0.0": 0.0,
			"0.0": 0.0,
			"0.0": 0.0,
			"0.0": 0.0,
			"0.0": 0.0,
			"0.0": 0.0,
			"0.0": 0.0,
			"0.0": 0.0,
			"0.0": 0.0,
			"0.0": 0.0,
			"0.0": 0.0,
			"0.0": 0.0,
			"0.0": 0.0,
			"0.0": 0.0,
			"0.0": 0.0,
			"0.0": 0.0,
			"0.0": 0.0,
			"0.0": 0.0,
			"0.0": 0.0
		}
	}
}
