{
	 "smiles": "CC1=C(C=C(Br)C=C1)N1CCCS1(=O)=O", 
	 "Tm": 418.15, 
	 "num_atms": 27, 
	 "gaussian": { 
		 "optdone": 1, 
		 "sigma_profile": "yes", 
		 "theory": "DFT", 
		 "functional": "B3LYP", 
		 "basiset": "6-31G**", 
		 "properties": { 
			 "R2extent": 6685.985, 
			 "electric_dipole_moment_norm": 5.39832665277, 
			 "electric_quadrupole_moment_norm": 21.0714610912, 
			 "total_energy": -3563.01959884, 
			 "HOMO_LUMO_gap": 0.21046, 
			 "cosmo_polarized_energy": -15.6, 
			 "cosmo_cavitation_energy": 33.1, 
			 "cosmo_dispersion_energy": -24.22, 
			 "cosmo_repulsion_energy": 1.86, 
			 "cosmo_total_nonelectrostatic_energy": 10.74, 
			 "SMD_solvation_energy": 3.41 
		},
		"coords": [
			{
				"x": -0.8448780795,
				"y": 2.9090235439,
				"z": 0.467893835,
				"element": "C" 
			},
			{
				"x": -1.4980778968,
				"y": 1.87133624,
				"z": -0.4094415058,
				"element": "C" 
			},
			{
				"x": -0.7776654762,
				"y": 0.7621099682,
				"z": -0.8907517583,
				"element": "C" 
			},
			{
				"x": -1.3762817228,
				"y": -0.1834904361,
				"z": -1.7325459167,
				"element": "C" 
			},
			{
				"x": -2.7151705521,
				"y": -0.0380120958,
				"z": -2.0801622578,
				"element": "C" 
			},
			{
				"x": -3.5392385453,
				"y": -1.3325201044,
				"z": -3.2203808193,
				"element": "Br" 
			},
			{
				"x": -3.4593425263,
				"y": 1.0413355991,
				"z": -1.6107176765,
				"element": "C" 
			},
			{
				"x": -2.8418245619,
				"y": 1.9823485353,
				"z": -0.7871993788,
				"element": "C" 
			},
			{
				"x": 0.5990646195,
				"y": 0.6083371024,
				"z": -0.5087910457,
				"element": "N" 
			},
			{
				"x": 1.0187555431,
				"y": -0.5768349766,
				"z": 0.2647130114,
				"element": "C" 
			},
			{
				"x": 2.5545611394,
				"y": -0.7445867928,
				"z": 0.078042062,
				"element": "C" 
			},
			{
				"x": 3.1084312816,
				"y": 0.5549089961,
				"z": -0.516105136,
				"element": "C" 
			},
			{
				"x": 1.7889123288,
				"y": 1.0507196827,
				"z": -1.6546795144,
				"element": "S" 
			},
			{
				"x": 1.8122077354,
				"y": 0.1456139856,
				"z": -2.8137835709,
				"element": "O" 
			},
			{
				"x": 1.7076664888,
				"y": 2.4966054684,
				"z": -1.8760409481,
				"element": "O" 
			},
			{
				"x": -0.0306386084,
				"y": 3.407588321,
				"z": -0.0661789858,
				"element": "H" 
			},
			{
				"x": -0.4095523955,
				"y": 2.4561136627,
				"z": 1.3648575467,
				"element": "H" 
			},
			{
				"x": -1.5708235109,
				"y": 3.6631337624,
				"z": 0.7826614503,
				"element": "H" 
			},
			{
				"x": -0.7921793591,
				"y": -1.0102206311,
				"z": -2.1193555605,
				"element": "H" 
			},
			{
				"x": -4.502504535,
				"y": 1.1477337966,
				"z": -1.8857495377,
				"element": "H" 
			},
			{
				"x": -3.4220118802,
				"y": 2.8278768075,
				"z": -0.4281926132,
				"element": "H" 
			},
			{
				"x": 0.494536453,
				"y": -1.4821506048,
				"z": -0.0620479212,
				"element": "H" 
			},
			{
				"x": 0.7609818486,
				"y": -0.40053407,
				"z": 1.3147549566,
				"element": "H" 
			},
			{
				"x": 3.0416299588,
				"y": -0.9813953792,
				"z": 1.0267406298,
				"element": "H" 
			},
			{
				"x": 2.754244822,
				"y": -1.5642635182,
				"z": -0.615819403,
				"element": "H" 
			},
			{
				"x": 3.2260992074,
				"y": 1.3574262867,
				"z": 0.2151575811,
				"element": "H" 
			},
			{
				"x": 4.0268982237,
				"y": 0.4264968504,
				"z": -1.0902775231,
				"element": "H" 
			}
		],
		 "valence_orbital": [ 
			{
				"type": "occ",
				"energy": -0.29948,
				"method": "rhf"
			},
			{
				"type": "occ",
				"energy": -0.28698,
				"method": "rhf"
			},
			{
				"type": "occ",
				"energy": -0.26773,
				"method": "rhf"
			},
			{
				"type": "occ",
				"energy": -0.25115,
				"method": "rhf"
			},
			{
				"type": "occ",
				"energy": -0.23843,
				"method": "rhf"
			},
			{
				"type": "unocc",
				"energy": -0.02797,
				"method": "rhf"
			},
			{
				"type": "unocc",
				"energy": -0.01455,
				"method": "rhf"
			},
			{
				"type": "unocc",
				"energy": 0.00646,
				"method": "rhf"
			},
			{
				"type": "unocc",
				"energy": 0.05454,
				"method": "rhf"
			},
			{
				"type": "unocc",
				"energy": 0.06074,
				"method": "rhf"
			}
		],
		"cosmo_sigma_profile": { 
			"-0.025": 0.0,
			"-0.024": 0.0,
			"-0.023": 0.0,
			"-0.022": 0.0,
			"-0.021": 0.0,
			"-0.02": 0.0,
			"-0.019": 0.0,
			"-0.018": 0.0,
			"-0.017": 0.0,
			"-0.016": 0.0,
			"-0.015": 0.0,
			"-0.014": 0.0,
			"-0.013": 0.0,
			"-0.012": 0.0,
			"-0.011": 0.0,
			"-0.01": 0.00408054473239,
			"-0.009": 1.79988004042,
			"-0.008": 4.69443232851,
			"-0.007": 8.22973396607,
			"-0.006": 18.2862341602,
			"-0.005": 24.3085366836,
			"-0.004": 23.5265102268,
			"-0.003": 19.8171979933,
			"-0.002": 16.1323599056,
			"-0.001": 14.8600535991,
			"0.0": 18.7592028031,
			"0.001": 15.9889129563,
			"0.002": 21.9596076069,
			"0.003": 18.5041868435,
			"0.004": 16.8770593769,
			"0.005": 9.68445886887,
			"0.006": 2.85028580308,
			"0.007": 2.91026149822,
			"0.008": 2.44525520497,
			"0.009": 4.10473493565,
			"0.01": 6.1484072526,
			"0.011": 9.25163029099,
			"0.012": 4.30969812616,
			"0.013": 0.257638319486,
			"0.014": 0.0,
			"0.015": 0.0,
			"0.016": 0.0,
			"0.017": 0.0,
			"0.018": 0.0,
			"0.019": 0.0,
			"0.02": 0.0,
			"0.021": 0.0,
			"0.022": 0.0,
			"0.023": 0.0,
			"0.024": 0.0,
			"0.025": 0.0
		}
	}
}
