{
	 "smiles": "CCC1=C(Cl)N=C(N=C1Cl)C1=CC=CC=C1", 
	 "Tm": 347.15, 
	 "num_atms": 26, 
	 "gaussian": { 
		 "optdone": 1, 
		 "sigma_profile": "yes", 
		 "theory": "DFT", 
		 "functional": "B3LYP", 
		 "basiset": "6-31G**", 
		 "properties": { 
			 "R2extent": 5664.0336, 
			 "electric_dipole_moment_norm": 0.153374867563, 
			 "electric_quadrupole_moment_norm": 12.6166786988, 
			 "total_energy": -1493.21130829, 
			 "HOMO_LUMO_gap": 0.17682, 
			 "cosmo_polarized_energy": -5.85, 
			 "cosmo_cavitation_energy": 33.58, 
			 "cosmo_dispersion_energy": -24.54, 
			 "cosmo_repulsion_energy": 1.91, 
			 "cosmo_total_nonelectrostatic_energy": 10.95, 
			 "SMD_solvation_energy": 3.08 
		},
		"coords": [
			{
				"x": -1.7840108017,
				"y": 1.8967908465,
				"z": -3.8921453714,
				"element": "C" 
			},
			{
				"x": -0.5221942935,
				"y": 1.9371338908,
				"z": -3.0091522682,
				"element": "C" 
			},
			{
				"x": -0.579207952,
				"y": 0.9663065855,
				"z": -1.8579183313,
				"element": "C" 
			},
			{
				"x": -0.1310605177,
				"y": -0.3654896437,
				"z": -1.9197109916,
				"element": "C" 
			},
			{
				"x": 0.5568020208,
				"y": -0.9757280093,
				"z": -3.4229326282,
				"element": "Cl" 
			},
			{
				"x": -0.1775837214,
				"y": -1.2324031058,
				"z": -0.9293335213,
				"element": "N" 
			},
			{
				"x": -0.7028803808,
				"y": -0.8089381441,
				"z": 0.2329570052,
				"element": "C" 
			},
			{
				"x": -1.1795457969,
				"y": 0.4328269402,
				"z": 0.42525496,
				"element": "N" 
			},
			{
				"x": -1.1131986361,
				"y": 1.2668439143,
				"z": -0.591881306,
				"element": "C" 
			},
			{
				"x": -1.7613319394,
				"y": 2.8772244835,
				"z": -0.2887435498,
				"element": "Cl" 
			},
			{
				"x": -0.7613555781,
				"y": -1.7624754354,
				"z": 1.3618676587,
				"element": "C" 
			},
			{
				"x": -1.3024809091,
				"y": -1.3666698683,
				"z": 2.5958127137,
				"element": "C" 
			},
			{
				"x": -1.3559039945,
				"y": -2.2668045569,
				"z": 3.6570412106,
				"element": "C" 
			},
			{
				"x": -0.8715799069,
				"y": -3.5680193274,
				"z": 3.4997588042,
				"element": "C" 
			},
			{
				"x": -0.3321391686,
				"y": -3.9668757046,
				"z": 2.2740424901,
				"element": "C" 
			},
			{
				"x": -0.2759702052,
				"y": -3.0713512527,
				"z": 1.2090649698,
				"element": "C" 
			},
			{
				"x": -1.6941158855,
				"y": 2.6170535084,
				"z": -4.7109779131,
				"element": "H" 
			},
			{
				"x": -2.6772316663,
				"y": 2.1503088769,
				"z": -3.3139484356,
				"element": "H" 
			},
			{
				"x": -1.9277983266,
				"y": 0.9039337855,
				"z": -4.328020968,
				"element": "H" 
			},
			{
				"x": 0.3565648855,
				"y": 1.7098226107,
				"z": -3.6181547664,
				"element": "H" 
			},
			{
				"x": -0.3870554838,
				"y": 2.9465094905,
				"z": -2.6120663354,
				"element": "H" 
			},
			{
				"x": -1.6749865782,
				"y": -0.3544839367,
				"z": 2.7052504795,
				"element": "H" 
			},
			{
				"x": -1.7758075754,
				"y": -1.9535873973,
				"z": 4.6084172989,
				"element": "H" 
			},
			{
				"x": -0.9143392906,
				"y": -4.2684085793,
				"z": 4.3290690606,
				"element": "H" 
			},
			{
				"x": 0.045202794,
				"y": -4.9775125699,
				"z": 2.1484689144,
				"element": "H" 
			},
			{
				"x": 0.1401089081,
				"y": -3.3687074014,
				"z": 0.2531808208,
				"element": "H" 
			}
		],
		 "valence_orbital": [ 
			{
				"type": "occ",
				"energy": -0.30199,
				"method": "rhf"
			},
			{
				"type": "occ",
				"energy": -0.28975,
				"method": "rhf"
			},
			{
				"type": "occ",
				"energy": -0.27323,
				"method": "rhf"
			},
			{
				"type": "occ",
				"energy": -0.2563,
				"method": "rhf"
			},
			{
				"type": "occ",
				"energy": -0.24353,
				"method": "rhf"
			},
			{
				"type": "unocc",
				"energy": -0.06671,
				"method": "rhf"
			},
			{
				"type": "unocc",
				"energy": -0.05351,
				"method": "rhf"
			},
			{
				"type": "unocc",
				"energy": -0.00379,
				"method": "rhf"
			},
			{
				"type": "unocc",
				"energy": 0.00341,
				"method": "rhf"
			},
			{
				"type": "unocc",
				"energy": 0.01668,
				"method": "rhf"
			}
		],
		"cosmo_sigma_profile": { 
			"-0.025": 0.0,
			"-0.024": 0.0,
			"-0.023": 0.0,
			"-0.022": 0.0,
			"-0.021": 0.0,
			"-0.02": 0.0,
			"-0.019": 0.0,
			"-0.018": 0.0,
			"-0.017": 0.0,
			"-0.016": 0.0,
			"-0.015": 0.0,
			"-0.014": 0.0,
			"-0.013": 0.0,
			"-0.012": 0.0,
			"-0.011": 0.0,
			"-0.01": 0.0,
			"-0.009": 0.0,
			"-0.008": 0.0,
			"-0.007": 0.588660797176,
			"-0.006": 6.18184625911,
			"-0.005": 11.568860735,
			"-0.004": 22.6304083483,
			"-0.003": 31.5907761913,
			"-0.002": 31.3109478057,
			"-0.001": 23.2573525297,
			"0.0": 27.6604087239,
			"0.001": 25.5037829373,
			"0.002": 24.4505364578,
			"0.003": 24.878971924,
			"0.004": 22.6407444568,
			"0.005": 9.51654315718,
			"0.006": 4.23205039341,
			"0.007": 3.22946529763,
			"0.008": 3.08892310054,
			"0.009": 1.4653780972,
			"0.01": 0.0,
			"0.011": 0.0,
			"0.012": 0.0,
			"0.013": 0.0,
			"0.014": 0.0,
			"0.015": 0.0,
			"0.016": 0.0,
			"0.017": 0.0,
			"0.018": 0.0,
			"0.019": 0.0,
			"0.02": 0.0,
			"0.021": 0.0,
			"0.022": 0.0,
			"0.023": 0.0,
			"0.024": 0.0,
			"0.025": 0.0
		}
	}
}
