{
	 "smiles": "CC(C)N(C(C)C)C(=O)C(C(F)(F)F)C(F)(F)F", 
	 "Tm": 326.15, 
	 "num_atms": 33, 
	 "gaussian": { 
		 "optdone": 1, 
		 "sigma_profile": "yes", 
		 "theory": "DFT", 
		 "functional": "B3LYP", 
		 "basiset": "6-31G**", 
		 "properties": { 
			 "R2extent": 6212.0174, 
			 "electric_dipole_moment_norm": 5.08119739727, 
			 "electric_quadrupole_moment_norm": 9.06655258133, 
			 "total_energy": -1119.14572362, 
			 "HOMO_LUMO_gap": 0.2528, 
			 "cosmo_polarized_energy": -11.05, 
			 "cosmo_cavitation_energy": 35.51, 
			 "cosmo_dispersion_energy": -23.49, 
			 "cosmo_repulsion_energy": 1.69, 
			 "cosmo_total_nonelectrostatic_energy": 13.71, 
			 "SMD_solvation_energy": 8.51 
		},
		"coords": [
			{
				"x": 0.3123445128,
				"y": -1.6666355015,
				"z": 1.3352942764,
				"element": "C" 
			},
			{
				"x": -0.7029911431,
				"y": -0.9617740873,
				"z": 0.4323769497,
				"element": "C" 
			},
			{
				"x": -2.1531368934,
				"y": -1.3289288183,
				"z": 0.7871125894,
				"element": "C" 
			},
			{
				"x": -0.5341280928,
				"y": 0.522845626,
				"z": 0.3117852324,
				"element": "N" 
			},
			{
				"x": -0.1300016859,
				"y": 1.3844329351,
				"z": 1.4499849891,
				"element": "C" 
			},
			{
				"x": -1.0516912502,
				"y": 1.2439813757,
				"z": 2.6712116762,
				"element": "C" 
			},
			{
				"x": 1.3593930498,
				"y": 1.2701680115,
				"z": 1.8275481089,
				"element": "C" 
			},
			{
				"x": -0.8719948265,
				"y": 1.0014761839,
				"z": -0.9319596323,
				"element": "C" 
			},
			{
				"x": -1.1936629392,
				"y": 0.2701948631,
				"z": -1.8624637612,
				"element": "O" 
			},
			{
				"x": -0.8746210553,
				"y": 2.5252967472,
				"z": -1.2200779399,
				"element": "C" 
			},
			{
				"x": 0.4291083331,
				"y": 2.9442291716,
				"z": -1.9032126277,
				"element": "C" 
			},
			{
				"x": 1.467225649,
				"y": 2.742572848,
				"z": -1.0526675845,
				"element": "F" 
			},
			{
				"x": 0.4215649259,
				"y": 4.2539166138,
				"z": -2.2163548287,
				"element": "F" 
			},
			{
				"x": 0.6785479953,
				"y": 2.252094912,
				"z": -3.0194277898,
				"element": "F" 
			},
			{
				"x": -2.1133593617,
				"y": 2.8958782134,
				"z": -2.050079046,
				"element": "C" 
			},
			{
				"x": -2.2743154113,
				"y": 4.2392475378,
				"z": -2.0441097945,
				"element": "F" 
			},
			{
				"x": -2.0523011703,
				"y": 2.5027061009,
				"z": -3.3242947182,
				"element": "F" 
			},
			{
				"x": -3.2164326277,
				"y": 2.363810004,
				"z": -1.4845919024,
				"element": "F" 
			},
			{
				"x": 1.3410539766,
				"y": -1.4557590054,
				"z": 1.0337227106,
				"element": "H" 
			},
			{
				"x": 0.1991903485,
				"y": -1.4248552926,
				"z": 2.3955207596,
				"element": "H" 
			},
			{
				"x": 0.1541675024,
				"y": -2.7451369079,
				"z": 1.2346195451,
				"element": "H" 
			},
			{
				"x": -0.5291263975,
				"y": -1.3212324985,
				"z": -0.5826246682,
				"element": "H" 
			},
			{
				"x": -2.8469872984,
				"y": -0.8481048787,
				"z": 0.0931887714,
				"element": "H" 
			},
			{
				"x": -2.418019362,
				"y": -1.0401628885,
				"z": 1.808040711,
				"element": "H" 
			},
			{
				"x": -2.2895518631,
				"y": -2.4120610148,
				"z": 0.6994389248,
				"element": "H" 
			},
			{
				"x": -0.2522682286,
				"y": 2.4072505831,
				"z": 1.1005707951,
				"element": "H" 
			},
			{
				"x": -0.9639597344,
				"y": 0.2664384996,
				"z": 3.1510824315,
				"element": "H" 
			},
			{
				"x": -2.0984960656,
				"y": 1.3996285271,
				"z": 2.3957689626,
				"element": "H" 
			},
			{
				"x": -0.7788539151,
				"y": 1.9989726734,
				"z": 3.4156850401,
				"element": "H" 
			},
			{
				"x": 1.9853579887,
				"y": 1.2989467658,
				"z": 0.9334954699,
				"element": "H" 
			},
			{
				"x": 1.6305066362,
				"y": 2.1236561226,
				"z": 2.4581552546,
				"element": "H" 
			},
			{
				"x": 1.5876903444,
				"y": 0.3635883658,
				"z": 2.3888417535,
				"element": "H" 
			},
			{
				"x": -0.9565519404,
				"y": 3.1450182123,
				"z": -0.3281806585,
				"element": "H" 
			}
		],
		 "valence_orbital": [ 
			{
				"type": "occ",
				"energy": -0.35706,
				"method": "rhf"
			},
			{
				"type": "occ",
				"energy": -0.34959,
				"method": "rhf"
			},
			{
				"type": "occ",
				"energy": -0.33447,
				"method": "rhf"
			},
			{
				"type": "occ",
				"energy": -0.26337,
				"method": "rhf"
			},
			{
				"type": "occ",
				"energy": -0.25122,
				"method": "rhf"
			},
			{
				"type": "unocc",
				"energy": 0.00158,
				"method": "rhf"
			},
			{
				"type": "unocc",
				"energy": 0.05555,
				"method": "rhf"
			},
			{
				"type": "unocc",
				"energy": 0.07565,
				"method": "rhf"
			},
			{
				"type": "unocc",
				"energy": 0.09783,
				"method": "rhf"
			},
			{
				"type": "unocc",
				"energy": 0.10261,
				"method": "rhf"
			}
		],
		"cosmo_sigma_profile": { 
			"-0.025": 0.0,
			"-0.024": 0.0,
			"-0.023": 0.0,
			"-0.022": 0.0,
			"-0.021": 0.0,
			"-0.02": 0.0,
			"-0.019": 0.0,
			"-0.018": 0.0,
			"-0.017": 0.0,
			"-0.016": 0.0,
			"-0.015": 0.0,
			"-0.014": 0.0,
			"-0.013": 0.508366239622,
			"-0.012": 2.00937246511,
			"-0.011": 1.67616448006,
			"-0.01": 1.46938741655,
			"-0.009": 1.45023840123,
			"-0.008": 1.74744529877,
			"-0.007": 1.7190420395,
			"-0.006": 2.27891068819,
			"-0.005": 5.34599133786,
			"-0.004": 18.1552074421,
			"-0.003": 25.7281829628,
			"-0.002": 28.0303310004,
			"-0.001": 32.5970546182,
			"0.0": 34.9883939295,
			"0.001": 30.5962036314,
			"0.002": 47.3424986805,
			"0.003": 18.6012914474,
			"0.004": 3.40362235911,
			"0.005": 2.83710272381,
			"0.006": 2.19020395556,
			"0.007": 2.32738763772,
			"0.008": 2.01253807969,
			"0.009": 2.09019093871,
			"0.01": 1.98325753777,
			"0.011": 2.43257799756,
			"0.012": 2.9679562933,
			"0.013": 2.07732537074,
			"0.014": 0.0,
			"0.015": 0.0,
			"0.016": 0.0,
			"0.017": 0.0,
			"0.018": 0.0,
			"0.019": 0.0,
			"0.02": 0.0,
			"0.021": 0.0,
			"0.022": 0.0,
			"0.023": 0.0,
			"0.024": 0.0,
			"0.025": 0.0
		}
	}
}
