{
	 "smiles": "CC(C)(C)[Si](C)(C)Cl", 
	 "Tm": 361.15, 
	 "num_atms": 23, 
	 "gaussian": { 
		 "optdone": 1, 
		 "sigma_profile": "yes", 
		 "theory": "DFT", 
		 "functional": "B3LYP", 
		 "basiset": "6-31G**", 
		 "properties": { 
			 "R2extent": 2165.4406, 
			 "electric_dipole_moment_norm": 2.58298113814, 
			 "electric_quadrupole_moment_norm": 4.39833179853, 
			 "total_energy": -987.467899179, 
			 "HOMO_LUMO_gap": 0.31611, 
			 "cosmo_polarized_energy": -4.04, 
			 "cosmo_cavitation_energy": 26.95, 
			 "cosmo_dispersion_energy": -16.75, 
			 "cosmo_repulsion_energy": 1.46, 
			 "cosmo_total_nonelectrostatic_energy": 11.66, 
			 "SMD_solvation_energy": 5.33 
		},
		"coords": [
			{
				"x": -1.8992882126,
				"y": 2.7036720797,
				"z": 0.869589826,
				"element": "C" 
			},
			{
				"x": -0.945232655,
				"y": 1.5082158976,
				"z": 0.6389622716,
				"element": "C" 
			},
			{
				"x": -1.6567749925,
				"y": 0.2047312695,
				"z": 1.0594235604,
				"element": "C" 
			},
			{
				"x": 0.3202456013,
				"y": 1.6972388639,
				"z": 1.5020979252,
				"element": "C" 
			},
			{
				"x": -0.4858635655,
				"y": 1.4509516743,
				"z": -1.2197620895,
				"element": "Si" 
			},
			{
				"x": -1.9819628681,
				"y": 1.1477981205,
				"z": -2.3233734788,
				"element": "C" 
			},
			{
				"x": 0.4480831997,
				"y": 2.9881500284,
				"z": -1.7790767345,
				"element": "C" 
			},
			{
				"x": 0.8208411881,
				"y": -0.1870391879,
				"z": -1.5167425699,
				"element": "Cl" 
			},
			{
				"x": -2.8279042204,
				"y": 2.6095556065,
				"z": 0.2952640895,
				"element": "H" 
			},
			{
				"x": -2.17946242,
				"y": 2.760596247,
				"z": 1.9298010195,
				"element": "H" 
			},
			{
				"x": -1.4350589878,
				"y": 3.66100067,
				"z": 0.6067882908,
				"element": "H" 
			},
			{
				"x": -2.5837390528,
				"y": 0.0429193886,
				"z": 0.4980748219,
				"element": "H" 
			},
			{
				"x": -1.9238894819,
				"y": 0.2481787704,
				"z": 2.1237862906,
				"element": "H" 
			},
			{
				"x": -1.0177863197,
				"y": -0.6718985828,
				"z": 0.9136866853,
				"element": "H" 
			},
			{
				"x": 0.0480586482,
				"y": 1.7376307183,
				"z": 2.565290918,
				"element": "H" 
			},
			{
				"x": 0.843994981,
				"y": 2.6300144157,
				"z": 1.2650750715,
				"element": "H" 
			},
			{
				"x": 1.0273966341,
				"y": 0.8719671201,
				"z": 1.37220439,
				"element": "H" 
			},
			{
				"x": -1.6736389196,
				"y": 1.08007255,
				"z": -3.3714000226,
				"element": "H" 
			},
			{
				"x": -2.4939288092,
				"y": 0.2164813908,
				"z": -2.0645185966,
				"element": "H" 
			},
			{
				"x": -2.7039434986,
				"y": 1.9679332387,
				"z": -2.2389030451,
				"element": "H" 
			},
			{
				"x": -0.173025038,
				"y": 3.8846375928,
				"z": -1.6716443904,
				"element": "H" 
			},
			{
				"x": 1.3642119435,
				"y": 3.1382296048,
				"z": -1.2005778184,
				"element": "H" 
			},
			{
				"x": 0.7286668456,
				"y": 2.8998625231,
				"z": -2.8333464143,
				"element": "H" 
			}
		],
		 "valence_orbital": [ 
			{
				"type": "occ",
				"energy": -0.33022,
				"method": "rhf"
			},
			{
				"type": "occ",
				"energy": -0.3252,
				"method": "rhf"
			},
			{
				"type": "occ",
				"energy": -0.31266,
				"method": "rhf"
			},
			{
				"type": "occ",
				"energy": -0.28979,
				"method": "rhf"
			},
			{
				"type": "occ",
				"energy": -0.26989,
				"method": "rhf"
			},
			{
				"type": "unocc",
				"energy": 0.04622,
				"method": "rhf"
			},
			{
				"type": "unocc",
				"energy": 0.06093,
				"method": "rhf"
			},
			{
				"type": "unocc",
				"energy": 0.08322,
				"method": "rhf"
			},
			{
				"type": "unocc",
				"energy": 0.09727,
				"method": "rhf"
			},
			{
				"type": "unocc",
				"energy": 0.11087,
				"method": "rhf"
			}
		],
		"cosmo_sigma_profile": { 
			"-0.025": 0.0,
			"-0.024": 0.0,
			"-0.023": 0.0,
			"-0.022": 0.0,
			"-0.021": 0.0,
			"-0.02": 0.0,
			"-0.019": 0.0,
			"-0.018": 0.0,
			"-0.017": 0.0,
			"-0.016": 0.0,
			"-0.015": 0.0,
			"-0.014": 0.0,
			"-0.013": 0.0,
			"-0.012": 0.0,
			"-0.011": 0.0,
			"-0.01": 0.0,
			"-0.009": 0.0,
			"-0.008": 0.0,
			"-0.007": 0.0,
			"-0.006": 0.0,
			"-0.005": 1.95357516484,
			"-0.004": 13.6082233513,
			"-0.003": 25.3718408045,
			"-0.002": 31.4013823509,
			"-0.001": 26.9237217796,
			"0.0": 29.4433940469,
			"0.001": 31.2678181146,
			"0.002": 13.6636500744,
			"0.003": 5.38621621078,
			"0.004": 6.20707488327,
			"0.005": 5.90255700712,
			"0.006": 9.25782110351,
			"0.007": 6.47556031499,
			"0.008": 0.0356771993308,
			"0.009": 0.0,
			"0.01": 0.0,
			"0.011": 0.0,
			"0.012": 0.0,
			"0.013": 0.0,
			"0.014": 0.0,
			"0.015": 0.0,
			"0.016": 0.0,
			"0.017": 0.0,
			"0.018": 0.0,
			"0.019": 0.0,
			"0.02": 0.0,
			"0.021": 0.0,
			"0.022": 0.0,
			"0.023": 0.0,
			"0.024": 0.0,
			"0.025": 0.0
		}
	}
}
