{
	 "smiles": "CC1=C(C2=CC=CC=C2C1)C1=CC=CC=C1", 
	 "Tm": 331.35, 
	 "num_atms": 30, 
	 "gaussian": { 
		 "optdone": 1, 
		 "sigma_profile": "yes", 
		 "theory": "DFT", 
		 "functional": "B3LYP", 
		 "basiset": "6-31G**", 
		 "properties": { 
			 "R2extent": 4550.9288, 
			 "electric_dipole_moment_norm": 1.00744921956, 
			 "electric_quadrupole_moment_norm": 6.09942034787, 
			 "total_energy": -618.148589889, 
			 "HOMO_LUMO_gap": 0.17792, 
			 "cosmo_polarized_energy": -5.79, 
			 "cosmo_cavitation_energy": 32.57, 
			 "cosmo_dispersion_energy": -23.43, 
			 "cosmo_repulsion_energy": 1.82, 
			 "cosmo_total_nonelectrostatic_energy": 10.96, 
			 "SMD_solvation_energy": 4.89 
		},
		"coords": [
			{
				"x": -0.2718780518,
				"y": -0.978154119,
				"z": -1.6325477052,
				"element": "C" 
			},
			{
				"x": -0.1118308734,
				"y": -0.7571610128,
				"z": -0.1604772946,
				"element": "C" 
			},
			{
				"x": -0.6245138077,
				"y": 0.2417441024,
				"z": 0.6081142108,
				"element": "C" 
			},
			{
				"x": -0.2430883752,
				"y": 0.0118814767,
				"z": 2.0185569547,
				"element": "C" 
			},
			{
				"x": -0.4966324597,
				"y": 0.7576264368,
				"z": 3.1719846593,
				"element": "C" 
			},
			{
				"x": 0.0114263785,
				"y": 0.3022350339,
				"z": 4.3930440921,
				"element": "C" 
			},
			{
				"x": 0.7656145294,
				"y": -0.8726906279,
				"z": 4.4625108996,
				"element": "C" 
			},
			{
				"x": 1.0311491615,
				"y": -1.6147608885,
				"z": 3.3035883088,
				"element": "C" 
			},
			{
				"x": 0.5257140815,
				"y": -1.1678888667,
				"z": 2.0902783644,
				"element": "C" 
			},
			{
				"x": 0.6594871101,
				"y": -1.7374002223,
				"z": 0.7001979738,
				"element": "C" 
			},
			{
				"x": -1.4466233277,
				"y": 1.387006909,
				"z": 0.1558353749,
				"element": "C" 
			},
			{
				"x": -2.6780817484,
				"y": 1.6713044147,
				"z": 0.7729114744,
				"element": "C" 
			},
			{
				"x": -3.4607392567,
				"y": 2.7441225391,
				"z": 0.3476205208,
				"element": "C" 
			},
			{
				"x": -3.0275459662,
				"y": 3.5593367143,
				"z": -0.7004007384,
				"element": "C" 
			},
			{
				"x": -1.8044153036,
				"y": 3.2937642667,
				"z": -1.3181163866,
				"element": "C" 
			},
			{
				"x": -1.0209256307,
				"y": 2.2206749533,
				"z": -0.8921532519,
				"element": "C" 
			},
			{
				"x": 0.6862975606,
				"y": -0.8813429067,
				"z": -2.1611947535,
				"element": "H" 
			},
			{
				"x": -0.9731838744,
				"y": -0.2686483496,
				"z": -2.0770581866,
				"element": "H" 
			},
			{
				"x": -0.6358784343,
				"y": -1.9935281173,
				"z": -1.8365582243,
				"element": "H" 
			},
			{
				"x": -1.0716116665,
				"y": 1.6773503054,
				"z": 3.1238858165,
				"element": "H" 
			},
			{
				"x": -0.1796458913,
				"y": 0.8717586739,
				"z": 5.2984652061,
				"element": "H" 
			},
			{
				"x": 1.1519432368,
				"y": -1.2106575392,
				"z": 5.4198750377,
				"element": "H" 
			},
			{
				"x": 1.6252855996,
				"y": -2.5237537156,
				"z": 3.3593708035,
				"element": "H" 
			},
			{
				"x": 1.709790549,
				"y": -1.8161996205,
				"z": 0.3827878798,
				"element": "H" 
			},
			{
				"x": 0.2434610907,
				"y": -2.7522992943,
				"z": 0.6198455467,
				"element": "H" 
			},
			{
				"x": -3.0269406351,
				"y": 1.0341380928,
				"z": 1.5802139517,
				"element": "H" 
			},
			{
				"x": -4.4123759953,
				"y": 2.9417294963,
				"z": 0.8332910381,
				"element": "H" 
			},
			{
				"x": -3.6366063659,
				"y": 4.396195957,
				"z": -1.029980537,
				"element": "H" 
			},
			{
				"x": -1.454446233,
				"y": 3.9273601746,
				"z": -2.1284366248,
				"element": "H" 
			},
			{
				"x": -0.0593054009,
				"y": 2.0329557332,
				"z": -1.3603544112,
				"element": "H" 
			}
		],
		 "valence_orbital": [ 
			{
				"type": "occ",
				"energy": -0.28646,
				"method": "rhf"
			},
			{
				"type": "occ",
				"energy": -0.24846,
				"method": "rhf"
			},
			{
				"type": "occ",
				"energy": -0.24348,
				"method": "rhf"
			},
			{
				"type": "occ",
				"energy": -0.23648,
				"method": "rhf"
			},
			{
				"type": "occ",
				"energy": -0.20138,
				"method": "rhf"
			},
			{
				"type": "unocc",
				"energy": -0.02346,
				"method": "rhf"
			},
			{
				"type": "unocc",
				"energy": -0.00012,
				"method": "rhf"
			},
			{
				"type": "unocc",
				"energy": 0.00151,
				"method": "rhf"
			},
			{
				"type": "unocc",
				"energy": 0.00848,
				"method": "rhf"
			},
			{
				"type": "unocc",
				"energy": 0.06583,
				"method": "rhf"
			}
		],
		"cosmo_sigma_profile": { 
			"-0.025": 0.0,
			"-0.024": 0.0,
			"-0.023": 0.0,
			"-0.022": 0.0,
			"-0.021": 0.0,
			"-0.02": 0.0,
			"-0.019": 0.0,
			"-0.018": 0.0,
			"-0.017": 0.0,
			"-0.016": 0.0,
			"-0.015": 0.0,
			"-0.014": 0.0,
			"-0.013": 0.0,
			"-0.012": 0.0,
			"-0.011": 0.0,
			"-0.01": 0.0,
			"-0.009": 0.0,
			"-0.008": 0.0,
			"-0.007": 0.0,
			"-0.006": 3.42162121994,
			"-0.005": 17.5210220222,
			"-0.004": 26.3184437975,
			"-0.003": 30.2628944359,
			"-0.002": 30.0258257074,
			"-0.001": 24.2657170516,
			"0.0": 20.5451967602,
			"0.001": 18.2020704134,
			"0.002": 15.0892980036,
			"0.003": 18.5693795384,
			"0.004": 19.0117782507,
			"0.005": 16.5496139116,
			"0.006": 14.5059266543,
			"0.007": 5.47636748391,
			"0.008": 0.0040130384451,
			"0.009": 0.0,
			"0.01": 0.0,
			"0.011": 0.0,
			"0.012": 0.0,
			"0.013": 0.0,
			"0.014": 0.0,
			"0.015": 0.0,
			"0.016": 0.0,
			"0.017": 0.0,
			"0.018": 0.0,
			"0.019": 0.0,
			"0.02": 0.0,
			"0.021": 0.0,
			"0.022": 0.0,
			"0.023": 0.0,
			"0.024": 0.0,
			"0.025": 0.0
		}
	}
}
