{
	 "smiles": "CC1=C(C=C(C=C1)S(=O)(=O)N1CCCCC1)S(Cl)(=O)=O", 
	 "Tm": 428.15, 
	 "num_atms": 36, 
	 "gaussian": { 
		 "optdone": 1, 
		 "sigma_profile": "yes", 
		 "theory": "DFT", 
		 "functional": "B3LYP", 
		 "basiset": "6-31G**", 
		 "properties": { 
			 "R2extent": 11633.8695, 
			 "electric_dipole_moment_norm": 3.9959317374, 
			 "electric_quadrupole_moment_norm": 36.1432333266, 
			 "total_energy": -2078.99808448, 
			 "HOMO_LUMO_gap": 0.15715, 
			 "cosmo_polarized_energy": -15.84, 
			 "cosmo_cavitation_energy": 42.08, 
			 "cosmo_dispersion_energy": -30.07, 
			 "cosmo_repulsion_energy": 2.24, 
			 "cosmo_total_nonelectrostatic_energy": 14.25, 
			 "SMD_solvation_energy": 4.22 
		},
		"coords": [
			{
				"x": -4.2185767271,
				"y": 2.0834539085,
				"z": 4.348101499,
				"element": "C" 
			},
			{
				"x": -3.3380564177,
				"y": 1.1746957247,
				"z": 3.5281201748,
				"element": "C" 
			},
			{
				"x": -1.9287594948,
				"y": 1.2546884655,
				"z": 3.4937637945,
				"element": "C" 
			},
			{
				"x": -1.1372771932,
				"y": 0.3938983304,
				"z": 2.7347474287,
				"element": "C" 
			},
			{
				"x": -1.7646640314,
				"y": -0.5764195294,
				"z": 1.9570448803,
				"element": "C" 
			},
			{
				"x": -3.1529972836,
				"y": -0.6920100222,
				"z": 1.9543973696,
				"element": "C" 
			},
			{
				"x": -3.9169371894,
				"y": 0.1752127993,
				"z": 2.7347555928,
				"element": "C" 
			},
			{
				"x": -0.777687003,
				"y": -1.7567503563,
				"z": 1.0173165493,
				"element": "S" 
			},
			{
				"x": -1.7134913302,
				"y": -2.4115689131,
				"z": 0.0909464643,
				"element": "O" 
			},
			{
				"x": 0.0197129535,
				"y": -2.5544520212,
				"z": 1.952292514,
				"element": "O" 
			},
			{
				"x": 0.2984902612,
				"y": -0.7507094113,
				"z": 0.2189899501,
				"element": "N" 
			},
			{
				"x": 1.7089536585,
				"y": -1.219339606,
				"z": 0.154303514,
				"element": "C" 
			},
			{
				"x": 2.5243490857,
				"y": -0.1856237088,
				"z": -0.6235631513,
				"element": "C" 
			},
			{
				"x": 2.0539629512,
				"y": -0.0704672269,
				"z": -2.0924706446,
				"element": "C" 
			},
			{
				"x": 0.5484770197,
				"y": -0.3909771415,
				"z": -2.2301702446,
				"element": "C" 
			},
			{
				"x": -0.2210598423,
				"y": -0.0132894191,
				"z": -0.9618663764,
				"element": "C" 
			},
			{
				"x": -1.0259890448,
				"y": 2.5175980804,
				"z": 4.4007556117,
				"element": "S" 
			},
			{
				"x": -1.1642672892,
				"y": 1.7896386879,
				"z": 6.4025651397,
				"element": "Cl" 
			},
			{
				"x": -1.7544110849,
				"y": 3.7802233976,
				"z": 4.3738543827,
				"element": "O" 
			},
			{
				"x": 0.3841051193,
				"y": 2.4447267054,
				"z": 4.0400440389,
				"element": "O" 
			},
			{
				"x": -5.2580731934,
				"y": 1.75592297,
				"z": 4.2818766593,
				"element": "H" 
			},
			{
				"x": -3.9251121852,
				"y": 2.0848965009,
				"z": 5.4020127641,
				"element": "H" 
			},
			{
				"x": -4.150733175,
				"y": 3.1175694838,
				"z": 4.0006368124,
				"element": "H" 
			},
			{
				"x": -0.0587987834,
				"y": 0.4955452132,
				"z": 2.7388666398,
				"element": "H" 
			},
			{
				"x": -3.6220287124,
				"y": -1.4533075202,
				"z": 1.3406805582,
				"element": "H" 
			},
			{
				"x": -4.998585751,
				"y": 0.0797705386,
				"z": 2.7305591522,
				"element": "H" 
			},
			{
				"x": 1.7851547168,
				"y": -2.2014634261,
				"z": -0.3323005263,
				"element": "H" 
			},
			{
				"x": 2.0778641083,
				"y": -1.3317866854,
				"z": 1.17453983,
				"element": "H" 
			},
			{
				"x": 2.4325669906,
				"y": 0.7815202083,
				"z": -0.115683116,
				"element": "H" 
			},
			{
				"x": 3.5821450599,
				"y": -0.4635059166,
				"z": -0.5756431032,
				"element": "H" 
			},
			{
				"x": 2.2613154313,
				"y": 0.9404782193,
				"z": -2.4602055465,
				"element": "H" 
			},
			{
				"x": 2.6280779677,
				"y": -0.754349386,
				"z": -2.7271349115,
				"element": "H" 
			},
			{
				"x": 0.1146866639,
				"y": 0.1361657607,
				"z": -3.0866320616,
				"element": "H" 
			},
			{
				"x": 0.3989500718,
				"y": -1.4609511248,
				"z": -2.4128090205,
				"element": "H" 
			},
			{
				"x": -0.1358994334,
				"y": 1.0634039052,
				"z": -0.7668189801,
				"element": "H" 
			},
			{
				"x": -1.2815068943,
				"y": -0.2452374844,
				"z": -1.0821736379,
				"element": "H" 
			}
		],
		 "valence_orbital": [ 
			{
				"type": "occ",
				"energy": -0.31422,
				"method": "rhf"
			},
			{
				"type": "occ",
				"energy": -0.30484,
				"method": "rhf"
			},
			{
				"type": "occ",
				"energy": -0.29879,
				"method": "rhf"
			},
			{
				"type": "occ",
				"energy": -0.28716,
				"method": "rhf"
			},
			{
				"type": "occ",
				"energy": -0.25287,
				"method": "rhf"
			},
			{
				"type": "unocc",
				"energy": -0.09572,
				"method": "rhf"
			},
			{
				"type": "unocc",
				"energy": -0.06096,
				"method": "rhf"
			},
			{
				"type": "unocc",
				"energy": -0.05108,
				"method": "rhf"
			},
			{
				"type": "unocc",
				"energy": 0.03782,
				"method": "rhf"
			},
			{
				"type": "unocc",
				"energy": 0.05016,
				"method": "rhf"
			}
		],
		"cosmo_sigma_profile": { 
			"-0.025": 0.0,
			"-0.024": 0.0,
			"-0.023": 0.0,
			"-0.022": 0.0,
			"-0.021": 0.0,
			"-0.02": 0.0,
			"-0.019": 0.0,
			"-0.018": 0.0,
			"-0.017": 0.0,
			"-0.016": 0.0,
			"-0.015": 0.0,
			"-0.014": 0.0,
			"-0.013": 0.0,
			"-0.012": 0.0,
			"-0.011": 0.0,
			"-0.01": 0.0,
			"-0.009": 0.369112713701,
			"-0.008": 4.73576031602,
			"-0.007": 5.89561254813,
			"-0.006": 7.48431047829,
			"-0.005": 13.8744385911,
			"-0.004": 29.9936717878,
			"-0.003": 46.3286707182,
			"-0.002": 50.3932543661,
			"-0.001": 37.8131986891,
			"0.0": 28.0171354932,
			"0.001": 16.7325637084,
			"0.002": 13.6700174678,
			"0.003": 15.6068338446,
			"0.004": 8.01686427191,
			"0.005": 4.97886835405,
			"0.006": 6.05581716746,
			"0.007": 8.60041006684,
			"0.008": 11.6156014291,
			"0.009": 6.40630743257,
			"0.01": 7.2103955091,
			"0.011": 8.35231577734,
			"0.012": 2.96675548224,
			"0.013": 0.0,
			"0.014": 0.0,
			"0.015": 0.0,
			"0.016": 0.0,
			"0.017": 0.0,
			"0.018": 0.0,
			"0.019": 0.0,
			"0.02": 0.0,
			"0.021": 0.0,
			"0.022": 0.0,
			"0.023": 0.0,
			"0.024": 0.0,
			"0.025": 0.0
		}
	}
}
