{
	 "smiles": "CCCCCCCCC=CCCCCCCCC(=O)OC(=O)CCCCCCCC=CCCCCCCCC", 
	 "Tm": 295.65, 
	 "num_atms": 105, 
	 "gaussian": { 
		 "optdone": 1, 
		 "sigma_profile": "yes", 
		 "theory": "DFT", 
		 "functional": "B3LYP", 
		 "basiset": "6-31G**", 
		 "properties": { 
			 "R2extent": 42106.2453, 
			 "electric_dipole_moment_norm": 3.70227712631, 
			 "electric_quadrupole_moment_norm": 27.581516831, 
			 "total_energy": -1637.3412853, 
			 "HOMO_LUMO_gap": 0.21113, 
			 "cosmo_polarized_energy": -13.28, 
			 "cosmo_cavitation_energy": 102.72, 
			 "cosmo_dispersion_energy": -60.26, 
			 "cosmo_repulsion_energy": 4.84, 
			 "cosmo_total_nonelectrostatic_energy": 47.29, 
			 "SMD_solvation_energy": 14.89 
		},
		"coords": [
			{
				"x": -1.5921314966,
				"y": 4.1306884186,
				"z": -4.5938083073,
				"element": "C" 
			},
			{
				"x": -2.8730380639,
				"y": 4.5331077504,
				"z": -5.3339598273,
				"element": "C" 
			},
			{
				"x": -4.1901559464,
				"y": 4.319319606,
				"z": -4.5661025294,
				"element": "C" 
			},
			{
				"x": -4.3662972427,
				"y": 5.1526927254,
				"z": -3.2769190723,
				"element": "C" 
			},
			{
				"x": -3.895906135,
				"y": 4.4692855543,
				"z": -1.9827909821,
				"element": "C" 
			},
			{
				"x": -4.105640197,
				"y": 5.3427288966,
				"z": -0.7375059737,
				"element": "C" 
			},
			{
				"x": -3.6099241049,
				"y": 4.7227500884,
				"z": 0.5794603536,
				"element": "C" 
			},
			{
				"x": -4.4054218535,
				"y": 3.4866433392,
				"z": 1.045912079,
				"element": "C" 
			},
			{
				"x": -3.8835227267,
				"y": 2.9121333811,
				"z": 2.3357017667,
				"element": "C" 
			},
			{
				"x": -4.5783656471,
				"y": 2.8274506398,
				"z": 3.4737137273,
				"element": "C" 
			},
			{
				"x": -4.1012160214,
				"y": 2.2746263228,
				"z": 4.7934657819,
				"element": "C" 
			},
			{
				"x": -2.6553361699,
				"y": 1.7674305334,
				"z": 4.8346842181,
				"element": "C" 
			},
			{
				"x": -2.2544728053,
				"y": 1.2487558026,
				"z": 6.2226494211,
				"element": "C" 
			},
			{
				"x": -0.8670635121,
				"y": 0.589850443,
				"z": 6.327399389,
				"element": "C" 
			},
			{
				"x": 0.3449188985,
				"y": 1.506076996,
				"z": 6.047604076,
				"element": "C" 
			},
			{
				"x": 0.8121428629,
				"y": 1.5293538561,
				"z": 4.5843369675,
				"element": "C" 
			},
			{
				"x": 2.0251529383,
				"y": 2.4592118326,
				"z": 4.3779980298,
				"element": "C" 
			},
			{
				"x": 2.4976286785,
				"y": 2.5086384526,
				"z": 2.9448104956,
				"element": "C" 
			},
			{
				"x": 2.4764597291,
				"y": 3.4637909665,
				"z": 2.2158825397,
				"element": "O" 
			},
			{
				"x": 2.9093927297,
				"y": 1.2470354265,
				"z": 2.5234253521,
				"element": "O" 
			},
			{
				"x": 3.8081529823,
				"y": 1.1168749597,
				"z": 1.4555063117,
				"element": "C" 
			},
			{
				"x": 4.7209705551,
				"y": 1.8760808982,
				"z": 1.2888137217,
				"element": "O" 
			},
			{
				"x": 3.4814742002,
				"y": -0.1082492797,
				"z": 0.636031744,
				"element": "C" 
			},
			{
				"x": 2.0895267258,
				"y": -0.0346250055,
				"z": -0.0267848812,
				"element": "C" 
			},
			{
				"x": 1.9293041486,
				"y": 1.169653493,
				"z": -0.9658596455,
				"element": "C" 
			},
			{
				"x": 0.5402793911,
				"y": 1.3302170448,
				"z": -1.6094767061,
				"element": "C" 
			},
			{
				"x": 0.0971502435,
				"y": 0.2023201231,
				"z": -2.5683512496,
				"element": "C" 
			},
			{
				"x": -0.721972271,
				"y": -0.9250172734,
				"z": -1.9210393067,
				"element": "C" 
			},
			{
				"x": -1.1483971981,
				"y": -2.0122528523,
				"z": -2.9268667634,
				"element": "C" 
			},
			{
				"x": -2.0265313568,
				"y": -3.0656732016,
				"z": -2.3054001315,
				"element": "C" 
			},
			{
				"x": -1.8033650623,
				"y": -4.3826139163,
				"z": -2.2121585842,
				"element": "C" 
			},
			{
				"x": -0.6148672315,
				"y": -5.1652540343,
				"z": -2.7045578444,
				"element": "C" 
			},
			{
				"x": 0.1168683349,
				"y": -5.9017792072,
				"z": -1.5634399831,
				"element": "C" 
			},
			{
				"x": 1.2498541704,
				"y": -6.8314812905,
				"z": -2.0280126876,
				"element": "C" 
			},
			{
				"x": 2.4440484962,
				"y": -6.1082082209,
				"z": -2.6693272923,
				"element": "C" 
			},
			{
				"x": 3.6485183118,
				"y": -7.0173404727,
				"z": -2.9723305447,
				"element": "C" 
			},
			{
				"x": 3.3975772603,
				"y": -8.1468976686,
				"z": -3.989199839,
				"element": "C" 
			},
			{
				"x": 2.9672739407,
				"y": -7.6972088001,
				"z": -5.3966227495,
				"element": "C" 
			},
			{
				"x": 4.0032166525,
				"y": -6.8378339674,
				"z": -6.1310197488,
				"element": "C" 
			},
			{
				"x": -1.4179699461,
				"y": 4.7526975015,
				"z": -3.7102771058,
				"element": "H" 
			},
			{
				"x": -0.7168347471,
				"y": 4.2363166164,
				"z": -5.2437406576,
				"element": "H" 
			},
			{
				"x": -1.6353984667,
				"y": 3.0861499871,
				"z": -4.2626396785,
				"element": "H" 
			},
			{
				"x": -2.8020889736,
				"y": 5.590420958,
				"z": -5.6245950037,
				"element": "H" 
			},
			{
				"x": -2.9297773741,
				"y": 3.9673793564,
				"z": -6.2732865241,
				"element": "H" 
			},
			{
				"x": -5.0108186788,
				"y": 4.558770973,
				"z": -5.2540273389,
				"element": "H" 
			},
			{
				"x": -4.3045023915,
				"y": 3.2520325207,
				"z": -4.3277591588,
				"element": "H" 
			},
			{
				"x": -5.4294182912,
				"y": 5.4005074685,
				"z": -3.1567324758,
				"element": "H" 
			},
			{
				"x": -3.8501727356,
				"y": 6.1168915884,
				"z": -3.3918997923,
				"element": "H" 
			},
			{
				"x": -2.8345168508,
				"y": 4.2014144921,
				"z": -2.0568216607,
				"element": "H" 
			},
			{
				"x": -4.4399586566,
				"y": 3.5216155683,
				"z": -1.8732719988,
				"element": "H" 
			},
			{
				"x": -5.1728023518,
				"y": 5.591362974,
				"z": -0.642914543,
				"element": "H" 
			},
			{
				"x": -3.5868389128,
				"y": 6.2991188991,
				"z": -0.8888780535,
				"element": "H" 
			},
			{
				"x": -3.6541443548,
				"y": 5.4797954514,
				"z": 1.3723570257,
				"element": "H" 
			},
			{
				"x": -2.5491586847,
				"y": 4.4530515706,
				"z": 0.4771374494,
				"element": "H" 
			},
			{
				"x": -5.4638224788,
				"y": 3.755343554,
				"z": 1.1606529061,
				"element": "H" 
			},
			{
				"x": -4.3632885348,
				"y": 2.7147208356,
				"z": 0.2644687488,
				"element": "H" 
			},
			{
				"x": -2.8515979087,
				"y": 2.5607386949,
				"z": 2.3085720888,
				"element": "H" 
			},
			{
				"x": -5.6086785018,
				"y": 3.1891222634,
				"z": 3.4750577835,
				"element": "H" 
			},
			{
				"x": -4.7776500976,
				"y": 1.460796361,
				"z": 5.0982175502,
				"element": "H" 
			},
			{
				"x": -4.2331424712,
				"y": 3.0498558437,
				"z": 5.5644341753,
				"element": "H" 
			},
			{
				"x": -1.9859109861,
				"y": 2.5813718078,
				"z": 4.5310004759,
				"element": "H" 
			},
			{
				"x": -2.5284384856,
				"y": 0.9668280017,
				"z": 4.0932119591,
				"element": "H" 
			},
			{
				"x": -2.3086185702,
				"y": 2.0768121375,
				"z": 6.9439520961,
				"element": "H" 
			},
			{
				"x": -3.003523607,
				"y": 0.5155828186,
				"z": 6.5524426709,
				"element": "H" 
			},
			{
				"x": -0.8243574251,
				"y": -0.2831211044,
				"z": 5.6607768077,
				"element": "H" 
			},
			{
				"x": -0.7715103278,
				"y": 0.1903785261,
				"z": 7.3444813926,
				"element": "H" 
			},
			{
				"x": 0.1153581824,
				"y": 2.528709824,
				"z": 6.3787378818,
				"element": "H" 
			},
			{
				"x": 1.1912932526,
				"y": 1.1760546598,
				"z": 6.6644418729,
				"element": "H" 
			},
			{
				"x": -0.0015938468,
				"y": 1.853900986,
				"z": 3.9270875838,
				"element": "H" 
			},
			{
				"x": 1.0813083312,
				"y": 0.5141152577,
				"z": 4.2717921064,
				"element": "H" 
			},
			{
				"x": 2.8600448196,
				"y": 2.1150720933,
				"z": 5.0011778705,
				"element": "H" 
			},
			{
				"x": 1.7812546144,
				"y": 3.4845506383,
				"z": 4.6679252852,
				"element": "H" 
			},
			{
				"x": 3.525114049,
				"y": -0.9817978856,
				"z": 1.2978863817,
				"element": "H" 
			},
			{
				"x": 4.2706708154,
				"y": -0.2086647515,
				"z": -0.1137047981,
				"element": "H" 
			},
			{
				"x": 1.9370030119,
				"y": -0.9700884715,
				"z": -0.5755780291,
				"element": "H" 
			},
			{
				"x": 1.3230557716,
				"y": -0.0013752568,
				"z": 0.7566190242,
				"element": "H" 
			},
			{
				"x": 2.6865167479,
				"y": 1.1061033254,
				"z": -1.7601750356,
				"element": "H" 
			},
			{
				"x": 2.1534776311,
				"y": 2.0883975371,
				"z": -0.4081826723,
				"element": "H" 
			},
			{
				"x": 0.5502394281,
				"y": 2.2772839212,
				"z": -2.1621968244,
				"element": "H" 
			},
			{
				"x": -0.2151051608,
				"y": 1.4562081813,
				"z": -0.8208975843,
				"element": "H" 
			},
			{
				"x": -0.5121298731,
				"y": 0.6386987125,
				"z": -3.3711842707,
				"element": "H" 
			},
			{
				"x": 0.980420904,
				"y": -0.2221307875,
				"z": -3.0674142203,
				"element": "H" 
			},
			{
				"x": -0.1602670262,
				"y": -1.3972280941,
				"z": -1.1067838151,
				"element": "H" 
			},
			{
				"x": -1.6186752535,
				"y": -0.4919772678,
				"z": -1.4558289258,
				"element": "H" 
			},
			{
				"x": -0.2559753703,
				"y": -2.4591687791,
				"z": -3.3786595002,
				"element": "H" 
			},
			{
				"x": -1.6969067676,
				"y": -1.5281358253,
				"z": -3.749360401,
				"element": "H" 
			},
			{
				"x": -2.9535917327,
				"y": -2.6842285641,
				"z": -1.8740440857,
				"element": "H" 
			},
			{
				"x": -2.5636271705,
				"y": -4.9837103329,
				"z": -1.7102933141,
				"element": "H" 
			},
			{
				"x": 0.0834784163,
				"y": -4.5154075474,
				"z": -3.2402827553,
				"element": "H" 
			},
			{
				"x": -0.9585805629,
				"y": -5.9149318611,
				"z": -3.4340980932,
				"element": "H" 
			},
			{
				"x": -0.6180284369,
				"y": -6.4924036321,
				"z": -1.0001835176,
				"element": "H" 
			},
			{
				"x": 0.5140501653,
				"y": -5.16014275,
				"z": -0.8570440549,
				"element": "H" 
			},
			{
				"x": 1.6106929599,
				"y": -7.4040271688,
				"z": -1.1621948449,
				"element": "H" 
			},
			{
				"x": 0.8383578472,
				"y": -7.5704993264,
				"z": -2.7287604087,
				"element": "H" 
			},
			{
				"x": 2.7762488432,
				"y": -5.3107076275,
				"z": -1.9898774839,
				"element": "H" 
			},
			{
				"x": 2.1247919261,
				"y": -5.6020531505,
				"z": -3.5890163984,
				"element": "H" 
			},
			{
				"x": 4.4805522868,
				"y": -6.3929714607,
				"z": -3.3217801945,
				"element": "H" 
			},
			{
				"x": 3.9918578295,
				"y": -7.470900058,
				"z": -2.0323097319,
				"element": "H" 
			},
			{
				"x": 4.3183475138,
				"y": -8.7400336217,
				"z": -4.0768231734,
				"element": "H" 
			},
			{
				"x": 2.6389677434,
				"y": -8.8328433392,
				"z": -3.5913621656,
				"element": "H" 
			},
			{
				"x": 2.0159524281,
				"y": -7.1522892526,
				"z": -5.33979791,
				"element": "H" 
			},
			{
				"x": 2.7598347227,
				"y": -8.5937534317,
				"z": -5.9948366219,
				"element": "H" 
			},
			{
				"x": 4.1835895477,
				"y": -5.8868254034,
				"z": -5.6190174265,
				"element": "H" 
			},
			{
				"x": 4.9651081654,
				"y": -7.3584852337,
				"z": -6.2072795904,
				"element": "H" 
			},
			{
				"x": 3.6715478492,
				"y": -6.6035522812,
				"z": -7.1479806225,
				"element": "H" 
			}
		],
		 "valence_orbital": [ 
			{
				"type": "occ",
				"energy": -0.29679,
				"method": "rhf"
			},
			{
				"type": "occ",
				"energy": -0.28792,
				"method": "rhf"
			},
			{
				"type": "occ",
				"energy": -0.26762,
				"method": "rhf"
			},
			{
				"type": "occ",
				"energy": -0.23644,
				"method": "rhf"
			},
			{
				"type": "occ",
				"energy": -0.23552,
				"method": "rhf"
			},
			{
				"type": "unocc",
				"energy": -0.02439,
				"method": "rhf"
			},
			{
				"type": "unocc",
				"energy": 0.01177,
				"method": "rhf"
			},
			{
				"type": "unocc",
				"energy": 0.02868,
				"method": "rhf"
			},
			{
				"type": "unocc",
				"energy": 0.0329,
				"method": "rhf"
			},
			{
				"type": "unocc",
				"energy": 0.06948,
				"method": "rhf"
			}
		],
		"cosmo_sigma_profile": { 
			"-0.025": 0.0,
			"-0.024": 0.0,
			"-0.023": 0.0,
			"-0.022": 0.0,
			"-0.021": 0.0,
			"-0.02": 0.0,
			"-0.019": 0.0,
			"-0.018": 0.0,
			"-0.017": 0.0,
			"-0.016": 0.0,
			"-0.015": 0.0,
			"-0.014": 0.0,
			"-0.013": 0.0,
			"-0.012": 0.0,
			"-0.011": 0.0,
			"-0.01": 0.0,
			"-0.009": 0.0,
			"-0.008": 0.0,
			"-0.007": 1.12603629934,
			"-0.006": 6.13450025169,
			"-0.005": 8.84090009996,
			"-0.004": 15.5006274602,
			"-0.003": 45.415447147,
			"-0.002": 131.475948451,
			"-0.001": 174.223504613,
			"0.0": 157.852804914,
			"0.001": 120.142790933,
			"0.002": 50.8411893026,
			"0.003": 15.1499249938,
			"0.004": 11.4401209702,
			"0.005": 9.10565233031,
			"0.006": 7.42880182356,
			"0.007": 7.43737120202,
			"0.008": 4.48653572826,
			"0.009": 4.42501834641,
			"0.01": 8.25095669976,
			"0.011": 8.88850090346,
			"0.012": 1.12369918264,
			"0.013": 0.0,
			"0.014": 0.0,
			"0.015": 0.0,
			"0.016": 0.0,
			"0.017": 0.0,
			"0.018": 0.0,
			"0.019": 0.0,
			"0.02": 0.0,
			"0.021": 0.0,
			"0.022": 0.0,
			"0.023": 0.0,
			"0.024": 0.0,
			"0.025": 0.0
		}
	}
}
