{
	 "smiles": "O=CC1=CC(OCC2=CC=CC=C2)=CC=C1", 
	 "Tm": 329.15, 
	 "num_atms": 28, 
	 "gaussian": { 
		 "optdone": 1, 
		 "sigma_profile": "yes", 
		 "theory": "DFT", 
		 "functional": "B3LYP", 
		 "basiset": "6-31G**", 
		 "properties": { 
			 "R2extent": 5003.4422, 
			 "electric_dipole_moment_norm": 2.04049831659, 
			 "electric_quadrupole_moment_norm": 15.1989202255, 
			 "total_energy": -691.153350871, 
			 "HOMO_LUMO_gap": 0.17191, 
			 "cosmo_polarized_energy": -10.37, 
			 "cosmo_cavitation_energy": 32.62, 
			 "cosmo_dispersion_energy": -22.65, 
			 "cosmo_repulsion_energy": 1.77, 
			 "cosmo_total_nonelectrostatic_energy": 11.74, 
			 "SMD_solvation_energy": 6.71 
		},
		"coords": [
			{
				"x": -0.0006876749,
				"y": -0.9395827281,
				"z": 4.8690271766,
				"element": "O" 
			},
			{
				"x": -0.1852412014,
				"y": 0.2610776816,
				"z": 4.7967323984,
				"element": "C" 
			},
			{
				"x": 0.2619577091,
				"y": 1.1180623665,
				"z": 3.6754506289,
				"element": "C" 
			},
			{
				"x": 0.9371551336,
				"y": 0.5352230215,
				"z": 2.5903927333,
				"element": "C" 
			},
			{
				"x": 1.3646716539,
				"y": 1.3435429813,
				"z": 1.5384721664,
				"element": "C" 
			},
			{
				"x": 2.0479278673,
				"y": 0.908654302,
				"z": 0.4384383006,
				"element": "O" 
			},
			{
				"x": 2.426115209,
				"y": -0.4676293545,
				"z": 0.3520754651,
				"element": "C" 
			},
			{
				"x": 1.2933350771,
				"y": -1.3949593322,
				"z": -0.0413538721,
				"element": "C" 
			},
			{
				"x": 1.2381459475,
				"y": -2.6962945743,
				"z": 0.4697117306,
				"element": "C" 
			},
			{
				"x": 0.2319615086,
				"y": -3.5753864314,
				"z": 0.0647989029,
				"element": "C" 
			},
			{
				"x": -0.7345688859,
				"y": -3.1565310864,
				"z": -0.8503498123,
				"element": "C" 
			},
			{
				"x": -0.6886741095,
				"y": -1.8563792945,
				"z": -1.3594895737,
				"element": "C" 
			},
			{
				"x": 0.321498029,
				"y": -0.9815755547,
				"z": -0.9607458157,
				"element": "C" 
			},
			{
				"x": 1.1056423344,
				"y": 2.7265546001,
				"z": 1.5716112736,
				"element": "C" 
			},
			{
				"x": 0.4321107285,
				"y": 3.293102679,
				"z": 2.6479486377,
				"element": "C" 
			},
			{
				"x": 0.0065624233,
				"y": 2.4917185447,
				"z": 3.7102521825,
				"element": "C" 
			},
			{
				"x": -0.7217697404,
				"y": 0.8046076182,
				"z": 5.6062647732,
				"element": "H" 
			},
			{
				"x": 1.0864901031,
				"y": -0.5370472714,
				"z": 2.6039465057,
				"element": "H" 
			},
			{
				"x": 2.8896021141,
				"y": -0.796726893,
				"z": 1.290871366,
				"element": "H" 
			},
			{
				"x": 3.2046995872,
				"y": -0.4740642575,
				"z": -0.4181759986,
				"element": "H" 
			},
			{
				"x": 1.9821432614,
				"y": -3.0241464119,
				"z": 1.1922882792,
				"element": "H" 
			},
			{
				"x": 0.1980346084,
				"y": -4.5813470942,
				"z": 0.4729638536,
				"element": "H" 
			},
			{
				"x": -1.522208499,
				"y": -3.8367177202,
				"z": -1.1613149617,
				"element": "H" 
			},
			{
				"x": -1.4409299414,
				"y": -1.5235180882,
				"z": -2.0691087915,
				"element": "H" 
			},
			{
				"x": 0.3567814124,
				"y": 0.0306533542,
				"z": -1.3521037767,
				"element": "H" 
			},
			{
				"x": 1.4487251453,
				"y": 3.332860532,
				"z": 0.7393537732,
				"element": "H" 
			},
			{
				"x": 0.242112276,
				"y": 4.3622118254,
				"z": 2.6579274004,
				"element": "H" 
			},
			{
				"x": -0.5190920769,
				"y": 2.9244365861,
				"z": 4.5573150545,
				"element": "H" 
			}
		],
		 "valence_orbital": [ 
			{
				"type": "occ",
				"energy": -0.26122,
				"method": "rhf"
			},
			{
				"type": "occ",
				"energy": -0.25295,
				"method": "rhf"
			},
			{
				"type": "occ",
				"energy": -0.25193,
				"method": "rhf"
			},
			{
				"type": "occ",
				"energy": -0.24751,
				"method": "rhf"
			},
			{
				"type": "occ",
				"energy": -0.23167,
				"method": "rhf"
			},
			{
				"type": "unocc",
				"energy": -0.05976,
				"method": "rhf"
			},
			{
				"type": "unocc",
				"energy": -0.00831,
				"method": "rhf"
			},
			{
				"type": "unocc",
				"energy": -0.00515,
				"method": "rhf"
			},
			{
				"type": "unocc",
				"energy": 0.00065,
				"method": "rhf"
			},
			{
				"type": "unocc",
				"energy": 0.04554,
				"method": "rhf"
			}
		],
		"cosmo_sigma_profile": { 
			"-0.025": 0.0,
			"-0.024": 0.0,
			"-0.023": 0.0,
			"-0.022": 0.0,
			"-0.021": 0.0,
			"-0.02": 0.0,
			"-0.019": 0.0,
			"-0.018": 0.0,
			"-0.017": 0.0,
			"-0.016": 0.0,
			"-0.015": 0.0,
			"-0.014": 0.0,
			"-0.013": 0.0,
			"-0.012": 0.0,
			"-0.011": 0.0,
			"-0.01": 0.0,
			"-0.009": 0.0,
			"-0.008": 0.435620666019,
			"-0.007": 8.53462959464,
			"-0.006": 20.402423285,
			"-0.005": 23.162915447,
			"-0.004": 23.2928450305,
			"-0.003": 20.3886391345,
			"-0.002": 14.8644088399,
			"-0.001": 16.4240679154,
			"0.0": 13.7737258745,
			"0.001": 17.055341234,
			"0.002": 22.8585941027,
			"0.003": 23.6506620966,
			"0.004": 17.5681902937,
			"0.005": 11.8185689765,
			"0.006": 7.52122521184,
			"0.007": 2.80299491638,
			"0.008": 2.24869479388,
			"0.009": 3.58836614346,
			"0.01": 2.93287266428,
			"0.011": 3.65331946119,
			"0.012": 3.42595762266,
			"0.013": 0.826506098405,
			"0.014": 0.0,
			"0.015": 0.0,
			"0.016": 0.0,
			"0.017": 0.0,
			"0.018": 0.0,
			"0.019": 0.0,
			"0.02": 0.0,
			"0.021": 0.0,
			"0.022": 0.0,
			"0.023": 0.0,
			"0.024": 0.0,
			"0.025": 0.0
		}
	}
}
