{
	 "smiles": "CC1CNCCC1NC(=O)OC(C)(C)C", 
	 "Tm": 378.15, 
	 "num_atms": 37, 
	 "gaussian": { 
		 "optdone": 1, 
		 "sigma_profile": "yes", 
		 "theory": "DFT", 
		 "functional": "B3LYP", 
		 "basiset": "6-31G**", 
		 "properties": { 
			 "R2extent": 3892.4022, 
			 "electric_dipole_moment_norm": 2.86188182495, 
			 "electric_quadrupole_moment_norm": 6.72189227153, 
			 "total_energy": -692.41429749, 
			 "HOMO_LUMO_gap": 0.27455, 
			 "cosmo_polarized_energy": -10.33, 
			 "cosmo_cavitation_energy": 36.14, 
			 "cosmo_dispersion_energy": -24.37, 
			 "cosmo_repulsion_energy": 1.92, 
			 "cosmo_total_nonelectrostatic_energy": 13.69, 
			 "SMD_solvation_energy": 4.59 
		},
		"coords": [
			{
				"x": 0.0620049099,
				"y": -2.193460728,
				"z": 2.1650807269,
				"element": "C" 
			},
			{
				"x": 0.8148965601,
				"y": -0.8963107522,
				"z": 1.8571744182,
				"element": "C" 
			},
			{
				"x": 1.4777487351,
				"y": -0.333881647,
				"z": 3.1434394331,
				"element": "C" 
			},
			{
				"x": 2.7037580398,
				"y": 0.412923564,
				"z": 2.8371437588,
				"element": "N" 
			},
			{
				"x": 2.5597473731,
				"y": 1.2439121951,
				"z": 1.6429202575,
				"element": "C" 
			},
			{
				"x": 2.5154384238,
				"y": 0.3203991677,
				"z": 0.4078512985,
				"element": "C" 
			},
			{
				"x": 1.8996754356,
				"y": -1.0550882142,
				"z": 0.7667457682,
				"element": "C" 
			},
			{
				"x": 1.4710500122,
				"y": -1.8021397455,
				"z": -0.4216411106,
				"element": "N" 
			},
			{
				"x": 0.5079855407,
				"y": -1.508265525,
				"z": -1.347283643,
				"element": "C" 
			},
			{
				"x": 0.309361742,
				"y": -2.199517317,
				"z": -2.3357293069,
				"element": "O" 
			},
			{
				"x": -0.1792040644,
				"y": -0.3851532187,
				"z": -1.0141647757,
				"element": "O" 
			},
			{
				"x": -1.2702051326,
				"y": 0.1069114565,
				"z": -1.8709524824,
				"element": "C" 
			},
			{
				"x": -1.7420474169,
				"y": 1.3596069823,
				"z": -1.1274637586,
				"element": "C" 
			},
			{
				"x": -2.3927920795,
				"y": -0.9341024577,
				"z": -1.9430392637,
				"element": "C" 
			},
			{
				"x": -0.7282667499,
				"y": 0.4723167966,
				"z": -3.2572510948,
				"element": "C" 
			},
			{
				"x": 0.7545944374,
				"y": -2.9909107123,
				"z": 2.4611125738,
				"element": "H" 
			},
			{
				"x": -0.6423520183,
				"y": -2.0435565749,
				"z": 2.9911911725,
				"element": "H" 
			},
			{
				"x": -0.5057313818,
				"y": -2.5443624654,
				"z": 1.2998048755,
				"element": "H" 
			},
			{
				"x": 0.0899561438,
				"y": -0.1629826328,
				"z": 1.4882177587,
				"element": "H" 
			},
			{
				"x": 0.7246261814,
				"y": 0.2736094573,
				"z": 3.6783075497,
				"element": "H" 
			},
			{
				"x": 1.7458963869,
				"y": -1.1644019214,
				"z": 3.8105448913,
				"element": "H" 
			},
			{
				"x": 2.9799729588,
				"y": 0.9724004223,
				"z": 3.6377875685,
				"element": "H" 
			},
			{
				"x": 1.6545808989,
				"y": 1.8800813788,
				"z": 1.6703989786,
				"element": "H" 
			},
			{
				"x": 3.4165291179,
				"y": 1.9224920365,
				"z": 1.5795816904,
				"element": "H" 
			},
			{
				"x": 1.9220183009,
				"y": 0.7859747284,
				"z": -0.3829165372,
				"element": "H" 
			},
			{
				"x": 3.5245615024,
				"y": 0.1595747259,
				"z": 0.0137036862,
				"element": "H" 
			},
			{
				"x": 2.6920128376,
				"y": -1.6734223299,
				"z": 1.2016679657,
				"element": "H" 
			},
			{
				"x": 1.9879529445,
				"y": -2.6307549994,
				"z": -0.671917898,
				"element": "H" 
			},
			{
				"x": -0.9283272382,
				"y": 2.0848995658,
				"z": -1.034232338,
				"element": "H" 
			},
			{
				"x": -2.0950233322,
				"y": 1.1049400028,
				"z": -0.1237071101,
				"element": "H" 
			},
			{
				"x": -2.5646586993,
				"y": 1.8317759004,
				"z": -1.6729077895,
				"element": "H" 
			},
			{
				"x": -2.728553163,
				"y": -1.2004572132,
				"z": -0.9355871352,
				"element": "H" 
			},
			{
				"x": -2.0548241815,
				"y": -1.8355589538,
				"z": -2.4539698092,
				"element": "H" 
			},
			{
				"x": -3.2471870651,
				"y": -0.5160913235,
				"z": -2.4855339903,
				"element": "H" 
			},
			{
				"x": 0.0936362098,
				"y": 1.1899662472,
				"z": -3.1670241272,
				"element": "H" 
			},
			{
				"x": -0.3689454997,
				"y": -0.4138194427,
				"z": -3.7802567936,
				"element": "H" 
			},
			{
				"x": -1.5216866703,
				"y": 0.9387535469,
				"z": -3.8504954081,
				"element": "H" 
			}
		],
		 "valence_orbital": [ 
			{
				"type": "occ",
				"energy": -0.30988,
				"method": "rhf"
			},
			{
				"type": "occ",
				"energy": -0.28324,
				"method": "rhf"
			},
			{
				"type": "occ",
				"energy": -0.2555,
				"method": "rhf"
			},
			{
				"type": "occ",
				"energy": -0.24019,
				"method": "rhf"
			},
			{
				"type": "occ",
				"energy": -0.21463,
				"method": "rhf"
			},
			{
				"type": "unocc",
				"energy": 0.05992,
				"method": "rhf"
			},
			{
				"type": "unocc",
				"energy": 0.07028,
				"method": "rhf"
			},
			{
				"type": "unocc",
				"energy": 0.07914,
				"method": "rhf"
			},
			{
				"type": "unocc",
				"energy": 0.08695,
				"method": "rhf"
			},
			{
				"type": "unocc",
				"energy": 0.105,
				"method": "rhf"
			}
		],
		"cosmo_sigma_profile": { 
			"-0.025": 0.0,
			"-0.024": 0.0,
			"-0.023": 0.0,
			"-0.022": 0.0,
			"-0.021": 0.0,
			"-0.02": 0.0,
			"-0.019": 0.0,
			"-0.018": 0.0,
			"-0.017": 0.0,
			"-0.016": 0.0,
			"-0.015": 0.0,
			"-0.014": 0.202589636348,
			"-0.013": 1.08747451767,
			"-0.012": 0.810840775599,
			"-0.011": 0.996830316307,
			"-0.01": 2.26802470238,
			"-0.009": 2.17220266445,
			"-0.008": 1.78550605553,
			"-0.007": 1.56158929291,
			"-0.006": 2.63497935959,
			"-0.005": 3.27420793049,
			"-0.004": 13.1143541935,
			"-0.003": 25.9359129252,
			"-0.002": 37.3125303687,
			"-0.001": 45.8350291256,
			"0.0": 46.7268031298,
			"0.001": 36.3558022432,
			"0.002": 15.0598571372,
			"0.003": 8.48142298476,
			"0.004": 4.24608194044,
			"0.005": 4.05155937643,
			"0.006": 2.5815878383,
			"0.007": 2.49653698187,
			"0.008": 1.86946661376,
			"0.009": 2.37891289945,
			"0.01": 2.29599774948,
			"0.011": 1.88130449078,
			"0.012": 2.0438246261,
			"0.013": 3.39372567972,
			"0.014": 3.49778197951,
			"0.015": 0.554013288535,
			"0.016": 0.746416708109,
			"0.017": 0.460030961791,
			"0.018": 0.0201555604132,
			"0.019": 0.0,
			"0.02": 0.0,
			"0.021": 0.0,
			"0.022": 0.0,
			"0.023": 0.0,
			"0.024": 0.0,
			"0.025": 0.0
		}
	}
}
