{
	 "smiles": "CC1=CC(C(O)=O)=C(C)N1C1CCCCC1", 
	 "Tm": 478.15, 
	 "num_atms": 35, 
	 "gaussian": { 
		 "optdone": 1, 
		 "sigma_profile": "yes", 
		 "theory": "DFT", 
		 "functional": "B3LYP", 
		 "basiset": "6-31G**", 
		 "properties": { 
			 "R2extent": 4357.7042, 
			 "electric_dipole_moment_norm": 6.85871856909, 
			 "electric_quadrupole_moment_norm": 19.8214589955, 
			 "total_energy": -712.0557779, 
			 "HOMO_LUMO_gap": 0.20222, 
			 "cosmo_polarized_energy": -15.29, 
			 "cosmo_cavitation_energy": 34.0, 
			 "cosmo_dispersion_energy": -24.8, 
			 "cosmo_repulsion_energy": 1.9, 
			 "cosmo_total_nonelectrostatic_energy": 11.11, 
			 "SMD_solvation_energy": 5.94 
		},
		"coords": [
			{
				"x": -1.4435797602,
				"y": 2.4974903364,
				"z": -0.7359299049,
				"element": "C" 
			},
			{
				"x": -1.1308273525,
				"y": 1.0394025821,
				"z": -0.847381896,
				"element": "C" 
			},
			{
				"x": -1.9265532447,
				"y": 0.0994909291,
				"z": -1.4544247569,
				"element": "C" 
			},
			{
				"x": -1.2853220919,
				"y": -1.1722541285,
				"z": -1.3559148733,
				"element": "C" 
			},
			{
				"x": -1.770302547,
				"y": -2.4639501199,
				"z": -1.8716391058,
				"element": "C" 
			},
			{
				"x": -2.8328291874,
				"y": -2.3947834596,
				"z": -2.7283322578,
				"element": "O" 
			},
			{
				"x": -1.3151122125,
				"y": -3.5566271438,
				"z": -1.5981374267,
				"element": "O" 
			},
			{
				"x": -0.0889784816,
				"y": -0.9658133661,
				"z": -0.6759454532,
				"element": "C" 
			},
			{
				"x": 0.9616087035,
				"y": -1.9746575897,
				"z": -0.329096277,
				"element": "C" 
			},
			{
				"x": 0.0106284837,
				"y": 0.3833713412,
				"z": -0.3738605113,
				"element": "N" 
			},
			{
				"x": 1.1761442998,
				"y": 0.8782766866,
				"z": 0.4052526126,
				"element": "C" 
			},
			{
				"x": 1.7795761323,
				"y": 2.2448479285,
				"z": -0.0201707991,
				"element": "C" 
			},
			{
				"x": 1.3628134634,
				"y": 3.4968367295,
				"z": 0.7789388483,
				"element": "C" 
			},
			{
				"x": 1.2993200252,
				"y": 3.2423416585,
				"z": 2.2915286892,
				"element": "C" 
			},
			{
				"x": 0.4062913025,
				"y": 2.0346348613,
				"z": 2.6042158998,
				"element": "C" 
			},
			{
				"x": 0.9610536964,
				"y": 0.7702720059,
				"z": 1.9375530641,
				"element": "C" 
			},
			{
				"x": -1.5094698648,
				"y": 2.8494279549,
				"z": 0.2983940068,
				"element": "H" 
			},
			{
				"x": -2.4192012533,
				"y": 2.6697846514,
				"z": -1.1974920062,
				"element": "H" 
			},
			{
				"x": -0.7212786069,
				"y": 3.1326053089,
				"z": -1.2594680066,
				"element": "H" 
			},
			{
				"x": -2.893939947,
				"y": 0.3251375874,
				"z": -1.8864261115,
				"element": "H" 
			},
			{
				"x": -3.0124928825,
				"y": -1.4708944429,
				"z": -2.9489271763,
				"element": "H" 
			},
			{
				"x": 0.6021903949,
				"y": -2.9547843362,
				"z": -0.6413313055,
				"element": "H" 
			},
			{
				"x": 1.1660988616,
				"y": -2.0125448126,
				"z": 0.7471228135,
				"element": "H" 
			},
			{
				"x": 1.9133022602,
				"y": -1.7749292923,
				"z": -0.8388674695,
				"element": "H" 
			},
			{
				"x": 1.9465724254,
				"y": 0.1488560983,
				"z": 0.1561473474,
				"element": "H" 
			},
			{
				"x": 2.863463366,
				"y": 2.1305400129,
				"z": 0.108579371,
				"element": "H" 
			},
			{
				"x": 1.6244482163,
				"y": 2.3952596805,
				"z": -1.0938366361,
				"element": "H" 
			},
			{
				"x": 0.390832108,
				"y": 3.8679611315,
				"z": 0.4474216218,
				"element": "H" 
			},
			{
				"x": 2.0808084232,
				"y": 4.2961958752,
				"z": 0.5600810506,
				"element": "H" 
			},
			{
				"x": 2.3092496322,
				"y": 3.0507689689,
				"z": 2.6818457851,
				"element": "H" 
			},
			{
				"x": 0.9323189181,
				"y": 4.1388673523,
				"z": 2.804223182,
				"element": "H" 
			},
			{
				"x": -0.619049367,
				"y": 2.2281543704,
				"z": 2.263140072,
				"element": "H" 
			},
			{
				"x": 0.3441125507,
				"y": 1.8732852393,
				"z": 3.6866123613,
				"element": "H" 
			},
			{
				"x": 0.3258272768,
				"y": -0.0960018714,
				"z": 2.1475081193,
				"element": "H" 
			},
			{
				"x": 1.9407762593,
				"y": 0.5553312723,
				"z": 2.386117129,
				"element": "H" 
			}
		],
		 "valence_orbital": [ 
			{
				"type": "occ",
				"energy": -0.31616,
				"method": "rhf"
			},
			{
				"type": "occ",
				"energy": -0.29353,
				"method": "rhf"
			},
			{
				"type": "occ",
				"energy": -0.25122,
				"method": "rhf"
			},
			{
				"type": "occ",
				"energy": -0.24287,
				"method": "rhf"
			},
			{
				"type": "occ",
				"energy": -0.20743,
				"method": "rhf"
			},
			{
				"type": "unocc",
				"energy": -0.00521,
				"method": "rhf"
			},
			{
				"type": "unocc",
				"energy": 0.03357,
				"method": "rhf"
			},
			{
				"type": "unocc",
				"energy": 0.05859,
				"method": "rhf"
			},
			{
				"type": "unocc",
				"energy": 0.07462,
				"method": "rhf"
			},
			{
				"type": "unocc",
				"energy": 0.07926,
				"method": "rhf"
			}
		],
		"cosmo_sigma_profile": { 
			"-0.025": 0.0,
			"-0.024": 0.0,
			"-0.023": 0.0,
			"-0.022": 0.0,
			"-0.021": 0.0,
			"-0.02": 0.0,
			"-0.019": 0.0,
			"-0.018": 0.0,
			"-0.017": 0.656190608044,
			"-0.016": 0.385359185641,
			"-0.015": 1.16623105262,
			"-0.014": 1.13367441847,
			"-0.013": 0.73052887924,
			"-0.012": 0.279653069894,
			"-0.011": 1.38371105152,
			"-0.01": 1.28138924906,
			"-0.009": 1.21233122326,
			"-0.008": 0.93848048505,
			"-0.007": 1.28128684279,
			"-0.006": 3.26133239064,
			"-0.005": 9.66638740308,
			"-0.004": 21.889014128,
			"-0.003": 28.1344856294,
			"-0.002": 34.687965909,
			"-0.001": 37.5139301556,
			"0.0": 35.9268587566,
			"0.001": 19.8123528016,
			"0.002": 8.35284457012,
			"0.003": 6.55482293659,
			"0.004": 6.82163395526,
			"0.005": 6.82220517737,
			"0.006": 5.56279295161,
			"0.007": 5.27159792475,
			"0.008": 2.98004524323,
			"0.009": 2.82366859391,
			"0.01": 2.86849743501,
			"0.011": 4.33918116967,
			"0.012": 5.36053887742,
			"0.013": 3.93419213773,
			"0.014": 2.04776511488,
			"0.015": 0.307740630928,
			"0.016": 0.0,
			"0.017": 0.0,
			"0.018": 0.0,
			"0.019": 0.0,
			"0.02": 0.0,
			"0.021": 0.0,
			"0.022": 0.0,
			"0.023": 0.0,
			"0.024": 0.0,
			"0.025": 0.0
		}
	}
}
