{
	 "smiles": "O=CC1=CC=CC=C1N1CCOCC1", 
	 "Tm": 318.65, 
	 "num_atms": 27, 
	 "gaussian": { 
		 "optdone": 1, 
		 "sigma_profile": "yes", 
		 "theory": "DFT", 
		 "functional": "B3LYP", 
		 "basiset": "6-31G**", 
		 "properties": { 
			 "R2extent": 3963.5052, 
			 "electric_dipole_moment_norm": 3.31865788234, 
			 "electric_quadrupole_moment_norm": 15.8813919157, 
			 "total_energy": -632.158825816, 
			 "HOMO_LUMO_gap": 0.15488, 
			 "cosmo_polarized_energy": -11.22, 
			 "cosmo_cavitation_energy": 29.02, 
			 "cosmo_dispersion_energy": -21.17, 
			 "cosmo_repulsion_energy": 1.65, 
			 "cosmo_total_nonelectrostatic_energy": 9.49, 
			 "SMD_solvation_energy": 5.02 
		},
		"coords": [
			{
				"x": -1.0383306728,
				"y": -2.1324870099,
				"z": -4.3282759183,
				"element": "O" 
			},
			{
				"x": -1.3432042784,
				"y": -1.5185595368,
				"z": -3.31963309,
				"element": "C" 
			},
			{
				"x": -0.6583938397,
				"y": -1.6749501773,
				"z": -2.0147280657,
				"element": "C" 
			},
			{
				"x": 0.2289378812,
				"y": -2.7508690814,
				"z": -1.8568400132,
				"element": "C" 
			},
			{
				"x": 0.7943200659,
				"y": -3.034370027,
				"z": -0.6203523448,
				"element": "C" 
			},
			{
				"x": 0.4711954543,
				"y": -2.2276105741,
				"z": 0.4759008541,
				"element": "C" 
			},
			{
				"x": -0.3826555886,
				"y": -1.1357836866,
				"z": 0.3297689083,
				"element": "C" 
			},
			{
				"x": -0.9560831471,
				"y": -0.830606915,
				"z": -0.9169643638,
				"element": "C" 
			},
			{
				"x": -1.7888068607,
				"y": 0.3003275615,
				"z": -1.1210710856,
				"element": "N" 
			},
			{
				"x": -1.1544013447,
				"y": 1.4139628752,
				"z": -1.8610615751,
				"element": "C" 
			},
			{
				"x": -2.0235811945,
				"y": 2.6620251266,
				"z": -1.7605497881,
				"element": "C" 
			},
			{
				"x": -2.1626276194,
				"y": 3.1284191168,
				"z": -0.4216487079,
				"element": "O" 
			},
			{
				"x": -2.1859181429,
				"y": 2.0968803106,
				"z": 0.5644951332,
				"element": "C" 
			},
			{
				"x": -2.6458156456,
				"y": 0.7600110221,
				"z": -0.015336217,
				"element": "C" 
			},
			{
				"x": -2.2006862057,
				"y": -0.8175756465,
				"z": -3.3159030044,
				"element": "H" 
			},
			{
				"x": 0.4295273228,
				"y": -3.366527185,
				"z": -2.7283451708,
				"element": "H" 
			},
			{
				"x": 1.4705275895,
				"y": -3.8753909758,
				"z": -0.5025505985,
				"element": "H" 
			},
			{
				"x": 0.9038272607,
				"y": -2.4369737815,
				"z": 1.4504787179,
				"element": "H" 
			},
			{
				"x": -0.5815761246,
				"y": -0.5007773188,
				"z": 1.1869539029,
				"element": "H" 
			},
			{
				"x": -1.0258586873,
				"y": 1.1464512772,
				"z": -2.9157469228,
				"element": "H" 
			},
			{
				"x": -0.1544103093,
				"y": 1.6406184263,
				"z": -1.45738014,
				"element": "H" 
			},
			{
				"x": -3.0106595845,
				"y": 2.4586844237,
				"z": -2.2046022204,
				"element": "H" 
			},
			{
				"x": -1.5653076943,
				"y": 3.4768188348,
				"z": -2.3294557264,
				"element": "H" 
			},
			{
				"x": -2.8708483253,
				"y": 2.4225968211,
				"z": 1.3560399916,
				"element": "H" 
			},
			{
				"x": -1.1855602793,
				"y": 1.9886665744,
				"z": 1.0127069759,
				"element": "H" 
			},
			{
				"x": -3.6743696308,
				"y": 0.8724618492,
				"z": -0.3844517622,
				"element": "H" 
			},
			{
				"x": -2.6790403991,
				"y": -0.0022423037,
				"z": 0.7663522313,
				"element": "H" 
			}
		],
		 "valence_orbital": [ 
			{
				"type": "occ",
				"energy": -0.27681,
				"method": "rhf"
			},
			{
				"type": "occ",
				"energy": -0.26064,
				"method": "rhf"
			},
			{
				"type": "occ",
				"energy": -0.25516,
				"method": "rhf"
			},
			{
				"type": "occ",
				"energy": -0.24837,
				"method": "rhf"
			},
			{
				"type": "occ",
				"energy": -0.21431,
				"method": "rhf"
			},
			{
				"type": "unocc",
				"energy": -0.05943,
				"method": "rhf"
			},
			{
				"type": "unocc",
				"energy": -0.01068,
				"method": "rhf"
			},
			{
				"type": "unocc",
				"energy": 0.0365,
				"method": "rhf"
			},
			{
				"type": "unocc",
				"energy": 0.0729,
				"method": "rhf"
			},
			{
				"type": "unocc",
				"energy": 0.08823,
				"method": "rhf"
			}
		],
		"cosmo_sigma_profile": { 
			"-0.025": 0.0,
			"-0.024": 0.0,
			"-0.023": 0.0,
			"-0.022": 0.0,
			"-0.021": 0.0,
			"-0.02": 0.0,
			"-0.019": 0.0,
			"-0.018": 0.0,
			"-0.017": 0.0,
			"-0.016": 0.0,
			"-0.015": 0.0,
			"-0.014": 0.0,
			"-0.013": 0.0,
			"-0.012": 0.0,
			"-0.011": 0.0,
			"-0.01": 0.0,
			"-0.009": 0.0,
			"-0.008": 0.011974656275,
			"-0.007": 2.71613837516,
			"-0.006": 11.4476141778,
			"-0.005": 22.2294952586,
			"-0.004": 30.7487974879,
			"-0.003": 27.2035315562,
			"-0.002": 21.1231509861,
			"-0.001": 15.0150866365,
			"0.0": 12.3111890957,
			"0.001": 11.8041166082,
			"0.002": 11.3708399409,
			"0.003": 13.4698027115,
			"0.004": 14.0670029495,
			"0.005": 5.59448899256,
			"0.006": 3.44330128845,
			"0.007": 2.34476366748,
			"0.008": 3.2025441431,
			"0.009": 3.59951841969,
			"0.01": 3.25278336936,
			"0.011": 4.12616410613,
			"0.012": 5.92928648956,
			"0.013": 3.37828536579,
			"0.014": 0.893089186637,
			"0.015": 0.0,
			"0.016": 0.0,
			"0.017": 0.0,
			"0.018": 0.0,
			"0.019": 0.0,
			"0.02": 0.0,
			"0.021": 0.0,
			"0.022": 0.0,
			"0.023": 0.0,
			"0.024": 0.0,
			"0.025": 0.0
		}
	}
}
