{
	 "smiles": "OC1CC(C1)C1=CC=C(Br)C=C1", 
	 "Tm": 333.15, 
	 "num_atms": 23, 
	 "gaussian": { 
		 "optdone": 1, 
		 "sigma_profile": "yes", 
		 "theory": "DFT", 
		 "functional": "B3LYP", 
		 "basiset": "6-31G**", 
		 "properties": { 
			 "R2extent": 5179.0256, 
			 "electric_dipole_moment_norm": 3.57498408388, 
			 "electric_quadrupole_moment_norm": 7.38177439373, 
			 "total_energy": -3034.29054844, 
			 "HOMO_LUMO_gap": 0.21967, 
			 "cosmo_polarized_energy": -8.07, 
			 "cosmo_cavitation_energy": 27.88, 
			 "cosmo_dispersion_energy": -20.97, 
			 "cosmo_repulsion_energy": 1.69, 
			 "cosmo_total_nonelectrostatic_energy": 8.6, 
			 "SMD_solvation_energy": 3.22 
		},
		"coords": [
			{
				"x": -0.6702118955,
				"y": 0.6705618008,
				"z": 2.8265384003,
				"element": "O" 
			},
			{
				"x": -0.1721025133,
				"y": 1.7853897611,
				"z": 2.0985301416,
				"element": "C" 
			},
			{
				"x": -0.9885490973,
				"y": 2.1538238328,
				"z": 0.8278798123,
				"element": "C" 
			},
			{
				"x": 0.135891228,
				"y": 1.5480567162,
				"z": -0.0824805943,
				"element": "C" 
			},
			{
				"x": 1.0058747044,
				"y": 1.3409230349,
				"z": 1.2046427404,
				"element": "C" 
			},
			{
				"x": -0.2220409023,
				"y": 0.3120185057,
				"z": -0.871928943,
				"element": "C" 
			},
			{
				"x": -0.0199136825,
				"y": 0.2676839272,
				"z": -2.2569158452,
				"element": "C" 
			},
			{
				"x": -0.3478600415,
				"y": -0.8633536936,
				"z": -3.0072352801,
				"element": "C" 
			},
			{
				"x": -0.8875845107,
				"y": -1.9698976457,
				"z": -2.3583119368,
				"element": "C" 
			},
			{
				"x": -1.3433165362,
				"y": -3.5291558418,
				"z": -3.3712102651,
				"element": "Br" 
			},
			{
				"x": -1.1010366901,
				"y": -1.9593535931,
				"z": -0.9802020757,
				"element": "C" 
			},
			{
				"x": -0.7681776591,
				"y": -0.8217673162,
				"z": -0.247041073,
				"element": "C" 
			},
			{
				"x": -1.5070489421,
				"y": 0.9303169881,
				"z": 3.2347614985,
				"element": "H" 
			},
			{
				"x": 0.0386551331,
				"y": 2.6249191714,
				"z": 2.7760518912,
				"element": "H" 
			},
			{
				"x": -1.1282582616,
				"y": 3.2296307791,
				"z": 0.6845916909,
				"element": "H" 
			},
			{
				"x": -1.9615043356,
				"y": 1.6586918936,
				"z": 0.7571271928,
				"element": "H" 
			},
			{
				"x": 0.5634950072,
				"y": 2.2881807446,
				"z": -0.764895239,
				"element": "H" 
			},
			{
				"x": 1.8753534679,
				"y": 2.0019277039,
				"z": 1.2543951643,
				"element": "H" 
			},
			{
				"x": 1.3287254365,
				"y": 0.3149909137,
				"z": 1.3965114277,
				"element": "H" 
			},
			{
				"x": 0.4022292438,
				"y": 1.1312875532,
				"z": -2.7649340808,
				"element": "H" 
			},
			{
				"x": -0.1852269035,
				"y": -0.8825504829,
				"z": -4.0790015965,
				"element": "H" 
			},
			{
				"x": -1.52073721,
				"y": -2.8293603133,
				"z": -0.4875400318,
				"element": "H" 
			},
			{
				"x": -0.9321550396,
				"y": -0.8115644399,
				"z": 0.8274670013,
				"element": "H" 
			}
		],
		 "valence_orbital": [ 
			{
				"type": "occ",
				"energy": -0.29492,
				"method": "rhf"
			},
			{
				"type": "occ",
				"energy": -0.28046,
				"method": "rhf"
			},
			{
				"type": "occ",
				"energy": -0.26641,
				"method": "rhf"
			},
			{
				"type": "occ",
				"energy": -0.25546,
				"method": "rhf"
			},
			{
				"type": "occ",
				"energy": -0.22931,
				"method": "rhf"
			},
			{
				"type": "unocc",
				"energy": -0.00964,
				"method": "rhf"
			},
			{
				"type": "unocc",
				"energy": -0.00558,
				"method": "rhf"
			},
			{
				"type": "unocc",
				"energy": 0.01396,
				"method": "rhf"
			},
			{
				"type": "unocc",
				"energy": 0.06366,
				"method": "rhf"
			},
			{
				"type": "unocc",
				"energy": 0.08743,
				"method": "rhf"
			}
		],
		"cosmo_sigma_profile": { 
			"-0.025": 0.0,
			"-0.024": 0.0,
			"-0.023": 0.0,
			"-0.022": 0.0,
			"-0.021": 0.0,
			"-0.02": 0.0,
			"-0.019": 0.0,
			"-0.018": 0.0,
			"-0.017": 0.0,
			"-0.016": 0.203499555634,
			"-0.015": 1.09972219919,
			"-0.014": 0.985793032003,
			"-0.013": 0.849436106972,
			"-0.012": 0.734318471813,
			"-0.011": 0.960688098739,
			"-0.01": 0.824313945053,
			"-0.009": 0.87181289825,
			"-0.008": 0.538498317849,
			"-0.007": 2.55359249606,
			"-0.006": 6.03329767848,
			"-0.005": 8.12087742558,
			"-0.004": 15.7589869819,
			"-0.003": 25.0043872437,
			"-0.002": 21.0166280841,
			"-0.001": 17.4812586142,
			"0.0": 18.6083592375,
			"0.001": 19.2062434523,
			"0.002": 16.0325523891,
			"0.003": 18.4392502931,
			"0.004": 21.2665435722,
			"0.005": 16.5699333149,
			"0.006": 2.33878996185,
			"0.007": 1.21557645115,
			"0.008": 0.612694804163,
			"0.009": 1.22694795027,
			"0.01": 0.806700582516,
			"0.011": 0.701078415523,
			"0.012": 1.53653656943,
			"0.013": 0.829631685395,
			"0.014": 1.07308133361,
			"0.015": 0.152340812577,
			"0.016": 0.0,
			"0.017": 0.0,
			"0.018": 0.0,
			"0.019": 0.0,
			"0.02": 0.0,
			"0.021": 0.0,
			"0.022": 0.0,
			"0.023": 0.0,
			"0.024": 0.0,
			"0.025": 0.0
		}
	}
}
