{
	 "smiles": "CC(C)(C)OC(=O)NC(=O)OC(C)(C)C", 
	 "Tm": 389.15, 
	 "num_atms": 34, 
	 "gaussian": { 
		 "optdone": 1, 
		 "sigma_profile": "yes", 
		 "theory": "DFT", 
		 "functional": "B3LYP", 
		 "basiset": "6-31G**", 
		 "properties": { 
			 "R2extent": 5434.803, 
			 "electric_dipole_moment_norm": 1.49458622033, 
			 "electric_quadrupole_moment_norm": 17.5553007744, 
			 "total_energy": -748.233183767, 
			 "HOMO_LUMO_gap": 0.27894, 
			 "cosmo_polarized_energy": -11.5, 
			 "cosmo_cavitation_energy": 36.09, 
			 "cosmo_dispersion_energy": -24.91, 
			 "cosmo_repulsion_energy": 1.99, 
			 "cosmo_total_nonelectrostatic_energy": 13.17, 
			 "SMD_solvation_energy": 8.66 
		},
		"coords": [
			{
				"x": 0.4930160456,
				"y": 1.6692991266,
				"z": 4.6787390809,
				"element": "C" 
			},
			{
				"x": 0.9765509167,
				"y": 1.5408907916,
				"z": 3.2322592892,
				"element": "C" 
			},
			{
				"x": 1.6676101192,
				"y": 2.8281434464,
				"z": 2.7713022634,
				"element": "C" 
			},
			{
				"x": 1.8680121911,
				"y": 0.3066381277,
				"z": 3.0620491406,
				"element": "C" 
			},
			{
				"x": -0.2855374727,
				"y": 1.3549965489,
				"z": 2.4911026058,
				"element": "O" 
			},
			{
				"x": -0.2842570978,
				"y": 1.2002274451,
				"z": 1.1466762983,
				"element": "C" 
			},
			{
				"x": 0.679478576,
				"y": 1.1926235072,
				"z": 0.4155942197,
				"element": "O" 
			},
			{
				"x": -1.6177246247,
				"y": 1.050076712,
				"z": 0.7618147946,
				"element": "N" 
			},
			{
				"x": -2.1878684875,
				"y": 0.8579564867,
				"z": -0.5006170104,
				"element": "C" 
			},
			{
				"x": -3.3960384897,
				"y": 0.7517870773,
				"z": -0.6079371679,
				"element": "O" 
			},
			{
				"x": -1.2755492408,
				"y": 0.8150330349,
				"z": -1.4671249224,
				"element": "O" 
			},
			{
				"x": -1.6705410311,
				"y": 0.6193596674,
				"z": -2.8781066103,
				"element": "C" 
			},
			{
				"x": -2.553957414,
				"y": 1.7834141064,
				"z": -3.3363860849,
				"element": "C" 
			},
			{
				"x": -2.3605130376,
				"y": -0.7381668846,
				"z": -3.0411786089,
				"element": "C" 
			},
			{
				"x": -0.3195095216,
				"y": 0.6389684235,
				"z": -3.5957740853,
				"element": "C" 
			},
			{
				"x": -0.1804970329,
				"y": 2.5243488358,
				"z": 4.7871362805,
				"element": "H" 
			},
			{
				"x": -0.0413659152,
				"y": 0.7669408779,
				"z": 4.9896425149,
				"element": "H" 
			},
			{
				"x": 1.3467990338,
				"y": 1.8139194525,
				"z": 5.3472035072,
				"element": "H" 
			},
			{
				"x": 0.9861559221,
				"y": 3.6797228586,
				"z": 2.8633628334,
				"element": "H" 
			},
			{
				"x": 1.9974279856,
				"y": 2.7485134551,
				"z": 1.735197574,
				"element": "H" 
			},
			{
				"x": 2.5393670148,
				"y": 3.0214167969,
				"z": 3.4046787942,
				"element": "H" 
			},
			{
				"x": 2.7481475634,
				"y": 0.4002172149,
				"z": 3.7063221675,
				"element": "H" 
			},
			{
				"x": 2.199280799,
				"y": 0.2000144345,
				"z": 2.0288352619,
				"element": "H" 
			},
			{
				"x": 1.3263506699,
				"y": -0.5975398428,
				"z": 3.3571694929,
				"element": "H" 
			},
			{
				"x": -2.3042634807,
				"y": 1.0824794495,
				"z": 1.5023588515,
				"element": "H" 
			},
			{
				"x": -2.7435255846,
				"y": 1.694910228,
				"z": -4.4109743503,
				"element": "H" 
			},
			{
				"x": -3.509078318,
				"y": 1.7842906224,
				"z": -2.8103648494,
				"element": "H" 
			},
			{
				"x": -2.0476948712,
				"y": 2.7373385111,
				"z": -3.1588838238,
				"element": "H" 
			},
			{
				"x": -1.7199484001,
				"y": -1.5384269745,
				"z": -2.6577010585,
				"element": "H" 
			},
			{
				"x": -3.3140093747,
				"y": -0.7617406813,
				"z": -2.5127817546,
				"element": "H" 
			},
			{
				"x": -2.5416198626,
				"y": -0.9286728795,
				"z": -4.1039216924,
				"element": "H" 
			},
			{
				"x": 0.3249906343,
				"y": -0.1623294457,
				"z": -3.2244690694,
				"element": "H" 
			},
			{
				"x": -0.4658048354,
				"y": 0.5019967106,
				"z": -4.6713728156,
				"element": "H" 
			},
			{
				"x": 0.1906166217,
				"y": 1.5915527588,
				"z": -3.4294510664,
				"element": "H" 
			}
		],
		 "valence_orbital": [ 
			{
				"type": "occ",
				"energy": -0.29831,
				"method": "rhf"
			},
			{
				"type": "occ",
				"energy": -0.29491,
				"method": "rhf"
			},
			{
				"type": "occ",
				"energy": -0.27996,
				"method": "rhf"
			},
			{
				"type": "occ",
				"energy": -0.27512,
				"method": "rhf"
			},
			{
				"type": "occ",
				"energy": -0.27034,
				"method": "rhf"
			},
			{
				"type": "unocc",
				"energy": 0.0086,
				"method": "rhf"
			},
			{
				"type": "unocc",
				"energy": 0.08031,
				"method": "rhf"
			},
			{
				"type": "unocc",
				"energy": 0.08193,
				"method": "rhf"
			},
			{
				"type": "unocc",
				"energy": 0.08812,
				"method": "rhf"
			},
			{
				"type": "unocc",
				"energy": 0.09589,
				"method": "rhf"
			}
		],
		"cosmo_sigma_profile": { 
			"-0.025": 0.0,
			"-0.024": 0.0,
			"-0.023": 0.0,
			"-0.022": 0.0,
			"-0.021": 0.0,
			"-0.02": 0.0,
			"-0.019": 0.0,
			"-0.018": 0.0,
			"-0.017": 0.0,
			"-0.016": 0.0,
			"-0.015": 0.425196069447,
			"-0.014": 1.04164744467,
			"-0.013": 0.643183284453,
			"-0.012": 0.598022895012,
			"-0.011": 0.507227944658,
			"-0.01": 0.879101893325,
			"-0.009": 0.85696215827,
			"-0.008": 0.595857371578,
			"-0.007": 0.44574510447,
			"-0.006": 1.33538465618,
			"-0.005": 5.825460684,
			"-0.004": 27.233655666,
			"-0.003": 30.8665604983,
			"-0.002": 39.1730938916,
			"-0.001": 38.3382379167,
			"0.0": 49.515658017,
			"0.001": 25.573465399,
			"0.002": 7.59275232043,
			"0.003": 5.53342671336,
			"0.004": 5.04882704863,
			"0.005": 5.58542187208,
			"0.006": 5.63826233657,
			"0.007": 2.74250041561,
			"0.008": 2.98144433381,
			"0.009": 3.40680152517,
			"0.01": 2.86102596764,
			"0.011": 4.17336871508,
			"0.012": 7.62362896774,
			"0.013": 3.41667106388,
			"0.014": 0.13271025918,
			"0.015": 0.0,
			"0.016": 0.0,
			"0.017": 0.0,
			"0.018": 0.0,
			"0.019": 0.0,
			"0.02": 0.0,
			"0.021": 0.0,
			"0.022": 0.0,
			"0.023": 0.0,
			"0.024": 0.0,
			"0.025": 0.0
		}
	}
}
