{
	 "smiles": "OC(=O)C1=CN=C(C=C1)N1CCOCC1", 
	 "Tm": 529.15, 
	 "num_atms": 27, 
	 "gaussian": { 
		 "optdone": 1, 
		 "sigma_profile": "yes", 
		 "theory": "DFT", 
		 "functional": "B3LYP", 
		 "basiset": "6-31G**", 
		 "properties": { 
			 "R2extent": 4768.2355, 
			 "electric_dipole_moment_norm": 5.19538045768, 
			 "electric_quadrupole_moment_norm": 22.6616488131, 
			 "total_energy": -723.458878804, 
			 "HOMO_LUMO_gap": 0.17935, 
			 "cosmo_polarized_energy": -18.23, 
			 "cosmo_cavitation_energy": 29.84, 
			 "cosmo_dispersion_energy": -22.57, 
			 "cosmo_repulsion_energy": 1.75, 
			 "cosmo_total_nonelectrostatic_energy": 9.02, 
			 "SMD_solvation_energy": 4.44 
		},
		"coords": [
			{
				"x": 1.9486325664,
				"y": -2.1188215665,
				"z": 2.9641844731,
				"element": "O" 
			},
			{
				"x": 0.7357371919,
				"y": -2.1155229723,
				"z": 2.3416390612,
				"element": "C" 
			},
			{
				"x": -0.0219672271,
				"y": -3.0452814402,
				"z": 2.5067905721,
				"element": "O" 
			},
			{
				"x": 0.4154515173,
				"y": -0.9451907345,
				"z": 1.4824123393,
				"element": "C" 
			},
			{
				"x": 1.1012809116,
				"y": 0.2736978332,
				"z": 1.5032599647,
				"element": "C" 
			},
			{
				"x": 0.8000320949,
				"y": 1.3264173355,
				"z": 0.7483742304,
				"element": "N" 
			},
			{
				"x": -0.2402789504,
				"y": 1.2290094618,
				"z": -0.1075875215,
				"element": "C" 
			},
			{
				"x": -1.0219968473,
				"y": 0.0432670342,
				"z": -0.1905507474,
				"element": "C" 
			},
			{
				"x": -0.6874015631,
				"y": -1.0268593184,
				"z": 0.6116576483,
				"element": "C" 
			},
			{
				"x": -0.5138450378,
				"y": 2.3210647283,
				"z": -0.8863366825,
				"element": "N" 
			},
			{
				"x": 0.2745459191,
				"y": 3.5484570951,
				"z": -0.8064189156,
				"element": "C" 
			},
			{
				"x": 0.6548166838,
				"y": 4.0262583786,
				"z": -2.2098730328,
				"element": "C" 
			},
			{
				"x": -0.4333328622,
				"y": 3.9825312304,
				"z": -3.1416434695,
				"element": "O" 
			},
			{
				"x": -1.6825767451,
				"y": 3.6679138378,
				"z": -2.5581563591,
				"element": "C" 
			},
			{
				"x": -1.632047075,
				"y": 2.3235854062,
				"z": -1.8296727148,
				"element": "C" 
			},
			{
				"x": 2.5070735218,
				"y": -1.4078156057,
				"z": 2.6217597978,
				"element": "H" 
			},
			{
				"x": 1.9328283442,
				"y": 0.4369732558,
				"z": 2.1916734606,
				"element": "H" 
			},
			{
				"x": -1.8654625357,
				"y": -0.0257826149,
				"z": -0.8653548982,
				"element": "H" 
			},
			{
				"x": -1.2612597709,
				"y": -1.9475268923,
				"z": 0.5883044385,
				"element": "H" 
			},
			{
				"x": -0.2884985456,
				"y": 4.3262435727,
				"z": -0.2720430663,
				"element": "H" 
			},
			{
				"x": 1.1699973057,
				"y": 3.3403522978,
				"z": -0.222058814,
				"element": "H" 
			},
			{
				"x": 1.4503487302,
				"y": 3.3901273381,
				"z": -2.6162885826,
				"element": "H" 
			},
			{
				"x": 1.0396446882,
				"y": 5.0542626322,
				"z": -2.1490930936,
				"element": "H" 
			},
			{
				"x": -2.0252530683,
				"y": 4.4617682698,
				"z": -1.8763173653,
				"element": "H" 
			},
			{
				"x": -2.4028955851,
				"y": 3.6093208993,
				"z": -3.3784740575,
				"element": "H" 
			},
			{
				"x": -1.5008130026,
				"y": 1.5214742154,
				"z": -2.5686903796,
				"element": "H" 
			},
			{
				"x": -2.587460659,
				"y": 2.1487763227,
				"z": -1.3122962858,
				"element": "H" 
			}
		],
		 "valence_orbital": [ 
			{
				"type": "occ",
				"energy": -0.29313,
				"method": "rhf"
			},
			{
				"type": "occ",
				"energy": -0.27905,
				"method": "rhf"
			},
			{
				"type": "occ",
				"energy": -0.26378,
				"method": "rhf"
			},
			{
				"type": "occ",
				"energy": -0.2613,
				"method": "rhf"
			},
			{
				"type": "occ",
				"energy": -0.21859,
				"method": "rhf"
			},
			{
				"type": "unocc",
				"energy": -0.03924,
				"method": "rhf"
			},
			{
				"type": "unocc",
				"energy": -0.03164,
				"method": "rhf"
			},
			{
				"type": "unocc",
				"energy": 0.0554,
				"method": "rhf"
			},
			{
				"type": "unocc",
				"energy": 0.0653,
				"method": "rhf"
			},
			{
				"type": "unocc",
				"energy": 0.07421,
				"method": "rhf"
			}
		],
		"cosmo_sigma_profile": { 
			"-0.025": 0.0,
			"-0.024": 0.0,
			"-0.023": 0.0,
			"-0.022": 0.0,
			"-0.021": 0.0,
			"-0.02": 0.0,
			"-0.019": 0.0553952811825,
			"-0.018": 0.965443805904,
			"-0.017": 0.870903280263,
			"-0.016": 0.947443809403,
			"-0.015": 1.34586784181,
			"-0.014": 1.1388741607,
			"-0.013": 0.769530164011,
			"-0.012": 1.08056883492,
			"-0.011": 1.00316238724,
			"-0.01": 1.31750597522,
			"-0.009": 0.811834729701,
			"-0.008": 1.61973744064,
			"-0.007": 3.95352866258,
			"-0.006": 11.7012718091,
			"-0.005": 25.8116421786,
			"-0.004": 27.8150411598,
			"-0.003": 17.8547555589,
			"-0.002": 13.0992503153,
			"-0.001": 13.6986345148,
			"0.0": 11.500123927,
			"0.001": 16.3548086707,
			"0.002": 13.7044878182,
			"0.003": 10.975769889,
			"0.004": 6.41926960035,
			"0.005": 4.54319440912,
			"0.006": 5.15968339571,
			"0.007": 5.37259727291,
			"0.008": 5.43512547873,
			"0.009": 5.26004186091,
			"0.01": 5.98418374002,
			"0.011": 6.5884466388,
			"0.012": 7.44385462745,
			"0.013": 4.62247061304,
			"0.014": 1.02997665709,
			"0.015": 0.0,
			"0.016": 0.0,
			"0.017": 0.0,
			"0.018": 0.0,
			"0.019": 0.0,
			"0.02": 0.0,
			"0.021": 0.0,
			"0.022": 0.0,
			"0.023": 0.0,
			"0.024": 0.0,
			"0.025": 0.0
		}
	}
}
