{
	 "smiles": "COC1=CC(=CC(OC)=C1OCC1=CC=CC=C1)C(O)=O", 
	 "Tm": 430.15, 
	 "num_atms": 37, 
	 "gaussian": { 
		 "optdone": 1, 
		 "sigma_profile": "yes", 
		 "theory": "DFT", 
		 "functional": "B3LYP", 
		 "basiset": "6-31G**", 
		 "properties": { 
			 "R2extent": 8818.3338, 
			 "electric_dipole_moment_norm": 5.69339117662, 
			 "electric_quadrupole_moment_norm": 31.7992637078, 
			 "total_energy": -995.42614742, 
			 "HOMO_LUMO_gap": 0.19405, 
			 "cosmo_polarized_energy": -17.69, 
			 "cosmo_cavitation_energy": 41.42, 
			 "cosmo_dispersion_energy": -28.24, 
			 "cosmo_repulsion_energy": 2.17, 
			 "cosmo_total_nonelectrostatic_energy": 15.35, 
			 "SMD_solvation_energy": 9.52 
		},
		"coords": [
			{
				"x": -0.3411265415,
				"y": -1.9772701078,
				"z": -0.5909644181,
				"element": "C" 
			},
			{
				"x": 0.7602415784,
				"y": -1.0578423425,
				"z": -0.6352898237,
				"element": "O" 
			},
			{
				"x": 1.4236377301,
				"y": -0.8681168131,
				"z": 0.5502101007,
				"element": "C" 
			},
			{
				"x": 2.754389343,
				"y": -1.2769177872,
				"z": 0.6429699873,
				"element": "C" 
			},
			{
				"x": 3.4920408249,
				"y": -1.0380615951,
				"z": 1.8100778444,
				"element": "C" 
			},
			{
				"x": 2.8711412697,
				"y": -0.4328567617,
				"z": 2.9084301455,
				"element": "C" 
			},
			{
				"x": 1.54298772,
				"y": -0.0244966467,
				"z": 2.8266062079,
				"element": "C" 
			},
			{
				"x": 0.9703083574,
				"y": 0.6132578663,
				"z": 3.9015086731,
				"element": "O" 
			},
			{
				"x": -0.0363174482,
				"y": -0.1480592934,
				"z": 4.58255234,
				"element": "C" 
			},
			{
				"x": 0.8113991375,
				"y": -0.2157515611,
				"z": 1.6374867392,
				"element": "C" 
			},
			{
				"x": -0.4880609865,
				"y": 0.1927482267,
				"z": 1.510591607,
				"element": "O" 
			},
			{
				"x": -0.7266220514,
				"y": 1.6223714678,
				"z": 1.5915270233,
				"element": "C" 
			},
			{
				"x": -1.9049062794,
				"y": 1.9687478997,
				"z": 0.7182150166,
				"element": "C" 
			},
			{
				"x": -3.0024291026,
				"y": 2.6587030522,
				"z": 1.2411671131,
				"element": "C" 
			},
			{
				"x": -4.0763283607,
				"y": 3.0116870863,
				"z": 0.4200148356,
				"element": "C" 
			},
			{
				"x": -4.0627341676,
				"y": 2.6669303971,
				"z": -0.9312521022,
				"element": "C" 
			},
			{
				"x": -2.9714875025,
				"y": 1.9701166207,
				"z": -1.4596750091,
				"element": "C" 
			},
			{
				"x": -1.8978354249,
				"y": 1.6251324409,
				"z": -0.6413846096,
				"element": "C" 
			},
			{
				"x": 4.9230614492,
				"y": -1.4544593928,
				"z": 1.9641646223,
				"element": "C" 
			},
			{
				"x": 5.6257655331,
				"y": -1.6561207252,
				"z": 0.8163718773,
				"element": "O" 
			},
			{
				"x": 5.4595385362,
				"y": -1.6119285926,
				"z": 3.0357948081,
				"element": "O" 
			},
			{
				"x": -0.0032351108,
				"y": -2.9667579557,
				"z": -0.259049728,
				"element": "H" 
			},
			{
				"x": -1.1346334977,
				"y": -1.6140951015,
				"z": 0.0668902779,
				"element": "H" 
			},
			{
				"x": -0.7144705753,
				"y": -2.0486489597,
				"z": -1.6141806229,
				"element": "H" 
			},
			{
				"x": 3.1719077624,
				"y": -1.7976020539,
				"z": -0.2139174657,
				"element": "H" 
			},
			{
				"x": 3.427492797,
				"y": -0.2770795126,
				"z": 3.8253586499,
				"element": "H" 
			},
			{
				"x": -0.3788732101,
				"y": 0.4736859889,
				"z": 5.411712117,
				"element": "H" 
			},
			{
				"x": 0.3852383294,
				"y": -1.07980135,
				"z": 4.9783535414,
				"element": "H" 
			},
			{
				"x": -0.8776756611,
				"y": -0.3799501873,
				"z": 3.9209987485,
				"element": "H" 
			},
			{
				"x": -0.9049311651,
				"y": 1.9082054869,
				"z": 2.6324747378,
				"element": "H" 
			},
			{
				"x": 0.177500142,
				"y": 2.1415351868,
				"z": 1.2514928168,
				"element": "H" 
			},
			{
				"x": -3.0178750662,
				"y": 2.9222341801,
				"z": 2.2959584249,
				"element": "H" 
			},
			{
				"x": -4.9228704523,
				"y": 3.5488924763,
				"z": 0.8379725384,
				"element": "H" 
			},
			{
				"x": -4.8977931441,
				"y": 2.9374055596,
				"z": -1.5711805005,
				"element": "H" 
			},
			{
				"x": -2.9579205066,
				"y": 1.6996280027,
				"z": -2.5118005159,
				"element": "H" 
			},
			{
				"x": -1.0498461935,
				"y": 1.0788970479,
				"z": -1.0454279322,
				"element": "H" 
			},
			{
				"x": 5.1204219377,
				"y": -1.3332622468,
				"z": 0.0574219341,
				"element": "H" 
			}
		],
		 "valence_orbital": [ 
			{
				"type": "occ",
				"energy": -0.26835,
				"method": "rhf"
			},
			{
				"type": "occ",
				"energy": -0.25674,
				"method": "rhf"
			},
			{
				"type": "occ",
				"energy": -0.25378,
				"method": "rhf"
			},
			{
				"type": "occ",
				"energy": -0.24983,
				"method": "rhf"
			},
			{
				"type": "occ",
				"energy": -0.24135,
				"method": "rhf"
			},
			{
				"type": "unocc",
				"energy": -0.0473,
				"method": "rhf"
			},
			{
				"type": "unocc",
				"energy": -0.01567,
				"method": "rhf"
			},
			{
				"type": "unocc",
				"energy": -0.01394,
				"method": "rhf"
			},
			{
				"type": "unocc",
				"energy": -0.00676,
				"method": "rhf"
			},
			{
				"type": "unocc",
				"energy": 0.04818,
				"method": "rhf"
			}
		],
		"cosmo_sigma_profile": { 
			"-0.025": 0.0,
			"-0.024": 0.0,
			"-0.023": 0.0,
			"-0.022": 0.0,
			"-0.021": 0.0,
			"-0.02": 0.0,
			"-0.019": 0.224103330532,
			"-0.018": 0.540790326072,
			"-0.017": 1.03422838872,
			"-0.016": 1.09066399919,
			"-0.015": 1.37385140422,
			"-0.014": 0.982233923383,
			"-0.013": 0.440087555303,
			"-0.012": 1.05812598193,
			"-0.011": 1.93250347952,
			"-0.01": 0.733582439504,
			"-0.009": 0.824541407971,
			"-0.008": 1.62227552294,
			"-0.007": 1.55635228569,
			"-0.006": 13.5380101403,
			"-0.005": 24.0177971831,
			"-0.004": 29.7732382399,
			"-0.003": 38.2043180805,
			"-0.002": 29.3376428548,
			"-0.001": 23.8354920783,
			"0.0": 21.0816546997,
			"0.001": 19.4804662751,
			"0.002": 21.6352423113,
			"0.003": 17.2307750152,
			"0.004": 14.5540336534,
			"0.005": 15.2712997846,
			"0.006": 12.6627813261,
			"0.007": 5.3251590691,
			"0.008": 4.66240641868,
			"0.009": 5.27725102617,
			"0.01": 6.80889183525,
			"0.011": 6.85889644407,
			"0.012": 5.46007514705,
			"0.013": 1.43576842307,
			"0.014": 0.0278230282763,
			"0.015": 0.0,
			"0.016": 0.0,
			"0.017": 0.0,
			"0.018": 0.0,
			"0.019": 0.0,
			"0.02": 0.0,
			"0.021": 0.0,
			"0.022": 0.0,
			"0.023": 0.0,
			"0.024": 0.0,
			"0.025": 0.0
		}
	}
}
