{
	 "smiles": "NC1=CC=C(OC2=C(C=CC=C2)C#N)C=C1", 
	 "Tm": 392.15, 
	 "num_atms": 26, 
	 "gaussian": { 
		 "optdone": 1, 
		 "sigma_profile": "yes", 
		 "theory": "DFT", 
		 "functional": "B3LYP", 
		 "basiset": "6-31G**", 
		 "properties": { 
			 "R2extent": 4911.3234, 
			 "electric_dipole_moment_norm": 2.79689661947, 
			 "electric_quadrupole_moment_norm": 24.5173624493, 
			 "total_energy": -686.108706843, 
			 "HOMO_LUMO_gap": 0.14445, 
			 "cosmo_polarized_energy": -15.63, 
			 "cosmo_cavitation_energy": 31.78, 
			 "cosmo_dispersion_energy": -21.92, 
			 "cosmo_repulsion_energy": 1.72, 
			 "cosmo_total_nonelectrostatic_energy": 11.58, 
			 "SMD_solvation_energy": 6.68 
		},
		"coords": [
			{
				"x": 3.7998727146,
				"y": -0.6712066101,
				"z": -4.5832286054,
				"element": "N" 
			},
			{
				"x": 3.1953327928,
				"y": -0.6700646672,
				"z": -3.3201380986,
				"element": "C" 
			},
			{
				"x": 1.8653954874,
				"y": -0.2505354806,
				"z": -3.1578341223,
				"element": "C" 
			},
			{
				"x": 1.2789990051,
				"y": -0.1939701699,
				"z": -1.8947793194,
				"element": "C" 
			},
			{
				"x": 2.017144703,
				"y": -0.5730403962,
				"z": -0.7749998588,
				"element": "C" 
			},
			{
				"x": 1.5121817061,
				"y": -0.4862856678,
				"z": 0.5251474783,
				"element": "O" 
			},
			{
				"x": 0.1879355871,
				"y": -0.7311074876,
				"z": 0.7666159675,
				"element": "C" 
			},
			{
				"x": -0.4309201431,
				"y": -1.9625233687,
				"z": 0.4541778509,
				"element": "C" 
			},
			{
				"x": -1.7806167619,
				"y": -2.1601113881,
				"z": 0.7988894585,
				"element": "C" 
			},
			{
				"x": -2.5001366721,
				"y": -1.1642810922,
				"z": 1.4510262543,
				"element": "C" 
			},
			{
				"x": -1.873666014,
				"y": 0.0428680811,
				"z": 1.772454745,
				"element": "C" 
			},
			{
				"x": -0.5405258771,
				"y": 0.2590234108,
				"z": 1.4286631077,
				"element": "C" 
			},
			{
				"x": 0.291434501,
				"y": -3.0340785823,
				"z": -0.1629329972,
				"element": "C" 
			},
			{
				"x": 0.8380811934,
				"y": -3.9409381021,
				"z": -0.6448614437,
				"element": "N" 
			},
			{
				"x": 3.3402436342,
				"y": -0.9869690065,
				"z": -0.9122324629,
				"element": "C" 
			},
			{
				"x": 3.9246693973,
				"y": -1.0299150096,
				"z": -2.1735325232,
				"element": "C" 
			},
			{
				"x": 3.1553219925,
				"y": -0.7700343588,
				"z": -5.3562147417,
				"element": "H" 
			},
			{
				"x": 4.5769807416,
				"y": -1.3120173969,
				"z": -4.6744218884,
				"element": "H" 
			},
			{
				"x": 1.2851725843,
				"y": 0.0428344731,
				"z": -4.0290214873,
				"element": "H" 
			},
			{
				"x": 0.2522022102,
				"y": 0.140312962,
				"z": -1.7873260892,
				"element": "H" 
			},
			{
				"x": -2.2454718221,
				"y": -3.1098757007,
				"z": 0.5559017517,
				"element": "H" 
			},
			{
				"x": -3.5396373383,
				"y": -1.3313981997,
				"z": 1.7134397038,
				"element": "H" 
			},
			{
				"x": -2.426426324,
				"y": 0.8234107517,
				"z": 2.2866640209,
				"element": "H" 
			},
			{
				"x": -0.0371477482,
				"y": 1.1901064186,
				"z": 1.6656062315,
				"element": "H" 
			},
			{
				"x": 3.8977917648,
				"y": -1.2790178354,
				"z": -0.0287209299,
				"element": "H" 
			},
			{
				"x": 4.9571886853,
				"y": -1.3541855769,
				"z": -2.2744420019,
				"element": "H" 
			}
		],
		 "valence_orbital": [ 
			{
				"type": "occ",
				"energy": -0.29066,
				"method": "rhf"
			},
			{
				"type": "occ",
				"energy": -0.26711,
				"method": "rhf"
			},
			{
				"type": "occ",
				"energy": -0.25276,
				"method": "rhf"
			},
			{
				"type": "occ",
				"energy": -0.2493,
				"method": "rhf"
			},
			{
				"type": "occ",
				"energy": -0.19382,
				"method": "rhf"
			},
			{
				"type": "unocc",
				"energy": -0.04937,
				"method": "rhf"
			},
			{
				"type": "unocc",
				"energy": -0.01858,
				"method": "rhf"
			},
			{
				"type": "unocc",
				"energy": -0.00052,
				"method": "rhf"
			},
			{
				"type": "unocc",
				"energy": 0.0202,
				"method": "rhf"
			},
			{
				"type": "unocc",
				"energy": 0.04312,
				"method": "rhf"
			}
		],
		"cosmo_sigma_profile": { 
			"-0.025": 0.0,
			"-0.024": 0.0,
			"-0.023": 0.0,
			"-0.022": 0.0,
			"-0.021": 0.0,
			"-0.02": 0.0,
			"-0.019": 0.0,
			"-0.018": 0.0,
			"-0.017": 0.0,
			"-0.016": 0.0,
			"-0.015": 0.0,
			"-0.014": 0.0,
			"-0.013": 0.175879083072,
			"-0.012": 2.41922825282,
			"-0.011": 2.76352164621,
			"-0.01": 2.88481965681,
			"-0.009": 3.62719475822,
			"-0.008": 5.6800695177,
			"-0.007": 11.3838347412,
			"-0.006": 18.2825133396,
			"-0.005": 16.0315487032,
			"-0.004": 14.1189551651,
			"-0.003": 14.433569724,
			"-0.002": 12.8168912303,
			"-0.001": 16.6278235606,
			"0.0": 15.5344668052,
			"0.001": 18.0178225415,
			"0.002": 17.259216011,
			"0.003": 16.1582186162,
			"0.004": 11.417241276,
			"0.005": 12.929639265,
			"0.006": 11.834160045,
			"0.007": 7.30208962597,
			"0.008": 5.18583446921,
			"0.009": 5.29114131782,
			"0.01": 3.38057127825,
			"0.011": 3.49937605309,
			"0.012": 3.09542999529,
			"0.013": 2.25166804861,
			"0.014": 0.617708459918,
			"0.015": 0.429031418948,
			"0.016": 0.0444535842485,
			"0.017": 0.0,
			"0.018": 0.0,
			"0.019": 0.0,
			"0.02": 0.0,
			"0.021": 0.0,
			"0.022": 0.0,
			"0.023": 0.0,
			"0.024": 0.0,
			"0.025": 0.0
		}
	}
}
