{
	 "smiles": "CS(=O)(=O)C1=C(C=CC=C1)S(Cl)(=O)=O", 
	 "Tm": 409.15, 
	 "num_atms": 21, 
	 "gaussian": { 
		 "optdone": 1, 
		 "sigma_profile": "yes", 
		 "theory": "DFT", 
		 "functional": "B3LYP", 
		 "basiset": "6-31G**", 
		 "properties": { 
			 "R2extent": 3358.441, 
			 "electric_dipole_moment_norm": 5.91968703311, 
			 "electric_quadrupole_moment_norm": 15.2442129187, 
			 "total_energy": -1828.2763133, 
			 "HOMO_LUMO_gap": 0.19782, 
			 "cosmo_polarized_energy": -17.57, 
			 "cosmo_cavitation_energy": 28.82, 
			 "cosmo_dispersion_energy": -22.23, 
			 "cosmo_repulsion_energy": 1.64, 
			 "cosmo_total_nonelectrostatic_energy": 8.22, 
			 "SMD_solvation_energy": 3.78 
		},
		"coords": [
			{
				"x": 2.2997205204,
				"y": -1.3963522839,
				"z": 0.0009462015,
				"element": "C" 
			},
			{
				"x": 1.8631088259,
				"y": 0.1965510332,
				"z": 0.7242729078,
				"element": "S" 
			},
			{
				"x": 2.4913446211,
				"y": 0.2457491002,
				"z": 2.0536555548,
				"element": "O" 
			},
			{
				"x": 2.0958597919,
				"y": 1.2678183966,
				"z": -0.2474177666,
				"element": "O" 
			},
			{
				"x": 0.0549768191,
				"y": 0.095952942,
				"z": 1.0457234808,
				"element": "C" 
			},
			{
				"x": -0.9900230182,
				"y": 0.2451318651,
				"z": 0.1124176693,
				"element": "C" 
			},
			{
				"x": -2.3227730358,
				"y": 0.2196328725,
				"z": 0.5307786184,
				"element": "C" 
			},
			{
				"x": -2.63035293,
				"y": 0.0450788835,
				"z": 1.8804125907,
				"element": "C" 
			},
			{
				"x": -1.6061934738,
				"y": -0.0999920155,
				"z": 2.8104276739,
				"element": "C" 
			},
			{
				"x": -0.2742660958,
				"y": -0.0723559355,
				"z": 2.3920087701,
				"element": "C" 
			},
			{
				"x": -0.7983482984,
				"y": 0.4287359385,
				"z": -1.6823342622,
				"element": "S" 
			},
			{
				"x": -0.385102537,
				"y": 2.4749266703,
				"z": -1.9060017011,
				"element": "Cl" 
			},
			{
				"x": 0.3582132403,
				"y": -0.327651977,
				"z": -2.1462481441,
				"element": "O" 
			},
			{
				"x": -2.1089313786,
				"y": 0.2224218186,
				"z": -2.2880412414,
				"element": "O" 
			},
			{
				"x": 1.784580697,
				"y": -1.5161075385,
				"z": -0.9498371513,
				"element": "H" 
			},
			{
				"x": 3.3816835901,
				"y": -1.3569440815,
				"z": -0.1442935332,
				"element": "H" 
			},
			{
				"x": 2.0441200357,
				"y": -2.180715646,
				"z": 0.7147320432,
				"element": "H" 
			},
			{
				"x": -3.108964613,
				"y": 0.3303966138,
				"z": -0.2062121734,
				"element": "H" 
			},
			{
				"x": -3.6692425938,
				"y": 0.0259960343,
				"z": 2.193616004,
				"element": "H" 
			},
			{
				"x": -1.8341927095,
				"y": -0.2300011858,
				"z": 3.8636672783,
				"element": "H" 
			},
			{
				"x": 0.5360825426,
				"y": -0.1630715049,
				"z": 3.1066271806,
				"element": "H" 
			}
		],
		 "valence_orbital": [ 
			{
				"type": "occ",
				"energy": -0.31712,
				"method": "rhf"
			},
			{
				"type": "occ",
				"energy": -0.30991,
				"method": "rhf"
			},
			{
				"type": "occ",
				"energy": -0.30656,
				"method": "rhf"
			},
			{
				"type": "occ",
				"energy": -0.3038,
				"method": "rhf"
			},
			{
				"type": "occ",
				"energy": -0.29672,
				"method": "rhf"
			},
			{
				"type": "unocc",
				"energy": -0.0989,
				"method": "rhf"
			},
			{
				"type": "unocc",
				"energy": -0.06694,
				"method": "rhf"
			},
			{
				"type": "unocc",
				"energy": -0.05344,
				"method": "rhf"
			},
			{
				"type": "unocc",
				"energy": 0.02204,
				"method": "rhf"
			},
			{
				"type": "unocc",
				"energy": 0.05335,
				"method": "rhf"
			}
		],
		"cosmo_sigma_profile": { 
			"-0.025": 0.0,
			"-0.024": 0.0,
			"-0.023": 0.0,
			"-0.022": 0.0,
			"-0.021": 0.0,
			"-0.02": 0.0,
			"-0.019": 0.0,
			"-0.018": 0.0,
			"-0.017": 0.0,
			"-0.016": 0.0,
			"-0.015": 0.0,
			"-0.014": 0.0,
			"-0.013": 0.0,
			"-0.012": 0.0,
			"-0.011": 0.0,
			"-0.01": 0.737033653206,
			"-0.009": 6.73345002734,
			"-0.008": 12.4370799891,
			"-0.007": 13.3425069482,
			"-0.006": 12.3452151427,
			"-0.005": 14.1255646488,
			"-0.004": 14.8120971834,
			"-0.003": 13.0135277858,
			"-0.002": 15.6262854878,
			"-0.001": 19.1661683279,
			"0.0": 16.2947504209,
			"0.001": 11.1973868785,
			"0.002": 11.2146731365,
			"0.003": 11.7595508976,
			"0.004": 6.00562112715,
			"0.005": 4.3940743843,
			"0.006": 7.2116737393,
			"0.007": 8.9579171842,
			"0.008": 10.2871195044,
			"0.009": 7.53473603542,
			"0.01": 6.59529065374,
			"0.011": 8.27214562204,
			"0.012": 2.23352431682,
			"0.013": 0.0,
			"0.014": 0.0,
			"0.015": 0.0,
			"0.016": 0.0,
			"0.017": 0.0,
			"0.018": 0.0,
			"0.019": 0.0,
			"0.02": 0.0,
			"0.021": 0.0,
			"0.022": 0.0,
			"0.023": 0.0,
			"0.024": 0.0,
			"0.025": 0.0
		}
	}
}
