{
	 "smiles": "CNC(=O)COC1=C(OC)C=C(C=O)C=C1", 
	 "Tm": 379.15, 
	 "num_atms": 29, 
	 "gaussian": { 
		 "optdone": 1, 
		 "sigma_profile": "yes", 
		 "theory": "DFT", 
		 "functional": "B3LYP", 
		 "basiset": "6-31G**", 
		 "properties": { 
			 "R2extent": 4535.4128, 
			 "electric_dipole_moment_norm": 7.56635100825, 
			 "electric_quadrupole_moment_norm": 28.4001228589, 
			 "total_energy": -782.619581368, 
			 "HOMO_LUMO_gap": 0.16912, 
			 "cosmo_polarized_energy": -20.53, 
			 "cosmo_cavitation_energy": 33.41, 
			 "cosmo_dispersion_energy": -23.44, 
			 "cosmo_repulsion_energy": 1.84, 
			 "cosmo_total_nonelectrostatic_energy": 11.8, 
			 "SMD_solvation_energy": 7.92 
		},
		"coords": [
			{
				"x": 3.32182469,
				"y": 3.7050167372,
				"z": -0.0284219073,
				"element": "C" 
			},
			{
				"x": 1.9849420488,
				"y": 3.4463410326,
				"z": -0.5403798827,
				"element": "N" 
			},
			{
				"x": 1.3982541953,
				"y": 2.2306997537,
				"z": -0.7464769619,
				"element": "C" 
			},
			{
				"x": 0.2433278798,
				"y": 2.1153828257,
				"z": -1.1286795602,
				"element": "O" 
			},
			{
				"x": 2.3007813261,
				"y": 1.0073332718,
				"z": -0.4991764782,
				"element": "C" 
			},
			{
				"x": 1.5977662567,
				"y": -0.1995836272,
				"z": -0.675680902,
				"element": "O" 
			},
			{
				"x": 0.6609738805,
				"y": -0.5797998209,
				"z": 0.2473518193,
				"element": "C" 
			},
			{
				"x": -0.2570168265,
				"y": -1.5674337925,
				"z": -0.1812908269,
				"element": "C" 
			},
			{
				"x": -0.2705011345,
				"y": -2.0819212487,
				"z": -1.4439952664,
				"element": "O" 
			},
			{
				"x": -0.2340674619,
				"y": -1.1730094037,
				"z": -2.5562190566,
				"element": "C" 
			},
			{
				"x": -1.1611198124,
				"y": -2.0875075345,
				"z": 0.7402088094,
				"element": "C" 
			},
			{
				"x": -1.1903595548,
				"y": -1.6344168817,
				"z": 2.0660680096,
				"element": "C" 
			},
			{
				"x": -2.1617511501,
				"y": -2.2040926991,
				"z": 3.018156182,
				"element": "C" 
			},
			{
				"x": -2.2737009297,
				"y": -1.8681705268,
				"z": 4.1840063305,
				"element": "O" 
			},
			{
				"x": -0.306797829,
				"y": -0.6250824538,
				"z": 2.4682092163,
				"element": "C" 
			},
			{
				"x": 0.6085328785,
				"y": -0.1011702336,
				"z": 1.5636566858,
				"element": "C" 
			},
			{
				"x": 3.423867378,
				"y": 3.4604588947,
				"z": 1.0369455211,
				"element": "H" 
			},
			{
				"x": 4.0820917503,
				"y": 3.1488774309,
				"z": -0.5867595128,
				"element": "H" 
			},
			{
				"x": 3.5409416016,
				"y": 4.7671579728,
				"z": -0.1506272126,
				"element": "H" 
			},
			{
				"x": 1.3632969366,
				"y": 4.2283142483,
				"z": -0.6957173315,
				"element": "H" 
			},
			{
				"x": 2.7867569663,
				"y": 1.0635905209,
				"z": 0.4835121861,
				"element": "H" 
			},
			{
				"x": 3.0988171411,
				"y": 0.9917921785,
				"z": -1.2492893267,
				"element": "H" 
			},
			{
				"x": 0.7827104342,
				"y": -1.0861950677,
				"z": -2.9488247064,
				"element": "H" 
			},
			{
				"x": -0.8863433842,
				"y": -1.6027187694,
				"z": -3.3214138817,
				"element": "H" 
			},
			{
				"x": -0.5902999834,
				"y": -0.1787732452,
				"z": -2.2752934206,
				"element": "H" 
			},
			{
				"x": -1.8527697037,
				"y": -2.8522181947,
				"z": 0.397294981,
				"element": "H" 
			},
			{
				"x": -2.8160383983,
				"y": -2.996802993,
				"z": 2.5896702247,
				"element": "H" 
			},
			{
				"x": -0.3502501587,
				"y": -0.2691243474,
				"z": 3.4920619823,
				"element": "H" 
			},
			{
				"x": 1.2911309634,
				"y": 0.6750559727,
				"z": 1.8901042863,
				"element": "H" 
			}
		],
		 "valence_orbital": [ 
			{
				"type": "occ",
				"energy": -0.27245,
				"method": "rhf"
			},
			{
				"type": "occ",
				"energy": -0.26837,
				"method": "rhf"
			},
			{
				"type": "occ",
				"energy": -0.24487,
				"method": "rhf"
			},
			{
				"type": "occ",
				"energy": -0.24101,
				"method": "rhf"
			},
			{
				"type": "occ",
				"energy": -0.21511,
				"method": "rhf"
			},
			{
				"type": "unocc",
				"energy": -0.04599,
				"method": "rhf"
			},
			{
				"type": "unocc",
				"energy": -0.00318,
				"method": "rhf"
			},
			{
				"type": "unocc",
				"energy": 0.01183,
				"method": "rhf"
			},
			{
				"type": "unocc",
				"energy": 0.05141,
				"method": "rhf"
			},
			{
				"type": "unocc",
				"energy": 0.05692,
				"method": "rhf"
			}
		],
		"cosmo_sigma_profile": { 
			"-0.025": 0.0,
			"-0.024": 0.0,
			"-0.023": 0.0,
			"-0.022": 0.0,
			"-0.021": 0.0,
			"-0.02": 0.0,
			"-0.019": 0.0,
			"-0.018": 0.0,
			"-0.017": 0.0,
			"-0.016": 0.0,
			"-0.015": 0.0277366396481,
			"-0.014": 0.765614584546,
			"-0.013": 1.30782268157,
			"-0.012": 1.4380529234,
			"-0.011": 0.807542793188,
			"-0.01": 1.41315699565,
			"-0.009": 4.5229605211,
			"-0.008": 7.82492803907,
			"-0.007": 12.4544370253,
			"-0.006": 16.3669692219,
			"-0.005": 18.7251855716,
			"-0.004": 17.883487331,
			"-0.003": 21.4148354857,
			"-0.002": 20.2306047351,
			"-0.001": 12.8350139611,
			"0.0": 12.3701830918,
			"0.001": 14.1629749992,
			"0.002": 18.3181703749,
			"0.003": 16.5453079653,
			"0.004": 9.53122524689,
			"0.005": 7.53963241488,
			"0.006": 6.45858132063,
			"0.007": 6.71186284862,
			"0.008": 6.62704795818,
			"0.009": 4.10889692015,
			"0.01": 5.1969831775,
			"0.011": 6.75128230205,
			"0.012": 6.58328053792,
			"0.013": 4.14789468384,
			"0.014": 1.82766575501,
			"0.015": 0.0578485923479,
			"0.016": 0.0,
			"0.017": 0.0,
			"0.018": 0.0,
			"0.019": 0.0,
			"0.02": 0.0,
			"0.021": 0.0,
			"0.022": 0.0,
			"0.023": 0.0,
			"0.024": 0.0,
			"0.025": 0.0
		}
	}
}
