{
	 "smiles": "CC(=O)NC1=C(C)C=CC(=C1)C(O)=O", 
	 "Tm": 551.15, 
	 "num_atms": 25, 
	 "gaussian": { 
		 "optdone": 1, 
		 "sigma_profile": "yes", 
		 "theory": "DFT", 
		 "functional": "B3LYP", 
		 "basiset": "6-31G**", 
		 "properties": { 
			 "R2extent": 3329.691, 
			 "electric_dipole_moment_norm": 1.4912906256, 
			 "electric_quadrupole_moment_norm": 27.2220434279, 
			 "total_energy": -668.160440113, 
			 "HOMO_LUMO_gap": 0.17996, 
			 "cosmo_polarized_energy": -16.29, 
			 "cosmo_cavitation_energy": 29.47, 
			 "cosmo_dispersion_energy": -20.85, 
			 "cosmo_repulsion_energy": 1.65, 
			 "cosmo_total_nonelectrostatic_energy": 10.26, 
			 "SMD_solvation_energy": 7.28 
		},
		"coords": [
			{
				"x": 0.6678125528,
				"y": -2.7514964654,
				"z": -1.7857737155,
				"element": "C" 
			},
			{
				"x": -0.2654964156,
				"y": -3.0490762209,
				"z": -0.6277901261,
				"element": "C" 
			},
			{
				"x": -0.7051098964,
				"y": -4.1703849493,
				"z": -0.4208514567,
				"element": "O" 
			},
			{
				"x": -0.6498218213,
				"y": -2.007010342,
				"z": 0.2043650657,
				"element": "N" 
			},
			{
				"x": -0.2858306518,
				"y": -0.6413129845,
				"z": 0.226555135,
				"element": "C" 
			},
			{
				"x": -1.2919439271,
				"y": 0.3259391927,
				"z": 0.4588770513,
				"element": "C" 
			},
			{
				"x": -2.7301602896,
				"y": -0.0865629645,
				"z": 0.6467608536,
				"element": "C" 
			},
			{
				"x": -0.9214041485,
				"y": 1.6747556017,
				"z": 0.5074835591,
				"element": "C" 
			},
			{
				"x": 0.3966769667,
				"y": 2.0779584068,
				"z": 0.3199184646,
				"element": "C" 
			},
			{
				"x": 1.3861121159,
				"y": 1.1148619883,
				"z": 0.0976341685,
				"element": "C" 
			},
			{
				"x": 1.0450400332,
				"y": -0.2421858267,
				"z": 0.0708927376,
				"element": "C" 
			},
			{
				"x": 2.7879124467,
				"y": 1.575927929,
				"z": -0.079462769,
				"element": "C" 
			},
			{
				"x": 3.661445478,
				"y": 0.5582304877,
				"z": -0.2910809875,
				"element": "O" 
			},
			{
				"x": 3.1468355115,
				"y": 2.7363098736,
				"z": -0.0457433533,
				"element": "O" 
			},
			{
				"x": 0.4600512756,
				"y": -3.4868595112,
				"z": -2.5640971553,
				"element": "H" 
			},
			{
				"x": 1.709664661,
				"y": -2.8811242216,
				"z": -1.4745722483,
				"element": "H" 
			},
			{
				"x": 0.5550575316,
				"y": -1.7403685722,
				"z": -2.1822166358,
				"element": "H" 
			},
			{
				"x": -1.3542114538,
				"y": -2.3104894486,
				"z": 0.865806073,
				"element": "H" 
			},
			{
				"x": -3.0668421107,
				"y": -0.7426226372,
				"z": -0.163309723,
				"element": "H" 
			},
			{
				"x": -3.3853968834,
				"y": 0.7869457172,
				"z": 0.6763616034,
				"element": "H" 
			},
			{
				"x": -2.8795054359,
				"y": -0.6354071369,
				"z": 1.586498012,
				"element": "H" 
			},
			{
				"x": -1.6906548511,
				"y": 2.4216914973,
				"z": 0.6833414374,
				"element": "H" 
			},
			{
				"x": 0.6780413493,
				"y": 3.1247004881,
				"z": 0.3461722425,
				"element": "H" 
			},
			{
				"x": 1.823267224,
				"y": -0.9835875077,
				"z": -0.0523984984,
				"element": "H" 
			},
			{
				"x": 4.5331607387,
				"y": 0.9756676063,
				"z": -0.386569735,
				"element": "H" 
			}
		],
		 "valence_orbital": [ 
			{
				"type": "occ",
				"energy": -0.30164,
				"method": "rhf"
			},
			{
				"type": "occ",
				"energy": -0.28153,
				"method": "rhf"
			},
			{
				"type": "occ",
				"energy": -0.2654,
				"method": "rhf"
			},
			{
				"type": "occ",
				"energy": -0.2556,
				"method": "rhf"
			},
			{
				"type": "occ",
				"energy": -0.23459,
				"method": "rhf"
			},
			{
				"type": "unocc",
				"energy": -0.05463,
				"method": "rhf"
			},
			{
				"type": "unocc",
				"energy": -0.02151,
				"method": "rhf"
			},
			{
				"type": "unocc",
				"energy": 0.02247,
				"method": "rhf"
			},
			{
				"type": "unocc",
				"energy": 0.05415,
				"method": "rhf"
			},
			{
				"type": "unocc",
				"energy": 0.07245,
				"method": "rhf"
			}
		],
		"cosmo_sigma_profile": { 
			"-0.025": 0.0,
			"-0.024": 0.0,
			"-0.023": 0.0,
			"-0.022": 0.0,
			"-0.021": 0.0,
			"-0.02": 0.0,
			"-0.019": 0.0493915589008,
			"-0.018": 0.949061260322,
			"-0.017": 0.652915507509,
			"-0.016": 0.680966213747,
			"-0.015": 0.970672867458,
			"-0.014": 0.624810435781,
			"-0.013": 1.28320827448,
			"-0.012": 2.14944666419,
			"-0.011": 2.14519366599,
			"-0.01": 1.71540965924,
			"-0.009": 1.6301583362,
			"-0.008": 3.03436216281,
			"-0.007": 4.7836290152,
			"-0.006": 10.1948355974,
			"-0.005": 15.0673141233,
			"-0.004": 16.5362949378,
			"-0.003": 16.5399696549,
			"-0.002": 23.3109995554,
			"-0.001": 22.8892251166,
			"0.0": 15.6403255631,
			"0.001": 13.8282551621,
			"0.002": 15.3388911728,
			"0.003": 13.5917757964,
			"0.004": 6.97227569079,
			"0.005": 4.03114697243,
			"0.006": 3.77835865361,
			"0.007": 5.11321919861,
			"0.008": 2.60803242116,
			"0.009": 3.12840448392,
			"0.01": 2.99947334466,
			"0.011": 5.42587572764,
			"0.012": 6.42869291449,
			"0.013": 5.39133582826,
			"0.014": 3.6579853456,
			"0.015": 0.524070860226,
			"0.016": 0.0,
			"0.017": 0.0,
			"0.018": 0.0,
			"0.019": 0.0,
			"0.02": 0.0,
			"0.021": 0.0,
			"0.022": 0.0,
			"0.023": 0.0,
			"0.024": 0.0,
			"0.025": 0.0
		}
	}
}
