{
	 "smiles": "NC1=NN=C(C(NC2=CC=C(Br)C=C2)=N1)C1=CC=CC=C1", 
	 "Tm": 476.15, 
	 "num_atms": 33, 
	 "gaussian": { 
		 "optdone": 1, 
		 "sigma_profile": "yes", 
		 "theory": "DFT", 
		 "functional": "B3LYP", 
		 "basiset": "6-31G**", 
		 "properties": { 
			 "R2extent": 11436.4217, 
			 "electric_dipole_moment_norm": 1.24693809389, 
			 "electric_quadrupole_moment_norm": 25.9614048077, 
			 "total_energy": -3423.98077528, 
			 "HOMO_LUMO_gap": 0.15814, 
			 "cosmo_polarized_energy": -18.08, 
			 "cosmo_cavitation_energy": 40.34, 
			 "cosmo_dispersion_energy": -29.48, 
			 "cosmo_repulsion_energy": 2.25, 
			 "cosmo_total_nonelectrostatic_energy": 13.11, 
			 "SMD_solvation_energy": 2.95 
		},
		"coords": [
			{
				"x": -2.3125896926,
				"y": -3.2229586193,
				"z": -1.5411952072,
				"element": "N" 
			},
			{
				"x": -1.7037516586,
				"y": -2.566539589,
				"z": -0.5162301975,
				"element": "C" 
			},
			{
				"x": -1.8533558103,
				"y": -3.1078183857,
				"z": 0.7082079516,
				"element": "N" 
			},
			{
				"x": -1.2362542594,
				"y": -2.496398363,
				"z": 1.7142275396,
				"element": "N" 
			},
			{
				"x": -0.5204622186,
				"y": -1.3920975536,
				"z": 1.5233569436,
				"element": "C" 
			},
			{
				"x": -0.4712632871,
				"y": -0.8092582032,
				"z": 0.2100290826,
				"element": "C" 
			},
			{
				"x": 0.1408024292,
				"y": 0.4040239784,
				"z": 0.0311997008,
				"element": "N" 
			},
			{
				"x": 0.3053842579,
				"y": 1.2130672786,
				"z": -1.1069596852,
				"element": "C" 
			},
			{
				"x": 0.9216926446,
				"y": 2.461509022,
				"z": -0.9037331465,
				"element": "C" 
			},
			{
				"x": 1.1441558073,
				"y": 3.3333063389,
				"z": -1.9631662207,
				"element": "C" 
			},
			{
				"x": 0.7491237868,
				"y": 2.9618751208,
				"z": -3.2476242208,
				"element": "C" 
			},
			{
				"x": 1.0491079491,
				"y": 4.1531089478,
				"z": -4.7117027673,
				"element": "Br" 
			},
			{
				"x": 0.1375838947,
				"y": 1.7309674045,
				"z": -3.4681459706,
				"element": "C" 
			},
			{
				"x": -0.0867709935,
				"y": 0.8544206649,
				"z": -2.4067563614,
				"element": "C" 
			},
			{
				"x": -1.0496327293,
				"y": -1.4282069472,
				"z": -0.8143625227,
				"element": "N" 
			},
			{
				"x": 0.1398646296,
				"y": -0.8158431723,
				"z": 2.7237743143,
				"element": "C" 
			},
			{
				"x": 1.4749182712,
				"y": -0.3727165261,
				"z": 2.7036259269,
				"element": "C" 
			},
			{
				"x": 2.0728181898,
				"y": 0.140473284,
				"z": 3.8565237557,
				"element": "C" 
			},
			{
				"x": 1.3517309275,
				"y": 0.2115224773,
				"z": 5.0484563453,
				"element": "C" 
			},
			{
				"x": 0.0310574958,
				"y": -0.2446008842,
				"z": 5.0843262067,
				"element": "C" 
			},
			{
				"x": -0.5693878842,
				"y": -0.7534060356,
				"z": 3.9353306013,
				"element": "C" 
			},
			{
				"x": -2.0672550193,
				"y": -2.9723791271,
				"z": -2.4845177344,
				"element": "H" 
			},
			{
				"x": -2.6542863361,
				"y": -4.1515899599,
				"z": -1.3521240063,
				"element": "H" 
			},
			{
				"x": 0.483809804,
				"y": 0.8155773769,
				"z": 0.888396482,
				"element": "H" 
			},
			{
				"x": 1.2297015616,
				"y": 2.7545111927,
				"z": 0.0972517129,
				"element": "H" 
			},
			{
				"x": 1.619263516,
				"y": 4.2921837752,
				"z": -1.7907399639,
				"element": "H" 
			},
			{
				"x": -0.1681884992,
				"y": 1.4491782873,
				"z": -4.4694904646,
				"element": "H" 
			},
			{
				"x": -0.5653424395,
				"y": -0.0985816371,
				"z": -2.5736355068,
				"element": "H" 
			},
			{
				"x": 2.0638710093,
				"y": -0.4670426356,
				"z": 1.7950303916,
				"element": "H" 
			},
			{
				"x": 3.1076053987,
				"y": 0.4692762038,
				"z": 3.8237195942,
				"element": "H" 
			},
			{
				"x": 1.8164789847,
				"y": 0.6113563801,
				"z": 5.9449074041,
				"element": "H" 
			},
			{
				"x": -0.533717774,
				"y": -0.2009613762,
				"z": 6.0111895752,
				"element": "H" 
			},
			{
				"x": -1.5909119561,
				"y": -1.1174587183,
				"z": 3.9594304475,
				"element": "H" 
			}
		],
		 "valence_orbital": [ 
			{
				"type": "occ",
				"energy": -0.26709,
				"method": "rhf"
			},
			{
				"type": "occ",
				"energy": -0.26059,
				"method": "rhf"
			},
			{
				"type": "occ",
				"energy": -0.23463,
				"method": "rhf"
			},
			{
				"type": "occ",
				"energy": -0.22441,
				"method": "rhf"
			},
			{
				"type": "occ",
				"energy": -0.20964,
				"method": "rhf"
			},
			{
				"type": "unocc",
				"energy": -0.0515,
				"method": "rhf"
			},
			{
				"type": "unocc",
				"energy": -0.03376,
				"method": "rhf"
			},
			{
				"type": "unocc",
				"energy": -0.01712,
				"method": "rhf"
			},
			{
				"type": "unocc",
				"energy": -0.01355,
				"method": "rhf"
			},
			{
				"type": "unocc",
				"energy": 0.00388,
				"method": "rhf"
			}
		],
		"cosmo_sigma_profile": { 
			"-0.025": 0.0,
			"-0.024": 0.0,
			"-0.023": 0.0,
			"-0.022": 0.0,
			"-0.021": 0.0,
			"-0.02": 0.0,
			"-0.019": 0.0,
			"-0.018": 0.0,
			"-0.017": 0.0,
			"-0.016": 0.0,
			"-0.015": 0.0732201026654,
			"-0.014": 1.94545201472,
			"-0.013": 2.70319183474,
			"-0.012": 2.26197117766,
			"-0.011": 3.95147551503,
			"-0.01": 3.27838413838,
			"-0.009": 3.02557895806,
			"-0.008": 4.41122873571,
			"-0.007": 7.72563256757,
			"-0.006": 16.6174393691,
			"-0.005": 18.817721838,
			"-0.004": 20.3282576307,
			"-0.003": 20.2271943753,
			"-0.002": 19.2765192884,
			"-0.001": 18.4558568891,
			"0.0": 22.5906569476,
			"0.001": 24.028065446,
			"0.002": 27.9667566406,
			"0.003": 32.341601633,
			"0.004": 29.9487598076,
			"0.005": 21.4749991619,
			"0.006": 4.24880515339,
			"0.007": 3.80987438475,
			"0.008": 2.12075421296,
			"0.009": 2.34289141138,
			"0.01": 2.19327799605,
			"0.011": 2.20419117476,
			"0.012": 1.36293459506,
			"0.013": 2.3443440182,
			"0.014": 2.86527466052,
			"0.015": 2.0219997836,
			"0.016": 0.927635022264,
			"0.017": 0.0408849602888,
			"0.018": 0.0,
			"0.019": 0.0,
			"0.02": 0.0,
			"0.021": 0.0,
			"0.022": 0.0,
			"0.023": 0.0,
			"0.024": 0.0,
			"0.025": 0.0
		}
	}
}
