{
	 "smiles": "CCC(C)C1=CC=CC=C1O", 
	 "Tm": 289.15, 
	 "num_atms": 25, 
	 "gaussian": { 
		 "optdone": 1, 
		 "sigma_profile": "yes", 
		 "theory": "DFT", 
		 "functional": "B3LYP", 
		 "basiset": "6-31G**", 
		 "properties": { 
			 "R2extent": 1882.928, 
			 "electric_dipole_moment_norm": 1.83749871837, 
			 "electric_quadrupole_moment_norm": 5.41133401944, 
			 "total_energy": -464.731794042, 
			 "HOMO_LUMO_gap": 0.21697, 
			 "cosmo_polarized_energy": -6.22, 
			 "cosmo_cavitation_energy": 26.06, 
			 "cosmo_dispersion_energy": -19.02, 
			 "cosmo_repulsion_energy": 1.52, 
			 "cosmo_total_nonelectrostatic_energy": 8.55, 
			 "SMD_solvation_energy": 4.46 
		},
		"coords": [
			{
				"x": 1.42901876,
				"y": 1.1062520558,
				"z": -2.4595998443,
				"element": "C" 
			},
			{
				"x": 1.8690413683,
				"y": 0.0143335117,
				"z": -1.4769048072,
				"element": "C" 
			},
			{
				"x": 0.7506084567,
				"y": -0.8162591541,
				"z": -0.7883575972,
				"element": "C" 
			},
			{
				"x": -0.0477301079,
				"y": -1.6865223407,
				"z": -1.7842515423,
				"element": "C" 
			},
			{
				"x": -0.0957465976,
				"y": -0.0104184234,
				"z": 0.2024142995,
				"element": "C" 
			},
			{
				"x": 0.2385746107,
				"y": -0.0871258035,
				"z": 1.5650445856,
				"element": "C" 
			},
			{
				"x": -0.4625557828,
				"y": 0.5989218753,
				"z": 2.5536360038,
				"element": "C" 
			},
			{
				"x": -1.5498921331,
				"y": 1.3944912827,
				"z": 2.1875716531,
				"element": "C" 
			},
			{
				"x": -1.9097704983,
				"y": 1.4968809147,
				"z": 0.8487524742,
				"element": "C" 
			},
			{
				"x": -1.1908924547,
				"y": 0.8103091769,
				"z": -0.1381042426,
				"element": "C" 
			},
			{
				"x": -1.6386720761,
				"y": 1.0008962327,
				"z": -1.4200537257,
				"element": "O" 
			},
			{
				"x": 0.8111888179,
				"y": 1.8688600505,
				"z": -1.976237326,
				"element": "H" 
			},
			{
				"x": 0.8701767906,
				"y": 0.6975135981,
				"z": -3.3106293747,
				"element": "H" 
			},
			{
				"x": 2.304003174,
				"y": 1.614082984,
				"z": -2.8777614048,
				"element": "H" 
			},
			{
				"x": 2.5293811576,
				"y": -0.6895483133,
				"z": -2.0015604192,
				"element": "H" 
			},
			{
				"x": 2.4755461701,
				"y": 0.4751668031,
				"z": -0.6882260935,
				"element": "H" 
			},
			{
				"x": 1.2892669885,
				"y": -1.5364786428,
				"z": -0.1603519953,
				"element": "H" 
			},
			{
				"x": -0.8328567003,
				"y": -2.2475077985,
				"z": -1.2694828805,
				"element": "H" 
			},
			{
				"x": 0.6242349447,
				"y": -2.4052112424,
				"z": -2.2652346213,
				"element": "H" 
			},
			{
				"x": -0.5280316424,
				"y": -1.1307433256,
				"z": -2.5973944668,
				"element": "H" 
			},
			{
				"x": 1.0781823217,
				"y": -0.7169335782,
				"z": 1.8513252343,
				"element": "H" 
			},
			{
				"x": -0.1689229535,
				"y": 0.5063853971,
				"z": 3.5947010428,
				"element": "H" 
			},
			{
				"x": -2.1169178008,
				"y": 1.9343801608,
				"z": 2.940539775,
				"element": "H" 
			},
			{
				"x": -2.7476000356,
				"y": 2.1095680786,
				"z": 0.5315404701,
				"element": "H" 
			},
			{
				"x": -1.0547347774,
				"y": 0.5513065004,
				"z": -2.0396751969,
				"element": "H" 
			}
		],
		 "valence_orbital": [ 
			{
				"type": "occ",
				"energy": -0.32703,
				"method": "rhf"
			},
			{
				"type": "occ",
				"energy": -0.32139,
				"method": "rhf"
			},
			{
				"type": "occ",
				"energy": -0.31607,
				"method": "rhf"
			},
			{
				"type": "occ",
				"energy": -0.23908,
				"method": "rhf"
			},
			{
				"type": "occ",
				"energy": -0.21272,
				"method": "rhf"
			},
			{
				"type": "unocc",
				"energy": 0.00425,
				"method": "rhf"
			},
			{
				"type": "unocc",
				"energy": 0.01866,
				"method": "rhf"
			},
			{
				"type": "unocc",
				"energy": 0.05978,
				"method": "rhf"
			},
			{
				"type": "unocc",
				"energy": 0.09042,
				"method": "rhf"
			},
			{
				"type": "unocc",
				"energy": 0.11424,
				"method": "rhf"
			}
		],
		"cosmo_sigma_profile": { 
			"-0.025": 0.0,
			"-0.024": 0.0,
			"-0.023": 0.0,
			"-0.022": 0.0,
			"-0.021": 0.0,
			"-0.02": 0.0,
			"-0.019": 0.0,
			"-0.018": 0.0,
			"-0.017": 0.0,
			"-0.016": 0.0,
			"-0.015": 0.0,
			"-0.014": 0.037272383453,
			"-0.013": 0.513707585389,
			"-0.012": 0.751341237441,
			"-0.011": 1.02245513926,
			"-0.01": 0.463041257423,
			"-0.009": 1.02155320538,
			"-0.008": 0.556775626529,
			"-0.007": 1.19885381364,
			"-0.006": 2.39688428597,
			"-0.005": 9.27948667969,
			"-0.004": 12.7640875626,
			"-0.003": 21.3704557425,
			"-0.002": 25.6327752187,
			"-0.001": 25.7358207799,
			"0.0": 26.6453855049,
			"0.001": 19.1714629477,
			"0.002": 8.06488239013,
			"0.003": 7.60124954937,
			"0.004": 9.81097007981,
			"0.005": 8.62583980217,
			"0.006": 9.8573045272,
			"0.007": 4.5528538777,
			"0.008": 1.48826315026,
			"0.009": 1.74856389856,
			"0.01": 1.43355105782,
			"0.011": 1.68337596261,
			"0.012": 0.98203031384,
			"0.013": 0.0,
			"0.014": 0.0,
			"0.015": 0.0,
			"0.016": 0.0,
			"0.017": 0.0,
			"0.018": 0.0,
			"0.019": 0.0,
			"0.02": 0.0,
			"0.021": 0.0,
			"0.022": 0.0,
			"0.023": 0.0,
			"0.024": 0.0,
			"0.025": 0.0
		}
	}
}
