{
	 "smiles": "NC(=O)C1=C(N)SC(=C1)C1=CC=CC=C1", 
	 "Tm": 478.15, 
	 "num_atms": 25, 
	 "gaussian": { 
		 "optdone": 1, 
		 "sigma_profile": "yes", 
		 "theory": "DFT", 
		 "functional": "B3LYP", 
		 "basiset": "6-31G**", 
		 "properties": { 
			 "R2extent": 4376.416, 
			 "electric_dipole_moment_norm": 1.46989450642, 
			 "electric_quadrupole_moment_norm": 15.6993131659, 
			 "total_energy": -1008.13297446, 
			 "HOMO_LUMO_gap": 0.15718, 
			 "cosmo_polarized_energy": -15.19, 
			 "cosmo_cavitation_energy": 30.55, 
			 "cosmo_dispersion_energy": -23.32, 
			 "cosmo_repulsion_energy": 1.77, 
			 "cosmo_total_nonelectrostatic_energy": 9.0, 
			 "SMD_solvation_energy": 5.21 
		},
		"coords": [
			{
				"x": 1.1445208453,
				"y": -1.9722582516,
				"z": 2.8160736135,
				"element": "N" 
			},
			{
				"x": 1.2257800376,
				"y": -2.4060253824,
				"z": 1.5134323129,
				"element": "C" 
			},
			{
				"x": 1.7314887518,
				"y": -3.5094744468,
				"z": 1.2557673423,
				"element": "O" 
			},
			{
				"x": 0.730193874,
				"y": -1.4997516939,
				"z": 0.4695160829,
				"element": "C" 
			},
			{
				"x": 0.7156316663,
				"y": -1.9022047754,
				"z": -0.8672885312,
				"element": "C" 
			},
			{
				"x": 1.0702460995,
				"y": -3.1202808312,
				"z": -1.3498400774,
				"element": "N" 
			},
			{
				"x": 0.0936521779,
				"y": -0.6393706616,
				"z": -1.9058140319,
				"element": "S" 
			},
			{
				"x": -0.13775475,
				"y": 0.4612332198,
				"z": -0.530078709,
				"element": "C" 
			},
			{
				"x": 0.2450425265,
				"y": -0.1590794542,
				"z": 0.6259679926,
				"element": "C" 
			},
			{
				"x": -0.6532596139,
				"y": 1.8171675226,
				"z": -0.7315146728,
				"element": "C" 
			},
			{
				"x": -0.3572084827,
				"y": 2.8366973914,
				"z": 0.1949750118,
				"element": "C" 
			},
			{
				"x": -0.8617746768,
				"y": 4.1233586749,
				"z": 0.0279561369,
				"element": "C" 
			},
			{
				"x": -1.6581343421,
				"y": 4.433921856,
				"z": -1.0773860481,
				"element": "C" 
			},
			{
				"x": -1.9472502529,
				"y": 3.4382394122,
				"z": -2.0117988231,
				"element": "C" 
			},
			{
				"x": -1.4565998273,
				"y": 2.1453367573,
				"z": -1.839627909,
				"element": "C" 
			},
			{
				"x": 1.3561721841,
				"y": -2.6731253189,
				"z": 3.5114439942,
				"element": "H" 
			},
			{
				"x": 0.4778664353,
				"y": -1.2626045659,
				"z": 3.0757951715,
				"element": "H" 
			},
			{
				"x": 1.5472108326,
				"y": -3.6950069765,
				"z": -0.6555250077,
				"element": "H" 
			},
			{
				"x": 1.3115280906,
				"y": -3.2196250898,
				"z": -2.3232139952,
				"element": "H" 
			},
			{
				"x": 0.1842790113,
				"y": 0.3455357218,
				"z": 1.5840030745,
				"element": "H" 
			},
			{
				"x": 0.2919908688,
				"y": 2.6201754321,
				"z": 1.037881348,
				"element": "H" 
			},
			{
				"x": -0.6182326877,
				"y": 4.8919008273,
				"z": 0.7563098812,
				"element": "H" 
			},
			{
				"x": -2.0433482232,
				"y": 5.4404181876,
				"z": -1.2105649708,
				"element": "H" 
			},
			{
				"x": -2.5660031744,
				"y": 3.6646251462,
				"z": -2.8755656357,
				"element": "H" 
			},
			{
				"x": -1.7151373705,
				"y": 1.3761972991,
				"z": -2.5622035503,
				"element": "H" 
			}
		],
		 "valence_orbital": [ 
			{
				"type": "occ",
				"energy": -0.25834,
				"method": "rhf"
			},
			{
				"type": "occ",
				"energy": -0.25552,
				"method": "rhf"
			},
			{
				"type": "occ",
				"energy": -0.25166,
				"method": "rhf"
			},
			{
				"type": "occ",
				"energy": -0.2504,
				"method": "rhf"
			},
			{
				"type": "occ",
				"energy": -0.18752,
				"method": "rhf"
			},
			{
				"type": "unocc",
				"energy": -0.03034,
				"method": "rhf"
			},
			{
				"type": "unocc",
				"energy": -0.01053,
				"method": "rhf"
			},
			{
				"type": "unocc",
				"energy": -0.00418,
				"method": "rhf"
			},
			{
				"type": "unocc",
				"energy": 0.01514,
				"method": "rhf"
			},
			{
				"type": "unocc",
				"energy": 0.04491,
				"method": "rhf"
			}
		],
		"cosmo_sigma_profile": { 
			"-0.025": 0.0,
			"-0.024": 0.0,
			"-0.023": 0.0,
			"-0.022": 0.0,
			"-0.021": 0.0,
			"-0.02": 0.0,
			"-0.019": 0.0,
			"-0.018": 0.0,
			"-0.017": 0.0,
			"-0.016": 0.0,
			"-0.015": 0.541619306284,
			"-0.014": 2.60736251016,
			"-0.013": 3.68804589202,
			"-0.012": 3.34143594122,
			"-0.011": 4.11450081551,
			"-0.01": 3.49225816706,
			"-0.009": 5.02458697816,
			"-0.008": 4.54278143656,
			"-0.007": 4.16583330574,
			"-0.006": 8.86454801131,
			"-0.005": 13.1001254608,
			"-0.004": 15.4015753728,
			"-0.003": 14.165235208,
			"-0.002": 10.4252817352,
			"-0.001": 10.950162022,
			"0.0": 12.7151748253,
			"0.001": 14.7665067678,
			"0.002": 18.655060111,
			"0.003": 23.5043555282,
			"0.004": 23.8913350244,
			"0.005": 20.1960771598,
			"0.006": 9.6396728385,
			"0.007": 2.70931899369,
			"0.008": 2.69481133442,
			"0.009": 2.80944817937,
			"0.01": 1.95583157572,
			"0.011": 1.59015842984,
			"0.012": 1.28947903385,
			"0.013": 2.57203044942,
			"0.014": 2.16337965478,
			"0.015": 0.805522082093,
			"0.016": 0.0,
			"0.017": 0.0,
			"0.018": 0.0,
			"0.019": 0.0,
			"0.02": 0.0,
			"0.021": 0.0,
			"0.022": 0.0,
			"0.023": 0.0,
			"0.024": 0.0,
			"0.025": 0.0
		}
	}
}
