{
	 "smiles": "COC(=O)C1=C(C)OC(C=O)=C1", 
	 "Tm": 356.15, 
	 "num_atms": 20, 
	 "gaussian": { 
		 "optdone": 1, 
		 "sigma_profile": "yes", 
		 "theory": "DFT", 
		 "functional": "B3LYP", 
		 "basiset": "6-31G**", 
		 "properties": { 
			 "R2extent": 2526.2896, 
			 "electric_dipole_moment_norm": 2.59585240913, 
			 "electric_quadrupole_moment_norm": 16.2554696229, 
			 "total_energy": -610.552676341, 
			 "HOMO_LUMO_gap": 0.18217, 
			 "cosmo_polarized_energy": -10.41, 
			 "cosmo_cavitation_energy": 25.81, 
			 "cosmo_dispersion_energy": -18.47, 
			 "cosmo_repulsion_energy": 1.49, 
			 "cosmo_total_nonelectrostatic_energy": 8.84, 
			 "SMD_solvation_energy": 7.8 
		},
		"coords": [
			{
				"x": 0.8242099328,
				"y": 3.7230247864,
				"z": 1.6983532537,
				"element": "C" 
			},
			{
				"x": 0.9233267446,
				"y": 2.3641370265,
				"z": 1.2416043099,
				"element": "O" 
			},
			{
				"x": -0.0295254344,
				"y": 1.9805448571,
				"z": 0.3639369819,
				"element": "C" 
			},
			{
				"x": -0.9203498877,
				"y": 2.7120592352,
				"z": -0.0300707668,
				"element": "O" 
			},
			{
				"x": 0.1459274894,
				"y": 0.5818643913,
				"z": -0.0509876174,
				"element": "C" 
			},
			{
				"x": -0.6864172555,
				"y": -0.0727623345,
				"z": -0.9437344512,
				"element": "C" 
			},
			{
				"x": -1.8943607405,
				"y": 0.352013702,
				"z": -1.6995746432,
				"element": "C" 
			},
			{
				"x": -0.2574326749,
				"y": -1.3395043174,
				"z": -1.1132986541,
				"element": "O" 
			},
			{
				"x": 0.8655315615,
				"y": -1.5181130204,
				"z": -0.3256909387,
				"element": "C" 
			},
			{
				"x": 1.5005376843,
				"y": -2.8268399328,
				"z": -0.3544571037,
				"element": "C" 
			},
			{
				"x": 2.4940348541,
				"y": -3.1071956987,
				"z": 0.2942256252,
				"element": "O" 
			},
			{
				"x": 1.1435332381,
				"y": -0.3567417357,
				"z": 0.3425156869,
				"element": "C" 
			},
			{
				"x": 0.9010688358,
				"y": 4.417847292,
				"z": 0.8583015981,
				"element": "H" 
			},
			{
				"x": -0.1285460505,
				"y": 3.8893369003,
				"z": 2.2072498731,
				"element": "H" 
			},
			{
				"x": 1.6564099599,
				"y": 3.8617801822,
				"z": 2.3879080713,
				"element": "H" 
			},
			{
				"x": -1.665043405,
				"y": 1.2060863754,
				"z": -2.3435918684,
				"element": "H" 
			},
			{
				"x": -2.6802179565,
				"y": 0.6838941665,
				"z": -1.0146812284,
				"element": "H" 
			},
			{
				"x": -2.2647215528,
				"y": -0.4754544488,
				"z": -2.3076202011,
				"element": "H" 
			},
			{
				"x": 1.0026179202,
				"y": -3.5604650087,
				"z": -1.022715834,
				"element": "H" 
			},
			{
				"x": 1.9609167369,
				"y": -0.1978124178,
				"z": 1.0292279067,
				"element": "H" 
			}
		],
		 "valence_orbital": [ 
			{
				"type": "occ",
				"energy": -0.30915,
				"method": "rhf"
			},
			{
				"type": "occ",
				"energy": -0.30202,
				"method": "rhf"
			},
			{
				"type": "occ",
				"energy": -0.28405,
				"method": "rhf"
			},
			{
				"type": "occ",
				"energy": -0.25965,
				"method": "rhf"
			},
			{
				"type": "occ",
				"energy": -0.24639,
				"method": "rhf"
			},
			{
				"type": "unocc",
				"energy": -0.06422,
				"method": "rhf"
			},
			{
				"type": "unocc",
				"energy": -0.03609,
				"method": "rhf"
			},
			{
				"type": "unocc",
				"energy": 0.06807,
				"method": "rhf"
			},
			{
				"type": "unocc",
				"energy": 0.10217,
				"method": "rhf"
			},
			{
				"type": "unocc",
				"energy": 0.10408,
				"method": "rhf"
			}
		],
		"cosmo_sigma_profile": { 
			"-0.025": 0.0,
			"-0.024": 0.0,
			"-0.023": 0.0,
			"-0.022": 0.0,
			"-0.021": 0.0,
			"-0.02": 0.0,
			"-0.019": 0.0,
			"-0.018": 0.0,
			"-0.017": 0.0,
			"-0.016": 0.0,
			"-0.015": 0.0,
			"-0.014": 0.0,
			"-0.013": 0.0,
			"-0.012": 0.0,
			"-0.011": 0.0,
			"-0.01": 0.0,
			"-0.009": 0.658271083607,
			"-0.008": 1.05255393905,
			"-0.007": 4.48472983,
			"-0.006": 14.5168820946,
			"-0.005": 15.2979961213,
			"-0.004": 19.7436406537,
			"-0.003": 23.2067122411,
			"-0.002": 23.7586155702,
			"-0.001": 16.8777699981,
			"0.0": 15.0499414257,
			"0.001": 11.9561990694,
			"0.002": 6.78364904701,
			"0.003": 6.68761626389,
			"0.004": 5.86506760051,
			"0.005": 5.89391592449,
			"0.006": 5.06143299665,
			"0.007": 3.25551242356,
			"0.008": 3.04167596069,
			"0.009": 4.07220768042,
			"0.01": 4.33087457923,
			"0.011": 6.99352600138,
			"0.012": 6.56290149076,
			"0.013": 0.91417448763,
			"0.014": 0.0,
			"0.015": 0.0,
			"0.016": 0.0,
			"0.017": 0.0,
			"0.018": 0.0,
			"0.019": 0.0,
			"0.02": 0.0,
			"0.021": 0.0,
			"0.022": 0.0,
			"0.023": 0.0,
			"0.024": 0.0,
			"0.025": 0.0
		}
	}
}
