{
	 "smiles": "NC1=NN2C(NC(=O)C=C2C2=CC=CC=C2)=C1N=NC1=CC=CC=C1", 
	 "Tm": 538.15, 
	 "num_atms": 39, 
	 "gaussian": { 
		 "optdone": 1, 
		 "sigma_profile": "yes", 
		 "theory": "DFT", 
		 "functional": "B3LYP", 
		 "basiset": "6-31G**", 
		 "properties": { 
			 "R2extent": 12003.7491, 
			 "electric_dipole_moment_norm": 4.22950420026, 
			 "electric_quadrupole_moment_norm": 25.6889241172, 
			 "total_energy": -1098.05076484, 
			 "HOMO_LUMO_gap": 0.13305, 
			 "cosmo_polarized_energy": -17.75, 
			 "cosmo_cavitation_energy": 44.78, 
			 "cosmo_dispersion_energy": -32.25, 
			 "cosmo_repulsion_energy": 2.43, 
			 "cosmo_total_nonelectrostatic_energy": 14.96, 
			 "SMD_solvation_energy": 6.28 
		},
		"coords": [
			{
				"x": -0.7093579129,
				"y": -0.3134230735,
				"z": 3.5064651039,
				"element": "N" 
			},
			{
				"x": -0.0818189919,
				"y": 0.0926737662,
				"z": 2.3620912251,
				"element": "C" 
			},
			{
				"x": 0.4244555727,
				"y": 1.3105597582,
				"z": 2.2243518098,
				"element": "N" 
			},
			{
				"x": 0.9115525666,
				"y": 1.3302958328,
				"z": 0.9169096129,
				"element": "N" 
			},
			{
				"x": 0.6975627327,
				"y": 0.1461357873,
				"z": 0.2724538996,
				"element": "C" 
			},
			{
				"x": 1.0775872198,
				"y": -0.0166537452,
				"z": -1.0152047402,
				"element": "N" 
			},
			{
				"x": 1.6891455268,
				"y": 1.0037119307,
				"z": -1.7746002849,
				"element": "C" 
			},
			{
				"x": 2.0082716385,
				"y": 0.8086928021,
				"z": -2.9382922645,
				"element": "O" 
			},
			{
				"x": 1.8843461969,
				"y": 2.2387783503,
				"z": -1.0246389769,
				"element": "C" 
			},
			{
				"x": 1.5056710157,
				"y": 2.4103887484,
				"z": 0.2796521129,
				"element": "C" 
			},
			{
				"x": 1.7161967799,
				"y": 3.6807509217,
				"z": 1.0106782513,
				"element": "C" 
			},
			{
				"x": 1.5172199179,
				"y": 4.8941487321,
				"z": 0.3308170746,
				"element": "C" 
			},
			{
				"x": 1.7674713574,
				"y": 6.1100960502,
				"z": 0.96337924,
				"element": "C" 
			},
			{
				"x": 2.2241521046,
				"y": 6.1312448883,
				"z": 2.2822014147,
				"element": "C" 
			},
			{
				"x": 2.4221268297,
				"y": 4.9298317947,
				"z": 2.965876274,
				"element": "C" 
			},
			{
				"x": 2.1659611008,
				"y": 3.7109871506,
				"z": 2.3414048139,
				"element": "C" 
			},
			{
				"x": 0.0554269859,
				"y": -0.7093145835,
				"z": 1.1756177666,
				"element": "C" 
			},
			{
				"x": -0.3600538731,
				"y": -2.0037362847,
				"z": 1.0368524393,
				"element": "N" 
			},
			{
				"x": -0.1346304713,
				"y": -2.5167968608,
				"z": -0.1105512308,
				"element": "N" 
			},
			{
				"x": -0.562252908,
				"y": -3.8556676655,
				"z": -0.2630152553,
				"element": "C" 
			},
			{
				"x": -0.2867710392,
				"y": -4.4467271675,
				"z": -1.5050578943,
				"element": "C" 
			},
			{
				"x": -0.6666180468,
				"y": -5.7632026117,
				"z": -1.7594226594,
				"element": "C" 
			},
			{
				"x": -1.3275218473,
				"y": -6.5012235282,
				"z": -0.7759021401,
				"element": "C" 
			},
			{
				"x": -1.6066775855,
				"y": -5.9136941956,
				"z": 0.4643507828,
				"element": "C" 
			},
			{
				"x": -1.2298347634,
				"y": -4.6012736258,
				"z": 0.7254135054,
				"element": "C" 
			},
			{
				"x": -0.5105190565,
				"y": 0.2181086521,
				"z": 4.3407809936,
				"element": "H" 
			},
			{
				"x": -0.7965047811,
				"y": -1.311644767,
				"z": 3.6242053292,
				"element": "H" 
			},
			{
				"x": 0.8848703093,
				"y": -0.92622719,
				"z": -1.4268852303,
				"element": "H" 
			},
			{
				"x": 2.3885793636,
				"y": 3.039083174,
				"z": -1.5479765343,
				"element": "H" 
			},
			{
				"x": 1.1444865639,
				"y": 4.8807717466,
				"z": -0.6884226189,
				"element": "H" 
			},
			{
				"x": 1.5992177404,
				"y": 7.0394923294,
				"z": 0.427592435,
				"element": "H" 
			},
			{
				"x": 2.4193723876,
				"y": 7.0784953839,
				"z": 2.7764555503,
				"element": "H" 
			},
			{
				"x": 2.7770521711,
				"y": 4.9402636639,
				"z": 3.9922072229,
				"element": "H" 
			},
			{
				"x": 2.3061448251,
				"y": 2.7824617841,
				"z": 2.8796599898,
				"element": "H" 
			},
			{
				"x": 0.2274093406,
				"y": -3.8557678742,
				"z": -2.2568736933,
				"element": "H" 
			},
			{
				"x": -0.4476808702,
				"y": -6.2116174834,
				"z": -2.7240364212,
				"element": "H" 
			},
			{
				"x": -1.6260787475,
				"y": -7.5269900305,
				"z": -0.9714478083,
				"element": "H" 
			},
			{
				"x": -2.1234397205,
				"y": -6.4865362383,
				"z": 1.2294945478,
				"element": "H" 
			},
			{
				"x": -1.4426196324,
				"y": -4.1346763223,
				"z": 1.680116357,
				"element": "H" 
			}
		],
		 "valence_orbital": [ 
			{
				"type": "occ",
				"energy": -0.25377,
				"method": "rhf"
			},
			{
				"type": "occ",
				"energy": -0.24967,
				"method": "rhf"
			},
			{
				"type": "occ",
				"energy": -0.23575,
				"method": "rhf"
			},
			{
				"type": "occ",
				"energy": -0.21682,
				"method": "rhf"
			},
			{
				"type": "occ",
				"energy": -0.20977,
				"method": "rhf"
			},
			{
				"type": "unocc",
				"energy": -0.07672,
				"method": "rhf"
			},
			{
				"type": "unocc",
				"energy": -0.05709,
				"method": "rhf"
			},
			{
				"type": "unocc",
				"energy": -0.01153,
				"method": "rhf"
			},
			{
				"type": "unocc",
				"energy": -0.00246,
				"method": "rhf"
			},
			{
				"type": "unocc",
				"energy": 0.00178,
				"method": "rhf"
			}
		],
		"cosmo_sigma_profile": { 
			"-0.025": 0.0,
			"-0.024": 0.0,
			"-0.023": 0.0,
			"-0.022": 0.0,
			"-0.021": 0.0,
			"-0.02": 0.0,
			"-0.019": 0.0,
			"-0.018": 0.0,
			"-0.017": 0.0,
			"-0.016": 0.0,
			"-0.015": 0.0154704357456,
			"-0.014": 0.817648422886,
			"-0.013": 1.74061969555,
			"-0.012": 2.32766213706,
			"-0.011": 2.02438331096,
			"-0.01": 2.93797330808,
			"-0.009": 2.44149112911,
			"-0.008": 2.8763941435,
			"-0.007": 6.4597550898,
			"-0.006": 20.3106579543,
			"-0.005": 25.3767589304,
			"-0.004": 28.8448073766,
			"-0.003": 26.3449919718,
			"-0.002": 26.2372360063,
			"-0.001": 24.3287372519,
			"0.0": 24.6045138486,
			"0.001": 23.1503699913,
			"0.002": 27.3575034194,
			"0.003": 29.5931726346,
			"0.004": 29.3199873025,
			"0.005": 18.6275330084,
			"0.006": 4.7147100773,
			"0.007": 4.36509595835,
			"0.008": 3.32978091657,
			"0.009": 2.77488866118,
			"0.01": 3.28767090639,
			"0.011": 3.77555751818,
			"0.012": 2.94533176122,
			"0.013": 6.75033015028,
			"0.014": 2.78520517683,
			"0.015": 0.0927263447537,
			"0.016": 0.0,
			"0.017": 0.0,
			"0.018": 0.0,
			"0.019": 0.0,
			"0.02": 0.0,
			"0.021": 0.0,
			"0.022": 0.0,
			"0.023": 0.0,
			"0.024": 0.0,
			"0.025": 0.0
		}
	}
}
