{
	 "smiles": "CC(=O)OC1=C(OC(C)=O)C=C(C=C1)C(O)=O", 
	 "Tm": 433.15, 
	 "num_atms": 27, 
	 "gaussian": { 
		 "optdone": 1, 
		 "sigma_profile": "yes", 
		 "theory": "DFT", 
		 "functional": "B3LYP", 
		 "basiset": "6-31G**", 
		 "properties": { 
			 "R2extent": 4649.8683, 
			 "electric_dipole_moment_norm": 2.20876849172, 
			 "electric_quadrupole_moment_norm": 33.6742556997, 
			 "total_energy": -876.558081088, 
			 "HOMO_LUMO_gap": 0.20083, 
			 "cosmo_polarized_energy": -22.31, 
			 "cosmo_cavitation_energy": 32.67, 
			 "cosmo_dispersion_energy": -22.79, 
			 "cosmo_repulsion_energy": 1.79, 
			 "cosmo_total_nonelectrostatic_energy": 11.67, 
			 "SMD_solvation_energy": 9.2 
		},
		"coords": [
			{
				"x": 0.9865986382,
				"y": -0.1088173453,
				"z": -2.9711274637,
				"element": "C" 
			},
			{
				"x": 1.3499364374,
				"y": 1.1265971438,
				"z": -2.1855390254,
				"element": "C" 
			},
			{
				"x": 1.6610733114,
				"y": 2.186001712,
				"z": -2.6540327429,
				"element": "O" 
			},
			{
				"x": 1.2939358844,
				"y": 1.0447661367,
				"z": -0.7916533553,
				"element": "O" 
			},
			{
				"x": 1.058087977,
				"y": -0.12294934,
				"z": -0.1071466951,
				"element": "C" 
			},
			{
				"x": -0.0992934928,
				"y": -0.2166741903,
				"z": 0.6836548813,
				"element": "C" 
			},
			{
				"x": -0.9815805014,
				"y": 0.8491684965,
				"z": 0.7799126797,
				"element": "O" 
			},
			{
				"x": -1.7259207255,
				"y": 1.1970617858,
				"z": -0.321930217,
				"element": "C" 
			},
			{
				"x": -2.5277833268,
				"y": 2.4359631894,
				"z": -0.0329916707,
				"element": "C" 
			},
			{
				"x": -1.7112222143,
				"y": 0.574291275,
				"z": -1.3552901835,
				"element": "O" 
			},
			{
				"x": -0.3247134505,
				"y": -1.3372012869,
				"z": 1.4684486927,
				"element": "C" 
			},
			{
				"x": 0.5924791205,
				"y": -2.3955944436,
				"z": 1.4697392497,
				"element": "C" 
			},
			{
				"x": 1.7602754434,
				"y": -2.2909844019,
				"z": 0.7024022762,
				"element": "C" 
			},
			{
				"x": 1.9950220604,
				"y": -1.1571631713,
				"z": -0.0723045605,
				"element": "C" 
			},
			{
				"x": 0.2832973041,
				"y": -3.5715576468,
				"z": 2.3477976721,
				"element": "C" 
			},
			{
				"x": 0.9329903641,
				"y": -4.7321907159,
				"z": 2.0679813705,
				"element": "O" 
			},
			{
				"x": -0.4996296485,
				"y": -3.5212192777,
				"z": 3.2663459243,
				"element": "O" 
			},
			{
				"x": 1.7199784538,
				"y": -0.9059547282,
				"z": -2.8240150275,
				"element": "H" 
			},
			{
				"x": 0.0083035685,
				"y": -0.4769235474,
				"z": -2.6535267601,
				"element": "H" 
			},
			{
				"x": 0.963436138,
				"y": 0.1654637825,
				"z": -4.0251279387,
				"element": "H" 
			},
			{
				"x": -3.0644042388,
				"y": 2.3328802648,
				"z": 0.9135011245,
				"element": "H" 
			},
			{
				"x": -1.8480304367,
				"y": 3.2884224841,
				"z": 0.0643225911,
				"element": "H" 
			},
			{
				"x": -3.2244988684,
				"y": 2.6146955707,
				"z": -0.8509167145,
				"element": "H" 
			},
			{
				"x": -1.2105059097,
				"y": -1.3962755074,
				"z": 2.0903967224,
				"element": "H" 
			},
			{
				"x": 2.5257326661,
				"y": -3.0614066857,
				"z": 0.7402562286,
				"element": "H" 
			},
			{
				"x": 2.918310333,
				"y": -1.0494627964,
				"z": -0.6317310359,
				"element": "H" 
			},
			{
				"x": 1.3831251131,
				"y": -4.6702367563,
				"z": 1.2143739776,
				"element": "H" 
			}
		],
		 "valence_orbital": [ 
			{
				"type": "occ",
				"energy": -0.29976,
				"method": "rhf"
			},
			{
				"type": "occ",
				"energy": -0.29333,
				"method": "rhf"
			},
			{
				"type": "occ",
				"energy": -0.28563,
				"method": "rhf"
			},
			{
				"type": "occ",
				"energy": -0.27982,
				"method": "rhf"
			},
			{
				"type": "occ",
				"energy": -0.2656,
				"method": "rhf"
			},
			{
				"type": "unocc",
				"energy": -0.06477,
				"method": "rhf"
			},
			{
				"type": "unocc",
				"energy": -0.04079,
				"method": "rhf"
			},
			{
				"type": "unocc",
				"energy": -0.0112,
				"method": "rhf"
			},
			{
				"type": "unocc",
				"energy": -0.00452,
				"method": "rhf"
			},
			{
				"type": "unocc",
				"energy": 0.03591,
				"method": "rhf"
			}
		],
		"cosmo_sigma_profile": { 
			"-0.025": 0.0,
			"-0.024": 0.0,
			"-0.023": 0.0,
			"-0.022": 0.0,
			"-0.021": 0.0,
			"-0.02": 0.0,
			"-0.019": 0.601741302344,
			"-0.018": 1.14390113603,
			"-0.017": 0.952527783284,
			"-0.016": 1.06300976525,
			"-0.015": 0.897600215528,
			"-0.014": 0.877932678995,
			"-0.013": 1.11698898746,
			"-0.012": 0.779701812595,
			"-0.011": 1.81310405844,
			"-0.01": 2.50021810424,
			"-0.009": 4.50047888427,
			"-0.008": 6.07808943071,
			"-0.007": 11.5037277768,
			"-0.006": 14.4166200104,
			"-0.005": 13.8702314143,
			"-0.004": 17.2730175018,
			"-0.003": 21.6606765192,
			"-0.002": 20.1271837833,
			"-0.001": 15.0893736121,
			"0.0": 19.4052866515,
			"0.001": 15.3762536156,
			"0.002": 8.16586789358,
			"0.003": 7.71196316201,
			"0.004": 8.89983963389,
			"0.005": 5.77205262286,
			"0.006": 6.54630016164,
			"0.007": 6.96571987659,
			"0.008": 7.45897603197,
			"0.009": 8.36543844619,
			"0.01": 11.4734149365,
			"0.011": 11.9698050614,
			"0.012": 5.76333876453,
			"0.013": 0.931723759515,
			"0.014": 0.0,
			"0.015": 0.0,
			"0.016": 0.0,
			"0.017": 0.0,
			"0.018": 0.0,
			"0.019": 0.0,
			"0.02": 0.0,
			"0.021": 0.0,
			"0.022": 0.0,
			"0.023": 0.0,
			"0.024": 0.0,
			"0.0": 0.0
		}
	}
}
