{
	 "smiles": "CN(N)C1=NC2=CC=CC=C2N=C1", 
	 "Tm": 381.15, 
	 "num_atms": 23, 
	 "gaussian": { 
		 "optdone": 1, 
		 "sigma_profile": "yes", 
		 "theory": "DFT", 
		 "functional": "B3LYP", 
		 "basiset": "6-31G**", 
		 "properties": { 
			 "R2extent": 3739.1732, 
			 "electric_dipole_moment_norm": 3.47240921264, 
			 "electric_quadrupole_moment_norm": 11.1460860992, 
			 "total_energy": -567.96081224, 
			 "HOMO_LUMO_gap": 0.15647, 
			 "cosmo_polarized_energy": -11.59, 
			 "cosmo_cavitation_energy": 26.65, 
			 "cosmo_dispersion_energy": -20.03, 
			 "cosmo_repulsion_energy": 1.58, 
			 "cosmo_total_nonelectrostatic_energy": 8.2, 
			 "SMD_solvation_energy": 2.34 
		},
		"coords": [
			{
				"x": -1.0152710903,
				"y": -0.45544269,
				"z": 1.9358991187,
				"element": "C" 
			},
			{
				"x": -1.5026036313,
				"y": -0.2627067023,
				"z": 0.5797002964,
				"element": "N" 
			},
			{
				"x": -2.366814932,
				"y": 0.822257503,
				"z": 0.3437642185,
				"element": "N" 
			},
			{
				"x": -0.7873040383,
				"y": -0.7402703861,
				"z": -0.506975887,
				"element": "C" 
			},
			{
				"x": 0.2414520032,
				"y": -1.5348423704,
				"z": -0.2758091994,
				"element": "N" 
			},
			{
				"x": 0.8944085255,
				"y": -2.0416349714,
				"z": -1.3618533475,
				"element": "C" 
			},
			{
				"x": 2.0011614446,
				"y": -2.9074483436,
				"z": -1.1782332629,
				"element": "C" 
			},
			{
				"x": 2.6696239094,
				"y": -3.4182300194,
				"z": -2.2722258445,
				"element": "C" 
			},
			{
				"x": 2.2661979751,
				"y": -3.0893461912,
				"z": -3.5885161239,
				"element": "C" 
			},
			{
				"x": 1.1923231064,
				"y": -2.247505216,
				"z": -3.7935774099,
				"element": "C" 
			},
			{
				"x": 0.4906181013,
				"y": -1.7111399216,
				"z": -2.6888056785,
				"element": "C" 
			},
			{
				"x": -0.5750933149,
				"y": -0.8748684167,
				"z": -2.9023786619,
				"element": "N" 
			},
			{
				"x": -1.1949623421,
				"y": -0.4048193382,
				"z": -1.8519734077,
				"element": "C" 
			},
			{
				"x": -0.3724773839,
				"y": 0.3780452203,
				"z": 2.2611698195,
				"element": "H" 
			},
			{
				"x": -0.4340156344,
				"y": -1.3750676619,
				"z": 1.9787463873,
				"element": "H" 
			},
			{
				"x": -1.8694298989,
				"y": -0.5244675731,
				"z": 2.6179960775,
				"element": "H" 
			},
			{
				"x": -3.2418119817,
				"y": 0.6545027188,
				"z": 0.8353462202,
				"element": "H" 
			},
			{
				"x": -1.9574686644,
				"y": 1.680522767,
				"z": 0.7187395249,
				"element": "H" 
			},
			{
				"x": 2.2976250797,
				"y": -3.1494491207,
				"z": -0.1624139889,
				"element": "H" 
			},
			{
				"x": 3.5168703532,
				"y": -4.0820911341,
				"z": -2.1240185584,
				"element": "H" 
			},
			{
				"x": 2.8060279203,
				"y": -3.5026335961,
				"z": -4.4352639166,
				"element": "H" 
			},
			{
				"x": 0.8565014419,
				"y": -1.9745417382,
				"z": -4.7891953612,
				"element": "H" 
			},
			{
				"x": -2.0400569484,
				"y": 0.258077182,
				"z": -2.0031210147,
				"element": "H" 
			}
		],
		 "valence_orbital": [ 
			{
				"type": "occ",
				"energy": -0.2832,
				"method": "rhf"
			},
			{
				"type": "occ",
				"energy": -0.27794,
				"method": "rhf"
			},
			{
				"type": "occ",
				"energy": -0.23377,
				"method": "rhf"
			},
			{
				"type": "occ",
				"energy": -0.23355,
				"method": "rhf"
			},
			{
				"type": "occ",
				"energy": -0.20573,
				"method": "rhf"
			},
			{
				"type": "unocc",
				"energy": -0.04926,
				"method": "rhf"
			},
			{
				"type": "unocc",
				"energy": -0.00163,
				"method": "rhf"
			},
			{
				"type": "unocc",
				"energy": 0.02469,
				"method": "rhf"
			},
			{
				"type": "unocc",
				"energy": 0.06233,
				"method": "rhf"
			},
			{
				"type": "unocc",
				"energy": 0.09887,
				"method": "rhf"
			}
		],
		"cosmo_sigma_profile": { 
			"-0.025": 0.0,
			"-0.024": 0.0,
			"-0.023": 0.0,
			"-0.022": 0.0,
			"-0.021": 0.0,
			"-0.02": 0.0,
			"-0.019": 0.0,
			"-0.018": 0.0,
			"-0.017": 0.0,
			"-0.016": 0.0,
			"-0.015": 0.0,
			"-0.014": 0.0,
			"-0.013": 0.0,
			"-0.012": 0.932945475445,
			"-0.011": 3.9106792009,
			"-0.01": 3.6776329265,
			"-0.009": 3.17549126817,
			"-0.008": 2.73557355356,
			"-0.007": 3.62696334115,
			"-0.006": 7.99066395304,
			"-0.005": 13.1153072272,
			"-0.004": 15.3625865713,
			"-0.003": 14.1253201969,
			"-0.002": 16.1308675336,
			"-0.001": 15.5811969685,
			"0.0": 13.5000892319,
			"0.001": 13.1483797693,
			"0.002": 13.9603315161,
			"0.003": 18.0462357712,
			"0.004": 18.148924823,
			"0.005": 11.6716059159,
			"0.006": 4.22023416719,
			"0.007": 4.69344207275,
			"0.008": 3.21781945412,
			"0.009": 3.53474327275,
			"0.01": 3.12564525874,
			"0.011": 1.66944702215,
			"0.012": 0.494999253561,
			"0.013": 1.10468237744,
			"0.014": 0.598243984461,
			"0.015": 0.849931323336,
			"0.016": 0.106753902862,
			"0.017": 0.0,
			"0.018": 0.0,
			"0.019": 0.0,
			"0.02": 0.0,
			"0.021": 0.0,
			"0.022": 0.0,
			"0.023": 0.0,
			"0.024": 0.0,
			"0.025": 0.0
		}
	}
}
