{
	 "smiles": "OC(=O)C1=C(Cl)C=CC(=C1)S(=O)(=O)N1CCOCC1", 
	 "Tm": 457.15, 
	 "num_atms": 31, 
	 "gaussian": { 
		 "optdone": 1, 
		 "sigma_profile": "yes", 
		 "theory": "DFT", 
		 "functional": "B3LYP", 
		 "basiset": "6-31G**", 
		 "properties": { 
			 "R2extent": 8744.7157, 
			 "electric_dipole_moment_norm": 3.83332191969, 
			 "electric_quadrupole_moment_norm": 22.5236422772, 
			 "total_energy": -1715.56652343, 
			 "HOMO_LUMO_gap": 0.16408, 
			 "cosmo_polarized_energy": -19.76, 
			 "cosmo_cavitation_energy": 37.06, 
			 "cosmo_dispersion_energy": -27.04, 
			 "cosmo_repulsion_energy": 2.02, 
			 "cosmo_total_nonelectrostatic_energy": 12.04, 
			 "SMD_solvation_energy": 5.95 
		},
		"coords": [
			{
				"x": -6.2161674805,
				"y": 0.1518066062,
				"z": -1.4981280311,
				"element": "O" 
			},
			{
				"x": -4.9073177211,
				"y": 0.4460499627,
				"z": -1.4496058692,
				"element": "C" 
			},
			{
				"x": -4.4158174654,
				"y": 1.1654797633,
				"z": -2.2886419739,
				"element": "O" 
			},
			{
				"x": -4.0437350558,
				"y": -0.1541084716,
				"z": -0.3511902868,
				"element": "C" 
			},
			{
				"x": -4.4371704025,
				"y": -0.8030894062,
				"z": 0.834946108,
				"element": "C" 
			},
			{
				"x": -6.1342057755,
				"y": -1.0431181707,
				"z": 1.2712229813,
				"element": "Cl" 
			},
			{
				"x": -3.5066810055,
				"y": -1.2831266421,
				"z": 1.7571113235,
				"element": "C" 
			},
			{
				"x": -2.1446155459,
				"y": -1.1322316413,
				"z": 1.5134485429,
				"element": "C" 
			},
			{
				"x": -1.7353651974,
				"y": -0.4905716576,
				"z": 0.3450885025,
				"element": "C" 
			},
			{
				"x": -2.6648665757,
				"y": -0.0108363367,
				"z": -0.5691556359,
				"element": "C" 
			},
			{
				"x": 0.0272474745,
				"y": -0.3674155059,
				"z": -0.0109855467,
				"element": "S" 
			},
			{
				"x": 0.7155395109,
				"y": -0.7164958175,
				"z": 1.2406060015,
				"element": "O" 
			},
			{
				"x": 0.3053484791,
				"y": -1.1029169773,
				"z": -1.2476482134,
				"element": "O" 
			},
			{
				"x": 0.1904368562,
				"y": 1.2674749437,
				"z": -0.3697444711,
				"element": "N" 
			},
			{
				"x": 1.0133002173,
				"y": 1.6537697723,
				"z": -1.5359466132,
				"element": "C" 
			},
			{
				"x": 2.4556897507,
				"y": 1.9457937606,
				"z": -1.120935322,
				"element": "C" 
			},
			{
				"x": 2.5014635975,
				"y": 2.9093463166,
				"z": -0.0747428715,
				"element": "O" 
			},
			{
				"x": 1.8135352802,
				"y": 2.4525258961,
				"z": 1.0836510075,
				"element": "C" 
			},
			{
				"x": 0.3376162997,
				"y": 2.1940538671,
				"z": 0.7722540493,
				"element": "C" 
			},
			{
				"x": -6.4869160158,
				"y": -0.4237087609,
				"z": -0.7645876753,
				"element": "H" 
			},
			{
				"x": -3.8537102311,
				"y": -1.7700667826,
				"z": 2.661242249,
				"element": "H" 
			},
			{
				"x": -1.4057704067,
				"y": -1.4989142379,
				"z": 2.2171218722,
				"element": "H" 
			},
			{
				"x": -2.3547230549,
				"y": 0.5040470368,
				"z": -1.4708519091,
				"element": "H" 
			},
			{
				"x": 0.9651143472,
				"y": 0.8607067495,
				"z": -2.2830224375,
				"element": "H" 
			},
			{
				"x": 0.5580455472,
				"y": 2.5595101288,
				"z": -1.953851314,
				"element": "H" 
			},
			{
				"x": 3.0156195386,
				"y": 2.3694972915,
				"z": -1.9601681371,
				"element": "H" 
			},
			{
				"x": 2.9511928533,
				"y": 1.0132096777,
				"z": -0.8058069526,
				"element": "H" 
			},
			{
				"x": 1.9134864825,
				"y": 3.2401006083,
				"z": 1.836786677,
				"element": "H" 
			},
			{
				"x": 2.2730694052,
				"y": 1.5302449019,
				"z": 1.4693870982,
				"element": "H" 
			},
			{
				"x": -0.1536499433,
				"y": 3.1317205526,
				"z": 0.4871146688,
				"element": "H" 
			},
			{
				"x": -0.1812937631,
				"y": 1.7898625727,
				"z": 1.6448321787,
				"element": "H" 
			}
		],
		 "valence_orbital": [ 
			{
				"type": "occ",
				"energy": -0.29893,
				"method": "rhf"
			},
			{
				"type": "occ",
				"energy": -0.29636,
				"method": "rhf"
			},
			{
				"type": "occ",
				"energy": -0.2886,
				"method": "rhf"
			},
			{
				"type": "occ",
				"energy": -0.2835,
				"method": "rhf"
			},
			{
				"type": "occ",
				"energy": -0.24303,
				"method": "rhf"
			},
			{
				"type": "unocc",
				"energy": -0.07895,
				"method": "rhf"
			},
			{
				"type": "unocc",
				"energy": -0.06056,
				"method": "rhf"
			},
			{
				"type": "unocc",
				"energy": -0.0143,
				"method": "rhf"
			},
			{
				"type": "unocc",
				"energy": 0.02016,
				"method": "rhf"
			},
			{
				"type": "unocc",
				"energy": 0.05004,
				"method": "rhf"
			}
		],
		"cosmo_sigma_profile": { 
			"-0.025": 0.0,
			"-0.024": 0.0,
			"-0.023": 0.0,
			"-0.022": 0.0,
			"-0.021": 0.0,
			"-0.02": 0.0,
			"-0.019": 0.0,
			"-0.018": 0.0,
			"-0.017": 0.0,
			"-0.016": 0.0,
			"-0.015": 0.0,
			"-0.014": 0.117227127573,
			"-0.013": 0.702253437289,
			"-0.012": 1.45859865399,
			"-0.011": 1.04868541962,
			"-0.01": 1.16324683408,
			"-0.009": 3.78751344237,
			"-0.008": 4.87232228247,
			"-0.007": 7.18905377119,
			"-0.006": 17.0114653525,
			"-0.005": 27.5979566507,
			"-0.004": 28.0598260722,
			"-0.003": 27.2301202708,
			"-0.002": 27.7871780491,
			"-0.001": 23.8594860449,
			"0.0": 18.446492201,
			"0.001": 14.0500871131,
			"0.002": 13.2358371561,
			"0.003": 7.17369294497,
			"0.004": 5.96198216752,
			"0.005": 5.30070742486,
			"0.006": 5.50790830534,
			"0.007": 6.92081910453,
			"0.008": 7.50170436874,
			"0.009": 9.04208515321,
			"0.01": 13.1176624416,
			"0.011": 12.0371545183,
			"0.012": 5.32060971576,
			"0.013": 1.68742210494,
			"0.014": 0.0165044673558,
			"0.015": 0.0,
			"0.016": 0.0,
			"0.017": 0.0,
			"0.018": 0.0,
			"0.019": 0.0,
			"0.02": 0.0,
			"0.021": 0.0,
			"0.022": 0.0,
			"0.023": 0.0,
			"0.024": 0.0,
			"0.0": 0.0
		}
	}
}
