{
	 "smiles": "CC1=NOC(COC2=CC=C(O)C=C2)=N1", 
	 "Tm": 336.15, 
	 "num_atms": 25, 
	 "gaussian": { 
		 "optdone": 1, 
		 "sigma_profile": "yes", 
		 "theory": "DFT", 
		 "functional": "B3LYP", 
		 "basiset": "6-31G**", 
		 "properties": { 
			 "R2extent": 4032.6433, 
			 "electric_dipole_moment_norm": 1.23012059978, 
			 "electric_quadrupole_moment_norm": 20.3477273645, 
			 "total_energy": -722.207843422, 
			 "HOMO_LUMO_gap": 0.1734, 
			 "cosmo_polarized_energy": -14.6, 
			 "cosmo_cavitation_energy": 30.24, 
			 "cosmo_dispersion_energy": -21.96, 
			 "cosmo_repulsion_energy": 1.74, 
			 "cosmo_total_nonelectrostatic_energy": 10.02, 
			 "SMD_solvation_energy": 4.09 
		},
		"coords": [
			{
				"x": 0.2752446921,
				"y": -3.3377079794,
				"z": -3.1739972274,
				"element": "C" 
			},
			{
				"x": 0.6518102027,
				"y": -2.7125987049,
				"z": -1.8734247222,
				"element": "C" 
			},
			{
				"x": 1.8989614562,
				"y": -2.5009365305,
				"z": -1.5314353595,
				"element": "N" 
			},
			{
				"x": 1.7930880899,
				"y": -1.9088576353,
				"z": -0.2586229747,
				"element": "O" 
			},
			{
				"x": 0.4834781583,
				"y": -1.828945876,
				"z": 0.0128627347,
				"element": "C" 
			},
			{
				"x": 0.0557635828,
				"y": -1.258180062,
				"z": 1.3367048753,
				"element": "C" 
			},
			{
				"x": 0.5891329023,
				"y": 0.0242557409,
				"z": 1.600757416,
				"element": "O" 
			},
			{
				"x": 0.0351794245,
				"y": 1.1204396998,
				"z": 0.9679078999,
				"element": "C" 
			},
			{
				"x": -0.96580377,
				"y": 1.0668302062,
				"z": -0.0074492908,
				"element": "C" 
			},
			{
				"x": -1.4557092745,
				"y": 2.2504043464,
				"z": -0.5639262664,
				"element": "C" 
			},
			{
				"x": -0.9526267795,
				"y": 3.4873837848,
				"z": -0.1594105136,
				"element": "C" 
			},
			{
				"x": -1.4747359405,
				"y": 4.6103887338,
				"z": -0.744853674,
				"element": "O" 
			},
			{
				"x": 0.0541082672,
				"y": 3.5349149307,
				"z": 0.8126285434,
				"element": "C" 
			},
			{
				"x": 0.5431906445,
				"y": 2.3587903353,
				"z": 1.3723100984,
				"element": "C" 
			},
			{
				"x": -0.2745702302,
				"y": -2.3034047893,
				"z": -0.9317722666,
				"element": "N" 
			},
			{
				"x": -0.3561164741,
				"y": -2.6562150375,
				"z": -3.7520534853,
				"element": "H" 
			},
			{
				"x": 1.1692418815,
				"y": -3.576455265,
				"z": -3.7520441566,
				"element": "H" 
			},
			{
				"x": -0.298362588,
				"y": -4.2534501427,
				"z": -3.0018187452,
				"element": "H" 
			},
			{
				"x": -1.0392493263,
				"y": -1.2715531197,
				"z": 1.3710872994,
				"element": "H" 
			},
			{
				"x": 0.4373007935,
				"y": -1.8972425373,
				"z": 2.1388960388,
				"element": "H" 
			},
			{
				"x": -1.3629557378,
				"y": 0.1218600057,
				"z": -0.3590261589,
				"element": "H" 
			},
			{
				"x": -2.2304807579,
				"y": 2.2218510765,
				"z": -1.3228180431,
				"element": "H" 
			},
			{
				"x": -1.0346186764,
				"y": 5.3889710761,
				"z": -0.3810028553,
				"element": "H" 
			},
			{
				"x": 0.456672237,
				"y": 4.4927100613,
				"z": 1.1357990761,
				"element": "H" 
			},
			{
				"x": 1.3206572229,
				"y": 2.3823476821,
				"z": 2.1286017572,
				"element": "H" 
			}
		],
		 "valence_orbital": [ 
			{
				"type": "occ",
				"energy": -0.30307,
				"method": "rhf"
			},
			{
				"type": "occ",
				"energy": -0.30041,
				"method": "rhf"
			},
			{
				"type": "occ",
				"energy": -0.28844,
				"method": "rhf"
			},
			{
				"type": "occ",
				"energy": -0.25495,
				"method": "rhf"
			},
			{
				"type": "occ",
				"energy": -0.20521,
				"method": "rhf"
			},
			{
				"type": "unocc",
				"energy": -0.03181,
				"method": "rhf"
			},
			{
				"type": "unocc",
				"energy": -0.00589,
				"method": "rhf"
			},
			{
				"type": "unocc",
				"energy": 0.0225,
				"method": "rhf"
			},
			{
				"type": "unocc",
				"energy": 0.03188,
				"method": "rhf"
			},
			{
				"type": "unocc",
				"energy": 0.07045,
				"method": "rhf"
			}
		],
		"cosmo_sigma_profile": { 
			"-0.025": 0.0,
			"-0.024": 0.0,
			"-0.023": 0.0,
			"-0.022": 0.0,
			"-0.021": 0.0,
			"-0.02": 0.0,
			"-0.019": 0.0,
			"-0.018": 0.201383539561,
			"-0.017": 1.35183244461,
			"-0.016": 0.665482268137,
			"-0.015": 1.26741543544,
			"-0.014": 1.04958732309,
			"-0.013": 1.03490935846,
			"-0.012": 0.946007322945,
			"-0.011": 0.633070148647,
			"-0.01": 1.40121500746,
			"-0.009": 4.20812231916,
			"-0.008": 4.67961398411,
			"-0.007": 7.43753159993,
			"-0.006": 15.2519880029,
			"-0.005": 15.699712631,
			"-0.004": 16.3650159046,
			"-0.003": 16.3930400286,
			"-0.002": 18.601663665,
			"-0.001": 13.3326286512,
			"0.0": 10.0858951362,
			"0.001": 10.6931520078,
			"0.002": 11.7094112484,
			"0.003": 13.9903068687,
			"0.004": 17.4458934643,
			"0.005": 16.5737503546,
			"0.006": 10.1127638259,
			"0.007": 7.01434364685,
			"0.008": 5.59247762207,
			"0.009": 4.65257383837,
			"0.01": 3.89656738253,
			"0.011": 3.73340381375,
			"0.012": 3.44343614264,
			"0.013": 1.71833481131,
			"0.014": 0.334297798539,
			"0.015": 0.0,
			"0.016": 0.0,
			"0.017": 0.0,
			"0.018": 0.0,
			"0.019": 0.0,
			"0.02": 0.0,
			"0.021": 0.0,
			"0.022": 0.0,
			"0.023": 0.0,
			"0.024": 0.0,
			"0.025": 0.0
		}
	}
}
