{
	 "smiles": "C1=CC2=C3C(=C1)C1=CC=CC4=C1C1=C(C=C4)C=CC(C=C2)=C31", 
	 "Tm": 551.15, 
	 "num_atms": 34, 
	 "gaussian": { 
		 "optdone": 1, 
		 "sigma_profile": "yes", 
		 "theory": "DFT", 
		 "functional": "B3LYP", 
		 "basiset": "6-31G**", 
		 "properties": { 
			 "R2extent": 5794.7843, 
			 "electric_dipole_moment_norm": 0.0556332634312, 
			 "electric_quadrupole_moment_norm": 14.217961797, 
			 "total_energy": -845.655167322, 
			 "HOMO_LUMO_gap": 0.12997, 
			 "cosmo_polarized_energy": -7.68, 
			 "cosmo_cavitation_energy": 35.55, 
			 "cosmo_dispersion_energy": -27.09, 
			 "cosmo_repulsion_energy": 1.9, 
			 "cosmo_total_nonelectrostatic_energy": 10.36, 
			 "SMD_solvation_energy": 4.31 
		},
		"coords": [
			{
				"x": -1.8739606254,
				"y": -0.2916651591,
				"z": 4.316680094,
				"element": "C" 
			},
			{
				"x": -2.6712888635,
				"y": 0.6140121788,
				"z": 3.6343906321,
				"element": "C" 
			},
			{
				"x": -2.3293107634,
				"y": 1.0183251855,
				"z": 2.3308355901,
				"element": "C" 
			},
			{
				"x": -1.1524703601,
				"y": 0.48669965,
				"z": 1.7167100212,
				"element": "C" 
			},
			{
				"x": -0.3353392247,
				"y": -0.4464856554,
				"z": 2.4257307002,
				"element": "C" 
			},
			{
				"x": -0.7225443272,
				"y": -0.814105779,
				"z": 3.720340025,
				"element": "C" 
			},
			{
				"x": 0.8701485009,
				"y": -0.9813011141,
				"z": 1.7765438,
				"element": "C" 
			},
			{
				"x": 1.7220115101,
				"y": -1.8990059636,
				"z": 2.4036298455,
				"element": "C" 
			},
			{
				"x": 2.8632385972,
				"y": -2.3935626943,
				"z": 1.7654111941,
				"element": "C" 
			},
			{
				"x": 3.184922499,
				"y": -1.983823438,
				"z": 0.4808329156,
				"element": "C" 
			},
			{
				"x": 2.3640222665,
				"y": -1.0633451717,
				"z": -0.1963083533,
				"element": "C" 
			},
			{
				"x": 1.195601783,
				"y": -0.5547330711,
				"z": 0.4523901099,
				"element": "C" 
			},
			{
				"x": 0.3627352232,
				"y": 0.3821602132,
				"z": -0.2412119738,
				"element": "C" 
			},
			{
				"x": 0.6976476464,
				"y": 0.7980340935,
				"z": -1.5574737839,
				"element": "C" 
			},
			{
				"x": 1.8750524421,
				"y": 0.2690932805,
				"z": -2.1778299324,
				"element": "C" 
			},
			{
				"x": 2.6729176073,
				"y": -0.6223380783,
				"z": -1.5257370948,
				"element": "C" 
			},
			{
				"x": -0.1413659736,
				"y": 1.726078042,
				"z": -2.2246712282,
				"element": "C" 
			},
			{
				"x": -1.2691870475,
				"y": 2.2261942346,
				"z": -1.6174636901,
				"element": "C" 
			},
			{
				"x": -1.629371458,
				"y": 1.8299642051,
				"z": -0.3045973255,
				"element": "C" 
			},
			{
				"x": -2.8009892335,
				"y": 2.3427683731,
				"z": 0.3397886044,
				"element": "C" 
			},
			{
				"x": -3.1359636626,
				"y": 1.9539038364,
				"z": 1.6019431178,
				"element": "C" 
			},
			{
				"x": -0.8083323964,
				"y": 0.9014880297,
				"z": 0.3892974738,
				"element": "C" 
			},
			{
				"x": -2.1410632058,
				"y": -0.601449783,
				"z": 5.3228910988,
				"element": "H" 
			},
			{
				"x": -3.5664689959,
				"y": 1.02049487,
				"z": 4.097411846,
				"element": "H" 
			},
			{
				"x": -0.1261674502,
				"y": -1.5196134637,
				"z": 4.2872807296,
				"element": "H" 
			},
			{
				"x": 1.5055718485,
				"y": -2.2443835389,
				"z": 3.4079665161,
				"element": "H" 
			},
			{
				"x": 3.4992677641,
				"y": -3.1043534821,
				"z": 2.2850399049,
				"element": "H" 
			},
			{
				"x": 4.0719141918,
				"y": -2.3678996539,
				"z": -0.0158460834,
				"element": "H" 
			},
			{
				"x": 2.1205707413,
				"y": 0.5951123431,
				"z": -3.1852324899,
				"element": "H" 
			},
			{
				"x": 3.5644300159,
				"y": -1.018146705,
				"z": -2.0050762877,
				"element": "H" 
			},
			{
				"x": 0.1227417255,
				"y": 2.0386230679,
				"z": -3.2316144291,
				"element": "H" 
			},
			{
				"x": -1.9033393447,
				"y": 2.937073605,
				"z": -2.1407900732,
				"element": "H" 
			},
			{
				"x": -3.4210410324,
				"y": 3.0525869135,
				"z": -0.2016182117,
				"element": "H" 
			},
			{
				"x": -4.0271903979,
				"y": 2.3488006292,
				"z": 2.0825567378,
				"element": "H" 
			}
		],
		 "valence_orbital": [ 
			{
				"type": "occ",
				"energy": -0.25527,
				"method": "rhf"
			},
			{
				"type": "occ",
				"energy": -0.25348,
				"method": "rhf"
			},
			{
				"type": "occ",
				"energy": -0.24655,
				"method": "rhf"
			},
			{
				"type": "occ",
				"energy": -0.21545,
				"method": "rhf"
			},
			{
				"type": "occ",
				"energy": -0.19151,
				"method": "rhf"
			},
			{
				"type": "unocc",
				"energy": -0.06154,
				"method": "rhf"
			},
			{
				"type": "unocc",
				"energy": -0.03577,
				"method": "rhf"
			},
			{
				"type": "unocc",
				"energy": -0.01109,
				"method": "rhf"
			},
			{
				"type": "unocc",
				"energy": -0.00088,
				"method": "rhf"
			},
			{
				"type": "unocc",
				"energy": 0.00199,
				"method": "rhf"
			}
		],
		"cosmo_sigma_profile": { 
			"-0.025": 0.0,
			"-0.024": 0.0,
			"-0.023": 0.0,
			"-0.022": 0.0,
			"-0.021": 0.0,
			"-0.02": 0.0,
			"-0.019": 0.0,
			"-0.018": 0.0,
			"-0.017": 0.0,
			"-0.016": 0.0,
			"-0.015": 0.0,
			"-0.014": 0.0,
			"-0.013": 0.0,
			"-0.012": 0.0,
			"-0.011": 0.0,
			"-0.01": 0.0,
			"-0.009": 0.0957379354609,
			"-0.008": 1.15425185032,
			"-0.007": 2.93889872521,
			"-0.006": 23.911461302,
			"-0.005": 23.7008623156,
			"-0.004": 22.9774405943,
			"-0.003": 17.8010367994,
			"-0.002": 14.5214340318,
			"-0.001": 13.6088594046,
			"0.0": 12.2496026036,
			"0.001": 17.6023431634,
			"0.002": 25.5922737419,
			"0.003": 52.7464942801,
			"0.004": 43.2255382508,
			"0.005": 15.6539748998,
			"0.006": 0.0374245897125,
			"0.007": 0.0,
			"0.008": 0.0,
			"0.009": 0.0,
			"0.01": 0.0,
			"0.011": 0.0,
			"0.012": 0.0,
			"0.013": 0.0,
			"0.014": 0.0,
			"0.015": 0.0,
			"0.016": 0.0,
			"0.017": 0.0,
			"0.018": 0.0,
			"0.019": 0.0,
			"0.02": 0.0,
			"0.021": 0.0,
			"0.022": 0.0,
			"0.023": 0.0,
			"0.024": 0.0,
			"0.025": 0.0
		}
	}
}
