{
	 "smiles": "CC1=NN=C(C)N1N", 
	 "Tm": 470.65, 
	 "num_atms": 16, 
	 "gaussian": { 
		 "optdone": 1, 
		 "sigma_profile": "yes", 
		 "theory": "DFT", 
		 "functional": "B3LYP", 
		 "basiset": "6-31G**", 
		 "properties": { 
			 "R2extent": 1058.089, 
			 "electric_dipole_moment_norm": 5.83529635409, 
			 "electric_quadrupole_moment_norm": 11.2486938077, 
			 "total_energy": -376.208044619, 
			 "HOMO_LUMO_gap": 0.2597, 
			 "cosmo_polarized_energy": -20.48, 
			 "cosmo_cavitation_energy": 19.85, 
			 "cosmo_dispersion_energy": -14.56, 
			 "cosmo_repulsion_energy": 1.23, 
			 "cosmo_total_nonelectrostatic_energy": 6.52, 
			 "SMD_solvation_energy": 2.23 
		},
		"coords": [
			{
				"x": 2.124636855,
				"y": -0.832182222,
				"z": 0.9730736819,
				"element": "C" 
			},
			{
				"x": 0.8491898585,
				"y": -0.0643864028,
				"z": 1.0010930605,
				"element": "C" 
			},
			{
				"x": 0.6800537788,
				"y": 1.1518388954,
				"z": 1.4607886011,
				"element": "N" 
			},
			{
				"x": -0.6580964644,
				"y": 1.4883234594,
				"z": 1.2982355217,
				"element": "N" 
			},
			{
				"x": -1.2651937995,
				"y": 0.46852355,
				"z": 0.7448583596,
				"element": "C" 
			},
			{
				"x": -2.7089853401,
				"y": 0.3839005632,
				"z": 0.3864677388,
				"element": "C" 
			},
			{
				"x": -0.3532312679,
				"y": -0.5464989254,
				"z": 0.5341140181,
				"element": "N" 
			},
			{
				"x": -0.5405776651,
				"y": -1.8162904951,
				"z": -0.027514845,
				"element": "N" 
			},
			{
				"x": 2.909454633,
				"y": -0.2092034462,
				"z": 1.4042949942,
				"element": "H" 
			},
			{
				"x": 2.4058091051,
				"y": -1.1061663794,
				"z": -0.0489126266,
				"element": "H" 
			},
			{
				"x": 2.0471688689,
				"y": -1.7602123044,
				"z": 1.5486928329,
				"element": "H" 
			},
			{
				"x": -3.2184396638,
				"y": -0.4303294141,
				"z": 0.9160763921,
				"element": "H" 
			},
			{
				"x": -3.1850571791,
				"y": 1.3251822151,
				"z": 0.6645852132,
				"element": "H" 
			},
			{
				"x": -2.8586158798,
				"y": 0.22575681,
				"z": -0.688524786,
				"element": "H" 
			},
			{
				"x": -1.2293015693,
				"y": -2.3274986385,
				"z": 0.5198042043,
				"element": "H" 
			},
			{
				"x": -0.8938142703,
				"y": -1.7152572653,
				"z": -0.9763323608,
				"element": "H" 
			}
		],
		 "valence_orbital": [ 
			{
				"type": "occ",
				"energy": -0.31254,
				"method": "rhf"
			},
			{
				"type": "occ",
				"energy": -0.29295,
				"method": "rhf"
			},
			{
				"type": "occ",
				"energy": -0.28292,
				"method": "rhf"
			},
			{
				"type": "occ",
				"energy": -0.23977,
				"method": "rhf"
			},
			{
				"type": "occ",
				"energy": -0.23577,
				"method": "rhf"
			},
			{
				"type": "unocc",
				"energy": 0.02393,
				"method": "rhf"
			},
			{
				"type": "unocc",
				"energy": 0.04309,
				"method": "rhf"
			},
			{
				"type": "unocc",
				"energy": 0.05825,
				"method": "rhf"
			},
			{
				"type": "unocc",
				"energy": 0.10545,
				"method": "rhf"
			},
			{
				"type": "unocc",
				"energy": 0.11525,
				"method": "rhf"
			}
		],
		"cosmo_sigma_profile": { 
			"-0.025": 0.0,
			"-0.024": 0.0,
			"-0.023": 0.0,
			"-0.022": 0.0,
			"-0.021": 0.0,
			"-0.02": 0.0,
			"-0.019": 0.0,
			"-0.018": 0.0,
			"-0.017": 0.0,
			"-0.016": 0.0,
			"-0.015": 0.0,
			"-0.014": 0.400147192433,
			"-0.013": 2.85448839617,
			"-0.012": 4.21483299708,
			"-0.011": 3.4201285125,
			"-0.01": 3.46018055411,
			"-0.009": 3.12954454506,
			"-0.008": 3.116684878,
			"-0.007": 3.10107551635,
			"-0.006": 6.70188957588,
			"-0.005": 11.7821419103,
			"-0.004": 10.5913373445,
			"-0.003": 13.1067769064,
			"-0.002": 15.0071022213,
			"-0.001": 15.4950060787,
			"0.0": 7.3904752141,
			"0.001": 4.30053283078,
			"0.002": 3.55499733651,
			"0.003": 3.56049329437,
			"0.004": 3.69817405999,
			"0.005": 2.88914669584,
			"0.006": 2.46799344395,
			"0.007": 2.68347103369,
			"0.008": 2.6046014497,
			"0.009": 2.22985594946,
			"0.01": 2.4564752325,
			"0.011": 2.714716727,
			"0.012": 2.79571718446,
			"0.013": 3.02446958345,
			"0.014": 3.22529148196,
			"0.015": 3.19889823965,
			"0.016": 3.22399725191,
			"0.017": 2.31615487624,
			"0.018": 1.62091499216,
			"0.019": 0.00483474144359,
			"0.02": 0.0,
			"0.021": 0.0,
			"0.022": 0.0,
			"0.023": 0.0,
			"0.024": 0.0,
			"0.025": 0.0
		}
	}
}
