{
	 "smiles": "C1CN(CCN1)C1=NN=C(C=C1)N1C=CC=N1", 
	 "Tm": 435.15, 
	 "num_atms": 31, 
	 "gaussian": { 
		 "optdone": 1, 
		 "sigma_profile": "yes", 
		 "theory": "DFT", 
		 "functional": "B3LYP", 
		 "basiset": "6-31G**", 
		 "properties": { 
			 "R2extent": 7353.8471, 
			 "electric_dipole_moment_norm": 5.91160486501, 
			 "electric_quadrupole_moment_norm": 29.5788183446, 
			 "total_energy": -756.028719778, 
			 "HOMO_LUMO_gap": 0.1587, 
			 "cosmo_polarized_energy": -21.68, 
			 "cosmo_cavitation_energy": 33.76, 
			 "cosmo_dispersion_energy": -25.3, 
			 "cosmo_repulsion_energy": 1.94, 
			 "cosmo_total_nonelectrostatic_energy": 10.4, 
			 "SMD_solvation_energy": 0.67 
		},
		"coords": [
			{
				"x": -0.681606856,
				"y": -0.6849582661,
				"z": -3.3077690918,
				"element": "C" 
			},
			{
				"x": 0.4355500902,
				"y": 0.2963270446,
				"z": -2.9271012287,
				"element": "C" 
			},
			{
				"x": -0.0249784055,
				"y": 1.2350386846,
				"z": -1.9037963066,
				"element": "N" 
			},
			{
				"x": -1.2733072398,
				"y": 1.9503361948,
				"z": -2.1672531015,
				"element": "C" 
			},
			{
				"x": -1.8941535214,
				"y": 1.4498810429,
				"z": -3.4733056643,
				"element": "C" 
			},
			{
				"x": -1.9872299684,
				"y": -0.0030108695,
				"z": -3.417046326,
				"element": "N" 
			},
			{
				"x": 0.7012509427,
				"y": 1.482389948,
				"z": -0.7695206471,
				"element": "C" 
			},
			{
				"x": 1.8613534331,
				"y": 0.8022768366,
				"z": -0.6195004447,
				"element": "N" 
			},
			{
				"x": 2.607309084,
				"y": 0.9587714162,
				"z": 0.4621097853,
				"element": "N" 
			},
			{
				"x": 2.2418423776,
				"y": 1.821914403,
				"z": 1.4042094064,
				"element": "C" 
			},
			{
				"x": 1.0703278468,
				"y": 2.5906721934,
				"z": 1.3158833256,
				"element": "C" 
			},
			{
				"x": 0.2691519566,
				"y": 2.4134371081,
				"z": 0.2117924124,
				"element": "C" 
			},
			{
				"x": 3.0963147181,
				"y": 1.944937086,
				"z": 2.5293653112,
				"element": "N" 
			},
			{
				"x": 2.7122790805,
				"y": 2.0661477461,
				"z": 3.8383531327,
				"element": "C" 
			},
			{
				"x": 3.8667209545,
				"y": 2.1620595939,
				"z": 4.5835607895,
				"element": "C" 
			},
			{
				"x": 4.9082586955,
				"y": 2.0881105767,
				"z": 3.6276971932,
				"element": "C" 
			},
			{
				"x": 4.4464172418,
				"y": 1.9581909324,
				"z": 2.3883566232,
				"element": "N" 
			},
			{
				"x": -0.3886643814,
				"y": -1.1776070636,
				"z": -4.2472609757,
				"element": "H" 
			},
			{
				"x": -0.7526758857,
				"y": -1.4678855755,
				"z": -2.541845731,
				"element": "H" 
			},
			{
				"x": 0.7755549792,
				"y": 0.8511663004,
				"z": -3.8126763384,
				"element": "H" 
			},
			{
				"x": 1.2972656692,
				"y": -0.2366100309,
				"z": -2.5291163374,
				"element": "H" 
			},
			{
				"x": -1.1004598178,
				"y": 3.0359015713,
				"z": -2.2300757028,
				"element": "H" 
			},
			{
				"x": -1.9850458113,
				"y": 1.7673417036,
				"z": -1.3505253633,
				"element": "H" 
			},
			{
				"x": -1.3177202485,
				"y": 1.8421326817,
				"z": -4.3313232869,
				"element": "H" 
			},
			{
				"x": -2.9031966525,
				"y": 1.866502982,
				"z": -3.5563818356,
				"element": "H" 
			},
			{
				"x": -2.51842203,
				"y": -0.3608088727,
				"z": -4.2024978134,
				"element": "H" 
			},
			{
				"x": 0.8195406,
				"y": 3.3139982515,
				"z": 2.0848325466,
				"element": "H" 
			},
			{
				"x": -0.6435240407,
				"y": 2.9838432865,
				"z": 0.0939572237,
				"element": "H" 
			},
			{
				"x": 1.6717103722,
				"y": 2.0414372328,
				"z": 4.1258704219,
				"element": "H" 
			},
			{
				"x": 3.9464263996,
				"y": 2.2604267666,
				"z": 5.6558458965,
				"element": "H" 
			},
			{
				"x": 5.9767104174,
				"y": 2.1312390945,
				"z": 3.7932621268,
				"element": "H" 
			}
		],
		 "valence_orbital": [ 
			{
				"type": "occ",
				"energy": -0.25477,
				"method": "rhf"
			},
			{
				"type": "occ",
				"energy": -0.24112,
				"method": "rhf"
			},
			{
				"type": "occ",
				"energy": -0.22729,
				"method": "rhf"
			},
			{
				"type": "occ",
				"energy": -0.22194,
				"method": "rhf"
			},
			{
				"type": "occ",
				"energy": -0.20356,
				"method": "rhf"
			},
			{
				"type": "unocc",
				"energy": -0.04486,
				"method": "rhf"
			},
			{
				"type": "unocc",
				"energy": -0.01417,
				"method": "rhf"
			},
			{
				"type": "unocc",
				"energy": 0.03633,
				"method": "rhf"
			},
			{
				"type": "unocc",
				"energy": 0.06995,
				"method": "rhf"
			},
			{
				"type": "unocc",
				"energy": 0.07639,
				"method": "rhf"
			}
		],
		"cosmo_sigma_profile": { 
			"-0.025": 0.0,
			"-0.024": 0.0,
			"-0.023": 0.0,
			"-0.022": 0.0,
			"-0.021": 0.0,
			"-0.02": 0.0,
			"-0.019": 0.0,
			"-0.018": 0.0,
			"-0.017": 0.0,
			"-0.016": 0.0,
			"-0.015": 0.0,
			"-0.014": 0.0,
			"-0.013": 0.0,
			"-0.012": 0.0,
			"-0.011": 0.3448386811,
			"-0.01": 1.5553330179,
			"-0.009": 5.05189673467,
			"-0.008": 7.6282810451,
			"-0.007": 10.8307757451,
			"-0.006": 10.8142215617,
			"-0.005": 15.8442429156,
			"-0.004": 27.327449703,
			"-0.003": 28.8770121466,
			"-0.002": 25.6249772459,
			"-0.001": 21.7075976962,
			"0.0": 17.235989915,
			"0.001": 14.3981574014,
			"0.002": 9.53224749891,
			"0.003": 9.72181922491,
			"0.004": 9.20314399341,
			"0.005": 9.54351309052,
			"0.006": 5.36877990638,
			"0.007": 4.19217236391,
			"0.008": 3.52868995179,
			"0.009": 3.2322410658,
			"0.01": 4.18555169197,
			"0.011": 3.55834777388,
			"0.012": 3.64258918337,
			"0.013": 3.5993758149,
			"0.014": 3.82960604775,
			"0.015": 2.26705058086,
			"0.016": 2.74747232175,
			"0.017": 2.33437902751,
			"0.018": 0.235623541145,
			"0.019": 0.0,
			"0.02": 0.0,
			"0.021": 0.0,
			"0.022": 0.0,
			"0.023": 0.0,
			"0.024": 0.0,
			"0.025": 0.0
		}
	}
}
