{
	 "smiles": "OCC(N1CCNCC1)C1=CC=C(Cl)C=C1", 
	 "Tm": 390.15, 
	 "num_atms": 33, 
	 "gaussian": { 
		 "optdone": 1, 
		 "sigma_profile": "yes", 
		 "theory": "DFT", 
		 "functional": "B3LYP", 
		 "basiset": "6-31G**", 
		 "properties": { 
			 "R2extent": 5606.3352, 
			 "electric_dipole_moment_norm": 2.21171303292, 
			 "electric_quadrupole_moment_norm": 19.2036585697, 
			 "total_energy": -1112.40163984, 
			 "HOMO_LUMO_gap": 0.17253, 
			 "cosmo_polarized_energy": -11.35, 
			 "cosmo_cavitation_energy": 35.01, 
			 "cosmo_dispersion_energy": -25.24, 
			 "cosmo_repulsion_energy": 1.98, 
			 "cosmo_total_nonelectrostatic_energy": 11.76, 
			 "SMD_solvation_energy": 1.71 
		},
		"coords": [
			{
				"x": -1.5986218151,
				"y": -0.3427170528,
				"z": -3.1258156827,
				"element": "O" 
			},
			{
				"x": -1.1345890315,
				"y": 0.4915998055,
				"z": -2.0681084173,
				"element": "C" 
			},
			{
				"x": -1.0883094227,
				"y": -0.3058582388,
				"z": -0.7525100808,
				"element": "C" 
			},
			{
				"x": 0.0931384702,
				"y": -1.1728098419,
				"z": -0.6476148575,
				"element": "N" 
			},
			{
				"x": 0.4791919456,
				"y": -1.9682731808,
				"z": -1.8182152218,
				"element": "C" 
			},
			{
				"x": -0.476681223,
				"y": -3.1564306214,
				"z": -2.0998205697,
				"element": "C" 
			},
			{
				"x": -1.0713215289,
				"y": -3.7118024012,
				"z": -0.8723443155,
				"element": "N" 
			},
			{
				"x": -0.1900616304,
				"y": -3.5139093352,
				"z": 0.2755454599,
				"element": "C" 
			},
			{
				"x": 0.1121315897,
				"y": -2.0179247411,
				"z": 0.5680734356,
				"element": "C" 
			},
			{
				"x": -1.1001184628,
				"y": 0.7044617489,
				"z": 0.3949010984,
				"element": "C" 
			},
			{
				"x": 0.0804072349,
				"y": 1.3376102487,
				"z": 0.8038497318,
				"element": "C" 
			},
			{
				"x": 0.0659121054,
				"y": 2.3111336666,
				"z": 1.8021986363,
				"element": "C" 
			},
			{
				"x": -1.1464955021,
				"y": 2.6532330721,
				"z": 2.4006242383,
				"element": "C" 
			},
			{
				"x": -1.1742094687,
				"y": 3.8759761425,
				"z": 3.6661717712,
				"element": "Cl" 
			},
			{
				"x": -2.3359808805,
				"y": 2.035657301,
				"z": 2.0178525642,
				"element": "C" 
			},
			{
				"x": -2.3015579761,
				"y": 1.0648725611,
				"z": 1.0161208123,
				"element": "C" 
			},
			{
				"x": -1.6188365601,
				"y": 0.1822639931,
				"z": -3.9354547258,
				"element": "H" 
			},
			{
				"x": -1.8167723756,
				"y": 1.3406194821,
				"z": -1.9246859062,
				"element": "H" 
			},
			{
				"x": -0.1314114734,
				"y": 0.8972488315,
				"z": -2.2718320482,
				"element": "H" 
			},
			{
				"x": -2.0414201535,
				"y": -0.867498056,
				"z": -0.7138333712,
				"element": "H" 
			},
			{
				"x": 0.553242216,
				"y": -1.3330123974,
				"z": -2.7016679259,
				"element": "H" 
			},
			{
				"x": 1.4911456984,
				"y": -2.3424990337,
				"z": -1.6141744117,
				"element": "H" 
			},
			{
				"x": 0.0774351369,
				"y": -3.9479143224,
				"z": -2.6268002479,
				"element": "H" 
			},
			{
				"x": -1.2839746249,
				"y": -2.8294095806,
				"z": -2.759108732,
				"element": "H" 
			},
			{
				"x": -1.9613474745,
				"y": -3.2550776461,
				"z": -0.6928590465,
				"element": "H" 
			},
			{
				"x": -0.6313415047,
				"y": -3.9844663201,
				"z": 1.1613056906,
				"element": "H" 
			},
			{
				"x": 0.742259095,
				"y": -4.0562272715,
				"z": 0.0727259937,
				"element": "H" 
			},
			{
				"x": -0.6273168983,
				"y": -1.6261622066,
				"z": 1.2725854066,
				"element": "H" 
			},
			{
				"x": 1.0903450075,
				"y": -1.9280357652,
				"z": 1.0651265606,
				"element": "H" 
			},
			{
				"x": 1.017064169,
				"y": 1.0424636667,
				"z": 0.3419817884,
				"element": "H" 
			},
			{
				"x": 0.9828563809,
				"y": 2.7975504608,
				"z": 2.1169470173,
				"element": "H" 
			},
			{
				"x": -3.2695473569,
				"y": 2.3056366577,
				"z": 2.4991678731,
				"element": "H" 
			},
			{
				"x": -3.2277136861,
				"y": 0.5794003746,
				"z": 0.7174674824,
				"element": "H" 
			}
		],
		 "valence_orbital": [ 
			{
				"type": "occ",
				"energy": -0.28013,
				"method": "rhf"
			},
			{
				"type": "occ",
				"energy": -0.26221,
				"method": "rhf"
			},
			{
				"type": "occ",
				"energy": -0.24365,
				"method": "rhf"
			},
			{
				"type": "occ",
				"energy": -0.23189,
				"method": "rhf"
			},
			{
				"type": "occ",
				"energy": -0.18727,
				"method": "rhf"
			},
			{
				"type": "unocc",
				"energy": -0.01474,
				"method": "rhf"
			},
			{
				"type": "unocc",
				"energy": -0.0135,
				"method": "rhf"
			},
			{
				"type": "unocc",
				"energy": 0.03135,
				"method": "rhf"
			},
			{
				"type": "unocc",
				"energy": 0.06303,
				"method": "rhf"
			},
			{
				"type": "unocc",
				"energy": 0.07562,
				"method": "rhf"
			}
		],
		"cosmo_sigma_profile": { 
			"-0.025": 0.0,
			"-0.024": 0.0,
			"-0.023": 0.0,
			"-0.022": 0.0,
			"-0.021": 0.0,
			"-0.02": 0.0,
			"-0.019": 0.0,
			"-0.018": 0.0,
			"-0.017": 0.0,
			"-0.016": 0.615538411284,
			"-0.015": 1.06813263974,
			"-0.014": 0.99404518233,
			"-0.013": 1.15794403236,
			"-0.012": 1.04472017332,
			"-0.011": 0.465286573639,
			"-0.01": 0.756991820743,
			"-0.009": 0.952052878317,
			"-0.008": 2.12244654332,
			"-0.007": 5.90584932232,
			"-0.006": 9.40185894227,
			"-0.005": 10.1912642527,
			"-0.004": 16.5852520164,
			"-0.003": 24.9186056261,
			"-0.002": 31.0805506538,
			"-0.001": 29.0517552684,
			"0.0": 23.6399842167,
			"0.001": 19.2150060903,
			"0.002": 20.0539783776,
			"0.003": 18.7020669413,
			"0.004": 22.4797844622,
			"0.005": 13.5210327416,
			"0.006": 4.03600002695,
			"0.007": 4.09310347536,
			"0.008": 2.25555694788,
			"0.009": 1.92488529667,
			"0.01": 2.16914911357,
			"0.011": 1.50551542667,
			"0.012": 1.27810539361,
			"0.013": 1.17317430663,
			"0.014": 0.575618881257,
			"0.015": 0.775083274514,
			"0.016": 0.522148356522,
			"0.017": 0.836714779817,
			"0.018": 0.452576691139,
			"0.019": 0.368232124664,
			"0.02": 0.0,
			"0.021": 0.0,
			"0.022": 0.0,
			"0.023": 0.0,
			"0.024": 0.0,
			"0.025": 0.0
		}
	}
}
