{
	 "smiles": "COC1=C(OCC(O)=O)C=CC(C=O)=C1", 
	 "Tm": 458.15, 
	 "num_atms": 25, 
	 "gaussian": { 
		 "optdone": 1, 
		 "sigma_profile": "yes", 
		 "theory": "DFT", 
		 "functional": "B3LYP", 
		 "basiset": "6-31G**", 
		 "properties": { 
			 "R2extent": 3803.4883, 
			 "electric_dipole_moment_norm": 6.86820657086, 
			 "electric_quadrupole_moment_norm": 13.9003532502, 
			 "total_energy": -763.170741267, 
			 "HOMO_LUMO_gap": 0.1688, 
			 "cosmo_polarized_energy": -23.09, 
			 "cosmo_cavitation_energy": 30.1, 
			 "cosmo_dispersion_energy": -21.02, 
			 "cosmo_repulsion_energy": 1.65, 
			 "cosmo_total_nonelectrostatic_energy": 10.73, 
			 "SMD_solvation_energy": 8.31 
		},
		"coords": [
			{
				"x": 1.5253393105,
				"y": 1.6689382326,
				"z": 0.5216408889,
				"element": "C" 
			},
			{
				"x": 0.6314942341,
				"y": 0.698915594,
				"z": 1.0532562074,
				"element": "O" 
			},
			{
				"x": -0.0849706525,
				"y": -0.0730877754,
				"z": 0.1728527766,
				"element": "C" 
			},
			{
				"x": -1.1327301227,
				"y": -0.8652453439,
				"z": 0.700687547,
				"element": "C" 
			},
			{
				"x": -1.4975943224,
				"y": -0.9614181704,
				"z": 2.016034781,
				"element": "O" 
			},
			{
				"x": -1.1245459045,
				"y": -0.0244194721,
				"z": 3.0020772377,
				"element": "C" 
			},
			{
				"x": -1.6240192241,
				"y": 1.39294011,
				"z": 2.7161196581,
				"element": "C" 
			},
			{
				"x": -1.1929853979,
				"y": 2.324362267,
				"z": 3.6086458842,
				"element": "O" 
			},
			{
				"x": -2.3507318071,
				"y": 1.6929491654,
				"z": 1.8086274034,
				"element": "O" 
			},
			{
				"x": -1.8675474249,
				"y": -1.6948156688,
				"z": -0.1557336825,
				"element": "C" 
			},
			{
				"x": -1.5977785976,
				"y": -1.7474254286,
				"z": -1.5143628654,
				"element": "C" 
			},
			{
				"x": -0.5749705576,
				"y": -0.9532975666,
				"z": -2.0457438984,
				"element": "C" 
			},
			{
				"x": -0.268110769,
				"y": -0.9820694411,
				"z": -3.4874997391,
				"element": "C" 
			},
			{
				"x": -0.8423471538,
				"y": -1.6741332142,
				"z": -4.3084892054,
				"element": "O" 
			},
			{
				"x": 0.169181946,
				"y": -0.1214986658,
				"z": -1.1961822503,
				"element": "C" 
			},
			{
				"x": 2.3719969411,
				"y": 1.1974026782,
				"z": 0.0076694716,
				"element": "H" 
			},
			{
				"x": 1.8971870113,
				"y": 2.2348559538,
				"z": 1.3769884447,
				"element": "H" 
			},
			{
				"x": 1.0112237364,
				"y": 2.3488921124,
				"z": -0.1675482098,
				"element": "H" 
			},
			{
				"x": -1.605806043,
				"y": -0.3804007986,
				"z": 3.9208510064,
				"element": "H" 
			},
			{
				"x": -0.0417484544,
				"y": -0.0062624039,
				"z": 3.1620262952,
				"element": "H" 
			},
			{
				"x": -0.597340648,
				"y": 1.9275209347,
				"z": 4.2612232961,
				"element": "H" 
			},
			{
				"x": -2.6620107799,
				"y": -2.2850534167,
				"z": 0.2883782593,
				"element": "H" 
			},
			{
				"x": -2.1682774992,
				"y": -2.3857731184,
				"z": -2.1801826497,
				"element": "H" 
			},
			{
				"x": 0.5592898828,
				"y": -0.3023069845,
				"z": -3.7963828646,
				"element": "H" 
			},
			{
				"x": 0.9620022963,
				"y": 0.4839304206,
				"z": -1.6227537924,
				"element": "H" 
			}
		],
		 "valence_orbital": [ 
			{
				"type": "occ",
				"energy": -0.32153,
				"method": "rhf"
			},
			{
				"type": "occ",
				"energy": -0.2871,
				"method": "rhf"
			},
			{
				"type": "occ",
				"energy": -0.25251,
				"method": "rhf"
			},
			{
				"type": "occ",
				"energy": -0.24756,
				"method": "rhf"
			},
			{
				"type": "occ",
				"energy": -0.22199,
				"method": "rhf"
			},
			{
				"type": "unocc",
				"energy": -0.05319,
				"method": "rhf"
			},
			{
				"type": "unocc",
				"energy": -0.00428,
				"method": "rhf"
			},
			{
				"type": "unocc",
				"energy": 0.00046,
				"method": "rhf"
			},
			{
				"type": "unocc",
				"energy": 0.03639,
				"method": "rhf"
			},
			{
				"type": "unocc",
				"energy": 0.05051,
				"method": "rhf"
			}
		],
		"cosmo_sigma_profile": { 
			"-0.025": 0.0,
			"-0.024": 0.0,
			"-0.023": 0.0,
			"-0.022": 0.0,
			"-0.021": 0.0,
			"-0.02": 0.606152589016,
			"-0.019": 1.44123371397,
			"-0.018": 1.26549531214,
			"-0.017": 1.16833486028,
			"-0.016": 0.894244278058,
			"-0.015": 1.05233825541,
			"-0.014": 0.603350037499,
			"-0.013": 1.74003337105,
			"-0.012": 1.01653390169,
			"-0.011": 1.71303866258,
			"-0.01": 2.26358414812,
			"-0.009": 2.35454711285,
			"-0.008": 5.37989293855,
			"-0.007": 9.14355730243,
			"-0.006": 15.7194696268,
			"-0.005": 16.9697979616,
			"-0.004": 17.3741712472,
			"-0.003": 14.4812089871,
			"-0.002": 10.9060655643,
			"-0.001": 9.8315982803,
			"0.0": 11.2360443131,
			"0.001": 13.3157390338,
			"0.002": 14.9006070606,
			"0.003": 15.7385466783,
			"0.004": 10.5143554662,
			"0.005": 5.83956871725,
			"0.006": 7.02998421002,
			"0.007": 5.92601390655,
			"0.008": 6.85792558106,
			"0.009": 5.96530853139,
			"0.01": 8.06386690633,
			"0.011": 9.3162275669,
			"0.012": 7.09270354271,
			"0.013": 1.79820546631,
			"0.014": 0.0903797637383,
			"0.015": 0.0,
			"0.016": 0.0,
			"0.017": 0.0,
			"0.018": 0.0,
			"0.019": 0.0,
			"0.02": 0.0,
			"0.021": 0.0,
			"0.022": 0.0,
			"0.023": 0.0,
			"0.024": 0.0,
			"0.025": 0.0
		}
	}
}
