{
	 "smiles": "BrC1=CC=C(OC2=CC(Br)=CC=C2Br)C(Br)=C1", 
	 "Tm": 293.15, 
	 "num_atms": 23, 
	 "gaussian": { 
		 "optdone": 1, 
		 "sigma_profile": "yes", 
		 "theory": "DFT", 
		 "functional": "B3LYP", 
		 "basiset": "6-31G**", 
		 "properties": { 
			 "R2extent": 13042.4011, 
			 "electric_dipole_moment_norm": 1.64586278286, 
			 "electric_quadrupole_moment_norm": 7.23964215483, 
			 "total_energy": -10821.7144345, 
			 "HOMO_LUMO_gap": 0.19601, 
			 "cosmo_polarized_energy": -7.52, 
			 "cosmo_cavitation_energy": 37.93, 
			 "cosmo_dispersion_energy": -27.8, 
			 "cosmo_repulsion_energy": 2.21, 
			 "cosmo_total_nonelectrostatic_energy": 12.33, 
			 "SMD_solvation_energy": 2.07 
		},
		"coords": [
			{
				"x": -1.6971164687,
				"y": 2.7928907376,
				"z": 5.2108240138,
				"element": "Br" 
			},
			{
				"x": -1.5693721991,
				"y": 2.0577010597,
				"z": 3.4556874226,
				"element": "C" 
			},
			{
				"x": -0.922320716,
				"y": 2.7777378471,
				"z": 2.451518571,
				"element": "C" 
			},
			{
				"x": -0.8383732739,
				"y": 2.234220087,
				"z": 1.1727096305,
				"element": "C" 
			},
			{
				"x": -1.3838389359,
				"y": 0.9770761351,
				"z": 0.8971206147,
				"element": "C" 
			},
			{
				"x": -1.3849290908,
				"y": 0.4585871756,
				"z": -0.3774932893,
				"element": "O" 
			},
			{
				"x": -0.2153656133,
				"y": 0.3466483477,
				"z": -1.0858437453,
				"element": "C" 
			},
			{
				"x": 1.0179312018,
				"y": 0.1202174902,
				"z": -0.4670491681,
				"element": "C" 
			},
			{
				"x": 2.156354022,
				"y": -0.0373041077,
				"z": -1.2523435145,
				"element": "C" 
			},
			{
				"x": 3.8348601637,
				"y": -0.3411520109,
				"z": -0.3966440955,
				"element": "Br" 
			},
			{
				"x": 2.0939805221,
				"y": 0.0148229212,
				"z": -2.6430923456,
				"element": "C" 
			},
			{
				"x": 0.8583298925,
				"y": 0.2311144863,
				"z": -3.2519301007,
				"element": "C" 
			},
			{
				"x": -0.2921048214,
				"y": 0.4008958625,
				"z": -2.4847172876,
				"element": "C" 
			},
			{
				"x": -1.9613251403,
				"y": 0.7060286351,
				"z": -3.3395802373,
				"element": "Br" 
			},
			{
				"x": -2.0277228015,
				"y": 0.2667443468,
				"z": 1.9171661006,
				"element": "C" 
			},
			{
				"x": -2.7781198334,
				"y": -1.4425190009,
				"z": 1.5664106879,
				"element": "Br" 
			},
			{
				"x": -2.1271040089,
				"y": 0.8076363424,
				"z": 3.1994477828,
				"element": "C" 
			},
			{
				"x": -0.4992513975,
				"y": 3.7527805245,
				"z": 2.6618695849,
				"element": "H" 
			},
			{
				"x": -0.3525702864,
				"y": 2.7849698,
				"z": 0.3741482482,
				"element": "H" 
			},
			{
				"x": 1.0792584327,
				"y": 0.0633805768,
				"z": 0.6124762187,
				"element": "H" 
			},
			{
				"x": 2.9881358034,
				"y": -0.1099820448,
				"z": -3.2416077575,
				"element": "H" 
			},
			{
				"x": 0.7852833653,
				"y": 0.2757684056,
				"z": -4.3325970647,
				"element": "H" 
			},
			{
				"x": -2.6284188164,
				"y": 0.253336383,
				"z": 3.9824197299,
				"element": "H" 
			}
		],
		 "valence_orbital": [ 
			{
				"type": "occ",
				"energy": -0.29313,
				"method": "rhf"
			},
			{
				"type": "occ",
				"energy": -0.27271,
				"method": "rhf"
			},
			{
				"type": "occ",
				"energy": -0.26471,
				"method": "rhf"
			},
			{
				"type": "occ",
				"energy": -0.24904,
				"method": "rhf"
			},
			{
				"type": "occ",
				"energy": -0.23739,
				"method": "rhf"
			},
			{
				"type": "unocc",
				"energy": -0.04138,
				"method": "rhf"
			},
			{
				"type": "unocc",
				"energy": -0.03663,
				"method": "rhf"
			},
			{
				"type": "unocc",
				"energy": -0.02935,
				"method": "rhf"
			},
			{
				"type": "unocc",
				"energy": -0.025,
				"method": "rhf"
			},
			{
				"type": "unocc",
				"energy": -0.01823,
				"method": "rhf"
			}
		],
		"cosmo_sigma_profile": { 
			"-0.025": 0.0,
			"-0.024": 0.0,
			"-0.023": 0.0,
			"-0.022": 0.0,
			"-0.021": 0.0,
			"-0.02": 0.0,
			"-0.019": 0.0,
			"-0.018": 0.0,
			"-0.017": 0.0,
			"-0.016": 0.0,
			"-0.015": 0.0,
			"-0.014": 0.0,
			"-0.013": 0.0,
			"-0.012": 0.0,
			"-0.011": 0.0,
			"-0.01": 0.0,
			"-0.009": 0.82583247656,
			"-0.008": 8.06434982487,
			"-0.007": 11.0887378949,
			"-0.006": 11.4071920037,
			"-0.005": 12.8481415642,
			"-0.004": 15.7270093345,
			"-0.003": 16.9938374149,
			"-0.002": 18.2525279051,
			"-0.001": 22.4234660336,
			"0.0": 34.6121912477,
			"0.001": 48.1441601254,
			"0.002": 33.9079155924,
			"0.003": 30.4986417187,
			"0.004": 40.2740239971,
			"0.005": 7.67653808828,
			"0.006": 3.03375654423,
			"0.007": 2.33664816226,
			"0.008": 1.31952877501,
			"0.009": 0.0115470997242,
			"0.01": 0.0,
			"0.011": 0.0,
			"0.012": 0.0,
			"0.013": 0.0,
			"0.014": 0.0,
			"0.015": 0.0,
			"0.016": 0.0,
			"0.017": 0.0,
			"0.018": 0.0,
			"0.019": 0.0,
			"0.02": 0.0,
			"0.021": 0.0,
			"0.022": 0.0,
			"0.023": 0.0,
			"0.024": 0.0,
			"0.025": 0.0
		}
	}
}
