{
	 "smiles": "CCN1C=NN=C1CNC(=O)OCC(F)(F)F", 
	 "Tm": 376.15, 
	 "num_atms": 28, 
	 "gaussian": { 
		 "optdone": 1, 
		 "sigma_profile": "yes", 
		 "theory": "DFT", 
		 "functional": "B3LYP", 
		 "basiset": "6-31G**", 
		 "properties": { 
			 "R2extent": 5887.6764, 
			 "electric_dipole_moment_norm": 4.11788718398, 
			 "electric_quadrupole_moment_norm": 31.9393225071, 
			 "total_energy": -980.461582292, 
			 "HOMO_LUMO_gap": 0.25786, 
			 "cosmo_polarized_energy": -21.51, 
			 "cosmo_cavitation_energy": 33.06, 
			 "cosmo_dispersion_energy": -22.24, 
			 "cosmo_repulsion_energy": 1.65, 
			 "cosmo_total_nonelectrostatic_energy": 12.47, 
			 "SMD_solvation_energy": 5.55 
		},
		"coords": [
			{
				"x": 0.7377143257,
				"y": -0.1906817476,
				"z": -2.3102573704,
				"element": "C" 
			},
			{
				"x": -0.4249689998,
				"y": 0.5598325552,
				"z": -2.9624650584,
				"element": "C" 
			},
			{
				"x": -0.1778899732,
				"y": 2.000551627,
				"z": -3.0758385883,
				"element": "N" 
			},
			{
				"x": 0.6244376355,
				"y": 2.6240148795,
				"z": -3.9930074277,
				"element": "C" 
			},
			{
				"x": 0.6681286736,
				"y": 3.9186978053,
				"z": -3.7878992912,
				"element": "N" 
			},
			{
				"x": -0.1269467085,
				"y": 4.1757145223,
				"z": -2.692219653,
				"element": "N" 
			},
			{
				"x": -0.6226941078,
				"y": 3.0285771244,
				"z": -2.2783314022,
				"element": "C" 
			},
			{
				"x": -1.5529372519,
				"y": 2.9046144876,
				"z": -1.1107761054,
				"element": "C" 
			},
			{
				"x": -0.941931053,
				"y": 2.2681857242,
				"z": 0.0573078411,
				"element": "N" 
			},
			{
				"x": -1.3690141333,
				"y": 1.16102403,
				"z": 0.7192513435,
				"element": "C" 
			},
			{
				"x": -0.875730919,
				"y": 0.7195277747,
				"z": 1.7371100037,
				"element": "O" 
			},
			{
				"x": -2.4491431329,
				"y": 0.5895145184,
				"z": 0.0771092795,
				"element": "O" 
			},
			{
				"x": -2.9128889738,
				"y": -0.6373249147,
				"z": 0.622939018,
				"element": "C" 
			},
			{
				"x": -2.414062202,
				"y": -1.7943897637,
				"z": -0.225630676,
				"element": "C" 
			},
			{
				"x": -2.925403031,
				"y": -2.9518702729,
				"z": 0.2336846763,
				"element": "F" 
			},
			{
				"x": -2.7844290488,
				"y": -1.658262204,
				"z": -1.5187585106,
				"element": "F" 
			},
			{
				"x": -1.0695687656,
				"y": -1.8870289829,
				"z": -0.2035845302,
				"element": "F" 
			},
			{
				"x": 1.65190507,
				"y": -0.092610646,
				"z": -2.9031222441,
				"element": "H" 
			},
			{
				"x": 0.9356511148,
				"y": 0.1942020501,
				"z": -1.3065047053,
				"element": "H" 
			},
			{
				"x": 0.4905672785,
				"y": -1.2516587774,
				"z": -2.2240844747,
				"element": "H" 
			},
			{
				"x": -0.6154463698,
				"y": 0.1769826231,
				"z": -3.9701070716,
				"element": "H" 
			},
			{
				"x": -1.342272977,
				"y": 0.4175088426,
				"z": -2.3885554679,
				"element": "H" 
			},
			{
				"x": 1.1386697942,
				"y": 2.0926122729,
				"z": -4.7819393328,
				"element": "H" 
			},
			{
				"x": -1.8639386146,
				"y": 3.9233629798,
				"z": -0.8601405139,
				"element": "H" 
			},
			{
				"x": -2.4468401945,
				"y": 2.3356768454,
				"z": -1.3683277085,
				"element": "H" 
			},
			{
				"x": -0.1740036579,
				"y": 2.7430327463,
				"z": 0.5104463481,
				"element": "H" 
			},
			{
				"x": -2.5555371944,
				"y": -0.7648932272,
				"z": 1.6463656286,
				"element": "H" 
			},
			{
				"x": -4.0042265834,
				"y": -0.6263128726,
				"z": 0.5913359934,
				"element": "H" 
			}
		],
		 "valence_orbital": [ 
			{
				"type": "occ",
				"energy": -0.29759,
				"method": "rhf"
			},
			{
				"type": "occ",
				"energy": -0.29029,
				"method": "rhf"
			},
			{
				"type": "occ",
				"energy": -0.281,
				"method": "rhf"
			},
			{
				"type": "occ",
				"energy": -0.2592,
				"method": "rhf"
			},
			{
				"type": "occ",
				"energy": -0.25222,
				"method": "rhf"
			},
			{
				"type": "unocc",
				"energy": 0.00564,
				"method": "rhf"
			},
			{
				"type": "unocc",
				"energy": 0.03013,
				"method": "rhf"
			},
			{
				"type": "unocc",
				"energy": 0.04194,
				"method": "rhf"
			},
			{
				"type": "unocc",
				"energy": 0.05857,
				"method": "rhf"
			},
			{
				"type": "unocc",
				"energy": 0.08831,
				"method": "rhf"
			}
		],
		"cosmo_sigma_profile": { 
			"-0.025": 0.0,
			"-0.024": 0.0,
			"-0.023": 0.0,
			"-0.022": 0.0,
			"-0.021": 0.0,
			"-0.02": 0.0,
			"-0.019": 0.0,
			"-0.018": 0.0,
			"-0.017": 0.0,
			"-0.016": 0.0376799942896,
			"-0.015": 0.894574097503,
			"-0.014": 1.47220689579,
			"-0.013": 0.732705723417,
			"-0.012": 0.671299859002,
			"-0.011": 0.997082114238,
			"-0.01": 3.44997168259,
			"-0.009": 7.06832216068,
			"-0.008": 8.12366617079,
			"-0.007": 12.2625769375,
			"-0.006": 12.7373538135,
			"-0.005": 14.4492606208,
			"-0.004": 14.1500556907,
			"-0.003": 18.3142751429,
			"-0.002": 21.1726201864,
			"-0.001": 21.8412483789,
			"0.0": 17.4413324238,
			"0.001": 15.4933422276,
			"0.002": 23.4555788641,
			"0.003": 16.4973568689,
			"0.004": 4.60395989907,
			"0.005": 3.74526351261,
			"0.006": 3.47174210422,
			"0.007": 2.33450971454,
			"0.008": 3.16384092653,
			"0.009": 3.54560749975,
			"0.01": 3.20064396593,
			"0.011": 4.15649267338,
			"0.012": 7.10626326427,
			"0.013": 5.38572587142,
			"0.014": 3.66582559091,
			"0.015": 2.60601987655,
			"0.016": 2.59050819839,
			"0.017": 1.62900507627,
			"0.018": 0.0739912367822,
			"0.019": 0.0,
			"0.02": 0.0,
			"0.021": 0.0,
			"0.022": 0.0,
			"0.023": 0.0,
			"0.024": 0.0,
			"0.025": 0.0
		}
	}
}
