{
	 "smiles": "OC(C1=CC=CC=C1)C1=CC=C(Br)C=C1", 
	 "Tm": 335.15, 
	 "num_atms": 26, 
	 "gaussian": { 
		 "optdone": 1, 
		 "sigma_profile": "yes", 
		 "theory": "DFT", 
		 "functional": "B3LYP", 
		 "basiset": "6-31G**", 
		 "properties": { 
			 "R2extent": 6515.5485, 
			 "electric_dipole_moment_norm": 3.52259996877, 
			 "electric_quadrupole_moment_norm": 7.8665836187, 
			 "total_energy": -3148.63574677, 
			 "HOMO_LUMO_gap": 0.21434, 
			 "cosmo_polarized_energy": -9.01, 
			 "cosmo_cavitation_energy": 32.29, 
			 "cosmo_dispersion_energy": -23.43, 
			 "cosmo_repulsion_energy": 1.85, 
			 "cosmo_total_nonelectrostatic_energy": 10.71, 
			 "SMD_solvation_energy": 4.23 
		},
		"coords": [
			{
				"x": 2.0171206213,
				"y": -0.7477435093,
				"z": 0.4641005154,
				"element": "O" 
			},
			{
				"x": 1.2295571573,
				"y": -0.2727973896,
				"z": -0.6247963568,
				"element": "C" 
			},
			{
				"x": 0.4209319039,
				"y": -1.4001886355,
				"z": -1.2556914027,
				"element": "C" 
			},
			{
				"x": 0.4648341921,
				"y": -1.6307780058,
				"z": -2.6342114401,
				"element": "C" 
			},
			{
				"x": -0.2765821092,
				"y": -2.6685056157,
				"z": -3.2061463307,
				"element": "C" 
			},
			{
				"x": -1.061341446,
				"y": -3.4910840867,
				"z": -2.3986142609,
				"element": "C" 
			},
			{
				"x": -1.1026937341,
				"y": -3.2728704401,
				"z": -1.0176923707,
				"element": "C" 
			},
			{
				"x": -0.3678797493,
				"y": -2.234287382,
				"z": -0.450122605,
				"element": "C" 
			},
			{
				"x": 0.3507831466,
				"y": 0.8606169339,
				"z": -0.1063407869,
				"element": "C" 
			},
			{
				"x": -0.5094673172,
				"y": 1.5331519232,
				"z": -0.9839907019,
				"element": "C" 
			},
			{
				"x": -1.3103107883,
				"y": 2.5836382107,
				"z": -0.5418567357,
				"element": "C" 
			},
			{
				"x": -1.2491452874,
				"y": 2.9639670488,
				"z": 0.7985945387,
				"element": "C" 
			},
			{
				"x": -2.346760377,
				"y": 4.404556687,
				"z": 1.4175982304,
				"element": "Br" 
			},
			{
				"x": -0.4024912124,
				"y": 2.3123320063,
				"z": 1.6901180732,
				"element": "C" 
			},
			{
				"x": 0.3969761396,
				"y": 1.2624244332,
				"z": 1.2314135294,
				"element": "C" 
			},
			{
				"x": 2.4750224271,
				"y": -1.542697522,
				"z": 0.1630324614,
				"element": "H" 
			},
			{
				"x": 1.8859255793,
				"y": 0.146314639,
				"z": -1.4061829808,
				"element": "H" 
			},
			{
				"x": 1.0862625695,
				"y": -0.9986161177,
				"z": -3.2646849698,
				"element": "H" 
			},
			{
				"x": -0.2338121388,
				"y": -2.836305977,
				"z": -4.2785767077,
				"element": "H" 
			},
			{
				"x": -1.6361235565,
				"y": -4.300358034,
				"z": -2.8396817005,
				"element": "H" 
			},
			{
				"x": -1.7112146886,
				"y": -3.9127878459,
				"z": -0.3848668454,
				"element": "H" 
			},
			{
				"x": -0.3963739833,
				"y": -2.0614850318,
				"z": 0.6216965355,
				"element": "H" 
			},
			{
				"x": -0.5649959756,
				"y": 1.2292260816,
				"z": -2.0259050042,
				"element": "H" 
			},
			{
				"x": -1.9746543342,
				"y": 3.0985330024,
				"z": -1.226497626,
				"element": "H" 
			},
			{
				"x": -0.3635840123,
				"y": 2.6192738411,
				"z": 2.7292849723,
				"element": "H" 
			},
			{
				"x": 1.0651169736,
				"y": 0.7530707857,
				"z": 1.9152199694,
				"element": "H" 
			}
		],
		 "valence_orbital": [ 
			{
				"type": "occ",
				"energy": -0.28128,
				"method": "rhf"
			},
			{
				"type": "occ",
				"energy": -0.25805,
				"method": "rhf"
			},
			{
				"type": "occ",
				"energy": -0.25625,
				"method": "rhf"
			},
			{
				"type": "occ",
				"energy": -0.2513,
				"method": "rhf"
			},
			{
				"type": "occ",
				"energy": -0.23166,
				"method": "rhf"
			},
			{
				"type": "unocc",
				"energy": -0.01732,
				"method": "rhf"
			},
			{
				"type": "unocc",
				"energy": -0.01344,
				"method": "rhf"
			},
			{
				"type": "unocc",
				"energy": -0.00808,
				"method": "rhf"
			},
			{
				"type": "unocc",
				"energy": 0.00045,
				"method": "rhf"
			},
			{
				"type": "unocc",
				"energy": 0.0137,
				"method": "rhf"
			}
		],
		"cosmo_sigma_profile": { 
			"-0.025": 0.0,
			"-0.024": 0.0,
			"-0.023": 0.0,
			"-0.022": 0.0,
			"-0.021": 0.0,
			"-0.02": 0.0,
			"-0.019": 0.0,
			"-0.018": 0.0,
			"-0.017": 0.0,
			"-0.016": 0.492467910881,
			"-0.015": 0.671106314567,
			"-0.014": 1.05753521188,
			"-0.013": 0.763129460495,
			"-0.012": 0.562155429391,
			"-0.011": 0.757840412441,
			"-0.01": 1.08221298481,
			"-0.009": 0.697076184086,
			"-0.008": 0.871422691569,
			"-0.007": 3.01434877833,
			"-0.006": 12.3938408497,
			"-0.005": 21.1202854585,
			"-0.004": 21.6774487996,
			"-0.003": 18.602272457,
			"-0.002": 16.0512717291,
			"-0.001": 14.5036126837,
			"0.0": 15.9422173562,
			"0.001": 17.0452046992,
			"0.002": 22.6626425323,
			"0.003": 26.5240190897,
			"0.004": 31.4097085812,
			"0.005": 19.372909833,
			"0.006": 6.68467291302,
			"0.007": 1.12605121634,
			"0.008": 1.46092358495,
			"0.009": 1.74644398165,
			"0.01": 1.52054865932,
			"0.011": 0.561674668558,
			"0.012": 0.622082129708,
			"0.013": 0.193808631701,
			"0.014": 0.0,
			"0.015": 0.0,
			"0.016": 0.0,
			"0.017": 0.0,
			"0.018": 0.0,
			"0.019": 0.0,
			"0.02": 0.0,
			"0.021": 0.0,
			"0.022": 0.0,
			"0.023": 0.0,
			"0.024": 0.0,
			"0.025": 0.0
		}
	}
}
