{
	 "smiles": "CCOC(=O)C1=C(N)C=C(S1)C1=CC=C(Cl)C=C1", 
	 "Tm": 474.15, 
	 "num_atms": 30, 
	 "gaussian": { 
		 "optdone": 1, 
		 "sigma_profile": "yes", 
		 "theory": "DFT", 
		 "functional": "B3LYP", 
		 "basiset": "6-31G**", 
		 "properties": { 
			 "R2extent": 9473.9352, 
			 "electric_dipole_moment_norm": 1.29172869055, 
			 "electric_quadrupole_moment_norm": 21.6211299938, 
			 "total_energy": -1566.22044405, 
			 "HOMO_LUMO_gap": 0.14312, 
			 "cosmo_polarized_energy": -12.11, 
			 "cosmo_cavitation_energy": 37.94, 
			 "cosmo_dispersion_energy": -28.24, 
			 "cosmo_repulsion_energy": 2.16, 
			 "cosmo_total_nonelectrostatic_energy": 11.87, 
			 "SMD_solvation_energy": 6.58 
		},
		"coords": [
			{
				"x": 3.0117810829,
				"y": -0.5820616777,
				"z": -3.8838992553,
				"element": "C" 
			},
			{
				"x": 3.4288748154,
				"y": -0.2444320213,
				"z": -2.4648735733,
				"element": "C" 
			},
			{
				"x": 2.2233505017,
				"y": -0.0505451589,
				"z": -1.694817525,
				"element": "O" 
			},
			{
				"x": 2.3950198675,
				"y": 0.2737023662,
				"z": -0.3910712995,
				"element": "C" 
			},
			{
				"x": 3.504487051,
				"y": 0.3991275642,
				"z": 0.1253431892,
				"element": "O" 
			},
			{
				"x": 1.1465870947,
				"y": 0.4448676038,
				"z": 0.316553448,
				"element": "C" 
			},
			{
				"x": 1.0418552898,
				"y": 0.7653379509,
				"z": 1.6722898797,
				"element": "C" 
			},
			{
				"x": 2.1121895824,
				"y": 1.0424492821,
				"z": 2.4773115409,
				"element": "N" 
			},
			{
				"x": -0.3197984178,
				"y": 0.8046518052,
				"z": 2.1056916407,
				"element": "C" 
			},
			{
				"x": -1.2266033659,
				"y": 0.529689401,
				"z": 1.1084109705,
				"element": "C" 
			},
			{
				"x": -0.4307997762,
				"y": 0.2225783749,
				"z": -0.4156867815,
				"element": "S" 
			},
			{
				"x": -2.6905546865,
				"y": 0.4979806979,
				"z": 1.2199595055,
				"element": "C" 
			},
			{
				"x": -3.4740964447,
				"y": -0.3063628885,
				"z": 0.3735201027,
				"element": "C" 
			},
			{
				"x": -4.8611831825,
				"y": -0.3380489334,
				"z": 0.4878919213,
				"element": "C" 
			},
			{
				"x": -5.483015226,
				"y": 0.4383849662,
				"z": 1.4653243456,
				"element": "C" 
			},
			{
				"x": -7.2316504647,
				"y": 0.400453877,
				"z": 1.6204014247,
				"element": "Cl" 
			},
			{
				"x": -4.7338214174,
				"y": 1.247662421,
				"z": 2.3198062411,
				"element": "C" 
			},
			{
				"x": -3.3485000981,
				"y": 1.2769279522,
				"z": 2.1892894542,
				"element": "C" 
			},
			{
				"x": 2.4100082869,
				"y": -1.4951309737,
				"z": -3.907681036,
				"element": "H" 
			},
			{
				"x": 3.8996185421,
				"y": -0.7378541186,
				"z": -4.5047168076,
				"element": "H" 
			},
			{
				"x": 2.4231987614,
				"y": 0.2293635489,
				"z": -4.3214705739,
				"element": "H" 
			},
			{
				"x": 4.0171334432,
				"y": -1.0468987589,
				"z": -2.0080498782,
				"element": "H" 
			},
			{
				"x": 4.0299564029,
				"y": 0.6693735832,
				"z": -2.4197475522,
				"element": "H" 
			},
			{
				"x": 3.0178250237,
				"y": 0.8233204492,
				"z": 2.0771072136,
				"element": "H" 
			},
			{
				"x": 1.9990071139,
				"y": 0.9340046903,
				"z": 3.4727059009,
				"element": "H" 
			},
			{
				"x": -0.606452632,
				"y": 1.0061441707,
				"z": 3.131887048,
				"element": "H" 
			},
			{
				"x": -2.9918649807,
				"y": -0.9317433374,
				"z": -0.3716451953,
				"element": "H" 
			},
			{
				"x": -5.4546568739,
				"y": -0.9656632643,
				"z": -0.1675128066,
				"element": "H" 
			},
			{
				"x": -5.2309250176,
				"y": 1.8555218202,
				"z": 3.0676241649,
				"element": "H" 
			},
			{
				"x": -2.7709702757,
				"y": 1.9320986077,
				"z": 2.8333542928,
				"element": "H" 
			}
		],
		 "valence_orbital": [ 
			{
				"type": "occ",
				"energy": -0.27241,
				"method": "rhf"
			},
			{
				"type": "occ",
				"energy": -0.27155,
				"method": "rhf"
			},
			{
				"type": "occ",
				"energy": -0.26719,
				"method": "rhf"
			},
			{
				"type": "occ",
				"energy": -0.23242,
				"method": "rhf"
			},
			{
				"type": "occ",
				"energy": -0.20326,
				"method": "rhf"
			},
			{
				"type": "unocc",
				"energy": -0.06014,
				"method": "rhf"
			},
			{
				"type": "unocc",
				"energy": -0.02229,
				"method": "rhf"
			},
			{
				"type": "unocc",
				"energy": -0.00348,
				"method": "rhf"
			},
			{
				"type": "unocc",
				"energy": 0.02251,
				"method": "rhf"
			},
			{
				"type": "unocc",
				"energy": 0.03214,
				"method": "rhf"
			}
		],
		"cosmo_sigma_profile": { 
			"-0.025": 0.0,
			"-0.024": 0.0,
			"-0.023": 0.0,
			"-0.022": 0.0,
			"-0.021": 0.0,
			"-0.02": 0.0,
			"-0.019": 0.0,
			"-0.018": 0.0,
			"-0.017": 0.0,
			"-0.016": 0.0,
			"-0.015": 0.0161766178399,
			"-0.014": 0.783409961511,
			"-0.013": 1.30625026238,
			"-0.012": 1.5772703776,
			"-0.011": 1.02040121462,
			"-0.01": 1.59962881479,
			"-0.009": 2.87767663897,
			"-0.008": 4.89980146171,
			"-0.007": 10.6121649209,
			"-0.006": 10.4690886056,
			"-0.005": 13.852717719,
			"-0.004": 19.6112294671,
			"-0.003": 20.8178882963,
			"-0.002": 19.0235722819,
			"-0.001": 21.1146018196,
			"0.0": 24.6410896592,
			"0.001": 26.6750258944,
			"0.002": 32.2301638609,
			"0.003": 37.1608274969,
			"0.004": 23.5832541454,
			"0.005": 11.7297806126,
			"0.006": 5.41030187528,
			"0.007": 3.55086043194,
			"0.008": 2.25831303369,
			"0.009": 2.57238225861,
			"0.01": 1.81998183212,
			"0.011": 2.48106142621,
			"0.012": 2.43824166377,
			"0.013": 1.03601228027,
			"0.014": 0.0,
			"0.015": 0.0,
			"0.016": 0.0,
			"0.017": 0.0,
			"0.018": 0.0,
			"0.019": 0.0,
			"0.02": 0.0,
			"0.021": 0.0,
			"0.022": 0.0,
			"0.023": 0.0,
			"0.024": 0.0,
			"0.025": 0.0
		}
	}
}
