{
	 "smiles": "CCNC(=O)CN1CCNCC1", 
	 "Tm": 357.15, 
	 "num_atms": 29, 
	 "gaussian": { 
		 "optdone": 1, 
		 "sigma_profile": "yes", 
		 "theory": "DFT", 
		 "functional": "B3LYP", 
		 "basiset": "6-31G**", 
		 "properties": { 
			 "R2extent": 3426.9659, 
			 "electric_dipole_moment_norm": 4.27259047534, 
			 "electric_quadrupole_moment_norm": 7.09518800597, 
			 "total_energy": -554.574523925, 
			 "HOMO_LUMO_gap": 0.21959, 
			 "cosmo_polarized_energy": -13.75, 
			 "cosmo_cavitation_energy": 29.68, 
			 "cosmo_dispersion_energy": -21.67, 
			 "cosmo_repulsion_energy": 1.76, 
			 "cosmo_total_nonelectrostatic_energy": 9.76, 
			 "SMD_solvation_energy": -0.11 
		},
		"coords": [
			{
				"x": 0.2250618397,
				"y": 2.7476433885,
				"z": 2.6090294369,
				"element": "C" 
			},
			{
				"x": 0.0079376275,
				"y": 3.2616133471,
				"z": 1.1807295328,
				"element": "C" 
			},
			{
				"x": 1.0511241046,
				"y": 2.8575433684,
				"z": 0.2456700459,
				"element": "N" 
			},
			{
				"x": 1.0925687164,
				"y": 1.7545028239,
				"z": -0.5690743713,
				"element": "C" 
			},
			{
				"x": 2.1109578861,
				"y": 1.4772448025,
				"z": -1.1946264043,
				"element": "O" 
			},
			{
				"x": -0.2014907776,
				"y": 0.9172415323,
				"z": -0.6751476447,
				"element": "C" 
			},
			{
				"x": -0.1504905016,
				"y": -0.2477983568,
				"z": -1.5286868542,
				"element": "N" 
			},
			{
				"x": 0.7465209839,
				"y": -1.3119090757,
				"z": -1.0658151859,
				"element": "C" 
			},
			{
				"x": 0.5125888884,
				"y": -2.579302693,
				"z": -1.899120729,
				"element": "C" 
			},
			{
				"x": 0.6353301716,
				"y": -2.3597400806,
				"z": -3.3437272519,
				"element": "N" 
			},
			{
				"x": -0.2168267249,
				"y": -1.2441136122,
				"z": -3.7679433874,
				"element": "C" 
			},
			{
				"x": 0.0090909702,
				"y": 0.0398773629,
				"z": -2.95845472,
				"element": "C" 
			},
			{
				"x": -0.5729342373,
				"y": 3.1005573636,
				"z": 3.2710233796,
				"element": "H" 
			},
			{
				"x": 0.235125534,
				"y": 1.6535188569,
				"z": 2.6368611376,
				"element": "H" 
			},
			{
				"x": 1.179905834,
				"y": 3.1019455973,
				"z": 3.0109195149,
				"element": "H" 
			},
			{
				"x": -0.0359044946,
				"y": 4.3570397408,
				"z": 1.1834535069,
				"element": "H" 
			},
			{
				"x": -0.9580929786,
				"y": 2.9213726397,
				"z": 0.7995937304,
				"element": "H" 
			},
			{
				"x": 1.9435907226,
				"y": 3.3334170914,
				"z": 0.3032373677,
				"element": "H" 
			},
			{
				"x": -1.0058505185,
				"y": 1.5757147748,
				"z": -1.0326425703,
				"element": "H" 
			},
			{
				"x": -0.4938636613,
				"y": 0.5968744324,
				"z": 0.3346881323,
				"element": "H" 
			},
			{
				"x": 1.8057172869,
				"y": -1.0130551831,
				"z": -1.1311281438,
				"element": "H" 
			},
			{
				"x": 0.5247449931,
				"y": -1.515473476,
				"z": -0.009309195,
				"element": "H" 
			},
			{
				"x": 1.2189607074,
				"y": -3.360931715,
				"z": -1.5971051623,
				"element": "H" 
			},
			{
				"x": -0.5006225619,
				"y": -2.9540092619,
				"z": -1.7041837013,
				"element": "H" 
			},
			{
				"x": 1.6052417709,
				"y": -2.1291123767,
				"z": -3.5575884323,
				"element": "H" 
			},
			{
				"x": -0.0440475266,
				"y": -1.0500094943,
				"z": -4.8326219823,
				"element": "H" 
			},
			{
				"x": -1.2615684879,
				"y": -1.5609991288,
				"z": -3.6534277439,
				"element": "H" 
			},
			{
				"x": -0.7354215492,
				"y": 0.7954248661,
				"z": -3.2436580913,
				"element": "H" 
			},
			{
				"x": 1.0053459826,
				"y": 0.4536224654,
				"z": -3.1845442136,
				"element": "H" 
			}
		],
		 "valence_orbital": [ 
			{
				"type": "occ",
				"energy": -0.32483,
				"method": "rhf"
			},
			{
				"type": "occ",
				"energy": -0.25685,
				"method": "rhf"
			},
			{
				"type": "occ",
				"energy": -0.2489,
				"method": "rhf"
			},
			{
				"type": "occ",
				"energy": -0.21531,
				"method": "rhf"
			},
			{
				"type": "occ",
				"energy": -0.19156,
				"method": "rhf"
			},
			{
				"type": "unocc",
				"energy": 0.02803,
				"method": "rhf"
			},
			{
				"type": "unocc",
				"energy": 0.07373,
				"method": "rhf"
			},
			{
				"type": "unocc",
				"energy": 0.08558,
				"method": "rhf"
			},
			{
				"type": "unocc",
				"energy": 0.10275,
				"method": "rhf"
			},
			{
				"type": "unocc",
				"energy": 0.1139,
				"method": "rhf"
			}
		],
		"cosmo_sigma_profile": { 
			"-0.025": 0.0,
			"-0.024": 0.0,
			"-0.023": 0.0,
			"-0.022": 0.0,
			"-0.021": 0.0,
			"-0.02": 0.0,
			"-0.019": 0.0,
			"-0.018": 0.0,
			"-0.017": 0.0,
			"-0.016": 0.0,
			"-0.015": 0.0,
			"-0.014": 0.0,
			"-0.013": 0.371235019538,
			"-0.012": 1.28592604089,
			"-0.011": 1.38583338023,
			"-0.01": 0.443282658477,
			"-0.009": 2.09512091973,
			"-0.008": 2.48308645231,
			"-0.007": 2.79145467337,
			"-0.006": 6.51266831061,
			"-0.005": 13.1998286671,
			"-0.004": 22.6669961313,
			"-0.003": 28.518057623,
			"-0.002": 29.7202423324,
			"-0.001": 25.463425863,
			"0.0": 21.8770916614,
			"0.001": 13.6398868926,
			"0.002": 7.8267368866,
			"0.003": 6.02555415912,
			"0.004": 5.08552650689,
			"0.005": 3.15738119301,
			"0.006": 3.62103238418,
			"0.007": 3.56161636905,
			"0.008": 2.80374148607,
			"0.009": 3.6412136683,
			"0.01": 2.8273914422,
			"0.011": 2.54053516878,
			"0.012": 2.49148106237,
			"0.013": 3.34681438471,
			"0.014": 4.59750015517,
			"0.015": 2.90837127902,
			"0.016": 0.811150927128,
			"0.017": 0.527731077889,
			"0.018": 0.476963179063,
			"0.019": 0.386758989965,
			"0.02": 0.0194638826209,
			"0.021": 0.0,
			"0.022": 0.0,
			"0.023": 0.0,
			"0.024": 0.0,
			"0.025": 0.0
		}
	}
}
