{
	 "smiles": "OC1=C(I)C=C(Cl)C2=CC=CN=C12", 
	 "Tm": 451.15, 
	 "num_atms": 18, 
	 "gaussian": { 
		 "optdone": 1, 
		 "sigma_profile": "no", 
		 "theory": "DFT", 
		 "functional": "B3LYP", 
		 "basiset": "6-31G**", 
		 "properties": { 
			 "R2extent": 2774.6058, 
			 "electric_dipole_moment_norm": 3.40724858794, 
			 "electric_quadrupole_moment_norm": 5.4655201564, 
			 "total_energy": -947.531287804, 
			 "HOMO_LUMO_gap": 0.14882, 
			 "cosmo_polarized_energy": -98319.96, 
			 "cosmo_cavitation_energy": 27.09, 
			 "cosmo_dispersion_energy": -22.01, 
			 "cosmo_repulsion_energy": 1.69, 
			 "cosmo_total_nonelectrostatic_energy": 6.76, 
			 "SMD_solvation_energy": 2.84 
		},
		"coords": [
			{
				"x": -2.7575687138,
				"y": 0.5144142949,
				"z": -0.7954420875,
				"element": "O" 
			},
			{
				"x": -1.8046883206,
				"y": -0.0935671879,
				"z": -0.0732314221,
				"element": "C" 
			},
			{
				"x": -2.0810532777,
				"y": -1.0294033552,
				"z": 0.9060323927,
				"element": "C" 
			},
			{
				"x": -4.0752783966,
				"y": -1.5620851442,
				"z": 1.3240712489,
				"element": "I" 
			},
			{
				"x": -1.0320102739,
				"y": -1.6384198664,
				"z": 1.6367232728,
				"element": "C" 
			},
			{
				"x": 0.2827010195,
				"y": -1.3138251639,
				"z": 1.38968626,
				"element": "C" 
			},
			{
				"x": 1.5476607412,
				"y": -2.0997400246,
				"z": 2.3257627662,
				"element": "Cl" 
			},
			{
				"x": 0.6287848003,
				"y": -0.3582764013,
				"z": 0.3946945068,
				"element": "C" 
			},
			{
				"x": 1.9415332789,
				"y": 0.0532053817,
				"z": 0.0547637779,
				"element": "C" 
			},
			{
				"x": 2.1230152039,
				"y": 0.9930314194,
				"z": -0.9357822169,
				"element": "C" 
			},
			{
				"x": 0.9930409259,
				"y": 1.5302687057,
				"z": -1.5958153186,
				"element": "C" 
			},
			{
				"x": -0.2445549026,
				"y": 1.1735058401,
				"z": -1.3087377482,
				"element": "N" 
			},
			{
				"x": -0.4364625147,
				"y": 0.2473129322,
				"z": -0.3335429213,
				"element": "C" 
			},
			{
				"x": -2.2742765417,
				"y": 1.1149291884,
				"z": -1.4004419145,
				"element": "H" 
			},
			{
				"x": -1.2692638206,
				"y": -2.3693968184,
				"z": 2.4000196552,
				"element": "H" 
			},
			{
				"x": 2.7873327733,
				"y": -0.3775267767,
				"z": 0.5794126075,
				"element": "H" 
			},
			{
				"x": 3.1174861466,
				"y": 1.3249355583,
				"z": -1.2148215841,
				"element": "H" 
			},
			{
				"x": 1.1185018727,
				"y": 2.2735374179,
				"z": -2.3805512749,
				"element": "H" 
			}
		],
		 "valence_orbital": [ 
			{
				"type": "occ",
				"energy": -0.29345,
				"method": "rhf"
			},
			{
				"type": "occ",
				"energy": -0.29308,
				"method": "rhf"
			},
			{
				"type": "occ",
				"energy": -0.26734,
				"method": "rhf"
			},
			{
				"type": "occ",
				"energy": -0.2561,
				"method": "rhf"
			},
			{
				"type": "occ",
				"energy": -0.22135,
				"method": "rhf"
			},
			{
				"type": "unocc",
				"energy": -0.07253,
				"method": "rhf"
			},
			{
				"type": "unocc",
				"energy": -0.04157,
				"method": "rhf"
			},
			{
				"type": "unocc",
				"energy": -0.04107,
				"method": "rhf"
			},
			{
				"type": "unocc",
				"energy": 0.00863,
				"method": "rhf"
			},
			{
				"type": "unocc",
				"energy": 0.02661,
				"method": "rhf"
			}
		],
		"cosmo_sigma_profile": { 
			"0.0": 0.0,
			"0.0": 0.0,
			"0.0": 0.0,
			"0.0": 0.0,
			"0.0": 0.0,
			"0.0": 0.0,
			"0.0": 0.0,
			"0.0": 0.0,
			"0.0": 0.0,
			"0.0": 0.0,
			"0.0": 0.0,
			"0.0": 0.0,
			"0.0": 0.0,
			"0.0": 0.0,
			"0.0": 0.0,
			"0.0": 0.0,
			"0.0": 0.0,
			"0.0": 0.0,
			"0.0": 0.0,
			"0.0": 0.0,
			"0.0": 0.0,
			"0.0": 0.0,
			"0.0": 0.0,
			"0.0": 0.0,
			"0.0": 0.0,
			"0.0": 0.0,
			"0.0": 0.0,
			"0.0": 0.0,
			"0.0": 0.0,
			"0.0": 0.0,
			"0.0": 0.0,
			"0.0": 0.0,
			"0.0": 0.0,
			"0.0": 0.0,
			"0.0": 0.0,
			"0.0": 0.0,
			"0.0": 0.0,
			"0.0": 0.0,
			"0.0": 0.0,
			"0.0": 0.0,
			"0.0": 0.0,
			"0.0": 0.0,
			"0.0": 0.0,
			"0.0": 0.0,
			"0.0": 0.0,
			"0.0": 0.0,
			"0.0": 0.0,
			"0.0": 0.0,
			"0.0": 0.0,
			"0.0": 0.0,
			"0.0": 0.0
		}
	}
}
