{
	 "smiles": "CN1CCN(CC1)C1=CC(N)=CC=C1", 
	 "Tm": 371.65, 
	 "num_atms": 31, 
	 "gaussian": { 
		 "optdone": 1, 
		 "sigma_profile": "yes", 
		 "theory": "DFT", 
		 "functional": "B3LYP", 
		 "basiset": "6-31G**", 
		 "properties": { 
			 "R2extent": 4339.8381, 
			 "electric_dipole_moment_norm": 1.75297803181, 
			 "electric_quadrupole_moment_norm": 11.3798302351, 
			 "total_energy": -593.650242289, 
			 "HOMO_LUMO_gap": 0.19741, 
			 "cosmo_polarized_energy": -10.89, 
			 "cosmo_cavitation_energy": 31.51, 
			 "cosmo_dispersion_energy": -23.42, 
			 "cosmo_repulsion_energy": 1.83, 
			 "cosmo_total_nonelectrostatic_energy": 9.93, 
			 "SMD_solvation_energy": 1.5 
		},
		"coords": [
			{
				"x": -2.2279683149,
				"y": -4.0282506438,
				"z": 1.7419924174,
				"element": "C" 
			},
			{
				"x": -1.9949806546,
				"y": -2.6352563711,
				"z": 1.3978240793,
				"element": "N" 
			},
			{
				"x": -1.1315708083,
				"y": -2.5085237865,
				"z": 0.2233881592,
				"element": "C" 
			},
			{
				"x": -0.5666557704,
				"y": -1.0956982618,
				"z": 0.0886978097,
				"element": "C" 
			},
			{
				"x": 0.2686392113,
				"y": -0.7756684252,
				"z": 1.2401053659,
				"element": "N" 
			},
			{
				"x": -0.0554396512,
				"y": -1.4510767607,
				"z": 2.4919830713,
				"element": "C" 
			},
			{
				"x": -1.5505987336,
				"y": -1.795155833,
				"z": 2.5218521418,
				"element": "C" 
			},
			{
				"x": 1.2870087521,
				"y": 0.1656860276,
				"z": 1.1613270687,
				"element": "C" 
			},
			{
				"x": 1.3730796863,
				"y": 1.0447779571,
				"z": 0.0624638976,
				"element": "C" 
			},
			{
				"x": 2.4010859506,
				"y": 1.9929154042,
				"z": -0.033752684,
				"element": "C" 
			},
			{
				"x": 2.4206376145,
				"y": 2.8934024825,
				"z": -1.1066754475,
				"element": "N" 
			},
			{
				"x": 3.3653689685,
				"y": 2.0797514258,
				"z": 0.9834500838,
				"element": "C" 
			},
			{
				"x": 3.2782321542,
				"y": 1.2146486868,
				"z": 2.0709242717,
				"element": "C" 
			},
			{
				"x": 2.2672513557,
				"y": 0.2634090956,
				"z": 2.175737898,
				"element": "C" 
			},
			{
				"x": -1.3128923042,
				"y": -4.5774469232,
				"z": 2.0398177657,
				"element": "H" 
			},
			{
				"x": -2.9503782368,
				"y": -4.0975042408,
				"z": 2.561130843,
				"element": "H" 
			},
			{
				"x": -2.6561135104,
				"y": -4.5498406183,
				"z": 0.8785556033,
				"element": "H" 
			},
			{
				"x": -0.2789209662,
				"y": -3.214551096,
				"z": 0.2603022265,
				"element": "H" 
			},
			{
				"x": -1.7083463034,
				"y": -2.7559371711,
				"z": -0.6773650372,
				"element": "H" 
			},
			{
				"x": 0.0444348825,
				"y": -1.0557380859,
				"z": -0.8193256552,
				"element": "H" 
			},
			{
				"x": -1.3926064622,
				"y": -0.3765708982,
				"z": -0.0426785466,
				"element": "H" 
			},
			{
				"x": 0.163034991,
				"y": -0.7807553091,
				"z": 3.3299415404,
				"element": "H" 
			},
			{
				"x": 0.5504896938,
				"y": -2.3607572308,
				"z": 2.6404710091,
				"element": "H" 
			},
			{
				"x": -2.1157015264,
				"y": -0.8528796251,
				"z": 2.5195217576,
				"element": "H" 
			},
			{
				"x": -1.7831947218,
				"y": -2.3013329244,
				"z": 3.4642977015,
				"element": "H" 
			},
			{
				"x": 0.6119951541,
				"y": 1.0303122037,
				"z": -0.7104420638,
				"element": "H" 
			},
			{
				"x": 3.3298600183,
				"y": 3.290497569,
				"z": -1.3013980191,
				"element": "H" 
			},
			{
				"x": 1.9793424734,
				"y": 2.5538782182,
				"z": -1.9507488666,
				"element": "H" 
			},
			{
				"x": 4.161687196,
				"y": 2.8161474852,
				"z": 0.9195427688,
				"element": "H" 
			},
			{
				"x": 4.0292059698,
				"y": 1.2709718213,
				"z": 2.8549849771,
				"element": "H" 
			},
			{
				"x": 2.2619138923,
				"y": -0.419254172,
				"z": 3.0165738624,
				"element": "H" 
			}
		],
		 "valence_orbital": [ 
			{
				"type": "occ",
				"energy": -0.30318,
				"method": "rhf"
			},
			{
				"type": "occ",
				"energy": -0.25856,
				"method": "rhf"
			},
			{
				"type": "occ",
				"energy": -0.20526,
				"method": "rhf"
			},
			{
				"type": "occ",
				"energy": -0.19623,
				"method": "rhf"
			},
			{
				"type": "occ",
				"energy": -0.1736,
				"method": "rhf"
			},
			{
				"type": "unocc",
				"energy": 0.02381,
				"method": "rhf"
			},
			{
				"type": "unocc",
				"energy": 0.03862,
				"method": "rhf"
			},
			{
				"type": "unocc",
				"energy": 0.07724,
				"method": "rhf"
			},
			{
				"type": "unocc",
				"energy": 0.08999,
				"method": "rhf"
			},
			{
				"type": "unocc",
				"energy": 0.1103,
				"method": "rhf"
			}
		],
		"cosmo_sigma_profile": { 
			"-0.025": 0.0,
			"-0.024": 0.0,
			"-0.023": 0.0,
			"-0.022": 0.0,
			"-0.021": 0.0,
			"-0.02": 0.0,
			"-0.019": 0.0,
			"-0.018": 0.0,
			"-0.017": 0.0,
			"-0.016": 0.0,
			"-0.015": 0.0,
			"-0.014": 0.0,
			"-0.013": 0.0,
			"-0.012": 0.836202859153,
			"-0.011": 2.88273331276,
			"-0.01": 2.28064180364,
			"-0.009": 3.15213477257,
			"-0.008": 3.11069703346,
			"-0.007": 1.97568953372,
			"-0.006": 3.28520160585,
			"-0.005": 6.82687467179,
			"-0.004": 21.0884135732,
			"-0.003": 31.7954674249,
			"-0.002": 38.3002112484,
			"-0.001": 28.3096502199,
			"0.0": 19.6569048281,
			"0.001": 10.3736334926,
			"0.002": 7.2177974503,
			"0.003": 7.07180678761,
			"0.004": 7.8751069183,
			"0.005": 8.14753871347,
			"0.006": 9.244194278,
			"0.007": 9.04314143324,
			"0.008": 10.1652687542,
			"0.009": 4.87242547767,
			"0.01": 1.65116819459,
			"0.011": 1.32447636151,
			"0.012": 1.16153475837,
			"0.013": 1.38726325414,
			"0.014": 0.65810693225,
			"0.015": 1.45278003208,
			"0.016": 0.567288768685,
			"0.017": 0.0492688604777,
			"0.018": 0.0,
			"0.019": 0.0,
			"0.02": 0.0,
			"0.021": 0.0,
			"0.022": 0.0,
			"0.023": 0.0,
			"0.024": 0.0,
			"0.025": 0.0
		}
	}
}
