{
	 "smiles": "CC1(NC(=O)NC1=O)C1=CC=C(F)C=C1", 
	 "Tm": 478.15, 
	 "num_atms": 24, 
	 "gaussian": { 
		 "optdone": 1, 
		 "sigma_profile": "yes", 
		 "theory": "DFT", 
		 "functional": "B3LYP", 
		 "basiset": "6-31G**", 
		 "properties": { 
			 "R2extent": 3470.9755, 
			 "electric_dipole_moment_norm": 2.15757759999, 
			 "electric_quadrupole_moment_norm": 12.9589937214, 
			 "total_energy": -746.316167309, 
			 "HOMO_LUMO_gap": 0.22276, 
			 "cosmo_polarized_energy": -16.26, 
			 "cosmo_cavitation_energy": 28.78, 
			 "cosmo_dispersion_energy": -20.43, 
			 "cosmo_repulsion_energy": 1.58, 
			 "cosmo_total_nonelectrostatic_energy": 9.93, 
			 "SMD_solvation_energy": 7.17 
		},
		"coords": [
			{
				"x": 0.0748456265,
				"y": -0.4853956616,
				"z": 3.0018056126,
				"element": "C" 
			},
			{
				"x": 0.3161380288,
				"y": 0.2344109458,
				"z": 1.6584103226,
				"element": "C" 
			},
			{
				"x": -0.1245371464,
				"y": 1.6275786488,
				"z": 1.7129937901,
				"element": "N" 
			},
			{
				"x": 0.9047647333,
				"y": 2.5383668395,
				"z": 1.6705015972,
				"element": "C" 
			},
			{
				"x": 0.8540615671,
				"y": 3.7421066877,
				"z": 1.8039551645,
				"element": "O" 
			},
			{
				"x": 2.068200709,
				"y": 1.776585504,
				"z": 1.4356044251,
				"element": "N" 
			},
			{
				"x": 1.8454359738,
				"y": 0.4186051143,
				"z": 1.4484330801,
				"element": "C" 
			},
			{
				"x": 2.672595856,
				"y": -0.461748635,
				"z": 1.3416511416,
				"element": "O" 
			},
			{
				"x": -0.2960560858,
				"y": -0.5419486935,
				"z": 0.486014115,
				"element": "C" 
			},
			{
				"x": -1.2878165963,
				"y": 0.022063382,
				"z": -0.3238174266,
				"element": "C" 
			},
			{
				"x": -1.8605402755,
				"y": -0.7036370568,
				"z": -1.3696892394,
				"element": "C" 
			},
			{
				"x": -1.4213378568,
				"y": -2.0000088259,
				"z": -1.6024811386,
				"element": "C" 
			},
			{
				"x": -1.9694176248,
				"y": -2.7087936069,
				"z": -2.6105255074,
				"element": "F" 
			},
			{
				"x": -0.4259600056,
				"y": -2.5855203561,
				"z": -0.8273781359,
				"element": "C" 
			},
			{
				"x": 0.1318063682,
				"y": -1.8517841991,
				"z": 0.217130429,
				"element": "C" 
			},
			{
				"x": -0.9993348157,
				"y": -0.5956027597,
				"z": 3.1790628273,
				"element": "H" 
			},
			{
				"x": 0.5253974824,
				"y": -1.4795905364,
				"z": 2.9876069612,
				"element": "H" 
			},
			{
				"x": 0.5143684091,
				"y": 0.0833838104,
				"z": 3.8268374396,
				"element": "H" 
			},
			{
				"x": -1.0062172998,
				"y": 1.912120609,
				"z": 2.1127704133,
				"element": "H" 
			},
			{
				"x": 2.9794760489,
				"y": 2.2015104153,
				"z": 1.3387513985,
				"element": "H" 
			},
			{
				"x": -1.6104606685,
				"y": 1.0422203351,
				"z": -0.1483953281,
				"element": "H" 
			},
			{
				"x": -2.6313110612,
				"y": -0.2753979153,
				"z": -2.0012256362,
				"element": "H" 
			},
			{
				"x": -0.0977288664,
				"y": -3.5952768532,
				"z": -1.0486315223,
				"element": "H" 
			},
			{
				"x": 0.9302274999,
				"y": -2.2890471925,
				"z": 0.8059152166,
				"element": "H" 
			}
		],
		 "valence_orbital": [ 
			{
				"type": "occ",
				"energy": -0.29445,
				"method": "rhf"
			},
			{
				"type": "occ",
				"energy": -0.27851,
				"method": "rhf"
			},
			{
				"type": "occ",
				"energy": -0.27062,
				"method": "rhf"
			},
			{
				"type": "occ",
				"energy": -0.26574,
				"method": "rhf"
			},
			{
				"type": "occ",
				"energy": -0.24665,
				"method": "rhf"
			},
			{
				"type": "unocc",
				"energy": -0.02389,
				"method": "rhf"
			},
			{
				"type": "unocc",
				"energy": -0.01773,
				"method": "rhf"
			},
			{
				"type": "unocc",
				"energy": 0.00019,
				"method": "rhf"
			},
			{
				"type": "unocc",
				"energy": 0.05295,
				"method": "rhf"
			},
			{
				"type": "unocc",
				"energy": 0.06732,
				"method": "rhf"
			}
		],
		"cosmo_sigma_profile": { 
			"-0.025": 0.0,
			"-0.024": 0.0,
			"-0.023": 0.0,
			"-0.022": 0.0,
			"-0.021": 0.0,
			"-0.02": 0.0,
			"-0.019": 0.0,
			"-0.018": 0.0,
			"-0.017": 0.514663379215,
			"-0.016": 1.50723815302,
			"-0.015": 2.35951238717,
			"-0.014": 1.94129738206,
			"-0.013": 1.75595290827,
			"-0.012": 2.01841257521,
			"-0.011": 1.74233799979,
			"-0.01": 2.22709921204,
			"-0.009": 2.48636015531,
			"-0.008": 2.1616410561,
			"-0.007": 6.4172333074,
			"-0.006": 10.7446375454,
			"-0.005": 15.3983680991,
			"-0.004": 14.5941393662,
			"-0.003": 14.2568886774,
			"-0.002": 15.2436028917,
			"-0.001": 16.1841000741,
			"0.0": 13.3404059767,
			"0.001": 14.5894264196,
			"0.002": 13.7262706112,
			"0.003": 16.226030023,
			"0.004": 19.051005035,
			"0.005": 5.94318654531,
			"0.006": 2.82634664696,
			"0.007": 3.53100643475,
			"0.008": 2.85176705958,
			"0.009": 2.05490303188,
			"0.01": 3.38357260665,
			"0.011": 6.3562406602,
			"0.012": 8.1827668231,
			"0.013": 5.37746744213,
			"0.014": 0.36851622248,
			"0.015": 0.0,
			"0.016": 0.0,
			"0.017": 0.0,
			"0.018": 0.0,
			"0.019": 0.0,
			"0.02": 0.0,
			"0.021": 0.0,
			"0.022": 0.0,
			"0.023": 0.0,
			"0.024": 0.0,
			"0.025": 0.0
		}
	}
}
