{
	 "smiles": "NC(=N)NC(N)=N", 
	 "Tm": 409.15, 
	 "num_atms": 14, 
	 "gaussian": { 
		 "optdone": 1, 
		 "sigma_profile": "yes", 
		 "theory": "DFT", 
		 "functional": "B3LYP", 
		 "basiset": "6-31G**", 
		 "properties": { 
			 "R2extent": 1184.6243, 
			 "electric_dipole_moment_norm": 2.98297442999, 
			 "electric_quadrupole_moment_norm": 10.6853818271, 
			 "total_energy": -354.189229079, 
			 "HOMO_LUMO_gap": 0.23962, 
			 "cosmo_polarized_energy": -18.72, 
			 "cosmo_cavitation_energy": 17.97, 
			 "cosmo_dispersion_energy": -13.52, 
			 "cosmo_repulsion_energy": 1.18, 
			 "cosmo_total_nonelectrostatic_energy": 5.63, 
			 "SMD_solvation_energy": 1.77 
		},
		"coords": [
			{
				"x": -1.515539126,
				"y": -0.7260933211,
				"z": 1.398932662,
				"element": "N" 
			},
			{
				"x": -0.4824962513,
				"y": -0.136612258,
				"z": 0.7014068731,
				"element": "C" 
			},
			{
				"x": 0.7532170193,
				"y": -0.0457852997,
				"z": 1.0374063266,
				"element": "N" 
			},
			{
				"x": -0.8078932859,
				"y": 0.363317735,
				"z": -0.5761914766,
				"element": "N" 
			},
			{
				"x": -2.0301585593,
				"y": 0.4683119027,
				"z": -1.2415951613,
				"element": "C" 
			},
			{
				"x": -3.1278512145,
				"y": 0.7338851584,
				"z": -0.4020039365,
				"element": "N" 
			},
			{
				"x": -2.2173441392,
				"y": 0.3610123841,
				"z": -2.5026935236,
				"element": "N" 
			},
			{
				"x": -2.4610182718,
				"y": -0.5386162116,
				"z": 1.0842783365,
				"element": "H" 
			},
			{
				"x": -1.3782831511,
				"y": -0.8253968852,
				"z": 2.3923878887,
				"element": "H" 
			},
			{
				"x": 0.9169245357,
				"y": -0.4866168397,
				"z": 1.9419749655,
				"element": "H" 
			},
			{
				"x": 0.0215132525,
				"y": 0.4881180611,
				"z": -1.1391580215,
				"element": "H" 
			},
			{
				"x": -3.9615405946,
				"y": 0.8410653603,
				"z": -0.9693514372,
				"element": "H" 
			},
			{
				"x": -2.9815512614,
				"y": 1.5398900105,
				"z": 0.1982271293,
				"element": "H" 
			},
			{
				"x": -1.3755789522,
				"y": 0.027420203,
				"z": -2.973220625,
				"element": "H" 
			}
		],
		 "valence_orbital": [ 
			{
				"type": "occ",
				"energy": -0.28238,
				"method": "rhf"
			},
			{
				"type": "occ",
				"energy": -0.27445,
				"method": "rhf"
			},
			{
				"type": "occ",
				"energy": -0.26252,
				"method": "rhf"
			},
			{
				"type": "occ",
				"energy": -0.25333,
				"method": "rhf"
			},
			{
				"type": "occ",
				"energy": -0.22166,
				"method": "rhf"
			},
			{
				"type": "unocc",
				"energy": 0.01796,
				"method": "rhf"
			},
			{
				"type": "unocc",
				"energy": 0.06435,
				"method": "rhf"
			},
			{
				"type": "unocc",
				"energy": 0.08166,
				"method": "rhf"
			},
			{
				"type": "unocc",
				"energy": 0.0937,
				"method": "rhf"
			},
			{
				"type": "unocc",
				"energy": 0.11072,
				"method": "rhf"
			}
		],
		"cosmo_sigma_profile": { 
			"-0.025": 0.0,
			"-0.024": 0.0,
			"-0.023": 0.0,
			"-0.022": 0.0,
			"-0.021": 0.0,
			"-0.02": 0.0,
			"-0.019": 0.0,
			"-0.018": 0.0,
			"-0.017": 0.0,
			"-0.016": 0.0,
			"-0.015": 0.000686208545225,
			"-0.014": 1.43169575397,
			"-0.013": 4.4630168171,
			"-0.012": 5.53828712397,
			"-0.011": 5.61274684296,
			"-0.01": 6.68350434523,
			"-0.009": 5.39777899014,
			"-0.008": 7.2283711808,
			"-0.007": 4.97142736872,
			"-0.006": 5.04431260042,
			"-0.005": 5.26600999275,
			"-0.004": 4.52047184675,
			"-0.003": 4.45854364307,
			"-0.002": 5.15588968071,
			"-0.001": 4.27214844584,
			"0.0": 5.61277475415,
			"0.001": 6.55616164261,
			"0.002": 5.65080485543,
			"0.003": 4.85033108342,
			"0.004": 5.04445937089,
			"0.005": 4.85367040953,
			"0.006": 3.92900730232,
			"0.007": 3.80950962394,
			"0.008": 2.8234655183,
			"0.009": 3.85425488371,
			"0.01": 2.88437699042,
			"0.011": 2.91501112896,
			"0.012": 2.74525241366,
			"0.013": 2.47322410626,
			"0.014": 2.44450046862,
			"0.015": 2.71615014794,
			"0.016": 1.9191398394,
			"0.017": 2.34124592818,
			"0.018": 2.04216501054,
			"0.019": 0.996369614732,
			"0.02": 0.0,
			"0.021": 0.0,
			"0.022": 0.0,
			"0.023": 0.0,
			"0.024": 0.0,
			"0.025": 0.0
		}
	}
}
