{
	 "smiles": "CC1=CC=C(C=C2/CN(C3=C(C=CC=C3)N2S(=O)(=O)C2=CC=C(C)C=C2)S(=O)(=O)C2=CC=C(C)C=C2)C=C1", 
	 "Tm": 428.0, 
	 "num_atms": 66, 
	 "gaussian": { 
		 "optdone": 1, 
		 "sigma_profile": "yes", 
		 "theory": "DFT", 
		 "functional": "B3LYP", 
		 "basiset": "6-31G**", 
		 "properties": { 
			 "R2extent": 20798.1814, 
			 "electric_dipole_moment_norm": 7.61831677078, 
			 "electric_quadrupole_moment_norm": 25.6360435266, 
			 "total_energy": -2366.69815314, 
			 "HOMO_LUMO_gap": 0.16674, 
			 "cosmo_polarized_energy": -23.33, 
			 "cosmo_cavitation_energy": 70.66, 
			 "cosmo_dispersion_energy": -45.08, 
			 "cosmo_repulsion_energy": 3.33, 
			 "cosmo_total_nonelectrostatic_energy": 28.9, 
			 "SMD_solvation_energy": 9.27 
		},
		"coords": [
			{
				"x": 2.1017450034,
				"y": -6.899077802,
				"z": -0.8243138517,
				"element": "C" 
			},
			{
				"x": 1.8986602363,
				"y": -5.4146250685,
				"z": -0.6400010603,
				"element": "C" 
			},
			{
				"x": 2.9409247077,
				"y": -4.5927850889,
				"z": -0.1861834535,
				"element": "C" 
			},
			{
				"x": 2.7631176931,
				"y": -3.2213498598,
				"z": -0.0418860453,
				"element": "C" 
			},
			{
				"x": 1.5381170821,
				"y": -2.6056545868,
				"z": -0.3626915167,
				"element": "C" 
			},
			{
				"x": 1.4221995213,
				"y": -1.151374686,
				"z": -0.1947267234,
				"element": "C" 
			},
			{
				"x": 0.6693233812,
				"y": -0.271480436,
				"z": -0.8821054508,
				"element": "C" 
			},
			{
				"x": -0.2316180431,
				"y": -0.5652416075,
				"z": -2.0490667297,
				"element": "C" 
			},
			{
				"x": -0.1536883861,
				"y": 0.501608183,
				"z": -3.0836819009,
				"element": "N" 
			},
			{
				"x": 0.6618312932,
				"y": 1.6489454396,
				"z": -2.8787232852,
				"element": "C" 
			},
			{
				"x": 1.063137642,
				"y": 1.9905198654,
				"z": -1.5715544486,
				"element": "C" 
			},
			{
				"x": 1.8855956215,
				"y": 3.0960186827,
				"z": -1.346572369,
				"element": "C" 
			},
			{
				"x": 2.2949100174,
				"y": 3.8947857007,
				"z": -2.4094183597,
				"element": "C" 
			},
			{
				"x": 1.9258167338,
				"y": 3.545440445,
				"z": -3.7105496294,
				"element": "C" 
			},
			{
				"x": 1.1415392037,
				"y": 2.4201948757,
				"z": -3.9513695923,
				"element": "C" 
			},
			{
				"x": 0.7204972224,
				"y": 1.1145842126,
				"z": -0.4882128718,
				"element": "N" 
			},
			{
				"x": -0.5352294225,
				"y": 1.6249964756,
				"z": 0.6049318466,
				"element": "S" 
			},
			{
				"x": -0.5523757337,
				"y": 3.0874219044,
				"z": 0.5505698758,
				"element": "O" 
			},
			{
				"x": -1.753706798,
				"y": 0.8392949267,
				"z": 0.3619689569,
				"element": "O" 
			},
			{
				"x": 0.1147282695,
				"y": 1.1159769025,
				"z": 2.1952498913,
				"element": "C" 
			},
			{
				"x": -0.3712394842,
				"y": -0.0427392164,
				"z": 2.799344625,
				"element": "C" 
			},
			{
				"x": 0.1312611688,
				"y": -0.418529096,
				"z": 4.0451933474,
				"element": "C" 
			},
			{
				"x": 1.1054078599,
				"y": 0.3491145506,
				"z": 4.6963953812,
				"element": "C" 
			},
			{
				"x": 1.6245036428,
				"y": -0.0466117489,
				"z": 6.0575430652,
				"element": "C" 
			},
			{
				"x": 1.5701442549,
				"y": 1.5150547547,
				"z": 4.0662745755,
				"element": "C" 
			},
			{
				"x": 1.0811030253,
				"y": 1.9055796839,
				"z": 2.8235217971,
				"element": "C" 
			},
			{
				"x": -1.5410552234,
				"y": 0.5651734617,
				"z": -4.0918802922,
				"element": "S" 
			},
			{
				"x": -1.2027150065,
				"y": 1.3760762481,
				"z": -5.261097874,
				"element": "O" 
			},
			{
				"x": -1.9631776808,
				"y": -0.8304664687,
				"z": -4.2265615613,
				"element": "O" 
			},
			{
				"x": -2.7848428727,
				"y": 1.4383522911,
				"z": -3.14915006,
				"element": "C" 
			},
			{
				"x": -3.802744131,
				"y": 0.7170874163,
				"z": -2.5241135161,
				"element": "C" 
			},
			{
				"x": -4.7501360041,
				"y": 1.4024863689,
				"z": -1.7658606023,
				"element": "C" 
			},
			{
				"x": -4.6892696799,
				"y": 2.7932324441,
				"z": -1.6144768209,
				"element": "C" 
			},
			{
				"x": -5.6897900464,
				"y": 3.5241824782,
				"z": -0.7531346134,
				"element": "C" 
			},
			{
				"x": -3.661128455,
				"y": 3.4937101556,
				"z": -2.2644661005,
				"element": "C" 
			},
			{
				"x": -2.7099567737,
				"y": 2.8303590625,
				"z": -3.0326513169,
				"element": "C" 
			},
			{
				"x": 0.4851652415,
				"y": -3.4354197884,
				"z": -0.7888942372,
				"element": "C" 
			},
			{
				"x": 0.6680904846,
				"y": -4.8101563185,
				"z": -0.9257178249,
				"element": "C" 
			},
			{
				"x": 2.5110528788,
				"y": -7.120333245,
				"z": -1.8181642708,
				"element": "H" 
			},
			{
				"x": 1.1595710554,
				"y": -7.4472393107,
				"z": -0.7319607312,
				"element": "H" 
			},
			{
				"x": 2.8040607018,
				"y": -7.3026098164,
				"z": -0.0883560856,
				"element": "H" 
			},
			{
				"x": 3.9023583094,
				"y": -5.0362114925,
				"z": 0.0613847989,
				"element": "H" 
			},
			{
				"x": 3.5863080256,
				"y": -2.6076522817,
				"z": 0.3150483763,
				"element": "H" 
			},
			{
				"x": 2.0496219709,
				"y": -0.717863846,
				"z": 0.5808399659,
				"element": "H" 
			},
			{
				"x": -1.2605344456,
				"y": -0.6360061471,
				"z": -1.6769860977,
				"element": "H" 
			},
			{
				"x": 0.0261036759,
				"y": -1.5165238781,
				"z": -2.517279767,
				"element": "H" 
			},
			{
				"x": 2.1888949582,
				"y": 3.3172266308,
				"z": -0.3296339719,
				"element": "H" 
			},
			{
				"x": 2.9193274391,
				"y": 4.7638270605,
				"z": -2.2272020363,
				"element": "H" 
			},
			{
				"x": 2.2701239567,
				"y": 4.1383365655,
				"z": -4.5527517872,
				"element": "H" 
			},
			{
				"x": 0.8799361733,
				"y": 2.1377884911,
				"z": -4.9612587846,
				"element": "H" 
			},
			{
				"x": -1.1336128066,
				"y": -0.6301536538,
				"z": 2.3006638878,
				"element": "H" 
			},
			{
				"x": -0.2420857504,
				"y": -1.3226498304,
				"z": 4.5184272556,
				"element": "H" 
			},
			{
				"x": 1.1231643008,
				"y": 0.5247204992,
				"z": 6.8484829511,
				"element": "H" 
			},
			{
				"x": 1.4524382212,
				"y": -1.1072607727,
				"z": 6.2594456558,
				"element": "H" 
			},
			{
				"x": 2.697401551,
				"y": 0.1489395453,
				"z": 6.1486589517,
				"element": "H" 
			},
			{
				"x": 2.3213413386,
				"y": 2.126338343,
				"z": 4.5595734392,
				"element": "H" 
			},
			{
				"x": 1.4303333374,
				"y": 2.8169873016,
				"z": 2.3504407325,
				"element": "H" 
			},
			{
				"x": -3.8549352386,
				"y": -0.358460447,
				"z": -2.649283088,
				"element": "H" 
			},
			{
				"x": -5.5476109595,
				"y": 0.8457276204,
				"z": -1.2813464592,
				"element": "H" 
			},
			{
				"x": -6.614500334,
				"y": 2.9518535502,
				"z": -0.637703774,
				"element": "H" 
			},
			{
				"x": -5.2813552675,
				"y": 3.6972622905,
				"z": 0.2500377953,
				"element": "H" 
			},
			{
				"x": -5.9426718241,
				"y": 4.5022150616,
				"z": -1.1739132665,
				"element": "H" 
			},
			{
				"x": -3.6061733625,
				"y": 4.5745887722,
				"z": -2.1681016447,
				"element": "H" 
			},
			{
				"x": -1.929416519,
				"y": 3.3820425539,
				"z": -3.5443039929,
				"element": "H" 
			},
			{
				"x": -0.4968961088,
				"y": -3.0153514978,
				"z": -0.9769070273,
				"element": "H" 
			},
			{
				"x": -0.1665908427,
				"y": -5.4260228239,
				"z": -1.2510822792,
				"element": "H" 
			}
		],
		 "valence_orbital": [ 
			{
				"type": "occ",
				"energy": -0.2555,
				"method": "rhf"
			},
			{
				"type": "occ",
				"energy": -0.25138,
				"method": "rhf"
			},
			{
				"type": "occ",
				"energy": -0.2368,
				"method": "rhf"
			},
			{
				"type": "occ",
				"energy": -0.22389,
				"method": "rhf"
			},
			{
				"type": "occ",
				"energy": -0.21205,
				"method": "rhf"
			},
			{
				"type": "unocc",
				"energy": -0.04531,
				"method": "rhf"
			},
			{
				"type": "unocc",
				"energy": -0.03883,
				"method": "rhf"
			},
			{
				"type": "unocc",
				"energy": -0.02948,
				"method": "rhf"
			},
			{
				"type": "unocc",
				"energy": -0.02239,
				"method": "rhf"
			},
			{
				"type": "unocc",
				"energy": -0.00871,
				"method": "rhf"
			}
		],
		"cosmo_sigma_profile": { 
			"-0.025": 0.0,
			"-0.024": 0.0,
			"-0.023": 0.0,
			"-0.022": 0.0,
			"-0.021": 0.0,
			"-0.02": 0.0,
			"-0.019": 0.0,
			"-0.018": 0.0,
			"-0.017": 0.0,
			"-0.016": 0.0,
			"-0.015": 0.0,
			"-0.014": 0.0,
			"-0.013": 0.0,
			"-0.012": 0.0,
			"-0.011": 0.0,
			"-0.01": 0.0,
			"-0.009": 0.0,
			"-0.008": 0.319208542892,
			"-0.007": 9.30424355061,
			"-0.006": 30.6087985345,
			"-0.005": 45.2907702453,
			"-0.004": 54.2837261506,
			"-0.003": 43.5794521493,
			"-0.002": 46.9360339439,
			"-0.001": 49.8051387316,
			"0.0": 47.8410995692,
			"0.001": 41.2056165397,
			"0.002": 43.3339319988,
			"0.003": 44.4985633702,
			"0.004": 26.5273732125,
			"0.005": 22.3462163199,
			"0.006": 9.52567798311,
			"0.007": 8.75899048848,
			"0.008": 9.50501663576,
			"0.009": 8.50726151613,
			"0.01": 13.4635737419,
			"0.011": 7.79213446696,
			"0.012": 0.364660419673,
			"0.013": 0.0,
			"0.014": 0.0,
			"0.015": 0.0,
			"0.016": 0.0,
			"0.017": 0.0,
			"0.018": 0.0,
			"0.019": 0.0,
			"0.02": 0.0,
			"0.021": 0.0,
			"0.022": 0.0,
			"0.023": 0.0,
			"0.024": 0.0,
			"0.025": 0.0
		}
	}
}
