{
	 "smiles": "CC1=NN=C(C(=O)N1N)C1=CC=CC=C1", 
	 "Tm": 442.15, 
	 "num_atms": 25, 
	 "gaussian": { 
		 "optdone": 1, 
		 "sigma_profile": "yes", 
		 "theory": "DFT", 
		 "functional": "B3LYP", 
		 "basiset": "6-31G**", 
		 "properties": { 
			 "R2extent": 3593.9734, 
			 "electric_dipole_moment_norm": 2.97912004626, 
			 "electric_quadrupole_moment_norm": 13.7700164216, 
			 "total_energy": -681.271310638, 
			 "HOMO_LUMO_gap": 0.15418, 
			 "cosmo_polarized_energy": -15.04, 
			 "cosmo_cavitation_energy": 29.04, 
			 "cosmo_dispersion_energy": -21.81, 
			 "cosmo_repulsion_energy": 1.68, 
			 "cosmo_total_nonelectrostatic_energy": 8.91, 
			 "SMD_solvation_energy": 4.53 
		},
		"coords": [
			{
				"x": -3.8789779565,
				"y": 0.7716993604,
				"z": -0.8045884999,
				"element": "C" 
			},
			{
				"x": -2.4443430075,
				"y": 0.4822665835,
				"z": -0.4924594389,
				"element": "C" 
			},
			{
				"x": -2.152411753,
				"y": -0.3442622546,
				"z": 0.4817593975,
				"element": "N" 
			},
			{
				"x": -0.8518669606,
				"y": -0.603526504,
				"z": 0.7675818785,
				"element": "N" 
			},
			{
				"x": 0.1477079093,
				"y": -0.0479300766,
				"z": 0.1164894421,
				"element": "C" 
			},
			{
				"x": -0.0950483047,
				"y": 0.9016512837,
				"z": -0.982642026,
				"element": "C" 
			},
			{
				"x": 0.7187518514,
				"y": 1.5317191987,
				"z": -1.6560000486,
				"element": "O" 
			},
			{
				"x": -1.4664517119,
				"y": 1.0788261849,
				"z": -1.2408154784,
				"element": "N" 
			},
			{
				"x": -1.8262232532,
				"y": 1.9950675958,
				"z": -2.2576396585,
				"element": "N" 
			},
			{
				"x": 1.5204889572,
				"y": -0.432053881,
				"z": 0.5330514049,
				"element": "C" 
			},
			{
				"x": 2.6788944758,
				"y": 0.1307596528,
				"z": -0.0340801149,
				"element": "C" 
			},
			{
				"x": 3.9428228915,
				"y": -0.2699932646,
				"z": 0.4020293777,
				"element": "C" 
			},
			{
				"x": 4.0777504375,
				"y": -1.2308496063,
				"z": 1.4025811666,
				"element": "C" 
			},
			{
				"x": 2.932066998,
				"y": -1.7957978826,
				"z": 1.9721378807,
				"element": "C" 
			},
			{
				"x": 1.6695568827,
				"y": -1.4032058096,
				"z": 1.5446215871,
				"element": "C" 
			},
			{
				"x": -4.1535271788,
				"y": 0.4039802542,
				"z": -1.7992818568,
				"element": "H" 
			},
			{
				"x": -4.4936529253,
				"y": 0.2709578471,
				"z": -0.0570728439,
				"element": "H" 
			},
			{
				"x": -4.0665835109,
				"y": 1.8487776956,
				"z": -0.7973981475,
				"element": "H" 
			},
			{
				"x": -1.8968652383,
				"y": 1.4669057545,
				"z": -3.129270069,
				"element": "H" 
			},
			{
				"x": -0.9956069342,
				"y": 2.5821434582,
				"z": -2.3630872601,
				"element": "H" 
			},
			{
				"x": 2.5853237063,
				"y": 0.8767524482,
				"z": -0.8106518884,
				"element": "H" 
			},
			{
				"x": 4.8255606414,
				"y": 0.1763257981,
				"z": -0.0470702847,
				"element": "H" 
			},
			{
				"x": 5.0642435673,
				"y": -1.538959489,
				"z": 1.7375882437,
				"element": "H" 
			},
			{
				"x": 3.0245147538,
				"y": -2.5461038228,
				"z": 2.7522944673,
				"element": "H" 
			},
			{
				"x": 0.7784756629,
				"y": -1.8366505246,
				"z": 1.9825227696,
				"element": "H" 
			}
		],
		 "valence_orbital": [ 
			{
				"type": "occ",
				"energy": -0.28416,
				"method": "rhf"
			},
			{
				"type": "occ",
				"energy": -0.27173,
				"method": "rhf"
			},
			{
				"type": "occ",
				"energy": -0.24657,
				"method": "rhf"
			},
			{
				"type": "occ",
				"energy": -0.24052,
				"method": "rhf"
			},
			{
				"type": "occ",
				"energy": -0.22779,
				"method": "rhf"
			},
			{
				"type": "unocc",
				"energy": -0.07361,
				"method": "rhf"
			},
			{
				"type": "unocc",
				"energy": -0.02308,
				"method": "rhf"
			},
			{
				"type": "unocc",
				"energy": 0.0054,
				"method": "rhf"
			},
			{
				"type": "unocc",
				"energy": 0.01498,
				"method": "rhf"
			},
			{
				"type": "unocc",
				"energy": 0.05736,
				"method": "rhf"
			}
		],
		"cosmo_sigma_profile": { 
			"-0.025": 0.0,
			"-0.024": 0.0,
			"-0.023": 0.0,
			"-0.022": 0.0,
			"-0.021": 0.0,
			"-0.02": 0.0,
			"-0.019": 0.0,
			"-0.018": 0.0,
			"-0.017": 0.0,
			"-0.016": 0.0,
			"-0.015": 0.0,
			"-0.014": 1.38875742204,
			"-0.013": 2.23279404539,
			"-0.012": 2.94768109505,
			"-0.011": 2.11846422468,
			"-0.01": 1.87841648532,
			"-0.009": 2.5481141191,
			"-0.008": 3.11279541546,
			"-0.007": 5.46305882607,
			"-0.006": 11.3921767891,
			"-0.005": 16.8459561607,
			"-0.004": 17.2858457261,
			"-0.003": 19.6513732553,
			"-0.002": 17.8252045176,
			"-0.001": 12.3832286894,
			"0.0": 11.1811399287,
			"0.001": 12.064351913,
			"0.002": 12.5971735801,
			"0.003": 15.4602137901,
			"0.004": 15.1925367021,
			"0.005": 15.2962041666,
			"0.006": 5.640727167,
			"0.007": 3.78985718359,
			"0.008": 3.24661846178,
			"0.009": 4.60182393038,
			"0.01": 4.14062120209,
			"0.011": 5.13013463704,
			"0.012": 2.48666425435,
			"0.013": 2.26324688099,
			"0.014": 1.37323114208,
			"0.015": 0.851248135993,
			"0.016": 0.208696606918,
			"0.017": 0.0,
			"0.018": 0.0,
			"0.019": 0.0,
			"0.02": 0.0,
			"0.021": 0.0,
			"0.022": 0.0,
			"0.023": 0.0,
			"0.024": 0.0,
			"0.025": 0.0
		}
	}
}
