{
	 "smiles": "ClC1=C2N=CC(I)=CC2=CC=C1", 
	 "Tm": 371.15, 
	 "num_atms": 17, 
	 "gaussian": { 
		 "optdone": 1, 
		 "sigma_profile": "yes", 
		 "theory": "DFT", 
		 "functional": "B3LYP", 
		 "basiset": "6-31G**", 
		 "properties": { 
			 "R2extent": 2843.4898, 
			 "electric_dipole_moment_norm": 3.2274966553, 
			 "electric_quadrupole_moment_norm": 6.36445742306, 
			 "total_energy": -872.301939774, 
			 "HOMO_LUMO_gap": 0.1657, 
			 "cosmo_polarized_energy": -8.15, 
			 "cosmo_cavitation_energy": 26.41, 
			 "cosmo_dispersion_energy": -21.29, 
			 "cosmo_repulsion_energy": 1.65, 
			 "cosmo_total_nonelectrostatic_energy": 6.76, 
			 "SMD_solvation_energy": 1.97 
		},
		"coords": [
			{
				"x": -2.9924657279,
				"y": 2.212003106,
				"z": -0.5947984427,
				"element": "Cl" 
			},
			{
				"x": -1.9415819043,
				"y": 0.8251516481,
				"z": -0.4521170458,
				"element": "C" 
			},
			{
				"x": -0.9411763708,
				"y": 0.803042966,
				"z": 0.5666284117,
				"element": "C" 
			},
			{
				"x": -0.8128661895,
				"y": 1.8562869385,
				"z": 1.4156353281,
				"element": "N" 
			},
			{
				"x": 0.1143582279,
				"y": 1.8152975097,
				"z": 2.3458267665,
				"element": "C" 
			},
			{
				"x": 0.9977458553,
				"y": 0.713752582,
				"z": 2.509286465,
				"element": "C" 
			},
			{
				"x": 2.4485693851,
				"y": 0.7697308905,
				"z": 4.0460884417,
				"element": "I" 
			},
			{
				"x": 0.8925942964,
				"y": -0.3657295875,
				"z": 1.6664494444,
				"element": "C" 
			},
			{
				"x": -0.0990604308,
				"y": -0.3532265802,
				"z": 0.6503222359,
				"element": "C" 
			},
			{
				"x": -0.2699914406,
				"y": -1.4292501806,
				"z": -0.2582086563,
				"element": "C" 
			},
			{
				"x": -1.2474809552,
				"y": -1.3638445684,
				"z": -1.2238228252,
				"element": "C" 
			},
			{
				"x": -2.0896585453,
				"y": -0.2316116255,
				"z": -1.323954666,
				"element": "C" 
			},
			{
				"x": 0.1898230743,
				"y": 2.6747218216,
				"z": 3.0083574612,
				"element": "H" 
			},
			{
				"x": 1.5485792327,
				"y": -1.2252736793,
				"z": 1.7596103158,
				"element": "H" 
			},
			{
				"x": 0.3783557721,
				"y": -2.2971342679,
				"z": -0.178546304,
				"element": "H" 
			},
			{
				"x": -1.3834920679,
				"y": -2.1838544697,
				"z": -1.922130171,
				"element": "H" 
			},
			{
				"x": -2.8572522117,
				"y": -0.1896625033,
				"z": -2.0886267592,
				"element": "H" 
			}
		],
		 "valence_orbital": [ 
			{
				"type": "occ",
				"energy": -0.28817,
				"method": "rhf"
			},
			{
				"type": "occ",
				"energy": -0.28249,
				"method": "rhf"
			},
			{
				"type": "occ",
				"energy": -0.26851,
				"method": "rhf"
			},
			{
				"type": "occ",
				"energy": -0.25725,
				"method": "rhf"
			},
			{
				"type": "occ",
				"energy": -0.23908,
				"method": "rhf"
			},
			{
				"type": "unocc",
				"energy": -0.07338,
				"method": "rhf"
			},
			{
				"type": "unocc",
				"energy": -0.0489,
				"method": "rhf"
			},
			{
				"type": "unocc",
				"energy": -0.03847,
				"method": "rhf"
			},
			{
				"type": "unocc",
				"energy": 0.00158,
				"method": "rhf"
			},
			{
				"type": "unocc",
				"energy": 0.03155,
				"method": "rhf"
			}
		],
		"cosmo_sigma_profile": { 
			"-0.025": 0.0,
			"-0.024": 0.0,
			"-0.023": 0.0,
			"-0.022": 0.0,
			"-0.021": 0.0,
			"-0.02": 0.0,
			"-0.019": 0.0,
			"-0.018": 0.0,
			"-0.017": 0.0,
			"-0.016": 0.0,
			"-0.015": 0.0,
			"-0.014": 0.0,
			"-0.013": 0.0,
			"-0.012": 0.0,
			"-0.011": 0.0,
			"-0.01": 0.0,
			"-0.009": 1.44537354471,
			"-0.008": 4.96475928616,
			"-0.007": 10.9964769155,
			"-0.006": 11.9641171251,
			"-0.005": 10.2942425169,
			"-0.004": 9.55954252178,
			"-0.003": 8.70279628384,
			"-0.002": 12.6203791825,
			"-0.001": 16.5394582259,
			"0.0": 27.8544755234,
			"0.001": 25.9885822965,
			"0.002": 21.7355041041,
			"0.003": 19.1129351163,
			"0.004": 19.9678138427,
			"0.005": 6.1397843972,
			"0.006": 2.837897473,
			"0.007": 1.77777807007,
			"0.008": 0.656892554036,
			"0.009": 1.75939651492,
			"0.01": 1.55644140974,
			"0.011": 1.15483185102,
			"0.012": 1.04780541964,
			"0.013": 1.05304792681,
			"0.014": 1.0175429105,
			"0.015": 0.0745766207582,
			"0.016": 0.0,
			"0.017": 0.0,
			"0.018": 0.0,
			"0.019": 0.0,
			"0.02": 0.0,
			"0.021": 0.0,
			"0.022": 0.0,
			"0.023": 0.0,
			"0.024": 0.0,
			"0.025": 0.0
		}
	}
}
