{
	 "smiles": "CCOC(=O)C1=CC(C)=NC2=C(C=NN12)C(N)=O", 
	 "Tm": 472.15, 
	 "num_atms": 30, 
	 "gaussian": { 
		 "optdone": 1, 
		 "sigma_profile": "yes", 
		 "theory": "DFT", 
		 "functional": "B3LYP", 
		 "basiset": "6-31G**", 
		 "properties": { 
			 "R2extent": 5812.991, 
			 "electric_dipole_moment_norm": 4.79199181343, 
			 "electric_quadrupole_moment_norm": 22.3664061771, 
			 "total_energy": -871.092788743, 
			 "HOMO_LUMO_gap": 0.14431, 
			 "cosmo_polarized_energy": -18.88, 
			 "cosmo_cavitation_energy": 35.3, 
			 "cosmo_dispersion_energy": -25.35, 
			 "cosmo_repulsion_energy": 1.99, 
			 "cosmo_total_nonelectrostatic_energy": 11.94, 
			 "SMD_solvation_energy": 6.6 
		},
		"coords": [
			{
				"x": -1.4853027176,
				"y": -3.1319536598,
				"z": 4.4985496558,
				"element": "C" 
			},
			{
				"x": -2.5081446427,
				"y": -2.9743543196,
				"z": 3.3914988186,
				"element": "C" 
			},
			{
				"x": -1.962751166,
				"y": -2.0274488899,
				"z": 2.4348146935,
				"element": "O" 
			},
			{
				"x": -2.7174530692,
				"y": -1.7763898272,
				"z": 1.3696388849,
				"element": "C" 
			},
			{
				"x": -3.8154766006,
				"y": -2.2551206896,
				"z": 1.1611647689,
				"element": "O" 
			},
			{
				"x": -2.1166291003,
				"y": -0.7778154206,
				"z": 0.4152659425,
				"element": "C" 
			},
			{
				"x": -2.9396551371,
				"y": -0.1906758027,
				"z": -0.5154468667,
				"element": "C" 
			},
			{
				"x": -2.4358761087,
				"y": 0.780750125,
				"z": -1.427510763,
				"element": "C" 
			},
			{
				"x": -3.3505186616,
				"y": 1.4249321406,
				"z": -2.4329777035,
				"element": "C" 
			},
			{
				"x": -1.1633135241,
				"y": 1.1417648075,
				"z": -1.415409857,
				"element": "N" 
			},
			{
				"x": -0.3448716687,
				"y": 0.5573288858,
				"z": -0.5180958912,
				"element": "C" 
			},
			{
				"x": 1.0243238194,
				"y": 0.6993833194,
				"z": -0.2788791721,
				"element": "C" 
			},
			{
				"x": 1.2861240603,
				"y": -0.196476888,
				"z": 0.7714723578,
				"element": "C" 
			},
			{
				"x": 0.2099216796,
				"y": -0.8661437356,
				"z": 1.1949877425,
				"element": "N" 
			},
			{
				"x": -0.7964331964,
				"y": -0.4044136479,
				"z": 0.4115265122,
				"element": "N" 
			},
			{
				"x": 2.0248050448,
				"y": 1.5651418948,
				"z": -0.9462512513,
				"element": "C" 
			},
			{
				"x": 1.5345681778,
				"y": 2.3474250116,
				"z": -1.9508723208,
				"element": "N" 
			},
			{
				"x": 3.2042387918,
				"y": 1.5638239981,
				"z": -0.6043739828,
				"element": "O" 
			},
			{
				"x": -0.5366576995,
				"y": -3.5018817333,
				"z": 4.1011317947,
				"element": "H" 
			},
			{
				"x": -1.3000009319,
				"y": -2.1774708934,
				"z": 4.9985265482,
				"element": "H" 
			},
			{
				"x": -1.8550121818,
				"y": -3.8459915172,
				"z": 5.2409235857,
				"element": "H" 
			},
			{
				"x": -2.7080538469,
				"y": -3.9151948094,
				"z": 2.8700914307,
				"element": "H" 
			},
			{
				"x": -3.4643024401,
				"y": -2.5866177716,
				"z": 3.7564325589,
				"element": "H" 
			},
			{
				"x": -3.9799222491,
				"y": -0.4900310806,
				"z": -0.5272717081,
				"element": "H" 
			},
			{
				"x": -3.8037909365,
				"y": 0.6715324183,
				"z": -3.0870526717,
				"element": "H" 
			},
			{
				"x": -2.7925494403,
				"y": 2.1351768053,
				"z": -3.0444328403,
				"element": "H" 
			},
			{
				"x": -4.1705188777,
				"y": 1.9532589666,
				"z": -1.9335599928,
				"element": "H" 
			},
			{
				"x": 2.2461243001,
				"y": -0.3759908979,
				"z": 1.2353898627,
				"element": "H" 
			},
			{
				"x": 0.556576104,
				"y": 2.3198412887,
				"z": -2.2076566917,
				"element": "H" 
			},
			{
				"x": 2.180652219,
				"y": 2.9511119228,
				"z": -2.4340234445,
				"element": "H" 
			}
		],
		 "valence_orbital": [ 
			{
				"type": "occ",
				"energy": -0.28166,
				"method": "rhf"
			},
			{
				"type": "occ",
				"energy": -0.26964,
				"method": "rhf"
			},
			{
				"type": "occ",
				"energy": -0.25119,
				"method": "rhf"
			},
			{
				"type": "occ",
				"energy": -0.24058,
				"method": "rhf"
			},
			{
				"type": "occ",
				"energy": -0.23455,
				"method": "rhf"
			},
			{
				"type": "unocc",
				"energy": -0.09024,
				"method": "rhf"
			},
			{
				"type": "unocc",
				"energy": -0.03303,
				"method": "rhf"
			},
			{
				"type": "unocc",
				"energy": 0.01065,
				"method": "rhf"
			},
			{
				"type": "unocc",
				"energy": 0.02573,
				"method": "rhf"
			},
			{
				"type": "unocc",
				"energy": 0.08823,
				"method": "rhf"
			}
		],
		"cosmo_sigma_profile": { 
			"-0.025": 0.0,
			"-0.024": 0.0,
			"-0.023": 0.0,
			"-0.022": 0.0,
			"-0.021": 0.0,
			"-0.02": 0.0,
			"-0.019": 0.0,
			"-0.018": 0.0,
			"-0.017": 0.0,
			"-0.016": 0.0,
			"-0.015": 0.0,
			"-0.014": 0.313926761392,
			"-0.013": 1.13446816421,
			"-0.012": 1.23558701582,
			"-0.011": 0.615227611065,
			"-0.01": 1.89317871853,
			"-0.009": 2.01370229384,
			"-0.008": 3.8286924702,
			"-0.007": 4.34489838635,
			"-0.006": 16.0148994528,
			"-0.005": 24.4876744052,
			"-0.004": 29.0821930399,
			"-0.003": 24.0933467521,
			"-0.002": 24.4628315671,
			"-0.001": 25.1286371885,
			"0.0": 20.5081472127,
			"0.001": 16.610554801,
			"0.002": 13.4882495559,
			"0.003": 10.0365756779,
			"0.004": 8.93022905668,
			"0.005": 6.58856342634,
			"0.006": 4.7867112423,
			"0.007": 4.10122471404,
			"0.008": 4.39893651767,
			"0.009": 6.04260382234,
			"0.01": 4.60251915402,
			"0.011": 5.62021712185,
			"0.012": 3.73085322502,
			"0.013": 4.2455347333,
			"0.014": 7.08531603917,
			"0.015": 1.83670791907,
			"0.016": 0.0429728838725,
			"0.017": 0.0,
			"0.018": 0.0,
			"0.019": 0.0,
			"0.02": 0.0,
			"0.021": 0.0,
			"0.022": 0.0,
			"0.023": 0.0,
			"0.024": 0.0,
			"0.025": 0.0
		}
	}
}
