{
	 "smiles": "CC1=CC(=CC=C1O)C1(CCCCC1)C1=CC(C)=C(O)C=C1", 
	 "Tm": 457.15, 
	 "num_atms": 46, 
	 "gaussian": { 
		 "optdone": 1, 
		 "sigma_profile": "yes", 
		 "theory": "DFT", 
		 "functional": "B3LYP", 
		 "basiset": "6-31G**", 
		 "properties": { 
			 "R2extent": 7646.2547, 
			 "electric_dipole_moment_norm": 1.45774917253, 
			 "electric_quadrupole_moment_norm": 13.7034496226, 
			 "total_energy": -927.051511477, 
			 "HOMO_LUMO_gap": 0.20114, 
			 "cosmo_polarized_energy": -13.66, 
			 "cosmo_cavitation_energy": 44.68, 
			 "cosmo_dispersion_energy": -30.88, 
			 "cosmo_repulsion_energy": 2.39, 
			 "cosmo_total_nonelectrostatic_energy": 16.18, 
			 "SMD_solvation_energy": 7.27 
		},
		"coords": [
			{
				"x": 0.2059853561,
				"y": 2.5261639618,
				"z": 3.8898396156,
				"element": "C" 
			},
			{
				"x": -0.57713315,
				"y": 1.6655545074,
				"z": 2.9311113878,
				"element": "C" 
			},
			{
				"x": 0.0445931694,
				"y": 0.9499096118,
				"z": 1.9002893907,
				"element": "C" 
			},
			{
				"x": -0.6577420839,
				"y": 0.1428212875,
				"z": 0.994677324,
				"element": "C" 
			},
			{
				"x": -2.0507336491,
				"y": 0.0776153694,
				"z": 1.1525718128,
				"element": "C" 
			},
			{
				"x": -2.7007870109,
				"y": 0.771910599,
				"z": 2.1688686091,
				"element": "C" 
			},
			{
				"x": -1.9697648056,
				"y": 1.5634712583,
				"z": 3.057903026,
				"element": "C" 
			},
			{
				"x": -2.5605209512,
				"y": 2.2696962969,
				"z": 4.0741198572,
				"element": "O" 
			},
			{
				"x": -0.0056232404,
				"y": -0.6585635993,
				"z": -0.1587046543,
				"element": "C" 
			},
			{
				"x": 1.5521442956,
				"y": -0.4900012171,
				"z": -0.2603925375,
				"element": "C" 
			},
			{
				"x": 2.3788186481,
				"y": -1.5340022315,
				"z": 0.5348836586,
				"element": "C" 
			},
			{
				"x": 1.658641731,
				"y": -2.0589920371,
				"z": 1.783286998,
				"element": "C" 
			},
			{
				"x": 0.2854485422,
				"y": -2.6778986874,
				"z": 1.4229783083,
				"element": "C" 
			},
			{
				"x": -0.266213327,
				"y": -2.1715443649,
				"z": 0.0739143997,
				"element": "C" 
			},
			{
				"x": -0.6136507085,
				"y": -0.160945119,
				"z": -1.4875010774,
				"element": "C" 
			},
			{
				"x": -0.610271671,
				"y": 1.2138843687,
				"z": -1.7719391252,
				"element": "C" 
			},
			{
				"x": -1.0889876755,
				"y": 1.7437663417,
				"z": -2.971473894,
				"element": "C" 
			},
			{
				"x": -1.0699195476,
				"y": 3.2305478633,
				"z": -3.2401705396,
				"element": "C" 
			},
			{
				"x": -1.6028130258,
				"y": 0.8524609673,
				"z": -3.9319000844,
				"element": "C" 
			},
			{
				"x": -2.1010069128,
				"y": 1.2768344782,
				"z": -5.13610937,
				"element": "O" 
			},
			{
				"x": -1.6244599131,
				"y": -0.5170242653,
				"z": -3.6757181277,
				"element": "C" 
			},
			{
				"x": -1.1322422097,
				"y": -1.0149783027,
				"z": -2.4687631691,
				"element": "C" 
			},
			{
				"x": -0.1286507638,
				"y": 3.5690963425,
				"z": 3.853899205,
				"element": "H" 
			},
			{
				"x": 1.2740475578,
				"y": 2.5000196108,
				"z": 3.6575150451,
				"element": "H" 
			},
			{
				"x": 0.0710885029,
				"y": 2.1933560668,
				"z": 4.9251815094,
				"element": "H" 
			},
			{
				"x": 1.1229565237,
				"y": 1.0402528158,
				"z": 1.823498209,
				"element": "H" 
			},
			{
				"x": -2.6441741473,
				"y": -0.5100327448,
				"z": 0.4584392987,
				"element": "H" 
			},
			{
				"x": -3.7830027419,
				"y": 0.7049101143,
				"z": 2.2678863395,
				"element": "H" 
			},
			{
				"x": -3.5132054484,
				"y": 2.1130343473,
				"z": 4.0509661499,
				"element": "H" 
			},
			{
				"x": 1.8194211279,
				"y": -0.5774514039,
				"z": -1.3177403025,
				"element": "H" 
			},
			{
				"x": 1.834979785,
				"y": 0.5281311947,
				"z": 0.0233886676,
				"element": "H" 
			},
			{
				"x": 3.3496437137,
				"y": -1.1034923755,
				"z": 0.807330682,
				"element": "H" 
			},
			{
				"x": 2.6041360253,
				"y": -2.385043129,
				"z": -0.1207070067,
				"element": "H" 
			},
			{
				"x": 1.5174299731,
				"y": -1.2379167457,
				"z": 2.4929548936,
				"element": "H" 
			},
			{
				"x": 2.286838739,
				"y": -2.7986926018,
				"z": 2.2927017355,
				"element": "H" 
			},
			{
				"x": -0.4342308086,
				"y": -2.4586177621,
				"z": 2.2184394203,
				"element": "H" 
			},
			{
				"x": 0.3645774025,
				"y": -3.7703450806,
				"z": 1.3705699311,
				"element": "H" 
			},
			{
				"x": -1.3362897504,
				"y": -2.395417151,
				"z": 0.0101483901,
				"element": "H" 
			},
			{
				"x": 0.21263708,
				"y": -2.7280845391,
				"z": -0.7410801632,
				"element": "H" 
			},
			{
				"x": -0.2319374983,
				"y": 1.9050209851,
				"z": -1.0229543106,
				"element": "H" 
			},
			{
				"x": -2.078162883,
				"y": 3.6334117361,
				"z": -3.4104178636,
				"element": "H" 
			},
			{
				"x": -0.4613122358,
				"y": 3.4849618012,
				"z": -4.1192638148,
				"element": "H" 
			},
			{
				"x": -0.6483756335,
				"y": 3.7736715982,
				"z": -2.3911646121,
				"element": "H" 
			},
			{
				"x": -2.0274186039,
				"y": 2.2374555025,
				"z": -5.1912190795,
				"element": "H" 
			},
			{
				"x": -2.0302220847,
				"y": -1.1817859176,
				"z": -4.431717747,
				"element": "H" 
			},
			{
				"x": -1.1625356916,
				"y": -2.0866297513,
				"z": -2.3076263853,
				"element": "H" 
			}
		],
		 "valence_orbital": [ 
			{
				"type": "occ",
				"energy": -0.28602,
				"method": "rhf"
			},
			{
				"type": "occ",
				"energy": -0.23902,
				"method": "rhf"
			},
			{
				"type": "occ",
				"energy": -0.2365,
				"method": "rhf"
			},
			{
				"type": "occ",
				"energy": -0.21408,
				"method": "rhf"
			},
			{
				"type": "occ",
				"energy": -0.19911,
				"method": "rhf"
			},
			{
				"type": "unocc",
				"energy": 0.00203,
				"method": "rhf"
			},
			{
				"type": "unocc",
				"energy": 0.00859,
				"method": "rhf"
			},
			{
				"type": "unocc",
				"energy": 0.015,
				"method": "rhf"
			},
			{
				"type": "unocc",
				"energy": 0.02595,
				"method": "rhf"
			},
			{
				"type": "unocc",
				"energy": 0.06931,
				"method": "rhf"
			}
		],
		"cosmo_sigma_profile": { 
			"-0.025": 0.0,
			"-0.024": 0.0,
			"-0.023": 0.0,
			"-0.022": 0.0,
			"-0.021": 0.0,
			"-0.02": 0.0,
			"-0.019": 0.0,
			"-0.018": 0.137756845446,
			"-0.017": 0.889047726583,
			"-0.016": 1.31145210585,
			"-0.015": 1.31868863745,
			"-0.014": 2.0559642971,
			"-0.013": 2.07328898648,
			"-0.012": 2.19619556211,
			"-0.011": 1.49499402009,
			"-0.01": 2.03379332981,
			"-0.009": 2.82888848487,
			"-0.008": 2.64168586899,
			"-0.007": 2.22423825222,
			"-0.006": 3.33503885793,
			"-0.005": 9.79375609807,
			"-0.004": 20.934596469,
			"-0.003": 24.8644883715,
			"-0.002": 37.1061080631,
			"-0.001": 41.5781054425,
			"0.0": 43.6553768399,
			"0.001": 36.3564599724,
			"0.002": 21.4583116395,
			"0.003": 15.4749982979,
			"0.004": 15.921932513,
			"0.005": 18.1626493042,
			"0.006": 18.164908006,
			"0.007": 6.43924165798,
			"0.008": 2.57910782112,
			"0.009": 3.76970316811,
			"0.01": 3.07706688309,
			"0.011": 3.6080869867,
			"0.012": 1.57140151883,
			"0.013": 0.0215311001843,
			"0.014": 0.0,
			"0.015": 0.0,
			"0.016": 0.0,
			"0.017": 0.0,
			"0.018": 0.0,
			"0.019": 0.0,
			"0.02": 0.0,
			"0.021": 0.0,
			"0.022": 0.0,
			"0.023": 0.0,
			"0.024": 0.0,
			"0.025": 0.0
		}
	}
}
