{
	 "smiles": "OC(=O)C1=C(Cl)C=C(C=C1)N1C=NN=N1", 
	 "Tm": 453.15, 
	 "num_atms": 20, 
	 "gaussian": { 
		 "optdone": 1, 
		 "sigma_profile": "yes", 
		 "theory": "DFT", 
		 "functional": "B3LYP", 
		 "basiset": "6-31G**", 
		 "properties": { 
			 "R2extent": 4388.0712, 
			 "electric_dipole_moment_norm": 1.03015195481, 
			 "electric_quadrupole_moment_norm": 34.1659492333, 
			 "total_energy": -1137.4496946, 
			 "HOMO_LUMO_gap": 0.19152, 
			 "cosmo_polarized_energy": -20.52, 
			 "cosmo_cavitation_energy": 27.56, 
			 "cosmo_dispersion_energy": -20.67, 
			 "cosmo_repulsion_energy": 1.56, 
			 "cosmo_total_nonelectrostatic_energy": 8.45, 
			 "SMD_solvation_energy": 4.38 
		},
		"coords": [
			{
				"x": 1.886787878,
				"y": 3.3925889185,
				"z": 0.1900989232,
				"element": "O" 
			},
			{
				"x": 1.8873836806,
				"y": 2.214119073,
				"z": -0.4504302921,
				"element": "C" 
			},
			{
				"x": 2.7929934975,
				"y": 1.9346133954,
				"z": -1.2033168115,
				"element": "O" 
			},
			{
				"x": 0.7519326059,
				"y": 1.2295514342,
				"z": -0.2211129899,
				"element": "C" 
			},
			{
				"x": -0.415124221,
				"y": 1.3719372329,
				"z": 0.5510608911,
				"element": "C" 
			},
			{
				"x": -0.7944805457,
				"y": 2.8421855284,
				"z": 1.4581921904,
				"element": "Cl" 
			},
			{
				"x": -1.3698409221,
				"y": 0.3627867104,
				"z": 0.6473385624,
				"element": "C" 
			},
			{
				"x": -1.1633028068,
				"y": -0.8372799655,
				"z": -0.0329307918,
				"element": "C" 
			},
			{
				"x": -0.0114061395,
				"y": -1.0257834232,
				"z": -0.801691692,
				"element": "C" 
			},
			{
				"x": 0.913912728,
				"y": 0.0027363855,
				"z": -0.8887854181,
				"element": "C" 
			},
			{
				"x": -2.1395597824,
				"y": -1.8595521967,
				"z": 0.0683425678,
				"element": "N" 
			},
			{
				"x": -2.3830271841,
				"y": -2.9412065109,
				"z": -0.7136800894,
				"element": "C" 
			},
			{
				"x": -3.4079293434,
				"y": -3.6014496878,
				"z": -0.2267723349,
				"element": "N" 
			},
			{
				"x": -3.801909885,
				"y": -2.9072471373,
				"z": 0.8814000798,
				"element": "N" 
			},
			{
				"x": -3.0638090816,
				"y": -1.8700725795,
				"z": 1.0717330235,
				"element": "N" 
			},
			{
				"x": 1.1083598584,
				"y": 3.4976468457,
				"z": 0.7614389857,
				"element": "H" 
			},
			{
				"x": -2.2624424542,
				"y": 0.4997843139,
				"z": 1.2434621067,
				"element": "H" 
			},
			{
				"x": 0.1739181569,
				"y": -1.9639544924,
				"z": -1.3121994371,
				"element": "H" 
			},
			{
				"x": 1.8147168846,
				"y": -0.1124306575,
				"z": -1.4801878767,
				"element": "H" 
			},
			{
				"x": -1.828272924,
				"y": -3.1944731872,
				"z": -1.6030595972,
				"element": "H" 
			}
		],
		 "valence_orbital": [ 
			{
				"type": "occ",
				"energy": -0.31875,
				"method": "rhf"
			},
			{
				"type": "occ",
				"energy": -0.30611,
				"method": "rhf"
			},
			{
				"type": "occ",
				"energy": -0.29654,
				"method": "rhf"
			},
			{
				"type": "occ",
				"energy": -0.29326,
				"method": "rhf"
			},
			{
				"type": "occ",
				"energy": -0.28526,
				"method": "rhf"
			},
			{
				"type": "unocc",
				"energy": -0.09374,
				"method": "rhf"
			},
			{
				"type": "unocc",
				"energy": -0.05771,
				"method": "rhf"
			},
			{
				"type": "unocc",
				"energy": -0.03222,
				"method": "rhf"
			},
			{
				"type": "unocc",
				"energy": -0.01828,
				"method": "rhf"
			},
			{
				"type": "unocc",
				"energy": -0.00017,
				"method": "rhf"
			}
		],
		"cosmo_sigma_profile": { 
			"-0.025": 0.0,
			"-0.024": 0.0,
			"-0.023": 0.0,
			"-0.022": 0.0,
			"-0.021": 0.0,
			"-0.02": 0.0,
			"-0.019": 0.0,
			"-0.018": 0.0,
			"-0.017": 0.0,
			"-0.016": 0.0,
			"-0.015": 0.0,
			"-0.014": 0.837156593452,
			"-0.013": 3.09837971053,
			"-0.012": 2.92368774509,
			"-0.011": 3.30200006756,
			"-0.01": 4.16493100734,
			"-0.009": 4.58651528782,
			"-0.008": 7.15472552628,
			"-0.007": 8.58783190476,
			"-0.006": 10.361495152,
			"-0.005": 12.8407435094,
			"-0.004": 12.4186362782,
			"-0.003": 13.1186185082,
			"-0.002": 15.922583337,
			"-0.001": 22.0570892632,
			"0.0": 15.5965841356,
			"0.001": 10.9486028717,
			"0.002": 8.85722903219,
			"0.003": 5.58945220032,
			"0.004": 4.94898149981,
			"0.005": 4.88638908193,
			"0.006": 6.47387856289,
			"0.007": 7.66260508614,
			"0.008": 6.52733569262,
			"0.009": 8.11179898654,
			"0.01": 8.81287949547,
			"0.011": 7.49962308841,
			"0.012": 4.98872571843,
			"0.013": 2.86243011178,
			"0.014": 0.8557067065,
			"0.015": 0.0597194929567,
			"0.016": 0.0,
			"0.017": 0.0,
			"0.018": 0.0,
			"0.019": 0.0,
			"0.02": 0.0,
			"0.021": 0.0,
			"0.022": 0.0,
			"0.023": 0.0,
			"0.024": 0.0,
			"0.025": 0.0
		}
	}
}
