{
	 "smiles": "O=C(C(=O)C1=CC=CS1)C1=CC=CS1", 
	 "Tm": 355.65, 
	 "num_atms": 20, 
	 "gaussian": { 
		 "optdone": 1, 
		 "sigma_profile": "yes", 
		 "theory": "DFT", 
		 "functional": "B3LYP", 
		 "basiset": "6-31G**", 
		 "properties": { 
			 "R2extent": 4528.7214, 
			 "electric_dipole_moment_norm": 0.933368849919, 
			 "electric_quadrupole_moment_norm": 23.0950375317, 
			 "total_energy": -1331.46387287, 
			 "HOMO_LUMO_gap": 0.14344, 
			 "cosmo_polarized_energy": -9.38, 
			 "cosmo_cavitation_energy": 28.4, 
			 "cosmo_dispersion_energy": -22.17, 
			 "cosmo_repulsion_energy": 1.61, 
			 "cosmo_total_nonelectrostatic_energy": 7.85, 
			 "SMD_solvation_energy": 5.96 
		},
		"coords": [
			{
				"x": 1.2028965949,
				"y": 1.2730793604,
				"z": -0.2266298092,
				"element": "O" 
			},
			{
				"x": 0.5817657354,
				"y": 0.2132616575,
				"z": -0.2661569279,
				"element": "C" 
			},
			{
				"x": 0.1986619664,
				"y": -0.376912988,
				"z": -1.6437004019,
				"element": "C" 
			},
			{
				"x": -0.4200191139,
				"y": -1.4325682048,
				"z": -1.7264556311,
				"element": "O" 
			},
			{
				"x": 0.5978653416,
				"y": 0.3643116496,
				"z": -2.8453579828,
				"element": "C" 
			},
			{
				"x": 0.3011712354,
				"y": -0.0820279359,
				"z": -4.1233442532,
				"element": "C" 
			},
			{
				"x": 0.7727795269,
				"y": 0.7744876531,
				"z": -5.1430746166,
				"element": "C" 
			},
			{
				"x": 1.4281023362,
				"y": 1.8716796277,
				"z": -4.6323200713,
				"element": "C" 
			},
			{
				"x": 1.4791218653,
				"y": 1.8759139627,
				"z": -2.9093882565,
				"element": "S" 
			},
			{
				"x": 0.2020648337,
				"y": -0.4928720055,
				"z": 0.9528532723,
				"element": "C" 
			},
			{
				"x": -0.4844918257,
				"y": -1.6769257185,
				"z": 1.1655396029,
				"element": "C" 
			},
			{
				"x": -0.6301527766,
				"y": -1.9899317734,
				"z": 2.539397689,
				"element": "C" 
			},
			{
				"x": -0.0555354508,
				"y": -1.0454532676,
				"z": 3.3575670813,
				"element": "C" 
			},
			{
				"x": 0.6729461917,
				"y": 0.2413814586,
				"z": 2.4757761755,
				"element": "S" 
			},
			{
				"x": -0.2425581973,
				"y": -1.0050718733,
				"z": -4.2841034156,
				"element": "H" 
			},
			{
				"x": 0.6368473043,
				"y": 0.592872876,
				"z": -6.202695765,
				"element": "H" 
			},
			{
				"x": 1.8856878321,
				"y": 2.6816523111,
				"z": -5.1859764861,
				"element": "H" 
			},
			{
				"x": -0.8577783513,
				"y": -2.2772497565,
				"z": 0.3482446163,
				"element": "H" 
			},
			{
				"x": -1.1370056493,
				"y": -2.8738604766,
				"z": 2.9085240368,
				"element": "H" 
			},
			{
				"x": -0.0243693989,
				"y": -1.0424665566,
				"z": 4.4392011431,
				"element": "H" 
			}
		],
		 "valence_orbital": [ 
			{
				"type": "occ",
				"energy": -0.26523,
				"method": "rhf"
			},
			{
				"type": "occ",
				"energy": -0.26135,
				"method": "rhf"
			},
			{
				"type": "occ",
				"energy": -0.2524,
				"method": "rhf"
			},
			{
				"type": "occ",
				"energy": -0.24741,
				"method": "rhf"
			},
			{
				"type": "occ",
				"energy": -0.24628,
				"method": "rhf"
			},
			{
				"type": "unocc",
				"energy": -0.10284,
				"method": "rhf"
			},
			{
				"type": "unocc",
				"energy": -0.05241,
				"method": "rhf"
			},
			{
				"type": "unocc",
				"energy": 0.00305,
				"method": "rhf"
			},
			{
				"type": "unocc",
				"energy": 0.02614,
				"method": "rhf"
			},
			{
				"type": "unocc",
				"energy": 0.03746,
				"method": "rhf"
			}
		],
		"cosmo_sigma_profile": { 
			"-0.025": 0.0,
			"-0.024": 0.0,
			"-0.023": 0.0,
			"-0.022": 0.0,
			"-0.021": 0.0,
			"-0.02": 0.0,
			"-0.019": 0.0,
			"-0.018": 0.0,
			"-0.017": 0.0,
			"-0.016": 0.0,
			"-0.015": 0.0,
			"-0.014": 0.0,
			"-0.013": 0.0,
			"-0.012": 0.0,
			"-0.011": 0.0143498945516,
			"-0.01": 1.41590764652,
			"-0.009": 3.99095572022,
			"-0.008": 5.93486722844,
			"-0.007": 9.11571759934,
			"-0.006": 11.5200151142,
			"-0.005": 14.001242782,
			"-0.004": 12.4464833961,
			"-0.003": 11.7929282097,
			"-0.002": 11.0474970881,
			"-0.001": 14.0656068849,
			"0.0": 16.4468036429,
			"0.001": 25.784727931,
			"0.002": 34.4249103535,
			"0.003": 25.6238201757,
			"0.004": 8.62198106297,
			"0.005": 4.05713712199,
			"0.006": 4.98569287595,
			"0.007": 4.23392984244,
			"0.008": 3.81113446043,
			"0.009": 4.05172352907,
			"0.01": 4.80116931359,
			"0.011": 2.06821515969,
			"0.012": 0.00320739682147,
			"0.013": 0.0,
			"0.014": 0.0,
			"0.015": 0.0,
			"0.016": 0.0,
			"0.017": 0.0,
			"0.018": 0.0,
			"0.019": 0.0,
			"0.02": 0.0,
			"0.021": 0.0,
			"0.022": 0.0,
			"0.023": 0.0,
			"0.024": 0.0,
			"0.025": 0.0
		}
	}
}
