{
	 "smiles": "CCOC(=O)C1=NC(Cl)=NC(C)=C1", 
	 "Tm": 330.95, 
	 "num_atms": 22, 
	 "gaussian": { 
		 "optdone": 1, 
		 "sigma_profile": "yes", 
		 "theory": "DFT", 
		 "functional": "B3LYP", 
		 "basiset": "6-31G**", 
		 "properties": { 
			 "R2extent": 4454.9291, 
			 "electric_dipole_moment_norm": 6.01817466928, 
			 "electric_quadrupole_moment_norm": 12.6691217655, 
			 "total_energy": -1030.43095557, 
			 "HOMO_LUMO_gap": 0.19013, 
			 "cosmo_polarized_energy": -13.51, 
			 "cosmo_cavitation_energy": 29.12, 
			 "cosmo_dispersion_energy": -21.26, 
			 "cosmo_repulsion_energy": 1.74, 
			 "cosmo_total_nonelectrostatic_energy": 9.61, 
			 "SMD_solvation_energy": 3.45 
		},
		"coords": [
			{
				"x": 1.4018187166,
				"y": -3.7697541992,
				"z": 0.7625982173,
				"element": "C" 
			},
			{
				"x": 2.1218215772,
				"y": -2.8247398943,
				"z": -0.1790029002,
				"element": "C" 
			},
			{
				"x": 1.2887068622,
				"y": -1.6504929529,
				"z": -0.3420123909,
				"element": "O" 
			},
			{
				"x": 1.7826103954,
				"y": -0.695015549,
				"z": -1.1570960237,
				"element": "C" 
			},
			{
				"x": 2.8414049088,
				"y": -0.7677062997,
				"z": -1.733777655,
				"element": "O" 
			},
			{
				"x": 0.8334478161,
				"y": 0.4791169303,
				"z": -1.2530957087,
				"element": "C" 
			},
			{
				"x": 1.2387111659,
				"y": 1.4849996664,
				"z": -2.044732285,
				"element": "N" 
			},
			{
				"x": 0.4050517295,
				"y": 2.5068317294,
				"z": -2.1238507318,
				"element": "C" 
			},
			{
				"x": 0.9118087871,
				"y": 3.834112982,
				"z": -3.1522475291,
				"element": "Cl" 
			},
			{
				"x": -0.7732609626,
				"y": 2.664429135,
				"z": -1.5249391676,
				"element": "N" 
			},
			{
				"x": -1.1745800392,
				"y": 1.6575680993,
				"z": -0.7350566947,
				"element": "C" 
			},
			{
				"x": -2.5026352202,
				"y": 1.8079157218,
				"z": -0.0448846483,
				"element": "C" 
			},
			{
				"x": -0.3771139881,
				"y": 0.5151865871,
				"z": -0.5682401492,
				"element": "C" 
			},
			{
				"x": 2.0031707424,
				"y": -4.671999229,
				"z": 0.9104072952,
				"element": "H" 
			},
			{
				"x": 1.2389442857,
				"y": -3.3030813623,
				"z": 1.7383048664,
				"element": "H" 
			},
			{
				"x": 0.4320115657,
				"y": -4.0676985359,
				"z": 0.353918741,
				"element": "H" 
			},
			{
				"x": 3.0942450769,
				"y": -2.5100316356,
				"z": 0.2122347495,
				"element": "H" 
			},
			{
				"x": 2.2920959584,
				"y": -3.270185939,
				"z": -1.1640476648,
				"element": "H" 
			},
			{
				"x": -3.1831833678,
				"y": 0.9989232348,
				"z": -0.332273847,
				"element": "H" 
			},
			{
				"x": -2.3824637028,
				"y": 1.7588351921,
				"z": 1.0429389258,
				"element": "H" 
			},
			{
				"x": -2.9528586401,
				"y": 2.764602701,
				"z": -0.3113671282,
				"element": "H" 
			},
			{
				"x": -0.6845536671,
				"y": -0.3069163822,
				"z": 0.0649217291,
				"element": "H" 
			}
		],
		 "valence_orbital": [ 
			{
				"type": "occ",
				"energy": -0.31661,
				"method": "rhf"
			},
			{
				"type": "occ",
				"energy": -0.3132,
				"method": "rhf"
			},
			{
				"type": "occ",
				"energy": -0.28657,
				"method": "rhf"
			},
			{
				"type": "occ",
				"energy": -0.27873,
				"method": "rhf"
			},
			{
				"type": "occ",
				"energy": -0.2703,
				"method": "rhf"
			},
			{
				"type": "unocc",
				"energy": -0.08017,
				"method": "rhf"
			},
			{
				"type": "unocc",
				"energy": -0.04523,
				"method": "rhf"
			},
			{
				"type": "unocc",
				"energy": 0.0336,
				"method": "rhf"
			},
			{
				"type": "unocc",
				"energy": 0.03859,
				"method": "rhf"
			},
			{
				"type": "unocc",
				"energy": 0.08867,
				"method": "rhf"
			}
		],
		"cosmo_sigma_profile": { 
			"-0.025": 0.0,
			"-0.024": 0.0,
			"-0.023": 0.0,
			"-0.022": 0.0,
			"-0.021": 0.0,
			"-0.02": 0.0,
			"-0.019": 0.0,
			"-0.018": 0.0,
			"-0.017": 0.0,
			"-0.016": 0.0,
			"-0.015": 0.0,
			"-0.014": 0.0,
			"-0.013": 0.0,
			"-0.012": 0.0,
			"-0.011": 0.0,
			"-0.01": 0.0,
			"-0.009": 0.196705120438,
			"-0.008": 1.32201262372,
			"-0.007": 2.78748887513,
			"-0.006": 11.4910981743,
			"-0.005": 18.5892732096,
			"-0.004": 27.5132490115,
			"-0.003": 27.4713875728,
			"-0.002": 26.1581162408,
			"-0.001": 19.8116923988,
			"0.0": 16.1795259626,
			"0.001": 9.76775348203,
			"0.002": 9.95213993279,
			"0.003": 12.2613113874,
			"0.004": 12.3771258824,
			"0.005": 5.94659410436,
			"0.006": 4.44858532437,
			"0.007": 4.07950457347,
			"0.008": 3.700937608,
			"0.009": 3.24978483809,
			"0.01": 3.57569669732,
			"0.011": 6.08207395113,
			"0.012": 3.25143607056,
			"0.013": 1.79271667211,
			"0.014": 1.08338357034,
			"0.015": 1.21379547119,
			"0.016": 0.156640004782,
			"0.017": 0.0,
			"0.018": 0.0,
			"0.019": 0.0,
			"0.02": 0.0,
			"0.021": 0.0,
			"0.022": 0.0,
			"0.023": 0.0,
			"0.024": 0.0,
			"0.025": 0.0
		}
	}
}
