{
	 "smiles": "CCOC(=O)C1=NN(C=C1)C1=CC=C(N)C=C1", 
	 "Tm": 371.15, 
	 "num_atms": 30, 
	 "gaussian": { 
		 "optdone": 1, 
		 "sigma_profile": "yes", 
		 "theory": "DFT", 
		 "functional": "B3LYP", 
		 "basiset": "6-31G**", 
		 "properties": { 
			 "R2extent": 6111.5764, 
			 "electric_dipole_moment_norm": 4.95192136044, 
			 "electric_quadrupole_moment_norm": 15.0186759813, 
			 "total_energy": -779.811639016, 
			 "HOMO_LUMO_gap": 0.17234, 
			 "cosmo_polarized_energy": -17.73, 
			 "cosmo_cavitation_energy": 35.23, 
			 "cosmo_dispersion_energy": -25.52, 
			 "cosmo_repulsion_energy": 2.01, 
			 "cosmo_total_nonelectrostatic_energy": 11.72, 
			 "SMD_solvation_energy": 6.73 
		},
		"coords": [
			{
				"x": 3.7984758839,
				"y": -3.7577234151,
				"z": -0.5020893759,
				"element": "C" 
			},
			{
				"x": 3.939108736,
				"y": -2.5157596025,
				"z": -1.3619331817,
				"element": "C" 
			},
			{
				"x": 2.8385063123,
				"y": -1.6397172777,
				"z": -1.0372781987,
				"element": "O" 
			},
			{
				"x": 2.8052820265,
				"y": -0.4753656299,
				"z": -1.7139085075,
				"element": "C" 
			},
			{
				"x": 3.6306918218,
				"y": -0.1480180755,
				"z": -2.5471166168,
				"element": "O" 
			},
			{
				"x": 1.6570264174,
				"y": 0.3772673946,
				"z": -1.3420213907,
				"element": "C" 
			},
			{
				"x": 0.7374472266,
				"y": 0.0178773018,
				"z": -0.4389132766,
				"element": "N" 
			},
			{
				"x": -0.1220794013,
				"y": 1.0526396769,
				"z": -0.3937787051,
				"element": "N" 
			},
			{
				"x": 0.2380737868,
				"y": 2.0630537265,
				"z": -1.249511629,
				"element": "C" 
			},
			{
				"x": 1.3868216281,
				"y": 1.6557787391,
				"z": -1.8862094011,
				"element": "C" 
			},
			{
				"x": -1.2384807615,
				"y": 1.0178681498,
				"z": 0.4885264621,
				"element": "C" 
			},
			{
				"x": -2.3951430477,
				"y": 1.7488644685,
				"z": 0.2045278701,
				"element": "C" 
			},
			{
				"x": -3.4743656185,
				"y": 1.7210325041,
				"z": 1.0821576236,
				"element": "C" 
			},
			{
				"x": -3.4300427927,
				"y": 0.9481251472,
				"z": 2.2549635505,
				"element": "C" 
			},
			{
				"x": -4.4895082356,
				"y": 0.9590988777,
				"z": 3.1606572441,
				"element": "N" 
			},
			{
				"x": -2.2648343266,
				"y": 0.204347448,
				"z": 2.5174304381,
				"element": "C" 
			},
			{
				"x": -1.1809189891,
				"y": 0.2409656887,
				"z": 1.6499414438,
				"element": "C" 
			},
			{
				"x": 2.8504631322,
				"y": -4.2651463184,
				"z": -0.7021179357,
				"element": "H" 
			},
			{
				"x": 3.8329385754,
				"y": -3.5022332716,
				"z": 0.5608503704,
				"element": "H" 
			},
			{
				"x": 4.6155616434,
				"y": -4.4537045217,
				"z": -0.7170270234,
				"element": "H" 
			},
			{
				"x": 3.9043418398,
				"y": -2.7495892106,
				"z": -2.4310824134,
				"element": "H" 
			},
			{
				"x": 4.8806250404,
				"y": -1.9893379705,
				"z": -1.1738646483,
				"element": "H" 
			},
			{
				"x": -0.3259760687,
				"y": 2.9806228112,
				"z": -1.3097262858,
				"element": "H" 
			},
			{
				"x": 1.968305297,
				"y": 2.1842669956,
				"z": -2.6249126439,
				"element": "H" 
			},
			{
				"x": -2.469970584,
				"y": 2.3238955737,
				"z": -0.7126338362,
				"element": "H" 
			},
			{
				"x": -4.3672861447,
				"y": 2.2956079723,
				"z": 0.8502986355,
				"element": "H" 
			},
			{
				"x": -4.5507083527,
				"y": 0.1524324332,
				"z": 3.7661795596,
				"element": "H" 
			},
			{
				"x": -5.3883041676,
				"y": 1.213652522,
				"z": 2.7753388997,
				"element": "H" 
			},
			{
				"x": -2.2073613764,
				"y": -0.3997158046,
				"z": 3.4192542711,
				"element": "H" 
			},
			{
				"x": -0.2852895004,
				"y": -0.3334863328,
				"z": 1.8541987013,
				"element": "H" 
			}
		],
		 "valence_orbital": [ 
			{
				"type": "occ",
				"energy": -0.2643,
				"method": "rhf"
			},
			{
				"type": "occ",
				"energy": -0.26177,
				"method": "rhf"
			},
			{
				"type": "occ",
				"energy": -0.2596,
				"method": "rhf"
			},
			{
				"type": "occ",
				"energy": -0.25138,
				"method": "rhf"
			},
			{
				"type": "occ",
				"energy": -0.20189,
				"method": "rhf"
			},
			{
				"type": "unocc",
				"energy": -0.02955,
				"method": "rhf"
			},
			{
				"type": "unocc",
				"energy": -0.01013,
				"method": "rhf"
			},
			{
				"type": "unocc",
				"energy": 0.00791,
				"method": "rhf"
			},
			{
				"type": "unocc",
				"energy": 0.04482,
				"method": "rhf"
			},
			{
				"type": "unocc",
				"energy": 0.07326,
				"method": "rhf"
			}
		],
		"cosmo_sigma_profile": { 
			"-0.025": 0.0,
			"-0.024": 0.0,
			"-0.023": 0.0,
			"-0.022": 0.0,
			"-0.021": 0.0,
			"-0.02": 0.0,
			"-0.019": 0.0,
			"-0.018": 0.0,
			"-0.017": 0.0,
			"-0.016": 0.0,
			"-0.015": 0.0,
			"-0.014": 0.0,
			"-0.013": 0.76394941436,
			"-0.012": 3.02022573917,
			"-0.011": 2.95101026951,
			"-0.01": 3.8315630653,
			"-0.009": 6.09346538105,
			"-0.008": 5.80981508499,
			"-0.007": 8.30813241156,
			"-0.006": 9.55564893155,
			"-0.005": 16.4943647727,
			"-0.004": 21.4484571017,
			"-0.003": 20.2689174819,
			"-0.002": 20.8883741419,
			"-0.001": 18.4459971267,
			"0.0": 20.0912973024,
			"0.001": 16.9351105576,
			"0.002": 17.7831267307,
			"0.003": 16.8390665073,
			"0.004": 14.9990501475,
			"0.005": 17.2077174233,
			"0.006": 6.77336859879,
			"0.007": 3.75261488317,
			"0.008": 3.31721133108,
			"0.009": 4.3917789057,
			"0.01": 4.31982338801,
			"0.011": 5.06786684066,
			"0.012": 6.28371400486,
			"0.013": 2.83556090563,
			"0.014": 1.83482304444,
			"0.015": 0.186601935639,
			"0.016": 0.0,
			"0.017": 0.0,
			"0.018": 0.0,
			"0.019": 0.0,
			"0.02": 0.0,
			"0.021": 0.0,
			"0.022": 0.0,
			"0.023": 0.0,
			"0.024": 0.0,
			"0.025": 0.0
		}
	}
}
