{
	 "smiles": "[O-][N+](=O)C1=CC(CBr)=CC=C1", 
	 "Tm": 331.75, 
	 "num_atms": 17, 
	 "gaussian": { 
		 "optdone": 1, 
		 "sigma_profile": "yes", 
		 "theory": "DFT", 
		 "functional": "B3LYP", 
		 "basiset": "6-31G**", 
		 "properties": { 
			 "R2extent": 3465.1111, 
			 "electric_dipole_moment_norm": 4.21389326039, 
			 "electric_quadrupole_moment_norm": 15.9646193553, 
			 "total_energy": -3046.86837452, 
			 "HOMO_LUMO_gap": 0.17852, 
			 "cosmo_polarized_energy": -10.47, 
			 "cosmo_cavitation_energy": 24.51, 
			 "cosmo_dispersion_energy": -18.12, 
			 "cosmo_repulsion_energy": 1.47, 
			 "cosmo_total_nonelectrostatic_energy": 7.86, 
			 "SMD_solvation_energy": 5.26 
		},
		"coords": [
			{
				"x": -2.3278873442,
				"y": -1.3764039191,
				"z": 0.0197316874,
				"element": "O" 
			},
			{
				"x": -2.2714403116,
				"y": -0.5838687518,
				"z": -0.9192185917,
				"element": "N" 
			},
			{
				"x": -3.1275656121,
				"y": -0.4690185689,
				"z": -1.7947140487,
				"element": "O" 
			},
			{
				"x": -1.0908508516,
				"y": 0.2951914743,
				"z": -1.0008099484,
				"element": "C" 
			},
			{
				"x": -0.1014009655,
				"y": 0.1773806911,
				"z": -0.02880609,
				"element": "C" 
			},
			{
				"x": 1.0176558358,
				"y": 1.012743371,
				"z": -0.092501686,
				"element": "C" 
			},
			{
				"x": 2.0894987102,
				"y": 0.9187571821,
				"z": 0.9470200792,
				"element": "C" 
			},
			{
				"x": 3.6038798888,
				"y": -0.2451119721,
				"z": 0.3547941634,
				"element": "Br" 
			},
			{
				"x": 1.1132836485,
				"y": 1.9440142326,
				"z": -1.1383131843,
				"element": "C" 
			},
			{
				"x": 0.1112330092,
				"y": 2.0443843648,
				"z": -2.1030564448,
				"element": "C" 
			},
			{
				"x": -1.0080009359,
				"y": 1.2153444597,
				"z": -2.0429561417,
				"element": "C" 
			},
			{
				"x": -0.2170542925,
				"y": -0.5590614999,
				"z": 0.7574992749,
				"element": "H" 
			},
			{
				"x": 2.5533107963,
				"y": 1.8807399639,
				"z": 1.1578369997,
				"element": "H" 
			},
			{
				"x": 1.7359000315,
				"y": 0.4651685661,
				"z": 1.8707857791,
				"element": "H" 
			},
			{
				"x": 1.9843987758,
				"y": 2.5907529549,
				"z": -1.1962676341,
				"element": "H" 
			},
			{
				"x": 0.1999025942,
				"y": 2.771455625,
				"z": -2.9037979216,
				"element": "H" 
			},
			{
				"x": -1.8050629772,
				"y": 1.2680318263,
				"z": -2.7736262926,
				"element": "H" 
			}
		],
		 "valence_orbital": [ 
			{
				"type": "occ",
				"energy": -0.29679,
				"method": "rhf"
			},
			{
				"type": "occ",
				"energy": -0.29317,
				"method": "rhf"
			},
			{
				"type": "occ",
				"energy": -0.28968,
				"method": "rhf"
			},
			{
				"type": "occ",
				"energy": -0.28144,
				"method": "rhf"
			},
			{
				"type": "occ",
				"energy": -0.27416,
				"method": "rhf"
			},
			{
				"type": "unocc",
				"energy": -0.09564,
				"method": "rhf"
			},
			{
				"type": "unocc",
				"energy": -0.05634,
				"method": "rhf"
			},
			{
				"type": "unocc",
				"energy": -0.01575,
				"method": "rhf"
			},
			{
				"type": "unocc",
				"energy": 0.01614,
				"method": "rhf"
			},
			{
				"type": "unocc",
				"energy": 0.06937,
				"method": "rhf"
			}
		],
		"cosmo_sigma_profile": { 
			"-0.025": 0.0,
			"-0.024": 0.0,
			"-0.023": 0.0,
			"-0.022": 0.0,
			"-0.021": 0.0,
			"-0.02": 0.0,
			"-0.019": 0.0,
			"-0.018": 0.0,
			"-0.017": 0.0,
			"-0.016": 0.0,
			"-0.015": 0.0,
			"-0.014": 0.0,
			"-0.013": 0.0,
			"-0.012": 0.0,
			"-0.011": 0.0,
			"-0.01": 0.0359239076072,
			"-0.009": 2.9708757529,
			"-0.008": 9.23765577085,
			"-0.007": 11.7345380871,
			"-0.006": 11.9333654874,
			"-0.005": 11.9750337715,
			"-0.004": 9.96997207669,
			"-0.003": 9.76578523527,
			"-0.002": 11.4431123018,
			"-0.001": 13.6538870815,
			"0.0": 15.7843278373,
			"0.001": 14.5738696755,
			"0.002": 12.8427213538,
			"0.003": 8.44745679437,
			"0.004": 7.08763872731,
			"0.005": 11.2266602725,
			"0.006": 14.254275841,
			"0.007": 9.27832227837,
			"0.008": 6.84374552902,
			"0.009": 4.39899748543,
			"0.01": 2.29206071207,
			"0.011": 0.0654852948355,
			"0.012": 0.0,
			"0.013": 0.0,
			"0.014": 0.0,
			"0.015": 0.0,
			"0.016": 0.0,
			"0.017": 0.0,
			"0.018": 0.0,
			"0.019": 0.0,
			"0.02": 0.0,
			"0.021": 0.0,
			"0.022": 0.0,
			"0.023": 0.0,
			"0.024": 0.0,
			"0.025": 0.0
		}
	}
}
