{
	 "smiles": "COC1=CC=C(C=C1)N1C(SC)=NC2=C(N(C)C(SC)=N2)C1=O", 
	 "Tm": 487.15, 
	 "num_atms": 39, 
	 "gaussian": { 
		 "optdone": 1, 
		 "sigma_profile": "yes", 
		 "theory": "DFT", 
		 "functional": "B3LYP", 
		 "basiset": "6-31G**", 
		 "properties": { 
			 "R2extent": 11568.0237, 
			 "electric_dipole_moment_norm": 1.46490207523, 
			 "electric_quadrupole_moment_norm": 23.3530089537, 
			 "total_energy": -1747.07803655, 
			 "HOMO_LUMO_gap": 0.17952, 
			 "cosmo_polarized_energy": -18.38, 
			 "cosmo_cavitation_energy": 46.13, 
			 "cosmo_dispersion_energy": -33.34, 
			 "cosmo_repulsion_energy": 2.48, 
			 "cosmo_total_nonelectrostatic_energy": 15.26, 
			 "SMD_solvation_energy": 7.07 
		},
		"coords": [
			{
				"x": -0.7539890045,
				"y": 4.354662224,
				"z": 5.9273527535,
				"element": "C" 
			},
			{
				"x": 0.18007295,
				"y": 4.5094250224,
				"z": 4.8693322244,
				"element": "O" 
			},
			{
				"x": 0.250266858,
				"y": 3.5359835976,
				"z": 3.9199034831,
				"element": "C" 
			},
			{
				"x": -0.5320360122,
				"y": 2.3739272666,
				"z": 3.9134057661,
				"element": "C" 
			},
			{
				"x": -0.373127854,
				"y": 1.4426265807,
				"z": 2.8862449829,
				"element": "C" 
			},
			{
				"x": 0.5611370676,
				"y": 1.6578144076,
				"z": 1.8764712381,
				"element": "C" 
			},
			{
				"x": 1.3354639968,
				"y": 2.8236263108,
				"z": 1.8786695939,
				"element": "C" 
			},
			{
				"x": 1.1848485642,
				"y": 3.7552198915,
				"z": 2.894915336,
				"element": "C" 
			},
			{
				"x": 0.7066219689,
				"y": 0.6965440436,
				"z": 0.8090494551,
				"element": "N" 
			},
			{
				"x": 1.6087205827,
				"y": -0.3578694501,
				"z": 0.9165754136,
				"element": "C" 
			},
			{
				"x": 2.5335247706,
				"y": -0.4170106822,
				"z": 2.4407901969,
				"element": "S" 
			},
			{
				"x": 3.5447534467,
				"y": -1.9003706439,
				"z": 2.1151612145,
				"element": "C" 
			},
			{
				"x": 1.8091530413,
				"y": -1.2662285218,
				"z": 0.0080457694,
				"element": "N" 
			},
			{
				"x": 1.05477983,
				"y": -1.1351340526,
				"z": -1.1223467267,
				"element": "C" 
			},
			{
				"x": 0.1296739316,
				"y": -0.1156996628,
				"z": -1.3183057733,
				"element": "C" 
			},
			{
				"x": -0.4184120127,
				"y": -0.3336350901,
				"z": -2.5739735374,
				"element": "N" 
			},
			{
				"x": -1.4388422128,
				"y": 0.4689121874,
				"z": -3.2388673361,
				"element": "C" 
			},
			{
				"x": 0.2064205603,
				"y": -1.457879341,
				"z": -3.0455204673,
				"element": "C" 
			},
			{
				"x": -0.1915480942,
				"y": -2.1052121757,
				"z": -4.6352187789,
				"element": "S" 
			},
			{
				"x": 0.9426171158,
				"y": -3.5367825957,
				"z": -4.6527980687,
				"element": "C" 
			},
			{
				"x": 1.0965733857,
				"y": -1.9706284817,
				"z": -2.2075298917,
				"element": "N" 
			},
			{
				"x": -0.1231836276,
				"y": 0.9000104234,
				"z": -0.3502523484,
				"element": "C" 
			},
			{
				"x": -0.9094715197,
				"y": 1.8411917587,
				"z": -0.4120469185,
				"element": "O" 
			},
			{
				"x": -1.7843497082,
				"y": 4.3060870628,
				"z": 5.5529036223,
				"element": "H" 
			},
			{
				"x": -0.642581213,
				"y": 5.2377732388,
				"z": 6.5580340424,
				"element": "H" 
			},
			{
				"x": -0.5450089057,
				"y": 3.4570613109,
				"z": 6.5232429908,
				"element": "H" 
			},
			{
				"x": -1.262331327,
				"y": 2.1860168846,
				"z": 4.6907569281,
				"element": "H" 
			},
			{
				"x": -0.9796738654,
				"y": 0.5429299955,
				"z": 2.8708032786,
				"element": "H" 
			},
			{
				"x": 2.0524410134,
				"y": 2.991883992,
				"z": 1.081791298,
				"element": "H" 
			},
			{
				"x": 1.7758402425,
				"y": 4.6643887052,
				"z": 2.918083456,
				"element": "H" 
			},
			{
				"x": 4.162690199,
				"y": -2.0288566028,
				"z": 3.0068088268,
				"element": "H" 
			},
			{
				"x": 2.9092907475,
				"y": -2.7725833045,
				"z": 1.9637449258,
				"element": "H" 
			},
			{
				"x": 4.1717433358,
				"y": -1.7521084431,
				"z": 1.2362707713,
				"element": "H" 
			},
			{
				"x": -1.052604264,
				"y": 0.8723087893,
				"z": -4.1800224131,
				"element": "H" 
			},
			{
				"x": -1.7024329879,
				"y": 1.2864299535,
				"z": -2.5682523479,
				"element": "H" 
			},
			{
				"x": -2.3248724115,
				"y": -0.1385456793,
				"z": -3.44781452,
				"element": "H" 
			},
			{
				"x": 0.7063803019,
				"y": -4.2143588093,
				"z": -3.8328108353,
				"element": "H" 
			},
			{
				"x": 1.9751878489,
				"y": -3.2002028422,
				"z": -4.5643420487,
				"element": "H" 
			},
			{
				"x": 0.782363261,
				"y": -4.0293172681,
				"z": -5.6136555558,
				"element": "H" 
			}
		],
		 "valence_orbital": [ 
			{
				"type": "occ",
				"energy": -0.25631,
				"method": "rhf"
			},
			{
				"type": "occ",
				"energy": -0.25255,
				"method": "rhf"
			},
			{
				"type": "occ",
				"energy": -0.23847,
				"method": "rhf"
			},
			{
				"type": "occ",
				"energy": -0.22559,
				"method": "rhf"
			},
			{
				"type": "occ",
				"energy": -0.20007,
				"method": "rhf"
			},
			{
				"type": "unocc",
				"energy": -0.02055,
				"method": "rhf"
			},
			{
				"type": "unocc",
				"energy": -0.0094,
				"method": "rhf"
			},
			{
				"type": "unocc",
				"energy": -0.00421,
				"method": "rhf"
			},
			{
				"type": "unocc",
				"energy": 0.00242,
				"method": "rhf"
			},
			{
				"type": "unocc",
				"energy": 0.02053,
				"method": "rhf"
			}
		],
		"cosmo_sigma_profile": { 
			"-0.025": 0.0,
			"-0.024": 0.0,
			"-0.023": 0.0,
			"-0.022": 0.0,
			"-0.021": 0.0,
			"-0.02": 0.0,
			"-0.019": 0.0,
			"-0.018": 0.0,
			"-0.017": 0.0,
			"-0.016": 0.0,
			"-0.015": 0.0,
			"-0.014": 0.0,
			"-0.013": 0.0,
			"-0.012": 0.0,
			"-0.011": 0.0,
			"-0.01": 0.0,
			"-0.009": 0.0,
			"-0.008": 1.38795267793,
			"-0.007": 12.2700883846,
			"-0.006": 26.0402648785,
			"-0.005": 33.2451481813,
			"-0.004": 34.8620532927,
			"-0.003": 36.7735177742,
			"-0.002": 32.3933463619,
			"-0.001": 25.4785501321,
			"0.0": 22.2839177368,
			"0.001": 17.9834251245,
			"0.002": 19.6145088708,
			"0.003": 20.721467633,
			"0.004": 20.5966539022,
			"0.005": 15.6603652205,
			"0.006": 11.033302444,
			"0.007": 8.11399824818,
			"0.008": 5.61258585587,
			"0.009": 5.02368857037,
			"0.01": 5.63442002862,
			"0.011": 3.86822889078,
			"0.012": 5.42893259989,
			"0.013": 5.74564367473,
			"0.014": 1.33670667721,
			"0.015": 0.520116432112,
			"0.016": 0.0626186483796,
			"0.017": 0.0,
			"0.018": 0.0,
			"0.019": 0.0,
			"0.02": 0.0,
			"0.021": 0.0,
			"0.022": 0.0,
			"0.023": 0.0,
			"0.024": 0.0,
			"0.025": 0.0
		}
	}
}
