{
	 "smiles": "BrC1=CC(Br)=C(OC2=CC=CC=C2)C(Br)=C1", 
	 "Tm": 358.65, 
	 "num_atms": 23, 
	 "gaussian": { 
		 "optdone": 1, 
		 "sigma_profile": "yes", 
		 "theory": "DFT", 
		 "functional": "B3LYP", 
		 "basiset": "6-31G**", 
		 "properties": { 
			 "R2extent": 10963.0614, 
			 "electric_dipole_moment_norm": 0.951436235383, 
			 "electric_quadrupole_moment_norm": 3.9692926914, 
			 "total_energy": -8250.91213016, 
			 "HOMO_LUMO_gap": 0.19034, 
			 "cosmo_polarized_energy": -6.48, 
			 "cosmo_cavitation_energy": 34.83, 
			 "cosmo_dispersion_energy": -25.35, 
			 "cosmo_repulsion_energy": 2.0, 
			 "cosmo_total_nonelectrostatic_energy": 11.48, 
			 "SMD_solvation_energy": 2.76 
		},
		"coords": [
			{
				"x": 5.3313903482,
				"y": 0.4896188132,
				"z": -3.0607731169,
				"element": "Br" 
			},
			{
				"x": 3.8807595043,
				"y": 0.6907831759,
				"z": -1.8410232701,
				"element": "C" 
			},
			{
				"x": 2.574506903,
				"y": 0.5962799031,
				"z": -2.3140682452,
				"element": "C" 
			},
			{
				"x": 1.5210322218,
				"y": 0.7449373198,
				"z": -1.4138383691,
				"element": "C" 
			},
			{
				"x": -0.262088944,
				"y": 0.6333033006,
				"z": -2.057952933,
				"element": "Br" 
			},
			{
				"x": 1.7516648407,
				"y": 0.9850334485,
				"z": -0.0505551107,
				"element": "C" 
			},
			{
				"x": 0.7140378575,
				"y": 1.2220705814,
				"z": 0.804801968,
				"element": "O" 
			},
			{
				"x": 0.1282200238,
				"y": 0.1736605524,
				"z": 1.5063161238,
				"element": "C" 
			},
			{
				"x": 0.5390731686,
				"y": -1.15399633,
				"z": 1.3976672917,
				"element": "C" 
			},
			{
				"x": -0.121325206,
				"y": -2.128844098,
				"z": 2.1501253922,
				"element": "C" 
			},
			{
				"x": -1.1742891013,
				"y": -1.7852098474,
				"z": 2.9970742507,
				"element": "C" 
			},
			{
				"x": -1.5712689612,
				"y": -0.4481753894,
				"z": 3.0919475406,
				"element": "C" 
			},
			{
				"x": -0.923951468,
				"y": 0.5359638958,
				"z": 2.3491008115,
				"element": "C" 
			},
			{
				"x": 3.0817023959,
				"y": 1.0803347641,
				"z": 0.3868267853,
				"element": "C" 
			},
			{
				"x": 3.4437607532,
				"y": 1.4295856317,
				"z": 2.2181818936,
				"element": "Br" 
			},
			{
				"x": 4.1496277771,
				"y": 0.9347970846,
				"z": -0.4967138259,
				"element": "C" 
			},
			{
				"x": 2.3743948864,
				"y": 0.4133301747,
				"z": -3.3616106873,
				"element": "H" 
			},
			{
				"x": 1.3571034362,
				"y": -1.4274251633,
				"z": 0.7407502024,
				"element": "H" 
			},
			{
				"x": 0.1965155558,
				"y": -3.1641881571,
				"z": 2.0676159696,
				"element": "H" 
			},
			{
				"x": -1.68134119,
				"y": -2.5494018721,
				"z": 3.5777201916,
				"element": "H" 
			},
			{
				"x": -2.3900741083,
				"y": -0.1674045275,
				"z": 3.747995051,
				"element": "H" 
			},
			{
				"x": -1.2152526608,
				"y": 1.5792468725,
				"z": 2.4071082683,
				"element": "H" 
			},
			{
				"x": 5.167701967,
				"y": 1.0135998664,
				"z": -0.1386961822,
				"element": "H" 
			}
		],
		 "valence_orbital": [ 
			{
				"type": "occ",
				"energy": -0.29425,
				"method": "rhf"
			},
			{
				"type": "occ",
				"energy": -0.25989,
				"method": "rhf"
			},
			{
				"type": "occ",
				"energy": -0.25557,
				"method": "rhf"
			},
			{
				"type": "occ",
				"energy": -0.25334,
				"method": "rhf"
			},
			{
				"type": "occ",
				"energy": -0.23245,
				"method": "rhf"
			},
			{
				"type": "unocc",
				"energy": -0.04211,
				"method": "rhf"
			},
			{
				"type": "unocc",
				"energy": -0.04033,
				"method": "rhf"
			},
			{
				"type": "unocc",
				"energy": -0.03734,
				"method": "rhf"
			},
			{
				"type": "unocc",
				"energy": -0.00616,
				"method": "rhf"
			},
			{
				"type": "unocc",
				"energy": 0.00556,
				"method": "rhf"
			}
		],
		"cosmo_sigma_profile": { 
			"-0.025": 0.0,
			"-0.024": 0.0,
			"-0.023": 0.0,
			"-0.022": 0.0,
			"-0.021": 0.0,
			"-0.02": 0.0,
			"-0.019": 0.0,
			"-0.018": 0.0,
			"-0.017": 0.0,
			"-0.016": 0.0,
			"-0.015": 0.0,
			"-0.014": 0.0,
			"-0.013": 0.0,
			"-0.012": 0.0,
			"-0.011": 0.0,
			"-0.01": 0.0,
			"-0.009": 1.40987300085,
			"-0.008": 2.67255049481,
			"-0.007": 4.11653239053,
			"-0.006": 12.3907479531,
			"-0.005": 18.4861333147,
			"-0.004": 20.1180716516,
			"-0.003": 17.2496075927,
			"-0.002": 17.871694077,
			"-0.001": 26.8231308317,
			"0.0": 33.2441348313,
			"0.001": 22.4771047572,
			"0.002": 23.5520017346,
			"0.003": 37.2605414657,
			"0.004": 32.3608999839,
			"0.005": 13.4843428095,
			"0.006": 4.61965232033,
			"0.007": 1.91330845575,
			"0.008": 0.47943122874,
			"0.009": 0.0,
			"0.01": 0.0,
			"0.011": 0.0,
			"0.012": 0.0,
			"0.013": 0.0,
			"0.014": 0.0,
			"0.015": 0.0,
			"0.016": 0.0,
			"0.017": 0.0,
			"0.018": 0.0,
			"0.019": 0.0,
			"0.02": 0.0,
			"0.021": 0.0,
			"0.022": 0.0,
			"0.023": 0.0,
			"0.024": 0.0,
			"0.025": 0.0
		}
	}
}
