{
	 "smiles": "NC(=O)NC1=C(C=CC=C1)C1=CC=CC=C1", 
	 "Tm": 429.15, 
	 "num_atms": 28, 
	 "gaussian": { 
		 "optdone": 1, 
		 "sigma_profile": "yes", 
		 "theory": "DFT", 
		 "functional": "B3LYP", 
		 "basiset": "6-31G**", 
		 "properties": { 
			 "R2extent": 3968.4676, 
			 "electric_dipole_moment_norm": 4.05078229482, 
			 "electric_quadrupole_moment_norm": 13.2998057599, 
			 "total_energy": -687.377598675, 
			 "HOMO_LUMO_gap": 0.18582, 
			 "cosmo_polarized_energy": -15.22, 
			 "cosmo_cavitation_energy": 31.97, 
			 "cosmo_dispersion_energy": -22.87, 
			 "cosmo_repulsion_energy": 1.79, 
			 "cosmo_total_nonelectrostatic_energy": 10.9, 
			 "SMD_solvation_energy": 6.01 
		},
		"coords": [
			{
				"x": -3.0212147746,
				"y": -2.9613755796,
				"z": 0.3674569576,
				"element": "N" 
			},
			{
				"x": -2.7108155049,
				"y": -1.8959028675,
				"z": 1.2098473793,
				"element": "C" 
			},
			{
				"x": -3.255975185,
				"y": -1.7467050562,
				"z": 2.2942027866,
				"element": "O" 
			},
			{
				"x": -1.7074827135,
				"y": -1.0902705952,
				"z": 0.697344357,
				"element": "N" 
			},
			{
				"x": -1.1475526647,
				"y": 0.0745818645,
				"z": 1.2581025838,
				"element": "C" 
			},
			{
				"x": -0.0272747183,
				"y": 0.6545695972,
				"z": 0.6098777592,
				"element": "C" 
			},
			{
				"x": 0.4900725816,
				"y": 1.8567769606,
				"z": 1.1112741563,
				"element": "C" 
			},
			{
				"x": -0.0529597845,
				"y": 2.4743878979,
				"z": 2.2355699864,
				"element": "C" 
			},
			{
				"x": -1.1415595892,
				"y": 1.8808027865,
				"z": 2.8738020136,
				"element": "C" 
			},
			{
				"x": -1.6923870062,
				"y": 0.6947708645,
				"z": 2.393543534,
				"element": "C" 
			},
			{
				"x": 0.6076552242,
				"y": 0.0383039121,
				"z": -0.5920887669,
				"element": "C" 
			},
			{
				"x": 1.1385205424,
				"y": -1.2647580993,
				"z": -0.5570075179,
				"element": "C" 
			},
			{
				"x": 1.7560982102,
				"y": -1.8171786086,
				"z": -1.6806564013,
				"element": "C" 
			},
			{
				"x": 1.8613879072,
				"y": -1.0773687622,
				"z": -2.8596900912,
				"element": "C" 
			},
			{
				"x": 1.3457738185,
				"y": 0.2195387948,
				"z": -2.9070903571,
				"element": "C" 
			},
			{
				"x": 0.7233649516,
				"y": 0.7697837514,
				"z": -1.786589192,
				"element": "C" 
			},
			{
				"x": -3.8605919499,
				"y": -3.4419336358,
				"z": 0.6587328613,
				"element": "H" 
			},
			{
				"x": -2.9514257481,
				"y": -2.8206349712,
				"z": -0.6311817191,
				"element": "H" 
			},
			{
				"x": -1.2439568652,
				"y": -1.4216990761,
				"z": -0.1368878866,
				"element": "H" 
			},
			{
				"x": 1.3504423316,
				"y": 2.2938930351,
				"z": 0.612425542,
				"element": "H" 
			},
			{
				"x": 0.3738773782,
				"y": 3.3994602577,
				"z": 2.6106848253,
				"element": "H" 
			},
			{
				"x": -1.5757337239,
				"y": 2.3424822101,
				"z": 3.7561798871,
				"element": "H" 
			},
			{
				"x": -2.5378622582,
				"y": 0.2330360022,
				"z": 2.8832897836,
				"element": "H" 
			},
			{
				"x": 1.0890971328,
				"y": -1.8355386198,
				"z": 0.3664259455,
				"element": "H" 
			},
			{
				"x": 2.1665700157,
				"y": -2.8217120919,
				"z": -1.6286581957,
				"element": "H" 
			},
			{
				"x": 2.3442452589,
				"y": -1.5062524538,
				"z": -3.7329314992,
				"element": "H" 
			},
			{
				"x": 1.4233423921,
				"y": 0.8029326268,
				"z": -3.8203172133,
				"element": "H" 
			},
			{
				"x": 0.3128447412,
				"y": 1.7744098555,
				"z": -1.8307615185,
				"element": "H" 
			}
		],
		 "valence_orbital": [ 
			{
				"type": "occ",
				"energy": -0.26802,
				"method": "rhf"
			},
			{
				"type": "occ",
				"energy": -0.25989,
				"method": "rhf"
			},
			{
				"type": "occ",
				"energy": -0.25547,
				"method": "rhf"
			},
			{
				"type": "occ",
				"energy": -0.23602,
				"method": "rhf"
			},
			{
				"type": "occ",
				"energy": -0.20948,
				"method": "rhf"
			},
			{
				"type": "unocc",
				"energy": -0.02366,
				"method": "rhf"
			},
			{
				"type": "unocc",
				"energy": -0.01316,
				"method": "rhf"
			},
			{
				"type": "unocc",
				"energy": 0.00399,
				"method": "rhf"
			},
			{
				"type": "unocc",
				"energy": 0.01627,
				"method": "rhf"
			},
			{
				"type": "unocc",
				"energy": 0.05823,
				"method": "rhf"
			}
		],
		"cosmo_sigma_profile": { 
			"-0.025": 0.0,
			"-0.024": 0.0,
			"-0.023": 0.0,
			"-0.022": 0.0,
			"-0.021": 0.0,
			"-0.02": 0.0,
			"-0.019": 0.0,
			"-0.018": 0.0,
			"-0.017": 0.0,
			"-0.016": 0.279055501835,
			"-0.015": 1.41109438871,
			"-0.014": 1.72746398667,
			"-0.013": 2.13551081397,
			"-0.012": 3.00024203587,
			"-0.011": 2.80939987375,
			"-0.01": 2.9987818049,
			"-0.009": 2.0807014556,
			"-0.008": 1.98707647981,
			"-0.007": 1.5696756882,
			"-0.006": 9.24222087525,
			"-0.005": 19.5266829712,
			"-0.004": 19.587579641,
			"-0.003": 20.6755778176,
			"-0.002": 16.7385396014,
			"-0.001": 14.8515672439,
			"0.0": 13.8398635135,
			"0.001": 16.51536579,
			"0.002": 17.7064791611,
			"0.003": 18.0607828544,
			"0.004": 18.2238880585,
			"0.005": 20.0776532486,
			"0.006": 10.2933738676,
			"0.007": 2.57060125083,
			"0.008": 2.70714285791,
			"0.009": 1.73334431104,
			"0.01": 2.01203482697,
			"0.011": 2.28672436354,
			"0.012": 2.3522267557,
			"0.013": 3.56139530031,
			"0.014": 2.79084666585,
			"0.015": 0.181541158391,
			"0.016": 0.0,
			"0.017": 0.0,
			"0.018": 0.0,
			"0.019": 0.0,
			"0.02": 0.0,
			"0.021": 0.0,
			"0.022": 0.0,
			"0.023": 0.0,
			"0.024": 0.0,
			"0.025": 0.0
		}
	}
}
