{
	 "smiles": "C1C2=C3C=CC=C1C=CC=C2C1=C2C(C=CC=C32)=CC=C1", 
	 "Tm": 444.15, 
	 "num_atms": 35, 
	 "gaussian": { 
		 "optdone": 1, 
		 "sigma_profile": "yes", 
		 "theory": "DFT", 
		 "functional": "B3LYP", 
		 "basiset": "6-31G**", 
		 "properties": { 
			 "R2extent": 5278.6791, 
			 "electric_dipole_moment_norm": 0.425350173387, 
			 "electric_quadrupole_moment_norm": 10.1199572035, 
			 "total_energy": -808.643271306, 
			 "HOMO_LUMO_gap": 0.10873, 
			 "cosmo_polarized_energy": -7.09, 
			 "cosmo_cavitation_energy": 35.58, 
			 "cosmo_dispersion_energy": -26.82, 
			 "cosmo_repulsion_energy": 1.92, 
			 "cosmo_total_nonelectrostatic_energy": 10.68, 
			 "SMD_solvation_energy": 4.73 
		},
		"coords": [
			{
				"x": 1.5504105034,
				"y": -1.6254761986,
				"z": 1.9310850005,
				"element": "C" 
			},
			{
				"x": 0.821862582,
				"y": -0.7689494038,
				"z": 0.9625806038,
				"element": "C" 
			},
			{
				"x": 1.2221375056,
				"y": -0.7987905107,
				"z": -0.3933927111,
				"element": "C" 
			},
			{
				"x": 1.8489403061,
				"y": -1.9457311272,
				"z": -0.9128261096,
				"element": "C" 
			},
			{
				"x": 1.8003522416,
				"y": -3.2715418567,
				"z": -0.4046931315,
				"element": "C" 
			},
			{
				"x": 1.1463202789,
				"y": -3.740294466,
				"z": 0.736044668,
				"element": "C" 
			},
			{
				"x": 0.7522609889,
				"y": -2.8784932315,
				"z": 1.7799119603,
				"element": "C" 
			},
			{
				"x": -0.4047387419,
				"y": -2.9748466422,
				"z": 2.5792920114,
				"element": "C" 
			},
			{
				"x": -1.0898630606,
				"y": -1.8451319177,
				"z": 3.0306250425,
				"element": "C" 
			},
			{
				"x": -1.0398229171,
				"y": -0.520071746,
				"z": 2.5211141657,
				"element": "C" 
			},
			{
				"x": -0.3035866875,
				"y": -0.0456990374,
				"z": 1.4204919545,
				"element": "C" 
			},
			{
				"x": -0.7068502716,
				"y": 1.1246500572,
				"z": 0.6141023209,
				"element": "C" 
			},
			{
				"x": -0.1067399848,
				"y": 1.3064312644,
				"z": -0.6803083176,
				"element": "C" 
			},
			{
				"x": -0.4741644954,
				"y": 2.4488395598,
				"z": -1.4637565919,
				"element": "C" 
			},
			{
				"x": 0.1000010466,
				"y": 2.6317583429,
				"z": -2.7491138172,
				"element": "C" 
			},
			{
				"x": 1.0060113526,
				"y": 1.7218501593,
				"z": -3.2438697303,
				"element": "C" 
			},
			{
				"x": 1.3704289923,
				"y": 0.5956671628,
				"z": -2.4815962335,
				"element": "C" 
			},
			{
				"x": 0.8355823171,
				"y": 0.3631962791,
				"z": -1.2197056911,
				"element": "C" 
			},
			{
				"x": -1.4142462494,
				"y": 3.3794790204,
				"z": -0.9485286598,
				"element": "C" 
			},
			{
				"x": -1.9709213951,
				"y": 3.1917490705,
				"z": 0.2958225914,
				"element": "C" 
			},
			{
				"x": -1.617250126,
				"y": 2.0707511865,
				"z": 1.0707195538,
				"element": "C" 
			},
			{
				"x": 1.4920838259,
				"y": -1.2275884969,
				"z": 2.9454480137,
				"element": "H" 
			},
			{
				"x": 2.5916566802,
				"y": -1.7702178495,
				"z": 1.6386769699,
				"element": "H" 
			},
			{
				"x": 2.2241826269,
				"y": -1.8830474611,
				"z": -1.9303171909,
				"element": "H" 
			},
			{
				"x": 2.1479741259,
				"y": -4.0303606131,
				"z": -1.1033548334,
				"element": "H" 
			},
			{
				"x": 0.8274958885,
				"y": -4.7809984027,
				"z": 0.7510698756,
				"element": "H" 
			},
			{
				"x": -0.8573000518,
				"y": -3.9496680682,
				"z": 2.7520885313,
				"element": "H" 
			},
			{
				"x": -1.9112708501,
				"y": -2.0272983783,
				"z": 3.7211606045,
				"element": "H" 
			},
			{
				"x": -1.8342614066,
				"y": 0.1201419955,
				"z": 2.8939942918,
				"element": "H" 
			},
			{
				"x": -0.1900614156,
				"y": 3.5009853489,
				"z": -3.3331109902,
				"element": "H" 
			},
			{
				"x": 1.4491226321,
				"y": 1.8670000417,
				"z": -4.2248647192,
				"element": "H" 
			},
			{
				"x": 2.100764781,
				"y": -0.0921728705,
				"z": -2.8939831565,
				"element": "H" 
			},
			{
				"x": -1.6856022155,
				"y": 4.2395076035,
				"z": -1.5547131274,
				"element": "H" 
			},
			{
				"x": -2.6850996368,
				"y": 3.908426312,
				"z": 0.6909126485,
				"element": "H" 
			},
			{
				"x": -2.0612091699,
				"y": 1.9626448737,
				"z": 2.0544942032,
				"element": "H" 
			}
		],
		 "valence_orbital": [ 
			{
				"type": "occ",
				"energy": -0.24421,
				"method": "rhf"
			},
			{
				"type": "occ",
				"energy": -0.24366,
				"method": "rhf"
			},
			{
				"type": "occ",
				"energy": -0.23738,
				"method": "rhf"
			},
			{
				"type": "occ",
				"energy": -0.22181,
				"method": "rhf"
			},
			{
				"type": "occ",
				"energy": -0.18037,
				"method": "rhf"
			},
			{
				"type": "unocc",
				"energy": -0.07164,
				"method": "rhf"
			},
			{
				"type": "unocc",
				"energy": -0.03423,
				"method": "rhf"
			},
			{
				"type": "unocc",
				"energy": -0.0048,
				"method": "rhf"
			},
			{
				"type": "unocc",
				"energy": -0.0028,
				"method": "rhf"
			},
			{
				"type": "unocc",
				"energy": 0.00544,
				"method": "rhf"
			}
		],
		"cosmo_sigma_profile": { 
			"-0.025": 0.0,
			"-0.024": 0.0,
			"-0.023": 0.0,
			"-0.022": 0.0,
			"-0.021": 0.0,
			"-0.02": 0.0,
			"-0.019": 0.0,
			"-0.018": 0.0,
			"-0.017": 0.0,
			"-0.016": 0.0,
			"-0.015": 0.0,
			"-0.014": 0.0,
			"-0.013": 0.0,
			"-0.012": 0.0,
			"-0.011": 0.0,
			"-0.01": 0.0,
			"-0.009": 0.0,
			"-0.008": 0.815416771653,
			"-0.007": 3.85088679646,
			"-0.006": 14.7999391288,
			"-0.005": 23.7092163697,
			"-0.004": 26.2499783729,
			"-0.003": 21.5683999467,
			"-0.002": 17.5594964133,
			"-0.001": 17.8339599388,
			"0.0": 17.4060113168,
			"0.001": 18.8305160628,
			"0.002": 25.4913820018,
			"0.003": 32.6877592632,
			"0.004": 39.5404398483,
			"0.005": 21.2621566735,
			"0.006": 4.50146344717,
			"0.007": 0.165273902183,
			"0.008": 0.0,
			"0.009": 0.0,
			"0.01": 0.0,
			"0.011": 0.0,
			"0.012": 0.0,
			"0.013": 0.0,
			"0.014": 0.0,
			"0.015": 0.0,
			"0.016": 0.0,
			"0.017": 0.0,
			"0.018": 0.0,
			"0.019": 0.0,
			"0.02": 0.0,
			"0.021": 0.0,
			"0.022": 0.0,
			"0.023": 0.0,
			"0.024": 0.0,
			"0.025": 0.0
		}
	}
}
