{
	 "smiles": "OC(=O)C(OC1=CC(F)=CC=C1)C1=CC=CC=C1", 
	 "Tm": 382.15, 
	 "num_atms": 29, 
	 "gaussian": { 
		 "optdone": 1, 
		 "sigma_profile": "yes", 
		 "theory": "DFT", 
		 "functional": "B3LYP", 
		 "basiset": "6-31G**", 
		 "properties": { 
			 "R2extent": 5600.8544, 
			 "electric_dipole_moment_norm": 5.31675304862, 
			 "electric_quadrupole_moment_norm": 21.3747423935, 
			 "total_energy": -865.616082038, 
			 "HOMO_LUMO_gap": 0.19443, 
			 "cosmo_polarized_energy": -16.47, 
			 "cosmo_cavitation_energy": 34.35, 
			 "cosmo_dispersion_energy": -24.07, 
			 "cosmo_repulsion_energy": 1.84, 
			 "cosmo_total_nonelectrostatic_energy": 12.13, 
			 "SMD_solvation_energy": 7.46 
		},
		"coords": [
			{
				"x": -0.7459884264,
				"y": -3.4122260661,
				"z": 1.5824534339,
				"element": "O" 
			},
			{
				"x": -0.6547774298,
				"y": -2.5031851569,
				"z": 0.5848678001,
				"element": "C" 
			},
			{
				"x": -1.0220849815,
				"y": -2.7547010707,
				"z": -0.5319448689,
				"element": "O" 
			},
			{
				"x": -0.1087063229,
				"y": -1.1144770605,
				"z": 1.0146985124,
				"element": "C" 
			},
			{
				"x": 0.2597704387,
				"y": -0.3573463094,
				"z": -0.1206691403,
				"element": "O" 
			},
			{
				"x": -0.6699083664,
				"y": 0.4005931647,
				"z": -0.7861216734,
				"element": "C" 
			},
			{
				"x": -2.0522288979,
				"y": 0.287346488,
				"z": -0.6154803229,
				"element": "C" 
			},
			{
				"x": -2.8740997847,
				"y": 1.1436269387,
				"z": -1.3431313536,
				"element": "C" 
			},
			{
				"x": -4.2087633998,
				"y": 1.0297807713,
				"z": -1.1746207922,
				"element": "F" 
			},
			{
				"x": -2.3849237613,
				"y": 2.0913972629,
				"z": -2.2304824619,
				"element": "C" 
			},
			{
				"x": -0.9988498622,
				"y": 2.1749351912,
				"z": -2.3918317944,
				"element": "C" 
			},
			{
				"x": -0.1412973352,
				"y": 1.3445200037,
				"z": -1.6773825432,
				"element": "C" 
			},
			{
				"x": 1.0984532892,
				"y": -1.2368729959,
				"z": 1.9275382873,
				"element": "C" 
			},
			{
				"x": 2.3573063349,
				"y": -1.5535229867,
				"z": 1.3971674206,
				"element": "C" 
			},
			{
				"x": 3.4532463208,
				"y": -1.7078345641,
				"z": 2.2431837049,
				"element": "C" 
			},
			{
				"x": 3.3049420205,
				"y": -1.5592277661,
				"z": 3.6259021756,
				"element": "C" 
			},
			{
				"x": 2.0560318345,
				"y": -1.2449821147,
				"z": 4.1597590528,
				"element": "C" 
			},
			{
				"x": 0.9565859189,
				"y": -1.0788172736,
				"z": 3.3120405465,
				"element": "C" 
			},
			{
				"x": -0.2832565941,
				"y": -3.0863279984,
				"z": 2.3716505863,
				"element": "H" 
			},
			{
				"x": -0.9198647361,
				"y": -0.6150121991,
				"z": 1.56518333,
				"element": "H" 
			},
			{
				"x": -2.5105851997,
				"y": -0.4634657372,
				"z": 0.0137597305,
				"element": "H" 
			},
			{
				"x": -3.0710876298,
				"y": 2.730081745,
				"z": -2.7742334368,
				"element": "H" 
			},
			{
				"x": -0.5836340142,
				"y": 2.9049084043,
				"z": -3.0800650976,
				"element": "H" 
			},
			{
				"x": 0.9352766153,
				"y": 1.409866544,
				"z": -1.7879047239,
				"element": "H" 
			},
			{
				"x": 2.4696656384,
				"y": -1.6631927229,
				"z": 0.3233597293,
				"element": "H" 
			},
			{
				"x": 4.4260635892,
				"y": -1.9480577319,
				"z": 1.8244703343,
				"element": "H" 
			},
			{
				"x": 4.1617152093,
				"y": -1.6832428898,
				"z": 4.2814436457,
				"element": "H" 
			},
			{
				"x": 1.9354422388,
				"y": -1.1148120815,
				"z": 5.231066405,
				"element": "H" 
			},
			{
				"x": -0.0097427064,
				"y": -0.8037517883,
				"z": 3.729523514,
				"element": "H" 
			}
		],
		 "valence_orbital": [ 
			{
				"type": "occ",
				"energy": -0.29222,
				"method": "rhf"
			},
			{
				"type": "occ",
				"energy": -0.27426,
				"method": "rhf"
			},
			{
				"type": "occ",
				"energy": -0.26262,
				"method": "rhf"
			},
			{
				"type": "occ",
				"energy": -0.24815,
				"method": "rhf"
			},
			{
				"type": "occ",
				"energy": -0.22559,
				"method": "rhf"
			},
			{
				"type": "unocc",
				"energy": -0.03116,
				"method": "rhf"
			},
			{
				"type": "unocc",
				"energy": -0.03049,
				"method": "rhf"
			},
			{
				"type": "unocc",
				"energy": -0.0027,
				"method": "rhf"
			},
			{
				"type": "unocc",
				"energy": 0.00261,
				"method": "rhf"
			},
			{
				"type": "unocc",
				"energy": 0.01111,
				"method": "rhf"
			}
		],
		"cosmo_sigma_profile": { 
			"-0.025": 0.0,
			"-0.024": 0.0,
			"-0.023": 0.0,
			"-0.022": 0.0,
			"-0.021": 0.0,
			"-0.02": 0.0,
			"-0.019": 0.0,
			"-0.018": 0.0,
			"-0.017": 0.0,
			"-0.016": 0.0,
			"-0.015": 0.384059546284,
			"-0.014": 1.10633038573,
			"-0.013": 1.48869118465,
			"-0.012": 2.12391538319,
			"-0.011": 2.76982047852,
			"-0.01": 2.94590606891,
			"-0.009": 3.29918978957,
			"-0.008": 4.06907370208,
			"-0.007": 7.56147146435,
			"-0.006": 17.7728334944,
			"-0.005": 18.9715832393,
			"-0.004": 19.0915617283,
			"-0.003": 15.4299302096,
			"-0.002": 13.6290865654,
			"-0.001": 11.8250046174,
			"0.0": 14.6645314556,
			"0.001": 18.6981214123,
			"0.002": 19.2827265882,
			"0.003": 24.5435141464,
			"0.004": 29.9672146402,
			"0.005": 14.8782319886,
			"0.006": 4.42326889431,
			"0.007": 3.69443493766,
			"0.008": 4.53574315471,
			"0.009": 4.94617053049,
			"0.01": 5.53966263628,
			"0.011": 5.59344163165,
			"0.012": 2.16008703757,
			"0.013": 0.132823912266,
			"0.014": 0.0,
			"0.015": 0.0,
			"0.016": 0.0,
			"0.017": 0.0,
			"0.018": 0.0,
			"0.019": 0.0,
			"0.02": 0.0,
			"0.021": 0.0,
			"0.022": 0.0,
			"0.023": 0.0,
			"0.024": 0.0,
			"0.025": 0.0
		}
	}
}
