{
	 "smiles": "ClS(=O)(=O)CCN1C(=O)C2=CC=CC=C2C1=O", 
	 "Tm": 431.15, 
	 "num_atms": 25, 
	 "gaussian": { 
		 "optdone": 1, 
		 "sigma_profile": "yes", 
		 "theory": "DFT", 
		 "functional": "B3LYP", 
		 "basiset": "6-31G**", 
		 "properties": { 
			 "R2extent": 7354.5461, 
			 "electric_dipole_moment_norm": 7.38771053913, 
			 "electric_quadrupole_moment_norm": 9.99919143881, 
			 "total_energy": -1599.87930328, 
			 "HOMO_LUMO_gap": 0.18597, 
			 "cosmo_polarized_energy": -16.43, 
			 "cosmo_cavitation_energy": 33.92, 
			 "cosmo_dispersion_energy": -24.54, 
			 "cosmo_repulsion_energy": 1.84, 
			 "cosmo_total_nonelectrostatic_energy": 11.23, 
			 "SMD_solvation_energy": 5.32 
		},
		"coords": [
			{
				"x": -4.4561665645,
				"y": -1.283040028,
				"z": -2.8271692775,
				"element": "Cl" 
			},
			{
				"x": -2.7318449376,
				"y": -0.6398123033,
				"z": -3.9088654314,
				"element": "S" 
			},
			{
				"x": -2.3959964437,
				"y": -1.7041245251,
				"z": -4.8441920876,
				"element": "O" 
			},
			{
				"x": -2.9926962803,
				"y": 0.7261989188,
				"z": -4.3458002487,
				"element": "O" 
			},
			{
				"x": -1.5014685651,
				"y": -0.6228956477,
				"z": -2.5744742129,
				"element": "C" 
			},
			{
				"x": -1.7421217324,
				"y": 0.4973130307,
				"z": -1.5554901248,
				"element": "C" 
			},
			{
				"x": -0.7087226659,
				"y": 0.4846352569,
				"z": -0.5362514714,
				"element": "N" 
			},
			{
				"x": -0.9451147188,
				"y": 0.165593563,
				"z": 0.8188888743,
				"element": "C" 
			},
			{
				"x": -2.0155937062,
				"y": -0.1723312821,
				"z": 1.2782961965,
				"element": "O" 
			},
			{
				"x": 0.3700868192,
				"y": 0.3420801226,
				"z": 1.4999888559,
				"element": "C" 
			},
			{
				"x": 0.7157529912,
				"y": 0.1607035116,
				"z": 2.8312839909,
				"element": "C" 
			},
			{
				"x": 2.0480171824,
				"y": 0.4066382803,
				"z": 3.1896873844,
				"element": "C" 
			},
			{
				"x": 2.989625002,
				"y": 0.8188324966,
				"z": 2.2378034225,
				"element": "C" 
			},
			{
				"x": 2.63093774,
				"y": 0.9987348269,
				"z": 0.8951535167,
				"element": "C" 
			},
			{
				"x": 1.3096045287,
				"y": 0.7536865441,
				"z": 0.5502277251,
				"element": "C" 
			},
			{
				"x": 0.6285185662,
				"y": 0.8499950287,
				"z": -0.7726186557,
				"element": "C" 
			},
			{
				"x": 1.0794932575,
				"y": 1.1606380854,
				"z": -1.8580710185,
				"element": "O" 
			},
			{
				"x": -1.5226637163,
				"y": -1.6183734379,
				"z": -2.1266074394,
				"element": "H" 
			},
			{
				"x": -0.5541934821,
				"y": -0.473381339,
				"z": -3.1019279712,
				"element": "H" 
			},
			{
				"x": -2.6956079561,
				"y": 0.3622237838,
				"z": -1.0403837466,
				"element": "H" 
			},
			{
				"x": -1.7410521911,
				"y": 1.4629064113,
				"z": -2.0669920587,
				"element": "H" 
			},
			{
				"x": -0.0216207534,
				"y": -0.1587815413,
				"z": 3.5604115252,
				"element": "H" 
			},
			{
				"x": 2.3576647661,
				"y": 0.2762371486,
				"z": 4.2221472208,
				"element": "H" 
			},
			{
				"x": 4.0140905437,
				"y": 1.0014977506,
				"z": 2.5475883394,
				"element": "H" 
			},
			{
				"x": 3.3521723165,
				"y": 1.3178253445,
				"z": 0.1498666926,
				"element": "H" 
			}
		],
		 "valence_orbital": [ 
			{
				"type": "occ",
				"energy": -0.3082,
				"method": "rhf"
			},
			{
				"type": "occ",
				"energy": -0.30343,
				"method": "rhf"
			},
			{
				"type": "occ",
				"energy": -0.29181,
				"method": "rhf"
			},
			{
				"type": "occ",
				"energy": -0.28614,
				"method": "rhf"
			},
			{
				"type": "occ",
				"energy": -0.28433,
				"method": "rhf"
			},
			{
				"type": "unocc",
				"energy": -0.09836,
				"method": "rhf"
			},
			{
				"type": "unocc",
				"energy": -0.08503,
				"method": "rhf"
			},
			{
				"type": "unocc",
				"energy": -0.05545,
				"method": "rhf"
			},
			{
				"type": "unocc",
				"energy": 0.01341,
				"method": "rhf"
			},
			{
				"type": "unocc",
				"energy": 0.03593,
				"method": "rhf"
			}
		],
		"cosmo_sigma_profile": { 
			"-0.025": 0.0,
			"-0.024": 0.0,
			"-0.023": 0.0,
			"-0.022": 0.0,
			"-0.021": 0.0,
			"-0.02": 0.0,
			"-0.019": 0.0,
			"-0.018": 0.0,
			"-0.017": 0.0,
			"-0.016": 0.0,
			"-0.015": 0.0,
			"-0.014": 0.0,
			"-0.013": 0.0709998169137,
			"-0.012": 0.600000595619,
			"-0.011": 1.82305846905,
			"-0.01": 3.26340716109,
			"-0.009": 3.75773254812,
			"-0.008": 6.63657172827,
			"-0.007": 16.5642730168,
			"-0.006": 18.4222752918,
			"-0.005": 18.0749014593,
			"-0.004": 15.6000751403,
			"-0.003": 14.0763586715,
			"-0.002": 15.3116991582,
			"-0.001": 16.945969886,
			"0.0": 19.12724635,
			"0.001": 21.8847785059,
			"0.002": 21.0193723386,
			"0.003": 16.2694114912,
			"0.004": 8.92443088194,
			"0.005": 4.75381638296,
			"0.006": 5.82211633686,
			"0.007": 9.44252915721,
			"0.008": 13.5610543819,
			"0.009": 8.76803889482,
			"0.01": 6.12802418272,
			"0.011": 7.17592311431,
			"0.012": 0.995515785733,
			"0.013": 0.0,
			"0.014": 0.0,
			"0.015": 0.0,
			"0.016": 0.0,
			"0.017": 0.0,
			"0.018": 0.0,
			"0.019": 0.0,
			"0.02": 0.0,
			"0.021": 0.0,
			"0.022": 0.0,
			"0.023": 0.0,
			"0.024": 0.0,
			"0.025": 0.0
		}
	}
}
