{
	 "smiles": "CC1=CC=C(OCCCC(O)=O)C=C1", 
	 "Tm": 357.15, 
	 "num_atms": 28, 
	 "gaussian": { 
		 "optdone": 1, 
		 "sigma_profile": "yes", 
		 "theory": "DFT", 
		 "functional": "B3LYP", 
		 "basiset": "6-31G**", 
		 "properties": { 
			 "R2extent": 4724.2388, 
			 "electric_dipole_moment_norm": 0.591648214736, 
			 "electric_quadrupole_moment_norm": 10.5234665496, 
			 "total_energy": -653.297835461, 
			 "HOMO_LUMO_gap": 0.21128, 
			 "cosmo_polarized_energy": -11.87, 
			 "cosmo_cavitation_energy": 31.86, 
			 "cosmo_dispersion_energy": -22.75, 
			 "cosmo_repulsion_energy": 1.83, 
			 "cosmo_total_nonelectrostatic_energy": 10.94, 
			 "SMD_solvation_energy": 6.72 
		},
		"coords": [
			{
				"x": 0.7026724285,
				"y": 5.0518107078,
				"z": -1.502742148,
				"element": "C" 
			},
			{
				"x": 0.2719546193,
				"y": 3.7631280234,
				"z": -0.8419964748,
				"element": "C" 
			},
			{
				"x": 0.5441852349,
				"y": 3.5024033142,
				"z": 0.5019788693,
				"element": "C" 
			},
			{
				"x": 0.1521383283,
				"y": 2.3099924247,
				"z": 1.1212743701,
				"element": "C" 
			},
			{
				"x": -0.5372506504,
				"y": 1.3435621077,
				"z": 0.3832691081,
				"element": "C" 
			},
			{
				"x": -0.9940089446,
				"y": 0.1455451803,
				"z": 0.8694970508,
				"element": "O" 
			},
			{
				"x": -0.7514436046,
				"y": -0.2080369215,
				"z": 2.2319085991,
				"element": "C" 
			},
			{
				"x": 0.6470349193,
				"y": -0.7826450036,
				"z": 2.4608646535,
				"element": "C" 
			},
			{
				"x": 0.912325644,
				"y": -2.0249765318,
				"z": 1.6099153691,
				"element": "C" 
			},
			{
				"x": 2.3073669404,
				"y": -2.5761266456,
				"z": 1.7974450993,
				"element": "C" 
			},
			{
				"x": 2.5001704946,
				"y": -3.700044164,
				"z": 1.0637140706,
				"element": "O" 
			},
			{
				"x": 3.1722528927,
				"y": -2.1038382196,
				"z": 2.5027596269,
				"element": "O" 
			},
			{
				"x": -0.8186380632,
				"y": 1.5871607871,
				"z": -0.9698056453,
				"element": "C" 
			},
			{
				"x": -0.419226664,
				"y": 2.7763056919,
				"z": -1.5650881832,
				"element": "C" 
			},
			{
				"x": 1.384839835,
				"y": 4.8667214592,
				"z": -2.3410785206,
				"element": "H" 
			},
			{
				"x": 1.2182879447,
				"y": 5.7082540312,
				"z": -0.7960192986,
				"element": "H" 
			},
			{
				"x": -0.1547645986,
				"y": 5.6049430411,
				"z": -1.9041395872,
				"element": "H" 
			},
			{
				"x": 1.0804375468,
				"y": 4.2425966302,
				"z": 1.090983087,
				"element": "H" 
			},
			{
				"x": 0.3949525511,
				"y": 2.1550346342,
				"z": 2.1657846952,
				"element": "H" 
			},
			{
				"x": -0.9363422283,
				"y": 0.649308253,
				"z": 2.8907828712,
				"element": "H" 
			},
			{
				"x": -1.5119864149,
				"y": -0.963350103,
				"z": 2.4567902532,
				"element": "H" 
			},
			{
				"x": 1.4099535268,
				"y": -0.0284529069,
				"z": 2.2468564367,
				"element": "H" 
			},
			{
				"x": 0.7504816206,
				"y": -1.0295925627,
				"z": 3.5240355226,
				"element": "H" 
			},
			{
				"x": 0.7737043214,
				"y": -1.8025197955,
				"z": 0.545750584,
				"element": "H" 
			},
			{
				"x": 0.1993735434,
				"y": -2.8282534445,
				"z": 1.8364028905,
				"element": "H" 
			},
			{
				"x": 3.4144091775,
				"y": -3.9805392885,
				"z": 1.2374575698,
				"element": "H" 
			},
			{
				"x": -1.356552969,
				"y": 0.8291022387,
				"z": -1.5302539573,
				"element": "H" 
			},
			{
				"x": -0.649827432,
				"y": 2.9446070625,
				"z": -2.614646912,
				"element": "H" 
			}
		],
		 "valence_orbital": [ 
			{
				"type": "occ",
				"energy": -0.31628,
				"method": "rhf"
			},
			{
				"type": "occ",
				"energy": -0.3061,
				"method": "rhf"
			},
			{
				"type": "occ",
				"energy": -0.27568,
				"method": "rhf"
			},
			{
				"type": "occ",
				"energy": -0.24603,
				"method": "rhf"
			},
			{
				"type": "occ",
				"energy": -0.20964,
				"method": "rhf"
			},
			{
				"type": "unocc",
				"energy": 0.00164,
				"method": "rhf"
			},
			{
				"type": "unocc",
				"energy": 0.01065,
				"method": "rhf"
			},
			{
				"type": "unocc",
				"energy": 0.01735,
				"method": "rhf"
			},
			{
				"type": "unocc",
				"energy": 0.07913,
				"method": "rhf"
			},
			{
				"type": "unocc",
				"energy": 0.08938,
				"method": "rhf"
			}
		],
		"cosmo_sigma_profile": { 
			"-0.025": 0.0,
			"-0.024": 0.0,
			"-0.023": 0.0,
			"-0.022": 0.0,
			"-0.021": 0.0,
			"-0.02": 0.0,
			"-0.019": 0.0,
			"-0.018": 0.567074740896,
			"-0.017": 0.766909190529,
			"-0.016": 0.820580388112,
			"-0.015": 1.20468967142,
			"-0.014": 0.480413722956,
			"-0.013": 0.498461992232,
			"-0.012": 0.438217601415,
			"-0.011": 1.05831525715,
			"-0.01": 0.962691978257,
			"-0.009": 0.461854508187,
			"-0.008": 0.226094011895,
			"-0.007": 1.87691892607,
			"-0.006": 9.48920547085,
			"-0.005": 19.5920779119,
			"-0.004": 26.9909789432,
			"-0.003": 25.432383037,
			"-0.002": 22.1422431098,
			"-0.001": 18.851153566,
			"0.0": 17.6745977252,
			"0.001": 14.7504449146,
			"0.002": 11.0426758462,
			"0.003": 10.7087024707,
			"0.004": 12.8013748093,
			"0.005": 12.5798502472,
			"0.006": 12.2752629483,
			"0.007": 5.53652314907,
			"0.008": 3.52548477174,
			"0.009": 4.77685936776,
			"0.01": 4.1344709558,
			"0.011": 3.76266930656,
			"0.012": 4.64158823659,
			"0.013": 0.702956646904,
			"0.014": 0.0,
			"0.015": 0.0,
			"0.016": 0.0,
			"0.017": 0.0,
			"0.018": 0.0,
			"0.019": 0.0,
			"0.02": 0.0,
			"0.021": 0.0,
			"0.022": 0.0,
			"0.023": 0.0,
			"0.024": 0.0,
			"0.025": 0.0
		}
	}
}
