{
	 "smiles": "NC1=CC2=CC=CC=C2OC1=O", 
	 "Tm": 409.15, 
	 "num_atms": 19, 
	 "gaussian": { 
		 "optdone": 1, 
		 "sigma_profile": "yes", 
		 "theory": "DFT", 
		 "functional": "B3LYP", 
		 "basiset": "6-31G**", 
		 "properties": { 
			 "R2extent": 2406.7794, 
			 "electric_dipole_moment_norm": 3.68518831812, 
			 "electric_quadrupole_moment_norm": 19.9563543016, 
			 "total_energy": -552.386579096, 
			 "HOMO_LUMO_gap": 0.1541, 
			 "cosmo_polarized_energy": -11.53, 
			 "cosmo_cavitation_energy": 23.33, 
			 "cosmo_dispersion_energy": -17.81, 
			 "cosmo_repulsion_energy": 1.4, 
			 "cosmo_total_nonelectrostatic_energy": 6.92, 
			 "SMD_solvation_energy": 5.08 
		},
		"coords": [
			{
				"x": 1.7733753107,
				"y": 1.5974814165,
				"z": -2.9175408444,
				"element": "N" 
			},
			{
				"x": 1.5379833007,
				"y": 0.9438248708,
				"z": -1.7315420006,
				"element": "C" 
			},
			{
				"x": 0.4882164729,
				"y": 0.1204313329,
				"z": -1.4511936851,
				"element": "C" 
			},
			{
				"x": 0.3344633579,
				"y": -0.4469140597,
				"z": -0.138631528,
				"element": "C" 
			},
			{
				"x": -0.7246061567,
				"y": -1.2984887439,
				"z": 0.2350964138,
				"element": "C" 
			},
			{
				"x": -0.810668718,
				"y": -1.8036111895,
				"z": 1.5259520963,
				"element": "C" 
			},
			{
				"x": 0.1610186319,
				"y": -1.4710214303,
				"z": 2.4809697294,
				"element": "C" 
			},
			{
				"x": 1.2188633598,
				"y": -0.6326140823,
				"z": 2.1402179243,
				"element": "C" 
			},
			{
				"x": 1.2937585422,
				"y": -0.1333990314,
				"z": 0.8417476876,
				"element": "C" 
			},
			{
				"x": 2.3577557113,
				"y": 0.6865230387,
				"z": 0.5446519554,
				"element": "O" 
			},
			{
				"x": 2.5474988934,
				"y": 1.238244377,
				"z": -0.6912686298,
				"element": "C" 
			},
			{
				"x": 3.5267125211,
				"y": 1.9287629103,
				"z": -0.8910256989,
				"element": "O" 
			},
			{
				"x": 2.7059150628,
				"y": 1.9782417932,
				"z": -3.0060838706,
				"element": "H" 
			},
			{
				"x": 1.3588230328,
				"y": 1.2244092487,
				"z": -3.7572989476,
				"element": "H" 
			},
			{
				"x": -0.2518611223,
				"y": -0.1090328226,
				"z": -2.213763433,
				"element": "H" 
			},
			{
				"x": -1.4772977138,
				"y": -1.5532549843,
				"z": -0.5060743736,
				"element": "H" 
			},
			{
				"x": -1.6339783892,
				"y": -2.4578157945,
				"z": 1.7959354661,
				"element": "H" 
			},
			{
				"x": 0.0923033384,
				"y": -1.8664268551,
				"z": 3.4895198887,
				"element": "H" 
			},
			{
				"x": 1.9869245642,
				"y": -0.3570399943,
				"z": 2.8549318499,
				"element": "H" 
			}
		],
		 "valence_orbital": [ 
			{
				"type": "occ",
				"energy": -0.32627,
				"method": "rhf"
			},
			{
				"type": "occ",
				"energy": -0.28624,
				"method": "rhf"
			},
			{
				"type": "occ",
				"energy": -0.28065,
				"method": "rhf"
			},
			{
				"type": "occ",
				"energy": -0.24453,
				"method": "rhf"
			},
			{
				"type": "occ",
				"energy": -0.20475,
				"method": "rhf"
			},
			{
				"type": "unocc",
				"energy": -0.05065,
				"method": "rhf"
			},
			{
				"type": "unocc",
				"energy": -0.00441,
				"method": "rhf"
			},
			{
				"type": "unocc",
				"energy": 0.00766,
				"method": "rhf"
			},
			{
				"type": "unocc",
				"energy": 0.07974,
				"method": "rhf"
			},
			{
				"type": "unocc",
				"energy": 0.09027,
				"method": "rhf"
			}
		],
		"cosmo_sigma_profile": { 
			"-0.025": 0.0,
			"-0.024": 0.0,
			"-0.023": 0.0,
			"-0.022": 0.0,
			"-0.021": 0.0,
			"-0.02": 0.0,
			"-0.019": 0.0,
			"-0.018": 0.0,
			"-0.017": 0.0,
			"-0.016": 0.0,
			"-0.015": 0.0,
			"-0.014": 0.601355832351,
			"-0.013": 1.59737156315,
			"-0.012": 1.27828834884,
			"-0.011": 2.6066993652,
			"-0.01": 2.32250743817,
			"-0.009": 2.24462048437,
			"-0.008": 2.83453766684,
			"-0.007": 6.17266211127,
			"-0.006": 11.6828029404,
			"-0.005": 10.8279050796,
			"-0.004": 12.8423494506,
			"-0.003": 10.710476578,
			"-0.002": 12.0554193462,
			"-0.001": 9.0145827892,
			"0.0": 11.3017654356,
			"0.001": 11.8247961683,
			"0.002": 15.0662118269,
			"0.003": 15.4869793033,
			"0.004": 12.5317030047,
			"0.005": 9.08410183861,
			"0.006": 2.87223080447,
			"0.007": 3.26013211368,
			"0.008": 2.60978140665,
			"0.009": 3.49588535299,
			"0.01": 3.10053454465,
			"0.011": 4.88045348229,
			"0.012": 3.3434361168,
			"0.013": 1.52818882138,
			"0.014": 0.0269620134747,
			"0.015": 0.0,
			"0.016": 0.0,
			"0.017": 0.0,
			"0.018": 0.0,
			"0.019": 0.0,
			"0.02": 0.0,
			"0.021": 0.0,
			"0.022": 0.0,
			"0.023": 0.0,
			"0.024": 0.0,
			"0.025": 0.0
		}
	}
}
