{
	 "smiles": "CC(=O)[C@H]1CC[C@H]2[C@@H]3CC[C@H]4C[C@H](O)CC[C@@]4(C)[C@H]3C(=O)C[C@@]12C", 
	 "Tm": 445.15, 
	 "num_atms": 56, 
	 "gaussian": { 
		 "optdone": 1, 
		 "sigma_profile": "yes", 
		 "theory": "DFT", 
		 "functional": "B3LYP", 
		 "basiset": "6-31G**", 
		 "properties": { 
			 "R2extent": 8911.3412, 
			 "electric_dipole_moment_norm": 3.55567534654, 
			 "electric_quadrupole_moment_norm": 21.0222219287, 
			 "total_energy": -1045.204124, 
			 "HOMO_LUMO_gap": 0.20627, 
			 "cosmo_polarized_energy": -16.79, 
			 "cosmo_cavitation_energy": 48.0, 
			 "cosmo_dispersion_energy": -33.14, 
			 "cosmo_repulsion_energy": 2.44, 
			 "cosmo_total_nonelectrostatic_energy": 17.3, 
			 "SMD_solvation_energy": 7.73 
		},
		"coords": [
			{
				"x": -4.5168347746,
				"y": 3.0886290873,
				"z": -2.3346209454,
				"element": "C" 
			},
			{
				"x": -3.0565974486,
				"y": 2.6876245246,
				"z": -2.4225786983,
				"element": "C" 
			},
			{
				"x": -2.1722874548,
				"y": 3.5257580247,
				"z": -2.4691842474,
				"element": "O" 
			},
			{
				"x": -2.7347047525,
				"y": 1.1941242645,
				"z": -2.4594858146,
				"element": "C" 
			},
			{
				"x": -1.5435211947,
				"y": 0.8621258862,
				"z": -3.36635287,
				"element": "C" 
			},
			{
				"x": -1.1635895434,
				"y": -0.5557933144,
				"z": -2.9362127064,
				"element": "C" 
			},
			{
				"x": -1.2688147811,
				"y": -0.5451023551,
				"z": -1.3894348152,
				"element": "C" 
			},
			{
				"x": 0.0941145347,
				"y": -0.3058243132,
				"z": -0.6888994489,
				"element": "C" 
			},
			{
				"x": 1.0838167272,
				"y": -1.4531850548,
				"z": -0.9364003016,
				"element": "C" 
			},
			{
				"x": 2.4429234004,
				"y": -1.1426656722,
				"z": -0.3098889133,
				"element": "C" 
			},
			{
				"x": 2.3366461014,
				"y": -0.8916953415,
				"z": 1.2058254647,
				"element": "C" 
			},
			{
				"x": 3.7291332945,
				"y": -0.6203898706,
				"z": 1.8388782302,
				"element": "C" 
			},
			{
				"x": 4.1548051639,
				"y": 0.8621703625,
				"z": 1.9388088556,
				"element": "C" 
			},
			{
				"x": 4.0478739363,
				"y": 1.2374617533,
				"z": 3.3191611805,
				"element": "O" 
			},
			{
				"x": 3.3037453232,
				"y": 1.7642285084,
				"z": 1.0433590106,
				"element": "C" 
			},
			{
				"x": 1.786908306,
				"y": 1.6358516288,
				"z": 1.2923318222,
				"element": "C" 
			},
			{
				"x": 1.2766139595,
				"y": 0.1859318514,
				"z": 1.6065198551,
				"element": "C" 
			},
			{
				"x": 1.034161106,
				"y": 0.0489026335,
				"z": 3.129262464,
				"element": "C" 
			},
			{
				"x": -0.0728760174,
				"y": -0.099864247,
				"z": 0.8388789815,
				"element": "C" 
			},
			{
				"x": -1.1683409516,
				"y": 0.9393054355,
				"z": 1.1285657319,
				"element": "C" 
			},
			{
				"x": -1.5828366512,
				"y": 1.1772644384,
				"z": 2.2504262394,
				"element": "O" 
			},
			{
				"x": -1.7785615172,
				"y": 1.6140449407,
				"z": -0.0836346739,
				"element": "C" 
			},
			{
				"x": -2.3623224064,
				"y": 0.5559133372,
				"z": -1.0549436147,
				"element": "C" 
			},
			{
				"x": -3.6050943916,
				"y": -0.0889260479,
				"z": -0.4152485607,
				"element": "C" 
			},
			{
				"x": -4.6023504322,
				"y": 4.1724522679,
				"z": -2.2448990186,
				"element": "H" 
			},
			{
				"x": -5.050580833,
				"y": 2.7512438191,
				"z": -3.231572616,
				"element": "H" 
			},
			{
				"x": -5.0028463707,
				"y": 2.6035385862,
				"z": -1.4803504212,
				"element": "H" 
			},
			{
				"x": -3.6215101608,
				"y": 0.6609515903,
				"z": -2.8265371437,
				"element": "H" 
			},
			{
				"x": -1.7917302425,
				"y": 0.9411680188,
				"z": -4.4300061354,
				"element": "H" 
			},
			{
				"x": -0.7341209584,
				"y": 1.5731411656,
				"z": -3.1696234269,
				"element": "H" 
			},
			{
				"x": -1.8835612107,
				"y": -1.2712552722,
				"z": -3.3523702614,
				"element": "H" 
			},
			{
				"x": -0.1776902489,
				"y": -0.8569915762,
				"z": -3.3000306363,
				"element": "H" 
			},
			{
				"x": -1.6363989517,
				"y": -1.5177384244,
				"z": -1.0365011833,
				"element": "H" 
			},
			{
				"x": 0.539630646,
				"y": 0.6044299428,
				"z": -1.1180719404,
				"element": "H" 
			},
			{
				"x": 1.2060966721,
				"y": -1.6417846462,
				"z": -2.0080481105,
				"element": "H" 
			},
			{
				"x": 0.676750298,
				"y": -2.3787898164,
				"z": -0.5023928359,
				"element": "H" 
			},
			{
				"x": 2.8835356439,
				"y": -0.279303818,
				"z": -0.8242408868,
				"element": "H" 
			},
			{
				"x": 3.1331436225,
				"y": -1.9792133206,
				"z": -0.478679397,
				"element": "H" 
			},
			{
				"x": 1.9767163455,
				"y": -1.8390265238,
				"z": 1.6328797436,
				"element": "H" 
			},
			{
				"x": 3.7734861643,
				"y": -1.0250435628,
				"z": 2.8536486385,
				"element": "H" 
			},
			{
				"x": 4.4790648175,
				"y": -1.1704006669,
				"z": 1.2587234256,
				"element": "H" 
			},
			{
				"x": 5.2079475277,
				"y": 0.9539890125,
				"z": 1.6292075585,
				"element": "H" 
			},
			{
				"x": 4.2384437411,
				"y": 2.1826045792,
				"z": 3.3860618087,
				"element": "H" 
			},
			{
				"x": 3.6110357932,
				"y": 2.8108505378,
				"z": 1.177271528,
				"element": "H" 
			},
			{
				"x": 3.5413290447,
				"y": 1.5233367943,
				"z": 0.0006743566,
				"element": "H" 
			},
			{
				"x": 1.2753663863,
				"y": 2.0476457826,
				"z": 0.415221782,
				"element": "H" 
			},
			{
				"x": 1.5045988047,
				"y": 2.28183979,
				"z": 2.1294531958,
				"element": "H" 
			},
			{
				"x": 1.9439285204,
				"y": 0.2898515074,
				"z": 3.6816329704,
				"element": "H" 
			},
			{
				"x": 0.2370847441,
				"y": 0.7148793819,
				"z": 3.4586739878,
				"element": "H" 
			},
			{
				"x": 0.7314766437,
				"y": -0.9751975061,
				"z": 3.3805984215,
				"element": "H" 
			},
			{
				"x": -0.4626118087,
				"y": -1.043272521,
				"z": 1.2543403548,
				"element": "H" 
			},
			{
				"x": -1.016686234,
				"y": 2.2114950753,
				"z": -0.5978362441,
				"element": "H" 
			},
			{
				"x": -2.5512888494,
				"y": 2.3017187659,
				"z": 0.2706070595,
				"element": "H" 
			},
			{
				"x": -4.3996864197,
				"y": 0.6473128633,
				"z": -0.2493780471,
				"element": "H" 
			},
			{
				"x": -4.0076682555,
				"y": -0.8803530039,
				"z": -1.0570359763,
				"element": "H" 
			},
			{
				"x": -3.3708644072,
				"y": -0.5328692829,
				"z": 0.5577472242,
				"element": "H" 
			}
		],
		 "valence_orbital": [ 
			{
				"type": "occ",
				"energy": -0.28852,
				"method": "rhf"
			},
			{
				"type": "occ",
				"energy": -0.28024,
				"method": "rhf"
			},
			{
				"type": "occ",
				"energy": -0.259,
				"method": "rhf"
			},
			{
				"type": "occ",
				"energy": -0.24581,
				"method": "rhf"
			},
			{
				"type": "occ",
				"energy": -0.22638,
				"method": "rhf"
			},
			{
				"type": "unocc",
				"energy": -0.02011,
				"method": "rhf"
			},
			{
				"type": "unocc",
				"energy": -0.01233,
				"method": "rhf"
			},
			{
				"type": "unocc",
				"energy": 0.06247,
				"method": "rhf"
			},
			{
				"type": "unocc",
				"energy": 0.0654,
				"method": "rhf"
			},
			{
				"type": "unocc",
				"energy": 0.07962,
				"method": "rhf"
			}
		],
		"cosmo_sigma_profile": { 
			"-0.025": 0.0,
			"-0.024": 0.0,
			"-0.023": 0.0,
			"-0.022": 0.0,
			"-0.021": 0.0,
			"-0.02": 0.0,
			"-0.019": 0.0,
			"-0.018": 0.0,
			"-0.017": 0.0,
			"-0.016": 0.0,
			"-0.015": 0.361192582125,
			"-0.014": 0.69370588282,
			"-0.013": 0.969064754856,
			"-0.012": 1.15244743889,
			"-0.011": 0.885805824893,
			"-0.01": 0.860459670959,
			"-0.009": 0.87754783134,
			"-0.008": 1.20596173369,
			"-0.007": 2.01217823703,
			"-0.006": 7.19959614713,
			"-0.005": 11.7888562523,
			"-0.004": 24.2985675106,
			"-0.003": 42.8434906314,
			"-0.002": 62.9905829687,
			"-0.001": 50.7479196061,
			"0.0": 44.4958781502,
			"0.001": 32.8864570381,
			"0.002": 13.6940439092,
			"0.003": 10.7024714422,
			"0.004": 6.5116368166,
			"0.005": 5.56150079742,
			"0.006": 4.19654361018,
			"0.007": 5.91362978295,
			"0.008": 4.72496178989,
			"0.009": 4.06155707624,
			"0.01": 5.12043090795,
			"0.011": 5.50553897236,
			"0.012": 8.00259865617,
			"0.013": 5.46712151246,
			"0.014": 1.78363045479,
			"0.015": 0.37120101936,
			"0.016": 0.0,
			"0.017": 0.0,
			"0.018": 0.0,
			"0.019": 0.0,
			"0.02": 0.0,
			"0.021": 0.0,
			"0.022": 0.0,
			"0.023": 0.0,
			"0.024": 0.0,
			"0.025": 0.0
		}
	}
}
