{
	 "smiles": "NNCC1=CC=CC=C1", 
	 "Tm": 299.15, 
	 "num_atms": 19, 
	 "gaussian": { 
		 "optdone": 1, 
		 "sigma_profile": "yes", 
		 "theory": "DFT", 
		 "functional": "B3LYP", 
		 "basiset": "6-31G**", 
		 "properties": { 
			 "R2extent": 1607.323, 
			 "electric_dipole_moment_norm": 1.51550523919, 
			 "electric_quadrupole_moment_norm": 8.61111189104, 
			 "total_energy": -382.234424226, 
			 "HOMO_LUMO_gap": 0.23089, 
			 "cosmo_polarized_energy": -8.63, 
			 "cosmo_cavitation_energy": 22.07, 
			 "cosmo_dispersion_energy": -16.21, 
			 "cosmo_repulsion_energy": 1.35, 
			 "cosmo_total_nonelectrostatic_energy": 7.21, 
			 "SMD_solvation_energy": 3.44 
		},
		"coords": [
			{
				"x": 0.2601494651,
				"y": -1.2394810286,
				"z": -2.3088223165,
				"element": "N" 
			},
			{
				"x": 0.9503422701,
				"y": -0.4790989788,
				"z": -1.3177377815,
				"element": "N" 
			},
			{
				"x": 0.5468050095,
				"y": -0.7511329552,
				"z": 0.0599320075,
				"element": "C" 
			},
			{
				"x": -0.8211766972,
				"y": -0.177708419,
				"z": 0.3883022904,
				"element": "C" 
			},
			{
				"x": -1.2123789529,
				"y": 1.0671661976,
				"z": -0.1230729461,
				"element": "C" 
			},
			{
				"x": -2.4550174755,
				"y": 1.609615044,
				"z": 0.2052281975,
				"element": "C" 
			},
			{
				"x": -3.3239565692,
				"y": 0.9174897245,
				"z": 1.0525906336,
				"element": "C" 
			},
			{
				"x": -2.9434467906,
				"y": -0.3236960485,
				"z": 1.5646486272,
				"element": "C" 
			},
			{
				"x": -1.7018909146,
				"y": -0.8677168102,
				"z": 1.2287305881,
				"element": "C" 
			},
			{
				"x": 0.0364967382,
				"y": -2.175400525,
				"z": -1.9541458678,
				"element": "H" 
			},
			{
				"x": -0.629778538,
				"y": -0.7761725066,
				"z": -2.475611805,
				"element": "H" 
			},
			{
				"x": 1.9410225013,
				"y": -0.6665098177,
				"z": -1.4350524172,
				"element": "H" 
			},
			{
				"x": 1.3038241007,
				"y": -0.2897465295,
				"z": 0.7101289824,
				"element": "H" 
			},
			{
				"x": 0.5472363485,
				"y": -1.8331230816,
				"z": 0.2968846608,
				"element": "H" 
			},
			{
				"x": -0.5330493244,
				"y": 1.5949929502,
				"z": -0.785737538,
				"element": "H" 
			},
			{
				"x": -2.7461044945,
				"y": 2.5748687037,
				"z": -0.2002996957,
				"element": "H" 
			},
			{
				"x": -4.2914425867,
				"y": 1.340609819,
				"z": 1.3077239593,
				"element": "H" 
			},
			{
				"x": -3.6148451708,
				"y": -0.8728147398,
				"z": 2.2190822905,
				"element": "H" 
			},
			{
				"x": -1.4140889188,
				"y": -1.8397409985,
				"z": 1.6235281306,
				"element": "H" 
			}
		],
		 "valence_orbital": [ 
			{
				"type": "occ",
				"energy": -0.33583,
				"method": "rhf"
			},
			{
				"type": "occ",
				"energy": -0.24897,
				"method": "rhf"
			},
			{
				"type": "occ",
				"energy": -0.24623,
				"method": "rhf"
			},
			{
				"type": "occ",
				"energy": -0.242,
				"method": "rhf"
			},
			{
				"type": "occ",
				"energy": -0.23178,
				"method": "rhf"
			},
			{
				"type": "unocc",
				"energy": -0.00089,
				"method": "rhf"
			},
			{
				"type": "unocc",
				"energy": 0.0009,
				"method": "rhf"
			},
			{
				"type": "unocc",
				"energy": 0.08573,
				"method": "rhf"
			},
			{
				"type": "unocc",
				"energy": 0.10053,
				"method": "rhf"
			},
			{
				"type": "unocc",
				"energy": 0.10996,
				"method": "rhf"
			}
		],
		"cosmo_sigma_profile": { 
			"-0.025": 0.0,
			"-0.024": 0.0,
			"-0.023": 0.0,
			"-0.022": 0.0,
			"-0.021": 0.0,
			"-0.02": 0.0,
			"-0.019": 0.0,
			"-0.018": 0.0,
			"-0.017": 0.0,
			"-0.016": 0.0,
			"-0.015": 0.0,
			"-0.014": 0.0,
			"-0.013": 0.0,
			"-0.012": 0.0,
			"-0.011": 0.400690005094,
			"-0.01": 1.27852127751,
			"-0.009": 2.66445245997,
			"-0.008": 4.41335636764,
			"-0.007": 4.73424806454,
			"-0.006": 4.96057888782,
			"-0.005": 14.0521926626,
			"-0.004": 17.1000283222,
			"-0.003": 18.3368743763,
			"-0.002": 14.096105317,
			"-0.001": 12.5537010593,
			"0.0": 9.29035916488,
			"0.001": 8.10480647933,
			"0.002": 9.35944868423,
			"0.003": 8.29789344018,
			"0.004": 9.03528382428,
			"0.005": 9.338491814,
			"0.006": 8.92165360666,
			"0.007": 4.0563182497,
			"0.008": 1.05310439269,
			"0.009": 0.896225038966,
			"0.01": 2.25714396459,
			"0.011": 1.51748179439,
			"0.012": 1.32811344408,
			"0.013": 1.18402362279,
			"0.014": 1.51773569222,
			"0.015": 0.498027758051,
			"0.016": 0.706451362265,
			"0.017": 0.794933808393,
			"0.018": 0.499706683621,
			"0.019": 0.326358004665,
			"0.02": 0.0,
			"0.021": 0.0,
			"0.022": 0.0,
			"0.023": 0.0,
			"0.024": 0.0,
			"0.025": 0.0
		}
	}
}
