{
	 "smiles": "CC1=C(SC2=C1C(=O)NC=N2)C(O)=O", 
	 "Tm": 523.15, 
	 "num_atms": 20, 
	 "gaussian": { 
		 "optdone": 1, 
		 "sigma_profile": "yes", 
		 "theory": "DFT", 
		 "functional": "B3LYP", 
		 "basiset": "6-31G**", 
		 "properties": { 
			 "R2extent": 3307.5979, 
			 "electric_dipole_moment_norm": 6.04170568631, 
			 "electric_quadrupole_moment_norm": 4.29504828378, 
			 "total_energy": -1041.85199605, 
			 "HOMO_LUMO_gap": 0.16188, 
			 "cosmo_polarized_energy": -20.75, 
			 "cosmo_cavitation_energy": 26.19, 
			 "cosmo_dispersion_energy": -20.33, 
			 "cosmo_repulsion_energy": 1.52, 
			 "cosmo_total_nonelectrostatic_energy": 7.37, 
			 "SMD_solvation_energy": 4.63 
		},
		"coords": [
			{
				"x": 0.3600689832,
				"y": 0.1327194363,
				"z": -1.6486671972,
				"element": "C" 
			},
			{
				"x": 0.1826079099,
				"y": -0.3834441233,
				"z": -0.2468539179,
				"element": "C" 
			},
			{
				"x": 0.9143700544,
				"y": -1.4137145184,
				"z": 0.3171111416,
				"element": "C" 
			},
			{
				"x": 0.438690387,
				"y": -1.7546823754,
				"z": 1.9810733407,
				"element": "S" 
			},
			{
				"x": -0.7603849346,
				"y": -0.5013675827,
				"z": 1.9305389248,
				"element": "C" 
			},
			{
				"x": -0.7778736825,
				"y": 0.1361148366,
				"z": 0.685853777,
				"element": "C" 
			},
			{
				"x": -1.7391699919,
				"y": 1.2166909347,
				"z": 0.493269645,
				"element": "C" 
			},
			{
				"x": -1.9362444029,
				"y": 1.9093483208,
				"z": -0.4936456584,
				"element": "O" 
			},
			{
				"x": -2.5159736457,
				"y": 1.4303605719,
				"z": 1.6625794135,
				"element": "N" 
			},
			{
				"x": -2.3972016769,
				"y": 0.7303062449,
				"z": 2.8246012278,
				"element": "C" 
			},
			{
				"x": -1.5458131162,
				"y": -0.2346256886,
				"z": 3.0110632557,
				"element": "N" 
			},
			{
				"x": 1.9870992718,
				"y": -2.1742155402,
				"z": -0.3616427215,
				"element": "C" 
			},
			{
				"x": 2.6090138637,
				"y": -3.161907238,
				"z": 0.338995594,
				"element": "O" 
			},
			{
				"x": 2.328085704,
				"y": -1.9546216752,
				"z": -1.5027524969,
				"element": "O" 
			},
			{
				"x": 0.2079796505,
				"y": -0.6718020928,
				"z": -2.3734530803,
				"element": "H" 
			},
			{
				"x": 1.3862908584,
				"y": 0.478303883,
				"z": -1.8007322106,
				"element": "H" 
			},
			{
				"x": -0.3383617691,
				"y": 0.9448588564,
				"z": -1.8427053825,
				"element": "H" 
			},
			{
				"x": -3.2014479313,
				"y": 2.1726341232,
				"z": 1.5818151848,
				"element": "H" 
			},
			{
				"x": -3.0686975314,
				"y": 1.017283903,
				"z": 3.6299468385,
				"element": "H" 
			},
			{
				"x": 2.2635619996,
				"y": -3.257140276,
				"z": 1.2378043218,
				"element": "H" 
			}
		],
		 "valence_orbital": [ 
			{
				"type": "occ",
				"energy": -0.31104,
				"method": "rhf"
			},
			{
				"type": "occ",
				"energy": -0.28485,
				"method": "rhf"
			},
			{
				"type": "occ",
				"energy": -0.27743,
				"method": "rhf"
			},
			{
				"type": "occ",
				"energy": -0.27471,
				"method": "rhf"
			},
			{
				"type": "occ",
				"energy": -0.24201,
				"method": "rhf"
			},
			{
				"type": "unocc",
				"energy": -0.08013,
				"method": "rhf"
			},
			{
				"type": "unocc",
				"energy": -0.03699,
				"method": "rhf"
			},
			{
				"type": "unocc",
				"energy": -0.01664,
				"method": "rhf"
			},
			{
				"type": "unocc",
				"energy": -0.01319,
				"method": "rhf"
			},
			{
				"type": "unocc",
				"energy": 0.05615,
				"method": "rhf"
			}
		],
		"cosmo_sigma_profile": { 
			"-0.025": 0.0,
			"-0.024": 0.0,
			"-0.023": 0.0,
			"-0.022": 0.0,
			"-0.021": 0.0,
			"-0.02": 0.0,
			"-0.019": 0.0802017019456,
			"-0.018": 0.778705351203,
			"-0.017": 2.52118512689,
			"-0.016": 2.37968017837,
			"-0.015": 2.00659480489,
			"-0.014": 1.57594189211,
			"-0.013": 2.87830079521,
			"-0.012": 2.61103166063,
			"-0.011": 4.0322735583,
			"-0.01": 3.49431598346,
			"-0.009": 3.00339110888,
			"-0.008": 3.15595555729,
			"-0.007": 3.54909302276,
			"-0.006": 2.93369959299,
			"-0.005": 5.8830095964,
			"-0.004": 11.1523325042,
			"-0.003": 12.7855989427,
			"-0.002": 15.2447937374,
			"-0.001": 23.4311866257,
			"0.0": 23.1354941236,
			"0.001": 13.3200172006,
			"0.002": 9.28523480332,
			"0.003": 5.93053576015,
			"0.004": 4.82959799233,
			"0.005": 5.54651802435,
			"0.006": 5.10974471491,
			"0.007": 4.17576255438,
			"0.008": 5.0993221369,
			"0.009": 5.94279250993,
			"0.01": 6.75478058138,
			"0.011": 8.42653007698,
			"0.012": 8.50417109366,
			"0.013": 3.01692329312,
			"0.014": 0.111980745106,
			"0.015": 0.0,
			"0.016": 0.0,
			"0.017": 0.0,
			"0.018": 0.0,
			"0.019": 0.0,
			"0.02": 0.0,
			"0.021": 0.0,
			"0.022": 0.0,
			"0.023": 0.0,
			"0.024": 0.0,
			"0.025": 0.0
		}
	}
}
