{
	 "smiles": "CC1=CC=C(C=C1)C(=O)C1=C(C=CC=C1)C(O)=O", 
	 "Tm": 419.15, 
	 "num_atms": 30, 
	 "gaussian": { 
		 "optdone": 1, 
		 "sigma_profile": "yes", 
		 "theory": "DFT", 
		 "functional": "B3LYP", 
		 "basiset": "6-31G**", 
		 "properties": { 
			 "R2extent": 4667.3396, 
			 "electric_dipole_moment_norm": 5.5902611558, 
			 "electric_quadrupole_moment_norm": 21.4183021736, 
			 "total_energy": -804.510627653, 
			 "HOMO_LUMO_gap": 0.18047, 
			 "cosmo_polarized_energy": -21.02, 
			 "cosmo_cavitation_energy": 34.66, 
			 "cosmo_dispersion_energy": -24.09, 
			 "cosmo_repulsion_energy": 1.86, 
			 "cosmo_total_nonelectrostatic_energy": 12.44, 
			 "SMD_solvation_energy": 7.36 
		},
		"coords": [
			{
				"x": -3.1939248563,
				"y": 2.7846444632,
				"z": -2.8457828311,
				"element": "C" 
			},
			{
				"x": -2.156199768,
				"y": 1.8500352354,
				"z": -2.2735845501,
				"element": "C" 
			},
			{
				"x": -2.33783625,
				"y": 1.2434609545,
				"z": -1.0247760463,
				"element": "C" 
			},
			{
				"x": -1.3624168479,
				"y": 0.4071215851,
				"z": -0.4835418327,
				"element": "C" 
			},
			{
				"x": -0.1788503068,
				"y": 0.1493975602,
				"z": -1.1876360602,
				"element": "C" 
			},
			{
				"x": -0.0001050273,
				"y": 0.7383814373,
				"z": -2.4494942193,
				"element": "C" 
			},
			{
				"x": -0.9703667256,
				"y": 1.5792020823,
				"z": -2.9774047426,
				"element": "C" 
			},
			{
				"x": 0.874650535,
				"y": -0.7802395496,
				"z": -0.6874043077,
				"element": "C" 
			},
			{
				"x": 1.7122921353,
				"y": -1.2609527139,
				"z": -1.4368913152,
				"element": "O" 
			},
			{
				"x": 0.8503708337,
				"y": -1.2456358609,
				"z": 0.7560530967,
				"element": "C" 
			},
			{
				"x": 0.9393270766,
				"y": -0.386082813,
				"z": 1.8700379609,
				"element": "C" 
			},
			{
				"x": 0.9396724223,
				"y": -0.9291280977,
				"z": 3.1639071845,
				"element": "C" 
			},
			{
				"x": 0.8398643436,
				"y": -2.305225,
				"z": 3.3618051042,
				"element": "C" 
			},
			{
				"x": 0.752452669,
				"y": -3.1554872692,
				"z": 2.2593822179,
				"element": "C" 
			},
			{
				"x": 0.7696955487,
				"y": -2.6261999099,
				"z": 0.9691384238,
				"element": "C" 
			},
			{
				"x": 1.1601608787,
				"y": 1.0854167351,
				"z": 1.6703028189,
				"element": "C" 
			},
			{
				"x": 0.6556202103,
				"y": 1.9038898741,
				"z": 2.6334063238,
				"element": "O" 
			},
			{
				"x": 1.7698634514,
				"y": 1.549020414,
				"z": 0.7373366396,
				"element": "O" 
			},
			{
				"x": -4.1568944446,
				"y": 2.6749571217,
				"z": -2.3393889613,
				"element": "H" 
			},
			{
				"x": -2.8811700408,
				"y": 3.830591825,
				"z": -2.7376422286,
				"element": "H" 
			},
			{
				"x": -3.3480526211,
				"y": 2.604354139,
				"z": -3.9146313147,
				"element": "H" 
			},
			{
				"x": -3.2550800675,
				"y": 1.4263097546,
				"z": -0.4708418925,
				"element": "H" 
			},
			{
				"x": -1.5353019812,
				"y": -0.061004119,
				"z": 0.4807158195,
				"element": "H" 
			},
			{
				"x": 0.9123568566,
				"y": 0.521564353,
				"z": -2.9944824578,
				"element": "H" 
			},
			{
				"x": -0.8131183932,
				"y": 2.0358148706,
				"z": -3.9515470558,
				"element": "H" 
			},
			{
				"x": 1.0722884847,
				"y": -0.2775981041,
				"z": 4.023955969,
				"element": "H" 
			},
			{
				"x": 0.8500193679,
				"y": -2.7099609288,
				"z": 4.3691617959,
				"element": "H" 
			},
			{
				"x": 0.6837765955,
				"y": -4.2297460228,
				"z": 2.40232736,
				"element": "H" 
			},
			{
				"x": 0.7231657011,
				"y": -3.2823800428,
				"z": 0.1059703063,
				"element": "H" 
			},
			{
				"x": 0.07644022,
				"y": 1.4006780268,
				"z": 3.2227487951,
				"element": "H" 
			}
		],
		 "valence_orbital": [ 
			{
				"type": "occ",
				"energy": -0.27754,
				"method": "rhf"
			},
			{
				"type": "occ",
				"energy": -0.26772,
				"method": "rhf"
			},
			{
				"type": "occ",
				"energy": -0.2555,
				"method": "rhf"
			},
			{
				"type": "occ",
				"energy": -0.24895,
				"method": "rhf"
			},
			{
				"type": "occ",
				"energy": -0.24295,
				"method": "rhf"
			},
			{
				"type": "unocc",
				"energy": -0.06248,
				"method": "rhf"
			},
			{
				"type": "unocc",
				"energy": -0.04777,
				"method": "rhf"
			},
			{
				"type": "unocc",
				"energy": -0.02651,
				"method": "rhf"
			},
			{
				"type": "unocc",
				"energy": -0.00435,
				"method": "rhf"
			},
			{
				"type": "unocc",
				"energy": 0.03684,
				"method": "rhf"
			}
		],
		"cosmo_sigma_profile": { 
			"-0.025": 0.0,
			"-0.024": 0.0,
			"-0.023": 0.0,
			"-0.022": 0.0,
			"-0.021": 0.0,
			"-0.02": 0.0,
			"-0.019": 0.458504567077,
			"-0.018": 0.641152185073,
			"-0.017": 0.9091373224,
			"-0.016": 0.819747507504,
			"-0.015": 0.729877994111,
			"-0.014": 0.544427609358,
			"-0.013": 1.81426597722,
			"-0.012": 1.60147082773,
			"-0.011": 0.925152450994,
			"-0.01": 0.991089777227,
			"-0.009": 1.72993323149,
			"-0.008": 2.2257444992,
			"-0.007": 8.5345157169,
			"-0.006": 15.895678646,
			"-0.005": 20.6162354055,
			"-0.004": 22.5690819341,
			"-0.003": 19.4310396983,
			"-0.002": 20.115299365,
			"-0.001": 18.367814661,
			"0.0": 18.3823456577,
			"0.001": 16.241338608,
			"0.002": 18.8182750847,
			"0.003": 18.1794373388,
			"0.004": 13.47957645,
			"0.005": 7.10678642778,
			"0.006": 4.69696675286,
			"0.007": 5.80339813925,
			"0.008": 6.50082781081,
			"0.009": 5.90146170986,
			"0.01": 7.79957960062,
			"0.011": 8.09826690539,
			"0.012": 5.96213945928,
			"0.013": 1.20714508296,
			"0.014": 0.0,
			"0.015": 0.0,
			"0.016": 0.0,
			"0.017": 0.0,
			"0.018": 0.0,
			"0.019": 0.0,
			"0.02": 0.0,
			"0.021": 0.0,
			"0.022": 0.0,
			"0.023": 0.0,
			"0.024": 0.0,
			"0.025": 0.0
		}
	}
}
