{
	 "smiles": "NC(CC(O)=O)C1=CC=CC=C1", 
	 "Tm": 495.15, 
	 "num_atms": 23, 
	 "gaussian": { 
		 "optdone": 1, 
		 "sigma_profile": "yes", 
		 "theory": "DFT", 
		 "functional": "B3LYP", 
		 "basiset": "6-31G**", 
		 "properties": { 
			 "R2extent": 2891.8154, 
			 "electric_dipole_moment_norm": 1.67210488606, 
			 "electric_quadrupole_moment_norm": 4.88398122028, 
			 "total_energy": -554.800578376, 
			 "HOMO_LUMO_gap": 0.23003, 
			 "cosmo_polarized_energy": -13.1, 
			 "cosmo_cavitation_energy": 26.64, 
			 "cosmo_dispersion_energy": -19.0, 
			 "cosmo_repulsion_energy": 1.55, 
			 "cosmo_total_nonelectrostatic_energy": 9.19, 
			 "SMD_solvation_energy": 4.46 
		},
		"coords": [
			{
				"x": 1.614954892,
				"y": 0.0040382363,
				"z": 2.0770328683,
				"element": "N" 
			},
			{
				"x": 0.8337176192,
				"y": -0.8340691876,
				"z": 1.1566866446,
				"element": "C" 
			},
			{
				"x": 0.7232049926,
				"y": -2.2371856451,
				"z": 1.7805635811,
				"element": "C" 
			},
			{
				"x": 0.3470581307,
				"y": -3.3109914846,
				"z": 0.7844549122,
				"element": "C" 
			},
			{
				"x": -0.2176567363,
				"y": -4.381126494,
				"z": 1.3920459045,
				"element": "O" 
			},
			{
				"x": 0.5457286032,
				"y": -3.2737529194,
				"z": -0.4112309734,
				"element": "O" 
			},
			{
				"x": -0.5368785082,
				"y": -0.2814792565,
				"z": 0.7553308619,
				"element": "C" 
			},
			{
				"x": -1.3899863913,
				"y": 0.306859902,
				"z": 1.6995430287,
				"element": "C" 
			},
			{
				"x": -2.6422961447,
				"y": 0.7969588202,
				"z": 1.3287201427,
				"element": "C" 
			},
			{
				"x": -3.0635157649,
				"y": 0.7086682092,
				"z": 0.0001062244,
				"element": "C" 
			},
			{
				"x": -2.2240880159,
				"y": 0.1249019887,
				"z": -0.9496178679,
				"element": "C" 
			},
			{
				"x": -0.9722446063,
				"y": -0.3661845357,
				"z": -0.5738453545,
				"element": "C" 
			},
			{
				"x": 1.6797772326,
				"y": 0.947933302,
				"z": 1.7025510962,
				"element": "H" 
			},
			{
				"x": 1.1365098852,
				"y": 0.0896007448,
				"z": 2.9715661655,
				"element": "H" 
			},
			{
				"x": 1.4268954626,
				"y": -0.9418457631,
				"z": 0.2426286038,
				"element": "H" 
			},
			{
				"x": 1.7039466103,
				"y": -2.5065387305,
				"z": 2.1936512629,
				"element": "H" 
			},
			{
				"x": 0.0115129586,
				"y": -2.2535553831,
				"z": 2.6126387348,
				"element": "H" 
			},
			{
				"x": -0.3866509028,
				"y": -5.0313669039,
				"z": 0.6891501826,
				"element": "H" 
			},
			{
				"x": -1.0732840561,
				"y": 0.3939639206,
				"z": 2.7364672465,
				"element": "H" 
			},
			{
				"x": -3.2876718699,
				"y": 1.250584823,
				"z": 2.0760125028,
				"element": "H" 
			},
			{
				"x": -4.0364492371,
				"y": 1.0939662112,
				"z": -0.2913951141,
				"element": "H" 
			},
			{
				"x": -2.5416026395,
				"y": 0.0529054819,
				"z": -1.9862424786,
				"element": "H" 
			},
			{
				"x": -0.3274815142,
				"y": -0.8336853365,
				"z": -1.3122181751,
				"element": "H" 
			}
		],
		 "valence_orbital": [ 
			{
				"type": "occ",
				"energy": -0.31853,
				"method": "rhf"
			},
			{
				"type": "occ",
				"energy": -0.27661,
				"method": "rhf"
			},
			{
				"type": "occ",
				"energy": -0.25552,
				"method": "rhf"
			},
			{
				"type": "occ",
				"energy": -0.2473,
				"method": "rhf"
			},
			{
				"type": "occ",
				"energy": -0.23258,
				"method": "rhf"
			},
			{
				"type": "unocc",
				"energy": -0.00255,
				"method": "rhf"
			},
			{
				"type": "unocc",
				"energy": 0.00124,
				"method": "rhf"
			},
			{
				"type": "unocc",
				"energy": 0.0097,
				"method": "rhf"
			},
			{
				"type": "unocc",
				"energy": 0.07488,
				"method": "rhf"
			},
			{
				"type": "unocc",
				"energy": 0.08182,
				"method": "rhf"
			}
		],
		"cosmo_sigma_profile": { 
			"-0.025": 0.0,
			"-0.024": 0.0,
			"-0.023": 0.0,
			"-0.022": 0.0,
			"-0.021": 0.0,
			"-0.02": 0.0,
			"-0.019": 0.000846605369657,
			"-0.018": 0.692195796021,
			"-0.017": 0.883685967574,
			"-0.016": 0.822443322723,
			"-0.015": 0.896745412067,
			"-0.014": 0.949985645424,
			"-0.013": 0.235916234682,
			"-0.012": 0.650428437842,
			"-0.011": 1.01436689824,
			"-0.01": 2.89809098749,
			"-0.009": 3.99804063483,
			"-0.008": 4.32148689872,
			"-0.007": 4.20428469223,
			"-0.006": 8.99720286079,
			"-0.005": 14.0275228976,
			"-0.004": 15.3678089607,
			"-0.003": 19.648595935,
			"-0.002": 14.9380903277,
			"-0.001": 12.9986984813,
			"0.0": 10.7731460612,
			"0.001": 9.51442322844,
			"0.002": 10.1217235898,
			"0.003": 11.1282253652,
			"0.004": 11.0410862627,
			"0.005": 11.7358945292,
			"0.006": 11.8220564089,
			"0.007": 5.03889529708,
			"0.008": 3.47759611986,
			"0.009": 2.98452550647,
			"0.01": 3.8541107164,
			"0.011": 3.96945487797,
			"0.012": 3.2845814705,
			"0.013": 0.65966877122,
			"0.014": 0.383775317993,
			"0.015": 0.558346636558,
			"0.016": 0.727295684412,
			"0.017": 0.626860923899,
			"0.018": 0.460993595182,
			"0.019": 0.143153780748,
			"0.02": 0.0,
			"0.021": 0.0,
			"0.022": 0.0,
			"0.023": 0.0,
			"0.024": 0.0,
			"0.025": 0.0
		}
	}
}
