{
	 "smiles": "COC(=O)C1=C(OC)C(OC)=C(C(=O)OC)C(C(=O)OC)=C1OC", 
	 "Tm": 326.65, 
	 "num_atms": 42, 
	 "gaussian": { 
		 "optdone": 1, 
		 "sigma_profile": "yes", 
		 "theory": "DFT", 
		 "functional": "B3LYP", 
		 "basiset": "6-31G**", 
		 "properties": { 
			 "R2extent": 8111.8889, 
			 "electric_dipole_moment_norm": 2.29412635005, 
			 "electric_quadrupole_moment_norm": 17.3080586179, 
			 "total_energy": -1259.40826074, 
			 "HOMO_LUMO_gap": 0.18616, 
			 "cosmo_polarized_energy": -20.17, 
			 "cosmo_cavitation_energy": 46.25, 
			 "cosmo_dispersion_energy": -30.43, 
			 "cosmo_repulsion_energy": 2.36, 
			 "cosmo_total_nonelectrostatic_energy": 18.18, 
			 "SMD_solvation_energy": 13.91 
		},
		"coords": [
			{
				"x": 2.9780357073,
				"y": -3.9021097765,
				"z": -1.8820500682,
				"element": "C" 
			},
			{
				"x": 2.555011847,
				"y": -2.6403335155,
				"z": -1.3338489498,
				"element": "O" 
			},
			{
				"x": 1.2989456553,
				"y": -2.2734524029,
				"z": -1.6338365368,
				"element": "C" 
			},
			{
				"x": 0.5483643787,
				"y": -2.9311346933,
				"z": -2.3265560735,
				"element": "O" 
			},
			{
				"x": 0.9543755661,
				"y": -0.9510437459,
				"z": -1.0057955738,
				"element": "C" 
			},
			{
				"x": 1.5784081252,
				"y": 0.2386065454,
				"z": -1.4038959751,
				"element": "C" 
			},
			{
				"x": 2.5338794356,
				"y": 0.2780577297,
				"z": -2.3793365934,
				"element": "O" 
			},
			{
				"x": 2.1231286307,
				"y": -0.0515278095,
				"z": -3.71157585,
				"element": "C" 
			},
			{
				"x": 1.2615481642,
				"y": 1.4389189639,
				"z": -0.7381218313,
				"element": "C" 
			},
			{
				"x": 1.945120889,
				"y": 2.5895961683,
				"z": -1.0252073545,
				"element": "O" 
			},
			{
				"x": 1.4547863365,
				"y": 3.3464105509,
				"z": -2.1393937327,
				"element": "C" 
			},
			{
				"x": 0.3168285671,
				"y": 1.4386156984,
				"z": 0.2905304497,
				"element": "C" 
			},
			{
				"x": 0.026828356,
				"y": 2.7767118033,
				"z": 0.9268461389,
				"element": "C" 
			},
			{
				"x": -0.5256491563,
				"y": 3.6904929472,
				"z": 0.3550479755,
				"element": "O" 
			},
			{
				"x": 0.5267074911,
				"y": 2.8442824283,
				"z": 2.171238456,
				"element": "O" 
			},
			{
				"x": 0.2333344408,
				"y": 4.061716202,
				"z": 2.8772246442,
				"element": "C" 
			},
			{
				"x": -0.3209618169,
				"y": 0.2475662312,
				"z": 0.6985200307,
				"element": "C" 
			},
			{
				"x": -1.3355601411,
				"y": 0.3504063634,
				"z": 1.7933150651,
				"element": "C" 
			},
			{
				"x": -1.9249668986,
				"y": 1.3819280177,
				"z": 2.0591131769,
				"element": "O" 
			},
			{
				"x": -1.5308628283,
				"y": -0.7948800452,
				"z": 2.4718633825,
				"element": "O" 
			},
			{
				"x": -2.4879057603,
				"y": -0.7106841201,
				"z": 3.5408310117,
				"element": "C" 
			},
			{
				"x": 0.010823222,
				"y": -0.9504703497,
				"z": 0.0343173239,
				"element": "C" 
			},
			{
				"x": -0.5051209193,
				"y": -2.1636839698,
				"z": 0.403517619,
				"element": "O" 
			},
			{
				"x": -1.7815768157,
				"y": -2.4942126181,
				"z": -0.1595943038,
				"element": "C" 
			},
			{
				"x": 2.3407480952,
				"y": -4.7100538626,
				"z": -1.5151035111,
				"element": "H" 
			},
			{
				"x": 4.0046674664,
				"y": -4.036827211,
				"z": -1.5434360431,
				"element": "H" 
			},
			{
				"x": 2.9317381428,
				"y": -3.8825483065,
				"z": -2.9737929114,
				"element": "H" 
			},
			{
				"x": 1.68551097,
				"y": -1.0517405256,
				"z": -3.7809726832,
				"element": "H" 
			},
			{
				"x": 1.3953470716,
				"y": 0.6785108895,
				"z": -4.0868155219,
				"element": "H" 
			},
			{
				"x": 3.0266064947,
				"y": -0.0075815361,
				"z": -4.3215238021,
				"element": "H" 
			},
			{
				"x": 1.5185988496,
				"y": 2.7699692284,
				"z": -3.0691906409,
				"element": "H" 
			},
			{
				"x": 2.104194331,
				"y": 4.2202335657,
				"z": -2.2172459262,
				"element": "H" 
			},
			{
				"x": 0.4245428133,
				"y": 3.6673998326,
				"z": -1.9587866974,
				"element": "H" 
			},
			{
				"x": -0.8462146239,
				"y": 4.1608797223,
				"z": 3.0147996625,
				"element": "H" 
			},
			{
				"x": 0.7369423806,
				"y": 3.9711613643,
				"z": 3.8395441706,
				"element": "H" 
			},
			{
				"x": 0.6079447471,
				"y": 4.9270596642,
				"z": 2.32569667,
				"element": "H" 
			},
			{
				"x": -3.4676770273,
				"y": -0.4101487185,
				"z": 3.1611552075,
				"element": "H" 
			},
			{
				"x": -2.5308979431,
				"y": -1.7113544485,
				"z": 3.970190743,
				"element": "H" 
			},
			{
				"x": -2.1638473162,
				"y": 0.0158970304,
				"z": 4.2899746759,
				"element": "H" 
			},
			{
				"x": -1.7110558317,
				"y": -2.5627461806,
				"z": -1.2494035858,
				"element": "H" 
			},
			{
				"x": -2.0483487672,
				"y": -3.4682622203,
				"z": 0.2537401978,
				"element": "H" 
			},
			{
				"x": -2.5430223294,
				"y": -1.7608248911,
				"z": 0.1284175646,
				"element": "H" 
			}
		],
		 "valence_orbital": [ 
			{
				"type": "occ",
				"energy": -0.27631,
				"method": "rhf"
			},
			{
				"type": "occ",
				"energy": -0.2749,
				"method": "rhf"
			},
			{
				"type": "occ",
				"energy": -0.26812,
				"method": "rhf"
			},
			{
				"type": "occ",
				"energy": -0.25033,
				"method": "rhf"
			},
			{
				"type": "occ",
				"energy": -0.23719,
				"method": "rhf"
			},
			{
				"type": "unocc",
				"energy": -0.05103,
				"method": "rhf"
			},
			{
				"type": "unocc",
				"energy": -0.02572,
				"method": "rhf"
			},
			{
				"type": "unocc",
				"energy": 0.00405,
				"method": "rhf"
			},
			{
				"type": "unocc",
				"energy": 0.02636,
				"method": "rhf"
			},
			{
				"type": "unocc",
				"energy": 0.04381,
				"method": "rhf"
			}
		],
		"cosmo_sigma_profile": { 
			"-0.025": 0.0,
			"-0.024": 0.0,
			"-0.023": 0.0,
			"-0.022": 0.0,
			"-0.021": 0.0,
			"-0.02": 0.0,
			"-0.019": 0.0,
			"-0.018": 0.0,
			"-0.017": 0.0,
			"-0.016": 0.0,
			"-0.015": 0.0,
			"-0.014": 0.0,
			"-0.013": 0.0,
			"-0.012": 0.0,
			"-0.011": 0.0,
			"-0.01": 0.0,
			"-0.009": 0.0,
			"-0.008": 0.130560019835,
			"-0.007": 6.73701907348,
			"-0.006": 28.910211485,
			"-0.005": 36.0790546706,
			"-0.004": 46.8466590561,
			"-0.003": 45.4403668035,
			"-0.002": 25.8311377549,
			"-0.001": 20.633481538,
			"0.0": 19.5246578015,
			"0.001": 13.6088986266,
			"0.002": 13.7704061977,
			"0.003": 12.0378666466,
			"0.004": 13.5349540705,
			"0.005": 15.8608516086,
			"0.006": 10.2592312398,
			"0.007": 10.2246817779,
			"0.008": 9.82456980458,
			"0.009": 10.2150718268,
			"0.01": 11.7768342832,
			"0.011": 12.2058426649,
			"0.012": 2.80652070502,
			"0.013": 0.200183990905,
			"0.014": 0.0,
			"0.015": 0.0,
			"0.016": 0.0,
			"0.017": 0.0,
			"0.018": 0.0,
			"0.019": 0.0,
			"0.02": 0.0,
			"0.021": 0.0,
			"0.022": 0.0,
			"0.023": 0.0,
			"0.024": 0.0,
			"0.025": 0.0
		}
	}
}
