{
	 "smiles": "CCCCOC1=C(OCCCC)C=C(C=C1)C(O)=O", 
	 "Tm": 414.15, 
	 "num_atms": 41, 
	 "gaussian": { 
		 "optdone": 1, 
		 "sigma_profile": "yes", 
		 "theory": "DFT", 
		 "functional": "B3LYP", 
		 "basiset": "6-31G**", 
		 "properties": { 
			 "R2extent": 8316.6043, 
			 "electric_dipole_moment_norm": 6.92644352825, 
			 "electric_quadrupole_moment_norm": 32.0822743287, 
			 "total_energy": -885.759759456, 
			 "HOMO_LUMO_gap": 0.1915, 
			 "cosmo_polarized_energy": -17.65, 
			 "cosmo_cavitation_energy": 43.73, 
			 "cosmo_dispersion_energy": -30.14, 
			 "cosmo_repulsion_energy": 2.41, 
			 "cosmo_total_nonelectrostatic_energy": 16.0, 
			 "SMD_solvation_energy": 8.57 
		},
		"coords": [
			{
				"x": -1.8946509818,
				"y": 1.520044105,
				"z": 5.640495973,
				"element": "C" 
			},
			{
				"x": -1.810692243,
				"y": 0.2404098589,
				"z": 4.8022541535,
				"element": "C" 
			},
			{
				"x": -1.1922452694,
				"y": 0.4751308177,
				"z": 3.4173111992,
				"element": "C" 
			},
			{
				"x": -1.1370959099,
				"y": -0.8052111206,
				"z": 2.5851683833,
				"element": "C" 
			},
			{
				"x": -0.636369822,
				"y": -0.5828958712,
				"z": 1.2605999898,
				"element": "O" 
			},
			{
				"x": 0.6998305582,
				"y": -0.4775416501,
				"z": 1.0410652775,
				"element": "C" 
			},
			{
				"x": 1.0804458023,
				"y": -0.1846978215,
				"z": -0.2945334933,
				"element": "C" 
			},
			{
				"x": 0.1352897387,
				"y": 0.0395325834,
				"z": -1.2596981844,
				"element": "O" 
			},
			{
				"x": -0.5738372136,
				"y": -1.1203008283,
				"z": -1.7395804581,
				"element": "C" 
			},
			{
				"x": -1.531079829,
				"y": -0.6637182656,
				"z": -2.8327634511,
				"element": "C" 
			},
			{
				"x": -0.8590220228,
				"y": -0.0130113353,
				"z": -4.0528335626,
				"element": "C" 
			},
			{
				"x": 0.0320070681,
				"y": -0.9599939312,
				"z": -4.8648090951,
				"element": "C" 
			},
			{
				"x": 2.4235648032,
				"y": -0.061807943,
				"z": -0.6155760592,
				"element": "C" 
			},
			{
				"x": 3.4225476135,
				"y": -0.2026565548,
				"z": 0.3610943482,
				"element": "C" 
			},
			{
				"x": 3.0418113896,
				"y": -0.5109674232,
				"z": 1.6707771504,
				"element": "C" 
			},
			{
				"x": 1.6951273109,
				"y": -0.6470768279,
				"z": 2.01084531,
				"element": "C" 
			},
			{
				"x": 4.8448146043,
				"y": -0.0577177204,
				"z": -0.0719342355,
				"element": "C" 
			},
			{
				"x": 5.7610972208,
				"y": 0.1863251719,
				"z": 0.9081318648,
				"element": "O" 
			},
			{
				"x": 5.2074010306,
				"y": -0.146055003,
				"z": -1.2222958291,
				"element": "O" 
			},
			{
				"x": -2.3385713915,
				"y": 1.3237576633,
				"z": 6.6214630159,
				"element": "H" 
			},
			{
				"x": -2.5075960033,
				"y": 2.2793161928,
				"z": 5.1425422255,
				"element": "H" 
			},
			{
				"x": -0.901294301,
				"y": 1.9524040252,
				"z": 5.8043027643,
				"element": "H" 
			},
			{
				"x": -2.8159921996,
				"y": -0.1863694495,
				"z": 4.6850153805,
				"element": "H" 
			},
			{
				"x": -1.2222389441,
				"y": -0.5130315623,
				"z": 5.343655003,
				"element": "H" 
			},
			{
				"x": -1.777948602,
				"y": 1.2194638195,
				"z": 2.864282453,
				"element": "H" 
			},
			{
				"x": -0.183671959,
				"y": 0.8915470713,
				"z": 3.527044146,
				"element": "H" 
			},
			{
				"x": -0.5562488318,
				"y": -1.5901684639,
				"z": 3.0866594212,
				"element": "H" 
			},
			{
				"x": -2.1463331521,
				"y": -1.1971019516,
				"z": 2.4286982115,
				"element": "H" 
			},
			{
				"x": 0.152948814,
				"y": -1.8510590951,
				"z": -2.1198599721,
				"element": "H" 
			},
			{
				"x": -1.1263979396,
				"y": -1.5832507063,
				"z": -0.9146884516,
				"element": "H" 
			},
			{
				"x": -2.1135118566,
				"y": -1.5400480774,
				"z": -3.1492980712,
				"element": "H" 
			},
			{
				"x": -2.2418084752,
				"y": 0.0425855033,
				"z": -2.3869476564,
				"element": "H" 
			},
			{
				"x": -1.6455158257,
				"y": 0.3871727473,
				"z": -4.7047641158,
				"element": "H" 
			},
			{
				"x": -0.2712249206,
				"y": 0.8469378156,
				"z": -3.7134565822,
				"element": "H" 
			},
			{
				"x": -0.5294604223,
				"y": -1.8349517416,
				"z": -5.2138118256,
				"element": "H" 
			},
			{
				"x": 0.4387077947,
				"y": -0.4543719326,
				"z": -5.7465440186,
				"element": "H" 
			},
			{
				"x": 0.8834251329,
				"y": -1.3235899182,
				"z": -4.2799802888,
				"element": "H" 
			},
			{
				"x": 2.7048125272,
				"y": 0.1602758751,
				"z": -1.6388226955,
				"element": "H" 
			},
			{
				"x": 3.7857061008,
				"y": -0.6885348928,
				"z": 2.4435541428,
				"element": "H" 
			},
			{
				"x": 1.4314246166,
				"y": -0.8853929249,
				"z": 3.0339641494,
				"element": "H" 
			},
			{
				"x": 5.3083459896,
				"y": 0.4090197622,
				"z": 1.7329734833,
				"element": "H" 
			}
		],
		 "valence_orbital": [ 
			{
				"type": "occ",
				"energy": -0.30563,
				"method": "rhf"
			},
			{
				"type": "occ",
				"energy": -0.27504,
				"method": "rhf"
			},
			{
				"type": "occ",
				"energy": -0.26646,
				"method": "rhf"
			},
			{
				"type": "occ",
				"energy": -0.25317,
				"method": "rhf"
			},
			{
				"type": "occ",
				"energy": -0.22884,
				"method": "rhf"
			},
			{
				"type": "unocc",
				"energy": -0.03734,
				"method": "rhf"
			},
			{
				"type": "unocc",
				"energy": -0.01405,
				"method": "rhf"
			},
			{
				"type": "unocc",
				"energy": 0.05778,
				"method": "rhf"
			},
			{
				"type": "unocc",
				"energy": 0.05943,
				"method": "rhf"
			},
			{
				"type": "unocc",
				"energy": 0.07576,
				"method": "rhf"
			}
		],
		"cosmo_sigma_profile": { 
			"-0.025": 0.0,
			"-0.024": 0.0,
			"-0.023": 0.0,
			"-0.022": 0.0,
			"-0.021": 0.0,
			"-0.02": 0.0,
			"-0.019": 0.00780508342456,
			"-0.018": 0.676253160861,
			"-0.017": 0.420008536614,
			"-0.016": 1.45786177361,
			"-0.015": 0.978544331688,
			"-0.014": 0.6013034045,
			"-0.013": 0.892278748997,
			"-0.012": 1.58887641334,
			"-0.011": 1.02257776138,
			"-0.01": 1.14423985208,
			"-0.009": 1.28116917277,
			"-0.008": 2.78378420085,
			"-0.007": 4.75094553102,
			"-0.006": 6.62382576705,
			"-0.005": 8.91643442364,
			"-0.004": 13.1207191461,
			"-0.003": 36.8874335387,
			"-0.002": 46.1563873819,
			"-0.001": 42.5615835117,
			"0.0": 42.5015599349,
			"0.001": 36.9616338782,
			"0.002": 22.4914876069,
			"0.003": 16.0583974958,
			"0.004": 7.18981890579,
			"0.005": 4.92844266099,
			"0.006": 4.61755071191,
			"0.007": 4.56446432716,
			"0.008": 4.18604246389,
			"0.009": 4.43677821043,
			"0.01": 6.1946779424,
			"0.011": 7.22008034202,
			"0.012": 5.75408662701,
			"0.013": 2.74939109816,
			"0.014": 0.327052481212,
			"0.015": 0.0,
			"0.016": 0.0,
			"0.017": 0.0,
			"0.018": 0.0,
			"0.019": 0.0,
			"0.02": 0.0,
			"0.021": 0.0,
			"0.022": 0.0,
			"0.023": 0.0,
			"0.024": 0.0,
			"0.025": 0.0
		}
	}
}
