{
	 "smiles": "O=C1C=CC(=O)C2=C1C=CC=C2", 
	 "Tm": 401.15, 
	 "num_atms": 18, 
	 "gaussian": { 
		 "optdone": 1, 
		 "sigma_profile": "yes", 
		 "theory": "DFT", 
		 "functional": "B3LYP", 
		 "basiset": "6-31G**", 
		 "properties": { 
			 "R2extent": 2192.615, 
			 "electric_dipole_moment_norm": 1.34603920077, 
			 "electric_quadrupole_moment_norm": 15.6240263876, 
			 "total_energy": -535.114593932, 
			 "HOMO_LUMO_gap": 0.14679, 
			 "cosmo_polarized_energy": -9.16, 
			 "cosmo_cavitation_energy": 22.82, 
			 "cosmo_dispersion_energy": -16.95, 
			 "cosmo_repulsion_energy": 1.31, 
			 "cosmo_total_nonelectrostatic_energy": 7.18, 
			 "SMD_solvation_energy": 4.98 
		},
		"coords": [
			{
				"x": 1.2568055383,
				"y": -0.726533322,
				"z": 1.4406159981,
				"element": "O" 
			},
			{
				"x": 1.2316411613,
				"y": 0.0913376353,
				"z": 0.527697915,
				"element": "C" 
			},
			{
				"x": 2.3888076386,
				"y": 0.9912784461,
				"z": 0.2897054653,
				"element": "C" 
			},
			{
				"x": 2.3975439196,
				"y": 1.8995980176,
				"z": -0.7003398559,
				"element": "C" 
			},
			{
				"x": 1.250656517,
				"y": 2.0695152489,
				"z": -1.6284258508,
				"element": "C" 
			},
			{
				"x": 1.2918298103,
				"y": 2.9083473756,
				"z": -2.5215251081,
				"element": "O" 
			},
			{
				"x": 0.0682388152,
				"y": 1.183502435,
				"z": -1.4222821116,
				"element": "C" 
			},
			{
				"x": 0.0590747573,
				"y": 0.2309534276,
				"z": -0.3840125428,
				"element": "C" 
			},
			{
				"x": -1.0571357354,
				"y": -0.5917943821,
				"z": -0.2043107486,
				"element": "C" 
			},
			{
				"x": -2.157025317,
				"y": -0.4681633093,
				"z": -1.0514783239,
				"element": "C" 
			},
			{
				"x": -2.1479205968,
				"y": 0.4779010146,
				"z": -2.0826869608,
				"element": "C" 
			},
			{
				"x": -1.0389138714,
				"y": 1.3015879201,
				"z": -2.2680968894,
				"element": "C" 
			},
			{
				"x": 3.2260429902,
				"y": 0.864575651,
				"z": 0.9701615674,
				"element": "H" 
			},
			{
				"x": 3.2423389393,
				"y": 2.5592525629,
				"z": -0.8770179207,
				"element": "H" 
			},
			{
				"x": -1.0393781557,
				"y": -1.3172235039,
				"z": 0.6023547305,
				"element": "H" 
			},
			{
				"x": -3.0230420993,
				"y": -1.1080835556,
				"z": -0.9103127394,
				"element": "H" 
			},
			{
				"x": -3.0068916938,
				"y": 0.5711297883,
				"z": -2.7406285393,
				"element": "H" 
			},
			{
				"x": -1.0070726176,
				"y": 2.0427185498,
				"z": -3.0599180851,
				"element": "H" 
			}
		],
		 "valence_orbital": [ 
			{
				"type": "occ",
				"energy": -0.29933,
				"method": "rhf"
			},
			{
				"type": "occ",
				"energy": -0.27502,
				"method": "rhf"
			},
			{
				"type": "occ",
				"energy": -0.27292,
				"method": "rhf"
			},
			{
				"type": "occ",
				"energy": -0.27226,
				"method": "rhf"
			},
			{
				"type": "occ",
				"energy": -0.26341,
				"method": "rhf"
			},
			{
				"type": "unocc",
				"energy": -0.11662,
				"method": "rhf"
			},
			{
				"type": "unocc",
				"energy": -0.04421,
				"method": "rhf"
			},
			{
				"type": "unocc",
				"energy": -0.02531,
				"method": "rhf"
			},
			{
				"type": "unocc",
				"energy": 0.03989,
				"method": "rhf"
			},
			{
				"type": "unocc",
				"energy": 0.07991,
				"method": "rhf"
			}
		],
		"cosmo_sigma_profile": { 
			"-0.025": 0.0,
			"-0.024": 0.0,
			"-0.023": 0.0,
			"-0.022": 0.0,
			"-0.021": 0.0,
			"-0.02": 0.0,
			"-0.019": 0.0,
			"-0.018": 0.0,
			"-0.017": 0.0,
			"-0.016": 0.0,
			"-0.015": 0.0,
			"-0.014": 0.0,
			"-0.013": 0.0,
			"-0.012": 0.0,
			"-0.011": 0.0,
			"-0.01": 0.0,
			"-0.009": 0.421482729779,
			"-0.008": 3.65869657878,
			"-0.007": 9.07585198325,
			"-0.006": 12.6998802589,
			"-0.005": 13.5812119287,
			"-0.004": 13.3980224741,
			"-0.003": 13.6812263418,
			"-0.002": 14.6228690549,
			"-0.001": 12.3601318027,
			"0.0": 15.595247924,
			"0.001": 16.4168863897,
			"0.002": 16.4329627676,
			"0.003": 6.11555256484,
			"0.004": 4.46970863397,
			"0.005": 1.75124900906,
			"0.006": 2.63480277957,
			"0.007": 3.96500188247,
			"0.008": 3.32488665823,
			"0.009": 3.69420801328,
			"0.01": 5.58066473893,
			"0.011": 8.33962463098,
			"0.012": 2.63113495913,
			"0.013": 0.129726546318,
			"0.014": 0.0,
			"0.015": 0.0,
			"0.016": 0.0,
			"0.017": 0.0,
			"0.018": 0.0,
			"0.019": 0.0,
			"0.02": 0.0,
			"0.021": 0.0,
			"0.022": 0.0,
			"0.023": 0.0,
			"0.024": 0.0,
			"0.025": 0.0
		}
	}
}
