{
	 "smiles": "NNC(=O)C1=CN(N=C1)C1=CC=CC=C1", 
	 "Tm": 453.15, 
	 "num_atms": 25, 
	 "gaussian": { 
		 "optdone": 1, 
		 "sigma_profile": "yes", 
		 "theory": "DFT", 
		 "functional": "B3LYP", 
		 "basiset": "6-31G**", 
		 "properties": { 
			 "R2extent": 4466.7722, 
			 "electric_dipole_moment_norm": 4.04480442791, 
			 "electric_quadrupole_moment_norm": 5.4345801135, 
			 "total_energy": -681.279324753, 
			 "HOMO_LUMO_gap": 0.19043, 
			 "cosmo_polarized_energy": -17.99, 
			 "cosmo_cavitation_energy": 30.1, 
			 "cosmo_dispersion_energy": -22.2, 
			 "cosmo_repulsion_energy": 1.72, 
			 "cosmo_total_nonelectrostatic_energy": 9.62, 
			 "SMD_solvation_energy": 5.91 
		},
		"coords": [
			{
				"x": -4.3987565691,
				"y": 1.699726783,
				"z": -2.1359155472,
				"element": "N" 
			},
			{
				"x": -3.1523857106,
				"y": 1.2813900179,
				"z": -1.6380805986,
				"element": "N" 
			},
			{
				"x": -2.544813494,
				"y": 1.9091583226,
				"z": -0.5818430321,
				"element": "C" 
			},
			{
				"x": -3.0688884262,
				"y": 2.870282545,
				"z": -0.0234117529,
				"element": "O" 
			},
			{
				"x": -1.2355933518,
				"y": 1.3712012417,
				"z": -0.1516693628,
				"element": "C" 
			},
			{
				"x": -0.4672176555,
				"y": 0.3182050412,
				"z": -0.6214967296,
				"element": "C" 
			},
			{
				"x": 0.656186497,
				"y": 0.2655491118,
				"z": 0.1481066398,
				"element": "N" 
			},
			{
				"x": 0.6569804439,
				"y": 1.2394999823,
				"z": 1.1030127999,
				"element": "N" 
			},
			{
				"x": -0.4744685942,
				"y": 1.8997032334,
				"z": 0.9227701763,
				"element": "C" 
			},
			{
				"x": 1.7511404617,
				"y": -0.6402419855,
				"z": 0.0610700903,
				"element": "C" 
			},
			{
				"x": 2.8131662705,
				"y": -0.5124622447,
				"z": 0.9642363049,
				"element": "C" 
			},
			{
				"x": 3.8894319054,
				"y": -1.3934497019,
				"z": 0.8879250684,
				"element": "C" 
			},
			{
				"x": 3.9205541015,
				"y": -2.4010742896,
				"z": -0.0780769275,
				"element": "C" 
			},
			{
				"x": 2.8581587375,
				"y": -2.5215219495,
				"z": -0.9743312786,
				"element": "C" 
			},
			{
				"x": 1.7736905581,
				"y": -1.6474461485,
				"z": -0.9108053934,
				"element": "C" 
			},
			{
				"x": -4.3110169274,
				"y": 2.6847177733,
				"z": -2.3870117235,
				"element": "H" 
			},
			{
				"x": -5.0581556186,
				"y": 1.6838550008,
				"z": -1.3575124517,
				"element": "H" 
			},
			{
				"x": -2.7446679313,
				"y": 0.4904277168,
				"z": -2.1103491791,
				"element": "H" 
			},
			{
				"x": -0.6329564516,
				"y": -0.3798710918,
				"z": -1.4267020038,
				"element": "H" 
			},
			{
				"x": -0.7355478145,
				"y": 2.7377993438,
				"z": 1.5530318275,
				"element": "H" 
			},
			{
				"x": 2.7764598503,
				"y": 0.2728717445,
				"z": 1.7080397995,
				"element": "H" 
			},
			{
				"x": 4.7096482716,
				"y": -1.2882363348,
				"z": 1.5918777462,
				"element": "H" 
			},
			{
				"x": 4.7623019548,
				"y": -3.0843877149,
				"z": -0.1321769769,
				"element": "H" 
			},
			{
				"x": 2.8671886194,
				"y": -3.2998313867,
				"z": -1.7315340224,
				"element": "H" 
			},
			{
				"x": 0.9600608728,
				"y": -1.7610650101,
				"z": -1.6182534726,
				"element": "H" 
			}
		],
		 "valence_orbital": [ 
			{
				"type": "occ",
				"energy": -0.2691,
				"method": "rhf"
			},
			{
				"type": "occ",
				"energy": -0.26311,
				"method": "rhf"
			},
			{
				"type": "occ",
				"energy": -0.25762,
				"method": "rhf"
			},
			{
				"type": "occ",
				"energy": -0.25674,
				"method": "rhf"
			},
			{
				"type": "occ",
				"energy": -0.23276,
				"method": "rhf"
			},
			{
				"type": "unocc",
				"energy": -0.04233,
				"method": "rhf"
			},
			{
				"type": "unocc",
				"energy": -0.01561,
				"method": "rhf"
			},
			{
				"type": "unocc",
				"energy": 0.00112,
				"method": "rhf"
			},
			{
				"type": "unocc",
				"energy": 0.03297,
				"method": "rhf"
			},
			{
				"type": "unocc",
				"energy": 0.05891,
				"method": "rhf"
			}
		],
		"cosmo_sigma_profile": { 
			"-0.025": 0.0,
			"-0.024": 0.0,
			"-0.023": 0.0,
			"-0.022": 0.0,
			"-0.021": 0.0,
			"-0.02": 0.0,
			"-0.019": 0.0,
			"-0.018": 0.0,
			"-0.017": 0.0,
			"-0.016": 0.170099883273,
			"-0.015": 1.6157095632,
			"-0.014": 1.41237478919,
			"-0.013": 1.38449431753,
			"-0.012": 2.94122644159,
			"-0.011": 3.95591968546,
			"-0.01": 4.85328892158,
			"-0.009": 4.89110136333,
			"-0.008": 5.17789151995,
			"-0.007": 5.66285221123,
			"-0.006": 10.9470612874,
			"-0.005": 15.1078170254,
			"-0.004": 13.4488631256,
			"-0.003": 10.9584895263,
			"-0.002": 11.6682119532,
			"-0.001": 13.2572209777,
			"0.0": 17.1735847781,
			"0.001": 19.5713056821,
			"0.002": 20.3118052789,
			"0.003": 16.528111399,
			"0.004": 15.6439778738,
			"0.005": 9.82554232795,
			"0.006": 4.05702791885,
			"0.007": 2.9438580554,
			"0.008": 4.22267312356,
			"0.009": 3.13035150214,
			"0.01": 3.28082332515,
			"0.011": 3.89714434692,
			"0.012": 2.38114804261,
			"0.013": 4.1046394217,
			"0.014": 4.8802938435,
			"0.015": 0.923730767515,
			"0.016": 0.460678181582,
			"0.017": 0.179837358151,
			"0.018": 0.0,
			"0.019": 0.0,
			"0.02": 0.0,
			"0.021": 0.0,
			"0.022": 0.0,
			"0.023": 0.0,
			"0.024": 0.0,
			"0.025": 0.0
		}
	}
}
