{
	 "smiles": "OC(=O)C1=CC(=CC=C1)C1=CC=NC=C1", 
	 "Tm": 541.15, 
	 "num_atms": 24, 
	 "gaussian": { 
		 "optdone": 1, 
		 "sigma_profile": "yes", 
		 "theory": "DFT", 
		 "functional": "B3LYP", 
		 "basiset": "6-31G**", 
		 "properties": { 
			 "R2extent": 4296.1369, 
			 "electric_dipole_moment_norm": 3.45009049302, 
			 "electric_quadrupole_moment_norm": 5.13508774998, 
			 "total_energy": -667.919873424, 
			 "HOMO_LUMO_gap": 0.19165, 
			 "cosmo_polarized_energy": -12.84, 
			 "cosmo_cavitation_energy": 29.11, 
			 "cosmo_dispersion_energy": -21.29, 
			 "cosmo_repulsion_energy": 1.64, 
			 "cosmo_total_nonelectrostatic_energy": 9.46, 
			 "SMD_solvation_energy": 4.68 
		},
		"coords": [
			{
				"x": -3.5440984171,
				"y": 3.2434197359,
				"z": 1.3908004889,
				"element": "O" 
			},
			{
				"x": -2.2795889497,
				"y": 3.1922874883,
				"z": 0.9031794158,
				"element": "C" 
			},
			{
				"x": -1.5844091647,
				"y": 4.1840461692,
				"z": 0.8055983259,
				"element": "O" 
			},
			{
				"x": -1.8608973512,
				"y": 1.8183133524,
				"z": 0.5130328369,
				"element": "C" 
			},
			{
				"x": -0.5682613908,
				"y": 1.6543007724,
				"z": 0.0037787692,
				"element": "C" 
			},
			{
				"x": -0.1006539716,
				"y": 0.3908936831,
				"z": -0.3788595545,
				"element": "C" 
			},
			{
				"x": -0.9654963914,
				"y": -0.7091622725,
				"z": -0.2393106072,
				"element": "C" 
			},
			{
				"x": -2.2547424693,
				"y": -0.5491891079,
				"z": 0.2669729206,
				"element": "C" 
			},
			{
				"x": -2.7103990668,
				"y": 0.7121210841,
				"z": 0.6465219593,
				"element": "C" 
			},
			{
				"x": 1.2718667587,
				"y": 0.2189890349,
				"z": -0.9177702429,
				"element": "C" 
			},
			{
				"x": 1.8676240676,
				"y": 1.1904213974,
				"z": -1.7360680758,
				"element": "C" 
			},
			{
				"x": 3.1590110106,
				"y": 0.9802849047,
				"z": -2.2166403578,
				"element": "C" 
			},
			{
				"x": 3.8899396439,
				"y": -0.1095822822,
				"z": -1.94921666,
				"element": "N" 
			},
			{
				"x": 3.3197137619,
				"y": -1.0354112234,
				"z": -1.1678284648,
				"element": "C" 
			},
			{
				"x": 2.0369153977,
				"y": -0.9224101934,
				"z": -0.6343961856,
				"element": "C" 
			},
			{
				"x": -3.7059030491,
				"y": 4.1762707749,
				"z": 1.6078268364,
				"element": "H" 
			},
			{
				"x": 0.0688432806,
				"y": 2.5293804186,
				"z": -0.0652079473,
				"element": "H" 
			},
			{
				"x": -0.631729017,
				"y": -1.693677598,
				"z": -0.5531207823,
				"element": "H" 
			},
			{
				"x": -2.9085092925,
				"y": -1.4112997433,
				"z": 0.3582722129,
				"element": "H" 
			},
			{
				"x": -3.7110614343,
				"y": 0.8453336988,
				"z": 1.0408679923,
				"element": "H" 
			},
			{
				"x": 1.326482742,
				"y": 2.0890250825,
				"z": -2.0146925287,
				"element": "H" 
			},
			{
				"x": 3.6276348618,
				"y": 1.7263782486,
				"z": -2.8562098441,
				"element": "H" 
			},
			{
				"x": 3.9227759422,
				"y": -1.9151468544,
				"z": -0.9489316488,
				"element": "H" 
			},
			{
				"x": 1.6512424985,
				"y": -1.7028865706,
				"z": 0.0140011418,
				"element": "H" 
			}
		],
		 "valence_orbital": [ 
			{
				"type": "occ",
				"energy": -0.28301,
				"method": "rhf"
			},
			{
				"type": "occ",
				"energy": -0.27073,
				"method": "rhf"
			},
			{
				"type": "occ",
				"energy": -0.26468,
				"method": "rhf"
			},
			{
				"type": "occ",
				"energy": -0.25537,
				"method": "rhf"
			},
			{
				"type": "occ",
				"energy": -0.25159,
				"method": "rhf"
			},
			{
				"type": "unocc",
				"energy": -0.05994,
				"method": "rhf"
			},
			{
				"type": "unocc",
				"energy": -0.04527,
				"method": "rhf"
			},
			{
				"type": "unocc",
				"energy": -0.01412,
				"method": "rhf"
			},
			{
				"type": "unocc",
				"energy": 0.00399,
				"method": "rhf"
			},
			{
				"type": "unocc",
				"energy": 0.05325,
				"method": "rhf"
			}
		],
		"cosmo_sigma_profile": { 
			"-0.025": 0.0,
			"-0.024": 0.0,
			"-0.023": 0.0,
			"-0.022": 0.0,
			"-0.021": 0.0,
			"-0.02": 0.0,
			"-0.019": 0.0946300524663,
			"-0.018": 0.802725811846,
			"-0.017": 0.89141732132,
			"-0.016": 0.688914632327,
			"-0.015": 1.2422531067,
			"-0.014": 0.871676892677,
			"-0.013": 0.262453264666,
			"-0.012": 0.0348210697259,
			"-0.011": 0.809149905159,
			"-0.01": 0.994496955064,
			"-0.009": 0.586864796593,
			"-0.008": 0.824874993853,
			"-0.007": 8.95211478487,
			"-0.006": 17.6359407066,
			"-0.005": 16.9126285088,
			"-0.004": 12.8970112489,
			"-0.003": 13.1172451902,
			"-0.002": 13.281280268,
			"-0.001": 13.5915187721,
			"0.0": 17.4116594313,
			"0.001": 23.5569959227,
			"0.002": 27.5830705306,
			"0.003": 18.816310471,
			"0.004": 5.86560488828,
			"0.005": 5.54157885701,
			"0.006": 3.6475041958,
			"0.007": 4.82446366355,
			"0.008": 3.15748559347,
			"0.009": 3.36482062556,
			"0.01": 2.71548186402,
			"0.011": 4.58127015184,
			"0.012": 4.25996265282,
			"0.013": 1.25335742718,
			"0.014": 0.983957403929,
			"0.015": 0.784212066712,
			"0.016": 0.877453464469,
			"0.017": 0.403253813949,
			"0.018": 0.0,
			"0.019": 0.0,
			"0.02": 0.0,
			"0.021": 0.0,
			"0.022": 0.0,
			"0.023": 0.0,
			"0.024": 0.0,
			"0.025": 0.0
		}
	}
}
