{
	 "smiles": "OS(=O)(=O)C1=CC2=C(OCCC2)C=C1", 
	 "Tm": 354.15, 
	 "num_atms": 24, 
	 "gaussian": { 
		 "optdone": 1, 
		 "sigma_profile": "yes", 
		 "theory": "DFT", 
		 "functional": "B3LYP", 
		 "basiset": "6-31G**", 
		 "properties": { 
			 "R2extent": 5575.6051, 
			 "electric_dipole_moment_norm": 5.57970439898, 
			 "electric_quadrupole_moment_norm": 22.6971635644, 
			 "total_energy": -1048.00140785, 
			 "HOMO_LUMO_gap": 0.20675, 
			 "cosmo_polarized_energy": -15.39, 
			 "cosmo_cavitation_energy": 28.56, 
			 "cosmo_dispersion_energy": -22.11, 
			 "cosmo_repulsion_energy": 1.69, 
			 "cosmo_total_nonelectrostatic_energy": 8.14, 
			 "SMD_solvation_energy": 3.71 
		},
		"coords": [
			{
				"x": -0.518594183,
				"y": -1.6605223307,
				"z": 4.1775525316,
				"element": "O" 
			},
			{
				"x": 1.0547244663,
				"y": -1.1612771597,
				"z": 4.249917792,
				"element": "S" 
			},
			{
				"x": 1.8550650954,
				"y": -2.2488398273,
				"z": 4.8022546081,
				"element": "O" 
			},
			{
				"x": 1.0388853772,
				"y": 0.1562699525,
				"z": 4.8895895886,
				"element": "O" 
			},
			{
				"x": 1.3978089293,
				"y": -1.0039425374,
				"z": 2.5182373874,
				"element": "C" 
			},
			{
				"x": 1.1545493936,
				"y": 0.2134265696,
				"z": 1.8832982436,
				"element": "C" 
			},
			{
				"x": 1.4170935033,
				"y": 0.3683203042,
				"z": 0.5217436122,
				"element": "C" 
			},
			{
				"x": 1.9293982919,
				"y": -0.7382157932,
				"z": -0.1857724655,
				"element": "C" 
			},
			{
				"x": 2.2092396003,
				"y": -0.7049082686,
				"z": -1.516338899,
				"element": "O" 
			},
			{
				"x": 2.2128715437,
				"y": 0.5772518777,
				"z": -2.164013274,
				"element": "C" 
			},
			{
				"x": 1.049191251,
				"y": 1.4477703193,
				"z": -1.7079183548,
				"element": "C" 
			},
			{
				"x": 1.150894084,
				"y": 1.6765281007,
				"z": -0.195139374,
				"element": "C" 
			},
			{
				"x": 2.165099444,
				"y": -1.9627629268,
				"z": 0.4588542221,
				"element": "C" 
			},
			{
				"x": 1.9048681003,
				"y": -2.1009473206,
				"z": 1.8137695589,
				"element": "C" 
			},
			{
				"x": -0.9533640836,
				"y": -1.3002781312,
				"z": 4.9697618909,
				"element": "H" 
			},
			{
				"x": 0.7650565422,
				"y": 1.0483736254,
				"z": 2.4578403049,
				"element": "H" 
			},
			{
				"x": 3.1710151733,
				"y": 1.0738951457,
				"z": -1.9546619842,
				"element": "H" 
			},
			{
				"x": 2.1680644222,
				"y": 0.3548580306,
				"z": -3.2324660303,
				"element": "H" 
			},
			{
				"x": 0.1075274955,
				"y": 0.9440409976,
				"z": -1.9552113559,
				"element": "H" 
			},
			{
				"x": 1.0664939807,
				"y": 2.3978750953,
				"z": -2.2520209757,
				"element": "H" 
			},
			{
				"x": 1.9625798308,
				"y": 2.3868555944,
				"z": 0.0142888485,
				"element": "H" 
			},
			{
				"x": 0.2340916638,
				"y": 2.1341327275,
				"z": 0.1918256443,
				"element": "H" 
			},
			{
				"x": 2.5616182253,
				"y": -2.7854437639,
				"z": -0.1262740614,
				"element": "H" 
			},
			{
				"x": 2.1003218527,
				"y": -3.0346602809,
				"z": 2.3286825419,
				"element": "H" 
			}
		],
		 "valence_orbital": [ 
			{
				"type": "occ",
				"energy": -0.31648,
				"method": "rhf"
			},
			{
				"type": "occ",
				"energy": -0.31328,
				"method": "rhf"
			},
			{
				"type": "occ",
				"energy": -0.29334,
				"method": "rhf"
			},
			{
				"type": "occ",
				"energy": -0.26557,
				"method": "rhf"
			},
			{
				"type": "occ",
				"energy": -0.23848,
				"method": "rhf"
			},
			{
				"type": "unocc",
				"energy": -0.03173,
				"method": "rhf"
			},
			{
				"type": "unocc",
				"energy": -0.0218,
				"method": "rhf"
			},
			{
				"type": "unocc",
				"energy": 0.04646,
				"method": "rhf"
			},
			{
				"type": "unocc",
				"energy": 0.07547,
				"method": "rhf"
			},
			{
				"type": "unocc",
				"energy": 0.08214,
				"method": "rhf"
			}
		],
		"cosmo_sigma_profile": { 
			"-0.025": 0.0,
			"-0.024": 0.0,
			"-0.023": 0.0,
			"-0.022": 0.0,
			"-0.021": 0.0,
			"-0.02": 0.454460238357,
			"-0.019": 0.992669136089,
			"-0.018": 1.0840946989,
			"-0.017": 0.818748766435,
			"-0.016": 0.751078859465,
			"-0.015": 0.821016769084,
			"-0.014": 0.650119790224,
			"-0.013": 0.633492063417,
			"-0.012": 0.67500404686,
			"-0.011": 0.7026705383,
			"-0.01": 0.482627804795,
			"-0.009": 0.627865156193,
			"-0.008": 1.32435402381,
			"-0.007": 4.85462201623,
			"-0.006": 8.56393435513,
			"-0.005": 19.8341904061,
			"-0.004": 22.702528669,
			"-0.003": 21.5824162333,
			"-0.002": 16.7725285635,
			"-0.001": 13.9500785238,
			"0.0": 11.5453907357,
			"0.001": 11.505313888,
			"0.002": 17.1808423272,
			"0.003": 12.3031300872,
			"0.004": 6.84965929522,
			"0.005": 4.25614938655,
			"0.006": 4.00092095803,
			"0.007": 6.32347076604,
			"0.008": 8.0289401318,
			"0.009": 7.89162582296,
			"0.01": 11.9343776884,
			"0.011": 6.27837936003,
			"0.012": 0.101473896964,
			"0.013": 0.0,
			"0.014": 0.0,
			"0.015": 0.0,
			"0.016": 0.0,
			"0.017": 0.0,
			"0.018": 0.0,
			"0.019": 0.0,
			"0.02": 0.0,
			"0.021": 0.0,
			"0.022": 0.0,
			"0.023": 0.0,
			"0.024": 0.0,
			"0.025": 0.0
		}
	}
}
