{
	 "smiles": "CC1=NC2=C(C=CC=C2C(O)=O)C=C1", 
	 "Tm": 426.15, 
	 "num_atms": 23, 
	 "gaussian": { 
		 "optdone": 1, 
		 "sigma_profile": "yes", 
		 "theory": "DFT", 
		 "functional": "B3LYP", 
		 "basiset": "6-31G**", 
		 "properties": { 
			 "R2extent": 3789.6414, 
			 "electric_dipole_moment_norm": 3.4565004195, 
			 "electric_quadrupole_moment_norm": 13.5563660935, 
			 "total_energy": -629.820115277, 
			 "HOMO_LUMO_gap": 0.17359, 
			 "cosmo_polarized_energy": -13.55, 
			 "cosmo_cavitation_energy": 27.48, 
			 "cosmo_dispersion_energy": -20.18, 
			 "cosmo_repulsion_energy": 1.58, 
			 "cosmo_total_nonelectrostatic_energy": 8.88, 
			 "SMD_solvation_energy": 4.95 
		},
		"coords": [
			{
				"x": 1.6906070713,
				"y": 1.9356698046,
				"z": -1.9401808116,
				"element": "C" 
			},
			{
				"x": 0.8365387936,
				"y": 0.8872660387,
				"z": -1.2719575372,
				"element": "C" 
			},
			{
				"x": 1.2383859779,
				"y": -0.3672421973,
				"z": -1.3566076626,
				"element": "N" 
			},
			{
				"x": 0.4965628377,
				"y": -1.3491481165,
				"z": -0.7717229817,
				"element": "C" 
			},
			{
				"x": -0.7324365502,
				"y": -1.0617681485,
				"z": -0.0915019734,
				"element": "C" 
			},
			{
				"x": -1.5076211843,
				"y": -2.1116081311,
				"z": 0.4596569459,
				"element": "C" 
			},
			{
				"x": -1.0980036109,
				"y": -3.4200594823,
				"z": 0.3323618435,
				"element": "C" 
			},
			{
				"x": 0.107901073,
				"y": -3.7150856157,
				"z": -0.3343933342,
				"element": "C" 
			},
			{
				"x": 0.9152534342,
				"y": -2.7180215611,
				"z": -0.8602967476,
				"element": "C" 
			},
			{
				"x": 2.181573889,
				"y": -3.1954184028,
				"z": -1.4999298487,
				"element": "C" 
			},
			{
				"x": 3.2025884892,
				"y": -2.3169987267,
				"z": -1.4792499344,
				"element": "O" 
			},
			{
				"x": 2.3108843233,
				"y": -4.31807059,
				"z": -1.9548238415,
				"element": "O" 
			},
			{
				"x": -1.1315729884,
				"y": 0.2985844956,
				"z": -0.0118125005,
				"element": "C" 
			},
			{
				"x": -0.3553298605,
				"y": 1.2688444739,
				"z": -0.5889088507,
				"element": "C" 
			},
			{
				"x": 1.1234389963,
				"y": 2.4756600906,
				"z": -2.7075841564,
				"element": "H" 
			},
			{
				"x": 2.5561504215,
				"y": 1.4624237196,
				"z": -2.4051490918,
				"element": "H" 
			},
			{
				"x": 2.0386093152,
				"y": 2.6801238625,
				"z": -1.2143636191,
				"element": "H" 
			},
			{
				"x": -2.4330558455,
				"y": -1.8661696492,
				"z": 0.974937312,
				"element": "H" 
			},
			{
				"x": -1.6953930074,
				"y": -4.2274524012,
				"z": 0.7441857721,
				"element": "H" 
			},
			{
				"x": 0.4348419928,
				"y": -4.7434112175,
				"z": -0.444123631,
				"element": "H" 
			},
			{
				"x": 3.9442084052,
				"y": -2.78504871,
				"z": -1.8996510799,
				"element": "H" 
			},
			{
				"x": -2.0548336087,
				"y": 0.5510270387,
				"z": 0.5039690058,
				"element": "H" 
			},
			{
				"x": -0.6387983644,
				"y": 2.3162034257,
				"z": -0.5427532768,
				"element": "H" 
			}
		],
		 "valence_orbital": [ 
			{
				"type": "occ",
				"energy": -0.30377,
				"method": "rhf"
			},
			{
				"type": "occ",
				"energy": -0.26914,
				"method": "rhf"
			},
			{
				"type": "occ",
				"energy": -0.25151,
				"method": "rhf"
			},
			{
				"type": "occ",
				"energy": -0.24862,
				"method": "rhf"
			},
			{
				"type": "occ",
				"energy": -0.23787,
				"method": "rhf"
			},
			{
				"type": "unocc",
				"energy": -0.06428,
				"method": "rhf"
			},
			{
				"type": "unocc",
				"energy": -0.02221,
				"method": "rhf"
			},
			{
				"type": "unocc",
				"energy": -0.00884,
				"method": "rhf"
			},
			{
				"type": "unocc",
				"energy": 0.055,
				"method": "rhf"
			},
			{
				"type": "unocc",
				"energy": 0.08399,
				"method": "rhf"
			}
		],
		"cosmo_sigma_profile": { 
			"-0.025": 0.0,
			"-0.024": 0.0,
			"-0.023": 0.0,
			"-0.022": 0.0,
			"-0.021": 0.0,
			"-0.02": 0.0,
			"-0.019": 0.0,
			"-0.018": 0.588977313437,
			"-0.017": 0.637697566164,
			"-0.016": 1.1002629247,
			"-0.015": 0.849496140116,
			"-0.014": 0.667788732114,
			"-0.013": 0.437903098473,
			"-0.012": 0.169421962429,
			"-0.011": 1.63419078963,
			"-0.01": 0.790203968211,
			"-0.009": 0.394346691168,
			"-0.008": 1.32359226388,
			"-0.007": 8.4460603669,
			"-0.006": 10.8524022478,
			"-0.005": 14.6387993697,
			"-0.004": 16.1757489406,
			"-0.003": 14.438472416,
			"-0.002": 15.2296544249,
			"-0.001": 15.4907587076,
			"0.0": 17.7020553324,
			"0.001": 22.0827034014,
			"0.002": 21.8501346481,
			"0.003": 13.9145584649,
			"0.004": 4.46606496104,
			"0.005": 4.88882197421,
			"0.006": 3.53239713379,
			"0.007": 2.70002835682,
			"0.008": 3.58990602179,
			"0.009": 3.72577740379,
			"0.01": 2.87170168702,
			"0.011": 4.34509136662,
			"0.012": 5.85936968323,
			"0.013": 1.98173922376,
			"0.014": 0.766256141695,
			"0.015": 0.965463973867,
			"0.016": 0.711063609177,
			"0.017": 0.100634578692,
			"0.018": 0.0,
			"0.019": 0.0,
			"0.02": 0.0,
			"0.021": 0.0,
			"0.022": 0.0,
			"0.023": 0.0,
			"0.024": 0.0,
			"0.025": 0.0
		}
	}
}
