{
	 "smiles": "CCC1=CC(C2=CSC(N)=N2)=C(CC)C=C1", 
	 "Tm": 340.15, 
	 "num_atms": 32, 
	 "gaussian": { 
		 "optdone": 1, 
		 "sigma_profile": "yes", 
		 "theory": "DFT", 
		 "functional": "B3LYP", 
		 "basiset": "6-31G**", 
		 "properties": { 
			 "R2extent": 5454.4599, 
			 "electric_dipole_moment_norm": 1.83114940406, 
			 "electric_quadrupole_moment_norm": 15.3392206836, 
			 "total_energy": -1012.73595995, 
			 "HOMO_LUMO_gap": 0.18381, 
			 "cosmo_polarized_energy": -10.82, 
			 "cosmo_cavitation_energy": 36.35, 
			 "cosmo_dispersion_energy": -25.85, 
			 "cosmo_repulsion_energy": 2.02, 
			 "cosmo_total_nonelectrostatic_energy": 12.52, 
			 "SMD_solvation_energy": 4.81 
		},
		"coords": [
			{
				"x": -2.7559882719,
				"y": -0.6191913137,
				"z": -3.0839483012,
				"element": "C" 
			},
			{
				"x": -2.014830134,
				"y": -1.4919111713,
				"z": -2.0551142032,
				"element": "C" 
			},
			{
				"x": -1.4565611447,
				"y": -0.6932423303,
				"z": -0.8959608448,
				"element": "C" 
			},
			{
				"x": -0.1713342728,
				"y": -0.1462692122,
				"z": -0.9515252793,
				"element": "C" 
			},
			{
				"x": 0.3630383451,
				"y": 0.6360372178,
				"z": 0.0850766006,
				"element": "C" 
			},
			{
				"x": 1.749263773,
				"y": 1.1428122367,
				"z": -0.0755059894,
				"element": "C" 
			},
			{
				"x": 2.7871442662,
				"y": 0.388753856,
				"z": -0.5505899488,
				"element": "C" 
			},
			{
				"x": 4.247564272,
				"y": 1.342490252,
				"z": -0.6459660792,
				"element": "S" 
			},
			{
				"x": 3.3162107865,
				"y": 2.7176418564,
				"z": -0.0354454613,
				"element": "C" 
			},
			{
				"x": 3.920654579,
				"y": 3.9307187024,
				"z": 0.2128651847,
				"element": "N" 
			},
			{
				"x": 2.0651105437,
				"y": 2.4659510443,
				"z": 0.2107516438,
				"element": "N" 
			},
			{
				"x": -0.4222664078,
				"y": 0.8934942254,
				"z": 1.2344072101,
				"element": "C" 
			},
			{
				"x": 0.0943355367,
				"y": 1.6645966688,
				"z": 2.4333550474,
				"element": "C" 
			},
			{
				"x": 1.0270470134,
				"y": 0.8268494118,
				"z": 3.3274827946,
				"element": "C" 
			},
			{
				"x": -1.7108386334,
				"y": 0.3473514752,
				"z": 1.2786728588,
				"element": "C" 
			},
			{
				"x": -2.2245114775,
				"y": -0.4311618361,
				"z": 0.2430600552,
				"element": "C" 
			},
			{
				"x": -3.5968671632,
				"y": -0.0944866904,
				"z": -2.6187750908,
				"element": "H" 
			},
			{
				"x": -3.1476190662,
				"y": -1.2271655945,
				"z": -3.9066074782,
				"element": "H" 
			},
			{
				"x": -2.0883817205,
				"y": 0.1378274085,
				"z": -3.5081377126,
				"element": "H" 
			},
			{
				"x": -1.1999477653,
				"y": -2.0269920792,
				"z": -2.5576250289,
				"element": "H" 
			},
			{
				"x": -2.7001783688,
				"y": -2.2583268799,
				"z": -1.6730158383,
				"element": "H" 
			},
			{
				"x": 0.4358686718,
				"y": -0.3121349367,
				"z": -1.8381846189,
				"element": "H" 
			},
			{
				"x": 2.7889471467,
				"y": -0.6549660809,
				"z": -0.8266685151,
				"element": "H" 
			},
			{
				"x": 3.252186696,
				"y": 4.6756377504,
				"z": 0.3623029836,
				"element": "H" 
			},
			{
				"x": 4.6867916144,
				"y": 4.1883523624,
				"z": -0.3930146476,
				"element": "H" 
			},
			{
				"x": -0.7639278141,
				"y": 2.0008341962,
				"z": 3.0270059855,
				"element": "H" 
			},
			{
				"x": 0.6262041821,
				"y": 2.5575957374,
				"z": 2.0973409971,
				"element": "H" 
			},
			{
				"x": 1.3714953385,
				"y": 1.413181147,
				"z": 4.1861399309,
				"element": "H" 
			},
			{
				"x": 0.5148967371,
				"y": -0.0636406628,
				"z": 3.7073477744,
				"element": "H" 
			},
			{
				"x": 1.9093214366,
				"y": 0.4931105146,
				"z": 2.772750885,
				"element": "H" 
			},
			{
				"x": -2.323245103,
				"y": 0.5322721659,
				"z": 2.1583275601,
				"element": "H" 
			},
			{
				"x": -3.2309835956,
				"y": -0.8364194412,
				"z": 0.3210975256,
				"element": "H" 
			}
		],
		 "valence_orbital": [ 
			{
				"type": "occ",
				"energy": -0.27617,
				"method": "rhf"
			},
			{
				"type": "occ",
				"energy": -0.26882,
				"method": "rhf"
			},
			{
				"type": "occ",
				"energy": -0.24238,
				"method": "rhf"
			},
			{
				"type": "occ",
				"energy": -0.2262,
				"method": "rhf"
			},
			{
				"type": "occ",
				"energy": -0.20182,
				"method": "rhf"
			},
			{
				"type": "unocc",
				"energy": -0.01801,
				"method": "rhf"
			},
			{
				"type": "unocc",
				"energy": 0.0077,
				"method": "rhf"
			},
			{
				"type": "unocc",
				"energy": 0.01243,
				"method": "rhf"
			},
			{
				"type": "unocc",
				"energy": 0.01568,
				"method": "rhf"
			},
			{
				"type": "unocc",
				"energy": 0.06993,
				"method": "rhf"
			}
		],
		"cosmo_sigma_profile": { 
			"-0.025": 0.0,
			"-0.024": 0.0,
			"-0.023": 0.0,
			"-0.022": 0.0,
			"-0.021": 0.0,
			"-0.02": 0.0,
			"-0.019": 0.0,
			"-0.018": 0.0,
			"-0.017": 0.0,
			"-0.016": 0.0,
			"-0.015": 0.230952911159,
			"-0.014": 1.8196306389,
			"-0.013": 2.23074974539,
			"-0.012": 2.87541269356,
			"-0.011": 3.18012905464,
			"-0.01": 2.27670342314,
			"-0.009": 1.69844096205,
			"-0.008": 2.8969019914,
			"-0.007": 3.7991504782,
			"-0.006": 3.25120618275,
			"-0.005": 6.9642567549,
			"-0.004": 12.292612133,
			"-0.003": 24.1007566439,
			"-0.002": 24.4323415681,
			"-0.001": 29.8522715558,
			"0.0": 31.6819785637,
			"0.001": 35.7786190302,
			"0.002": 23.937862682,
			"0.003": 19.4153226165,
			"0.004": 18.9443080663,
			"0.005": 13.1506956853,
			"0.006": 11.714851112,
			"0.007": 4.04446546939,
			"0.008": 1.84535986463,
			"0.009": 1.20281112152,
			"0.01": 1.78493911269,
			"0.011": 1.34922231772,
			"0.012": 1.27631346044,
			"0.013": 0.443749586484,
			"0.014": 0.35000291104,
			"0.015": 0.050864052136,
			"0.016": 0.0,
			"0.017": 0.0,
			"0.018": 0.0,
			"0.019": 0.0,
			"0.02": 0.0,
			"0.021": 0.0,
			"0.022": 0.0,
			"0.023": 0.0,
			"0.024": 0.0,
			"0.025": 0.0
		}
	}
}
