{
	 "smiles": "OC(=O)C1=C(C=CS1)N1C=CC=C1", 
	 "Tm": 439.15, 
	 "num_atms": 20, 
	 "gaussian": { 
		 "optdone": 1, 
		 "sigma_profile": "yes", 
		 "theory": "DFT", 
		 "functional": "B3LYP", 
		 "basiset": "6-31G**", 
		 "properties": { 
			 "R2extent": 3023.2045, 
			 "electric_dipole_moment_norm": 1.87843671174, 
			 "electric_quadrupole_moment_norm": 13.9172335013, 
			 "total_energy": -950.540340358, 
			 "HOMO_LUMO_gap": 0.14943, 
			 "cosmo_polarized_energy": -12.06, 
			 "cosmo_cavitation_energy": 26.27, 
			 "cosmo_dispersion_energy": -19.68, 
			 "cosmo_repulsion_energy": 1.5, 
			 "cosmo_total_nonelectrostatic_energy": 8.09, 
			 "SMD_solvation_energy": 6.46 
		},
		"coords": [
			{
				"x": 1.1054779043,
				"y": -2.0699461932,
				"z": 0.9850049064,
				"element": "O" 
			},
			{
				"x": 1.659079333,
				"y": -0.8899798233,
				"z": 1.3436556859,
				"element": "C" 
			},
			{
				"x": 2.2282700246,
				"y": -0.7351033645,
				"z": 2.4099269085,
				"element": "O" 
			},
			{
				"x": 1.5386993249,
				"y": 0.1697320699,
				"z": 0.3353118711,
				"element": "C" 
			},
			{
				"x": 0.9719136574,
				"y": 0.2389259841,
				"z": -0.9333135161,
				"element": "C" 
			},
			{
				"x": 1.2445512918,
				"y": 1.4829002592,
				"z": -1.5821757577,
				"element": "C" 
			},
			{
				"x": 1.9909900008,
				"y": 2.329136855,
				"z": -0.8099255257,
				"element": "C" 
			},
			{
				"x": 2.3784113639,
				"y": 1.6522344671,
				"z": 0.7243209301,
				"element": "S" 
			},
			{
				"x": 0.1958864272,
				"y": -0.7439566367,
				"z": -1.5740380372,
				"element": "N" 
			},
			{
				"x": -0.8887717603,
				"y": -1.4301661869,
				"z": -1.047270843,
				"element": "C" 
			},
			{
				"x": -1.4478745862,
				"y": -2.1827906427,
				"z": -2.0483777314,
				"element": "C" 
			},
			{
				"x": -0.6863889931,
				"y": -1.9554342669,
				"z": -3.2361614671,
				"element": "C" 
			},
			{
				"x": 0.3061737561,
				"y": -1.0618014312,
				"z": -2.9234789723,
				"element": "C" 
			},
			{
				"x": 1.2828564953,
				"y": -2.6756437342,
				"z": 1.7241197476,
				"element": "H" 
			},
			{
				"x": 0.8623928347,
				"y": 1.7281678456,
				"z": -2.5653324987,
				"element": "H" 
			},
			{
				"x": 2.3110283704,
				"y": 3.332436057,
				"z": -1.0565852817,
				"element": "H" 
			},
			{
				"x": -1.160892791,
				"y": -1.3078415243,
				"z": -0.0121604272,
				"element": "H" 
			},
			{
				"x": -2.3119347944,
				"y": -2.8239629221,
				"z": -1.9448751177,
				"element": "H" 
			},
			{
				"x": -0.8460573073,
				"y": -2.4057882322,
				"z": -4.2058231497,
				"element": "H" 
			},
			{
				"x": 1.1073894479,
				"y": -0.6490185797,
				"z": -3.517221724,
				"element": "H" 
			}
		],
		 "valence_orbital": [ 
			{
				"type": "occ",
				"energy": -0.28435,
				"method": "rhf"
			},
			{
				"type": "occ",
				"energy": -0.28206,
				"method": "rhf"
			},
			{
				"type": "occ",
				"energy": -0.25954,
				"method": "rhf"
			},
			{
				"type": "occ",
				"energy": -0.2284,
				"method": "rhf"
			},
			{
				"type": "occ",
				"energy": -0.21294,
				"method": "rhf"
			},
			{
				"type": "unocc",
				"energy": -0.06351,
				"method": "rhf"
			},
			{
				"type": "unocc",
				"energy": 0.01305,
				"method": "rhf"
			},
			{
				"type": "unocc",
				"energy": 0.01932,
				"method": "rhf"
			},
			{
				"type": "unocc",
				"energy": 0.04017,
				"method": "rhf"
			},
			{
				"type": "unocc",
				"energy": 0.07372,
				"method": "rhf"
			}
		],
		"cosmo_sigma_profile": { 
			"-0.025": 0.0,
			"-0.024": 0.0,
			"-0.023": 0.0,
			"-0.022": 0.0,
			"-0.021": 0.0,
			"-0.02": 0.0,
			"-0.019": 0.067912932373,
			"-0.018": 0.970503621412,
			"-0.017": 0.96253589024,
			"-0.016": 0.683890290172,
			"-0.015": 1.15706336981,
			"-0.014": 0.574418581549,
			"-0.013": 0.263184865722,
			"-0.012": 0.704711157608,
			"-0.011": 1.08072250046,
			"-0.01": 1.75371300975,
			"-0.009": 2.58395153595,
			"-0.008": 4.48686982401,
			"-0.007": 8.06635326225,
			"-0.006": 9.69546605386,
			"-0.005": 12.6546847108,
			"-0.004": 9.16780730214,
			"-0.003": 11.8329099136,
			"-0.002": 14.2530607557,
			"-0.001": 14.3794866403,
			"0.0": 16.0680326441,
			"0.001": 18.7864821515,
			"0.002": 18.1666865316,
			"0.003": 14.660935056,
			"0.004": 7.70131802822,
			"0.005": 7.09809942713,
			"0.006": 6.16694520321,
			"0.007": 8.82928649031,
			"0.008": 6.88088475078,
			"0.009": 3.51514070839,
			"0.01": 2.14822166156,
			"0.011": 4.45378830222,
			"0.012": 3.57192063152,
			"0.013": 0.040380760884,
			"0.014": 0.0,
			"0.015": 0.0,
			"0.016": 0.0,
			"0.017": 0.0,
			"0.018": 0.0,
			"0.019": 0.0,
			"0.02": 0.0,
			"0.021": 0.0,
			"0.022": 0.0,
			"0.023": 0.0,
			"0.024": 0.0,
			"0.025": 0.0
		}
	}
}
