{
	 "smiles": "CCOC(=O)CSC1=NC(=NN1C(=O)N(C)C)C(C)(C)C", 
	 "Tm": 326.15, 
	 "num_atms": 43, 
	 "gaussian": { 
		 "optdone": 1, 
		 "sigma_profile": "yes", 
		 "theory": "DFT", 
		 "functional": "B3LYP", 
		 "basiset": "6-31G**", 
		 "properties": { 
			 "R2extent": 10124.438, 
			 "electric_dipole_moment_norm": 4.55003236142, 
			 "electric_quadrupole_moment_norm": 18.7719189919, 
			 "total_energy": -1351.52660606, 
			 "HOMO_LUMO_gap": 0.2156, 
			 "cosmo_polarized_energy": -18.16, 
			 "cosmo_cavitation_energy": 47.67, 
			 "cosmo_dispersion_energy": -32.48, 
			 "cosmo_repulsion_energy": 2.56, 
			 "cosmo_total_nonelectrostatic_energy": 17.75, 
			 "SMD_solvation_energy": 9.02 
		},
		"coords": [
			{
				"x": -4.710261451,
				"y": 4.5391401755,
				"z": 2.2788314291,
				"element": "C" 
			},
			{
				"x": -4.2585270869,
				"y": 4.2609034226,
				"z": 0.8586105557,
				"element": "C" 
			},
			{
				"x": -3.1377354901,
				"y": 3.3420089332,
				"z": 0.9314503289,
				"element": "O" 
			},
			{
				"x": -2.5942593045,
				"y": 2.9847148328,
				"z": -0.2441658316,
				"element": "C" 
			},
			{
				"x": -2.9767211091,
				"y": 3.3733747814,
				"z": -1.3267198432,
				"element": "O" 
			},
			{
				"x": -1.4399000912,
				"y": 2.0290332859,
				"z": -0.0150131081,
				"element": "C" 
			},
			{
				"x": -0.7105426693,
				"y": 1.5968404864,
				"z": -1.6376828999,
				"element": "S" 
			},
			{
				"x": 0.5027605156,
				"y": 0.4660492882,
				"z": -1.0370629875,
				"element": "C" 
			},
			{
				"x": 0.6559420778,
				"y": 0.0613343367,
				"z": 0.2074656396,
				"element": "N" 
			},
			{
				"x": 1.7529126713,
				"y": -0.7714650806,
				"z": 0.1424724796,
				"element": "C" 
			},
			{
				"x": 2.2778862716,
				"y": -0.8903162977,
				"z": -1.0610723957,
				"element": "N" 
			},
			{
				"x": 1.454751897,
				"y": -0.1118168923,
				"z": -1.838120366,
				"element": "N" 
			},
			{
				"x": 1.8567237337,
				"y": 0.2250235479,
				"z": -3.1895152456,
				"element": "C" 
			},
			{
				"x": 2.9769132141,
				"y": 0.6317729034,
				"z": -3.4162205485,
				"element": "O" 
			},
			{
				"x": 0.8550038503,
				"y": 0.1013179253,
				"z": -4.1112596798,
				"element": "N" 
			},
			{
				"x": -0.2629165859,
				"y": -0.8339329718,
				"z": -4.0055209676,
				"element": "C" 
			},
			{
				"x": 1.1282184949,
				"y": 0.6004970074,
				"z": -5.4556045549,
				"element": "C" 
			},
			{
				"x": 2.2915559768,
				"y": -1.4822092439,
				"z": 1.3657798479,
				"element": "C" 
			},
			{
				"x": 3.5234657459,
				"y": -2.3258929508,
				"z": 0.9963714627,
				"element": "C" 
			},
			{
				"x": 1.1813015413,
				"y": -2.39183392,
				"z": 1.9389618747,
				"element": "C" 
			},
			{
				"x": 2.6772747462,
				"y": -0.4195725001,
				"z": 2.4197017996,
				"element": "C" 
			},
			{
				"x": -5.0247775053,
				"y": 3.6181178321,
				"z": 2.7776955378,
				"element": "H" 
			},
			{
				"x": -5.5579698782,
				"y": 5.2311121995,
				"z": 2.2670747273,
				"element": "H" 
			},
			{
				"x": -3.9050146424,
				"y": 4.9914831909,
				"z": 2.8644723904,
				"element": "H" 
			},
			{
				"x": -5.0476473773,
				"y": 3.8017602346,
				"z": 0.2553274864,
				"element": "H" 
			},
			{
				"x": -3.9323847959,
				"y": 5.168686009,
				"z": 0.3420618252,
				"element": "H" 
			},
			{
				"x": -0.6868290427,
				"y": 2.4900408359,
				"z": 0.6283295564,
				"element": "H" 
			},
			{
				"x": -1.7851531337,
				"y": 1.1268007993,
				"z": 0.4946901359,
				"element": "H" 
			},
			{
				"x": -0.296870461,
				"y": -1.2819798382,
				"z": -3.0147151285,
				"element": "H" 
			},
			{
				"x": -0.1442498087,
				"y": -1.6360488774,
				"z": -4.7452930508,
				"element": "H" 
			},
			{
				"x": -1.210521779,
				"y": -0.3199762385,
				"z": -4.1933865659,
				"element": "H" 
			},
			{
				"x": 1.883574833,
				"y": 1.3825957557,
				"z": -5.4010351373,
				"element": "H" 
			},
			{
				"x": 0.2046318609,
				"y": 1.0035344781,
				"z": -5.8815053408,
				"element": "H" 
			},
			{
				"x": 1.4990386071,
				"y": -0.2003397745,
				"z": -6.1085477328,
				"element": "H" 
			},
			{
				"x": 4.3209435832,
				"y": -1.7038802646,
				"z": 0.5808758715,
				"element": "H" 
			},
			{
				"x": 3.2759303116,
				"y": -3.086032189,
				"z": 0.2501127372,
				"element": "H" 
			},
			{
				"x": 3.9072336999,
				"y": -2.8307783168,
				"z": 1.8892434081,
				"element": "H" 
			},
			{
				"x": 1.5319989465,
				"y": -2.8865045335,
				"z": 2.8513374073,
				"element": "H" 
			},
			{
				"x": 0.2871521168,
				"y": -1.811048165,
				"z": 2.1821587785,
				"element": "H" 
			},
			{
				"x": 0.8989709523,
				"y": -3.168486949,
				"z": 1.2201423359,
				"element": "H" 
			},
			{
				"x": 3.4768691824,
				"y": 0.2294423341,
				"z": 2.0478735034,
				"element": "H" 
			},
			{
				"x": 3.0326754725,
				"y": -0.9075055191,
				"z": 3.333897317,
				"element": "H" 
			},
			{
				"x": 1.8188519095,
				"y": 0.2084359269,
				"z": 2.6735029484,
				"element": "H" 
			}
		],
		 "valence_orbital": [ 
			{
				"type": "occ",
				"energy": -0.28771,
				"method": "rhf"
			},
			{
				"type": "occ",
				"energy": -0.27439,
				"method": "rhf"
			},
			{
				"type": "occ",
				"energy": -0.26733,
				"method": "rhf"
			},
			{
				"type": "occ",
				"energy": -0.25565,
				"method": "rhf"
			},
			{
				"type": "occ",
				"energy": -0.22971,
				"method": "rhf"
			},
			{
				"type": "unocc",
				"energy": -0.01411,
				"method": "rhf"
			},
			{
				"type": "unocc",
				"energy": -0.0011,
				"method": "rhf"
			},
			{
				"type": "unocc",
				"energy": 0.01683,
				"method": "rhf"
			},
			{
				"type": "unocc",
				"energy": 0.03036,
				"method": "rhf"
			},
			{
				"type": "unocc",
				"energy": 0.0521,
				"method": "rhf"
			}
		],
		"cosmo_sigma_profile": { 
			"-0.025": 0.0,
			"-0.024": 0.0,
			"-0.023": 0.0,
			"-0.022": 0.0,
			"-0.021": 0.0,
			"-0.02": 0.0,
			"-0.019": 0.0,
			"-0.018": 0.0,
			"-0.017": 0.0,
			"-0.016": 0.0,
			"-0.015": 0.0,
			"-0.014": 0.0,
			"-0.013": 0.0,
			"-0.012": 0.0,
			"-0.011": 0.0,
			"-0.01": 0.0,
			"-0.009": 1.13589757794,
			"-0.008": 3.60678354553,
			"-0.007": 3.78158016711,
			"-0.006": 14.1475876672,
			"-0.005": 25.2125648483,
			"-0.004": 34.0002452671,
			"-0.003": 48.6838224719,
			"-0.002": 41.5326809565,
			"-0.001": 35.791095311,
			"0.0": 35.7323889635,
			"0.001": 32.0311742893,
			"0.002": 14.2021975937,
			"0.003": 11.6536905355,
			"0.004": 9.97379074968,
			"0.005": 11.0176599232,
			"0.006": 8.33790951945,
			"0.007": 7.14319641396,
			"0.008": 5.36253789937,
			"0.009": 5.40801244884,
			"0.01": 6.00642025015,
			"0.011": 8.72011600584,
			"0.012": 7.18039726222,
			"0.013": 3.59892889301,
			"0.014": 0.814286618661,
			"0.015": 0.0,
			"0.016": 0.0,
			"0.017": 0.0,
			"0.018": 0.0,
			"0.019": 0.0,
			"0.02": 0.0,
			"0.021": 0.0,
			"0.022": 0.0,
			"0.023": 0.0,
			"0.024": 0.0,
			"0.025": 0.0
		}
	}
}
