{
	 "smiles": "CC(=O)NNC(C)=O", 
	 "Tm": 413.15, 
	 "num_atms": 16, 
	 "gaussian": { 
		 "optdone": 1, 
		 "sigma_profile": "yes", 
		 "theory": "DFT", 
		 "functional": "B3LYP", 
		 "basiset": "6-31G**", 
		 "properties": { 
			 "R2extent": 1231.9176, 
			 "electric_dipole_moment_norm": 5.53486792977, 
			 "electric_quadrupole_moment_norm": 7.73985038357, 
			 "total_energy": -417.196229721, 
			 "HOMO_LUMO_gap": 0.25884, 
			 "cosmo_polarized_energy": -17.9, 
			 "cosmo_cavitation_energy": 20.39, 
			 "cosmo_dispersion_energy": -14.55, 
			 "cosmo_repulsion_energy": 1.25, 
			 "cosmo_total_nonelectrostatic_energy": 7.1, 
			 "SMD_solvation_energy": 5.9 
		},
		"coords": [
			{
				"x": 1.8134699614,
				"y": -1.134542894,
				"z": -0.8410515799,
				"element": "C" 
			},
			{
				"x": 1.4472050806,
				"y": -0.0067412643,
				"z": 0.0991105929,
				"element": "C" 
			},
			{
				"x": 1.8958272396,
				"y": 0.1170419807,
				"z": 1.2227359082,
				"element": "O" 
			},
			{
				"x": 0.565088224,
				"y": 0.96066395,
				"z": -0.3926583533,
				"element": "N" 
			},
			{
				"x": -0.2400415277,
				"y": 0.7189593085,
				"z": -1.4911224109,
				"element": "N" 
			},
			{
				"x": -1.3702365878,
				"y": -0.0750547205,
				"z": -1.4027592205,
				"element": "C" 
			},
			{
				"x": -2.2183040251,
				"y": -0.1020811558,
				"z": -2.6622580217,
				"element": "C" 
			},
			{
				"x": -1.6424945678,
				"y": -0.7020846486,
				"z": -0.3949029275,
				"element": "O" 
			},
			{
				"x": 2.6914911504,
				"y": -1.6385646483,
				"z": -0.4378490182,
				"element": "H" 
			},
			{
				"x": 2.0146536272,
				"y": -0.7775601522,
				"z": -1.8544810286,
				"element": "H" 
			},
			{
				"x": 0.9833555736,
				"y": -1.8464528658,
				"z": -0.8921337798,
				"element": "H" 
			},
			{
				"x": 0.1439817273,
				"y": 1.5149780711,
				"z": 0.3475660408,
				"element": "H" 
			},
			{
				"x": -0.0846650501,
				"y": 1.3095414433,
				"z": -2.2960297526,
				"element": "H" 
			},
			{
				"x": -1.7559469852,
				"y": 0.4005228818,
				"z": -3.5162506919,
				"element": "H" 
			},
			{
				"x": -3.1796183183,
				"y": 0.3747463432,
				"z": -2.4493377779,
				"element": "H" 
			},
			{
				"x": -2.4196655222,
				"y": -1.1431716291,
				"z": -2.924377979,
				"element": "H" 
			}
		],
		 "valence_orbital": [ 
			{
				"type": "occ",
				"energy": -0.36555,
				"method": "rhf"
			},
			{
				"type": "occ",
				"energy": -0.29054,
				"method": "rhf"
			},
			{
				"type": "occ",
				"energy": -0.27981,
				"method": "rhf"
			},
			{
				"type": "occ",
				"energy": -0.26385,
				"method": "rhf"
			},
			{
				"type": "occ",
				"energy": -0.25073,
				"method": "rhf"
			},
			{
				"type": "unocc",
				"energy": 0.00811,
				"method": "rhf"
			},
			{
				"type": "unocc",
				"energy": 0.01919,
				"method": "rhf"
			},
			{
				"type": "unocc",
				"energy": 0.0591,
				"method": "rhf"
			},
			{
				"type": "unocc",
				"energy": 0.10278,
				"method": "rhf"
			},
			{
				"type": "unocc",
				"energy": 0.11643,
				"method": "rhf"
			}
		],
		"cosmo_sigma_profile": { 
			"-0.025": 0.0,
			"-0.024": 0.0,
			"-0.023": 0.0,
			"-0.022": 0.0,
			"-0.021": 0.0,
			"-0.02": 0.0,
			"-0.019": 0.0,
			"-0.018": 0.0,
			"-0.017": 0.0,
			"-0.016": 0.0931690303334,
			"-0.015": 1.22328210713,
			"-0.014": 1.80000378521,
			"-0.013": 2.49515541656,
			"-0.012": 1.9421140672,
			"-0.011": 2.61355130015,
			"-0.01": 1.58687806511,
			"-0.009": 2.50585426858,
			"-0.008": 1.7698311747,
			"-0.007": 3.2631089743,
			"-0.006": 8.44239210638,
			"-0.005": 11.1115863804,
			"-0.004": 15.1439559849,
			"-0.003": 14.76253606,
			"-0.002": 17.9137226454,
			"-0.001": 12.4120852962,
			"0.0": 5.71657337982,
			"0.001": 3.62325176389,
			"0.002": 2.44096807456,
			"0.003": 4.19051547504,
			"0.004": 3.46112595677,
			"0.005": 3.714553265,
			"0.006": 3.41800741038,
			"0.007": 3.59155624995,
			"0.008": 1.85780256955,
			"0.009": 2.29198007435,
			"0.01": 3.28631146568,
			"0.011": 3.87643633845,
			"0.012": 5.84675216259,
			"0.013": 10.0904363336,
			"0.014": 3.49996504727,
			"0.015": 0.0940971165428,
			"0.016": 0.0,
			"0.017": 0.0,
			"0.018": 0.0,
			"0.019": 0.0,
			"0.02": 0.0,
			"0.021": 0.0,
			"0.022": 0.0,
			"0.023": 0.0,
			"0.024": 0.0,
			"0.025": 0.0
		}
	}
}
