{
	 "smiles": "OC(=O)C1CCCN1C(=O)C1=CN=CN1C1=CC=CC=C1", 
	 "Tm": 407.15, 
	 "num_atms": 36, 
	 "gaussian": { 
		 "optdone": 1, 
		 "sigma_profile": "yes", 
		 "theory": "DFT", 
		 "functional": "B3LYP", 
		 "basiset": "6-31G**", 
		 "properties": { 
			 "R2extent": 6612.6927, 
			 "electric_dipole_moment_norm": 5.83691336924, 
			 "electric_quadrupole_moment_norm": 19.0435421976, 
			 "total_energy": -970.576575777, 
			 "HOMO_LUMO_gap": 0.20371, 
			 "cosmo_polarized_energy": -20.56, 
			 "cosmo_cavitation_energy": 38.94, 
			 "cosmo_dispersion_energy": -27.1, 
			 "cosmo_repulsion_energy": 2.06, 
			 "cosmo_total_nonelectrostatic_energy": 13.9, 
			 "SMD_solvation_energy": 6.42 
		},
		"coords": [
			{
				"x": -3.6155871298,
				"y": 0.4411723781,
				"z": 0.2401525318,
				"element": "O" 
			},
			{
				"x": -3.3703823345,
				"y": -0.606654286,
				"z": -0.5732939297,
				"element": "C" 
			},
			{
				"x": -4.2178258819,
				"y": -1.4168197693,
				"z": -0.8565425383,
				"element": "O" 
			},
			{
				"x": -1.9299944319,
				"y": -0.7003094781,
				"z": -1.1189852773,
				"element": "C" 
			},
			{
				"x": -1.9431127476,
				"y": -0.6880079879,
				"z": -2.658605851,
				"element": "C" 
			},
			{
				"x": -1.9434876015,
				"y": 0.8154258603,
				"z": -2.974025645,
				"element": "C" 
			},
			{
				"x": -0.9896194033,
				"y": 1.4005780412,
				"z": -1.9229860955,
				"element": "C" 
			},
			{
				"x": -1.1072893286,
				"y": 0.4778457605,
				"z": -0.7580570798,
				"element": "N" 
			},
			{
				"x": -0.0072541673,
				"y": 0.4430018936,
				"z": 0.1019613298,
				"element": "C" 
			},
			{
				"x": 0.9067768981,
				"y": 1.2518902929,
				"z": -0.0334603665,
				"element": "O" 
			},
			{
				"x": -0.0307710117,
				"y": -0.5439786867,
				"z": 1.2012579613,
				"element": "C" 
			},
			{
				"x": -1.0665293897,
				"y": -1.0180868346,
				"z": 1.9906985968,
				"element": "C" 
			},
			{
				"x": -0.6026022037,
				"y": -1.8280965757,
				"z": 2.987561954,
				"element": "N" 
			},
			{
				"x": 0.7027091476,
				"y": -1.864141305,
				"z": 2.8124904106,
				"element": "C" 
			},
			{
				"x": 1.1255443391,
				"y": -1.0964072984,
				"z": 1.7629866325,
				"element": "N" 
			},
			{
				"x": 2.4908250746,
				"y": -1.0616789987,
				"z": 1.3152336226,
				"element": "C" 
			},
			{
				"x": 3.0876668107,
				"y": -2.2608396199,
				"z": 0.9144345378,
				"element": "C" 
			},
			{
				"x": 4.4330565013,
				"y": -2.2731972202,
				"z": 0.543901232,
				"element": "C" 
			},
			{
				"x": 5.1748707302,
				"y": -1.0917450884,
				"z": 0.5697506125,
				"element": "C" 
			},
			{
				"x": 4.5696812695,
				"y": 0.1024316013,
				"z": 0.9692132551,
				"element": "C" 
			},
			{
				"x": 3.2284923801,
				"y": 0.1245063849,
				"z": 1.3486681119,
				"element": "C" 
			},
			{
				"x": -2.7894092169,
				"y": 0.9605172669,
				"z": 0.2854102585,
				"element": "H" 
			},
			{
				"x": -1.4974015588,
				"y": -1.6145964847,
				"z": -0.7075353486,
				"element": "H" 
			},
			{
				"x": -2.8054718418,
				"y": -1.2289944804,
				"z": -3.0513340881,
				"element": "H" 
			},
			{
				"x": -1.0305609251,
				"y": -1.1618146574,
				"z": -3.0356620577,
				"element": "H" 
			},
			{
				"x": -2.9531528667,
				"y": 1.2244043135,
				"z": -2.8540475939,
				"element": "H" 
			},
			{
				"x": -1.6141319444,
				"y": 1.0426674534,
				"z": -3.9908612622,
				"element": "H" 
			},
			{
				"x": 0.0507324528,
				"y": 1.4033435633,
				"z": -2.261192868,
				"element": "H" 
			},
			{
				"x": -1.2378991624,
				"y": 2.4242112982,
				"z": -1.6296747989,
				"element": "H" 
			},
			{
				"x": -2.1178150231,
				"y": -0.7788023254,
				"z": 1.9103109135,
				"element": "H" 
			},
			{
				"x": 1.4074851714,
				"y": -2.4231411667,
				"z": 3.4128856911,
				"element": "H" 
			},
			{
				"x": 2.4961915691,
				"y": -3.1708539944,
				"z": 0.887939148,
				"element": "H" 
			},
			{
				"x": 4.8958779538,
				"y": -3.2046425662,
				"z": 0.2322349606,
				"element": "H" 
			},
			{
				"x": 6.2210537682,
				"y": -1.1001729106,
				"z": 0.2787007374,
				"element": "H" 
			},
			{
				"x": 5.1443966774,
				"y": 1.0233378909,
				"z": 0.9904026867,
				"element": "H" 
			},
			{
				"x": 2.7450374268,
				"y": 1.0453477355,
				"z": 1.6465696157,
				"element": "H" 
			}
		],
		 "valence_orbital": [ 
			{
				"type": "occ",
				"energy": -0.27318,
				"method": "rhf"
			},
			{
				"type": "occ",
				"energy": -0.26542,
				"method": "rhf"
			},
			{
				"type": "occ",
				"energy": -0.25634,
				"method": "rhf"
			},
			{
				"type": "occ",
				"energy": -0.25581,
				"method": "rhf"
			},
			{
				"type": "occ",
				"energy": -0.24552,
				"method": "rhf"
			},
			{
				"type": "unocc",
				"energy": -0.04181,
				"method": "rhf"
			},
			{
				"type": "unocc",
				"energy": -0.01958,
				"method": "rhf"
			},
			{
				"type": "unocc",
				"energy": -0.01692,
				"method": "rhf"
			},
			{
				"type": "unocc",
				"energy": 0.0036,
				"method": "rhf"
			},
			{
				"type": "unocc",
				"energy": 0.03081,
				"method": "rhf"
			}
		],
		"cosmo_sigma_profile": { 
			"-0.025": 0.0,
			"-0.024": 0.0,
			"-0.023": 0.0,
			"-0.022": 0.0,
			"-0.021": 0.0,
			"-0.02": 0.0,
			"-0.019": 0.0,
			"-0.018": 0.0,
			"-0.017": 0.0,
			"-0.016": 0.0,
			"-0.015": 0.157867040942,
			"-0.014": 0.753855619088,
			"-0.013": 0.835881795798,
			"-0.012": 1.18390479597,
			"-0.011": 1.73014119406,
			"-0.01": 1.65578194783,
			"-0.009": 2.78720630403,
			"-0.008": 3.36340769425,
			"-0.007": 8.93126246225,
			"-0.006": 19.3534781056,
			"-0.005": 31.2806164399,
			"-0.004": 31.5623060172,
			"-0.003": 26.0326573933,
			"-0.002": 24.5756121161,
			"-0.001": 20.4925094419,
			"0.0": 15.3153042627,
			"0.001": 14.0842528458,
			"0.002": 13.0062980617,
			"0.003": 12.9479310756,
			"0.004": 15.7599989778,
			"0.005": 9.49381144704,
			"0.006": 5.07178244422,
			"0.007": 5.69974179246,
			"0.008": 6.71763044219,
			"0.009": 7.32293808849,
			"0.01": 7.67528385955,
			"0.011": 7.54945163087,
			"0.012": 7.77362443118,
			"0.013": 3.08459785267,
			"0.014": 1.24194462888,
			"0.015": 1.13040342248,
			"0.016": 0.98020415861,
			"0.017": 0.6155912177,
			"0.018": 0.00760576087346,
			"0.019": 0.0,
			"0.02": 0.0,
			"0.021": 0.0,
			"0.022": 0.0,
			"0.023": 0.0,
			"0.024": 0.0,
			"0.025": 0.0
		}
	}
}
