{
	 "smiles": "CC1=C(OC2=C3C=CC=CC3=CC=C12)C(O)=O", 
	 "Tm": 480.15, 
	 "num_atms": 27, 
	 "gaussian": { 
		 "optdone": 1, 
		 "sigma_profile": "yes", 
		 "theory": "DFT", 
		 "functional": "B3LYP", 
		 "basiset": "6-31G**", 
		 "properties": { 
			 "R2extent": 4496.2523, 
			 "electric_dipole_moment_norm": 1.85112570616, 
			 "electric_quadrupole_moment_norm": 8.81924208081, 
			 "total_energy": -765.216484904, 
			 "HOMO_LUMO_gap": 0.16114, 
			 "cosmo_polarized_energy": -11.09, 
			 "cosmo_cavitation_energy": 31.69, 
			 "cosmo_dispersion_energy": -23.21, 
			 "cosmo_repulsion_energy": 1.76, 
			 "cosmo_total_nonelectrostatic_energy": 10.24, 
			 "SMD_solvation_energy": 6.57 
		},
		"coords": [
			{
				"x": 1.1663370103,
				"y": -2.6479015593,
				"z": -1.3643550859,
				"element": "C" 
			},
			{
				"x": 0.41662205,
				"y": -1.4570740967,
				"z": -0.850887785,
				"element": "C" 
			},
			{
				"x": -0.7698524528,
				"y": -1.4535908597,
				"z": -0.1551002144,
				"element": "C" 
			},
			{
				"x": -1.1740868309,
				"y": -0.1717552576,
				"z": 0.161365556,
				"element": "O" 
			},
			{
				"x": -0.2258658139,
				"y": 0.6555557236,
				"z": -0.3433046758,
				"element": "C" 
			},
			{
				"x": -0.2478998673,
				"y": 2.0675399243,
				"z": -0.2430852612,
				"element": "C" 
			},
			{
				"x": -1.2675904776,
				"y": 2.8077349823,
				"z": 0.4006469823,
				"element": "C" 
			},
			{
				"x": -1.1971272997,
				"y": 4.1850418452,
				"z": 0.4442961324,
				"element": "C" 
			},
			{
				"x": -0.1099527095,
				"y": 4.8636064451,
				"z": -0.1514565688,
				"element": "C" 
			},
			{
				"x": 0.893988077,
				"y": 4.1575859101,
				"z": -0.7837722652,
				"element": "C" 
			},
			{
				"x": 0.8610754884,
				"y": 2.7427363003,
				"z": -0.8517672569,
				"element": "C" 
			},
			{
				"x": 1.8955279003,
				"y": 1.9921211275,
				"z": -1.5047175872,
				"element": "C" 
			},
			{
				"x": 1.8706431007,
				"y": 0.6227893016,
				"z": -1.5746730246,
				"element": "C" 
			},
			{
				"x": 0.7807510852,
				"y": -0.0722295275,
				"z": -0.9785535636,
				"element": "C" 
			},
			{
				"x": -1.5977807379,
				"y": -2.5789512898,
				"z": 0.2602877436,
				"element": "C" 
			},
			{
				"x": -2.7111200849,
				"y": -2.2087541663,
				"z": 0.9355022349,
				"element": "O" 
			},
			{
				"x": -1.3189835058,
				"y": -3.7425871799,
				"z": 0.024735559,
				"element": "O" 
			},
			{
				"x": 1.4363127589,
				"y": -3.3245579067,
				"z": -0.5483964357,
				"element": "H" 
			},
			{
				"x": 2.0794300515,
				"y": -2.3410506252,
				"z": -1.8804254695,
				"element": "H" 
			},
			{
				"x": 0.5521950978,
				"y": -3.2306886049,
				"z": -2.0569854866,
				"element": "H" 
			},
			{
				"x": -2.0975723311,
				"y": 2.2757766119,
				"z": 0.8546330493,
				"element": "H" 
			},
			{
				"x": -1.9801462137,
				"y": 4.7523925666,
				"z": 0.9385345868,
				"element": "H" 
			},
			{
				"x": -0.0661787534,
				"y": 5.9480181449,
				"z": -0.1102259651,
				"element": "H" 
			},
			{
				"x": 1.7285936931,
				"y": 4.6829324978,
				"z": -1.2408046227,
				"element": "H" 
			},
			{
				"x": 2.7174079686,
				"y": 2.543901197,
				"z": -1.9525962659,
				"element": "H" 
			},
			{
				"x": 2.6653939313,
				"y": 0.0775310611,
				"z": -2.0743951188,
				"element": "H" 
			},
			{
				"x": -3.1692211347,
				"y": -3.0375225656,
				"z": 1.1525008085,
				"element": "H" 
			}
		],
		 "valence_orbital": [ 
			{
				"type": "occ",
				"energy": -0.28204,
				"method": "rhf"
			},
			{
				"type": "occ",
				"energy": -0.27812,
				"method": "rhf"
			},
			{
				"type": "occ",
				"energy": -0.27791,
				"method": "rhf"
			},
			{
				"type": "occ",
				"energy": -0.22956,
				"method": "rhf"
			},
			{
				"type": "occ",
				"energy": -0.21639,
				"method": "rhf"
			},
			{
				"type": "unocc",
				"energy": -0.05525,
				"method": "rhf"
			},
			{
				"type": "unocc",
				"energy": -0.03774,
				"method": "rhf"
			},
			{
				"type": "unocc",
				"energy": 0.00615,
				"method": "rhf"
			},
			{
				"type": "unocc",
				"energy": 0.03501,
				"method": "rhf"
			},
			{
				"type": "unocc",
				"energy": 0.08159,
				"method": "rhf"
			}
		],
		"cosmo_sigma_profile": { 
			"-0.025": 0.0,
			"-0.024": 0.0,
			"-0.023": 0.0,
			"-0.022": 0.0,
			"-0.021": 0.0,
			"-0.02": 0.0,
			"-0.019": 0.0939886180921,
			"-0.018": 0.810954821788,
			"-0.017": 0.928151050921,
			"-0.016": 1.00071206811,
			"-0.015": 0.61380149336,
			"-0.014": 0.686049668718,
			"-0.013": 0.913412176552,
			"-0.012": 0.358672006625,
			"-0.011": 0.860198528908,
			"-0.01": 0.647458032767,
			"-0.009": 0.344747684858,
			"-0.008": 0.590609165893,
			"-0.007": 3.17240351115,
			"-0.006": 15.375557897,
			"-0.005": 15.9989284475,
			"-0.004": 17.5724363862,
			"-0.003": 15.7539400751,
			"-0.002": 18.5211841556,
			"-0.001": 21.2883060821,
			"0.0": 22.8137980885,
			"0.001": 21.6481145381,
			"0.002": 19.1512448847,
			"0.003": 21.587535229,
			"0.004": 19.0234378134,
			"0.005": 9.58640095453,
			"0.006": 3.56424533042,
			"0.007": 2.51040164457,
			"0.008": 3.47897959274,
			"0.009": 3.66442561606,
			"0.01": 3.84357448762,
			"0.011": 3.71060999848,
			"0.012": 3.8043190251,
			"0.013": 0.23500764553,
			"0.014": 0.0,
			"0.015": 0.0,
			"0.016": 0.0,
			"0.017": 0.0,
			"0.018": 0.0,
			"0.019": 0.0,
			"0.02": 0.0,
			"0.021": 0.0,
			"0.022": 0.0,
			"0.023": 0.0,
			"0.024": 0.0,
			"0.025": 0.0
		}
	}
}
