{
	 "smiles": "NC1=C(NCCCN2CCOCC2)C=CC(=C1)C(O)=O", 
	 "Tm": 490.15, 
	 "num_atms": 41, 
	 "gaussian": { 
		 "optdone": 1, 
		 "sigma_profile": "yes", 
		 "theory": "DFT", 
		 "functional": "B3LYP", 
		 "basiset": "6-31G**", 
		 "properties": { 
			 "R2extent": 11031.5939, 
			 "electric_dipole_moment_norm": 6.6873551917, 
			 "electric_quadrupole_moment_norm": 41.8420308279, 
			 "total_energy": -936.060419622, 
			 "HOMO_LUMO_gap": 0.16972, 
			 "cosmo_polarized_energy": -23.78, 
			 "cosmo_cavitation_energy": 42.52, 
			 "cosmo_dispersion_energy": -30.2, 
			 "cosmo_repulsion_energy": 2.33, 
			 "cosmo_total_nonelectrostatic_energy": 14.65, 
			 "SMD_solvation_energy": 5.74 
		},
		"coords": [
			{
				"x": -0.038678937,
				"y": 2.2492458847,
				"z": 2.0759130385,
				"element": "N" 
			},
			{
				"x": 1.0070084138,
				"y": 1.3813736963,
				"z": 2.3822918164,
				"element": "C" 
			},
			{
				"x": 1.8436046377,
				"y": 0.9120928612,
				"z": 1.3339957644,
				"element": "C" 
			},
			{
				"x": 1.6056445655,
				"y": 1.3755235397,
				"z": 0.0155208025,
				"element": "N" 
			},
			{
				"x": 0.4301414737,
				"y": 0.8137940216,
				"z": -0.683026078,
				"element": "C" 
			},
			{
				"x": 0.2457281364,
				"y": 1.4798337271,
				"z": -2.0461632235,
				"element": "C" 
			},
			{
				"x": -0.9885946578,
				"y": 0.9639468962,
				"z": -2.801777663,
				"element": "C" 
			},
			{
				"x": -2.2367705949,
				"y": 1.2466195068,
				"z": -2.0842305736,
				"element": "N" 
			},
			{
				"x": -3.3311085623,
				"y": 0.2985308327,
				"z": -2.3273867458,
				"element": "C" 
			},
			{
				"x": -4.0700169529,
				"y": 0.5564677177,
				"z": -3.6449332623,
				"element": "C" 
			},
			{
				"x": -4.5512383211,
				"y": 1.8961214396,
				"z": -3.6950816603,
				"element": "O" 
			},
			{
				"x": -3.4878588492,
				"y": 2.8331227459,
				"z": -3.560327841,
				"element": "C" 
			},
			{
				"x": -2.7342164098,
				"y": 2.6209803021,
				"z": -2.2415430681,
				"element": "C" 
			},
			{
				"x": 2.9029619638,
				"y": 0.0547063134,
				"z": 1.6426462459,
				"element": "C" 
			},
			{
				"x": 3.1532442703,
				"y": -0.3522885074,
				"z": 2.9526283251,
				"element": "C" 
			},
			{
				"x": 2.3144868214,
				"y": 0.0893447857,
				"z": 3.9842895427,
				"element": "C" 
			},
			{
				"x": 1.2448650662,
				"y": 0.9422832419,
				"z": 3.686126911,
				"element": "C" 
			},
			{
				"x": 2.4942878169,
				"y": -0.3113878851,
				"z": 5.4136192,
				"element": "C" 
			},
			{
				"x": 3.7212517992,
				"y": -0.7914750262,
				"z": 5.7625684766,
				"element": "O" 
			},
			{
				"x": 1.6250655193,
				"y": -0.2251252596,
				"z": 6.2508793198,
				"element": "O" 
			},
			{
				"x": -0.389824241,
				"y": 2.7799834422,
				"z": 2.8615927538,
				"element": "H" 
			},
			{
				"x": 0.1583166724,
				"y": 2.8293626934,
				"z": 1.2679430222,
				"element": "H" 
			},
			{
				"x": 2.4356754095,
				"y": 1.2385971485,
				"z": -0.5543395215,
				"element": "H" 
			},
			{
				"x": 0.524826193,
				"y": -0.2780577768,
				"z": -0.8107049349,
				"element": "H" 
			},
			{
				"x": -0.4571448318,
				"y": 0.9858610493,
				"z": -0.0703381071,
				"element": "H" 
			},
			{
				"x": 0.1871708607,
				"y": 2.566313748,
				"z": -1.9074107646,
				"element": "H" 
			},
			{
				"x": 1.129882495,
				"y": 1.3012174118,
				"z": -2.6750571193,
				"element": "H" 
			},
			{
				"x": -0.9706114818,
				"y": 1.3681428443,
				"z": -3.8287374052,
				"element": "H" 
			},
			{
				"x": -0.9063134927,
				"y": -0.1248805544,
				"z": -2.9040157557,
				"element": "H" 
			},
			{
				"x": -4.0519332395,
				"y": 0.3996335917,
				"z": -1.5049589591,
				"element": "H" 
			},
			{
				"x": -2.9382646091,
				"y": -0.7239274261,
				"z": -2.2978621253,
				"element": "H" 
			},
			{
				"x": -3.4075345524,
				"y": 0.3595694031,
				"z": -4.5058098359,
				"element": "H" 
			},
			{
				"x": -4.9473305685,
				"y": -0.0919278955,
				"z": -3.7375513568,
				"element": "H" 
			},
			{
				"x": -3.9436785245,
				"y": 3.8279747638,
				"z": -3.5933947379,
				"element": "H" 
			},
			{
				"x": -2.8000895606,
				"y": 2.7475397957,
				"z": -4.4191951858,
				"element": "H" 
			},
			{
				"x": -3.4210972678,
				"y": 2.8307632863,
				"z": -1.4112869162,
				"element": "H" 
			},
			{
				"x": -1.9004428823,
				"y": 3.3267372526,
				"z": -2.161717191,
				"element": "H" 
			},
			{
				"x": 3.5322530628,
				"y": -0.310390919,
				"z": 0.8342566766,
				"element": "H" 
			},
			{
				"x": 3.9576668654,
				"y": -1.0590735937,
				"z": 3.138851477,
				"element": "H" 
			},
			{
				"x": 0.6130434491,
				"y": 1.2781712265,
				"z": 4.5027505626,
				"element": "H" 
			},
			{
				"x": 4.3458230449,
				"y": -0.6442203258,
				"z": 5.0389760969,
				"element": "H" 
			}
		],
		 "valence_orbital": [ 
			{
				"type": "occ",
				"energy": -0.27242,
				"method": "rhf"
			},
			{
				"type": "occ",
				"energy": -0.26155,
				"method": "rhf"
			},
			{
				"type": "occ",
				"energy": -0.23456,
				"method": "rhf"
			},
			{
				"type": "occ",
				"energy": -0.20531,
				"method": "rhf"
			},
			{
				"type": "occ",
				"energy": -0.20376,
				"method": "rhf"
			},
			{
				"type": "unocc",
				"energy": -0.03404,
				"method": "rhf"
			},
			{
				"type": "unocc",
				"energy": -0.00041,
				"method": "rhf"
			},
			{
				"type": "unocc",
				"energy": 0.06252,
				"method": "rhf"
			},
			{
				"type": "unocc",
				"energy": 0.06712,
				"method": "rhf"
			},
			{
				"type": "unocc",
				"energy": 0.07307,
				"method": "rhf"
			}
		],
		"cosmo_sigma_profile": { 
			"-0.025": 0.0,
			"-0.024": 0.0,
			"-0.023": 0.0,
			"-0.022": 0.0,
			"-0.021": 0.0,
			"-0.02": 0.0,
			"-0.019": 0.0,
			"-0.018": 0.294511831861,
			"-0.017": 0.537475039833,
			"-0.016": 0.8965628907,
			"-0.015": 1.33663414707,
			"-0.014": 0.925063583407,
			"-0.013": 0.874941858949,
			"-0.012": 2.43615378344,
			"-0.011": 4.43142387716,
			"-0.01": 4.40410179635,
			"-0.009": 4.88505095214,
			"-0.008": 6.14542372187,
			"-0.007": 6.26787416374,
			"-0.006": 7.8408030821,
			"-0.005": 11.8185135791,
			"-0.004": 25.6727698485,
			"-0.003": 40.866201697,
			"-0.002": 38.2932808015,
			"-0.001": 26.8663209233,
			"0.0": 18.9020831194,
			"0.001": 15.3341996718,
			"0.002": 12.6927391353,
			"0.003": 14.2498201919,
			"0.004": 15.7439296876,
			"0.005": 13.1956834368,
			"0.006": 8.25889721832,
			"0.007": 6.42744544099,
			"0.008": 5.74419151736,
			"0.009": 6.53607865202,
			"0.01": 7.96369662457,
			"0.011": 6.77323833477,
			"0.012": 8.45496971981,
			"0.013": 5.26675737207,
			"0.014": 1.87666983725,
			"0.015": 0.0,
			"0.016": 0.0,
			"0.017": 0.0,
			"0.018": 0.0,
			"0.019": 0.0,
			"0.02": 0.0,
			"0.021": 0.0,
			"0.022": 0.0,
			"0.023": 0.0,
			"0.024": 0.0,
			"0.025": 0.0
		}
	}
}
