{
	 "smiles": "CCCC1=NN(C(OC(C)=O)=N1)C1=CC=CC=C1", 
	 "Tm": 357.15, 
	 "num_atms": 33, 
	 "gaussian": { 
		 "optdone": 1, 
		 "sigma_profile": "yes", 
		 "theory": "DFT", 
		 "functional": "B3LYP", 
		 "basiset": "6-31G**", 
		 "properties": { 
			 "R2extent": 6316.1949, 
			 "electric_dipole_moment_norm": 3.19350748081, 
			 "electric_quadrupole_moment_norm": 18.6165295378, 
			 "total_energy": -819.134357998, 
			 "HOMO_LUMO_gap": 0.20666, 
			 "cosmo_polarized_energy": -12.6, 
			 "cosmo_cavitation_energy": 37.84, 
			 "cosmo_dispersion_energy": -25.89, 
			 "cosmo_repulsion_energy": 2.06, 
			 "cosmo_total_nonelectrostatic_energy": 14.01, 
			 "SMD_solvation_energy": 4.85 
		},
		"coords": [
			{
				"x": -1.2823288801,
				"y": 3.5378477388,
				"z": 0.1642009536,
				"element": "C" 
			},
			{
				"x": -0.6261195161,
				"y": 3.715253046,
				"z": 1.5365162926,
				"element": "C" 
			},
			{
				"x": 0.7520224758,
				"y": 3.0339720021,
				"z": 1.6540610113,
				"element": "C" 
			},
			{
				"x": 0.6858783373,
				"y": 1.5406309037,
				"z": 1.5683429237,
				"element": "C" 
			},
			{
				"x": 1.3016076125,
				"y": 0.8503569991,
				"z": 0.6195338978,
				"element": "N" 
			},
			{
				"x": 0.9715781603,
				"y": -0.4479116776,
				"z": 0.9131016797,
				"element": "N" 
			},
			{
				"x": 0.1859795401,
				"y": -0.438091585,
				"z": 2.0235719407,
				"element": "C" 
			},
			{
				"x": -0.3375061797,
				"y": -1.5753080464,
				"z": 2.5635512739,
				"element": "O" 
			},
			{
				"x": 0.3428230559,
				"y": -2.1299155057,
				"z": 3.6515847083,
				"element": "C" 
			},
			{
				"x": -0.4480736053,
				"y": -3.2842674019,
				"z": 4.1998853646,
				"element": "C" 
			},
			{
				"x": 1.3970216476,
				"y": -1.7109903104,
				"z": 4.0385384845,
				"element": "O" 
			},
			{
				"x": -0.025220948,
				"y": 0.7777550014,
				"z": 2.459571975,
				"element": "N" 
			},
			{
				"x": 1.4816411919,
				"y": -1.5258644352,
				"z": 0.13744773,
				"element": "C" 
			},
			{
				"x": 2.7334040034,
				"y": -1.3808540526,
				"z": -0.4697258761,
				"element": "C" 
			},
			{
				"x": 3.2438793232,
				"y": -2.4226575363,
				"z": -1.2408029529,
				"element": "C" 
			},
			{
				"x": 2.5198636849,
				"y": -3.6062050427,
				"z": -1.4027403589,
				"element": "C" 
			},
			{
				"x": 1.2695529132,
				"y": -3.7380630568,
				"z": -0.7972090509,
				"element": "C" 
			},
			{
				"x": 0.7384921018,
				"y": -2.6988919822,
				"z": -0.032861346,
				"element": "C" 
			},
			{
				"x": -1.4421363578,
				"y": 2.479842467,
				"z": -0.068012659,
				"element": "H" 
			},
			{
				"x": -2.2553677774,
				"y": 4.0382800147,
				"z": 0.1255741315,
				"element": "H" 
			},
			{
				"x": -0.6574597227,
				"y": 3.9587083719,
				"z": -0.6318109464,
				"element": "H" 
			},
			{
				"x": -1.2810581803,
				"y": 3.3136469414,
				"z": 2.3182849819,
				"element": "H" 
			},
			{
				"x": -0.5004730593,
				"y": 4.78377661,
				"z": 1.7500098252,
				"element": "H" 
			},
			{
				"x": 1.4246304379,
				"y": 3.3888408766,
				"z": 0.8661435805,
				"element": "H" 
			},
			{
				"x": 1.2036585347,
				"y": 3.3039286511,
				"z": 2.6166519146,
				"element": "H" 
			},
			{
				"x": -1.4286376003,
				"y": -2.9342854224,
				"z": 4.535259881,
				"element": "H" 
			},
			{
				"x": 0.0956025246,
				"y": -3.7305840956,
				"z": 5.0314369675,
				"element": "H" 
			},
			{
				"x": -0.6150519903,
				"y": -4.0293824399,
				"z": 3.4166268204,
				"element": "H" 
			},
			{
				"x": 3.280061595,
				"y": -0.4555673308,
				"z": -0.3343748122,
				"element": "H" 
			},
			{
				"x": 4.2154481814,
				"y": -2.309109647,
				"z": -1.7123379266,
				"element": "H" 
			},
			{
				"x": 2.9247101073,
				"y": -4.4168058556,
				"z": -2.0009328962,
				"element": "H" 
			},
			{
				"x": 0.6926772325,
				"y": -4.6485985367,
				"z": -0.9297658358,
				"element": "H" 
			},
			{
				"x": -0.2436988439,
				"y": -2.7909856633,
				"z": 0.4146783227,
				"element": "H" 
			}
		],
		 "valence_orbital": [ 
			{
				"type": "occ",
				"energy": -0.29649,
				"method": "rhf"
			},
			{
				"type": "occ",
				"energy": -0.27697,
				"method": "rhf"
			},
			{
				"type": "occ",
				"energy": -0.2664,
				"method": "rhf"
			},
			{
				"type": "occ",
				"energy": -0.26129,
				"method": "rhf"
			},
			{
				"type": "occ",
				"energy": -0.23483,
				"method": "rhf"
			},
			{
				"type": "unocc",
				"energy": -0.02817,
				"method": "rhf"
			},
			{
				"type": "unocc",
				"energy": -0.01251,
				"method": "rhf"
			},
			{
				"type": "unocc",
				"energy": -0.01126,
				"method": "rhf"
			},
			{
				"type": "unocc",
				"energy": 0.02993,
				"method": "rhf"
			},
			{
				"type": "unocc",
				"energy": 0.05073,
				"method": "rhf"
			}
		],
		"cosmo_sigma_profile": { 
			"-0.025": 0.0,
			"-0.024": 0.0,
			"-0.023": 0.0,
			"-0.022": 0.0,
			"-0.021": 0.0,
			"-0.02": 0.0,
			"-0.019": 0.0,
			"-0.018": 0.0,
			"-0.017": 0.0,
			"-0.016": 0.0,
			"-0.015": 0.0,
			"-0.014": 0.0,
			"-0.013": 0.0,
			"-0.012": 0.0,
			"-0.011": 0.0,
			"-0.01": 0.0,
			"-0.009": 0.0,
			"-0.008": 1.23321940342,
			"-0.007": 7.15016137844,
			"-0.006": 16.0769952863,
			"-0.005": 20.4705766283,
			"-0.004": 22.957936297,
			"-0.003": 30.2253732847,
			"-0.002": 30.2504360512,
			"-0.001": 27.9332559695,
			"0.0": 26.6576653345,
			"0.001": 24.5528578549,
			"0.002": 17.073675527,
			"0.003": 16.6058528383,
			"0.004": 16.188338826,
			"0.005": 8.50679820856,
			"0.006": 4.50603523358,
			"0.007": 6.23262595693,
			"0.008": 4.37991560942,
			"0.009": 5.68025673453,
			"0.01": 6.3889345931,
			"0.011": 3.27115480343,
			"0.012": 1.70252716023,
			"0.013": 1.44214657338,
			"0.014": 0.717341951057,
			"0.015": 0.506294466328,
			"0.016": 0.0161551108441,
			"0.017": 0.0,
			"0.018": 0.0,
			"0.019": 0.0,
			"0.02": 0.0,
			"0.021": 0.0,
			"0.022": 0.0,
			"0.023": 0.0,
			"0.024": 0.0,
			"0.025": 0.0
		}
	}
}
