{
	 "smiles": "COP(=O)(OC)OC(=CCl)C1=CC=C(Cl)C=C1Cl", 
	 "Tm": 342.65, 
	 "num_atms": 28, 
	 "gaussian": { 
		 "optdone": 1, 
		 "sigma_profile": "yes", 
		 "theory": "DFT", 
		 "functional": "B3LYP", 
		 "basiset": "6-31G**", 
		 "properties": { 
			 "R2extent": 9130.2512, 
			 "electric_dipole_moment_norm": 1.86435884153, 
			 "electric_quadrupole_moment_norm": 20.3603962501, 
			 "total_energy": -2409.9492336, 
			 "HOMO_LUMO_gap": 0.19851, 
			 "cosmo_polarized_energy": -13.45, 
			 "cosmo_cavitation_energy": 40.07, 
			 "cosmo_dispersion_energy": -27.32, 
			 "cosmo_repulsion_energy": 2.14, 
			 "cosmo_total_nonelectrostatic_energy": 14.89, 
			 "SMD_solvation_energy": 9.39 
		},
		"coords": [
			{
				"x": 0.5635891749,
				"y": 2.5506252644,
				"z": -2.3783004703,
				"element": "C" 
			},
			{
				"x": 1.5216158256,
				"y": 1.7939178322,
				"z": -1.6087037987,
				"element": "O" 
			},
			{
				"x": 1.9561694934,
				"y": 0.345548,
				"z": -2.1457184042,
				"element": "P" 
			},
			{
				"x": 2.2016801464,
				"y": 0.1870998368,
				"z": -3.5899232505,
				"element": "O" 
			},
			{
				"x": 3.1652109447,
				"y": 0.0898349748,
				"z": -1.1315213022,
				"element": "O" 
			},
			{
				"x": 4.1079075338,
				"y": -0.9695205571,
				"z": -1.4112119988,
				"element": "C" 
			},
			{
				"x": 0.7481099984,
				"y": -0.6629257945,
				"z": -1.6863638816,
				"element": "O" 
			},
			{
				"x": 0.2532811634,
				"y": -0.9053094589,
				"z": -0.4114954816,
				"element": "C" 
			},
			{
				"x": 0.6118384436,
				"y": -0.1906729817,
				"z": 0.6627525811,
				"element": "C" 
			},
			{
				"x": 0.0152424725,
				"y": -0.5194465444,
				"z": 2.2680102201,
				"element": "Cl" 
			},
			{
				"x": -0.7475150828,
				"y": -2.0024902233,
				"z": -0.4276932609,
				"element": "C" 
			},
			{
				"x": -2.0945713777,
				"y": -1.7148727321,
				"z": -0.1643986579,
				"element": "C" 
			},
			{
				"x": -3.0785932838,
				"y": -2.6980436583,
				"z": -0.2077389684,
				"element": "C" 
			},
			{
				"x": -2.7080793386,
				"y": -4.0036269841,
				"z": -0.5256505302,
				"element": "C" 
			},
			{
				"x": -3.9276221894,
				"y": -5.2604456911,
				"z": -0.5917538774,
				"element": "Cl" 
			},
			{
				"x": -1.3807472232,
				"y": -4.3345117922,
				"z": -0.7905580263,
				"element": "C" 
			},
			{
				"x": -0.4151707597,
				"y": -3.3303097851,
				"z": -0.7391477883,
				"element": "C" 
			},
			{
				"x": 1.2492776265,
				"y": -3.7929471718,
				"z": -1.0412036641,
				"element": "Cl" 
			},
			{
				"x": -0.4345417665,
				"y": 2.112250151,
				"z": -2.2823228399,
				"element": "H" 
			},
			{
				"x": 0.5646878241,
				"y": 3.5569534903,
				"z": -1.9591853045,
				"element": "H" 
			},
			{
				"x": 0.8567724738,
				"y": 2.5793988522,
				"z": -3.4302017194,
				"element": "H" 
			},
			{
				"x": 3.6810094271,
				"y": -1.9341745706,
				"z": -1.1251991141,
				"element": "H" 
			},
			{
				"x": 4.9881057626,
				"y": -0.7583711294,
				"z": -0.8036733264,
				"element": "H" 
			},
			{
				"x": 4.3722691697,
				"y": -0.9743800942,
				"z": -2.4709079026,
				"element": "H" 
			},
			{
				"x": 1.3134083158,
				"y": 0.629743566,
				"z": 0.6247614833,
				"element": "H" 
			},
			{
				"x": -2.3691162147,
				"y": -0.6937598751,
				"z": 0.0781128527,
				"element": "H" 
			},
			{
				"x": -4.1151202909,
				"y": -2.4569524233,
				"z": -0.0031468975,
				"element": "H" 
			},
			{
				"x": -1.0995982691,
				"y": -5.3529105005,
				"z": -1.0278166715,
				"element": "H" 
			}
		],
		 "valence_orbital": [ 
			{
				"type": "occ",
				"energy": -0.30569,
				"method": "rhf"
			},
			{
				"type": "occ",
				"energy": -0.30095,
				"method": "rhf"
			},
			{
				"type": "occ",
				"energy": -0.27337,
				"method": "rhf"
			},
			{
				"type": "occ",
				"energy": -0.26415,
				"method": "rhf"
			},
			{
				"type": "occ",
				"energy": -0.24476,
				"method": "rhf"
			},
			{
				"type": "unocc",
				"energy": -0.04625,
				"method": "rhf"
			},
			{
				"type": "unocc",
				"energy": -0.03289,
				"method": "rhf"
			},
			{
				"type": "unocc",
				"energy": -0.00305,
				"method": "rhf"
			},
			{
				"type": "unocc",
				"energy": 0.00336,
				"method": "rhf"
			},
			{
				"type": "unocc",
				"energy": 0.02321,
				"method": "rhf"
			}
		],
		"cosmo_sigma_profile": { 
			"-0.025": 0.0,
			"-0.024": 0.0,
			"-0.023": 0.0,
			"-0.022": 0.0,
			"-0.021": 0.0,
			"-0.02": 0.0,
			"-0.019": 0.0,
			"-0.018": 0.0,
			"-0.017": 0.0,
			"-0.016": 0.0,
			"-0.015": 0.0,
			"-0.014": 0.0,
			"-0.013": 0.0,
			"-0.012": 0.0,
			"-0.011": 0.0,
			"-0.01": 0.0,
			"-0.009": 0.990393035981,
			"-0.008": 5.13916918017,
			"-0.007": 11.1178812779,
			"-0.006": 16.8739990898,
			"-0.005": 22.4752255452,
			"-0.004": 27.0338732837,
			"-0.003": 21.1541349294,
			"-0.002": 21.3205863239,
			"-0.001": 19.4297430864,
			"0.0": 30.8941981005,
			"0.001": 34.5289779061,
			"0.002": 26.5081228843,
			"0.003": 27.7268847684,
			"0.004": 27.4431531139,
			"0.005": 5.33495153894,
			"0.006": 4.63918004992,
			"0.007": 3.654169674,
			"0.008": 4.04488387087,
			"0.009": 2.11002646359,
			"0.01": 1.58382038829,
			"0.011": 1.31833141453,
			"0.012": 1.97932226346,
			"0.013": 6.14067091321,
			"0.014": 1.94806074853,
			"0.015": 0.0,
			"0.016": 0.0,
			"0.017": 0.0,
			"0.018": 0.0,
			"0.019": 0.0,
			"0.02": 0.0,
			"0.021": 0.0,
			"0.022": 0.0,
			"0.023": 0.0,
			"0.024": 0.0,
			"0.025": 0.0
		}
	}
}
