{
	 "smiles": "CCCCCCCCCCC1=CC=CC=C1", 
	 "Tm": 258.95, 
	 "num_atms": 42, 
	 "gaussian": { 
		 "optdone": 1, 
		 "sigma_profile": "yes", 
		 "theory": "DFT", 
		 "functional": "B3LYP", 
		 "basiset": "6-31G**", 
		 "properties": { 
			 "R2extent": 7269.1746, 
			 "electric_dipole_moment_norm": 0.241904940007, 
			 "electric_quadrupole_moment_norm": 4.07482844792, 
			 "total_energy": -625.410311276, 
			 "HOMO_LUMO_gap": 0.2382, 
			 "cosmo_polarized_energy": -3.39, 
			 "cosmo_cavitation_energy": 42.46, 
			 "cosmo_dispersion_energy": -28.91, 
			 "cosmo_repulsion_energy": 2.36, 
			 "cosmo_total_nonelectrostatic_energy": 15.91, 
			 "SMD_solvation_energy": 5.88 
		},
		"coords": [
			{
				"x": 2.795767661,
				"y": 4.2791573847,
				"z": 0.0921621276,
				"element": "C" 
			},
			{
				"x": 1.8838676336,
				"y": 3.8464780488,
				"z": 1.245211622,
				"element": "C" 
			},
			{
				"x": 2.241237993,
				"y": 2.4617202932,
				"z": 1.8030171819,
				"element": "C" 
			},
			{
				"x": 1.4083489361,
				"y": 2.0232204761,
				"z": 3.0206222299,
				"element": "C" 
			},
			{
				"x": -0.1020849554,
				"y": 1.8494865362,
				"z": 2.780618337,
				"element": "C" 
			},
			{
				"x": -0.4699376748,
				"y": 0.7473496287,
				"z": 1.7770520766,
				"element": "C" 
			},
			{
				"x": -1.9864532051,
				"y": 0.5459095608,
				"z": 1.6412199681,
				"element": "C" 
			},
			{
				"x": -2.4052327724,
				"y": -0.5992618759,
				"z": 0.7039528919,
				"element": "C" 
			},
			{
				"x": -2.0767989861,
				"y": -0.3629348747,
				"z": -0.7763255624,
				"element": "C" 
			},
			{
				"x": -2.5697800035,
				"y": -1.4864424861,
				"z": -1.7156163758,
				"element": "C" 
			},
			{
				"x": -1.8755845306,
				"y": -2.8176319875,
				"z": -1.5083046109,
				"element": "C" 
			},
			{
				"x": -0.5699643638,
				"y": -3.0200757279,
				"z": -1.9807029194,
				"element": "C" 
			},
			{
				"x": 0.0875943593,
				"y": -4.2337034487,
				"z": -1.781277694,
				"element": "C" 
			},
			{
				"x": -0.5516072437,
				"y": -5.2746442604,
				"z": -1.1035256775,
				"element": "C" 
			},
			{
				"x": -1.851160279,
				"y": -5.0898375972,
				"z": -0.630750413,
				"element": "C" 
			},
			{
				"x": -2.5045567664,
				"y": -3.8721055297,
				"z": -0.8332466683,
				"element": "C" 
			},
			{
				"x": 2.5215349663,
				"y": 5.2689370688,
				"z": -0.2877038974,
				"element": "H" 
			},
			{
				"x": 3.8436251218,
				"y": 4.3235651392,
				"z": 0.4107932477,
				"element": "H" 
			},
			{
				"x": 2.7369658826,
				"y": 3.5742503438,
				"z": -0.7452755864,
				"element": "H" 
			},
			{
				"x": 0.8416108734,
				"y": 3.853839095,
				"z": 0.901712016,
				"element": "H" 
			},
			{
				"x": 1.9409798471,
				"y": 4.5868332357,
				"z": 2.0553463119,
				"element": "H" 
			},
			{
				"x": 2.155384686,
				"y": 1.7160048211,
				"z": 1.0010825125,
				"element": "H" 
			},
			{
				"x": 3.3010335358,
				"y": 2.4634419945,
				"z": 2.0930165755,
				"element": "H" 
			},
			{
				"x": 1.8139807458,
				"y": 1.0752124326,
				"z": 3.3998721285,
				"element": "H" 
			},
			{
				"x": 1.5529123655,
				"y": 2.7565787553,
				"z": 3.8259931793,
				"element": "H" 
			},
			{
				"x": -0.5791326767,
				"y": 1.6218210201,
				"z": 3.7437781137,
				"element": "H" 
			},
			{
				"x": -0.5409057495,
				"y": 2.8008837343,
				"z": 2.4509111968,
				"element": "H" 
			},
			{
				"x": -0.0391275045,
				"y": 0.983090562,
				"z": 0.7962798086,
				"element": "H" 
			},
			{
				"x": -0.0074606913,
				"y": -0.1993464295,
				"z": 2.0927026626,
				"element": "H" 
			},
			{
				"x": -2.4477417353,
				"y": 1.4837409754,
				"z": 1.2986309085,
				"element": "H" 
			},
			{
				"x": -2.4044776011,
				"y": 0.3525001883,
				"z": 2.6385889055,
				"element": "H" 
			},
			{
				"x": -3.4891560794,
				"y": -0.7535638121,
				"z": 0.8002031131,
				"element": "H" 
			},
			{
				"x": -1.9354202046,
				"y": -1.5332490901,
				"z": 1.0385874806,
				"element": "H" 
			},
			{
				"x": -0.9942344339,
				"y": -0.2440709373,
				"z": -0.9082164229,
				"element": "H" 
			},
			{
				"x": -2.5325029526,
				"y": 0.5834903964,
				"z": -1.0987299108,
				"element": "H" 
			},
			{
				"x": -3.6515413051,
				"y": -1.6142830324,
				"z": -1.5840058659,
				"element": "H" 
			},
			{
				"x": -2.4202589755,
				"y": -1.1616969255,
				"z": -2.7530867107,
				"element": "H" 
			},
			{
				"x": -0.0666591541,
				"y": -2.2180021234,
				"z": -2.5162720864,
				"element": "H" 
			},
			{
				"x": 1.0972183742,
				"y": -4.3695222269,
				"z": -2.1594966492,
				"element": "H" 
			},
			{
				"x": -0.04226711,
				"y": -6.2217476649,
				"z": -0.9499915644,
				"element": "H" 
			},
			{
				"x": -2.3597863447,
				"y": -5.8941019196,
				"z": -0.1061257108,
				"element": "H" 
			},
			{
				"x": -3.5192296826,
				"y": -3.7382897413,
				"z": -0.4659002696,
				"element": "H" 
			}
		],
		 "valence_orbital": [ 
			{
				"type": "occ",
				"energy": -0.30482,
				"method": "rhf"
			},
			{
				"type": "occ",
				"energy": -0.30256,
				"method": "rhf"
			},
			{
				"type": "occ",
				"energy": -0.29882,
				"method": "rhf"
			},
			{
				"type": "occ",
				"energy": -0.24419,
				"method": "rhf"
			},
			{
				"type": "occ",
				"energy": -0.23551,
				"method": "rhf"
			},
			{
				"type": "unocc",
				"energy": 0.00269,
				"method": "rhf"
			},
			{
				"type": "unocc",
				"energy": 0.00544,
				"method": "rhf"
			},
			{
				"type": "unocc",
				"energy": 0.08216,
				"method": "rhf"
			},
			{
				"type": "unocc",
				"energy": 0.09317,
				"method": "rhf"
			},
			{
				"type": "unocc",
				"energy": 0.1062,
				"method": "rhf"
			}
		],
		"cosmo_sigma_profile": { 
			"-0.025": 0.0,
			"-0.024": 0.0,
			"-0.023": 0.0,
			"-0.022": 0.0,
			"-0.021": 0.0,
			"-0.02": 0.0,
			"-0.019": 0.0,
			"-0.018": 0.0,
			"-0.017": 0.0,
			"-0.016": 0.0,
			"-0.015": 0.0,
			"-0.014": 0.0,
			"-0.013": 0.0,
			"-0.012": 0.0,
			"-0.011": 0.0,
			"-0.01": 0.0,
			"-0.009": 0.0,
			"-0.008": 0.0,
			"-0.007": 0.0,
			"-0.006": 0.825571201155,
			"-0.005": 7.86951702741,
			"-0.004": 11.6286761409,
			"-0.003": 19.6124019603,
			"-0.002": 39.2625429657,
			"-0.001": 62.678518013,
			"0.0": 64.3888291788,
			"0.001": 55.6526939123,
			"0.002": 29.5320790258,
			"0.003": 8.47895120978,
			"0.004": 8.2912479158,
			"0.005": 7.93442903168,
			"0.006": 7.87929264064,
			"0.007": 4.46807574754,
			"0.008": 0.00287762217292,
			"0.009": 0.0,
			"0.01": 0.0,
			"0.011": 0.0,
			"0.012": 0.0,
			"0.013": 0.0,
			"0.014": 0.0,
			"0.015": 0.0,
			"0.016": 0.0,
			"0.017": 0.0,
			"0.018": 0.0,
			"0.019": 0.0,
			"0.02": 0.0,
			"0.021": 0.0,
			"0.022": 0.0,
			"0.023": 0.0,
			"0.024": 0.0,
			"0.025": 0.0
		}
	}
}
