{
	 "smiles": "COC1=C(I)C=CC(NC(C)=O)=C1", 
	 "Tm": 412.15, 
	 "num_atms": 23, 
	 "gaussian": { 
		 "optdone": 1, 
		 "sigma_profile": "yes", 
		 "theory": "DFT", 
		 "functional": "B3LYP", 
		 "basiset": "6-31G**", 
		 "properties": { 
			 "R2extent": 3363.8947, 
			 "electric_dipole_moment_norm": 1.73048049397, 
			 "electric_quadrupole_moment_norm": 27.82015131, 
			 "total_energy": -565.570698668, 
			 "HOMO_LUMO_gap": 0.18458, 
			 "cosmo_polarized_energy": -14.35, 
			 "cosmo_cavitation_energy": 30.16, 
			 "cosmo_dispersion_energy": -22.88, 
			 "cosmo_repulsion_energy": 1.79, 
			 "cosmo_total_nonelectrostatic_energy": 9.08, 
			 "SMD_solvation_energy": 5.99 
		},
		"coords": [
			{
				"x": -0.6109530787,
				"y": -2.4675231897,
				"z": -2.9882002542,
				"element": "C" 
			},
			{
				"x": -1.4244491208,
				"y": -1.6527741673,
				"z": -2.1558246622,
				"element": "O" 
			},
			{
				"x": -0.835920006,
				"y": -0.7147552512,
				"z": -1.3740616267,
				"element": "C" 
			},
			{
				"x": -1.6801450962,
				"y": 0.0751077664,
				"z": -0.5708226521,
				"element": "C" 
			},
			{
				"x": -3.7685383581,
				"y": -0.2352484436,
				"z": -0.5970210777,
				"element": "I" 
			},
			{
				"x": -1.1373403378,
				"y": 1.0696291899,
				"z": 0.2379922773,
				"element": "C" 
			},
			{
				"x": 0.2393447919,
				"y": 1.2808212753,
				"z": 0.281088607,
				"element": "C" 
			},
			{
				"x": 1.0910893131,
				"y": 0.4972356472,
				"z": -0.5068361752,
				"element": "C" 
			},
			{
				"x": 2.4759221203,
				"y": 0.7651651663,
				"z": -0.4732427428,
				"element": "N" 
			},
			{
				"x": 3.5869787814,
				"y": -0.0663353184,
				"z": -0.4708898265,
				"element": "C" 
			},
			{
				"x": 3.3802548559,
				"y": -1.5682218301,
				"z": -0.5245533035,
				"element": "C" 
			},
			{
				"x": 4.7016861627,
				"y": 0.4301936664,
				"z": -0.4086681691,
				"element": "O" 
			},
			{
				"x": 0.545732495,
				"y": -0.4839437415,
				"z": -1.3475223642,
				"element": "C" 
			},
			{
				"x": 0.1095608157,
				"y": -3.0504951578,
				"z": -2.4012049111,
				"element": "H" 
			},
			{
				"x": -0.0735823487,
				"y": -1.8705379311,
				"z": -3.7354618358,
				"element": "H" 
			},
			{
				"x": -1.2958098073,
				"y": -3.1471835286,
				"z": -3.4961042052,
				"element": "H" 
			},
			{
				"x": -1.7925030016,
				"y": 1.6773584265,
				"z": 0.8520762278,
				"element": "H" 
			},
			{
				"x": 0.6524553189,
				"y": 2.0417401963,
				"z": 0.9359366969,
				"element": "H" 
			},
			{
				"x": 2.7421891483,
				"y": 1.7273719249,
				"z": -0.3015644417,
				"element": "H" 
			},
			{
				"x": 3.3308794342,
				"y": -1.9072103094,
				"z": -1.5650587741,
				"element": "H" 
			},
			{
				"x": 4.2561942536,
				"y": -2.0292230669,
				"z": -0.0669018159,
				"element": "H" 
			},
			{
				"x": 2.4717841487,
				"y": -1.8947834222,
				"z": -0.0141503553,
				"element": "H" 
			},
			{
				"x": 1.1964695154,
				"y": -1.0424879015,
				"z": -2.0050046156,
				"element": "H" 
			}
		],
		 "valence_orbital": [ 
			{
				"type": "occ",
				"energy": -0.27019,
				"method": "rhf"
			},
			{
				"type": "occ",
				"energy": -0.26302,
				"method": "rhf"
			},
			{
				"type": "occ",
				"energy": -0.25815,
				"method": "rhf"
			},
			{
				"type": "occ",
				"energy": -0.24997,
				"method": "rhf"
			},
			{
				"type": "occ",
				"energy": -0.22038,
				"method": "rhf"
			},
			{
				"type": "unocc",
				"energy": -0.0358,
				"method": "rhf"
			},
			{
				"type": "unocc",
				"energy": -0.02729,
				"method": "rhf"
			},
			{
				"type": "unocc",
				"energy": -0.01158,
				"method": "rhf"
			},
			{
				"type": "unocc",
				"energy": 0.02665,
				"method": "rhf"
			},
			{
				"type": "unocc",
				"energy": 0.04119,
				"method": "rhf"
			}
		],
		"cosmo_sigma_profile": { 
			"-0.025": 0.0,
			"-0.024": 0.0,
			"-0.023": 0.0,
			"-0.022": 0.0,
			"-0.021": 0.0,
			"-0.02": 0.0,
			"-0.019": 0.0,
			"-0.018": 0.0,
			"-0.017": 0.0,
			"-0.016": 0.0,
			"-0.015": 0.0574345186189,
			"-0.014": 0.686813204517,
			"-0.013": 1.2884282196,
			"-0.012": 0.758858325301,
			"-0.011": 0.745773176252,
			"-0.01": 1.89016775409,
			"-0.009": 1.79523566295,
			"-0.008": 3.21758613392,
			"-0.007": 8.49267825682,
			"-0.006": 14.6481061986,
			"-0.005": 20.2248515546,
			"-0.004": 18.8717971705,
			"-0.003": 19.6881140838,
			"-0.002": 16.813214379,
			"-0.001": 13.5634962623,
			"0.0": 12.7821165503,
			"0.001": 11.780560843,
			"0.002": 18.5771663146,
			"0.003": 20.2799156087,
			"0.004": 18.0940354958,
			"0.005": 11.3571553482,
			"0.006": 4.06011327696,
			"0.007": 3.81370970157,
			"0.008": 2.96091612166,
			"0.009": 3.1282922946,
			"0.01": 2.08420243906,
			"0.011": 1.75309694865,
			"0.012": 2.0990347202,
			"0.013": 5.55094049691,
			"0.014": 3.43285425352,
			"0.015": 0.408557777365,
			"0.016": 0.0,
			"0.017": 0.0,
			"0.018": 0.0,
			"0.019": 0.0,
			"0.02": 0.0,
			"0.021": 0.0,
			"0.022": 0.0,
			"0.023": 0.0,
			"0.024": 0.0,
			"0.025": 0.0
		}
	}
}
