{
	 "smiles": "SC1=NN=C(N1CC1CCCO1)C1=CNC2=C1C=CC=C2", 
	 "Tm": 525.15, 
	 "num_atms": 37, 
	 "gaussian": { 
		 "optdone": 1, 
		 "sigma_profile": "yes", 
		 "theory": "DFT", 
		 "functional": "B3LYP", 
		 "basiset": "6-31G**", 
		 "properties": { 
			 "R2extent": 6895.9217, 
			 "electric_dipole_moment_norm": 4.5877273099, 
			 "electric_quadrupole_moment_norm": 25.3096432529, 
			 "total_energy": -1273.62762409, 
			 "HOMO_LUMO_gap": 0.184, 
			 "cosmo_polarized_energy": -22.62, 
			 "cosmo_cavitation_energy": 41.0, 
			 "cosmo_dispersion_energy": -28.97, 
			 "cosmo_repulsion_energy": 2.19, 
			 "cosmo_total_nonelectrostatic_energy": 14.22, 
			 "SMD_solvation_energy": 3.55 
		},
		"coords": [
			{
				"x": 2.5207854787,
				"y": -3.373599729,
				"z": -0.2139193165,
				"element": "S" 
			},
			{
				"x": 1.3969338911,
				"y": -2.2976596047,
				"z": -1.062514213,
				"element": "C" 
			},
			{
				"x": 1.1855117299,
				"y": -2.2954311514,
				"z": -2.356914245,
				"element": "N" 
			},
			{
				"x": 0.2081181584,
				"y": -1.3512395983,
				"z": -2.6017679767,
				"element": "N" 
			},
			{
				"x": -0.1361424071,
				"y": -0.8116739887,
				"z": -1.4505489266,
				"element": "C" 
			},
			{
				"x": 0.5997327629,
				"y": -1.3833901359,
				"z": -0.4197992717,
				"element": "N" 
			},
			{
				"x": 0.666806246,
				"y": -0.9659194521,
				"z": 0.9808375658,
				"element": "C" 
			},
			{
				"x": 1.4320888352,
				"y": 0.3551165188,
				"z": 1.1922349353,
				"element": "C" 
			},
			{
				"x": 2.959439124,
				"y": 0.2757827983,
				"z": 0.9883773107,
				"element": "C" 
			},
			{
				"x": 3.4853055779,
				"y": 0.0769493056,
				"z": 2.4191931861,
				"element": "C" 
			},
			{
				"x": 2.4781240743,
				"y": 0.898045943,
				"z": 3.2246883049,
				"element": "C" 
			},
			{
				"x": 1.2216820991,
				"y": 0.7180321123,
				"z": 2.5638652361,
				"element": "O" 
			},
			{
				"x": -1.1343084526,
				"y": 0.2411350536,
				"z": -1.2819184809,
				"element": "C" 
			},
			{
				"x": -1.1590703298,
				"y": 1.4046586625,
				"z": -2.0182576331,
				"element": "C" 
			},
			{
				"x": -2.2564626815,
				"y": 2.1543332006,
				"z": -1.6674439992,
				"element": "N" 
			},
			{
				"x": -2.9810741219,
				"y": 1.4861837547,
				"z": -0.6978602494,
				"element": "C" 
			},
			{
				"x": -2.3073689584,
				"y": 0.2626112497,
				"z": -0.4338926156,
				"element": "C" 
			},
			{
				"x": -2.8775114081,
				"y": -0.6368319432,
				"z": 0.4847774427,
				"element": "C" 
			},
			{
				"x": -4.0586198174,
				"y": -0.2877392781,
				"z": 1.1273794638,
				"element": "C" 
			},
			{
				"x": -4.6947190231,
				"y": 0.942962634,
				"z": 0.8672473467,
				"element": "C" 
			},
			{
				"x": -4.1688739703,
				"y": 1.8431200929,
				"z": -0.0519648958,
				"element": "C" 
			},
			{
				"x": 2.8407655609,
				"y": -4.0272802696,
				"z": -1.3464107102,
				"element": "H" 
			},
			{
				"x": -0.3455667544,
				"y": -0.8352916648,
				"z": 1.3658408523,
				"element": "H" 
			},
			{
				"x": 1.1344539656,
				"y": -1.7697391981,
				"z": 1.5563703087,
				"element": "H" 
			},
			{
				"x": 0.9813918958,
				"y": 1.1175271624,
				"z": 0.5445792356,
				"element": "H" 
			},
			{
				"x": 3.2589479882,
				"y": -0.5188796115,
				"z": 0.301092536,
				"element": "H" 
			},
			{
				"x": 3.3273869484,
				"y": 1.2224240177,
				"z": 0.5788533894,
				"element": "H" 
			},
			{
				"x": 4.5168851722,
				"y": 0.4151880575,
				"z": 2.5491976012,
				"element": "H" 
			},
			{
				"x": 3.4375365128,
				"y": -0.978593973,
				"z": 2.7091011284,
				"element": "H" 
			},
			{
				"x": 2.7543835838,
				"y": 1.9641764831,
				"z": 3.2285849438,
				"element": "H" 
			},
			{
				"x": 2.3639011523,
				"y": 0.5708690242,
				"z": 4.2627965554,
				"element": "H" 
			},
			{
				"x": -0.4659690687,
				"y": 1.7402065518,
				"z": -2.7756099991,
				"element": "H" 
			},
			{
				"x": -2.4977451107,
				"y": 3.0482041084,
				"z": -2.0635538763,
				"element": "H" 
			},
			{
				"x": -2.4144280063,
				"y": -1.6008836322,
				"z": 0.6741870674,
				"element": "H" 
			},
			{
				"x": -4.5058260266,
				"y": -0.9768366212,
				"z": 1.8374605236,
				"element": "H" 
			},
			{
				"x": -5.6161219895,
				"y": 1.1881867709,
				"z": 1.3867530931,
				"element": "H" 
			},
			{
				"x": -4.6661726311,
				"y": 2.7850763499,
				"z": -0.2653416181,
				"element": "H" 
			}
		],
		 "valence_orbital": [ 
			{
				"type": "occ",
				"energy": -0.25298,
				"method": "rhf"
			},
			{
				"type": "occ",
				"energy": -0.24687,
				"method": "rhf"
			},
			{
				"type": "occ",
				"energy": -0.2318,
				"method": "rhf"
			},
			{
				"type": "occ",
				"energy": -0.22903,
				"method": "rhf"
			},
			{
				"type": "occ",
				"energy": -0.2043,
				"method": "rhf"
			},
			{
				"type": "unocc",
				"energy": -0.0203,
				"method": "rhf"
			},
			{
				"type": "unocc",
				"energy": 0.00639,
				"method": "rhf"
			},
			{
				"type": "unocc",
				"energy": 0.0136,
				"method": "rhf"
			},
			{
				"type": "unocc",
				"energy": 0.02109,
				"method": "rhf"
			},
			{
				"type": "unocc",
				"energy": 0.04332,
				"method": "rhf"
			}
		],
		"cosmo_sigma_profile": { 
			"-0.025": 0.0,
			"-0.024": 0.0,
			"-0.023": 0.0,
			"-0.022": 0.0,
			"-0.021": 0.0,
			"-0.02": 0.0,
			"-0.019": 0.0,
			"-0.018": 0.0,
			"-0.017": 0.0337193633617,
			"-0.016": 1.35340697152,
			"-0.015": 1.61499776203,
			"-0.014": 1.51900206272,
			"-0.013": 1.35327255624,
			"-0.012": 2.60363071199,
			"-0.011": 2.62718436912,
			"-0.01": 2.33767927443,
			"-0.009": 4.07309250847,
			"-0.008": 4.13432882503,
			"-0.007": 5.24101274218,
			"-0.006": 12.1932456844,
			"-0.005": 15.7151816889,
			"-0.004": 27.4268374016,
			"-0.003": 35.0045131625,
			"-0.002": 31.3931306561,
			"-0.001": 26.264215367,
			"0.0": 22.9935608455,
			"0.001": 17.2721791872,
			"0.002": 17.201617437,
			"0.003": 16.0731955982,
			"0.004": 16.1436980698,
			"0.005": 15.4119718752,
			"0.006": 12.4013518374,
			"0.007": 4.98529470647,
			"0.008": 3.31370094686,
			"0.009": 3.06397167535,
			"0.01": 2.66480422773,
			"0.011": 3.76294560406,
			"0.012": 3.74321927418,
			"0.013": 5.00762518168,
			"0.014": 4.00190967511,
			"0.015": 1.98801497681,
			"0.016": 2.48574289362,
			"0.017": 1.04734710354,
			"0.018": 0.0264568647147,
			"0.019": 0.0,
			"0.02": 0.0,
			"0.021": 0.0,
			"0.022": 0.0,
			"0.023": 0.0,
			"0.024": 0.0,
			"0.025": 0.0
		}
	}
}
