{
	 "smiles": "CC1=C2C(=O)OC(O)C2=CC=C1", 
	 "Tm": 390.15, 
	 "num_atms": 20, 
	 "gaussian": { 
		 "optdone": 1, 
		 "sigma_profile": "yes", 
		 "theory": "DFT", 
		 "functional": "B3LYP", 
		 "basiset": "6-31G**", 
		 "properties": { 
			 "R2extent": 2595.9237, 
			 "electric_dipole_moment_norm": 4.64601164549, 
			 "electric_quadrupole_moment_norm": 12.6384306609, 
			 "total_energy": -573.464835689, 
			 "HOMO_LUMO_gap": 0.20893, 
			 "cosmo_polarized_energy": -13.31, 
			 "cosmo_cavitation_energy": 24.1, 
			 "cosmo_dispersion_energy": -17.79, 
			 "cosmo_repulsion_energy": 1.41, 
			 "cosmo_total_nonelectrostatic_energy": 7.73, 
			 "SMD_solvation_energy": 5.07 
		},
		"coords": [
			{
				"x": 1.3126012908,
				"y": 2.1247870618,
				"z": -0.0696350812,
				"element": "C" 
			},
			{
				"x": 0.4424411903,
				"y": 0.9627472482,
				"z": -0.4708863424,
				"element": "C" 
			},
			{
				"x": -0.9495766653,
				"y": 0.9757604136,
				"z": -0.2962407905,
				"element": "C" 
			},
			{
				"x": -1.8217107594,
				"y": 2.0499930591,
				"z": 0.2379205682,
				"element": "C" 
			},
			{
				"x": -1.5317449479,
				"y": 3.1424660159,
				"z": 0.6602771103,
				"element": "O" 
			},
			{
				"x": -3.1232118087,
				"y": 1.6027837323,
				"z": 0.1792706799,
				"element": "O" 
			},
			{
				"x": -3.1981336409,
				"y": 0.2552083695,
				"z": -0.3465096495,
				"element": "C" 
			},
			{
				"x": -4.0752006964,
				"y": 0.1771310417,
				"z": -1.4216870317,
				"element": "O" 
			},
			{
				"x": -1.7595607458,
				"y": -0.0941358482,
				"z": -0.6597244919,
				"element": "C" 
			},
			{
				"x": -1.2280003442,
				"y": -1.2447116215,
				"z": -1.2304893037,
				"element": "C" 
			},
			{
				"x": 0.1572843857,
				"y": -1.2824059673,
				"z": -1.4144053287,
				"element": "C" 
			},
			{
				"x": 0.9707141545,
				"y": -0.2039557412,
				"z": -1.0403934662,
				"element": "C" 
			},
			{
				"x": 0.9892089263,
				"y": 3.0476182432,
				"z": -0.5601170608,
				"element": "H" 
			},
			{
				"x": 1.2425881503,
				"y": 2.3140571413,
				"z": 1.0062572463,
				"element": "H" 
			},
			{
				"x": 2.3586936977,
				"y": 1.9358659158,
				"z": -0.323805634,
				"element": "H" 
			},
			{
				"x": -3.6348895631,
				"y": -0.3729169552,
				"z": 0.436048831,
				"element": "H" 
			},
			{
				"x": -3.6944690233,
				"y": 0.6751990917,
				"z": -2.1597885896,
				"element": "H" 
			},
			{
				"x": -1.8596298318,
				"y": -2.0768799379,
				"z": -1.5256065125,
				"element": "H" 
			},
			{
				"x": 0.6164756604,
				"y": -2.1621005562,
				"z": -1.8564245343,
				"element": "H" 
			},
			{
				"x": 2.0438205708,
				"y": -0.2718107065,
				"z": -1.1982606187,
				"element": "H" 
			}
		],
		 "valence_orbital": [ 
			{
				"type": "occ",
				"energy": -0.32015,
				"method": "rhf"
			},
			{
				"type": "occ",
				"energy": -0.29803,
				"method": "rhf"
			},
			{
				"type": "occ",
				"energy": -0.27459,
				"method": "rhf"
			},
			{
				"type": "occ",
				"energy": -0.27004,
				"method": "rhf"
			},
			{
				"type": "occ",
				"energy": -0.26402,
				"method": "rhf"
			},
			{
				"type": "unocc",
				"energy": -0.05509,
				"method": "rhf"
			},
			{
				"type": "unocc",
				"energy": -0.02693,
				"method": "rhf"
			},
			{
				"type": "unocc",
				"energy": 0.0496,
				"method": "rhf"
			},
			{
				"type": "unocc",
				"energy": 0.08087,
				"method": "rhf"
			},
			{
				"type": "unocc",
				"energy": 0.08902,
				"method": "rhf"
			}
		],
		"cosmo_sigma_profile": { 
			"-0.025": 0.0,
			"-0.024": 0.0,
			"-0.023": 0.0,
			"-0.022": 0.0,
			"-0.021": 0.0,
			"-0.02": 0.0,
			"-0.019": 0.0,
			"-0.018": 0.0411927859633,
			"-0.017": 0.818584745241,
			"-0.016": 1.15676253817,
			"-0.015": 1.05883750722,
			"-0.014": 0.502485653823,
			"-0.013": 0.921795779394,
			"-0.012": 1.2600407834,
			"-0.011": 1.01992852981,
			"-0.01": 0.673214441403,
			"-0.009": 0.463857480399,
			"-0.008": 4.04012461281,
			"-0.007": 6.45128158221,
			"-0.006": 10.2148472236,
			"-0.005": 13.7645612384,
			"-0.004": 13.089141492,
			"-0.003": 13.4993053095,
			"-0.002": 13.4188329367,
			"-0.001": 15.3192526648,
			"0.0": 15.6710806312,
			"0.001": 10.4953467362,
			"0.002": 11.5701670236,
			"0.003": 12.1507551697,
			"0.004": 4.97484561849,
			"0.005": 3.26087051324,
			"0.006": 2.90930881786,
			"0.007": 4.01571502483,
			"0.008": 4.75768286743,
			"0.009": 5.33037006274,
			"0.01": 6.20180639317,
			"0.011": 6.88759217226,
			"0.012": 5.00069527837,
			"0.013": 0.895276308039,
			"0.014": 0.0,
			"0.015": 0.0,
			"0.016": 0.0,
			"0.017": 0.0,
			"0.018": 0.0,
			"0.019": 0.0,
			"0.02": 0.0,
			"0.021": 0.0,
			"0.022": 0.0,
			"0.023": 0.0,
			"0.024": 0.0,
			"0.025": 0.0
		}
	}
}
