{
	 "smiles": "NC1=CC(C(O)=O)=C(Cl)C(Cl)=C1", 
	 "Tm": 473.15, 
	 "num_atms": 17, 
	 "gaussian": { 
		 "optdone": 1, 
		 "sigma_profile": "yes", 
		 "theory": "DFT", 
		 "functional": "B3LYP", 
		 "basiset": "6-31G**", 
		 "properties": { 
			 "R2extent": 4288.1463, 
			 "electric_dipole_moment_norm": 4.66588614306, 
			 "electric_quadrupole_moment_norm": 8.46596312713, 
			 "total_energy": -1395.34658523, 
			 "HOMO_LUMO_gap": 0.16992, 
			 "cosmo_polarized_energy": -14.66, 
			 "cosmo_cavitation_energy": 24.95, 
			 "cosmo_dispersion_energy": -19.08, 
			 "cosmo_repulsion_energy": 1.51, 
			 "cosmo_total_nonelectrostatic_energy": 7.38, 
			 "SMD_solvation_energy": 4.95 
		},
		"coords": [
			{
				"x": -0.6032061085,
				"y": 2.1732058471,
				"z": -0.009763098,
				"element": "N" 
			},
			{
				"x": -0.2643089516,
				"y": 1.0706998785,
				"z": -0.7759125456,
				"element": "C" 
			},
			{
				"x": 0.2273322104,
				"y": -0.0967734387,
				"z": -0.1777674298,
				"element": "C" 
			},
			{
				"x": 0.6341519478,
				"y": -1.2064085241,
				"z": -0.923196463,
				"element": "C" 
			},
			{
				"x": 1.1339569293,
				"y": -2.358349809,
				"z": -0.059131764,
				"element": "C" 
			},
			{
				"x": 1.8023122787,
				"y": -3.3734102003,
				"z": -0.6281504482,
				"element": "O" 
			},
			{
				"x": 0.9589444744,
				"y": -2.3497087574,
				"z": 1.1388001416,
				"element": "O" 
			},
			{
				"x": 0.5373857457,
				"y": -1.1501734523,
				"z": -2.3293736437,
				"element": "C" 
			},
			{
				"x": 0.9877580535,
				"y": -2.5008948511,
				"z": -3.3696227162,
				"element": "Cl" 
			},
			{
				"x": 0.0385412106,
				"y": 0.0134549078,
				"z": -2.9339003741,
				"element": "C" 
			},
			{
				"x": -0.1189776998,
				"y": 0.1358792961,
				"z": -4.6718069965,
				"element": "Cl" 
			},
			{
				"x": -0.3537977459,
				"y": 1.1108421959,
				"z": -2.1753788884,
				"element": "C" 
			},
			{
				"x": -0.791697427,
				"y": 1.9992431592,
				"z": 0.9666547014,
				"element": "H" 
			},
			{
				"x": -1.2340888002,
				"y": 2.8417424673,
				"z": -0.4267508168,
				"element": "H" 
			},
			{
				"x": 0.3039709269,
				"y": -0.1777861931,
				"z": 0.9007781591,
				"element": "H" 
			},
			{
				"x": 1.8544005374,
				"y": -3.2717630907,
				"z": -1.5931311471,
				"element": "H" 
			},
			{
				"x": -0.7261775818,
				"y": 1.9949005647,
				"z": -2.6817466705,
				"element": "H" 
			}
		],
		 "valence_orbital": [ 
			{
				"type": "occ",
				"energy": -0.32303,
				"method": "rhf"
			},
			{
				"type": "occ",
				"energy": -0.30732,
				"method": "rhf"
			},
			{
				"type": "occ",
				"energy": -0.27966,
				"method": "rhf"
			},
			{
				"type": "occ",
				"energy": -0.26885,
				"method": "rhf"
			},
			{
				"type": "occ",
				"energy": -0.23085,
				"method": "rhf"
			},
			{
				"type": "unocc",
				"energy": -0.06093,
				"method": "rhf"
			},
			{
				"type": "unocc",
				"energy": -0.02404,
				"method": "rhf"
			},
			{
				"type": "unocc",
				"energy": -0.01601,
				"method": "rhf"
			},
			{
				"type": "unocc",
				"energy": 0.0417,
				"method": "rhf"
			},
			{
				"type": "unocc",
				"energy": 0.04456,
				"method": "rhf"
			}
		],
		"cosmo_sigma_profile": { 
			"-0.025": 0.0,
			"-0.024": 0.0,
			"-0.023": 0.0,
			"-0.022": 0.0,
			"-0.021": 0.0,
			"-0.02": 0.0,
			"-0.019": 0.0,
			"-0.018": 0.0,
			"-0.017": 0.0,
			"-0.016": 0.0,
			"-0.015": 0.0,
			"-0.014": 1.18474091288,
			"-0.013": 2.97407542813,
			"-0.012": 4.57537851685,
			"-0.011": 4.51437164205,
			"-0.01": 4.62563864985,
			"-0.009": 3.72192852612,
			"-0.008": 5.90604952129,
			"-0.007": 3.87780743957,
			"-0.006": 5.24783645284,
			"-0.005": 6.32378026126,
			"-0.004": 7.96987873091,
			"-0.003": 8.36757859952,
			"-0.002": 9.32489869614,
			"-0.001": 13.694509487,
			"0.0": 17.9578013388,
			"0.001": 22.4343970656,
			"0.002": 19.121964343,
			"0.003": 16.256972114,
			"0.004": 12.8789654687,
			"0.005": 2.72123003989,
			"0.006": 3.25885215852,
			"0.007": 4.51649958915,
			"0.008": 2.9064909553,
			"0.009": 3.86423654757,
			"0.01": 5.48137653343,
			"0.011": 5.85761129014,
			"0.012": 3.75969450011,
			"0.013": 1.0844998845,
			"0.014": 0.0,
			"0.015": 0.0,
			"0.016": 0.0,
			"0.017": 0.0,
			"0.018": 0.0,
			"0.019": 0.0,
			"0.02": 0.0,
			"0.021": 0.0,
			"0.022": 0.0,
			"0.023": 0.0,
			"0.024": 0.0,
			"0.025": 0.0
		}
	}
}
