{
	 "smiles": "CC(C)(C)OC(=O)N1CCC(CC1)OC1=CC=CC=C1N", 
	 "Tm": 347.65, 
	 "num_atms": 45, 
	 "gaussian": { 
		 "optdone": 1, 
		 "sigma_profile": "yes", 
		 "theory": "DFT", 
		 "functional": "B3LYP", 
		 "basiset": "6-31G**", 
		 "properties": { 
			 "R2extent": 9465.3079, 
			 "electric_dipole_moment_norm": 2.62427590966, 
			 "electric_quadrupole_moment_norm": 14.1203626129, 
			 "total_energy": -959.384277015, 
			 "HOMO_LUMO_gap": 0.20227, 
			 "cosmo_polarized_energy": -13.67, 
			 "cosmo_cavitation_energy": 45.01, 
			 "cosmo_dispersion_energy": -31.09, 
			 "cosmo_repulsion_energy": 2.39, 
			 "cosmo_total_nonelectrostatic_energy": 16.32, 
			 "SMD_solvation_energy": 7.75 
		},
		"coords": [
			{
				"x": -5.6814048208,
				"y": 0.8640083524,
				"z": -2.0220774619,
				"element": "C" 
			},
			{
				"x": -4.3995656284,
				"y": 1.3086251973,
				"z": -2.7325765971,
				"element": "C" 
			},
			{
				"x": -4.310363879,
				"y": 2.8380556079,
				"z": -2.7797978505,
				"element": "C" 
			},
			{
				"x": -4.3076724794,
				"y": 0.6783191781,
				"z": -4.1267256783,
				"element": "C" 
			},
			{
				"x": -3.3484808003,
				"y": 0.7666651231,
				"z": -1.860216664,
				"element": "O" 
			},
			{
				"x": -2.0352936305,
				"y": 0.9510639031,
				"z": -2.1565347927,
				"element": "C" 
			},
			{
				"x": -1.614014588,
				"y": 1.5617316061,
				"z": -3.1304392213,
				"element": "O" 
			},
			{
				"x": -1.2276641829,
				"y": 0.3566426984,
				"z": -1.2222181123,
				"element": "N" 
			},
			{
				"x": -1.6975988167,
				"y": -0.3534064872,
				"z": -0.0347027333,
				"element": "C" 
			},
			{
				"x": -1.0623037974,
				"y": -1.7496396834,
				"z": 0.0461449704,
				"element": "C" 
			},
			{
				"x": 0.4633482131,
				"y": -1.7021080655,
				"z": -0.0763715422,
				"element": "C" 
			},
			{
				"x": 0.8915212093,
				"y": -0.8967403733,
				"z": -1.3118036898,
				"element": "C" 
			},
			{
				"x": 0.2252293984,
				"y": 0.4842476013,
				"z": -1.3457710597,
				"element": "C" 
			},
			{
				"x": 0.942209046,
				"y": -1.0894219679,
				"z": 1.1384443255,
				"element": "O" 
			},
			{
				"x": 2.3023656548,
				"y": -1.0395652318,
				"z": 1.3778833707,
				"element": "C" 
			},
			{
				"x": 3.1838442171,
				"y": -2.0857672971,
				"z": 1.1147215876,
				"element": "C" 
			},
			{
				"x": 4.5383792835,
				"y": -1.9681579927,
				"z": 1.4436946428,
				"element": "C" 
			},
			{
				"x": 5.0013668269,
				"y": -0.8011820791,
				"z": 2.048439632,
				"element": "C" 
			},
			{
				"x": 4.1199123014,
				"y": 0.2460077065,
				"z": 2.3209602041,
				"element": "C" 
			},
			{
				"x": 2.7633203379,
				"y": 0.149754163,
				"z": 1.9865533742,
				"element": "C" 
			},
			{
				"x": 1.8684712114,
				"y": 1.2038759485,
				"z": 2.183898585,
				"element": "N" 
			},
			{
				"x": -5.72589251,
				"y": -0.2269053086,
				"z": -1.9512071658,
				"element": "H" 
			},
			{
				"x": -5.7259058536,
				"y": 1.2780100842,
				"z": -1.0103623205,
				"element": "H" 
			},
			{
				"x": -6.5586436031,
				"y": 1.2104538974,
				"z": -2.5765572162,
				"element": "H" 
			},
			{
				"x": -5.1644015623,
				"y": 3.2392860425,
				"z": -3.3353929334,
				"element": "H" 
			},
			{
				"x": -3.3889006776,
				"y": 3.1591256805,
				"z": -3.2652653359,
				"element": "H" 
			},
			{
				"x": -4.3407660679,
				"y": 3.2508041212,
				"z": -1.7662489963,
				"element": "H" 
			},
			{
				"x": -3.3870325347,
				"y": 0.9762217694,
				"z": -4.6283168882,
				"element": "H" 
			},
			{
				"x": -5.1625157598,
				"y": 0.9977714364,
				"z": -4.7319027387,
				"element": "H" 
			},
			{
				"x": -4.3347940634,
				"y": -0.413632027,
				"z": -4.051638584,
				"element": "H" 
			},
			{
				"x": -2.7821573907,
				"y": -0.4267358681,
				"z": -0.0716007245,
				"element": "H" 
			},
			{
				"x": -1.4297870855,
				"y": 0.223386055,
				"z": 0.8619842146,
				"element": "H" 
			},
			{
				"x": -1.4526176467,
				"y": -2.3707558533,
				"z": -0.7685427353,
				"element": "H" 
			},
			{
				"x": -1.3356462699,
				"y": -2.2282450691,
				"z": 0.9926275668,
				"element": "H" 
			},
			{
				"x": 0.8491821761,
				"y": -2.7270564866,
				"z": -0.1419463714,
				"element": "H" 
			},
			{
				"x": 1.9807020352,
				"y": -0.7853557775,
				"z": -1.3242009549,
				"element": "H" 
			},
			{
				"x": 0.6089497128,
				"y": -1.4628611049,
				"z": -2.2078201175,
				"element": "H" 
			},
			{
				"x": 0.4335819496,
				"y": 1.0013225655,
				"z": -2.2815218092,
				"element": "H" 
			},
			{
				"x": 0.6082981256,
				"y": 1.0987101209,
				"z": -0.5196357607,
				"element": "H" 
			},
			{
				"x": 2.8163222357,
				"y": -2.9998528483,
				"z": 0.6600893247,
				"element": "H" 
			},
			{
				"x": 5.2174557267,
				"y": -2.7877758082,
				"z": 1.2308766804,
				"element": "H" 
			},
			{
				"x": 6.0499932265,
				"y": -0.6998168972,
				"z": 2.3121049999,
				"element": "H" 
			},
			{
				"x": 4.4830130396,
				"y": 1.1592123117,
				"z": 2.7865569365,
				"element": "H" 
			},
			{
				"x": 0.9048833769,
				"y": 0.9056509048,
				"z": 2.2464553656,
				"element": "H" 
			},
			{
				"x": 2.1265743443,
				"y": 1.8458301515,
				"z": 2.9206602747,
				"element": "H" 
			}
		],
		 "valence_orbital": [ 
			{
				"type": "occ",
				"energy": -0.28131,
				"method": "rhf"
			},
			{
				"type": "occ",
				"energy": -0.25328,
				"method": "rhf"
			},
			{
				"type": "occ",
				"energy": -0.22971,
				"method": "rhf"
			},
			{
				"type": "occ",
				"energy": -0.22855,
				"method": "rhf"
			},
			{
				"type": "occ",
				"energy": -0.19342,
				"method": "rhf"
			},
			{
				"type": "unocc",
				"energy": 0.00885,
				"method": "rhf"
			},
			{
				"type": "unocc",
				"energy": 0.02212,
				"method": "rhf"
			},
			{
				"type": "unocc",
				"energy": 0.05785,
				"method": "rhf"
			},
			{
				"type": "unocc",
				"energy": 0.07484,
				"method": "rhf"
			},
			{
				"type": "unocc",
				"energy": 0.0825,
				"method": "rhf"
			}
		],
		"cosmo_sigma_profile": { 
			"-0.025": 0.0,
			"-0.024": 0.0,
			"-0.023": 0.0,
			"-0.022": 0.0,
			"-0.021": 0.0,
			"-0.02": 0.0,
			"-0.019": 0.0,
			"-0.018": 0.0,
			"-0.017": 0.0,
			"-0.016": 0.0,
			"-0.015": 0.0,
			"-0.014": 0.0,
			"-0.013": 0.0773879844365,
			"-0.012": 1.09615236939,
			"-0.011": 1.39649786351,
			"-0.01": 1.65424738009,
			"-0.009": 2.54706381657,
			"-0.008": 2.80727888774,
			"-0.007": 3.06538650459,
			"-0.006": 6.13926217495,
			"-0.005": 11.283769403,
			"-0.004": 32.3007152028,
			"-0.003": 39.6482377545,
			"-0.002": 42.3777682759,
			"-0.001": 37.5591899279,
			"0.0": 38.9066814063,
			"0.001": 32.8783528483,
			"0.002": 15.3505843653,
			"0.003": 13.5293511485,
			"0.004": 14.173685135,
			"0.005": 13.562206228,
			"0.006": 11.6335966686,
			"0.007": 10.6164088699,
			"0.008": 4.56908937059,
			"0.009": 2.79231811541,
			"0.01": 1.94394587841,
			"0.011": 1.95831780923,
			"0.012": 2.8665127635,
			"0.013": 2.50821272496,
			"0.014": 2.31510403176,
			"0.015": 0.0,
			"0.016": 0.0,
			"0.017": 0.0,
			"0.018": 0.0,
			"0.019": 0.0,
			"0.02": 0.0,
			"0.021": 0.0,
			"0.022": 0.0,
			"0.023": 0.0,
			"0.024": 0.0,
			"0.025": 0.0
		}
	}
}
