{
	 "smiles": "CCOC(=O)C1=C(NC(=S)NC2=CC=CC=C2)SC2=C1CCCC2", 
	 "Tm": 463.15, 
	 "num_atms": 44, 
	 "gaussian": { 
		 "optdone": 1, 
		 "sigma_profile": "yes", 
		 "theory": "DFT", 
		 "functional": "B3LYP", 
		 "basiset": "6-31G**", 
		 "properties": { 
			 "R2extent": 12480.3074, 
			 "electric_dipole_moment_norm": 5.13171329187, 
			 "electric_quadrupole_moment_norm": 21.8035975552, 
			 "total_energy": -1754.34004164, 
			 "HOMO_LUMO_gap": 0.14862, 
			 "cosmo_polarized_energy": -15.07, 
			 "cosmo_cavitation_energy": 48.78, 
			 "cosmo_dispersion_energy": -34.82, 
			 "cosmo_repulsion_energy": 2.6, 
			 "cosmo_total_nonelectrostatic_energy": 16.57, 
			 "SMD_solvation_energy": 6.97 
		},
		"coords": [
			{
				"x": -1.8604350725,
				"y": -2.2444479416,
				"z": -2.4246738981,
				"element": "C" 
			},
			{
				"x": -0.8256672314,
				"y": -2.0231212144,
				"z": -1.3378315959,
				"element": "C" 
			},
			{
				"x": -0.6033442458,
				"y": -0.5974538939,
				"z": -1.2346060686,
				"element": "O" 
			},
			{
				"x": 0.3020785615,
				"y": -0.2049392152,
				"z": -0.3162139375,
				"element": "C" 
			},
			{
				"x": 0.894982863,
				"y": -1.0279160235,
				"z": 0.3870984917,
				"element": "O" 
			},
			{
				"x": 0.5103896878,
				"y": 1.2410700273,
				"z": -0.2538661517,
				"element": "C" 
			},
			{
				"x": 1.4884857917,
				"y": 1.7758303791,
				"z": 0.5951579383,
				"element": "C" 
			},
			{
				"x": 2.2589798319,
				"y": 0.998153967,
				"z": 1.4401330584,
				"element": "N" 
			},
			{
				"x": 3.2688001037,
				"y": 1.3641321937,
				"z": 2.2847796101,
				"element": "C" 
			},
			{
				"x": 3.8916290115,
				"y": 2.9166497255,
				"z": 2.4353158506,
				"element": "S" 
			},
			{
				"x": 3.810437235,
				"y": 0.3467758459,
				"z": 3.0301456307,
				"element": "N" 
			},
			{
				"x": 3.3700084858,
				"y": -0.9827260212,
				"z": 3.2610122012,
				"element": "C" 
			},
			{
				"x": 2.0235365654,
				"y": -1.2963257414,
				"z": 3.4925861606,
				"element": "C" 
			},
			{
				"x": 1.6565429482,
				"y": -2.613952613,
				"z": 3.7636778226,
				"element": "C" 
			},
			{
				"x": 2.6199224353,
				"y": -3.6206869159,
				"z": 3.8371606554,
				"element": "C" 
			},
			{
				"x": 3.9639515101,
				"y": -3.3030144129,
				"z": 3.629050585,
				"element": "C" 
			},
			{
				"x": 4.338782275,
				"y": -1.9945242464,
				"z": 3.3333772335,
				"element": "C" 
			},
			{
				"x": 1.5920360714,
				"y": 3.5075532539,
				"z": 0.4510996553,
				"element": "S" 
			},
			{
				"x": 0.2971468883,
				"y": 3.5146343972,
				"z": -0.7352117081,
				"element": "C" 
			},
			{
				"x": -0.1794843994,
				"y": 2.2659110717,
				"z": -1.0121055266,
				"element": "C" 
			},
			{
				"x": -1.2985672425,
				"y": 2.0597479701,
				"z": -2.0106274241,
				"element": "C" 
			},
			{
				"x": -1.994084546,
				"y": 3.3829471697,
				"z": -2.3753769849,
				"element": "C" 
			},
			{
				"x": -0.9859962719,
				"y": 4.5112792466,
				"z": -2.6261625921,
				"element": "C" 
			},
			{
				"x": -0.1745861188,
				"y": 4.8036155041,
				"z": -1.3528504711,
				"element": "C" 
			},
			{
				"x": -2.8043312911,
				"y": -1.7509973221,
				"z": -2.1756062582,
				"element": "H" 
			},
			{
				"x": -1.5099756294,
				"y": -1.8547089409,
				"z": -3.3846179735,
				"element": "H" 
			},
			{
				"x": -2.052785861,
				"y": -3.3158575145,
				"z": -2.5382410471,
				"element": "H" 
			},
			{
				"x": 0.1253465022,
				"y": -2.5124851511,
				"z": -1.5690042925,
				"element": "H" 
			},
			{
				"x": -1.1609341608,
				"y": -2.4005476819,
				"z": -0.3668164766,
				"element": "H" 
			},
			{
				"x": 2.0218745307,
				"y": 0.0018478022,
				"z": 1.3268777855,
				"element": "H" 
			},
			{
				"x": 4.6471849755,
				"y": 0.6393478568,
				"z": 3.5160215913,
				"element": "H" 
			},
			{
				"x": 1.2714615382,
				"y": -0.5156998216,
				"z": 3.4735443574,
				"element": "H" 
			},
			{
				"x": 0.6099873295,
				"y": -2.8475278216,
				"z": 3.9346788752,
				"element": "H" 
			},
			{
				"x": 2.3274111036,
				"y": -4.6426238975,
				"z": 4.0578485165,
				"element": "H" 
			},
			{
				"x": 4.7236449124,
				"y": -4.077070706,
				"z": 3.6856524103,
				"element": "H" 
			},
			{
				"x": 5.3809432509,
				"y": -1.74745055,
				"z": 3.1511934804,
				"element": "H" 
			},
			{
				"x": -0.8946355896,
				"y": 1.5850201564,
				"z": -2.9152405715,
				"element": "H" 
			},
			{
				"x": -2.0298383837,
				"y": 1.3502239847,
				"z": -1.6140877553,
				"element": "H" 
			},
			{
				"x": -2.626851409,
				"y": 3.2304254566,
				"z": -3.2569808237,
				"element": "H" 
			},
			{
				"x": -2.6631905829,
				"y": 3.6795262682,
				"z": -1.556344611,
				"element": "H" 
			},
			{
				"x": -0.3024625826,
				"y": 4.2178884054,
				"z": -3.4335287447,
				"element": "H" 
			},
			{
				"x": -1.4981658641,
				"y": 5.4218858094,
				"z": -2.9564144085,
				"element": "H" 
			},
			{
				"x": -0.7974692888,
				"y": 5.3596578811,
				"z": -0.6368066563,
				"element": "H" 
			},
			{
				"x": 0.6771413629,
				"y": 5.4551532737,
				"z": -1.5841959324,
				"element": "H" 
			}
		],
		 "valence_orbital": [ 
			{
				"type": "occ",
				"energy": -0.26053,
				"method": "rhf"
			},
			{
				"type": "occ",
				"energy": -0.24545,
				"method": "rhf"
			},
			{
				"type": "occ",
				"energy": -0.21526,
				"method": "rhf"
			},
			{
				"type": "occ",
				"energy": -0.20793,
				"method": "rhf"
			},
			{
				"type": "occ",
				"energy": -0.1994,
				"method": "rhf"
			},
			{
				"type": "unocc",
				"energy": -0.05078,
				"method": "rhf"
			},
			{
				"type": "unocc",
				"energy": -0.01284,
				"method": "rhf"
			},
			{
				"type": "unocc",
				"energy": -0.01207,
				"method": "rhf"
			},
			{
				"type": "unocc",
				"energy": 0.01408,
				"method": "rhf"
			},
			{
				"type": "unocc",
				"energy": 0.03052,
				"method": "rhf"
			}
		],
		"cosmo_sigma_profile": { 
			"-0.025": 0.0,
			"-0.024": 0.0,
			"-0.023": 0.0,
			"-0.022": 0.0,
			"-0.021": 0.0,
			"-0.02": 0.0,
			"-0.019": 0.0,
			"-0.018": 0.0,
			"-0.017": 0.0,
			"-0.016": 0.0,
			"-0.015": 0.231220145795,
			"-0.014": 1.10382291243,
			"-0.013": 0.704576036253,
			"-0.012": 0.790785679251,
			"-0.011": 0.971813079017,
			"-0.01": 1.49385563848,
			"-0.009": 0.885625376918,
			"-0.008": 1.43483328598,
			"-0.007": 3.88363086929,
			"-0.006": 10.9918032477,
			"-0.005": 19.5209787441,
			"-0.004": 29.3834197566,
			"-0.003": 36.6993608313,
			"-0.002": 44.8470704877,
			"-0.001": 46.506119431,
			"0.0": 40.5795723462,
			"0.001": 28.9182277757,
			"0.002": 21.9176849658,
			"0.003": 22.6175741771,
			"0.004": 20.5977323352,
			"0.005": 13.5619363347,
			"0.006": 8.55617838916,
			"0.007": 7.61187905461,
			"0.008": 8.45356056556,
			"0.009": 8.32709422429,
			"0.01": 7.81738608224,
			"0.011": 2.10142768042,
			"0.012": 0.165416358163,
			"0.013": 0.0,
			"0.014": 0.0,
			"0.015": 0.0,
			"0.016": 0.0,
			"0.017": 0.0,
			"0.018": 0.0,
			"0.019": 0.0,
			"0.02": 0.0,
			"0.021": 0.0,
			"0.022": 0.0,
			"0.023": 0.0,
			"0.024": 0.0,
			"0.025": 0.0
		}
	}
}
