{
	 "smiles": "CC(CC(O)=O)C1=CC=NC=C1", 
	 "Tm": 445.15, 
	 "num_atms": 23, 
	 "gaussian": { 
		 "optdone": 1, 
		 "sigma_profile": "yes", 
		 "theory": "DFT", 
		 "functional": "B3LYP", 
		 "basiset": "6-31G**", 
		 "properties": { 
			 "R2extent": 3236.3234, 
			 "electric_dipole_moment_norm": 2.41636382401, 
			 "electric_quadrupole_moment_norm": 26.2737260646, 
			 "total_energy": -554.793422458, 
			 "HOMO_LUMO_gap": 0.22653, 
			 "cosmo_polarized_energy": -18.64, 
			 "cosmo_cavitation_energy": 26.9, 
			 "cosmo_dispersion_energy": -18.85, 
			 "cosmo_repulsion_energy": 1.51, 
			 "cosmo_total_nonelectrostatic_energy": 9.56, 
			 "SMD_solvation_energy": 4.3 
		},
		"coords": [
			{
				"x": 1.4255802417,
				"y": -0.8096363491,
				"z": -2.4035080825,
				"element": "C" 
			},
			{
				"x": 1.3943319715,
				"y": 0.3619388496,
				"z": -1.4046931601,
				"element": "C" 
			},
			{
				"x": -0.0229443329,
				"y": 0.994319563,
				"z": -1.3110195411,
				"element": "C" 
			},
			{
				"x": -0.510967314,
				"y": 1.540057888,
				"z": -2.6462204202,
				"element": "C" 
			},
			{
				"x": 0.1379284703,
				"y": 2.6502694684,
				"z": -3.1001701765,
				"element": "O" 
			},
			{
				"x": -1.3854728731,
				"y": 1.0423002908,
				"z": -3.3087411936,
				"element": "O" 
			},
			{
				"x": 1.8855452421,
				"y": -0.0508490804,
				"z": -0.0264442181,
				"element": "C" 
			},
			{
				"x": 1.2306771699,
				"y": -1.0287975809,
				"z": 0.733784853,
				"element": "C" 
			},
			{
				"x": 1.7293425743,
				"y": -1.3629838371,
				"z": 1.9921495301,
				"element": "C" 
			},
			{
				"x": 2.8165911236,
				"y": -0.8034904097,
				"z": 2.539650807,
				"element": "N" 
			},
			{
				"x": 3.4413561547,
				"y": 0.1283184663,
				"z": 1.8111933001,
				"element": "C" 
			},
			{
				"x": 3.0211497188,
				"y": 0.5336955208,
				"z": 0.5431826208,
				"element": "C" 
			},
			{
				"x": 1.1244822798,
				"y": -0.4834310044,
				"z": -3.4031070301,
				"element": "H" 
			},
			{
				"x": 0.7422343643,
				"y": -1.6077135841,
				"z": -2.0966897837,
				"element": "H" 
			},
			{
				"x": 2.4317657538,
				"y": -1.2331589042,
				"z": -2.4684636467,
				"element": "H" 
			},
			{
				"x": 2.0843337882,
				"y": 1.1335054261,
				"z": -1.7731993744,
				"element": "H" 
			},
			{
				"x": -0.7498974943,
				"y": 0.2467686769,
				"z": -0.9871324579,
				"element": "H" 
			},
			{
				"x": -0.0157430178,
				"y": 1.798235253,
				"z": -0.5638470848,
				"element": "H" 
			},
			{
				"x": 0.7839467068,
				"y": 2.9540377759,
				"z": -2.4471556881,
				"element": "H" 
			},
			{
				"x": 0.3439026831,
				"y": -1.5315587418,
				"z": 0.3588579775,
				"element": "H" 
			},
			{
				"x": 1.2280260166,
				"y": -2.1210550911,
				"z": 2.5916354269,
				"element": "H" 
			},
			{
				"x": 4.3253838968,
				"y": 0.5772480346,
				"z": 2.2614233646,
				"element": "H" 
			},
			{
				"x": 3.5798468759,
				"y": 1.2960793693,
				"z": 0.0063139778,
				"element": "H" 
			}
		],
		 "valence_orbital": [ 
			{
				"type": "occ",
				"energy": -0.32063,
				"method": "rhf"
			},
			{
				"type": "occ",
				"energy": -0.28922,
				"method": "rhf"
			},
			{
				"type": "occ",
				"energy": -0.27229,
				"method": "rhf"
			},
			{
				"type": "occ",
				"energy": -0.27002,
				"method": "rhf"
			},
			{
				"type": "occ",
				"energy": -0.25987,
				"method": "rhf"
			},
			{
				"type": "unocc",
				"energy": -0.03334,
				"method": "rhf"
			},
			{
				"type": "unocc",
				"energy": -0.02018,
				"method": "rhf"
			},
			{
				"type": "unocc",
				"energy": 0.00271,
				"method": "rhf"
			},
			{
				"type": "unocc",
				"energy": 0.03812,
				"method": "rhf"
			},
			{
				"type": "unocc",
				"energy": 0.08621,
				"method": "rhf"
			}
		],
		"cosmo_sigma_profile": { 
			"-0.025": 0.0,
			"-0.024": 0.0,
			"-0.023": 0.0,
			"-0.022": 0.0,
			"-0.021": 0.0,
			"-0.02": 0.0,
			"-0.019": 0.262432007408,
			"-0.018": 1.03472605391,
			"-0.017": 1.14474858495,
			"-0.016": 1.37130897348,
			"-0.015": 0.883747485188,
			"-0.014": 1.47814190548,
			"-0.013": 0.919158966565,
			"-0.012": 1.00727472821,
			"-0.011": 1.08933168875,
			"-0.01": 1.39086754517,
			"-0.009": 1.44416721645,
			"-0.008": 1.77662142419,
			"-0.007": 6.76618170288,
			"-0.006": 15.246394915,
			"-0.005": 14.233249123,
			"-0.004": 16.3588430575,
			"-0.003": 16.6840539509,
			"-0.002": 14.0328971678,
			"-0.001": 12.9329051047,
			"0.0": 13.8340128745,
			"0.001": 11.7397223815,
			"0.002": 12.2857770401,
			"0.003": 14.5983572199,
			"0.004": 4.63555319465,
			"0.005": 4.40501416555,
			"0.006": 3.68073598506,
			"0.007": 3.44979138018,
			"0.008": 4.11914183304,
			"0.009": 4.67545649639,
			"0.01": 5.37864702098,
			"0.011": 6.46958521749,
			"0.012": 6.18137799854,
			"0.013": 3.77559033251,
			"0.014": 0.831354928948,
			"0.015": 0.845690696469,
			"0.016": 0.93767645646,
			"0.017": 0.587770027028,
			"0.018": 0.0,
			"0.019": 0.0,
			"0.02": 0.0,
			"0.021": 0.0,
			"0.022": 0.0,
			"0.023": 0.0,
			"0.024": 0.0,
			"0.025": 0.0
		}
	}
}
