{
	 "smiles": "CCCCOC1=CC=C(C=C1)C1=NN=C(CCl)O1", 
	 "Tm": 351.15, 
	 "num_atms": 33, 
	 "gaussian": { 
		 "optdone": 1, 
		 "sigma_profile": "yes", 
		 "theory": "DFT", 
		 "functional": "B3LYP", 
		 "basiset": "6-31G**", 
		 "properties": { 
			 "R2extent": 9084.4191, 
			 "electric_dipole_moment_norm": 5.30044505867, 
			 "electric_quadrupole_moment_norm": 13.185546388, 
			 "total_energy": -1224.54508454, 
			 "HOMO_LUMO_gap": 0.17038, 
			 "cosmo_polarized_energy": -13.35, 
			 "cosmo_cavitation_energy": 38.99, 
			 "cosmo_dispersion_energy": -27.85, 
			 "cosmo_repulsion_energy": 2.19, 
			 "cosmo_total_nonelectrostatic_energy": 13.33, 
			 "SMD_solvation_energy": 4.7 
		},
		"coords": [
			{
				"x": 4.5346336487,
				"y": -0.7425812351,
				"z": -3.0487071494,
				"element": "C" 
			},
			{
				"x": 5.3718903527,
				"y": -1.5476653588,
				"z": -2.0475756926,
				"element": "C" 
			},
			{
				"x": 4.6440722498,
				"y": -1.9428888887,
				"z": -0.7510249661,
				"element": "C" 
			},
			{
				"x": 3.538747986,
				"y": -2.9911139539,
				"z": -0.9097660992,
				"element": "C" 
			},
			{
				"x": 2.3711644276,
				"y": -2.5137953108,
				"z": -1.5939710645,
				"element": "O" 
			},
			{
				"x": 1.4251552644,
				"y": -1.806112617,
				"z": -0.9231707708,
				"element": "C" 
			},
			{
				"x": 0.322601626,
				"y": -1.3959141011,
				"z": -1.6958942887,
				"element": "C" 
			},
			{
				"x": -0.7128074334,
				"y": -0.6831799178,
				"z": -1.1185737904,
				"element": "C" 
			},
			{
				"x": -0.676298783,
				"y": -0.3573750165,
				"z": 0.2513057562,
				"element": "C" 
			},
			{
				"x": 0.4231310892,
				"y": -0.7653453723,
				"z": 1.016923287,
				"element": "C" 
			},
			{
				"x": 1.4703390169,
				"y": -1.4819750965,
				"z": 0.4412598981,
				"element": "C" 
			},
			{
				"x": -1.7752433931,
				"y": 0.39120468,
				"z": 0.8368223167,
				"element": "C" 
			},
			{
				"x": -2.8650415547,
				"y": 0.8225331829,
				"z": 0.262050522,
				"element": "N" 
			},
			{
				"x": -3.601600387,
				"y": 1.4737903831,
				"z": 1.2435290039,
				"element": "N" 
			},
			{
				"x": -2.9079156982,
				"y": 1.3964868949,
				"z": 2.3355381567,
				"element": "C" 
			},
			{
				"x": -3.2488399143,
				"y": 1.9496180205,
				"z": 3.6624969099,
				"element": "C" 
			},
			{
				"x": -3.6284799333,
				"y": 0.6474469308,
				"z": 4.8831050884,
				"element": "Cl" 
			},
			{
				"x": -1.7333245755,
				"y": 0.7270241169,
				"z": 2.1623629894,
				"element": "O" 
			},
			{
				"x": 5.1396057657,
				"y": -0.4535164755,
				"z": -3.9144391561,
				"element": "H" 
			},
			{
				"x": 3.6757422942,
				"y": -1.3142004914,
				"z": -3.408319005,
				"element": "H" 
			},
			{
				"x": 4.1507097109,
				"y": 0.1760868677,
				"z": -2.5904117899,
				"element": "H" 
			},
			{
				"x": 5.7520423789,
				"y": -2.4576895706,
				"z": -2.5324297223,
				"element": "H" 
			},
			{
				"x": 6.2582092049,
				"y": -0.962525092,
				"z": -1.771541716,
				"element": "H" 
			},
			{
				"x": 5.3762409795,
				"y": -2.3661898733,
				"z": -0.0499217313,
				"element": "H" 
			},
			{
				"x": 4.2352715379,
				"y": -1.0485738699,
				"z": -0.2644083049,
				"element": "H" 
			},
			{
				"x": 3.2501127602,
				"y": -3.4096931004,
				"z": 0.0621173343,
				"element": "H" 
			},
			{
				"x": 3.8932790367,
				"y": -3.8199009584,
				"z": -1.5305899097,
				"element": "H" 
			},
			{
				"x": 0.3055962434,
				"y": -1.657663756,
				"z": -2.7484478663,
				"element": "H" 
			},
			{
				"x": -1.5641431445,
				"y": -0.3689039672,
				"z": -1.7127699055,
				"element": "H" 
			},
			{
				"x": 0.4633016401,
				"y": -0.5206346698,
				"z": 2.0731559848,
				"element": "H" 
			},
			{
				"x": 2.3087938446,
				"y": -1.7758451189,
				"z": 1.0601275429,
				"element": "H" 
			},
			{
				"x": -2.4240814777,
				"y": 2.5251776745,
				"z": 4.0838918312,
				"element": "H" 
			},
			{
				"x": -4.1362647634,
				"y": 2.5720150604,
				"z": 3.5642763073,
				"element": "H" 
			}
		],
		 "valence_orbital": [ 
			{
				"type": "occ",
				"energy": -0.30659,
				"method": "rhf"
			},
			{
				"type": "occ",
				"energy": -0.28555,
				"method": "rhf"
			},
			{
				"type": "occ",
				"energy": -0.27905,
				"method": "rhf"
			},
			{
				"type": "occ",
				"energy": -0.26669,
				"method": "rhf"
			},
			{
				"type": "occ",
				"energy": -0.22324,
				"method": "rhf"
			},
			{
				"type": "unocc",
				"energy": -0.05286,
				"method": "rhf"
			},
			{
				"type": "unocc",
				"energy": -0.01911,
				"method": "rhf"
			},
			{
				"type": "unocc",
				"energy": -0.01469,
				"method": "rhf"
			},
			{
				"type": "unocc",
				"energy": 0.04481,
				"method": "rhf"
			},
			{
				"type": "unocc",
				"energy": 0.06289,
				"method": "rhf"
			}
		],
		"cosmo_sigma_profile": { 
			"-0.025": 0.0,
			"-0.024": 0.0,
			"-0.023": 0.0,
			"-0.022": 0.0,
			"-0.021": 0.0,
			"-0.02": 0.0,
			"-0.019": 0.0,
			"-0.018": 0.0,
			"-0.017": 0.0,
			"-0.016": 0.0,
			"-0.015": 0.0,
			"-0.014": 0.0,
			"-0.013": 0.0,
			"-0.012": 0.0,
			"-0.011": 0.00771520258249,
			"-0.01": 2.73568872833,
			"-0.009": 3.94361957541,
			"-0.008": 5.03887498255,
			"-0.007": 8.20826634464,
			"-0.006": 12.5589121655,
			"-0.005": 16.3313672248,
			"-0.004": 17.1367385872,
			"-0.003": 24.01881764,
			"-0.002": 27.6375651557,
			"-0.001": 28.9377465763,
			"0.0": 30.9075166338,
			"0.001": 29.204405657,
			"0.002": 25.7009819263,
			"0.003": 23.3834480101,
			"0.004": 15.5288552072,
			"0.005": 12.0480854362,
			"0.006": 6.2660904263,
			"0.007": 3.14894560046,
			"0.008": 2.68527147608,
			"0.009": 2.80407360185,
			"0.01": 3.51302898219,
			"0.011": 2.8571146661,
			"0.012": 2.96123696855,
			"0.013": 2.17272529254,
			"0.014": 1.84282027186,
			"0.015": 0.287032033377,
			"0.016": 0.0,
			"0.017": 0.0,
			"0.018": 0.0,
			"0.019": 0.0,
			"0.02": 0.0,
			"0.021": 0.0,
			"0.022": 0.0,
			"0.023": 0.0,
			"0.024": 0.0,
			"0.025": 0.0
		}
	}
}
