{
	 "smiles": "CC1=CC(=NO1)C(N)=O", 
	 "Tm": 445.15, 
	 "num_atms": 15, 
	 "gaussian": { 
		 "optdone": 1, 
		 "sigma_profile": "yes", 
		 "theory": "DFT", 
		 "functional": "B3LYP", 
		 "basiset": "6-31G**", 
		 "properties": { 
			 "R2extent": 2123.4699, 
			 "electric_dipole_moment_norm": 1.87380600383, 
			 "electric_quadrupole_moment_norm": 15.2679895805, 
			 "total_energy": -454.068952146, 
			 "HOMO_LUMO_gap": 0.21908, 
			 "cosmo_polarized_energy": -12.24, 
			 "cosmo_cavitation_energy": 20.0, 
			 "cosmo_dispersion_energy": -14.99, 
			 "cosmo_repulsion_energy": 1.26, 
			 "cosmo_total_nonelectrostatic_energy": 6.26, 
			 "SMD_solvation_energy": 4.74 
		},
		"coords": [
			{
				"x": 1.7407933849,
				"y": -1.4776943021,
				"z": -0.6141471371,
				"element": "C" 
			},
			{
				"x": 1.1026509375,
				"y": -0.6782722393,
				"z": 0.4676324571,
				"element": "C" 
			},
			{
				"x": 1.4657273513,
				"y": 0.4352139936,
				"z": 1.1639676259,
				"element": "C" 
			},
			{
				"x": 0.3758660219,
				"y": 0.6509478953,
				"z": 2.0499089969,
				"element": "C" 
			},
			{
				"x": -0.5673055463,
				"y": -0.2550914158,
				"z": 1.9026438648,
				"element": "N" 
			},
			{
				"x": -0.1132866336,
				"y": -1.1018151646,
				"z": 0.9005275095,
				"element": "O" 
			},
			{
				"x": 0.2514500683,
				"y": 1.7560539178,
				"z": 3.0547245652,
				"element": "C" 
			},
			{
				"x": -0.897822111,
				"y": 1.732824489,
				"z": 3.7795504296,
				"element": "N" 
			},
			{
				"x": 1.1359901958,
				"y": 2.5924547162,
				"z": 3.1823090236,
				"element": "O" 
			},
			{
				"x": 1.8967636624,
				"y": -2.5134944696,
				"z": -0.295162544,
				"element": "H" 
			},
			{
				"x": 1.1107301813,
				"y": -1.4977652068,
				"z": -1.5094556268,
				"element": "H" 
			},
			{
				"x": 2.7075112371,
				"y": -1.0449327312,
				"z": -0.8779252786,
				"element": "H" 
			},
			{
				"x": 2.3620472515,
				"y": 1.0280738632,
				"z": 1.0796345365,
				"element": "H" 
			},
			{
				"x": -1.0442528649,
				"y": 2.4486915882,
				"z": 4.473442113,
				"element": "H" 
			},
			{
				"x": -1.5903631363,
				"y": 1.0153050661,
				"z": 3.6275494643,
				"element": "H" 
			}
		],
		 "valence_orbital": [ 
			{
				"type": "occ",
				"energy": -0.31737,
				"method": "rhf"
			},
			{
				"type": "occ",
				"energy": -0.29986,
				"method": "rhf"
			},
			{
				"type": "occ",
				"energy": -0.273,
				"method": "rhf"
			},
			{
				"type": "occ",
				"energy": -0.26223,
				"method": "rhf"
			},
			{
				"type": "occ",
				"energy": -0.25962,
				"method": "rhf"
			},
			{
				"type": "unocc",
				"energy": -0.04054,
				"method": "rhf"
			},
			{
				"type": "unocc",
				"energy": 0.0164,
				"method": "rhf"
			},
			{
				"type": "unocc",
				"energy": 0.07771,
				"method": "rhf"
			},
			{
				"type": "unocc",
				"energy": 0.09703,
				"method": "rhf"
			},
			{
				"type": "unocc",
				"energy": 0.1117,
				"method": "rhf"
			}
		],
		"cosmo_sigma_profile": { 
			"-0.025": 0.0,
			"-0.024": 0.0,
			"-0.023": 0.0,
			"-0.022": 0.0,
			"-0.021": 0.0,
			"-0.02": 0.0,
			"-0.019": 0.0,
			"-0.018": 0.0,
			"-0.017": 0.0,
			"-0.016": 0.0,
			"-0.015": 0.298435014877,
			"-0.014": 1.80231014926,
			"-0.013": 1.87244523773,
			"-0.012": 1.86895408153,
			"-0.011": 1.96311348048,
			"-0.01": 1.93719754777,
			"-0.009": 1.31333143816,
			"-0.008": 3.61324111723,
			"-0.007": 4.00867593896,
			"-0.006": 10.4341601264,
			"-0.005": 8.46526694049,
			"-0.004": 9.25921804459,
			"-0.003": 10.8353144743,
			"-0.002": 13.8892765403,
			"-0.001": 10.8378254314,
			"0.0": 11.6288058107,
			"0.001": 10.0502410458,
			"0.002": 9.01925951839,
			"0.003": 5.88385751767,
			"0.004": 3.63140608991,
			"0.005": 3.07363941483,
			"0.006": 4.53664108977,
			"0.007": 6.57669067115,
			"0.008": 3.7186518965,
			"0.009": 2.94901512861,
			"0.01": 2.56112158566,
			"0.011": 3.06772165896,
			"0.012": 2.96356201826,
			"0.013": 5.78307632847,
			"0.014": 1.51426142648,
			"0.015": 0.020707778185,
			"0.016": 0.0,
			"0.017": 0.0,
			"0.018": 0.0,
			"0.019": 0.0,
			"0.02": 0.0,
			"0.021": 0.0,
			"0.022": 0.0,
			"0.023": 0.0,
			"0.024": 0.0,
			"0.025": 0.0
		}
	}
}
