{
	 "smiles": "N#CCN1CCSCC1", 
	 "Tm": 325.15, 
	 "num_atms": 19, 
	 "gaussian": { 
		 "optdone": 1, 
		 "sigma_profile": "yes", 
		 "theory": "DFT", 
		 "functional": "B3LYP", 
		 "basiset": "6-31G**", 
		 "properties": { 
			 "R2extent": 2101.4248, 
			 "electric_dipole_moment_norm": 3.51611529106, 
			 "electric_quadrupole_moment_norm": 12.0345734478, 
			 "total_energy": -742.316896853, 
			 "HOMO_LUMO_gap": 0.24095, 
			 "cosmo_polarized_energy": -11.82, 
			 "cosmo_cavitation_energy": 22.89, 
			 "cosmo_dispersion_energy": -17.02, 
			 "cosmo_repulsion_energy": 1.33, 
			 "cosmo_total_nonelectrostatic_energy": 7.21, 
			 "SMD_solvation_energy": 1.95 
		},
		"coords": [
			{
				"x": -0.5680259705,
				"y": 2.2892710373,
				"z": 2.0079998027,
				"element": "N" 
			},
			{
				"x": 0.5816017709,
				"y": 2.1285116277,
				"z": 1.9692769748,
				"element": "C" 
			},
			{
				"x": 2.0436643213,
				"y": 1.8598832209,
				"z": 1.8724192776,
				"element": "C" 
			},
			{
				"x": 2.4245897339,
				"y": 0.8577237538,
				"z": 0.8962949445,
				"element": "N" 
			},
			{
				"x": 2.183069344,
				"y": 1.2998422957,
				"z": -0.4848956111,
				"element": "C" 
			},
			{
				"x": 2.4563160526,
				"y": 0.182610649,
				"z": -1.4861279738,
				"element": "C" 
			},
			{
				"x": 1.1968689163,
				"y": -1.1633963848,
				"z": -1.3848231698,
				"element": "S" 
			},
			{
				"x": 0.7874084974,
				"y": -1.0160706528,
				"z": 0.4083110854,
				"element": "C" 
			},
			{
				"x": 1.9947054934,
				"y": -0.5192629539,
				"z": 1.2110300684,
				"element": "C" 
			},
			{
				"x": 2.3979742009,
				"y": 1.5633164017,
				"z": 2.865546085,
				"element": "H" 
			},
			{
				"x": 2.5407303428,
				"y": 2.8064547309,
				"z": 1.6278646009,
				"element": "H" 
			},
			{
				"x": 1.1529489809,
				"y": 1.6668464585,
				"z": -0.6345627189,
				"element": "H" 
			},
			{
				"x": 2.8578906948,
				"y": 2.1425906243,
				"z": -0.6883940243,
				"element": "H" 
			},
			{
				"x": 2.4013652761,
				"y": 0.5760413149,
				"z": -2.5038003961,
				"element": "H" 
			},
			{
				"x": 3.4586293883,
				"y": -0.2280789787,
				"z": -1.332441296,
				"element": "H" 
			},
			{
				"x": 0.5033794494,
				"y": -2.0179044937,
				"z": 0.7414620583,
				"element": "H" 
			},
			{
				"x": -0.0729646059,
				"y": -0.3555498327,
				"z": 0.5426438706,
				"element": "H" 
			},
			{
				"x": 1.7600130942,
				"y": -0.56740099,
				"z": 2.2800758948,
				"element": "H" 
			},
			{
				"x": 2.8352350189,
				"y": -1.2036278281,
				"z": 1.041720527,
				"element": "H" 
			}
		],
		 "valence_orbital": [ 
			{
				"type": "occ",
				"energy": -0.33782,
				"method": "rhf"
			},
			{
				"type": "occ",
				"energy": -0.32963,
				"method": "rhf"
			},
			{
				"type": "occ",
				"energy": -0.30578,
				"method": "rhf"
			},
			{
				"type": "occ",
				"energy": -0.23533,
				"method": "rhf"
			},
			{
				"type": "occ",
				"energy": -0.22278,
				"method": "rhf"
			},
			{
				"type": "unocc",
				"energy": 0.01817,
				"method": "rhf"
			},
			{
				"type": "unocc",
				"energy": 0.02984,
				"method": "rhf"
			},
			{
				"type": "unocc",
				"energy": 0.0356,
				"method": "rhf"
			},
			{
				"type": "unocc",
				"energy": 0.05666,
				"method": "rhf"
			},
			{
				"type": "unocc",
				"energy": 0.07781,
				"method": "rhf"
			}
		],
		"cosmo_sigma_profile": { 
			"-0.025": 0.0,
			"-0.024": 0.0,
			"-0.023": 0.0,
			"-0.022": 0.0,
			"-0.021": 0.0,
			"-0.02": 0.0,
			"-0.019": 0.0,
			"-0.018": 0.0,
			"-0.017": 0.0,
			"-0.016": 0.0,
			"-0.015": 0.0,
			"-0.014": 0.0,
			"-0.013": 0.0,
			"-0.012": 0.0,
			"-0.011": 0.0,
			"-0.01": 0.0,
			"-0.009": 2.30384403593,
			"-0.008": 7.06160610342,
			"-0.007": 6.6450525958,
			"-0.006": 11.3000148393,
			"-0.005": 14.7623719341,
			"-0.004": 16.4338884401,
			"-0.003": 21.3355818103,
			"-0.002": 18.4636686742,
			"-0.001": 9.34597726045,
			"0.0": 7.33382403598,
			"0.001": 6.18113765657,
			"0.002": 5.10361287546,
			"0.003": 5.0764288261,
			"0.004": 5.70912818314,
			"0.005": 4.49837010823,
			"0.006": 7.68782775556,
			"0.007": 5.26586693149,
			"0.008": 5.686768456,
			"0.009": 5.98731823464,
			"0.01": 5.3300053018,
			"0.011": 4.66613916485,
			"0.012": 3.50052632858,
			"0.013": 2.22519226827,
			"0.014": 0.179747251757,
			"0.015": 0.0,
			"0.016": 0.0,
			"0.017": 0.0,
			"0.018": 0.0,
			"0.019": 0.0,
			"0.02": 0.0,
			"0.021": 0.0,
			"0.022": 0.0,
			"0.023": 0.0,
			"0.024": 0.0,
			"0.025": 0.0
		}
	}
}
