{
	 "smiles": "NC(=S)NCCN1CCCCC1", 
	 "Tm": 381.15, 
	 "num_atms": 29, 
	 "gaussian": { 
		 "optdone": 1, 
		 "sigma_profile": "yes", 
		 "theory": "DFT", 
		 "functional": "B3LYP", 
		 "basiset": "6-31G**", 
		 "properties": { 
			 "R2extent": 3909.9314, 
			 "electric_dipole_moment_norm": 6.32448882045, 
			 "electric_quadrupole_moment_norm": 21.5555146795, 
			 "total_energy": -877.551127659, 
			 "HOMO_LUMO_gap": 0.20204, 
			 "cosmo_polarized_energy": -17.13, 
			 "cosmo_cavitation_energy": 31.23, 
			 "cosmo_dispersion_energy": -23.06, 
			 "cosmo_repulsion_energy": 1.84, 
			 "cosmo_total_nonelectrostatic_energy": 10.0, 
			 "SMD_solvation_energy": 2.21 
		},
		"coords": [
			{
				"x": 3.0909874522,
				"y": -2.8519088587,
				"z": 1.0121610433,
				"element": "N" 
			},
			{
				"x": 1.8163530476,
				"y": -2.5776630535,
				"z": 1.4462822288,
				"element": "C" 
			},
			{
				"x": 1.3097048736,
				"y": -2.9935730457,
				"z": 2.9967223408,
				"element": "S" 
			},
			{
				"x": 1.0415934116,
				"y": -1.9397135128,
				"z": 0.5388858923,
				"element": "N" 
			},
			{
				"x": -0.2877076506,
				"y": -1.4222591766,
				"z": 0.8140116796,
				"element": "C" 
			},
			{
				"x": -0.8983908697,
				"y": -0.9320835404,
				"z": -0.5047499101,
				"element": "C" 
			},
			{
				"x": 0.0135893204,
				"y": -0.0408888,
				"z": -1.2258025394,
				"element": "N" 
			},
			{
				"x": 0.1913202425,
				"y": 1.2497786732,
				"z": -0.5284795727,
				"element": "C" 
			},
			{
				"x": 0.7541624076,
				"y": 2.3144664003,
				"z": -1.4717750124,
				"element": "C" 
			},
			{
				"x": -0.2443114743,
				"y": 2.6386310218,
				"z": -2.6065012933,
				"element": "C" 
			},
			{
				"x": -1.0811487343,
				"y": 1.3920482832,
				"z": -2.9821241367,
				"element": "C" 
			},
			{
				"x": -0.2968501185,
				"y": 0.1117809079,
				"z": -2.6649746484,
				"element": "C" 
			},
			{
				"x": 3.2597915293,
				"y": -2.9468841996,
				"z": 0.0190877156,
				"element": "H" 
			},
			{
				"x": 3.6117344435,
				"y": -3.4772081844,
				"z": 1.6083183338,
				"element": "H" 
			},
			{
				"x": 1.4665446497,
				"y": -1.5118364765,
				"z": -0.2800630073,
				"element": "H" 
			},
			{
				"x": -0.2438929181,
				"y": -0.6188989861,
				"z": 1.5610274764,
				"element": "H" 
			},
			{
				"x": -0.9071277148,
				"y": -2.2133178841,
				"z": 1.2453376151,
				"element": "H" 
			},
			{
				"x": -1.8733503413,
				"y": -0.4605479163,
				"z": -0.2809453059,
				"element": "H" 
			},
			{
				"x": -1.091797387,
				"y": -1.8020767661,
				"z": -1.1413114402,
				"element": "H" 
			},
			{
				"x": -0.7698701611,
				"y": 1.6099577712,
				"z": -0.1142607566,
				"element": "H" 
			},
			{
				"x": 0.8623332016,
				"y": 1.1054009214,
				"z": 0.3260020946,
				"element": "H" 
			},
			{
				"x": 0.9972522179,
				"y": 3.2159812541,
				"z": -0.9001472605,
				"element": "H" 
			},
			{
				"x": 1.699979623,
				"y": 1.9473376713,
				"z": -1.8880674494,
				"element": "H" 
			},
			{
				"x": 0.3043960923,
				"y": 3.0050350527,
				"z": -3.481460044,
				"element": "H" 
			},
			{
				"x": -0.9118076473,
				"y": 3.4510531104,
				"z": -2.2976448523,
				"element": "H" 
			},
			{
				"x": -2.0219065039,
				"y": 1.3817013433,
				"z": -2.4181503171,
				"element": "H" 
			},
			{
				"x": -1.3568655519,
				"y": 1.4113317868,
				"z": -4.0423957704,
				"element": "H" 
			},
			{
				"x": 0.6424336876,
				"y": 0.1183926986,
				"z": -3.2355502801,
				"element": "H" 
			},
			{
				"x": -0.8490491276,
				"y": -0.7742364954,
				"z": -2.9924328238,
				"element": "H" 
			}
		],
		 "valence_orbital": [ 
			{
				"type": "occ",
				"energy": -0.31943,
				"method": "rhf"
			},
			{
				"type": "occ",
				"energy": -0.25717,
				"method": "rhf"
			},
			{
				"type": "occ",
				"energy": -0.22288,
				"method": "rhf"
			},
			{
				"type": "occ",
				"energy": -0.20436,
				"method": "rhf"
			},
			{
				"type": "occ",
				"energy": -0.19143,
				"method": "rhf"
			},
			{
				"type": "unocc",
				"energy": 0.01061,
				"method": "rhf"
			},
			{
				"type": "unocc",
				"energy": 0.06437,
				"method": "rhf"
			},
			{
				"type": "unocc",
				"energy": 0.07396,
				"method": "rhf"
			},
			{
				"type": "unocc",
				"energy": 0.09276,
				"method": "rhf"
			},
			{
				"type": "unocc",
				"energy": 0.10221,
				"method": "rhf"
			}
		],
		"cosmo_sigma_profile": { 
			"-0.025": 0.0,
			"-0.024": 0.0,
			"-0.023": 0.0,
			"-0.022": 0.0,
			"-0.021": 0.0,
			"-0.02": 0.0,
			"-0.019": 0.0,
			"-0.018": 0.0,
			"-0.017": 0.0,
			"-0.016": 0.176934633656,
			"-0.015": 1.42394944668,
			"-0.014": 2.49674371142,
			"-0.013": 2.00709889491,
			"-0.012": 2.77791442841,
			"-0.011": 2.45363038785,
			"-0.01": 2.38113620109,
			"-0.009": 2.19174326844,
			"-0.008": 1.99881158787,
			"-0.007": 1.48062040025,
			"-0.006": 1.67577013802,
			"-0.005": 4.0109008355,
			"-0.004": 9.46667416486,
			"-0.003": 25.1002257059,
			"-0.002": 42.8323549392,
			"-0.001": 39.2779202822,
			"0.0": 23.568419211,
			"0.001": 16.284841773,
			"0.002": 6.34457864388,
			"0.003": 4.07860914459,
			"0.004": 5.70280998318,
			"0.005": 5.02090134677,
			"0.006": 5.58697098348,
			"0.007": 4.39057083269,
			"0.008": 4.62358659273,
			"0.009": 4.92250103915,
			"0.01": 4.52540611625,
			"0.011": 7.59113539063,
			"0.012": 7.31803685602,
			"0.013": 2.30905299408,
			"0.014": 0.0218268473001,
			"0.015": 0.0,
			"0.016": 0.0,
			"0.017": 0.0,
			"0.018": 0.0,
			"0.019": 0.0,
			"0.02": 0.0,
			"0.021": 0.0,
			"0.022": 0.0,
			"0.023": 0.0,
			"0.024": 0.0,
			"0.025": 0.0
		}
	}
}
