{
	 "smiles": "FCC1=CC=CC=C1", 
	 "Tm": 238.15, 
	 "num_atms": 15, 
	 "gaussian": { 
		 "optdone": 1, 
		 "sigma_profile": "yes", 
		 "theory": "DFT", 
		 "functional": "B3LYP", 
		 "basiset": "6-31G**", 
		 "properties": { 
			 "R2extent": 1186.741, 
			 "electric_dipole_moment_norm": 1.46489833094, 
			 "electric_quadrupole_moment_norm": 4.74756976147, 
			 "total_energy": -370.794837982, 
			 "HOMO_LUMO_gap": 0.23897, 
			 "cosmo_polarized_energy": -4.46, 
			 "cosmo_cavitation_energy": 18.76, 
			 "cosmo_dispersion_energy": -14.01, 
			 "cosmo_repulsion_energy": 1.15, 
			 "cosmo_total_nonelectrostatic_energy": 5.9, 
			 "SMD_solvation_energy": 3.72 
		},
		"coords": [
			{
				"x": -1.6085101758,
				"y": 1.1010081889,
				"z": 1.0737710848,
				"element": "F" 
			},
			{
				"x": -0.2508410543,
				"y": 1.1080148506,
				"z": 1.363142655,
				"element": "C" 
			},
			{
				"x": 0.4287384987,
				"y": -0.136952124,
				"z": 0.8426938996,
				"element": "C" 
			},
			{
				"x": 1.8042139667,
				"y": -0.3113441676,
				"z": 1.0399168284,
				"element": "C" 
			},
			{
				"x": 2.4449084919,
				"y": -1.4547738345,
				"z": 0.5652760042,
				"element": "C" 
			},
			{
				"x": 1.7161844041,
				"y": -2.4363546439,
				"z": -0.1120030427,
				"element": "C" 
			},
			{
				"x": 0.3460272724,
				"y": -2.2646697252,
				"z": -0.3095299878,
				"element": "C" 
			},
			{
				"x": -0.2971115986,
				"y": -1.1194150342,
				"z": 0.1655797799,
				"element": "C" 
			},
			{
				"x": -0.1368326408,
				"y": 1.1879137962,
				"z": 2.4528273499,
				"element": "H" 
			},
			{
				"x": 0.1872819973,
				"y": 2.0088528893,
				"z": 0.9122132354,
				"element": "H" 
			},
			{
				"x": 2.3779593879,
				"y": 0.4488875965,
				"z": 1.5664149712,
				"element": "H" 
			},
			{
				"x": 3.5123520853,
				"y": -1.5800467165,
				"z": 0.723692758,
				"element": "H" 
			},
			{
				"x": 2.2149273771,
				"y": -3.3274151737,
				"z": -0.4819970781,
				"element": "H" 
			},
			{
				"x": -0.22713897,
				"y": -3.023397674,
				"z": -0.835095264,
				"element": "H" 
			},
			{
				"x": -1.361559042,
				"y": -0.979008228,
				"z": 0.0158968062,
				"element": "H" 
			}
		],
		 "valence_orbital": [ 
			{
				"type": "occ",
				"energy": -0.34276,
				"method": "rhf"
			},
			{
				"type": "occ",
				"energy": -0.33785,
				"method": "rhf"
			},
			{
				"type": "occ",
				"energy": -0.33028,
				"method": "rhf"
			},
			{
				"type": "occ",
				"energy": -0.25092,
				"method": "rhf"
			},
			{
				"type": "occ",
				"energy": -0.2439,
				"method": "rhf"
			},
			{
				"type": "unocc",
				"energy": -0.00493,
				"method": "rhf"
			},
			{
				"type": "unocc",
				"energy": 0.00069,
				"method": "rhf"
			},
			{
				"type": "unocc",
				"energy": 0.09641,
				"method": "rhf"
			},
			{
				"type": "unocc",
				"energy": 0.10699,
				"method": "rhf"
			},
			{
				"type": "unocc",
				"energy": 0.12254,
				"method": "rhf"
			}
		],
		"cosmo_sigma_profile": { 
			"-0.025": 0.0,
			"-0.024": 0.0,
			"-0.023": 0.0,
			"-0.022": 0.0,
			"-0.021": 0.0,
			"-0.02": 0.0,
			"-0.019": 0.0,
			"-0.018": 0.0,
			"-0.017": 0.0,
			"-0.016": 0.0,
			"-0.015": 0.0,
			"-0.014": 0.0,
			"-0.013": 0.0,
			"-0.012": 0.0,
			"-0.011": 0.0,
			"-0.01": 0.0,
			"-0.009": 0.0,
			"-0.008": 0.0,
			"-0.007": 0.93525848734,
			"-0.006": 12.5115604112,
			"-0.005": 13.9258461945,
			"-0.004": 14.1140824155,
			"-0.003": 13.0446267064,
			"-0.002": 8.00835147142,
			"-0.001": 9.30904089858,
			"0.0": 8.51858527723,
			"0.001": 8.26447804727,
			"0.002": 10.4308513491,
			"0.003": 10.6044336781,
			"0.004": 10.1883669553,
			"0.005": 11.8716148123,
			"0.006": 15.3357962935,
			"0.007": 2.65746038817,
			"0.008": 0.0,
			"0.009": 0.0,
			"0.01": 0.0,
			"0.011": 0.0,
			"0.012": 0.0,
			"0.013": 0.0,
			"0.014": 0.0,
			"0.015": 0.0,
			"0.016": 0.0,
			"0.017": 0.0,
			"0.018": 0.0,
			"0.019": 0.0,
			"0.02": 0.0,
			"0.021": 0.0,
			"0.022": 0.0,
			"0.023": 0.0,
			"0.024": 0.0,
			"0.025": 0.0
		}
	}
}
