{
	 "smiles": "CC1=CC(=CC=C1)N1CCN(CC2=CC=C(N)C=C2)CC1", 
	 "Tm": 377.15, 
	 "num_atms": 44, 
	 "gaussian": { 
		 "optdone": 1, 
		 "sigma_profile": "yes", 
		 "theory": "DFT", 
		 "functional": "B3LYP", 
		 "basiset": "6-31G**", 
		 "properties": { 
			 "R2extent": 11146.2373, 
			 "electric_dipole_moment_norm": 2.2364584615, 
			 "electric_quadrupole_moment_norm": 19.5831792605, 
			 "total_energy": -864.02303457, 
			 "HOMO_LUMO_gap": 0.18297, 
			 "cosmo_polarized_energy": -12.71, 
			 "cosmo_cavitation_energy": 44.64, 
			 "cosmo_dispersion_energy": -31.92, 
			 "cosmo_repulsion_energy": 2.44, 
			 "cosmo_total_nonelectrostatic_energy": 15.17, 
			 "SMD_solvation_energy": 4.53 
		},
		"coords": [
			{
				"x": 1.6347443194,
				"y": -5.2191267949,
				"z": 2.3836631762,
				"element": "C" 
			},
			{
				"x": 1.6515728758,
				"y": -4.3609438679,
				"z": 1.1387610553,
				"element": "C" 
			},
			{
				"x": 0.9603055751,
				"y": -3.1471601398,
				"z": 1.1149437029,
				"element": "C" 
			},
			{
				"x": 0.9281983122,
				"y": -2.3295292995,
				"z": -0.0373200252,
				"element": "C" 
			},
			{
				"x": 1.6316430272,
				"y": -2.7753314894,
				"z": -1.1783951245,
				"element": "C" 
			},
			{
				"x": 2.3294584449,
				"y": -3.9796905815,
				"z": -1.14672533,
				"element": "C" 
			},
			{
				"x": 2.3469536783,
				"y": -4.7777744903,
				"z": -0.003745961,
				"element": "C" 
			},
			{
				"x": 0.2326001677,
				"y": -1.128273392,
				"z": -0.0444122388,
				"element": "N" 
			},
			{
				"x": 0.4441337,
				"y": -0.1284378791,
				"z": -1.0864617991,
				"element": "C" 
			},
			{
				"x": 0.1446967436,
				"y": 1.2703409194,
				"z": -0.5511311233,
				"element": "C" 
			},
			{
				"x": -1.2541220921,
				"y": 1.4032348054,
				"z": -0.1322539517,
				"element": "N" 
			},
			{
				"x": -1.4649915564,
				"y": 2.5757886928,
				"z": 0.7169353021,
				"element": "C" 
			},
			{
				"x": -1.2446540027,
				"y": 3.8832562577,
				"z": -0.0202153961,
				"element": "C" 
			},
			{
				"x": -1.8331748867,
				"y": 4.1095597502,
				"z": -1.2724689746,
				"element": "C" 
			},
			{
				"x": -1.6725642092,
				"y": 5.3191854469,
				"z": -1.938985568,
				"element": "C" 
			},
			{
				"x": -0.9135279714,
				"y": 6.3574640266,
				"z": -1.3684533407,
				"element": "C" 
			},
			{
				"x": -0.8006425244,
				"y": 7.5950853078,
				"z": -2.0085121555,
				"element": "N" 
			},
			{
				"x": -0.3189343771,
				"y": 6.1348231359,
				"z": -0.1165039017,
				"element": "C" 
			},
			{
				"x": -0.4837040049,
				"y": 4.9149904888,
				"z": 0.5376217644,
				"element": "C" 
			},
			{
				"x": -1.8057026185,
				"y": 0.1471606849,
				"z": 0.399385784,
				"element": "C" 
			},
			{
				"x": -0.7519603361,
				"y": -0.8042717669,
				"z": 0.9810969605,
				"element": "C" 
			},
			{
				"x": 1.439748907,
				"y": -4.6241685921,
				"z": 3.2811354263,
				"element": "H" 
			},
			{
				"x": 0.8532746731,
				"y": -5.9875279407,
				"z": 2.3251357671,
				"element": "H" 
			},
			{
				"x": 2.5878803344,
				"y": -5.7390685319,
				"z": 2.5229521649,
				"element": "H" 
			},
			{
				"x": 0.4613475542,
				"y": -2.8198791383,
				"z": 2.0209866294,
				"element": "H" 
			},
			{
				"x": 1.613928716,
				"y": -2.1971109572,
				"z": -2.0948424349,
				"element": "H" 
			},
			{
				"x": 2.8626304284,
				"y": -4.301680547,
				"z": -2.0377424453,
				"element": "H" 
			},
			{
				"x": 2.8955916465,
				"y": -5.7155509908,
				"z": 0.0040119444,
				"element": "H" 
			},
			{
				"x": -0.1683333973,
				"y": -0.3242595175,
				"z": -1.9822632896,
				"element": "H" 
			},
			{
				"x": 1.4926674551,
				"y": -0.1548164137,
				"z": -1.4003373875,
				"element": "H" 
			},
			{
				"x": 0.3633634148,
				"y": 2.0117978756,
				"z": -1.3270626219,
				"element": "H" 
			},
			{
				"x": 0.8390168912,
				"y": 1.4728110275,
				"z": 0.2870182183,
				"element": "H" 
			},
			{
				"x": -0.8198307796,
				"y": 2.5642393344,
				"z": 1.618555287,
				"element": "H" 
			},
			{
				"x": -2.5017698886,
				"y": 2.5343008288,
				"z": 1.0753736861,
				"element": "H" 
			},
			{
				"x": -2.4108696921,
				"y": 3.3119780834,
				"z": -1.7312150907,
				"element": "H" 
			},
			{
				"x": -2.1409548754,
				"y": 5.4711272936,
				"z": -2.9089196438,
				"element": "H" 
			},
			{
				"x": 0.0097214597,
				"y": 8.1391727418,
				"z": -1.7454395863,
				"element": "H" 
			},
			{
				"x": -0.9222641133,
				"y": 7.5689235613,
				"z": -3.011725321,
				"element": "H" 
			},
			{
				"x": 0.2763187063,
				"y": 6.9209244901,
				"z": 0.3422831529,
				"element": "H" 
			},
			{
				"x": -0.0059187749,
				"y": 4.7648433771,
				"z": 1.5033447781,
				"element": "H" 
			},
			{
				"x": -2.3359869342,
				"y": -0.3871561652,
				"z": -0.4012128423,
				"element": "H" 
			},
			{
				"x": -2.5470735848,
				"y": 0.3760771828,
				"z": 1.1714067975,
				"element": "H" 
			},
			{
				"x": -0.2873404856,
				"y": -0.3604669831,
				"z": 1.878009566,
				"element": "H" 
			},
			{
				"x": -1.2543759256,
				"y": -1.7233598342,
				"z": 1.3029243899,
				"element": "H" 
			}
		],
		 "valence_orbital": [ 
			{
				"type": "occ",
				"energy": -0.24265,
				"method": "rhf"
			},
			{
				"type": "occ",
				"energy": -0.22695,
				"method": "rhf"
			},
			{
				"type": "occ",
				"energy": -0.2071,
				"method": "rhf"
			},
			{
				"type": "occ",
				"energy": -0.19614,
				"method": "rhf"
			},
			{
				"type": "occ",
				"energy": -0.17766,
				"method": "rhf"
			},
			{
				"type": "unocc",
				"energy": 0.00531,
				"method": "rhf"
			},
			{
				"type": "unocc",
				"energy": 0.01514,
				"method": "rhf"
			},
			{
				"type": "unocc",
				"energy": 0.01795,
				"method": "rhf"
			},
			{
				"type": "unocc",
				"energy": 0.02946,
				"method": "rhf"
			},
			{
				"type": "unocc",
				"energy": 0.08136,
				"method": "rhf"
			}
		],
		"cosmo_sigma_profile": { 
			"-0.025": 0.0,
			"-0.024": 0.0,
			"-0.023": 0.0,
			"-0.022": 0.0,
			"-0.021": 0.0,
			"-0.02": 0.0,
			"-0.019": 0.0,
			"-0.018": 0.0,
			"-0.017": 0.0,
			"-0.016": 0.0,
			"-0.015": 0.0,
			"-0.014": 0.0,
			"-0.013": 0.0775675904014,
			"-0.012": 1.9059047229,
			"-0.011": 2.80707012471,
			"-0.01": 2.18368120432,
			"-0.009": 3.27266666006,
			"-0.008": 3.26560527158,
			"-0.007": 3.33556516195,
			"-0.006": 3.49107353874,
			"-0.005": 12.0258954165,
			"-0.004": 29.5218592687,
			"-0.003": 45.4525124366,
			"-0.002": 48.2948335665,
			"-0.001": 32.1546708339,
			"0.0": 27.6715547092,
			"0.001": 20.4101394332,
			"0.002": 17.3116717579,
			"0.003": 15.490649471,
			"0.004": 14.0531231878,
			"0.005": 17.0391569417,
			"0.006": 17.4560880604,
			"0.007": 16.2921281309,
			"0.008": 9.25190760537,
			"0.009": 2.32491214858,
			"0.01": 1.33050007136,
			"0.011": 1.23310540846,
			"0.012": 0.681744415138,
			"0.013": 0.689979051748,
			"0.014": 0.656443668122,
			"0.015": 0.423094795644,
			"0.016": 0.0295270605141,
			"0.017": 0.0,
			"0.018": 0.0,
			"0.019": 0.0,
			"0.02": 0.0,
			"0.021": 0.0,
			"0.022": 0.0,
			"0.023": 0.0,
			"0.024": 0.0,
			"0.025": 0.0
		}
	}
}
