{
	 "smiles": "CC(C)CCOC=O", 
	 "Tm": 179.95, 
	 "num_atms": 20, 
	 "gaussian": { 
		 "optdone": 1, 
		 "sigma_profile": "yes", 
		 "theory": "DFT", 
		 "functional": "B3LYP", 
		 "basiset": "6-31G**", 
		 "properties": { 
			 "R2extent": 1388.8969, 
			 "electric_dipole_moment_norm": 2.14368008108, 
			 "electric_quadrupole_moment_norm": 8.62098610137, 
			 "total_energy": -386.329860307, 
			 "HOMO_LUMO_gap": 0.28644, 
			 "cosmo_polarized_energy": -6.03, 
			 "cosmo_cavitation_energy": 22.47, 
			 "cosmo_dispersion_energy": -15.96, 
			 "cosmo_repulsion_energy": 1.35, 
			 "cosmo_total_nonelectrostatic_energy": 7.86, 
			 "SMD_solvation_energy": 5.87 
		},
		"coords": [
			{
				"x": 2.248105068,
				"y": -0.22709838,
				"z": 0.4562733407,
				"element": "C" 
			},
			{
				"x": 1.1624501712,
				"y": 0.8491164179,
				"z": 0.6131667757,
				"element": "C" 
			},
			{
				"x": 0.6203006095,
				"y": 0.8842893362,
				"z": 2.0508678474,
				"element": "C" 
			},
			{
				"x": 0.0559869106,
				"y": 0.7320348644,
				"z": -0.4618716315,
				"element": "C" 
			},
			{
				"x": -0.7071219754,
				"y": -0.5822679155,
				"z": -0.5602671148,
				"element": "C" 
			},
			{
				"x": -1.5821619923,
				"y": -0.714978572,
				"z": 0.5912776414,
				"element": "O" 
			},
			{
				"x": -2.3568984643,
				"y": -1.8099885369,
				"z": 0.611848639,
				"element": "C" 
			},
			{
				"x": -2.38210808,
				"y": -2.6773739451,
				"z": -0.2276615231,
				"element": "O" 
			},
			{
				"x": 1.8658959938,
				"y": -1.2268581919,
				"z": 0.6919248166,
				"element": "H" 
			},
			{
				"x": 3.0843013646,
				"y": -0.0340287967,
				"z": 1.1364247568,
				"element": "H" 
			},
			{
				"x": 2.6478914909,
				"y": -0.2528212361,
				"z": -0.5639168036,
				"element": "H" 
			},
			{
				"x": 1.6419213989,
				"y": 1.8208193487,
				"z": 0.4259007997,
				"element": "H" 
			},
			{
				"x": 1.4286271077,
				"y": 1.0951498304,
				"z": 2.759798512,
				"element": "H" 
			},
			{
				"x": -0.1421645146,
				"y": 1.6614290488,
				"z": 2.1701431662,
				"element": "H" 
			},
			{
				"x": 0.1640614773,
				"y": -0.0688345784,
				"z": 2.3319259665,
				"element": "H" 
			},
			{
				"x": 0.516702738,
				"y": 0.8896754771,
				"z": -1.4465205763,
				"element": "H" 
			},
			{
				"x": -0.6704346325,
				"y": 1.5436495478,
				"z": -0.3296242502,
				"element": "H" 
			},
			{
				"x": -0.0457373859,
				"y": -1.4528429243,
				"z": -0.5981329962,
				"element": "H" 
			},
			{
				"x": -1.3264805541,
				"y": -0.6058383434,
				"z": -1.4623240611,
				"element": "H" 
			},
			{
				"x": -2.9752367315,
				"y": -1.795132451,
				"z": 1.5234666947,
				"element": "H" 
			}
		],
		 "valence_orbital": [ 
			{
				"type": "occ",
				"energy": -0.33043,
				"method": "rhf"
			},
			{
				"type": "occ",
				"energy": -0.3274,
				"method": "rhf"
			},
			{
				"type": "occ",
				"energy": -0.31846,
				"method": "rhf"
			},
			{
				"type": "occ",
				"energy": -0.30154,
				"method": "rhf"
			},
			{
				"type": "occ",
				"energy": -0.27902,
				"method": "rhf"
			},
			{
				"type": "unocc",
				"energy": 0.00742,
				"method": "rhf"
			},
			{
				"type": "unocc",
				"energy": 0.07454,
				"method": "rhf"
			},
			{
				"type": "unocc",
				"energy": 0.10793,
				"method": "rhf"
			},
			{
				"type": "unocc",
				"energy": 0.12162,
				"method": "rhf"
			},
			{
				"type": "unocc",
				"energy": 0.13366,
				"method": "rhf"
			}
		],
		"cosmo_sigma_profile": { 
			"-0.025": 0.0,
			"-0.024": 0.0,
			"-0.023": 0.0,
			"-0.022": 0.0,
			"-0.021": 0.0,
			"-0.02": 0.0,
			"-0.019": 0.0,
			"-0.018": 0.0,
			"-0.017": 0.0,
			"-0.016": 0.0,
			"-0.015": 0.0,
			"-0.014": 0.0,
			"-0.013": 0.0,
			"-0.012": 0.0,
			"-0.011": 0.0,
			"-0.01": 0.0,
			"-0.009": 1.52917517235,
			"-0.008": 3.00590556322,
			"-0.007": 1.68213309159,
			"-0.006": 2.25620941703,
			"-0.005": 5.5611407142,
			"-0.004": 11.4427649315,
			"-0.003": 18.935585334,
			"-0.002": 25.3873099448,
			"-0.001": 24.1797107656,
			"0.0": 21.9667158313,
			"0.001": 16.611146959,
			"0.002": 12.3762321761,
			"0.003": 3.85049869915,
			"0.004": 2.72393079677,
			"0.005": 1.89989941384,
			"0.006": 3.03323748464,
			"0.007": 2.8208284365,
			"0.008": 2.49510060875,
			"0.009": 1.38121308363,
			"0.01": 2.73955881846,
			"0.011": 4.15185359997,
			"0.012": 3.84564313787,
			"0.013": 0.619110623709,
			"0.014": 0.0,
			"0.015": 0.0,
			"0.016": 0.0,
			"0.017": 0.0,
			"0.018": 0.0,
			"0.019": 0.0,
			"0.02": 0.0,
			"0.021": 0.0,
			"0.022": 0.0,
			"0.023": 0.0,
			"0.024": 0.0,
			"0.025": 0.0
		}
	}
}
