{
	 "smiles": "COC(=O)C=CN1C2=NC=NN2C=CC1=O", 
	 "Tm": 513.15, 
	 "num_atms": 24, 
	 "gaussian": { 
		 "optdone": 1, 
		 "sigma_profile": "yes", 
		 "theory": "DFT", 
		 "functional": "B3LYP", 
		 "basiset": "6-31G**", 
		 "properties": { 
			 "R2extent": 4556.8593, 
			 "electric_dipole_moment_norm": 4.01578123159, 
			 "electric_quadrupole_moment_norm": 21.0144040515, 
			 "total_energy": -792.428076354, 
			 "HOMO_LUMO_gap": 0.16533, 
			 "cosmo_polarized_energy": -15.86, 
			 "cosmo_cavitation_energy": 29.93, 
			 "cosmo_dispersion_energy": -22.04, 
			 "cosmo_repulsion_energy": 1.68, 
			 "cosmo_total_nonelectrostatic_energy": 9.58, 
			 "SMD_solvation_energy": 6.19 
		},
		"coords": [
			{
				"x": -1.6766413569,
				"y": 4.1437672672,
				"z": -1.502303469,
				"element": "C" 
			},
			{
				"x": -0.9786747683,
				"y": 2.9328409333,
				"z": -1.1787330173,
				"element": "O" 
			},
			{
				"x": -1.2167139125,
				"y": 1.8897786179,
				"z": -2.0134250378,
				"element": "C" 
			},
			{
				"x": -1.9638519099,
				"y": 1.9606740042,
				"z": -2.9695885946,
				"element": "O" 
			},
			{
				"x": -0.4800841863,
				"y": 0.6609786054,
				"z": -1.6473580387,
				"element": "C" 
			},
			{
				"x": 0.3342504127,
				"y": 0.6319646259,
				"z": -0.580191775,
				"element": "C" 
			},
			{
				"x": 1.0993879855,
				"y": -0.4573133607,
				"z": -0.1065587419,
				"element": "N" 
			},
			{
				"x": 1.8626792743,
				"y": -0.2202670358,
				"z": 1.0250135171,
				"element": "C" 
			},
			{
				"x": 1.9820180181,
				"y": 0.8847184964,
				"z": 1.7335701107,
				"element": "N" 
			},
			{
				"x": 2.8612034374,
				"y": 0.5033365706,
				"z": 2.7111506591,
				"element": "C" 
			},
			{
				"x": 3.2926319081,
				"y": -0.744744279,
				"z": 2.6626034362,
				"element": "N" 
			},
			{
				"x": 2.6349028076,
				"y": -1.2154197036,
				"z": 1.5549596815,
				"element": "N" 
			},
			{
				"x": 2.7089826302,
				"y": -2.4808474273,
				"z": 1.0232774386,
				"element": "C" 
			},
			{
				"x": 1.9793753915,
				"y": -2.7484929643,
				"z": -0.0788144442,
				"element": "C" 
			},
			{
				"x": 1.1191642834,
				"y": -1.7534018506,
				"z": -0.7255722939,
				"element": "C" 
			},
			{
				"x": 0.4574334925,
				"y": -1.9893997128,
				"z": -1.7219424631,
				"element": "O" 
			},
			{
				"x": -2.7578509025,
				"y": 3.9855442651,
				"z": -1.4749681562,
				"element": "H" 
			},
			{
				"x": -1.3992834818,
				"y": 4.4948095601,
				"z": -2.4996151015,
				"element": "H" 
			},
			{
				"x": -1.3767799516,
				"y": 4.8679516631,
				"z": -0.7447674993,
				"element": "H" 
			},
			{
				"x": -0.6450349005,
				"y": -0.1891281974,
				"z": -2.2899694069,
				"element": "H" 
			},
			{
				"x": 0.4678034571,
				"y": 1.5125244826,
				"z": 0.0358664351,
				"element": "H" 
			},
			{
				"x": 3.1915867365,
				"y": 1.1801349236,
				"z": 3.4867664751,
				"element": "H" 
			},
			{
				"x": 3.3587201113,
				"y": -3.1760117119,
				"z": 1.5399269172,
				"element": "H" 
			},
			{
				"x": 1.9952754239,
				"y": -3.724797772,
				"z": -0.5438266311,
				"element": "H" 
			}
		],
		 "valence_orbital": [ 
			{
				"type": "occ",
				"energy": -0.29765,
				"method": "rhf"
			},
			{
				"type": "occ",
				"energy": -0.28742,
				"method": "rhf"
			},
			{
				"type": "occ",
				"energy": -0.27574,
				"method": "rhf"
			},
			{
				"type": "occ",
				"energy": -0.26908,
				"method": "rhf"
			},
			{
				"type": "occ",
				"energy": -0.24813,
				"method": "rhf"
			},
			{
				"type": "unocc",
				"energy": -0.0828,
				"method": "rhf"
			},
			{
				"type": "unocc",
				"energy": -0.02933,
				"method": "rhf"
			},
			{
				"type": "unocc",
				"energy": -0.01715,
				"method": "rhf"
			},
			{
				"type": "unocc",
				"energy": 0.02845,
				"method": "rhf"
			},
			{
				"type": "unocc",
				"energy": 0.07398,
				"method": "rhf"
			}
		],
		"cosmo_sigma_profile": { 
			"-0.025": 0.0,
			"-0.024": 0.0,
			"-0.023": 0.0,
			"-0.022": 0.0,
			"-0.021": 0.0,
			"-0.02": 0.0,
			"-0.019": 0.0,
			"-0.018": 0.0,
			"-0.017": 0.0,
			"-0.016": 0.0,
			"-0.015": 0.0,
			"-0.014": 0.0,
			"-0.013": 0.0,
			"-0.012": 0.508921652981,
			"-0.011": 2.22020911805,
			"-0.01": 3.52045264535,
			"-0.009": 5.78819215528,
			"-0.008": 6.661490468,
			"-0.007": 7.42491967344,
			"-0.006": 11.1601868911,
			"-0.005": 15.0189542136,
			"-0.004": 18.9773278818,
			"-0.003": 21.8679713976,
			"-0.002": 19.2399540815,
			"-0.001": 17.9492949039,
			"0.0": 18.3353041556,
			"0.001": 13.6757906558,
			"0.002": 10.5946856032,
			"0.003": 8.43480119587,
			"0.004": 7.98374906932,
			"0.005": 6.72768504633,
			"0.006": 5.65393028482,
			"0.007": 5.16646084869,
			"0.008": 5.22502271376,
			"0.009": 4.67051875647,
			"0.01": 6.48580744026,
			"0.011": 7.23985665016,
			"0.012": 8.66650953797,
			"0.013": 2.50309706198,
			"0.014": 0.0644905472514,
			"0.015": 0.0,
			"0.016": 0.0,
			"0.017": 0.0,
			"0.018": 0.0,
			"0.019": 0.0,
			"0.02": 0.0,
			"0.021": 0.0,
			"0.022": 0.0,
			"0.023": 0.0,
			"0.024": 0.0,
			"0.025": 0.0
		}
	}
}
