{
	 "smiles": "OC(=O)C1=C(OC2CCCC2)C=CC(Cl)=C1", 
	 "Tm": 369.15, 
	 "num_atms": 29, 
	 "gaussian": { 
		 "optdone": 1, 
		 "sigma_profile": "yes", 
		 "theory": "DFT", 
		 "functional": "B3LYP", 
		 "basiset": "6-31G**", 
		 "properties": { 
			 "R2extent": 4772.9461, 
			 "electric_dipole_moment_norm": 7.27620177084, 
			 "electric_quadrupole_moment_norm": 7.82801149463, 
			 "total_energy": -1150.99165149, 
			 "HOMO_LUMO_gap": 0.18824, 
			 "cosmo_polarized_energy": -13.86, 
			 "cosmo_cavitation_energy": 33.32, 
			 "cosmo_dispersion_energy": -23.9, 
			 "cosmo_repulsion_energy": 1.85, 
			 "cosmo_total_nonelectrostatic_energy": 11.27, 
			 "SMD_solvation_energy": 5.84 
		},
		"coords": [
			{
				"x": -1.2550114672,
				"y": 0.8855976501,
				"z": 2.1876813603,
				"element": "O" 
			},
			{
				"x": -2.0180743149,
				"y": 0.2261656466,
				"z": 1.2973560001,
				"element": "C" 
			},
			{
				"x": -3.0898892044,
				"y": -0.2373687075,
				"z": 1.6195014155,
				"element": "O" 
			},
			{
				"x": -1.4791423135,
				"y": 0.072825834,
				"z": -0.1075959028,
				"element": "C" 
			},
			{
				"x": -0.229152737,
				"y": 0.5470422139,
				"z": -0.5642832886,
				"element": "C" 
			},
			{
				"x": 0.5286256814,
				"y": 1.2836467138,
				"z": 0.3158465244,
				"element": "O" 
			},
			{
				"x": 1.97526366,
				"y": 1.3786396315,
				"z": 0.1712887946,
				"element": "C" 
			},
			{
				"x": 2.6348725759,
				"y": 0.0281714544,
				"z": 0.4719715062,
				"element": "C" 
			},
			{
				"x": 2.541045906,
				"y": -0.0750135528,
				"z": 2.0051296748,
				"element": "C" 
			},
			{
				"x": 2.7975399622,
				"y": 1.369413269,
				"z": 2.5050722134,
				"element": "C" 
			},
			{
				"x": 2.457389068,
				"y": 2.3000594737,
				"z": 1.3022775752,
				"element": "C" 
			},
			{
				"x": 0.1734990896,
				"y": 0.2981944311,
				"z": -1.881412176,
				"element": "C" 
			},
			{
				"x": -0.6572549382,
				"y": -0.4023168726,
				"z": -2.752714014,
				"element": "C" 
			},
			{
				"x": -1.8973199755,
				"y": -0.8571472143,
				"z": -2.3059378681,
				"element": "C" 
			},
			{
				"x": -2.9453283143,
				"y": -1.7378499935,
				"z": -3.4054234958,
				"element": "Cl" 
			},
			{
				"x": -2.304027996,
				"y": -0.6244007797,
				"z": -0.998984932,
				"element": "C" 
			},
			{
				"x": -0.4493994622,
				"y": 1.2102484642,
				"z": 1.7382087308,
				"element": "H" 
			},
			{
				"x": 2.196597515,
				"y": 1.7829931523,
				"z": -0.8205337408,
				"element": "H" 
			},
			{
				"x": 2.1669367182,
				"y": -0.8044189744,
				"z": -0.0605245552,
				"element": "H" 
			},
			{
				"x": 3.6829944978,
				"y": 0.0790646087,
				"z": 0.1507778489,
				"element": "H" 
			},
			{
				"x": 3.2448058896,
				"y": -0.800235247,
				"z": 2.4221882965,
				"element": "H" 
			},
			{
				"x": 1.5346154876,
				"y": -0.4002614718,
				"z": 2.2890218104,
				"element": "H" 
			},
			{
				"x": 2.1971068158,
				"y": 1.6036745738,
				"z": 3.3881223818,
				"element": "H" 
			},
			{
				"x": 3.8454870673,
				"y": 1.4973088906,
				"z": 2.7934935678,
				"element": "H" 
			},
			{
				"x": 3.3454967344,
				"y": 2.8414101945,
				"z": 0.9617667326,
				"element": "H" 
			},
			{
				"x": 1.6961735661,
				"y": 3.0506760416,
				"z": 1.531527622,
				"element": "H" 
			},
			{
				"x": 1.1320265898,
				"y": 0.6518770281,
				"z": -2.240303403,
				"element": "H" 
			},
			{
				"x": -0.3421378527,
				"y": -0.5899708826,
				"z": -3.7732561638,
				"element": "H" 
			},
			{
				"x": -3.2582382487,
				"y": -0.9800255759,
				"z": -0.628562515,
				"element": "H" 
			}
		],
		 "valence_orbital": [ 
			{
				"type": "occ",
				"energy": -0.31709,
				"method": "rhf"
			},
			{
				"type": "occ",
				"energy": -0.30385,
				"method": "rhf"
			},
			{
				"type": "occ",
				"energy": -0.27549,
				"method": "rhf"
			},
			{
				"type": "occ",
				"energy": -0.26757,
				"method": "rhf"
			},
			{
				"type": "occ",
				"energy": -0.24244,
				"method": "rhf"
			},
			{
				"type": "unocc",
				"energy": -0.0542,
				"method": "rhf"
			},
			{
				"type": "unocc",
				"energy": -0.02005,
				"method": "rhf"
			},
			{
				"type": "unocc",
				"energy": 0.02451,
				"method": "rhf"
			},
			{
				"type": "unocc",
				"energy": 0.05136,
				"method": "rhf"
			},
			{
				"type": "unocc",
				"energy": 0.05617,
				"method": "rhf"
			}
		],
		"cosmo_sigma_profile": { 
			"-0.025": 0.0,
			"-0.024": 0.0,
			"-0.023": 0.0,
			"-0.022": 0.0,
			"-0.021": 0.0,
			"-0.02": 0.0,
			"-0.019": 0.0,
			"-0.018": 0.0,
			"-0.017": 0.0,
			"-0.016": 0.0,
			"-0.015": 0.0,
			"-0.014": 0.0,
			"-0.013": 0.0,
			"-0.012": 0.0,
			"-0.011": 0.0,
			"-0.01": 0.0442503119964,
			"-0.009": 1.75089845903,
			"-0.008": 4.85670953159,
			"-0.007": 6.21553220821,
			"-0.006": 8.61656741072,
			"-0.005": 10.6247972238,
			"-0.004": 19.9889774024,
			"-0.003": 26.4697220981,
			"-0.002": 29.496641767,
			"-0.001": 29.1444487058,
			"0.0": 27.6606356021,
			"0.001": 29.5710556114,
			"0.002": 16.8240439854,
			"0.003": 8.46827411704,
			"0.004": 11.9760106592,
			"0.005": 7.36496507506,
			"0.006": 1.93874479698,
			"0.007": 1.71877944603,
			"0.008": 3.69203165121,
			"0.009": 2.22811003353,
			"0.01": 3.60137563797,
			"0.011": 5.81923845206,
			"0.012": 5.56986004116,
			"0.013": 2.16258719698,
			"0.014": 0.398491324085,
			"0.015": 0.0,
			"0.016": 0.0,
			"0.017": 0.0,
			"0.018": 0.0,
			"0.019": 0.0,
			"0.02": 0.0,
			"0.021": 0.0,
			"0.022": 0.0,
			"0.023": 0.0,
			"0.024": 0.0,
			"0.025": 0.0
		}
	}
}
