{
	 "smiles": "NC1=CC(=CC=C1OC1=CC=C(C=C1)C#N)C(F)(F)F", 
	 "Tm": 380.15, 
	 "num_atms": 29, 
	 "gaussian": { 
		 "optdone": 1, 
		 "sigma_profile": "yes", 
		 "theory": "DFT", 
		 "functional": "B3LYP", 
		 "basiset": "6-31G**", 
		 "properties": { 
			 "R2extent": 8737.2492, 
			 "electric_dipole_moment_norm": 4.52665928031, 
			 "electric_quadrupole_moment_norm": 34.7997162346, 
			 "total_energy": -1023.14951466, 
			 "HOMO_LUMO_gap": 0.18107, 
			 "cosmo_polarized_energy": -14.82, 
			 "cosmo_cavitation_energy": 37.07, 
			 "cosmo_dispersion_energy": -25.18, 
			 "cosmo_repulsion_energy": 1.88, 
			 "cosmo_total_nonelectrostatic_energy": 13.76, 
			 "SMD_solvation_energy": 8.93 
		},
		"coords": [
			{
				"x": 0.3770511154,
				"y": -2.1197823564,
				"z": -0.3368075914,
				"element": "N" 
			},
			{
				"x": 0.7836063016,
				"y": -1.1927067236,
				"z": -1.2821111364,
				"element": "C" 
			},
			{
				"x": 0.5442216711,
				"y": -1.3643428753,
				"z": -2.6544827402,
				"element": "C" 
			},
			{
				"x": 0.9186747025,
				"y": -0.3815381389,
				"z": -3.5696339881,
				"element": "C" 
			},
			{
				"x": 1.5467898579,
				"y": 0.7941596794,
				"z": -3.1492071243,
				"element": "C" 
			},
			{
				"x": 1.7972409588,
				"y": 0.9748324337,
				"z": -1.7900869801,
				"element": "C" 
			},
			{
				"x": 1.4151280271,
				"y": -0.0002623629,
				"z": -0.875929256,
				"element": "C" 
			},
			{
				"x": 1.7260895796,
				"y": 0.1250199501,
				"z": 0.4762881366,
				"element": "O" 
			},
			{
				"x": 1.0240904879,
				"y": 1.0038530859,
				"z": 1.2680263706,
				"element": "C" 
			},
			{
				"x": -0.1517259666,
				"y": 1.6455883745,
				"z": 0.8648040319,
				"element": "C" 
			},
			{
				"x": -0.7995961831,
				"y": 2.5004125362,
				"z": 1.7509808216,
				"element": "C" 
			},
			{
				"x": -0.2841917745,
				"y": 2.721350653,
				"z": 3.0386315559,
				"element": "C" 
			},
			{
				"x": 0.8985801844,
				"y": 2.0669215076,
				"z": 3.4299171091,
				"element": "C" 
			},
			{
				"x": 1.5487281284,
				"y": 1.2142862787,
				"z": 2.5496263336,
				"element": "C" 
			},
			{
				"x": -0.9555168373,
				"y": 3.6037374503,
				"z": 3.9451788543,
				"element": "C" 
			},
			{
				"x": -1.500170037,
				"y": 4.3202502542,
				"z": 4.6828830231,
				"element": "N" 
			},
			{
				"x": 0.7042741921,
				"y": -0.6252268848,
				"z": -5.0398035913,
				"element": "C" 
			},
			{
				"x": 0.4984809538,
				"y": 0.5265919021,
				"z": -5.714900324,
				"element": "F" 
			},
			{
				"x": 1.7772779511,
				"y": -1.225466478,
				"z": -5.6063919779,
				"element": "F" 
			},
			{
				"x": -0.3590943566,
				"y": -1.4278511823,
				"z": -5.2706215232,
				"element": "F" 
			},
			{
				"x": 0.244229489,
				"y": -3.0635539665,
				"z": -0.6697055145,
				"element": "H" 
			},
			{
				"x": 0.8610455888,
				"y": -2.065863302,
				"z": 0.5483665952,
				"element": "H" 
			},
			{
				"x": 0.0491803616,
				"y": -2.2653173045,
				"z": -3.0020653598,
				"element": "H" 
			},
			{
				"x": 1.8325699179,
				"y": 1.5517267422,
				"z": -3.8689691135,
				"element": "H" 
			},
			{
				"x": 2.2926652602,
				"y": 1.8693715053,
				"z": -1.4267045041,
				"element": "H" 
			},
			{
				"x": -0.5554676901,
				"y": 1.4760262573,
				"z": -0.1260921266,
				"element": "H" 
			},
			{
				"x": -1.7136869084,
				"y": 2.9997796162,
				"z": 1.4476983261,
				"element": "H" 
			},
			{
				"x": 1.3014854455,
				"y": 2.235255258,
				"z": 4.4229020243,
				"element": "H" 
			},
			{
				"x": 2.4636395788,
				"y": 0.7047480904,
				"z": 2.8321096692,
				"element": "H" 
			}
		],
		 "valence_orbital": [ 
			{
				"type": "occ",
				"energy": -0.32864,
				"method": "rhf"
			},
			{
				"type": "occ",
				"energy": -0.28232,
				"method": "rhf"
			},
			{
				"type": "occ",
				"energy": -0.27373,
				"method": "rhf"
			},
			{
				"type": "occ",
				"energy": -0.2478,
				"method": "rhf"
			},
			{
				"type": "occ",
				"energy": -0.2276,
				"method": "rhf"
			},
			{
				"type": "unocc",
				"energy": -0.04653,
				"method": "rhf"
			},
			{
				"type": "unocc",
				"energy": -0.03542,
				"method": "rhf"
			},
			{
				"type": "unocc",
				"energy": -0.02901,
				"method": "rhf"
			},
			{
				"type": "unocc",
				"energy": -0.01178,
				"method": "rhf"
			},
			{
				"type": "unocc",
				"energy": 0.03771,
				"method": "rhf"
			}
		],
		"cosmo_sigma_profile": { 
			"-0.025": 0.0,
			"-0.024": 0.0,
			"-0.023": 0.0,
			"-0.022": 0.0,
			"-0.021": 0.0,
			"-0.02": 0.0,
			"-0.019": 0.0,
			"-0.018": 0.0,
			"-0.017": 0.0,
			"-0.016": 0.0,
			"-0.015": 0.0,
			"-0.014": 0.179639124068,
			"-0.013": 1.30299808463,
			"-0.012": 2.50093386849,
			"-0.011": 2.23536330249,
			"-0.01": 3.01732479294,
			"-0.009": 2.77781481265,
			"-0.008": 7.51871814163,
			"-0.007": 13.0833642288,
			"-0.006": 13.8914191523,
			"-0.005": 13.7832662018,
			"-0.004": 13.489522468,
			"-0.003": 13.3802413319,
			"-0.002": 15.076263962,
			"-0.001": 19.1478253764,
			"0.0": 23.0338682564,
			"0.001": 26.9388711803,
			"0.002": 38.1141730946,
			"0.003": 46.5860829665,
			"0.004": 9.62885992025,
			"0.005": 3.89116769621,
			"0.006": 3.87658499259,
			"0.007": 4.21568915508,
			"0.008": 3.85860519327,
			"0.009": 4.50744403451,
			"0.01": 4.18981478989,
			"0.011": 3.39296097785,
			"0.012": 2.95754938811,
			"0.013": 2.15194635493,
			"0.014": 0.255973875317,
			"0.015": 0.0,
			"0.016": 0.0,
			"0.017": 0.0,
			"0.018": 0.0,
			"0.019": 0.0,
			"0.02": 0.0,
			"0.021": 0.0,
			"0.022": 0.0,
			"0.023": 0.0,
			"0.024": 0.0,
			"0.025": 0.0
		}
	}
}
