{
	 "smiles": "O=C1C(=O)C2=CC=CC=C2C2=CC=CC=C12", 
	 "Tm": 481.15, 
	 "num_atms": 24, 
	 "gaussian": { 
		 "optdone": 1, 
		 "sigma_profile": "yes", 
		 "theory": "DFT", 
		 "functional": "B3LYP", 
		 "basiset": "6-31G**", 
		 "properties": { 
			 "R2extent": 3432.3881, 
			 "electric_dipole_moment_norm": 5.96731564776, 
			 "electric_quadrupole_moment_norm": 12.0523641685, 
			 "total_energy": -688.758493232, 
			 "HOMO_LUMO_gap": 0.13324, 
			 "cosmo_polarized_energy": -13.38, 
			 "cosmo_cavitation_energy": 28.32, 
			 "cosmo_dispersion_energy": -21.15, 
			 "cosmo_repulsion_energy": 1.57, 
			 "cosmo_total_nonelectrostatic_energy": 8.73, 
			 "SMD_solvation_energy": 5.57 
		},
		"coords": [
			{
				"x": 3.0004117524,
				"y": -1.1970348695,
				"z": 0.3127391698,
				"element": "O" 
			},
			{
				"x": 1.9792130181,
				"y": -0.5630821166,
				"z": 0.1119949148,
				"element": "C" 
			},
			{
				"x": 0.9584009347,
				"y": -1.0876216719,
				"z": -0.9220120664,
				"element": "C" 
			},
			{
				"x": 1.1944438847,
				"y": -2.1251573088,
				"z": -1.5160143686,
				"element": "O" 
			},
			{
				"x": -0.274150884,
				"y": -0.2918991164,
				"z": -1.1433292903,
				"element": "C" 
			},
			{
				"x": -1.1977859744,
				"y": -0.770893069,
				"z": -2.0829820471,
				"element": "C" 
			},
			{
				"x": -2.3729892514,
				"y": -0.0767435813,
				"z": -2.3406355396,
				"element": "C" 
			},
			{
				"x": -2.6245760714,
				"y": 1.1109622103,
				"z": -1.6482263593,
				"element": "C" 
			},
			{
				"x": -1.7122350688,
				"y": 1.5940696461,
				"z": -0.7128648877,
				"element": "C" 
			},
			{
				"x": -0.5166928966,
				"y": 0.9100822791,
				"z": -0.4347188618,
				"element": "C" 
			},
			{
				"x": 0.4644301842,
				"y": 1.4140068852,
				"z": 0.5600147225,
				"element": "C" 
			},
			{
				"x": 0.2514594994,
				"y": 2.6024824823,
				"z": 1.2788202228,
				"element": "C" 
			},
			{
				"x": 1.1796006787,
				"y": 3.0647602943,
				"z": 2.2091495416,
				"element": "C" 
			},
			{
				"x": 2.3570846781,
				"y": 2.3528806647,
				"z": 2.454377427,
				"element": "C" 
			},
			{
				"x": 2.590080912,
				"y": 1.1749281455,
				"z": 1.7561922068,
				"element": "C" 
			},
			{
				"x": 1.6613931328,
				"y": 0.7024360856,
				"z": 0.8182308901,
				"element": "C" 
			},
			{
				"x": -0.9599445844,
				"y": -1.6968678082,
				"z": -2.5960193849,
				"element": "H" 
			},
			{
				"x": -3.0855835268,
				"y": -0.4510331387,
				"z": -3.0690126252,
				"element": "H" 
			},
			{
				"x": -3.5381094085,
				"y": 1.6677080229,
				"z": -1.836266792,
				"element": "H" 
			},
			{
				"x": -1.9467085191,
				"y": 2.5185945769,
				"z": -0.1988799397,
				"element": "H" 
			},
			{
				"x": -0.6479691283,
				"y": 3.1852285046,
				"z": 1.1196372468,
				"element": "H" 
			},
			{
				"x": 0.979879623,
				"y": 3.9879865914,
				"z": 2.7454637719,
				"element": "H" 
			},
			{
				"x": 3.078723649,
				"y": 2.7153299614,
				"z": 3.1798314504,
				"element": "H" 
			},
			{
				"x": 3.4896233665,
				"y": 0.5889763303,
				"z": 1.9133105984,
				"element": "H" 
			}
		],
		 "valence_orbital": [ 
			{
				"type": "occ",
				"energy": -0.28902,
				"method": "rhf"
			},
			{
				"type": "occ",
				"energy": -0.27352,
				"method": "rhf"
			},
			{
				"type": "occ",
				"energy": -0.26752,
				"method": "rhf"
			},
			{
				"type": "occ",
				"energy": -0.24294,
				"method": "rhf"
			},
			{
				"type": "occ",
				"energy": -0.24287,
				"method": "rhf"
			},
			{
				"type": "unocc",
				"energy": -0.10963,
				"method": "rhf"
			},
			{
				"type": "unocc",
				"energy": -0.04964,
				"method": "rhf"
			},
			{
				"type": "unocc",
				"energy": -0.03663,
				"method": "rhf"
			},
			{
				"type": "unocc",
				"energy": 0.00409,
				"method": "rhf"
			},
			{
				"type": "unocc",
				"energy": 0.01664,
				"method": "rhf"
			}
		],
		"cosmo_sigma_profile": { 
			"-0.025": 0.0,
			"-0.024": 0.0,
			"-0.023": 0.0,
			"-0.022": 0.0,
			"-0.021": 0.0,
			"-0.02": 0.0,
			"-0.019": 0.0,
			"-0.018": 0.0,
			"-0.017": 0.0,
			"-0.016": 0.0,
			"-0.015": 0.0,
			"-0.014": 0.0,
			"-0.013": 0.0,
			"-0.012": 0.0,
			"-0.011": 0.0,
			"-0.01": 0.638302223247,
			"-0.009": 1.84470683595,
			"-0.008": 2.35761550851,
			"-0.007": 11.6134895321,
			"-0.006": 17.6771984706,
			"-0.005": 17.9322599764,
			"-0.004": 14.8444706409,
			"-0.003": 13.6946561171,
			"-0.002": 10.7200757527,
			"-0.001": 14.5216280477,
			"0.0": 19.0941903536,
			"0.001": 21.5385017752,
			"0.002": 26.792449047,
			"0.003": 20.1772567437,
			"0.004": 3.17956559138,
			"0.005": 2.71105254084,
			"0.006": 2.41938754081,
			"0.007": 2.44232275945,
			"0.008": 3.32197051152,
			"0.009": 4.52620189199,
			"0.01": 6.44950069878,
			"0.011": 5.49808859135,
			"0.012": 2.14627598252,
			"0.013": 1.69733216022,
			"0.014": 1.26423775193,
			"0.015": 0.385863570612,
			"0.016": 0.0,
			"0.017": 0.0,
			"0.018": 0.0,
			"0.019": 0.0,
			"0.02": 0.0,
			"0.021": 0.0,
			"0.022": 0.0,
			"0.023": 0.0,
			"0.024": 0.0,
			"0.025": 0.0
		}
	}
}
