{
	 "smiles": "BrC1=C2OCC=CC2=CC(CC#N)=C1", 
	 "Tm": 353.15, 
	 "num_atms": 22, 
	 "gaussian": { 
		 "optdone": 1, 
		 "sigma_profile": "yes", 
		 "theory": "DFT", 
		 "functional": "B3LYP", 
		 "basiset": "6-31G**", 
		 "properties": { 
			 "R2extent": 4400.3307, 
			 "electric_dipole_moment_norm": 2.15215507109, 
			 "electric_quadrupole_moment_norm": 24.1595013419, 
			 "total_energy": -3125.32854056, 
			 "HOMO_LUMO_gap": 0.17124, 
			 "cosmo_polarized_energy": -12.65, 
			 "cosmo_cavitation_energy": 29.25, 
			 "cosmo_dispersion_energy": -21.38, 
			 "cosmo_repulsion_energy": 1.69, 
			 "cosmo_total_nonelectrostatic_energy": 9.55, 
			 "SMD_solvation_energy": 5.22 
		},
		"coords": [
			{
				"x": 1.1203316493,
				"y": -0.5975005593,
				"z": -3.3393469639,
				"element": "Br" 
			},
			{
				"x": 0.6663021813,
				"y": 0.1161872435,
				"z": -1.6333350321,
				"element": "C" 
			},
			{
				"x": -0.2299571541,
				"y": -0.5690849023,
				"z": -0.8074192047,
				"element": "C" 
			},
			{
				"x": -0.803136391,
				"y": -1.7141821565,
				"z": -1.2579468877,
				"element": "O" 
			},
			{
				"x": -1.3062503098,
				"y": -2.6446927044,
				"z": -0.2829376669,
				"element": "C" 
			},
			{
				"x": -1.9298503,
				"y": -1.9713670171,
				"z": 0.9079296641,
				"element": "C" 
			},
			{
				"x": -1.5516046642,
				"y": -0.735019797,
				"z": 1.2538999585,
				"element": "C" 
			},
			{
				"x": -0.5676696476,
				"y": -0.0158323664,
				"z": 0.4460094172,
				"element": "C" 
			},
			{
				"x": 0.0080496428,
				"y": 1.1943180416,
				"z": 0.8457953871,
				"element": "C" 
			},
			{
				"x": 0.9141558909,
				"y": 1.8676029016,
				"z": 0.0248564669,
				"element": "C" 
			},
			{
				"x": 1.5283129763,
				"y": 3.20767581,
				"z": 0.415233774,
				"element": "C" 
			},
			{
				"x": 1.5227867828,
				"y": 3.4750313226,
				"z": 1.855919106,
				"element": "C" 
			},
			{
				"x": 1.5038083223,
				"y": 3.6870751297,
				"z": 2.9967057297,
				"element": "N" 
			},
			{
				"x": 1.2364013978,
				"y": 1.3191557706,
				"z": -1.2201496124,
				"element": "C" 
			},
			{
				"x": -2.0316621,
				"y": -3.2570654571,
				"z": -0.8258349295,
				"element": "H" 
			},
			{
				"x": -0.4834484987,
				"y": -3.3097688404,
				"z": 0.0303290299,
				"element": "H" 
			},
			{
				"x": -2.6565194938,
				"y": -2.5341833209,
				"z": 1.4864324165,
				"element": "H" 
			},
			{
				"x": -1.9649143259,
				"y": -0.2370427299,
				"z": 2.1264647985,
				"element": "H" 
			},
			{
				"x": -0.2564166509,
				"y": 1.6057243387,
				"z": 1.815885717,
				"element": "H" 
			},
			{
				"x": 0.9926662549,
				"y": 4.0314031873,
				"z": -0.0764305467,
				"element": "H" 
			},
			{
				"x": 2.5648982807,
				"y": 3.2639839951,
				"z": 0.063030637,
				"element": "H" 
			},
			{
				"x": 1.9383161567,
				"y": 1.8197821106,
				"z": -1.8790912586,
				"element": "H" 
			}
		],
		 "valence_orbital": [ 
			{
				"type": "occ",
				"energy": -0.3202,
				"method": "rhf"
			},
			{
				"type": "occ",
				"energy": -0.2948,
				"method": "rhf"
			},
			{
				"type": "occ",
				"energy": -0.2859,
				"method": "rhf"
			},
			{
				"type": "occ",
				"energy": -0.2423,
				"method": "rhf"
			},
			{
				"type": "occ",
				"energy": -0.22141,
				"method": "rhf"
			},
			{
				"type": "unocc",
				"energy": -0.05017,
				"method": "rhf"
			},
			{
				"type": "unocc",
				"energy": -0.01415,
				"method": "rhf"
			},
			{
				"type": "unocc",
				"energy": 0.00214,
				"method": "rhf"
			},
			{
				"type": "unocc",
				"energy": 0.02544,
				"method": "rhf"
			},
			{
				"type": "unocc",
				"energy": 0.03267,
				"method": "rhf"
			}
		],
		"cosmo_sigma_profile": { 
			"-0.025": 0.0,
			"-0.024": 0.0,
			"-0.023": 0.0,
			"-0.022": 0.0,
			"-0.021": 0.0,
			"-0.02": 0.0,
			"-0.019": 0.0,
			"-0.018": 0.0,
			"-0.017": 0.0,
			"-0.016": 0.0,
			"-0.015": 0.0,
			"-0.014": 0.0,
			"-0.013": 0.0,
			"-0.012": 0.0,
			"-0.011": 0.0,
			"-0.01": 0.0556418456003,
			"-0.009": 5.46771042255,
			"-0.008": 7.450084381,
			"-0.007": 11.7745218537,
			"-0.006": 18.4323416374,
			"-0.005": 15.8086366999,
			"-0.004": 16.3286014163,
			"-0.003": 11.4928168808,
			"-0.002": 11.6526240683,
			"-0.001": 10.9626799079,
			"0.0": 11.9370619211,
			"0.001": 15.9958822888,
			"0.002": 23.6710682861,
			"0.003": 21.0995746889,
			"0.004": 15.7134901806,
			"0.005": 10.1374180727,
			"0.006": 4.96117954585,
			"0.007": 3.92953818888,
			"0.008": 4.72522552175,
			"0.009": 5.1720177481,
			"0.01": 4.65510730344,
			"0.011": 2.80535981842,
			"0.012": 2.59705058318,
			"0.013": 1.71347323199,
			"0.014": 0.0576974877805,
			"0.015": 0.0,
			"0.016": 0.0,
			"0.017": 0.0,
			"0.018": 0.0,
			"0.019": 0.0,
			"0.02": 0.0,
			"0.021": 0.0,
			"0.022": 0.0,
			"0.023": 0.0,
			"0.024": 0.0,
			"0.025": 0.0
		}
	}
}
