{
	 "smiles": "CCCCCCCCC=CCCCCCCCC(=O)OCC", 
	 "Tm": 241.15, 
	 "num_atms": 60, 
	 "gaussian": { 
		 "optdone": 1, 
		 "sigma_profile": "yes", 
		 "theory": "DFT", 
		 "functional": "B3LYP", 
		 "basiset": "6-31G**", 
		 "properties": { 
			 "R2extent": 11293.9205, 
			 "electric_dipole_moment_norm": 1.60854085431, 
			 "electric_quadrupole_moment_norm": 8.6408968597, 
			 "total_energy": -935.5205517, 
			 "HOMO_LUMO_gap": 0.24132, 
			 "cosmo_polarized_energy": -7.0, 
			 "cosmo_cavitation_energy": 58.92, 
			 "cosmo_dispersion_energy": -35.37, 
			 "cosmo_repulsion_energy": 2.82, 
			 "cosmo_total_nonelectrostatic_energy": 26.38, 
			 "SMD_solvation_energy": 8.86 
		},
		"coords": [
			{
				"x": -5.6087817201,
				"y": -1.1594302776,
				"z": 0.267835184,
				"element": "C" 
			},
			{
				"x": -4.4268136826,
				"y": -1.7234963178,
				"z": 1.0634954433,
				"element": "C" 
			},
			{
				"x": -3.7107357674,
				"y": -0.6579072999,
				"z": 1.9056758743,
				"element": "C" 
			},
			{
				"x": -2.5607382463,
				"y": -1.1849175963,
				"z": 2.7809676976,
				"element": "C" 
			},
			{
				"x": -1.3512755503,
				"y": -1.7121585092,
				"z": 1.994322755,
				"element": "C" 
			},
			{
				"x": -0.2035254295,
				"y": -2.2410422574,
				"z": 2.8746157721,
				"element": "C" 
			},
			{
				"x": 0.5374361594,
				"y": -1.2195104284,
				"z": 3.758753063,
				"element": "C" 
			},
			{
				"x": 1.4917711183,
				"y": -0.2487551102,
				"z": 3.0271647582,
				"element": "C" 
			},
			{
				"x": 0.836249298,
				"y": 0.8678854897,
				"z": 2.2573451118,
				"element": "C" 
			},
			{
				"x": 1.1020746388,
				"y": 1.2011840347,
				"z": 0.990046254,
				"element": "C" 
			},
			{
				"x": 0.4696825909,
				"y": 2.3509906656,
				"z": 0.2504575854,
				"element": "C" 
			},
			{
				"x": -0.3833839998,
				"y": 1.9339905459,
				"z": -0.9682478286,
				"element": "C" 
			},
			{
				"x": 0.4189050392,
				"y": 1.2702786851,
				"z": -2.0967774427,
				"element": "C" 
			},
			{
				"x": -0.4002489595,
				"y": 0.9700567301,
				"z": -3.364990021,
				"element": "C" 
			},
			{
				"x": -1.5591652548,
				"y": -0.0304308911,
				"z": -3.1993484186,
				"element": "C" 
			},
			{
				"x": -1.1796938273,
				"y": -1.4700501979,
				"z": -2.806833751,
				"element": "C" 
			},
			{
				"x": -0.3524459873,
				"y": -2.2276823132,
				"z": -3.8595662805,
				"element": "C" 
			},
			{
				"x": 1.1416223028,
				"y": -1.9759960854,
				"z": -3.7788848582,
				"element": "C" 
			},
			{
				"x": 1.7638878727,
				"y": -1.79493305,
				"z": -2.751386939,
				"element": "O" 
			},
			{
				"x": 1.7144134732,
				"y": -2.035250176,
				"z": -5.0025996484,
				"element": "O" 
			},
			{
				"x": 3.1555238407,
				"y": -1.8972643003,
				"z": -5.0532848816,
				"element": "C" 
			},
			{
				"x": 3.5702283463,
				"y": -0.4352974643,
				"z": -5.1217036808,
				"element": "C" 
			},
			{
				"x": -5.2814053983,
				"y": -0.3758186596,
				"z": -0.425420603,
				"element": "H" 
			},
			{
				"x": -6.3591902065,
				"y": -0.7163317603,
				"z": 0.9327985197,
				"element": "H" 
			},
			{
				"x": -6.1051687041,
				"y": -1.937589083,
				"z": -0.3215931978,
				"element": "H" 
			},
			{
				"x": -3.7172417783,
				"y": -2.1920251,
				"z": 0.3702057658,
				"element": "H" 
			},
			{
				"x": -4.7805746632,
				"y": -2.5264220933,
				"z": 1.725255751,
				"element": "H" 
			},
			{
				"x": -3.327259634,
				"y": 0.1299267304,
				"z": 1.2407843323,
				"element": "H" 
			},
			{
				"x": -4.4524207029,
				"y": -0.1697237058,
				"z": 2.5531498376,
				"element": "H" 
			},
			{
				"x": -2.2368494804,
				"y": -0.3743814443,
				"z": 3.44593147,
				"element": "H" 
			},
			{
				"x": -2.9417880766,
				"y": -1.9804640304,
				"z": 3.4386093805,
				"element": "H" 
			},
			{
				"x": -0.977486554,
				"y": -0.9216444372,
				"z": 1.3337144917,
				"element": "H" 
			},
			{
				"x": -1.6748285693,
				"y": -2.5326089899,
				"z": 1.3412254382,
				"element": "H" 
			},
			{
				"x": -0.6060452343,
				"y": -3.0286449833,
				"z": 3.5274603756,
				"element": "H" 
			},
			{
				"x": 0.5349802576,
				"y": -2.7367623058,
				"z": 2.229700336,
				"element": "H" 
			},
			{
				"x": -0.1790173786,
				"y": -0.6407839493,
				"z": 4.3568548449,
				"element": "H" 
			},
			{
				"x": 1.1371730538,
				"y": -1.7832960043,
				"z": 4.4847143567,
				"element": "H" 
			},
			{
				"x": 2.1550463798,
				"y": -0.8164664136,
				"z": 2.3614231623,
				"element": "H" 
			},
			{
				"x": 2.1421243603,
				"y": 0.2037242849,
				"z": 3.7916647589,
				"element": "H" 
			},
			{
				"x": 0.1119375838,
				"y": 1.4668867338,
				"z": 2.8153828698,
				"element": "H" 
			},
			{
				"x": 1.8293589315,
				"y": 0.6050925814,
				"z": 0.4370450803,
				"element": "H" 
			},
			{
				"x": 1.2570940965,
				"y": 3.0368705115,
				"z": -0.098020587,
				"element": "H" 
			},
			{
				"x": -0.1556781618,
				"y": 2.9251837338,
				"z": 0.9452422334,
				"element": "H" 
			},
			{
				"x": -1.1786856531,
				"y": 1.261982537,
				"z": -0.6217016909,
				"element": "H" 
			},
			{
				"x": -0.8850244836,
				"y": 2.8287119315,
				"z": -1.3635469007,
				"element": "H" 
			},
			{
				"x": 0.8871375095,
				"y": 0.347695967,
				"z": -1.7385741665,
				"element": "H" 
			},
			{
				"x": 1.245562544,
				"y": 1.9392731822,
				"z": -2.3758355591,
				"element": "H" 
			},
			{
				"x": 0.2794246454,
				"y": 0.6131324079,
				"z": -4.150497443,
				"element": "H" 
			},
			{
				"x": -0.8191201548,
				"y": 1.9115670534,
				"z": -3.7469851818,
				"element": "H" 
			},
			{
				"x": -2.2645011515,
				"y": 0.3531612529,
				"z": -2.4517815713,
				"element": "H" 
			},
			{
				"x": -2.1203454297,
				"y": -0.0665797726,
				"z": -4.1435430962,
				"element": "H" 
			},
			{
				"x": -2.1081566379,
				"y": -2.0280918241,
				"z": -2.6385562929,
				"element": "H" 
			},
			{
				"x": -0.6330856192,
				"y": -1.486275048,
				"z": -1.8579393112,
				"element": "H" 
			},
			{
				"x": -0.6993038083,
				"y": -2.021322702,
				"z": -4.8768309295,
				"element": "H" 
			},
			{
				"x": -0.4707203014,
				"y": -3.3091828596,
				"z": -3.7068954676,
				"element": "H" 
			},
			{
				"x": 3.5881070221,
				"y": -2.388131825,
				"z": -4.1782481179,
				"element": "H" 
			},
			{
				"x": 3.4484201015,
				"y": -2.438519064,
				"z": -5.9563250364,
				"element": "H" 
			},
			{
				"x": 3.2880506324,
				"y": 0.0868400904,
				"z": -4.204230392,
				"element": "H" 
			},
			{
				"x": 3.0997054937,
				"y": 0.063974029,
				"z": -5.9739544016,
				"element": "H" 
			},
			{
				"x": 4.6567889142,
				"y": -0.3618208479,
				"z": -5.2379388069,
				"element": "H" 
			}
		],
		 "valence_orbital": [ 
			{
				"type": "occ",
				"energy": -0.29814,
				"method": "rhf"
			},
			{
				"type": "occ",
				"energy": -0.29447,
				"method": "rhf"
			},
			{
				"type": "occ",
				"energy": -0.29343,
				"method": "rhf"
			},
			{
				"type": "occ",
				"energy": -0.26872,
				"method": "rhf"
			},
			{
				"type": "occ",
				"energy": -0.22798,
				"method": "rhf"
			},
			{
				"type": "unocc",
				"energy": 0.01334,
				"method": "rhf"
			},
			{
				"type": "unocc",
				"energy": 0.02997,
				"method": "rhf"
			},
			{
				"type": "unocc",
				"energy": 0.06659,
				"method": "rhf"
			},
			{
				"type": "unocc",
				"energy": 0.08542,
				"method": "rhf"
			},
			{
				"type": "unocc",
				"energy": 0.09813,
				"method": "rhf"
			}
		],
		"cosmo_sigma_profile": { 
			"-0.025": 0.0,
			"-0.024": 0.0,
			"-0.023": 0.0,
			"-0.022": 0.0,
			"-0.021": 0.0,
			"-0.02": 0.0,
			"-0.019": 0.0,
			"-0.018": 0.0,
			"-0.017": 0.0,
			"-0.016": 0.0,
			"-0.015": 0.0,
			"-0.014": 0.0,
			"-0.013": 0.0,
			"-0.012": 0.0,
			"-0.011": 0.0,
			"-0.01": 0.0,
			"-0.009": 0.0,
			"-0.008": 0.0,
			"-0.007": 0.205539173646,
			"-0.006": 3.33601650307,
			"-0.005": 6.51954626675,
			"-0.004": 13.979486553,
			"-0.003": 27.7223583487,
			"-0.002": 67.5254288133,
			"-0.001": 89.0200835536,
			"0.0": 92.4621510412,
			"0.001": 74.7642730988,
			"0.002": 33.0551986729,
			"0.003": 10.5753241031,
			"0.004": 7.48642683733,
			"0.005": 5.03087492588,
			"0.006": 5.04467029876,
			"0.007": 3.67955231498,
			"0.008": 2.87476259871,
			"0.009": 2.32342366375,
			"0.01": 1.49591933721,
			"0.011": 2.25522789756,
			"0.012": 2.72829797569,
			"0.013": 0.985918953053,
			"0.014": 0.0,
			"0.015": 0.0,
			"0.016": 0.0,
			"0.017": 0.0,
			"0.018": 0.0,
			"0.019": 0.0,
			"0.02": 0.0,
			"0.021": 0.0,
			"0.022": 0.0,
			"0.023": 0.0,
			"0.024": 0.0,
			"0.025": 0.0
		}
	}
}
