{
	 "smiles": "OC(=O)C1=CN=C(S1)C1=NC=CC=C1", 
	 "Tm": 473.15, 
	 "num_atms": 20, 
	 "gaussian": { 
		 "optdone": 1, 
		 "sigma_profile": "yes", 
		 "theory": "DFT", 
		 "functional": "B3LYP", 
		 "basiset": "6-31G**", 
		 "properties": { 
			 "R2extent": 4619.7026, 
			 "electric_dipole_moment_norm": 4.11677636143, 
			 "electric_quadrupole_moment_norm": 21.6883359348, 
			 "total_energy": -1004.69936326, 
			 "HOMO_LUMO_gap": 0.16323, 
			 "cosmo_polarized_energy": -20.39, 
			 "cosmo_cavitation_energy": 27.31, 
			 "cosmo_dispersion_energy": -20.83, 
			 "cosmo_repulsion_energy": 1.57, 
			 "cosmo_total_nonelectrostatic_energy": 8.05, 
			 "SMD_solvation_energy": 2.91 
		},
		"coords": [
			{
				"x": 1.0394177026,
				"y": -5.2883793095,
				"z": -2.0181957974,
				"element": "O" 
			},
			{
				"x": 0.5133779401,
				"y": -4.0649973446,
				"z": -2.2862464731,
				"element": "C" 
			},
			{
				"x": -0.1920492548,
				"y": -3.8999256278,
				"z": -3.2544022112,
				"element": "O" 
			},
			{
				"x": 0.8482673653,
				"y": -2.9815030445,
				"z": -1.3373046241,
				"element": "C" 
			},
			{
				"x": 1.4635106538,
				"y": -3.0105675993,
				"z": -0.1053152391,
				"element": "C" 
			},
			{
				"x": 1.6030045678,
				"y": -1.8211135918,
				"z": 0.539032452,
				"element": "N" 
			},
			{
				"x": 1.0924532571,
				"y": -0.8419446162,
				"z": -0.1715941312,
				"element": "C" 
			},
			{
				"x": 0.4009390398,
				"y": -1.3450083012,
				"z": -1.7089005605,
				"element": "S" 
			},
			{
				"x": 1.0915858761,
				"y": 0.5747383881,
				"z": 0.2528101176,
				"element": "C" 
			},
			{
				"x": 1.90700035,
				"y": 0.8860436336,
				"z": 1.2750563708,
				"element": "N" 
			},
			{
				"x": 1.9323777057,
				"y": 2.1542379196,
				"z": 1.6859483936,
				"element": "C" 
			},
			{
				"x": 1.1666006213,
				"y": 3.1744619836,
				"z": 1.1137402521,
				"element": "C" 
			},
			{
				"x": 0.3216002677,
				"y": 2.846282063,
				"z": 0.0556455248,
				"element": "C" 
			},
			{
				"x": 0.2773131052,
				"y": 1.5255853884,
				"z": -0.3827777373,
				"element": "C" 
			},
			{
				"x": 1.6672127854,
				"y": -5.2455405545,
				"z": -1.2836772544,
				"element": "H" 
			},
			{
				"x": 1.8218033272,
				"y": -3.9073324003,
				"z": 0.3930951727,
				"element": "H" 
			},
			{
				"x": 2.6029091791,
				"y": 2.3709769218,
				"z": 2.5157417097,
				"element": "H" 
			},
			{
				"x": 1.2330514407,
				"y": 4.1898116375,
				"z": 1.4908924566,
				"element": "H" 
			},
			{
				"x": -0.2983620151,
				"y": 3.6015334052,
				"z": -0.4178357894,
				"element": "H" 
			},
			{
				"x": -0.386613915,
				"y": 1.2393410488,
				"z": -1.1925126323,
				"element": "H" 
			}
		],
		 "valence_orbital": [ 
			{
				"type": "occ",
				"energy": -0.2991,
				"method": "rhf"
			},
			{
				"type": "occ",
				"energy": -0.29722,
				"method": "rhf"
			},
			{
				"type": "occ",
				"energy": -0.27637,
				"method": "rhf"
			},
			{
				"type": "occ",
				"energy": -0.26708,
				"method": "rhf"
			},
			{
				"type": "occ",
				"energy": -0.25095,
				"method": "rhf"
			},
			{
				"type": "unocc",
				"energy": -0.08772,
				"method": "rhf"
			},
			{
				"type": "unocc",
				"energy": -0.03968,
				"method": "rhf"
			},
			{
				"type": "unocc",
				"energy": -0.02768,
				"method": "rhf"
			},
			{
				"type": "unocc",
				"energy": 0.00615,
				"method": "rhf"
			},
			{
				"type": "unocc",
				"energy": 0.02773,
				"method": "rhf"
			}
		],
		"cosmo_sigma_profile": { 
			"-0.025": 0.0,
			"-0.024": 0.0,
			"-0.023": 0.0,
			"-0.022": 0.0,
			"-0.021": 0.0,
			"-0.02": 0.367597302198,
			"-0.019": 1.21060531683,
			"-0.018": 1.24060144052,
			"-0.017": 0.984831669496,
			"-0.016": 1.25980420139,
			"-0.015": 0.944174388374,
			"-0.014": 0.930685660967,
			"-0.013": 1.06026730953,
			"-0.012": 1.49181894856,
			"-0.011": 1.271295338,
			"-0.01": 1.36833748394,
			"-0.009": 2.13246380008,
			"-0.008": 5.32314079355,
			"-0.007": 11.7253471005,
			"-0.006": 12.1174086006,
			"-0.005": 9.6065263877,
			"-0.004": 10.3679860119,
			"-0.003": 12.068309908,
			"-0.002": 15.0448793235,
			"-0.001": 18.1214996215,
			"0.0": 19.4866053878,
			"0.001": 22.2676003737,
			"0.002": 13.0123624235,
			"0.003": 5.90595300009,
			"0.004": 4.4368454563,
			"0.005": 4.01624337489,
			"0.006": 4.83003114907,
			"0.007": 5.28887389269,
			"0.008": 4.19638810089,
			"0.009": 5.44166344242,
			"0.01": 6.82548326073,
			"0.011": 6.50963759348,
			"0.012": 4.40848551631,
			"0.013": 1.73285955672,
			"0.014": 1.42589346888,
			"0.015": 0.86199160598,
			"0.016": 1.49393428177,
			"0.017": 0.81009349311,
			"0.018": 1.23235731368,
			"0.019": 0.141625184836,
			"0.02": 0.0,
			"0.021": 0.0,
			"0.022": 0.0,
			"0.023": 0.0,
			"0.024": 0.0,
			"0.025": 0.0
		}
	}
}
