{
	 "smiles": "CC1=CC=C(F)C(O)=C1Cl", 
	 "Tm": 322.15, 
	 "num_atms": 16, 
	 "gaussian": { 
		 "optdone": 1, 
		 "sigma_profile": "yes", 
		 "theory": "DFT", 
		 "functional": "B3LYP", 
		 "basiset": "6-31G**", 
		 "properties": { 
			 "R2extent": 2152.4335, 
			 "electric_dipole_moment_norm": 2.17050994239, 
			 "electric_quadrupole_moment_norm": 5.89291827535, 
			 "total_energy": -905.610121911, 
			 "HOMO_LUMO_gap": 0.21593, 
			 "cosmo_polarized_energy": -5.93, 
			 "cosmo_cavitation_energy": 21.89, 
			 "cosmo_dispersion_energy": -16.45, 
			 "cosmo_repulsion_energy": 1.3, 
			 "cosmo_total_nonelectrostatic_energy": 6.75, 
			 "SMD_solvation_energy": 4.45 
		},
		"coords": [
			{
				"x": 2.6288423852,
				"y": -1.091340534,
				"z": 1.7021833137,
				"element": "C" 
			},
			{
				"x": 1.2948747843,
				"y": -0.4793354246,
				"z": 1.3585303548,
				"element": "C" 
			},
			{
				"x": 1.1582664593,
				"y": 0.8980702137,
				"z": 1.1589775499,
				"element": "C" 
			},
			{
				"x": -0.0749925028,
				"y": 1.471642556,
				"z": 0.8403739929,
				"element": "C" 
			},
			{
				"x": -1.1908452195,
				"y": 0.6639850806,
				"z": 0.7179332787,
				"element": "C" 
			},
			{
				"x": -2.3881503066,
				"y": 1.1960254901,
				"z": 0.4117183828,
				"element": "F" 
			},
			{
				"x": -1.1169488139,
				"y": -0.723665488,
				"z": 0.906160305,
				"element": "C" 
			},
			{
				"x": -2.2505799612,
				"y": -1.4482679676,
				"z": 0.7696846597,
				"element": "O" 
			},
			{
				"x": 0.1375869367,
				"y": -1.2616936749,
				"z": 1.2246110604,
				"element": "C" 
			},
			{
				"x": 0.2109545353,
				"y": -3.0122440279,
				"z": 1.458081476,
				"element": "Cl" 
			},
			{
				"x": 2.9377530387,
				"y": -1.827649399,
				"z": 0.9522291803,
				"element": "H" 
			},
			{
				"x": 2.5950584727,
				"y": -1.6129570785,
				"z": 2.6648842919,
				"element": "H" 
			},
			{
				"x": 3.4002311046,
				"y": -0.3199025567,
				"z": 1.7598536344,
				"element": "H" 
			},
			{
				"x": 2.0337456907,
				"y": 1.5323827615,
				"z": 1.2549815572,
				"element": "H" 
			},
			{
				"x": -0.1824951664,
				"y": 2.5395531418,
				"z": 0.6853481784,
				"element": "H" 
			},
			{
				"x": -2.0394014369,
				"y": -2.3812030927,
				"z": 0.9284487839,
				"element": "H" 
			}
		],
		 "valence_orbital": [ 
			{
				"type": "occ",
				"energy": -0.35838,
				"method": "rhf"
			},
			{
				"type": "occ",
				"energy": -0.33526,
				"method": "rhf"
			},
			{
				"type": "occ",
				"energy": -0.33232,
				"method": "rhf"
			},
			{
				"type": "occ",
				"energy": -0.24751,
				"method": "rhf"
			},
			{
				"type": "occ",
				"energy": -0.22933,
				"method": "rhf"
			},
			{
				"type": "unocc",
				"energy": -0.0134,
				"method": "rhf"
			},
			{
				"type": "unocc",
				"energy": 0.0008,
				"method": "rhf"
			},
			{
				"type": "unocc",
				"energy": 0.01362,
				"method": "rhf"
			},
			{
				"type": "unocc",
				"energy": 0.08018,
				"method": "rhf"
			},
			{
				"type": "unocc",
				"energy": 0.10018,
				"method": "rhf"
			}
		],
		"cosmo_sigma_profile": { 
			"-0.025": 0.0,
			"-0.024": 0.0,
			"-0.023": 0.0,
			"-0.022": 0.0,
			"-0.021": 0.0,
			"-0.02": 0.0,
			"-0.019": 0.0,
			"-0.018": 0.0,
			"-0.017": 0.0,
			"-0.016": 0.208411771543,
			"-0.015": 0.328275126678,
			"-0.014": 0.549211021229,
			"-0.013": 0.943297220027,
			"-0.012": 0.83814156572,
			"-0.011": 0.653736800053,
			"-0.01": 0.742514493112,
			"-0.009": 1.05700473021,
			"-0.008": 1.59687760316,
			"-0.007": 2.85724037675,
			"-0.006": 5.95750412512,
			"-0.005": 8.58226567642,
			"-0.004": 9.92450131891,
			"-0.003": 9.54839945713,
			"-0.002": 12.2680972285,
			"-0.001": 16.0189471633,
			"0.0": 19.2435485087,
			"0.001": 20.3658084327,
			"0.002": 15.5779496322,
			"0.003": 16.694666133,
			"0.004": 17.3999219233,
			"0.005": 5.6827524386,
			"0.006": 2.07116859091,
			"0.007": 1.72692476936,
			"0.008": 1.9807931782,
			"0.009": 1.91894582876,
			"0.01": 2.01571200456,
			"0.011": 0.283188583791,
			"0.012": 0.0,
			"0.013": 0.0,
			"0.014": 0.0,
			"0.015": 0.0,
			"0.016": 0.0,
			"0.017": 0.0,
			"0.018": 0.0,
			"0.019": 0.0,
			"0.02": 0.0,
			"0.021": 0.0,
			"0.022": 0.0,
			"0.023": 0.0,
			"0.024": 0.0,
			"0.025": 0.0
		}
	}
}
