{
	 "smiles": "CN1C(Cl)=NC2=C(C=CC=C2)C1=O", 
	 "Tm": 383.15, 
	 "num_atms": 20, 
	 "gaussian": { 
		 "optdone": 1, 
		 "sigma_profile": "yes", 
		 "theory": "DFT", 
		 "functional": "B3LYP", 
		 "basiset": "6-31G**", 
		 "properties": { 
			 "R2extent": 3194.75, 
			 "electric_dipole_moment_norm": 0.496726101589, 
			 "electric_quadrupole_moment_norm": 13.2164775727, 
			 "total_energy": -992.119161604, 
			 "HOMO_LUMO_gap": 0.18603, 
			 "cosmo_polarized_energy": -8.6, 
			 "cosmo_cavitation_energy": 25.71, 
			 "cosmo_dispersion_energy": -19.54, 
			 "cosmo_repulsion_energy": 1.51, 
			 "cosmo_total_nonelectrostatic_energy": 7.68, 
			 "SMD_solvation_energy": 3.34 
		},
		"coords": [
			{
				"x": -1.2252605517,
				"y": -3.1998437042,
				"z": -1.6620489486,
				"element": "C" 
			},
			{
				"x": -0.5307540324,
				"y": -1.9304487035,
				"z": -1.4061536652,
				"element": "N" 
			},
			{
				"x": 0.137526306,
				"y": -1.2299241348,
				"z": -2.3857100147,
				"element": "C" 
			},
			{
				"x": 0.1121432577,
				"y": -1.9536886258,
				"z": -3.9898846462,
				"element": "Cl" 
			},
			{
				"x": 0.7653651029,
				"y": -0.1240140282,
				"z": -2.251217247,
				"element": "N" 
			},
			{
				"x": 0.7877416087,
				"y": 0.4495269908,
				"z": -0.9880216389,
				"element": "C" 
			},
			{
				"x": 0.1453040864,
				"y": -0.156997128,
				"z": 0.111252686,
				"element": "C" 
			},
			{
				"x": 0.1851137052,
				"y": 0.4472908982,
				"z": 1.3786109844,
				"element": "C" 
			},
			{
				"x": 0.8596515765,
				"y": 1.6462551485,
				"z": 1.5487914159,
				"element": "C" 
			},
			{
				"x": 1.5015490964,
				"y": 2.2536700658,
				"z": 0.453618743,
				"element": "C" 
			},
			{
				"x": 1.4693503384,
				"y": 1.6668698048,
				"z": -0.8022105652,
				"element": "C" 
			},
			{
				"x": -0.5665388665,
				"y": -1.4234166191,
				"z": -0.0722086413,
				"element": "C" 
			},
			{
				"x": -1.1546430943,
				"y": -2.0328181668,
				"z": 0.8095923172,
				"element": "O" 
			},
			{
				"x": -1.6539317769,
				"y": -3.5127918933,
				"z": -0.7125436457,
				"element": "H" 
			},
			{
				"x": -0.522259313,
				"y": -3.9531510904,
				"z": -2.0227337819,
				"element": "H" 
			},
			{
				"x": -2.0152974262,
				"y": -3.0597723962,
				"z": -2.4023165759,
				"element": "H" 
			},
			{
				"x": -0.320138378,
				"y": -0.0474213995,
				"z": 2.2012396399,
				"element": "H" 
			},
			{
				"x": 0.8938571079,
				"y": 2.1180807858,
				"z": 2.5258541038,
				"element": "H" 
			},
			{
				"x": 2.0284905954,
				"y": 3.1931784819,
				"z": 0.5934690012,
				"element": "H" 
			},
			{
				"x": 1.9577306575,
				"y": 2.119015714,
				"z": -1.6587795206,
				"element": "H" 
			}
		],
		 "valence_orbital": [ 
			{
				"type": "occ",
				"energy": -0.2965,
				"method": "rhf"
			},
			{
				"type": "occ",
				"energy": -0.29064,
				"method": "rhf"
			},
			{
				"type": "occ",
				"energy": -0.27528,
				"method": "rhf"
			},
			{
				"type": "occ",
				"energy": -0.26789,
				"method": "rhf"
			},
			{
				"type": "occ",
				"energy": -0.2367,
				"method": "rhf"
			},
			{
				"type": "unocc",
				"energy": -0.05067,
				"method": "rhf"
			},
			{
				"type": "unocc",
				"energy": -0.04354,
				"method": "rhf"
			},
			{
				"type": "unocc",
				"energy": 0.01275,
				"method": "rhf"
			},
			{
				"type": "unocc",
				"energy": 0.0193,
				"method": "rhf"
			},
			{
				"type": "unocc",
				"energy": 0.06267,
				"method": "rhf"
			}
		],
		"cosmo_sigma_profile": { 
			"-0.025": 0.0,
			"-0.024": 0.0,
			"-0.023": 0.0,
			"-0.022": 0.0,
			"-0.021": 0.0,
			"-0.02": 0.0,
			"-0.019": 0.0,
			"-0.018": 0.0,
			"-0.017": 0.0,
			"-0.016": 0.0,
			"-0.015": 0.0,
			"-0.014": 0.0,
			"-0.013": 0.0,
			"-0.012": 0.0,
			"-0.011": 0.0,
			"-0.01": 0.0,
			"-0.009": 0.0,
			"-0.008": 0.020423459901,
			"-0.007": 5.20206711808,
			"-0.006": 15.2238848093,
			"-0.005": 17.9824208919,
			"-0.004": 19.9773713564,
			"-0.003": 18.5147081301,
			"-0.002": 13.105641673,
			"-0.001": 11.5607026646,
			"0.0": 15.2269754789,
			"0.001": 17.9630049985,
			"0.002": 20.2049132968,
			"0.003": 19.4279009957,
			"0.004": 6.58788911407,
			"0.005": 4.37631336387,
			"0.006": 2.7722405169,
			"0.007": 3.27396460069,
			"0.008": 2.85069521131,
			"0.009": 2.16959618488,
			"0.01": 3.06712676722,
			"0.011": 3.94158506469,
			"0.012": 4.60291819264,
			"0.013": 1.10578774713,
			"0.014": 0.0545248375288,
			"0.015": 0.0,
			"0.016": 0.0,
			"0.017": 0.0,
			"0.018": 0.0,
			"0.019": 0.0,
			"0.02": 0.0,
			"0.021": 0.0,
			"0.022": 0.0,
			"0.023": 0.0,
			"0.024": 0.0,
			"0.025": 0.0
		}
	}
}
