{
	 "smiles": "NNC(=O)C1=C(C=CC=C1)C(F)(F)F", 
	 "Tm": 406.15, 
	 "num_atms": 21, 
	 "gaussian": { 
		 "optdone": 1, 
		 "sigma_profile": "yes", 
		 "theory": "DFT", 
		 "functional": "B3LYP", 
		 "basiset": "6-31G**", 
		 "properties": { 
			 "R2extent": 2468.6211, 
			 "electric_dipole_moment_norm": 4.24877894341, 
			 "electric_quadrupole_moment_norm": 7.57376008928, 
			 "total_energy": -793.296566204, 
			 "HOMO_LUMO_gap": 0.20285, 
			 "cosmo_polarized_energy": -13.54, 
			 "cosmo_cavitation_energy": 26.26, 
			 "cosmo_dispersion_energy": -18.56, 
			 "cosmo_repulsion_energy": 1.42, 
			 "cosmo_total_nonelectrostatic_energy": 9.12, 
			 "SMD_solvation_energy": 6.44 
		},
		"coords": [
			{
				"x": -0.9212924717,
				"y": -2.6228126254,
				"z": 0.1961945578,
				"element": "N" 
			},
			{
				"x": -0.6366013195,
				"y": -1.9327201134,
				"z": 1.3870516176,
				"element": "N" 
			},
			{
				"x": -0.3997396918,
				"y": -0.5938289292,
				"z": 1.5388097447,
				"element": "C" 
			},
			{
				"x": -0.3638084362,
				"y": -0.0604893899,
				"z": 2.63795792,
				"element": "O" 
			},
			{
				"x": -0.2541943423,
				"y": 0.2245157628,
				"z": 0.2680850468,
				"element": "C" 
			},
			{
				"x": 0.8909073148,
				"y": 0.2412694951,
				"z": -0.5496590206,
				"element": "C" 
			},
			{
				"x": 0.9537624806,
				"y": 1.1024414512,
				"z": -1.6500508529,
				"element": "C" 
			},
			{
				"x": -0.1109968426,
				"y": 1.9504310315,
				"z": -1.9474813632,
				"element": "C" 
			},
			{
				"x": -1.2419593838,
				"y": 1.9522307925,
				"z": -1.1314982633,
				"element": "C" 
			},
			{
				"x": -1.3030645601,
				"y": 1.104429561,
				"z": -0.0265150018,
				"element": "C" 
			},
			{
				"x": 2.0663533224,
				"y": -0.6689742371,
				"z": -0.2908635908,
				"element": "C" 
			},
			{
				"x": 3.1955810433,
				"y": -0.2083922098,
				"z": -0.8649598954,
				"element": "F" 
			},
			{
				"x": 1.8586842925,
				"y": -1.9164495559,
				"z": -0.8132441549,
				"element": "F" 
			},
			{
				"x": 2.3148421912,
				"y": -0.8370827751,
				"z": 1.0196646356,
				"element": "F" 
			},
			{
				"x": -1.6459768603,
				"y": -2.1366958759,
				"z": -0.3254921477,
				"element": "H" 
			},
			{
				"x": -0.0832350608,
				"y": -2.6748775669,
				"z": -0.3746315158,
				"element": "H" 
			},
			{
				"x": -0.8051101171,
				"y": -2.4471097459,
				"z": 2.2422226674,
				"element": "H" 
			},
			{
				"x": 1.8476181376,
				"y": 1.1136840482,
				"z": -2.2631684947,
				"element": "H" 
			},
			{
				"x": -0.0498895291,
				"y": 2.6138737338,
				"z": -2.8044331776,
				"element": "H" 
			},
			{
				"x": -2.0706444472,
				"y": 2.6205010338,
				"z": -1.3455870969,
				"element": "H" 
			},
			{
				"x": -2.1682357201,
				"y": 1.1242561147,
				"z": 0.6289983858,
				"element": "H" 
			}
		],
		 "valence_orbital": [ 
			{
				"type": "occ",
				"energy": -0.29149,
				"method": "rhf"
			},
			{
				"type": "occ",
				"energy": -0.28393,
				"method": "rhf"
			},
			{
				"type": "occ",
				"energy": -0.27987,
				"method": "rhf"
			},
			{
				"type": "occ",
				"energy": -0.26014,
				"method": "rhf"
			},
			{
				"type": "occ",
				"energy": -0.24655,
				"method": "rhf"
			},
			{
				"type": "unocc",
				"energy": -0.0437,
				"method": "rhf"
			},
			{
				"type": "unocc",
				"energy": -0.03004,
				"method": "rhf"
			},
			{
				"type": "unocc",
				"energy": 0.02078,
				"method": "rhf"
			},
			{
				"type": "unocc",
				"energy": 0.08063,
				"method": "rhf"
			},
			{
				"type": "unocc",
				"energy": 0.08649,
				"method": "rhf"
			}
		],
		"cosmo_sigma_profile": { 
			"-0.025": 0.0,
			"-0.024": 0.0,
			"-0.023": 0.0,
			"-0.022": 0.0,
			"-0.021": 0.0,
			"-0.02": 0.0,
			"-0.019": 0.0,
			"-0.018": 0.0,
			"-0.017": 0.0,
			"-0.016": 0.0,
			"-0.015": 0.0,
			"-0.014": 0.639034852072,
			"-0.013": 1.19648327594,
			"-0.012": 1.25109380612,
			"-0.011": 1.73841142782,
			"-0.01": 2.46673415314,
			"-0.009": 3.08219056616,
			"-0.008": 3.88187057104,
			"-0.007": 10.5221490763,
			"-0.006": 13.2072076147,
			"-0.005": 11.891534196,
			"-0.004": 9.98745646533,
			"-0.003": 10.9174315353,
			"-0.002": 9.43437970273,
			"-0.001": 13.1983008282,
			"0.0": 13.8749518774,
			"0.001": 18.2186098714,
			"0.002": 31.2367620906,
			"0.003": 20.2234476115,
			"0.004": 3.69915652441,
			"0.005": 2.13646698007,
			"0.006": 2.25904047645,
			"0.007": 2.83794230689,
			"0.008": 1.75206096158,
			"0.009": 2.47034587909,
			"0.01": 1.86798239533,
			"0.011": 1.74606521609,
			"0.012": 3.95854582339,
			"0.013": 6.62428673318,
			"0.014": 2.42805715686,
			"0.015": 0.582191446074,
			"0.016": 0.355882857879,
			"0.017": 0.0,
			"0.018": 0.0,
			"0.019": 0.0,
			"0.02": 0.0,
			"0.021": 0.0,
			"0.022": 0.0,
			"0.023": 0.0,
			"0.024": 0.0,
			"0.025": 0.0
		}
	}
}
