{
	 "smiles": "FC1=C(C=CC(NC(=O)OCC(F)(F)F)=C1)N1C=CC=N1", 
	 "Tm": 430.15, 
	 "num_atms": 30, 
	 "gaussian": { 
		 "optdone": 1, 
		 "sigma_profile": "yes", 
		 "theory": "DFT", 
		 "functional": "B3LYP", 
		 "basiset": "6-31G**", 
		 "properties": { 
			 "R2extent": 11124.4768, 
			 "electric_dipole_moment_norm": 4.25424466386, 
			 "electric_quadrupole_moment_norm": 21.3531581676, 
			 "total_energy": -1176.75309888, 
			 "HOMO_LUMO_gap": 0.1942, 
			 "cosmo_polarized_energy": -17.14, 
			 "cosmo_cavitation_energy": 38.15, 
			 "cosmo_dispersion_energy": -26.81, 
			 "cosmo_repulsion_energy": 1.95, 
			 "cosmo_total_nonelectrostatic_energy": 13.29, 
			 "SMD_solvation_energy": 8.89 
		},
		"coords": [
			{
				"x": -0.2284125129,
				"y": 3.2637465377,
				"z": 2.409374945,
				"element": "F" 
			},
			{
				"x": 0.5015086539,
				"y": 2.3126336634,
				"z": 1.8135097537,
				"element": "C" 
			},
			{
				"x": 1.898042094,
				"y": 2.4137196446,
				"z": 1.8100801117,
				"element": "C" 
			},
			{
				"x": 2.6248789262,
				"y": 1.3844643856,
				"z": 1.2053602633,
				"element": "C" 
			},
			{
				"x": 1.9809836107,
				"y": 0.2923190964,
				"z": 0.6356399827,
				"element": "C" 
			},
			{
				"x": 0.5797497266,
				"y": 0.2179788532,
				"z": 0.6394845323,
				"element": "C" 
			},
			{
				"x": -0.0129819524,
				"y": -0.9040399647,
				"z": 0.0319292277,
				"element": "N" 
			},
			{
				"x": -1.3439749996,
				"y": -1.1974508369,
				"z": -0.0744553195,
				"element": "C" 
			},
			{
				"x": -2.2799098779,
				"y": -0.5535948547,
				"z": 0.3502337951,
				"element": "O" 
			},
			{
				"x": -1.4612457012,
				"y": -2.3698135823,
				"z": -0.7826169023,
				"element": "O" 
			},
			{
				"x": -2.7755383833,
				"y": -2.9038201467,
				"z": -0.8871485422,
				"element": "C" 
			},
			{
				"x": -2.9195326271,
				"y": -4.0858820037,
				"z": 0.0569908421,
				"element": "C" 
			},
			{
				"x": -2.6916275567,
				"y": -3.7259950367,
				"z": 1.3332180955,
				"element": "F" 
			},
			{
				"x": -2.0606373824,
				"y": -5.0771320697,
				"z": -0.249274546,
				"element": "F" 
			},
			{
				"x": -4.1721744917,
				"y": -4.5785038524,
				"z": -0.0298352261,
				"element": "F" 
			},
			{
				"x": -0.1670786448,
				"y": 1.243433581,
				"z": 1.2336301911,
				"element": "C" 
			},
			{
				"x": 2.5580717737,
				"y": 3.511691506,
				"z": 2.4124838332,
				"element": "N" 
			},
			{
				"x": 3.6242176708,
				"y": 3.4615315247,
				"z": 3.2692730414,
				"element": "C" 
			},
			{
				"x": 3.9612913482,
				"y": 4.7654042831,
				"z": 3.5597361723,
				"element": "C" 
			},
			{
				"x": 3.0346224421,
				"y": 5.541726109,
				"z": 2.8239903458,
				"element": "C" 
			},
			{
				"x": 2.1881159302,
				"y": 4.7890048673,
				"z": 2.1286892181,
				"element": "N" 
			},
			{
				"x": 3.7069915123,
				"y": 1.4551280602,
				"z": 1.1730081257,
				"element": "H" 
			},
			{
				"x": 2.5668052492,
				"y": -0.4954423391,
				"z": 0.1705147314,
				"element": "H" 
			},
			{
				"x": 0.6102834,
				"y": -1.5845142338,
				"z": -0.3790715026,
				"element": "H" 
			},
			{
				"x": -3.5197262531,
				"y": -2.1478510896,
				"z": -0.6308013411,
				"element": "H" 
			},
			{
				"x": -2.9173141655,
				"y": -3.2505121574,
				"z": -1.9125950381,
				"element": "H" 
			},
			{
				"x": -1.2466965164,
				"y": 1.2078905768,
				"z": 1.262813382,
				"element": "H" 
			},
			{
				"x": 4.0245836318,
				"y": 2.5188673923,
				"z": 3.6113549253,
				"element": "H" 
			},
			{
				"x": 4.7506189514,
				"y": 5.1063900551,
				"z": 4.212621663,
				"element": "H" 
			},
			{
				"x": 2.951986144,
				"y": 6.6193220312,
				"z": 2.7721612396,
				"element": "H" 
			}
		],
		 "valence_orbital": [ 
			{
				"type": "occ",
				"energy": -0.28482,
				"method": "rhf"
			},
			{
				"type": "occ",
				"energy": -0.2693,
				"method": "rhf"
			},
			{
				"type": "occ",
				"energy": -0.26327,
				"method": "rhf"
			},
			{
				"type": "occ",
				"energy": -0.24738,
				"method": "rhf"
			},
			{
				"type": "occ",
				"energy": -0.22564,
				"method": "rhf"
			},
			{
				"type": "unocc",
				"energy": -0.03144,
				"method": "rhf"
			},
			{
				"type": "unocc",
				"energy": -0.01614,
				"method": "rhf"
			},
			{
				"type": "unocc",
				"energy": 0.019,
				"method": "rhf"
			},
			{
				"type": "unocc",
				"energy": 0.04474,
				"method": "rhf"
			},
			{
				"type": "unocc",
				"energy": 0.06434,
				"method": "rhf"
			}
		],
		"cosmo_sigma_profile": { 
			"-0.025": 0.0,
			"-0.024": 0.0,
			"-0.023": 0.0,
			"-0.022": 0.0,
			"-0.021": 0.0,
			"-0.02": 0.0,
			"-0.019": 0.0,
			"-0.018": 0.0,
			"-0.017": 0.0493677423118,
			"-0.016": 1.02195953437,
			"-0.015": 1.32195328243,
			"-0.014": 1.02906965027,
			"-0.013": 1.11138614385,
			"-0.012": 1.20385121651,
			"-0.011": 1.24631450523,
			"-0.01": 1.78114531481,
			"-0.009": 5.09829840204,
			"-0.008": 8.37515566388,
			"-0.007": 13.9283569836,
			"-0.006": 12.9677367874,
			"-0.005": 12.5106784797,
			"-0.004": 13.5383095877,
			"-0.003": 12.7876596804,
			"-0.002": 15.9071983583,
			"-0.001": 17.6628254753,
			"0.0": 22.1296282894,
			"0.001": 27.0036320965,
			"0.002": 44.1537013891,
			"0.003": 36.278056718,
			"0.004": 17.4363371478,
			"0.005": 10.4468095073,
			"0.006": 5.20237202872,
			"0.007": 3.48356457107,
			"0.008": 3.81405462177,
			"0.009": 3.89054012181,
			"0.01": 3.60041794372,
			"0.011": 4.25538089103,
			"0.012": 0.693174139186,
			"0.013": 1.07669100026,
			"0.014": 1.27416425431,
			"0.015": 0.7684460973,
			"0.016": 0.0118331886338,
			"0.017": 0.0,
			"0.018": 0.0,
			"0.019": 0.0,
			"0.02": 0.0,
			"0.021": 0.0,
			"0.022": 0.0,
			"0.023": 0.0,
			"0.024": 0.0,
			"0.025": 0.0
		}
	}
}
