{
	 "smiles": "CC1=CC=C(C=C1)C1NC(=O)NC(C2=CC=C(C)C=C2)C1(C#N)C(=O)C1=CC=CC=C1", 
	 "Tm": 507.15, 
	 "num_atms": 54, 
	 "gaussian": { 
		 "optdone": 1, 
		 "sigma_profile": "yes", 
		 "theory": "DFT", 
		 "functional": "B3LYP", 
		 "basiset": "6-31G**", 
		 "properties": { 
			 "R2extent": 12419.4301, 
			 "electric_dipole_moment_norm": 6.10999701718, 
			 "electric_quadrupole_moment_norm": 24.307780266, 
			 "total_energy": -1319.33990909, 
			 "HOMO_LUMO_gap": 0.15498, 
			 "cosmo_polarized_energy": -22.94, 
			 "cosmo_cavitation_energy": 55.82, 
			 "cosmo_dispersion_energy": -36.64, 
			 "cosmo_repulsion_energy": 2.78, 
			 "cosmo_total_nonelectrostatic_energy": 21.96, 
			 "SMD_solvation_energy": 10.55 
		},
		"coords": [
			{
				"x": 5.8627938009,
				"y": 2.5031564233,
				"z": -1.6428265444,
				"element": "C" 
			},
			{
				"x": 4.6350324874,
				"y": 1.7112699764,
				"z": -1.2599056016,
				"element": "C" 
			},
			{
				"x": 4.5218722819,
				"y": 1.120550748,
				"z": 0.0050182755,
				"element": "C" 
			},
			{
				"x": 3.4052861634,
				"y": 0.3615273437,
				"z": 0.3523198834,
				"element": "C" 
			},
			{
				"x": 2.3554450438,
				"y": 0.1784231233,
				"z": -0.5589643042,
				"element": "C" 
			},
			{
				"x": 2.4661197404,
				"y": 0.7620112055,
				"z": -1.8276790287,
				"element": "C" 
			},
			{
				"x": 3.5861256048,
				"y": 1.5182683782,
				"z": -2.1681926445,
				"element": "C" 
			},
			{
				"x": 1.1393350989,
				"y": -0.6728959257,
				"z": -0.2107587788,
				"element": "C" 
			},
			{
				"x": 1.5687804544,
				"y": -1.8785664675,
				"z": 0.490343787,
				"element": "N" 
			},
			{
				"x": 0.8384460082,
				"y": -2.6573342225,
				"z": 1.3594098801,
				"element": "C" 
			},
			{
				"x": 1.2573792321,
				"y": -3.7157907456,
				"z": 1.8107591267,
				"element": "O" 
			},
			{
				"x": -0.3866583648,
				"y": -2.1309216252,
				"z": 1.7265613678,
				"element": "N" 
			},
			{
				"x": -1.0652598236,
				"y": -1.0384500712,
				"z": 1.054018325,
				"element": "C" 
			},
			{
				"x": -1.9559680619,
				"y": -1.4755216555,
				"z": -0.1076146441,
				"element": "C" 
			},
			{
				"x": -3.1900218483,
				"y": -0.8449967447,
				"z": -0.308393753,
				"element": "C" 
			},
			{
				"x": -4.0311130212,
				"y": -1.2309496969,
				"z": -1.3509382823,
				"element": "C" 
			},
			{
				"x": -3.6728905871,
				"y": -2.2666664364,
				"z": -2.2222873762,
				"element": "C" 
			},
			{
				"x": -4.5968083246,
				"y": -2.7098988257,
				"z": -3.3314985172,
				"element": "C" 
			},
			{
				"x": -2.4423217979,
				"y": -2.9028610243,
				"z": -2.0107469925,
				"element": "C" 
			},
			{
				"x": -1.5986863358,
				"y": -2.5211465998,
				"z": -0.9692361324,
				"element": "C" 
			},
			{
				"x": 0.040914842,
				"y": 0.0376463378,
				"z": 0.665497402,
				"element": "C" 
			},
			{
				"x": 0.6558044278,
				"y": 0.5320832319,
				"z": 1.9051912176,
				"element": "C" 
			},
			{
				"x": 1.1514951687,
				"y": 0.9152825068,
				"z": 2.8828774588,
				"element": "N" 
			},
			{
				"x": -0.6295455654,
				"y": 1.1870168706,
				"z": -0.1605897339,
				"element": "C" 
			},
			{
				"x": -0.5204706799,
				"y": 1.1505424227,
				"z": -1.3736783356,
				"element": "O" 
			},
			{
				"x": -1.4341132925,
				"y": 2.2725754261,
				"z": 0.487326649,
				"element": "C" 
			},
			{
				"x": -1.901981511,
				"y": 3.2886397956,
				"z": -0.3678087342,
				"element": "C" 
			},
			{
				"x": -2.6810191689,
				"y": 4.3291520131,
				"z": 0.1242515304,
				"element": "C" 
			},
			{
				"x": -3.0171693213,
				"y": 4.3692509768,
				"z": 1.4808439558,
				"element": "C" 
			},
			{
				"x": -2.566123284,
				"y": 3.3652503509,
				"z": 2.3382175359,
				"element": "C" 
			},
			{
				"x": -1.7764278745,
				"y": 2.3243879459,
				"z": 1.8497823747,
				"element": "C" 
			},
			{
				"x": 5.6274018532,
				"y": 3.2743878412,
				"z": -2.3823963362,
				"element": "H" 
			},
			{
				"x": 6.6310318721,
				"y": 1.8545211691,
				"z": -2.0825976985,
				"element": "H" 
			},
			{
				"x": 6.3110058296,
				"y": 2.992001513,
				"z": -0.7726231055,
				"element": "H" 
			},
			{
				"x": 5.3192333382,
				"y": 1.2545192378,
				"z": 0.7318517217,
				"element": "H" 
			},
			{
				"x": 3.3496507765,
				"y": -0.0872896483,
				"z": 1.3382864813,
				"element": "H" 
			},
			{
				"x": 1.6621509797,
				"y": 0.6342731007,
				"z": -2.5446117257,
				"element": "H" 
			},
			{
				"x": 3.6470202248,
				"y": 1.9632533779,
				"z": -3.1584713787,
				"element": "H" 
			},
			{
				"x": 0.6257043551,
				"y": -0.9208483086,
				"z": -1.1453151833,
				"element": "H" 
			},
			{
				"x": 2.4608419527,
				"y": -2.2772113838,
				"z": 0.2380252463,
				"element": "H" 
			},
			{
				"x": -0.9429322286,
				"y": -2.7697976536,
				"z": 2.2761585825,
				"element": "H" 
			},
			{
				"x": -1.7133887491,
				"y": -0.5568222226,
				"z": 1.7927523538,
				"element": "H" 
			},
			{
				"x": -3.4992077123,
				"y": -0.0411492934,
				"z": 0.3551417238,
				"element": "H" 
			},
			{
				"x": -4.9829562436,
				"y": -0.7230826744,
				"z": -1.4848559173,
				"element": "H" 
			},
			{
				"x": -4.035753744,
				"y": -3.0401754627,
				"z": -4.2110170207,
				"element": "H" 
			},
			{
				"x": -5.2678734477,
				"y": -1.9030448503,
				"z": -3.6399202807,
				"element": "H" 
			},
			{
				"x": -5.2233011838,
				"y": -3.5520815674,
				"z": -3.0117625806,
				"element": "H" 
			},
			{
				"x": -2.1408318927,
				"y": -3.714968343,
				"z": -2.6677322681,
				"element": "H" 
			},
			{
				"x": -0.6642895367,
				"y": -3.0538145605,
				"z": -0.8235186787,
				"element": "H" 
			},
			{
				"x": -1.6389119179,
				"y": 3.2355923449,
				"z": -1.4181197743,
				"element": "H" 
			},
			{
				"x": -3.0283248786,
				"y": 5.1088713671,
				"z": -0.5470246459,
				"element": "H" 
			},
			{
				"x": -3.6264716091,
				"y": 5.1810626806,
				"z": 1.8675949888,
				"element": "H" 
			},
			{
				"x": -2.8211535136,
				"y": 3.3927122674,
				"z": 3.3931001095,
				"element": "H" 
			},
			{
				"x": -1.4231960161,
				"y": 1.5744560333,
				"z": 2.5453560206,
				"element": "H" 
			}
		],
		 "valence_orbital": [ 
			{
				"type": "occ",
				"energy": -0.25307,
				"method": "rhf"
			},
			{
				"type": "occ",
				"energy": -0.2486,
				"method": "rhf"
			},
			{
				"type": "occ",
				"energy": -0.24712,
				"method": "rhf"
			},
			{
				"type": "occ",
				"energy": -0.24141,
				"method": "rhf"
			},
			{
				"type": "occ",
				"energy": -0.23285,
				"method": "rhf"
			},
			{
				"type": "unocc",
				"energy": -0.07787,
				"method": "rhf"
			},
			{
				"type": "unocc",
				"energy": -0.02122,
				"method": "rhf"
			},
			{
				"type": "unocc",
				"energy": -0.01825,
				"method": "rhf"
			},
			{
				"type": "unocc",
				"energy": -0.01158,
				"method": "rhf"
			},
			{
				"type": "unocc",
				"energy": -0.00689,
				"method": "rhf"
			}
		],
		"cosmo_sigma_profile": { 
			"-0.025": 0.0,
			"-0.024": 0.0,
			"-0.023": 0.0,
			"-0.022": 0.0,
			"-0.021": 0.0,
			"-0.02": 0.0,
			"-0.019": 0.0,
			"-0.018": 0.0,
			"-0.017": 0.0,
			"-0.016": 0.0,
			"-0.015": 0.0924875821606,
			"-0.014": 1.24509093035,
			"-0.013": 1.95313321514,
			"-0.012": 1.91028896055,
			"-0.011": 1.57076148445,
			"-0.01": 2.17306930872,
			"-0.009": 3.97911069379,
			"-0.008": 4.37816643572,
			"-0.007": 8.67955778242,
			"-0.006": 15.4529884158,
			"-0.005": 31.3975767191,
			"-0.004": 45.5742319143,
			"-0.003": 35.1712989409,
			"-0.002": 35.273108653,
			"-0.001": 33.7352391444,
			"0.0": 38.1934500636,
			"0.001": 29.1375551733,
			"0.002": 27.5218080871,
			"0.003": 29.6544777077,
			"0.004": 23.033344392,
			"0.005": 23.2046427109,
			"0.006": 11.1620098723,
			"0.007": 5.58284696693,
			"0.008": 5.17208118994,
			"0.009": 5.03588155499,
			"0.01": 4.33964601638,
			"0.011": 3.9146919438,
			"0.012": 3.5454690789,
			"0.013": 2.42878663287,
			"0.014": 6.81072018822,
			"0.015": 3.17311809833,
			"0.016": 0.0,
			"0.017": 0.0,
			"0.018": 0.0,
			"0.019": 0.0,
			"0.02": 0.0,
			"0.021": 0.0,
			"0.022": 0.0,
			"0.023": 0.0,
			"0.024": 0.0,
			"0.025": 0.0
		}
	}
}
