{
	 "smiles": "OC1=C(OC(F)(F)F)C=C(C=O)C=C1", 
	 "Tm": 351.15, 
	 "num_atms": 19, 
	 "gaussian": { 
		 "optdone": 1, 
		 "sigma_profile": "yes", 
		 "theory": "DFT", 
		 "functional": "B3LYP", 
		 "basiset": "6-31G**", 
		 "properties": { 
			 "R2extent": 3738.2059, 
			 "electric_dipole_moment_norm": 2.96482197105, 
			 "electric_quadrupole_moment_norm": 13.0538004187, 
			 "total_energy": -833.046461916, 
			 "HOMO_LUMO_gap": 0.18079, 
			 "cosmo_polarized_energy": -9.62, 
			 "cosmo_cavitation_energy": 25.83, 
			 "cosmo_dispersion_energy": -18.35, 
			 "cosmo_repulsion_energy": 1.38, 
			 "cosmo_total_nonelectrostatic_energy": 8.87, 
			 "SMD_solvation_energy": 7.4 
		},
		"coords": [
			{
				"x": -2.339008699,
				"y": 0.3226745137,
				"z": -0.7590601045,
				"element": "O" 
			},
			{
				"x": -0.9998387747,
				"y": 0.197483458,
				"z": -0.6230707215,
				"element": "C" 
			},
			{
				"x": -0.1966876086,
				"y": 1.2965377621,
				"z": -0.2497528013,
				"element": "C" 
			},
			{
				"x": -0.9511401611,
				"y": 2.4609283065,
				"z": -0.0545931936,
				"element": "O" 
			},
			{
				"x": -0.3592270058,
				"y": 3.6335251616,
				"z": 0.3093630246,
				"element": "C" 
			},
			{
				"x": 0.2744983177,
				"y": 3.5349544464,
				"z": 1.4883657205,
				"element": "F" 
			},
			{
				"x": 0.5331137737,
				"y": 4.0529091588,
				"z": -0.6012474712,
				"element": "F" 
			},
			{
				"x": -1.3270621843,
				"y": 4.541735019,
				"z": 0.4147341458,
				"element": "F" 
			},
			{
				"x": 1.1713836992,
				"y": 1.1725355671,
				"z": -0.1098885998,
				"element": "C" 
			},
			{
				"x": 1.7675070496,
				"y": -0.0788825914,
				"z": -0.3465073254,
				"element": "C" 
			},
			{
				"x": 3.2284654065,
				"y": -0.2234689219,
				"z": -0.2001080195,
				"element": "C" 
			},
			{
				"x": 3.9847999054,
				"y": 0.6763059722,
				"z": 0.1173488082,
				"element": "O" 
			},
			{
				"x": 0.9787941368,
				"y": -1.1745707226,
				"z": -0.7172093851,
				"element": "C" 
			},
			{
				"x": -0.3988612238,
				"y": -1.0412459684,
				"z": -0.8559361796,
				"element": "C" 
			},
			{
				"x": -2.5863811869,
				"y": 1.2389555541,
				"z": -0.5623700333,
				"element": "H" 
			},
			{
				"x": 1.8086083421,
				"y": 2.0002395464,
				"z": 0.1753740291,
				"element": "H" 
			},
			{
				"x": 3.6127015707,
				"y": -1.2469924687,
				"z": -0.4071266159,
				"element": "H" 
			},
			{
				"x": 1.4499730241,
				"y": -2.1372335316,
				"z": -0.8976683993,
				"element": "H" 
			},
			{
				"x": -1.0309383816,
				"y": -1.8746902611,
				"z": -1.1419468781,
				"element": "H" 
			}
		],
		 "valence_orbital": [ 
			{
				"type": "occ",
				"energy": -0.37069,
				"method": "rhf"
			},
			{
				"type": "occ",
				"energy": -0.34531,
				"method": "rhf"
			},
			{
				"type": "occ",
				"energy": -0.27202,
				"method": "rhf"
			},
			{
				"type": "occ",
				"energy": -0.25822,
				"method": "rhf"
			},
			{
				"type": "occ",
				"energy": -0.24461,
				"method": "rhf"
			},
			{
				"type": "unocc",
				"energy": -0.06382,
				"method": "rhf"
			},
			{
				"type": "unocc",
				"energy": -0.02326,
				"method": "rhf"
			},
			{
				"type": "unocc",
				"energy": 0.03999,
				"method": "rhf"
			},
			{
				"type": "unocc",
				"energy": 0.06036,
				"method": "rhf"
			},
			{
				"type": "unocc",
				"energy": 0.09692,
				"method": "rhf"
			}
		],
		"cosmo_sigma_profile": { 
			"-0.025": 0.0,
			"-0.024": 0.0,
			"-0.023": 0.0,
			"-0.022": 0.0,
			"-0.021": 0.0,
			"-0.02": 0.0,
			"-0.019": 0.0,
			"-0.018": 0.0,
			"-0.017": 0.0752209764242,
			"-0.016": 0.842792448253,
			"-0.015": 0.483013754728,
			"-0.014": 0.910467331944,
			"-0.013": 0.429862857786,
			"-0.012": 0.463399437649,
			"-0.011": 1.15103409821,
			"-0.01": 0.965298335975,
			"-0.009": 0.819286977044,
			"-0.008": 3.3751189754,
			"-0.007": 8.45826141343,
			"-0.006": 8.1755420675,
			"-0.005": 8.09144634433,
			"-0.004": 7.67283923293,
			"-0.003": 10.2253685487,
			"-0.002": 15.5163893952,
			"-0.001": 17.5882876598,
			"0.0": 23.2378571406,
			"0.001": 37.891478389,
			"0.002": 26.2926046182,
			"0.003": 5.54290335702,
			"0.004": 2.50020563939,
			"0.005": 3.08155928835,
			"0.006": 2.93005079629,
			"0.007": 2.51614756793,
			"0.008": 3.24784506896,
			"0.009": 3.71770509147,
			"0.01": 3.53723706745,
			"0.011": 4.08660601058,
			"0.012": 3.10427437656,
			"0.013": 1.003238298,
			"0.014": 0.0167577157727,
			"0.015": 0.0,
			"0.016": 0.0,
			"0.017": 0.0,
			"0.018": 0.0,
			"0.019": 0.0,
			"0.02": 0.0,
			"0.021": 0.0,
			"0.022": 0.0,
			"0.023": 0.0,
			"0.024": 0.0,
			"0.025": 0.0
		}
	}
}
