{
	 "smiles": "[O-][N+](=O)C1=C(C=CC(=C1)C(F)(F)F)N1CCCCC1", 
	 "Tm": 322.15, 
	 "num_atms": 32, 
	 "gaussian": { 
		 "optdone": 1, 
		 "sigma_profile": "yes", 
		 "theory": "DFT", 
		 "functional": "B3LYP", 
		 "basiset": "6-31G**", 
		 "properties": { 
			 "R2extent": 6351.0638, 
			 "electric_dipole_moment_norm": 6.17052748961, 
			 "electric_quadrupole_moment_norm": 6.70678641527, 
			 "total_energy": -1024.48378593, 
			 "HOMO_LUMO_gap": 0.14093, 
			 "cosmo_polarized_energy": -10.58, 
			 "cosmo_cavitation_energy": 35.52, 
			 "cosmo_dispersion_energy": -25.21, 
			 "cosmo_repulsion_energy": 1.86, 
			 "cosmo_total_nonelectrostatic_energy": 12.18, 
			 "SMD_solvation_energy": 8.1 
		},
		"coords": [
			{
				"x": -2.5801814228,
				"y": -1.6320705875,
				"z": 1.4351003612,
				"element": "O" 
			},
			{
				"x": -1.379555621,
				"y": -1.6514176095,
				"z": 1.1532462091,
				"element": "N" 
			},
			{
				"x": -0.5238096853,
				"y": -2.2550513027,
				"z": 1.8068117362,
				"element": "O" 
			},
			{
				"x": -0.9551187574,
				"y": -0.9849111762,
				"z": -0.0792103739,
				"element": "C" 
			},
			{
				"x": 0.3541955872,
				"y": -0.4462567722,
				"z": -0.2552868186,
				"element": "C" 
			},
			{
				"x": 0.705155783,
				"y": -0.1332216111,
				"z": -1.598628021,
				"element": "C" 
			},
			{
				"x": -0.1936405567,
				"y": -0.2539662429,
				"z": -2.6411586161,
				"element": "C" 
			},
			{
				"x": -1.507783737,
				"y": -0.6911918452,
				"z": -2.4136182052,
				"element": "C" 
			},
			{
				"x": -1.8749301798,
				"y": -1.0568833476,
				"z": -1.1287491248,
				"element": "C" 
			},
			{
				"x": -2.4895892397,
				"y": -0.7410779381,
				"z": -3.5461231083,
				"element": "C" 
			},
			{
				"x": -2.9561494568,
				"y": 0.4911952109,
				"z": -3.8628730321,
				"element": "F" 
			},
			{
				"x": -1.9224959821,
				"y": -1.2350654964,
				"z": -4.6722011825,
				"element": "F" 
			},
			{
				"x": -3.5620713084,
				"y": -1.5078228042,
				"z": -3.2573730255,
				"element": "F" 
			},
			{
				"x": 1.2283307525,
				"y": -0.1841723054,
				"z": 0.767680555,
				"element": "N" 
			},
			{
				"x": 0.7706330859,
				"y": 0.1715767338,
				"z": 2.1219653592,
				"element": "C" 
			},
			{
				"x": 1.6051658786,
				"y": 1.3286568297,
				"z": 2.6808407888,
				"element": "C" 
			},
			{
				"x": 3.0951318159,
				"y": 0.9449672322,
				"z": 2.8116084005,
				"element": "C" 
			},
			{
				"x": 3.4871186912,
				"y": -0.0995455753,
				"z": 1.7445153636,
				"element": "C" 
			},
			{
				"x": 2.6497977042,
				"y": 0.0496050333,
				"z": 0.4720706145,
				"element": "C" 
			},
			{
				"x": 1.6910598656,
				"y": 0.2592730285,
				"z": -1.8093443795,
				"element": "H" 
			},
			{
				"x": 0.1183209372,
				"y": 0.0121564947,
				"z": -3.6460900782,
				"element": "H" 
			},
			{
				"x": -2.8608644179,
				"y": -1.4505287009,
				"z": -0.9180254752,
				"element": "H" 
			},
			{
				"x": -0.2792400626,
				"y": 0.4727756914,
				"z": 2.0584424163,
				"element": "H" 
			},
			{
				"x": 0.811624275,
				"y": -0.6967864197,
				"z": 2.7893156019,
				"element": "H" 
			},
			{
				"x": 1.4928027422,
				"y": 2.1949278463,
				"z": 2.0181606122,
				"element": "H" 
			},
			{
				"x": 1.1916415936,
				"y": 1.6227831899,
				"z": 3.6509931026,
				"element": "H" 
			},
			{
				"x": 3.713864168,
				"y": 1.8433552699,
				"z": 2.7105954049,
				"element": "H" 
			},
			{
				"x": 3.2976665359,
				"y": 0.5384923276,
				"z": 3.8081640822,
				"element": "H" 
			},
			{
				"x": 4.5468081191,
				"y": -0.0143189421,
				"z": 1.4832556117,
				"element": "H" 
			},
			{
				"x": 3.3394922824,
				"y": -1.1134543057,
				"z": 2.1325493322,
				"element": "H" 
			},
			{
				"x": 2.9736099063,
				"y": -0.6846356977,
				"z": -0.2719400251,
				"element": "H" 
			},
			{
				"x": 2.8094107035,
				"y": 1.0492137923,
				"z": 0.0352059141,
				"element": "H" 
			}
		],
		 "valence_orbital": [ 
			{
				"type": "occ",
				"energy": -0.30297,
				"method": "rhf"
			},
			{
				"type": "occ",
				"energy": -0.29808,
				"method": "rhf"
			},
			{
				"type": "occ",
				"energy": -0.29288,
				"method": "rhf"
			},
			{
				"type": "occ",
				"energy": -0.2722,
				"method": "rhf"
			},
			{
				"type": "occ",
				"energy": -0.22066,
				"method": "rhf"
			},
			{
				"type": "unocc",
				"energy": -0.07973,
				"method": "rhf"
			},
			{
				"type": "unocc",
				"energy": -0.02513,
				"method": "rhf"
			},
			{
				"type": "unocc",
				"energy": -0.01274,
				"method": "rhf"
			},
			{
				"type": "unocc",
				"energy": 0.06049,
				"method": "rhf"
			},
			{
				"type": "unocc",
				"energy": 0.08078,
				"method": "rhf"
			}
		],
		"cosmo_sigma_profile": { 
			"-0.025": 0.0,
			"-0.024": 0.0,
			"-0.023": 0.0,
			"-0.022": 0.0,
			"-0.021": 0.0,
			"-0.02": 0.0,
			"-0.019": 0.0,
			"-0.018": 0.0,
			"-0.017": 0.0,
			"-0.016": 0.0,
			"-0.015": 0.0,
			"-0.014": 0.0,
			"-0.013": 0.0,
			"-0.012": 0.0,
			"-0.011": 0.0,
			"-0.01": 0.0,
			"-0.009": 0.0,
			"-0.008": 1.35311469219,
			"-0.007": 5.06859958984,
			"-0.006": 9.28377854732,
			"-0.005": 12.9234735224,
			"-0.004": 21.6450757489,
			"-0.003": 35.6297962797,
			"-0.002": 31.5958959259,
			"-0.001": 22.5258303682,
			"0.0": 24.6679758168,
			"0.001": 23.1207150129,
			"0.002": 22.8100050902,
			"0.003": 32.6857961392,
			"0.004": 6.35499944938,
			"0.005": 2.05022986279,
			"0.006": 3.36844963177,
			"0.007": 4.62257373445,
			"0.008": 9.38204176585,
			"0.009": 6.26009425742,
			"0.01": 4.15037008035,
			"0.011": 1.33848295122,
			"0.012": 0.0,
			"0.013": 0.0,
			"0.014": 0.0,
			"0.015": 0.0,
			"0.016": 0.0,
			"0.017": 0.0,
			"0.018": 0.0,
			"0.019": 0.0,
			"0.02": 0.0,
			"0.021": 0.0,
			"0.022": 0.0,
			"0.023": 0.0,
			"0.024": 0.0,
			"0.025": 0.0
		}
	}
}
