{
	 "smiles": "COC1=CC(N)=C(Cl)C=C1", 
	 "Tm": 300.15, 
	 "num_atms": 18, 
	 "gaussian": { 
		 "optdone": 1, 
		 "sigma_profile": "yes", 
		 "theory": "DFT", 
		 "functional": "B3LYP", 
		 "basiset": "6-31G**", 
		 "properties": { 
			 "R2extent": 2663.2114, 
			 "electric_dipole_moment_norm": 3.20121763865, 
			 "electric_quadrupole_moment_norm": 7.07224048446, 
			 "total_energy": -861.725898417, 
			 "HOMO_LUMO_gap": 0.20288, 
			 "cosmo_polarized_energy": -9.44, 
			 "cosmo_cavitation_energy": 23.26, 
			 "cosmo_dispersion_energy": -17.69, 
			 "cosmo_repulsion_energy": 1.44, 
			 "cosmo_total_nonelectrostatic_energy": 7.01, 
			 "SMD_solvation_energy": 4.44 
		},
		"coords": [
			{
				"x": -1.6094412668,
				"y": 1.1823497051,
				"z": 1.3601916847,
				"element": "C" 
			},
			{
				"x": -1.9049643849,
				"y": 0.6920737935,
				"z": 0.063441717,
				"element": "O" 
			},
			{
				"x": -0.8722583118,
				"y": 0.277628171,
				"z": -0.7269171868,
				"element": "C" 
			},
			{
				"x": 0.4669996166,
				"y": 0.2937758058,
				"z": -0.3364474532,
				"element": "C" 
			},
			{
				"x": 1.4804651826,
				"y": -0.1505815131,
				"z": -1.2102628511,
				"element": "C" 
			},
			{
				"x": 2.8126924993,
				"y": -0.0766569993,
				"z": -0.8307429909,
				"element": "N" 
			},
			{
				"x": 1.0948306398,
				"y": -0.6117722098,
				"z": -2.4798963995,
				"element": "C" 
			},
			{
				"x": 2.329346855,
				"y": -1.1940594053,
				"z": -3.6020082756,
				"element": "Cl" 
			},
			{
				"x": -0.2439614595,
				"y": -0.6263972808,
				"z": -2.8681948872,
				"element": "C" 
			},
			{
				"x": -1.234235098,
				"y": -0.185108293,
				"z": -2.0018136436,
				"element": "C" 
			},
			{
				"x": -2.5672147486,
				"y": 1.4577292884,
				"z": 1.8046147201,
				"element": "H" 
			},
			{
				"x": -0.9626831175,
				"y": 2.0686199742,
				"z": 1.321464834,
				"element": "H" 
			},
			{
				"x": -1.1307431335,
				"y": 0.4165098213,
				"z": 1.9846501869,
				"element": "H" 
			},
			{
				"x": 0.75952834,
				"y": 0.658979332,
				"z": 0.6414223531,
				"element": "H" 
			},
			{
				"x": 3.4479639297,
				"y": -0.6563665962,
				"z": -1.3611467756,
				"element": "H" 
			},
			{
				"x": 2.9847150865,
				"y": -0.0993350942,
				"z": 0.1637327289,
				"element": "H" 
			},
			{
				"x": -0.5032752862,
				"y": -0.9914794728,
				"z": -3.856100675,
				"element": "H" 
			},
			{
				"x": -2.2800653429,
				"y": -0.1898090269,
				"z": -2.2860870863,
				"element": "H" 
			}
		],
		 "valence_orbital": [ 
			{
				"type": "occ",
				"energy": -0.32684,
				"method": "rhf"
			},
			{
				"type": "occ",
				"energy": -0.31035,
				"method": "rhf"
			},
			{
				"type": "occ",
				"energy": -0.2878,
				"method": "rhf"
			},
			{
				"type": "occ",
				"energy": -0.22906,
				"method": "rhf"
			},
			{
				"type": "occ",
				"energy": -0.1997,
				"method": "rhf"
			},
			{
				"type": "unocc",
				"energy": 0.00318,
				"method": "rhf"
			},
			{
				"type": "unocc",
				"energy": 0.01771,
				"method": "rhf"
			},
			{
				"type": "unocc",
				"energy": 0.03656,
				"method": "rhf"
			},
			{
				"type": "unocc",
				"energy": 0.08193,
				"method": "rhf"
			},
			{
				"type": "unocc",
				"energy": 0.10223,
				"method": "rhf"
			}
		],
		"cosmo_sigma_profile": { 
			"-0.025": 0.0,
			"-0.024": 0.0,
			"-0.023": 0.0,
			"-0.022": 0.0,
			"-0.021": 0.0,
			"-0.02": 0.0,
			"-0.019": 0.0,
			"-0.018": 0.0,
			"-0.017": 0.0,
			"-0.016": 0.0,
			"-0.015": 0.0,
			"-0.014": 0.0272377843024,
			"-0.013": 1.08644684519,
			"-0.012": 1.7060883227,
			"-0.011": 1.92489192691,
			"-0.01": 3.16958773146,
			"-0.009": 2.26728033444,
			"-0.008": 2.21263875901,
			"-0.007": 4.01955811811,
			"-0.006": 9.2644465331,
			"-0.005": 13.7765482955,
			"-0.004": 14.125010646,
			"-0.003": 13.411659878,
			"-0.002": 9.1794364503,
			"-0.001": 9.25296416118,
			"0.0": 9.38319710993,
			"0.001": 8.63905639599,
			"0.002": 10.8044807871,
			"0.003": 14.5232832764,
			"0.004": 20.0486471241,
			"0.005": 20.1586862947,
			"0.006": 7.00797834803,
			"0.007": 1.7578265988,
			"0.008": 2.63359973995,
			"0.009": 2.0676077196,
			"0.01": 2.27878895381,
			"0.011": 0.945262750892,
			"0.012": 0.739642009871,
			"0.013": 0.555228825513,
			"0.014": 0.0805347461588,
			"0.015": 0.0,
			"0.016": 0.0,
			"0.017": 0.0,
			"0.018": 0.0,
			"0.019": 0.0,
			"0.02": 0.0,
			"0.021": 0.0,
			"0.022": 0.0,
			"0.023": 0.0,
			"0.024": 0.0,
			"0.025": 0.0
		}
	}
}
