{
	 "smiles": "CC(C)C1=NC=C(S1)C(O)=O", 
	 "Tm": 407.15, 
	 "num_atms": 20, 
	 "gaussian": { 
		 "optdone": 1, 
		 "sigma_profile": "yes", 
		 "theory": "DFT", 
		 "functional": "B3LYP", 
		 "basiset": "6-31G**", 
		 "properties": { 
			 "R2extent": 2523.4374, 
			 "electric_dipole_moment_norm": 5.34305415376, 
			 "electric_quadrupole_moment_norm": 12.6055533187, 
			 "total_energy": -875.562426977, 
			 "HOMO_LUMO_gap": 0.19188, 
			 "cosmo_polarized_energy": -13.72, 
			 "cosmo_cavitation_energy": 25.6, 
			 "cosmo_dispersion_energy": -18.95, 
			 "cosmo_repulsion_energy": 1.49, 
			 "cosmo_total_nonelectrostatic_energy": 8.13, 
			 "SMD_solvation_energy": 3.95 
		},
		"coords": [
			{
				"x": 0.0967618244,
				"y": 0.016907708,
				"z": 3.0179014163,
				"element": "C" 
			},
			{
				"x": -0.8869583777,
				"y": -0.1538757136,
				"z": 1.8447374511,
				"element": "C" 
			},
			{
				"x": -1.4933681558,
				"y": -1.5697430261,
				"z": 1.8164432055,
				"element": "C" 
			},
			{
				"x": -0.2577169602,
				"y": 0.2147822488,
				"z": 0.525076217,
				"element": "C" 
			},
			{
				"x": -0.6611965379,
				"y": 1.1945539366,
				"z": -0.2364766306,
				"element": "N" 
			},
			{
				"x": 0.0917765211,
				"y": 1.3007173324,
				"z": -1.3731056296,
				"element": "C" 
			},
			{
				"x": 1.1103645808,
				"y": 0.3936868177,
				"z": -1.5214065653,
				"element": "C" 
			},
			{
				"x": 1.1258881939,
				"y": -0.6707720676,
				"z": -0.1340458147,
				"element": "S" 
			},
			{
				"x": 2.0290164694,
				"y": 0.3532198274,
				"z": -2.6832651564,
				"element": "C" 
			},
			{
				"x": 2.9938171806,
				"y": -0.6029447993,
				"z": -2.6943594094,
				"element": "O" 
			},
			{
				"x": 1.9390284587,
				"y": 1.1358202601,
				"z": -3.6000291622,
				"element": "O" 
			},
			{
				"x": -0.4144939549,
				"y": -0.1744956696,
				"z": 3.9665268692,
				"element": "H" 
			},
			{
				"x": 0.9332186233,
				"y": -0.6866242173,
				"z": 2.9419851962,
				"element": "H" 
			},
			{
				"x": 0.5071771239,
				"y": 1.0302317428,
				"z": 3.0488017077,
				"element": "H" 
			},
			{
				"x": -1.6994208669,
				"y": 0.5717995589,
				"z": 1.9616538718,
				"element": "H" 
			},
			{
				"x": -2.0160765164,
				"y": -1.7723728722,
				"z": 2.7564609791,
				"element": "H" 
			},
			{
				"x": -0.7169953279,
				"y": -2.3332514036,
				"z": 1.6952736253,
				"element": "H" 
			},
			{
				"x": -2.2087996285,
				"y": -1.6799425475,
				"z": 0.9965447041,
				"element": "H" 
			},
			{
				"x": -0.1252755881,
				"y": 2.0703667777,
				"z": -2.1036323838,
				"element": "H" 
			},
			{
				"x": 2.9557529382,
				"y": -1.1612638937,
				"z": -1.9046844912,
				"element": "H" 
			}
		],
		 "valence_orbital": [ 
			{
				"type": "occ",
				"energy": -0.32224,
				"method": "rhf"
			},
			{
				"type": "occ",
				"energy": -0.30341,
				"method": "rhf"
			},
			{
				"type": "occ",
				"energy": -0.29033,
				"method": "rhf"
			},
			{
				"type": "occ",
				"energy": -0.2807,
				"method": "rhf"
			},
			{
				"type": "occ",
				"energy": -0.26031,
				"method": "rhf"
			},
			{
				"type": "unocc",
				"energy": -0.06843,
				"method": "rhf"
			},
			{
				"type": "unocc",
				"energy": -0.01631,
				"method": "rhf"
			},
			{
				"type": "unocc",
				"energy": 0.00824,
				"method": "rhf"
			},
			{
				"type": "unocc",
				"energy": 0.04607,
				"method": "rhf"
			},
			{
				"type": "unocc",
				"energy": 0.08423,
				"method": "rhf"
			}
		],
		"cosmo_sigma_profile": { 
			"-0.025": 0.0,
			"-0.024": 0.0,
			"-0.023": 0.0,
			"-0.022": 0.0,
			"-0.021": 0.0,
			"-0.02": 0.0,
			"-0.019": 0.00160122254679,
			"-0.018": 0.560797914192,
			"-0.017": 1.03131770927,
			"-0.016": 0.695621614241,
			"-0.015": 1.05004559764,
			"-0.014": 0.899441966403,
			"-0.013": 1.35375267755,
			"-0.012": 0.994301643502,
			"-0.011": 1.0121945865,
			"-0.01": 1.02234997414,
			"-0.009": 1.40050654596,
			"-0.008": 2.73386041401,
			"-0.007": 2.01973365671,
			"-0.006": 3.39848865488,
			"-0.005": 6.29269437367,
			"-0.004": 17.6247112681,
			"-0.003": 21.1028436627,
			"-0.002": 20.7381347488,
			"-0.001": 22.9249501178,
			"0.0": 30.1731019318,
			"0.001": 13.6064894665,
			"0.002": 7.4967906558,
			"0.003": 3.9473884426,
			"0.004": 3.35543054922,
			"0.005": 4.17913577764,
			"0.006": 3.45582260232,
			"0.007": 3.08213604746,
			"0.008": 4.49933629382,
			"0.009": 4.75687471256,
			"0.01": 5.2834050373,
			"0.011": 6.57034236462,
			"0.012": 5.12104289936,
			"0.013": 1.43193841664,
			"0.014": 0.764597284648,
			"0.015": 0.0932304761028,
			"0.016": 0.0,
			"0.017": 0.0,
			"0.018": 0.0,
			"0.019": 0.0,
			"0.02": 0.0,
			"0.021": 0.0,
			"0.022": 0.0,
			"0.023": 0.0,
			"0.024": 0.0,
			"0.025": 0.0
		}
	}
}
