{
	 "smiles": "CCOC(=O)CC1NCCNC1=O", 
	 "Tm": 377.15, 
	 "num_atms": 27, 
	 "gaussian": { 
		 "optdone": 1, 
		 "sigma_profile": "yes", 
		 "theory": "DFT", 
		 "functional": "B3LYP", 
		 "basiset": "6-31G**", 
		 "properties": { 
			 "R2extent": 4457.3087, 
			 "electric_dipole_moment_norm": 2.78043675346, 
			 "electric_quadrupole_moment_norm": 18.3057946992, 
			 "total_energy": -648.482988152, 
			 "HOMO_LUMO_gap": 0.24145, 
			 "cosmo_polarized_energy": -17.49, 
			 "cosmo_cavitation_energy": 29.66, 
			 "cosmo_dispersion_energy": -21.53, 
			 "cosmo_repulsion_energy": 1.76, 
			 "cosmo_total_nonelectrostatic_energy": 9.89, 
			 "SMD_solvation_energy": 3.44 
		},
		"coords": [
			{
				"x": -4.9870458711,
				"y": -0.8240504929,
				"z": 0.8833097758,
				"element": "C" 
			},
			{
				"x": -3.8543824361,
				"y": -0.9861125923,
				"z": -0.1196022379,
				"element": "C" 
			},
			{
				"x": -2.8134188618,
				"y": -1.8513248234,
				"z": 0.3939495136,
				"element": "O" 
			},
			{
				"x": -1.8732334334,
				"y": -1.268461887,
				"z": 1.1630601141,
				"element": "C" 
			},
			{
				"x": -1.8660968784,
				"y": -0.0914605519,
				"z": 1.4615240106,
				"element": "O" 
			},
			{
				"x": -0.8610965856,
				"y": -2.2847773034,
				"z": 1.6559413426,
				"element": "C" 
			},
			{
				"x": 0.4954048374,
				"y": -1.6393704646,
				"z": 1.9220751955,
				"element": "C" 
			},
			{
				"x": 1.3710053986,
				"y": -2.5279641583,
				"z": 2.7045891306,
				"element": "N" 
			},
			{
				"x": 2.6486989437,
				"y": -1.8958571601,
				"z": 3.0608920182,
				"element": "C" 
			},
			{
				"x": 3.0714541365,
				"y": -0.7489756087,
				"z": 2.097310071,
				"element": "C" 
			},
			{
				"x": 2.5130397069,
				"y": -0.9726487399,
				"z": 0.7712787099,
				"element": "N" 
			},
			{
				"x": 1.1812068721,
				"y": -1.2483877292,
				"z": 0.6025869815,
				"element": "C" 
			},
			{
				"x": 0.6303864411,
				"y": -1.2601252525,
				"z": -0.4911430766,
				"element": "O" 
			},
			{
				"x": -5.395216256,
				"y": -1.7973917226,
				"z": 1.1718738578,
				"element": "H" 
			},
			{
				"x": -5.7944994573,
				"y": -0.2311569406,
				"z": 0.440491149,
				"element": "H" 
			},
			{
				"x": -4.6346857544,
				"y": -0.3072989775,
				"z": 1.77934747,
				"element": "H" 
			},
			{
				"x": -3.4126112644,
				"y": -0.0206018961,
				"z": -0.3763142382,
				"element": "H" 
			},
			{
				"x": -4.1942549981,
				"y": -1.4834217772,
				"z": -1.0311433979,
				"element": "H" 
			},
			{
				"x": -1.2344168101,
				"y": -2.7058768599,
				"z": 2.5968035041,
				"element": "H" 
			},
			{
				"x": -0.7847530167,
				"y": -3.0971538788,
				"z": 0.9292442691,
				"element": "H" 
			},
			{
				"x": 0.3214852186,
				"y": -0.7275877918,
				"z": 2.508209996,
				"element": "H" 
			},
			{
				"x": 1.5629603727,
				"y": -3.3501921816,
				"z": 2.1378380258,
				"element": "H" 
			},
			{
				"x": 3.4162624759,
				"y": -2.6751499786,
				"z": 3.0807363972,
				"element": "H" 
			},
			{
				"x": 2.5859102242,
				"y": -1.481332453,
				"z": 4.0751107759,
				"element": "H" 
			},
			{
				"x": 4.1608170948,
				"y": -0.6940274178,
				"z": 2.017235547,
				"element": "H" 
			},
			{
				"x": 2.7327412336,
				"y": 0.214281345,
				"z": 2.5045341399,
				"element": "H" 
			},
			{
				"x": 3.0043386673,
				"y": -0.6492727053,
				"z": -0.0513390446,
				"element": "H" 
			}
		],
		 "valence_orbital": [ 
			{
				"type": "occ",
				"energy": -0.28837,
				"method": "rhf"
			},
			{
				"type": "occ",
				"energy": -0.27112,
				"method": "rhf"
			},
			{
				"type": "occ",
				"energy": -0.26261,
				"method": "rhf"
			},
			{
				"type": "occ",
				"energy": -0.25185,
				"method": "rhf"
			},
			{
				"type": "occ",
				"energy": -0.21948,
				"method": "rhf"
			},
			{
				"type": "unocc",
				"energy": 0.02197,
				"method": "rhf"
			},
			{
				"type": "unocc",
				"energy": 0.02865,
				"method": "rhf"
			},
			{
				"type": "unocc",
				"energy": 0.06532,
				"method": "rhf"
			},
			{
				"type": "unocc",
				"energy": 0.10093,
				"method": "rhf"
			},
			{
				"type": "unocc",
				"energy": 0.10179,
				"method": "rhf"
			}
		],
		"cosmo_sigma_profile": { 
			"-0.025": 0.0,
			"-0.024": 0.0,
			"-0.023": 0.0,
			"-0.022": 0.0,
			"-0.021": 0.0,
			"-0.02": 0.0,
			"-0.019": 0.0,
			"-0.018": 0.0,
			"-0.017": 0.0,
			"-0.016": 0.0,
			"-0.015": 0.0,
			"-0.014": 0.550720889123,
			"-0.013": 1.54281709222,
			"-0.012": 0.734991463711,
			"-0.011": 2.20814875879,
			"-0.01": 2.54085126528,
			"-0.009": 2.56262544698,
			"-0.008": 2.69400817715,
			"-0.007": 4.52247822497,
			"-0.006": 10.5368851658,
			"-0.005": 17.8946620244,
			"-0.004": 26.3159881421,
			"-0.003": 27.2348870274,
			"-0.002": 21.4614865036,
			"-0.001": 15.8359457904,
			"0.0": 15.1517549265,
			"0.001": 8.30446765705,
			"0.002": 7.49211281238,
			"0.003": 5.04717104881,
			"0.004": 6.47774210563,
			"0.005": 6.11226046374,
			"0.006": 4.47775824418,
			"0.007": 5.01163803867,
			"0.008": 5.62229271264,
			"0.009": 4.36647470197,
			"0.01": 5.33712633058,
			"0.011": 4.44326462494,
			"0.012": 6.39521975158,
			"0.013": 4.43053801435,
			"0.014": 3.88710484059,
			"0.015": 1.01306687235,
			"0.016": 0.802660053057,
			"0.017": 0.0121034819921,
			"0.018": 0.0,
			"0.019": 0.0,
			"0.02": 0.0,
			"0.021": 0.0,
			"0.022": 0.0,
			"0.023": 0.0,
			"0.024": 0.0,
			"0.025": 0.0
		}
	}
}
