{
	 "smiles": "CC1=NN(C2=C1C(=CC(=N2)C1CC1)C(O)=O)C(C)(C)C", 
	 "Tm": 446.15, 
	 "num_atms": 39, 
	 "gaussian": { 
		 "optdone": 1, 
		 "sigma_profile": "yes", 
		 "theory": "DFT", 
		 "functional": "B3LYP", 
		 "basiset": "6-31G**", 
		 "properties": { 
			 "R2extent": 5948.9562, 
			 "electric_dipole_moment_norm": 0.5838450565, 
			 "electric_quadrupole_moment_norm": 9.80010958051, 
			 "total_energy": -897.753301495, 
			 "HOMO_LUMO_gap": 0.15, 
			 "cosmo_polarized_energy": -10.78, 
			 "cosmo_cavitation_energy": 40.74, 
			 "cosmo_dispersion_energy": -27.99, 
			 "cosmo_repulsion_energy": 2.13, 
			 "cosmo_total_nonelectrostatic_energy": 14.88, 
			 "SMD_solvation_energy": 6.86 
		},
		"coords": [
			{
				"x": 2.6260781741,
				"y": -2.8560036725,
				"z": 1.2068296365,
				"element": "C" 
			},
			{
				"x": 1.4904433289,
				"y": -1.8822860733,
				"z": 1.1053477144,
				"element": "C" 
			},
			{
				"x": 0.721392549,
				"y": -1.7196920095,
				"z": 2.1726440177,
				"element": "N" 
			},
			{
				"x": -0.2425645564,
				"y": -0.8073544097,
				"z": 1.8818165343,
				"element": "N" 
			},
			{
				"x": -0.1031145063,
				"y": -0.3636218132,
				"z": 0.5952606463,
				"element": "C" 
			},
			{
				"x": 1.0266228651,
				"y": -1.039418128,
				"z": 0.0364230963,
				"element": "C" 
			},
			{
				"x": 1.3273060676,
				"y": -0.7045987926,
				"z": -1.3077912789,
				"element": "C" 
			},
			{
				"x": 0.510790613,
				"y": 0.2267882905,
				"z": -1.9408334567,
				"element": "C" 
			},
			{
				"x": -0.5812523733,
				"y": 0.8276739621,
				"z": -1.2746849496,
				"element": "C" 
			},
			{
				"x": -0.889469191,
				"y": 0.5350580701,
				"z": -0.0084874437,
				"element": "N" 
			},
			{
				"x": -1.4255095816,
				"y": 1.8206626772,
				"z": -1.9904999222,
				"element": "C" 
			},
			{
				"x": -2.0202042351,
				"y": 2.9996526121,
				"z": -1.2388345266,
				"element": "C" 
			},
			{
				"x": -2.9167169701,
				"y": 1.8980724865,
				"z": -1.7098848477,
				"element": "C" 
			},
			{
				"x": 2.4427394225,
				"y": -1.2438693699,
				"z": -2.1443325244,
				"element": "C" 
			},
			{
				"x": 3.2547162532,
				"y": -2.1043471534,
				"z": -1.4931040403,
				"element": "O" 
			},
			{
				"x": 2.6278455031,
				"y": -0.9471579658,
				"z": -3.3080396341,
				"element": "O" 
			},
			{
				"x": -1.2628735666,
				"y": -0.4187580793,
				"z": 2.8969210924,
				"element": "C" 
			},
			{
				"x": -0.9948474225,
				"y": -1.1955912777,
				"z": 4.1929990445,
				"element": "C" 
			},
			{
				"x": -1.1464678901,
				"y": 1.0942667658,
				"z": 3.1625751106,
				"element": "C" 
			},
			{
				"x": -2.6609278743,
				"y": -0.7738962138,
				"z": 2.3558909606,
				"element": "C" 
			},
			{
				"x": 3.5923991457,
				"y": -2.3707793027,
				"z": 1.0463425701,
				"element": "H" 
			},
			{
				"x": 2.6109050458,
				"y": -3.2959831721,
				"z": 2.206378466,
				"element": "H" 
			},
			{
				"x": 2.5429005867,
				"y": -3.655224115,
				"z": 0.4654601527,
				"element": "H" 
			},
			{
				"x": 0.7312907394,
				"y": 0.4877365409,
				"z": -2.9690882584,
				"element": "H" 
			},
			{
				"x": -1.1166458006,
				"y": 2.0073058481,
				"z": -3.0146888878,
				"element": "H" 
			},
			{
				"x": -2.0490722698,
				"y": 3.9564244671,
				"z": -1.7512914218,
				"element": "H" 
			},
			{
				"x": -1.8007455046,
				"y": 3.0498328929,
				"z": -0.1773497637,
				"element": "H" 
			},
			{
				"x": -3.5754435493,
				"y": 2.0809386152,
				"z": -2.553372982,
				"element": "H" 
			},
			{
				"x": -3.2994556945,
				"y": 1.2083202049,
				"z": -0.9647855059,
				"element": "H" 
			},
			{
				"x": 3.9270154759,
				"y": -2.3746988286,
				"z": -2.1409227852,
				"element": "H" 
			},
			{
				"x": -0.0045955219,
				"y": -0.9742909149,
				"z": 4.5964366141,
				"element": "H" 
			},
			{
				"x": -1.7485079754,
				"y": -0.9026594246,
				"z": 4.9303778571,
				"element": "H" 
			},
			{
				"x": -1.0586530767,
				"y": -2.2741912937,
				"z": 4.035409028,
				"element": "H" 
			},
			{
				"x": -1.3262471678,
				"y": 1.6669359222,
				"z": 2.250874954,
				"element": "H" 
			},
			{
				"x": -1.8839887633,
				"y": 1.3949521717,
				"z": 3.9135302427,
				"element": "H" 
			},
			{
				"x": -0.1503969406,
				"y": 1.3413161184,
				"z": 3.5428512146,
				"element": "H" 
			},
			{
				"x": -2.7365035229,
				"y": -1.8489001131,
				"z": 2.1649828567,
				"element": "H" 
			},
			{
				"x": -3.4222832139,
				"y": -0.5028808107,
				"z": 3.0942543786,
				"element": "H" 
			},
			{
				"x": -2.8700586017,
				"y": -0.2370347117,
				"z": 1.4287860407,
				"element": "H" 
			}
		],
		 "valence_orbital": [ 
			{
				"type": "occ",
				"energy": -0.28767,
				"method": "rhf"
			},
			{
				"type": "occ",
				"energy": -0.28564,
				"method": "rhf"
			},
			{
				"type": "occ",
				"energy": -0.26606,
				"method": "rhf"
			},
			{
				"type": "occ",
				"energy": -0.23534,
				"method": "rhf"
			},
			{
				"type": "occ",
				"energy": -0.22172,
				"method": "rhf"
			},
			{
				"type": "unocc",
				"energy": -0.07172,
				"method": "rhf"
			},
			{
				"type": "unocc",
				"energy": 0.00254,
				"method": "rhf"
			},
			{
				"type": "unocc",
				"energy": 0.03732,
				"method": "rhf"
			},
			{
				"type": "unocc",
				"energy": 0.05941,
				"method": "rhf"
			},
			{
				"type": "unocc",
				"energy": 0.07168,
				"method": "rhf"
			}
		],
		"cosmo_sigma_profile": { 
			"-0.025": 0.0,
			"-0.024": 0.0,
			"-0.023": 0.0,
			"-0.022": 0.0,
			"-0.021": 0.0,
			"-0.02": 0.0,
			"-0.019": 0.0414924667543,
			"-0.018": 1.23811773826,
			"-0.017": 0.679685971391,
			"-0.016": 0.473656674247,
			"-0.015": 0.773408375738,
			"-0.014": 1.24096123263,
			"-0.013": 0.594131006877,
			"-0.012": 0.838138952991,
			"-0.011": 0.853551967363,
			"-0.01": 0.592290607653,
			"-0.009": 0.336697775765,
			"-0.008": 0.57524722734,
			"-0.007": 2.07961376774,
			"-0.006": 4.34555348278,
			"-0.005": 7.20310150095,
			"-0.004": 19.6486403753,
			"-0.003": 30.7407343684,
			"-0.002": 32.1257660133,
			"-0.001": 33.036105983,
			"0.0": 46.2237905724,
			"0.001": 50.7135469435,
			"0.002": 27.419332677,
			"0.003": 17.6508003969,
			"0.004": 9.89090541915,
			"0.005": 6.15944268775,
			"0.006": 4.23446071476,
			"0.007": 2.93224439238,
			"0.008": 2.69098930972,
			"0.009": 3.080262723,
			"0.01": 3.94022138203,
			"0.011": 5.76823928859,
			"0.012": 2.32222411585,
			"0.013": 0.195892022528,
			"0.014": 0.0,
			"0.015": 0.0,
			"0.016": 0.0,
			"0.017": 0.0,
			"0.018": 0.0,
			"0.019": 0.0,
			"0.02": 0.0,
			"0.021": 0.0,
			"0.022": 0.0,
			"0.023": 0.0,
			"0.024": 0.0,
			"0.025": 0.0
		}
	}
}
