{
	 "smiles": "CCCC1CCC2=C(C1)C=C(C#N)C(=O)N2", 
	 "Tm": 507.15, 
	 "num_atms": 32, 
	 "gaussian": { 
		 "optdone": 1, 
		 "sigma_profile": "yes", 
		 "theory": "DFT", 
		 "functional": "B3LYP", 
		 "basiset": "6-31G**", 
		 "properties": { 
			 "R2extent": 6506.5204, 
			 "electric_dipole_moment_norm": 9.41364896201, 
			 "electric_quadrupole_moment_norm": 59.8508760054, 
			 "total_energy": -689.772956946, 
			 "HOMO_LUMO_gap": 0.15505, 
			 "cosmo_polarized_energy": -21.03, 
			 "cosmo_cavitation_energy": 34.75, 
			 "cosmo_dispersion_energy": -24.37, 
			 "cosmo_repulsion_energy": 1.91, 
			 "cosmo_total_nonelectrostatic_energy": 12.29, 
			 "SMD_solvation_energy": 7.0 
		},
		"coords": [
			{
				"x": 1.6506453404,
				"y": -1.8787704,
				"z": 1.3776407673,
				"element": "C" 
			},
			{
				"x": 1.769727732,
				"y": -1.7937932727,
				"z": -0.1487037764,
				"element": "C" 
			},
			{
				"x": 0.4258983049,
				"y": -1.8501775652,
				"z": -0.896146497,
				"element": "C" 
			},
			{
				"x": -0.5621957551,
				"y": -0.705083707,
				"z": -0.6081158237,
				"element": "C" 
			},
			{
				"x": -1.8848883613,
				"y": -0.9158362433,
				"z": -1.3647727201,
				"element": "C" 
			},
			{
				"x": -2.9370347372,
				"y": 0.1283772296,
				"z": -0.9686032011,
				"element": "C" 
			},
			{
				"x": -2.3659559982,
				"y": 1.5226500852,
				"z": -0.9377008268,
				"element": "C" 
			},
			{
				"x": -1.0145881032,
				"y": 1.7875733881,
				"z": -0.9230397444,
				"element": "C" 
			},
			{
				"x": 0.0150006895,
				"y": 0.6757502702,
				"z": -0.9694349458,
				"element": "C" 
			},
			{
				"x": -0.6170697471,
				"y": 3.1499306054,
				"z": -0.8730371327,
				"element": "C" 
			},
			{
				"x": -1.5194745491,
				"y": 4.1914756671,
				"z": -0.8354764488,
				"element": "C" 
			},
			{
				"x": -1.0780755293,
				"y": 5.5477148453,
				"z": -0.7828188753,
				"element": "C" 
			},
			{
				"x": -0.6853188898,
				"y": 6.6422901696,
				"z": -0.7404175199,
				"element": "N" 
			},
			{
				"x": -2.9605008928,
				"y": 3.9355574272,
				"z": -0.8447745762,
				"element": "C" 
			},
			{
				"x": -3.8609781632,
				"y": 4.7618986074,
				"z": -0.8133339254,
				"element": "O" 
			},
			{
				"x": -3.2561587353,
				"y": 2.5587666497,
				"z": -0.8977614083,
				"element": "N" 
			},
			{
				"x": 2.6391860596,
				"y": -1.9060458794,
				"z": 1.8469043429,
				"element": "H" 
			},
			{
				"x": 1.1137777053,
				"y": -2.7847068757,
				"z": 1.6822239302,
				"element": "H" 
			},
			{
				"x": 1.1148417741,
				"y": -1.0208434864,
				"z": 1.7977501009,
				"element": "H" 
			},
			{
				"x": 2.3887788813,
				"y": -2.6266445763,
				"z": -0.5045360825,
				"element": "H" 
			},
			{
				"x": 2.3150121714,
				"y": -0.8823880652,
				"z": -0.4247987022,
				"element": "H" 
			},
			{
				"x": 0.6217437469,
				"y": -1.8760758567,
				"z": -1.9775856562,
				"element": "H" 
			},
			{
				"x": -0.0697848078,
				"y": -2.800849459,
				"z": -0.6548338079,
				"element": "H" 
			},
			{
				"x": -0.7946472161,
				"y": -0.7030576905,
				"z": 0.4669881349,
				"element": "H" 
			},
			{
				"x": -2.2802643752,
				"y": -1.9190317229,
				"z": -1.1710309778,
				"element": "H" 
			},
			{
				"x": -1.6959505788,
				"y": -0.8549365344,
				"z": -2.4449378098,
				"element": "H" 
			},
			{
				"x": -3.7915662015,
				"y": 0.0975942979,
				"z": -1.6569439816,
				"element": "H" 
			},
			{
				"x": -3.3393820356,
				"y": -0.1038639272,
				"z": 0.0283231589,
				"element": "H" 
			},
			{
				"x": 0.8415115063,
				"y": 0.9286443032,
				"z": -0.295454541,
				"element": "H" 
			},
			{
				"x": 0.454782661,
				"y": 0.6249067707,
				"z": -1.9775810577,
				"element": "H" 
			},
			{
				"x": 0.444841796,
				"y": 3.3834020499,
				"z": -0.8605237349,
				"element": "H" 
			},
			{
				"x": -4.2512136923,
				"y": 2.3642728956,
				"z": -0.9089666614,
				"element": "H" 
			}
		],
		 "valence_orbital": [ 
			{
				"type": "occ",
				"energy": -0.32595,
				"method": "rhf"
			},
			{
				"type": "occ",
				"energy": -0.31969,
				"method": "rhf"
			},
			{
				"type": "occ",
				"energy": -0.29731,
				"method": "rhf"
			},
			{
				"type": "occ",
				"energy": -0.26338,
				"method": "rhf"
			},
			{
				"type": "occ",
				"energy": -0.22506,
				"method": "rhf"
			},
			{
				"type": "unocc",
				"energy": -0.07001,
				"method": "rhf"
			},
			{
				"type": "unocc",
				"energy": -0.00156,
				"method": "rhf"
			},
			{
				"type": "unocc",
				"energy": 0.04248,
				"method": "rhf"
			},
			{
				"type": "unocc",
				"energy": 0.05689,
				"method": "rhf"
			},
			{
				"type": "unocc",
				"energy": 0.06279,
				"method": "rhf"
			}
		],
		"cosmo_sigma_profile": { 
			"-0.025": 0.0,
			"-0.024": 0.0,
			"-0.023": 0.0,
			"-0.022": 0.0,
			"-0.021": 0.0,
			"-0.02": 0.0,
			"-0.019": 0.0,
			"-0.018": 0.0,
			"-0.017": 0.0130970258003,
			"-0.016": 0.786518270565,
			"-0.015": 1.14208456663,
			"-0.014": 1.20249168062,
			"-0.013": 0.660846842146,
			"-0.012": 1.21904861802,
			"-0.011": 1.68285550363,
			"-0.01": 1.13290405322,
			"-0.009": 1.46810491765,
			"-0.008": 3.71621012765,
			"-0.007": 4.15949207236,
			"-0.006": 6.9680051477,
			"-0.005": 9.3238292653,
			"-0.004": 12.0243811836,
			"-0.003": 32.693401639,
			"-0.002": 42.788540808,
			"-0.001": 36.1664518746,
			"0.0": 31.7611325966,
			"0.001": 22.6958291091,
			"0.002": 8.15938736011,
			"0.003": 2.46742768066,
			"0.004": 3.31573431357,
			"0.005": 2.53855313467,
			"0.006": 3.97985508945,
			"0.007": 5.17641460331,
			"0.008": 4.69699930259,
			"0.009": 5.71691357134,
			"0.01": 4.32441656655,
			"0.011": 4.82063310495,
			"0.012": 4.90517452638,
			"0.013": 7.8866412563,
			"0.014": 3.34792701882,
			"0.015": 0.0,
			"0.016": 0.0,
			"0.017": 0.0,
			"0.018": 0.0,
			"0.019": 0.0,
			"0.02": 0.0,
			"0.021": 0.0,
			"0.022": 0.0,
			"0.023": 0.0,
			"0.024": 0.0,
			"0.025": 0.0
		}
	}
}
