{
	 "smiles": "OC(=O)CNC(=O)C1=CC=C(Br)O1", 
	 "Tm": 365.15, 
	 "num_atms": 19, 
	 "gaussian": { 
		 "optdone": 1, 
		 "sigma_profile": "yes", 
		 "theory": "DFT", 
		 "functional": "B3LYP", 
		 "basiset": "6-31G**", 
		 "properties": { 
			 "R2extent": 6310.1763, 
			 "electric_dipole_moment_norm": 3.31690883052, 
			 "electric_quadrupole_moment_norm": 25.5085430303, 
			 "total_energy": -3197.38538445, 
			 "HOMO_LUMO_gap": 0.19206, 
			 "cosmo_polarized_energy": -22.18, 
			 "cosmo_cavitation_energy": 27.49, 
			 "cosmo_dispersion_energy": -20.3, 
			 "cosmo_repulsion_energy": 1.65, 
			 "cosmo_total_nonelectrostatic_energy": 8.84, 
			 "SMD_solvation_energy": 6.41 
		},
		"coords": [
			{
				"x": -1.9438328,
				"y": -1.7219832241,
				"z": -2.4220707426,
				"element": "O" 
			},
			{
				"x": -1.3398307154,
				"y": -0.5670086362,
				"z": -2.7631832407,
				"element": "C" 
			},
			{
				"x": -1.3720480295,
				"y": -0.1252270198,
				"z": -3.8831229831,
				"element": "O" 
			},
			{
				"x": -0.5613005085,
				"y": 0.128400107,
				"z": -1.6343186613,
				"element": "C" 
			},
			{
				"x": -1.0389216432,
				"y": -0.2321098004,
				"z": -0.3107957745,
				"element": "N" 
			},
			{
				"x": -0.3300647223,
				"y": -0.5874484619,
				"z": 0.8308305011,
				"element": "C" 
			},
			{
				"x": -0.9231117648,
				"y": -0.8973500685,
				"z": 1.8524350819,
				"element": "O" 
			},
			{
				"x": 1.1503648938,
				"y": -0.5852710728,
				"z": 0.7725292125,
				"element": "C" 
			},
			{
				"x": 2.1174604279,
				"y": 0.1814538523,
				"z": 0.1695491676,
				"element": "C" 
			},
			{
				"x": 3.373834907,
				"y": -0.2415748458,
				"z": 0.6940864307,
				"element": "C" 
			},
			{
				"x": 3.0737031588,
				"y": -1.2369078287,
				"z": 1.5797654329,
				"element": "C" 
			},
			{
				"x": 4.1659564711,
				"y": -2.3067218797,
				"z": 2.6464615336,
				"element": "Br" 
			},
			{
				"x": 1.746333199,
				"y": -1.4555953476,
				"z": 1.6530817309,
				"element": "O" 
			},
			{
				"x": -1.7871591424,
				"y": -1.8834109547,
				"z": -1.4748231146,
				"element": "H" 
			},
			{
				"x": -0.5964174855,
				"y": 1.2053634914,
				"z": -1.8302192961,
				"element": "H" 
			},
			{
				"x": 0.4775228214,
				"y": -0.1950629627,
				"z": -1.7323390439,
				"element": "H" 
			},
			{
				"x": -2.0033121579,
				"y": -0.0114036372,
				"z": -0.0880017551,
				"element": "H" 
			},
			{
				"x": 1.9612089975,
				"y": 0.9833872322,
				"z": -0.5368191025,
				"element": "H" 
			},
			{
				"x": 4.356214093,
				"y": 0.1351710572,
				"z": 0.4553546231,
				"element": "H" 
			}
		],
		 "valence_orbital": [ 
			{
				"type": "occ",
				"energy": -0.31572,
				"method": "rhf"
			},
			{
				"type": "occ",
				"energy": -0.3031,
				"method": "rhf"
			},
			{
				"type": "occ",
				"energy": -0.28431,
				"method": "rhf"
			},
			{
				"type": "occ",
				"energy": -0.27226,
				"method": "rhf"
			},
			{
				"type": "occ",
				"energy": -0.24947,
				"method": "rhf"
			},
			{
				"type": "unocc",
				"energy": -0.05741,
				"method": "rhf"
			},
			{
				"type": "unocc",
				"energy": -0.00978,
				"method": "rhf"
			},
			{
				"type": "unocc",
				"energy": -0.00329,
				"method": "rhf"
			},
			{
				"type": "unocc",
				"energy": 0.01481,
				"method": "rhf"
			},
			{
				"type": "unocc",
				"energy": 0.05371,
				"method": "rhf"
			}
		],
		"cosmo_sigma_profile": { 
			"-0.025": 0.0,
			"-0.024": 0.0,
			"-0.023": 0.0,
			"-0.022": 0.0,
			"-0.021": 0.0,
			"-0.02": 0.0,
			"-0.019": 0.0,
			"-0.018": 0.0,
			"-0.017": 0.0,
			"-0.016": 0.434972540485,
			"-0.015": 2.70375237809,
			"-0.014": 2.94237370685,
			"-0.013": 2.88519088038,
			"-0.012": 2.27348440976,
			"-0.011": 2.88981620211,
			"-0.01": 3.45578082936,
			"-0.009": 7.66858160933,
			"-0.008": 8.67656876374,
			"-0.007": 11.3480207949,
			"-0.006": 9.52103332196,
			"-0.005": 9.05792924382,
			"-0.004": 8.81889239825,
			"-0.003": 7.66019405718,
			"-0.002": 9.02904482067,
			"-0.001": 14.7445716329,
			"0.0": 14.7644200205,
			"0.001": 15.3844499162,
			"0.002": 19.332003928,
			"0.003": 12.5703061456,
			"0.004": 4.96599173165,
			"0.005": 3.57787237481,
			"0.006": 3.48675134049,
			"0.007": 4.01174492523,
			"0.008": 4.85568998084,
			"0.009": 6.49775130797,
			"0.01": 6.67132257378,
			"0.011": 6.99334770676,
			"0.012": 9.93362841104,
			"0.013": 5.90052123782,
			"0.014": 0.780824767458,
			"0.015": 0.0,
			"0.016": 0.0,
			"0.017": 0.0,
			"0.018": 0.0,
			"0.019": 0.0,
			"0.02": 0.0,
			"0.021": 0.0,
			"0.022": 0.0,
			"0.023": 0.0,
			"0.024": 0.0,
			"0.025": 0.0
		}
	}
}
