{
	 "smiles": "OC(=O)C1=CC=C(NC(=O)C2=CC=CS2)C=C1", 
	 "Tm": 501.15, 
	 "num_atms": 26, 
	 "gaussian": { 
		 "optdone": 1, 
		 "sigma_profile": "yes", 
		 "theory": "DFT", 
		 "functional": "B3LYP", 
		 "basiset": "6-31G**", 
		 "properties": { 
			 "R2extent": 7361.904, 
			 "electric_dipole_moment_norm": 4.01010693748, 
			 "electric_quadrupole_moment_norm": 16.8688947943, 
			 "total_energy": -1141.33589333, 
			 "HOMO_LUMO_gap": 0.16447, 
			 "cosmo_polarized_energy": -17.4, 
			 "cosmo_cavitation_energy": 33.35, 
			 "cosmo_dispersion_energy": -25.02, 
			 "cosmo_repulsion_energy": 1.86, 
			 "cosmo_total_nonelectrostatic_energy": 10.18, 
			 "SMD_solvation_energy": 7.32 
		},
		"coords": [
			{
				"x": 1.5501227874,
				"y": 5.9711786184,
				"z": 0.8002501505,
				"element": "O" 
			},
			{
				"x": 0.2974133023,
				"y": 5.5047458507,
				"z": 1.0417005675,
				"element": "C" 
			},
			{
				"x": -0.6177769938,
				"y": 6.249303082,
				"z": 1.3396523086,
				"element": "O" 
			},
			{
				"x": 0.1856526087,
				"y": 4.0344148766,
				"z": 0.9021076228,
				"element": "C" 
			},
			{
				"x": 1.2723108024,
				"y": 3.2201590515,
				"z": 0.5556991471,
				"element": "C" 
			},
			{
				"x": 1.1304982392,
				"y": 1.8414487054,
				"z": 0.4335510143,
				"element": "C" 
			},
			{
				"x": -0.1262424753,
				"y": 1.2538820559,
				"z": 0.6617998111,
				"element": "C" 
			},
			{
				"x": -0.3676490344,
				"y": -0.1261602547,
				"z": 0.5628599164,
				"element": "N" 
			},
			{
				"x": 0.5180574771,
				"y": -1.1389636086,
				"z": 0.2411954656,
				"element": "C" 
			},
			{
				"x": 1.7019838294,
				"y": -0.9532147623,
				"z": -0.0151224167,
				"element": "O" 
			},
			{
				"x": -0.0493375363,
				"y": -2.5116400363,
				"z": 0.2202787893,
				"element": "C" 
			},
			{
				"x": 0.6888287285,
				"y": -3.6322173724,
				"z": -0.0785075971,
				"element": "C" 
			},
			{
				"x": -0.0682218331,
				"y": -4.8348315514,
				"z": -0.035842689,
				"element": "C" 
			},
			{
				"x": -1.3804841272,
				"y": -4.6234259016,
				"z": 0.295640583,
				"element": "C" 
			},
			{
				"x": -1.7117352454,
				"y": -2.9458702927,
				"z": 0.5615316777,
				"element": "S" 
			},
			{
				"x": -1.2197412397,
				"y": 2.0698155103,
				"z": 1.0099979996,
				"element": "C" 
			},
			{
				"x": -1.064807723,
				"y": 3.4414659183,
				"z": 1.1282948676,
				"element": "C" 
			},
			{
				"x": 1.4969595004,
				"y": 6.93336943,
				"z": 0.9208952971,
				"element": "H" 
			},
			{
				"x": 2.2418590694,
				"y": 3.6723237854,
				"z": 0.3794904921,
				"element": "H" 
			},
			{
				"x": 1.9689859123,
				"y": 1.2152331412,
				"z": 0.166542237,
				"element": "H" 
			},
			{
				"x": -1.3218456904,
				"y": -0.3972767928,
				"z": 0.7559911548,
				"element": "H" 
			},
			{
				"x": 1.7427209578,
				"y": -3.5642253639,
				"z": -0.3180627363,
				"element": "H" 
			},
			{
				"x": 0.3408019835,
				"y": -5.8169831481,
				"z": -0.2419476181,
				"element": "H" 
			},
			{
				"x": -2.1749532678,
				"y": -5.3495495648,
				"z": 0.4005060253,
				"element": "H" 
			},
			{
				"x": -2.1934221821,
				"y": 1.6186068572,
				"z": 1.1873158313,
				"element": "H" 
			},
			{
				"x": -1.9025778496,
				"y": 4.0762117669,
				"z": 1.3961820987,
				"element": "H" 
			}
		],
		 "valence_orbital": [ 
			{
				"type": "occ",
				"energy": -0.2726,
				"method": "rhf"
			},
			{
				"type": "occ",
				"energy": -0.26851,
				"method": "rhf"
			},
			{
				"type": "occ",
				"energy": -0.26192,
				"method": "rhf"
			},
			{
				"type": "occ",
				"energy": -0.25604,
				"method": "rhf"
			},
			{
				"type": "occ",
				"energy": -0.23071,
				"method": "rhf"
			},
			{
				"type": "unocc",
				"energy": -0.06624,
				"method": "rhf"
			},
			{
				"type": "unocc",
				"energy": -0.0353,
				"method": "rhf"
			},
			{
				"type": "unocc",
				"energy": -0.00963,
				"method": "rhf"
			},
			{
				"type": "unocc",
				"energy": -0.00133,
				"method": "rhf"
			},
			{
				"type": "unocc",
				"energy": 0.02583,
				"method": "rhf"
			}
		],
		"cosmo_sigma_profile": { 
			"-0.025": 0.0,
			"-0.024": 0.0,
			"-0.023": 0.0,
			"-0.022": 0.0,
			"-0.021": 0.0,
			"-0.02": 0.0,
			"-0.019": 0.0359451296951,
			"-0.018": 0.641326498278,
			"-0.017": 0.883984368812,
			"-0.016": 0.754205559819,
			"-0.015": 0.765724025545,
			"-0.014": 1.66906159772,
			"-0.013": 2.34416720305,
			"-0.012": 2.42254449639,
			"-0.011": 2.79540110945,
			"-0.01": 2.69467535348,
			"-0.009": 4.15046052846,
			"-0.008": 4.9582703167,
			"-0.007": 9.21279129485,
			"-0.006": 10.3616376802,
			"-0.005": 12.648646853,
			"-0.004": 11.938598107,
			"-0.003": 12.0855134874,
			"-0.002": 16.1111921228,
			"-0.001": 15.3510582136,
			"0.0": 21.2657216857,
			"0.001": 23.4521314365,
			"0.002": 28.2446337595,
			"0.003": 32.218038147,
			"0.004": 13.6690204304,
			"0.005": 5.22043567338,
			"0.006": 5.35593872239,
			"0.007": 4.14303713158,
			"0.008": 3.65037426072,
			"0.009": 3.25709478608,
			"0.01": 3.94564501432,
			"0.011": 4.71813381335,
			"0.012": 8.47286664184,
			"0.013": 1.17072825786,
			"0.014": 0.0,
			"0.015": 0.0,
			"0.016": 0.0,
			"0.017": 0.0,
			"0.018": 0.0,
			"0.019": 0.0,
			"0.02": 0.0,
			"0.021": 0.0,
			"0.022": 0.0,
			"0.023": 0.0,
			"0.024": 0.0,
			"0.025": 0.0
		}
	}
}
