{
	 "smiles": "NNS(=O)(=O)CC1=CC=CC=C1", 
	 "Tm": 405.15, 
	 "num_atms": 22, 
	 "gaussian": { 
		 "optdone": 1, 
		 "sigma_profile": "yes", 
		 "theory": "DFT", 
		 "functional": "B3LYP", 
		 "basiset": "6-31G**", 
		 "properties": { 
			 "R2extent": 3244.3501, 
			 "electric_dipole_moment_norm": 4.14265506771, 
			 "electric_quadrupole_moment_norm": 21.017585427, 
			 "total_energy": -930.802498335, 
			 "HOMO_LUMO_gap": 0.2192, 
			 "cosmo_polarized_energy": -19.9, 
			 "cosmo_cavitation_energy": 27.31, 
			 "cosmo_dispersion_energy": -20.05, 
			 "cosmo_repulsion_energy": 1.56, 
			 "cosmo_total_nonelectrostatic_energy": 8.82, 
			 "SMD_solvation_energy": 4.31 
		},
		"coords": [
			{
				"x": -2.6610077906,
				"y": 0.0128589196,
				"z": 0.2729622036,
				"element": "N" 
			},
			{
				"x": -1.7467115045,
				"y": -0.852308562,
				"z": 1.0356468817,
				"element": "N" 
			},
			{
				"x": -0.4371361776,
				"y": -1.3430587459,
				"z": 0.0466328482,
				"element": "S" 
			},
			{
				"x": 0.4755919931,
				"y": -2.0540967693,
				"z": 0.9417861118,
				"element": "O" 
			},
			{
				"x": -1.0596657497,
				"y": -1.981446433,
				"z": -1.1147833577,
				"element": "O" 
			},
			{
				"x": 0.3655742518,
				"y": 0.2148904485,
				"z": -0.506947688,
				"element": "C" 
			},
			{
				"x": 1.3920710482,
				"y": -0.0310833373,
				"z": -1.5768695869,
				"element": "C" 
			},
			{
				"x": 1.0453237975,
				"y": 0.068671146,
				"z": -2.9303984098,
				"element": "C" 
			},
			{
				"x": 1.9966111726,
				"y": -0.1685652295,
				"z": -3.9219451719,
				"element": "C" 
			},
			{
				"x": 3.3027490219,
				"y": -0.5151843479,
				"z": -3.5707667643,
				"element": "C" 
			},
			{
				"x": 3.6531997255,
				"y": -0.6267243703,
				"z": -2.2237262733,
				"element": "C" 
			},
			{
				"x": 2.7025886413,
				"y": -0.3887008703,
				"z": -1.2318118295,
				"element": "C" 
			},
			{
				"x": -3.0169921158,
				"y": -0.6139734423,
				"z": -0.4518968108,
				"element": "H" 
			},
			{
				"x": -3.4532840888,
				"y": 0.1381952521,
				"z": 0.9049359543,
				"element": "H" 
			},
			{
				"x": -1.3614096484,
				"y": -0.296695694,
				"z": 1.8012364362,
				"element": "H" 
			},
			{
				"x": -0.4585228285,
				"y": 0.8500404674,
				"z": -0.8416266383,
				"element": "H" 
			},
			{
				"x": 0.8069508867,
				"y": 0.641380556,
				"z": 0.3980288209,
				"element": "H" 
			},
			{
				"x": 0.0275154047,
				"y": 0.3304980398,
				"z": -3.2052006354,
				"element": "H" 
			},
			{
				"x": 1.7173878983,
				"y": -0.0840629769,
				"z": -4.9680897801,
				"element": "H" 
			},
			{
				"x": 4.043905447,
				"y": -0.6984810942,
				"z": -4.3432917849,
				"element": "H" 
			},
			{
				"x": 4.6664742727,
				"y": -0.9002447289,
				"z": -1.9445505748,
				"element": "H" 
			},
			{
				"x": 2.9733863425,
				"y": -0.4855082276,
				"z": -0.1842239508,
				"element": "H" 
			}
		],
		 "valence_orbital": [ 
			{
				"type": "occ",
				"energy": -0.30569,
				"method": "rhf"
			},
			{
				"type": "occ",
				"energy": -0.30305,
				"method": "rhf"
			},
			{
				"type": "occ",
				"energy": -0.25707,
				"method": "rhf"
			},
			{
				"type": "occ",
				"energy": -0.25443,
				"method": "rhf"
			},
			{
				"type": "occ",
				"energy": -0.23801,
				"method": "rhf"
			},
			{
				"type": "unocc",
				"energy": -0.01881,
				"method": "rhf"
			},
			{
				"type": "unocc",
				"energy": -0.00633,
				"method": "rhf"
			},
			{
				"type": "unocc",
				"energy": 0.05343,
				"method": "rhf"
			},
			{
				"type": "unocc",
				"energy": 0.06365,
				"method": "rhf"
			},
			{
				"type": "unocc",
				"energy": 0.06471,
				"method": "rhf"
			}
		],
		"cosmo_sigma_profile": { 
			"-0.025": 0.0,
			"-0.024": 0.0,
			"-0.023": 0.0,
			"-0.022": 0.0,
			"-0.021": 0.0,
			"-0.02": 0.0,
			"-0.019": 0.0,
			"-0.018": 0.0,
			"-0.017": 0.0,
			"-0.016": 0.683785056564,
			"-0.015": 1.82188768717,
			"-0.014": 1.53013525512,
			"-0.013": 3.07199914452,
			"-0.012": 3.75560785951,
			"-0.011": 4.6599316766,
			"-0.01": 3.0463334476,
			"-0.009": 3.10789390977,
			"-0.008": 5.22254531562,
			"-0.007": 5.90729774561,
			"-0.006": 12.3573512005,
			"-0.005": 13.743165049,
			"-0.004": 15.83088712,
			"-0.003": 11.971400856,
			"-0.002": 9.82214119272,
			"-0.001": 8.62243378744,
			"0.0": 8.71667119258,
			"0.001": 8.7986834236,
			"0.002": 10.3844638011,
			"0.003": 10.7640375872,
			"0.004": 11.758203831,
			"0.005": 14.3375494442,
			"0.006": 6.52031705335,
			"0.007": 5.33683360787,
			"0.008": 5.90641306861,
			"0.009": 4.33119829206,
			"0.01": 9.46070398202,
			"0.011": 10.0022439364,
			"0.012": 4.01343281061,
			"0.013": 0.688128828186,
			"0.014": 0.122641455469,
			"0.015": 0.0,
			"0.016": 0.0,
			"0.017": 0.0,
			"0.018": 0.0,
			"0.019": 0.0,
			"0.02": 0.0,
			"0.021": 0.0,
			"0.022": 0.0,
			"0.023": 0.0,
			"0.024": 0.0,
			"0.025": 0.0
		}
	}
}
