{
	 "smiles": "CC(C)COC1=CC=C(CC(O)=O)C=C1", 
	 "Tm": 360.15, 
	 "num_atms": 31, 
	 "gaussian": { 
		 "optdone": 1, 
		 "sigma_profile": "yes", 
		 "theory": "DFT", 
		 "functional": "B3LYP", 
		 "basiset": "6-31G**", 
		 "properties": { 
			 "R2extent": 5898.8325, 
			 "electric_dipole_moment_norm": 6.05794592581, 
			 "electric_quadrupole_moment_norm": 28.5527798428, 
			 "total_energy": -692.609429486, 
			 "HOMO_LUMO_gap": 0.20726, 
			 "cosmo_polarized_energy": -13.93, 
			 "cosmo_cavitation_energy": 34.38, 
			 "cosmo_dispersion_energy": -24.28, 
			 "cosmo_repulsion_energy": 1.93, 
			 "cosmo_total_nonelectrostatic_energy": 12.04, 
			 "SMD_solvation_energy": 7.18 
		},
		"coords": [
			{
				"x": 0.5102701856,
				"y": 4.0050498391,
				"z": 2.6237546148,
				"element": "C" 
			},
			{
				"x": 0.896390839,
				"y": 3.2223808139,
				"z": 1.3606074537,
				"element": "C" 
			},
			{
				"x": 2.4188455655,
				"y": 3.1103921931,
				"z": 1.2061708841,
				"element": "C" 
			},
			{
				"x": 0.2320757827,
				"y": 1.8459505697,
				"z": 1.3846935054,
				"element": "C" 
			},
			{
				"x": 0.4990633666,
				"y": 1.1940199694,
				"z": 0.1416671252,
				"element": "O" 
			},
			{
				"x": 0.0173464987,
				"y": -0.0612285852,
				"z": -0.0638190063,
				"element": "C" 
			},
			{
				"x": -0.7443809012,
				"y": -0.7871119425,
				"z": 0.8621627117,
				"element": "C" 
			},
			{
				"x": -1.1852833358,
				"y": -2.0717258627,
				"z": 0.5383970094,
				"element": "C" 
			},
			{
				"x": -0.8859337687,
				"y": -2.6658915626,
				"z": -0.6936914518,
				"element": "C" 
			},
			{
				"x": -1.3924557728,
				"y": -4.0470298086,
				"z": -1.04069328,
				"element": "C" 
			},
			{
				"x": -2.7616662489,
				"y": -4.1166886662,
				"z": -1.742238256,
				"element": "C" 
			},
			{
				"x": -3.262018114,
				"y": -2.9516054247,
				"z": -2.2119998585,
				"element": "O" 
			},
			{
				"x": -3.3561363755,
				"y": -5.1549625887,
				"z": -1.8925216259,
				"element": "O" 
			},
			{
				"x": -0.1195454639,
				"y": -1.9202613653,
				"z": -1.6088279214,
				"element": "C" 
			},
			{
				"x": 0.325595186,
				"y": -0.6396395509,
				"z": -1.3049834843,
				"element": "C" 
			},
			{
				"x": -0.5753135005,
				"y": 4.1213018059,
				"z": 2.7144140744,
				"element": "H" 
			},
			{
				"x": 0.9524289655,
				"y": 5.0058523801,
				"z": 2.6076182686,
				"element": "H" 
			},
			{
				"x": 0.8713822039,
				"y": 3.5003946728,
				"z": 3.5280634187,
				"element": "H" 
			},
			{
				"x": 0.4962926778,
				"y": 3.7530243098,
				"z": 0.4859449836,
				"element": "H" 
			},
			{
				"x": 2.8764302269,
				"y": 4.1023679991,
				"z": 1.1341746995,
				"element": "H" 
			},
			{
				"x": 2.6827051508,
				"y": 2.5450708235,
				"z": 0.3089721177,
				"element": "H" 
			},
			{
				"x": 2.8620701498,
				"y": 2.6009635682,
				"z": 2.0708673528,
				"element": "H" 
			},
			{
				"x": -0.8537609633,
				"y": 1.9447857333,
				"z": 1.5252555688,
				"element": "H" 
			},
			{
				"x": 0.6294755576,
				"y": 1.2439040511,
				"z": 2.2159725215,
				"element": "H" 
			},
			{
				"x": -0.995373082,
				"y": -0.3672308842,
				"z": 1.8286228039,
				"element": "H" 
			},
			{
				"x": -1.7733228711,
				"y": -2.6234048342,
				"z": 1.2678193956,
				"element": "H" 
			},
			{
				"x": -0.6900632558,
				"y": -4.5606160376,
				"z": -1.7078919743,
				"element": "H" 
			},
			{
				"x": -1.4781013431,
				"y": -4.6771301023,
				"z": -0.150780132,
				"element": "H" 
			},
			{
				"x": -2.6606867021,
				"y": -2.2272430701,
				"z": -1.9717089217,
				"element": "H" 
			},
			{
				"x": 0.1400258909,
				"y": -2.3564484642,
				"z": -2.5707082102,
				"element": "H" 
			},
			{
				"x": 0.9211434517,
				"y": -0.0682399791,
				"z": -2.009314387,
				"element": "H" 
			}
		],
		 "valence_orbital": [ 
			{
				"type": "occ",
				"energy": -0.32734,
				"method": "rhf"
			},
			{
				"type": "occ",
				"energy": -0.30339,
				"method": "rhf"
			},
			{
				"type": "occ",
				"energy": -0.26912,
				"method": "rhf"
			},
			{
				"type": "occ",
				"energy": -0.26485,
				"method": "rhf"
			},
			{
				"type": "occ",
				"energy": -0.22852,
				"method": "rhf"
			},
			{
				"type": "unocc",
				"energy": -0.02126,
				"method": "rhf"
			},
			{
				"type": "unocc",
				"energy": -0.00891,
				"method": "rhf"
			},
			{
				"type": "unocc",
				"energy": 0.02184,
				"method": "rhf"
			},
			{
				"type": "unocc",
				"energy": 0.07479,
				"method": "rhf"
			},
			{
				"type": "unocc",
				"energy": 0.07987,
				"method": "rhf"
			}
		],
		"cosmo_sigma_profile": { 
			"-0.025": 0.0,
			"-0.024": 0.0,
			"-0.023": 0.0,
			"-0.022": 0.0,
			"-0.021": 0.0,
			"-0.02": 0.0,
			"-0.019": 0.0,
			"-0.018": 0.0,
			"-0.017": 0.0,
			"-0.016": 0.0,
			"-0.015": 0.0,
			"-0.014": 0.104556665066,
			"-0.013": 0.352876245645,
			"-0.012": 0.457900330251,
			"-0.011": 0.753636569511,
			"-0.01": 0.775839857434,
			"-0.009": 1.06652464875,
			"-0.008": 1.49697173956,
			"-0.007": 8.75536278014,
			"-0.006": 15.345531869,
			"-0.005": 17.4703224437,
			"-0.004": 19.5985338839,
			"-0.003": 26.6248275406,
			"-0.002": 26.2919607387,
			"-0.001": 23.0095989836,
			"0.0": 21.1743858417,
			"0.001": 23.4862856393,
			"0.002": 15.4160834128,
			"0.003": 12.1913447675,
			"0.004": 11.4627303525,
			"0.005": 9.67901216047,
			"0.006": 3.94202897007,
			"0.007": 3.44808654904,
			"0.008": 3.62603520554,
			"0.009": 4.24920179118,
			"0.01": 4.57782106202,
			"0.011": 4.84164132502,
			"0.012": 5.74640083722,
			"0.013": 3.6632300007,
			"0.014": 0.427863777054,
			"0.015": 0.0,
			"0.016": 0.0,
			"0.017": 0.0,
			"0.018": 0.0,
			"0.019": 0.0,
			"0.02": 0.0,
			"0.021": 0.0,
			"0.022": 0.0,
			"0.023": 0.0,
			"0.024": 0.0,
			"0.025": 0.0
		}
	}
}
