{
	 "smiles": "NCC1=NOC(=N1)C1=CC=CS1", 
	 "Tm": 420.15, 
	 "num_atms": 19, 
	 "gaussian": { 
		 "optdone": 1, 
		 "sigma_profile": "yes", 
		 "theory": "DFT", 
		 "functional": "B3LYP", 
		 "basiset": "6-31G**", 
		 "properties": { 
			 "R2extent": 3333.4971, 
			 "electric_dipole_moment_norm": 3.40857714157, 
			 "electric_quadrupole_moment_norm": 16.8623698287, 
			 "total_energy": -908.569151639, 
			 "HOMO_LUMO_gap": 0.17268, 
			 "cosmo_polarized_energy": -11.77, 
			 "cosmo_cavitation_energy": 25.71, 
			 "cosmo_dispersion_energy": -19.73, 
			 "cosmo_repulsion_energy": 1.54, 
			 "cosmo_total_nonelectrostatic_energy": 7.53, 
			 "SMD_solvation_energy": 1.39 
		},
		"coords": [
			{
				"x": 2.5509223815,
				"y": -0.5275954082,
				"z": -1.6595374426,
				"element": "N" 
			},
			{
				"x": 1.844197504,
				"y": 0.721421579,
				"z": -1.9536043873,
				"element": "C" 
			},
			{
				"x": 0.5761768787,
				"y": 0.7848288203,
				"z": -1.1568947628,
				"element": "C" 
			},
			{
				"x": -0.5935404123,
				"y": 1.0042100842,
				"z": -1.7038862395,
				"element": "N" 
			},
			{
				"x": -1.467951719,
				"y": 1.0030205273,
				"z": -0.5958957239,
				"element": "O" 
			},
			{
				"x": -0.7075628581,
				"y": 0.7736908904,
				"z": 0.4910763074,
				"element": "C" 
			},
			{
				"x": 0.5631385465,
				"y": 0.6350009396,
				"z": 0.2102373993,
				"element": "N" 
			},
			{
				"x": -1.3415899022,
				"y": 0.7116396867,
				"z": 1.7858146431,
				"element": "C" 
			},
			{
				"x": -0.714898615,
				"y": 0.4855037619,
				"z": 2.9923190759,
				"element": "C" 
			},
			{
				"x": -1.6181275682,
				"y": 0.4833780358,
				"z": 4.087711008,
				"element": "C" 
			},
			{
				"x": -2.9153866583,
				"y": 0.7070971011,
				"z": 3.7015429938,
				"element": "C" 
			},
			{
				"x": -3.061955871,
				"y": 0.9247794995,
				"z": 1.9928852996,
				"element": "S" 
			},
			{
				"x": 3.4462990488,
				"y": -0.5325433794,
				"z": -2.1406430061,
				"element": "H" 
			},
			{
				"x": 2.7485300278,
				"y": -0.5674785875,
				"z": -0.6623783317,
				"element": "H" 
			},
			{
				"x": 1.5830673162,
				"y": 0.7536998441,
				"z": -3.0154027511,
				"element": "H" 
			},
			{
				"x": 2.41993434,
				"y": 1.6378527118,
				"z": -1.7304819267,
				"element": "H" 
			},
			{
				"x": 0.3542077611,
				"y": 0.3287619526,
				"z": 3.066736147,
				"element": "H" 
			},
			{
				"x": -1.3207953186,
				"y": 0.3228013363,
				"z": 5.1172323311,
				"element": "H" 
			},
			{
				"x": -3.7980648818,
				"y": 0.7564306044,
				"z": 4.3243693665,
				"element": "H" 
			}
		],
		 "valence_orbital": [ 
			{
				"type": "occ",
				"energy": -0.30623,
				"method": "rhf"
			},
			{
				"type": "occ",
				"energy": -0.29684,
				"method": "rhf"
			},
			{
				"type": "occ",
				"energy": -0.26957,
				"method": "rhf"
			},
			{
				"type": "occ",
				"energy": -0.24168,
				"method": "rhf"
			},
			{
				"type": "occ",
				"energy": -0.23807,
				"method": "rhf"
			},
			{
				"type": "unocc",
				"energy": -0.06539,
				"method": "rhf"
			},
			{
				"type": "unocc",
				"energy": 0.01056,
				"method": "rhf"
			},
			{
				"type": "unocc",
				"energy": 0.01607,
				"method": "rhf"
			},
			{
				"type": "unocc",
				"energy": 0.03316,
				"method": "rhf"
			},
			{
				"type": "unocc",
				"energy": 0.07501,
				"method": "rhf"
			}
		],
		"cosmo_sigma_profile": { 
			"-0.025": 0.0,
			"-0.024": 0.0,
			"-0.023": 0.0,
			"-0.022": 0.0,
			"-0.021": 0.0,
			"-0.02": 0.0,
			"-0.019": 0.0,
			"-0.018": 0.0,
			"-0.017": 0.0,
			"-0.016": 0.0,
			"-0.015": 0.0,
			"-0.014": 0.0,
			"-0.013": 0.0,
			"-0.012": 0.0,
			"-0.011": 0.532911894283,
			"-0.01": 2.36817493351,
			"-0.009": 5.10321098447,
			"-0.008": 5.97931946949,
			"-0.007": 8.51036258554,
			"-0.006": 8.36230966072,
			"-0.005": 13.8299550895,
			"-0.004": 15.2953917964,
			"-0.003": 15.0516950959,
			"-0.002": 10.3668901801,
			"-0.001": 12.5527188223,
			"0.0": 13.7378758021,
			"0.001": 21.0617739976,
			"0.002": 19.6890308921,
			"0.003": 13.5454582734,
			"0.004": 6.77252007411,
			"0.005": 5.00020590264,
			"0.006": 6.74888602622,
			"0.007": 4.52986543442,
			"0.008": 3.43656325716,
			"0.009": 3.21326423618,
			"0.01": 2.68243721926,
			"0.011": 2.68156698405,
			"0.012": 1.89028194746,
			"0.013": 1.56850524118,
			"0.014": 1.09934212384,
			"0.015": 0.457383697331,
			"0.016": 0.571132760919,
			"0.017": 0.711720137391,
			"0.018": 0.374564586736,
			"0.019": 0.399098534748,
			"0.02": 0.0,
			"0.021": 0.0,
			"0.022": 0.0,
			"0.023": 0.0,
			"0.024": 0.0,
			"0.025": 0.0
		}
	}
}
