{
	 "smiles": "COC1=CC=C(C)C=C1S(Cl)(=O)=O", 
	 "Tm": 356.15, 
	 "num_atms": 22, 
	 "gaussian": { 
		 "optdone": 1, 
		 "sigma_profile": "yes", 
		 "theory": "DFT", 
		 "functional": "B3LYP", 
		 "basiset": "6-31G**", 
		 "properties": { 
			 "R2extent": 4143.2129, 
			 "electric_dipole_moment_norm": 6.69439087894, 
			 "electric_quadrupole_moment_norm": 18.1299962463, 
			 "total_energy": -1394.24918812, 
			 "HOMO_LUMO_gap": 0.16617, 
			 "cosmo_polarized_energy": -12.28, 
			 "cosmo_cavitation_energy": 29.14, 
			 "cosmo_dispersion_energy": -21.45, 
			 "cosmo_repulsion_energy": 1.67, 
			 "cosmo_total_nonelectrostatic_energy": 9.35, 
			 "SMD_solvation_energy": 4.65 
		},
		"coords": [
			{
				"x": 2.2231909651,
				"y": -1.4253977925,
				"z": -1.3487616511,
				"element": "C" 
			},
			{
				"x": 1.1428796569,
				"y": -1.6672183878,
				"z": -0.4538880404,
				"element": "O" 
			},
			{
				"x": 0.0671721158,
				"y": -0.8558629441,
				"z": -0.4920374526,
				"element": "C" 
			},
			{
				"x": -0.092517587,
				"y": 0.227706566,
				"z": -1.3647591759,
				"element": "C" 
			},
			{
				"x": -1.2578871034,
				"y": 0.993204836,
				"z": -1.3320106354,
				"element": "C" 
			},
			{
				"x": -2.3083116465,
				"y": 0.7189533455,
				"z": -0.4483347427,
				"element": "C" 
			},
			{
				"x": -3.5770000091,
				"y": 1.5386557185,
				"z": -0.4504329355,
				"element": "C" 
			},
			{
				"x": -2.1499699774,
				"y": -0.3607038507,
				"z": 0.4257124698,
				"element": "C" 
			},
			{
				"x": -0.984393316,
				"y": -1.1269685278,
				"z": 0.4086507369,
				"element": "C" 
			},
			{
				"x": -0.8558380239,
				"y": -2.4359186482,
				"z": 1.6173175164,
				"element": "S" 
			},
			{
				"x": -0.907221695,
				"y": -4.1781468914,
				"z": 0.382171409,
				"element": "Cl" 
			},
			{
				"x": 0.4453160252,
				"y": -2.427281148,
				"z": 2.270587048,
				"element": "O" 
			},
			{
				"x": -2.0918654153,
				"y": -2.4662686593,
				"z": 2.392787506,
				"element": "O" 
			},
			{
				"x": 2.961469303,
				"y": -2.1966606371,
				"z": -1.1305968041,
				"element": "H" 
			},
			{
				"x": 2.6664247506,
				"y": -0.4371276066,
				"z": -1.1793580357,
				"element": "H" 
			},
			{
				"x": 1.9022804855,
				"y": -1.5109448005,
				"z": -2.3936210704,
				"element": "H" 
			},
			{
				"x": 0.690716056,
				"y": 0.478179557,
				"z": -2.0696827415,
				"element": "H" 
			},
			{
				"x": -1.3480966067,
				"y": 1.8297043754,
				"z": -2.0204110937,
				"element": "H" 
			},
			{
				"x": -4.3208109985,
				"y": 1.1183074255,
				"z": -1.1383909555,
				"element": "H" 
			},
			{
				"x": -4.0336450845,
				"y": 1.5702318629,
				"z": 0.542817354,
				"element": "H" 
			},
			{
				"x": -3.3848465661,
				"y": 2.5681493713,
				"z": -0.7665059212,
				"element": "H" 
			},
			{
				"x": -2.9281453288,
				"y": -0.6177931644,
				"z": 1.1359472157,
				"element": "H" 
			}
		],
		 "valence_orbital": [ 
			{
				"type": "occ",
				"energy": -0.32158,
				"method": "rhf"
			},
			{
				"type": "occ",
				"energy": -0.3189,
				"method": "rhf"
			},
			{
				"type": "occ",
				"energy": -0.30058,
				"method": "rhf"
			},
			{
				"type": "occ",
				"energy": -0.28289,
				"method": "rhf"
			},
			{
				"type": "occ",
				"energy": -0.24355,
				"method": "rhf"
			},
			{
				"type": "unocc",
				"energy": -0.07738,
				"method": "rhf"
			},
			{
				"type": "unocc",
				"energy": -0.03832,
				"method": "rhf"
			},
			{
				"type": "unocc",
				"energy": -0.01684,
				"method": "rhf"
			},
			{
				"type": "unocc",
				"energy": 0.05309,
				"method": "rhf"
			},
			{
				"type": "unocc",
				"energy": 0.07739,
				"method": "rhf"
			}
		],
		"cosmo_sigma_profile": { 
			"-0.025": 0.0,
			"-0.024": 0.0,
			"-0.023": 0.0,
			"-0.022": 0.0,
			"-0.021": 0.0,
			"-0.02": 0.0,
			"-0.019": 0.0,
			"-0.018": 0.0,
			"-0.017": 0.0,
			"-0.016": 0.0,
			"-0.015": 0.0,
			"-0.014": 0.0,
			"-0.013": 0.0,
			"-0.012": 0.0,
			"-0.011": 0.0,
			"-0.01": 0.0,
			"-0.009": 0.00397032228243,
			"-0.008": 1.82926074559,
			"-0.007": 9.34092285102,
			"-0.006": 15.5160514516,
			"-0.005": 17.4459366537,
			"-0.004": 19.2189321712,
			"-0.003": 15.8904220098,
			"-0.002": 16.2891579078,
			"-0.001": 20.0001035783,
			"0.0": 18.8375814929,
			"0.001": 16.9749215749,
			"0.002": 16.3748176006,
			"0.003": 15.2790972474,
			"0.004": 13.0528760387,
			"0.005": 5.41946709492,
			"0.006": 6.16487498217,
			"0.007": 5.91510005188,
			"0.008": 9.4155816076,
			"0.009": 9.36779416037,
			"0.01": 1.9409605048,
			"0.011": 0.52297664946,
			"0.012": 0.0,
			"0.013": 0.0,
			"0.014": 0.0,
			"0.015": 0.0,
			"0.016": 0.0,
			"0.017": 0.0,
			"0.018": 0.0,
			"0.019": 0.0,
			"0.02": 0.0,
			"0.021": 0.0,
			"0.022": 0.0,
			"0.023": 0.0,
			"0.024": 0.0,
			"0.025": 0.0
		}
	}
}
