{
	 "smiles": "CSCCC(N1C(=O)C2=C(C=CC=C2)C1=O)C(O)=O", 
	 "Tm": 399.15, 
	 "num_atms": 32, 
	 "gaussian": { 
		 "optdone": 1, 
		 "sigma_profile": "yes", 
		 "theory": "DFT", 
		 "functional": "B3LYP", 
		 "basiset": "6-31G**", 
		 "properties": { 
			 "R2extent": 7646.7958, 
			 "electric_dipole_moment_norm": 3.80862662124, 
			 "electric_quadrupole_moment_norm": 24.9047993656, 
			 "total_energy": -1257.10029617, 
			 "HOMO_LUMO_gap": 0.12617, 
			 "cosmo_polarized_energy": -18.5, 
			 "cosmo_cavitation_energy": 38.72, 
			 "cosmo_dispersion_energy": -27.12, 
			 "cosmo_repulsion_energy": 2.06, 
			 "cosmo_total_nonelectrostatic_energy": 13.66, 
			 "SMD_solvation_energy": 8.8 
		},
		"coords": [
			{
				"x": 5.4334117088,
				"y": 1.4347027075,
				"z": -2.5592137647,
				"element": "C" 
			},
			{
				"x": 4.5668853346,
				"y": -0.0828380859,
				"z": -2.0332662808,
				"element": "S" 
			},
			{
				"x": 2.9671342419,
				"y": 0.6527632266,
				"z": -1.5087580406,
				"element": "C" 
			},
			{
				"x": 2.0724126187,
				"y": -0.439706845,
				"z": -0.9153145455,
				"element": "C" 
			},
			{
				"x": 0.6517768082,
				"y": 0.0547191788,
				"z": -0.5742243109,
				"element": "C" 
			},
			{
				"x": -0.2907667877,
				"y": -1.0431774664,
				"z": -0.4180347986,
				"element": "N" 
			},
			{
				"x": -1.3561685316,
				"y": -1.2767142506,
				"z": -1.3078604987,
				"element": "C" 
			},
			{
				"x": -1.5907673285,
				"y": -0.6210895347,
				"z": -2.3029334179,
				"element": "O" 
			},
			{
				"x": -2.0808261976,
				"y": -2.459538884,
				"z": -0.7590281223,
				"element": "C" 
			},
			{
				"x": -1.4428164973,
				"y": -2.8585087999,
				"z": 0.4184122679,
				"element": "C" 
			},
			{
				"x": -1.8973038387,
				"y": -3.9397827564,
				"z": 1.1591405962,
				"element": "C" 
			},
			{
				"x": -3.0243094,
				"y": -4.6209190137,
				"z": 0.6798498532,
				"element": "C" 
			},
			{
				"x": -3.6637890436,
				"y": -4.2209630009,
				"z": -0.5006822474,
				"element": "C" 
			},
			{
				"x": -3.1974563757,
				"y": -3.1266104398,
				"z": -1.2414120891,
				"element": "C" 
			},
			{
				"x": -0.2904903296,
				"y": -1.942436457,
				"z": 0.6619233505,
				"element": "C" 
			},
			{
				"x": 0.5035712079,
				"y": -1.9269127924,
				"z": 1.5812751779,
				"element": "O" 
			},
			{
				"x": 0.6222182683,
				"y": 0.983065386,
				"z": 0.6451334598,
				"element": "C" 
			},
			{
				"x": -0.6202939536,
				"y": 1.105645113,
				"z": 1.1580088855,
				"element": "O" 
			},
			{
				"x": 1.5759215613,
				"y": 1.5900399481,
				"z": 1.0757942989,
				"element": "O" 
			},
			{
				"x": 5.5404082609,
				"y": 2.1358139189,
				"z": -1.7271125135,
				"element": "H" 
			},
			{
				"x": 4.9136396536,
				"y": 1.9224500695,
				"z": -3.388587577,
				"element": "H" 
			},
			{
				"x": 6.4275048713,
				"y": 1.1330557406,
				"z": -2.8963502761,
				"element": "H" 
			},
			{
				"x": 2.4847705578,
				"y": 1.1079454407,
				"z": -2.3825290783,
				"element": "H" 
			},
			{
				"x": 3.155977925,
				"y": 1.4299758417,
				"z": -0.7661207175,
				"element": "H" 
			},
			{
				"x": 2.5317528767,
				"y": -0.8617991531,
				"z": -0.0175147535,
				"element": "H" 
			},
			{
				"x": 1.961285222,
				"y": -1.2509349682,
				"z": -1.6429889888,
				"element": "H" 
			},
			{
				"x": 0.2541765258,
				"y": 0.6364471378,
				"z": -1.4170576451,
				"element": "H" 
			},
			{
				"x": -1.3945907302,
				"y": -4.2403680221,
				"z": 2.0726358315,
				"element": "H" 
			},
			{
				"x": -3.4101215192,
				"y": -5.4730647621,
				"z": 1.2312908851,
				"element": "H" 
			},
			{
				"x": -4.5352481828,
				"y": -4.7692744766,
				"z": -0.8456194196,
				"element": "H" 
			},
			{
				"x": -3.6854169731,
				"y": -2.8073715173,
				"z": -2.156560869,
				"element": "H" 
			},
			{
				"x": -0.5429819535,
				"y": 1.7195875171,
				"z": 1.9077053482,
				"element": "H" 
			}
		],
		 "valence_orbital": [ 
			{
				"type": "occ",
				"energy": -0.28576,
				"method": "rhf"
			},
			{
				"type": "occ",
				"energy": -0.28257,
				"method": "rhf"
			},
			{
				"type": "occ",
				"energy": -0.27463,
				"method": "rhf"
			},
			{
				"type": "occ",
				"energy": -0.26755,
				"method": "rhf"
			},
			{
				"type": "occ",
				"energy": -0.2134,
				"method": "rhf"
			},
			{
				"type": "unocc",
				"energy": -0.08723,
				"method": "rhf"
			},
			{
				"type": "unocc",
				"energy": -0.04604,
				"method": "rhf"
			},
			{
				"type": "unocc",
				"energy": -0.00268,
				"method": "rhf"
			},
			{
				"type": "unocc",
				"energy": 0.02342,
				"method": "rhf"
			},
			{
				"type": "unocc",
				"energy": 0.04124,
				"method": "rhf"
			}
		],
		"cosmo_sigma_profile": { 
			"-0.025": 0.0,
			"-0.024": 0.0,
			"-0.023": 0.0,
			"-0.022": 0.0,
			"-0.021": 0.0,
			"-0.02": 0.0,
			"-0.019": 0.390493549329,
			"-0.018": 1.00527003671,
			"-0.017": 0.976118784391,
			"-0.016": 0.96151137646,
			"-0.015": 0.476754842846,
			"-0.014": 0.374449332265,
			"-0.013": 0.561187857064,
			"-0.012": 1.29408645298,
			"-0.011": 1.02509504177,
			"-0.01": 0.771136250447,
			"-0.009": 1.50775687343,
			"-0.008": 5.48569136779,
			"-0.007": 11.3202654069,
			"-0.006": 15.0736758033,
			"-0.005": 23.654392904,
			"-0.004": 23.1637362348,
			"-0.003": 22.4460547453,
			"-0.002": 23.0988585675,
			"-0.001": 27.7380893324,
			"0.0": 20.015968988,
			"0.001": 21.5626915106,
			"0.002": 18.89980751,
			"0.003": 11.4338989299,
			"0.004": 9.24727524789,
			"0.005": 9.16769342277,
			"0.006": 9.5132883214,
			"0.007": 7.71956582129,
			"0.008": 7.11153743621,
			"0.009": 8.9756313781,
			"0.01": 10.7537236806,
			"0.011": 12.0389431028,
			"0.012": 1.98014564983,
			"0.013": 0.0,
			"0.014": 0.0,
			"0.015": 0.0,
			"0.016": 0.0,
			"0.017": 0.0,
			"0.018": 0.0,
			"0.019": 0.0,
			"0.02": 0.0,
			"0.021": 0.0,
			"0.022": 0.0,
			"0.023": 0.0,
			"0.024": 0.0,
			"0.0": 0.0
		}
	}
}
