{
	 "smiles": "O=S(=O)(N1CCCC1)C1=CC=C(C=C1)C#N", 
	 "Tm": 377.15, 
	 "num_atms": 28, 
	 "gaussian": { 
		 "optdone": 1, 
		 "sigma_profile": "yes", 
		 "theory": "DFT", 
		 "functional": "B3LYP", 
		 "basiset": "6-31G**", 
		 "properties": { 
			 "R2extent": 4738.3445, 
			 "electric_dipole_moment_norm": 4.84907060167, 
			 "electric_quadrupole_moment_norm": 28.042943355, 
			 "total_energy": -1084.45141693, 
			 "HOMO_LUMO_gap": 0.18098, 
			 "cosmo_polarized_energy": -17.48, 
			 "cosmo_cavitation_energy": 33.21, 
			 "cosmo_dispersion_energy": -23.6, 
			 "cosmo_repulsion_energy": 1.8, 
			 "cosmo_total_nonelectrostatic_energy": 11.4, 
			 "SMD_solvation_energy": 5.0 
		},
		"coords": [
			{
				"x": -2.9321897635,
				"y": -0.1010977386,
				"z": -1.269855933,
				"element": "O" 
			},
			{
				"x": -2.2566180837,
				"y": 0.551687639,
				"z": -0.1475209553,
				"element": "S" 
			},
			{
				"x": -2.9201590018,
				"y": 1.5184876375,
				"z": 0.727906774,
				"element": "O" 
			},
			{
				"x": -1.6802587698,
				"y": -0.6572570672,
				"z": 0.8287554732,
				"element": "N" 
			},
			{
				"x": -1.1107912664,
				"y": -0.3564384197,
				"z": 2.164470897,
				"element": "C" 
			},
			{
				"x": -0.2195770967,
				"y": -1.5808590297,
				"z": 2.4569686164,
				"element": "C" 
			},
			{
				"x": -0.7698261234,
				"y": -2.6844039704,
				"z": 1.5351779619,
				"element": "C" 
			},
			{
				"x": -1.1552851424,
				"y": -1.9160080851,
				"z": 0.2666246576,
				"element": "C" 
			},
			{
				"x": -0.8034711882,
				"y": 1.3789617603,
				"z": -0.8260497237,
				"element": "C" 
			},
			{
				"x": -0.2673165954,
				"y": 2.4840980543,
				"z": -0.1581171278,
				"element": "C" 
			},
			{
				"x": 0.8829685217,
				"y": 3.0912999792,
				"z": -0.6536028928,
				"element": "C" 
			},
			{
				"x": 1.4914541798,
				"y": 2.5921577464,
				"z": -1.8180373229,
				"element": "C" 
			},
			{
				"x": 0.9345035449,
				"y": 1.4908527717,
				"z": -2.4911810803,
				"element": "C" 
			},
			{
				"x": -0.2156941411,
				"y": 0.8849491863,
				"z": -1.9949320008,
				"element": "C" 
			},
			{
				"x": 2.6798128422,
				"y": 3.2145412832,
				"z": -2.3267777633,
				"element": "C" 
			},
			{
				"x": 3.6459087968,
				"y": 3.7158991522,
				"z": -2.7365097093,
				"element": "N" 
			},
			{
				"x": -0.5329170135,
				"y": 0.5746535001,
				"z": 2.1617094431,
				"element": "H" 
			},
			{
				"x": -1.9242320314,
				"y": -0.2437060854,
				"z": 2.8867945148,
				"element": "H" 
			},
			{
				"x": -0.2372758177,
				"y": -1.8565840939,
				"z": 3.5143628098,
				"element": "H" 
			},
			{
				"x": 0.8191596581,
				"y": -1.3580141485,
				"z": 2.1897873285,
				"element": "H" 
			},
			{
				"x": -1.6628638746,
				"y": -3.1413597162,
				"z": 1.9741347534,
				"element": "H" 
			},
			{
				"x": -0.0439957772,
				"y": -3.4769572934,
				"z": 1.335326087,
				"element": "H" 
			},
			{
				"x": -0.2715517558,
				"y": -1.7418038956,
				"z": -0.3671535265,
				"element": "H" 
			},
			{
				"x": -1.923090128,
				"y": -2.4064303948,
				"z": -0.333339952,
				"element": "H" 
			},
			{
				"x": -0.7683220697,
				"y": 2.8745831469,
				"z": 0.7205470626,
				"element": "H" 
			},
			{
				"x": 1.3094583893,
				"y": 3.9534413214,
				"z": -0.1522795908,
				"element": "H" 
			},
			{
				"x": 1.4007032545,
				"y": 1.125148552,
				"z": -3.3997029468,
				"element": "H" 
			},
			{
				"x": -0.6757335468,
				"y": 0.0549582078,
				"z": -2.519405854,
				"element": "H" 
			}
		],
		 "valence_orbital": [ 
			{
				"type": "occ",
				"energy": -0.31246,
				"method": "rhf"
			},
			{
				"type": "occ",
				"energy": -0.30851,
				"method": "rhf"
			},
			{
				"type": "occ",
				"energy": -0.29324,
				"method": "rhf"
			},
			{
				"type": "occ",
				"energy": -0.28765,
				"method": "rhf"
			},
			{
				"type": "occ",
				"energy": -0.25824,
				"method": "rhf"
			},
			{
				"type": "unocc",
				"energy": -0.07726,
				"method": "rhf"
			},
			{
				"type": "unocc",
				"energy": -0.04357,
				"method": "rhf"
			},
			{
				"type": "unocc",
				"energy": 0.0243,
				"method": "rhf"
			},
			{
				"type": "unocc",
				"energy": 0.04234,
				"method": "rhf"
			},
			{
				"type": "unocc",
				"energy": 0.04919,
				"method": "rhf"
			}
		],
		"cosmo_sigma_profile": { 
			"-0.025": 0.0,
			"-0.024": 0.0,
			"-0.023": 0.0,
			"-0.022": 0.0,
			"-0.021": 0.0,
			"-0.02": 0.0,
			"-0.019": 0.0,
			"-0.018": 0.0,
			"-0.017": 0.0,
			"-0.016": 0.0,
			"-0.015": 0.0,
			"-0.014": 0.0,
			"-0.013": 0.0,
			"-0.012": 0.0,
			"-0.011": 0.0,
			"-0.01": 0.0,
			"-0.009": 3.24832504934,
			"-0.008": 7.14946847591,
			"-0.007": 8.80671948215,
			"-0.006": 8.11389987835,
			"-0.005": 15.3017652015,
			"-0.004": 33.2496035509,
			"-0.003": 32.2709426862,
			"-0.002": 25.7483103496,
			"-0.001": 22.9765892107,
			"0.0": 21.6897060416,
			"0.001": 10.33937549,
			"0.002": 4.5874381368,
			"0.003": 6.11405848981,
			"0.004": 5.70125738469,
			"0.005": 7.2649208487,
			"0.006": 6.36961395573,
			"0.007": 6.65998094265,
			"0.008": 5.96608249725,
			"0.009": 7.06854923069,
			"0.01": 10.3863217723,
			"0.011": 10.3868167871,
			"0.012": 4.92607237062,
			"0.013": 0.659818834454,
			"0.014": 0.0,
			"0.015": 0.0,
			"0.016": 0.0,
			"0.017": 0.0,
			"0.018": 0.0,
			"0.019": 0.0,
			"0.02": 0.0,
			"0.021": 0.0,
			"0.022": 0.0,
			"0.023": 0.0,
			"0.024": 0.0,
			"0.025": 0.0
		}
	}
}
