{
	 "smiles": "ClC1=C(NC(=O)NCC#C)C=CC=C1", 
	 "Tm": 447.15, 
	 "num_atms": 23, 
	 "gaussian": { 
		 "optdone": 1, 
		 "sigma_profile": "yes", 
		 "theory": "DFT", 
		 "functional": "B3LYP", 
		 "basiset": "6-31G**", 
		 "properties": { 
			 "R2extent": 4150.3987, 
			 "electric_dipole_moment_norm": 3.95029815837, 
			 "electric_quadrupole_moment_norm": 16.8969298626, 
			 "total_energy": -1031.34487585, 
			 "HOMO_LUMO_gap": 0.21942, 
			 "cosmo_polarized_energy": -17.23, 
			 "cosmo_cavitation_energy": 30.31, 
			 "cosmo_dispersion_energy": -20.83, 
			 "cosmo_repulsion_energy": 1.65, 
			 "cosmo_total_nonelectrostatic_energy": 11.13, 
			 "SMD_solvation_energy": 6.11 
		},
		"coords": [
			{
				"x": -2.469442509,
				"y": -2.5531801839,
				"z": -1.6261635082,
				"element": "Cl" 
			},
			{
				"x": -0.8262706992,
				"y": -2.8971084734,
				"z": -1.126061489,
				"element": "C" 
			},
			{
				"x": -0.0375046665,
				"y": -1.9057750091,
				"z": -0.5178548201,
				"element": "C" 
			},
			{
				"x": -0.5208897948,
				"y": -0.5944716276,
				"z": -0.2943306172,
				"element": "N" 
			},
			{
				"x": -0.7684825098,
				"y": 0.2805106233,
				"z": -1.3551397128,
				"element": "C" 
			},
			{
				"x": -0.6196166298,
				"y": -0.0073570548,
				"z": -2.5300733047,
				"element": "O" 
			},
			{
				"x": -1.1955009956,
				"y": 1.5365019115,
				"z": -0.9499845517,
				"element": "N" 
			},
			{
				"x": -1.8445963076,
				"y": 1.8249038131,
				"z": 0.3260786892,
				"element": "C" 
			},
			{
				"x": -0.901940201,
				"y": 1.9516111929,
				"z": 1.4488673155,
				"element": "C" 
			},
			{
				"x": -0.1283929375,
				"y": 2.0085136668,
				"z": 2.3751227216,
				"element": "C" 
			},
			{
				"x": 1.2400983323,
				"y": -2.2624639196,
				"z": -0.0667333567,
				"element": "C" 
			},
			{
				"x": 1.7267452154,
				"y": -3.5581752605,
				"z": -0.2213585872,
				"element": "C" 
			},
			{
				"x": 0.9419580115,
				"y": -4.5219841858,
				"z": -0.8548833419,
				"element": "C" 
			},
			{
				"x": -0.333672554,
				"y": -4.1894250007,
				"z": -1.308308978,
				"element": "C" 
			},
			{
				"x": -0.2341120949,
				"y": -0.1679230021,
				"z": 0.5792247443,
				"element": "H" 
			},
			{
				"x": -1.4396912942,
				"y": 2.1209382832,
				"z": -1.7357464223,
				"element": "H" 
			},
			{
				"x": -2.3926572251,
				"y": 2.7659415535,
				"z": 0.2126660754,
				"element": "H" 
			},
			{
				"x": -2.5863863528,
				"y": 1.052377701,
				"z": 0.5732190065,
				"element": "H" 
			},
			{
				"x": 0.5543365994,
				"y": 2.0891292309,
				"z": 3.1896863537,
				"element": "H" 
			},
			{
				"x": 1.8557260284,
				"y": -1.4973389302,
				"z": 0.3982059134,
				"element": "H" 
			},
			{
				"x": 2.7203093907,
				"y": -3.8075625845,
				"z": 0.1380712054,
				"element": "H" 
			},
			{
				"x": 1.3143518711,
				"y": -5.5322669135,
				"z": -0.9933399189,
				"element": "H" 
			},
			{
				"x": -0.9627686769,
				"y": -4.9300958304,
				"z": -1.7894634161,
				"element": "H" 
			}
		],
		 "valence_orbital": [ 
			{
				"type": "occ",
				"energy": -0.28841,
				"method": "rhf"
			},
			{
				"type": "occ",
				"energy": -0.2647,
				"method": "rhf"
			},
			{
				"type": "occ",
				"energy": -0.25308,
				"method": "rhf"
			},
			{
				"type": "occ",
				"energy": -0.24611,
				"method": "rhf"
			},
			{
				"type": "occ",
				"energy": -0.23086,
				"method": "rhf"
			},
			{
				"type": "unocc",
				"energy": -0.01144,
				"method": "rhf"
			},
			{
				"type": "unocc",
				"energy": -0.00887,
				"method": "rhf"
			},
			{
				"type": "unocc",
				"energy": 0.01984,
				"method": "rhf"
			},
			{
				"type": "unocc",
				"energy": 0.03342,
				"method": "rhf"
			},
			{
				"type": "unocc",
				"energy": 0.03802,
				"method": "rhf"
			}
		],
		"cosmo_sigma_profile": { 
			"-0.025": 0.0,
			"-0.024": 0.0,
			"-0.023": 0.0,
			"-0.022": 0.0,
			"-0.021": 0.0,
			"-0.02": 0.0,
			"-0.019": 0.0,
			"-0.018": 0.0,
			"-0.017": 0.0,
			"-0.016": 0.0,
			"-0.015": 0.0711886579566,
			"-0.014": 1.29335824529,
			"-0.013": 1.26268024022,
			"-0.012": 2.11306229742,
			"-0.011": 2.66042327127,
			"-0.01": 3.17861219538,
			"-0.009": 4.87037105296,
			"-0.008": 6.10343315348,
			"-0.007": 10.4744249531,
			"-0.006": 15.1859631578,
			"-0.005": 16.3588104631,
			"-0.004": 12.3139318179,
			"-0.003": 12.4281823339,
			"-0.002": 11.1194868108,
			"-0.001": 11.6272170666,
			"0.0": 13.7270873081,
			"0.001": 14.6257183407,
			"0.002": 17.7418368641,
			"0.003": 19.6841214536,
			"0.004": 21.6529989223,
			"0.005": 15.1494204353,
			"0.006": 8.86548645526,
			"0.007": 3.65394534908,
			"0.008": 1.69547226671,
			"0.009": 1.43949124865,
			"0.01": 1.92911938649,
			"0.011": 2.63713353541,
			"0.012": 1.9427526671,
			"0.013": 4.2201857966,
			"0.014": 5.1192787467,
			"0.015": 0.328544441769,
			"0.016": 0.0,
			"0.017": 0.0,
			"0.018": 0.0,
			"0.019": 0.0,
			"0.02": 0.0,
			"0.021": 0.0,
			"0.022": 0.0,
			"0.023": 0.0,
			"0.024": 0.0,
			"0.025": 0.0
		}
	}
}
