{
	 "smiles": "OCCN1N=C(C=C1C1=CC=CC=C1)C1=CC=CC=C1", 
	 "Tm": 370.15, 
	 "num_atms": 36, 
	 "gaussian": { 
		 "optdone": 1, 
		 "sigma_profile": "yes", 
		 "theory": "DFT", 
		 "functional": "B3LYP", 
		 "basiset": "6-31G**", 
		 "properties": { 
			 "R2extent": 7171.2556, 
			 "electric_dipole_moment_norm": 1.55066966824, 
			 "electric_quadrupole_moment_norm": 9.3256498106, 
			 "total_energy": -842.168538135, 
			 "HOMO_LUMO_gap": 0.18589, 
			 "cosmo_polarized_energy": -11.94, 
			 "cosmo_cavitation_energy": 39.38, 
			 "cosmo_dispersion_energy": -27.98, 
			 "cosmo_repulsion_energy": 2.14, 
			 "cosmo_total_nonelectrostatic_energy": 13.54, 
			 "SMD_solvation_energy": 5.68 
		},
		"coords": [
			{
				"x": 3.1484312503,
				"y": 0.545117863,
				"z": -0.7535840825,
				"element": "O" 
			},
			{
				"x": 2.4988487035,
				"y": 1.7088437801,
				"z": -0.2618240129,
				"element": "C" 
			},
			{
				"x": 1.5171825527,
				"y": 1.3990152193,
				"z": 0.8728852034,
				"element": "C" 
			},
			{
				"x": 0.4747649315,
				"y": 0.4750541361,
				"z": 0.4403697495,
				"element": "N" 
			},
			{
				"x": -0.4286056978,
				"y": 0.9229681972,
				"z": -0.4591557438,
				"element": "N" 
			},
			{
				"x": -1.3113874969,
				"y": -0.0727705298,
				"z": -0.6146629702,
				"element": "C" 
			},
			{
				"x": -0.9661658334,
				"y": -1.1712028336,
				"z": 0.20939263,
				"element": "C" 
			},
			{
				"x": 0.1907797283,
				"y": -0.7967782744,
				"z": 0.8771283186,
				"element": "C" 
			},
			{
				"x": 0.9853351501,
				"y": -1.5652981432,
				"z": 1.8524408219,
				"element": "C" 
			},
			{
				"x": 0.3170565177,
				"y": -2.2775151951,
				"z": 2.8637170366,
				"element": "C" 
			},
			{
				"x": 1.0289766736,
				"y": -3.0515022696,
				"z": 3.77802584,
				"element": "C" 
			},
			{
				"x": 2.4216670918,
				"y": -3.1238356548,
				"z": 3.7019639913,
				"element": "C" 
			},
			{
				"x": 3.0950819888,
				"y": -2.4231791409,
				"z": 2.699940719,
				"element": "C" 
			},
			{
				"x": 2.3872965506,
				"y": -1.6539617515,
				"z": 1.7758327116,
				"element": "C" 
			},
			{
				"x": -2.4435884698,
				"y": 0.0650773027,
				"z": -1.5465623315,
				"element": "C" 
			},
			{
				"x": -2.6071082943,
				"y": 1.2414266935,
				"z": -2.2981215695,
				"element": "C" 
			},
			{
				"x": -3.6759062155,
				"y": 1.3772075413,
				"z": -3.1801622087,
				"element": "C" 
			},
			{
				"x": -4.6031788714,
				"y": 0.342672073,
				"z": -3.3316197962,
				"element": "C" 
			},
			{
				"x": -4.4502694903,
				"y": -0.8298746209,
				"z": -2.5900509182,
				"element": "C" 
			},
			{
				"x": -3.3809348867,
				"y": -0.9676043292,
				"z": -1.7058597545,
				"element": "C" 
			},
			{
				"x": 2.4915406991,
				"y": 0.0389602172,
				"z": -1.2506624244,
				"element": "H" 
			},
			{
				"x": 3.2841856533,
				"y": 2.3692074773,
				"z": 0.1197061097,
				"element": "H" 
			},
			{
				"x": 1.966941383,
				"y": 2.2372863325,
				"z": -1.0633695318,
				"element": "H" 
			},
			{
				"x": 1.0382233611,
				"y": 2.3242547042,
				"z": 1.2107787141,
				"element": "H" 
			},
			{
				"x": 2.0369693888,
				"y": 0.9456257416,
				"z": 1.7174185518,
				"element": "H" 
			},
			{
				"x": -1.4565378926,
				"y": -2.1291660475,
				"z": 0.2914276775,
				"element": "H" 
			},
			{
				"x": -0.7641961592,
				"y": -2.2069053846,
				"z": 2.934058915,
				"element": "H" 
			},
			{
				"x": 0.4962861859,
				"y": -3.5922366839,
				"z": 4.5550968617,
				"element": "H" 
			},
			{
				"x": 2.977125608,
				"y": -3.7239226013,
				"z": 4.4168816056,
				"element": "H" 
			},
			{
				"x": 4.1772522413,
				"y": -2.4833602585,
				"z": 2.6269446731,
				"element": "H" 
			},
			{
				"x": 2.9181165218,
				"y": -1.1340360081,
				"z": 0.9836635671,
				"element": "H" 
			},
			{
				"x": -1.8854083235,
				"y": 2.0420605092,
				"z": -2.1771916997,
				"element": "H" 
			},
			{
				"x": -3.7864509764,
				"y": 2.2941499645,
				"z": -3.7525679353,
				"element": "H" 
			},
			{
				"x": -5.4362189499,
				"y": 0.4499082717,
				"z": -4.0204039404,
				"element": "H" 
			},
			{
				"x": -5.1650213566,
				"y": -1.6408468913,
				"z": -2.6989130015,
				"element": "H" 
			},
			{
				"x": -3.2766832672,
				"y": -1.8854394065,
				"z": -1.135061776,
				"element": "H" 
			}
		],
		 "valence_orbital": [ 
			{
				"type": "occ",
				"energy": -0.26523,
				"method": "rhf"
			},
			{
				"type": "occ",
				"energy": -0.25592,
				"method": "rhf"
			},
			{
				"type": "occ",
				"energy": -0.24445,
				"method": "rhf"
			},
			{
				"type": "occ",
				"energy": -0.22909,
				"method": "rhf"
			},
			{
				"type": "occ",
				"energy": -0.21252,
				"method": "rhf"
			},
			{
				"type": "unocc",
				"energy": -0.02663,
				"method": "rhf"
			},
			{
				"type": "unocc",
				"energy": -0.01626,
				"method": "rhf"
			},
			{
				"type": "unocc",
				"energy": -0.00786,
				"method": "rhf"
			},
			{
				"type": "unocc",
				"energy": 0.00623,
				"method": "rhf"
			},
			{
				"type": "unocc",
				"energy": 0.04493,
				"method": "rhf"
			}
		],
		"cosmo_sigma_profile": { 
			"-0.025": 0.0,
			"-0.024": 0.0,
			"-0.023": 0.0,
			"-0.022": 0.0,
			"-0.021": 0.0,
			"-0.02": 0.0,
			"-0.019": 0.0,
			"-0.018": 0.0,
			"-0.017": 0.0,
			"-0.016": 0.0,
			"-0.015": 0.154066628985,
			"-0.014": 0.779190695579,
			"-0.013": 0.611875898173,
			"-0.012": 0.844661693565,
			"-0.011": 0.659538996192,
			"-0.01": 0.794786126611,
			"-0.009": 0.954379757586,
			"-0.008": 1.12655662172,
			"-0.007": 4.45084228584,
			"-0.006": 15.7215409865,
			"-0.005": 28.5514106798,
			"-0.004": 31.6110284729,
			"-0.003": 28.1643248822,
			"-0.002": 21.8882023609,
			"-0.001": 17.7766944112,
			"0.0": 17.0033107683,
			"0.001": 18.0321002222,
			"0.002": 19.769351204,
			"0.003": 22.4971220788,
			"0.004": 28.4652664434,
			"0.005": 26.049892326,
			"0.006": 12.3142712302,
			"0.007": 3.07400828404,
			"0.008": 2.44069137522,
			"0.009": 1.92779737183,
			"0.01": 2.47952091588,
			"0.011": 2.44766409766,
			"0.012": 1.1279931901,
			"0.013": 1.90646613737,
			"0.014": 0.90846359122,
			"0.015": 0.0,
			"0.016": 0.0,
			"0.017": 0.0,
			"0.018": 0.0,
			"0.019": 0.0,
			"0.02": 0.0,
			"0.021": 0.0,
			"0.022": 0.0,
			"0.023": 0.0,
			"0.024": 0.0,
			"0.025": 0.0
		}
	}
}
