{
	 "smiles": "CCOC(=O)C(=O)C(C#N)C1=CC=CC=C1", 
	 "Tm": 400.15, 
	 "num_atms": 27, 
	 "gaussian": { 
		 "optdone": 1, 
		 "sigma_profile": "yes", 
		 "theory": "DFT", 
		 "functional": "B3LYP", 
		 "basiset": "6-31G**", 
		 "properties": { 
			 "R2extent": 4366.1955, 
			 "electric_dipole_moment_norm": 4.11198061644, 
			 "electric_quadrupole_moment_norm": 25.0878500504, 
			 "total_energy": -744.298393813, 
			 "HOMO_LUMO_gap": 0.16809, 
			 "cosmo_polarized_energy": -16.05, 
			 "cosmo_cavitation_energy": 33.6, 
			 "cosmo_dispersion_energy": -22.31, 
			 "cosmo_repulsion_energy": 1.79, 
			 "cosmo_total_nonelectrostatic_energy": 13.08, 
			 "SMD_solvation_energy": 8.92 
		},
		"coords": [
			{
				"x": 0.2737580725,
				"y": 1.4027521266,
				"z": -4.1641374036,
				"element": "C" 
			},
			{
				"x": 0.9458202209,
				"y": 0.1690444968,
				"z": -3.5969188155,
				"element": "C" 
			},
			{
				"x": 0.5977716142,
				"y": 0.0890863736,
				"z": -2.1862743276,
				"element": "O" 
			},
			{
				"x": 1.0534652404,
				"y": -0.9867505077,
				"z": -1.5261938436,
				"element": "C" 
			},
			{
				"x": 1.7477064741,
				"y": -1.8583620786,
				"z": -1.986383111,
				"element": "O" 
			},
			{
				"x": 0.5808886332,
				"y": -0.9786790294,
				"z": -0.0498040439,
				"element": "C" 
			},
			{
				"x": 1.092096466,
				"y": -1.7289957359,
				"z": 0.73828983,
				"element": "O" 
			},
			{
				"x": -0.5551687978,
				"y": 0.0200924923,
				"z": 0.3348221627,
				"element": "C" 
			},
			{
				"x": -1.7750499935,
				"y": -0.3842556429,
				"z": -0.3797482019,
				"element": "C" 
			},
			{
				"x": -2.7293897585,
				"y": -0.7328094875,
				"z": -0.9416406543,
				"element": "N" 
			},
			{
				"x": -0.7585704291,
				"y": 0.133718677,
				"z": 1.8368951563,
				"element": "C" 
			},
			{
				"x": -0.3071922632,
				"y": 1.2754153445,
				"z": 2.5060355376,
				"element": "C" 
			},
			{
				"x": -0.4590156366,
				"y": 1.3888055624,
				"z": 3.8887725256,
				"element": "C" 
			},
			{
				"x": -1.0651255352,
				"y": 0.3599503585,
				"z": 4.6102435274,
				"element": "C" 
			},
			{
				"x": -1.5179705401,
				"y": -0.7817580214,
				"z": 3.9451089593,
				"element": "C" 
			},
			{
				"x": -1.3650763704,
				"y": -0.896457554,
				"z": 2.5643986493,
				"element": "C" 
			},
			{
				"x": 0.6229874547,
				"y": 2.3086050213,
				"z": -3.6603093495,
				"element": "H" 
			},
			{
				"x": 0.5094412042,
				"y": 1.4908636225,
				"z": -5.2290224544,
				"element": "H" 
			},
			{
				"x": -0.8123623308,
				"y": 1.3394968956,
				"z": -4.0556608865,
				"element": "H" 
			},
			{
				"x": 2.0362946994,
				"y": 0.2101027724,
				"z": -3.6774784619,
				"element": "H" 
			},
			{
				"x": 0.6080998004,
				"y": -0.7508932602,
				"z": -4.0823685499,
				"element": "H" 
			},
			{
				"x": -0.261689863,
				"y": 0.9929048708,
				"z": -0.0773183913,
				"element": "H" 
			},
			{
				"x": 0.1630891222,
				"y": 2.080134675,
				"z": 1.9461814752,
				"element": "H" 
			},
			{
				"x": -0.1075073829,
				"y": 2.2809726713,
				"z": 4.398456942,
				"element": "H" 
			},
			{
				"x": -1.1868145815,
				"y": 0.44752302,
				"z": 5.685852811,
				"element": "H" 
			},
			{
				"x": -1.9912775302,
				"y": -1.5849859177,
				"z": 4.5017788806,
				"element": "H" 
			},
			{
				"x": -1.7223079894,
				"y": -1.7839217455,
				"z": 2.050822038,
				"element": "H" 
			}
		],
		 "valence_orbital": [ 
			{
				"type": "occ",
				"energy": -0.32365,
				"method": "rhf"
			},
			{
				"type": "occ",
				"energy": -0.31439,
				"method": "rhf"
			},
			{
				"type": "occ",
				"energy": -0.28013,
				"method": "rhf"
			},
			{
				"type": "occ",
				"energy": -0.26153,
				"method": "rhf"
			},
			{
				"type": "occ",
				"energy": -0.25863,
				"method": "rhf"
			},
			{
				"type": "unocc",
				"energy": -0.09054,
				"method": "rhf"
			},
			{
				"type": "unocc",
				"energy": -0.02102,
				"method": "rhf"
			},
			{
				"type": "unocc",
				"energy": -0.01408,
				"method": "rhf"
			},
			{
				"type": "unocc",
				"energy": 0.01833,
				"method": "rhf"
			},
			{
				"type": "unocc",
				"energy": 0.02959,
				"method": "rhf"
			}
		],
		"cosmo_sigma_profile": { 
			"-0.025": 0.0,
			"-0.024": 0.0,
			"-0.023": 0.0,
			"-0.022": 0.0,
			"-0.021": 0.0,
			"-0.02": 0.0,
			"-0.019": 0.0,
			"-0.018": 0.0,
			"-0.017": 0.0,
			"-0.016": 0.0,
			"-0.015": 0.0,
			"-0.014": 0.0,
			"-0.013": 0.0,
			"-0.012": 0.178588660014,
			"-0.011": 1.8170091125,
			"-0.01": 3.1616348402,
			"-0.009": 2.82631934679,
			"-0.008": 4.12985168488,
			"-0.007": 7.16826795138,
			"-0.006": 18.5142844191,
			"-0.005": 23.8637568055,
			"-0.004": 26.201245316,
			"-0.003": 19.3874694397,
			"-0.002": 17.6038938233,
			"-0.001": 16.7990305595,
			"0.0": 15.7017231751,
			"0.001": 13.2191262812,
			"0.002": 12.2029674255,
			"0.003": 12.9749299882,
			"0.004": 12.9389267126,
			"0.005": 11.4187024746,
			"0.006": 6.59179538063,
			"0.007": 6.80015942596,
			"0.008": 9.20160914296,
			"0.009": 9.13525981486,
			"0.01": 8.60373528396,
			"0.011": 5.37881949881,
			"0.012": 2.5169034253,
			"0.013": 0.422426969546,
			"0.014": 0.0,
			"0.015": 0.0,
			"0.016": 0.0,
			"0.017": 0.0,
			"0.018": 0.0,
			"0.019": 0.0,
			"0.02": 0.0,
			"0.021": 0.0,
			"0.022": 0.0,
			"0.023": 0.0,
			"0.024": 0.0,
			"0.025": 0.0
		}
	}
}
