{
	 "smiles": "CC(C)CCCC(C)C", 
	 "Tm": 170.15, 
	 "num_atms": 29, 
	 "gaussian": { 
		 "optdone": 1, 
		 "sigma_profile": "yes", 
		 "theory": "DFT", 
		 "functional": "B3LYP", 
		 "basiset": "6-31G**", 
		 "properties": { 
			 "R2extent": 2376.3459, 
			 "electric_dipole_moment_norm": 0.126505217284, 
			 "electric_quadrupole_moment_norm": 0.646244907137, 
			 "total_energy": -355.043692509, 
			 "HOMO_LUMO_gap": 0.37108, 
			 "cosmo_polarized_energy": -0.77, 
			 "cosmo_cavitation_energy": 28.67, 
			 "cosmo_dispersion_energy": -20.02, 
			 "cosmo_repulsion_energy": 1.66, 
			 "cosmo_total_nonelectrostatic_energy": 10.31, 
			 "SMD_solvation_energy": 4.69 
		},
		"coords": [
			{
				"x": -1.3353121575,
				"y": 1.5492030778,
				"z": 0.7117193375,
				"element": "C" 
			},
			{
				"x": -0.3028969855,
				"y": 1.9543509084,
				"z": -0.3523272048,
				"element": "C" 
			},
			{
				"x": 0.7865082899,
				"y": 2.8557866335,
				"z": 0.2500075012,
				"element": "C" 
			},
			{
				"x": 0.2790373344,
				"y": 0.7370480799,
				"z": -1.1084373467,
				"element": "C" 
			},
			{
				"x": 1.0648096764,
				"y": -0.2761032958,
				"z": -0.2608561333,
				"element": "C" 
			},
			{
				"x": 1.7188574361,
				"y": -1.4044161934,
				"z": -1.0794644152,
				"element": "C" 
			},
			{
				"x": 0.7686569403,
				"y": -2.3494732662,
				"z": -1.8447496235,
				"element": "C" 
			},
			{
				"x": 1.5802393024,
				"y": -3.3487836843,
				"z": -2.6832169599,
				"element": "C" 
			},
			{
				"x": -0.1989013184,
				"y": -3.0908876191,
				"z": -0.9099719031,
				"element": "C" 
			},
			{
				"x": -2.122306898,
				"y": 0.9172352275,
				"z": 0.284563274,
				"element": "H" 
			},
			{
				"x": -0.87125032,
				"y": 0.9936383288,
				"z": 1.5342723782,
				"element": "H" 
			},
			{
				"x": -1.8163265559,
				"y": 2.4325593794,
				"z": 1.1459129594,
				"element": "H" 
			},
			{
				"x": -0.8344189102,
				"y": 2.5523994308,
				"z": -1.1070188544,
				"element": "H" 
			},
			{
				"x": 0.3488478168,
				"y": 3.7670480551,
				"z": 0.672299687,
				"element": "H" 
			},
			{
				"x": 1.3298691505,
				"y": 2.3522867783,
				"z": 1.05731972,
				"element": "H" 
			},
			{
				"x": 1.5188877928,
				"y": 3.1574958575,
				"z": -0.5073307204,
				"element": "H" 
			},
			{
				"x": 0.9353385988,
				"y": 1.1078699599,
				"z": -1.9091020182,
				"element": "H" 
			},
			{
				"x": -0.5502010434,
				"y": 0.2234367302,
				"z": -1.6125444893,
				"element": "H" 
			},
			{
				"x": 1.8615250951,
				"y": 0.2454419618,
				"z": 0.2839968996,
				"element": "H" 
			},
			{
				"x": 0.4120732632,
				"y": -0.7082244097,
				"z": 0.5071917929,
				"element": "H" 
			},
			{
				"x": 2.3376060121,
				"y": -2.014017448,
				"z": -0.4048812824,
				"element": "H" 
			},
			{
				"x": 2.4150706264,
				"y": -0.9540535259,
				"z": -1.8013593172,
				"element": "H" 
			},
			{
				"x": 0.1690470652,
				"y": -1.7461805898,
				"z": -2.5410790734,
				"element": "H" 
			},
			{
				"x": 0.9249604897,
				"y": -4.004189274,
				"z": -3.2674033986,
				"element": "H" 
			},
			{
				"x": 2.1992962644,
				"y": -3.9869840014,
				"z": -2.0403577655,
				"element": "H" 
			},
			{
				"x": 2.2493001583,
				"y": -2.8344651117,
				"z": -3.3820181747,
				"element": "H" 
			},
			{
				"x": -0.8488732848,
				"y": -2.4040252773,
				"z": -0.3589850284,
				"element": "H" 
			},
			{
				"x": 0.3518814355,
				"y": -3.6904448397,
				"z": -0.174188827,
				"element": "H" 
			},
			{
				"x": -0.8445252746,
				"y": -3.7723518723,
				"z": -1.4747910139,
				"element": "H" 
			}
		],
		 "valence_orbital": [ 
			{
				"type": "occ",
				"energy": -0.32273,
				"method": "rhf"
			},
			{
				"type": "occ",
				"energy": -0.31776,
				"method": "rhf"
			},
			{
				"type": "occ",
				"energy": -0.30606,
				"method": "rhf"
			},
			{
				"type": "occ",
				"energy": -0.29968,
				"method": "rhf"
			},
			{
				"type": "occ",
				"energy": -0.29497,
				"method": "rhf"
			},
			{
				"type": "unocc",
				"energy": 0.07611,
				"method": "rhf"
			},
			{
				"type": "unocc",
				"energy": 0.09663,
				"method": "rhf"
			},
			{
				"type": "unocc",
				"energy": 0.11343,
				"method": "rhf"
			},
			{
				"type": "unocc",
				"energy": 0.11795,
				"method": "rhf"
			},
			{
				"type": "unocc",
				"energy": 0.1364,
				"method": "rhf"
			}
		],
		"cosmo_sigma_profile": { 
			"-0.025": 0.0,
			"-0.024": 0.0,
			"-0.023": 0.0,
			"-0.022": 0.0,
			"-0.021": 0.0,
			"-0.02": 0.0,
			"-0.019": 0.0,
			"-0.018": 0.0,
			"-0.017": 0.0,
			"-0.016": 0.0,
			"-0.015": 0.0,
			"-0.014": 0.0,
			"-0.013": 0.0,
			"-0.012": 0.0,
			"-0.011": 0.0,
			"-0.01": 0.0,
			"-0.009": 0.0,
			"-0.008": 0.0,
			"-0.007": 0.0,
			"-0.006": 0.0,
			"-0.005": 0.0,
			"-0.004": 0.0,
			"-0.003": 2.55984473817,
			"-0.002": 29.1276063665,
			"-0.001": 53.7470230425,
			"0.0": 51.5918820172,
			"0.001": 46.8785157309,
			"0.002": 32.2678269278,
			"0.003": 2.7174459569,
			"0.004": 0.0,
			"0.005": 0.0,
			"0.006": 0.0,
			"0.007": 0.0,
			"0.008": 0.0,
			"0.009": 0.0,
			"0.01": 0.0,
			"0.011": 0.0,
			"0.012": 0.0,
			"0.013": 0.0,
			"0.014": 0.0,
			"0.015": 0.0,
			"0.016": 0.0,
			"0.017": 0.0,
			"0.018": 0.0,
			"0.019": 0.0,
			"0.02": 0.0,
			"0.021": 0.0,
			"0.022": 0.0,
			"0.023": 0.0,
			"0.024": 0.0,
			"0.025": 0.0
		}
	}
}
