{
	 "smiles": "CC(C)(C)OC(=O)NCCN=C=O", 
	 "Tm": 376.15, 
	 "num_atms": 27, 
	 "gaussian": { 
		 "optdone": 1, 
		 "sigma_profile": "yes", 
		 "theory": "DFT", 
		 "functional": "B3LYP", 
		 "basiset": "6-31G**", 
		 "properties": { 
			 "R2extent": 3774.1416, 
			 "electric_dipole_moment_norm": 3.8879480102, 
			 "electric_quadrupole_moment_norm": 10.8847603382, 
			 "total_energy": -648.498296582, 
			 "HOMO_LUMO_gap": 0.26874, 
			 "cosmo_polarized_energy": -11.6, 
			 "cosmo_cavitation_energy": 31.3, 
			 "cosmo_dispersion_energy": -20.89, 
			 "cosmo_repulsion_energy": 1.7, 
			 "cosmo_total_nonelectrostatic_energy": 12.12, 
			 "SMD_solvation_energy": 7.58 
		},
		"coords": [
			{
				"x": 1.6379987628,
				"y": -1.7872859027,
				"z": -1.8962953345,
				"element": "C" 
			},
			{
				"x": 0.2680769919,
				"y": -1.3566274354,
				"z": -1.3618966632,
				"element": "C" 
			},
			{
				"x": -0.0266107429,
				"y": -1.9440251385,
				"z": 0.0222721159,
				"element": "C" 
			},
			{
				"x": -0.8402303529,
				"y": -1.7188208044,
				"z": -2.3538413254,
				"element": "C" 
			},
			{
				"x": 0.1860341912,
				"y": 0.1134226811,
				"z": -1.3126213334,
				"element": "O" 
			},
			{
				"x": 1.0437875445,
				"y": 0.8301873105,
				"z": -0.5440357229,
				"element": "C" 
			},
			{
				"x": 1.8980755098,
				"y": 0.3777882584,
				"z": 0.1995121113,
				"element": "O" 
			},
			{
				"x": 0.8418112877,
				"y": 2.1760997538,
				"z": -0.7212490244,
				"element": "N" 
			},
			{
				"x": -0.258133296,
				"y": 2.7828064842,
				"z": -1.4480874484,
				"element": "C" 
			},
			{
				"x": -1.5602850447,
				"y": 2.8736081487,
				"z": -0.643964372,
				"element": "C" 
			},
			{
				"x": -1.380066227,
				"y": 3.7255433142,
				"z": 0.5151028182,
				"element": "N" 
			},
			{
				"x": -1.8580399187,
				"y": 3.8599637252,
				"z": 1.6165440959,
				"element": "C" 
			},
			{
				"x": -2.2356121851,
				"y": 4.096494962,
				"z": 2.709336797,
				"element": "O" 
			},
			{
				"x": 1.833662887,
				"y": -1.3157471482,
				"z": -2.8646536385,
				"element": "H" 
			},
			{
				"x": 2.4317397766,
				"y": -1.5124695806,
				"z": -1.2014768783,
				"element": "H" 
			},
			{
				"x": 1.6513821122,
				"y": -2.8727516156,
				"z": -2.0384996733,
				"element": "H" 
			},
			{
				"x": -0.9949355183,
				"y": -1.5879147026,
				"z": 0.3887749439,
				"element": "H" 
			},
			{
				"x": -0.0710231066,
				"y": -3.0359556698,
				"z": -0.0441700481,
				"element": "H" 
			},
			{
				"x": 0.7472917831,
				"y": -1.6638646146,
				"z": 0.7368364407,
				"element": "H" 
			},
			{
				"x": -1.8125563168,
				"y": -1.3704145979,
				"z": -1.9927928336,
				"element": "H" 
			},
			{
				"x": -0.6503405996,
				"y": -1.2635261952,
				"z": -3.3303290338,
				"element": "H" 
			},
			{
				"x": -0.8890494163,
				"y": -2.8041239761,
				"z": -2.4821495866,
				"element": "H" 
			},
			{
				"x": 1.3476786214,
				"y": 2.7433856071,
				"z": -0.0572391654,
				"element": "H" 
			},
			{
				"x": -0.4450188599,
				"y": 2.2006673511,
				"z": -2.3524971995,
				"element": "H" 
			},
			{
				"x": 0.04960981,
				"y": 3.7887315283,
				"z": -1.7508025758,
				"element": "H" 
			},
			{
				"x": -2.3468940364,
				"y": 3.2946677417,
				"z": -1.2830051378,
				"element": "H" 
			},
			{
				"x": -1.869653657,
				"y": 1.8675605151,
				"z": -0.3408723282,
				"element": "H" 
			}
		],
		 "valence_orbital": [ 
			{
				"type": "occ",
				"energy": -0.30291,
				"method": "rhf"
			},
			{
				"type": "occ",
				"energy": -0.29186,
				"method": "rhf"
			},
			{
				"type": "occ",
				"energy": -0.28312,
				"method": "rhf"
			},
			{
				"type": "occ",
				"energy": -0.26407,
				"method": "rhf"
			},
			{
				"type": "occ",
				"energy": -0.25566,
				"method": "rhf"
			},
			{
				"type": "unocc",
				"energy": 0.01308,
				"method": "rhf"
			},
			{
				"type": "unocc",
				"energy": 0.04898,
				"method": "rhf"
			},
			{
				"type": "unocc",
				"energy": 0.05822,
				"method": "rhf"
			},
			{
				"type": "unocc",
				"energy": 0.07704,
				"method": "rhf"
			},
			{
				"type": "unocc",
				"energy": 0.08734,
				"method": "rhf"
			}
		],
		"cosmo_sigma_profile": { 
			"-0.025": 0.0,
			"-0.024": 0.0,
			"-0.023": 0.0,
			"-0.022": 0.0,
			"-0.021": 0.0,
			"-0.02": 0.0,
			"-0.019": 0.0,
			"-0.018": 0.0,
			"-0.017": 0.0,
			"-0.016": 0.0,
			"-0.015": 0.0,
			"-0.014": 0.17127548036,
			"-0.013": 0.778352460281,
			"-0.012": 0.760026245985,
			"-0.011": 1.08778190715,
			"-0.01": 0.770284859554,
			"-0.009": 0.863546355631,
			"-0.008": 0.654204147992,
			"-0.007": 2.50728116801,
			"-0.006": 9.63991783514,
			"-0.005": 13.4787980115,
			"-0.004": 22.0066478333,
			"-0.003": 23.6120267018,
			"-0.002": 23.8790784909,
			"-0.001": 25.0902072481,
			"0.0": 30.5312943819,
			"0.001": 23.4520623115,
			"0.002": 10.755670989,
			"0.003": 8.38367905295,
			"0.004": 7.87570008069,
			"0.005": 6.415460565,
			"0.006": 4.93978732161,
			"0.007": 5.42960932159,
			"0.008": 8.99104466596,
			"0.009": 3.31095988712,
			"0.01": 0.899527560718,
			"0.011": 1.92543733516,
			"0.012": 2.03997518299,
			"0.013": 2.65672531701,
			"0.014": 2.71532868562,
			"0.015": 0.100705975299,
			"0.016": 0.0,
			"0.017": 0.0,
			"0.018": 0.0,
			"0.019": 0.0,
			"0.02": 0.0,
			"0.021": 0.0,
			"0.022": 0.0,
			"0.023": 0.0,
			"0.024": 0.0,
			"0.025": 0.0
		}
	}
}
