{
	 "smiles": "COC1=C(CN)C=C(C=C1)[N+]([O-])=O", 
	 "Tm": 375.15, 
	 "num_atms": 23, 
	 "gaussian": { 
		 "optdone": 1, 
		 "sigma_profile": "yes", 
		 "theory": "DFT", 
		 "functional": "B3LYP", 
		 "basiset": "6-31G**", 
		 "properties": { 
			 "R2extent": 3000.009, 
			 "electric_dipole_moment_norm": 6.02518556478, 
			 "electric_quadrupole_moment_norm": 17.5802466726, 
			 "total_energy": -645.940336741, 
			 "HOMO_LUMO_gap": 0.15626, 
			 "cosmo_polarized_energy": -13.86, 
			 "cosmo_cavitation_energy": 27.35, 
			 "cosmo_dispersion_energy": -19.81, 
			 "cosmo_repulsion_energy": 1.58, 
			 "cosmo_total_nonelectrostatic_energy": 9.12, 
			 "SMD_solvation_energy": 6.27 
		},
		"coords": [
			{
				"x": -2.101390679,
				"y": 1.7344106367,
				"z": -3.0317786012,
				"element": "C" 
			},
			{
				"x": -2.0243815801,
				"y": 1.7315937313,
				"z": -1.6097758925,
				"element": "O" 
			},
			{
				"x": -0.9166586974,
				"y": 1.2175073477,
				"z": -1.0096264168,
				"element": "C" 
			},
			{
				"x": -0.9038856368,
				"y": 1.3010825312,
				"z": 0.4050584834,
				"element": "C" 
			},
			{
				"x": -2.079803646,
				"y": 1.9119006672,
				"z": 1.1508753179,
				"element": "C" 
			},
			{
				"x": -3.334372267,
				"y": 1.1516049291,
				"z": 1.1088781148,
				"element": "N" 
			},
			{
				"x": 0.1981563896,
				"y": 0.7927466524,
				"z": 1.0809007353,
				"element": "C" 
			},
			{
				"x": 1.2585965867,
				"y": 0.2168476051,
				"z": 0.3745744067,
				"element": "C" 
			},
			{
				"x": 1.2473212222,
				"y": 0.1367372033,
				"z": -1.0131726417,
				"element": "C" 
			},
			{
				"x": 0.1522163404,
				"y": 0.6422054049,
				"z": -1.7098618163,
				"element": "C" 
			},
			{
				"x": 2.406885923,
				"y": -0.3113035184,
				"z": 1.1115610975,
				"element": "N" 
			},
			{
				"x": 3.3280468058,
				"y": -0.8086346471,
				"z": 0.4607096089,
				"element": "O" 
			},
			{
				"x": 2.3866264122,
				"y": -0.2290360647,
				"z": 2.3410470571,
				"element": "O" 
			},
			{
				"x": -3.0518778728,
				"y": 2.2088725112,
				"z": -3.2776658729,
				"element": "H" 
			},
			{
				"x": -1.2815254033,
				"y": 2.3120628779,
				"z": -3.4742348101,
				"element": "H" 
			},
			{
				"x": -2.0887267756,
				"y": 0.7151273724,
				"z": -3.435784114,
				"element": "H" 
			},
			{
				"x": -1.7941429521,
				"y": 2.0469214217,
				"z": 2.1994855458,
				"element": "H" 
			},
			{
				"x": -2.2868793242,
				"y": 2.90903964,
				"z": 0.7478298623,
				"element": "H" 
			},
			{
				"x": -3.6442089071,
				"y": 1.0785286594,
				"z": 0.1433305013,
				"element": "H" 
			},
			{
				"x": -3.1698648621,
				"y": 0.2012560647,
				"z": 1.4333803705,
				"element": "H" 
			},
			{
				"x": 0.2529868172,
				"y": 0.8397110127,
				"z": 2.1624574843,
				"element": "H" 
			},
			{
				"x": 2.0854125584,
				"y": -0.3143488858,
				"z": -1.5292093482,
				"element": "H" 
			},
			{
				"x": 0.141269548,
				"y": 0.5832668472,
				"z": -2.791079072,
				"element": "H" 
			}
		],
		 "valence_orbital": [ 
			{
				"type": "occ",
				"energy": -0.30059,
				"method": "rhf"
			},
			{
				"type": "occ",
				"energy": -0.28288,
				"method": "rhf"
			},
			{
				"type": "occ",
				"energy": -0.27699,
				"method": "rhf"
			},
			{
				"type": "occ",
				"energy": -0.25282,
				"method": "rhf"
			},
			{
				"type": "occ",
				"energy": -0.23657,
				"method": "rhf"
			},
			{
				"type": "unocc",
				"energy": -0.08031,
				"method": "rhf"
			},
			{
				"type": "unocc",
				"energy": -0.0259,
				"method": "rhf"
			},
			{
				"type": "unocc",
				"energy": 0.01017,
				"method": "rhf"
			},
			{
				"type": "unocc",
				"energy": 0.0751,
				"method": "rhf"
			},
			{
				"type": "unocc",
				"energy": 0.07713,
				"method": "rhf"
			}
		],
		"cosmo_sigma_profile": { 
			"-0.025": 0.0,
			"-0.024": 0.0,
			"-0.023": 0.0,
			"-0.022": 0.0,
			"-0.021": 0.0,
			"-0.02": 0.0,
			"-0.019": 0.0,
			"-0.018": 0.0,
			"-0.017": 0.0,
			"-0.016": 0.0,
			"-0.015": 0.0,
			"-0.014": 0.0,
			"-0.013": 0.0,
			"-0.012": 0.0,
			"-0.011": 0.0,
			"-0.01": 0.570423998485,
			"-0.009": 1.34342571654,
			"-0.008": 3.53839443567,
			"-0.007": 9.14959298477,
			"-0.006": 17.6828810867,
			"-0.005": 17.5666854306,
			"-0.004": 18.0996679567,
			"-0.003": 15.5079902941,
			"-0.002": 13.7414698163,
			"-0.001": 16.8404867001,
			"0.0": 17.4126249103,
			"0.001": 17.3916861557,
			"0.002": 12.9727555833,
			"0.003": 6.76988556564,
			"0.004": 4.37703514205,
			"0.005": 4.91291094341,
			"0.006": 3.9383542191,
			"0.007": 5.08460747446,
			"0.008": 11.4726260037,
			"0.009": 6.15331616755,
			"0.01": 4.40638326987,
			"0.011": 2.25530829727,
			"0.012": 0.872855266365,
			"0.013": 0.907160513183,
			"0.014": 0.361444430936,
			"0.015": 0.613099263385,
			"0.016": 0.620795990837,
			"0.017": 0.421225796647,
			"0.018": 0.887591531738,
			"0.019": 0.620810666684,
			"0.02": 0.219733074077,
			"0.021": 0.0,
			"0.022": 0.0,
			"0.023": 0.0,
			"0.024": 0.0,
			"0.025": 0.0
		}
	}
}
