{
	 "smiles": "CNC(=O)C1=NC=CC(OC2=C(N)C=CC=C2)=C1", 
	 "Tm": 389.15, 
	 "num_atms": 31, 
	 "gaussian": { 
		 "optdone": 1, 
		 "sigma_profile": "yes", 
		 "theory": "DFT", 
		 "functional": "B3LYP", 
		 "basiset": "6-31G**", 
		 "properties": { 
			 "R2extent": 7056.6274, 
			 "electric_dipole_moment_norm": 3.58896573124, 
			 "electric_quadrupole_moment_norm": 19.4518403921, 
			 "total_energy": -817.93746689, 
			 "HOMO_LUMO_gap": 0.1733, 
			 "cosmo_polarized_energy": -15.22, 
			 "cosmo_cavitation_energy": 35.84, 
			 "cosmo_dispersion_energy": -25.87, 
			 "cosmo_repulsion_energy": 2.02, 
			 "cosmo_total_nonelectrostatic_energy": 12.0, 
			 "SMD_solvation_energy": 5.74 
		},
		"coords": [
			{
				"x": 5.9745717438,
				"y": 3.4099001343,
				"z": -0.6733792882,
				"element": "C" 
			},
			{
				"x": 4.5860911028,
				"y": 3.0179961894,
				"z": -0.5601108579,
				"element": "N" 
			},
			{
				"x": 4.1753680428,
				"y": 1.9831823942,
				"z": 0.2146187013,
				"element": "C" 
			},
			{
				"x": 4.9158825226,
				"y": 1.2741389363,
				"z": 0.8938723086,
				"element": "O" 
			},
			{
				"x": 2.6790355963,
				"y": 1.7562713344,
				"z": 0.1793563465,
				"element": "C" 
			},
			{
				"x": 1.9399650163,
				"y": 2.5717780168,
				"z": -0.5946518401,
				"element": "N" 
			},
			{
				"x": 0.6219747994,
				"y": 2.3567061396,
				"z": -0.6159254994,
				"element": "C" 
			},
			{
				"x": -0.0212020011,
				"y": 1.3521551738,
				"z": 0.1084769261,
				"element": "C" 
			},
			{
				"x": 0.7670598351,
				"y": 0.5180646989,
				"z": 0.9063777847,
				"element": "C" 
			},
			{
				"x": 0.2826998281,
				"y": -0.5129736889,
				"z": 1.6651261967,
				"element": "O" 
			},
			{
				"x": -1.096624217,
				"y": -0.7343718024,
				"z": 1.7350085253,
				"element": "C" 
			},
			{
				"x": -1.6245082486,
				"y": -1.7823527741,
				"z": 0.9576760033,
				"element": "C" 
			},
			{
				"x": -0.8081698258,
				"y": -2.4671807407,
				"z": 0.0658917761,
				"element": "N" 
			},
			{
				"x": -2.9960514474,
				"y": -2.0589602987,
				"z": 1.0908012336,
				"element": "C" 
			},
			{
				"x": -3.7932826984,
				"y": -1.3174899076,
				"z": 1.9600822483,
				"element": "C" 
			},
			{
				"x": -3.2474975359,
				"y": -0.2855229125,
				"z": 2.7274457031,
				"element": "C" 
			},
			{
				"x": -1.8858627603,
				"y": -0.0001307443,
				"z": 2.6126405463,
				"element": "C" 
			},
			{
				"x": 2.1487679576,
				"y": 0.72331537,
				"z": 0.9439551325,
				"element": "C" 
			},
			{
				"x": 6.1269555118,
				"y": 4.4408115879,
				"z": -0.3329163767,
				"element": "H" 
			},
			{
				"x": 6.5597694268,
				"y": 2.7377627377,
				"z": -0.0441167575,
				"element": "H" 
			},
			{
				"x": 6.3287269891,
				"y": 3.3292410863,
				"z": -1.7078134009,
				"element": "H" 
			},
			{
				"x": 3.8551690695,
				"y": 3.5066936756,
				"z": -1.0619706887,
				"element": "H" 
			},
			{
				"x": 0.0350128651,
				"y": 3.0206537624,
				"z": -1.2477419656,
				"element": "H" 
			},
			{
				"x": -1.09501755,
				"y": 1.2258187277,
				"z": 0.0490389933,
				"element": "H" 
			},
			{
				"x": -1.126451805,
				"y": -3.3909593168,
				"z": -0.1900937326,
				"element": "H" 
			},
			{
				"x": 0.1766444259,
				"y": -2.4379051255,
				"z": 0.2927547948,
				"element": "H" 
			},
			{
				"x": -3.4305889805,
				"y": -2.8618289223,
				"z": 0.5006563574,
				"element": "H" 
			},
			{
				"x": -4.8499790251,
				"y": -1.5547194076,
				"z": 2.0423020382,
				"element": "H" 
			},
			{
				"x": -3.8681279254,
				"y": 0.285098079,
				"z": 3.4102627639,
				"element": "H" 
			},
			{
				"x": -1.4203580169,
				"y": 0.7831916419,
				"z": 3.2028074934,
				"element": "H" 
			},
			{
				"x": 2.8024273045,
				"y": 0.1059159551,
				"z": 1.547868534,
				"element": "H" 
			}
		],
		 "valence_orbital": [ 
			{
				"type": "occ",
				"energy": -0.2611,
				"method": "rhf"
			},
			{
				"type": "occ",
				"energy": -0.25027,
				"method": "rhf"
			},
			{
				"type": "occ",
				"energy": -0.24094,
				"method": "rhf"
			},
			{
				"type": "occ",
				"energy": -0.23966,
				"method": "rhf"
			},
			{
				"type": "occ",
				"energy": -0.21212,
				"method": "rhf"
			},
			{
				"type": "unocc",
				"energy": -0.03882,
				"method": "rhf"
			},
			{
				"type": "unocc",
				"energy": -0.01765,
				"method": "rhf"
			},
			{
				"type": "unocc",
				"energy": -0.00689,
				"method": "rhf"
			},
			{
				"type": "unocc",
				"energy": 0.00806,
				"method": "rhf"
			},
			{
				"type": "unocc",
				"energy": 0.07405,
				"method": "rhf"
			}
		],
		"cosmo_sigma_profile": { 
			"-0.025": 0.0,
			"-0.024": 0.0,
			"-0.023": 0.0,
			"-0.022": 0.0,
			"-0.021": 0.0,
			"-0.02": 0.0,
			"-0.019": 0.0,
			"-0.018": 0.0,
			"-0.017": 0.0,
			"-0.016": 0.0,
			"-0.015": 0.0,
			"-0.014": 0.0,
			"-0.013": 0.652244803823,
			"-0.012": 1.70102137119,
			"-0.011": 3.04402675917,
			"-0.01": 3.00216925368,
			"-0.009": 3.86854755871,
			"-0.008": 3.35019886968,
			"-0.007": 7.42548583121,
			"-0.006": 12.1201372502,
			"-0.005": 18.0982057081,
			"-0.004": 21.3739286852,
			"-0.003": 22.3368478552,
			"-0.002": 20.3747751947,
			"-0.001": 20.1238477806,
			"0.0": 23.0361430459,
			"0.001": 24.3383565851,
			"0.002": 22.0011651211,
			"0.003": 15.1783470615,
			"0.004": 12.9621032625,
			"0.005": 13.3075769765,
			"0.006": 9.96547948176,
			"0.007": 5.28459201237,
			"0.008": 4.59068343839,
			"0.009": 2.65821319007,
			"0.01": 2.41187216315,
			"0.011": 2.15576473827,
			"0.012": 2.3402130063,
			"0.013": 4.22511202846,
			"0.014": 4.27460066594,
			"0.015": 0.039025575277,
			"0.016": 0.0,
			"0.017": 0.0,
			"0.018": 0.0,
			"0.019": 0.0,
			"0.02": 0.0,
			"0.021": 0.0,
			"0.022": 0.0,
			"0.023": 0.0,
			"0.024": 0.0,
			"0.025": 0.0
		}
	}
}
