{
	 "smiles": "BrC1=CC=C(C=C1)N1C(=O)C=CC1=O", 
	 "Tm": 409.15, 
	 "num_atms": 20, 
	 "gaussian": { 
		 "optdone": 1, 
		 "sigma_profile": "yes", 
		 "theory": "DFT", 
		 "functional": "B3LYP", 
		 "basiset": "6-31G**", 
		 "properties": { 
			 "R2extent": 5072.8741, 
			 "electric_dipole_moment_norm": 3.30096343966, 
			 "electric_quadrupole_moment_norm": 15.263861518, 
			 "total_energy": -3161.27958642, 
			 "HOMO_LUMO_gap": 0.12856, 
			 "cosmo_polarized_energy": -10.5, 
			 "cosmo_cavitation_energy": 27.76, 
			 "cosmo_dispersion_energy": -20.69, 
			 "cosmo_repulsion_energy": 1.61, 
			 "cosmo_total_nonelectrostatic_energy": 8.68, 
			 "SMD_solvation_energy": 5.19 
		},
		"coords": [
			{
				"x": -0.3406581711,
				"y": 4.1217494635,
				"z": -1.6411423838,
				"element": "Br" 
			},
			{
				"x": -0.2096986025,
				"y": 2.2883453623,
				"z": -1.1208136743,
				"element": "C" 
			},
			{
				"x": -0.9672807889,
				"y": 1.82209229,
				"z": -0.0486005604,
				"element": "C" 
			},
			{
				"x": -0.8778978983,
				"y": 0.4829835963,
				"z": 0.3262042547,
				"element": "C" 
			},
			{
				"x": -0.0187413828,
				"y": -0.381621682,
				"z": -0.3630260409,
				"element": "C" 
			},
			{
				"x": 0.7441595244,
				"y": 0.0993405692,
				"z": -1.4341661635,
				"element": "C" 
			},
			{
				"x": 0.6422269681,
				"y": 1.434862124,
				"z": -1.8184577027,
				"element": "C" 
			},
			{
				"x": 0.0791157207,
				"y": -1.7499217854,
				"z": 0.0253550415,
				"element": "N" 
			},
			{
				"x": 0.0190496533,
				"y": -2.2268570183,
				"z": 1.3547155898,
				"element": "C" 
			},
			{
				"x": -0.1265451765,
				"y": -1.5569796784,
				"z": 2.3541398513,
				"element": "O" 
			},
			{
				"x": 0.1671110662,
				"y": -3.7161554772,
				"z": 1.2737374837,
				"element": "C" 
			},
			{
				"x": 0.2973088796,
				"y": -4.0701953052,
				"z": -0.0065507898,
				"element": "C" 
			},
			{
				"x": 0.2510541139,
				"y": -2.8387101983,
				"z": -0.8596600536,
				"element": "C" 
			},
			{
				"x": 0.3445731727,
				"y": -2.7778657216,
				"z": -2.0664533273,
				"element": "O" 
			},
			{
				"x": -1.627246666,
				"y": 2.4938875001,
				"z": 0.4878345291,
				"element": "H" 
			},
			{
				"x": -1.4615276186,
				"y": 0.1183116743,
				"z": 1.1612384853,
				"element": "H" 
			},
			{
				"x": 1.4015815001,
				"y": -0.5674664962,
				"z": -1.9764198803,
				"element": "H" 
			},
			{
				"x": 1.2275120933,
				"y": 1.8070996524,
				"z": -2.6512234941,
				"element": "H" 
			},
			{
				"x": 0.15822885,
				"y": -4.3319681485,
				"z": 2.1632559612,
				"element": "H" 
			},
			{
				"x": 0.4203747625,
				"y": -5.052730721,
				"z": -0.442467126,
				"element": "H" 
			}
		],
		 "valence_orbital": [ 
			{
				"type": "occ",
				"energy": -0.29408,
				"method": "rhf"
			},
			{
				"type": "occ",
				"energy": -0.28824,
				"method": "rhf"
			},
			{
				"type": "occ",
				"energy": -0.28144,
				"method": "rhf"
			},
			{
				"type": "occ",
				"energy": -0.2673,
				"method": "rhf"
			},
			{
				"type": "occ",
				"energy": -0.2361,
				"method": "rhf"
			},
			{
				"type": "unocc",
				"energy": -0.10754,
				"method": "rhf"
			},
			{
				"type": "unocc",
				"energy": -0.02555,
				"method": "rhf"
			},
			{
				"type": "unocc",
				"energy": -0.01765,
				"method": "rhf"
			},
			{
				"type": "unocc",
				"energy": 0.00638,
				"method": "rhf"
			},
			{
				"type": "unocc",
				"energy": 0.05072,
				"method": "rhf"
			}
		],
		"cosmo_sigma_profile": { 
			"-0.025": 0.0,
			"-0.024": 0.0,
			"-0.023": 0.0,
			"-0.022": 0.0,
			"-0.021": 0.0,
			"-0.02": 0.0,
			"-0.019": 0.0,
			"-0.018": 0.0,
			"-0.017": 0.0,
			"-0.016": 0.0,
			"-0.015": 0.0,
			"-0.014": 0.0,
			"-0.013": 0.0,
			"-0.012": 0.0,
			"-0.011": 0.0435146629827,
			"-0.01": 2.62045637021,
			"-0.009": 4.0151121371,
			"-0.008": 3.63295513768,
			"-0.007": 8.6541221749,
			"-0.006": 14.5044042384,
			"-0.005": 16.3141485636,
			"-0.004": 16.2755548036,
			"-0.003": 14.536311165,
			"-0.002": 13.7569778402,
			"-0.001": 12.9166984249,
			"0.0": 13.8252707667,
			"0.001": 14.3667949356,
			"0.002": 20.3703376373,
			"0.003": 20.6370698943,
			"0.004": 15.4224327191,
			"0.005": 8.1179428591,
			"0.006": 2.9185386744,
			"0.007": 4.00678003489,
			"0.008": 3.66711804492,
			"0.009": 4.98319100246,
			"0.01": 7.76607138974,
			"0.011": 4.42818980832,
			"0.012": 0.281273371752,
			"0.013": 0.0,
			"0.014": 0.0,
			"0.015": 0.0,
			"0.016": 0.0,
			"0.017": 0.0,
			"0.018": 0.0,
			"0.019": 0.0,
			"0.02": 0.0,
			"0.021": 0.0,
			"0.022": 0.0,
			"0.023": 0.0,
			"0.024": 0.0,
			"0.025": 0.0
		}
	}
}
