{
	 "smiles": "C1CCC(CC1)C1=CC=CC=C1", 
	 "Tm": 279.3, 
	 "num_atms": 28, 
	 "gaussian": { 
		 "optdone": 1, 
		 "sigma_profile": "yes", 
		 "theory": "DFT", 
		 "functional": "B3LYP", 
		 "basiset": "6-31G**", 
		 "properties": { 
			 "R2extent": 3332.2567, 
			 "electric_dipole_moment_norm": 0.433724036687, 
			 "electric_quadrupole_moment_norm": 4.03180214668, 
			 "total_energy": -466.932643905, 
			 "HOMO_LUMO_gap": 0.2373, 
			 "cosmo_polarized_energy": -3.14, 
			 "cosmo_cavitation_energy": 28.24, 
			 "cosmo_dispersion_energy": -20.83, 
			 "cosmo_repulsion_energy": 1.66, 
			 "cosmo_total_nonelectrostatic_energy": 9.07, 
			 "SMD_solvation_energy": 3.87 
		},
		"coords": [
			{
				"x": -3.217157723,
				"y": -0.5360089707,
				"z": 1.2291566324,
				"element": "C" 
			},
			{
				"x": -2.142395355,
				"y": -0.0876612792,
				"z": 2.2423235384,
				"element": "C" 
			},
			{
				"x": -0.8988192575,
				"y": 0.4783267501,
				"z": 1.5410757769,
				"element": "C" 
			},
			{
				"x": -0.2126975665,
				"y": -0.5512956461,
				"z": 0.5816127384,
				"element": "C" 
			},
			{
				"x": -1.1823158424,
				"y": -1.7113529719,
				"z": 0.2315312644,
				"element": "C" 
			},
			{
				"x": -2.5969652635,
				"y": -1.1823518035,
				"z": -0.0376703679,
				"element": "C" 
			},
			{
				"x": 1.1180741703,
				"y": -1.0801789578,
				"z": 1.0931990775,
				"element": "C" 
			},
			{
				"x": 1.2472906036,
				"y": -1.6345969735,
				"z": 2.3767779116,
				"element": "C" 
			},
			{
				"x": 2.469263516,
				"y": -2.1360461417,
				"z": 2.8249893326,
				"element": "C" 
			},
			{
				"x": 3.5927982905,
				"y": -2.0969460662,
				"z": 1.9961215997,
				"element": "C" 
			},
			{
				"x": 3.4809755525,
				"y": -1.5506917759,
				"z": 0.7174732432,
				"element": "C" 
			},
			{
				"x": 2.2553083677,
				"y": -1.0485193366,
				"z": 0.2750971766,
				"element": "C" 
			},
			{
				"x": -3.8292399599,
				"y": 0.3256386796,
				"z": 0.9366963529,
				"element": "H" 
			},
			{
				"x": -3.8990644565,
				"y": -1.2419565417,
				"z": 1.7176997602,
				"element": "H" 
			},
			{
				"x": -1.8518690287,
				"y": -0.939149108,
				"z": 2.8703413194,
				"element": "H" 
			},
			{
				"x": -2.5599037441,
				"y": 0.6599783022,
				"z": 2.9265735555,
				"element": "H" 
			},
			{
				"x": -0.1758333594,
				"y": 0.8372135517,
				"z": 2.2808575584,
				"element": "H" 
			},
			{
				"x": -1.2004359105,
				"y": 1.3584789156,
				"z": 0.9590852075,
				"element": "H" 
			},
			{
				"x": -0.0018111632,
				"y": -0.0271819024,
				"z": -0.3591670583,
				"element": "H" 
			},
			{
				"x": -0.7955698168,
				"y": -2.2546088904,
				"z": -0.6380334054,
				"element": "H" 
			},
			{
				"x": -1.206441002,
				"y": -2.4356115373,
				"z": 1.0558444997,
				"element": "H" 
			},
			{
				"x": -3.2413477979,
				"y": -1.9870935844,
				"z": -0.4086474096,
				"element": "H" 
			},
			{
				"x": -2.5422599504,
				"y": -0.441142716,
				"z": -0.8460485614,
				"element": "H" 
			},
			{
				"x": 0.384295972,
				"y": -1.6734329824,
				"z": 3.0362710659,
				"element": "H" 
			},
			{
				"x": 2.544508837,
				"y": -2.5580476638,
				"z": 3.8236104886,
				"element": "H" 
			},
			{
				"x": 4.5448295006,
				"y": -2.486666486,
				"z": 2.3450594098,
				"element": "H" 
			},
			{
				"x": 4.3478536504,
				"y": -1.5112139097,
				"z": 0.0633835797,
				"element": "H" 
			},
			{
				"x": 2.1791287367,
				"y": -0.6210809541,
				"z": -0.7222142865,
				"element": "H" 
			}
		],
		 "valence_orbital": [ 
			{
				"type": "occ",
				"energy": -0.29786,
				"method": "rhf"
			},
			{
				"type": "occ",
				"energy": -0.29647,
				"method": "rhf"
			},
			{
				"type": "occ",
				"energy": -0.29329,
				"method": "rhf"
			},
			{
				"type": "occ",
				"energy": -0.24295,
				"method": "rhf"
			},
			{
				"type": "occ",
				"energy": -0.23345,
				"method": "rhf"
			},
			{
				"type": "unocc",
				"energy": 0.00385,
				"method": "rhf"
			},
			{
				"type": "unocc",
				"energy": 0.0075,
				"method": "rhf"
			},
			{
				"type": "unocc",
				"energy": 0.0776,
				"method": "rhf"
			},
			{
				"type": "unocc",
				"energy": 0.09689,
				"method": "rhf"
			},
			{
				"type": "unocc",
				"energy": 0.09933,
				"method": "rhf"
			}
		],
		"cosmo_sigma_profile": { 
			"-0.025": 0.0,
			"-0.024": 0.0,
			"-0.023": 0.0,
			"-0.022": 0.0,
			"-0.021": 0.0,
			"-0.02": 0.0,
			"-0.019": 0.0,
			"-0.018": 0.0,
			"-0.017": 0.0,
			"-0.016": 0.0,
			"-0.015": 0.0,
			"-0.014": 0.0,
			"-0.013": 0.0,
			"-0.012": 0.0,
			"-0.011": 0.0,
			"-0.01": 0.0,
			"-0.009": 0.0,
			"-0.008": 0.0,
			"-0.007": 0.0,
			"-0.006": 0.625739148888,
			"-0.005": 7.14089345238,
			"-0.004": 13.2286102551,
			"-0.003": 16.0395921805,
			"-0.002": 31.3888207628,
			"-0.001": 35.8109692511,
			"0.0": 35.1048051397,
			"0.001": 29.2744848043,
			"0.002": 15.1996834864,
			"0.003": 7.11110399003,
			"0.004": 8.23407002905,
			"0.005": 7.14527851521,
			"0.006": 8.03993256113,
			"0.007": 5.85485744644,
			"0.008": 0.0326597878371,
			"0.009": 0.0,
			"0.01": 0.0,
			"0.011": 0.0,
			"0.012": 0.0,
			"0.013": 0.0,
			"0.014": 0.0,
			"0.015": 0.0,
			"0.016": 0.0,
			"0.017": 0.0,
			"0.018": 0.0,
			"0.019": 0.0,
			"0.02": 0.0,
			"0.021": 0.0,
			"0.022": 0.0,
			"0.023": 0.0,
			"0.024": 0.0,
			"0.025": 0.0
		}
	}
}
