{
	 "smiles": "[O-][N+](=O)C1=C(C=C2OCCCOC2=C1)S(Cl)(=O)=O", 
	 "Tm": 399.15, 
	 "num_atms": 26, 
	 "gaussian": { 
		 "optdone": 1, 
		 "sigma_profile": "yes", 
		 "theory": "DFT", 
		 "functional": "B3LYP", 
		 "basiset": "6-31G**", 
		 "properties": { 
			 "R2extent": 7066.7717, 
			 "electric_dipole_moment_norm": 9.63163020314, 
			 "electric_quadrupole_moment_norm": 16.5807966163, 
			 "total_energy": -1712.04094361, 
			 "HOMO_LUMO_gap": 0.16278, 
			 "cosmo_polarized_energy": -16.62, 
			 "cosmo_cavitation_energy": 33.44, 
			 "cosmo_dispersion_energy": -25.24, 
			 "cosmo_repulsion_energy": 1.9, 
			 "cosmo_total_nonelectrostatic_energy": 10.1, 
			 "SMD_solvation_energy": 6.67 
		},
		"coords": [
			{
				"x": -4.0914978947,
				"y": -2.0186191406,
				"z": -1.5554207996,
				"element": "O" 
			},
			{
				"x": -3.2109342573,
				"y": -2.5420149694,
				"z": -0.8825556941,
				"element": "N" 
			},
			{
				"x": -3.2372983886,
				"y": -3.685619883,
				"z": -0.4327343589,
				"element": "O" 
			},
			{
				"x": -1.9948780071,
				"y": -1.7514620802,
				"z": -0.6308071217,
				"element": "C" 
			},
			{
				"x": -1.9694837299,
				"y": -0.3466112229,
				"z": -0.5871918829,
				"element": "C" 
			},
			{
				"x": -0.7480572734,
				"y": 0.2943651664,
				"z": -0.4047380804,
				"element": "C" 
			},
			{
				"x": 0.4524846768,
				"y": -0.4183188712,
				"z": -0.2952588762,
				"element": "C" 
			},
			{
				"x": 1.5891837012,
				"y": 0.3264019376,
				"z": -0.2424586492,
				"element": "O" 
			},
			{
				"x": 2.558045069,
				"y": 0.0679008157,
				"z": 0.7871505318,
				"element": "C" 
			},
			{
				"x": 3.343235922,
				"y": -1.2168888068,
				"z": 0.5664646371,
				"element": "C" 
			},
			{
				"x": 2.4951561962,
				"y": -2.4701920817,
				"z": 0.7280935448,
				"element": "C" 
			},
			{
				"x": 1.51362214,
				"y": -2.6333462722,
				"z": -0.3091017829,
				"element": "O" 
			},
			{
				"x": 0.416555789,
				"y": -1.8296378792,
				"z": -0.3258185729,
				"element": "C" 
			},
			{
				"x": -0.8165970274,
				"y": -2.4694801594,
				"z": -0.4830507694,
				"element": "C" 
			},
			{
				"x": -3.4074062899,
				"y": 0.7526596484,
				"z": -0.5372606212,
				"element": "S" 
			},
			{
				"x": -3.9475254736,
				"y": 0.9366663037,
				"z": -2.5671274207,
				"element": "Cl" 
			},
			{
				"x": -2.9167492641,
				"y": 2.0732017054,
				"z": -0.1576034581,
				"element": "O" 
			},
			{
				"x": -4.4966691531,
				"y": 0.120078704,
				"z": 0.1893406661,
				"element": "O" 
			},
			{
				"x": -0.707016231,
				"y": 1.3748973237,
				"z": -0.3464635861,
				"element": "H" 
			},
			{
				"x": 2.0536198197,
				"y": 0.0546587278,
				"z": 1.7637238264,
				"element": "H" 
			},
			{
				"x": 3.2195264906,
				"y": 0.9362377142,
				"z": 0.7555074692,
				"element": "H" 
			},
			{
				"x": 4.1570836797,
				"y": -1.2545800744,
				"z": 1.3023485558,
				"element": "H" 
			},
			{
				"x": 3.7997255671,
				"y": -1.204757947,
				"z": -0.4292745651,
				"element": "H" 
			},
			{
				"x": 1.992841648,
				"y": -2.4779077016,
				"z": 1.7058217005,
				"element": "H" 
			},
			{
				"x": 3.1129315266,
				"y": -3.3676663725,
				"z": 0.6540046957,
				"element": "H" 
			},
			{
				"x": -0.8471992361,
				"y": -3.5512645847,
				"z": -0.5141893879,
				"element": "H" 
			}
		],
		 "valence_orbital": [ 
			{
				"type": "occ",
				"energy": -0.31855,
				"method": "rhf"
			},
			{
				"type": "occ",
				"energy": -0.30952,
				"method": "rhf"
			},
			{
				"type": "occ",
				"energy": -0.30467,
				"method": "rhf"
			},
			{
				"type": "occ",
				"energy": -0.28909,
				"method": "rhf"
			},
			{
				"type": "occ",
				"energy": -0.26875,
				"method": "rhf"
			},
			{
				"type": "unocc",
				"energy": -0.10597,
				"method": "rhf"
			},
			{
				"type": "unocc",
				"energy": -0.08205,
				"method": "rhf"
			},
			{
				"type": "unocc",
				"energy": -0.05449,
				"method": "rhf"
			},
			{
				"type": "unocc",
				"energy": -0.02657,
				"method": "rhf"
			},
			{
				"type": "unocc",
				"energy": 0.03945,
				"method": "rhf"
			}
		],
		"cosmo_sigma_profile": { 
			"-0.025": 0.0,
			"-0.024": 0.0,
			"-0.023": 0.0,
			"-0.022": 0.0,
			"-0.021": 0.0,
			"-0.02": 0.0,
			"-0.019": 0.0,
			"-0.018": 0.0,
			"-0.017": 0.0,
			"-0.016": 0.0,
			"-0.015": 0.0,
			"-0.014": 0.0,
			"-0.013": 0.0,
			"-0.012": 0.0,
			"-0.011": 0.0,
			"-0.01": 0.000457614633006,
			"-0.009": 1.16022158306,
			"-0.008": 3.41672624532,
			"-0.007": 9.31697484868,
			"-0.006": 23.4527368675,
			"-0.005": 23.012867419,
			"-0.004": 21.834181184,
			"-0.003": 22.5078780199,
			"-0.002": 22.9289298216,
			"-0.001": 14.3183015723,
			"0.0": 12.8450939082,
			"0.001": 12.3057512367,
			"0.002": 13.4754042261,
			"0.003": 14.7671918418,
			"0.004": 11.809938685,
			"0.005": 9.14918025008,
			"0.006": 10.3899960896,
			"0.007": 18.5450523856,
			"0.008": 16.2564145119,
			"0.009": 7.88124097584,
			"0.01": 0.261412443174,
			"0.011": 0.0,
			"0.012": 0.0,
			"0.013": 0.0,
			"0.014": 0.0,
			"0.015": 0.0,
			"0.016": 0.0,
			"0.017": 0.0,
			"0.018": 0.0,
			"0.019": 0.0,
			"0.02": 0.0,
			"0.021": 0.0,
			"0.022": 0.0,
			"0.023": 0.0,
			"0.024": 0.0,
			"0.025": 0.0
		}
	}
}
