{
	 "smiles": "CC(O)C(=O)NC1=CC=CC=C1", 
	 "Tm": 326.15, 
	 "num_atms": 23, 
	 "gaussian": { 
		 "optdone": 1, 
		 "sigma_profile": "yes", 
		 "theory": "DFT", 
		 "functional": "B3LYP", 
		 "basiset": "6-31G**", 
		 "properties": { 
			 "R2extent": 2548.2568, 
			 "electric_dipole_moment_norm": 1.70930296027, 
			 "electric_quadrupole_moment_norm": 8.50227203928, 
			 "total_energy": -554.78844199, 
			 "HOMO_LUMO_gap": 0.20461, 
			 "cosmo_polarized_energy": -12.29, 
			 "cosmo_cavitation_energy": 26.12, 
			 "cosmo_dispersion_energy": -19.03, 
			 "cosmo_repulsion_energy": 1.54, 
			 "cosmo_total_nonelectrostatic_energy": 8.63, 
			 "SMD_solvation_energy": 5.33 
		},
		"coords": [
			{
				"x": -1.2789469422,
				"y": 1.5192025099,
				"z": -0.9094336319,
				"element": "C" 
			},
			{
				"x": -1.9889582068,
				"y": 0.1695270318,
				"z": -0.9186830504,
				"element": "C" 
			},
			{
				"x": -2.9759775802,
				"y": 0.1719871698,
				"z": 0.1153086969,
				"element": "O" 
			},
			{
				"x": -1.0435018049,
				"y": -1.0471158785,
				"z": -0.8438352919,
				"element": "C" 
			},
			{
				"x": -1.0619066185,
				"y": -1.8644949174,
				"z": -1.759383284,
				"element": "O" 
			},
			{
				"x": -0.1611985724,
				"y": -1.2523395057,
				"z": 0.2007307162,
				"element": "N" 
			},
			{
				"x": 0.1949083493,
				"y": -0.5745226033,
				"z": 1.3934421451,
				"element": "C" 
			},
			{
				"x": 1.5267988877,
				"y": -0.702373752,
				"z": 1.8218936084,
				"element": "C" 
			},
			{
				"x": 1.9472533492,
				"y": -0.1128460754,
				"z": 3.0112592086,
				"element": "C" 
			},
			{
				"x": 1.0502437282,
				"y": 0.623244972,
				"z": 3.787905913,
				"element": "C" 
			},
			{
				"x": -0.2731653876,
				"y": 0.7471187365,
				"z": 3.3638903105,
				"element": "C" 
			},
			{
				"x": -0.7125274438,
				"y": 0.1444821465,
				"z": 2.1839610796,
				"element": "C" 
			},
			{
				"x": -2.0198869965,
				"y": 2.3116870283,
				"z": -1.04598069,
				"element": "H" 
			},
			{
				"x": -0.5599253917,
				"y": 1.5695750588,
				"z": -1.7324664293,
				"element": "H" 
			},
			{
				"x": -0.7516306512,
				"y": 1.6987368111,
				"z": 0.028891316,
				"element": "H" 
			},
			{
				"x": -2.4738665278,
				"y": 0.030581878,
				"z": -1.8924818059,
				"element": "H" 
			},
			{
				"x": -3.5197390155,
				"y": -0.6201445904,
				"z": 0.0083667278,
				"element": "H" 
			},
			{
				"x": 0.4147477939,
				"y": -2.0591938527,
				"z": -0.0120012551,
				"element": "H" 
			},
			{
				"x": 2.2324300942,
				"y": -1.2611763514,
				"z": 1.2120892379,
				"element": "H" 
			},
			{
				"x": 2.9809876141,
				"y": -0.2241915527,
				"z": 3.3257156839,
				"element": "H" 
			},
			{
				"x": 1.3777816168,
				"y": 1.0886440733,
				"z": 4.7124500179,
				"element": "H" 
			},
			{
				"x": -0.985302004,
				"y": 1.3064655992,
				"z": 3.9641811999,
				"element": "H" 
			},
			{
				"x": -1.7460182905,
				"y": 0.2254460639,
				"z": 1.8714795768,
				"element": "H" 
			}
		],
		 "valence_orbital": [ 
			{
				"type": "occ",
				"energy": -0.29969,
				"method": "rhf"
			},
			{
				"type": "occ",
				"energy": -0.29312,
				"method": "rhf"
			},
			{
				"type": "occ",
				"energy": -0.25454,
				"method": "rhf"
			},
			{
				"type": "occ",
				"energy": -0.25039,
				"method": "rhf"
			},
			{
				"type": "occ",
				"energy": -0.22227,
				"method": "rhf"
			},
			{
				"type": "unocc",
				"energy": -0.01766,
				"method": "rhf"
			},
			{
				"type": "unocc",
				"energy": -0.00614,
				"method": "rhf"
			},
			{
				"type": "unocc",
				"energy": 0.02429,
				"method": "rhf"
			},
			{
				"type": "unocc",
				"energy": 0.07425,
				"method": "rhf"
			},
			{
				"type": "unocc",
				"energy": 0.08979,
				"method": "rhf"
			}
		],
		"cosmo_sigma_profile": { 
			"-0.025": 0.0,
			"-0.024": 0.0,
			"-0.023": 0.0,
			"-0.022": 0.0,
			"-0.021": 0.0,
			"-0.02": 0.0,
			"-0.019": 0.0,
			"-0.018": 0.0,
			"-0.017": 0.406324625039,
			"-0.016": 1.18220995814,
			"-0.015": 0.819065052464,
			"-0.014": 1.62876385259,
			"-0.013": 1.55739027541,
			"-0.012": 2.24100853629,
			"-0.011": 2.23964248306,
			"-0.01": 1.93955355154,
			"-0.009": 1.31335808957,
			"-0.008": 2.62939638323,
			"-0.007": 2.46447400923,
			"-0.006": 6.67556195939,
			"-0.005": 12.9597386667,
			"-0.004": 16.4972806201,
			"-0.003": 16.4283967335,
			"-0.002": 14.6711834833,
			"-0.001": 15.2022557026,
			"0.0": 17.0095762791,
			"0.001": 14.1741233681,
			"0.002": 10.9336312256,
			"0.003": 12.5318043918,
			"0.004": 10.7651741005,
			"0.005": 10.5629311551,
			"0.006": 7.22046419913,
			"0.007": 2.45201687371,
			"0.008": 1.94303652959,
			"0.009": 1.31897544499,
			"0.01": 2.55125368345,
			"0.011": 2.56219396785,
			"0.012": 3.35067728448,
			"0.013": 5.97313524154,
			"0.014": 2.47263923709,
			"0.015": 0.0690812796651,
			"0.016": 0.0,
			"0.017": 0.0,
			"0.018": 0.0,
			"0.019": 0.0,
			"0.02": 0.0,
			"0.021": 0.0,
			"0.022": 0.0,
			"0.023": 0.0,
			"0.024": 0.0,
			"0.025": 0.0
		}
	}
}
