{
	 "smiles": "CC(C)CCCCCCCOC(=O)CCCCC(=O)OCCCCCCCC(C)C", 
	 "Tm": 300.55, 
	 "num_atms": 80, 
	 "gaussian": { 
		 "optdone": 1, 
		 "sigma_profile": "yes", 
		 "theory": "DFT", 
		 "functional": "B3LYP", 
		 "basiset": "6-31G**", 
		 "properties": { 
			 "R2extent": 20219.1324, 
			 "electric_dipole_moment_norm": 3.0544213691, 
			 "electric_quadrupole_moment_norm": 10.4155507276, 
			 "total_energy": -1321.89620086, 
			 "HOMO_LUMO_gap": 0.27424, 
			 "cosmo_polarized_energy": -11.83, 
			 "cosmo_cavitation_energy": 78.06, 
			 "cosmo_dispersion_energy": -45.44, 
			 "cosmo_repulsion_energy": 3.54, 
			 "cosmo_total_nonelectrostatic_energy": 36.16, 
			 "SMD_solvation_energy": 12.22 
		},
		"coords": [
			{
				"x": -2.3144539614,
				"y": 0.528548396,
				"z": 6.9603103839,
				"element": "C" 
			},
			{
				"x": -2.2609499638,
				"y": 0.170768447,
				"z": 5.4673685428,
				"element": "C" 
			},
			{
				"x": -3.6757973369,
				"y": 0.1418367851,
				"z": 4.8708595151,
				"element": "C" 
			},
			{
				"x": -1.4798617975,
				"y": -1.1438477186,
				"z": 5.2580812395,
				"element": "C" 
			},
			{
				"x": -1.2411153476,
				"y": -1.5683907365,
				"z": 3.7900589212,
				"element": "C" 
			},
			{
				"x": -2.2353631821,
				"y": -2.6109569945,
				"z": 3.2509457968,
				"element": "C" 
			},
			{
				"x": -1.9460624614,
				"y": -3.0830781468,
				"z": 1.8158550916,
				"element": "C" 
			},
			{
				"x": -2.1557386878,
				"y": -2.0043642314,
				"z": 0.7415702623,
				"element": "C" 
			},
			{
				"x": -2.0436780876,
				"y": -2.5158167553,
				"z": -0.7036621797,
				"element": "C" 
			},
			{
				"x": -0.665465387,
				"y": -3.027533035,
				"z": -1.1142502703,
				"element": "C" 
			},
			{
				"x": 0.2945784559,
				"y": -1.9411072576,
				"z": -1.1281980942,
				"element": "O" 
			},
			{
				"x": 1.3074713403,
				"y": -1.9681337807,
				"z": -0.2301938591,
				"element": "C" 
			},
			{
				"x": 1.446549625,
				"y": -2.8230845571,
				"z": 0.6205036138,
				"element": "O" 
			},
			{
				"x": 2.2541971408,
				"y": -0.805631333,
				"z": -0.4638605335,
				"element": "C" 
			},
			{
				"x": 3.2016512933,
				"y": -0.5270453892,
				"z": 0.709304146,
				"element": "C" 
			},
			{
				"x": 2.5257768888,
				"y": -0.0536530293,
				"z": 2.0075109464,
				"element": "C" 
			},
			{
				"x": 1.6587285165,
				"y": 1.2081675384,
				"z": 1.8651943933,
				"element": "C" 
			},
			{
				"x": 2.4465078921,
				"y": 2.4097548687,
				"z": 1.3773891434,
				"element": "C" 
			},
			{
				"x": 3.5663027033,
				"y": 2.702721991,
				"z": 1.741285329,
				"element": "O" 
			},
			{
				"x": 1.7384928608,
				"y": 3.1302512302,
				"z": 0.4782466108,
				"element": "O" 
			},
			{
				"x": 2.380585168,
				"y": 4.3145236066,
				"z": -0.0514015173,
				"element": "C" 
			},
			{
				"x": 1.5716567863,
				"y": 4.7856169821,
				"z": -1.2508997716,
				"element": "C" 
			},
			{
				"x": 1.5743430098,
				"y": 3.7954705121,
				"z": -2.4231357482,
				"element": "C" 
			},
			{
				"x": 0.7265480276,
				"y": 4.2682269338,
				"z": -3.611622698,
				"element": "C" 
			},
			{
				"x": 0.7705990929,
				"y": 3.3421904874,
				"z": -4.8384007603,
				"element": "C" 
			},
			{
				"x": 0.1549414283,
				"y": 1.9511395499,
				"z": -4.6234232449,
				"element": "C" 
			},
			{
				"x": 0.1478891395,
				"y": 1.1041937662,
				"z": -5.9036882986,
				"element": "C" 
			},
			{
				"x": -0.5315481102,
				"y": -0.2746940857,
				"z": -5.7851542277,
				"element": "C" 
			},
			{
				"x": -0.6602900543,
				"y": -0.928039457,
				"z": -7.169790511,
				"element": "C" 
			},
			{
				"x": 0.2015557335,
				"y": -1.2145460006,
				"z": -4.8151189762,
				"element": "C" 
			},
			{
				"x": -2.8151733674,
				"y": 1.489439895,
				"z": 7.1221179427,
				"element": "H" 
			},
			{
				"x": -1.3100712298,
				"y": 0.596577662,
				"z": 7.3926838759,
				"element": "H" 
			},
			{
				"x": -2.8677863077,
				"y": -0.2320084125,
				"z": 7.5250508343,
				"element": "H" 
			},
			{
				"x": -1.7000679818,
				"y": 0.9667010672,
				"z": 4.9530641844,
				"element": "H" 
			},
			{
				"x": -4.275767302,
				"y": -0.6585346691,
				"z": 5.3214949457,
				"element": "H" 
			},
			{
				"x": -4.1958702826,
				"y": 1.0885712923,
				"z": 5.0553474006,
				"element": "H" 
			},
			{
				"x": -3.6617760661,
				"y": -0.0191582827,
				"z": 3.7887128502,
				"element": "H" 
			},
			{
				"x": -1.9943231587,
				"y": -1.9543406279,
				"z": 5.7953145967,
				"element": "H" 
			},
			{
				"x": -0.5090550706,
				"y": -1.0295097716,
				"z": 5.7569948196,
				"element": "H" 
			},
			{
				"x": -0.2332164216,
				"y": -1.9934260157,
				"z": 3.697212115,
				"element": "H" 
			},
			{
				"x": -1.2461389138,
				"y": -0.6748096771,
				"z": 3.1513139467,
				"element": "H" 
			},
			{
				"x": -3.2605762858,
				"y": -2.2223721137,
				"z": 3.3063877548,
				"element": "H" 
			},
			{
				"x": -2.2088552538,
				"y": -3.4838080119,
				"z": 3.9171198483,
				"element": "H" 
			},
			{
				"x": -2.602599087,
				"y": -3.9350344559,
				"z": 1.5889137736,
				"element": "H" 
			},
			{
				"x": -0.9167660759,
				"y": -3.4589060199,
				"z": 1.7643522733,
				"element": "H" 
			},
			{
				"x": -1.4423587951,
				"y": -1.1834049987,
				"z": 0.8836382061,
				"element": "H" 
			},
			{
				"x": -3.1530357111,
				"y": -1.5616716245,
				"z": 0.8687543128,
				"element": "H" 
			},
			{
				"x": -2.7533127316,
				"y": -3.3405371244,
				"z": -0.8588202548,
				"element": "H" 
			},
			{
				"x": -2.3367999913,
				"y": -1.7193424017,
				"z": -1.3985848248,
				"element": "H" 
			},
			{
				"x": -0.6903580541,
				"y": -3.4074982618,
				"z": -2.1398493615,
				"element": "H" 
			},
			{
				"x": -0.2977281516,
				"y": -3.811433398,
				"z": -0.4504991452,
				"element": "H" 
			},
			{
				"x": 1.6638951418,
				"y": 0.0740018895,
				"z": -0.7404637537,
				"element": "H" 
			},
			{
				"x": 2.8365478342,
				"y": -1.0571969212,
				"z": -1.3604928966,
				"element": "H" 
			},
			{
				"x": 3.7646851269,
				"y": -1.4401253434,
				"z": 0.928027215,
				"element": "H" 
			},
			{
				"x": 3.9311248755,
				"y": 0.2258057666,
				"z": 0.3895835682,
				"element": "H" 
			},
			{
				"x": 1.9025576149,
				"y": -0.8594720136,
				"z": 2.4077756383,
				"element": "H" 
			},
			{
				"x": 3.3079670227,
				"y": 0.1480462286,
				"z": 2.746357256,
				"element": "H" 
			},
			{
				"x": 1.2499164732,
				"y": 1.4744938038,
				"z": 2.8485505313,
				"element": "H" 
			},
			{
				"x": 0.8006729642,
				"y": 1.0502779643,
				"z": 1.2063451463,
				"element": "H" 
			},
			{
				"x": 2.4172365851,
				"y": 5.073356099,
				"z": 0.7377674984,
				"element": "H" 
			},
			{
				"x": 3.4119343703,
				"y": 4.0664194812,
				"z": -0.3210862287,
				"element": "H" 
			},
			{
				"x": 0.5408725177,
				"y": 4.9829280451,
				"z": -0.9295308608,
				"element": "H" 
			},
			{
				"x": 1.9868503264,
				"y": 5.749485144,
				"z": -1.574544575,
				"element": "H" 
			},
			{
				"x": 1.2114407771,
				"y": 2.8262681998,
				"z": -2.0636867302,
				"element": "H" 
			},
			{
				"x": 2.6100665588,
				"y": 3.6346431833,
				"z": -2.7564099923,
				"element": "H" 
			},
			{
				"x": -0.3166413436,
				"y": 4.3893371349,
				"z": -3.2860167235,
				"element": "H" 
			},
			{
				"x": 1.0664818806,
				"y": 5.2684211164,
				"z": -3.9139046314,
				"element": "H" 
			},
			{
				"x": 0.2447176295,
				"y": 3.8349105112,
				"z": -5.6674423924,
				"element": "H" 
			},
			{
				"x": 1.813378851,
				"y": 3.2294066416,
				"z": -5.1686475729,
				"element": "H" 
			},
			{
				"x": -0.8766721895,
				"y": 2.066197228,
				"z": -4.2592902011,
				"element": "H" 
			},
			{
				"x": 0.7004198351,
				"y": 1.4232430631,
				"z": -3.8324121517,
				"element": "H" 
			},
			{
				"x": -0.3584319936,
				"y": 1.6742936787,
				"z": -6.6955523395,
				"element": "H" 
			},
			{
				"x": 1.1822463411,
				"y": 0.9611039289,
				"z": -6.2513481578,
				"element": "H" 
			},
			{
				"x": -1.5482513737,
				"y": -0.1120654467,
				"z": -5.3954469671,
				"element": "H" 
			},
			{
				"x": -1.2187098625,
				"y": -0.2901695219,
				"z": -7.8638063604,
				"element": "H" 
			},
			{
				"x": -1.1779559366,
				"y": -1.8916679369,
				"z": -7.1093086378,
				"element": "H" 
			},
			{
				"x": 0.3281552195,
				"y": -1.1109531647,
				"z": -7.6093191732,
				"element": "H" 
			},
			{
				"x": 0.2247315861,
				"y": -0.8314156733,
				"z": -3.7908174024,
				"element": "H" 
			},
			{
				"x": -0.2845869176,
				"y": -2.1964869614,
				"z": -4.7851409879,
				"element": "H" 
			},
			{
				"x": 1.2384356,
				"y": -1.3729687602,
				"z": -5.138241457,
				"element": "H" 
			}
		],
		 "valence_orbital": [ 
			{
				"type": "occ",
				"energy": -0.29817,
				"method": "rhf"
			},
			{
				"type": "occ",
				"energy": -0.29433,
				"method": "rhf"
			},
			{
				"type": "occ",
				"energy": -0.29291,
				"method": "rhf"
			},
			{
				"type": "occ",
				"energy": -0.27237,
				"method": "rhf"
			},
			{
				"type": "occ",
				"energy": -0.26588,
				"method": "rhf"
			},
			{
				"type": "unocc",
				"energy": 0.00836,
				"method": "rhf"
			},
			{
				"type": "unocc",
				"energy": 0.01577,
				"method": "rhf"
			},
			{
				"type": "unocc",
				"energy": 0.05743,
				"method": "rhf"
			},
			{
				"type": "unocc",
				"energy": 0.07628,
				"method": "rhf"
			},
			{
				"type": "unocc",
				"energy": 0.08309,
				"method": "rhf"
			}
		],
		"cosmo_sigma_profile": { 
			"-0.025": 0.0,
			"-0.024": 0.0,
			"-0.023": 0.0,
			"-0.022": 0.0,
			"-0.021": 0.0,
			"-0.02": 0.0,
			"-0.019": 0.0,
			"-0.018": 0.0,
			"-0.017": 0.0,
			"-0.016": 0.0,
			"-0.015": 0.0,
			"-0.014": 0.0,
			"-0.013": 0.0,
			"-0.012": 0.0,
			"-0.011": 0.0,
			"-0.01": 0.0,
			"-0.009": 0.0,
			"-0.008": 0.0,
			"-0.007": 0.127985257724,
			"-0.006": 4.73533934926,
			"-0.005": 11.4817986149,
			"-0.004": 20.2192414742,
			"-0.003": 43.6416367751,
			"-0.002": 89.8652656064,
			"-0.001": 122.538915145,
			"0.0": 112.522143989,
			"0.001": 83.8189803674,
			"0.002": 46.9840210521,
			"0.003": 12.8172488244,
			"0.004": 9.18426399337,
			"0.005": 7.27577770593,
			"0.006": 5.10958164387,
			"0.007": 5.59212469989,
			"0.008": 3.89526527316,
			"0.009": 2.97736304519,
			"0.01": 2.87249696936,
			"0.011": 4.37769552734,
			"0.012": 6.81962851774,
			"0.013": 2.23141759596,
			"0.014": 0.0,
			"0.015": 0.0,
			"0.016": 0.0,
			"0.017": 0.0,
			"0.018": 0.0,
			"0.019": 0.0,
			"0.02": 0.0,
			"0.021": 0.0,
			"0.022": 0.0,
			"0.023": 0.0,
			"0.024": 0.0,
			"0.025": 0.0
		}
	}
}
