{
	 "smiles": "OC(=O)CCN1C(S)=NN=C1C1=CC=CS1", 
	 "Tm": 290.15, 
	 "num_atms": 25, 
	 "gaussian": { 
		 "optdone": 1, 
		 "sigma_profile": "yes", 
		 "theory": "DFT", 
		 "functional": "B3LYP", 
		 "basiset": "6-31G**", 
		 "properties": { 
			 "R2extent": 5718.0568, 
			 "electric_dipole_moment_norm": 2.64716623203, 
			 "electric_quadrupole_moment_norm": 32.5028164087, 
			 "total_energy": -1459.42259678, 
			 "HOMO_LUMO_gap": 0.1715, 
			 "cosmo_polarized_energy": -25.74, 
			 "cosmo_cavitation_energy": 33.09, 
			 "cosmo_dispersion_energy": -24.35, 
			 "cosmo_repulsion_energy": 1.81, 
			 "cosmo_total_nonelectrostatic_energy": 10.56, 
			 "SMD_solvation_energy": 4.4 
		},
		"coords": [
			{
				"x": -1.1052627025,
				"y": 2.2684617247,
				"z": -4.6236110351,
				"element": "O" 
			},
			{
				"x": -1.5101321568,
				"y": 1.8987278522,
				"z": -3.3830209718,
				"element": "C" 
			},
			{
				"x": -2.1462842106,
				"y": 2.6578257512,
				"z": -2.6955911262,
				"element": "O" 
			},
			{
				"x": -1.1083404987,
				"y": 0.494919346,
				"z": -2.9489102937,
				"element": "C" 
			},
			{
				"x": -1.6082374216,
				"y": 0.1943708603,
				"z": -1.5301238906,
				"element": "C" 
			},
			{
				"x": -1.2547539405,
				"y": -1.1525497476,
				"z": -1.0876613321,
				"element": "N" 
			},
			{
				"x": -1.9710734929,
				"y": -2.2991575079,
				"z": -1.3275758831,
				"element": "C" 
			},
			{
				"x": -3.4557372754,
				"y": -2.3148626953,
				"z": -2.2877007916,
				"element": "S" 
			},
			{
				"x": -1.4132466266,
				"y": -3.3425206239,
				"z": -0.7595875092,
				"element": "N" 
			},
			{
				"x": -0.2820839785,
				"y": -2.8929950142,
				"z": -0.1210975169,
				"element": "N" 
			},
			{
				"x": -0.1879789871,
				"y": -1.5901424215,
				"z": -0.313148575,
				"element": "C" 
			},
			{
				"x": 0.8730449486,
				"y": -0.7846947582,
				"z": 0.2718629942,
				"element": "C" 
			},
			{
				"x": 1.6064084728,
				"y": -1.1505464752,
				"z": 1.3783048052,
				"element": "C" 
			},
			{
				"x": 2.6433661827,
				"y": -0.2307576734,
				"z": 1.6977587716,
				"element": "C" 
			},
			{
				"x": 2.7019779576,
				"y": 0.8297510797,
				"z": 0.835359266,
				"element": "C" 
			},
			{
				"x": 1.4869574738,
				"y": 0.7169564931,
				"z": -0.3946787302,
				"element": "S" 
			},
			{
				"x": -0.6089631837,
				"y": 1.5546669622,
				"z": -5.0493975684,
				"element": "H" 
			},
			{
				"x": -0.0161757115,
				"y": 0.4011247256,
				"z": -2.9976060391,
				"element": "H" 
			},
			{
				"x": -1.5188690459,
				"y": -0.2338991493,
				"z": -3.6594983684,
				"element": "H" 
			},
			{
				"x": -2.6949790534,
				"y": 0.3000858005,
				"z": -1.4868120656,
				"element": "H" 
			},
			{
				"x": -1.1982947449,
				"y": 0.9146881469,
				"z": -0.8215918629,
				"element": "H" 
			},
			{
				"x": -3.6348994463,
				"y": -3.6360446578,
				"z": -2.101752685,
				"element": "H" 
			},
			{
				"x": 1.3922033134,
				"y": -2.0587872038,
				"z": 1.9274390507,
				"element": "H" 
			},
			{
				"x": 3.3135209456,
				"y": -0.3481062026,
				"z": 2.5414249761,
				"element": "H" 
			},
			{
				"x": 3.3693331823,
				"y": 1.6799853882,
				"z": 0.8513163811,
				"element": "H" 
			}
		],
		 "valence_orbital": [ 
			{
				"type": "occ",
				"energy": -0.28828,
				"method": "rhf"
			},
			{
				"type": "occ",
				"energy": -0.26815,
				"method": "rhf"
			},
			{
				"type": "occ",
				"energy": -0.26706,
				"method": "rhf"
			},
			{
				"type": "occ",
				"energy": -0.26055,
				"method": "rhf"
			},
			{
				"type": "occ",
				"energy": -0.2187,
				"method": "rhf"
			},
			{
				"type": "unocc",
				"energy": -0.0472,
				"method": "rhf"
			},
			{
				"type": "unocc",
				"energy": -0.01012,
				"method": "rhf"
			},
			{
				"type": "unocc",
				"energy": -0.00553,
				"method": "rhf"
			},
			{
				"type": "unocc",
				"energy": 0.01198,
				"method": "rhf"
			},
			{
				"type": "unocc",
				"energy": 0.02235,
				"method": "rhf"
			}
		],
		"cosmo_sigma_profile": { 
			"-0.025": 0.0,
			"-0.024": 0.0,
			"-0.023": 0.0,
			"-0.022": 0.0,
			"-0.021": 0.0,
			"-0.02": 0.154257540788,
			"-0.019": 1.07097073044,
			"-0.018": 1.16252953302,
			"-0.017": 1.46047004163,
			"-0.016": 1.02219447989,
			"-0.015": 1.12190286571,
			"-0.014": 1.22806900138,
			"-0.013": 1.02871433057,
			"-0.012": 3.24121882827,
			"-0.011": 3.15019227624,
			"-0.01": 1.88506452391,
			"-0.009": 5.09522772878,
			"-0.008": 6.55317543503,
			"-0.007": 13.7554216034,
			"-0.006": 15.705699794,
			"-0.005": 17.1447026445,
			"-0.004": 16.7040754232,
			"-0.003": 11.8858842275,
			"-0.002": 13.0202096865,
			"-0.001": 12.7854762128,
			"0.0": 14.301022592,
			"0.001": 16.5403403539,
			"0.002": 16.6821695655,
			"0.003": 17.5829057504,
			"0.004": 14.1303783979,
			"0.005": 8.45362719362,
			"0.006": 5.72375509609,
			"0.007": 4.22419036107,
			"0.008": 4.79991845517,
			"0.009": 6.56766705339,
			"0.01": 7.256772181,
			"0.011": 6.77724723792,
			"0.012": 6.10975042815,
			"0.013": 4.63677931522,
			"0.014": 2.62253200957,
			"0.015": 2.29261384981,
			"0.016": 1.30533063484,
			"0.017": 0.0482534769324,
			"0.018": 0.0,
			"0.019": 0.0,
			"0.02": 0.0,
			"0.021": 0.0,
			"0.022": 0.0,
			"0.023": 0.0,
			"0.024": 0.0,
			"0.025": 0.0
		}
	}
}
