{
	 "smiles": "CC(=O)NC(CC1=CNC=N1)C(N)=O", 
	 "Tm": 515.15, 
	 "num_atms": 26, 
	 "gaussian": { 
		 "optdone": 1, 
		 "sigma_profile": "yes", 
		 "theory": "DFT", 
		 "functional": "B3LYP", 
		 "basiset": "6-31G**", 
		 "properties": { 
			 "R2extent": 3173.5926, 
			 "electric_dipole_moment_norm": 4.55449993523, 
			 "electric_quadrupole_moment_norm": 15.6375040393, 
			 "total_energy": -681.567109553, 
			 "HOMO_LUMO_gap": 0.23359, 
			 "cosmo_polarized_energy": -24.82, 
			 "cosmo_cavitation_energy": 30.29, 
			 "cosmo_dispersion_energy": -21.07, 
			 "cosmo_repulsion_energy": 1.69, 
			 "cosmo_total_nonelectrostatic_energy": 10.91, 
			 "SMD_solvation_energy": 6.19 
		},
		"coords": [
			{
				"x": 0.7043970684,
				"y": -2.2015802823,
				"z": 1.7838870772,
				"element": "C" 
			},
			{
				"x": 1.867377085,
				"y": -2.0219094201,
				"z": 0.8232191301,
				"element": "C" 
			},
			{
				"x": 2.9691482775,
				"y": -2.5119502428,
				"z": 1.0201531947,
				"element": "O" 
			},
			{
				"x": 1.6222113886,
				"y": -1.3028872023,
				"z": -0.3400257358,
				"element": "N" 
			},
			{
				"x": 0.5166827875,
				"y": -0.3687686748,
				"z": -0.5413219462,
				"element": "C" 
			},
			{
				"x": 0.7556155307,
				"y": 1.0448843363,
				"z": 0.049895955,
				"element": "C" 
			},
			{
				"x": -0.5105371633,
				"y": 1.6819812616,
				"z": 0.5355062893,
				"element": "C" 
			},
			{
				"x": -1.2985035751,
				"y": 2.6334960765,
				"z": -0.0634121378,
				"element": "C" 
			},
			{
				"x": -2.3545739547,
				"y": 2.8337174582,
				"z": 0.8028832445,
				"element": "N" 
			},
			{
				"x": -2.1688791639,
				"y": 2.0006475742,
				"z": 1.869078542,
				"element": "C" 
			},
			{
				"x": -1.0689055638,
				"y": 1.2905877455,
				"z": 1.7400263666,
				"element": "N" 
			},
			{
				"x": 0.144348479,
				"y": -0.2887895548,
				"z": -2.0389317909,
				"element": "C" 
			},
			{
				"x": 0.2127716931,
				"y": -1.4770396479,
				"z": -2.7010010332,
				"element": "N" 
			},
			{
				"x": -0.2203838418,
				"y": 0.7527660315,
				"z": -2.5670356221,
				"element": "O" 
			},
			{
				"x": 0.3197305153,
				"y": -1.2433007897,
				"z": 2.1500095988,
				"element": "H" 
			},
			{
				"x": 1.0587532061,
				"y": -2.799510555,
				"z": 2.6230634045,
				"element": "H" 
			},
			{
				"x": -0.1282474525,
				"y": -2.724601354,
				"z": 1.2999023289,
				"element": "H" 
			},
			{
				"x": 2.4842490693,
				"y": -1.1006309397,
				"z": -0.8360918841,
				"element": "H" 
			},
			{
				"x": -0.356775816,
				"y": -0.7975026747,
				"z": -0.0403196542,
				"element": "H" 
			},
			{
				"x": 1.4363418739,
				"y": 0.9397939282,
				"z": 0.9004838288,
				"element": "H" 
			},
			{
				"x": 1.2398989654,
				"y": 1.6768495491,
				"z": -0.6989366272,
				"element": "H" 
			},
			{
				"x": -1.2155902032,
				"y": 3.1410297205,
				"z": -1.010897081,
				"element": "H" 
			},
			{
				"x": -3.1203335101,
				"y": 3.4761588163,
				"z": 0.6694260215,
				"element": "H" 
			},
			{
				"x": -2.8580621407,
				"y": 1.9606312748,
				"z": 2.701524412,
				"element": "H" 
			},
			{
				"x": 0.6437149857,
				"y": -2.2786755396,
				"z": -2.2675664763,
				"element": "H" 
			},
			{
				"x": 0.0117514595,
				"y": -1.4840968949,
				"z": -3.689119405,
				"element": "H" 
			}
		],
		 "valence_orbital": [ 
			{
				"type": "occ",
				"energy": -0.27166,
				"method": "rhf"
			},
			{
				"type": "occ",
				"energy": -0.26413,
				"method": "rhf"
			},
			{
				"type": "occ",
				"energy": -0.25624,
				"method": "rhf"
			},
			{
				"type": "occ",
				"energy": -0.24009,
				"method": "rhf"
			},
			{
				"type": "occ",
				"energy": -0.21884,
				"method": "rhf"
			},
			{
				"type": "unocc",
				"energy": 0.01475,
				"method": "rhf"
			},
			{
				"type": "unocc",
				"energy": 0.02545,
				"method": "rhf"
			},
			{
				"type": "unocc",
				"energy": 0.02882,
				"method": "rhf"
			},
			{
				"type": "unocc",
				"energy": 0.06665,
				"method": "rhf"
			},
			{
				"type": "unocc",
				"energy": 0.07381,
				"method": "rhf"
			}
		],
		"cosmo_sigma_profile": { 
			"-0.025": 0.0,
			"-0.024": 0.0,
			"-0.023": 0.0,
			"-0.022": 0.0,
			"-0.021": 0.0,
			"-0.02": 0.0,
			"-0.019": 0.0,
			"-0.018": 0.0,
			"-0.017": 0.178600794103,
			"-0.016": 1.6841761107,
			"-0.015": 1.96868527528,
			"-0.014": 2.04842276438,
			"-0.013": 3.6599734743,
			"-0.012": 4.54204236834,
			"-0.011": 4.01240657027,
			"-0.01": 4.08240557472,
			"-0.009": 5.37599704711,
			"-0.008": 7.32707935503,
			"-0.007": 10.4177861988,
			"-0.006": 10.8781175972,
			"-0.005": 10.61527769,
			"-0.004": 12.1763902454,
			"-0.003": 14.7123305594,
			"-0.002": 14.4067223204,
			"-0.001": 16.0531391723,
			"0.0": 12.3312179526,
			"0.001": 8.56753598931,
			"0.002": 10.6646337629,
			"0.003": 9.28414231103,
			"0.004": 10.3770715008,
			"0.005": 9.05334841463,
			"0.006": 6.77501194806,
			"0.007": 4.80227579756,
			"0.008": 5.0223459114,
			"0.009": 4.89927763351,
			"0.01": 5.26417292665,
			"0.011": 4.27449984972,
			"0.012": 5.15741433245,
			"0.013": 8.68365772717,
			"0.014": 7.54937388123,
			"0.015": 1.77539790581,
			"0.016": 0.157813827531,
			"0.017": 0.0,
			"0.018": 0.0,
			"0.019": 0.0,
			"0.02": 0.0,
			"0.021": 0.0,
			"0.022": 0.0,
			"0.023": 0.0,
			"0.024": 0.0,
			"0.025": 0.0
		}
	}
}
