{
	 "smiles": "CC(C(O)=O)C1=CC=C(C=C1)S(=O)(=O)N(C)C", 
	 "Tm": 396.15, 
	 "num_atms": 32, 
	 "gaussian": { 
		 "optdone": 1, 
		 "sigma_profile": "yes", 
		 "theory": "DFT", 
		 "functional": "B3LYP", 
		 "basiset": "6-31G**", 
		 "properties": { 
			 "R2extent": 5942.301, 
			 "electric_dipole_moment_norm": 4.68378652801, 
			 "electric_quadrupole_moment_norm": 23.3349814645, 
			 "total_energy": -1181.99146635, 
			 "HOMO_LUMO_gap": 0.20736, 
			 "cosmo_polarized_energy": -19.54, 
			 "cosmo_cavitation_energy": 36.5, 
			 "cosmo_dispersion_energy": -25.72, 
			 "cosmo_repulsion_energy": 1.97, 
			 "cosmo_total_nonelectrostatic_energy": 12.75, 
			 "SMD_solvation_energy": 5.99 
		},
		"coords": [
			{
				"x": 0.8710025868,
				"y": -2.5302408278,
				"z": 4.2411416822,
				"element": "C" 
			},
			{
				"x": 1.0656450642,
				"y": -1.1282654455,
				"z": 3.6301184341,
				"element": "C" 
			},
			{
				"x": 2.5206468496,
				"y": -0.6697909265,
				"z": 3.6692662897,
				"element": "C" 
			},
			{
				"x": 3.3863672735,
				"y": -1.6408673589,
				"z": 3.2809140518,
				"element": "O" 
			},
			{
				"x": 2.891126498,
				"y": 0.4347682175,
				"z": 3.9950672665,
				"element": "O" 
			},
			{
				"x": 0.5125732301,
				"y": -1.0352797096,
				"z": 2.2098674498,
				"element": "C" 
			},
			{
				"x": -0.5938082049,
				"y": -0.2166014952,
				"z": 1.9480016967,
				"element": "C" 
			},
			{
				"x": -1.1416376217,
				"y": -0.1353597815,
				"z": 0.6684258151,
				"element": "C" 
			},
			{
				"x": -0.5708759409,
				"y": -0.8798198869,
				"z": -0.3658884697,
				"element": "C" 
			},
			{
				"x": 0.530927031,
				"y": -1.7062116943,
				"z": -0.1269722452,
				"element": "C" 
			},
			{
				"x": 1.0662853175,
				"y": -1.7801479274,
				"z": 1.1571433458,
				"element": "C" 
			},
			{
				"x": -1.2352845405,
				"y": -0.7420308957,
				"z": -2.0316831909,
				"element": "S" 
			},
			{
				"x": -0.8590061678,
				"y": -1.9596128176,
				"z": -2.7527237632,
				"element": "O" 
			},
			{
				"x": -2.6271734998,
				"y": -0.3040702794,
				"z": -1.9103882562,
				"element": "O" 
			},
			{
				"x": -0.4056802015,
				"y": 0.5257647949,
				"z": -2.7818104697,
				"element": "N" 
			},
			{
				"x": 1.0010048307,
				"y": 0.27885883,
				"z": -3.1046938676,
				"element": "C" 
			},
			{
				"x": -0.7022776254,
				"y": 1.8738323238,
				"z": -2.2927568855,
				"element": "C" 
			},
			{
				"x": 1.3969786994,
				"y": -3.2923974148,
				"z": 3.662333941,
				"element": "H" 
			},
			{
				"x": -0.1929609166,
				"y": -2.7819887132,
				"z": 4.2566048349,
				"element": "H" 
			},
			{
				"x": 1.2470772327,
				"y": -2.5629329832,
				"z": 5.2683196331,
				"element": "H" 
			},
			{
				"x": 0.5360361219,
				"y": -0.3931473505,
				"z": 4.2420269496,
				"element": "H" 
			},
			{
				"x": 4.2721973937,
				"y": -1.241479151,
				"z": 3.3171716434,
				"element": "H" 
			},
			{
				"x": -1.0383065687,
				"y": 0.3582389993,
				"z": 2.7557490952,
				"element": "H" 
			},
			{
				"x": -2.0164522292,
				"y": 0.4755310264,
				"z": 0.474897136,
				"element": "H" 
			},
			{
				"x": 0.9415387451,
				"y": -2.3017590023,
				"z": -0.9349253279,
				"element": "H" 
			},
			{
				"x": 1.9234588274,
				"y": -2.4190456068,
				"z": 1.3427204468,
				"element": "H" 
			},
			{
				"x": 1.3080448798,
				"y": 1.0098441551,
				"z": -3.8583847758,
				"element": "H" 
			},
			{
				"x": 1.6635151268,
				"y": 0.3804200732,
				"z": -2.2310012488,
				"element": "H" 
			},
			{
				"x": 1.1042766937,
				"y": -0.7195158046,
				"z": -3.5287630871,
				"element": "H" 
			},
			{
				"x": -1.7780417079,
				"y": 1.9796710403,
				"z": -2.1558481711,
				"element": "H" 
			},
			{
				"x": -0.1841089695,
				"y": 2.1094064795,
				"z": -1.3501845556,
				"element": "H" 
			},
			{
				"x": -0.3771882076,
				"y": 2.5886291332,
				"z": -3.0543453973,
				"element": "H" 
			}
		],
		 "valence_orbital": [ 
			{
				"type": "occ",
				"energy": -0.29906,
				"method": "rhf"
			},
			{
				"type": "occ",
				"energy": -0.2903,
				"method": "rhf"
			},
			{
				"type": "occ",
				"energy": -0.27417,
				"method": "rhf"
			},
			{
				"type": "occ",
				"energy": -0.27144,
				"method": "rhf"
			},
			{
				"type": "occ",
				"energy": -0.25209,
				"method": "rhf"
			},
			{
				"type": "unocc",
				"energy": -0.04473,
				"method": "rhf"
			},
			{
				"type": "unocc",
				"energy": -0.02675,
				"method": "rhf"
			},
			{
				"type": "unocc",
				"energy": 0.00226,
				"method": "rhf"
			},
			{
				"type": "unocc",
				"energy": 0.056,
				"method": "rhf"
			},
			{
				"type": "unocc",
				"energy": 0.06712,
				"method": "rhf"
			}
		],
		"cosmo_sigma_profile": { 
			"-0.025": 0.0,
			"-0.024": 0.0,
			"-0.023": 0.0,
			"-0.022": 0.0,
			"-0.021": 0.0,
			"-0.02": 0.0,
			"-0.019": 0.0834483020553,
			"-0.018": 0.969180225256,
			"-0.017": 0.67042260356,
			"-0.016": 1.09986370279,
			"-0.015": 0.406720902445,
			"-0.014": 0.67921886098,
			"-0.013": 0.579435454964,
			"-0.012": 1.16685024646,
			"-0.011": 1.0071400002,
			"-0.01": 0.441839245974,
			"-0.009": 0.524132654667,
			"-0.008": 1.2161219354,
			"-0.007": 7.03324908343,
			"-0.006": 15.0237737993,
			"-0.005": 19.3667277009,
			"-0.004": 29.7248201181,
			"-0.003": 32.3927121009,
			"-0.002": 29.8953484467,
			"-0.001": 17.7312290554,
			"0.0": 17.289491514,
			"0.001": 15.2952810851,
			"0.002": 17.6373595276,
			"0.003": 11.7306345957,
			"0.004": 5.88371935482,
			"0.005": 6.17239324906,
			"0.006": 6.30511227746,
			"0.007": 6.54736025765,
			"0.008": 7.12813751658,
			"0.009": 4.80647525665,
			"0.01": 8.23688941474,
			"0.011": 12.8534180073,
			"0.012": 7.67637284565,
			"0.013": 0.467997044257,
			"0.014": 0.0,
			"0.015": 0.0,
			"0.016": 0.0,
			"0.017": 0.0,
			"0.018": 0.0,
			"0.019": 0.0,
			"0.02": 0.0,
			"0.021": 0.0,
			"0.022": 0.0,
			"0.023": 0.0,
			"0.024": 0.0,
			"0.025": 0.0
		}
	}
}
