{
	 "smiles": "OC(=O)C1=CN2C(C=C1)=NN=C2C(F)F", 
	 "Tm": 552.15, 
	 "num_atms": 20, 
	 "gaussian": { 
		 "optdone": 1, 
		 "sigma_profile": "yes", 
		 "theory": "DFT", 
		 "functional": "B3LYP", 
		 "basiset": "6-31G**", 
		 "properties": { 
			 "R2extent": 4264.1374, 
			 "electric_dipole_moment_norm": 4.9382074683, 
			 "electric_quadrupole_moment_norm": 12.1346559564, 
			 "total_energy": -822.218405071, 
			 "HOMO_LUMO_gap": 0.16666, 
			 "cosmo_polarized_energy": -18.76, 
			 "cosmo_cavitation_energy": 26.56, 
			 "cosmo_dispersion_energy": -19.41, 
			 "cosmo_repulsion_energy": 1.46, 
			 "cosmo_total_nonelectrostatic_energy": 8.61, 
			 "SMD_solvation_energy": 4.87 
		},
		"coords": [
			{
				"x": -2.5558868165,
				"y": -0.3745589791,
				"z": -2.5610221306,
				"element": "O" 
			},
			{
				"x": -1.2209582394,
				"y": -0.5816596552,
				"z": -2.6326652427,
				"element": "C" 
			},
			{
				"x": -0.6140719403,
				"y": -0.6064143899,
				"z": -3.6840746107,
				"element": "O" 
			},
			{
				"x": -0.6031966758,
				"y": -0.7728467319,
				"z": -1.2937549886,
				"element": "C" 
			},
			{
				"x": 0.7516203697,
				"y": -0.9729223198,
				"z": -1.2685725917,
				"element": "C" 
			},
			{
				"x": 1.3674088251,
				"y": -1.163266769,
				"z": -0.0586353642,
				"element": "N" 
			},
			{
				"x": 0.6649829228,
				"y": -1.141122194,
				"z": 1.1576656573,
				"element": "C" 
			},
			{
				"x": -0.7369833098,
				"y": -0.9237146481,
				"z": 1.1295821915,
				"element": "C" 
			},
			{
				"x": -1.3596769952,
				"y": -0.7462959062,
				"z": -0.074584558,
				"element": "C" 
			},
			{
				"x": 1.5018352459,
				"y": -1.3406275705,
				"z": 2.1664550299,
				"element": "N" 
			},
			{
				"x": 2.7476135893,
				"y": -1.4953664312,
				"z": 1.634225159,
				"element": "N" 
			},
			{
				"x": 2.6766707459,
				"y": -1.3809427939,
				"z": 0.3260651817,
				"element": "C" 
			},
			{
				"x": 3.8202908647,
				"y": -1.585507901,
				"z": -0.6213954473,
				"element": "C" 
			},
			{
				"x": 4.9815671167,
				"y": -1.2584709922,
				"z": -0.0128199491,
				"element": "F" 
			},
			{
				"x": 3.6505664669,
				"y": -0.7707410071,
				"z": -1.7192714285,
				"element": "F" 
			},
			{
				"x": -2.8621947678,
				"y": -0.2622477745,
				"z": -3.4762404764,
				"element": "H" 
			},
			{
				"x": 1.3621883002,
				"y": -0.9811138726,
				"z": -2.160296345,
				"element": "H" 
			},
			{
				"x": -1.2710761811,
				"y": -0.9062517064,
				"z": 2.0719150614,
				"element": "H" 
			},
			{
				"x": -2.428396409,
				"y": -0.5798222002,
				"z": -0.1283423606,
				"element": "H" 
			},
			{
				"x": 3.9010968877,
				"y": -2.6151061574,
				"z": -0.9929327875,
				"element": "H" 
			}
		],
		 "valence_orbital": [ 
			{
				"type": "occ",
				"energy": -0.33109,
				"method": "rhf"
			},
			{
				"type": "occ",
				"energy": -0.30122,
				"method": "rhf"
			},
			{
				"type": "occ",
				"energy": -0.29448,
				"method": "rhf"
			},
			{
				"type": "occ",
				"energy": -0.27001,
				"method": "rhf"
			},
			{
				"type": "occ",
				"energy": -0.2462,
				"method": "rhf"
			},
			{
				"type": "unocc",
				"energy": -0.07954,
				"method": "rhf"
			},
			{
				"type": "unocc",
				"energy": -0.05211,
				"method": "rhf"
			},
			{
				"type": "unocc",
				"energy": 0.00314,
				"method": "rhf"
			},
			{
				"type": "unocc",
				"energy": 0.04614,
				"method": "rhf"
			},
			{
				"type": "unocc",
				"energy": 0.05832,
				"method": "rhf"
			}
		],
		"cosmo_sigma_profile": { 
			"-0.025": 0.0,
			"-0.024": 0.0,
			"-0.023": 0.0,
			"-0.022": 0.0,
			"-0.021": 0.0,
			"-0.02": 0.0,
			"-0.019": 0.480135978973,
			"-0.018": 1.06388938644,
			"-0.017": 1.12127984967,
			"-0.016": 0.44823698925,
			"-0.015": 0.629509888131,
			"-0.014": 1.0296410583,
			"-0.013": 0.778722389852,
			"-0.012": 1.06344395952,
			"-0.011": 3.61577602829,
			"-0.01": 4.99093343327,
			"-0.009": 4.5894624091,
			"-0.008": 6.18471459984,
			"-0.007": 6.41371528844,
			"-0.006": 7.98158674894,
			"-0.005": 10.6055080521,
			"-0.004": 12.4807029518,
			"-0.003": 14.3231032586,
			"-0.002": 16.0434974867,
			"-0.001": 13.7164264768,
			"0.0": 13.4746450503,
			"0.001": 9.11158510463,
			"0.002": 10.5494099442,
			"0.003": 17.2568456213,
			"0.004": 10.3521527839,
			"0.005": 5.54258663476,
			"0.006": 5.50769401081,
			"0.007": 3.07583321962,
			"0.008": 3.61816446323,
			"0.009": 3.62261469929,
			"0.01": 6.01265505132,
			"0.011": 7.14320844208,
			"0.012": 4.21226594435,
			"0.013": 2.63835172396,
			"0.014": 2.38660374889,
			"0.015": 1.75427399356,
			"0.016": 0.759914879674,
			"0.017": 0.0102658361306,
			"0.018": 0.0,
			"0.019": 0.0,
			"0.02": 0.0,
			"0.021": 0.0,
			"0.022": 0.0,
			"0.023": 0.0,
			"0.024": 0.0,
			"0.025": 0.0
		}
	}
}
