{
	 "smiles": "COC1=C2C(=O)C3=C(C(O)=C4C[C@](O)(C[C@H](O[C@H]5C[C@H](N)[C@@H](O)[C@H](C)O5)C4=C3O)C(=O)CO)C(=O)C2=CC=C1", 
	 "Tm": 617.68, 
	 "num_atms": 68, 
	 "gaussian": { 
		 "optdone": 1, 
		 "sigma_profile": "yes", 
		 "theory": "DFT", 
		 "functional": "B3LYP", 
		 "basiset": "6-31G**", 
		 "properties": { 
			 "R2extent": 23495.0202, 
			 "electric_dipole_moment_norm": 4.11540790809, 
			 "electric_quadrupole_moment_norm": 17.5398052572, 
			 "total_energy": -1928.54424685, 
			 "HOMO_LUMO_gap": 0.10518, 
			 "cosmo_polarized_energy": -29.67, 
			 "cosmo_cavitation_energy": 66.34, 
			 "cosmo_dispersion_energy": -45.13, 
			 "cosmo_repulsion_energy": 3.3, 
			 "cosmo_total_nonelectrostatic_energy": 24.5, 
			 "SMD_solvation_energy": 11.57 
		},
		"coords": [
			{
				"x": -3.0395877511,
				"y": 5.1295873273,
				"z": 0.1274147146,
				"element": "C" 
			},
			{
				"x": -1.6531026722,
				"y": 5.4122146442,
				"z": -0.0889828648,
				"element": "O" 
			},
			{
				"x": -0.8226759093,
				"y": 5.2339604912,
				"z": 0.9802992685,
				"element": "C" 
			},
			{
				"x": -0.2632898363,
				"y": 3.9811599223,
				"z": 1.3389309004,
				"element": "C" 
			},
			{
				"x": -0.5633312568,
				"y": 2.7285396658,
				"z": 0.5978283087,
				"element": "C" 
			},
			{
				"x": -1.4080585259,
				"y": 2.7076491688,
				"z": -0.3268732149,
				"element": "O" 
			},
			{
				"x": 0.1485212328,
				"y": 1.5070791157,
				"z": 0.9683723043,
				"element": "C" 
			},
			{
				"x": 1.0494506779,
				"y": 1.4819988143,
				"z": 2.071177575,
				"element": "C" 
			},
			{
				"x": 1.6686435244,
				"y": 0.2785193283,
				"z": 2.4408364931,
				"element": "C" 
			},
			{
				"x": 2.5031548731,
				"y": 0.198400521,
				"z": 3.4836123902,
				"element": "O" 
			},
			{
				"x": 1.4266698856,
				"y": -0.9157991153,
				"z": 1.6998263313,
				"element": "C" 
			},
			{
				"x": 2.0887237916,
				"y": -2.1818900594,
				"z": 2.1912641168,
				"element": "C" 
			},
			{
				"x": 1.4618847505,
				"y": -3.4629114645,
				"z": 1.6329864885,
				"element": "C" 
			},
			{
				"x": 2.3748640399,
				"y": -4.5694419306,
				"z": 1.7843809766,
				"element": "O" 
			},
			{
				"x": 1.2598376876,
				"y": -3.3028255098,
				"z": 0.124304343,
				"element": "C" 
			},
			{
				"x": 0.3502954097,
				"y": -2.1268760925,
				"z": -0.2533945761,
				"element": "C" 
			},
			{
				"x": 0.6046970389,
				"y": -1.8273423843,
				"z": -1.6324357032,
				"element": "O" 
			},
			{
				"x": -0.4082360698,
				"y": -2.1877236078,
				"z": -2.5237336179,
				"element": "C" 
			},
			{
				"x": -0.0380852166,
				"y": -1.6419400666,
				"z": -3.8954770987,
				"element": "C" 
			},
			{
				"x": -0.988723193,
				"y": -2.1592222211,
				"z": -4.9889852159,
				"element": "C" 
			},
			{
				"x": -2.2956044863,
				"y": -1.4975100081,
				"z": -4.863204241,
				"element": "N" 
			},
			{
				"x": -1.1459916419,
				"y": -3.695376623,
				"z": -4.8675065846,
				"element": "C" 
			},
			{
				"x": 0.0561913873,
				"y": -4.3258273313,
				"z": -5.3019900406,
				"element": "O" 
			},
			{
				"x": -1.4709101758,
				"y": -4.1645585132,
				"z": -3.4360304501,
				"element": "C" 
			},
			{
				"x": -2.9011410474,
				"y": -3.9301744105,
				"z": -2.9460452773,
				"element": "C" 
			},
			{
				"x": -0.4653083699,
				"y": -3.6236328933,
				"z": -2.5527388675,
				"element": "O" 
			},
			{
				"x": 0.6017636372,
				"y": -0.8835061769,
				"z": 0.5870488183,
				"element": "C" 
			},
			{
				"x": -0.0859466293,
				"y": 0.3219715837,
				"z": 0.2445240349,
				"element": "C" 
			},
			{
				"x": -0.969151275,
				"y": 0.2786237796,
				"z": -0.7568027781,
				"element": "O" 
			},
			{
				"x": 0.1125160062,
				"y": -3.7931789738,
				"z": 2.3277881803,
				"element": "C" 
			},
			{
				"x": -0.4508793464,
				"y": -2.9618509628,
				"z": 3.0143332875,
				"element": "O" 
			},
			{
				"x": -0.5361922336,
				"y": -5.1608444121,
				"z": 2.064778389,
				"element": "C" 
			},
			{
				"x": 0.3009467203,
				"y": -6.2787444637,
				"z": 2.2824354853,
				"element": "O" 
			},
			{
				"x": 1.3126773415,
				"y": 2.6866870305,
				"z": 2.839366296,
				"element": "C" 
			},
			{
				"x": 2.0843906549,
				"y": 2.6783118651,
				"z": 3.8243241756,
				"element": "O" 
			},
			{
				"x": 0.6526850975,
				"y": 3.9508891457,
				"z": 2.4232472912,
				"element": "C" 
			},
			{
				"x": 0.9800471214,
				"y": 5.1110377341,
				"z": 3.129442862,
				"element": "C" 
			},
			{
				"x": 0.4215238016,
				"y": 6.3310594914,
				"z": 2.7605548542,
				"element": "C" 
			},
			{
				"x": -0.4682715724,
				"y": 6.3871833259,
				"z": 1.6915492051,
				"element": "C" 
			},
			{
				"x": -3.4396852411,
				"y": 5.7516652066,
				"z": 0.9384142938,
				"element": "H" 
			},
			{
				"x": -3.1974996429,
				"y": 4.0712348214,
				"z": 0.3483313171,
				"element": "H" 
			},
			{
				"x": -3.5459343549,
				"y": 5.3817940527,
				"z": -0.8056702094,
				"element": "H" 
			},
			{
				"x": 2.5426347685,
				"y": 1.1191481298,
				"z": 3.8711965427,
				"element": "H" 
			},
			{
				"x": 2.0627424862,
				"y": -2.1814568234,
				"z": 3.2853222544,
				"element": "H" 
			},
			{
				"x": 3.1470310639,
				"y": -2.1830293249,
				"z": 1.9001984929,
				"element": "H" 
			},
			{
				"x": 2.6181776014,
				"y": -4.6313222559,
				"z": 2.7199431673,
				"element": "H" 
			},
			{
				"x": 2.2458115823,
				"y": -3.1219552626,
				"z": -0.3163552184,
				"element": "H" 
			},
			{
				"x": 0.8681514203,
				"y": -4.2151431034,
				"z": -0.3314031732,
				"element": "H" 
			},
			{
				"x": -0.7055000256,
				"y": -2.4082762868,
				"z": -0.1384561013,
				"element": "H" 
			},
			{
				"x": -1.3732912531,
				"y": -1.7924908263,
				"z": -2.1844824002,
				"element": "H" 
			},
			{
				"x": -0.0399662764,
				"y": -0.5468243755,
				"z": -3.8633447547,
				"element": "H" 
			},
			{
				"x": 0.9867725819,
				"y": -1.9571259861,
				"z": -4.1179359428,
				"element": "H" 
			},
			{
				"x": -0.5101359545,
				"y": -1.9846267096,
				"z": -5.9660494537,
				"element": "H" 
			},
			{
				"x": -2.1810199496,
				"y": -0.4912074441,
				"z": -4.9590168016,
				"element": "H" 
			},
			{
				"x": -2.9081320857,
				"y": -1.78990749,
				"z": -5.6217268812,
				"element": "H" 
			},
			{
				"x": -1.9334999816,
				"y": -4.0356363367,
				"z": -5.5523396109,
				"element": "H" 
			},
			{
				"x": 0.6599516789,
				"y": -4.2989234678,
				"z": -4.5450624148,
				"element": "H" 
			},
			{
				"x": -1.2728423222,
				"y": -5.2421911624,
				"z": -3.4170736068,
				"element": "H" 
			},
			{
				"x": -2.9897444968,
				"y": -4.2610128278,
				"z": -1.9064054578,
				"element": "H" 
			},
			{
				"x": -3.5947178997,
				"y": -4.528154675,
				"z": -3.5477401669,
				"element": "H" 
			},
			{
				"x": -3.2023271365,
				"y": -2.8855498418,
				"z": -3.0290798853,
				"element": "H" 
			},
			{
				"x": -1.3483510126,
				"y": 1.2062751678,
				"z": -0.8167402623,
				"element": "H" 
			},
			{
				"x": -0.9364890532,
				"y": -5.1383249913,
				"z": 1.0337012833,
				"element": "H" 
			},
			{
				"x": -1.3887106283,
				"y": -5.239866513,
				"z": 2.7437997502,
				"element": "H" 
			},
			{
				"x": 1.1384815508,
				"y": -6.0945404142,
				"z": 1.8284018003,
				"element": "H" 
			},
			{
				"x": 1.6808067818,
				"y": 5.0296194626,
				"z": 3.9521730405,
				"element": "H" 
			},
			{
				"x": 0.6799724345,
				"y": 7.2372004157,
				"z": 3.3002533971,
				"element": "H" 
			},
			{
				"x": -0.9063841065,
				"y": 7.326733128,
				"z": 1.3705204423,
				"element": "H" 
			}
		],
		 "valence_orbital": [ 
			{
				"type": "occ",
				"energy": -0.25674,
				"method": "rhf"
			},
			{
				"type": "occ",
				"energy": -0.2555,
				"method": "rhf"
			},
			{
				"type": "occ",
				"energy": -0.23748,
				"method": "rhf"
			},
			{
				"type": "occ",
				"energy": -0.23669,
				"method": "rhf"
			},
			{
				"type": "occ",
				"energy": -0.21649,
				"method": "rhf"
			},
			{
				"type": "unocc",
				"energy": -0.11131,
				"method": "rhf"
			},
			{
				"type": "unocc",
				"energy": -0.05683,
				"method": "rhf"
			},
			{
				"type": "unocc",
				"energy": -0.04127,
				"method": "rhf"
			},
			{
				"type": "unocc",
				"energy": -0.02938,
				"method": "rhf"
			},
			{
				"type": "unocc",
				"energy": -0.00246,
				"method": "rhf"
			}
		],
		"cosmo_sigma_profile": { 
			"-0.025": 0.0,
			"-0.024": 0.0,
			"-0.023": 0.0,
			"-0.022": 0.0,
			"-0.021": 0.0,
			"-0.02": 0.0,
			"-0.019": 0.0,
			"-0.018": 0.179042697225,
			"-0.017": 0.870478887142,
			"-0.016": 1.43234016239,
			"-0.015": 1.03694906248,
			"-0.014": 0.502927615621,
			"-0.013": 1.18266450129,
			"-0.012": 1.93562586398,
			"-0.011": 1.65165708574,
			"-0.01": 3.03060080597,
			"-0.009": 5.41857953743,
			"-0.008": 9.39780677529,
			"-0.007": 13.5775522277,
			"-0.006": 22.3583351525,
			"-0.005": 32.0265550795,
			"-0.004": 38.9795777548,
			"-0.003": 51.1125508661,
			"-0.002": 47.0599767665,
			"-0.001": 41.352574832,
			"0.0": 44.048215204,
			"0.001": 37.7854656104,
			"0.002": 24.8118803594,
			"0.003": 17.0303030928,
			"0.004": 18.5698099126,
			"0.005": 15.4582526864,
			"0.006": 14.0078637155,
			"0.007": 14.2074023944,
			"0.008": 13.8160915669,
			"0.009": 12.8560082615,
			"0.01": 10.4041633232,
			"0.011": 10.8639040718,
			"0.012": 5.35009983894,
			"0.013": 4.00622418172,
			"0.014": 4.57738499749,
			"0.015": 0.5095108653,
			"0.016": 0.0,
			"0.017": 0.0,
			"0.018": 0.0,
			"0.019": 0.0,
			"0.02": 0.0,
			"0.021": 0.0,
			"0.022": 0.0,
			"0.023": 0.0,
			"0.024": 0.0,
			"0.025": 0.0
		}
	}
}
