{
	 "smiles": "CNC1=NNC(=C1)C1=CC=C(OC)C=C1", 
	 "Tm": 396.15, 
	 "num_atms": 28, 
	 "gaussian": { 
		 "optdone": 1, 
		 "sigma_profile": "yes", 
		 "theory": "DFT", 
		 "functional": "B3LYP", 
		 "basiset": "6-31G**", 
		 "properties": { 
			 "R2extent": 5247.5546, 
			 "electric_dipole_moment_norm": 2.85082951612, 
			 "electric_quadrupole_moment_norm": 13.2379276849, 
			 "total_energy": -666.453867505, 
			 "HOMO_LUMO_gap": 0.17258, 
			 "cosmo_polarized_energy": -14.6, 
			 "cosmo_cavitation_energy": 32.02, 
			 "cosmo_dispersion_energy": -23.71, 
			 "cosmo_repulsion_energy": 1.85, 
			 "cosmo_total_nonelectrostatic_energy": 10.16, 
			 "SMD_solvation_energy": 4.38 
		},
		"coords": [
			{
				"x": -4.7173642076,
				"y": -3.0618496211,
				"z": -1.7453714188,
				"element": "C" 
			},
			{
				"x": -3.3650410955,
				"y": -2.5900817597,
				"z": -2.0076628133,
				"element": "N" 
			},
			{
				"x": -2.7012036827,
				"y": -1.9140879193,
				"z": -0.9902951594,
				"element": "C" 
			},
			{
				"x": -3.1566862759,
				"y": -1.929399144,
				"z": 0.2642588746,
				"element": "N" 
			},
			{
				"x": -2.2384554406,
				"y": -1.1963757046,
				"z": 0.9550809758,
				"element": "N" 
			},
			{
				"x": -1.2126796468,
				"y": -0.7395099374,
				"z": 0.182005178,
				"element": "C" 
			},
			{
				"x": -1.4877302327,
				"y": -1.1828946719,
				"z": -1.1038258258,
				"element": "C" 
			},
			{
				"x": -0.1083499023,
				"y": 0.0585990952,
				"z": 0.7209033409,
				"element": "C" 
			},
			{
				"x": 1.1597620711,
				"y": 0.0212045586,
				"z": 0.1252562533,
				"element": "C" 
			},
			{
				"x": 2.2232366867,
				"y": 0.774815634,
				"z": 0.6223608193,
				"element": "C" 
			},
			{
				"x": 2.0342244536,
				"y": 1.5838257871,
				"z": 1.7499116577,
				"element": "C" 
			},
			{
				"x": 3.00044884,
				"y": 2.3558532181,
				"z": 2.3248908109,
				"element": "O" 
			},
			{
				"x": 4.2951392555,
				"y": 2.3554429033,
				"z": 1.7443275386,
				"element": "C" 
			},
			{
				"x": 0.7713676885,
				"y": 1.6319593627,
				"z": 2.3596623692,
				"element": "C" 
			},
			{
				"x": -0.2805365739,
				"y": 0.8864870953,
				"z": 1.8477577392,
				"element": "C" 
			},
			{
				"x": -5.4184481623,
				"y": -2.2586781386,
				"z": -1.4716699806,
				"element": "H" 
			},
			{
				"x": -4.6971807636,
				"y": -3.7737809961,
				"z": -0.9166931869,
				"element": "H" 
			},
			{
				"x": -5.0903243813,
				"y": -3.5750792923,
				"z": -2.635574291,
				"element": "H" 
			},
			{
				"x": -3.2561612874,
				"y": -2.1420281244,
				"z": -2.9074245641,
				"element": "H" 
			},
			{
				"x": -2.2869549709,
				"y": -1.1870693012,
				"z": 1.960820766,
				"element": "H" 
			},
			{
				"x": -0.9190987456,
				"y": -0.9772926762,
				"z": -1.99857971,
				"element": "H" 
			},
			{
				"x": 1.3238549955,
				"y": -0.6233024449,
				"z": -0.7329902959,
				"element": "H" 
			},
			{
				"x": 3.1886267354,
				"y": 0.7145663666,
				"z": 0.1340786391,
				"element": "H" 
			},
			{
				"x": 4.8973938294,
				"y": 3.034003027,
				"z": 2.3502864905,
				"element": "H" 
			},
			{
				"x": 4.2749897818,
				"y": 2.7184510301,
				"z": 0.7086134936,
				"element": "H" 
			},
			{
				"x": 4.7483000366,
				"y": 1.3558795537,
				"z": 1.7646582766,
				"element": "H" 
			},
			{
				"x": 0.6380639239,
				"y": 2.2736859905,
				"z": 3.2244037703,
				"element": "H" 
			},
			{
				"x": -1.2596929288,
				"y": 0.9685561096,
				"z": 2.3116102523,
				"element": "H" 
			}
		],
		 "valence_orbital": [ 
			{
				"type": "occ",
				"energy": -0.27309,
				"method": "rhf"
			},
			{
				"type": "occ",
				"energy": -0.25689,
				"method": "rhf"
			},
			{
				"type": "occ",
				"energy": -0.25018,
				"method": "rhf"
			},
			{
				"type": "occ",
				"energy": -0.20489,
				"method": "rhf"
			},
			{
				"type": "occ",
				"energy": -0.18666,
				"method": "rhf"
			},
			{
				"type": "unocc",
				"energy": -0.01408,
				"method": "rhf"
			},
			{
				"type": "unocc",
				"energy": -0.00691,
				"method": "rhf"
			},
			{
				"type": "unocc",
				"energy": 0.06343,
				"method": "rhf"
			},
			{
				"type": "unocc",
				"energy": 0.08149,
				"method": "rhf"
			},
			{
				"type": "unocc",
				"energy": 0.0925,
				"method": "rhf"
			}
		],
		"cosmo_sigma_profile": { 
			"-0.025": 0.0,
			"-0.024": 0.0,
			"-0.023": 0.0,
			"-0.022": 0.0,
			"-0.021": 0.0,
			"-0.02": 0.0,
			"-0.019": 0.0,
			"-0.018": 0.0,
			"-0.017": 0.0,
			"-0.016": 0.123523848681,
			"-0.015": 0.935276616474,
			"-0.014": 0.826750670538,
			"-0.013": 1.2992376189,
			"-0.012": 2.08874693511,
			"-0.011": 2.43952537405,
			"-0.01": 2.29692932162,
			"-0.009": 2.83349321102,
			"-0.008": 2.36313755803,
			"-0.007": 3.67673880717,
			"-0.006": 13.9099815723,
			"-0.005": 22.0283756745,
			"-0.004": 20.3238642716,
			"-0.003": 19.9461807389,
			"-0.002": 16.424520555,
			"-0.001": 18.5688297999,
			"0.0": 13.4582677616,
			"0.001": 10.2336652612,
			"0.002": 12.5199000336,
			"0.003": 15.4875090341,
			"0.004": 17.4010721261,
			"0.005": 17.7152417883,
			"0.006": 9.51157315063,
			"0.007": 6.36494464271,
			"0.008": 3.80564315715,
			"0.009": 3.99757779397,
			"0.01": 4.16328127904,
			"0.011": 2.12920832031,
			"0.012": 2.19044828192,
			"0.013": 1.62613029102,
			"0.014": 1.60114335098,
			"0.015": 0.804131521444,
			"0.016": 0.757831031947,
			"0.017": 0.255424014055,
			"0.018": 0.0,
			"0.019": 0.0,
			"0.02": 0.0,
			"0.021": 0.0,
			"0.022": 0.0,
			"0.023": 0.0,
			"0.024": 0.0,
			"0.025": 0.0
		}
	}
}
