{
	 "smiles": "ClC1=CC=C(CC2=C(NN=C2N=CC2=CC=CC=C2)N=CC2=CC=CC=C2)C=C1", 
	 "Tm": 454.15, 
	 "num_atms": 48, 
	 "gaussian": { 
		 "optdone": 1, 
		 "sigma_profile": "yes", 
		 "theory": "DFT", 
		 "functional": "B3LYP", 
		 "basiset": "6-31G**", 
		 "properties": { 
			 "R2extent": 17873.4719, 
			 "electric_dipole_moment_norm": 1.99586485514, 
			 "electric_quadrupole_moment_norm": 25.3337743966, 
			 "total_energy": -1605.18119782, 
			 "HOMO_LUMO_gap": 0.14432, 
			 "cosmo_polarized_energy": -15.31, 
			 "cosmo_cavitation_energy": 56.07, 
			 "cosmo_dispersion_energy": -38.04, 
			 "cosmo_repulsion_energy": 2.88, 
			 "cosmo_total_nonelectrostatic_energy": 20.91, 
			 "SMD_solvation_energy": 6.23 
		},
		"coords": [
			{
				"x": -4.3148485543,
				"y": -0.0140853551,
				"z": 4.1691597864,
				"element": "Cl" 
			},
			{
				"x": -3.2424829253,
				"y": 0.2362772274,
				"z": 2.7961451554,
				"element": "C" 
			},
			{
				"x": -3.7500373578,
				"y": 0.7825458218,
				"z": 1.6191687735,
				"element": "C" 
			},
			{
				"x": -2.8905249744,
				"y": 0.9715896844,
				"z": 0.535647471,
				"element": "C" 
			},
			{
				"x": -1.5348106082,
				"y": 0.6247465577,
				"z": 0.6083302714,
				"element": "C" 
			},
			{
				"x": -0.6102117362,
				"y": 0.8872354735,
				"z": -0.5745261668,
				"element": "C" 
			},
			{
				"x": 0.4750524285,
				"y": -0.1228786787,
				"z": -0.8090808157,
				"element": "C" 
			},
			{
				"x": 0.4264263354,
				"y": -1.3895849753,
				"z": -1.4094405688,
				"element": "C" 
			},
			{
				"x": 1.7225066665,
				"y": -1.8282239877,
				"z": -1.4382787819,
				"element": "N" 
			},
			{
				"x": 2.6038650622,
				"y": -0.9825077561,
				"z": -0.8950670356,
				"element": "N" 
			},
			{
				"x": 1.8521248402,
				"y": 0.0663551218,
				"z": -0.514290113,
				"element": "C" 
			},
			{
				"x": 2.3509779909,
				"y": 1.2171753751,
				"z": 0.0894039818,
				"element": "N" 
			},
			{
				"x": 3.6020144435,
				"y": 1.3031570545,
				"z": 0.3722289893,
				"element": "C" 
			},
			{
				"x": 4.1833111994,
				"y": 2.4918055699,
				"z": 1.0019111242,
				"element": "C" 
			},
			{
				"x": 3.3987143632,
				"y": 3.609835082,
				"z": 1.3395076342,
				"element": "C" 
			},
			{
				"x": 3.9827991158,
				"y": 4.7208585908,
				"z": 1.9371136506,
				"element": "C" 
			},
			{
				"x": 5.356645693,
				"y": 4.7363095289,
				"z": 2.2074222857,
				"element": "C" 
			},
			{
				"x": 6.1441258275,
				"y": 3.632232556,
				"z": 1.8765121948,
				"element": "C" 
			},
			{
				"x": 5.5601721878,
				"y": 2.5167758157,
				"z": 1.2776538713,
				"element": "C" 
			},
			{
				"x": -0.5184401415,
				"y": -2.2102604607,
				"z": -1.9844293369,
				"element": "N" 
			},
			{
				"x": -1.7787929091,
				"y": -2.0348733929,
				"z": -1.7830548172,
				"element": "C" 
			},
			{
				"x": -2.7926764874,
				"y": -2.8785747433,
				"z": -2.4176587474,
				"element": "C" 
			},
			{
				"x": -4.1466640848,
				"y": -2.668776384,
				"z": -2.1068810116,
				"element": "C" 
			},
			{
				"x": -5.1375077055,
				"y": -3.4560104301,
				"z": -2.6911488001,
				"element": "C" 
			},
			{
				"x": -4.7854820495,
				"y": -4.4609143183,
				"z": -3.5941120089,
				"element": "C" 
			},
			{
				"x": -3.4386199902,
				"y": -4.6768227397,
				"z": -3.9106159222,
				"element": "C" 
			},
			{
				"x": -2.4482589822,
				"y": -3.8934817756,
				"z": -3.3294032449,
				"element": "C" 
			},
			{
				"x": -1.0551516043,
				"y": 0.0782024417,
				"z": 1.8057714636,
				"element": "C" 
			},
			{
				"x": -1.8977258502,
				"y": -0.1177245072,
				"z": 2.8995593313,
				"element": "C" 
			},
			{
				"x": -4.7979035364,
				"y": 1.0540912991,
				"z": 1.5515104796,
				"element": "H" 
			},
			{
				"x": -3.2851507527,
				"y": 1.402476068,
				"z": -0.3816761396,
				"element": "H" 
			},
			{
				"x": -0.1124353489,
				"y": 1.8518043912,
				"z": -0.4163446163,
				"element": "H" 
			},
			{
				"x": -1.2213988924,
				"y": 0.9978898456,
				"z": -1.4794108848,
				"element": "H" 
			},
			{
				"x": 2.0223259533,
				"y": -2.716202328,
				"z": -1.8138328054,
				"element": "H" 
			},
			{
				"x": 4.2950549625,
				"y": 0.481962945,
				"z": 0.1523215128,
				"element": "H" 
			},
			{
				"x": 2.3360624203,
				"y": 3.5803508178,
				"z": 1.123455796,
				"element": "H" 
			},
			{
				"x": 3.3705863924,
				"y": 5.5802818897,
				"z": 2.1955485191,
				"element": "H" 
			},
			{
				"x": 5.8089119636,
				"y": 5.6066236445,
				"z": 2.6744305076,
				"element": "H" 
			},
			{
				"x": 7.2100883526,
				"y": 3.6404045737,
				"z": 2.0847211799,
				"element": "H" 
			},
			{
				"x": 6.1703811059,
				"y": 1.654876312,
				"z": 1.0186183246,
				"element": "H" 
			},
			{
				"x": -2.1615339453,
				"y": -1.2605407455,
				"z": -1.1103478113,
				"element": "H" 
			},
			{
				"x": -4.415902375,
				"y": -1.8875670024,
				"z": -1.4001338147,
				"element": "H" 
			},
			{
				"x": -6.1810907856,
				"y": -3.28713861,
				"z": -2.4425153261,
				"element": "H" 
			},
			{
				"x": -5.5559735459,
				"y": -5.0750335556,
				"z": -4.0513814161,
				"element": "H" 
			},
			{
				"x": -3.1664601222,
				"y": -5.4585803731,
				"z": -4.6140049961,
				"element": "H" 
			},
			{
				"x": -1.4002342713,
				"y": -4.0461507627,
				"z": -3.5643187427,
				"element": "H" 
			},
			{
				"x": -0.0083524254,
				"y": -0.19858229,
				"z": 1.8842929739,
				"element": "H" 
			},
			{
				"x": -1.5170753426,
				"y": -0.5414485161,
				"z": 3.8225186464,
				"element": "H" 
			}
		],
		 "valence_orbital": [ 
			{
				"type": "occ",
				"energy": -0.259,
				"method": "rhf"
			},
			{
				"type": "occ",
				"energy": -0.25354,
				"method": "rhf"
			},
			{
				"type": "occ",
				"energy": -0.23911,
				"method": "rhf"
			},
			{
				"type": "occ",
				"energy": -0.22297,
				"method": "rhf"
			},
			{
				"type": "occ",
				"energy": -0.21169,
				"method": "rhf"
			},
			{
				"type": "unocc",
				"energy": -0.06737,
				"method": "rhf"
			},
			{
				"type": "unocc",
				"energy": -0.05762,
				"method": "rhf"
			},
			{
				"type": "unocc",
				"energy": -0.01348,
				"method": "rhf"
			},
			{
				"type": "unocc",
				"energy": -0.01029,
				"method": "rhf"
			},
			{
				"type": "unocc",
				"energy": -0.00892,
				"method": "rhf"
			}
		],
		"cosmo_sigma_profile": { 
			"-0.025": 0.0,
			"-0.024": 0.0,
			"-0.023": 0.0,
			"-0.022": 0.0,
			"-0.021": 0.0,
			"-0.02": 0.0,
			"-0.019": 0.0,
			"-0.018": 0.0,
			"-0.017": 0.0501252278873,
			"-0.016": 1.47382211606,
			"-0.015": 0.462048739169,
			"-0.014": 1.28999102028,
			"-0.013": 0.707948001829,
			"-0.012": 0.952178619725,
			"-0.011": 0.854550374157,
			"-0.01": 0.702182456841,
			"-0.009": 0.448939844999,
			"-0.008": 0.727290542254,
			"-0.007": 6.58370066397,
			"-0.006": 26.0854857977,
			"-0.005": 33.6441453196,
			"-0.004": 36.5809490168,
			"-0.003": 27.4104527347,
			"-0.002": 29.2858128175,
			"-0.001": 29.3532853029,
			"0.0": 29.1187891516,
			"0.001": 36.9961331726,
			"0.002": 43.6811217057,
			"0.003": 47.1191925042,
			"0.004": 48.1493837188,
			"0.005": 28.6646342342,
			"0.006": 5.98322195118,
			"0.007": 5.41960154325,
			"0.008": 4.7975113221,
			"0.009": 1.69427886168,
			"0.01": 1.27413908998,
			"0.011": 1.23928570245,
			"0.012": 0.802654960561,
			"0.013": 0.953054081262,
			"0.014": 0.554990436976,
			"0.015": 0.0,
			"0.016": 0.0,
			"0.017": 0.0,
			"0.018": 0.0,
			"0.019": 0.0,
			"0.02": 0.0,
			"0.021": 0.0,
			"0.022": 0.0,
			"0.023": 0.0,
			"0.024": 0.0,
			"0.025": 0.0
		}
	}
}
