{
	 "smiles": "NC1CCN(CC1)C1=NC=CC=N1", 
	 "Tm": 356.15, 
	 "num_atms": 27, 
	 "gaussian": { 
		 "optdone": 1, 
		 "sigma_profile": "yes", 
		 "theory": "DFT", 
		 "functional": "B3LYP", 
		 "basiset": "6-31G**", 
		 "properties": { 
			 "R2extent": 3587.5502, 
			 "electric_dipole_moment_norm": 1.28106461195, 
			 "electric_quadrupole_moment_norm": 11.016302234, 
			 "total_energy": -570.401452453, 
			 "HOMO_LUMO_gap": 0.17969, 
			 "cosmo_polarized_energy": -10.47, 
			 "cosmo_cavitation_energy": 28.47, 
			 "cosmo_dispersion_energy": -21.32, 
			 "cosmo_repulsion_energy": 1.69, 
			 "cosmo_total_nonelectrostatic_energy": 8.84, 
			 "SMD_solvation_energy": 0.9 
		},
		"coords": [
			{
				"x": 1.4005778489,
				"y": -2.3475117055,
				"z": 1.2293736209,
				"element": "N" 
			},
			{
				"x": 0.4415095474,
				"y": -1.3789040901,
				"z": 0.6897952621,
				"element": "C" 
			},
			{
				"x": 0.7077479287,
				"y": -0.9083271272,
				"z": -0.7526347809,
				"element": "C" 
			},
			{
				"x": -0.4442863182,
				"y": -0.0326096957,
				"z": -1.2667214195,
				"element": "C" 
			},
			{
				"x": -0.8569913715,
				"y": 0.9283905108,
				"z": -0.2370820434,
				"element": "N" 
			},
			{
				"x": 0.06093656,
				"y": 1.1555374767,
				"z": 0.8766236617,
				"element": "C" 
			},
			{
				"x": 0.3581108417,
				"y": -0.1528854054,
				"z": 1.6330883973,
				"element": "C" 
			},
			{
				"x": -1.9935395167,
				"y": 1.6643047953,
				"z": -0.4121058347,
				"element": "C" 
			},
			{
				"x": -2.7060155152,
				"y": 1.417771675,
				"z": -1.5380676677,
				"element": "N" 
			},
			{
				"x": -3.8246651299,
				"y": 2.1249366332,
				"z": -1.6915460076,
				"element": "C" 
			},
			{
				"x": -4.2622120957,
				"y": 3.0767125041,
				"z": -0.7722545908,
				"element": "C" 
			},
			{
				"x": -3.4435675086,
				"y": 3.2527739727,
				"z": 0.3443367544,
				"element": "C" 
			},
			{
				"x": -2.3204323942,
				"y": 2.5684047809,
				"z": 0.5427163278,
				"element": "N" 
			},
			{
				"x": 2.3414419709,
				"y": -1.9588668924,
				"z": 1.1819795627,
				"element": "H" 
			},
			{
				"x": 1.4107106888,
				"y": -3.1867513408,
				"z": 0.6531357893,
				"element": "H" 
			},
			{
				"x": -0.5362336653,
				"y": -1.879495795,
				"z": 0.6886755631,
				"element": "H" 
			},
			{
				"x": 0.8142804315,
				"y": -1.7704442654,
				"z": -1.4214716902,
				"element": "H" 
			},
			{
				"x": 1.6617313378,
				"y": -0.3645825661,
				"z": -0.7906364399,
				"element": "H" 
			},
			{
				"x": -0.16081216,
				"y": 0.4895453318,
				"z": -2.1911766441,
				"element": "H" 
			},
			{
				"x": -1.3066043159,
				"y": -0.6568835227,
				"z": -1.5211912051,
				"element": "H" 
			},
			{
				"x": -0.3886031156,
				"y": 1.8998520608,
				"z": 1.5310938592,
				"element": "H" 
			},
			{
				"x": 0.995842744,
				"y": 1.585822556,
				"z": 0.4882466716,
				"element": "H" 
			},
			{
				"x": -0.4022956246,
				"y": -0.3332204056,
				"z": 2.3990282877,
				"element": "H" 
			},
			{
				"x": 1.3120493097,
				"y": -0.0403564023,
				"z": 2.1634433534,
				"element": "H" 
			},
			{
				"x": -4.3953428354,
				"y": 1.920780615,
				"z": -2.5975102152,
				"element": "H" 
			},
			{
				"x": -5.1726806706,
				"y": 3.6456483641,
				"z": -0.9169248077,
				"element": "H" 
			},
			{
				"x": -3.701356972,
				"y": 3.9782579382,
				"z": 1.1158862358,
				"element": "H" 
			}
		],
		 "valence_orbital": [ 
			{
				"type": "occ",
				"energy": -0.29906,
				"method": "rhf"
			},
			{
				"type": "occ",
				"energy": -0.29183,
				"method": "rhf"
			},
			{
				"type": "occ",
				"energy": -0.23715,
				"method": "rhf"
			},
			{
				"type": "occ",
				"energy": -0.23097,
				"method": "rhf"
			},
			{
				"type": "occ",
				"energy": -0.20331,
				"method": "rhf"
			},
			{
				"type": "unocc",
				"energy": -0.02362,
				"method": "rhf"
			},
			{
				"type": "unocc",
				"energy": 0.00935,
				"method": "rhf"
			},
			{
				"type": "unocc",
				"energy": 0.07582,
				"method": "rhf"
			},
			{
				"type": "unocc",
				"energy": 0.10256,
				"method": "rhf"
			},
			{
				"type": "unocc",
				"energy": 0.10767,
				"method": "rhf"
			}
		],
		"cosmo_sigma_profile": { 
			"-0.025": 0.0,
			"-0.024": 0.0,
			"-0.023": 0.0,
			"-0.022": 0.0,
			"-0.021": 0.0,
			"-0.02": 0.0,
			"-0.019": 0.0,
			"-0.018": 0.0,
			"-0.017": 0.0,
			"-0.016": 0.0,
			"-0.015": 0.0,
			"-0.014": 0.0,
			"-0.013": 0.0,
			"-0.012": 0.0,
			"-0.011": 0.0,
			"-0.01": 0.264627514307,
			"-0.009": 2.10662373667,
			"-0.008": 3.04269144762,
			"-0.007": 5.39953748106,
			"-0.006": 10.8195420058,
			"-0.005": 9.56054497476,
			"-0.004": 16.7516663993,
			"-0.003": 28.6918517906,
			"-0.002": 26.1516397729,
			"-0.001": 20.7273225192,
			"0.0": 15.9123972893,
			"0.001": 15.5948777554,
			"0.002": 15.7596963952,
			"0.003": 12.4411837378,
			"0.004": 5.50735302486,
			"0.005": 5.18323596901,
			"0.006": 3.20356509714,
			"0.007": 4.40926583326,
			"0.008": 3.87857359172,
			"0.009": 3.13704900322,
			"0.01": 2.98436715513,
			"0.011": 3.35712905643,
			"0.012": 2.29266988389,
			"0.013": 1.49904369216,
			"0.014": 1.11595798268,
			"0.015": 0.378586321621,
			"0.016": 0.53270827116,
			"0.017": 0.503199778407,
			"0.018": 0.884342129738,
			"0.019": 0.4473094663,
			"0.02": 0.341843880403,
			"0.021": 0.0,
			"0.022": 0.0,
			"0.023": 0.0,
			"0.024": 0.0,
			"0.025": 0.0
		}
	}
}
