{
	 "smiles": "O=C1NC(=O)C2(CCC(=O)CC2)N1", 
	 "Tm": 473.15, 
	 "num_atms": 23, 
	 "gaussian": { 
		 "optdone": 1, 
		 "sigma_profile": "yes", 
		 "theory": "DFT", 
		 "functional": "B3LYP", 
		 "basiset": "6-31G**", 
		 "properties": { 
			 "R2extent": 3033.7969, 
			 "electric_dipole_moment_norm": 1.37611338559, 
			 "electric_quadrupole_moment_norm": 21.1921135057, 
			 "total_energy": -646.093675537, 
			 "HOMO_LUMO_gap": 0.22478, 
			 "cosmo_polarized_energy": -21.06, 
			 "cosmo_cavitation_energy": 26.06, 
			 "cosmo_dispersion_energy": -19.06, 
			 "cosmo_repulsion_energy": 1.52, 
			 "cosmo_total_nonelectrostatic_energy": 8.52, 
			 "SMD_solvation_energy": 5.8 
		},
		"coords": [
			{
				"x": -3.2554204253,
				"y": 1.8684161957,
				"z": -0.3938996073,
				"element": "O" 
			},
			{
				"x": -2.2203945774,
				"y": 1.7065586711,
				"z": 0.2157152555,
				"element": "C" 
			},
			{
				"x": -1.6905081766,
				"y": 2.5739598838,
				"z": 1.1979829787,
				"element": "N" 
			},
			{
				"x": -0.474390263,
				"y": 2.1610140545,
				"z": 1.6881236841,
				"element": "C" 
			},
			{
				"x": 0.1966096827,
				"y": 2.6975830709,
				"z": 2.5470715263,
				"element": "O" 
			},
			{
				"x": -0.1072253073,
				"y": 0.8727468449,
				"z": 0.9173075225,
				"element": "C" 
			},
			{
				"x": 1.1246136055,
				"y": 1.1461498784,
				"z": 0.0059680893,
				"element": "C" 
			},
			{
				"x": 2.4517491683,
				"y": 0.9141368137,
				"z": 0.7405859581,
				"element": "C" 
			},
			{
				"x": 2.5885382096,
				"y": -0.5373465148,
				"z": 1.1882300342,
				"element": "C" 
			},
			{
				"x": 3.6635087062,
				"y": -1.0847184529,
				"z": 1.3245443297,
				"element": "O" 
			},
			{
				"x": 1.2632801137,
				"y": -1.2524157294,
				"z": 1.4468409768,
				"element": "C" 
			},
			{
				"x": 0.1804778735,
				"y": -0.2744972652,
				"z": 1.9269382795,
				"element": "C" 
			},
			{
				"x": -1.3208436693,
				"y": 0.6724146445,
				"z": 0.1260060894,
				"element": "N" 
			},
			{
				"x": -2.1784594978,
				"y": 3.4036144,
				"z": 1.5042437706,
				"element": "H" 
			},
			{
				"x": 1.0612199112,
				"y": 0.4701159871,
				"z": -0.8562741562,
				"element": "H" 
			},
			{
				"x": 1.0714122736,
				"y": 2.1622828865,
				"z": -0.3973612894,
				"element": "H" 
			},
			{
				"x": 2.4906494986,
				"y": 1.553250226,
				"z": 1.6330855995,
				"element": "H" 
			},
			{
				"x": 3.315213065,
				"y": 1.1723994853,
				"z": 0.1216595697,
				"element": "H" 
			},
			{
				"x": 1.4358003004,
				"y": -2.0537773564,
				"z": 2.1702004374,
				"element": "H" 
			},
			{
				"x": 0.9599924773,
				"y": -1.7403890888,
				"z": 0.5086375358,
				"element": "H" 
			},
			{
				"x": -0.7558481543,
				"y": -0.7977652704,
				"z": 2.1397063696,
				"element": "H" 
			},
			{
				"x": 0.5136629163,
				"y": 0.184147609,
				"z": 2.8642717271,
				"element": "H" 
			},
			{
				"x": -1.3874377311,
				"y": 0.0309190264,
				"z": -0.649784681,
				"element": "H" 
			}
		],
		 "valence_orbital": [ 
			{
				"type": "occ",
				"energy": -0.29909,
				"method": "rhf"
			},
			{
				"type": "occ",
				"energy": -0.29803,
				"method": "rhf"
			},
			{
				"type": "occ",
				"energy": -0.27724,
				"method": "rhf"
			},
			{
				"type": "occ",
				"energy": -0.27058,
				"method": "rhf"
			},
			{
				"type": "occ",
				"energy": -0.2488,
				"method": "rhf"
			},
			{
				"type": "unocc",
				"energy": -0.02402,
				"method": "rhf"
			},
			{
				"type": "unocc",
				"energy": -0.01921,
				"method": "rhf"
			},
			{
				"type": "unocc",
				"energy": 0.04979,
				"method": "rhf"
			},
			{
				"type": "unocc",
				"energy": 0.05506,
				"method": "rhf"
			},
			{
				"type": "unocc",
				"energy": 0.07941,
				"method": "rhf"
			}
		],
		"cosmo_sigma_profile": { 
			"-0.025": 0.0,
			"-0.024": 0.0,
			"-0.023": 0.0,
			"-0.022": 0.0,
			"-0.021": 0.0,
			"-0.02": 0.0,
			"-0.019": 0.0,
			"-0.018": 0.0,
			"-0.017": 0.572451614535,
			"-0.016": 1.33616928447,
			"-0.015": 2.0223278707,
			"-0.014": 1.68369983598,
			"-0.013": 2.10712197898,
			"-0.012": 2.55946708143,
			"-0.011": 2.56126414379,
			"-0.01": 2.36208372599,
			"-0.009": 2.48757588368,
			"-0.008": 3.38615923464,
			"-0.007": 5.59412988634,
			"-0.006": 10.4534188636,
			"-0.005": 16.906281066,
			"-0.004": 18.8146839268,
			"-0.003": 20.6879957228,
			"-0.002": 20.1777192045,
			"-0.001": 9.14727227962,
			"0.0": 6.072301279,
			"0.001": 5.21228467234,
			"0.002": 4.74784192259,
			"0.003": 6.39341126632,
			"0.004": 3.18738896928,
			"0.005": 4.17234076449,
			"0.006": 3.37650536464,
			"0.007": 3.81192712001,
			"0.008": 4.03167288763,
			"0.009": 3.8345484314,
			"0.01": 5.59593419675,
			"0.011": 8.06335561802,
			"0.012": 13.0247755727,
			"0.013": 9.26749514597,
			"0.014": 1.00869070303,
			"0.015": 0.0,
			"0.016": 0.0,
			"0.017": 0.0,
			"0.018": 0.0,
			"0.019": 0.0,
			"0.02": 0.0,
			"0.021": 0.0,
			"0.022": 0.0,
			"0.023": 0.0,
			"0.024": 0.0,
			"0.025": 0.0
		}
	}
}
