{
	 "smiles": "[O-][N+](=O)C1=CC=CC(OC2=NC=CC=C2)=C1", 
	 "Tm": 367.15, 
	 "num_atms": 24, 
	 "gaussian": { 
		 "optdone": 1, 
		 "sigma_profile": "yes", 
		 "theory": "DFT", 
		 "functional": "B3LYP", 
		 "basiset": "6-31G**", 
		 "properties": { 
			 "R2extent": 5036.2914, 
			 "electric_dipole_moment_norm": 6.23336980453, 
			 "electric_quadrupole_moment_norm": 13.6028039154, 
			 "total_energy": -759.056417723, 
			 "HOMO_LUMO_gap": 0.15661, 
			 "cosmo_polarized_energy": -10.49, 
			 "cosmo_cavitation_energy": 30.06, 
			 "cosmo_dispersion_energy": -21.99, 
			 "cosmo_repulsion_energy": 1.71, 
			 "cosmo_total_nonelectrostatic_energy": 9.78, 
			 "SMD_solvation_energy": 7.04 
		},
		"coords": [
			{
				"x": 3.003520468,
				"y": -3.1197711593,
				"z": -1.5870174764,
				"element": "O" 
			},
			{
				"x": 3.5811458545,
				"y": -2.0586751893,
				"z": -1.8201996698,
				"element": "N" 
			},
			{
				"x": 4.6606953132,
				"y": -1.9615071184,
				"z": -2.4027376996,
				"element": "O" 
			},
			{
				"x": 2.9345849843,
				"y": -0.8143553948,
				"z": -1.3700514499,
				"element": "C" 
			},
			{
				"x": 3.5684156645,
				"y": 0.4013806053,
				"z": -1.61194019,
				"element": "C" 
			},
			{
				"x": 2.9409516474,
				"y": 1.566683836,
				"z": -1.1729558559,
				"element": "C" 
			},
			{
				"x": 1.7142973947,
				"y": 1.5149295291,
				"z": -0.5108707435,
				"element": "C" 
			},
			{
				"x": 1.1019544423,
				"y": 0.276003564,
				"z": -0.2919967416,
				"element": "C" 
			},
			{
				"x": -0.0621181235,
				"y": 0.1324567601,
				"z": 0.4401527448,
				"element": "O" 
			},
			{
				"x": -1.1800726908,
				"y": 0.8841417211,
				"z": 0.1819719804,
				"element": "C" 
			},
			{
				"x": -1.222933534,
				"y": 1.6564908366,
				"z": -0.8910509575,
				"element": "N" 
			},
			{
				"x": -2.3557024056,
				"y": 2.3455208207,
				"z": -1.1088528439,
				"element": "C" 
			},
			{
				"x": -3.4655149841,
				"y": 2.2834159317,
				"z": -0.2742511315,
				"element": "C" 
			},
			{
				"x": -3.3925645217,
				"y": 1.4588089294,
				"z": 0.8556118146,
				"element": "C" 
			},
			{
				"x": -2.2308584534,
				"y": 0.7407169102,
				"z": 1.1003247163,
				"element": "C" 
			},
			{
				"x": 1.7062997657,
				"y": -0.902571777,
				"z": -0.7190667486,
				"element": "C" 
			},
			{
				"x": 4.5212224448,
				"y": 0.4166119211,
				"z": -2.1247451884,
				"element": "H" 
			},
			{
				"x": 3.4143755319,
				"y": 2.5281024673,
				"z": -1.3442920758,
				"element": "H" 
			},
			{
				"x": 1.2314173249,
				"y": 2.4225619131,
				"z": -0.1720219004,
				"element": "H" 
			},
			{
				"x": -2.3631568567,
				"y": 2.9713497529,
				"z": -1.9988217725,
				"element": "H" 
			},
			{
				"x": -4.3566950032,
				"y": 2.8595343898,
				"z": -0.4977322638,
				"element": "H" 
			},
			{
				"x": -4.2343316815,
				"y": 1.3790226552,
				"z": 1.5371424186,
				"element": "H" 
			},
			{
				"x": -2.116531275,
				"y": 0.0864583292,
				"z": 1.9567514327,
				"element": "H" 
			},
			{
				"x": 1.2396986933,
				"y": -1.8633102338,
				"z": -0.5467503984,
				"element": "H" 
			}
		],
		 "valence_orbital": [ 
			{
				"type": "occ",
				"energy": -0.28815,
				"method": "rhf"
			},
			{
				"type": "occ",
				"energy": -0.2877,
				"method": "rhf"
			},
			{
				"type": "occ",
				"energy": -0.27539,
				"method": "rhf"
			},
			{
				"type": "occ",
				"energy": -0.27157,
				"method": "rhf"
			},
			{
				"type": "occ",
				"energy": -0.24255,
				"method": "rhf"
			},
			{
				"type": "unocc",
				"energy": -0.08594,
				"method": "rhf"
			},
			{
				"type": "unocc",
				"energy": -0.03715,
				"method": "rhf"
			},
			{
				"type": "unocc",
				"energy": -0.02535,
				"method": "rhf"
			},
			{
				"type": "unocc",
				"energy": -0.00944,
				"method": "rhf"
			},
			{
				"type": "unocc",
				"energy": 0.00776,
				"method": "rhf"
			}
		],
		"cosmo_sigma_profile": { 
			"-0.025": 0.0,
			"-0.024": 0.0,
			"-0.023": 0.0,
			"-0.022": 0.0,
			"-0.021": 0.0,
			"-0.02": 0.0,
			"-0.019": 0.0,
			"-0.018": 0.0,
			"-0.017": 0.0,
			"-0.016": 0.0,
			"-0.015": 0.0,
			"-0.014": 0.0,
			"-0.013": 0.0,
			"-0.012": 0.0,
			"-0.011": 0.0,
			"-0.01": 0.0,
			"-0.009": 0.0,
			"-0.008": 2.77111696509,
			"-0.007": 13.9548084073,
			"-0.006": 16.8190275749,
			"-0.005": 17.6432061496,
			"-0.004": 14.2956686553,
			"-0.003": 12.9832797932,
			"-0.002": 13.9941269218,
			"-0.001": 16.7550486992,
			"0.0": 24.0913645659,
			"0.001": 24.4740951632,
			"0.002": 22.2906771706,
			"0.003": 14.8553789886,
			"0.004": 5.80233671826,
			"0.005": 5.48920902547,
			"0.006": 6.47098885102,
			"0.007": 10.7341495663,
			"0.008": 8.58447674445,
			"0.009": 5.25425285619,
			"0.01": 3.48085810256,
			"0.011": 0.715820267825,
			"0.012": 1.05117838477,
			"0.013": 0.143224473642,
			"0.014": 0.0,
			"0.015": 0.0,
			"0.016": 0.0,
			"0.017": 0.0,
			"0.018": 0.0,
			"0.019": 0.0,
			"0.02": 0.0,
			"0.021": 0.0,
			"0.022": 0.0,
			"0.023": 0.0,
			"0.024": 0.0,
			"0.025": 0.0
		}
	}
}
