{
	 "smiles": "CN1C=C(Br)C(C=O)=N1", 
	 "Tm": 344.65, 
	 "num_atms": 14, 
	 "gaussian": { 
		 "optdone": 1, 
		 "sigma_profile": "yes", 
		 "theory": "DFT", 
		 "functional": "B3LYP", 
		 "basiset": "6-31G**", 
		 "properties": { 
			 "R2extent": 2721.5375, 
			 "electric_dipole_moment_norm": 5.41879243467, 
			 "electric_quadrupole_moment_norm": 8.96608856972, 
			 "total_energy": -2949.63135052, 
			 "HOMO_LUMO_gap": 0.19494, 
			 "cosmo_polarized_energy": -13.41, 
			 "cosmo_cavitation_energy": 21.46, 
			 "cosmo_dispersion_energy": -16.05, 
			 "cosmo_repulsion_energy": 1.33, 
			 "cosmo_total_nonelectrostatic_energy": 6.74, 
			 "SMD_solvation_energy": 3.4 
		},
		"coords": [
			{
				"x": 2.0631563452,
				"y": 1.8082361519,
				"z": -0.5138858628,
				"element": "C" 
			},
			{
				"x": 0.8197930723,
				"y": 1.0907842908,
				"z": -0.7528253133,
				"element": "N" 
			},
			{
				"x": 0.4360273295,
				"y": 0.4522894382,
				"z": -1.8946537865,
				"element": "C" 
			},
			{
				"x": -0.8119258788,
				"y": -0.0704713994,
				"z": -1.6291120476,
				"element": "C" 
			},
			{
				"x": -1.8719188328,
				"y": -1.0685014355,
				"z": -2.8232743497,
				"element": "Br" 
			},
			{
				"x": -1.1065933219,
				"y": 0.3033293605,
				"z": -0.2928873697,
				"element": "C" 
			},
			{
				"x": -2.31975901,
				"y": -0.0005611309,
				"z": 0.488523963,
				"element": "C" 
			},
			{
				"x": -2.5095776162,
				"y": 0.3518221317,
				"z": 1.6351428265,
				"element": "O" 
			},
			{
				"x": -0.0899242499,
				"y": 1.0146553178,
				"z": 0.2219447072,
				"element": "N" 
			},
			{
				"x": 2.599868366,
				"y": 1.3478704987,
				"z": 0.3184853024,
				"element": "H" 
			},
			{
				"x": 2.6757952985,
				"y": 1.7637279775,
				"z": -1.4150282833,
				"element": "H" 
			},
			{
				"x": 1.8458764997,
				"y": 2.8500230063,
				"z": -0.2682990884,
				"element": "H" 
			},
			{
				"x": 1.0521175373,
				"y": 0.4160099314,
				"z": -2.7797593485,
				"element": "H" 
			},
			{
				"x": -3.0722355389,
				"y": -0.5957141389,
				"z": -0.0691713493,
				"element": "H" 
			}
		],
		 "valence_orbital": [ 
			{
				"type": "occ",
				"energy": -0.32182,
				"method": "rhf"
			},
			{
				"type": "occ",
				"energy": -0.2969,
				"method": "rhf"
			},
			{
				"type": "occ",
				"energy": -0.27288,
				"method": "rhf"
			},
			{
				"type": "occ",
				"energy": -0.2517,
				"method": "rhf"
			},
			{
				"type": "occ",
				"energy": -0.2498,
				"method": "rhf"
			},
			{
				"type": "unocc",
				"energy": -0.05486,
				"method": "rhf"
			},
			{
				"type": "unocc",
				"energy": 0.00242,
				"method": "rhf"
			},
			{
				"type": "unocc",
				"energy": 0.00477,
				"method": "rhf"
			},
			{
				"type": "unocc",
				"energy": 0.08104,
				"method": "rhf"
			},
			{
				"type": "unocc",
				"energy": 0.0941,
				"method": "rhf"
			}
		],
		"cosmo_sigma_profile": { 
			"-0.025": 0.0,
			"-0.024": 0.0,
			"-0.023": 0.0,
			"-0.022": 0.0,
			"-0.021": 0.0,
			"-0.02": 0.0,
			"-0.019": 0.0,
			"-0.018": 0.0,
			"-0.017": 0.0,
			"-0.016": 0.0,
			"-0.015": 0.0,
			"-0.014": 0.0,
			"-0.013": 0.0,
			"-0.012": 0.0,
			"-0.011": 1.55027081684,
			"-0.01": 2.98056875022,
			"-0.009": 2.79222637607,
			"-0.008": 3.76963750635,
			"-0.007": 6.7501755907,
			"-0.006": 10.6233061138,
			"-0.005": 13.0287444853,
			"-0.004": 17.3152394321,
			"-0.003": 11.7720317582,
			"-0.002": 7.98825941301,
			"-0.001": 10.0996331512,
			"0.0": 11.8613558775,
			"0.001": 13.9121040069,
			"0.002": 11.1963986719,
			"0.003": 10.7428990881,
			"0.004": 8.39225159515,
			"0.005": 2.71812674823,
			"0.006": 2.37939007333,
			"0.007": 1.30013194392,
			"0.008": 2.87112438135,
			"0.009": 3.27077516214,
			"0.01": 3.73572915299,
			"0.011": 5.22564573409,
			"0.012": 4.66038334416,
			"0.013": 2.91995011673,
			"0.014": 1.70232600861,
			"0.015": 0.198703157156,
			"0.016": 0.0,
			"0.017": 0.0,
			"0.018": 0.0,
			"0.019": 0.0,
			"0.02": 0.0,
			"0.021": 0.0,
			"0.022": 0.0,
			"0.023": 0.0,
			"0.024": 0.0,
			"0.025": 0.0
		}
	}
}
