{
	 "smiles": "NC1=CC=CC2=C1C=CN=C2", 
	 "Tm": 401.15, 
	 "num_atms": 19, 
	 "gaussian": { 
		 "optdone": 1, 
		 "sigma_profile": "yes", 
		 "theory": "DFT", 
		 "functional": "B3LYP", 
		 "basiset": "6-31G**", 
		 "properties": { 
			 "R2extent": 2342.7063, 
			 "electric_dipole_moment_norm": 3.63665922104, 
			 "electric_quadrupole_moment_norm": 12.9771893324, 
			 "total_energy": -457.2875931, 
			 "HOMO_LUMO_gap": 0.1586, 
			 "cosmo_polarized_energy": -11.33, 
			 "cosmo_cavitation_energy": 22.42, 
			 "cosmo_dispersion_energy": -17.09, 
			 "cosmo_repulsion_energy": 1.34, 
			 "cosmo_total_nonelectrostatic_energy": 6.67, 
			 "SMD_solvation_energy": 2.15 
		},
		"coords": [
			{
				"x": -1.4078314074,
				"y": 1.5581225259,
				"z": 0.7383216386,
				"element": "N" 
			},
			{
				"x": -1.3402738951,
				"y": 0.388729996,
				"z": -0.0215397196,
				"element": "C" 
			},
			{
				"x": -1.8268503784,
				"y": -0.8173379099,
				"z": 0.4611890811,
				"element": "C" 
			},
			{
				"x": -1.7974021986,
				"y": -1.9920466745,
				"z": -0.3225689077,
				"element": "C" 
			},
			{
				"x": -1.2653900095,
				"y": -1.9828381125,
				"z": -1.5916798,
				"element": "C" 
			},
			{
				"x": -0.7640583983,
				"y": -0.7678098071,
				"z": -2.1242512084,
				"element": "C" 
			},
			{
				"x": -0.8108856005,
				"y": 0.4354299142,
				"z": -1.3554340729,
				"element": "C" 
			},
			{
				"x": -0.3293518369,
				"y": 1.6166062527,
				"z": -1.9753968767,
				"element": "C" 
			},
			{
				"x": 0.1794698764,
				"y": 1.5574723829,
				"z": -3.2537424215,
				"element": "C" 
			},
			{
				"x": 0.2547631112,
				"y": 0.4148938907,
				"z": -3.9873681973,
				"element": "N" 
			},
			{
				"x": -0.2068226723,
				"y": -0.6863097975,
				"z": -3.4309728907,
				"element": "C" 
			},
			{
				"x": -0.632424907,
				"y": 2.1956240225,
				"z": 0.6176848598,
				"element": "H" 
			},
			{
				"x": -1.603826656,
				"y": 1.4041172695,
				"z": 1.7183350482,
				"element": "H" 
			},
			{
				"x": -2.2333954213,
				"y": -0.8593176854,
				"z": 1.4689457287,
				"element": "H" 
			},
			{
				"x": -2.1890798535,
				"y": -2.9129136389,
				"z": 0.0999093056,
				"element": "H" 
			},
			{
				"x": -1.2262109692,
				"y": -2.8860799265,
				"z": -2.1933019166,
				"element": "H" 
			},
			{
				"x": -0.3822541977,
				"y": 2.5750543421,
				"z": -1.4687354509,
				"element": "H" 
			},
			{
				"x": 0.5481244734,
				"y": 2.4567386723,
				"z": -3.7420728004,
				"element": "H" 
			},
			{
				"x": -0.1526990593,
				"y": -1.5967357167,
				"z": -4.0297213993,
				"element": "H" 
			}
		],
		 "valence_orbital": [ 
			{
				"type": "occ",
				"energy": -0.31623,
				"method": "rhf"
			},
			{
				"type": "occ",
				"energy": -0.27338,
				"method": "rhf"
			},
			{
				"type": "occ",
				"energy": -0.25316,
				"method": "rhf"
			},
			{
				"type": "occ",
				"energy": -0.24814,
				"method": "rhf"
			},
			{
				"type": "occ",
				"energy": -0.20033,
				"method": "rhf"
			},
			{
				"type": "unocc",
				"energy": -0.04173,
				"method": "rhf"
			},
			{
				"type": "unocc",
				"energy": -0.01755,
				"method": "rhf"
			},
			{
				"type": "unocc",
				"energy": 0.03831,
				"method": "rhf"
			},
			{
				"type": "unocc",
				"energy": 0.06919,
				"method": "rhf"
			},
			{
				"type": "unocc",
				"energy": 0.09494,
				"method": "rhf"
			}
		],
		"cosmo_sigma_profile": { 
			"-0.025": 0.0,
			"-0.024": 0.0,
			"-0.023": 0.0,
			"-0.022": 0.0,
			"-0.021": 0.0,
			"-0.02": 0.0,
			"-0.019": 0.0,
			"-0.018": 0.0,
			"-0.017": 0.0,
			"-0.016": 0.0,
			"-0.015": 0.0,
			"-0.014": 0.0,
			"-0.013": 1.06855819784,
			"-0.012": 2.81156728209,
			"-0.011": 2.86992778188,
			"-0.01": 3.3088546692,
			"-0.009": 3.41671148266,
			"-0.008": 3.37305493016,
			"-0.007": 3.2447254675,
			"-0.006": 11.1081410986,
			"-0.005": 12.7751383486,
			"-0.004": 11.3996115333,
			"-0.003": 9.33876420236,
			"-0.002": 7.82975432891,
			"-0.001": 8.49472088879,
			"0.0": 8.20011746588,
			"0.001": 9.35813776261,
			"0.002": 15.80883611,
			"0.003": 19.9017145652,
			"0.004": 14.046561633,
			"0.005": 10.3257337324,
			"0.006": 3.67377030153,
			"0.007": 2.50726219397,
			"0.008": 2.39452959575,
			"0.009": 1.99958586777,
			"0.01": 1.41133214645,
			"0.011": 2.23323254347,
			"0.012": 1.32497563671,
			"0.013": 1.90942804468,
			"0.014": 1.00679892975,
			"0.015": 0.624075041518,
			"0.016": 1.35579882653,
			"0.017": 0.432775675852,
			"0.018": 0.0,
			"0.019": 0.0,
			"0.02": 0.0,
			"0.021": 0.0,
			"0.022": 0.0,
			"0.023": 0.0,
			"0.024": 0.0,
			"0.025": 0.0
		}
	}
}
