{
	 "smiles": "CCC1CC(=O)CC(C)(C)N1O", 
	 "Tm": 308.65, 
	 "num_atms": 29, 
	 "gaussian": { 
		 "optdone": 1, 
		 "sigma_profile": "yes", 
		 "theory": "DFT", 
		 "functional": "B3LYP", 
		 "basiset": "6-31G**", 
		 "properties": { 
			 "R2extent": 2480.3398, 
			 "electric_dipole_moment_norm": 2.98744433588, 
			 "electric_quadrupole_moment_norm": 9.58028001209, 
			 "total_energy": -558.349249934, 
			 "HOMO_LUMO_gap": 0.21211, 
			 "cosmo_polarized_energy": -10.35, 
			 "cosmo_cavitation_energy": 29.0, 
			 "cosmo_dispersion_energy": -20.29, 
			 "cosmo_repulsion_energy": 1.6, 
			 "cosmo_total_nonelectrostatic_energy": 10.31, 
			 "SMD_solvation_energy": 5.45 
		},
		"coords": [
			{
				"x": 1.7907725281,
				"y": -3.6310536703,
				"z": -0.911349283,
				"element": "C" 
			},
			{
				"x": 0.3592738045,
				"y": -3.2796382297,
				"z": -0.4931860635,
				"element": "C" 
			},
			{
				"x": -0.0103314861,
				"y": -1.7893809681,
				"z": -0.6149364927,
				"element": "C" 
			},
			{
				"x": 0.0875107925,
				"y": -1.2613070832,
				"z": -2.0511423444,
				"element": "C" 
			},
			{
				"x": -0.3327839107,
				"y": 0.1990762422,
				"z": -2.1623536107,
				"element": "C" 
			},
			{
				"x": -0.6710682164,
				"y": 0.7037619824,
				"z": -3.2148855006,
				"element": "O" 
			},
			{
				"x": -0.2916463572,
				"y": 0.9609506526,
				"z": -0.8485505227,
				"element": "C" 
			},
			{
				"x": 0.8733461018,
				"y": 0.4958745102,
				"z": 0.0592846663,
				"element": "C" 
			},
			{
				"x": 0.8407315517,
				"y": 1.2877306036,
				"z": 1.3739681118,
				"element": "C" 
			},
			{
				"x": 2.2307559491,
				"y": 0.7623001566,
				"z": -0.6260990141,
				"element": "C" 
			},
			{
				"x": 0.8114880304,
				"y": -0.9909460397,
				"z": 0.3301777281,
				"element": "N" 
			},
			{
				"x": 0.1730952699,
				"y": -1.2379596581,
				"z": 1.6093075853,
				"element": "O" 
			},
			{
				"x": 1.9546079596,
				"y": -3.4853069199,
				"z": -1.9844738203,
				"element": "H" 
			},
			{
				"x": 2.5131586703,
				"y": -3.0095289713,
				"z": -0.374042321,
				"element": "H" 
			},
			{
				"x": 2.0112315339,
				"y": -4.6802164151,
				"z": -0.6902195313,
				"element": "H" 
			},
			{
				"x": 0.1976609188,
				"y": -3.5680096654,
				"z": 0.5506976049,
				"element": "H" 
			},
			{
				"x": -0.3600387238,
				"y": -3.8580078654,
				"z": -1.0874294239,
				"element": "H" 
			},
			{
				"x": -1.0633409759,
				"y": -1.692380965,
				"z": -0.3039150277,
				"element": "H" 
			},
			{
				"x": -0.547865125,
				"y": -1.8565353287,
				"z": -2.7146460321,
				"element": "H" 
			},
			{
				"x": 1.1075763386,
				"y": -1.3515154213,
				"z": -2.4434934384,
				"element": "H" 
			},
			{
				"x": -0.2394397546,
				"y": 2.0325401428,
				"z": -1.0606390049,
				"element": "H" 
			},
			{
				"x": -1.2439573064,
				"y": 0.7800995144,
				"z": -0.3291638673,
				"element": "H" 
			},
			{
				"x": 1.6374852063,
				"y": 0.9619841053,
				"z": 2.0493092418,
				"element": "H" 
			},
			{
				"x": -0.1120054344,
				"y": 1.1781739929,
				"z": 1.8929961459,
				"element": "H" 
			},
			{
				"x": 1.0021227758,
				"y": 2.3474685957,
				"z": 1.1528351692,
				"element": "H" 
			},
			{
				"x": 2.3421967225,
				"y": 1.8284163545,
				"z": -0.8512289416,
				"element": "H" 
			},
			{
				"x": 3.0456575918,
				"y": 0.4584783139,
				"z": 0.0367884129,
				"element": "H" 
			},
			{
				"x": 2.3476772948,
				"y": 0.2118260086,
				"z": -1.5625929715,
				"element": "H" 
			},
			{
				"x": 0.9061282501,
				"y": -1.5576939746,
				"z": 2.1515825456,
				"element": "H" 
			}
		],
		 "valence_orbital": [ 
			{
				"type": "occ",
				"energy": -0.33313,
				"method": "rhf"
			},
			{
				"type": "occ",
				"energy": -0.32457,
				"method": "rhf"
			},
			{
				"type": "occ",
				"energy": -0.28765,
				"method": "rhf"
			},
			{
				"type": "occ",
				"energy": -0.23799,
				"method": "rhf"
			},
			{
				"type": "occ",
				"energy": -0.22631,
				"method": "rhf"
			},
			{
				"type": "unocc",
				"energy": -0.0142,
				"method": "rhf"
			},
			{
				"type": "unocc",
				"energy": 0.05802,
				"method": "rhf"
			},
			{
				"type": "unocc",
				"energy": 0.07316,
				"method": "rhf"
			},
			{
				"type": "unocc",
				"energy": 0.10057,
				"method": "rhf"
			},
			{
				"type": "unocc",
				"energy": 0.106,
				"method": "rhf"
			}
		],
		"cosmo_sigma_profile": { 
			"-0.025": 0.0,
			"-0.024": 0.0,
			"-0.023": 0.0,
			"-0.022": 0.0,
			"-0.021": 0.0,
			"-0.02": 0.0,
			"-0.019": 0.0,
			"-0.018": 0.0,
			"-0.017": 0.0,
			"-0.016": 0.0566495531825,
			"-0.015": 0.603844266769,
			"-0.014": 1.07054331753,
			"-0.013": 0.753023548571,
			"-0.012": 0.617153465706,
			"-0.011": 0.496896962533,
			"-0.01": 0.473244411212,
			"-0.009": 1.06226517254,
			"-0.008": 0.951903784669,
			"-0.007": 1.97524944918,
			"-0.006": 6.07397791989,
			"-0.005": 9.8490862102,
			"-0.004": 17.1931473558,
			"-0.003": 26.0132802545,
			"-0.002": 25.4796346843,
			"-0.001": 25.4516022234,
			"0.0": 25.3088634806,
			"0.001": 26.3922032094,
			"0.002": 9.63434763076,
			"0.003": 5.28699005369,
			"0.004": 3.92663208128,
			"0.005": 4.08350199925,
			"0.006": 3.80506239642,
			"0.007": 2.81991731518,
			"0.008": 3.50376710715,
			"0.009": 3.36528271735,
			"0.01": 3.52952218867,
			"0.011": 3.65105672405,
			"0.012": 5.8269791281,
			"0.013": 3.52120185903,
			"0.014": 0.39888360993,
			"0.015": 0.0,
			"0.016": 0.0,
			"0.017": 0.0,
			"0.018": 0.0,
			"0.019": 0.0,
			"0.02": 0.0,
			"0.021": 0.0,
			"0.022": 0.0,
			"0.023": 0.0,
			"0.024": 0.0,
			"0.025": 0.0
		}
	}
}
