{
	 "smiles": "CCOC(=O)C1CC2=CC3=C(NC(=O)C(C3)C(=O)OCC)C=C2NC1=O", 
	 "Tm": 515.15, 
	 "num_atms": 46, 
	 "gaussian": { 
		 "optdone": 1, 
		 "sigma_profile": "yes", 
		 "theory": "DFT", 
		 "functional": "B3LYP", 
		 "basiset": "6-31G**", 
		 "properties": { 
			 "R2extent": 10159.769, 
			 "electric_dipole_moment_norm": 2.70494252989, 
			 "electric_quadrupole_moment_norm": 31.311875578, 
			 "total_energy": -1258.89714639, 
			 "HOMO_LUMO_gap": 0.18867, 
			 "cosmo_polarized_energy": -26.97, 
			 "cosmo_cavitation_energy": 50.03, 
			 "cosmo_dispersion_energy": -31.1, 
			 "cosmo_repulsion_energy": 2.37, 
			 "cosmo_total_nonelectrostatic_energy": 21.3, 
			 "SMD_solvation_energy": 10.79 
		},
		"coords": [
			{
				"x": 2.0070412228,
				"y": 2.3832866514,
				"z": -0.3744775731,
				"element": "C" 
			},
			{
				"x": 2.8039612427,
				"y": 2.0861406093,
				"z": 0.8859948122,
				"element": "C" 
			},
			{
				"x": 1.9276890182,
				"y": 1.9233891767,
				"z": 2.0315587349,
				"element": "O" 
			},
			{
				"x": 1.4399730416,
				"y": 0.6858648554,
				"z": 2.2507077589,
				"element": "C" 
			},
			{
				"x": 1.6971546028,
				"y": -0.2866501987,
				"z": 1.5735455381,
				"element": "O" 
			},
			{
				"x": 0.489497011,
				"y": 0.7014757029,
				"z": 3.4465427604,
				"element": "C" 
			},
			{
				"x": -0.905435857,
				"y": 1.2173214478,
				"z": 3.0172935695,
				"element": "C" 
			},
			{
				"x": -1.6010452647,
				"y": 0.205141177,
				"z": 2.140737437,
				"element": "C" 
			},
			{
				"x": -2.4113995982,
				"y": 0.5422776771,
				"z": 1.0566068524,
				"element": "C" 
			},
			{
				"x": -3.0561950927,
				"y": -0.4243105028,
				"z": 0.2857667106,
				"element": "C" 
			},
			{
				"x": -2.8579678864,
				"y": -1.7780364148,
				"z": 0.6091372167,
				"element": "C" 
			},
			{
				"x": -3.4740589811,
				"y": -2.7546190783,
				"z": -0.1890367152,
				"element": "N" 
			},
			{
				"x": -3.8732834899,
				"y": -2.5714793762,
				"z": -1.4997043993,
				"element": "C" 
			},
			{
				"x": -4.3023089147,
				"y": -3.4921095068,
				"z": -2.1735230567,
				"element": "O" 
			},
			{
				"x": -3.7442813999,
				"y": -1.1394020158,
				"z": -2.01925959,
				"element": "C" 
			},
			{
				"x": -3.9566603776,
				"y": -0.1101278948,
				"z": -0.8839902709,
				"element": "C" 
			},
			{
				"x": -2.3990420185,
				"y": -0.8661616535,
				"z": -2.6991343516,
				"element": "C" 
			},
			{
				"x": -2.22220985,
				"y": 0.0675706566,
				"z": -3.4507356373,
				"element": "O" 
			},
			{
				"x": -1.4465116892,
				"y": -1.7322189735,
				"z": -2.3160719659,
				"element": "O" 
			},
			{
				"x": -0.1065707235,
				"y": -1.5056731969,
				"z": -2.826308684,
				"element": "C" 
			},
			{
				"x": 0.8653582827,
				"y": -2.2218843576,
				"z": -1.9076665252,
				"element": "C" 
			},
			{
				"x": -2.0510426419,
				"y": -2.1456924163,
				"z": 1.6875484516,
				"element": "C" 
			},
			{
				"x": -1.4223785823,
				"y": -1.1551929714,
				"z": 2.4445466937,
				"element": "C" 
			},
			{
				"x": -0.5881077097,
				"y": -1.5015437542,
				"z": 3.5196449222,
				"element": "N" 
			},
			{
				"x": 0.4024031287,
				"y": -0.7018309865,
				"z": 4.0501785389,
				"element": "C" 
			},
			{
				"x": 1.1454428081,
				"y": -1.0935571473,
				"z": 4.9329083636,
				"element": "O" 
			},
			{
				"x": 1.3830954289,
				"y": 3.2721768007,
				"z": -0.2430293128,
				"element": "H" 
			},
			{
				"x": 2.6897614927,
				"y": 2.5653488995,
				"z": -1.2109327792,
				"element": "H" 
			},
			{
				"x": 1.3659503791,
				"y": 1.5369862718,
				"z": -0.6343906956,
				"element": "H" 
			},
			{
				"x": 3.4035764512,
				"y": 1.1802267489,
				"z": 0.774029231,
				"element": "H" 
			},
			{
				"x": 3.4527214704,
				"y": 2.9215464251,
				"z": 1.158511084,
				"element": "H" 
			},
			{
				"x": 0.9150994299,
				"y": 1.3548320847,
				"z": 4.2109824933,
				"element": "H" 
			},
			{
				"x": -0.8059587548,
				"y": 2.1808388348,
				"z": 2.5094130647,
				"element": "H" 
			},
			{
				"x": -1.4927138031,
				"y": 1.3967658405,
				"z": 3.9288638462,
				"element": "H" 
			},
			{
				"x": -2.5482999776,
				"y": 1.5921338881,
				"z": 0.8067206497,
				"element": "H" 
			},
			{
				"x": -3.4544620743,
				"y": -3.721252453,
				"z": 0.1102776179,
				"element": "H" 
			},
			{
				"x": -4.5062688254,
				"y": -1.011689062,
				"z": -2.7910581706,
				"element": "H" 
			},
			{
				"x": -5.0100924946,
				"y": -0.1556220863,
				"z": -0.5739517093,
				"element": "H" 
			},
			{
				"x": -3.7769123945,
				"y": 0.8980415869,
				"z": -1.2674329853,
				"element": "H" 
			},
			{
				"x": 0.0725955163,
				"y": -0.4283584975,
				"z": -2.8664214749,
				"element": "H" 
			},
			{
				"x": -0.0667381787,
				"y": -1.8914056857,
				"z": -3.8504252014,
				"element": "H" 
			},
			{
				"x": 0.6346565068,
				"y": -3.2895921128,
				"z": -1.8505229727,
				"element": "H" 
			},
			{
				"x": 0.8391623634,
				"y": -1.8027383436,
				"z": -0.8977360941,
				"element": "H" 
			},
			{
				"x": 1.8829738117,
				"y": -2.1136389443,
				"z": -2.2964254585,
				"element": "H" 
			},
			{
				"x": -1.877241509,
				"y": -3.1956702694,
				"z": 1.9083420459,
				"element": "H" 
			},
			{
				"x": -0.5645251197,
				"y": -2.4626074351,
				"z": 3.8360772304,
				"element": "H" 
			}
		],
		 "valence_orbital": [ 
			{
				"type": "occ",
				"energy": -0.28154,
				"method": "rhf"
			},
			{
				"type": "occ",
				"energy": -0.26339,
				"method": "rhf"
			},
			{
				"type": "occ",
				"energy": -0.25745,
				"method": "rhf"
			},
			{
				"type": "occ",
				"energy": -0.24156,
				"method": "rhf"
			},
			{
				"type": "occ",
				"energy": -0.21605,
				"method": "rhf"
			},
			{
				"type": "unocc",
				"energy": -0.02738,
				"method": "rhf"
			},
			{
				"type": "unocc",
				"energy": -0.01884,
				"method": "rhf"
			},
			{
				"type": "unocc",
				"energy": -0.00405,
				"method": "rhf"
			},
			{
				"type": "unocc",
				"energy": 0.00323,
				"method": "rhf"
			},
			{
				"type": "unocc",
				"energy": 0.01185,
				"method": "rhf"
			}
		],
		"cosmo_sigma_profile": { 
			"-0.025": 0.0,
			"-0.024": 0.0,
			"-0.023": 0.0,
			"-0.022": 0.0,
			"-0.021": 0.0,
			"-0.02": 0.0,
			"-0.019": 0.0,
			"-0.018": 0.0,
			"-0.017": 0.0,
			"-0.016": 0.143269274484,
			"-0.015": 1.69825308172,
			"-0.014": 2.86153271975,
			"-0.013": 2.48712027798,
			"-0.012": 1.76327878402,
			"-0.011": 2.60008677265,
			"-0.01": 2.40327891713,
			"-0.009": 2.49437950634,
			"-0.008": 4.30596650962,
			"-0.007": 7.41398326184,
			"-0.006": 22.3495722272,
			"-0.005": 28.4280277135,
			"-0.004": 37.1719648995,
			"-0.003": 38.266961709,
			"-0.002": 32.2250814022,
			"-0.001": 26.9037737593,
			"0.0": 26.6864577347,
			"0.001": 21.4980446411,
			"0.002": 17.7731770841,
			"0.003": 16.8004605038,
			"0.004": 17.3131621901,
			"0.005": 11.8820956953,
			"0.006": 9.77553714933,
			"0.007": 7.34667529032,
			"0.008": 6.08312025087,
			"0.009": 5.4018225985,
			"0.01": 7.71270514444,
			"0.011": 9.15237072843,
			"0.012": 11.2330347302,
			"0.013": 10.0350818569,
			"0.014": 1.77865876038,
			"0.015": 0.0,
			"0.016": 0.0,
			"0.017": 0.0,
			"0.018": 0.0,
			"0.019": 0.0,
			"0.02": 0.0,
			"0.021": 0.0,
			"0.022": 0.0,
			"0.023": 0.0,
			"0.024": 0.0,
			"0.025": 0.0
		}
	}
}
