{
	 "smiles": "COC1=C(C(OC(C)=O)=C(OC(C)=O)C2=C1C=CC=C2)C(C)(C)C(C)C", 
	 "Tm": 418.15, 
	 "num_atms": 52, 
	 "gaussian": { 
		 "optdone": 1, 
		 "sigma_profile": "yes", 
		 "theory": "DFT", 
		 "functional": "B3LYP", 
		 "basiset": "6-31G**", 
		 "properties": { 
			 "R2extent": 9133.0098, 
			 "electric_dipole_moment_norm": 1.97690572613, 
			 "electric_quadrupole_moment_norm": 20.1404971421, 
			 "total_energy": -1192.03099815, 
			 "HOMO_LUMO_gap": 0.16692, 
			 "cosmo_polarized_energy": -15.36, 
			 "cosmo_cavitation_energy": 50.51, 
			 "cosmo_dispersion_energy": -32.81, 
			 "cosmo_repulsion_energy": 2.46, 
			 "cosmo_total_nonelectrostatic_energy": 20.16, 
			 "SMD_solvation_energy": 10.75 
		},
		"coords": [
			{
				"x": 1.8302725533,
				"y": -0.3655791843,
				"z": -3.7321069695,
				"element": "C" 
			},
			{
				"x": 2.1113919673,
				"y": -0.5314595818,
				"z": -2.3395669756,
				"element": "O" 
			},
			{
				"x": 1.3228004612,
				"y": 0.237728124,
				"z": -1.5049019715,
				"element": "C" 
			},
			{
				"x": 0.2310690032,
				"y": -0.3006849959,
				"z": -0.8214964278,
				"element": "C" 
			},
			{
				"x": -0.531498506,
				"y": 0.6562268207,
				"z": -0.0642814508,
				"element": "C" 
			},
			{
				"x": -1.5915459467,
				"y": 0.2038132197,
				"z": 0.7266281176,
				"element": "O" 
			},
			{
				"x": -2.8729150889,
				"y": 0.6369251588,
				"z": 0.5100391317,
				"element": "C" 
			},
			{
				"x": -3.771201913,
				"y": 0.1200084285,
				"z": 1.6066047589,
				"element": "C" 
			},
			{
				"x": -3.2122055098,
				"y": 1.3244120965,
				"z": -0.4202988971,
				"element": "O" 
			},
			{
				"x": -0.2121681529,
				"y": 1.9965740731,
				"z": 0.0177022945,
				"element": "C" 
			},
			{
				"x": -1.021552307,
				"y": 2.8064009323,
				"z": 0.8089268847,
				"element": "O" 
			},
			{
				"x": -1.7643791078,
				"y": 3.8015737017,
				"z": 0.1922177774,
				"element": "C" 
			},
			{
				"x": -2.7252597436,
				"y": 4.4033957713,
				"z": 1.1849251881,
				"element": "C" 
			},
			{
				"x": -1.6400815875,
				"y": 4.1154980599,
				"z": -0.9604285512,
				"element": "O" 
			},
			{
				"x": 0.9669385878,
				"y": 2.5058319108,
				"z": -0.5789155991,
				"element": "C" 
			},
			{
				"x": 1.7481487358,
				"y": 1.5979333022,
				"z": -1.3495926012,
				"element": "C" 
			},
			{
				"x": 2.969557737,
				"y": 2.0598711129,
				"z": -1.9131855845,
				"element": "C" 
			},
			{
				"x": 3.3848461243,
				"y": 3.3590157317,
				"z": -1.7284425278,
				"element": "C" 
			},
			{
				"x": 2.5998420926,
				"y": 4.258533911,
				"z": -0.9695843353,
				"element": "C" 
			},
			{
				"x": 1.418056512,
				"y": 3.8406774554,
				"z": -0.4031114594,
				"element": "C" 
			},
			{
				"x": -0.160101296,
				"y": -1.8125134551,
				"z": -0.776147973,
				"element": "C" 
			},
			{
				"x": -1.6464678186,
				"y": -1.9805534081,
				"z": -1.2072359312,
				"element": "C" 
			},
			{
				"x": 0.6450020562,
				"y": -2.7183273148,
				"z": -1.7384386179,
				"element": "C" 
			},
			{
				"x": 0.058124401,
				"y": -2.3228187264,
				"z": 0.7073678154,
				"element": "C" 
			},
			{
				"x": -0.48193403,
				"y": -3.7422227368,
				"z": 0.9634800961,
				"element": "C" 
			},
			{
				"x": 1.5251701631,
				"y": -2.2410167982,
				"z": 1.1630799069,
				"element": "C" 
			},
			{
				"x": 0.7956001118,
				"y": -0.6442309233,
				"z": -3.9649250024,
				"element": "H" 
			},
			{
				"x": 2.513390283,
				"y": -1.0300752777,
				"z": -4.2654400477,
				"element": "H" 
			},
			{
				"x": 1.9975528172,
				"y": 0.6679049345,
				"z": -4.0562968825,
				"element": "H" 
			},
			{
				"x": -3.4809068328,
				"y": 0.5736028886,
				"z": 2.5594629934,
				"element": "H" 
			},
			{
				"x": -3.6626453537,
				"y": -0.9625084633,
				"z": 1.7160167076,
				"element": "H" 
			},
			{
				"x": -4.8056112234,
				"y": 0.3726240843,
				"z": 1.3758951358,
				"element": "H" 
			},
			{
				"x": -3.0274083021,
				"y": 5.3927884448,
				"z": 0.841312112,
				"element": "H" 
			},
			{
				"x": -3.6120891893,
				"y": 3.7630994212,
				"z": 1.2331170248,
				"element": "H" 
			},
			{
				"x": -2.2859162675,
				"y": 4.4568897316,
				"z": 2.1831371342,
				"element": "H" 
			},
			{
				"x": 3.5875897649,
				"y": 1.3569930111,
				"z": -2.4584853253,
				"element": "H" 
			},
			{
				"x": 4.326441961,
				"y": 3.6924810698,
				"z": -2.1548283295,
				"element": "H" 
			},
			{
				"x": 2.937909968,
				"y": 5.2802846656,
				"z": -0.8243004791,
				"element": "H" 
			},
			{
				"x": 0.8287113901,
				"y": 4.5248665612,
				"z": 0.1943180424,
				"element": "H" 
			},
			{
				"x": -1.8376499077,
				"y": -3.0157910392,
				"z": -1.5038783245,
				"element": "H" 
			},
			{
				"x": -2.3521120384,
				"y": -1.7368936005,
				"z": -0.4139056446,
				"element": "H" 
			},
			{
				"x": -1.8730417234,
				"y": -1.3451985653,
				"z": -2.0688594608,
				"element": "H" 
			},
			{
				"x": 1.7198186967,
				"y": -2.68339322,
				"z": -1.5779996918,
				"element": "H" 
			},
			{
				"x": 0.4506526884,
				"y": -2.4635487263,
				"z": -2.7826857072,
				"element": "H" 
			},
			{
				"x": 0.3055360589,
				"y": -3.748856735,
				"z": -1.6000421538,
				"element": "H" 
			},
			{
				"x": -0.5182180313,
				"y": -1.6533618151,
				"z": 1.3509421723,
				"element": "H" 
			},
			{
				"x": -0.3905213947,
				"y": -3.9792905474,
				"z": 2.0291860411,
				"element": "H" 
			},
			{
				"x": 0.0802051916,
				"y": -4.5069083697,
				"z": 0.4174359353,
				"element": "H" 
			},
			{
				"x": -1.5377899091,
				"y": -3.8450627607,
				"z": 0.6970585275,
				"element": "H" 
			},
			{
				"x": 2.1575879874,
				"y": -2.9624549881,
				"z": 0.6348756844,
				"element": "H" 
			},
			{
				"x": 1.9499147394,
				"y": -1.2454850792,
				"z": 1.0063222465,
				"element": "H" 
			},
			{
				"x": 1.5980891278,
				"y": -2.4684183109,
				"z": 2.2322311937,
				"element": "H" 
			}
		],
		 "valence_orbital": [ 
			{
				"type": "occ",
				"energy": -0.27516,
				"method": "rhf"
			},
			{
				"type": "occ",
				"energy": -0.27381,
				"method": "rhf"
			},
			{
				"type": "occ",
				"energy": -0.26513,
				"method": "rhf"
			},
			{
				"type": "occ",
				"energy": -0.23838,
				"method": "rhf"
			},
			{
				"type": "occ",
				"energy": -0.20776,
				"method": "rhf"
			},
			{
				"type": "unocc",
				"energy": -0.04084,
				"method": "rhf"
			},
			{
				"type": "unocc",
				"energy": -0.0158,
				"method": "rhf"
			},
			{
				"type": "unocc",
				"energy": 0.00089,
				"method": "rhf"
			},
			{
				"type": "unocc",
				"energy": 0.01289,
				"method": "rhf"
			},
			{
				"type": "unocc",
				"energy": 0.0331,
				"method": "rhf"
			}
		],
		"cosmo_sigma_profile": { 
			"-0.025": 0.0,
			"-0.024": 0.0,
			"-0.023": 0.0,
			"-0.022": 0.0,
			"-0.021": 0.0,
			"-0.02": 0.0,
			"-0.019": 0.0,
			"-0.018": 0.0,
			"-0.017": 0.0,
			"-0.016": 0.0,
			"-0.015": 0.0,
			"-0.014": 0.0,
			"-0.013": 0.0,
			"-0.012": 0.0,
			"-0.011": 0.0,
			"-0.01": 0.0,
			"-0.009": 0.0,
			"-0.008": 0.0731666482451,
			"-0.007": 4.04661790963,
			"-0.006": 15.8087260216,
			"-0.005": 25.495702756,
			"-0.004": 32.3226298273,
			"-0.003": 38.8715596001,
			"-0.002": 50.4149790146,
			"-0.001": 37.9376848448,
			"0.0": 37.3988847655,
			"0.001": 42.016489738,
			"0.002": 29.5721803087,
			"0.003": 16.3497642176,
			"0.004": 16.058023381,
			"0.005": 11.2717174361,
			"0.006": 5.02070117151,
			"0.007": 4.30409367191,
			"0.008": 4.45537876544,
			"0.009": 4.76189391695,
			"0.01": 7.71057611133,
			"0.011": 10.2517292952,
			"0.012": 2.80665305589,
			"0.013": 0.0183973894915,
			"0.014": 0.0,
			"0.015": 0.0,
			"0.016": 0.0,
			"0.017": 0.0,
			"0.018": 0.0,
			"0.019": 0.0,
			"0.02": 0.0,
			"0.021": 0.0,
			"0.022": 0.0,
			"0.023": 0.0,
			"0.024": 0.0,
			"0.025": 0.0
		}
	}
}
