{
	 "smiles": "CC(=O)C1=CC=CC=C1C(O)=O", 
	 "Tm": 389.15, 
	 "num_atms": 20, 
	 "gaussian": { 
		 "optdone": 1, 
		 "sigma_profile": "yes", 
		 "theory": "DFT", 
		 "functional": "B3LYP", 
		 "basiset": "6-31G**", 
		 "properties": { 
			 "R2extent": 2354.9936, 
			 "electric_dipole_moment_norm": 7.10204228867, 
			 "electric_quadrupole_moment_norm": 10.6045367127, 
			 "total_energy": -573.462973525, 
			 "HOMO_LUMO_gap": 0.16673, 
			 "cosmo_polarized_energy": -14.92, 
			 "cosmo_cavitation_energy": 23.95, 
			 "cosmo_dispersion_energy": -17.98, 
			 "cosmo_repulsion_energy": 1.4, 
			 "cosmo_total_nonelectrostatic_energy": 7.37, 
			 "SMD_solvation_energy": 5.88 
		},
		"coords": [
			{
				"x": 4.0746584028,
				"y": 1.0670979765,
				"z": 0.2801345772,
				"element": "C" 
			},
			{
				"x": 2.9339227255,
				"y": 0.0963888689,
				"z": 0.0312778599,
				"element": "C" 
			},
			{
				"x": 3.2237743878,
				"y": -1.096852042,
				"z": -0.069894166,
				"element": "O" 
			},
			{
				"x": 1.5363969327,
				"y": 0.6143012642,
				"z": -0.105560629,
				"element": "C" 
			},
			{
				"x": 1.4193477184,
				"y": 1.9881665999,
				"z": -0.4023259788,
				"element": "C" 
			},
			{
				"x": 0.1904956798,
				"y": 2.6039555357,
				"z": -0.6070631287,
				"element": "C" 
			},
			{
				"x": -0.9735444558,
				"y": 1.8496694223,
				"z": -0.4846665013,
				"element": "C" 
			},
			{
				"x": -0.886459861,
				"y": 0.4989153111,
				"z": -0.161707348,
				"element": "C" 
			},
			{
				"x": 0.3398088571,
				"y": -0.1568084446,
				"z": 0.0195667247,
				"element": "C" 
			},
			{
				"x": 0.1438802019,
				"y": -1.6358695244,
				"z": 0.3932039526,
				"element": "C" 
			},
			{
				"x": 1.1358473993,
				"y": -2.4981459506,
				"z": 0.2277064427,
				"element": "O" 
			},
			{
				"x": -0.943007221,
				"y": -2.000986376,
				"z": 0.7968205302,
				"element": "O" 
			},
			{
				"x": 4.9545174124,
				"y": 0.4841690707,
				"z": 0.5526223211,
				"element": "H" 
			},
			{
				"x": 3.8394863,
				"y": 1.7831100805,
				"z": 1.0719540198,
				"element": "H" 
			},
			{
				"x": 4.3060572883,
				"y": 1.6347925919,
				"z": -0.6279181234,
				"element": "H" 
			},
			{
				"x": 2.3153506751,
				"y": 2.5899580995,
				"z": -0.4909526817,
				"element": "H" 
			},
			{
				"x": 0.1470990108,
				"y": 3.6607054777,
				"z": -0.8518171006,
				"element": "H" 
			},
			{
				"x": -1.946941899,
				"y": 2.3086032903,
				"z": -0.6298780581,
				"element": "H" 
			},
			{
				"x": -1.7818315725,
				"y": -0.0957250434,
				"z": -0.0264677255,
				"element": "H" 
			},
			{
				"x": 1.9809420172,
				"y": -2.0388462081,
				"z": -0.0274349871,
				"element": "H" 
			}
		],
		 "valence_orbital": [ 
			{
				"type": "occ",
				"energy": -0.29578,
				"method": "rhf"
			},
			{
				"type": "occ",
				"energy": -0.28666,
				"method": "rhf"
			},
			{
				"type": "occ",
				"energy": -0.28352,
				"method": "rhf"
			},
			{
				"type": "occ",
				"energy": -0.27628,
				"method": "rhf"
			},
			{
				"type": "occ",
				"energy": -0.25747,
				"method": "rhf"
			},
			{
				"type": "unocc",
				"energy": -0.09074,
				"method": "rhf"
			},
			{
				"type": "unocc",
				"energy": -0.04329,
				"method": "rhf"
			},
			{
				"type": "unocc",
				"energy": 0.00689,
				"method": "rhf"
			},
			{
				"type": "unocc",
				"energy": 0.0514,
				"method": "rhf"
			},
			{
				"type": "unocc",
				"energy": 0.07184,
				"method": "rhf"
			}
		],
		"cosmo_sigma_profile": { 
			"-0.025": 0.0,
			"-0.024": 0.0,
			"-0.023": 0.0,
			"-0.022": 0.0,
			"-0.021": 0.0,
			"-0.02": 0.0,
			"-0.019": 0.0,
			"-0.018": 0.0,
			"-0.017": 0.0,
			"-0.016": 0.0,
			"-0.015": 0.0,
			"-0.014": 0.0,
			"-0.013": 0.0,
			"-0.012": 0.0,
			"-0.011": 0.0,
			"-0.01": 0.0,
			"-0.009": 0.758977463849,
			"-0.008": 5.06471099651,
			"-0.007": 11.8825549985,
			"-0.006": 15.4044421515,
			"-0.005": 15.699841143,
			"-0.004": 12.8569859408,
			"-0.003": 15.2657044784,
			"-0.002": 14.9022241782,
			"-0.001": 12.6058561768,
			"0.0": 10.8307816126,
			"0.001": 13.0791557156,
			"0.002": 15.8510005083,
			"0.003": 6.46185220703,
			"0.004": 3.11537440354,
			"0.005": 3.25113174094,
			"0.006": 4.2321807284,
			"0.007": 3.70192148484,
			"0.008": 2.89482263466,
			"0.009": 4.16894559984,
			"0.01": 4.62715931474,
			"0.011": 4.58801310426,
			"0.012": 6.49128609069,
			"0.013": 3.21412894773,
			"0.014": 1.26470885727,
			"0.015": 0.0,
			"0.016": 0.0,
			"0.017": 0.0,
			"0.018": 0.0,
			"0.019": 0.0,
			"0.02": 0.0,
			"0.021": 0.0,
			"0.022": 0.0,
			"0.023": 0.0,
			"0.024": 0.0,
			"0.025": 0.0
		}
	}
}
