{
	 "smiles": "CC12CCC3C(CC[C@@H]4CC(=O)CCC34C)[C@H]1CC[C@]2(O)C#C", 
	 "Tm": 493.15, 
	 "num_atms": 53, 
	 "gaussian": { 
		 "optdone": 1, 
		 "sigma_profile": "yes", 
		 "theory": "DFT", 
		 "functional": "B3LYP", 
		 "basiset": "6-31G**", 
		 "properties": { 
			 "R2extent": 8524.9086, 
			 "electric_dipole_moment_norm": 2.68964282015, 
			 "electric_quadrupole_moment_norm": 33.9428100403, 
			 "total_energy": -968.70532925, 
			 "HOMO_LUMO_gap": 0.22208, 
			 "cosmo_polarized_energy": -13.57, 
			 "cosmo_cavitation_energy": 46.42, 
			 "cosmo_dispersion_energy": -31.71, 
			 "cosmo_repulsion_energy": 2.31, 
			 "cosmo_total_nonelectrostatic_energy": 17.02, 
			 "SMD_solvation_energy": 8.19 
		},
		"coords": [
			{
				"x": -2.8759202475,
				"y": -0.0235742656,
				"z": 1.8925693963,
				"element": "C" 
			},
			{
				"x": -1.4582933991,
				"y": -0.5242641582,
				"z": 2.2441075962,
				"element": "C" 
			},
			{
				"x": -1.1764471387,
				"y": -1.8566688655,
				"z": 1.530482715,
				"element": "C" 
			},
			{
				"x": -1.0416916929,
				"y": -1.6560359926,
				"z": 0.0070204607,
				"element": "C" 
			},
			{
				"x": 0.0083128557,
				"y": -0.5873003958,
				"z": -0.3805442154,
				"element": "C" 
			},
			{
				"x": -0.2321987531,
				"y": 0.7585953164,
				"z": 0.3631616091,
				"element": "C" 
			},
			{
				"x": 0.8975473024,
				"y": 1.7549812442,
				"z": 0.0549561664,
				"element": "C" 
			},
			{
				"x": 1.0905982717,
				"y": 1.9586428244,
				"z": -1.4496427028,
				"element": "C" 
			},
			{
				"x": 1.3191866795,
				"y": 0.6306723631,
				"z": -2.1867631913,
				"element": "C" 
			},
			{
				"x": 1.5414703951,
				"y": 0.8697709304,
				"z": -3.6942873476,
				"element": "C" 
			},
			{
				"x": 1.4441784147,
				"y": -0.3971404029,
				"z": -4.5360821968,
				"element": "C" 
			},
			{
				"x": 1.2529979188,
				"y": -0.3671751855,
				"z": -5.7373724497,
				"element": "O" 
			},
			{
				"x": 1.6198245863,
				"y": -1.6812825841,
				"z": -3.7502055627,
				"element": "C" 
			},
			{
				"x": 0.6536002485,
				"y": -1.7878744373,
				"z": -2.5372402298,
				"element": "C" 
			},
			{
				"x": 0.192901886,
				"y": -0.4212566448,
				"z": -1.9289351194,
				"element": "C" 
			},
			{
				"x": -1.123099673,
				"y": 0.0087970984,
				"z": -2.6198137734,
				"element": "C" 
			},
			{
				"x": -0.3436769392,
				"y": 0.4815292461,
				"z": 1.8688638529,
				"element": "C" 
			},
			{
				"x": -0.5533366924,
				"y": 1.660224451,
				"z": 2.8430980006,
				"element": "C" 
			},
			{
				"x": -1.1097311033,
				"y": 1.0009567293,
				"z": 4.1360668167,
				"element": "C" 
			},
			{
				"x": -1.3221731242,
				"y": -0.5144386933,
				"z": 3.815697943,
				"element": "C" 
			},
			{
				"x": -2.4945744054,
				"y": -0.9486672687,
				"z": 4.5096998874,
				"element": "O" 
			},
			{
				"x": -0.1699353181,
				"y": -1.3122406835,
				"z": 4.2758502353,
				"element": "C" 
			},
			{
				"x": 0.7484628495,
				"y": -1.9847245438,
				"z": 4.6837558658,
				"element": "C" 
			},
			{
				"x": -3.6222595568,
				"y": -0.738989226,
				"z": 2.2464058303,
				"element": "H" 
			},
			{
				"x": -3.1097771441,
				"y": 0.9362113235,
				"z": 2.3591131692,
				"element": "H" 
			},
			{
				"x": -3.0054114978,
				"y": 0.0966065631,
				"z": 0.8149181229,
				"element": "H" 
			},
			{
				"x": -0.2471228902,
				"y": -2.2858369625,
				"z": 1.9226816312,
				"element": "H" 
			},
			{
				"x": -1.9721161421,
				"y": -2.586674295,
				"z": 1.7328564431,
				"element": "H" 
			},
			{
				"x": -0.77713923,
				"y": -2.615789718,
				"z": -0.4501321596,
				"element": "H" 
			},
			{
				"x": -2.0184420974,
				"y": -1.3861040537,
				"z": -0.4080701545,
				"element": "H" 
			},
			{
				"x": 0.9798870821,
				"y": -0.9564426604,
				"z": -0.0098093716,
				"element": "H" 
			},
			{
				"x": -1.1766767162,
				"y": 1.2000241854,
				"z": 0.0130874958,
				"element": "H" 
			},
			{
				"x": 1.8330680095,
				"y": 1.3776010202,
				"z": 0.4945213591,
				"element": "H" 
			},
			{
				"x": 0.6946243085,
				"y": 2.7170221696,
				"z": 0.5398793351,
				"element": "H" 
			},
			{
				"x": 0.212194393,
				"y": 2.466844803,
				"z": -1.8694800046,
				"element": "H" 
			},
			{
				"x": 1.9419849912,
				"y": 2.6261871208,
				"z": -1.6352284697,
				"element": "H" 
			},
			{
				"x": 2.2425622366,
				"y": 0.1942330215,
				"z": -1.7744410013,
				"element": "H" 
			},
			{
				"x": 2.5399490528,
				"y": 1.2982052636,
				"z": -3.8602231079,
				"element": "H" 
			},
			{
				"x": 0.8331293951,
				"y": 1.5983945212,
				"z": -4.1028389407,
				"element": "H" 
			},
			{
				"x": 1.5166516756,
				"y": -2.5324343768,
				"z": -4.4271423004,
				"element": "H" 
			},
			{
				"x": 2.6557487754,
				"y": -1.6778172887,
				"z": -3.382188671,
				"element": "H" 
			},
			{
				"x": 1.1511042893,
				"y": -2.383915831,
				"z": -1.7640705068,
				"element": "H" 
			},
			{
				"x": -0.2291264811,
				"y": -2.3593552149,
				"z": -2.8417446214,
				"element": "H" 
			},
			{
				"x": -1.9196308949,
				"y": -0.71503699,
				"z": -2.4274007348,
				"element": "H" 
			},
			{
				"x": -1.0087665426,
				"y": 0.0633867251,
				"z": -3.7067117742,
				"element": "H" 
			},
			{
				"x": -1.476579396,
				"y": 0.9864926008,
				"z": -2.2801257442,
				"element": "H" 
			},
			{
				"x": 0.603132562,
				"y": 0.0002486727,
				"z": 2.16065142,
				"element": "H" 
			},
			{
				"x": -1.2704189743,
				"y": 2.3817812526,
				"z": 2.4353652531,
				"element": "H" 
			},
			{
				"x": 0.3744226398,
				"y": 2.2080294439,
				"z": 3.0297532413,
				"element": "H" 
			},
			{
				"x": -0.4438889565,
				"y": 1.1231361148,
				"z": 4.9926848571,
				"element": "H" 
			},
			{
				"x": -2.0821461291,
				"y": 1.4098751691,
				"z": 4.4220890301,
				"element": "H" 
			},
			{
				"x": -2.5142623106,
				"y": -1.9148233796,
				"z": 4.4774998185,
				"element": "H" 
			},
			{
				"x": 1.5614026275,
				"y": -2.5691860557,
				"z": 5.0483567995,
				"element": "H" 
			}
		],
		 "valence_orbital": [ 
			{
				"type": "occ",
				"energy": -0.27968,
				"method": "rhf"
			},
			{
				"type": "occ",
				"energy": -0.27565,
				"method": "rhf"
			},
			{
				"type": "occ",
				"energy": -0.27159,
				"method": "rhf"
			},
			{
				"type": "occ",
				"energy": -0.25538,
				"method": "rhf"
			},
			{
				"type": "occ",
				"energy": -0.23189,
				"method": "rhf"
			},
			{
				"type": "unocc",
				"energy": -0.00981,
				"method": "rhf"
			},
			{
				"type": "unocc",
				"energy": 0.03066,
				"method": "rhf"
			},
			{
				"type": "unocc",
				"energy": 0.04818,
				"method": "rhf"
			},
			{
				"type": "unocc",
				"energy": 0.0747,
				"method": "rhf"
			},
			{
				"type": "unocc",
				"energy": 0.07717,
				"method": "rhf"
			}
		],
		"cosmo_sigma_profile": { 
			"-0.025": 0.0,
			"-0.024": 0.0,
			"-0.023": 0.0,
			"-0.022": 0.0,
			"-0.021": 0.0,
			"-0.02": 0.0,
			"-0.019": 0.0,
			"-0.018": 0.0,
			"-0.017": 0.0,
			"-0.016": 0.0600376062947,
			"-0.015": 0.563533430847,
			"-0.014": 0.528671625644,
			"-0.013": 0.799720191889,
			"-0.012": 1.0401290448,
			"-0.011": 1.89031916337,
			"-0.01": 2.28019718877,
			"-0.009": 1.00466321899,
			"-0.008": 2.45104757337,
			"-0.007": 2.48024852993,
			"-0.006": 3.31580870964,
			"-0.005": 9.67876711706,
			"-0.004": 11.1374640904,
			"-0.003": 36.3763123892,
			"-0.002": 60.0440583036,
			"-0.001": 62.9973705405,
			"0.0": 47.4895220907,
			"0.001": 33.7310670961,
			"0.002": 15.3109660347,
			"0.003": 8.21627669271,
			"0.004": 8.04929282384,
			"0.005": 10.0058278781,
			"0.006": 7.42432374606,
			"0.007": 4.89629647059,
			"0.008": 3.02395742033,
			"0.009": 2.67087291967,
			"0.01": 2.59195856439,
			"0.011": 4.17763052558,
			"0.012": 5.64446450976,
			"0.013": 5.50657739365,
			"0.014": 1.90604106254,
			"0.015": 0.0,
			"0.016": 0.0,
			"0.017": 0.0,
			"0.018": 0.0,
			"0.019": 0.0,
			"0.02": 0.0,
			"0.021": 0.0,
			"0.022": 0.0,
			"0.023": 0.0,
			"0.024": 0.0,
			"0.025": 0.0
		}
	}
}
