{
	 "smiles": "COC1=C(OC)C=C(C=C1)C1=NN=C(S)N1N", 
	 "Tm": 479.15, 
	 "num_atms": 29, 
	 "gaussian": { 
		 "optdone": 1, 
		 "sigma_profile": "yes", 
		 "theory": "DFT", 
		 "functional": "B3LYP", 
		 "basiset": "6-31G**", 
		 "properties": { 
			 "R2extent": 6754.0039, 
			 "electric_dipole_moment_norm": 6.80929058346, 
			 "electric_quadrupole_moment_norm": 33.2839588207, 
			 "total_energy": -1155.84436469, 
			 "HOMO_LUMO_gap": 0.17775, 
			 "cosmo_polarized_energy": -24.19, 
			 "cosmo_cavitation_energy": 34.97, 
			 "cosmo_dispersion_energy": -25.85, 
			 "cosmo_repulsion_energy": 1.96, 
			 "cosmo_total_nonelectrostatic_energy": 11.08, 
			 "SMD_solvation_energy": 5.42 
		},
		"coords": [
			{
				"x": -2.2897763819,
				"y": -3.4218090057,
				"z": 0.8887787138,
				"element": "C" 
			},
			{
				"x": -1.0785950828,
				"y": -2.9312877293,
				"z": 0.3295445065,
				"element": "O" 
			},
			{
				"x": -0.8495627371,
				"y": -1.5885935452,
				"z": 0.3633367941,
				"element": "C" 
			},
			{
				"x": 0.3561501304,
				"y": -1.1436771605,
				"z": -0.2251925318,
				"element": "C" 
			},
			{
				"x": 1.2374841824,
				"y": -2.0081495876,
				"z": -0.8244693391,
				"element": "O" 
			},
			{
				"x": 1.8910082037,
				"y": -2.946147425,
				"z": 0.037390407,
				"element": "C" 
			},
			{
				"x": 0.6458301751,
				"y": 0.2159807633,
				"z": -0.261198828,
				"element": "C" 
			},
			{
				"x": -0.2386245683,
				"y": 1.1713234607,
				"z": 0.2702636022,
				"element": "C" 
			},
			{
				"x": -1.4192832365,
				"y": 0.7155299601,
				"z": 0.8731985138,
				"element": "C" 
			},
			{
				"x": -1.7184148816,
				"y": -0.6441295744,
				"z": 0.9224163822,
				"element": "C" 
			},
			{
				"x": 0.0255611849,
				"y": 2.6132385969,
				"z": 0.2642554587,
				"element": "C" 
			},
			{
				"x": -0.4681715659,
				"y": 3.4677952591,
				"z": 1.1332128312,
				"element": "N" 
			},
			{
				"x": -0.0699856815,
				"y": 4.7442148502,
				"z": 0.778405067,
				"element": "N" 
			},
			{
				"x": 0.6556527426,
				"y": 4.6359310926,
				"z": -0.3055830495,
				"element": "C" 
			},
			{
				"x": 1.413891633,
				"y": 5.9758632165,
				"z": -1.1582593536,
				"element": "S" 
			},
			{
				"x": 0.7701159394,
				"y": 3.3135224499,
				"z": -0.6795946286,
				"element": "N" 
			},
			{
				"x": 1.3960554915,
				"y": 2.89516921,
				"z": -1.8583285354,
				"element": "N" 
			},
			{
				"x": -3.1657344547,
				"y": -3.0027904134,
				"z": 0.3786084111,
				"element": "H" 
			},
			{
				"x": -2.3578296763,
				"y": -3.2027346123,
				"z": 1.9616552251,
				"element": "H" 
			},
			{
				"x": -2.2705110114,
				"y": -4.5024470491,
				"z": 0.7420281669,
				"element": "H" 
			},
			{
				"x": 2.5902704277,
				"y": -3.4980326296,
				"z": -0.593857104,
				"element": "H" 
			},
			{
				"x": 1.1783046738,
				"y": -3.6408974772,
				"z": 0.4893827813,
				"element": "H" 
			},
			{
				"x": 2.4493406252,
				"y": -2.4268280845,
				"z": 0.8268255266,
				"element": "H" 
			},
			{
				"x": 1.596453526,
				"y": 0.4923247404,
				"z": -0.7016832354,
				"element": "H" 
			},
			{
				"x": -2.1002701226,
				"y": 1.4413217849,
				"z": 1.3027195725,
				"element": "H" 
			},
			{
				"x": -2.6452470689,
				"y": -0.9614743127,
				"z": 1.3851578605,
				"element": "H" 
			},
			{
				"x": 1.8083332715,
				"y": 5.1984208625,
				"z": -2.1898840538,
				"element": "H" 
			},
			{
				"x": 2.2298179738,
				"y": 2.3582137702,
				"z": -1.633507228,
				"element": "H" 
			},
			{
				"x": 0.7577362886,
				"y": 2.3039485892,
				"z": -2.3855219332,
				"element": "H" 
			}
		],
		 "valence_orbital": [ 
			{
				"type": "occ",
				"energy": -0.28688,
				"method": "rhf"
			},
			{
				"type": "occ",
				"energy": -0.25708,
				"method": "rhf"
			},
			{
				"type": "occ",
				"energy": -0.24506,
				"method": "rhf"
			},
			{
				"type": "occ",
				"energy": -0.241,
				"method": "rhf"
			},
			{
				"type": "occ",
				"energy": -0.20745,
				"method": "rhf"
			},
			{
				"type": "unocc",
				"energy": -0.0297,
				"method": "rhf"
			},
			{
				"type": "unocc",
				"energy": -0.01142,
				"method": "rhf"
			},
			{
				"type": "unocc",
				"energy": 0.02325,
				"method": "rhf"
			},
			{
				"type": "unocc",
				"energy": 0.03589,
				"method": "rhf"
			},
			{
				"type": "unocc",
				"energy": 0.04142,
				"method": "rhf"
			}
		],
		"cosmo_sigma_profile": { 
			"-0.025": 0.0,
			"-0.024": 0.0,
			"-0.023": 0.0,
			"-0.022": 0.0,
			"-0.021": 0.0,
			"-0.02": 0.0,
			"-0.019": 0.0,
			"-0.018": 0.0,
			"-0.017": 0.0,
			"-0.016": 0.0,
			"-0.015": 0.565813084371,
			"-0.014": 3.05977835955,
			"-0.013": 4.33665322556,
			"-0.012": 3.60653547252,
			"-0.011": 3.25030696444,
			"-0.01": 2.22115551925,
			"-0.009": 3.85932130245,
			"-0.008": 4.00196293322,
			"-0.007": 5.0009550987,
			"-0.006": 12.5029973315,
			"-0.005": 19.4224824389,
			"-0.004": 20.5293136126,
			"-0.003": 22.7958401166,
			"-0.002": 19.5939648127,
			"-0.001": 15.5266266004,
			"0.0": 15.1699170193,
			"0.001": 15.7348355359,
			"0.002": 18.3981106924,
			"0.003": 20.0064065407,
			"0.004": 15.5391637462,
			"0.005": 10.1765268473,
			"0.006": 7.76775900144,
			"0.007": 6.41760843705,
			"0.008": 3.90409517642,
			"0.009": 4.53952478318,
			"0.01": 4.47544474665,
			"0.011": 4.53134266887,
			"0.012": 2.97753711844,
			"0.013": 3.2309053696,
			"0.014": 3.39089449118,
			"0.015": 2.56909670386,
			"0.016": 1.90851978286,
			"0.017": 0.46235789785,
			"0.018": 0.0,
			"0.019": 0.0,
			"0.02": 0.0,
			"0.021": 0.0,
			"0.022": 0.0,
			"0.023": 0.0,
			"0.024": 0.0,
			"0.025": 0.0
		}
	}
}
