{
	 "smiles": "CC1=NC2=C(N=C1)C(Cl)=NC=C2", 
	 "Tm": 413.15, 
	 "num_atms": 18, 
	 "gaussian": { 
		 "optdone": 1, 
		 "sigma_profile": "yes", 
		 "theory": "DFT", 
		 "functional": "B3LYP", 
		 "basiset": "6-31G**", 
		 "properties": { 
			 "R2extent": 3295.3229, 
			 "electric_dipole_moment_norm": 4.09065856923, 
			 "electric_quadrupole_moment_norm": 17.9793379333, 
			 "total_energy": -932.911050618, 
			 "HOMO_LUMO_gap": 0.16818, 
			 "cosmo_polarized_energy": -10.02, 
			 "cosmo_cavitation_energy": 24.39, 
			 "cosmo_dispersion_energy": -18.53, 
			 "cosmo_repulsion_energy": 1.47, 
			 "cosmo_total_nonelectrostatic_energy": 7.33, 
			 "SMD_solvation_energy": -0.12 
		},
		"coords": [
			{
				"x": -1.2179365472,
				"y": 2.1589268098,
				"z": 2.2778499165,
				"element": "C" 
			},
			{
				"x": -0.1346530976,
				"y": 1.6106612838,
				"z": 1.3899454247,
				"element": "C" 
			},
			{
				"x": -0.3274529244,
				"y": 0.4480097198,
				"z": 0.7991901635,
				"element": "N" 
			},
			{
				"x": 0.6770976763,
				"y": -0.0190598335,
				"z": 0.0004101067,
				"element": "C" 
			},
			{
				"x": 1.8771420345,
				"y": 0.7258749149,
				"z": -0.1795701664,
				"element": "C" 
			},
			{
				"x": 2.0631989581,
				"y": 1.9228290197,
				"z": 0.4350316831,
				"element": "N" 
			},
			{
				"x": 1.0815916133,
				"y": 2.3454145152,
				"z": 1.1953788547,
				"element": "C" 
			},
			{
				"x": 2.8695552456,
				"y": 0.1514085693,
				"z": -1.0358003005,
				"element": "C" 
			},
			{
				"x": 4.3668846819,
				"y": 1.0260115619,
				"z": -1.2927198047,
				"element": "Cl" 
			},
			{
				"x": 2.73189786,
				"y": -0.9925358883,
				"z": -1.644191578,
				"element": "N" 
			},
			{
				"x": 1.577590319,
				"y": -1.6906883683,
				"z": -1.4602295911,
				"element": "C" 
			},
			{
				"x": 0.5410252922,
				"y": -1.2604717742,
				"z": -0.6667409905,
				"element": "C" 
			},
			{
				"x": -2.0602063401,
				"y": 1.4666393351,
				"z": 2.3035620501,
				"element": "H" 
			},
			{
				"x": -0.8484602553,
				"y": 2.3101411835,
				"z": 3.2985764881,
				"element": "H" 
			},
			{
				"x": -1.5665970246,
				"y": 3.1324677369,
				"z": 1.914647214,
				"element": "H" 
			},
			{
				"x": 1.21685309,
				"y": 3.3042392561,
				"z": 1.6948192855,
				"element": "H" 
			},
			{
				"x": 1.5195767034,
				"y": -2.6364451801,
				"z": -1.9922132811,
				"element": "H" 
			},
			{
				"x": -0.3676072851,
				"y": -1.8380228616,
				"z": -0.5385454747,
				"element": "H" 
			}
		],
		 "valence_orbital": [ 
			{
				"type": "occ",
				"energy": -0.30503,
				"method": "rhf"
			},
			{
				"type": "occ",
				"energy": -0.28718,
				"method": "rhf"
			},
			{
				"type": "occ",
				"energy": -0.28185,
				"method": "rhf"
			},
			{
				"type": "occ",
				"energy": -0.26172,
				"method": "rhf"
			},
			{
				"type": "occ",
				"energy": -0.25649,
				"method": "rhf"
			},
			{
				"type": "unocc",
				"energy": -0.08831,
				"method": "rhf"
			},
			{
				"type": "unocc",
				"energy": -0.04923,
				"method": "rhf"
			},
			{
				"type": "unocc",
				"energy": -0.00752,
				"method": "rhf"
			},
			{
				"type": "unocc",
				"energy": 0.03937,
				"method": "rhf"
			},
			{
				"type": "unocc",
				"energy": 0.05262,
				"method": "rhf"
			}
		],
		"cosmo_sigma_profile": { 
			"-0.025": 0.0,
			"-0.024": 0.0,
			"-0.023": 0.0,
			"-0.022": 0.0,
			"-0.021": 0.0,
			"-0.02": 0.0,
			"-0.019": 0.0,
			"-0.018": 0.0,
			"-0.017": 0.0,
			"-0.016": 0.0,
			"-0.015": 0.0,
			"-0.014": 0.0,
			"-0.013": 0.0,
			"-0.012": 0.0,
			"-0.011": 0.0,
			"-0.01": 0.0,
			"-0.009": 0.324814132409,
			"-0.008": 4.69100774677,
			"-0.007": 7.63840488746,
			"-0.006": 13.1250447557,
			"-0.005": 10.9960138534,
			"-0.004": 14.1494345808,
			"-0.003": 17.3918279544,
			"-0.002": 18.1621213637,
			"-0.001": 18.2693180415,
			"0.0": 15.417872229,
			"0.001": 13.9083900019,
			"0.002": 9.97558811654,
			"0.003": 8.71416260551,
			"0.004": 10.9633218637,
			"0.005": 7.67072096616,
			"0.006": 5.08377413055,
			"0.007": 4.37223051974,
			"0.008": 3.25073691731,
			"0.009": 3.838181712,
			"0.01": 2.70304995627,
			"0.011": 2.88962556728,
			"0.012": 2.51657714956,
			"0.013": 2.44212589,
			"0.014": 0.525750247332,
			"0.015": 0.0,
			"0.016": 0.0,
			"0.017": 0.0,
			"0.018": 0.0,
			"0.019": 0.0,
			"0.02": 0.0,
			"0.021": 0.0,
			"0.022": 0.0,
			"0.023": 0.0,
			"0.024": 0.0,
			"0.025": 0.0
		}
	}
}
