{
	 "smiles": "CCOC(=O)C(CCC#N)(CCC#N)C(=O)OCC", 
	 "Tm": 335.15, 
	 "num_atms": 37, 
	 "gaussian": { 
		 "optdone": 1, 
		 "sigma_profile": "yes", 
		 "theory": "DFT", 
		 "functional": "B3LYP", 
		 "basiset": "6-31G**", 
		 "properties": { 
			 "R2extent": 5579.9147, 
			 "electric_dipole_moment_norm": 3.50137356476, 
			 "electric_quadrupole_moment_norm": 21.5475931085, 
			 "total_energy": -916.627052717, 
			 "HOMO_LUMO_gap": 0.27068, 
			 "cosmo_polarized_energy": -21.91, 
			 "cosmo_cavitation_energy": 40.89, 
			 "cosmo_dispersion_energy": -25.73, 
			 "cosmo_repulsion_energy": 2.02, 
			 "cosmo_total_nonelectrostatic_energy": 17.18, 
			 "SMD_solvation_energy": 10.56 
		},
		"coords": [
			{
				"x": -4.5664615111,
				"y": -1.4260969557,
				"z": 0.6380654401,
				"element": "C" 
			},
			{
				"x": -3.5984118045,
				"y": -1.7029029444,
				"z": 1.7765588091,
				"element": "C" 
			},
			{
				"x": -2.2307554565,
				"y": -1.3966032323,
				"z": 1.3857037591,
				"element": "O" 
			},
			{
				"x": -1.8435371383,
				"y": -0.1204410441,
				"z": 1.4919300912,
				"element": "C" 
			},
			{
				"x": -2.5403304042,
				"y": 0.7883584119,
				"z": 1.8923652526,
				"element": "O" 
			},
			{
				"x": -0.3723933394,
				"y": 0.0462945193,
				"z": 1.0552343352,
				"element": "C" 
			},
			{
				"x": 0.0857753434,
				"y": 1.5033178028,
				"z": 1.346612241,
				"element": "C" 
			},
			{
				"x": -0.5259386626,
				"y": 2.6063944432,
				"z": 0.4471943695,
				"element": "C" 
			},
			{
				"x": 0.1544966706,
				"y": 2.7569895375,
				"z": -0.8426134631,
				"element": "C" 
			},
			{
				"x": 0.7179214439,
				"y": 2.8739405781,
				"z": -1.8511839982,
				"element": "N" 
			},
			{
				"x": 0.5509337817,
				"y": -0.9776362717,
				"z": 1.773301803,
				"element": "C" 
			},
			{
				"x": 0.6921771256,
				"y": -0.8301546311,
				"z": 3.3060520167,
				"element": "C" 
			},
			{
				"x": -0.5146358613,
				"y": -1.1474438432,
				"z": 4.0775118789,
				"element": "C" 
			},
			{
				"x": -1.461384986,
				"y": -1.4089740835,
				"z": 4.6960390956,
				"element": "N" 
			},
			{
				"x": -0.3483399445,
				"y": -0.2001765698,
				"z": -0.4676741116,
				"element": "C" 
			},
			{
				"x": -1.3274776409,
				"y": -0.0917279393,
				"z": -1.1747428661,
				"element": "O" 
			},
			{
				"x": 0.8840255237,
				"y": -0.4790818421,
				"z": -0.913242301,
				"element": "O" 
			},
			{
				"x": 1.0326177964,
				"y": -0.5860944226,
				"z": -2.358931775,
				"element": "C" 
			},
			{
				"x": 2.4836739563,
				"y": -0.9212911804,
				"z": -2.6387386276,
				"element": "C" 
			},
			{
				"x": -5.5742974036,
				"y": -1.7391862616,
				"z": 0.9305004033,
				"element": "H" 
			},
			{
				"x": -4.5914780522,
				"y": -0.3601016852,
				"z": 0.4016151759,
				"element": "H" 
			},
			{
				"x": -4.2792154351,
				"y": -1.9776595915,
				"z": -0.2613508399,
				"element": "H" 
			},
			{
				"x": -3.5662410981,
				"y": -2.7629147252,
				"z": 2.0356750652,
				"element": "H" 
			},
			{
				"x": -3.838365694,
				"y": -1.1224748559,
				"z": 2.6693798423,
				"element": "H" 
			},
			{
				"x": 1.1773464346,
				"y": 1.5501166241,
				"z": 1.2829811548,
				"element": "H" 
			},
			{
				"x": -0.2036424974,
				"y": 1.7388945371,
				"z": 2.3730780349,
				"element": "H" 
			},
			{
				"x": -0.4579841372,
				"y": 3.5676708463,
				"z": 0.9682639173,
				"element": "H" 
			},
			{
				"x": -1.5881092267,
				"y": 2.4113260259,
				"z": 0.2782966642,
				"element": "H" 
			},
			{
				"x": 0.2014414232,
				"y": -1.9870058724,
				"z": 1.5445351935,
				"element": "H" 
			},
			{
				"x": 1.5508605129,
				"y": -0.877065812,
				"z": 1.3456465514,
				"element": "H" 
			},
			{
				"x": 1.4828055761,
				"y": -1.5103884992,
				"z": 3.6434247148,
				"element": "H" 
			},
			{
				"x": 1.0196387265,
				"y": 0.1785380699,
				"z": 3.5799070405,
				"element": "H" 
			},
			{
				"x": 0.7386391226,
				"y": 0.3706249538,
				"z": -2.7972741629,
				"element": "H" 
			},
			{
				"x": 0.3473880791,
				"y": -1.3592320204,
				"z": -2.717749275,
				"element": "H" 
			},
			{
				"x": 2.7700019894,
				"y": -1.8682133833,
				"z": -2.1713955994,
				"element": "H" 
			},
			{
				"x": 3.1431522481,
				"y": -0.1325279833,
				"z": -2.266450087,
				"element": "H" 
			},
			{
				"x": 2.6358045397,
				"y": -1.0115706996,
				"z": -3.7186257436,
				"element": "H" 
			}
		],
		 "valence_orbital": [ 
			{
				"type": "occ",
				"energy": -0.32379,
				"method": "rhf"
			},
			{
				"type": "occ",
				"energy": -0.31212,
				"method": "rhf"
			},
			{
				"type": "occ",
				"energy": -0.30361,
				"method": "rhf"
			},
			{
				"type": "occ",
				"energy": -0.28273,
				"method": "rhf"
			},
			{
				"type": "occ",
				"energy": -0.28153,
				"method": "rhf"
			},
			{
				"type": "unocc",
				"energy": -0.01085,
				"method": "rhf"
			},
			{
				"type": "unocc",
				"energy": -0.00546,
				"method": "rhf"
			},
			{
				"type": "unocc",
				"energy": 0.0244,
				"method": "rhf"
			},
			{
				"type": "unocc",
				"energy": 0.03256,
				"method": "rhf"
			},
			{
				"type": "unocc",
				"energy": 0.03316,
				"method": "rhf"
			}
		],
		"cosmo_sigma_profile": { 
			"-0.025": 0.0,
			"-0.024": 0.0,
			"-0.023": 0.0,
			"-0.022": 0.0,
			"-0.021": 0.0,
			"-0.02": 0.0,
			"-0.019": 0.0,
			"-0.018": 0.0,
			"-0.017": 0.0,
			"-0.016": 0.0,
			"-0.015": 0.0,
			"-0.014": 0.0,
			"-0.013": 0.0,
			"-0.012": 0.0,
			"-0.011": 0.0,
			"-0.01": 0.10580330538,
			"-0.009": 5.4273493283,
			"-0.008": 10.7110396254,
			"-0.007": 14.2005157504,
			"-0.006": 20.4087010253,
			"-0.005": 24.0936219984,
			"-0.004": 30.6237173919,
			"-0.003": 25.6362988056,
			"-0.002": 20.5825079314,
			"-0.001": 22.3868392714,
			"0.0": 21.3196365231,
			"0.001": 13.4805255143,
			"0.002": 12.6414821834,
			"0.003": 13.5764864483,
			"0.004": 13.7058503064,
			"0.005": 10.9634504141,
			"0.006": 9.9753977172,
			"0.007": 9.34032006507,
			"0.008": 8.2203200086,
			"0.009": 8.73819678612,
			"0.01": 8.12945575738,
			"0.011": 10.030734492,
			"0.012": 4.56126929033,
			"0.013": 2.81565796355,
			"0.014": 0.325236142587,
			"0.015": 0.0,
			"0.016": 0.0,
			"0.017": 0.0,
			"0.018": 0.0,
			"0.019": 0.0,
			"0.02": 0.0,
			"0.021": 0.0,
			"0.022": 0.0,
			"0.023": 0.0,
			"0.024": 0.0,
			"0.025": 0.0
		}
	}
}
