{
	 "smiles": "COCCN1C=C(C=N1)S(Cl)(=O)=O", 
	 "Tm": 309.15, 
	 "num_atms": 22, 
	 "gaussian": { 
		 "optdone": 1, 
		 "sigma_profile": "yes", 
		 "theory": "DFT", 
		 "functional": "B3LYP", 
		 "basiset": "6-31G**", 
		 "properties": { 
			 "R2extent": 6059.2737, 
			 "electric_dipole_moment_norm": 5.70209017291, 
			 "electric_quadrupole_moment_norm": 12.6253432203, 
			 "total_energy": -1427.5014738, 
			 "HOMO_LUMO_gap": 0.19075, 
			 "cosmo_polarized_energy": -15.18, 
			 "cosmo_cavitation_energy": 30.31, 
			 "cosmo_dispersion_energy": -22.18, 
			 "cosmo_repulsion_energy": 1.75, 
			 "cosmo_total_nonelectrostatic_energy": 9.87, 
			 "SMD_solvation_energy": 3.87 
		},
		"coords": [
			{
				"x": 2.8275073599,
				"y": 2.9100278162,
				"z": -1.5645273258,
				"element": "C" 
			},
			{
				"x": 1.8132648668,
				"y": 3.7099630431,
				"z": -0.9819901024,
				"element": "O" 
			},
			{
				"x": 0.8503780349,
				"y": 2.9906712426,
				"z": -0.244308248,
				"element": "C" 
			},
			{
				"x": -0.2468753549,
				"y": 2.4203868406,
				"z": -1.1629412876,
				"element": "C" 
			},
			{
				"x": -1.2796232657,
				"y": 1.7300914473,
				"z": -0.3983208632,
				"element": "N" 
			},
			{
				"x": -1.4870012978,
				"y": 0.4024547388,
				"z": -0.2895011249,
				"element": "C" 
			},
			{
				"x": -2.5321982242,
				"y": 0.258323895,
				"z": 0.6122171636,
				"element": "C" 
			},
			{
				"x": -2.8931948307,
				"y": 1.5718569181,
				"z": 0.9940500872,
				"element": "C" 
			},
			{
				"x": -2.1226883455,
				"y": 2.4599361352,
				"z": 0.3817579857,
				"element": "N" 
			},
			{
				"x": -3.223635738,
				"y": -1.2520708518,
				"z": 1.1388645525,
				"element": "S" 
			},
			{
				"x": -4.8308964101,
				"y": -1.5219000627,
				"z": -0.2430504786,
				"element": "Cl" 
			},
			{
				"x": -2.2789662256,
				"y": -2.3277255262,
				"z": 0.8627049898,
				"element": "O" 
			},
			{
				"x": -3.8486910089,
				"y": -1.0639329392,
				"z": 2.4407571819,
				"element": "O" 
			},
			{
				"x": 2.4410362225,
				"y": 2.2223528294,
				"z": -2.3315443939,
				"element": "H" 
			},
			{
				"x": 3.3603707722,
				"y": 2.3192090142,
				"z": -0.8046097123,
				"element": "H" 
			},
			{
				"x": 3.5340573756,
				"y": 3.5929105688,
				"z": -2.0409520379,
				"element": "H" 
			},
			{
				"x": 1.310462537,
				"y": 2.1767443085,
				"z": 0.3380688807,
				"element": "H" 
			},
			{
				"x": 0.3889936586,
				"y": 3.6915590551,
				"z": 0.4567692038,
				"element": "H" 
			},
			{
				"x": 0.1639405032,
				"y": 1.7050367851,
				"z": -1.8793666414,
				"element": "H" 
			},
			{
				"x": -0.7183367215,
				"y": 3.2350425807,
				"z": -1.7171467866,
				"element": "H" 
			},
			{
				"x": -0.9106104985,
				"y": -0.3345055395,
				"z": -0.827991575,
				"element": "H" 
			},
			{
				"x": -3.6665934095,
				"y": 1.8819677007,
				"z": 1.6819605325,
				"element": "H" 
			}
		],
		 "valence_orbital": [ 
			{
				"type": "occ",
				"energy": -0.31839,
				"method": "rhf"
			},
			{
				"type": "occ",
				"energy": -0.31103,
				"method": "rhf"
			},
			{
				"type": "occ",
				"energy": -0.30107,
				"method": "rhf"
			},
			{
				"type": "occ",
				"energy": -0.29049,
				"method": "rhf"
			},
			{
				"type": "occ",
				"energy": -0.27459,
				"method": "rhf"
			},
			{
				"type": "unocc",
				"energy": -0.08384,
				"method": "rhf"
			},
			{
				"type": "unocc",
				"energy": -0.02497,
				"method": "rhf"
			},
			{
				"type": "unocc",
				"energy": 0.00174,
				"method": "rhf"
			},
			{
				"type": "unocc",
				"energy": 0.05816,
				"method": "rhf"
			},
			{
				"type": "unocc",
				"energy": 0.06532,
				"method": "rhf"
			}
		],
		"cosmo_sigma_profile": { 
			"-0.025": 0.0,
			"-0.024": 0.0,
			"-0.023": 0.0,
			"-0.022": 0.0,
			"-0.021": 0.0,
			"-0.02": 0.0,
			"-0.019": 0.0,
			"-0.018": 0.0,
			"-0.017": 0.0,
			"-0.016": 0.0,
			"-0.015": 0.0,
			"-0.014": 0.0,
			"-0.013": 0.00836276295594,
			"-0.012": 1.99228830674,
			"-0.011": 2.2369330268,
			"-0.01": 3.01585962475,
			"-0.009": 3.9398007813,
			"-0.008": 4.58130783827,
			"-0.007": 7.65969309224,
			"-0.006": 8.81812033245,
			"-0.005": 17.1277048263,
			"-0.004": 20.1229356275,
			"-0.003": 18.8407672554,
			"-0.002": 20.7902567597,
			"-0.001": 15.9301035787,
			"0.0": 14.7131194172,
			"0.001": 12.2780719441,
			"0.002": 12.1328786245,
			"0.003": 15.193964026,
			"0.004": 14.55015384,
			"0.005": 7.30718272578,
			"0.006": 5.33877920274,
			"0.007": 7.37558374188,
			"0.008": 13.8876203626,
			"0.009": 7.81368462784,
			"0.01": 1.82324819313,
			"0.011": 1.96514597484,
			"0.012": 2.69113393282,
			"0.013": 1.53367293982,
			"0.014": 0.0528019365287,
			"0.015": 0.0,
			"0.016": 0.0,
			"0.017": 0.0,
			"0.018": 0.0,
			"0.019": 0.0,
			"0.02": 0.0,
			"0.021": 0.0,
			"0.022": 0.0,
			"0.023": 0.0,
			"0.024": 0.0,
			"0.025": 0.0
		}
	}
}
