{
	 "smiles": "OC1=CC(Cl)=C(Cl)C(Cl)=C1Cl", 
	 "Tm": 389.15, 
	 "num_atms": 13, 
	 "gaussian": { 
		 "optdone": 1, 
		 "sigma_profile": "yes", 
		 "theory": "DFT", 
		 "functional": "B3LYP", 
		 "basiset": "6-31G**", 
		 "properties": { 
			 "R2extent": 3619.9068, 
			 "electric_dipole_moment_norm": 3.26215791617, 
			 "electric_quadrupole_moment_norm": 6.89209696464, 
			 "total_energy": -2145.81365, 
			 "HOMO_LUMO_gap": 0.1999, 
			 "cosmo_polarized_energy": -9.98, 
			 "cosmo_cavitation_energy": 24.58, 
			 "cosmo_dispersion_energy": -18.98, 
			 "cosmo_repulsion_energy": 1.52, 
			 "cosmo_total_nonelectrostatic_energy": 7.12, 
			 "SMD_solvation_energy": 3.67 
		},
		"coords": [
			{
				"x": -2.2444086782,
				"y": 0.3330480777,
				"z": 1.8778630494,
				"element": "O" 
			},
			{
				"x": -1.2320460187,
				"y": 0.5361147591,
				"z": 1.0009390143,
				"element": "C" 
			},
			{
				"x": -0.7326079139,
				"y": -0.4759466931,
				"z": 0.1828898836,
				"element": "C" 
			},
			{
				"x": 0.3098101649,
				"y": -0.218658987,
				"z": -0.7033954845,
				"element": "C" 
			},
			{
				"x": 0.8822521989,
				"y": -1.5338269016,
				"z": -1.6947615973,
				"element": "Cl" 
			},
			{
				"x": 0.8785761958,
				"y": 1.0585567526,
				"z": -0.7930393849,
				"element": "C" 
			},
			{
				"x": 2.1791762807,
				"y": 1.37354355,
				"z": -1.9009615257,
				"element": "Cl" 
			},
			{
				"x": 0.3739385136,
				"y": 2.0821597634,
				"z": 0.033896548,
				"element": "C" 
			},
			{
				"x": 1.0554509261,
				"y": 3.6760718541,
				"z": -0.0515383377,
				"element": "Cl" 
			},
			{
				"x": -0.6760871916,
				"y": 1.8255127376,
				"z": 0.9275472509,
				"element": "C" 
			},
			{
				"x": -1.3203941614,
				"y": 3.0636815126,
				"z": 1.9596183035,
				"element": "Cl" 
			},
			{
				"x": -2.5338335201,
				"y": -0.587641907,
				"z": 1.8295554709,
				"element": "H" 
			},
			{
				"x": -1.1537267962,
				"y": -1.4750145184,
				"z": 0.2307868096,
				"element": "H" 
			}
		],
		 "valence_orbital": [ 
			{
				"type": "occ",
				"energy": -0.32521,
				"method": "rhf"
			},
			{
				"type": "occ",
				"energy": -0.31477,
				"method": "rhf"
			},
			{
				"type": "occ",
				"energy": -0.30661,
				"method": "rhf"
			},
			{
				"type": "occ",
				"energy": -0.26208,
				"method": "rhf"
			},
			{
				"type": "occ",
				"energy": -0.24444,
				"method": "rhf"
			},
			{
				"type": "unocc",
				"energy": -0.04454,
				"method": "rhf"
			},
			{
				"type": "unocc",
				"energy": -0.03386,
				"method": "rhf"
			},
			{
				"type": "unocc",
				"energy": -0.02937,
				"method": "rhf"
			},
			{
				"type": "unocc",
				"energy": 0.02006,
				"method": "rhf"
			},
			{
				"type": "unocc",
				"energy": 0.04373,
				"method": "rhf"
			}
		],
		"cosmo_sigma_profile": { 
			"-0.025": 0.0,
			"-0.024": 0.0,
			"-0.023": 0.0,
			"-0.022": 0.0,
			"-0.021": 0.0,
			"-0.02": 0.425165498662,
			"-0.019": 1.35148681374,
			"-0.018": 1.53297212798,
			"-0.017": 1.55172363903,
			"-0.016": 0.536586943168,
			"-0.015": 0.556999162673,
			"-0.014": 1.54081333245,
			"-0.013": 1.00412128318,
			"-0.012": 1.38663507194,
			"-0.011": 1.02730658995,
			"-0.01": 1.50843946985,
			"-0.009": 1.00494394692,
			"-0.008": 1.71938224191,
			"-0.007": 1.63240738017,
			"-0.006": 1.91990801515,
			"-0.005": 1.51376452732,
			"-0.004": 4.68792688054,
			"-0.003": 7.9596745003,
			"-0.002": 12.683740113,
			"-0.001": 32.3303667812,
			"0.0": 23.2795832699,
			"0.001": 17.4467811576,
			"0.002": 20.1668304388,
			"0.003": 30.1793407828,
			"0.004": 24.4156570878,
			"0.005": 4.79835870545,
			"0.006": 1.79259745002,
			"0.007": 1.41246772654,
			"0.008": 2.05842209185,
			"0.009": 2.23416212053,
			"0.01": 1.01403780853,
			"0.011": 0.0,
			"0.012": 0.0,
			"0.013": 0.0,
			"0.014": 0.0,
			"0.015": 0.0,
			"0.016": 0.0,
			"0.017": 0.0,
			"0.018": 0.0,
			"0.019": 0.0,
			"0.02": 0.0,
			"0.021": 0.0,
			"0.022": 0.0,
			"0.023": 0.0,
			"0.024": 0.0,
			"0.025": 0.0
		}
	}
}
