{
	 "smiles": "COC1=CC(C(O)=O)=C(OCC2=NOC(C)=C2)C=C1", 
	 "Tm": 388.15, 
	 "num_atms": 32, 
	 "gaussian": { 
		 "optdone": 1, 
		 "sigma_profile": "yes", 
		 "theory": "DFT", 
		 "functional": "B3LYP", 
		 "basiset": "6-31G**", 
		 "properties": { 
			 "R2extent": 6981.5455, 
			 "electric_dipole_moment_norm": 3.2234794586, 
			 "electric_quadrupole_moment_norm": 25.9093072188, 
			 "total_energy": -934.02908792, 
			 "HOMO_LUMO_gap": 0.16631, 
			 "cosmo_polarized_energy": -17.67, 
			 "cosmo_cavitation_energy": 37.37, 
			 "cosmo_dispersion_energy": -26.5, 
			 "cosmo_repulsion_energy": 2.07, 
			 "cosmo_total_nonelectrostatic_energy": 12.94, 
			 "SMD_solvation_energy": 8.79 
		},
		"coords": [
			{
				"x": -0.0470754739,
				"y": -5.215078344,
				"z": 2.3672460154,
				"element": "C" 
			},
			{
				"x": -0.9500263459,
				"y": -4.9463423351,
				"z": 1.3086571193,
				"element": "O" 
			},
			{
				"x": -0.7841446069,
				"y": -3.7864898606,
				"z": 0.6036261721,
				"element": "C" 
			},
			{
				"x": -1.6923261143,
				"y": -3.5624634051,
				"z": -0.4316358586,
				"element": "C" 
			},
			{
				"x": -1.6347254732,
				"y": -2.4154771771,
				"z": -1.2291406847,
				"element": "C" 
			},
			{
				"x": -2.6863436556,
				"y": -2.3369110122,
				"z": -2.2858449397,
				"element": "C" 
			},
			{
				"x": -2.7076463377,
				"y": -1.1937085374,
				"z": -3.0073706714,
				"element": "O" 
			},
			{
				"x": -3.4919907328,
				"y": -3.2265965342,
				"z": -2.4959160391,
				"element": "O" 
			},
			{
				"x": -0.6189109117,
				"y": -1.4550754332,
				"z": -0.9838725081,
				"element": "C" 
			},
			{
				"x": -0.5677078114,
				"y": -0.3585802197,
				"z": -1.7976364174,
				"element": "O" 
			},
			{
				"x": 0.4920805035,
				"y": 0.5805052263,
				"z": -1.6523219903,
				"element": "C" 
			},
			{
				"x": 0.2959271733,
				"y": 1.5085180314,
				"z": -0.4846084542,
				"element": "C" 
			},
			{
				"x": 1.2905328907,
				"y": 1.7351112448,
				"z": 0.3443158972,
				"element": "N" 
			},
			{
				"x": 0.7937644149,
				"y": 2.6488699803,
				"z": 1.2783094301,
				"element": "O" 
			},
			{
				"x": -0.4952362492,
				"y": 2.9361822888,
				"z": 0.9833075662,
				"element": "C" 
			},
			{
				"x": -1.1915564007,
				"y": 3.8954772783,
				"z": 1.8849822539,
				"element": "C" 
			},
			{
				"x": -0.8715027853,
				"y": 2.2426800804,
				"z": -0.1282593051,
				"element": "C" 
			},
			{
				"x": 0.2830426739,
				"y": -1.6806223373,
				"z": 0.0605846074,
				"element": "C" 
			},
			{
				"x": 0.2062797301,
				"y": -2.8321237209,
				"z": 0.8483414978,
				"element": "C" 
			},
			{
				"x": -0.0998384806,
				"y": -4.4488382323,
				"z": 3.1523528713,
				"element": "H" 
			},
			{
				"x": -0.3494226896,
				"y": -6.1762339118,
				"z": 2.785947121,
				"element": "H" 
			},
			{
				"x": 0.9889188016,
				"y": -5.2886315997,
				"z": 2.0101411287,
				"element": "H" 
			},
			{
				"x": -2.4675635736,
				"y": -4.2922750261,
				"z": -0.6325776247,
				"element": "H" 
			},
			{
				"x": -3.4422897477,
				"y": -1.3167960267,
				"z": -3.632419153,
				"element": "H" 
			},
			{
				"x": 1.4686701289,
				"y": 0.0888897793,
				"z": -1.5770711624,
				"element": "H" 
			},
			{
				"x": 0.4707845484,
				"y": 1.1526895998,
				"z": -2.584550259,
				"element": "H" 
			},
			{
				"x": -2.2181613376,
				"y": 4.0508149952,
				"z": 1.5480500787,
				"element": "H" 
			},
			{
				"x": -1.2145245815,
				"y": 3.5186107792,
				"z": 2.9128306815,
				"element": "H" 
			},
			{
				"x": -0.6777198969,
				"y": 4.8623397239,
				"z": 1.8987236546,
				"element": "H" 
			},
			{
				"x": -1.8312928357,
				"y": 2.2382953597,
				"z": -0.6208842522,
				"element": "H" 
			},
			{
				"x": 1.0481521042,
				"y": -0.9510912489,
				"z": 0.2928715495,
				"element": "H" 
			},
			{
				"x": 0.9255530725,
				"y": -2.9609494052,
				"z": 1.6486216748,
				"element": "H" 
			}
		],
		 "valence_orbital": [ 
			{
				"type": "occ",
				"energy": -0.2926,
				"method": "rhf"
			},
			{
				"type": "occ",
				"energy": -0.2686,
				"method": "rhf"
			},
			{
				"type": "occ",
				"energy": -0.26088,
				"method": "rhf"
			},
			{
				"type": "occ",
				"energy": -0.2567,
				"method": "rhf"
			},
			{
				"type": "occ",
				"energy": -0.20711,
				"method": "rhf"
			},
			{
				"type": "unocc",
				"energy": -0.0408,
				"method": "rhf"
			},
			{
				"type": "unocc",
				"energy": -0.01774,
				"method": "rhf"
			},
			{
				"type": "unocc",
				"energy": 0.01302,
				"method": "rhf"
			},
			{
				"type": "unocc",
				"energy": 0.0436,
				"method": "rhf"
			},
			{
				"type": "unocc",
				"energy": 0.06748,
				"method": "rhf"
			}
		],
		"cosmo_sigma_profile": { 
			"-0.025": 0.0,
			"-0.024": 0.0,
			"-0.023": 0.0,
			"-0.022": 0.0,
			"-0.021": 0.0,
			"-0.02": 0.0,
			"-0.019": 0.0,
			"-0.018": 0.337570958629,
			"-0.017": 0.84909205604,
			"-0.016": 0.994773270987,
			"-0.015": 1.0510705406,
			"-0.014": 0.654387150502,
			"-0.013": 0.174979076498,
			"-0.012": 0.47166233145,
			"-0.011": 0.947124099869,
			"-0.01": 0.927954409042,
			"-0.009": 0.789024662961,
			"-0.008": 3.40985650106,
			"-0.007": 10.0794132812,
			"-0.006": 20.7799835313,
			"-0.005": 24.9166248345,
			"-0.004": 23.3713263306,
			"-0.003": 23.1036058074,
			"-0.002": 21.2697379457,
			"-0.001": 16.7144107739,
			"0.0": 16.0039818346,
			"0.001": 20.405113692,
			"0.002": 23.0217210407,
			"0.003": 20.007992009,
			"0.004": 10.2813061596,
			"0.005": 6.98582704604,
			"0.006": 6.7766563171,
			"0.007": 7.18688334699,
			"0.008": 7.92389309771,
			"0.009": 6.0348636846,
			"0.01": 6.68568111519,
			"0.011": 5.62176538282,
			"0.012": 7.55099968697,
			"0.013": 2.02018722674,
			"0.014": 0.597260375812,
			"0.015": 0.00672829278953,
			"0.016": 0.0,
			"0.017": 0.0,
			"0.018": 0.0,
			"0.019": 0.0,
			"0.02": 0.0,
			"0.021": 0.0,
			"0.022": 0.0,
			"0.023": 0.0,
			"0.024": 0.0,
			"0.025": 0.0
		}
	}
}
