{
	 "smiles": "FC1=CC=C(C=C1)C(=O)CCSC1=CC=CC=C1", 
	 "Tm": 385.15, 
	 "num_atms": 31, 
	 "gaussian": { 
		 "optdone": 1, 
		 "sigma_profile": "yes", 
		 "theory": "DFT", 
		 "functional": "B3LYP", 
		 "basiset": "6-31G**", 
		 "properties": { 
			 "R2extent": 7220.3517, 
			 "electric_dipole_moment_norm": 3.95993229361, 
			 "electric_quadrupole_moment_norm": 13.8042983339, 
			 "total_energy": -1152.67473421, 
			 "HOMO_LUMO_gap": 0.16894, 
			 "cosmo_polarized_energy": -13.24, 
			 "cosmo_cavitation_energy": 37.8, 
			 "cosmo_dispersion_energy": -26.35, 
			 "cosmo_repulsion_energy": 1.99, 
			 "cosmo_total_nonelectrostatic_energy": 13.44, 
			 "SMD_solvation_energy": 6.75 
		},
		"coords": [
			{
				"x": 1.3012353652,
				"y": -0.6013841348,
				"z": -5.1294649181,
				"element": "F" 
			},
			{
				"x": 1.6430570996,
				"y": -0.284671953,
				"z": -3.8669827494,
				"element": "C" 
			},
			{
				"x": 0.9814258006,
				"y": 0.7624709162,
				"z": -3.234650994,
				"element": "C" 
			},
			{
				"x": 1.3381298839,
				"y": 1.0827928857,
				"z": -1.9259819757,
				"element": "C" 
			},
			{
				"x": 2.345579919,
				"y": 0.3675992848,
				"z": -1.2585194056,
				"element": "C" 
			},
			{
				"x": 2.9952848305,
				"y": -0.6799151247,
				"z": -1.9346347609,
				"element": "C" 
			},
			{
				"x": 2.6486146827,
				"y": -1.0152015453,
				"z": -3.2374167334,
				"element": "C" 
			},
			{
				"x": 2.787013799,
				"y": 0.6719383391,
				"z": 0.1406360679,
				"element": "C" 
			},
			{
				"x": 3.7749017897,
				"y": 0.1274640344,
				"z": 0.6103453565,
				"element": "O" 
			},
			{
				"x": 1.9897596567,
				"y": 1.6633168377,
				"z": 0.9881424888,
				"element": "C" 
			},
			{
				"x": 0.6224515118,
				"y": 1.137265378,
				"z": 1.456715494,
				"element": "C" 
			},
			{
				"x": 0.825255544,
				"y": -0.3537176766,
				"z": 2.5322263997,
				"element": "S" 
			},
			{
				"x": -0.8987498941,
				"y": -0.661261752,
				"z": 2.9358980444,
				"element": "C" 
			},
			{
				"x": -1.6764040548,
				"y": -1.4966688991,
				"z": 2.1222716281,
				"element": "C" 
			},
			{
				"x": -3.008331566,
				"y": -1.7536803653,
				"z": 2.4512156068,
				"element": "C" 
			},
			{
				"x": -3.5702112158,
				"y": -1.1845157239,
				"z": 3.5959658888,
				"element": "C" 
			},
			{
				"x": -2.7967895108,
				"y": -0.3583498782,
				"z": 4.4139655956,
				"element": "C" 
			},
			{
				"x": -1.4648158715,
				"y": -0.0977989804,
				"z": 4.087650627,
				"element": "C" 
			},
			{
				"x": 0.2093491889,
				"y": 1.3073930746,
				"z": -3.766534376,
				"element": "H" 
			},
			{
				"x": 0.827370174,
				"y": 1.9044413536,
				"z": -1.4354255058,
				"element": "H" 
			},
			{
				"x": 3.7757755144,
				"y": -1.218769762,
				"z": -1.408547247,
				"element": "H" 
			},
			{
				"x": 3.137180645,
				"y": -1.8231846745,
				"z": -3.771145503,
				"element": "H" 
			},
			{
				"x": 2.6145850473,
				"y": 1.9035243316,
				"z": 1.8520385367,
				"element": "H" 
			},
			{
				"x": 1.8235246978,
				"y": 2.5913096381,
				"z": 0.4271662616,
				"element": "H" 
			},
			{
				"x": 0.1109709155,
				"y": 1.9129450928,
				"z": 2.0333580579,
				"element": "H" 
			},
			{
				"x": -0.0105180655,
				"y": 0.8677557886,
				"z": 0.6071234976,
				"element": "H" 
			},
			{
				"x": -1.2313009204,
				"y": -1.9456060394,
				"z": 1.2396816619,
				"element": "H" 
			},
			{
				"x": -3.6047813254,
				"y": -2.4026992799,
				"z": 1.8162547829,
				"element": "H" 
			},
			{
				"x": -4.6057264028,
				"y": -1.3886818794,
				"z": 3.8527451714,
				"element": "H" 
			},
			{
				"x": -3.2283097565,
				"y": 0.0806796163,
				"z": 5.3090623437,
				"element": "H" 
			},
			{
				"x": -0.856327482,
				"y": 0.5364110971,
				"z": 4.7249406577,
				"element": "H" 
			}
		],
		 "valence_orbital": [ 
			{
				"type": "occ",
				"energy": -0.25783,
				"method": "rhf"
			},
			{
				"type": "occ",
				"energy": -0.25683,
				"method": "rhf"
			},
			{
				"type": "occ",
				"energy": -0.25337,
				"method": "rhf"
			},
			{
				"type": "occ",
				"energy": -0.2489,
				"method": "rhf"
			},
			{
				"type": "occ",
				"energy": -0.22692,
				"method": "rhf"
			},
			{
				"type": "unocc",
				"energy": -0.05798,
				"method": "rhf"
			},
			{
				"type": "unocc",
				"energy": -0.02322,
				"method": "rhf"
			},
			{
				"type": "unocc",
				"energy": -0.01989,
				"method": "rhf"
			},
			{
				"type": "unocc",
				"energy": -0.00839,
				"method": "rhf"
			},
			{
				"type": "unocc",
				"energy": 0.03322,
				"method": "rhf"
			}
		],
		"cosmo_sigma_profile": { 
			"-0.025": 0.0,
			"-0.024": 0.0,
			"-0.023": 0.0,
			"-0.022": 0.0,
			"-0.021": 0.0,
			"-0.02": 0.0,
			"-0.019": 0.0,
			"-0.018": 0.0,
			"-0.017": 0.0,
			"-0.016": 0.0,
			"-0.015": 0.0,
			"-0.014": 0.0,
			"-0.013": 0.0,
			"-0.012": 0.0,
			"-0.011": 0.0,
			"-0.01": 0.00367682220932,
			"-0.009": 1.02334521682,
			"-0.008": 4.24336260825,
			"-0.007": 8.96157490544,
			"-0.006": 17.7652562559,
			"-0.005": 25.4530632837,
			"-0.004": 23.9753469648,
			"-0.003": 21.5687704456,
			"-0.002": 21.5407806942,
			"-0.001": 18.0971620495,
			"0.0": 20.4088388883,
			"0.001": 25.1261788635,
			"0.002": 27.2728023697,
			"0.003": 23.9080674352,
			"0.004": 21.9987688069,
			"0.005": 14.5282192486,
			"0.006": 5.71684896415,
			"0.007": 4.60568765919,
			"0.008": 3.95768317229,
			"0.009": 3.49321500784,
			"0.01": 3.09232914576,
			"0.011": 3.05762941564,
			"0.012": 3.44570638197,
			"0.013": 0.901387613172,
			"0.014": 0.0265857514468,
			"0.015": 0.0,
			"0.016": 0.0,
			"0.017": 0.0,
			"0.018": 0.0,
			"0.019": 0.0,
			"0.02": 0.0,
			"0.021": 0.0,
			"0.022": 0.0,
			"0.023": 0.0,
			"0.024": 0.0,
			"0.025": 0.0
		}
	}
}
