{
	 "smiles": "CC(O)C(NS(=O)(=O)C1=CC=C(C)C=C1)C(O)=O", 
	 "Tm": 451.15, 
	 "num_atms": 33, 
	 "gaussian": { 
		 "optdone": 1, 
		 "sigma_profile": "yes", 
		 "theory": "DFT", 
		 "functional": "B3LYP", 
		 "basiset": "6-31G**", 
		 "properties": { 
			 "R2extent": 5986.3326, 
			 "electric_dipole_moment_norm": 3.36013124148, 
			 "electric_quadrupole_moment_norm": 22.6987363943, 
			 "total_energy": -1257.21681589, 
			 "HOMO_LUMO_gap": 0.21639, 
			 "cosmo_polarized_energy": -21.33, 
			 "cosmo_cavitation_energy": 38.47, 
			 "cosmo_dispersion_energy": -26.06, 
			 "cosmo_repulsion_energy": 2.0, 
			 "cosmo_total_nonelectrostatic_energy": 14.41, 
			 "SMD_solvation_energy": 6.56 
		},
		"coords": [
			{
				"x": 3.7681196846,
				"y": -1.9196784451,
				"z": -0.271960418,
				"element": "C" 
			},
			{
				"x": 3.0688444512,
				"y": -0.8187824051,
				"z": 0.5301103189,
				"element": "C" 
			},
			{
				"x": 2.593333021,
				"y": 0.2164202278,
				"z": -0.3078994356,
				"element": "O" 
			},
			{
				"x": 1.8880350716,
				"y": -1.3390747702,
				"z": 1.4026060303,
				"element": "C" 
			},
			{
				"x": 0.831152538,
				"y": -1.8541512433,
				"z": 0.5240771811,
				"element": "N" 
			},
			{
				"x": -0.7833590041,
				"y": -1.7360446104,
				"z": 1.0780725232,
				"element": "S" 
			},
			{
				"x": -0.8055238798,
				"y": -1.6360350806,
				"z": 2.5419213635,
				"element": "O" 
			},
			{
				"x": -1.4826655813,
				"y": -2.8089152812,
				"z": 0.3663163987,
				"element": "O" 
			},
			{
				"x": -1.2967793709,
				"y": -0.1530735872,
				"z": 0.4210425666,
				"element": "C" 
			},
			{
				"x": -1.5554026593,
				"y": -0.0301744831,
				"z": -0.9477218279,
				"element": "C" 
			},
			{
				"x": -1.9608645018,
				"y": 1.2017816746,
				"z": -1.4495967408,
				"element": "C" 
			},
			{
				"x": -2.1162983793,
				"y": 2.3152285657,
				"z": -0.6064082273,
				"element": "C" 
			},
			{
				"x": -2.5311298952,
				"y": 3.651664828,
				"z": -1.1718323267,
				"element": "C" 
			},
			{
				"x": -1.8650546452,
				"y": 2.1569721898,
				"z": 0.7618839589,
				"element": "C" 
			},
			{
				"x": -1.4566114118,
				"y": 0.9292345611,
				"z": 1.2845817079,
				"element": "C" 
			},
			{
				"x": 2.3826944023,
				"y": -2.3096178166,
				"z": 2.4678324728,
				"element": "C" 
			},
			{
				"x": 2.0077312378,
				"y": -3.5872669963,
				"z": 2.2300163531,
				"element": "O" 
			},
			{
				"x": 3.0862623198,
				"y": -1.982852353,
				"z": 3.3955864214,
				"element": "O" 
			},
			{
				"x": 4.2026600571,
				"y": -2.6868032886,
				"z": 0.3775576683,
				"element": "H" 
			},
			{
				"x": 3.0722828827,
				"y": -2.4069361778,
				"z": -0.9643435924,
				"element": "H" 
			},
			{
				"x": 4.5714906875,
				"y": -1.4762212751,
				"z": -0.865264432,
				"element": "H" 
			},
			{
				"x": 3.7853515864,
				"y": -0.3556246907,
				"z": 1.2157555643,
				"element": "H" 
			},
			{
				"x": 1.8215393358,
				"y": -0.1444492874,
				"z": -0.7713247067,
				"element": "H" 
			},
			{
				"x": 1.4983639904,
				"y": -0.4696573508,
				"z": 1.9365717055,
				"element": "H" 
			},
			{
				"x": 0.964535474,
				"y": -2.8325342256,
				"z": 0.2728727874,
				"element": "H" 
			},
			{
				"x": -1.456661023,
				"y": -0.8915742873,
				"z": -1.5999429383,
				"element": "H" 
			},
			{
				"x": -2.1684399857,
				"y": 1.3026160429,
				"z": -2.5116389443,
				"element": "H" 
			},
			{
				"x": -3.3162229925,
				"y": 3.5396774689,
				"z": -1.9261374679,
				"element": "H" 
			},
			{
				"x": -1.6834590194,
				"y": 4.1496512958,
				"z": -1.6582119822,
				"element": "H" 
			},
			{
				"x": -2.9016067565,
				"y": 4.3201778218,
				"z": -0.3903233337,
				"element": "H" 
			},
			{
				"x": -1.9935906046,
				"y": 3.0032628334,
				"z": 1.4309930639,
				"element": "H" 
			},
			{
				"x": -1.2769209161,
				"y": 0.8017675614,
				"z": 2.3462915639,
				"element": "H" 
			},
			{
				"x": 2.370393886,
				"y": -4.1247874157,
				"z": 2.9542167239,
				"element": "H" 
			}
		],
		 "valence_orbital": [ 
			{
				"type": "occ",
				"energy": -0.30398,
				"method": "rhf"
			},
			{
				"type": "occ",
				"energy": -0.28247,
				"method": "rhf"
			},
			{
				"type": "occ",
				"energy": -0.27384,
				"method": "rhf"
			},
			{
				"type": "occ",
				"energy": -0.27325,
				"method": "rhf"
			},
			{
				"type": "occ",
				"energy": -0.25844,
				"method": "rhf"
			},
			{
				"type": "unocc",
				"energy": -0.04205,
				"method": "rhf"
			},
			{
				"type": "unocc",
				"energy": -0.02511,
				"method": "rhf"
			},
			{
				"type": "unocc",
				"energy": -0.00439,
				"method": "rhf"
			},
			{
				"type": "unocc",
				"energy": 0.04455,
				"method": "rhf"
			},
			{
				"type": "unocc",
				"energy": 0.06471,
				"method": "rhf"
			}
		],
		"cosmo_sigma_profile": { 
			"-0.025": 0.0,
			"-0.024": 0.0,
			"-0.023": 0.0,
			"-0.022": 0.0,
			"-0.021": 0.0,
			"-0.02": 0.0,
			"-0.019": 0.50941619521,
			"-0.018": 1.46027135767,
			"-0.017": 0.280977272129,
			"-0.016": 1.05903436193,
			"-0.015": 1.04231479142,
			"-0.014": 0.566452122624,
			"-0.013": 0.648301042959,
			"-0.012": 1.26286914915,
			"-0.011": 1.5631142953,
			"-0.01": 1.63508994656,
			"-0.009": 1.79477863116,
			"-0.008": 3.84924035857,
			"-0.007": 7.94668137003,
			"-0.006": 15.0054570303,
			"-0.005": 21.8875867757,
			"-0.004": 25.6649082749,
			"-0.003": 25.9622138705,
			"-0.002": 24.9401376388,
			"-0.001": 25.2856145455,
			"0.0": 23.0820579582,
			"0.001": 16.4599417713,
			"0.002": 14.0699785069,
			"0.003": 16.8422286718,
			"0.004": 8.91313805573,
			"0.005": 6.53193365442,
			"0.006": 5.35633905412,
			"0.007": 5.57819072887,
			"0.008": 5.41761793851,
			"0.009": 5.93575533507,
			"0.01": 12.2520828754,
			"0.011": 13.1292302697,
			"0.012": 3.75091282631,
			"0.013": 1.85038089022,
			"0.014": 1.71023639776,
			"0.015": 0.00558961621652,
			"0.016": 0.0,
			"0.017": 0.0,
			"0.018": 0.0,
			"0.019": 0.0,
			"0.02": 0.0,
			"0.021": 0.0,
			"0.022": 0.0,
			"0.023": 0.0,
			"0.024": 0.0,
			"0.025": 0.0
		}
	}
}
