{
	 "smiles": "CN1C=NN=C1C1=CC(N)=NC=C1", 
	 "Tm": 478.15, 
	 "num_atms": 22, 
	 "gaussian": { 
		 "optdone": 1, 
		 "sigma_profile": "yes", 
		 "theory": "DFT", 
		 "functional": "B3LYP", 
		 "basiset": "6-31G**", 
		 "properties": { 
			 "R2extent": 2709.4701, 
			 "electric_dipole_moment_norm": 6.14565399042, 
			 "electric_quadrupole_moment_norm": 13.7407237204, 
			 "total_energy": -584.014405747, 
			 "HOMO_LUMO_gap": 0.17764, 
			 "cosmo_polarized_energy": -23.01, 
			 "cosmo_cavitation_energy": 26.31, 
			 "cosmo_dispersion_energy": -19.41, 
			 "cosmo_repulsion_energy": 1.52, 
			 "cosmo_total_nonelectrostatic_energy": 8.42, 
			 "SMD_solvation_energy": 1.68 
		},
		"coords": [
			{
				"x": -1.8391367275,
				"y": -0.3427316759,
				"z": 1.5294050168,
				"element": "C" 
			},
			{
				"x": -0.8185215027,
				"y": -1.3160113661,
				"z": 1.1644396889,
				"element": "N" 
			},
			{
				"x": -0.5490225651,
				"y": -2.4787889514,
				"z": 1.8335582105,
				"element": "C" 
			},
			{
				"x": 0.3631465793,
				"y": -3.1859138267,
				"z": 1.2118571894,
				"element": "N" 
			},
			{
				"x": 0.7165629461,
				"y": -2.4829634712,
				"z": 0.087173376,
				"element": "N" 
			},
			{
				"x": 0.0121218256,
				"y": -1.364571796,
				"z": 0.0621203237,
				"element": "C" 
			},
			{
				"x": 0.1100323921,
				"y": -0.3657741408,
				"z": -1.0109426678,
				"element": "C" 
			},
			{
				"x": -0.0896506033,
				"y": 0.9998944006,
				"z": -0.804626181,
				"element": "C" 
			},
			{
				"x": 0.0435203767,
				"y": 1.8800773808,
				"z": -1.8984336759,
				"element": "C" 
			},
			{
				"x": -0.19147821,
				"y": 3.2366677602,
				"z": -1.7533725067,
				"element": "N" 
			},
			{
				"x": 0.3592993568,
				"y": 1.463584817,
				"z": -3.1326141697,
				"element": "N" 
			},
			{
				"x": 0.5565664644,
				"y": 0.1497073177,
				"z": -3.3086577672,
				"element": "C" 
			},
			{
				"x": 0.4501937641,
				"y": -0.8029522202,
				"z": -2.3045618958,
				"element": "C" 
			},
			{
				"x": -2.5905357078,
				"y": -0.8371754692,
				"z": 2.1480565039,
				"element": "H" 
			},
			{
				"x": -2.3224950947,
				"y": 0.0442390457,
				"z": 0.6311355817,
				"element": "H" 
			},
			{
				"x": -1.4135735195,
				"y": 0.4923664237,
				"z": 2.0945626088,
				"element": "H" 
			},
			{
				"x": -1.0482764739,
				"y": -2.7549780679,
				"z": 2.7520357539,
				"element": "H" 
			},
			{
				"x": -0.3135509346,
				"y": 1.3994282946,
				"z": 0.1783019713,
				"element": "H" 
			},
			{
				"x": -0.0215020438,
				"y": 3.6385102525,
				"z": -0.8432155135,
				"element": "H" 
			},
			{
				"x": 0.1560436774,
				"y": 3.7885452872,
				"z": -2.525701777,
				"element": "H" 
			},
			{
				"x": 0.817438124,
				"y": -0.1543132338,
				"z": -4.3208891109,
				"element": "H" 
			},
			{
				"x": 0.6269178764,
				"y": -1.8540467606,
				"z": -2.4945309593,
				"element": "H" 
			}
		],
		 "valence_orbital": [ 
			{
				"type": "occ",
				"energy": -0.29237,
				"method": "rhf"
			},
			{
				"type": "occ",
				"energy": -0.26136,
				"method": "rhf"
			},
			{
				"type": "occ",
				"energy": -0.25032,
				"method": "rhf"
			},
			{
				"type": "occ",
				"energy": -0.24506,
				"method": "rhf"
			},
			{
				"type": "occ",
				"energy": -0.21977,
				"method": "rhf"
			},
			{
				"type": "unocc",
				"energy": -0.04213,
				"method": "rhf"
			},
			{
				"type": "unocc",
				"energy": 0.00055,
				"method": "rhf"
			},
			{
				"type": "unocc",
				"energy": 0.02733,
				"method": "rhf"
			},
			{
				"type": "unocc",
				"energy": 0.05663,
				"method": "rhf"
			},
			{
				"type": "unocc",
				"energy": 0.06982,
				"method": "rhf"
			}
		],
		"cosmo_sigma_profile": { 
			"-0.025": 0.0,
			"-0.024": 0.0,
			"-0.023": 0.0,
			"-0.022": 0.0,
			"-0.021": 0.0,
			"-0.02": 0.0,
			"-0.019": 0.0,
			"-0.018": 0.0,
			"-0.017": 0.0,
			"-0.016": 0.0,
			"-0.015": 0.0,
			"-0.014": 0.300079979597,
			"-0.013": 1.47003131931,
			"-0.012": 2.57052756844,
			"-0.011": 3.48284630726,
			"-0.01": 5.13641330669,
			"-0.009": 6.14006717601,
			"-0.008": 8.89592673828,
			"-0.007": 9.90100621171,
			"-0.006": 13.2264111356,
			"-0.005": 15.6501512549,
			"-0.004": 15.3196420069,
			"-0.003": 10.5691881006,
			"-0.002": 7.88975438238,
			"-0.001": 8.17386007984,
			"0.0": 9.17891780288,
			"0.001": 9.7891089711,
			"0.002": 13.0013079289,
			"0.003": 12.6236289903,
			"0.004": 7.07465828665,
			"0.005": 5.08519937875,
			"0.006": 4.28318277068,
			"0.007": 5.46917486661,
			"0.008": 4.30468932172,
			"0.009": 3.73864741788,
			"0.01": 3.20876551809,
			"0.011": 4.9694382309,
			"0.012": 3.77176772295,
			"0.013": 4.85548537041,
			"0.014": 3.52600431969,
			"0.015": 3.6197050855,
			"0.016": 2.43175662545,
			"0.017": 0.811640174998,
			"0.018": 0.0,
			"0.019": 0.0,
			"0.02": 0.0,
			"0.021": 0.0,
			"0.022": 0.0,
			"0.023": 0.0,
			"0.024": 0.0,
			"0.025": 0.0
		}
	}
}
