{
	 "smiles": "CCCCNC(N)=O", 
	 "Tm": 369.15, 
	 "num_atms": 20, 
	 "gaussian": { 
		 "optdone": 1, 
		 "sigma_profile": "yes", 
		 "theory": "DFT", 
		 "functional": "B3LYP", 
		 "basiset": "6-31G**", 
		 "properties": { 
			 "R2extent": 1590.2215, 
			 "electric_dipole_moment_norm": 3.38624601587, 
			 "electric_quadrupole_moment_norm": 13.5576306219, 
			 "total_energy": -382.526116707, 
			 "HOMO_LUMO_gap": 0.29648, 
			 "cosmo_polarized_energy": -13.75, 
			 "cosmo_cavitation_energy": 22.46, 
			 "cosmo_dispersion_energy": -16.22, 
			 "cosmo_repulsion_energy": 1.39, 
			 "cosmo_total_nonelectrostatic_energy": 7.63, 
			 "SMD_solvation_energy": 3.7 
		},
		"coords": [
			{
				"x": -0.7196923187,
				"y": 0.1853454114,
				"z": -1.5813064574,
				"element": "C" 
			},
			{
				"x": -1.5264822968,
				"y": -0.7101156268,
				"z": -0.6308996616,
				"element": "C" 
			},
			{
				"x": -0.7112830835,
				"y": -1.5418420335,
				"z": 0.3738007193,
				"element": "C" 
			},
			{
				"x": 0.0959025746,
				"y": -0.7569418309,
				"z": 1.4241677116,
				"element": "C" 
			},
			{
				"x": 1.3534800863,
				"y": -0.1785732637,
				"z": 0.9568197888,
				"element": "N" 
			},
			{
				"x": 2.4678759289,
				"y": -0.9849445636,
				"z": 0.8375468559,
				"element": "C" 
			},
			{
				"x": 3.545446864,
				"y": -0.368145826,
				"z": 0.2013743853,
				"element": "N" 
			},
			{
				"x": 2.5141328105,
				"y": -2.1416980872,
				"z": 1.236511584,
				"element": "O" 
			},
			{
				"x": -1.3640872221,
				"y": 0.6060418601,
				"z": -2.3604394244,
				"element": "H" 
			},
			{
				"x": -0.2629726796,
				"y": 1.0359822477,
				"z": -1.0620534309,
				"element": "H" 
			},
			{
				"x": 0.0812281386,
				"y": -0.374263821,
				"z": -2.0769606465,
				"element": "H" 
			},
			{
				"x": -2.2517151222,
				"y": -0.0924687145,
				"z": -0.0825060851,
				"element": "H" 
			},
			{
				"x": -2.1240404925,
				"y": -1.4050788427,
				"z": -1.234498762,
				"element": "H" 
			},
			{
				"x": -0.0228124999,
				"y": -2.213403097,
				"z": -0.1529918939,
				"element": "H" 
			},
			{
				"x": -1.4105567728,
				"y": -2.1898340747,
				"z": 0.9187051678,
				"element": "H" 
			},
			{
				"x": -0.5109404638,
				"y": 0.0533982033,
				"z": 1.8469028682,
				"element": "H" 
			},
			{
				"x": 0.3613653825,
				"y": -1.4308866085,
				"z": 2.2414838604,
				"element": "H" 
			},
			{
				"x": 1.2924028783,
				"y": 0.6042631878,
				"z": 0.322515051,
				"element": "H" 
			},
			{
				"x": 3.6597515735,
				"y": 0.6259258511,
				"z": 0.3486751007,
				"element": "H" 
			},
			{
				"x": 4.4000967146,
				"y": -0.8954603714,
				"z": 0.3145532686,
				"element": "H" 
			}
		],
		 "valence_orbital": [ 
			{
				"type": "occ",
				"energy": -0.32867,
				"method": "rhf"
			},
			{
				"type": "occ",
				"energy": -0.32276,
				"method": "rhf"
			},
			{
				"type": "occ",
				"energy": -0.26884,
				"method": "rhf"
			},
			{
				"type": "occ",
				"energy": -0.25034,
				"method": "rhf"
			},
			{
				"type": "occ",
				"energy": -0.23959,
				"method": "rhf"
			},
			{
				"type": "unocc",
				"energy": 0.05689,
				"method": "rhf"
			},
			{
				"type": "unocc",
				"energy": 0.0636,
				"method": "rhf"
			},
			{
				"type": "unocc",
				"energy": 0.09768,
				"method": "rhf"
			},
			{
				"type": "unocc",
				"energy": 0.10934,
				"method": "rhf"
			},
			{
				"type": "unocc",
				"energy": 0.13039,
				"method": "rhf"
			}
		],
		"cosmo_sigma_profile": { 
			"-0.025": 0.0,
			"-0.024": 0.0,
			"-0.023": 0.0,
			"-0.022": 0.0,
			"-0.021": 0.0,
			"-0.02": 0.0,
			"-0.019": 0.0,
			"-0.018": 0.0,
			"-0.017": 0.0,
			"-0.016": 0.0,
			"-0.015": 0.0,
			"-0.014": 0.552971882857,
			"-0.013": 2.4973578851,
			"-0.012": 3.54006079071,
			"-0.011": 3.169994237,
			"-0.01": 3.54877110615,
			"-0.009": 3.74600434013,
			"-0.008": 2.93188646041,
			"-0.007": 2.92825087037,
			"-0.006": 1.72320165525,
			"-0.005": 3.54593981243,
			"-0.004": 5.20059643082,
			"-0.003": 11.9572481391,
			"-0.002": 21.7299816269,
			"-0.001": 22.9358652513,
			"0.0": 21.2336932951,
			"0.001": 17.0368385188,
			"0.002": 5.76958983542,
			"0.003": 4.19098521408,
			"0.004": 3.94872460668,
			"0.005": 3.29294326575,
			"0.006": 3.29034471921,
			"0.007": 2.80074309323,
			"0.008": 2.76458344341,
			"0.009": 2.3397562799,
			"0.01": 1.8845581944,
			"0.011": 2.26464157134,
			"0.012": 2.29225067748,
			"0.013": 1.60487291448,
			"0.014": 4.54192655093,
			"0.015": 4.33157321877,
			"0.016": 0.143020977417,
			"0.017": 0.0,
			"0.018": 0.0,
			"0.019": 0.0,
			"0.02": 0.0,
			"0.021": 0.0,
			"0.022": 0.0,
			"0.023": 0.0,
			"0.024": 0.0,
			"0.025": 0.0
		}
	}
}
