{
	 "smiles": "BrC(=C(C1=CC=CC=C1)C1=CC=CC=C1)C1=CC=CC=C1", 
	 "Tm": 389.15, 
	 "num_atms": 36, 
	 "gaussian": { 
		 "optdone": 1, 
		 "sigma_profile": "yes", 
		 "theory": "DFT", 
		 "functional": "B3LYP", 
		 "basiset": "6-31G**", 
		 "properties": { 
			 "R2extent": 8284.0109, 
			 "electric_dipole_moment_norm": 1.90168491607, 
			 "electric_quadrupole_moment_norm": 10.5926203755, 
			 "total_energy": -3342.5610058, 
			 "HOMO_LUMO_gap": 0.16065, 
			 "cosmo_polarized_energy": -7.87, 
			 "cosmo_cavitation_energy": 41.81, 
			 "cosmo_dispersion_energy": -28.21, 
			 "cosmo_repulsion_energy": 2.2, 
			 "cosmo_total_nonelectrostatic_energy": 15.8, 
			 "SMD_solvation_energy": 5.88 
		},
		"coords": [
			{
				"x": -1.2367797964,
				"y": 1.3223997631,
				"z": -3.4701694087,
				"element": "Br" 
			},
			{
				"x": -0.4669348862,
				"y": 0.2464846083,
				"z": -2.050681315,
				"element": "C" 
			},
			{
				"x": 0.3239484849,
				"y": 0.826430775,
				"z": -1.1176152584,
				"element": "C" 
			},
			{
				"x": 0.8137828461,
				"y": 2.2352124218,
				"z": -1.1961132637,
				"element": "C" 
			},
			{
				"x": 0.5752420847,
				"y": 3.1204374508,
				"z": -0.132665093,
				"element": "C" 
			},
			{
				"x": 1.0520359437,
				"y": 4.4297890076,
				"z": -0.1755254669,
				"element": "C" 
			},
			{
				"x": 1.7973553591,
				"y": 4.8693482583,
				"z": -1.2715196301,
				"element": "C" 
			},
			{
				"x": 2.0590333807,
				"y": 3.9914879525,
				"z": -2.3251849494,
				"element": "C" 
			},
			{
				"x": 1.5688471577,
				"y": 2.6864392393,
				"z": -2.2899178767,
				"element": "C" 
			},
			{
				"x": 0.7482554598,
				"y": 0.0765538838,
				"z": 0.107089245,
				"element": "C" 
			},
			{
				"x": -0.1798464292,
				"y": -0.6154645902,
				"z": 0.9025932293,
				"element": "C" 
			},
			{
				"x": 0.2271663412,
				"y": -1.2753346137,
				"z": 2.0614039983,
				"element": "C" 
			},
			{
				"x": 1.5687909213,
				"y": -1.257444164,
				"z": 2.4474542982,
				"element": "C" 
			},
			{
				"x": 2.4998376471,
				"y": -0.5639988007,
				"z": 1.6710416959,
				"element": "C" 
			},
			{
				"x": 2.092158651,
				"y": 0.1054790653,
				"z": 0.5183739357,
				"element": "C" 
			},
			{
				"x": -0.8410640625,
				"y": -1.1840527939,
				"z": -2.1490679942,
				"element": "C" 
			},
			{
				"x": 0.1551095685,
				"y": -2.1736757993,
				"z": -2.0906314917,
				"element": "C" 
			},
			{
				"x": -0.1781341438,
				"y": -3.5236209526,
				"z": -2.1861294992,
				"element": "C" 
			},
			{
				"x": -1.5102695292,
				"y": -3.9097544959,
				"z": -2.3440563676,
				"element": "C" 
			},
			{
				"x": -2.5074432762,
				"y": -2.933987135,
				"z": -2.4143778971,
				"element": "C" 
			},
			{
				"x": -2.176292609,
				"y": -1.5835988507,
				"z": -2.3278922295,
				"element": "C" 
			},
			{
				"x": 0.0089132739,
				"y": 2.777213665,
				"z": 0.7280137686,
				"element": "H" 
			},
			{
				"x": 0.8459137004,
				"y": 5.1051441823,
				"z": 0.6500144721,
				"element": "H" 
			},
			{
				"x": 2.17598888,
				"y": 5.88703721,
				"z": -1.3017642607,
				"element": "H" 
			},
			{
				"x": 2.6467414953,
				"y": 4.3218019589,
				"z": -3.177025635,
				"element": "H" 
			},
			{
				"x": 1.7718647728,
				"y": 2.0082902615,
				"z": -3.1124512357,
				"element": "H" 
			},
			{
				"x": -1.2243843849,
				"y": -0.6307355872,
				"z": 0.6097256702,
				"element": "H" 
			},
			{
				"x": -0.5071261092,
				"y": -1.8001437504,
				"z": 2.6659901939,
				"element": "H" 
			},
			{
				"x": 1.8850074813,
				"y": -1.7725914404,
				"z": 3.3499424425,
				"element": "H" 
			},
			{
				"x": 3.5450884398,
				"y": -0.5389730841,
				"z": 1.9661005644,
				"element": "H" 
			},
			{
				"x": 2.8172927411,
				"y": 0.6559088112,
				"z": -0.0734039786,
				"element": "H" 
			},
			{
				"x": 1.1916622132,
				"y": -1.8772270063,
				"z": -1.9705376197,
				"element": "H" 
			},
			{
				"x": 0.6062708491,
				"y": -4.2738061115,
				"z": -2.1435768538,
				"element": "H" 
			},
			{
				"x": -1.7691282676,
				"y": -4.9618772478,
				"z": -2.4201641096,
				"element": "H" 
			},
			{
				"x": -3.546120781,
				"y": -3.224685574,
				"z": -2.5432263509,
				"element": "H" 
			},
			{
				"x": -2.9516834174,
				"y": -0.827986517,
				"z": -2.402045729,
				"element": "H" 
			}
		],
		 "valence_orbital": [ 
			{
				"type": "occ",
				"energy": -0.25629,
				"method": "rhf"
			},
			{
				"type": "occ",
				"energy": -0.25178,
				"method": "rhf"
			},
			{
				"type": "occ",
				"energy": -0.24614,
				"method": "rhf"
			},
			{
				"type": "occ",
				"energy": -0.24478,
				"method": "rhf"
			},
			{
				"type": "occ",
				"energy": -0.20911,
				"method": "rhf"
			},
			{
				"type": "unocc",
				"energy": -0.04846,
				"method": "rhf"
			},
			{
				"type": "unocc",
				"energy": -0.01288,
				"method": "rhf"
			},
			{
				"type": "unocc",
				"energy": -0.00964,
				"method": "rhf"
			},
			{
				"type": "unocc",
				"energy": -0.00253,
				"method": "rhf"
			},
			{
				"type": "unocc",
				"energy": 0.00226,
				"method": "rhf"
			}
		],
		"cosmo_sigma_profile": { 
			"-0.025": 0.0,
			"-0.024": 0.0,
			"-0.023": 0.0,
			"-0.022": 0.0,
			"-0.021": 0.0,
			"-0.02": 0.0,
			"-0.019": 0.0,
			"-0.018": 0.0,
			"-0.017": 0.0,
			"-0.016": 0.0,
			"-0.015": 0.0,
			"-0.014": 0.0,
			"-0.013": 0.0,
			"-0.012": 0.0,
			"-0.011": 0.0,
			"-0.01": 0.0,
			"-0.009": 0.0,
			"-0.008": 0.0,
			"-0.007": 0.13262502599,
			"-0.006": 13.4743363326,
			"-0.005": 28.2867782437,
			"-0.004": 33.8281870328,
			"-0.003": 30.5659776578,
			"-0.002": 26.154712095,
			"-0.001": 26.9330539393,
			"0.0": 24.0812846694,
			"0.001": 24.2533874303,
			"0.002": 22.956649245,
			"0.003": 29.4992500486,
			"0.004": 31.3289454657,
			"0.005": 34.612608721,
			"0.006": 11.3058506543,
			"0.007": 0.757815619551,
			"0.008": 0.0,
			"0.009": 0.0,
			"0.01": 0.0,
			"0.011": 0.0,
			"0.012": 0.0,
			"0.013": 0.0,
			"0.014": 0.0,
			"0.015": 0.0,
			"0.016": 0.0,
			"0.017": 0.0,
			"0.018": 0.0,
			"0.019": 0.0,
			"0.02": 0.0,
			"0.021": 0.0,
			"0.022": 0.0,
			"0.023": 0.0,
			"0.024": 0.0,
			"0.025": 0.0
		}
	}
}
