{
	 "smiles": "OC(=O)CNC1=C(C=C(Br)C=C1)C(O)=O", 
	 "Tm": 486.15, 
	 "num_atms": 23, 
	 "gaussian": { 
		 "optdone": 1, 
		 "sigma_profile": "yes", 
		 "theory": "DFT", 
		 "functional": "B3LYP", 
		 "basiset": "6-31G**", 
		 "properties": { 
			 "R2extent": 6129.3047, 
			 "electric_dipole_moment_norm": 3.66895661871, 
			 "electric_quadrupole_moment_norm": 25.4566471803, 
			 "total_energy": -3274.85709552, 
			 "HOMO_LUMO_gap": 0.16238, 
			 "cosmo_polarized_energy": -20.17, 
			 "cosmo_cavitation_energy": 30.26, 
			 "cosmo_dispersion_energy": -22.47, 
			 "cosmo_repulsion_energy": 1.78, 
			 "cosmo_total_nonelectrostatic_energy": 9.58, 
			 "SMD_solvation_energy": 6.1 
		},
		"coords": [
			{
				"x": -1.6985947891,
				"y": -0.3652136973,
				"z": -3.3333732808,
				"element": "O" 
			},
			{
				"x": -0.9447092058,
				"y": 0.7444495321,
				"z": -3.2437208101,
				"element": "C" 
			},
			{
				"x": -1.1896988824,
				"y": 1.7572181908,
				"z": -3.8505747506,
				"element": "O" 
			},
			{
				"x": 0.287180031,
				"y": 0.6075626768,
				"z": -2.3307566834,
				"element": "C" 
			},
			{
				"x": 0.2268771234,
				"y": -0.5422091373,
				"z": -1.4386231791,
				"element": "N" 
			},
			{
				"x": -0.3491945175,
				"y": -0.4512564972,
				"z": -0.1706020499,
				"element": "C" 
			},
			{
				"x": -0.0557485296,
				"y": -1.3752218337,
				"z": 0.8727080771,
				"element": "C" 
			},
			{
				"x": -0.7120379832,
				"y": -1.2568868213,
				"z": 2.1112581604,
				"element": "C" 
			},
			{
				"x": -1.6346304757,
				"y": -0.2515257978,
				"z": 2.3375085518,
				"element": "C" 
			},
			{
				"x": -2.5056531202,
				"y": -0.1108515035,
				"z": 4.0288858852,
				"element": "Br" 
			},
			{
				"x": -1.929006577,
				"y": 0.6633534341,
				"z": 1.3247744852,
				"element": "C" 
			},
			{
				"x": -1.2967276595,
				"y": 0.5598661225,
				"z": 0.0935826234,
				"element": "C" 
			},
			{
				"x": 0.9188105615,
				"y": -2.494256579,
				"z": 0.8078349007,
				"element": "C" 
			},
			{
				"x": 1.6015509169,
				"y": -2.5932095827,
				"z": -0.3746963607,
				"element": "O" 
			},
			{
				"x": 1.1354560521,
				"y": -3.2810269942,
				"z": 1.7057781516,
				"element": "O" 
			},
			{
				"x": -1.3071724362,
				"y": -1.0216066631,
				"z": -2.7240516633,
				"element": "H" 
			},
			{
				"x": 1.152641412,
				"y": 0.4852454362,
				"z": -2.9898079657,
				"element": "H" 
			},
			{
				"x": 0.4206717843,
				"y": 1.5566522987,
				"z": -1.8008976863,
				"element": "H" 
			},
			{
				"x": 1.0147349997,
				"y": -1.173960328,
				"z": -1.4835091893,
				"element": "H" 
			},
			{
				"x": -0.4651229676,
				"y": -1.9757486908,
				"z": 2.8827207013,
				"element": "H" 
			},
			{
				"x": -2.6535974216,
				"y": 1.4519206293,
				"z": 1.4943881987,
				"element": "H" 
			},
			{
				"x": -1.5567360067,
				"y": 1.2738882456,
				"z": -0.6790745209,
				"element": "H" 
			},
			{
				"x": 2.2013076912,
				"y": -3.3506824404,
				"z": -0.2688515953,
				"element": "H" 
			}
		],
		 "valence_orbital": [ 
			{
				"type": "occ",
				"energy": -0.30133,
				"method": "rhf"
			},
			{
				"type": "occ",
				"energy": -0.29407,
				"method": "rhf"
			},
			{
				"type": "occ",
				"energy": -0.28352,
				"method": "rhf"
			},
			{
				"type": "occ",
				"energy": -0.27432,
				"method": "rhf"
			},
			{
				"type": "occ",
				"energy": -0.23152,
				"method": "rhf"
			},
			{
				"type": "unocc",
				"energy": -0.06914,
				"method": "rhf"
			},
			{
				"type": "unocc",
				"energy": -0.02205,
				"method": "rhf"
			},
			{
				"type": "unocc",
				"energy": -0.00331,
				"method": "rhf"
			},
			{
				"type": "unocc",
				"energy": 0.00438,
				"method": "rhf"
			},
			{
				"type": "unocc",
				"energy": 0.03343,
				"method": "rhf"
			}
		],
		"cosmo_sigma_profile": { 
			"-0.025": 0.0,
			"-0.024": 0.0,
			"-0.023": 0.0,
			"-0.022": 0.0,
			"-0.021": 0.0,
			"-0.02": 0.0,
			"-0.019": 0.31837690404,
			"-0.018": 0.897131070829,
			"-0.017": 1.10554477165,
			"-0.016": 0.737208319422,
			"-0.015": 0.758236104566,
			"-0.014": 0.742330092031,
			"-0.013": 1.07623152059,
			"-0.012": 2.74875340515,
			"-0.011": 3.3156893159,
			"-0.01": 4.2815936049,
			"-0.009": 5.30674577268,
			"-0.008": 6.69695548401,
			"-0.007": 10.6544652721,
			"-0.006": 10.1132127448,
			"-0.005": 10.1543907824,
			"-0.004": 11.3022972667,
			"-0.003": 15.0789937748,
			"-0.002": 13.0272365798,
			"-0.001": 14.3044032379,
			"0.0": 14.9067888552,
			"0.001": 18.2107047356,
			"0.002": 21.8733477523,
			"0.003": 13.1839956089,
			"0.004": 14.0244647855,
			"0.005": 8.80449163942,
			"0.006": 2.81422985957,
			"0.007": 3.48378264611,
			"0.008": 4.38942713692,
			"0.009": 5.22738354945,
			"0.01": 7.20388234404,
			"0.011": 9.21224795827,
			"0.012": 7.18737502998,
			"0.013": 2.18671892924,
			"0.014": 0.0637220142706,
			"0.015": 0.0,
			"0.016": 0.0,
			"0.017": 0.0,
			"0.018": 0.0,
			"0.019": 0.0,
			"0.02": 0.0,
			"0.021": 0.0,
			"0.022": 0.0,
			"0.023": 0.0,
			"0.024": 0.0,
			"0.025": 0.0
		}
	}
}
