{
	 "smiles": "CC1=CC(CC(O)=O)=C(C)N1C1=CC=C(Cl)C=C1", 
	 "Tm": 392.15, 
	 "num_atms": 32, 
	 "gaussian": { 
		 "optdone": 1, 
		 "sigma_profile": "yes", 
		 "theory": "DFT", 
		 "functional": "B3LYP", 
		 "basiset": "6-31G**", 
		 "properties": { 
			 "R2extent": 7000.1678, 
			 "electric_dipole_moment_norm": 5.79845363351, 
			 "electric_quadrupole_moment_norm": 34.8581187866, 
			 "total_energy": -1207.3357173, 
			 "HOMO_LUMO_gap": 0.17176, 
			 "cosmo_polarized_energy": -14.77, 
			 "cosmo_cavitation_energy": 37.9, 
			 "cosmo_dispersion_energy": -25.82, 
			 "cosmo_repulsion_energy": 2.04, 
			 "cosmo_total_nonelectrostatic_energy": 14.12, 
			 "SMD_solvation_energy": 7.45 
		},
		"coords": [
			{
				"x": -0.0793842843,
				"y": -0.0314887512,
				"z": 2.8734751532,
				"element": "C" 
			},
			{
				"x": 0.3992721394,
				"y": 0.8426999733,
				"z": 1.7587465687,
				"element": "C" 
			},
			{
				"x": 1.1570041829,
				"y": 1.9921901894,
				"z": 1.7908747333,
				"element": "C" 
			},
			{
				"x": 1.3004515732,
				"y": 2.4796188478,
				"z": 0.449707261,
				"element": "C" 
			},
			{
				"x": 2.0984140266,
				"y": 3.6827580618,
				"z": 0.0355655741,
				"element": "C" 
			},
			{
				"x": 3.6183926185,
				"y": 3.4713328668,
				"z": -0.0849437062,
				"element": "C" 
			},
			{
				"x": 4.1137776239,
				"y": 2.3613827563,
				"z": 0.5064818659,
				"element": "O" 
			},
			{
				"x": 4.3422820303,
				"y": 4.2565371955,
				"z": -0.6470279743,
				"element": "O" 
			},
			{
				"x": 0.621357357,
				"y": 1.6024481393,
				"z": -0.3784897334,
				"element": "C" 
			},
			{
				"x": 0.4668494623,
				"y": 1.5883487605,
				"z": -1.8662635595,
				"element": "C" 
			},
			{
				"x": 0.0707231098,
				"y": 0.6094040562,
				"z": 0.4281411008,
				"element": "N" 
			},
			{
				"x": -0.7164276584,
				"y": -0.486992027,
				"z": -0.0420722718,
				"element": "C" 
			},
			{
				"x": -2.0498528004,
				"y": -0.2847306278,
				"z": -0.4124410259,
				"element": "C" 
			},
			{
				"x": -2.8216607347,
				"y": -1.3498726815,
				"z": -0.8745116041,
				"element": "C" 
			},
			{
				"x": -2.2504018019,
				"y": -2.6203226254,
				"z": -0.9539819064,
				"element": "C" 
			},
			{
				"x": -3.2182425929,
				"y": -3.966101167,
				"z": -1.5289541603,
				"element": "Cl" 
			},
			{
				"x": -0.923102188,
				"y": -2.8392305522,
				"z": -0.5841788188,
				"element": "C" 
			},
			{
				"x": -0.1570227883,
				"y": -1.7655931657,
				"z": -0.1320112217,
				"element": "C" 
			},
			{
				"x": 0.3011058532,
				"y": -1.0570181834,
				"z": 2.7994025223,
				"element": "H" 
			},
			{
				"x": -1.1735065594,
				"y": -0.0967096429,
				"z": 2.9057271335,
				"element": "H" 
			},
			{
				"x": 0.2594606061,
				"y": 0.3809229996,
				"z": 3.8265893477,
				"element": "H" 
			},
			{
				"x": 1.5390591016,
				"y": 2.4616566346,
				"z": 2.6885549621,
				"element": "H" 
			},
			{
				"x": 1.7697125654,
				"y": 4.088923308,
				"z": -0.9244003138,
				"element": "H" 
			},
			{
				"x": 1.9671862952,
				"y": 4.495395627,
				"z": 0.7617042149,
				"element": "H" 
			},
			{
				"x": 3.3712763832,
				"y": 1.8470492319,
				"z": 0.8708542655,
				"element": "H" 
			},
			{
				"x": -0.5808834816,
				"y": 1.6600190766,
				"z": -2.1805828625,
				"element": "H" 
			},
			{
				"x": 1.001812872,
				"y": 2.4336139619,
				"z": -2.3040058208,
				"element": "H" 
			},
			{
				"x": 0.8744040914,
				"y": 0.6734615348,
				"z": -2.3128571418,
				"element": "H" 
			},
			{
				"x": -2.4811367083,
				"y": 0.7078857838,
				"z": -0.331341093,
				"element": "H" 
			},
			{
				"x": -3.8557293825,
				"y": -1.1993921724,
				"z": -1.1634332968,
				"element": "H" 
			},
			{
				"x": -0.4950679081,
				"y": -3.8327225599,
				"z": -0.6559758303,
				"element": "H" 
			},
			{
				"x": 0.8810769971,
				"y": -1.9151748486,
				"z": 0.1470476384,
				"element": "H" 
			}
		],
		 "valence_orbital": [ 
			{
				"type": "occ",
				"energy": -0.28613,
				"method": "rhf"
			},
			{
				"type": "occ",
				"energy": -0.27469,
				"method": "rhf"
			},
			{
				"type": "occ",
				"energy": -0.26268,
				"method": "rhf"
			},
			{
				"type": "occ",
				"energy": -0.24008,
				"method": "rhf"
			},
			{
				"type": "occ",
				"energy": -0.21047,
				"method": "rhf"
			},
			{
				"type": "unocc",
				"energy": -0.03871,
				"method": "rhf"
			},
			{
				"type": "unocc",
				"energy": -0.03734,
				"method": "rhf"
			},
			{
				"type": "unocc",
				"energy": 0.01354,
				"method": "rhf"
			},
			{
				"type": "unocc",
				"energy": 0.01601,
				"method": "rhf"
			},
			{
				"type": "unocc",
				"energy": 0.02837,
				"method": "rhf"
			}
		],
		"cosmo_sigma_profile": { 
			"-0.025": 0.0,
			"-0.024": 0.0,
			"-0.023": 0.0,
			"-0.022": 0.0,
			"-0.021": 0.0,
			"-0.02": 0.0,
			"-0.019": 0.0,
			"-0.018": 0.0,
			"-0.017": 0.0,
			"-0.016": 0.0,
			"-0.015": 0.0,
			"-0.014": 0.0,
			"-0.013": 0.0,
			"-0.012": 0.0135946295309,
			"-0.011": 0.168116659128,
			"-0.01": 0.838138004989,
			"-0.009": 0.436931319723,
			"-0.008": 2.74012979458,
			"-0.007": 11.1134903436,
			"-0.006": 16.9016872542,
			"-0.005": 18.0239801784,
			"-0.004": 24.8333585532,
			"-0.003": 25.4820058609,
			"-0.002": 26.2793668235,
			"-0.001": 30.3795674671,
			"0.0": 26.2615543506,
			"0.001": 22.9236012683,
			"0.002": 23.186194571,
			"0.003": 16.9466916607,
			"0.004": 13.473627081,
			"0.005": 8.65428144427,
			"0.006": 4.5051701393,
			"0.007": 4.21973200171,
			"0.008": 2.5161020231,
			"0.009": 3.34676350268,
			"0.01": 4.34152323781,
			"0.011": 5.21532724595,
			"0.012": 5.43547666901,
			"0.013": 4.55979667536,
			"0.014": 0.802122944479,
			"0.015": 0.0,
			"0.016": 0.0,
			"0.017": 0.0,
			"0.018": 0.0,
			"0.019": 0.0,
			"0.02": 0.0,
			"0.021": 0.0,
			"0.022": 0.0,
			"0.023": 0.0,
			"0.024": 0.0,
			"0.025": 0.0
		}
	}
}
