{
	 "smiles": "N#CCC1=NC2=C(C=CC=C2)C=C1", 
	 "Tm": 319.15, 
	 "num_atms": 21, 
	 "gaussian": { 
		 "optdone": 1, 
		 "sigma_profile": "yes", 
		 "theory": "DFT", 
		 "functional": "B3LYP", 
		 "basiset": "6-31G**", 
		 "properties": { 
			 "R2extent": 2723.6448, 
			 "electric_dipole_moment_norm": 4.06975311782, 
			 "electric_quadrupole_moment_norm": 17.0985840975, 
			 "total_energy": -533.487467439, 
			 "HOMO_LUMO_gap": 0.1779, 
			 "cosmo_polarized_energy": -10.99, 
			 "cosmo_cavitation_energy": 26.2, 
			 "cosmo_dispersion_energy": -18.93, 
			 "cosmo_repulsion_energy": 1.48, 
			 "cosmo_total_nonelectrostatic_energy": 8.75, 
			 "SMD_solvation_energy": 4.16 
		},
		"coords": [
			{
				"x": -4.7565086524,
				"y": 0.3609700809,
				"z": -1.2831966312,
				"element": "N" 
			},
			{
				"x": -3.8423730131,
				"y": -0.3009613311,
				"z": -1.012563664,
				"element": "C" 
			},
			{
				"x": -2.6791907128,
				"y": -1.127792408,
				"z": -0.684887566,
				"element": "C" 
			},
			{
				"x": -1.3772785664,
				"y": -0.3499121544,
				"z": -0.5058835417,
				"element": "C" 
			},
			{
				"x": -0.4991630327,
				"y": -0.9178591811,
				"z": 0.2957838477,
				"element": "N" 
			},
			{
				"x": 0.7089443092,
				"y": -0.30728554,
				"z": 0.4722781814,
				"element": "C" 
			},
			{
				"x": 1.0481712566,
				"y": 0.9215933149,
				"z": -0.178131924,
				"element": "C" 
			},
			{
				"x": 2.3228850921,
				"y": 1.5013707183,
				"z": 0.0545453895,
				"element": "C" 
			},
			{
				"x": 3.2233193415,
				"y": 0.8875799731,
				"z": 0.8960926015,
				"element": "C" 
			},
			{
				"x": 2.8869832367,
				"y": -0.3296417961,
				"z": 1.5404726651,
				"element": "C" 
			},
			{
				"x": 1.6579370509,
				"y": -0.915684242,
				"z": 1.3354537661,
				"element": "C" 
			},
			{
				"x": 0.0701462181,
				"y": 1.4964162927,
				"z": -1.0284228716,
				"element": "C" 
			},
			{
				"x": -1.1406683733,
				"y": 0.8686440166,
				"z": -1.1966617454,
				"element": "C" 
			},
			{
				"x": -2.8737801705,
				"y": -1.6888543523,
				"z": 0.2338881399,
				"element": "H" 
			},
			{
				"x": -2.5532134547,
				"y": -1.8708104178,
				"z": -1.4840361715,
				"element": "H" 
			},
			{
				"x": 2.5748994382,
				"y": 2.4352158859,
				"z": -0.4414162068,
				"element": "H" 
			},
			{
				"x": 4.197356504,
				"y": 1.3348685443,
				"z": 1.0705575632,
				"element": "H" 
			},
			{
				"x": 3.6088731754,
				"y": -0.8003996755,
				"z": 2.2014492627,
				"element": "H" 
			},
			{
				"x": 1.3782019574,
				"y": -1.8462846127,
				"z": 1.8182424759,
				"element": "H" 
			},
			{
				"x": 0.2864217973,
				"y": 2.4318438156,
				"z": -1.5382293068,
				"element": "H" 
			},
			{
				"x": -1.9106634015,
				"y": 1.2907830688,
				"z": -1.8336342641,
				"element": "H" 
			}
		],
		 "valence_orbital": [ 
			{
				"type": "occ",
				"energy": -0.3256,
				"method": "rhf"
			},
			{
				"type": "occ",
				"energy": -0.31478,
				"method": "rhf"
			},
			{
				"type": "occ",
				"energy": -0.26788,
				"method": "rhf"
			},
			{
				"type": "occ",
				"energy": -0.25846,
				"method": "rhf"
			},
			{
				"type": "occ",
				"energy": -0.2411,
				"method": "rhf"
			},
			{
				"type": "unocc",
				"energy": -0.0632,
				"method": "rhf"
			},
			{
				"type": "unocc",
				"energy": -0.02605,
				"method": "rhf"
			},
			{
				"type": "unocc",
				"energy": 0.01014,
				"method": "rhf"
			},
			{
				"type": "unocc",
				"energy": 0.03139,
				"method": "rhf"
			},
			{
				"type": "unocc",
				"energy": 0.03924,
				"method": "rhf"
			}
		],
		"cosmo_sigma_profile": { 
			"-0.025": 0.0,
			"-0.024": 0.0,
			"-0.023": 0.0,
			"-0.022": 0.0,
			"-0.021": 0.0,
			"-0.02": 0.0,
			"-0.019": 0.0,
			"-0.018": 0.0,
			"-0.017": 0.0,
			"-0.016": 0.0,
			"-0.015": 0.0,
			"-0.014": 0.0,
			"-0.013": 0.0,
			"-0.012": 0.0,
			"-0.011": 0.0,
			"-0.01": 0.447067438478,
			"-0.009": 4.08660960928,
			"-0.008": 5.4119228527,
			"-0.007": 9.49850083297,
			"-0.006": 17.2552071206,
			"-0.005": 16.1142590444,
			"-0.004": 13.9520915586,
			"-0.003": 11.8742817837,
			"-0.002": 10.4454207249,
			"-0.001": 9.78318076316,
			"0.0": 13.0608800214,
			"0.001": 16.9250019997,
			"0.002": 18.3309597513,
			"0.003": 16.8327216712,
			"0.004": 13.8834569972,
			"0.005": 4.6784220585,
			"0.006": 3.11281060612,
			"0.007": 4.08504704017,
			"0.008": 4.81191734633,
			"0.009": 4.10775194139,
			"0.01": 3.54640130081,
			"0.011": 3.80910707626,
			"0.012": 2.74146148601,
			"0.013": 2.40804759134,
			"0.014": 0.524090641419,
			"0.015": 0.0596370381016,
			"0.016": 0.0,
			"0.017": 0.0,
			"0.018": 0.0,
			"0.019": 0.0,
			"0.02": 0.0,
			"0.021": 0.0,
			"0.022": 0.0,
			"0.023": 0.0,
			"0.024": 0.0,
			"0.025": 0.0
		}
	}
}
