{
	 "smiles": "OC1=CC=C2N=CC=CC2=C1", 
	 "Tm": 465.15, 
	 "num_atms": 18, 
	 "gaussian": { 
		 "optdone": 1, 
		 "sigma_profile": "yes", 
		 "theory": "DFT", 
		 "functional": "B3LYP", 
		 "basiset": "6-31G**", 
		 "properties": { 
			 "R2extent": 1965.2156, 
			 "electric_dipole_moment_norm": 3.04139271387, 
			 "electric_quadrupole_moment_norm": 6.34284461342, 
			 "total_energy": -477.152644788, 
			 "HOMO_LUMO_gap": 0.17056, 
			 "cosmo_polarized_energy": -11.26, 
			 "cosmo_cavitation_energy": 22.08, 
			 "cosmo_dispersion_energy": -16.79, 
			 "cosmo_repulsion_energy": 1.32, 
			 "cosmo_total_nonelectrostatic_energy": 6.61, 
			 "SMD_solvation_energy": 2.55 
		},
		"coords": [
			{
				"x": -3.3498299441,
				"y": -1.1049683594,
				"z": 0.6663684005,
				"element": "O" 
			},
			{
				"x": -2.1367015032,
				"y": -1.0319766034,
				"z": 0.0462854128,
				"element": "C" 
			},
			{
				"x": -2.1558717752,
				"y": -1.1329859577,
				"z": -1.3713257118,
				"element": "C" 
			},
			{
				"x": -0.9847626853,
				"y": -1.0704630895,
				"z": -2.0837927362,
				"element": "C" 
			},
			{
				"x": 0.2651631751,
				"y": -0.904455511,
				"z": -1.4247333401,
				"element": "C" 
			},
			{
				"x": 1.3981047841,
				"y": -0.8486515148,
				"z": -2.1804649638,
				"element": "N" 
			},
			{
				"x": 2.5485682084,
				"y": -0.6945096317,
				"z": -1.5543023094,
				"element": "C" 
			},
			{
				"x": 2.6750877959,
				"y": -0.5839523946,
				"z": -0.1470800343,
				"element": "C" 
			},
			{
				"x": 1.5406955175,
				"y": -0.6384806999,
				"z": 0.6288371011,
				"element": "C" 
			},
			{
				"x": 0.2779044132,
				"y": -0.8033082129,
				"z": 0.0038611083,
				"element": "C" 
			},
			{
				"x": -0.9440756538,
				"y": -0.8703440165,
				"z": 0.7212694933,
				"element": "C" 
			},
			{
				"x": -3.2242699513,
				"y": -1.0261153385,
				"z": 1.6211861689,
				"element": "H" 
			},
			{
				"x": -3.115277136,
				"y": -1.2593517845,
				"z": -1.86220353,
				"element": "H" 
			},
			{
				"x": -0.9760801963,
				"y": -1.1453337353,
				"z": -3.1661761476,
				"element": "H" 
			},
			{
				"x": 3.4397803354,
				"y": -0.6527630176,
				"z": -2.1795631795,
				"element": "H" 
			},
			{
				"x": 3.6568754681,
				"y": -0.4586100888,
				"z": 0.2989857161,
				"element": "H" 
			},
			{
				"x": 1.5967545174,
				"y": -0.5573734007,
				"z": 1.711697303,
				"element": "H" 
			},
			{
				"x": -0.9291653697,
				"y": -0.7929566431,
				"z": 1.8071512488,
				"element": "H" 
			}
		],
		 "valence_orbital": [ 
			{
				"type": "occ",
				"energy": -0.31496,
				"method": "rhf"
			},
			{
				"type": "occ",
				"energy": -0.30383,
				"method": "rhf"
			},
			{
				"type": "occ",
				"energy": -0.25039,
				"method": "rhf"
			},
			{
				"type": "occ",
				"energy": -0.24208,
				"method": "rhf"
			},
			{
				"type": "occ",
				"energy": -0.21911,
				"method": "rhf"
			},
			{
				"type": "unocc",
				"energy": -0.04855,
				"method": "rhf"
			},
			{
				"type": "unocc",
				"energy": -0.0081,
				"method": "rhf"
			},
			{
				"type": "unocc",
				"energy": 0.0234,
				"method": "rhf"
			},
			{
				"type": "unocc",
				"energy": 0.0652,
				"method": "rhf"
			},
			{
				"type": "unocc",
				"energy": 0.09621,
				"method": "rhf"
			}
		],
		"cosmo_sigma_profile": { 
			"-0.025": 0.0,
			"-0.024": 0.0,
			"-0.023": 0.0,
			"-0.022": 0.0,
			"-0.021": 0.0,
			"-0.02": 0.0,
			"-0.019": 0.0279518087182,
			"-0.018": 0.604260285222,
			"-0.017": 1.42807621796,
			"-0.016": 0.429918178894,
			"-0.015": 1.08935890816,
			"-0.014": 1.50147028574,
			"-0.013": 0.727845362187,
			"-0.012": 0.959201325142,
			"-0.011": 0.76577647684,
			"-0.01": 1.21300859021,
			"-0.009": 1.20540759991,
			"-0.008": 0.957517872661,
			"-0.007": 5.90141434501,
			"-0.006": 12.0425029466,
			"-0.005": 12.1216583048,
			"-0.004": 10.6052305591,
			"-0.003": 7.85281883388,
			"-0.002": 8.13689718253,
			"-0.001": 7.78313565051,
			"0.0": 8.30672076957,
			"0.001": 10.2896711116,
			"0.002": 19.441679244,
			"0.003": 26.0628628255,
			"0.004": 12.6756698468,
			"0.005": 4.22305757919,
			"0.006": 2.61000108684,
			"0.007": 3.19873338048,
			"0.008": 2.72854025026,
			"0.009": 2.71518951801,
			"0.01": 2.93998512064,
			"0.011": 2.17469635942,
			"0.012": 1.16537833324,
			"0.013": 0.84552038902,
			"0.014": 0.737543431075,
			"0.015": 0.93510781871,
			"0.016": 0.775038921087,
			"0.017": 0.15019686948,
			"0.018": 0.0,
			"0.019": 0.0,
			"0.02": 0.0,
			"0.021": 0.0,
			"0.022": 0.0,
			"0.023": 0.0,
			"0.024": 0.0,
			"0.025": 0.0
		}
	}
}
