{
	 "smiles": "OC(=O)C1=C(F)C=CC(F)=C1F", 
	 "Tm": 404.15, 
	 "num_atms": 15, 
	 "gaussian": { 
		 "optdone": 1, 
		 "sigma_profile": "yes", 
		 "theory": "DFT", 
		 "functional": "B3LYP", 
		 "basiset": "6-31G**", 
		 "properties": { 
			 "R2extent": 2178.7924, 
			 "electric_dipole_moment_norm": 1.65430498095, 
			 "electric_quadrupole_moment_norm": 14.2999599982, 
			 "total_energy": -718.498602819, 
			 "HOMO_LUMO_gap": 0.19499, 
			 "cosmo_polarized_energy": -10.08, 
			 "cosmo_cavitation_energy": 21.85, 
			 "cosmo_dispersion_energy": -15.8, 
			 "cosmo_repulsion_energy": 1.2, 
			 "cosmo_total_nonelectrostatic_energy": 7.25, 
			 "SMD_solvation_energy": 6.49 
		},
		"coords": [
			{
				"x": 1.760230049,
				"y": -1.779589525,
				"z": 0.9276428807,
				"element": "O" 
			},
			{
				"x": 0.4725056061,
				"y": -1.5635237409,
				"z": 1.2747127505,
				"element": "C" 
			},
			{
				"x": 0.0531829492,
				"y": -1.7482003428,
				"z": 2.3955136921,
				"element": "O" 
			},
			{
				"x": -0.3592651608,
				"y": -1.0918661707,
				"z": 0.1265495374,
				"element": "C" 
			},
			{
				"x": -1.7271774446,
				"y": -1.4149042948,
				"z": 0.0658419569,
				"element": "C" 
			},
			{
				"x": -2.2607339638,
				"y": -2.1949903807,
				"z": 1.0137544401,
				"element": "F" 
			},
			{
				"x": -2.5503895877,
				"y": -0.9820238029,
				"z": -0.9646467244,
				"element": "C" 
			},
			{
				"x": -2.0164459656,
				"y": -0.1834198814,
				"z": -1.9763983433,
				"element": "C" 
			},
			{
				"x": -0.6732815252,
				"y": 0.1577587276,
				"z": -1.9401455628,
				"element": "C" 
			},
			{
				"x": -0.1367239639,
				"y": 0.9316030866,
				"z": -2.8976234152,
				"element": "F" 
			},
			{
				"x": 0.1485309056,
				"y": -0.2922806855,
				"z": -0.9066871404,
				"element": "C" 
			},
			{
				"x": 1.4281945967,
				"y": 0.0904241002,
				"z": -0.9202023651,
				"element": "F" 
			},
			{
				"x": 2.2083110963,
				"y": -2.0625290983,
				"z": 1.7429581215,
				"element": "H" 
			},
			{
				"x": -3.5937660241,
				"y": -1.2740157505,
				"z": -0.9639789591,
				"element": "H" 
			},
			{
				"x": -2.6300715669,
				"y": 0.1792577592,
				"z": -2.7934908688,
				"element": "H" 
			}
		],
		 "valence_orbital": [ 
			{
				"type": "occ",
				"energy": -0.36459,
				"method": "rhf"
			},
			{
				"type": "occ",
				"energy": -0.32719,
				"method": "rhf"
			},
			{
				"type": "occ",
				"energy": -0.29214,
				"method": "rhf"
			},
			{
				"type": "occ",
				"energy": -0.27897,
				"method": "rhf"
			},
			{
				"type": "occ",
				"energy": -0.25602,
				"method": "rhf"
			},
			{
				"type": "unocc",
				"energy": -0.06103,
				"method": "rhf"
			},
			{
				"type": "unocc",
				"energy": -0.01586,
				"method": "rhf"
			},
			{
				"type": "unocc",
				"energy": 0.02943,
				"method": "rhf"
			},
			{
				"type": "unocc",
				"energy": 0.05223,
				"method": "rhf"
			},
			{
				"type": "unocc",
				"energy": 0.07607,
				"method": "rhf"
			}
		],
		"cosmo_sigma_profile": { 
			"-0.025": 0.0,
			"-0.024": 0.0,
			"-0.023": 0.0,
			"-0.022": 0.0,
			"-0.021": 0.0,
			"-0.02": 0.0,
			"-0.019": 0.243778179691,
			"-0.018": 1.24990535828,
			"-0.017": 0.928270963077,
			"-0.016": 0.538224726101,
			"-0.015": 0.675690274951,
			"-0.014": 0.704778063565,
			"-0.013": 0.710559165655,
			"-0.012": 0.888655969909,
			"-0.011": 1.11709542172,
			"-0.01": 0.555012390006,
			"-0.009": 3.3029645985,
			"-0.008": 4.22027944998,
			"-0.007": 5.95392236592,
			"-0.006": 4.16059884752,
			"-0.005": 4.53093250498,
			"-0.004": 6.48862847953,
			"-0.003": 10.7845325167,
			"-0.002": 16.5901829078,
			"-0.001": 18.2076518174,
			"0.0": 11.5475565799,
			"0.001": 11.2777302683,
			"0.002": 9.2680709491,
			"0.003": 24.784171497,
			"0.004": 10.3622696415,
			"0.005": 4.21104557387,
			"0.006": 3.57456251092,
			"0.007": 3.20515730683,
			"0.008": 4.250011228,
			"0.009": 2.46478365296,
			"0.01": 3.31354444394,
			"0.011": 5.49986931344,
			"0.012": 0.996109829948,
			"0.013": 0.0,
			"0.014": 0.0,
			"0.015": 0.0,
			"0.016": 0.0,
			"0.017": 0.0,
			"0.018": 0.0,
			"0.019": 0.0,
			"0.02": 0.0,
			"0.021": 0.0,
			"0.022": 0.0,
			"0.023": 0.0,
			"0.024": 0.0,
			"0.025": 0.0
		}
	}
}
