{
	 "smiles": "NC1=CC2=C(NC(=N2)C2=CC=CO2)C=C1", 
	 "Tm": 504.15, 
	 "num_atms": 24, 
	 "gaussian": { 
		 "optdone": 1, 
		 "sigma_profile": "yes", 
		 "theory": "DFT", 
		 "functional": "B3LYP", 
		 "basiset": "6-31G**", 
		 "properties": { 
			 "R2extent": 4309.654, 
			 "electric_dipole_moment_norm": 2.43888209432, 
			 "electric_quadrupole_moment_norm": 18.9153687363, 
			 "total_energy": -664.064641305, 
			 "HOMO_LUMO_gap": 0.14796, 
			 "cosmo_polarized_energy": -16.51, 
			 "cosmo_cavitation_energy": 28.94, 
			 "cosmo_dispersion_energy": -21.8, 
			 "cosmo_repulsion_energy": 1.68, 
			 "cosmo_total_nonelectrostatic_energy": 8.82, 
			 "SMD_solvation_energy": 3.4 
		},
		"coords": [
			{
				"x": 1.0706880252,
				"y": 2.7402355964,
				"z": -3.3374932094,
				"element": "N" 
			},
			{
				"x": 1.1838604552,
				"y": 1.6793686161,
				"z": -2.4226677137,
				"element": "C" 
			},
			{
				"x": 0.0873742947,
				"y": 1.2781173317,
				"z": -1.6548063815,
				"element": "C" 
			},
			{
				"x": 0.2309941425,
				"y": 0.1738306162,
				"z": -0.8051350712,
				"element": "C" 
			},
			{
				"x": 1.4699433331,
				"y": -0.5113040399,
				"z": -0.7303580082,
				"element": "C" 
			},
			{
				"x": 1.2563990137,
				"y": -1.5225429984,
				"z": 0.1925221667,
				"element": "N" 
			},
			{
				"x": -0.0507452031,
				"y": -1.4053555109,
				"z": 0.6150095399,
				"element": "C" 
			},
			{
				"x": -0.6951630455,
				"y": -0.404858355,
				"z": 0.0439504393,
				"element": "N" 
			},
			{
				"x": -0.6141611206,
				"y": -2.3106986778,
				"z": 1.5871967112,
				"element": "C" 
			},
			{
				"x": -1.8523149339,
				"y": -2.4130727809,
				"z": 2.1611784823,
				"element": "C" 
			},
			{
				"x": -1.7879207932,
				"y": -3.5256274395,
				"z": 3.0562314835,
				"element": "C" 
			},
			{
				"x": -0.5216049249,
				"y": -4.021061661,
				"z": 2.9657085847,
				"element": "C" 
			},
			{
				"x": 0.2117728723,
				"y": -3.293290496,
				"z": 2.0737717833,
				"element": "O" 
			},
			{
				"x": 2.5726938247,
				"y": -0.1203028257,
				"z": -1.4883456324,
				"element": "C" 
			},
			{
				"x": 2.4121745604,
				"y": 0.9751074855,
				"z": -2.3300783272,
				"element": "C" 
			},
			{
				"x": 0.3248050725,
				"y": 3.3892539328,
				"z": -3.1235972984,
				"element": "H" 
			},
			{
				"x": 1.9369720201,
				"y": 3.2339207634,
				"z": -3.5082834335,
				"element": "H" 
			},
			{
				"x": -0.8622117733,
				"y": 1.8019871884,
				"z": -1.7112081812,
				"element": "H" 
			},
			{
				"x": 1.9091214004,
				"y": -2.2225254528,
				"z": 0.507847051,
				"element": "H" 
			},
			{
				"x": -2.6923036564,
				"y": -1.7666104256,
				"z": 1.9576525006,
				"element": "H" 
			},
			{
				"x": -2.5810093072,
				"y": -3.9056891586,
				"z": 3.6838444009,
				"element": "H" 
			},
			{
				"x": -0.0051883803,
				"y": -4.8409461253,
				"z": 3.4397246158,
				"element": "H" 
			},
			{
				"x": 3.5241127779,
				"y": -0.6408954771,
				"z": -1.4334838983,
				"element": "H" 
			},
			{
				"x": 3.247811346,
				"y": 1.3008598939,
				"z": -2.9440806041,
				"element": "H" 
			}
		],
		 "valence_orbital": [ 
			{
				"type": "occ",
				"energy": -0.28368,
				"method": "rhf"
			},
			{
				"type": "occ",
				"energy": -0.26427,
				"method": "rhf"
			},
			{
				"type": "occ",
				"energy": -0.24786,
				"method": "rhf"
			},
			{
				"type": "occ",
				"energy": -0.20353,
				"method": "rhf"
			},
			{
				"type": "occ",
				"energy": -0.18303,
				"method": "rhf"
			},
			{
				"type": "unocc",
				"energy": -0.03507,
				"method": "rhf"
			},
			{
				"type": "unocc",
				"energy": 0.02207,
				"method": "rhf"
			},
			{
				"type": "unocc",
				"energy": 0.0426,
				"method": "rhf"
			},
			{
				"type": "unocc",
				"energy": 0.05411,
				"method": "rhf"
			},
			{
				"type": "unocc",
				"energy": 0.08704,
				"method": "rhf"
			}
		],
		"cosmo_sigma_profile": { 
			"-0.025": 0.0,
			"-0.024": 0.0,
			"-0.023": 0.0,
			"-0.022": 0.0,
			"-0.021": 0.0,
			"-0.02": 0.0,
			"-0.019": 0.0,
			"-0.018": 0.0,
			"-0.017": 0.00665534159374,
			"-0.016": 0.65345442177,
			"-0.015": 0.771457632174,
			"-0.014": 1.04982695438,
			"-0.013": 0.795279274282,
			"-0.012": 2.16705573173,
			"-0.011": 3.90753643173,
			"-0.01": 3.69746177201,
			"-0.009": 5.99497214993,
			"-0.008": 6.8557508331,
			"-0.007": 10.2163909903,
			"-0.006": 12.0506882936,
			"-0.005": 12.3728683654,
			"-0.004": 11.1619152699,
			"-0.003": 10.9445689647,
			"-0.002": 9.13018625111,
			"-0.001": 11.2208101589,
			"0.0": 10.9896001636,
			"0.001": 14.8382426859,
			"0.002": 17.4389048869,
			"0.003": 17.6476454654,
			"0.004": 17.9657874503,
			"0.005": 13.7373481616,
			"0.006": 13.6154884008,
			"0.007": 5.31628045788,
			"0.008": 2.64498908206,
			"0.009": 1.93526967315,
			"0.01": 2.21778805634,
			"0.011": 2.06693014019,
			"0.012": 2.46404482854,
			"0.013": 1.43669760305,
			"0.014": 1.53053883231,
			"0.015": 1.92342511791,
			"0.016": 1.02089044878,
			"0.017": 0.601393854295,
			"0.018": 0.0481359655404,
			"0.019": 0.0,
			"0.02": 0.0,
			"0.021": 0.0,
			"0.022": 0.0,
			"0.023": 0.0,
			"0.024": 0.0,
			"0.025": 0.0
		}
	}
}
