{
	 "smiles": "NC(=O)NCC1=CC=CC=C1", 
	 "Tm": 421.15, 
	 "num_atms": 21, 
	 "gaussian": { 
		 "optdone": 1, 
		 "sigma_profile": "yes", 
		 "theory": "DFT", 
		 "functional": "B3LYP", 
		 "basiset": "6-31G**", 
		 "properties": { 
			 "R2extent": 2253.4883, 
			 "electric_dipole_moment_norm": 3.92310166323, 
			 "electric_quadrupole_moment_norm": 15.7854701067, 
			 "total_energy": -495.631736932, 
			 "HOMO_LUMO_gap": 0.22537, 
			 "cosmo_polarized_energy": -14.01, 
			 "cosmo_cavitation_energy": 24.73, 
			 "cosmo_dispersion_energy": -17.94, 
			 "cosmo_repulsion_energy": 1.47, 
			 "cosmo_total_nonelectrostatic_energy": 8.25, 
			 "SMD_solvation_energy": 4.84 
		},
		"coords": [
			{
				"x": 1.7652256327,
				"y": 0.6803874599,
				"z": 2.2892492648,
				"element": "N" 
			},
			{
				"x": 1.8026143238,
				"y": -0.7020527154,
				"z": 2.2043291953,
				"element": "C" 
			},
			{
				"x": 1.8925995999,
				"y": -1.4298255379,
				"z": 3.1842393622,
				"element": "O" 
			},
			{
				"x": 1.7561214135,
				"y": -1.2117752341,
				"z": 0.914571216,
				"element": "N" 
			},
			{
				"x": 2.0645409318,
				"y": -0.4488154327,
				"z": -0.2884565502,
				"element": "C" 
			},
			{
				"x": 0.9259889025,
				"y": 0.4331457782,
				"z": -0.7878197595,
				"element": "C" 
			},
			{
				"x": -0.4114647186,
				"y": 0.0384496219,
				"z": -0.6520583696,
				"element": "C" 
			},
			{
				"x": -1.4395497558,
				"y": 0.8341344975,
				"z": -1.1586845843,
				"element": "C" 
			},
			{
				"x": -1.1453209855,
				"y": 2.0355862151,
				"z": -1.8078066989,
				"element": "C" 
			},
			{
				"x": 0.1837995841,
				"y": 2.4399753565,
				"z": -1.9419645146,
				"element": "C" 
			},
			{
				"x": 1.2112367993,
				"y": 1.6446150386,
				"z": -1.4307212027,
				"element": "C" 
			},
			{
				"x": 1.6056810838,
				"y": 1.004030458,
				"z": 3.23230844,
				"element": "H" 
			},
			{
				"x": 1.2750919234,
				"y": 1.1952418769,
				"z": 1.5697455842,
				"element": "H" 
			},
			{
				"x": 1.9554579149,
				"y": -2.2011345834,
				"z": 0.9054393717,
				"element": "H" 
			},
			{
				"x": 2.3152306625,
				"y": -1.1776575841,
				"z": -1.067903882,
				"element": "H" 
			},
			{
				"x": 2.959688374,
				"y": 0.1711042692,
				"z": -0.1416335115,
				"element": "H" 
			},
			{
				"x": -0.6371046152,
				"y": -0.8902174959,
				"z": -0.1364724489,
				"element": "H" 
			},
			{
				"x": -2.4722280211,
				"y": 0.5163197702,
				"z": -1.0452102469,
				"element": "H" 
			},
			{
				"x": -1.9467231094,
				"y": 2.6548959542,
				"z": -2.2001716501,
				"element": "H" 
			},
			{
				"x": 0.4218561777,
				"y": 3.3771745366,
				"z": -2.4370385246,
				"element": "H" 
			},
			{
				"x": 2.2452578816,
				"y": 1.9669177508,
				"z": -1.5322404905,
				"element": "H" 
			}
		],
		 "valence_orbital": [ 
			{
				"type": "occ",
				"energy": -0.2669,
				"method": "rhf"
			},
			{
				"type": "occ",
				"energy": -0.25922,
				"method": "rhf"
			},
			{
				"type": "occ",
				"energy": -0.25707,
				"method": "rhf"
			},
			{
				"type": "occ",
				"energy": -0.25198,
				"method": "rhf"
			},
			{
				"type": "occ",
				"energy": -0.23849,
				"method": "rhf"
			},
			{
				"type": "unocc",
				"energy": -0.01312,
				"method": "rhf"
			},
			{
				"type": "unocc",
				"energy": -0.01056,
				"method": "rhf"
			},
			{
				"type": "unocc",
				"energy": 0.05942,
				"method": "rhf"
			},
			{
				"type": "unocc",
				"energy": 0.08043,
				"method": "rhf"
			},
			{
				"type": "unocc",
				"energy": 0.09202,
				"method": "rhf"
			}
		],
		"cosmo_sigma_profile": { 
			"-0.025": 0.0,
			"-0.024": 0.0,
			"-0.023": 0.0,
			"-0.022": 0.0,
			"-0.021": 0.0,
			"-0.02": 0.0,
			"-0.019": 0.0,
			"-0.018": 0.0,
			"-0.017": 0.0,
			"-0.016": 0.0,
			"-0.015": 0.0,
			"-0.014": 0.142823770551,
			"-0.013": 1.71519547597,
			"-0.012": 2.27604659222,
			"-0.011": 2.4777507859,
			"-0.01": 3.01673091873,
			"-0.009": 2.95510634687,
			"-0.008": 2.8552254787,
			"-0.007": 3.4085797427,
			"-0.006": 8.46484895451,
			"-0.005": 15.6792122501,
			"-0.004": 16.9057969716,
			"-0.003": 18.6819706842,
			"-0.002": 12.3292397816,
			"-0.001": 13.2575734645,
			"0.0": 10.7898915047,
			"0.001": 9.79611763587,
			"0.002": 10.8297195468,
			"0.003": 9.27666871521,
			"0.004": 11.156956941,
			"0.005": 9.33863752416,
			"0.006": 6.95891575788,
			"0.007": 2.09206940227,
			"0.008": 1.84144413143,
			"0.009": 1.86050774133,
			"0.01": 2.05080242489,
			"0.011": 1.56881295881,
			"0.012": 1.43589252824,
			"0.013": 1.55723540246,
			"0.014": 4.99896015836,
			"0.015": 5.6261403423,
			"0.016": 0.288426006269,
			"0.017": 0.0,
			"0.018": 0.0,
			"0.019": 0.0,
			"0.02": 0.0,
			"0.021": 0.0,
			"0.022": 0.0,
			"0.023": 0.0,
			"0.024": 0.0,
			"0.025": 0.0
		}
	}
}
