{
	 "smiles": "OC(=O)CCS(=O)(=O)C1=CC2=C(CCC2)C=C1", 
	 "Tm": 398.15, 
	 "num_atms": 31, 
	 "gaussian": { 
		 "optdone": 1, 
		 "sigma_profile": "yes", 
		 "theory": "DFT", 
		 "functional": "B3LYP", 
		 "basiset": "6-31G**", 
		 "properties": { 
			 "R2extent": 4698.8218, 
			 "electric_dipole_moment_norm": 5.69141839439, 
			 "electric_quadrupole_moment_norm": 21.9521603324, 
			 "total_energy": -1164.76078811, 
			 "HOMO_LUMO_gap": 0.21745, 
			 "cosmo_polarized_energy": -20.04, 
			 "cosmo_cavitation_energy": 35.13, 
			 "cosmo_dispersion_energy": -24.76, 
			 "cosmo_repulsion_energy": 1.91, 
			 "cosmo_total_nonelectrostatic_energy": 12.27, 
			 "SMD_solvation_energy": 5.38 
		},
		"coords": [
			{
				"x": -0.9873575491,
				"y": 2.5899234718,
				"z": 1.1970354559,
				"element": "O" 
			},
			{
				"x": -2.0882570989,
				"y": 2.3629494384,
				"z": 0.4385215332,
				"element": "C" 
			},
			{
				"x": -3.042892809,
				"y": 1.7392629462,
				"z": 0.8416461182,
				"element": "O" 
			},
			{
				"x": -1.9899693717,
				"y": 3.0272582916,
				"z": -0.9215081246,
				"element": "C" 
			},
			{
				"x": -0.6310511224,
				"y": 2.9385248543,
				"z": -1.6178449226,
				"element": "C" 
			},
			{
				"x": -0.3034462974,
				"y": 1.3469362247,
				"z": -2.4580318256,
				"element": "S" 
			},
			{
				"x": 0.9620683116,
				"y": 1.5373271801,
				"z": -3.1864295732,
				"element": "O" 
			},
			{
				"x": -1.5409988653,
				"y": 0.9644570823,
				"z": -3.1607764148,
				"element": "O" 
			},
			{
				"x": -0.0133421973,
				"y": 0.1480165168,
				"z": -1.1507044091,
				"element": "C" 
			},
			{
				"x": 1.2789740086,
				"y": 0.0228322045,
				"z": -0.6267872749,
				"element": "C" 
			},
			{
				"x": 1.489083877,
				"y": -0.9086273131,
				"z": 0.3845197742,
				"element": "C" 
			},
			{
				"x": 0.4283019125,
				"y": -1.7027187901,
				"z": 0.8530342895,
				"element": "C" 
			},
			{
				"x": 0.9169267369,
				"y": -2.6495033249,
				"z": 1.9285446271,
				"element": "C" 
			},
			{
				"x": 2.2756191648,
				"y": -2.0351585357,
				"z": 2.3515019414,
				"element": "C" 
			},
			{
				"x": 2.7744496611,
				"y": -1.2631351865,
				"z": 1.1034301933,
				"element": "C" 
			},
			{
				"x": -0.8499145676,
				"y": -1.5769556314,
				"z": 0.3114140021,
				"element": "C" 
			},
			{
				"x": -1.0754286841,
				"y": -0.6420080398,
				"z": -0.7025972973,
				"element": "C" 
			},
			{
				"x": -1.1447379513,
				"y": 2.1386933621,
				"z": 2.0432776714,
				"element": "H" 
			},
			{
				"x": -2.2169658218,
				"y": 4.0894500341,
				"z": -0.7620504827,
				"element": "H" 
			},
			{
				"x": -2.7784652605,
				"y": 2.616408228,
				"z": -1.5547404328,
				"element": "H" 
			},
			{
				"x": 0.2037770802,
				"y": 3.1265181896,
				"z": -0.9402734837,
				"element": "H" 
			},
			{
				"x": -0.5737591362,
				"y": 3.6496655623,
				"z": -2.4471593257,
				"element": "H" 
			},
			{
				"x": 2.0862045822,
				"y": 0.6301346412,
				"z": -1.0242588409,
				"element": "H" 
			},
			{
				"x": 1.0551486487,
				"y": -3.6541507032,
				"z": 1.504622266,
				"element": "H" 
			},
			{
				"x": 0.2151873077,
				"y": -2.7540493333,
				"z": 2.7625170075,
				"element": "H" 
			},
			{
				"x": 2.112399772,
				"y": -1.3281406995,
				"z": 3.1726726072,
				"element": "H" 
			},
			{
				"x": 2.9903218437,
				"y": -2.784270976,
				"z": 2.7021563483,
				"element": "H" 
			},
			{
				"x": 3.383192074,
				"y": -0.3892655127,
				"z": 1.3569859955,
				"element": "H" 
			},
			{
				"x": 3.3954658244,
				"y": -1.9073172419,
				"z": 0.4654907422,
				"element": "H" 
			},
			{
				"x": -1.6692830925,
				"y": -2.1950511117,
				"z": 0.6676014749,
				"element": "H" 
			},
			{
				"x": -2.0567509803,
				"y": -0.526705828,
				"z": -1.14860964,
				"element": "H" 
			}
		],
		 "valence_orbital": [ 
			{
				"type": "occ",
				"energy": -0.2936,
				"method": "rhf"
			},
			{
				"type": "occ",
				"energy": -0.2844,
				"method": "rhf"
			},
			{
				"type": "occ",
				"energy": -0.28146,
				"method": "rhf"
			},
			{
				"type": "occ",
				"energy": -0.26533,
				"method": "rhf"
			},
			{
				"type": "occ",
				"energy": -0.25503,
				"method": "rhf"
			},
			{
				"type": "unocc",
				"energy": -0.03758,
				"method": "rhf"
			},
			{
				"type": "unocc",
				"energy": -0.01986,
				"method": "rhf"
			},
			{
				"type": "unocc",
				"energy": -0.00112,
				"method": "rhf"
			},
			{
				"type": "unocc",
				"energy": 0.06182,
				"method": "rhf"
			},
			{
				"type": "unocc",
				"energy": 0.06858,
				"method": "rhf"
			}
		],
		"cosmo_sigma_profile": { 
			"-0.025": 0.0,
			"-0.024": 0.0,
			"-0.023": 0.0,
			"-0.022": 0.0,
			"-0.021": 0.0,
			"-0.02": 0.0,
			"-0.019": 0.13608416277,
			"-0.018": 0.634465057659,
			"-0.017": 0.95090376965,
			"-0.016": 0.876260732707,
			"-0.015": 0.952062427846,
			"-0.014": 0.0428254250115,
			"-0.013": 0.601275227994,
			"-0.012": 1.16878744919,
			"-0.011": 0.958159596972,
			"-0.01": 0.220281173076,
			"-0.009": 3.08521172954,
			"-0.008": 7.66468627841,
			"-0.007": 8.96949713549,
			"-0.006": 11.8701272299,
			"-0.005": 13.8436141258,
			"-0.004": 22.6145306878,
			"-0.003": 26.0378192471,
			"-0.002": 28.2624025482,
			"-0.001": 22.6821007429,
			"0.0": 19.1008325239,
			"0.001": 14.0369126577,
			"0.002": 14.3924535127,
			"0.003": 14.2705094162,
			"0.004": 7.92455120377,
			"0.005": 5.50267748482,
			"0.006": 4.76054848696,
			"0.007": 4.27139819748,
			"0.008": 5.3963528652,
			"0.009": 4.44538198311,
			"0.01": 7.31525166926,
			"0.011": 11.1036031556,
			"0.012": 11.4874126792,
			"0.013": 1.47403275917,
			"0.014": 0.0,
			"0.015": 0.0,
			"0.016": 0.0,
			"0.017": 0.0,
			"0.018": 0.0,
			"0.019": 0.0,
			"0.02": 0.0,
			"0.021": 0.0,
			"0.022": 0.0,
			"0.023": 0.0,
			"0.024": 0.0,
			"0.025": 0.0
		}
	}
}
