{
	 "smiles": "OC(=O)C1=CC(=NO1)C1=CC(F)=CC=C1", 
	 "Tm": 463.15, 
	 "num_atms": 21, 
	 "gaussian": { 
		 "optdone": 1, 
		 "sigma_profile": "yes", 
		 "theory": "DFT", 
		 "functional": "B3LYP", 
		 "basiset": "6-31G**", 
		 "properties": { 
			 "R2extent": 5274.6537, 
			 "electric_dipole_moment_norm": 6.2752300428, 
			 "electric_quadrupole_moment_norm": 31.1522585035, 
			 "total_energy": -764.882955027, 
			 "HOMO_LUMO_gap": 0.18102, 
			 "cosmo_polarized_energy": -19.57, 
			 "cosmo_cavitation_energy": 27.81, 
			 "cosmo_dispersion_energy": -20.3, 
			 "cosmo_repulsion_energy": 1.54, 
			 "cosmo_total_nonelectrostatic_energy": 9.05, 
			 "SMD_solvation_energy": 6.63 
		},
		"coords": [
			{
				"x": 5.342691291,
				"y": -2.5703806423,
				"z": -0.1042257165,
				"element": "O" 
			},
			{
				"x": 5.2054048072,
				"y": -1.2406772713,
				"z": 0.1300113525,
				"element": "C" 
			},
			{
				"x": 6.1593342071,
				"y": -0.517824944,
				"z": 0.2483438921,
				"element": "O" 
			},
			{
				"x": 3.7969379337,
				"y": -0.7711552914,
				"z": 0.2527788732,
				"element": "C" 
			},
			{
				"x": 2.6167246692,
				"y": -1.4026097352,
				"z": 0.5196180143,
				"element": "C" 
			},
			{
				"x": 1.6563223447,
				"y": -0.3447373146,
				"z": 0.5463264035,
				"element": "C" 
			},
			{
				"x": 2.2422154477,
				"y": 0.8170049786,
				"z": 0.3076063574,
				"element": "N" 
			},
			{
				"x": 3.5860506753,
				"y": 0.5542093254,
				"z": 0.1289093162,
				"element": "O" 
			},
			{
				"x": 0.2055561519,
				"y": -0.4169658785,
				"z": 0.7931626984,
				"element": "C" 
			},
			{
				"x": -0.5588831496,
				"y": 0.7606810664,
				"z": 0.7965771622,
				"element": "C" 
			},
			{
				"x": -1.9223577315,
				"y": 0.6730632332,
				"z": 1.0303275783,
				"element": "C" 
			},
			{
				"x": -2.6536938027,
				"y": 1.804321783,
				"z": 1.0330440927,
				"element": "F" 
			},
			{
				"x": -2.5645208451,
				"y": -0.5403093435,
				"z": 1.2631552678,
				"element": "C" 
			},
			{
				"x": -1.7980339571,
				"y": -1.7048535072,
				"z": 1.2583595493,
				"element": "C" 
			},
			{
				"x": -0.4237242996,
				"y": -1.6488352622,
				"z": 1.0254694002,
				"element": "C" 
			},
			{
				"x": 4.4894346513,
				"y": -2.9708001622,
				"z": -0.3238000666,
				"element": "H" 
			},
			{
				"x": 2.4502226458,
				"y": -2.4523067316,
				"z": 0.7079874841,
				"element": "H" 
			},
			{
				"x": -0.0973414239,
				"y": 1.7250300196,
				"z": 0.6208397677,
				"element": "H" 
			},
			{
				"x": -3.6339519096,
				"y": -0.5563846358,
				"z": 1.4417273418,
				"element": "H" 
			},
			{
				"x": -2.2760134818,
				"y": -2.6628461214,
				"z": 1.4375214424,
				"element": "H" 
			},
			{
				"x": 0.1532257762,
				"y": -2.567623565,
				"z": 1.0254597891,
				"element": "H" 
			}
		],
		 "valence_orbital": [ 
			{
				"type": "occ",
				"energy": -0.32715,
				"method": "rhf"
			},
			{
				"type": "occ",
				"energy": -0.3009,
				"method": "rhf"
			},
			{
				"type": "occ",
				"energy": -0.29445,
				"method": "rhf"
			},
			{
				"type": "occ",
				"energy": -0.26748,
				"method": "rhf"
			},
			{
				"type": "occ",
				"energy": -0.25853,
				"method": "rhf"
			},
			{
				"type": "unocc",
				"energy": -0.07751,
				"method": "rhf"
			},
			{
				"type": "unocc",
				"energy": -0.05089,
				"method": "rhf"
			},
			{
				"type": "unocc",
				"energy": -0.01824,
				"method": "rhf"
			},
			{
				"type": "unocc",
				"energy": 0.03304,
				"method": "rhf"
			},
			{
				"type": "unocc",
				"energy": 0.04624,
				"method": "rhf"
			}
		],
		"cosmo_sigma_profile": { 
			"-0.025": 0.0,
			"-0.024": 0.0,
			"-0.023": 0.0,
			"-0.022": 0.0,
			"-0.021": 0.0,
			"-0.02": 0.249086772286,
			"-0.019": 1.52404756429,
			"-0.018": 1.42977107219,
			"-0.017": 1.06456795218,
			"-0.016": 0.878940986811,
			"-0.015": 0.810968410571,
			"-0.014": 1.57275769577,
			"-0.013": 1.52777035621,
			"-0.012": 1.67606638275,
			"-0.011": 2.13446387123,
			"-0.01": 2.58448776675,
			"-0.009": 2.88774016419,
			"-0.008": 3.83529505611,
			"-0.007": 8.46871639705,
			"-0.006": 8.79968143727,
			"-0.005": 10.1727118412,
			"-0.004": 9.10684731446,
			"-0.003": 10.7953974756,
			"-0.002": 11.1790179582,
			"-0.001": 14.5290926653,
			"0.0": 16.9543939372,
			"0.001": 17.2678016519,
			"0.002": 18.5602646019,
			"0.003": 15.6273520488,
			"0.004": 15.0456410263,
			"0.005": 5.61776590872,
			"0.006": 7.4428288012,
			"0.007": 6.20177865335,
			"0.008": 6.62466284054,
			"0.009": 6.42566338404,
			"0.01": 7.07774014184,
			"0.011": 5.88145132161,
			"0.012": 0.900227502237,
			"0.013": 0.0,
			"0.014": 0.0,
			"0.015": 0.0,
			"0.016": 0.0,
			"0.017": 0.0,
			"0.018": 0.0,
			"0.019": 0.0,
			"0.02": 0.0,
			"0.021": 0.0,
			"0.022": 0.0,
			"0.023": 0.0,
			"0.024": 0.0,
			"0.025": 0.0
		}
	}
}
