{
	 "smiles": "OC(=O)CCC1=CC(Br)=CS1", 
	 "Tm": 350.15, 
	 "num_atms": 18, 
	 "gaussian": { 
		 "optdone": 1, 
		 "sigma_profile": "yes", 
		 "theory": "DFT", 
		 "functional": "B3LYP", 
		 "basiset": "6-31G**", 
		 "properties": { 
			 "R2extent": 4805.4349, 
			 "electric_dipole_moment_norm": 2.68967753643, 
			 "electric_quadrupole_moment_norm": 6.70278270347, 
			 "total_energy": -3391.00628474, 
			 "HOMO_LUMO_gap": 0.20904, 
			 "cosmo_polarized_energy": -10.16, 
			 "cosmo_cavitation_energy": 26.49, 
			 "cosmo_dispersion_energy": -19.96, 
			 "cosmo_repulsion_energy": 1.6, 
			 "cosmo_total_nonelectrostatic_energy": 8.13, 
			 "SMD_solvation_energy": 4.19 
		},
		"coords": [
			{
				"x": 1.49400252,
				"y": -0.6616811442,
				"z": 2.2731317642,
				"element": "O" 
			},
			{
				"x": 0.7391243788,
				"y": -0.9127916218,
				"z": 1.1797961897,
				"element": "C" 
			},
			{
				"x": -0.3758805789,
				"y": -1.3840652188,
				"z": 1.2494008551,
				"element": "O" 
			},
			{
				"x": 1.4785751323,
				"y": -0.5719805422,
				"z": -0.0979474714,
				"element": "C" 
			},
			{
				"x": 0.5430755419,
				"y": -0.4689063459,
				"z": -1.3156574291,
				"element": "C" 
			},
			{
				"x": -0.3152515635,
				"y": 0.7683346949,
				"z": -1.3194224279,
				"element": "C" 
			},
			{
				"x": -1.5268012354,
				"y": 0.966506586,
				"z": -0.712950315,
				"element": "C" 
			},
			{
				"x": -2.0206167555,
				"y": 2.2922508837,
				"z": -0.9043953319,
				"element": "C" 
			},
			{
				"x": -3.6837474618,
				"y": 2.8739732243,
				"z": -0.19288939,
				"element": "Br" 
			},
			{
				"x": -1.2024558391,
				"y": 3.0978875976,
				"z": -1.6409260705,
				"element": "C" 
			},
			{
				"x": 0.2175159093,
				"y": 2.2276019096,
				"z": -2.1267729448,
				"element": "S" 
			},
			{
				"x": 0.9622532017,
				"y": -0.9337363121,
				"z": 3.0403625904,
				"element": "H" 
			},
			{
				"x": 2.2171687172,
				"y": -1.3692324133,
				"z": -0.2563001027,
				"element": "H" 
			},
			{
				"x": 2.0491902049,
				"y": 0.3490051689,
				"z": 0.0553996681,
				"element": "H" 
			},
			{
				"x": -0.1086441336,
				"y": -1.3474618667,
				"z": -1.3284957283,
				"element": "H" 
			},
			{
				"x": 1.1494447361,
				"y": -0.5039586446,
				"z": -2.2266512156,
				"element": "H" 
			},
			{
				"x": -2.0402489781,
				"y": 0.2023870869,
				"z": -0.1440395682,
				"element": "H" 
			},
			{
				"x": -1.3529037964,
				"y": 4.1272669574,
				"z": -1.9293430721,
				"element": "H" 
			}
		],
		 "valence_orbital": [ 
			{
				"type": "occ",
				"energy": -0.30924,
				"method": "rhf"
			},
			{
				"type": "occ",
				"energy": -0.28565,
				"method": "rhf"
			},
			{
				"type": "occ",
				"energy": -0.28373,
				"method": "rhf"
			},
			{
				"type": "occ",
				"energy": -0.24921,
				"method": "rhf"
			},
			{
				"type": "occ",
				"energy": -0.22957,
				"method": "rhf"
			},
			{
				"type": "unocc",
				"energy": -0.02053,
				"method": "rhf"
			},
			{
				"type": "unocc",
				"energy": -0.00118,
				"method": "rhf"
			},
			{
				"type": "unocc",
				"energy": 0.00337,
				"method": "rhf"
			},
			{
				"type": "unocc",
				"energy": 0.03076,
				"method": "rhf"
			},
			{
				"type": "unocc",
				"energy": 0.05444,
				"method": "rhf"
			}
		],
		"cosmo_sigma_profile": { 
			"-0.025": 0.0,
			"-0.024": 0.0,
			"-0.023": 0.0,
			"-0.022": 0.0,
			"-0.021": 0.0,
			"-0.02": 0.0,
			"-0.019": 0.00696341353737,
			"-0.018": 0.620605837349,
			"-0.017": 0.851283733132,
			"-0.016": 1.01447723727,
			"-0.015": 0.77012097749,
			"-0.014": 1.04617130337,
			"-0.013": 0.635112988177,
			"-0.012": 0.376767112494,
			"-0.011": 0.752812161463,
			"-0.01": 1.29352078471,
			"-0.009": 1.6839836947,
			"-0.008": 2.43810208055,
			"-0.007": 5.25326512653,
			"-0.006": 9.07064314447,
			"-0.005": 13.7845953242,
			"-0.004": 14.8545881353,
			"-0.003": 14.7253013581,
			"-0.002": 12.7849193593,
			"-0.001": 12.2119563737,
			"0.0": 12.6478634962,
			"0.001": 13.8776996596,
			"0.002": 18.6380553161,
			"0.003": 26.0434725347,
			"0.004": 23.3623240335,
			"0.005": 9.33281964009,
			"0.006": 1.82659466137,
			"0.007": 2.90239750042,
			"0.008": 2.29711614081,
			"0.009": 3.66897494976,
			"0.01": 2.23032871573,
			"0.011": 2.81698420429,
			"0.012": 2.3714954767,
			"0.013": 0.091453810095,
			"0.014": 0.0,
			"0.015": 0.0,
			"0.016": 0.0,
			"0.017": 0.0,
			"0.018": 0.0,
			"0.019": 0.0,
			"0.02": 0.0,
			"0.021": 0.0,
			"0.022": 0.0,
			"0.023": 0.0,
			"0.024": 0.0,
			"0.025": 0.0
		}
	}
}
