{
	 "smiles": "CNC(=O)CCC(F)(F)F", 
	 "Tm": 385.15, 
	 "num_atms": 18, 
	 "gaussian": { 
		 "optdone": 1, 
		 "sigma_profile": "yes", 
		 "theory": "DFT", 
		 "functional": "B3LYP", 
		 "basiset": "6-31G**", 
		 "properties": { 
			 "R2extent": 2123.2047, 
			 "electric_dipole_moment_norm": 4.19747414763, 
			 "electric_quadrupole_moment_norm": 12.2975761396, 
			 "total_energy": -624.876954476, 
			 "HOMO_LUMO_gap": 0.27429, 
			 "cosmo_polarized_energy": -11.84, 
			 "cosmo_cavitation_energy": 22.83, 
			 "cosmo_dispersion_energy": -15.94, 
			 "cosmo_repulsion_energy": 1.27, 
			 "cosmo_total_nonelectrostatic_energy": 8.16, 
			 "SMD_solvation_energy": 5.17 
		},
		"coords": [
			{
				"x": -1.1917260536,
				"y": -1.8009297101,
				"z": -0.6737838333,
				"element": "C" 
			},
			{
				"x": -1.0171321555,
				"y": -0.858850789,
				"z": -1.7676785897,
				"element": "N" 
			},
			{
				"x": -0.1217580641,
				"y": 0.1688234532,
				"z": -1.8570926238,
				"element": "C" 
			},
			{
				"x": -0.119634186,
				"y": 0.9322642686,
				"z": -2.8154689572,
				"element": "O" 
			},
			{
				"x": 0.919600701,
				"y": 0.2819600168,
				"z": -0.738577358,
				"element": "C" 
			},
			{
				"x": 1.4084415154,
				"y": 1.7235370384,
				"z": -0.5679813958,
				"element": "C" 
			},
			{
				"x": 0.4861770901,
				"y": 2.5413190678,
				"z": 0.3069215938,
				"element": "C" 
			},
			{
				"x": 0.4410194285,
				"y": 2.0507982123,
				"z": 1.5728853549,
				"element": "F" 
			},
			{
				"x": -0.784733498,
				"y": 2.5465142631,
				"z": -0.1525909961,
				"element": "F" 
			},
			{
				"x": 0.8958966079,
				"y": 3.8239190032,
				"z": 0.3916503441,
				"element": "F" 
			},
			{
				"x": -1.5604718906,
				"y": -1.3220788679,
				"z": 0.2420488065,
				"element": "H" 
			},
			{
				"x": -0.2617886525,
				"y": -2.3298520831,
				"z": -0.4404115704,
				"element": "H" 
			},
			{
				"x": -1.9259270381,
				"y": -2.5492046637,
				"z": -0.9788149532,
				"element": "H" 
			},
			{
				"x": -1.6778819537,
				"y": -0.8793056555,
				"z": -2.5322216878,
				"element": "H" 
			},
			{
				"x": 0.5492095592,
				"y": -0.1102208165,
				"z": 0.212237975,
				"element": "H" 
			},
			{
				"x": 1.7657522099,
				"y": -0.3533399548,
				"z": -1.0282414877,
				"element": "H" 
			},
			{
				"x": 2.3972284087,
				"y": 1.7530573498,
				"z": -0.1027220984,
				"element": "H" 
			},
			{
				"x": 1.4641279712,
				"y": 2.2036898675,
				"z": -1.5476585228,
				"element": "H" 
			}
		],
		 "valence_orbital": [ 
			{
				"type": "occ",
				"energy": -0.37725,
				"method": "rhf"
			},
			{
				"type": "occ",
				"energy": -0.36972,
				"method": "rhf"
			},
			{
				"type": "occ",
				"energy": -0.34805,
				"method": "rhf"
			},
			{
				"type": "occ",
				"energy": -0.2546,
				"method": "rhf"
			},
			{
				"type": "occ",
				"energy": -0.25165,
				"method": "rhf"
			},
			{
				"type": "unocc",
				"energy": 0.02264,
				"method": "rhf"
			},
			{
				"type": "unocc",
				"energy": 0.07329,
				"method": "rhf"
			},
			{
				"type": "unocc",
				"energy": 0.09199,
				"method": "rhf"
			},
			{
				"type": "unocc",
				"energy": 0.10847,
				"method": "rhf"
			},
			{
				"type": "unocc",
				"energy": 0.13439,
				"method": "rhf"
			}
		],
		"cosmo_sigma_profile": { 
			"-0.025": 0.0,
			"-0.024": 0.0,
			"-0.023": 0.0,
			"-0.022": 0.0,
			"-0.021": 0.0,
			"-0.02": 0.0,
			"-0.019": 0.0,
			"-0.018": 0.0,
			"-0.017": 0.0,
			"-0.016": 0.0,
			"-0.015": 0.0,
			"-0.014": 0.133307371134,
			"-0.013": 1.24749999269,
			"-0.012": 1.19511749844,
			"-0.011": 0.828740428083,
			"-0.01": 1.19009239782,
			"-0.009": 1.35920052712,
			"-0.008": 1.21855912263,
			"-0.007": 4.35599516486,
			"-0.006": 10.405357713,
			"-0.005": 18.718863237,
			"-0.004": 14.3813120826,
			"-0.003": 15.1554708659,
			"-0.002": 13.4860599399,
			"-0.001": 6.87114472161,
			"0.0": 6.76964922795,
			"0.001": 6.47589425493,
			"0.002": 12.086814609,
			"0.003": 30.6517208233,
			"0.004": 10.4750301312,
			"0.005": 2.07640532289,
			"0.006": 2.32430248862,
			"0.007": 1.45403886006,
			"0.008": 2.04370792331,
			"0.009": 1.29046441082,
			"0.01": 1.17541257205,
			"0.011": 1.88951777425,
			"0.012": 1.58156536214,
			"0.013": 2.70532802947,
			"0.014": 5.16805930425,
			"0.015": 0.769311000933,
			"0.016": 0.0,
			"0.017": 0.0,
			"0.018": 0.0,
			"0.019": 0.0,
			"0.02": 0.0,
			"0.021": 0.0,
			"0.022": 0.0,
			"0.023": 0.0,
			"0.024": 0.0,
			"0.025": 0.0
		}
	}
}
