{
	 "smiles": "CC(C)N1C(S)=NN=C1N(C)C", 
	 "Tm": 401.15, 
	 "num_atms": 26, 
	 "gaussian": { 
		 "optdone": 1, 
		 "sigma_profile": "yes", 
		 "theory": "DFT", 
		 "functional": "B3LYP", 
		 "basiset": "6-31G**", 
		 "properties": { 
			 "R2extent": 2589.2782, 
			 "electric_dipole_moment_norm": 4.47571793235, 
			 "electric_quadrupole_moment_norm": 10.1674071129, 
			 "total_energy": -892.347174626, 
			 "HOMO_LUMO_gap": 0.22165, 
			 "cosmo_polarized_energy": -14.04, 
			 "cosmo_cavitation_energy": 29.39, 
			 "cosmo_dispersion_energy": -21.06, 
			 "cosmo_repulsion_energy": 1.64, 
			 "cosmo_total_nonelectrostatic_energy": 9.97, 
			 "SMD_solvation_energy": 2.59 
		},
		"coords": [
			{
				"x": 0.3079074947,
				"y": 2.4418812615,
				"z": -0.9051586272,
				"element": "C" 
			},
			{
				"x": -0.1314648075,
				"y": 0.9724531517,
				"z": -0.8939290314,
				"element": "C" 
			},
			{
				"x": -1.6220185189,
				"y": 0.7896912703,
				"z": -1.2080496944,
				"element": "C" 
			},
			{
				"x": 0.2403669474,
				"y": 0.3001303713,
				"z": 0.3667851719,
				"element": "N" 
			},
			{
				"x": -0.2390884149,
				"y": 0.4587063398,
				"z": 1.6464033146,
				"element": "C" 
			},
			{
				"x": -1.3414993712,
				"y": 1.7469517976,
				"z": 2.1622147174,
				"element": "S" 
			},
			{
				"x": 0.2431879644,
				"y": -0.4541578361,
				"z": 2.456360016,
				"element": "N" 
			},
			{
				"x": 1.0913937787,
				"y": -1.2528115024,
				"z": 1.7106515623,
				"element": "N" 
			},
			{
				"x": 1.080702291,
				"y": -0.7992372633,
				"z": 0.4810895712,
				"element": "C" 
			},
			{
				"x": 1.7668410224,
				"y": -1.3263124357,
				"z": -0.6194385341,
				"element": "N" 
			},
			{
				"x": 3.007712428,
				"y": -0.6097998137,
				"z": -0.9496185478,
				"element": "C" 
			},
			{
				"x": 1.9781426708,
				"y": -2.7750478189,
				"z": -0.5297609473,
				"element": "C" 
			},
			{
				"x": 1.3756974978,
				"y": 2.5364433527,
				"z": -0.6871999853,
				"element": "H" 
			},
			{
				"x": -0.240419413,
				"y": 3.0360151495,
				"z": -0.1683053463,
				"element": "H" 
			},
			{
				"x": 0.1196620552,
				"y": 2.8746971456,
				"z": -1.8925063541,
				"element": "H" 
			},
			{
				"x": 0.4380760098,
				"y": 0.4251910648,
				"z": -1.6499725794,
				"element": "H" 
			},
			{
				"x": -2.2612857528,
				"y": 1.3036498388,
				"z": -0.4848835662,
				"element": "H" 
			},
			{
				"x": -1.8378704583,
				"y": 1.1998220146,
				"z": -2.1994875573,
				"element": "H" 
			},
			{
				"x": -1.888987932,
				"y": -0.2706392805,
				"z": -1.2097168425,
				"element": "H" 
			},
			{
				"x": -1.3326754243,
				"y": 1.3139668651,
				"z": 3.4375951935,
				"element": "H" 
			},
			{
				"x": 3.7935544715,
				"y": -0.7658925626,
				"z": -0.1940185789,
				"element": "H" 
			},
			{
				"x": 2.8156100043,
				"y": 0.4629455996,
				"z": -1.0281728859,
				"element": "H" 
			},
			{
				"x": 3.3772904958,
				"y": -0.961652149,
				"z": -1.9176869626,
				"element": "H" 
			},
			{
				"x": 2.6933260854,
				"y": -3.0514505837,
				"z": 0.257726729,
				"element": "H" 
			},
			{
				"x": 1.0288818344,
				"y": -3.2695381876,
				"z": -0.3167523741,
				"element": "H" 
			},
			{
				"x": 2.3554570414,
				"y": -3.1313057896,
				"z": -1.4934678609,
				"element": "H" 
			}
		],
		 "valence_orbital": [ 
			{
				"type": "occ",
				"energy": -0.30006,
				"method": "rhf"
			},
			{
				"type": "occ",
				"energy": -0.28141,
				"method": "rhf"
			},
			{
				"type": "occ",
				"energy": -0.2582,
				"method": "rhf"
			},
			{
				"type": "occ",
				"energy": -0.24235,
				"method": "rhf"
			},
			{
				"type": "occ",
				"energy": -0.21103,
				"method": "rhf"
			},
			{
				"type": "unocc",
				"energy": 0.01062,
				"method": "rhf"
			},
			{
				"type": "unocc",
				"energy": 0.02611,
				"method": "rhf"
			},
			{
				"type": "unocc",
				"energy": 0.04977,
				"method": "rhf"
			},
			{
				"type": "unocc",
				"energy": 0.06291,
				"method": "rhf"
			},
			{
				"type": "unocc",
				"energy": 0.07513,
				"method": "rhf"
			}
		],
		"cosmo_sigma_profile": { 
			"-0.025": 0.0,
			"-0.024": 0.0,
			"-0.023": 0.0,
			"-0.022": 0.0,
			"-0.021": 0.0,
			"-0.02": 0.0,
			"-0.019": 0.0,
			"-0.018": 0.0,
			"-0.017": 0.0,
			"-0.016": 0.0,
			"-0.015": 0.0,
			"-0.014": 0.0,
			"-0.013": 0.0,
			"-0.012": 0.596334187442,
			"-0.011": 1.50128508963,
			"-0.01": 1.30138735545,
			"-0.009": 1.32955435916,
			"-0.008": 1.1777854134,
			"-0.007": 0.805634517002,
			"-0.006": 2.9189280636,
			"-0.005": 16.159769615,
			"-0.004": 24.3767657578,
			"-0.003": 27.3402723725,
			"-0.002": 32.7518391193,
			"-0.001": 33.0747108331,
			"0.0": 21.5628927928,
			"0.001": 11.1586160184,
			"0.002": 7.87990084712,
			"0.003": 7.09629419061,
			"0.004": 5.12639364036,
			"0.005": 5.63360429356,
			"0.006": 4.41494102838,
			"0.007": 3.84407208933,
			"0.008": 1.43519970603,
			"0.009": 2.28091404985,
			"0.01": 2.43380431157,
			"0.011": 1.83532991129,
			"0.012": 2.35842212122,
			"0.013": 2.73185898607,
			"0.014": 4.21515805902,
			"0.015": 2.43647961763,
			"0.016": 2.37772286198,
			"0.017": 0.786234490423,
			"0.018": 0.0,
			"0.019": 0.0,
			"0.02": 0.0,
			"0.021": 0.0,
			"0.022": 0.0,
			"0.023": 0.0,
			"0.024": 0.0,
			"0.025": 0.0
		}
	}
}
