{
	 "smiles": "CCC1(CCC(=O)NC1=O)C1=CC=C(N)C=C1", 
	 "Tm": 423.15, 
	 "num_atms": 33, 
	 "gaussian": { 
		 "optdone": 1, 
		 "sigma_profile": "yes", 
		 "theory": "DFT", 
		 "functional": "B3LYP", 
		 "basiset": "6-31G**", 
		 "properties": { 
			 "R2extent": 4541.9391, 
			 "electric_dipole_moment_norm": 3.55177658926, 
			 "electric_quadrupole_moment_norm": 21.2681723698, 
			 "total_energy": -765.014005664, 
			 "HOMO_LUMO_gap": 0.1735, 
			 "cosmo_polarized_energy": -17.38, 
			 "cosmo_cavitation_energy": 34.31, 
			 "cosmo_dispersion_energy": -24.72, 
			 "cosmo_repulsion_energy": 1.91, 
			 "cosmo_total_nonelectrostatic_energy": 11.51, 
			 "SMD_solvation_energy": 6.58 
		},
		"coords": [
			{
				"x": 2.0851910647,
				"y": 1.5719274872,
				"z": -2.4684200629,
				"element": "C" 
			},
			{
				"x": 0.8620269461,
				"y": 1.4443694517,
				"z": -1.5531065603,
				"element": "C" 
			},
			{
				"x": 0.7924243957,
				"y": 0.1927898923,
				"z": -0.6177084297,
				"element": "C" 
			},
			{
				"x": 0.8396459523,
				"y": -1.149659775,
				"z": -1.4074817086,
				"element": "C" 
			},
			{
				"x": 2.2376303026,
				"y": -1.7232072256,
				"z": -1.6673678301,
				"element": "C" 
			},
			{
				"x": 3.0448084009,
				"y": -1.8437626717,
				"z": -0.3963932366,
				"element": "C" 
			},
			{
				"x": 3.8779279934,
				"y": -2.6993899024,
				"z": -0.171103717,
				"element": "O" 
			},
			{
				"x": 2.8018488156,
				"y": -0.8189943491,
				"z": 0.5201601952,
				"element": "N" 
			},
			{
				"x": 1.9705205533,
				"y": 0.2933563236,
				"z": 0.3722052996,
				"element": "C" 
			},
			{
				"x": 2.1974586182,
				"y": 1.2873593719,
				"z": 1.0426991488,
				"element": "O" 
			},
			{
				"x": -0.5491840598,
				"y": 0.2956652656,
				"z": 0.1607344529,
				"element": "C" 
			},
			{
				"x": -1.7083184858,
				"y": -0.3129317594,
				"z": -0.3486904158,
				"element": "C" 
			},
			{
				"x": -2.9451943568,
				"y": -0.187972281,
				"z": 0.2778915931,
				"element": "C" 
			},
			{
				"x": -3.080216975,
				"y": 0.5625397897,
				"z": 1.455947454,
				"element": "C" 
			},
			{
				"x": -4.3245098053,
				"y": 0.7328318751,
				"z": 2.064090178,
				"element": "N" 
			},
			{
				"x": -1.9311972121,
				"y": 1.1870631527,
				"z": 1.9655156203,
				"element": "C" 
			},
			{
				"x": -0.700573917,
				"y": 1.0622222131,
				"z": 1.3273341056,
				"element": "C" 
			},
			{
				"x": 2.0542750555,
				"y": 2.5310857814,
				"z": -2.9951774659,
				"element": "H" 
			},
			{
				"x": 2.1195523247,
				"y": 0.7887640173,
				"z": -3.2325166546,
				"element": "H" 
			},
			{
				"x": 3.0236299718,
				"y": 1.5446636794,
				"z": -1.9039056492,
				"element": "H" 
			},
			{
				"x": 0.8075913522,
				"y": 2.3232981622,
				"z": -0.9045305543,
				"element": "H" 
			},
			{
				"x": -0.052278139,
				"y": 1.4424186408,
				"z": -2.1574217465,
				"element": "H" 
			},
			{
				"x": 0.2788845858,
				"y": -1.9028114702,
				"z": -0.8458596653,
				"element": "H" 
			},
			{
				"x": 0.3202239257,
				"y": -1.0244378877,
				"z": -2.3629204384,
				"element": "H" 
			},
			{
				"x": 2.8156441552,
				"y": -1.092532145,
				"z": -2.3525221249,
				"element": "H" 
			},
			{
				"x": 2.1795992313,
				"y": -2.7159922211,
				"z": -2.1197461696,
				"element": "H" 
			},
			{
				"x": 3.4715801266,
				"y": -0.746593997,
				"z": 1.2801814682,
				"element": "H" 
			},
			{
				"x": -1.6675829418,
				"y": -0.8993225252,
				"z": -1.2603444163,
				"element": "H" 
			},
			{
				"x": -3.8168264907,
				"y": -0.6746048303,
				"z": -0.1534248638,
				"element": "H" 
			},
			{
				"x": -5.000284088,
				"y": 0.0056414657,
				"z": 1.8745679327,
				"element": "H" 
			},
			{
				"x": -4.2937882625,
				"y": 0.9723906154,
				"z": 3.0454768938,
				"element": "H" 
			},
			{
				"x": -2.0036117211,
				"y": 1.7846232951,
				"z": 2.8713558634,
				"element": "H" 
			},
			{
				"x": 0.1576026833,
				"y": 1.5705025603,
				"z": 1.7485815041,
				"element": "H" 
			}
		],
		 "valence_orbital": [ 
			{
				"type": "occ",
				"energy": -0.2858,
				"method": "rhf"
			},
			{
				"type": "occ",
				"energy": -0.27278,
				"method": "rhf"
			},
			{
				"type": "occ",
				"energy": -0.25716,
				"method": "rhf"
			},
			{
				"type": "occ",
				"energy": -0.24617,
				"method": "rhf"
			},
			{
				"type": "occ",
				"energy": -0.20163,
				"method": "rhf"
			},
			{
				"type": "unocc",
				"energy": -0.02813,
				"method": "rhf"
			},
			{
				"type": "unocc",
				"energy": 0.00086,
				"method": "rhf"
			},
			{
				"type": "unocc",
				"energy": 0.01279,
				"method": "rhf"
			},
			{
				"type": "unocc",
				"energy": 0.03415,
				"method": "rhf"
			},
			{
				"type": "unocc",
				"energy": 0.07981,
				"method": "rhf"
			}
		],
		"cosmo_sigma_profile": { 
			"-0.025": 0.0,
			"-0.024": 0.0,
			"-0.023": 0.0,
			"-0.022": 0.0,
			"-0.021": 0.0,
			"-0.02": 0.0,
			"-0.019": 0.0,
			"-0.018": 0.0,
			"-0.017": 0.0,
			"-0.016": 0.0,
			"-0.015": 0.480600684403,
			"-0.014": 0.853816296334,
			"-0.013": 0.906752307977,
			"-0.012": 3.23732282067,
			"-0.011": 3.37506816547,
			"-0.01": 3.60037997766,
			"-0.009": 4.13992651872,
			"-0.008": 3.9612351125,
			"-0.007": 4.47732653504,
			"-0.006": 10.3943517615,
			"-0.005": 20.2913407439,
			"-0.004": 22.4782105754,
			"-0.003": 25.3651562333,
			"-0.002": 20.967679446,
			"-0.001": 18.8620981011,
			"0.0": 17.8294598928,
			"0.001": 15.6237555897,
			"0.002": 12.0798222943,
			"0.003": 8.71741314941,
			"0.004": 9.40657152903,
			"0.005": 9.93044237478,
			"0.006": 12.2782747883,
			"0.007": 9.38242303167,
			"0.008": 3.22087328089,
			"0.009": 3.34802155488,
			"0.01": 4.46534750832,
			"0.011": 6.90118624881,
			"0.012": 8.5644152666,
			"0.013": 3.28330922134,
			"0.014": 0.844313443872,
			"0.015": 0.212735281444,
			"0.016": 0.0,
			"0.017": 0.0,
			"0.018": 0.0,
			"0.019": 0.0,
			"0.02": 0.0,
			"0.021": 0.0,
			"0.022": 0.0,
			"0.023": 0.0,
			"0.024": 0.0,
			"0.025": 0.0
		}
	}
}
