{
	 "smiles": "NC1=C(C=NC2=C(C=NN12)C(O)=O)C(O)=O", 
	 "Tm": 529.15, 
	 "num_atms": 22, 
	 "gaussian": { 
		 "optdone": 1, 
		 "sigma_profile": "yes", 
		 "theory": "DFT", 
		 "functional": "B3LYP", 
		 "basiset": "6-31G**", 
		 "properties": { 
			 "R2extent": 4562.9174, 
			 "electric_dipole_moment_norm": 8.04621885608, 
			 "electric_quadrupole_moment_norm": 25.9613717642, 
			 "total_energy": -828.360373338, 
			 "HOMO_LUMO_gap": 0.17761, 
			 "cosmo_polarized_energy": -34.09, 
			 "cosmo_cavitation_energy": 27.94, 
			 "cosmo_dispersion_energy": -20.93, 
			 "cosmo_repulsion_energy": 1.6, 
			 "cosmo_total_nonelectrostatic_energy": 8.61, 
			 "SMD_solvation_energy": 5.06 
		},
		"coords": [
			{
				"x": -1.5324845609,
				"y": 0.5243908463,
				"z": -0.1198704489,
				"element": "N" 
			},
			{
				"x": -0.2772581237,
				"y": 0.0654125496,
				"z": 0.145194069,
				"element": "C" 
			},
			{
				"x": 0.0925542571,
				"y": -1.0563337857,
				"z": 0.8911468385,
				"element": "C" 
			},
			{
				"x": 1.4832642462,
				"y": -1.3237235273,
				"z": 1.0441669443,
				"element": "C" 
			},
			{
				"x": 2.4630761638,
				"y": -0.630085711,
				"z": 0.5009433766,
				"element": "N" 
			},
			{
				"x": 2.0955144468,
				"y": 0.4333925319,
				"z": -0.2366473353,
				"element": "C" 
			},
			{
				"x": 2.8036070362,
				"y": 1.4050623485,
				"z": -0.9652870389,
				"element": "C" 
			},
			{
				"x": 1.8029527375,
				"y": 2.2543062857,
				"z": -1.4913108992,
				"element": "C" 
			},
			{
				"x": 0.5628204885,
				"y": 1.8948200637,
				"z": -1.1630851603,
				"element": "N" 
			},
			{
				"x": 0.749745314,
				"y": 0.7748485319,
				"z": -0.4093980976,
				"element": "N" 
			},
			{
				"x": 4.2730602159,
				"y": 1.5285712053,
				"z": -1.0710897466,
				"element": "C" 
			},
			{
				"x": 4.7189104196,
				"y": 2.2776441555,
				"z": -2.1258582549,
				"element": "O" 
			},
			{
				"x": 5.0604060689,
				"y": 1.0445699276,
				"z": -0.2974860424,
				"element": "O" 
			},
			{
				"x": -0.8781605684,
				"y": -1.9649590342,
				"z": 1.5569463717,
				"element": "C" 
			},
			{
				"x": -2.1395898266,
				"y": -2.0082245474,
				"z": 1.0217765736,
				"element": "O" 
			},
			{
				"x": -0.6074505913,
				"y": -2.6377939388,
				"z": 2.5203332087,
				"element": "O" 
			},
			{
				"x": -1.5580984617,
				"y": 1.4283515091,
				"z": -0.5794234062,
				"element": "H" 
			},
			{
				"x": -2.2517493685,
				"y": 0.3338523794,
				"z": 0.5635085505,
				"element": "H" 
			},
			{
				"x": 1.7578338988,
				"y": -2.1816182517,
				"z": 1.6529959442,
				"element": "H" 
			},
			{
				"x": 1.9379180685,
				"y": 3.1515452242,
				"z": -2.0834773425,
				"element": "H" 
			},
			{
				"x": 4.0022610267,
				"y": 2.432401965,
				"z": -2.7562753639,
				"element": "H" 
			},
			{
				"x": -2.1310328874,
				"y": -1.6878307275,
				"z": 0.1062972596,
				"element": "H" 
			}
		],
		 "valence_orbital": [ 
			{
				"type": "occ",
				"energy": -0.30434,
				"method": "rhf"
			},
			{
				"type": "occ",
				"energy": -0.29141,
				"method": "rhf"
			},
			{
				"type": "occ",
				"energy": -0.28624,
				"method": "rhf"
			},
			{
				"type": "occ",
				"energy": -0.2697,
				"method": "rhf"
			},
			{
				"type": "occ",
				"energy": -0.24809,
				"method": "rhf"
			},
			{
				"type": "unocc",
				"energy": -0.07048,
				"method": "rhf"
			},
			{
				"type": "unocc",
				"energy": -0.06461,
				"method": "rhf"
			},
			{
				"type": "unocc",
				"energy": -0.01719,
				"method": "rhf"
			},
			{
				"type": "unocc",
				"energy": 0.01003,
				"method": "rhf"
			},
			{
				"type": "unocc",
				"energy": 0.04194,
				"method": "rhf"
			}
		],
		"cosmo_sigma_profile": { 
			"-0.025": 0.0,
			"-0.024": 0.0,
			"-0.023": 0.0,
			"-0.022": 0.0,
			"-0.021": 0.0,
			"-0.02": 0.0,
			"-0.019": 0.343127633967,
			"-0.018": 1.43305361123,
			"-0.017": 1.88850070381,
			"-0.016": 2.05503811889,
			"-0.015": 3.83440062117,
			"-0.014": 5.30904059282,
			"-0.013": 5.05787706055,
			"-0.012": 4.48773986852,
			"-0.011": 3.90812519759,
			"-0.01": 4.52094469113,
			"-0.009": 4.36134216434,
			"-0.008": 5.39291162191,
			"-0.007": 5.96895261116,
			"-0.006": 7.79973147576,
			"-0.005": 10.5351213043,
			"-0.004": 10.8734349125,
			"-0.003": 10.8501719585,
			"-0.002": 12.0864773708,
			"-0.001": 11.7533154128,
			"0.0": 10.4146564223,
			"0.001": 8.45333135974,
			"0.002": 6.67520032459,
			"0.003": 6.78837361916,
			"0.004": 5.83659538771,
			"0.005": 7.00945692837,
			"0.006": 6.10905823929,
			"0.007": 6.57651334105,
			"0.008": 6.98999424663,
			"0.009": 9.23584471979,
			"0.01": 8.81464729949,
			"0.011": 12.7211001389,
			"0.012": 9.07757267259,
			"0.013": 3.94937073181,
			"0.014": 1.67647816759,
			"0.015": 1.78540257919,
			"0.016": 0.476309630077,
			"0.017": 0.0,
			"0.018": 0.0,
			"0.019": 0.0,
			"0.02": 0.0,
			"0.021": 0.0,
			"0.022": 0.0,
			"0.023": 0.0,
			"0.024": 0.0,
			"0.025": 0.0
		}
	}
}
