{
	 "smiles": "CC(O)CC1(CC=C)C(=O)NC(=O)NC1=O", 
	 "Tm": 431.15, 
	 "num_atms": 30, 
	 "gaussian": { 
		 "optdone": 1, 
		 "sigma_profile": "yes", 
		 "theory": "DFT", 
		 "functional": "B3LYP", 
		 "basiset": "6-31G**", 
		 "properties": { 
			 "R2extent": 3490.2024, 
			 "electric_dipole_moment_norm": 1.95747804585, 
			 "electric_quadrupole_moment_norm": 11.2700040555, 
			 "total_energy": -799.929157319, 
			 "HOMO_LUMO_gap": 0.21808, 
			 "cosmo_polarized_energy": -19.8, 
			 "cosmo_cavitation_energy": 33.11, 
			 "cosmo_dispersion_energy": -22.53, 
			 "cosmo_repulsion_energy": 1.79, 
			 "cosmo_total_nonelectrostatic_energy": 12.37, 
			 "SMD_solvation_energy": 8.04 
		},
		"coords": [
			{
				"x": 0.4245046484,
				"y": -2.6574685112,
				"z": -2.7485557834,
				"element": "C" 
			},
			{
				"x": 0.8051714182,
				"y": -1.4357871001,
				"z": -1.9147614271,
				"element": "C" 
			},
			{
				"x": 0.9234191955,
				"y": -1.7681001312,
				"z": -0.5242929351,
				"element": "O" 
			},
			{
				"x": -0.2506267394,
				"y": -0.3256315845,
				"z": -2.0116027302,
				"element": "C" 
			},
			{
				"x": -0.1674278188,
				"y": 0.727930614,
				"z": -0.8798832842,
				"element": "C" 
			},
			{
				"x": -0.9149806556,
				"y": 2.055428492,
				"z": -1.2952988653,
				"element": "C" 
			},
			{
				"x": -2.3728597802,
				"y": 1.9071873187,
				"z": -1.6277358375,
				"element": "C" 
			},
			{
				"x": -3.34449833,
				"y": 2.6110618877,
				"z": -1.0473494323,
				"element": "C" 
			},
			{
				"x": 1.2838391452,
				"y": 1.1549196087,
				"z": -0.6577358657,
				"element": "C" 
			},
			{
				"x": 2.0428149304,
				"y": 1.3956707048,
				"z": -1.5799956858,
				"element": "O" 
			},
			{
				"x": 1.6868182729,
				"y": 1.3498559111,
				"z": 0.6547785204,
				"element": "N" 
			},
			{
				"x": 1.00269301,
				"y": 1.0015782707,
				"z": 1.8151741853,
				"element": "C" 
			},
			{
				"x": 1.4810951948,
				"y": 1.1406542481,
				"z": 2.9233510428,
				"element": "O" 
			},
			{
				"x": -0.268922036,
				"y": 0.4965323294,
				"z": 1.594978643,
				"element": "N" 
			},
			{
				"x": -0.8571941825,
				"y": 0.178623625,
				"z": 0.373365295,
				"element": "C" 
			},
			{
				"x": -1.9094520054,
				"y": -0.4259498582,
				"z": 0.3398187944,
				"element": "O" 
			},
			{
				"x": 1.2053761395,
				"y": -3.4251320848,
				"z": -2.6969879774,
				"element": "H" 
			},
			{
				"x": -0.5106340515,
				"y": -3.0920762398,
				"z": -2.3821416771,
				"element": "H" 
			},
			{
				"x": 0.2969303558,
				"y": -2.3889375365,
				"z": -3.8027724081,
				"element": "H" 
			},
			{
				"x": 1.762637645,
				"y": -1.0337378851,
				"z": -2.2729008118,
				"element": "H" 
			},
			{
				"x": 1.6276115358,
				"y": -2.4212824068,
				"z": -0.4261053702,
				"element": "H" 
			},
			{
				"x": -1.251390262,
				"y": -0.7627761939,
				"z": -1.9664132588,
				"element": "H" 
			},
			{
				"x": -0.136626872,
				"y": 0.1722873155,
				"z": -2.9787895509,
				"element": "H" 
			},
			{
				"x": -0.7970122564,
				"y": 2.7957894349,
				"z": -0.4950022727,
				"element": "H" 
			},
			{
				"x": -0.3651317965,
				"y": 2.4350465861,
				"z": -2.1658596807,
				"element": "H" 
			},
			{
				"x": -2.6260070728,
				"y": 1.2004614974,
				"z": -2.4155494287,
				"element": "H" 
			},
			{
				"x": -4.3833501235,
				"y": 2.4963181178,
				"z": -1.3408001166,
				"element": "H" 
			},
			{
				"x": -3.1377599589,
				"y": 3.3283211045,
				"z": -0.2563131866,
				"element": "H" 
			},
			{
				"x": 2.634864878,
				"y": 1.6788399466,
				"z": 0.7939861201,
				"element": "H" 
			},
			{
				"x": -0.7520024281,
				"y": 0.166772519,
				"z": 2.4220949856,
				"element": "H" 
			}
		],
		 "valence_orbital": [ 
			{
				"type": "occ",
				"energy": -0.29423,
				"method": "rhf"
			},
			{
				"type": "occ",
				"energy": -0.29279,
				"method": "rhf"
			},
			{
				"type": "occ",
				"energy": -0.27701,
				"method": "rhf"
			},
			{
				"type": "occ",
				"energy": -0.26145,
				"method": "rhf"
			},
			{
				"type": "occ",
				"energy": -0.25545,
				"method": "rhf"
			},
			{
				"type": "unocc",
				"energy": -0.03737,
				"method": "rhf"
			},
			{
				"type": "unocc",
				"energy": 0.00224,
				"method": "rhf"
			},
			{
				"type": "unocc",
				"energy": 0.01532,
				"method": "rhf"
			},
			{
				"type": "unocc",
				"energy": 0.05737,
				"method": "rhf"
			},
			{
				"type": "unocc",
				"energy": 0.06895,
				"method": "rhf"
			}
		],
		"cosmo_sigma_profile": { 
			"-0.025": 0.0,
			"-0.024": 0.0,
			"-0.023": 0.0,
			"-0.022": 0.0,
			"-0.021": 0.0,
			"-0.02": 0.0,
			"-0.019": 0.0,
			"-0.018": 0.0,
			"-0.017": 0.211729407237,
			"-0.016": 2.05775729243,
			"-0.015": 2.89396009552,
			"-0.014": 2.78912260443,
			"-0.013": 2.49512744452,
			"-0.012": 1.40817298759,
			"-0.011": 3.23158095926,
			"-0.01": 2.72156142586,
			"-0.009": 2.03054585368,
			"-0.008": 3.46417523645,
			"-0.007": 4.42642583806,
			"-0.006": 7.07712279896,
			"-0.005": 17.0768074069,
			"-0.004": 21.4784494898,
			"-0.003": 23.8732566784,
			"-0.002": 23.0290473979,
			"-0.001": 20.4904075102,
			"0.0": 17.7063683526,
			"0.001": 12.4691579428,
			"0.002": 9.23938324972,
			"0.003": 8.81127246322,
			"0.004": 7.599117371,
			"0.005": 6.96740238757,
			"0.006": 5.75506041985,
			"0.007": 4.53626501432,
			"0.008": 6.38688166211,
			"0.009": 5.76999444481,
			"0.01": 6.77841549128,
			"0.011": 13.2691498908,
			"0.012": 12.4624411018,
			"0.013": 0.457376043865,
			"0.014": 0.0,
			"0.015": 0.0,
			"0.016": 0.0,
			"0.017": 0.0,
			"0.018": 0.0,
			"0.019": 0.0,
			"0.02": 0.0,
			"0.021": 0.0,
			"0.022": 0.0,
			"0.023": 0.0,
			"0.024": 0.0,
			"0.025": 0.0
		}
	}
}
