{
	 "smiles": "CCCCCCCCCCNCCCCCCCCCC", 
	 "Tm": 313.15, 
	 "num_atms": 64, 
	 "gaussian": { 
		 "optdone": 1, 
		 "sigma_profile": "yes", 
		 "theory": "DFT", 
		 "functional": "B3LYP", 
		 "basiset": "6-31G**", 
		 "properties": { 
			 "R2extent": 16691.8694, 
			 "electric_dipole_moment_norm": 1.055609028, 
			 "electric_quadrupole_moment_norm": 5.51536446756, 
			 "total_energy": -842.842475842, 
			 "HOMO_LUMO_gap": 0.2709, 
			 "cosmo_polarized_energy": -4.32, 
			 "cosmo_cavitation_energy": 60.71, 
			 "cosmo_dispersion_energy": -40.3, 
			 "cosmo_repulsion_energy": 3.28, 
			 "cosmo_total_nonelectrostatic_energy": 23.68, 
			 "SMD_solvation_energy": 5.84 
		},
		"coords": [
			{
				"x": 7.5818471786,
				"y": -1.4596361973,
				"z": -1.5024515845,
				"element": "C" 
			},
			{
				"x": 6.5738148676,
				"y": -0.3788804694,
				"z": -1.9106988354,
				"element": "C" 
			},
			{
				"x": 5.6709062197,
				"y": -0.7685612921,
				"z": -3.0948442576,
				"element": "C" 
			},
			{
				"x": 4.7414040053,
				"y": -1.97346851,
				"z": -2.8658772095,
				"element": "C" 
			},
			{
				"x": 3.6844545539,
				"y": -1.7699006569,
				"z": -1.7710643332,
				"element": "C" 
			},
			{
				"x": 2.7252499682,
				"y": -2.9618257838,
				"z": -1.6376120467,
				"element": "C" 
			},
			{
				"x": 1.6001106603,
				"y": -2.7741408538,
				"z": -0.6061820484,
				"element": "C" 
			},
			{
				"x": 2.0809903327,
				"y": -2.6823955646,
				"z": 0.8515881293,
				"element": "C" 
			},
			{
				"x": 0.95610717,
				"y": -2.6810087811,
				"z": 1.9001294476,
				"element": "C" 
			},
			{
				"x": 0.0842432669,
				"y": -1.416970544,
				"z": 1.8960948188,
				"element": "C" 
			},
			{
				"x": -0.9175642647,
				"y": -1.4467074581,
				"z": 2.966185765,
				"element": "N" 
			},
			{
				"x": -2.1571790061,
				"y": -2.1828350497,
				"z": 2.6946362811,
				"element": "C" 
			},
			{
				"x": -3.3631779246,
				"y": -1.3254014964,
				"z": 2.2696197122,
				"element": "C" 
			},
			{
				"x": -3.2031752344,
				"y": -0.5906115085,
				"z": 0.931370935,
				"element": "C" 
			},
			{
				"x": -4.4544894188,
				"y": 0.1809406071,
				"z": 0.4748058412,
				"element": "C" 
			},
			{
				"x": -4.9171399665,
				"y": 1.3227387297,
				"z": 1.4002246897,
				"element": "C" 
			},
			{
				"x": -3.8976070914,
				"y": 2.4500709744,
				"z": 1.6451496929,
				"element": "C" 
			},
			{
				"x": -3.4995661445,
				"y": 3.2337835331,
				"z": 0.3858325907,
				"element": "C" 
			},
			{
				"x": -2.4873095844,
				"y": 4.3669432101,
				"z": 0.6348592066,
				"element": "C" 
			},
			{
				"x": -2.9703019744,
				"y": 5.5217218244,
				"z": 1.5306773133,
				"element": "C" 
			},
			{
				"x": -4.1600389359,
				"y": 6.3055487217,
				"z": 0.9641724805,
				"element": "C" 
			},
			{
				"x": 8.2170131924,
				"y": -1.746916268,
				"z": -2.3487475787,
				"element": "H" 
			},
			{
				"x": 8.2379777039,
				"y": -1.1042999838,
				"z": -0.7009492412,
				"element": "H" 
			},
			{
				"x": 7.0858885593,
				"y": -2.3663635972,
				"z": -1.1405471596,
				"element": "H" 
			},
			{
				"x": 5.9569717225,
				"y": -0.1087359614,
				"z": -1.044102434,
				"element": "H" 
			},
			{
				"x": 7.120492768,
				"y": 0.5334278948,
				"z": -2.1820780438,
				"element": "H" 
			},
			{
				"x": 5.0580945898,
				"y": 0.1006855667,
				"z": -3.3710142383,
				"element": "H" 
			},
			{
				"x": 6.3079699594,
				"y": -0.978019849,
				"z": -3.9653555332,
				"element": "H" 
			},
			{
				"x": 5.3371919572,
				"y": -2.8661962201,
				"z": -2.6324031283,
				"element": "H" 
			},
			{
				"x": 4.2296866459,
				"y": -2.1986778237,
				"z": -3.8116541016,
				"element": "H" 
			},
			{
				"x": 4.1790443805,
				"y": -1.5859817071,
				"z": -0.8095780242,
				"element": "H" 
			},
			{
				"x": 3.103817892,
				"y": -0.8622196535,
				"z": -1.9934997929,
				"element": "H" 
			},
			{
				"x": 2.2737247858,
				"y": -3.160643093,
				"z": -2.6193289399,
				"element": "H" 
			},
			{
				"x": 3.3016155583,
				"y": -3.8631543558,
				"z": -1.3827394405,
				"element": "H" 
			},
			{
				"x": 0.9029293728,
				"y": -3.6194918875,
				"z": -0.690139792,
				"element": "H" 
			},
			{
				"x": 1.0217292443,
				"y": -1.87846348,
				"z": -0.8694967757,
				"element": "H" 
			},
			{
				"x": 2.6983122093,
				"y": -1.7838788867,
				"z": 0.9869995902,
				"element": "H" 
			},
			{
				"x": 2.7437773011,
				"y": -3.5353588055,
				"z": 1.0527412939,
				"element": "H" 
			},
			{
				"x": 0.3203135723,
				"y": -3.5645563686,
				"z": 1.748904244,
				"element": "H" 
			},
			{
				"x": 1.3839587389,
				"y": -2.7827493249,
				"z": 2.9043894224,
				"element": "H" 
			},
			{
				"x": -0.3607499116,
				"y": -1.2720698971,
				"z": 0.8972248414,
				"element": "H" 
			},
			{
				"x": 0.7323658204,
				"y": -0.5490615645,
				"z": 2.0739218379,
				"element": "H" 
			},
			{
				"x": -1.1346374998,
				"y": -0.50445609,
				"z": 3.2737013987,
				"element": "H" 
			},
			{
				"x": -2.4437798088,
				"y": -2.7488983081,
				"z": 3.5928533457,
				"element": "H" 
			},
			{
				"x": -1.9494845528,
				"y": -2.9321042887,
				"z": 1.9201576876,
				"element": "H" 
			},
			{
				"x": -4.2479684178,
				"y": -1.976724216,
				"z": 2.2211188064,
				"element": "H" 
			},
			{
				"x": -3.5708183261,
				"y": -0.6027563921,
				"z": 3.0717313066,
				"element": "H" 
			},
			{
				"x": -2.3470362817,
				"y": 0.0932826877,
				"z": 0.9881324911,
				"element": "H" 
			},
			{
				"x": -2.948505592,
				"y": -1.3241548953,
				"z": 0.1543091274,
				"element": "H" 
			},
			{
				"x": -5.2857388595,
				"y": -0.5292680404,
				"z": 0.3662616182,
				"element": "H" 
			},
			{
				"x": -4.2719603845,
				"y": 0.5790987144,
				"z": -0.5312148603,
				"element": "H" 
			},
			{
				"x": -5.2166839793,
				"y": 0.9049276642,
				"z": 2.3697132554,
				"element": "H" 
			},
			{
				"x": -5.8295028567,
				"y": 1.7611566521,
				"z": 0.9730437447,
				"element": "H" 
			},
			{
				"x": -4.3279835198,
				"y": 3.1388360755,
				"z": 2.3828549442,
				"element": "H" 
			},
			{
				"x": -2.9919070762,
				"y": 2.0413778677,
				"z": 2.1152302076,
				"element": "H" 
			},
			{
				"x": -4.4045684236,
				"y": 3.6377600039,
				"z": -0.0882228552,
				"element": "H" 
			},
			{
				"x": -3.0622868502,
				"y": 2.5458351528,
				"z": -0.3485504427,
				"element": "H" 
			},
			{
				"x": -1.5782580827,
				"y": 3.9354253232,
				"z": 1.0765372922,
				"element": "H" 
			},
			{
				"x": -2.1826829882,
				"y": 4.7830513959,
				"z": -0.3354027322,
				"element": "H" 
			},
			{
				"x": -2.1298437391,
				"y": 6.2111166867,
				"z": 1.6826812262,
				"element": "H" 
			},
			{
				"x": -3.2252954481,
				"y": 5.1409573589,
				"z": 2.5278540826,
				"element": "H" 
			},
			{
				"x": -3.9322006628,
				"y": 6.7040396951,
				"z": -0.0315362108,
				"element": "H" 
			},
			{
				"x": -4.4173510635,
				"y": 7.1521466232,
				"z": 1.6092882622,
				"element": "H" 
			},
			{
				"x": -5.055110327,
				"y": 5.6814721603,
				"z": 0.8719947099,
				"element": "H" 
			}
		],
		 "valence_orbital": [ 
			{
				"type": "occ",
				"energy": -0.30355,
				"method": "rhf"
			},
			{
				"type": "occ",
				"energy": -0.30063,
				"method": "rhf"
			},
			{
				"type": "occ",
				"energy": -0.29704,
				"method": "rhf"
			},
			{
				"type": "occ",
				"energy": -0.29632,
				"method": "rhf"
			},
			{
				"type": "occ",
				"energy": -0.20384,
				"method": "rhf"
			},
			{
				"type": "unocc",
				"energy": 0.06706,
				"method": "rhf"
			},
			{
				"type": "unocc",
				"energy": 0.08228,
				"method": "rhf"
			},
			{
				"type": "unocc",
				"energy": 0.08755,
				"method": "rhf"
			},
			{
				"type": "unocc",
				"energy": 0.09342,
				"method": "rhf"
			},
			{
				"type": "unocc",
				"energy": 0.10089,
				"method": "rhf"
			}
		],
		"cosmo_sigma_profile": { 
			"-0.025": 0.0,
			"-0.024": 0.0,
			"-0.023": 0.0,
			"-0.022": 0.0,
			"-0.021": 0.0,
			"-0.02": 0.0,
			"-0.019": 0.0,
			"-0.018": 0.0,
			"-0.017": 0.0,
			"-0.016": 0.0,
			"-0.015": 0.0,
			"-0.014": 0.0,
			"-0.013": 0.0,
			"-0.012": 0.0,
			"-0.011": 0.0,
			"-0.01": 0.0,
			"-0.009": 0.30101436009,
			"-0.008": 0.900887790827,
			"-0.007": 1.19702018463,
			"-0.006": 1.68595684431,
			"-0.005": 1.92038597572,
			"-0.004": 2.38941357337,
			"-0.003": 8.67862493452,
			"-0.002": 61.1314231306,
			"-0.001": 106.063360822,
			"0.0": 120.127031222,
			"0.001": 102.34170849,
			"0.002": 41.6604605572,
			"0.003": 2.65374803711,
			"0.004": 1.67778852812,
			"0.005": 1.28136756841,
			"0.006": 1.09665460114,
			"0.007": 0.777582928392,
			"0.008": 0.69661050311,
			"0.009": 1.02055904667,
			"0.01": 0.465362398349,
			"0.011": 0.835090400058,
			"0.012": 0.961128426224,
			"0.013": 0.676477820871,
			"0.014": 0.437612739206,
			"0.015": 0.41117569334,
			"0.016": 0.102553551404,
			"0.017": 0.779848807283,
			"0.018": 0.417892357313,
			"0.019": 0.0,
			"0.02": 0.0,
			"0.021": 0.0,
			"0.022": 0.0,
			"0.023": 0.0,
			"0.024": 0.0,
			"0.025": 0.0
		}
	}
}
