{
	 "smiles": "CC(C(O)=O)C1=CC=C(C=C1)N(C)C", 
	 "Tm": 402.15, 
	 "num_atms": 29, 
	 "gaussian": { 
		 "optdone": 1, 
		 "sigma_profile": "yes", 
		 "theory": "DFT", 
		 "functional": "B3LYP", 
		 "basiset": "6-31G**", 
		 "properties": { 
			 "R2extent": 3925.4042, 
			 "electric_dipole_moment_norm": 6.92142673442, 
			 "electric_quadrupole_moment_norm": 17.7432481767, 
			 "total_energy": -633.419877427, 
			 "HOMO_LUMO_gap": 0.1894, 
			 "cosmo_polarized_energy": -13.55, 
			 "cosmo_cavitation_energy": 31.42, 
			 "cosmo_dispersion_energy": -22.43, 
			 "cosmo_repulsion_energy": 1.77, 
			 "cosmo_total_nonelectrostatic_energy": 10.75, 
			 "SMD_solvation_energy": 6.2 
		},
		"coords": [
			{
				"x": -2.5428246958,
				"y": 2.0873974347,
				"z": -1.7441035997,
				"element": "C" 
			},
			{
				"x": -1.934500112,
				"y": 0.6914374667,
				"z": -1.5405848711,
				"element": "C" 
			},
			{
				"x": -3.0434376394,
				"y": -0.3401927693,
				"z": -1.2473087773,
				"element": "C" 
			},
			{
				"x": -2.627625464,
				"y": -1.5001512839,
				"z": -0.6833617358,
				"element": "O" 
			},
			{
				"x": -4.2047835126,
				"y": -0.1812699547,
				"z": -1.5356746139,
				"element": "O" 
			},
			{
				"x": -0.8083823646,
				"y": 0.6572764661,
				"z": -0.5183507186,
				"element": "C" 
			},
			{
				"x": 0.5056101161,
				"y": 0.3386242282,
				"z": -0.885190108,
				"element": "C" 
			},
			{
				"x": 1.5492817649,
				"y": 0.3265246064,
				"z": 0.0364321835,
				"element": "C" 
			},
			{
				"x": 1.3196925498,
				"y": 0.6292878713,
				"z": 1.3976424944,
				"element": "C" 
			},
			{
				"x": -0.0064619927,
				"y": 0.9589039127,
				"z": 1.7692197493,
				"element": "C" 
			},
			{
				"x": -1.0329469702,
				"y": 0.9670986596,
				"z": 0.8333591606,
				"element": "C" 
			},
			{
				"x": 2.3438487374,
				"y": 0.5941673254,
				"z": 2.3314642101,
				"element": "N" 
			},
			{
				"x": 2.1075284915,
				"y": 1.0978137054,
				"z": 3.6742790551,
				"element": "C" 
			},
			{
				"x": 3.7160520355,
				"y": 0.4333227187,
				"z": 1.8814000709,
				"element": "C" 
			},
			{
				"x": -1.7756766323,
				"y": 2.7881757643,
				"z": -2.0845771599,
				"element": "H" 
			},
			{
				"x": -3.347878071,
				"y": 2.0453557205,
				"z": -2.4802475085,
				"element": "H" 
			},
			{
				"x": -2.9655156229,
				"y": 2.4710257039,
				"z": -0.8108824162,
				"element": "H" 
			},
			{
				"x": -1.511187611,
				"y": 0.3633960501,
				"z": -2.5018651886,
				"element": "H" 
			},
			{
				"x": -1.6897497182,
				"y": -1.4108569132,
				"z": -0.4458105384,
				"element": "H" 
			},
			{
				"x": 0.726945576,
				"y": 0.1035100961,
				"z": -1.9242015644,
				"element": "H" 
			},
			{
				"x": 2.5451315425,
				"y": 0.0822438034,
				"z": -0.3116874916,
				"element": "H" 
			},
			{
				"x": -0.2405251106,
				"y": 1.2106947845,
				"z": 2.7960888019,
				"element": "H" 
			},
			{
				"x": -2.0361293846,
				"y": 1.2223789689,
				"z": 1.1668204134,
				"element": "H" 
			},
			{
				"x": 3.0149854406,
				"y": 0.9740919523,
				"z": 4.2669410677,
				"element": "H" 
			},
			{
				"x": 1.8309822635,
				"y": 2.1633268956,
				"z": 3.68903262,
				"element": "H" 
			},
			{
				"x": 1.3102806475,
				"y": 0.5349843833,
				"z": 4.1735375495,
				"element": "H" 
			},
			{
				"x": 3.84598923,
				"y": -0.5108350019,
				"z": 1.3396347462,
				"element": "H" 
			},
			{
				"x": 4.0489624941,
				"y": 1.2504693767,
				"z": 1.2227628954,
				"element": "H" 
			},
			{
				"x": 4.3763340125,
				"y": 0.4056980283,
				"z": 2.749331274,
				"element": "H" 
			}
		],
		 "valence_orbital": [ 
			{
				"type": "occ",
				"energy": -0.30113,
				"method": "rhf"
			},
			{
				"type": "occ",
				"energy": -0.29411,
				"method": "rhf"
			},
			{
				"type": "occ",
				"energy": -0.25702,
				"method": "rhf"
			},
			{
				"type": "occ",
				"energy": -0.25594,
				"method": "rhf"
			},
			{
				"type": "occ",
				"energy": -0.19888,
				"method": "rhf"
			},
			{
				"type": "unocc",
				"energy": -0.00948,
				"method": "rhf"
			},
			{
				"type": "unocc",
				"energy": 0.0023,
				"method": "rhf"
			},
			{
				"type": "unocc",
				"energy": 0.0215,
				"method": "rhf"
			},
			{
				"type": "unocc",
				"energy": 0.07749,
				"method": "rhf"
			},
			{
				"type": "unocc",
				"energy": 0.09327,
				"method": "rhf"
			}
		],
		"cosmo_sigma_profile": { 
			"-0.025": 0.0,
			"-0.024": 0.0,
			"-0.023": 0.0,
			"-0.022": 0.0,
			"-0.021": 0.0,
			"-0.02": 0.0,
			"-0.019": 0.0,
			"-0.018": 0.0,
			"-0.017": 0.0,
			"-0.016": 0.0,
			"-0.015": 0.0,
			"-0.014": 0.284557379931,
			"-0.013": 0.3177562601,
			"-0.012": 0.699891854739,
			"-0.011": 0.67851144591,
			"-0.01": 1.11587082457,
			"-0.009": 1.09887014045,
			"-0.008": 1.07459496307,
			"-0.007": 5.07681944975,
			"-0.006": 11.834589065,
			"-0.005": 18.4731965677,
			"-0.004": 21.1431018138,
			"-0.003": 26.392915972,
			"-0.002": 29.0633143075,
			"-0.001": 25.3366496408,
			"0.0": 15.3873518988,
			"0.001": 13.6866226265,
			"0.002": 9.45250606485,
			"0.003": 8.50819891321,
			"0.004": 8.69850316261,
			"0.005": 11.0847300057,
			"0.006": 8.34279421967,
			"0.007": 4.64867935432,
			"0.008": 2.99554217526,
			"0.009": 3.34190600844,
			"0.01": 4.53839618416,
			"0.011": 4.96152100609,
			"0.012": 6.13039284451,
			"0.013": 2.386457584,
			"0.014": 0.364227329684,
			"0.015": 0.0,
			"0.016": 0.0,
			"0.017": 0.0,
			"0.018": 0.0,
			"0.019": 0.0,
			"0.02": 0.0,
			"0.021": 0.0,
			"0.022": 0.0,
			"0.023": 0.0,
			"0.024": 0.0,
			"0.025": 0.0
		}
	}
}
