{
	 "smiles": "CSC1=NN=C(S)S1", 
	 "Tm": 409.65, 
	 "num_atms": 12, 
	 "gaussian": { 
		 "optdone": 1, 
		 "sigma_profile": "yes", 
		 "theory": "DFT", 
		 "functional": "B3LYP", 
		 "basiset": "6-31G**", 
		 "properties": { 
			 "R2extent": 2740.1559, 
			 "electric_dipole_moment_norm": 2.29202404874, 
			 "electric_quadrupole_moment_norm": 13.9922709361, 
			 "total_energy": -1420.74783403, 
			 "HOMO_LUMO_gap": 0.18903, 
			 "cosmo_polarized_energy": -10.47, 
			 "cosmo_cavitation_energy": 21.57, 
			 "cosmo_dispersion_energy": -17.67, 
			 "cosmo_repulsion_energy": 1.32, 
			 "cosmo_total_nonelectrostatic_energy": 5.22, 
			 "SMD_solvation_energy": 1.38 
		},
		"coords": [
			{
				"x": 2.3920513008,
				"y": -1.0731945574,
				"z": 1.3470717876,
				"element": "C" 
			},
			{
				"x": 0.7282095851,
				"y": -0.7583644606,
				"z": 2.0371998246,
				"element": "S" 
			},
			{
				"x": 0.3377089396,
				"y": 0.7256033157,
				"z": 1.1799795214,
				"element": "C" 
			},
			{
				"x": 1.1142489402,
				"y": 1.321582793,
				"z": 0.320609433,
				"element": "N" 
			},
			{
				"x": 0.5654559436,
				"y": 2.4646725976,
				"z": -0.2025694744,
				"element": "N" 
			},
			{
				"x": -0.6171533693,
				"y": 2.7232499034,
				"z": 0.2633061226,
				"element": "C" 
			},
			{
				"x": -1.5112325654,
				"y": 4.1504770148,
				"z": -0.2749477802,
				"element": "S" 
			},
			{
				"x": -1.2049510677,
				"y": 1.5444031723,
				"z": 1.4403860375,
				"element": "S" 
			},
			{
				"x": 3.0627711843,
				"y": -0.248107501,
				"z": 1.5862301982,
				"element": "H" 
			},
			{
				"x": 2.7355739443,
				"y": -1.9935837414,
				"z": 1.8229398975,
				"element": "H" 
			},
			{
				"x": 2.3348130993,
				"y": -1.2021946437,
				"z": 0.2663753661,
				"element": "H" 
			},
			{
				"x": -2.6000959348,
				"y": 3.9312561074,
				"z": 0.4869190663,
				"element": "H" 
			}
		],
		 "valence_orbital": [ 
			{
				"type": "occ",
				"energy": -0.3116,
				"method": "rhf"
			},
			{
				"type": "occ",
				"energy": -0.3095,
				"method": "rhf"
			},
			{
				"type": "occ",
				"energy": -0.27451,
				"method": "rhf"
			},
			{
				"type": "occ",
				"energy": -0.27397,
				"method": "rhf"
			},
			{
				"type": "occ",
				"energy": -0.23005,
				"method": "rhf"
			},
			{
				"type": "unocc",
				"energy": -0.04102,
				"method": "rhf"
			},
			{
				"type": "unocc",
				"energy": -0.03499,
				"method": "rhf"
			},
			{
				"type": "unocc",
				"energy": 0.00985,
				"method": "rhf"
			},
			{
				"type": "unocc",
				"energy": 0.01172,
				"method": "rhf"
			},
			{
				"type": "unocc",
				"energy": 0.02266,
				"method": "rhf"
			}
		],
		"cosmo_sigma_profile": { 
			"-0.025": 0.0,
			"-0.024": 0.0,
			"-0.023": 0.0,
			"-0.022": 0.0,
			"-0.021": 0.0,
			"-0.02": 0.0,
			"-0.019": 0.0,
			"-0.018": 0.0,
			"-0.017": 0.0,
			"-0.016": 0.0,
			"-0.015": 0.0,
			"-0.014": 0.0,
			"-0.013": 1.95097993971,
			"-0.012": 2.7846964327,
			"-0.011": 2.01664285192,
			"-0.01": 2.05088838532,
			"-0.009": 0.875631743874,
			"-0.008": 2.87446014093,
			"-0.007": 4.88599342812,
			"-0.006": 7.11804580798,
			"-0.005": 8.21493401489,
			"-0.004": 9.46359311582,
			"-0.003": 12.4031772078,
			"-0.002": 15.7158057715,
			"-0.001": 15.0823097562,
			"0.0": 14.820078331,
			"0.001": 14.5983766505,
			"0.002": 13.7084588656,
			"0.003": 9.95049290631,
			"0.004": 9.16222338334,
			"0.005": 7.60451941549,
			"0.006": 6.64921883612,
			"0.007": 2.9318638229,
			"0.008": 2.33005985518,
			"0.009": 2.61897894065,
			"0.01": 2.51292281691,
			"0.011": 3.22458821267,
			"0.012": 2.65539330682,
			"0.013": 1.36047905115,
			"0.014": 0.498900681649,
			"0.015": 0.0,
			"0.016": 0.0,
			"0.017": 0.0,
			"0.018": 0.0,
			"0.019": 0.0,
			"0.02": 0.0,
			"0.021": 0.0,
			"0.022": 0.0,
			"0.023": 0.0,
			"0.024": 0.0,
			"0.025": 0.0
		}
	}
}
