{
	 "smiles": "COC1=CC=C(CC(N)=NO)C=C1", 
	 "Tm": 383.15, 
	 "num_atms": 25, 
	 "gaussian": { 
		 "optdone": 1, 
		 "sigma_profile": "yes", 
		 "theory": "DFT", 
		 "functional": "B3LYP", 
		 "basiset": "6-31G**", 
		 "properties": { 
			 "R2extent": 4047.9101, 
			 "electric_dipole_moment_norm": 2.00403427865, 
			 "electric_quadrupole_moment_norm": 8.19357689779, 
			 "total_energy": -610.07608774, 
			 "HOMO_LUMO_gap": 0.20371, 
			 "cosmo_polarized_energy": -13.32, 
			 "cosmo_cavitation_energy": 28.93, 
			 "cosmo_dispersion_energy": -20.9, 
			 "cosmo_repulsion_energy": 1.68, 
			 "cosmo_total_nonelectrostatic_energy": 9.72, 
			 "SMD_solvation_energy": 5.43 
		},
		"coords": [
			{
				"x": 4.1862407975,
				"y": -0.0853186297,
				"z": -0.0575855166,
				"element": "C" 
			},
			{
				"x": 3.0026207751,
				"y": 0.5880742115,
				"z": -0.4529040165,
				"element": "O" 
			},
			{
				"x": 1.8537817811,
				"y": -0.1416194423,
				"z": -0.5729193598,
				"element": "C" 
			},
			{
				"x": 0.7165465237,
				"y": 0.5723833243,
				"z": -0.9727547234,
				"element": "C" 
			},
			{
				"x": -0.5010501089,
				"y": -0.0839232925,
				"z": -1.1235596561,
				"element": "C" 
			},
			{
				"x": -0.620349015,
				"y": -1.4603854472,
				"z": -0.8833543361,
				"element": "C" 
			},
			{
				"x": -1.9499865846,
				"y": -2.1814942126,
				"z": -1.0336535232,
				"element": "C" 
			},
			{
				"x": -2.4762028023,
				"y": -2.6799506736,
				"z": 0.2960730951,
				"element": "C" 
			},
			{
				"x": -3.1046221226,
				"y": -1.7275624709,
				"z": 1.0960987007,
				"element": "N" 
			},
			{
				"x": -2.4224501708,
				"y": -3.888345185,
				"z": 0.7332945412,
				"element": "N" 
			},
			{
				"x": -1.8322513745,
				"y": -4.7637628792,
				"z": -0.2262037364,
				"element": "O" 
			},
			{
				"x": 0.5237156843,
				"y": -2.1600891492,
				"z": -0.4829645169,
				"element": "C" 
			},
			{
				"x": 1.753339756,
				"y": -1.5176350493,
				"z": -0.327899904,
				"element": "C" 
			},
			{
				"x": 4.969851576,
				"y": 0.6735171913,
				"z": -0.0279177076,
				"element": "H" 
			},
			{
				"x": 4.4686882825,
				"y": -0.8663504371,
				"z": -0.7755430169,
				"element": "H" 
			},
			{
				"x": 4.0843715481,
				"y": -0.5363120002,
				"z": 0.9382154279,
				"element": "H" 
			},
			{
				"x": 0.8118467912,
				"y": 1.6366222862,
				"z": -1.1624567248,
				"element": "H" 
			},
			{
				"x": -1.3720015685,
				"y": 0.4829576216,
				"z": -1.4448509688,
				"element": "H" 
			},
			{
				"x": -2.695422176,
				"y": -1.5037667591,
				"z": -1.462334972,
				"element": "H" 
			},
			{
				"x": -1.8483640176,
				"y": -3.0386829479,
				"z": -1.7020824838,
				"element": "H" 
			},
			{
				"x": -2.6351891252,
				"y": -0.8290614339,
				"z": 1.0907388119,
				"element": "H" 
			},
			{
				"x": -3.2704417046,
				"y": -2.0602279529,
				"z": 2.0392896362,
				"element": "H" 
			},
			{
				"x": -1.9178362649,
				"y": -5.6152261785,
				"z": 0.2199812319,
				"element": "H" 
			},
			{
				"x": 0.4477867376,
				"y": -3.2269859503,
				"z": -0.2909211432,
				"element": "H" 
			},
			{
				"x": 2.6178767823,
				"y": -2.0938545436,
				"z": -0.0196851386,
				"element": "H" 
			}
		],
		 "valence_orbital": [ 
			{
				"type": "occ",
				"energy": -0.3067,
				"method": "rhf"
			},
			{
				"type": "occ",
				"energy": -0.26398,
				"method": "rhf"
			},
			{
				"type": "occ",
				"energy": -0.25001,
				"method": "rhf"
			},
			{
				"type": "occ",
				"energy": -0.21349,
				"method": "rhf"
			},
			{
				"type": "occ",
				"energy": -0.20682,
				"method": "rhf"
			},
			{
				"type": "unocc",
				"energy": -0.00311,
				"method": "rhf"
			},
			{
				"type": "unocc",
				"energy": 0.00931,
				"method": "rhf"
			},
			{
				"type": "unocc",
				"energy": 0.04019,
				"method": "rhf"
			},
			{
				"type": "unocc",
				"energy": 0.08026,
				"method": "rhf"
			},
			{
				"type": "unocc",
				"energy": 0.0903,
				"method": "rhf"
			}
		],
		"cosmo_sigma_profile": { 
			"-0.025": 0.0,
			"-0.024": 0.0,
			"-0.023": 0.0,
			"-0.022": 0.0,
			"-0.021": 0.0,
			"-0.02": 0.0,
			"-0.019": 0.0,
			"-0.018": 0.0,
			"-0.017": 0.234299376131,
			"-0.016": 0.675312740162,
			"-0.015": 0.980100082177,
			"-0.014": 0.862717944447,
			"-0.013": 1.23743417966,
			"-0.012": 1.51089862208,
			"-0.011": 2.18453616413,
			"-0.01": 2.97475576656,
			"-0.009": 3.49871454362,
			"-0.008": 2.50018733408,
			"-0.007": 3.19015728175,
			"-0.006": 11.5845421252,
			"-0.005": 19.3891911562,
			"-0.004": 17.9338514534,
			"-0.003": 19.0985012868,
			"-0.002": 14.1821755789,
			"-0.001": 12.850679418,
			"0.0": 11.4450749968,
			"0.001": 9.57436104722,
			"0.002": 11.6741682968,
			"0.003": 11.5667495948,
			"0.004": 14.2177109848,
			"0.005": 14.6554085534,
			"0.006": 11.6994153274,
			"0.007": 6.71040368507,
			"0.008": 4.36776246423,
			"0.009": 5.32799749577,
			"0.01": 4.60524439537,
			"0.011": 2.5463210708,
			"0.012": 1.60523631088,
			"0.013": 1.90779960508,
			"0.014": 1.23530326523,
			"0.015": 0.223899552167,
			"0.016": 0.0,
			"0.017": 0.0,
			"0.018": 0.0,
			"0.019": 0.0,
			"0.02": 0.0,
			"0.021": 0.0,
			"0.022": 0.0,
			"0.023": 0.0,
			"0.024": 0.0,
			"0.025": 0.0
		}
	}
}
