{
	 "smiles": "CN1C=CC(=N1)C1=CC(=CC=C1)C(O)=O", 
	 "Tm": 441.15, 
	 "num_atms": 25, 
	 "gaussian": { 
		 "optdone": 1, 
		 "sigma_profile": "yes", 
		 "theory": "DFT", 
		 "functional": "B3LYP", 
		 "basiset": "6-31G**", 
		 "properties": { 
			 "R2extent": 4027.8707, 
			 "electric_dipole_moment_norm": 7.67759161261, 
			 "electric_quadrupole_moment_norm": 18.785500124, 
			 "total_energy": -685.144000137, 
			 "HOMO_LUMO_gap": 0.18332, 
			 "cosmo_polarized_energy": -17.37, 
			 "cosmo_cavitation_energy": 29.91, 
			 "cosmo_dispersion_energy": -21.92, 
			 "cosmo_repulsion_energy": 1.7, 
			 "cosmo_total_nonelectrostatic_energy": 9.69, 
			 "SMD_solvation_energy": 5.87 
		},
		"coords": [
			{
				"x": 1.7600580897,
				"y": -3.4572212416,
				"z": -2.0754230615,
				"element": "C" 
			},
			{
				"x": 0.6680979268,
				"y": -2.8719069523,
				"z": -1.320482021,
				"element": "N" 
			},
			{
				"x": -0.451150111,
				"y": -3.4849879421,
				"z": -0.849505809,
				"element": "C" 
			},
			{
				"x": -1.1895098114,
				"y": -2.5215012474,
				"z": -0.1942935208,
				"element": "C" 
			},
			{
				"x": -0.4261503371,
				"y": -1.3321317962,
				"z": -0.3215972589,
				"element": "C" 
			},
			{
				"x": 0.70230655,
				"y": -1.5640729302,
				"z": -1.0092671339,
				"element": "N" 
			},
			{
				"x": -0.7241985856,
				"y": 0.0189867628,
				"z": 0.1797785899,
				"element": "C" 
			},
			{
				"x": 0.12612057,
				"y": 1.0904267387,
				"z": -0.1360950342,
				"element": "C" 
			},
			{
				"x": -0.1385213644,
				"y": 2.3823698334,
				"z": 0.3266860064,
				"element": "C" 
			},
			{
				"x": -1.2832683171,
				"y": 2.6230514548,
				"z": 1.1002966422,
				"element": "C" 
			},
			{
				"x": -2.1288040378,
				"y": 1.5668750858,
				"z": 1.4254068229,
				"element": "C" 
			},
			{
				"x": -1.8519224637,
				"y": 0.2757106142,
				"z": 0.9735582708,
				"element": "C" 
			},
			{
				"x": 0.7408233727,
				"y": 3.5551251838,
				"z": 0.005785445,
				"element": "C" 
			},
			{
				"x": 2.0061375565,
				"y": 3.2784869295,
				"z": -0.4075887244,
				"element": "O" 
			},
			{
				"x": 0.3767544565,
				"y": 4.7041264366,
				"z": 0.103221709,
				"element": "O" 
			},
			{
				"x": 1.85910422,
				"y": -2.9567629856,
				"z": -3.0421234548,
				"element": "H" 
			},
			{
				"x": 2.6981692071,
				"y": -3.3532846519,
				"z": -1.523853387,
				"element": "H" 
			},
			{
				"x": 1.5508845003,
				"y": -4.5159036861,
				"z": -2.2361612098,
				"element": "H" 
			},
			{
				"x": -0.632125023,
				"y": -4.5370201033,
				"z": -1.0154115951,
				"element": "H" 
			},
			{
				"x": -2.1415884315,
				"y": -2.6608138779,
				"z": 0.2942041434,
				"element": "H" 
			},
			{
				"x": 0.9729561032,
				"y": 0.8773783168,
				"z": -0.7822864785,
				"element": "H" 
			},
			{
				"x": -1.4832175183,
				"y": 3.6358859879,
				"z": 1.4317502855,
				"element": "H" 
			},
			{
				"x": -3.0104289414,
				"y": 1.7457047859,
				"z": 2.0337485613,
				"element": "H" 
			},
			{
				"x": -2.5203802513,
				"y": -0.5373238447,
				"z": 1.2395965476,
				"element": "H" 
			},
			{
				"x": 2.1904526406,
				"y": 2.3344031291,
				"z": -0.3052443351,
				"element": "H" 
			}
		],
		 "valence_orbital": [ 
			{
				"type": "occ",
				"energy": -0.29352,
				"method": "rhf"
			},
			{
				"type": "occ",
				"energy": -0.2682,
				"method": "rhf"
			},
			{
				"type": "occ",
				"energy": -0.26129,
				"method": "rhf"
			},
			{
				"type": "occ",
				"energy": -0.25569,
				"method": "rhf"
			},
			{
				"type": "occ",
				"energy": -0.22736,
				"method": "rhf"
			},
			{
				"type": "unocc",
				"energy": -0.04404,
				"method": "rhf"
			},
			{
				"type": "unocc",
				"energy": -0.03215,
				"method": "rhf"
			},
			{
				"type": "unocc",
				"energy": 0.01863,
				"method": "rhf"
			},
			{
				"type": "unocc",
				"energy": 0.04511,
				"method": "rhf"
			},
			{
				"type": "unocc",
				"energy": 0.07156,
				"method": "rhf"
			}
		],
		"cosmo_sigma_profile": { 
			"-0.025": 0.0,
			"-0.024": 0.0,
			"-0.023": 0.0,
			"-0.022": 0.0,
			"-0.021": 0.0,
			"-0.02": 0.0,
			"-0.019": 0.0700303074893,
			"-0.018": 0.81062031196,
			"-0.017": 0.629437852302,
			"-0.016": 1.55517965071,
			"-0.015": 0.318495910088,
			"-0.014": 0.607953381194,
			"-0.013": 0.942485486737,
			"-0.012": 1.16981786006,
			"-0.011": 0.928129091618,
			"-0.01": 1.29804000621,
			"-0.009": 3.53709956313,
			"-0.008": 6.03847298225,
			"-0.007": 8.8954980678,
			"-0.006": 14.4658061744,
			"-0.005": 14.9546488014,
			"-0.004": 17.8246284828,
			"-0.003": 18.7496086587,
			"-0.002": 13.0047595206,
			"-0.001": 10.4538424497,
			"0.0": 10.2447938617,
			"0.001": 11.5986429484,
			"0.002": 17.5268728399,
			"0.003": 23.6367485445,
			"0.004": 13.4795367827,
			"0.005": 8.5746639283,
			"0.006": 5.55820720862,
			"0.007": 3.8563596796,
			"0.008": 5.07490915408,
			"0.009": 3.76580117533,
			"0.01": 6.1257553595,
			"0.011": 6.11668260241,
			"0.012": 6.00675513824,
			"0.013": 2.05076498225,
			"0.014": 0.0911350264577,
			"0.015": 0.0,
			"0.016": 0.0,
			"0.017": 0.0,
			"0.018": 0.0,
			"0.019": 0.0,
			"0.02": 0.0,
			"0.021": 0.0,
			"0.022": 0.0,
			"0.023": 0.0,
			"0.024": 0.0,
			"0.025": 0.0
		}
	}
}
