{
	 "smiles": "CC(=O)NC1=CC=C(OC(=O)C2=CC=CC=C2OC(C)=O)C=C1", 
	 "Tm": 448.15, 
	 "num_atms": 38, 
	 "gaussian": { 
		 "optdone": 1, 
		 "sigma_profile": "yes", 
		 "theory": "DFT", 
		 "functional": "B3LYP", 
		 "basiset": "6-31G**", 
		 "properties": { 
			 "R2extent": 10378.5451, 
			 "electric_dipole_moment_norm": 3.96895670926, 
			 "electric_quadrupole_moment_norm": 35.7742183857, 
			 "total_energy": -1087.75708802, 
			 "HOMO_LUMO_gap": 0.16539, 
			 "cosmo_polarized_energy": -21.63, 
			 "cosmo_cavitation_energy": 44.27, 
			 "cosmo_dispersion_energy": -30.27, 
			 "cosmo_repulsion_energy": 2.3, 
			 "cosmo_total_nonelectrostatic_energy": 16.3, 
			 "SMD_solvation_energy": 10.11 
		},
		"coords": [
			{
				"x": 2.3919060774,
				"y": -2.9208548436,
				"z": -5.9242162463,
				"element": "C" 
			},
			{
				"x": 2.3752438994,
				"y": -2.2956813547,
				"z": -4.5360136951,
				"element": "C" 
			},
			{
				"x": 3.3738744564,
				"y": -2.2794051436,
				"z": -3.8309381695,
				"element": "O" 
			},
			{
				"x": 1.1607592653,
				"y": -1.7557786416,
				"z": -4.1685799586,
				"element": "N" 
			},
			{
				"x": 0.8131032461,
				"y": -1.0910292952,
				"z": -2.9733740305,
				"element": "C" 
			},
			{
				"x": 1.7239204113,
				"y": -0.8461364368,
				"z": -1.9338465283,
				"element": "C" 
			},
			{
				"x": 1.294545234,
				"y": -0.1756327309,
				"z": -0.7894038195,
				"element": "C" 
			},
			{
				"x": -0.0274849667,
				"y": 0.2429180871,
				"z": -0.6731074309,
				"element": "C" 
			},
			{
				"x": -0.3981744674,
				"y": 0.8269454004,
				"z": 0.5431361456,
				"element": "O" 
			},
			{
				"x": -0.9689314674,
				"y": 2.0655655679,
				"z": 0.5530929238,
				"element": "C" 
			},
			{
				"x": -1.2549080948,
				"y": 2.6753827933,
				"z": -0.4538993049,
				"element": "O" 
			},
			{
				"x": -1.1957632439,
				"y": 2.5976324435,
				"z": 1.9308347738,
				"element": "C" 
			},
			{
				"x": -1.6696663254,
				"y": 3.9197250109,
				"z": 1.9921876221,
				"element": "C" 
			},
			{
				"x": -1.9241971911,
				"y": 4.5469609595,
				"z": 3.2057956968,
				"element": "C" 
			},
			{
				"x": -1.7129480804,
				"y": 3.8517795247,
				"z": 4.3983703524,
				"element": "C" 
			},
			{
				"x": -1.2488830849,
				"y": 2.5391007683,
				"z": 4.3633157851,
				"element": "C" 
			},
			{
				"x": -0.9894192496,
				"y": 1.9146565807,
				"z": 3.1445512055,
				"element": "C" 
			},
			{
				"x": -0.6195783483,
				"y": 0.575881073,
				"z": 3.2024638476,
				"element": "O" 
			},
			{
				"x": 0.7096526867,
				"y": 0.2506631867,
				"z": 3.0570816634,
				"element": "C" 
			},
			{
				"x": 0.8702053374,
				"y": -1.2465225495,
				"z": 3.0600513133,
				"element": "C" 
			},
			{
				"x": 1.5864206895,
				"y": 1.0677098256,
				"z": 2.9378039643,
				"element": "O" 
			},
			{
				"x": -0.9443458551,
				"y": 0.0049127651,
				"z": -1.6946357421,
				"element": "C" 
			},
			{
				"x": -0.5168156466,
				"y": -0.659268981,
				"z": -2.83923999,
				"element": "C" 
			},
			{
				"x": 2.8046459606,
				"y": -3.9294352229,
				"z": -5.8447969046,
				"element": "H" 
			},
			{
				"x": 3.0673222322,
				"y": -2.3417312715,
				"z": -6.5608973095,
				"element": "H" 
			},
			{
				"x": 1.4120649884,
				"y": -2.972988502,
				"z": -6.4071810879,
				"element": "H" 
			},
			{
				"x": 0.4136715812,
				"y": -1.8378256386,
				"z": -4.8422063321,
				"element": "H" 
			},
			{
				"x": 2.7472965212,
				"y": -1.1772367743,
				"z": -2.0348449075,
				"element": "H" 
			},
			{
				"x": 1.9857348864,
				"y": 0.0330686585,
				"z": 0.0209875984,
				"element": "H" 
			},
			{
				"x": -1.8293447472,
				"y": 4.434780125,
				"z": 1.051604752,
				"element": "H" 
			},
			{
				"x": -2.2868143501,
				"y": 5.5697968731,
				"z": 3.2225521196,
				"element": "H" 
			},
			{
				"x": -1.9088549916,
				"y": 4.3274941948,
				"z": 5.3547056661,
				"element": "H" 
			},
			{
				"x": -1.0856783175,
				"y": 1.9746494923,
				"z": 5.2751398622,
				"element": "H" 
			},
			{
				"x": 0.2538986466,
				"y": -1.7044374432,
				"z": 3.8370747016,
				"element": "H" 
			},
			{
				"x": 1.9205572307,
				"y": -1.4985581328,
				"z": 3.2043460323,
				"element": "H" 
			},
			{
				"x": 0.5339437835,
				"y": -1.6366363931,
				"z": 2.0939698943,
				"element": "H" 
			},
			{
				"x": -1.9700166125,
				"y": 0.3392793516,
				"z": -1.6014305558,
				"element": "H" 
			},
			{
				"x": -1.2278420938,
				"y": -0.8447433268,
				"z": -3.6411539069,
				"element": "H" 
			}
		],
		 "valence_orbital": [ 
			{
				"type": "occ",
				"energy": -0.26632,
				"method": "rhf"
			},
			{
				"type": "occ",
				"energy": -0.257,
				"method": "rhf"
			},
			{
				"type": "occ",
				"energy": -0.25656,
				"method": "rhf"
			},
			{
				"type": "occ",
				"energy": -0.25496,
				"method": "rhf"
			},
			{
				"type": "occ",
				"energy": -0.21944,
				"method": "rhf"
			},
			{
				"type": "unocc",
				"energy": -0.05405,
				"method": "rhf"
			},
			{
				"type": "unocc",
				"energy": -0.0131,
				"method": "rhf"
			},
			{
				"type": "unocc",
				"energy": -0.01299,
				"method": "rhf"
			},
			{
				"type": "unocc",
				"energy": -0.00818,
				"method": "rhf"
			},
			{
				"type": "unocc",
				"energy": 0.00923,
				"method": "rhf"
			}
		],
		"cosmo_sigma_profile": { 
			"-0.025": 0.0,
			"-0.024": 0.0,
			"-0.023": 0.0,
			"-0.022": 0.0,
			"-0.021": 0.0,
			"-0.02": 0.0,
			"-0.019": 0.0,
			"-0.018": 0.0,
			"-0.017": 0.0,
			"-0.016": 0.0408673294616,
			"-0.015": 1.252090341,
			"-0.014": 1.4530467767,
			"-0.013": 2.04325674833,
			"-0.012": 1.42973477177,
			"-0.011": 1.25841411786,
			"-0.01": 1.49983354474,
			"-0.009": 1.64206126166,
			"-0.008": 2.4578537125,
			"-0.007": 10.3984974117,
			"-0.006": 20.3452913839,
			"-0.005": 25.2627214376,
			"-0.004": 26.7569254025,
			"-0.003": 32.8444663458,
			"-0.002": 29.1184998102,
			"-0.001": 23.8270805711,
			"0.0": 20.3127843866,
			"0.001": 25.1017903173,
			"0.002": 24.398833386,
			"0.003": 24.5021496674,
			"0.004": 17.8556058091,
			"0.005": 9.7018324343,
			"0.006": 7.22885743006,
			"0.007": 5.42228246852,
			"0.008": 5.28292396081,
			"0.009": 5.38259818487,
			"0.01": 7.08237210518,
			"0.011": 9.87399596449,
			"0.012": 5.32540912687,
			"0.013": 3.2103088718,
			"0.014": 1.7728169741,
			"0.015": 0.168259651883,
			"0.016": 0.0,
			"0.017": 0.0,
			"0.018": 0.0,
			"0.019": 0.0,
			"0.02": 0.0,
			"0.021": 0.0,
			"0.022": 0.0,
			"0.023": 0.0,
			"0.024": 0.0,
			"0.025": 0.0
		}
	}
}
