{
	 "smiles": "CC(CC1=CC=CC=C1)C(O)=O", 
	 "Tm": 310.35, 
	 "num_atms": 24, 
	 "gaussian": { 
		 "optdone": 1, 
		 "sigma_profile": "yes", 
		 "theory": "DFT", 
		 "functional": "B3LYP", 
		 "basiset": "6-31G**", 
		 "properties": { 
			 "R2extent": 2449.4414, 
			 "electric_dipole_moment_norm": 1.45572637882, 
			 "electric_quadrupole_moment_norm": 13.7245547287, 
			 "total_energy": -538.76990524, 
			 "HOMO_LUMO_gap": 0.23644, 
			 "cosmo_polarized_energy": -10.19, 
			 "cosmo_cavitation_energy": 27.02, 
			 "cosmo_dispersion_energy": -19.02, 
			 "cosmo_repulsion_energy": 1.53, 
			 "cosmo_total_nonelectrostatic_energy": 9.52, 
			 "SMD_solvation_energy": 5.51 
		},
		"coords": [
			{
				"x": 0.9217838663,
				"y": 1.2534313548,
				"z": -2.7356274703,
				"element": "C" 
			},
			{
				"x": -0.0490920453,
				"y": 2.0116727587,
				"z": -1.8280993476,
				"element": "C" 
			},
			{
				"x": 0.2239249435,
				"y": 1.8058041229,
				"z": -0.3073037394,
				"element": "C" 
			},
			{
				"x": 0.0698225098,
				"y": 0.3829721761,
				"z": 0.1914639973,
				"element": "C" 
			},
			{
				"x": 1.1705207496,
				"y": -0.483125681,
				"z": 0.2563608286,
				"element": "C" 
			},
			{
				"x": 1.0267328252,
				"y": -1.7964720994,
				"z": 0.706605675,
				"element": "C" 
			},
			{
				"x": -0.225504155,
				"y": -2.2670523696,
				"z": 1.1044813356,
				"element": "C" 
			},
			{
				"x": -1.329302363,
				"y": -1.4139166422,
				"z": 1.0520602248,
				"element": "C" 
			},
			{
				"x": -1.1812479724,
				"y": -0.1016584423,
				"z": 0.6017566472,
				"element": "C" 
			},
			{
				"x": -1.4897204545,
				"y": 1.6884185211,
				"z": -2.1951162662,
				"element": "C" 
			},
			{
				"x": -2.3775186465,
				"y": 2.3943292098,
				"z": -1.4423935745,
				"element": "O" 
			},
			{
				"x": -1.8525932442,
				"y": 0.9239191138,
				"z": -3.0605939698,
				"element": "O" 
			},
			{
				"x": 0.8347371425,
				"y": 0.1742296365,
				"z": -2.5899900776,
				"element": "H" 
			},
			{
				"x": 1.9527303232,
				"y": 1.551139502,
				"z": -2.5192451711,
				"element": "H" 
			},
			{
				"x": 0.7146444402,
				"y": 1.4627329636,
				"z": -3.7877301517,
				"element": "H" 
			},
			{
				"x": 0.0580281066,
				"y": 3.0910537705,
				"z": -2.007609558,
				"element": "H" 
			},
			{
				"x": -0.4453433838,
				"y": 2.4663134297,
				"z": 0.251788823,
				"element": "H" 
			},
			{
				"x": 1.2462420527,
				"y": 2.1506836891,
				"z": -0.1153220351,
				"element": "H" 
			},
			{
				"x": 2.1515678236,
				"y": -0.1218702806,
				"z": -0.0422215032,
				"element": "H" 
			},
			{
				"x": 1.8938414537,
				"y": -2.4496475348,
				"z": 0.7507722259,
				"element": "H" 
			},
			{
				"x": -0.3392326529,
				"y": -3.2877727901,
				"z": 1.4581307171,
				"element": "H" 
			},
			{
				"x": -2.3066446672,
				"y": -1.7684204,
				"z": 1.3677258504,
				"element": "H" 
			},
			{
				"x": -2.0426590286,
				"y": 0.5598660211,
				"z": 0.5709774993,
				"element": "H" 
			},
			{
				"x": -3.2583176233,
				"y": 2.1324699705,
				"z": -1.7592709596,
				"element": "H" 
			}
		],
		 "valence_orbital": [ 
			{
				"type": "occ",
				"energy": -0.32651,
				"method": "rhf"
			},
			{
				"type": "occ",
				"energy": -0.31716,
				"method": "rhf"
			},
			{
				"type": "occ",
				"energy": -0.27181,
				"method": "rhf"
			},
			{
				"type": "occ",
				"energy": -0.24751,
				"method": "rhf"
			},
			{
				"type": "occ",
				"energy": -0.24098,
				"method": "rhf"
			},
			{
				"type": "unocc",
				"energy": -0.00454,
				"method": "rhf"
			},
			{
				"type": "unocc",
				"energy": -0.00055,
				"method": "rhf"
			},
			{
				"type": "unocc",
				"energy": 0.01383,
				"method": "rhf"
			},
			{
				"type": "unocc",
				"energy": 0.07311,
				"method": "rhf"
			},
			{
				"type": "unocc",
				"energy": 0.09194,
				"method": "rhf"
			}
		],
		"cosmo_sigma_profile": { 
			"-0.025": 0.0,
			"-0.024": 0.0,
			"-0.023": 0.0,
			"-0.022": 0.0,
			"-0.021": 0.0,
			"-0.02": 0.0,
			"-0.019": 0.0,
			"-0.018": 0.51032083747,
			"-0.017": 0.838260954808,
			"-0.016": 0.854655037854,
			"-0.015": 0.562500409915,
			"-0.014": 0.917261086996,
			"-0.013": 0.768636762343,
			"-0.012": 0.78523511233,
			"-0.011": 0.533913363153,
			"-0.01": 0.735320467461,
			"-0.009": 0.774968363711,
			"-0.008": 0.565119866909,
			"-0.007": 0.57925272298,
			"-0.006": 4.37867129113,
			"-0.005": 12.6608467249,
			"-0.004": 22.1420484734,
			"-0.003": 24.4273158808,
			"-0.002": 20.4741467919,
			"-0.001": 16.625737742,
			"0.0": 15.936372693,
			"0.001": 15.546817626,
			"0.002": 10.4909339507,
			"0.003": 10.7705753157,
			"0.004": 10.2163290147,
			"0.005": 10.5684515388,
			"0.006": 10.1722528079,
			"0.007": 3.59385247576,
			"0.008": 2.70299446975,
			"0.009": 2.74127701647,
			"0.01": 2.12365179335,
			"0.011": 3.31653258283,
			"0.012": 4.66702140199,
			"0.013": 0.642134524873,
			"0.014": 0.0,
			"0.015": 0.0,
			"0.016": 0.0,
			"0.017": 0.0,
			"0.018": 0.0,
			"0.019": 0.0,
			"0.02": 0.0,
			"0.021": 0.0,
			"0.022": 0.0,
			"0.023": 0.0,
			"0.024": 0.0,
			"0.025": 0.0
		}
	}
}
