{
	 "smiles": "NC(=S)C1=CC=C(NC(=O)C2CC2)C=C1", 
	 "Tm": 453.15, 
	 "num_atms": 27, 
	 "gaussian": { 
		 "optdone": 1, 
		 "sigma_profile": "yes", 
		 "theory": "DFT", 
		 "functional": "B3LYP", 
		 "basiset": "6-31G**", 
		 "properties": { 
			 "R2extent": 5719.6964, 
			 "electric_dipole_moment_norm": 4.54937091695, 
			 "electric_quadrupole_moment_norm": 33.5969074194, 
			 "total_energy": -1009.31513089, 
			 "HOMO_LUMO_gap": 0.14312, 
			 "cosmo_polarized_energy": -21.42, 
			 "cosmo_cavitation_energy": 32.8, 
			 "cosmo_dispersion_energy": -24.12, 
			 "cosmo_repulsion_energy": 1.86, 
			 "cosmo_total_nonelectrostatic_energy": 10.54, 
			 "SMD_solvation_energy": 4.92 
		},
		"coords": [
			{
				"x": -1.913047406,
				"y": 2.0570396816,
				"z": -4.1355302619,
				"element": "N" 
			},
			{
				"x": -1.742156463,
				"y": 0.7181851447,
				"z": -4.0153317192,
				"element": "C" 
			},
			{
				"x": -2.2825436426,
				"y": -0.3320229716,
				"z": -5.1961168758,
				"element": "S" 
			},
			{
				"x": -1.022968797,
				"y": 0.2796258716,
				"z": -2.7913528116,
				"element": "C" 
			},
			{
				"x": -1.2397438291,
				"y": -1.0026101887,
				"z": -2.2593393974,
				"element": "C" 
			},
			{
				"x": -0.5903929092,
				"y": -1.4148309476,
				"z": -1.1056628185,
				"element": "C" 
			},
			{
				"x": 0.3240674638,
				"y": -0.5691403222,
				"z": -0.4525615605,
				"element": "C" 
			},
			{
				"x": 0.989526917,
				"y": -1.0537886886,
				"z": 0.6864410269,
				"element": "N" 
			},
			{
				"x": 1.4721093711,
				"y": -0.4173671942,
				"z": 1.8234270678,
				"element": "C" 
			},
			{
				"x": 2.1865100712,
				"y": -1.0448327826,
				"z": 2.5962793162,
				"element": "O" 
			},
			{
				"x": 1.0566813821,
				"y": 0.9922778232,
				"z": 2.0876359891,
				"element": "C" 
			},
			{
				"x": 1.1110902511,
				"y": 1.4463782691,
				"z": 3.5347176659,
				"element": "C" 
			},
			{
				"x": 2.1400211991,
				"y": 1.9481254352,
				"z": 2.5767427743,
				"element": "C" 
			},
			{
				"x": 0.585336773,
				"y": 0.6951652812,
				"z": -1.0043213157,
				"element": "C" 
			},
			{
				"x": -0.0952163156,
				"y": 1.113969664,
				"z": -2.1436884315,
				"element": "C" 
			},
			{
				"x": -2.4224626415,
				"y": 2.3959710865,
				"z": -4.9385672922,
				"element": "H" 
			},
			{
				"x": -1.8098336649,
				"y": 2.6703526774,
				"z": -3.3407335082,
				"element": "H" 
			},
			{
				"x": -1.9384069353,
				"y": -1.6617210116,
				"z": -2.7627403996,
				"element": "H" 
			},
			{
				"x": -0.7943717351,
				"y": -2.3979981329,
				"z": -0.6907399315,
				"element": "H" 
			},
			{
				"x": 1.1920048743,
				"y": -2.0463026628,
				"z": 0.7059731166,
				"element": "H" 
			},
			{
				"x": 0.2704254421,
				"y": 1.4050850921,
				"z": 1.4673681414,
				"element": "H" 
			},
			{
				"x": 1.4213084967,
				"y": 0.6947016783,
				"z": 4.2519175778,
				"element": "H" 
			},
			{
				"x": 0.3292725011,
				"y": 2.1233541607,
				"z": 3.8637895665,
				"element": "H" 
			},
			{
				"x": 3.1396111383,
				"y": 1.5335044088,
				"z": 2.656087999,
				"element": "H" 
			},
			{
				"x": 2.0875825646,
				"y": 2.9768725041,
				"z": 2.2339161018,
				"element": "H" 
			},
			{
				"x": 1.3460075689,
				"y": 1.331082009,
				"z": -0.5667688548,
				"element": "H" 
			},
			{
				"x": 0.1564883247,
				"y": 2.0805241153,
				"z": -2.5703411647,
				"element": "H" 
			}
		],
		 "valence_orbital": [ 
			{
				"type": "occ",
				"energy": -0.2734,
				"method": "rhf"
			},
			{
				"type": "occ",
				"energy": -0.26364,
				"method": "rhf"
			},
			{
				"type": "occ",
				"energy": -0.24565,
				"method": "rhf"
			},
			{
				"type": "occ",
				"energy": -0.22751,
				"method": "rhf"
			},
			{
				"type": "occ",
				"energy": -0.20896,
				"method": "rhf"
			},
			{
				"type": "unocc",
				"energy": -0.06584,
				"method": "rhf"
			},
			{
				"type": "unocc",
				"energy": -0.02427,
				"method": "rhf"
			},
			{
				"type": "unocc",
				"energy": -0.00154,
				"method": "rhf"
			},
			{
				"type": "unocc",
				"energy": 0.03116,
				"method": "rhf"
			},
			{
				"type": "unocc",
				"energy": 0.06747,
				"method": "rhf"
			}
		],
		"cosmo_sigma_profile": { 
			"-0.025": 0.0,
			"-0.024": 0.0,
			"-0.023": 0.0,
			"-0.022": 0.0,
			"-0.021": 0.0,
			"-0.02": 0.0,
			"-0.019": 0.0,
			"-0.018": 0.0,
			"-0.017": 0.0,
			"-0.016": 0.541464176766,
			"-0.015": 1.82580497372,
			"-0.014": 3.15985371646,
			"-0.013": 3.23624250096,
			"-0.012": 3.91790297231,
			"-0.011": 2.38515223385,
			"-0.01": 2.4836943926,
			"-0.009": 3.32896473357,
			"-0.008": 3.99311670783,
			"-0.007": 6.28798218573,
			"-0.006": 9.17516609076,
			"-0.005": 17.2347031896,
			"-0.004": 17.7242851654,
			"-0.003": 16.9262140112,
			"-0.002": 15.8134075435,
			"-0.001": 17.9635503027,
			"0.0": 18.6579078821,
			"0.001": 20.0276748802,
			"0.002": 16.2381175061,
			"0.003": 18.3949551162,
			"0.004": 9.6013652668,
			"0.005": 5.21401075882,
			"0.006": 5.98551133669,
			"0.007": 7.10954269291,
			"0.008": 6.90556412958,
			"0.009": 7.529115276,
			"0.01": 6.03066531793,
			"0.011": 5.4557884038,
			"0.012": 3.61392615178,
			"0.013": 4.87863390834,
			"0.014": 2.03234728571,
			"0.015": 0.0,
			"0.016": 0.0,
			"0.017": 0.0,
			"0.018": 0.0,
			"0.019": 0.0,
			"0.02": 0.0,
			"0.021": 0.0,
			"0.022": 0.0,
			"0.023": 0.0,
			"0.024": 0.0,
			"0.025": 0.0
		}
	}
}
