{
	 "smiles": "CSC1=C(C(O)=O)C(C)=NC(C)=N1", 
	 "Tm": 497.15, 
	 "num_atms": 23, 
	 "gaussian": { 
		 "optdone": 1, 
		 "sigma_profile": "yes", 
		 "theory": "DFT", 
		 "functional": "B3LYP", 
		 "basiset": "6-31G**", 
		 "properties": { 
			 "R2extent": 3213.7265, 
			 "electric_dipole_moment_norm": 1.69084867153, 
			 "electric_quadrupole_moment_norm": 3.34074757801, 
			 "total_energy": -969.045190842, 
			 "HOMO_LUMO_gap": 0.17639, 
			 "cosmo_polarized_energy": -10.5, 
			 "cosmo_cavitation_energy": 28.32, 
			 "cosmo_dispersion_energy": -21.28, 
			 "cosmo_repulsion_energy": 1.66, 
			 "cosmo_total_nonelectrostatic_energy": 8.7, 
			 "SMD_solvation_energy": 4.4 
		},
		"coords": [
			{
				"x": -1.2092574255,
				"y": -2.2409352331,
				"z": 3.3820246689,
				"element": "C" 
			},
			{
				"x": -1.7208942893,
				"y": -2.3068804778,
				"z": 1.6320912298,
				"element": "S" 
			},
			{
				"x": -0.9882793383,
				"y": -0.8080892086,
				"z": 1.0147648835,
				"element": "C" 
			},
			{
				"x": -1.0050316449,
				"y": -0.4322512077,
				"z": -0.3568719421,
				"element": "C" 
			},
			{
				"x": -1.6181518072,
				"y": -1.2371610458,
				"z": -1.4416086808,
				"element": "C" 
			},
			{
				"x": -2.4913252932,
				"y": -2.1667817164,
				"z": -0.9874979556,
				"element": "O" 
			},
			{
				"x": -1.3979447831,
				"y": -1.1100255519,
				"z": -2.6315510451,
				"element": "O" 
			},
			{
				"x": -0.3567531188,
				"y": 0.7878461768,
				"z": -0.676213719,
				"element": "C" 
			},
			{
				"x": -0.273217806,
				"y": 1.3547040565,
				"z": -2.0691837841,
				"element": "C" 
			},
			{
				"x": 0.2296170218,
				"y": 1.5368448154,
				"z": 0.2680742302,
				"element": "N" 
			},
			{
				"x": 0.194600174,
				"y": 1.0880578909,
				"z": 1.5284148408,
				"element": "C" 
			},
			{
				"x": 0.8645856656,
				"y": 1.9387459346,
				"z": 2.5718279636,
				"element": "C" 
			},
			{
				"x": -0.3849498064,
				"y": -0.0451710068,
				"z": 1.9345440896,
				"element": "N" 
			},
			{
				"x": -0.1234086178,
				"y": -2.2331240002,
				"z": 3.4766868629,
				"element": "H" 
			},
			{
				"x": -1.6232654393,
				"y": -1.3648635595,
				"z": 3.8802107035,
				"element": "H" 
			},
			{
				"x": -1.6177321671,
				"y": -3.1533361213,
				"z": 3.8238091028,
				"element": "H" 
			},
			{
				"x": -2.7954908757,
				"y": -2.6558414894,
				"z": -1.7702796409,
				"element": "H" 
			},
			{
				"x": 0.1595930922,
				"y": 2.353426575,
				"z": -2.00311251,
				"element": "H" 
			},
			{
				"x": -1.2529661788,
				"y": 1.3961854526,
				"z": -2.5511277058,
				"element": "H" 
			},
			{
				"x": 0.347924566,
				"y": 0.7224947941,
				"z": -2.7092500728,
				"element": "H" 
			},
			{
				"x": 1.9175544085,
				"y": 2.0887309071,
				"z": 2.3127472267,
				"element": "H" 
			},
			{
				"x": 0.7901870854,
				"y": 1.4719879128,
				"z": 3.5542721358,
				"element": "H" 
			},
			{
				"x": 0.4010065778,
				"y": 2.9302361028,
				"z": 2.5999291182,
				"element": "H" 
			}
		],
		 "valence_orbital": [ 
			{
				"type": "occ",
				"energy": -0.31166,
				"method": "rhf"
			},
			{
				"type": "occ",
				"energy": -0.28557,
				"method": "rhf"
			},
			{
				"type": "occ",
				"energy": -0.27836,
				"method": "rhf"
			},
			{
				"type": "occ",
				"energy": -0.25066,
				"method": "rhf"
			},
			{
				"type": "occ",
				"energy": -0.23583,
				"method": "rhf"
			},
			{
				"type": "unocc",
				"energy": -0.05944,
				"method": "rhf"
			},
			{
				"type": "unocc",
				"energy": -0.03472,
				"method": "rhf"
			},
			{
				"type": "unocc",
				"energy": 0.03474,
				"method": "rhf"
			},
			{
				"type": "unocc",
				"energy": 0.04004,
				"method": "rhf"
			},
			{
				"type": "unocc",
				"energy": 0.07449,
				"method": "rhf"
			}
		],
		"cosmo_sigma_profile": { 
			"-0.025": 0.0,
			"-0.024": 0.0,
			"-0.023": 0.0,
			"-0.022": 0.0,
			"-0.021": 0.0,
			"-0.02": 0.0,
			"-0.019": 0.16040681079,
			"-0.018": 0.891381384685,
			"-0.017": 1.02780315055,
			"-0.016": 0.605865651438,
			"-0.015": 1.04943853557,
			"-0.014": 0.628083412938,
			"-0.013": 0.659005169113,
			"-0.012": 0.595478084784,
			"-0.011": 0.547100365335,
			"-0.01": 0.985427956289,
			"-0.009": 0.248814771668,
			"-0.008": 0.711638724465,
			"-0.007": 2.50519915204,
			"-0.006": 4.83788819017,
			"-0.005": 11.4705387715,
			"-0.004": 17.4218002438,
			"-0.003": 20.7057527888,
			"-0.002": 28.700763273,
			"-0.001": 30.9912686223,
			"0.0": 19.0742887005,
			"0.001": 11.4528031652,
			"0.002": 9.60703148379,
			"0.003": 8.29157925507,
			"0.004": 7.51966306953,
			"0.005": 8.76612484623,
			"0.006": 8.19548106618,
			"0.007": 8.62146849855,
			"0.008": 5.48473411848,
			"0.009": 3.94375892855,
			"0.01": 3.18993618477,
			"0.011": 3.94900342793,
			"0.012": 2.26570892393,
			"0.013": 0.497902042515,
			"0.014": 0.688996610683,
			"0.015": 0.0994890109404,
			"0.016": 0.0,
			"0.017": 0.0,
			"0.018": 0.0,
			"0.019": 0.0,
			"0.02": 0.0,
			"0.021": 0.0,
			"0.022": 0.0,
			"0.023": 0.0,
			"0.024": 0.0,
			"0.025": 0.0
		}
	}
}
