{
	 "smiles": "CC1=C(C=C(C=C1)C(=O)CBr)[N+]([O-])=O", 
	 "Tm": 319.15, 
	 "num_atms": 22, 
	 "gaussian": { 
		 "optdone": 1, 
		 "sigma_profile": "yes", 
		 "theory": "DFT", 
		 "functional": "B3LYP", 
		 "basiset": "6-31G**", 
		 "properties": { 
			 "R2extent": 6403.6575, 
			 "electric_dipole_moment_norm": 3.0528796537, 
			 "electric_quadrupole_moment_norm": 18.1949851157, 
			 "total_energy": -3199.50457745, 
			 "HOMO_LUMO_gap": 0.17664, 
			 "cosmo_polarized_energy": -14.41, 
			 "cosmo_cavitation_energy": 29.35, 
			 "cosmo_dispersion_energy": -21.73, 
			 "cosmo_repulsion_energy": 1.71, 
			 "cosmo_total_nonelectrostatic_energy": 9.33, 
			 "SMD_solvation_energy": 6.43 
		},
		"coords": [
			{
				"x": 1.0487896549,
				"y": 2.595139187,
				"z": -1.6436884938,
				"element": "C" 
			},
			{
				"x": 0.5897851461,
				"y": 1.462063366,
				"z": -0.7621465543,
				"element": "C" 
			},
			{
				"x": 1.274815967,
				"y": 0.2460450006,
				"z": -0.5597792815,
				"element": "C" 
			},
			{
				"x": 0.7881827307,
				"y": -0.7565975447,
				"z": 0.2809426831,
				"element": "C" 
			},
			{
				"x": -0.4196354877,
				"y": -0.5848773483,
				"z": 0.9568860107,
				"element": "C" 
			},
			{
				"x": -1.122682762,
				"y": 0.6163218201,
				"z": 0.7738835649,
				"element": "C" 
			},
			{
				"x": -0.6217064308,
				"y": 1.6043431412,
				"z": -0.0610415075,
				"element": "C" 
			},
			{
				"x": -1.0106904652,
				"y": -1.6170305076,
				"z": 1.8743765601,
				"element": "C" 
			},
			{
				"x": -2.0665764492,
				"y": -1.4132255211,
				"z": 2.4389063731,
				"element": "O" 
			},
			{
				"x": -0.2165337618,
				"y": -2.9115385219,
				"z": 2.0489345871,
				"element": "C" 
			},
			{
				"x": -1.0682768073,
				"y": -4.1814473905,
				"z": 3.2571252267,
				"element": "Br" 
			},
			{
				"x": 2.5593684212,
				"y": -0.0489314474,
				"z": -1.2275480334,
				"element": "N" 
			},
			{
				"x": 3.1461721537,
				"y": -1.0819679323,
				"z": -0.9042899294,
				"element": "O" 
			},
			{
				"x": 2.9751375024,
				"y": 0.7439855555,
				"z": -2.0713871111,
				"element": "O" 
			},
			{
				"x": 0.3516662168,
				"y": 3.4321007991,
				"z": -1.5577732942,
				"element": "H" 
			},
			{
				"x": 2.0509329376,
				"y": 2.9364698649,
				"z": -1.3733537734,
				"element": "H" 
			},
			{
				"x": 1.107583823,
				"y": 2.286690209,
				"z": -2.6904973369,
				"element": "H" 
			},
			{
				"x": 1.3854083197,
				"y": -1.6533979652,
				"z": 0.3789459202,
				"element": "H" 
			},
			{
				"x": -2.061198507,
				"y": 0.7501562138,
				"z": 1.3011146322,
				"element": "H" 
			},
			{
				"x": -1.1788487733,
				"y": 2.5279705896,
				"z": -0.1854612023,
				"element": "H" 
			},
			{
				"x": 0.7750524511,
				"y": -2.7002010439,
				"z": 2.4544467958,
				"element": "H" 
			},
			{
				"x": -0.09324588,
				"y": -3.4169705239,
				"z": 1.0889041639,
				"element": "H" 
			}
		],
		 "valence_orbital": [ 
			{
				"type": "occ",
				"energy": -0.29562,
				"method": "rhf"
			},
			{
				"type": "occ",
				"energy": -0.2883,
				"method": "rhf"
			},
			{
				"type": "occ",
				"energy": -0.28172,
				"method": "rhf"
			},
			{
				"type": "occ",
				"energy": -0.27903,
				"method": "rhf"
			},
			{
				"type": "occ",
				"energy": -0.27843,
				"method": "rhf"
			},
			{
				"type": "unocc",
				"energy": -0.10179,
				"method": "rhf"
			},
			{
				"type": "unocc",
				"energy": -0.08214,
				"method": "rhf"
			},
			{
				"type": "unocc",
				"energy": -0.02154,
				"method": "rhf"
			},
			{
				"type": "unocc",
				"energy": -0.00735,
				"method": "rhf"
			},
			{
				"type": "unocc",
				"energy": 0.01433,
				"method": "rhf"
			}
		],
		"cosmo_sigma_profile": { 
			"-0.025": 0.0,
			"-0.024": 0.0,
			"-0.023": 0.0,
			"-0.022": 0.0,
			"-0.021": 0.0,
			"-0.02": 0.0,
			"-0.019": 0.0,
			"-0.018": 0.0,
			"-0.017": 0.0,
			"-0.016": 0.0,
			"-0.015": 0.0,
			"-0.014": 0.0,
			"-0.013": 0.0,
			"-0.012": 0.0,
			"-0.011": 0.495391098723,
			"-0.01": 6.87933408058,
			"-0.009": 5.53578995379,
			"-0.008": 4.64483796875,
			"-0.007": 9.92334112548,
			"-0.006": 10.560939206,
			"-0.005": 12.4847172191,
			"-0.004": 15.3724326862,
			"-0.003": 14.8204758047,
			"-0.002": 18.299215209,
			"-0.001": 24.476878339,
			"0.0": 18.5028910711,
			"0.001": 13.8225274036,
			"0.002": 7.26208131078,
			"0.003": 7.28847349591,
			"0.004": 9.82685915729,
			"0.005": 11.9787249319,
			"0.006": 10.3410514665,
			"0.007": 9.35195303994,
			"0.008": 7.60639967214,
			"0.009": 7.40626472091,
			"0.01": 6.12739557168,
			"0.011": 3.24530008697,
			"0.012": 1.60384588961,
			"0.013": 0.170831631399,
			"0.014": 0.0,
			"0.015": 0.0,
			"0.016": 0.0,
			"0.017": 0.0,
			"0.018": 0.0,
			"0.019": 0.0,
			"0.02": 0.0,
			"0.021": 0.0,
			"0.022": 0.0,
			"0.023": 0.0,
			"0.024": 0.0,
			"0.025": 0.0
		}
	}
}
