{
	 "smiles": "O=C1N2C=CC3=CC=CC=C3C2CC2=CC=CC=C12", 
	 "Tm": 401.15, 
	 "num_atms": 32, 
	 "gaussian": { 
		 "optdone": 1, 
		 "sigma_profile": "yes", 
		 "theory": "DFT", 
		 "functional": "B3LYP", 
		 "basiset": "6-31G**", 
		 "properties": { 
			 "R2extent": 5765.084, 
			 "electric_dipole_moment_norm": 3.45612750633, 
			 "electric_quadrupole_moment_norm": 12.8646822837, 
			 "total_energy": -785.641033619, 
			 "HOMO_LUMO_gap": 0.14391, 
			 "cosmo_polarized_energy": -10.94, 
			 "cosmo_cavitation_energy": 34.19, 
			 "cosmo_dispersion_energy": -25.46, 
			 "cosmo_repulsion_energy": 1.87, 
			 "cosmo_total_nonelectrostatic_energy": 10.6, 
			 "SMD_solvation_energy": 5.53 
		},
		"coords": [
			{
				"x": -3.1509881476,
				"y": 1.3801055972,
				"z": 0.9197414434,
				"element": "O" 
			},
			{
				"x": -2.2127613391,
				"y": 0.6369385451,
				"z": 0.6475178477,
				"element": "C" 
			},
			{
				"x": -1.1423377555,
				"y": 0.4599418944,
				"z": 1.530553476,
				"element": "N" 
			},
			{
				"x": -1.2255397156,
				"y": 1.1051960598,
				"z": 2.7659317356,
				"element": "C" 
			},
			{
				"x": -0.2551636762,
				"y": 1.0232937262,
				"z": 3.6913449118,
				"element": "C" 
			},
			{
				"x": 0.9715509424,
				"y": 0.2881404876,
				"z": 3.4271287782,
				"element": "C" 
			},
			{
				"x": 2.0635599535,
				"y": 0.3408022416,
				"z": 4.3069888486,
				"element": "C" 
			},
			{
				"x": 3.2404193969,
				"y": -0.3515645741,
				"z": 4.0329298846,
				"element": "C" 
			},
			{
				"x": 3.3372676273,
				"y": -1.1096276383,
				"z": 2.8669477588,
				"element": "C" 
			},
			{
				"x": 2.2557377866,
				"y": -1.1667253262,
				"z": 1.9826835814,
				"element": "C" 
			},
			{
				"x": 1.0712532451,
				"y": -0.4744125003,
				"z": 2.2425946213,
				"element": "C" 
			},
			{
				"x": -0.1380436825,
				"y": -0.6181745576,
				"z": 1.314582856,
				"element": "C" 
			},
			{
				"x": 0.2485344047,
				"y": -0.6475939949,
				"z": -0.1706704784,
				"element": "C" 
			},
			{
				"x": -0.9690153603,
				"y": -0.7443190374,
				"z": -1.0533352533,
				"element": "C" 
			},
			{
				"x": -0.9522187556,
				"y": -1.4105706812,
				"z": -2.282129442,
				"element": "C" 
			},
			{
				"x": -2.095626999,
				"y": -1.4518838521,
				"z": -3.0803406677,
				"element": "C" 
			},
			{
				"x": -3.2709440897,
				"y": -0.8203658563,
				"z": -2.6605089646,
				"element": "C" 
			},
			{
				"x": -3.2966152622,
				"y": -0.1493651854,
				"z": -1.4421834404,
				"element": "C" 
			},
			{
				"x": -2.1510487313,
				"y": -0.1148320907,
				"z": -0.6359872787,
				"element": "C" 
			},
			{
				"x": -2.1285595163,
				"y": 1.6884259504,
				"z": 2.8857769915,
				"element": "H" 
			},
			{
				"x": -0.3663721515,
				"y": 1.5554605709,
				"z": 4.6295881577,
				"element": "H" 
			},
			{
				"x": 1.9783746493,
				"y": 0.9362633154,
				"z": 5.212332387,
				"element": "H" 
			},
			{
				"x": 4.0751443004,
				"y": -0.3015789253,
				"z": 4.7260794523,
				"element": "H" 
			},
			{
				"x": 4.2455077715,
				"y": -1.6609842882,
				"z": 2.6429404703,
				"element": "H" 
			},
			{
				"x": 2.3494861393,
				"y": -1.7762080011,
				"z": 1.0896824513,
				"element": "H" 
			},
			{
				"x": -0.6333530266,
				"y": -1.5760874743,
				"z": 1.5509897012,
				"element": "H" 
			},
			{
				"x": 0.9089493772,
				"y": -1.496070424,
				"z": -0.3638611807,
				"element": "H" 
			},
			{
				"x": 0.8191686535,
				"y": 0.2623076337,
				"z": -0.4027980293,
				"element": "H" 
			},
			{
				"x": -0.040110877,
				"y": -1.9009716531,
				"z": -2.6130358739,
				"element": "H" 
			},
			{
				"x": -2.0710546309,
				"y": -1.9791294158,
				"z": -4.0298534346,
				"element": "H" 
			},
			{
				"x": -4.1597255828,
				"y": -0.8526347191,
				"z": -3.2834750184,
				"element": "H" 
			},
			{
				"x": -4.1870749482,
				"y": 0.3601241732,
				"z": -1.0902562925,
				"element": "H" 
			}
		],
		 "valence_orbital": [ 
			{
				"type": "occ",
				"energy": -0.26227,
				"method": "rhf"
			},
			{
				"type": "occ",
				"energy": -0.25506,
				"method": "rhf"
			},
			{
				"type": "occ",
				"energy": -0.25422,
				"method": "rhf"
			},
			{
				"type": "occ",
				"energy": -0.25099,
				"method": "rhf"
			},
			{
				"type": "occ",
				"energy": -0.1964,
				"method": "rhf"
			},
			{
				"type": "unocc",
				"energy": -0.05249,
				"method": "rhf"
			},
			{
				"type": "unocc",
				"energy": -0.02071,
				"method": "rhf"
			},
			{
				"type": "unocc",
				"energy": -0.01016,
				"method": "rhf"
			},
			{
				"type": "unocc",
				"energy": -0.00676,
				"method": "rhf"
			},
			{
				"type": "unocc",
				"energy": 0.05018,
				"method": "rhf"
			}
		],
		"cosmo_sigma_profile": { 
			"-0.025": 0.0,
			"-0.024": 0.0,
			"-0.023": 0.0,
			"-0.022": 0.0,
			"-0.021": 0.0,
			"-0.02": 0.0,
			"-0.019": 0.0,
			"-0.018": 0.0,
			"-0.017": 0.0,
			"-0.016": 0.0,
			"-0.015": 0.0,
			"-0.014": 0.0,
			"-0.013": 0.0,
			"-0.012": 0.0,
			"-0.011": 0.0,
			"-0.01": 0.0,
			"-0.009": 0.0,
			"-0.008": 0.984022076712,
			"-0.007": 3.33267783101,
			"-0.006": 18.794361955,
			"-0.005": 27.577205997,
			"-0.004": 26.1829003367,
			"-0.003": 22.1254817892,
			"-0.002": 19.4175311622,
			"-0.001": 15.93730556,
			"0.0": 16.3904535705,
			"0.001": 19.0439281795,
			"0.002": 18.8529640261,
			"0.003": 22.1941791978,
			"0.004": 25.3960845987,
			"0.005": 16.6581182479,
			"0.006": 6.13069078521,
			"0.007": 1.6781762165,
			"0.008": 1.2867043731,
			"0.009": 1.42177300316,
			"0.01": 1.83848248623,
			"0.011": 1.74039185559,
			"0.012": 2.93853825771,
			"0.013": 3.95429164031,
			"0.014": 0.200729481925,
			"0.015": 0.0,
			"0.016": 0.0,
			"0.017": 0.0,
			"0.018": 0.0,
			"0.019": 0.0,
			"0.02": 0.0,
			"0.021": 0.0,
			"0.022": 0.0,
			"0.023": 0.0,
			"0.024": 0.0,
			"0.025": 0.0
		}
	}
}
