{
	 "smiles": "FC(F)(F)C1=NC2=C(SC=C2)C(Cl)=N1", 
	 "Tm": 369.15, 
	 "num_atms": 16, 
	 "gaussian": { 
		 "optdone": 1, 
		 "sigma_profile": "yes", 
		 "theory": "DFT", 
		 "functional": "B3LYP", 
		 "basiset": "6-31G**", 
		 "properties": { 
			 "R2extent": 3808.9019, 
			 "electric_dipole_moment_norm": 5.0294508736, 
			 "electric_quadrupole_moment_norm": 4.18546768474, 
			 "total_energy": -1535.34460798, 
			 "HOMO_LUMO_gap": 0.19051, 
			 "cosmo_polarized_energy": -7.83, 
			 "cosmo_cavitation_energy": 26.3, 
			 "cosmo_dispersion_energy": -19.74, 
			 "cosmo_repulsion_energy": 1.45, 
			 "cosmo_total_nonelectrostatic_energy": 8.01, 
			 "SMD_solvation_energy": 2.6 
		},
		"coords": [
			{
				"x": -1.7258096429,
				"y": -3.274116935,
				"z": 0.0453030841,
				"element": "F" 
			},
			{
				"x": -1.5810000511,
				"y": -2.3769078384,
				"z": 1.0396504315,
				"element": "C" 
			},
			{
				"x": -2.7685373588,
				"y": -1.7997496137,
				"z": 1.2589187716,
				"element": "F" 
			},
			{
				"x": -1.2285848716,
				"y": -3.0511083317,
				"z": 2.1514996209,
				"element": "F" 
			},
			{
				"x": -0.5103531237,
				"y": -1.3533727134,
				"z": 0.6787877343,
				"element": "C" 
			},
			{
				"x": -0.8612151256,
				"y": -0.0809519879,
				"z": 0.6338436283,
				"element": "N" 
			},
			{
				"x": 0.1297296694,
				"y": 0.7746288287,
				"z": 0.3099550233,
				"element": "C" 
			},
			{
				"x": 1.4481929337,
				"y": 0.3263218725,
				"z": 0.0398137427,
				"element": "C" 
			},
			{
				"x": 2.5155404293,
				"y": 1.6428534795,
				"z": -0.3492701797,
				"element": "S" 
			},
			{
				"x": 1.1969691689,
				"y": 2.7771448845,
				"z": -0.1485468885,
				"element": "C" 
			},
			{
				"x": 0.013640406,
				"y": 2.2008495443,
				"z": 0.1931720069,
				"element": "C" 
			},
			{
				"x": 1.6697659528,
				"y": -1.0508964683,
				"z": 0.1265385359,
				"element": "C" 
			},
			{
				"x": 3.2592016302,
				"y": -1.7064716151,
				"z": -0.1873166132,
				"element": "Cl" 
			},
			{
				"x": 0.705406906,
				"y": -1.8860099955,
				"z": 0.4419912008,
				"element": "N" 
			},
			{
				"x": 1.3949240685,
				"y": 3.8296895928,
				"z": -0.3026285433,
				"element": "H" 
			},
			{
				"x": -0.9119709909,
				"y": 2.7363972967,
				"z": 0.3604884444,
				"element": "H" 
			}
		],
		 "valence_orbital": [ 
			{
				"type": "occ",
				"energy": -0.33287,
				"method": "rhf"
			},
			{
				"type": "occ",
				"energy": -0.32514,
				"method": "rhf"
			},
			{
				"type": "occ",
				"energy": -0.28782,
				"method": "rhf"
			},
			{
				"type": "occ",
				"energy": -0.28736,
				"method": "rhf"
			},
			{
				"type": "occ",
				"energy": -0.27153,
				"method": "rhf"
			},
			{
				"type": "unocc",
				"energy": -0.08102,
				"method": "rhf"
			},
			{
				"type": "unocc",
				"energy": -0.05953,
				"method": "rhf"
			},
			{
				"type": "unocc",
				"energy": -0.01565,
				"method": "rhf"
			},
			{
				"type": "unocc",
				"energy": 0.00564,
				"method": "rhf"
			},
			{
				"type": "unocc",
				"energy": 0.0245,
				"method": "rhf"
			}
		],
		"cosmo_sigma_profile": { 
			"-0.025": 0.0,
			"-0.024": 0.0,
			"-0.023": 0.0,
			"-0.022": 0.0,
			"-0.021": 0.0,
			"-0.02": 0.0,
			"-0.019": 0.0,
			"-0.018": 0.0,
			"-0.017": 0.0,
			"-0.016": 0.0,
			"-0.015": 0.0,
			"-0.014": 0.0,
			"-0.013": 0.0,
			"-0.012": 0.0,
			"-0.011": 1.27226831687,
			"-0.01": 2.81094588468,
			"-0.009": 2.63187248336,
			"-0.008": 4.08326901447,
			"-0.007": 3.39348796361,
			"-0.006": 5.31808658007,
			"-0.005": 5.60058341738,
			"-0.004": 13.4555900412,
			"-0.003": 14.153743691,
			"-0.002": 15.1962990182,
			"-0.001": 19.5749975902,
			"0.0": 22.1610947399,
			"0.001": 23.4482870661,
			"0.002": 37.9786902103,
			"0.003": 23.1750168821,
			"0.004": 6.25840406856,
			"0.005": 3.83916753577,
			"0.006": 3.58547136954,
			"0.007": 2.10127470585,
			"0.008": 2.31901539633,
			"0.009": 2.34945229603,
			"0.01": 1.24719984711,
			"0.011": 1.80647884365,
			"0.012": 0.466036178722,
			"0.013": 0.0,
			"0.014": 0.0,
			"0.015": 0.0,
			"0.016": 0.0,
			"0.017": 0.0,
			"0.018": 0.0,
			"0.019": 0.0,
			"0.02": 0.0,
			"0.021": 0.0,
			"0.022": 0.0,
			"0.023": 0.0,
			"0.024": 0.0,
			"0.025": 0.0
		}
	}
}
