{
	 "smiles": "CCCC(=O)C1=C(O)C=C(NC(C)=O)C=C1", 
	 "Tm": 359.15, 
	 "num_atms": 31, 
	 "gaussian": { 
		 "optdone": 1, 
		 "sigma_profile": "yes", 
		 "theory": "DFT", 
		 "functional": "B3LYP", 
		 "basiset": "6-31G**", 
		 "properties": { 
			 "R2extent": 6881.5762, 
			 "electric_dipole_moment_norm": 3.79085013289, 
			 "electric_quadrupole_moment_norm": 16.7848281156, 
			 "total_energy": -746.780996066, 
			 "HOMO_LUMO_gap": 0.16495, 
			 "cosmo_polarized_energy": -14.91, 
			 "cosmo_cavitation_energy": 34.09, 
			 "cosmo_dispersion_energy": -24.94, 
			 "cosmo_repulsion_energy": 1.95, 
			 "cosmo_total_nonelectrostatic_energy": 11.1, 
			 "SMD_solvation_energy": 7.15 
		},
		"coords": [
			{
				"x": 3.3435950782,
				"y": -3.5771258212,
				"z": -0.5634266323,
				"element": "C" 
			},
			{
				"x": 3.2884673561,
				"y": -2.9766329498,
				"z": 0.8455149743,
				"element": "C" 
			},
			{
				"x": 2.3108139011,
				"y": -1.8018941264,
				"z": 0.9765902327,
				"element": "C" 
			},
			{
				"x": 2.7829286319,
				"y": -0.5174374689,
				"z": 0.3057889153,
				"element": "C" 
			},
			{
				"x": 3.9382818103,
				"y": -0.458860493,
				"z": -0.1521087094,
				"element": "O" 
			},
			{
				"x": 1.8895271911,
				"y": 0.6441499425,
				"z": 0.2252989513,
				"element": "C" 
			},
			{
				"x": 2.3508811239,
				"y": 1.8419548193,
				"z": -0.3993601515,
				"element": "C" 
			},
			{
				"x": 3.5790597644,
				"y": 1.9456151936,
				"z": -0.9153955424,
				"element": "O" 
			},
			{
				"x": 1.512615163,
				"y": 2.9599227991,
				"z": -0.473469085,
				"element": "C" 
			},
			{
				"x": 0.2189044314,
				"y": 2.9285891276,
				"z": 0.0529950867,
				"element": "C" 
			},
			{
				"x": -0.5657142586,
				"y": 4.0802999387,
				"z": -0.0977746418,
				"element": "N" 
			},
			{
				"x": -1.6039098398,
				"y": 4.6406107661,
				"z": 0.6422494535,
				"element": "C" 
			},
			{
				"x": -2.0755522449,
				"y": 3.9547709852,
				"z": 1.9079430488,
				"element": "C" 
			},
			{
				"x": -2.0917754619,
				"y": 5.6914585072,
				"z": 0.2570113056,
				"element": "O" 
			},
			{
				"x": -0.2570716293,
				"y": 1.7408183003,
				"z": 0.6543098573,
				"element": "C" 
			},
			{
				"x": 0.5761210735,
				"y": 0.6399392262,
				"z": 0.7361715648,
				"element": "C" 
			},
			{
				"x": 2.3579555787,
				"y": -3.9392898672,
				"z": -0.8794236733,
				"element": "H" 
			},
			{
				"x": 3.6854836679,
				"y": -2.837341818,
				"z": -1.2918955779,
				"element": "H" 
			},
			{
				"x": 4.0342127907,
				"y": -4.4257056735,
				"z": -0.598839419,
				"element": "H" 
			},
			{
				"x": 4.2873759086,
				"y": -2.6405882832,
				"z": 1.1412121389,
				"element": "H" 
			},
			{
				"x": 2.9869098081,
				"y": -3.7501182503,
				"z": 1.5618639691,
				"element": "H" 
			},
			{
				"x": 1.3287710453,
				"y": -2.0766858236,
				"z": 0.5702330157,
				"element": "H" 
			},
			{
				"x": 2.1368042161,
				"y": -1.5673856479,
				"z": 2.036242369,
				"element": "H" 
			},
			{
				"x": 4.0189896624,
				"y": 1.0671069222,
				"z": -0.7540080206,
				"element": "H" 
			},
			{
				"x": 1.9044553559,
				"y": 3.8598623955,
				"z": -0.9367403046,
				"element": "H" 
			},
			{
				"x": -0.2744657956,
				"y": 4.7165347576,
				"z": -0.8309156431,
				"element": "H" 
			},
			{
				"x": -1.2587398481,
				"y": 3.502933216,
				"z": 2.475083085,
				"element": "H" 
			},
			{
				"x": -2.8028712042,
				"y": 3.1712037266,
				"z": 1.6700172785,
				"element": "H" 
			},
			{
				"x": -2.5799941158,
				"y": 4.7094935598,
				"z": 2.511727291,
				"element": "H" 
			},
			{
				"x": -1.2738251661,
				"y": 1.670068323,
				"z": 1.013545846,
				"element": "H" 
			},
			{
				"x": 0.1896660058,
				"y": -0.2623662836,
				"z": 1.1978590173,
				"element": "H" 
			}
		],
		 "valence_orbital": [ 
			{
				"type": "occ",
				"energy": -0.30711,
				"method": "rhf"
			},
			{
				"type": "occ",
				"energy": -0.26742,
				"method": "rhf"
			},
			{
				"type": "occ",
				"energy": -0.2633,
				"method": "rhf"
			},
			{
				"type": "occ",
				"energy": -0.24292,
				"method": "rhf"
			},
			{
				"type": "occ",
				"energy": -0.23228,
				"method": "rhf"
			},
			{
				"type": "unocc",
				"energy": -0.06733,
				"method": "rhf"
			},
			{
				"type": "unocc",
				"energy": -0.00719,
				"method": "rhf"
			},
			{
				"type": "unocc",
				"energy": 0.00379,
				"method": "rhf"
			},
			{
				"type": "unocc",
				"energy": 0.04284,
				"method": "rhf"
			},
			{
				"type": "unocc",
				"energy": 0.0786,
				"method": "rhf"
			}
		],
		"cosmo_sigma_profile": { 
			"-0.025": 0.0,
			"-0.024": 0.0,
			"-0.023": 0.0,
			"-0.022": 0.0,
			"-0.021": 0.0,
			"-0.02": 0.0,
			"-0.019": 0.0,
			"-0.018": 0.0,
			"-0.017": 0.0,
			"-0.016": 0.0,
			"-0.015": 0.0613837652583,
			"-0.014": 1.07794352983,
			"-0.013": 1.23678803523,
			"-0.012": 0.941250910521,
			"-0.011": 0.834747157862,
			"-0.01": 1.81151831262,
			"-0.009": 1.69538331403,
			"-0.008": 3.04300887464,
			"-0.007": 7.79050218116,
			"-0.006": 11.9798874799,
			"-0.005": 17.0850011618,
			"-0.004": 14.8663155181,
			"-0.003": 21.735678648,
			"-0.002": 28.8218506511,
			"-0.001": 27.5400701395,
			"0.0": 22.8536807956,
			"0.001": 21.4895811697,
			"0.002": 19.2570252764,
			"0.003": 15.6884747069,
			"0.004": 7.68943182353,
			"0.005": 3.85200743239,
			"0.006": 4.36179819681,
			"0.007": 4.47854169802,
			"0.008": 3.90182242911,
			"0.009": 4.96607629047,
			"0.01": 3.8279819691,
			"0.011": 4.99011206108,
			"0.012": 4.56529298949,
			"0.013": 5.22571972756,
			"0.014": 1.54186969073,
			"0.015": 0.0469303614613,
			"0.016": 0.0,
			"0.017": 0.0,
			"0.018": 0.0,
			"0.019": 0.0,
			"0.02": 0.0,
			"0.021": 0.0,
			"0.022": 0.0,
			"0.023": 0.0,
			"0.024": 0.0,
			"0.025": 0.0
		}
	}
}
