{
	 "smiles": "CC(C)(N)C1CCC(C)(N)CC1", 
	 "Tm": 228.15, 
	 "num_atms": 34, 
	 "gaussian": { 
		 "optdone": 1, 
		 "sigma_profile": "yes", 
		 "theory": "DFT", 
		 "functional": "B3LYP", 
		 "basiset": "6-31G**", 
		 "properties": { 
			 "R2extent": 2727.7029, 
			 "electric_dipole_moment_norm": 1.2841338287, 
			 "electric_quadrupole_moment_norm": 9.22960868997, 
			 "total_energy": -503.847694511, 
			 "HOMO_LUMO_gap": 0.29579, 
			 "cosmo_polarized_energy": -9.2, 
			 "cosmo_cavitation_energy": 31.3, 
			 "cosmo_dispersion_energy": -22.3, 
			 "cosmo_repulsion_energy": 1.74, 
			 "cosmo_total_nonelectrostatic_energy": 10.74, 
			 "SMD_solvation_energy": 3.13 
		},
		"coords": [
			{
				"x": 1.7261179883,
				"y": 1.186066724,
				"z": -2.0353742479,
				"element": "C" 
			},
			{
				"x": 0.6903601891,
				"y": 0.0458135411,
				"z": -2.0084213276,
				"element": "C" 
			},
			{
				"x": -0.0933410122,
				"y": 0.0813755906,
				"z": -3.334487639,
				"element": "C" 
			},
			{
				"x": 1.4505023807,
				"y": -1.218719014,
				"z": -1.9975508951,
				"element": "N" 
			},
			{
				"x": -0.2909514831,
				"y": 0.2286035462,
				"z": -0.7902533544,
				"element": "C" 
			},
			{
				"x": 0.4269164006,
				"y": 0.2842078162,
				"z": 0.5746841336,
				"element": "C" 
			},
			{
				"x": -0.5524944812,
				"y": 0.4889612035,
				"z": 1.7429907543,
				"element": "C" 
			},
			{
				"x": -1.6905066414,
				"y": -0.5587636842,
				"z": 1.8172279586,
				"element": "C" 
			},
			{
				"x": -1.1523237651,
				"y": -1.9358593546,
				"z": 2.2407402888,
				"element": "C" 
			},
			{
				"x": -2.7258301566,
				"y": -0.1960833962,
				"z": 2.804505762,
				"element": "N" 
			},
			{
				"x": -2.3766657604,
				"y": -0.6250024362,
				"z": 0.4373945867,
				"element": "C" 
			},
			{
				"x": -1.4056144554,
				"y": -0.8374122492,
				"z": -0.7346570195,
				"element": "C" 
			},
			{
				"x": 2.3356524616,
				"y": 1.1091982416,
				"z": -2.9397719709,
				"element": "H" 
			},
			{
				"x": 2.4053559195,
				"y": 1.1428837134,
				"z": -1.1782868921,
				"element": "H" 
			},
			{
				"x": 1.2361055002,
				"y": 2.1657065312,
				"z": -2.026371152,
				"element": "H" 
			},
			{
				"x": 0.6043514634,
				"y": 0.0572660579,
				"z": -4.1759192118,
				"element": "H" 
			},
			{
				"x": -0.7010891114,
				"y": 0.9895234197,
				"z": -3.410203862,
				"element": "H" 
			},
			{
				"x": -0.7616631421,
				"y": -0.778965652,
				"z": -3.4388564057,
				"element": "H" 
			},
			{
				"x": 2.0079771641,
				"y": -1.2921896984,
				"z": -1.149712105,
				"element": "H" 
			},
			{
				"x": 0.8173858715,
				"y": -2.015033991,
				"z": -2.0020188473,
				"element": "H" 
			},
			{
				"x": -0.782487659,
				"y": 1.2040061195,
				"z": -0.9372458853,
				"element": "H" 
			},
			{
				"x": 0.9921800594,
				"y": -0.6454416873,
				"z": 0.728510106,
				"element": "H" 
			},
			{
				"x": 1.1622226729,
				"y": 1.0952475308,
				"z": 0.5901606084,
				"element": "H" 
			},
			{
				"x": -0.0044369547,
				"y": 0.5025297883,
				"z": 2.6952208386,
				"element": "H" 
			},
			{
				"x": -1.0165527058,
				"y": 1.480991496,
				"z": 1.6399397592,
				"element": "H" 
			},
			{
				"x": -1.9742166449,
				"y": -2.6549912027,
				"z": 2.3001423295,
				"element": "H" 
			},
			{
				"x": -0.6838127436,
				"y": -1.8764573902,
				"z": 3.2307977232,
				"element": "H" 
			},
			{
				"x": -0.4013356405,
				"y": -2.3228702126,
				"z": 1.5473301546,
				"element": "H" 
			},
			{
				"x": -3.0870798336,
				"y": 0.7326397232,
				"z": 2.5903784824,
				"element": "H" 
			},
			{
				"x": -2.3016575493,
				"y": -0.1233440842,
				"z": 3.7285390086,
				"element": "H" 
			},
			{
				"x": -2.9133725511,
				"y": 0.3224256336,
				"z": 0.2795165435,
				"element": "H" 
			},
			{
				"x": -3.1401820455,
				"y": -1.4109938886,
				"z": 0.4535564028,
				"element": "H" 
			},
			{
				"x": -1.9833223662,
				"y": -0.8367228701,
				"z": -1.6643915214,
				"element": "H" 
			},
			{
				"x": -0.9515913682,
				"y": -1.8350958654,
				"z": -0.6576131041,
				"element": "H" 
			}
		],
		 "valence_orbital": [ 
			{
				"type": "occ",
				"energy": -0.31248,
				"method": "rhf"
			},
			{
				"type": "occ",
				"energy": -0.305,
				"method": "rhf"
			},
			{
				"type": "occ",
				"energy": -0.28925,
				"method": "rhf"
			},
			{
				"type": "occ",
				"energy": -0.22924,
				"method": "rhf"
			},
			{
				"type": "occ",
				"energy": -0.22716,
				"method": "rhf"
			},
			{
				"type": "unocc",
				"energy": 0.06863,
				"method": "rhf"
			},
			{
				"type": "unocc",
				"energy": 0.07713,
				"method": "rhf"
			},
			{
				"type": "unocc",
				"energy": 0.09171,
				"method": "rhf"
			},
			{
				"type": "unocc",
				"energy": 0.11709,
				"method": "rhf"
			},
			{
				"type": "unocc",
				"energy": 0.11885,
				"method": "rhf"
			}
		],
		"cosmo_sigma_profile": { 
			"-0.025": 0.0,
			"-0.024": 0.0,
			"-0.023": 0.0,
			"-0.022": 0.0,
			"-0.021": 0.0,
			"-0.02": 0.0,
			"-0.019": 0.0,
			"-0.018": 0.0,
			"-0.017": 0.0,
			"-0.016": 0.0,
			"-0.015": 0.0,
			"-0.014": 0.0,
			"-0.013": 0.0,
			"-0.012": 0.0,
			"-0.011": 0.0,
			"-0.01": 0.0,
			"-0.009": 0.838395674048,
			"-0.008": 3.64628543015,
			"-0.007": 5.55972212702,
			"-0.006": 7.02924697645,
			"-0.005": 8.43320222758,
			"-0.004": 8.04264289476,
			"-0.003": 17.785781102,
			"-0.002": 33.4646755737,
			"-0.001": 36.4790883638,
			"0.0": 34.9207652734,
			"0.001": 33.8274725861,
			"0.002": 18.9627571667,
			"0.003": 4.37562280664,
			"0.004": 2.6104850097,
			"0.005": 1.6309448076,
			"0.006": 1.82083749368,
			"0.007": 1.38093025198,
			"0.008": 1.95872508422,
			"0.009": 1.76630365019,
			"0.01": 1.74989176233,
			"0.011": 1.47232595301,
			"0.012": 1.82049009573,
			"0.013": 0.610842883534,
			"0.014": 0.948348222844,
			"0.015": 1.31471511909,
			"0.016": 1.8905227572,
			"0.017": 0.755200825498,
			"0.018": 1.04255855179,
			"0.019": 0.904532705584,
			"0.02": 0.793413791794,
			"0.021": 0.0181908089315,
			"0.022": 0.0,
			"0.023": 0.0,
			"0.024": 0.0,
			"0.025": 0.0
		}
	}
}
