{
	 "smiles": "COC1=CC=C(C=C1)N=C=S", 
	 "Tm": 291.65, 
	 "num_atms": 18, 
	 "gaussian": { 
		 "optdone": 1, 
		 "sigma_profile": "yes", 
		 "theory": "DFT", 
		 "functional": "B3LYP", 
		 "basiset": "6-31G**", 
		 "properties": { 
			 "R2extent": 5089.4643, 
			 "electric_dipole_moment_norm": 5.29700065037, 
			 "electric_quadrupole_moment_norm": 23.1362326866, 
			 "total_energy": -837.21501267, 
			 "HOMO_LUMO_gap": 0.1782, 
			 "cosmo_polarized_energy": -7.72, 
			 "cosmo_cavitation_energy": 25.47, 
			 "cosmo_dispersion_energy": -19.14, 
			 "cosmo_repulsion_energy": 1.51, 
			 "cosmo_total_nonelectrostatic_energy": 7.84, 
			 "SMD_solvation_energy": 5.81 
		},
		"coords": [
			{
				"x": -0.7070849887,
				"y": -0.1991500299,
				"z": -2.7306771775,
				"element": "C" 
			},
			{
				"x": -0.3415819021,
				"y": -1.1207046954,
				"z": -1.7134177025,
				"element": "O" 
			},
			{
				"x": 0.6624675666,
				"y": -0.7799441513,
				"z": -0.8606797187,
				"element": "C" 
			},
			{
				"x": 1.3753683665,
				"y": 0.4255872139,
				"z": -0.907783119,
				"element": "C" 
			},
			{
				"x": 2.3879969618,
				"y": 0.6714728433,
				"z": 0.0182053446,
				"element": "C" 
			},
			{
				"x": 2.699058391,
				"y": -0.2801133957,
				"z": 0.9980458399,
				"element": "C" 
			},
			{
				"x": 1.9813621958,
				"y": -1.4904041091,
				"z": 1.0432519452,
				"element": "C" 
			},
			{
				"x": 0.9753262293,
				"y": -1.7335657604,
				"z": 0.1226187487,
				"element": "C" 
			},
			{
				"x": 3.6971534568,
				"y": -0.0354876074,
				"z": 1.9093406372,
				"element": "N" 
			},
			{
				"x": 4.5578519797,
				"y": 0.1760797474,
				"z": 2.6970880708,
				"element": "C" 
			},
			{
				"x": 5.7183944673,
				"y": 0.4613288388,
				"z": 3.7564783823,
				"element": "S" 
			},
			{
				"x": -1.5186218694,
				"y": -0.6713414825,
				"z": -3.2856859852,
				"element": "H" 
			},
			{
				"x": -1.0625082027,
				"y": 0.7490246572,
				"z": -2.3077454989,
				"element": "H" 
			},
			{
				"x": 0.1285249224,
				"y": 0.0012193426,
				"z": -3.4131967652,
				"element": "H" 
			},
			{
				"x": 1.1534459398,
				"y": 1.1768805349,
				"z": -1.6557689563,
				"element": "H" 
			},
			{
				"x": 2.9430055098,
				"y": 1.6029010926,
				"z": -0.0134280468,
				"element": "H" 
			},
			{
				"x": 2.2244006307,
				"y": -2.2251131829,
				"z": 1.803241948,
				"element": "H" 
			},
			{
				"x": 0.4117403454,
				"y": -2.6601698563,
				"z": 0.1422120534,
				"element": "H" 
			}
		],
		 "valence_orbital": [ 
			{
				"type": "occ",
				"energy": -0.33606,
				"method": "rhf"
			},
			{
				"type": "occ",
				"energy": -0.27319,
				"method": "rhf"
			},
			{
				"type": "occ",
				"energy": -0.268,
				"method": "rhf"
			},
			{
				"type": "occ",
				"energy": -0.24575,
				"method": "rhf"
			},
			{
				"type": "occ",
				"energy": -0.21467,
				"method": "rhf"
			},
			{
				"type": "unocc",
				"energy": -0.03647,
				"method": "rhf"
			},
			{
				"type": "unocc",
				"energy": -0.02047,
				"method": "rhf"
			},
			{
				"type": "unocc",
				"energy": 0.01069,
				"method": "rhf"
			},
			{
				"type": "unocc",
				"energy": 0.05556,
				"method": "rhf"
			},
			{
				"type": "unocc",
				"energy": 0.07536,
				"method": "rhf"
			}
		],
		"cosmo_sigma_profile": { 
			"-0.025": 0.0,
			"-0.024": 0.0,
			"-0.023": 0.0,
			"-0.022": 0.0,
			"-0.021": 0.0,
			"-0.02": 0.0,
			"-0.019": 0.0,
			"-0.018": 0.0,
			"-0.017": 0.0,
			"-0.016": 0.0,
			"-0.015": 0.0,
			"-0.014": 0.0,
			"-0.013": 0.0,
			"-0.012": 0.0,
			"-0.011": 0.0,
			"-0.01": 0.0,
			"-0.009": 0.0,
			"-0.008": 0.963726450391,
			"-0.007": 7.79840170315,
			"-0.006": 14.4401062914,
			"-0.005": 16.5182582442,
			"-0.004": 14.441432608,
			"-0.003": 13.4100391944,
			"-0.002": 10.637815043,
			"-0.001": 16.0008261237,
			"0.0": 18.6061755583,
			"0.001": 14.1659725173,
			"0.002": 16.6452936951,
			"0.003": 20.6013762341,
			"0.004": 10.2344299427,
			"0.005": 8.18226836541,
			"0.006": 12.6086681676,
			"0.007": 9.49056155326,
			"0.008": 1.19570928262,
			"0.009": 1.46462447821,
			"0.01": 0.91596013212,
			"0.011": 0.0,
			"0.012": 0.0,
			"0.013": 0.0,
			"0.014": 0.0,
			"0.015": 0.0,
			"0.016": 0.0,
			"0.017": 0.0,
			"0.018": 0.0,
			"0.019": 0.0,
			"0.02": 0.0,
			"0.021": 0.0,
			"0.022": 0.0,
			"0.023": 0.0,
			"0.024": 0.0,
			"0.025": 0.0
		}
	}
}
