{
	 "smiles": "CN1C=C(CN=[N+]=[N-])C(=N1)C1=CC=C(C=C1)C#N", 
	 "Tm": 375.15, 
	 "num_atms": 28, 
	 "gaussian": { 
		 "optdone": 1, 
		 "sigma_profile": "yes", 
		 "theory": "DFT", 
		 "functional": "B3LYP", 
		 "basiset": "6-31G**", 
		 "properties": { 
			 "R2extent": 5861.757, 
			 "electric_dipole_moment_norm": 6.32331002087, 
			 "electric_quadrupole_moment_norm": 23.3558272258, 
			 "total_energy": -791.709001207, 
			 "HOMO_LUMO_gap": 0.1778, 
			 "cosmo_polarized_energy": -16.05, 
			 "cosmo_cavitation_energy": 35.48, 
			 "cosmo_dispersion_energy": -24.11, 
			 "cosmo_repulsion_energy": 1.89, 
			 "cosmo_total_nonelectrostatic_energy": 13.26, 
			 "SMD_solvation_energy": 3.49 
		},
		"coords": [
			{
				"x": -1.14728444,
				"y": 1.7577844832,
				"z": 3.5131143972,
				"element": "C" 
			},
			{
				"x": -0.8919875245,
				"y": 1.5523936855,
				"z": 2.098418286,
				"element": "N" 
			},
			{
				"x": -1.1605357091,
				"y": 2.3985577385,
				"z": 1.0704377216,
				"element": "C" 
			},
			{
				"x": -0.6909471976,
				"y": 1.7997014695,
				"z": -0.0845132981,
				"element": "C" 
			},
			{
				"x": -0.8161490279,
				"y": 2.3487225795,
				"z": -1.4810428385,
				"element": "C" 
			},
			{
				"x": -1.890552565,
				"y": 3.3643486035,
				"z": -1.6090813207,
				"element": "N" 
			},
			{
				"x": -3.0449482541,
				"y": 2.918607425,
				"z": -1.6345059339,
				"element": "N" 
			},
			{
				"x": -4.1522114842,
				"y": 2.6427836355,
				"z": -1.6763674717,
				"element": "N" 
			},
			{
				"x": -0.1315492046,
				"y": 0.5650781004,
				"z": 0.3633615458,
				"element": "C" 
			},
			{
				"x": -0.2666590838,
				"y": 0.4371420096,
				"z": 1.6928710442,
				"element": "N" 
			},
			{
				"x": 0.501511968,
				"y": -0.5200851123,
				"z": -0.4027186229,
				"element": "C" 
			},
			{
				"x": 0.480273859,
				"y": -1.8334429711,
				"z": 0.1046517799,
				"element": "C" 
			},
			{
				"x": 1.0706339914,
				"y": -2.8783244278,
				"z": -0.5912590654,
				"element": "C" 
			},
			{
				"x": 1.7009509441,
				"y": -2.6366202083,
				"z": -1.8257424835,
				"element": "C" 
			},
			{
				"x": 1.737638269,
				"y": -1.3300855681,
				"z": -2.337553627,
				"element": "C" 
			},
			{
				"x": 1.1485054384,
				"y": -0.2880639699,
				"z": -1.6289700218,
				"element": "C" 
			},
			{
				"x": 2.3051540005,
				"y": -3.7135652678,
				"z": -2.5527853778,
				"element": "C" 
			},
			{
				"x": 2.7954395542,
				"y": -4.5880646259,
				"z": -3.1435333906,
				"element": "N" 
			},
			{
				"x": -1.5945997429,
				"y": 0.8549136214,
				"z": 3.9328825651,
				"element": "H" 
			},
			{
				"x": -0.2167815063,
				"y": 1.9758352748,
				"z": 4.0454539589,
				"element": "H" 
			},
			{
				"x": -1.8370255319,
				"y": 2.5948832499,
				"z": 3.6311134928,
				"element": "H" 
			},
			{
				"x": -1.6699150446,
				"y": 3.3389560305,
				"z": 1.218905453,
				"element": "H" 
			},
			{
				"x": 0.0916199392,
				"y": 2.8788973745,
				"z": -1.7859674118,
				"element": "H" 
			},
			{
				"x": -0.9703323878,
				"y": 1.5349806343,
				"z": -2.2009774549,
				"element": "H" 
			},
			{
				"x": -0.0095963521,
				"y": -2.0165291407,
				"z": 1.0542263269,
				"element": "H" 
			},
			{
				"x": 1.044515275,
				"y": -3.88699902,
				"z": -0.1925106623,
				"element": "H" 
			},
			{
				"x": 2.2368960718,
				"y": -1.1374109126,
				"z": -3.2812379944,
				"element": "H" 
			},
			{
				"x": 1.2233357457,
				"y": 0.7188053089,
				"z": -2.0241695961,
				"element": "H" 
			}
		],
		 "valence_orbital": [ 
			{
				"type": "occ",
				"energy": -0.29175,
				"method": "rhf"
			},
			{
				"type": "occ",
				"energy": -0.27481,
				"method": "rhf"
			},
			{
				"type": "occ",
				"energy": -0.2677,
				"method": "rhf"
			},
			{
				"type": "occ",
				"energy": -0.25682,
				"method": "rhf"
			},
			{
				"type": "occ",
				"energy": -0.23752,
				"method": "rhf"
			},
			{
				"type": "unocc",
				"energy": -0.05972,
				"method": "rhf"
			},
			{
				"type": "unocc",
				"energy": -0.03736,
				"method": "rhf"
			},
			{
				"type": "unocc",
				"energy": -0.02319,
				"method": "rhf"
			},
			{
				"type": "unocc",
				"energy": 0.00193,
				"method": "rhf"
			},
			{
				"type": "unocc",
				"energy": 0.00434,
				"method": "rhf"
			}
		],
		"cosmo_sigma_profile": { 
			"-0.025": 0.0,
			"-0.024": 0.0,
			"-0.023": 0.0,
			"-0.022": 0.0,
			"-0.021": 0.0,
			"-0.02": 0.0,
			"-0.019": 0.0,
			"-0.018": 0.0,
			"-0.017": 0.0,
			"-0.016": 0.0,
			"-0.015": 0.0,
			"-0.014": 0.0,
			"-0.013": 0.0,
			"-0.012": 0.0,
			"-0.011": 0.0,
			"-0.01": 0.124804475051,
			"-0.009": 3.16744036472,
			"-0.008": 9.39993845991,
			"-0.007": 15.1547016494,
			"-0.006": 19.9464057985,
			"-0.005": 18.5364753416,
			"-0.004": 19.3972693319,
			"-0.003": 22.8686354178,
			"-0.002": 16.3076853764,
			"-0.001": 17.2373406387,
			"0.0": 18.4021800759,
			"0.001": 17.596277709,
			"0.002": 25.0230485387,
			"0.003": 17.8400849699,
			"0.004": 9.41247047562,
			"0.005": 8.85169588637,
			"0.006": 8.2224316795,
			"0.007": 9.93305738582,
			"0.008": 7.76530378338,
			"0.009": 6.04368740608,
			"0.01": 4.92032131953,
			"0.011": 4.6157710407,
			"0.012": 2.88131608134,
			"0.013": 2.61675090336,
			"0.014": 0.514677677725,
			"0.015": 0.0,
			"0.016": 0.0,
			"0.017": 0.0,
			"0.018": 0.0,
			"0.019": 0.0,
			"0.02": 0.0,
			"0.021": 0.0,
			"0.022": 0.0,
			"0.023": 0.0,
			"0.024": 0.0,
			"0.025": 0.0
		}
	}
}
