{
	 "smiles": "CC1=C(C=NO1)C(=O)NC1=CC(=C(N)C=C1)C(F)(F)F", 
	 "Tm": 470.15, 
	 "num_atms": 30, 
	 "gaussian": { 
		 "optdone": 1, 
		 "sigma_profile": "yes", 
		 "theory": "DFT", 
		 "functional": "B3LYP", 
		 "basiset": "6-31G**", 
		 "properties": { 
			 "R2extent": 8594.2373, 
			 "electric_dipole_moment_norm": 2.97443730645, 
			 "electric_quadrupole_moment_norm": 26.0064152657, 
			 "total_energy": -1077.5058925, 
			 "HOMO_LUMO_gap": 0.16275, 
			 "cosmo_polarized_energy": -19.66, 
			 "cosmo_cavitation_energy": 36.41, 
			 "cosmo_dispersion_energy": -25.83, 
			 "cosmo_repulsion_energy": 1.89, 
			 "cosmo_total_nonelectrostatic_energy": 12.47, 
			 "SMD_solvation_energy": 7.69 
		},
		"coords": [
			{
				"x": 1.9144250538,
				"y": 2.9353180134,
				"z": -1.5442193511,
				"element": "C" 
			},
			{
				"x": 2.0839591119,
				"y": 3.6181159934,
				"z": -0.2277702088,
				"element": "C" 
			},
			{
				"x": 1.783585802,
				"y": 3.3016759204,
				"z": 1.0759238618,
				"element": "C" 
			},
			{
				"x": 2.1977986511,
				"y": 4.4615844471,
				"z": 1.7985053455,
				"element": "C" 
			},
			{
				"x": 2.7135451596,
				"y": 5.3806325326,
				"z": 1.0266085058,
				"element": "N" 
			},
			{
				"x": 2.6370761088,
				"y": 4.8442976991,
				"z": -0.2713370113,
				"element": "O" 
			},
			{
				"x": 1.1365637293,
				"y": 2.1334008676,
				"z": 1.7221113381,
				"element": "C" 
			},
			{
				"x": 0.6428015022,
				"y": 2.2352387334,
				"z": 2.8416418325,
				"element": "O" 
			},
			{
				"x": 1.1452778922,
				"y": 0.9685436228,
				"z": 0.9870089364,
				"element": "N" 
			},
			{
				"x": 0.5999983306,
				"y": -0.2899683244,
				"z": 1.3327967032,
				"element": "C" 
			},
			{
				"x": 0.8312391479,
				"y": -1.3577713643,
				"z": 0.4625755803,
				"element": "C" 
			},
			{
				"x": 0.3226781279,
				"y": -2.6312356911,
				"z": 0.7189458912,
				"element": "C" 
			},
			{
				"x": -0.4470111879,
				"y": -2.8753574683,
				"z": 1.8794313495,
				"element": "C" 
			},
			{
				"x": -1.0140524318,
				"y": -4.1137309848,
				"z": 2.1473401112,
				"element": "N" 
			},
			{
				"x": -0.6705757553,
				"y": -1.7876483439,
				"z": 2.7419615424,
				"element": "C" 
			},
			{
				"x": -0.1669861089,
				"y": -0.5193077147,
				"z": 2.4867996764,
				"element": "C" 
			},
			{
				"x": 0.5660878984,
				"y": -3.7306406379,
				"z": -0.272627554,
				"element": "C" 
			},
			{
				"x": -0.5714772614,
				"y": -4.1357135943,
				"z": -0.8812060759,
				"element": "F" 
			},
			{
				"x": 1.4319881358,
				"y": -3.3731979618,
				"z": -1.2434664182,
				"element": "F" 
			},
			{
				"x": 1.0862404392,
				"y": -4.845288335,
				"z": 0.3242423221,
				"element": "F" 
			},
			{
				"x": 2.7687429822,
				"y": 2.2868618882,
				"z": -1.7755544513,
				"element": "H" 
			},
			{
				"x": 1.0046784812,
				"y": 2.3293523596,
				"z": -1.5546863226,
				"element": "H" 
			},
			{
				"x": 1.8443714209,
				"y": 3.6805857218,
				"z": -2.3397149934,
				"element": "H" 
			},
			{
				"x": 2.1220169389,
				"y": 4.6245264489,
				"z": 2.8652910106,
				"element": "H" 
			},
			{
				"x": 1.6967575625,
				"y": 0.9725697183,
				"z": 0.1421227441,
				"element": "H" 
			},
			{
				"x": 1.4207193616,
				"y": -1.2096018817,
				"z": -0.4368033874,
				"element": "H" 
			},
			{
				"x": -1.3067838573,
				"y": -4.2535234059,
				"z": 3.103482296,
				"element": "H" 
			},
			{
				"x": -0.5446553026,
				"y": -4.9174258491,
				"z": 1.7566524651,
				"element": "H" 
			},
			{
				"x": -1.2595277024,
				"y": -1.9473025354,
				"z": 3.6414983278,
				"element": "H" 
			},
			{
				"x": -0.3471822306,
				"y": 0.2944101262,
				"z": 3.174645934,
				"element": "H" 
			}
		],
		 "valence_orbital": [ 
			{
				"type": "occ",
				"energy": -0.28696,
				"method": "rhf"
			},
			{
				"type": "occ",
				"energy": -0.27296,
				"method": "rhf"
			},
			{
				"type": "occ",
				"energy": -0.26994,
				"method": "rhf"
			},
			{
				"type": "occ",
				"energy": -0.26461,
				"method": "rhf"
			},
			{
				"type": "occ",
				"energy": -0.20507,
				"method": "rhf"
			},
			{
				"type": "unocc",
				"energy": -0.04232,
				"method": "rhf"
			},
			{
				"type": "unocc",
				"energy": -0.0261,
				"method": "rhf"
			},
			{
				"type": "unocc",
				"energy": -0.01209,
				"method": "rhf"
			},
			{
				"type": "unocc",
				"energy": 0.01842,
				"method": "rhf"
			},
			{
				"type": "unocc",
				"energy": 0.04944,
				"method": "rhf"
			}
		],
		"cosmo_sigma_profile": { 
			"-0.025": 0.0,
			"-0.024": 0.0,
			"-0.023": 0.0,
			"-0.022": 0.0,
			"-0.021": 0.0,
			"-0.02": 0.0,
			"-0.019": 0.0,
			"-0.018": 0.0,
			"-0.017": 0.0,
			"-0.016": 0.0,
			"-0.015": 0.294219744748,
			"-0.014": 1.6708035047,
			"-0.013": 2.97998462567,
			"-0.012": 2.76136983595,
			"-0.011": 4.28554638511,
			"-0.01": 4.89731756213,
			"-0.009": 5.6558644698,
			"-0.008": 6.93850004316,
			"-0.007": 10.3466806582,
			"-0.006": 12.3051761412,
			"-0.005": 12.3922077202,
			"-0.004": 12.586253303,
			"-0.003": 15.6552378066,
			"-0.002": 16.3240728185,
			"-0.001": 16.098837418,
			"0.0": 17.7371159886,
			"0.001": 19.8882226662,
			"0.002": 29.6144374552,
			"0.003": 36.197102982,
			"0.004": 16.3846945483,
			"0.005": 8.0799131191,
			"0.006": 5.11979197226,
			"0.007": 8.48800391755,
			"0.008": 4.81588339347,
			"0.009": 3.64920262201,
			"0.01": 3.67145997444,
			"0.011": 4.7877036666,
			"0.012": 4.30129574329,
			"0.013": 3.77495774203,
			"0.014": 0.401516434998,
			"0.015": 0.0,
			"0.016": 0.0,
			"0.017": 0.0,
			"0.018": 0.0,
			"0.019": 0.0,
			"0.02": 0.0,
			"0.021": 0.0,
			"0.022": 0.0,
			"0.023": 0.0,
			"0.024": 0.0,
			"0.025": 0.0
		}
	}
}
