{
	 "smiles": "CC(Cl)C(=O)C1=C(C)N(C(C)=C1)C1=CC=CC=C1", 
	 "Tm": 353.15, 
	 "num_atms": 34, 
	 "gaussian": { 
		 "optdone": 1, 
		 "sigma_profile": "yes", 
		 "theory": "DFT", 
		 "functional": "B3LYP", 
		 "basiset": "6-31G**", 
		 "properties": { 
			 "R2extent": 6580.7673, 
			 "electric_dipole_moment_norm": 6.37416228614, 
			 "electric_quadrupole_moment_norm": 17.5702666437, 
			 "total_energy": -1171.41831959, 
			 "HOMO_LUMO_gap": 0.16745, 
			 "cosmo_polarized_energy": -13.02, 
			 "cosmo_cavitation_energy": 38.54, 
			 "cosmo_dispersion_energy": -26.4, 
			 "cosmo_repulsion_energy": 2.06, 
			 "cosmo_total_nonelectrostatic_energy": 14.19, 
			 "SMD_solvation_energy": 6.91 
		},
		"coords": [
			{
				"x": 3.2563257408,
				"y": -2.6052694285,
				"z": -1.9053219229,
				"element": "C" 
			},
			{
				"x": 1.877883272,
				"y": -2.1638470561,
				"z": -1.4492406173,
				"element": "C" 
			},
			{
				"x": 0.7388840973,
				"y": -3.6152186755,
				"z": -1.4190836539,
				"element": "Cl" 
			},
			{
				"x": 1.2558960211,
				"y": -1.1058788559,
				"z": -2.3856263125,
				"element": "C" 
			},
			{
				"x": 1.6687818591,
				"y": -1.0412360006,
				"z": -3.5380204044,
				"element": "O" 
			},
			{
				"x": 0.2250436915,
				"y": -0.1859956568,
				"z": -1.8982772241,
				"element": "C" 
			},
			{
				"x": -0.3879147704,
				"y": -0.0498860554,
				"z": -0.6466600466,
				"element": "C" 
			},
			{
				"x": -0.2509987789,
				"y": -0.8117123455,
				"z": 0.637248526,
				"element": "C" 
			},
			{
				"x": -1.2720066783,
				"y": 1.0067370227,
				"z": -0.7478558802,
				"element": "N" 
			},
			{
				"x": -1.2386727002,
				"y": 1.5473731748,
				"z": -2.0410874535,
				"element": "C" 
			},
			{
				"x": -2.0825192899,
				"y": 2.7153371407,
				"z": -2.4388263059,
				"element": "C" 
			},
			{
				"x": -0.3246464048,
				"y": 0.824856984,
				"z": -2.7538246752,
				"element": "C" 
			},
			{
				"x": -2.1099189879,
				"y": 1.5008043005,
				"z": 0.3048182686,
				"element": "C" 
			},
			{
				"x": -1.5804494152,
				"y": 2.3573095049,
				"z": 1.2750925957,
				"element": "C" 
			},
			{
				"x": -2.40301378,
				"y": 2.8468715386,
				"z": 2.2904831532,
				"element": "C" 
			},
			{
				"x": -3.7518920122,
				"y": 2.4881042108,
				"z": 2.3344345379,
				"element": "C" 
			},
			{
				"x": -4.278660175,
				"y": 1.6348062558,
				"z": 1.3625550203,
				"element": "C" 
			},
			{
				"x": -3.4598232334,
				"y": 1.138046108,
				"z": 0.3475736512,
				"element": "C" 
			},
			{
				"x": 3.2234231945,
				"y": -2.9418573401,
				"z": -2.9419585788,
				"element": "H" 
			},
			{
				"x": 3.9417138635,
				"y": -1.7522798429,
				"z": -1.8498546833,
				"element": "H" 
			},
			{
				"x": 3.6376036448,
				"y": -3.4043829119,
				"z": -1.2657512584,
				"element": "H" 
			},
			{
				"x": 1.8953436676,
				"y": -1.8148098437,
				"z": -0.4167024579,
				"element": "H" 
			},
			{
				"x": 0.6597872697,
				"y": -0.537567505,
				"z": 1.1853568837,
				"element": "H" 
			},
			{
				"x": -1.0955433493,
				"y": -0.609861966,
				"z": 1.2994730203,
				"element": "H" 
			},
			{
				"x": -0.2221338671,
				"y": -1.8879952573,
				"z": 0.4536942521,
				"element": "H" 
			},
			{
				"x": -1.8955201902,
				"y": 3.5944474718,
				"z": -1.8105896034,
				"element": "H" 
			},
			{
				"x": -3.1556121835,
				"y": 2.4991841291,
				"z": -2.377636683,
				"element": "H" 
			},
			{
				"x": -1.8544346068,
				"y": 2.9857450538,
				"z": -3.4722787749,
				"element": "H" 
			},
			{
				"x": -0.0440337778,
				"y": 0.974483597,
				"z": -3.7857029697,
				"element": "H" 
			},
			{
				"x": -0.5320000332,
				"y": 2.6340773777,
				"z": 1.2243290887,
				"element": "H" 
			},
			{
				"x": -1.9903926956,
				"y": 3.510983428,
				"z": 3.044052684,
				"element": "H" 
			},
			{
				"x": -4.3906667654,
				"y": 2.8719334444,
				"z": 3.1242565837,
				"element": "H" 
			},
			{
				"x": -5.3264072077,
				"y": 1.3515283809,
				"z": 1.3953902925,
				"element": "H" 
			},
			{
				"x": -3.8536254192,
				"y": 0.4667696173,
				"z": -0.4091590518,
				"element": "H" 
			}
		],
		 "valence_orbital": [ 
			{
				"type": "occ",
				"energy": -0.27287,
				"method": "rhf"
			},
			{
				"type": "occ",
				"energy": -0.2725,
				"method": "rhf"
			},
			{
				"type": "occ",
				"energy": -0.24136,
				"method": "rhf"
			},
			{
				"type": "occ",
				"energy": -0.23814,
				"method": "rhf"
			},
			{
				"type": "occ",
				"energy": -0.20789,
				"method": "rhf"
			},
			{
				"type": "unocc",
				"energy": -0.04044,
				"method": "rhf"
			},
			{
				"type": "unocc",
				"energy": -0.02651,
				"method": "rhf"
			},
			{
				"type": "unocc",
				"energy": -0.02386,
				"method": "rhf"
			},
			{
				"type": "unocc",
				"energy": 0.02704,
				"method": "rhf"
			},
			{
				"type": "unocc",
				"energy": 0.05009,
				"method": "rhf"
			}
		],
		"cosmo_sigma_profile": { 
			"-0.025": 0.0,
			"-0.024": 0.0,
			"-0.023": 0.0,
			"-0.022": 0.0,
			"-0.021": 0.0,
			"-0.02": 0.0,
			"-0.019": 0.0,
			"-0.018": 0.0,
			"-0.017": 0.0,
			"-0.016": 0.0,
			"-0.015": 0.0,
			"-0.014": 0.0,
			"-0.013": 0.0,
			"-0.012": 0.0,
			"-0.011": 0.0,
			"-0.01": 0.0,
			"-0.009": 0.0,
			"-0.008": 0.704640998251,
			"-0.007": 6.10795332229,
			"-0.006": 15.7073008553,
			"-0.005": 20.6219876576,
			"-0.004": 27.8557611121,
			"-0.003": 28.3164294472,
			"-0.002": 29.961048385,
			"-0.001": 31.1593966606,
			"0.0": 25.5019382168,
			"0.001": 17.9800417794,
			"0.002": 16.412380997,
			"0.003": 19.7852808907,
			"0.004": 20.2053266196,
			"0.005": 16.5115455466,
			"0.006": 12.6774096005,
			"0.007": 3.84500764449,
			"0.008": 2.09503256573,
			"0.009": 1.72289870973,
			"0.01": 1.85616051854,
			"0.011": 2.48253300921,
			"0.012": 4.10230359272,
			"0.013": 2.34206589863,
			"0.014": 0.0,
			"0.015": 0.0,
			"0.016": 0.0,
			"0.017": 0.0,
			"0.018": 0.0,
			"0.019": 0.0,
			"0.02": 0.0,
			"0.021": 0.0,
			"0.022": 0.0,
			"0.023": 0.0,
			"0.024": 0.0,
			"0.025": 0.0
		}
	}
}
