{
	 "smiles": "NCC1=CC=C(NC(=O)C(F)(F)F)C=C1", 
	 "Tm": 380.15, 
	 "num_atms": 24, 
	 "gaussian": { 
		 "optdone": 1, 
		 "sigma_profile": "yes", 
		 "theory": "DFT", 
		 "functional": "B3LYP", 
		 "basiset": "6-31G**", 
		 "properties": { 
			 "R2extent": 4873.7681, 
			 "electric_dipole_moment_norm": 2.89061760529, 
			 "electric_quadrupole_moment_norm": 23.7548428389, 
			 "total_energy": -832.629289417, 
			 "HOMO_LUMO_gap": 0.19793, 
			 "cosmo_polarized_energy": -13.73, 
			 "cosmo_cavitation_energy": 29.84, 
			 "cosmo_dispersion_energy": -20.83, 
			 "cosmo_repulsion_energy": 1.61, 
			 "cosmo_total_nonelectrostatic_energy": 10.61, 
			 "SMD_solvation_energy": 5.51 
		},
		"coords": [
			{
				"x": 0.1465518348,
				"y": -1.6894288975,
				"z": 2.8572909939,
				"element": "N" 
			},
			{
				"x": -0.9571568741,
				"y": -1.9400838981,
				"z": 1.9168892858,
				"element": "C" 
			},
			{
				"x": -1.1254665916,
				"y": -0.9063548951,
				"z": 0.8163741241,
				"element": "C" 
			},
			{
				"x": -0.4190705703,
				"y": -1.0143254402,
				"z": -0.3889415508,
				"element": "C" 
			},
			{
				"x": -0.5279385042,
				"y": -0.0495084809,
				"z": -1.3880958216,
				"element": "C" 
			},
			{
				"x": -1.3356366462,
				"y": 1.0739431101,
				"z": -1.1810098537,
				"element": "C" 
			},
			{
				"x": -1.5235717175,
				"y": 2.0710724036,
				"z": -2.1831756409,
				"element": "N" 
			},
			{
				"x": -0.6578058562,
				"y": 2.7868534863,
				"z": -2.9639913374,
				"element": "C" 
			},
			{
				"x": -1.0367652867,
				"y": 3.5952210152,
				"z": -3.7917069854,
				"element": "O" 
			},
			{
				"x": 0.8649861153,
				"y": 2.561579055,
				"z": -2.7818746569,
				"element": "C" 
			},
			{
				"x": 1.5354173302,
				"y": 3.5913751246,
				"z": -3.2967731128,
				"element": "F" 
			},
			{
				"x": 1.2584041085,
				"y": 1.4415291664,
				"z": -3.4339826434,
				"element": "F" 
			},
			{
				"x": 1.2169590585,
				"y": 2.4348492408,
				"z": -1.4874951586,
				"element": "F" 
			},
			{
				"x": -2.0559851789,
				"y": 1.1941694996,
				"z": 0.0131825768,
				"element": "C" 
			},
			{
				"x": -1.9546800585,
				"y": 0.2093876766,
				"z": 0.9928775233,
				"element": "C" 
			},
			{
				"x": 0.0220022312,
				"y": -0.7752072847,
				"z": 3.2880667521,
				"element": "H" 
			},
			{
				"x": 1.0229181603,
				"y": -1.6322377141,
				"z": 2.3419589865,
				"element": "H" 
			},
			{
				"x": -0.7940806537,
				"y": -2.9279535108,
				"z": 1.471263391,
				"element": "H" 
			},
			{
				"x": -1.8817740304,
				"y": -2.008479821,
				"z": 2.5011831176,
				"element": "H" 
			},
			{
				"x": 0.2122431284,
				"y": -1.8827994004,
				"z": -0.5627138465,
				"element": "H" 
			},
			{
				"x": 0.0034033874,
				"y": -0.169518526,
				"z": -2.3239114735,
				"element": "H" 
			},
			{
				"x": -2.47837143,
				"y": 2.3726622641,
				"z": -2.3423331969,
				"element": "H" 
			},
			{
				"x": -2.6913063233,
				"y": 2.0615453136,
				"z": 0.1704664465,
				"element": "H" 
			},
			{
				"x": -2.5274756328,
				"y": 0.3129105129,
				"z": 1.9115520808,
				"element": "H" 
			}
		],
		 "valence_orbital": [ 
			{
				"type": "occ",
				"energy": -0.30827,
				"method": "rhf"
			},
			{
				"type": "occ",
				"energy": -0.28225,
				"method": "rhf"
			},
			{
				"type": "occ",
				"energy": -0.26901,
				"method": "rhf"
			},
			{
				"type": "occ",
				"energy": -0.25555,
				"method": "rhf"
			},
			{
				"type": "occ",
				"energy": -0.2339,
				"method": "rhf"
			},
			{
				"type": "unocc",
				"energy": -0.03597,
				"method": "rhf"
			},
			{
				"type": "unocc",
				"energy": -0.02096,
				"method": "rhf"
			},
			{
				"type": "unocc",
				"energy": -0.00098,
				"method": "rhf"
			},
			{
				"type": "unocc",
				"energy": 0.0756,
				"method": "rhf"
			},
			{
				"type": "unocc",
				"energy": 0.07899,
				"method": "rhf"
			}
		],
		"cosmo_sigma_profile": { 
			"-0.025": 0.0,
			"-0.024": 0.0,
			"-0.023": 0.0,
			"-0.022": 0.0,
			"-0.021": 0.0,
			"-0.02": 0.0,
			"-0.019": 0.0,
			"-0.018": 0.0,
			"-0.017": 0.0,
			"-0.016": 0.273447040316,
			"-0.015": 1.04519840745,
			"-0.014": 0.994055052025,
			"-0.013": 0.810335141141,
			"-0.012": 1.00916922373,
			"-0.011": 1.34700668386,
			"-0.01": 1.8244680124,
			"-0.009": 3.46361295142,
			"-0.008": 3.76008722809,
			"-0.007": 6.30064201474,
			"-0.006": 11.637036035,
			"-0.005": 16.7503471679,
			"-0.004": 16.8363549733,
			"-0.003": 15.166869809,
			"-0.002": 13.8284061045,
			"-0.001": 15.8209434254,
			"0.0": 15.0412238093,
			"0.001": 19.9956312557,
			"0.002": 30.1203279267,
			"0.003": 14.1117219007,
			"0.004": 12.6384815169,
			"0.005": 7.1659779841,
			"0.006": 1.80150029723,
			"0.007": 2.05508177993,
			"0.008": 3.01094106393,
			"0.009": 2.40751944701,
			"0.01": 2.73749510097,
			"0.011": 5.47836673208,
			"0.012": 4.39685068327,
			"0.013": 1.3396002182,
			"0.014": 0.442733357591,
			"0.015": 0.704591705456,
			"0.016": 0.334581572855,
			"0.017": 0.717206856255,
			"0.018": 0.793808079198,
			"0.019": 0.628245671923,
			"0.02": 0.211322709617,
			"0.021": 0.0,
			"0.022": 0.0,
			"0.023": 0.0,
			"0.024": 0.0,
			"0.025": 0.0
		}
	}
}
