{
	 "smiles": "COC1=CC=C(C=C1)C1(C)CCC2=C(C3=C1C=C(C)O3)C1=C(O2)C(Br)=CC(Br)=C1", 
	 "Tm": 438.15, 
	 "num_atms": 49, 
	 "gaussian": { 
		 "optdone": 1, 
		 "sigma_profile": "yes", 
		 "theory": "DFT", 
		 "functional": "B3LYP", 
		 "basiset": "6-31G**", 
		 "properties": { 
			 "R2extent": 25402.1275, 
			 "electric_dipole_moment_norm": 4.40749423255, 
			 "electric_quadrupole_moment_norm": 19.1042331903, 
			 "total_energy": -6295.07282987, 
			 "HOMO_LUMO_gap": 0.15694, 
			 "cosmo_polarized_energy": -10.13, 
			 "cosmo_cavitation_energy": 55.41, 
			 "cosmo_dispersion_energy": -39.28, 
			 "cosmo_repulsion_energy": 2.96, 
			 "cosmo_total_nonelectrostatic_energy": 19.09, 
			 "SMD_solvation_energy": 7.78 
		},
		"coords": [
			{
				"x": -5.1853928249,
				"y": 2.2549691366,
				"z": -3.9316757272,
				"element": "C" 
			},
			{
				"x": -5.3290762476,
				"y": 1.0353856078,
				"z": -3.2221993939,
				"element": "O" 
			},
			{
				"x": -4.2996546009,
				"y": 0.6294186415,
				"z": -2.4221768456,
				"element": "C" 
			},
			{
				"x": -4.4912457265,
				"y": -0.5773000398,
				"z": -1.7390138224,
				"element": "C" 
			},
			{
				"x": -3.4998148024,
				"y": -1.0761565183,
				"z": -0.8992558028,
				"element": "C" 
			},
			{
				"x": -2.28504062,
				"y": -0.3983555142,
				"z": -0.7117533723,
				"element": "C" 
			},
			{
				"x": -2.1139823689,
				"y": 0.8063299112,
				"z": -1.4067053136,
				"element": "C" 
			},
			{
				"x": -3.0964822837,
				"y": 1.3248350672,
				"z": -2.2517157897,
				"element": "C" 
			},
			{
				"x": -1.1883788041,
				"y": -0.8875413194,
				"z": 0.258184527,
				"element": "C" 
			},
			{
				"x": -1.4494872936,
				"y": -2.3361604636,
				"z": 0.7359356587,
				"element": "C" 
			},
			{
				"x": -1.2394570745,
				"y": 0.0856104913,
				"z": 1.4829919201,
				"element": "C" 
			},
			{
				"x": -0.3969686032,
				"y": -0.242977819,
				"z": 2.7298492958,
				"element": "C" 
			},
			{
				"x": 1.0744601711,
				"y": -0.151512037,
				"z": 2.5264204774,
				"element": "C" 
			},
			{
				"x": 1.8640372818,
				"y": -0.3018124415,
				"z": 1.4177749544,
				"element": "C" 
			},
			{
				"x": 1.4030851082,
				"y": -0.6313745539,
				"z": 0.0891508191,
				"element": "C" 
			},
			{
				"x": 0.1607619046,
				"y": -0.8704143289,
				"z": -0.4499823084,
				"element": "C" 
			},
			{
				"x": 0.4013625643,
				"y": -1.2030817872,
				"z": -1.8281557168,
				"element": "C" 
			},
			{
				"x": 1.7453087252,
				"y": -1.1372962883,
				"z": -2.0400658637,
				"element": "C" 
			},
			{
				"x": 2.6145431389,
				"y": -1.3538716804,
				"z": -3.2277518538,
				"element": "C" 
			},
			{
				"x": 2.371596041,
				"y": -0.7862494109,
				"z": -0.8744409113,
				"element": "O" 
			},
			{
				"x": 3.2293105083,
				"y": -0.0911253344,
				"z": 1.8677894495,
				"element": "C" 
			},
			{
				"x": 3.1251690497,
				"y": 0.1728156839,
				"z": 3.2459239218,
				"element": "C" 
			},
			{
				"x": 1.8250083583,
				"y": 0.1384482874,
				"z": 3.6469199091,
				"element": "O" 
			},
			{
				"x": 4.2350181102,
				"y": 0.4310600393,
				"z": 4.0407446985,
				"element": "C" 
			},
			{
				"x": 4.0463886872,
				"y": 0.7839756075,
				"z": 5.8968603082,
				"element": "Br" 
			},
			{
				"x": 5.4894459916,
				"y": 0.4234778123,
				"z": 3.4365189815,
				"element": "C" 
			},
			{
				"x": 5.592656387,
				"y": 0.1590716241,
				"z": 2.0615792147,
				"element": "C" 
			},
			{
				"x": 7.3381506588,
				"y": 0.1585960563,
				"z": 1.2749970854,
				"element": "Br" 
			},
			{
				"x": 4.490442791,
				"y": -0.100054297,
				"z": 1.2556369207,
				"element": "C" 
			},
			{
				"x": -6.1104658634,
				"y": 2.3875270112,
				"z": -4.4949741294,
				"element": "H" 
			},
			{
				"x": -4.3399963437,
				"y": 2.2211376043,
				"z": -4.6313159909,
				"element": "H" 
			},
			{
				"x": -5.052445939,
				"y": 3.1070237131,
				"z": -3.2523209229,
				"element": "H" 
			},
			{
				"x": -5.4256219967,
				"y": -1.1109010214,
				"z": -1.8804806131,
				"element": "H" 
			},
			{
				"x": -3.6895390592,
				"y": -2.0137566702,
				"z": -0.3888405858,
				"element": "H" 
			},
			{
				"x": -1.1822749986,
				"y": 1.3547633231,
				"z": -1.3004359168,
				"element": "H" 
			},
			{
				"x": -2.9115830291,
				"y": 2.2593111463,
				"z": -2.7684556347,
				"element": "H" 
			},
			{
				"x": -0.610782903,
				"y": -2.6943662517,
				"z": 1.3375068209,
				"element": "H" 
			},
			{
				"x": -2.3567879371,
				"y": -2.4030979934,
				"z": 1.3471220704,
				"element": "H" 
			},
			{
				"x": -1.553620027,
				"y": -3.0163112653,
				"z": -0.114053894,
				"element": "H" 
			},
			{
				"x": -2.2852825303,
				"y": 0.1270801156,
				"z": 1.8053753039,
				"element": "H" 
			},
			{
				"x": -0.9849349814,
				"y": 1.0939514825,
				"z": 1.1403337684,
				"element": "H" 
			},
			{
				"x": -0.6592723519,
				"y": -1.2347811799,
				"z": 3.1235607425,
				"element": "H" 
			},
			{
				"x": -0.6662305052,
				"y": 0.4654100425,
				"z": 3.5224167203,
				"element": "H" 
			},
			{
				"x": -0.3480772592,
				"y": -1.4443068943,
				"z": -2.5678988121,
				"element": "H" 
			},
			{
				"x": 3.1768597053,
				"y": -0.4486207646,
				"z": -3.4856205157,
				"element": "H" 
			},
			{
				"x": 2.0026531075,
				"y": -1.6326690485,
				"z": -4.0885863298,
				"element": "H" 
			},
			{
				"x": 3.3437434764,
				"y": -2.1534140453,
				"z": -3.0518167634,
				"element": "H" 
			},
			{
				"x": 6.3762028305,
				"y": 0.6201180102,
				"z": 4.0246957218,
				"element": "H" 
			},
			{
				"x": 4.5987923783,
				"y": -0.3016074466,
				"z": 0.19900354,
				"element": "H" 
			}
		],
		 "valence_orbital": [ 
			{
				"type": "occ",
				"energy": -0.25216,
				"method": "rhf"
			},
			{
				"type": "occ",
				"energy": -0.24428,
				"method": "rhf"
			},
			{
				"type": "occ",
				"energy": -0.23293,
				"method": "rhf"
			},
			{
				"type": "occ",
				"energy": -0.2173,
				"method": "rhf"
			},
			{
				"type": "occ",
				"energy": -0.19344,
				"method": "rhf"
			},
			{
				"type": "unocc",
				"energy": -0.0365,
				"method": "rhf"
			},
			{
				"type": "unocc",
				"energy": -0.01036,
				"method": "rhf"
			},
			{
				"type": "unocc",
				"energy": -0.00912,
				"method": "rhf"
			},
			{
				"type": "unocc",
				"energy": -0.00378,
				"method": "rhf"
			},
			{
				"type": "unocc",
				"energy": -0.00201,
				"method": "rhf"
			}
		],
		"cosmo_sigma_profile": { 
			"-0.025": 0.0,
			"-0.024": 0.0,
			"-0.023": 0.0,
			"-0.022": 0.0,
			"-0.021": 0.0,
			"-0.02": 0.0,
			"-0.019": 0.0,
			"-0.018": 0.0,
			"-0.017": 0.0,
			"-0.016": 0.0,
			"-0.015": 0.0,
			"-0.014": 0.0,
			"-0.013": 0.0,
			"-0.012": 0.0,
			"-0.011": 0.0,
			"-0.01": 0.0,
			"-0.009": 0.0,
			"-0.008": 0.865781163332,
			"-0.007": 1.44737616407,
			"-0.006": 7.58221458938,
			"-0.005": 30.4611654597,
			"-0.004": 38.8994347078,
			"-0.003": 49.8493629174,
			"-0.002": 37.8302086557,
			"-0.001": 38.2880273654,
			"0.0": 39.783636125,
			"0.001": 42.7971614336,
			"0.002": 45.911340206,
			"0.003": 36.6454967635,
			"0.004": 38.1489881767,
			"0.005": 20.7557945137,
			"0.006": 10.1394769531,
			"0.007": 2.93588111301,
			"0.008": 1.41222587924,
			"0.009": 1.34327188639,
			"0.01": 1.73974418067,
			"0.011": 0.864769464342,
			"0.012": 0.0,
			"0.013": 0.0,
			"0.014": 0.0,
			"0.015": 0.0,
			"0.016": 0.0,
			"0.017": 0.0,
			"0.018": 0.0,
			"0.019": 0.0,
			"0.02": 0.0,
			"0.021": 0.0,
			"0.022": 0.0,
			"0.023": 0.0,
			"0.024": 0.0,
			"0.025": 0.0
		}
	}
}
