{
	 "smiles": "[O-][N+](=O)C1=C(F)C=C2NC(=O)C(=O)C2=C1", 
	 "Tm": 510.15, 
	 "num_atms": 18, 
	 "gaussian": { 
		 "optdone": 1, 
		 "sigma_profile": "yes", 
		 "theory": "DFT", 
		 "functional": "B3LYP", 
		 "basiset": "6-31G**", 
		 "properties": { 
			 "R2extent": 3809.2459, 
			 "electric_dipole_moment_norm": 5.16251283872, 
			 "electric_quadrupole_moment_norm": 27.6618355112, 
			 "total_energy": -816.777130921, 
			 "HOMO_LUMO_gap": 0.14953, 
			 "cosmo_polarized_energy": -20.75, 
			 "cosmo_cavitation_energy": 25.52, 
			 "cosmo_dispersion_energy": -18.62, 
			 "cosmo_repulsion_energy": 1.42, 
			 "cosmo_total_nonelectrostatic_energy": 8.32, 
			 "SMD_solvation_energy": 8.45 
		},
		"coords": [
			{
				"x": -2.9201043891,
				"y": 3.2648292786,
				"z": -0.7253304513,
				"element": "O" 
			},
			{
				"x": -1.9498663908,
				"y": 2.9013441721,
				"z": -0.0667963523,
				"element": "N" 
			},
			{
				"x": -1.648138748,
				"y": 3.3359946531,
				"z": 1.0454646659,
				"element": "O" 
			},
			{
				"x": -1.0724195109,
				"y": 1.8720724784,
				"z": -0.6325193449,
				"element": "C" 
			},
			{
				"x": -1.3057574345,
				"y": 1.2879633008,
				"z": -1.8954654086,
				"element": "C" 
			},
			{
				"x": -2.3416715685,
				"y": 1.6416226062,
				"z": -2.6461289201,
				"element": "F" 
			},
			{
				"x": -0.4611728348,
				"y": 0.3079736286,
				"z": -2.4228154306,
				"element": "C" 
			},
			{
				"x": 0.6303538629,
				"y": -0.0820192759,
				"z": -1.6599204301,
				"element": "C" 
			},
			{
				"x": 1.6040250357,
				"y": -1.0254006987,
				"z": -1.9608278173,
				"element": "N" 
			},
			{
				"x": 2.5517884386,
				"y": -1.1471831021,
				"z": -0.9407200178,
				"element": "C" 
			},
			{
				"x": 3.5056094363,
				"y": -1.8846320501,
				"z": -0.9275322036,
				"element": "O" 
			},
			{
				"x": 2.0953043858,
				"y": -0.1239218324,
				"z": 0.157828276,
				"element": "C" 
			},
			{
				"x": 2.670417856,
				"y": 0.0620150569,
				"z": 1.2050765653,
				"element": "O" 
			},
			{
				"x": 0.8767622474,
				"y": 0.4949587705,
				"z": -0.3915410911,
				"element": "C" 
			},
			{
				"x": 0.0337596031,
				"y": 1.4645594134,
				"z": 0.1207822521,
				"element": "C" 
			},
			{
				"x": -0.6868859808,
				"y": -0.1075241688,
				"z": -3.3980556454,
				"element": "H" 
			},
			{
				"x": 1.6436368735,
				"y": -1.571600327,
				"z": -2.8099286778,
				"element": "H" 
			},
			{
				"x": 0.2082591182,
				"y": 1.9162480964,
				"z": 1.0901300317,
				"element": "H" 
			}
		],
		 "valence_orbital": [ 
			{
				"type": "occ",
				"energy": -0.31993,
				"method": "rhf"
			},
			{
				"type": "occ",
				"energy": -0.3045,
				"method": "rhf"
			},
			{
				"type": "occ",
				"energy": -0.30201,
				"method": "rhf"
			},
			{
				"type": "occ",
				"energy": -0.27532,
				"method": "rhf"
			},
			{
				"type": "occ",
				"energy": -0.27202,
				"method": "rhf"
			},
			{
				"type": "unocc",
				"energy": -0.12249,
				"method": "rhf"
			},
			{
				"type": "unocc",
				"energy": -0.10117,
				"method": "rhf"
			},
			{
				"type": "unocc",
				"energy": -0.04463,
				"method": "rhf"
			},
			{
				"type": "unocc",
				"energy": -0.00256,
				"method": "rhf"
			},
			{
				"type": "unocc",
				"energy": 0.04726,
				"method": "rhf"
			}
		],
		"cosmo_sigma_profile": { 
			"-0.025": 0.0,
			"-0.024": 0.0,
			"-0.023": 0.0,
			"-0.022": 0.0,
			"-0.021": 0.0,
			"-0.02": 0.0,
			"-0.019": 0.0,
			"-0.018": 0.594020828585,
			"-0.017": 2.04708446893,
			"-0.016": 1.45315617072,
			"-0.015": 1.21383613533,
			"-0.014": 1.47408838243,
			"-0.013": 1.22794163464,
			"-0.012": 1.70393545692,
			"-0.011": 1.23055596905,
			"-0.01": 3.18743831832,
			"-0.009": 3.87178138138,
			"-0.008": 5.71570737862,
			"-0.007": 7.32640381693,
			"-0.006": 6.97252972974,
			"-0.005": 10.682090594,
			"-0.004": 17.6854076816,
			"-0.003": 20.3749687552,
			"-0.002": 15.5104859015,
			"-0.001": 7.15524374574,
			"0.0": 6.13697881258,
			"0.001": 5.74375518381,
			"0.002": 8.85524346292,
			"0.003": 6.11641508642,
			"0.004": 5.76918587464,
			"0.005": 5.83813552948,
			"0.006": 7.35385301266,
			"0.007": 12.5292428997,
			"0.008": 12.5339020279,
			"0.009": 11.8503098033,
			"0.01": 11.0983193923,
			"0.011": 3.59660743477,
			"0.012": 0.168910278873,
			"0.013": 0.0,
			"0.014": 0.0,
			"0.015": 0.0,
			"0.016": 0.0,
			"0.017": 0.0,
			"0.018": 0.0,
			"0.019": 0.0,
			"0.02": 0.0,
			"0.021": 0.0,
			"0.022": 0.0,
			"0.023": 0.0,
			"0.024": 0.0,
			"0.025": 0.0
		}
	}
}
