{
	 "smiles": "CC1=CC(C(O)=O)=C(N)C(Br)=C1", 
	 "Tm": 477.15, 
	 "num_atms": 20, 
	 "gaussian": { 
		 "optdone": 1, 
		 "sigma_profile": "yes", 
		 "theory": "DFT", 
		 "functional": "B3LYP", 
		 "basiset": "6-31G**", 
		 "properties": { 
			 "R2extent": 3676.816, 
			 "electric_dipole_moment_norm": 3.44579671629, 
			 "electric_quadrupole_moment_norm": 12.3215363165, 
			 "total_energy": -3086.30290109, 
			 "HOMO_LUMO_gap": 0.15885, 
			 "cosmo_polarized_energy": -12.52, 
			 "cosmo_cavitation_energy": 25.86, 
			 "cosmo_dispersion_energy": -19.95, 
			 "cosmo_repulsion_energy": 1.58, 
			 "cosmo_total_nonelectrostatic_energy": 7.5, 
			 "SMD_solvation_energy": 4.27 
		},
		"coords": [
			{
				"x": 0.4154373611,
				"y": 0.5859859901,
				"z": 2.8437942073,
				"element": "C" 
			},
			{
				"x": 0.0961037389,
				"y": 0.5027901364,
				"z": 1.3702845849,
				"element": "C" 
			},
			{
				"x": -0.2101245713,
				"y": -0.6991607724,
				"z": 0.7454275907,
				"element": "C" 
			},
			{
				"x": -0.5203874535,
				"y": -0.7961504494,
				"z": -0.6242723573,
				"element": "C" 
			},
			{
				"x": -0.8302444934,
				"y": -2.1092207382,
				"z": -1.246102454,
				"element": "C" 
			},
			{
				"x": -0.4497635332,
				"y": -3.2247439892,
				"z": -0.5706982766,
				"element": "O" 
			},
			{
				"x": -1.3982216311,
				"y": -2.2509994067,
				"z": -2.3159932746,
				"element": "O" 
			},
			{
				"x": -0.5713273546,
				"y": 0.3848234065,
				"z": -1.426309192,
				"element": "C" 
			},
			{
				"x": -0.8868403479,
				"y": 0.3477045436,
				"z": -2.7446557568,
				"element": "N" 
			},
			{
				"x": -0.2366852922,
				"y": 1.5989621737,
				"z": -0.7712090554,
				"element": "C" 
			},
			{
				"x": -0.2508452694,
				"y": 3.2282043088,
				"z": -1.7828508452,
				"element": "Br" 
			},
			{
				"x": 0.0870120066,
				"y": 1.659234062,
				"z": 0.5706076853,
				"element": "C" 
			},
			{
				"x": 0.3760734679,
				"y": -0.400937651,
				"z": 3.3133815935,
				"element": "H" 
			},
			{
				"x": -0.2925549697,
				"y": 1.2330445813,
				"z": 3.3743805905,
				"element": "H" 
			},
			{
				"x": 1.4177063898,
				"y": 0.9952290775,
				"z": 3.0160599324,
				"element": "H" 
			},
			{
				"x": -0.2527756681,
				"y": -1.5935234526,
				"z": 1.3633107302,
				"element": "H" 
			},
			{
				"x": 0.1508924801,
				"y": -2.9895155169,
				"z": 0.1491735322,
				"element": "H" 
			},
			{
				"x": -1.0151414307,
				"y": 1.2174223752,
				"z": -3.2360398883,
				"element": "H" 
			},
			{
				"x": -1.2869943527,
				"y": -0.5139548707,
				"z": -3.0955108015,
				"element": "H" 
			},
			{
				"x": 0.3238809235,
				"y": 2.623006192,
				"z": 1.0102214548,
				"element": "H" 
			}
		],
		 "valence_orbital": [ 
			{
				"type": "occ",
				"energy": -0.31458,
				"method": "rhf"
			},
			{
				"type": "occ",
				"energy": -0.30087,
				"method": "rhf"
			},
			{
				"type": "occ",
				"energy": -0.27913,
				"method": "rhf"
			},
			{
				"type": "occ",
				"energy": -0.25944,
				"method": "rhf"
			},
			{
				"type": "occ",
				"energy": -0.21236,
				"method": "rhf"
			},
			{
				"type": "unocc",
				"energy": -0.05351,
				"method": "rhf"
			},
			{
				"type": "unocc",
				"energy": -0.00452,
				"method": "rhf"
			},
			{
				"type": "unocc",
				"energy": -0.00151,
				"method": "rhf"
			},
			{
				"type": "unocc",
				"energy": 0.0414,
				"method": "rhf"
			},
			{
				"type": "unocc",
				"energy": 0.06312,
				"method": "rhf"
			}
		],
		"cosmo_sigma_profile": { 
			"-0.025": 0.0,
			"-0.024": 0.0,
			"-0.023": 0.0,
			"-0.022": 0.0,
			"-0.021": 0.0,
			"-0.02": 0.0,
			"-0.019": 0.0750930583417,
			"-0.018": 0.632962583246,
			"-0.017": 0.894731242033,
			"-0.016": 1.01038802756,
			"-0.015": 0.847071792076,
			"-0.014": 0.685314071243,
			"-0.013": 1.30083514237,
			"-0.012": 1.2770050221,
			"-0.011": 2.63701130299,
			"-0.01": 1.38772478779,
			"-0.009": 2.52406206409,
			"-0.008": 3.16582116671,
			"-0.007": 4.91035685663,
			"-0.006": 6.25016754909,
			"-0.005": 7.00764397045,
			"-0.004": 12.479397532,
			"-0.003": 13.7612667649,
			"-0.002": 15.1729329816,
			"-0.001": 14.9720721234,
			"0.0": 17.586304057,
			"0.001": 18.7548145154,
			"0.002": 20.509821107,
			"0.003": 18.671004182,
			"0.004": 12.4025065699,
			"0.005": 5.59368377261,
			"0.006": 2.78671355778,
			"0.007": 3.63595828476,
			"0.008": 2.66349193162,
			"0.009": 3.28312738757,
			"0.01": 4.13562101886,
			"0.011": 4.14301451227,
			"0.012": 2.50963671457,
			"0.013": 1.68160869385,
			"0.014": 0.150507522062,
			"0.015": 0.0,
			"0.016": 0.0,
			"0.017": 0.0,
			"0.018": 0.0,
			"0.019": 0.0,
			"0.02": 0.0,
			"0.021": 0.0,
			"0.022": 0.0,
			"0.023": 0.0,
			"0.024": 0.0,
			"0.025": 0.0
		}
	}
}
