{
	 "smiles": "COC1=CC(C2=NN(C=C2C(O)=O)C2=CC=CC=C2)=C(OC)C=C1", 
	 "Tm": 448.15, 
	 "num_atms": 40, 
	 "gaussian": { 
		 "optdone": 1, 
		 "sigma_profile": "yes", 
		 "theory": "DFT", 
		 "functional": "B3LYP", 
		 "basiset": "6-31G**", 
		 "properties": { 
			 "R2extent": 9703.3355, 
			 "electric_dipole_moment_norm": 2.95838843291, 
			 "electric_quadrupole_moment_norm": 12.5366433075, 
			 "total_energy": -1105.93212433, 
			 "HOMO_LUMO_gap": 0.15175, 
			 "cosmo_polarized_energy": -18.5, 
			 "cosmo_cavitation_energy": 44.86, 
			 "cosmo_dispersion_energy": -31.45, 
			 "cosmo_repulsion_energy": 2.4, 
			 "cosmo_total_nonelectrostatic_energy": 15.81, 
			 "SMD_solvation_energy": 9.31 
		},
		"coords": [
			{
				"x": -4.8428299931,
				"y": 1.6667943454,
				"z": 0.2966187339,
				"element": "C" 
			},
			{
				"x": -4.1654344829,
				"y": 2.4226652568,
				"z": -0.6914200219,
				"element": "O" 
			},
			{
				"x": -2.8170545465,
				"y": 2.2264768165,
				"z": -0.8366145445,
				"element": "C" 
			},
			{
				"x": -2.0577283106,
				"y": 1.3298011969,
				"z": -0.081836147,
				"element": "C" 
			},
			{
				"x": -0.680883562,
				"y": 1.1863932656,
				"z": -0.3098073593,
				"element": "C" 
			},
			{
				"x": 0.0768699303,
				"y": 0.2154967193,
				"z": 0.5044581966,
				"element": "C" 
			},
			{
				"x": -0.0883843346,
				"y": 0.2025201585,
				"z": 1.8249365488,
				"element": "N" 
			},
			{
				"x": 0.6929282229,
				"y": -0.8150848659,
				"z": 2.2891482839,
				"element": "N" 
			},
			{
				"x": 1.3549485139,
				"y": -1.4395870014,
				"z": 1.2850200004,
				"element": "C" 
			},
			{
				"x": 0.984314892,
				"y": -0.8189737726,
				"z": 0.1041400065,
				"element": "C" 
			},
			{
				"x": 1.3850017465,
				"y": -1.2444718649,
				"z": -1.2386734907,
				"element": "C" 
			},
			{
				"x": 2.3404926463,
				"y": -2.2197571741,
				"z": -1.1890699456,
				"element": "O" 
			},
			{
				"x": 0.9435200529,
				"y": -0.8404815462,
				"z": -2.2956576132,
				"element": "O" 
			},
			{
				"x": 0.754146295,
				"y": -1.081904304,
				"z": 3.6840129907,
				"element": "C" 
			},
			{
				"x": 1.1897004646,
				"y": -2.3285567391,
				"z": 4.1467026895,
				"element": "C" 
			},
			{
				"x": 1.2615827692,
				"y": -2.5656273976,
				"z": 5.5187902415,
				"element": "C" 
			},
			{
				"x": 0.887400341,
				"y": -1.5759726969,
				"z": 6.4290750193,
				"element": "C" 
			},
			{
				"x": 0.4386881654,
				"y": -0.3407880912,
				"z": 5.956235471,
				"element": "C" 
			},
			{
				"x": 0.3724687721,
				"y": -0.0848670175,
				"z": 4.5882601537,
				"element": "C" 
			},
			{
				"x": -0.0496730128,
				"y": 1.985343046,
				"z": -1.2803937595,
				"element": "C" 
			},
			{
				"x": 1.3077633771,
				"y": 1.8734079737,
				"z": -1.37872139,
				"element": "O" 
			},
			{
				"x": 1.9374286912,
				"y": 2.3841585062,
				"z": -2.5416998188,
				"element": "C" 
			},
			{
				"x": -0.8191514931,
				"y": 2.8710210818,
				"z": -2.0452013339,
				"element": "C" 
			},
			{
				"x": -2.1886328443,
				"y": 2.9870002546,
				"z": -1.8280744453,
				"element": "C" 
			},
			{
				"x": -4.7776567898,
				"y": 0.5880707079,
				"z": 0.1006512603,
				"element": "H" 
			},
			{
				"x": -4.4523896196,
				"y": 1.868241074,
				"z": 1.3031279328,
				"element": "H" 
			},
			{
				"x": -5.8887291804,
				"y": 1.9755002807,
				"z": 0.2502459684,
				"element": "H" 
			},
			{
				"x": -2.5092223466,
				"y": 0.7137416415,
				"z": 0.6852914131,
				"element": "H" 
			},
			{
				"x": 2.0395659219,
				"y": -2.2552949522,
				"z": 1.4521603124,
				"element": "H" 
			},
			{
				"x": 2.5128199489,
				"y": -2.4558606512,
				"z": -2.1150531406,
				"element": "H" 
			},
			{
				"x": 1.4511980799,
				"y": -3.1157334573,
				"z": 3.4477519735,
				"element": "H" 
			},
			{
				"x": 1.6000732711,
				"y": -3.5345718807,
				"z": 5.8734054121,
				"element": "H" 
			},
			{
				"x": 0.9403468277,
				"y": -1.7674634185,
				"z": 7.49637879,
				"element": "H" 
			},
			{
				"x": 0.1427523642,
				"y": 0.4352130568,
				"z": 6.6559647167,
				"element": "H" 
			},
			{
				"x": 0.0304785275,
				"y": 0.8683071033,
				"z": 4.2048132192,
				"element": "H" 
			},
			{
				"x": 1.8941716667,
				"y": 3.4808466084,
				"z": -2.582079728,
				"element": "H" 
			},
			{
				"x": 2.9827508394,
				"y": 2.0765676443,
				"z": -2.4784977087,
				"element": "H" 
			},
			{
				"x": 1.4910402744,
				"y": 1.9663778173,
				"z": -3.4516902526,
				"element": "H" 
			},
			{
				"x": -0.3533915128,
				"y": 3.4852618879,
				"z": -2.8065752348,
				"element": "H" 
			},
			{
				"x": -2.7885905732,
				"y": 3.6714903878,
				"z": -2.4189233996,
				"element": "H" 
			}
		],
		 "valence_orbital": [ 
			{
				"type": "occ",
				"energy": -0.26404,
				"method": "rhf"
			},
			{
				"type": "occ",
				"energy": -0.26025,
				"method": "rhf"
			},
			{
				"type": "occ",
				"energy": -0.24504,
				"method": "rhf"
			},
			{
				"type": "occ",
				"energy": -0.22585,
				"method": "rhf"
			},
			{
				"type": "occ",
				"energy": -0.18977,
				"method": "rhf"
			},
			{
				"type": "unocc",
				"energy": -0.03802,
				"method": "rhf"
			},
			{
				"type": "unocc",
				"energy": -0.02101,
				"method": "rhf"
			},
			{
				"type": "unocc",
				"energy": -0.01114,
				"method": "rhf"
			},
			{
				"type": "unocc",
				"energy": 0.01105,
				"method": "rhf"
			},
			{
				"type": "unocc",
				"energy": 0.02883,
				"method": "rhf"
			}
		],
		"cosmo_sigma_profile": { 
			"-0.025": 0.0,
			"-0.024": 0.0,
			"-0.023": 0.0,
			"-0.022": 0.0,
			"-0.021": 0.0,
			"-0.02": 0.0,
			"-0.019": 0.0,
			"-0.018": 0.260005467087,
			"-0.017": 1.23098473226,
			"-0.016": 0.673371461501,
			"-0.015": 0.859994817405,
			"-0.014": 0.58091789893,
			"-0.013": 0.237064714327,
			"-0.012": 0.992763848952,
			"-0.011": 1.80768411557,
			"-0.01": 2.54185276168,
			"-0.009": 2.75736131304,
			"-0.008": 2.4443796978,
			"-0.007": 4.71554963015,
			"-0.006": 19.1146925996,
			"-0.005": 31.4843467132,
			"-0.004": 31.0476843041,
			"-0.003": 30.3079389518,
			"-0.002": 21.0043351542,
			"-0.001": 19.6585446509,
			"0.0": 23.1543000781,
			"0.001": 23.038564021,
			"0.002": 19.4634258177,
			"0.003": 25.3129871387,
			"0.004": 30.2165180367,
			"0.005": 19.8765958292,
			"0.006": 10.2148527694,
			"0.007": 8.90145134786,
			"0.008": 6.52317760462,
			"0.009": 6.24192683102,
			"0.01": 5.79706765958,
			"0.011": 4.19056254323,
			"0.012": 3.49342687063,
			"0.013": 0.506694987803,
			"0.014": 0.0,
			"0.015": 0.0,
			"0.016": 0.0,
			"0.017": 0.0,
			"0.018": 0.0,
			"0.019": 0.0,
			"0.02": 0.0,
			"0.021": 0.0,
			"0.022": 0.0,
			"0.023": 0.0,
			"0.024": 0.0,
			"0.025": 0.0
		}
	}
}
