{
	 "smiles": "CC1=C2C(=O)OCC2=CC=C1", 
	 "Tm": 359.15, 
	 "num_atms": 19, 
	 "gaussian": { 
		 "optdone": 1, 
		 "sigma_profile": "yes", 
		 "theory": "DFT", 
		 "functional": "B3LYP", 
		 "basiset": "6-31G**", 
		 "properties": { 
			 "R2extent": 1746.9616, 
			 "electric_dipole_moment_norm": 4.55086614723, 
			 "electric_quadrupole_moment_norm": 7.05722949606, 
			 "total_energy": -498.244552518, 
			 "HOMO_LUMO_gap": 0.21, 
			 "cosmo_polarized_energy": -10.57, 
			 "cosmo_cavitation_energy": 22.66, 
			 "cosmo_dispersion_energy": -16.99, 
			 "cosmo_repulsion_energy": 1.35, 
			 "cosmo_total_nonelectrostatic_energy": 7.02, 
			 "SMD_solvation_energy": 4.77 
		},
		"coords": [
			{
				"x": 0.0485136826,
				"y": 2.4826417134,
				"z": -0.1278007871,
				"element": "C" 
			},
			{
				"x": 0.5334816022,
				"y": 1.4118942799,
				"z": 0.8139275547,
				"element": "C" 
			},
			{
				"x": 0.4256006296,
				"y": 0.0458805702,
				"z": 0.5072947115,
				"element": "C" 
			},
			{
				"x": -0.1380934611,
				"y": -0.596395126,
				"z": -0.7019305019,
				"element": "C" 
			},
			{
				"x": -0.6286172001,
				"y": -0.1034322937,
				"z": -1.6889806801,
				"element": "O" 
			},
			{
				"x": -0.0230609854,
				"y": -1.960036693,
				"z": -0.5440953287,
				"element": "O" 
			},
			{
				"x": 0.5924416645,
				"y": -2.2819792322,
				"z": 0.7141138152,
				"element": "C" 
			},
			{
				"x": 0.8692718542,
				"y": -0.9538894791,
				"z": 1.3680545368,
				"element": "C" 
			},
			{
				"x": 1.4503840665,
				"y": -0.6414595159,
				"z": 2.5929113213,
				"element": "C" 
			},
			{
				"x": 1.5683673057,
				"y": 0.7117670997,
				"z": 2.9194311838,
				"element": "C" 
			},
			{
				"x": 1.1196553589,
				"y": 1.7145289509,
				"z": 2.0488122043,
				"element": "C" 
			},
			{
				"x": 0.2208303134,
				"y": 3.4776348759,
				"z": 0.290333111,
				"element": "H" 
			},
			{
				"x": 0.5541367221,
				"y": 2.4136615891,
				"z": -1.0958768744,
				"element": "H" 
			},
			{
				"x": -1.0193004185,
				"y": 2.3676345381,
				"z": -0.3378770645,
				"element": "H" 
			},
			{
				"x": 1.5019640338,
				"y": -2.8626082808,
				"z": 0.5194657979,
				"element": "H" 
			},
			{
				"x": -0.098398718,
				"y": -2.9086179449,
				"z": 1.2905831794,
				"element": "H" 
			},
			{
				"x": 1.8008475179,
				"y": -1.4116317079,
				"z": 3.2738753861,
				"element": "H" 
			},
			{
				"x": 2.0167474804,
				"y": 0.9965156898,
				"z": 3.8671674764,
				"element": "H" 
			},
			{
				"x": 1.2291285514,
				"y": 2.7560909664,
				"z": 2.3389909581,
				"element": "H" 
			}
		],
		 "valence_orbital": [ 
			{
				"type": "occ",
				"energy": -0.35291,
				"method": "rhf"
			},
			{
				"type": "occ",
				"energy": -0.29607,
				"method": "rhf"
			},
			{
				"type": "occ",
				"energy": -0.26644,
				"method": "rhf"
			},
			{
				"type": "occ",
				"energy": -0.26512,
				"method": "rhf"
			},
			{
				"type": "occ",
				"energy": -0.2568,
				"method": "rhf"
			},
			{
				"type": "unocc",
				"energy": -0.0468,
				"method": "rhf"
			},
			{
				"type": "unocc",
				"energy": -0.01732,
				"method": "rhf"
			},
			{
				"type": "unocc",
				"energy": 0.05596,
				"method": "rhf"
			},
			{
				"type": "unocc",
				"energy": 0.09072,
				"method": "rhf"
			},
			{
				"type": "unocc",
				"energy": 0.10604,
				"method": "rhf"
			}
		],
		"cosmo_sigma_profile": { 
			"-0.025": 0.0,
			"-0.024": 0.0,
			"-0.023": 0.0,
			"-0.022": 0.0,
			"-0.021": 0.0,
			"-0.02": 0.0,
			"-0.019": 0.0,
			"-0.018": 0.0,
			"-0.017": 0.0,
			"-0.016": 0.0,
			"-0.015": 0.0,
			"-0.014": 0.0,
			"-0.013": 0.0,
			"-0.012": 0.0,
			"-0.011": 0.0,
			"-0.01": 0.0,
			"-0.009": 0.0,
			"-0.008": 1.31647221563,
			"-0.007": 9.42314259371,
			"-0.006": 13.7683607598,
			"-0.005": 14.3986524245,
			"-0.004": 15.6874622621,
			"-0.003": 13.2032211108,
			"-0.002": 12.5310597743,
			"-0.001": 14.929606852,
			"0.0": 15.4590330276,
			"0.001": 10.7165447558,
			"0.002": 9.76800183064,
			"0.003": 11.4854593435,
			"0.004": 8.96788448393,
			"0.005": 2.5574913106,
			"0.006": 2.58743802465,
			"0.007": 2.33231481713,
			"0.008": 2.7544069785,
			"0.009": 3.38773859107,
			"0.01": 4.6319653477,
			"0.011": 3.8686966193,
			"0.012": 5.10271909891,
			"0.013": 1.82013443781,
			"0.014": 0.126612492974,
			"0.015": 0.0,
			"0.016": 0.0,
			"0.017": 0.0,
			"0.018": 0.0,
			"0.019": 0.0,
			"0.02": 0.0,
			"0.021": 0.0,
			"0.022": 0.0,
			"0.023": 0.0,
			"0.024": 0.0,
			"0.025": 0.0
		}
	}
}
