{
	 "smiles": "OC(=O)C1=COC2=C1C(=O)CCC2", 
	 "Tm": 415.15, 
	 "num_atms": 21, 
	 "gaussian": { 
		 "optdone": 1, 
		 "sigma_profile": "yes", 
		 "theory": "DFT", 
		 "functional": "B3LYP", 
		 "basiset": "6-31G**", 
		 "properties": { 
			 "R2extent": 3061.7185, 
			 "electric_dipole_moment_norm": 6.88685894367, 
			 "electric_quadrupole_moment_norm": 19.3489236065, 
			 "total_energy": -648.659186901, 
			 "HOMO_LUMO_gap": 0.19989, 
			 "cosmo_polarized_energy": -22.44, 
			 "cosmo_cavitation_energy": 25.37, 
			 "cosmo_dispersion_energy": -18.72, 
			 "cosmo_repulsion_energy": 1.5, 
			 "cosmo_total_nonelectrostatic_energy": 8.15, 
			 "SMD_solvation_energy": 6.34 
		},
		"coords": [
			{
				"x": 0.9082168238,
				"y": 4.225499603,
				"z": -1.5484861785,
				"element": "O" 
			},
			{
				"x": 0.9930541066,
				"y": 2.9099270554,
				"z": -1.8988488587,
				"element": "C" 
			},
			{
				"x": 1.956013799,
				"y": 2.4848060094,
				"z": -2.4799879393,
				"element": "O" 
			},
			{
				"x": -0.2158326335,
				"y": 2.1001341604,
				"z": -1.5689120271,
				"element": "C" 
			},
			{
				"x": -1.5067769063,
				"y": 2.4826601743,
				"z": -1.7910662592,
				"element": "C" 
			},
			{
				"x": -2.3750735503,
				"y": 1.459189688,
				"z": -1.5204276966,
				"element": "O" 
			},
			{
				"x": -1.6228180242,
				"y": 0.40365299,
				"z": -1.1135446582,
				"element": "C" 
			},
			{
				"x": -0.2916559432,
				"y": 0.7252668879,
				"z": -1.1274464259,
				"element": "C" 
			},
			{
				"x": 0.7281882519,
				"y": -0.2336981921,
				"z": -0.656813079,
				"element": "C" 
			},
			{
				"x": 1.8896291858,
				"y": 0.063303495,
				"z": -0.4449732111,
				"element": "O" 
			},
			{
				"x": 0.1852314334,
				"y": -1.6520697426,
				"z": -0.4491834695,
				"element": "C" 
			},
			{
				"x": -1.2396052871,
				"y": -1.6773657917,
				"z": 0.1384553852,
				"element": "C" 
			},
			{
				"x": -2.2484548723,
				"y": -0.8890173731,
				"z": -0.7238539711,
				"element": "C" 
			},
			{
				"x": 0.1502631522,
				"y": 4.3524850425,
				"z": -0.9601633296,
				"element": "H" 
			},
			{
				"x": -1.9538114188,
				"y": 3.3856106233,
				"z": -2.1787516079,
				"element": "H" 
			},
			{
				"x": 0.8906334702,
				"y": -2.1871110229,
				"z": 0.1914199462,
				"element": "H" 
			},
			{
				"x": 0.1922953886,
				"y": -2.1524834481,
				"z": -1.4287408609,
				"element": "H" 
			},
			{
				"x": -1.2182318713,
				"y": -1.2408935133,
				"z": 1.1442376703,
				"element": "H" 
			},
			{
				"x": -1.5795432479,
				"y": -2.7116661063,
				"z": 0.249021857,
				"element": "H" 
			},
			{
				"x": -3.1855244589,
				"y": -0.7178875144,
				"z": -0.1831392267,
				"element": "H" 
			},
			{
				"x": -2.5071973977,
				"y": -1.4597430246,
				"z": -1.6276960592,
				"element": "H" 
			}
		],
		 "valence_orbital": [ 
			{
				"type": "occ",
				"energy": -0.31941,
				"method": "rhf"
			},
			{
				"type": "occ",
				"energy": -0.29948,
				"method": "rhf"
			},
			{
				"type": "occ",
				"energy": -0.27346,
				"method": "rhf"
			},
			{
				"type": "occ",
				"energy": -0.25473,
				"method": "rhf"
			},
			{
				"type": "occ",
				"energy": -0.24623,
				"method": "rhf"
			},
			{
				"type": "unocc",
				"energy": -0.04634,
				"method": "rhf"
			},
			{
				"type": "unocc",
				"energy": -0.03261,
				"method": "rhf"
			},
			{
				"type": "unocc",
				"energy": 0.02784,
				"method": "rhf"
			},
			{
				"type": "unocc",
				"energy": 0.06161,
				"method": "rhf"
			},
			{
				"type": "unocc",
				"energy": 0.07799,
				"method": "rhf"
			}
		],
		"cosmo_sigma_profile": { 
			"-0.025": 0.0,
			"-0.024": 0.0,
			"-0.023": 0.0,
			"-0.022": 0.0,
			"-0.021": 0.0,
			"-0.02": 0.0,
			"-0.019": 0.188486751903,
			"-0.018": 0.908100598839,
			"-0.017": 0.97457958414,
			"-0.016": 0.547401437261,
			"-0.015": 1.09156485805,
			"-0.014": 1.32080159477,
			"-0.013": 0.741222479876,
			"-0.012": 2.07203860106,
			"-0.011": 2.98892747644,
			"-0.01": 2.53756109212,
			"-0.009": 2.31371329944,
			"-0.008": 1.98528092048,
			"-0.007": 2.3753194257,
			"-0.006": 10.5302094245,
			"-0.005": 15.2921002363,
			"-0.004": 21.4787604197,
			"-0.003": 19.1641003855,
			"-0.002": 17.0203792631,
			"-0.001": 15.4902191584,
			"0.0": 8.79090449676,
			"0.001": 7.18826776289,
			"0.002": 4.15798014622,
			"0.003": 4.97632542419,
			"0.004": 3.85613975366,
			"0.005": 4.97634224217,
			"0.006": 4.75051508632,
			"0.007": 4.40012238089,
			"0.008": 3.89622798756,
			"0.009": 4.98156467182,
			"0.01": 7.04150365771,
			"0.011": 8.71854261091,
			"0.012": 10.0197828269,
			"0.013": 4.47337687342,
			"0.014": 0.460897346923,
			"0.015": 0.0,
			"0.016": 0.0,
			"0.017": 0.0,
			"0.018": 0.0,
			"0.019": 0.0,
			"0.02": 0.0,
			"0.021": 0.0,
			"0.022": 0.0,
			"0.023": 0.0,
			"0.024": 0.0,
			"0.025": 0.0
		}
	}
}
