{
	 "smiles": "O=C(NC1=CNN=C1)C1=CC=NC=C1", 
	 "Tm": 513.15, 
	 "num_atms": 22, 
	 "gaussian": { 
		 "optdone": 1, 
		 "sigma_profile": "yes", 
		 "theory": "DFT", 
		 "functional": "B3LYP", 
		 "basiset": "6-31G**", 
		 "properties": { 
			 "R2extent": 2797.9037, 
			 "electric_dipole_moment_norm": 4.8192288242, 
			 "electric_quadrupole_moment_norm": 20.4103786618, 
			 "total_energy": -641.979252939, 
			 "HOMO_LUMO_gap": 0.18781, 
			 "cosmo_polarized_energy": -19.07, 
			 "cosmo_cavitation_energy": 27.27, 
			 "cosmo_dispersion_energy": -19.52, 
			 "cosmo_repulsion_energy": 1.55, 
			 "cosmo_total_nonelectrostatic_energy": 9.29, 
			 "SMD_solvation_energy": 3.37 
		},
		"coords": [
			{
				"x": -1.4567000387,
				"y": -2.6428037803,
				"z": -0.1913150063,
				"element": "O" 
			},
			{
				"x": -0.7468452421,
				"y": -1.6900217878,
				"z": 0.1070901795,
				"element": "C" 
			},
			{
				"x": -0.5153612035,
				"y": -1.386979396,
				"z": 1.4354299387,
				"element": "N" 
			},
			{
				"x": -0.1130089124,
				"y": -0.1569780692,
				"z": 2.001990663,
				"element": "C" 
			},
			{
				"x": 0.8174332677,
				"y": 0.014089998,
				"z": 3.0151622082,
				"element": "C" 
			},
			{
				"x": 0.8359413114,
				"y": 1.3456117747,
				"z": 3.2781900401,
				"element": "N" 
			},
			{
				"x": -0.0060635557,
				"y": 2.058920527,
				"z": 2.5020811312,
				"element": "N" 
			},
			{
				"x": -0.5950212475,
				"y": 1.1499249469,
				"z": 1.7309259947,
				"element": "C" 
			},
			{
				"x": -0.0818160554,
				"y": -0.866923321,
				"z": -0.9631726443,
				"element": "C" 
			},
			{
				"x": -0.7299641091,
				"y": -0.7710949531,
				"z": -2.1992750156,
				"element": "C" 
			},
			{
				"x": -0.1094348661,
				"y": -0.070210181,
				"z": -3.2313626237,
				"element": "C" 
			},
			{
				"x": 1.0958514647,
				"y": 0.5050544428,
				"z": -3.120775411,
				"element": "N" 
			},
			{
				"x": 1.719552675,
				"y": 0.3855791266,
				"z": -1.9428122101,
				"element": "C" 
			},
			{
				"x": 1.1807519116,
				"y": -0.2771391234,
				"z": -0.8387940317,
				"element": "C" 
			},
			{
				"x": -0.9984044654,
				"y": -2.0395209234,
				"z": 2.0428413354,
				"element": "H" 
			},
			{
				"x": 1.4339459175,
				"y": -0.6955551973,
				"z": 3.5467692289,
				"element": "H" 
			},
			{
				"x": 1.3883362449,
				"y": 1.8286827261,
				"z": 3.969411103,
				"element": "H" 
			},
			{
				"x": -1.3323586746,
				"y": 1.4503362282,
				"z": 0.9993120423,
				"element": "H" 
			},
			{
				"x": -1.6935537935,
				"y": -1.2479907489,
				"z": -2.3395700581,
				"element": "H" 
			},
			{
				"x": -0.6011080435,
				"y": 0.0295473474,
				"z": -4.1972930542,
				"element": "H" 
			},
			{
				"x": 2.704240088,
				"y": 0.8444350949,
				"z": -1.8730113016,
				"element": "H" 
			},
			{
				"x": 1.7423873265,
				"y": -0.3359647311,
				"z": 0.0858774915,
				"element": "H" 
			}
		],
		 "valence_orbital": [ 
			{
				"type": "occ",
				"energy": -0.2734,
				"method": "rhf"
			},
			{
				"type": "occ",
				"energy": -0.26725,
				"method": "rhf"
			},
			{
				"type": "occ",
				"energy": -0.26269,
				"method": "rhf"
			},
			{
				"type": "occ",
				"energy": -0.25374,
				"method": "rhf"
			},
			{
				"type": "occ",
				"energy": -0.24158,
				"method": "rhf"
			},
			{
				"type": "unocc",
				"energy": -0.05377,
				"method": "rhf"
			},
			{
				"type": "unocc",
				"energy": -0.01573,
				"method": "rhf"
			},
			{
				"type": "unocc",
				"energy": 0.0025,
				"method": "rhf"
			},
			{
				"type": "unocc",
				"energy": 0.03362,
				"method": "rhf"
			},
			{
				"type": "unocc",
				"energy": 0.05608,
				"method": "rhf"
			}
		],
		"cosmo_sigma_profile": { 
			"-0.025": 0.0,
			"-0.024": 0.0,
			"-0.023": 0.0,
			"-0.022": 0.0,
			"-0.021": 0.0,
			"-0.02": 0.0,
			"-0.019": 0.0,
			"-0.018": 0.0,
			"-0.017": 0.945269017937,
			"-0.016": 1.86405528839,
			"-0.015": 1.25076469187,
			"-0.014": 2.41083386871,
			"-0.013": 1.91994002098,
			"-0.012": 1.90508589638,
			"-0.011": 1.49154524419,
			"-0.01": 3.09682619669,
			"-0.009": 4.49652872611,
			"-0.008": 3.96532330881,
			"-0.007": 8.54690112772,
			"-0.006": 13.2076973924,
			"-0.005": 12.6682508241,
			"-0.004": 10.9740981462,
			"-0.003": 11.1980028486,
			"-0.002": 13.8349160703,
			"-0.001": 10.865537616,
			"0.0": 13.931911239,
			"0.001": 19.6561850236,
			"0.002": 16.0106332355,
			"0.003": 10.2790555501,
			"0.004": 6.8394318283,
			"0.005": 4.73660745971,
			"0.006": 4.09707756389,
			"0.007": 5.01814361164,
			"0.008": 3.6755634282,
			"0.009": 4.24331577865,
			"0.01": 3.60304700227,
			"0.011": 4.28264585688,
			"0.012": 5.53566858869,
			"0.013": 6.81128845022,
			"0.014": 2.43239210288,
			"0.015": 2.1314713409,
			"0.016": 0.992316255339,
			"0.017": 0.096355018834,
			"0.018": 0.0,
			"0.019": 0.0,
			"0.02": 0.0,
			"0.021": 0.0,
			"0.022": 0.0,
			"0.023": 0.0,
			"0.024": 0.0,
			"0.025": 0.0
		}
	}
}
