{
	 "smiles": "CC(OC(=O)NC1=CC=CC=C1)C1=CC(=CC=C1)C(C)OC(=O)NC1=CC=CC=C1", 
	 "Tm": 409.15, 
	 "num_atms": 54, 
	 "gaussian": { 
		 "optdone": 1, 
		 "sigma_profile": "yes", 
		 "theory": "DFT", 
		 "functional": "B3LYP", 
		 "basiset": "6-31G**", 
		 "properties": { 
			 "R2extent": 15422.4143, 
			 "electric_dipole_moment_norm": 2.48468139809, 
			 "electric_quadrupole_moment_norm": 15.6309068473, 
			 "total_energy": -1339.48416119, 
			 "HOMO_LUMO_gap": 0.20911, 
			 "cosmo_polarized_energy": -20.69, 
			 "cosmo_cavitation_energy": 59.44, 
			 "cosmo_dispersion_energy": -37.79, 
			 "cosmo_repulsion_energy": 2.94, 
			 "cosmo_total_nonelectrostatic_energy": 24.6, 
			 "SMD_solvation_energy": 11.79 
		},
		"coords": [
			{
				"x": 2.8519219711,
				"y": -1.3294118632,
				"z": -1.562707488,
				"element": "C" 
			},
			{
				"x": 1.8908734758,
				"y": -1.182138258,
				"z": -2.7398100625,
				"element": "C" 
			},
			{
				"x": 1.6679373973,
				"y": 0.2479187932,
				"z": -2.8930510114,
				"element": "O" 
			},
			{
				"x": 1.3460313544,
				"y": 0.6654280622,
				"z": -4.1396216157,
				"element": "C" 
			},
			{
				"x": 1.3195515029,
				"y": -0.0443553849,
				"z": -5.1279048423,
				"element": "O" 
			},
			{
				"x": 1.0500723964,
				"y": 2.0099307661,
				"z": -4.1987981043,
				"element": "N" 
			},
			{
				"x": 0.9406660022,
				"y": 3.0227610697,
				"z": -3.2221591518,
				"element": "C" 
			},
			{
				"x": 1.5161743752,
				"y": 2.9539979527,
				"z": -1.9441422484,
				"element": "C" 
			},
			{
				"x": 1.3684979239,
				"y": 4.0251315431,
				"z": -1.0620907999,
				"element": "C" 
			},
			{
				"x": 0.6683153834,
				"y": 5.1747063146,
				"z": -1.4281685503,
				"element": "C" 
			},
			{
				"x": 0.1067871216,
				"y": 5.246779351,
				"z": -2.7043629488,
				"element": "C" 
			},
			{
				"x": 0.2379761029,
				"y": 4.1825003452,
				"z": -3.5915638637,
				"element": "C" 
			},
			{
				"x": 0.5765598579,
				"y": -1.9082043509,
				"z": -2.5198733088,
				"element": "C" 
			},
			{
				"x": -0.4373659849,
				"y": -1.3398197632,
				"z": -1.7419125319,
				"element": "C" 
			},
			{
				"x": -1.6232651934,
				"y": -2.0366175729,
				"z": -1.4872487781,
				"element": "C" 
			},
			{
				"x": -1.7853420394,
				"y": -3.3227653878,
				"z": -2.0129954261,
				"element": "C" 
			},
			{
				"x": -0.7834826169,
				"y": -3.8935318891,
				"z": -2.7977453243,
				"element": "C" 
			},
			{
				"x": 0.3914440574,
				"y": -3.1876073309,
				"z": -3.0547577596,
				"element": "C" 
			},
			{
				"x": -2.7502539716,
				"y": -1.3938513489,
				"z": -0.6988951135,
				"element": "C" 
			},
			{
				"x": -3.5866989819,
				"y": -0.4325833114,
				"z": -1.5407107811,
				"element": "C" 
			},
			{
				"x": -2.2270094449,
				"y": -0.6038928166,
				"z": 0.399859443,
				"element": "O" 
			},
			{
				"x": -1.9699410901,
				"y": -1.2783633324,
				"z": 1.557682616,
				"element": "C" 
			},
			{
				"x": -2.2122627351,
				"y": -2.4552317444,
				"z": 1.7436668638,
				"element": "O" 
			},
			{
				"x": -1.4140076974,
				"y": -0.3976590043,
				"z": 2.4505856456,
				"element": "N" 
			},
			{
				"x": -1.0126880703,
				"y": -0.6349954989,
				"z": 3.7801345208,
				"element": "C" 
			},
			{
				"x": -1.1092956001,
				"y": -1.8894109891,
				"z": 4.4012431299,
				"element": "C" 
			},
			{
				"x": -0.6842114627,
				"y": -2.0312681655,
				"z": 5.722390984,
				"element": "C" 
			},
			{
				"x": -0.1647558877,
				"y": -0.9517117007,
				"z": 6.4380361211,
				"element": "C" 
			},
			{
				"x": -0.0708660349,
				"y": 0.2938270128,
				"z": 5.8144619377,
				"element": "C" 
			},
			{
				"x": -0.4906643505,
				"y": 0.4536342303,
				"z": 4.4967480146,
				"element": "C" 
			},
			{
				"x": 2.4043071302,
				"y": -0.9365375055,
				"z": -0.645006119,
				"element": "H" 
			},
			{
				"x": 3.0804440469,
				"y": -2.386671246,
				"z": -1.4021486874,
				"element": "H" 
			},
			{
				"x": 3.7856548485,
				"y": -0.7943601755,
				"z": -1.7594985229,
				"element": "H" 
			},
			{
				"x": 2.3526342936,
				"y": -1.5450310017,
				"z": -3.6610458106,
				"element": "H" 
			},
			{
				"x": 0.7692874675,
				"y": 2.2679411262,
				"z": -5.1343970186,
				"element": "H" 
			},
			{
				"x": 2.0742389248,
				"y": 2.0772789644,
				"z": -1.6494609758,
				"element": "H" 
			},
			{
				"x": 1.8209710717,
				"y": 3.9568860073,
				"z": -0.0765310511,
				"element": "H" 
			},
			{
				"x": 0.5650683145,
				"y": 6.0024666645,
				"z": -0.7335163197,
				"element": "H" 
			},
			{
				"x": -0.440713518,
				"y": 6.1326181546,
				"z": -3.0132178521,
				"element": "H" 
			},
			{
				"x": -0.2104018177,
				"y": 4.2431259657,
				"z": -4.5805292623,
				"element": "H" 
			},
			{
				"x": -0.3032637593,
				"y": -0.3435677093,
				"z": -1.3320834951,
				"element": "H" 
			},
			{
				"x": -2.6963446197,
				"y": -3.8785416311,
				"z": -1.8061014688,
				"element": "H" 
			},
			{
				"x": -0.9185504794,
				"y": -4.8894748028,
				"z": -3.2095170619,
				"element": "H" 
			},
			{
				"x": 1.1669653985,
				"y": -3.6303527061,
				"z": -3.6745775908,
				"element": "H" 
			},
			{
				"x": -3.3807824656,
				"y": -2.1789855772,
				"z": -0.2736150526,
				"element": "H" 
			},
			{
				"x": -4.0277637526,
				"y": -0.9669749338,
				"z": -2.3867750962,
				"element": "H" 
			},
			{
				"x": -2.9652129694,
				"y": 0.3769729318,
				"z": -1.9345152628,
				"element": "H" 
			},
			{
				"x": -4.3912254913,
				"y": 0.0015556856,
				"z": -0.9399799997,
				"element": "H" 
			},
			{
				"x": -1.2994661781,
				"y": 0.5430589198,
				"z": 2.1015148992,
				"element": "H" 
			},
			{
				"x": -1.5112841283,
				"y": -2.7275107308,
				"z": 3.8492698531,
				"element": "H" 
			},
			{
				"x": -0.7631665977,
				"y": -3.0064446778,
				"z": 6.1948394869,
				"element": "H" 
			},
			{
				"x": 0.161901444,
				"y": -1.0778669382,
				"z": 7.4656322424,
				"element": "H" 
			},
			{
				"x": 0.3299652396,
				"y": 1.147864492,
				"z": 6.3529298113,
				"element": "H" 
			},
			{
				"x": -0.4157601631,
				"y": 1.4270549959,
				"z": 4.016840789,
				"element": "H" 
			}
		],
		 "valence_orbital": [ 
			{
				"type": "occ",
				"energy": -0.24894,
				"method": "rhf"
			},
			{
				"type": "occ",
				"energy": -0.24877,
				"method": "rhf"
			},
			{
				"type": "occ",
				"energy": -0.24515,
				"method": "rhf"
			},
			{
				"type": "occ",
				"energy": -0.22151,
				"method": "rhf"
			},
			{
				"type": "occ",
				"energy": -0.21729,
				"method": "rhf"
			},
			{
				"type": "unocc",
				"energy": -0.00818,
				"method": "rhf"
			},
			{
				"type": "unocc",
				"energy": -0.00738,
				"method": "rhf"
			},
			{
				"type": "unocc",
				"energy": -0.0061,
				"method": "rhf"
			},
			{
				"type": "unocc",
				"energy": -0.00565,
				"method": "rhf"
			},
			{
				"type": "unocc",
				"energy": -0.00074,
				"method": "rhf"
			}
		],
		"cosmo_sigma_profile": { 
			"-0.025": 0.0,
			"-0.024": 0.0,
			"-0.023": 0.0,
			"-0.022": 0.0,
			"-0.021": 0.0,
			"-0.02": 0.0,
			"-0.019": 0.0,
			"-0.018": 0.0,
			"-0.017": 0.0,
			"-0.016": 0.0,
			"-0.015": 1.19462315136,
			"-0.014": 2.23618830537,
			"-0.013": 2.12478788831,
			"-0.012": 1.89209935663,
			"-0.011": 2.11968781843,
			"-0.01": 2.7040926942,
			"-0.009": 2.00034046292,
			"-0.008": 2.53790468558,
			"-0.007": 4.57788160469,
			"-0.006": 18.0569491878,
			"-0.005": 28.642218996,
			"-0.004": 41.6127526878,
			"-0.003": 42.6285088831,
			"-0.002": 36.3340365983,
			"-0.001": 40.2270543477,
			"0.0": 42.6725625209,
			"0.001": 33.2977559553,
			"0.002": 29.0885647683,
			"0.003": 29.3463247321,
			"0.004": 27.1380754557,
			"0.005": 31.0946833757,
			"0.006": 22.2313229923,
			"0.007": 4.74635874533,
			"0.008": 3.11412085671,
			"0.009": 2.7503141134,
			"0.01": 3.67863078617,
			"0.011": 4.15015293771,
			"0.012": 6.54769731253,
			"0.013": 4.3070592424,
			"0.014": 0.0859536032386,
			"0.015": 0.0,
			"0.016": 0.0,
			"0.017": 0.0,
			"0.018": 0.0,
			"0.019": 0.0,
			"0.02": 0.0,
			"0.021": 0.0,
			"0.022": 0.0,
			"0.023": 0.0,
			"0.024": 0.0,
			"0.025": 0.0
		}
	}
}
