{
	 "smiles": "OC(=O)CCNS(=O)(=O)C1=C(Cl)N=CC=C1", 
	 "Tm": 448.15, 
	 "num_atms": 25, 
	 "gaussian": { 
		 "optdone": 1, 
		 "sigma_profile": "yes", 
		 "theory": "DFT", 
		 "functional": "B3LYP", 
		 "basiset": "6-31G**", 
		 "properties": { 
			 "R2extent": 5489.3495, 
			 "electric_dipole_moment_norm": 5.12125840199, 
			 "electric_quadrupole_moment_norm": 21.8325030194, 
			 "total_energy": -1578.98816611, 
			 "HOMO_LUMO_gap": 0.2119, 
			 "cosmo_polarized_energy": -19.55, 
			 "cosmo_cavitation_energy": 32.94, 
			 "cosmo_dispersion_energy": -23.81, 
			 "cosmo_repulsion_energy": 1.84, 
			 "cosmo_total_nonelectrostatic_energy": 10.97, 
			 "SMD_solvation_energy": 4.08 
		},
		"coords": [
			{
				"x": -2.4179409356,
				"y": -4.3109692101,
				"z": 0.9025416193,
				"element": "O" 
			},
			{
				"x": -1.8430159031,
				"y": -3.1239841307,
				"z": 1.1820882554,
				"element": "C" 
			},
			{
				"x": -2.2016936522,
				"y": -2.4249136843,
				"z": 2.1092631178,
				"element": "O" 
			},
			{
				"x": -0.7369802492,
				"y": -2.7859191852,
				"z": 0.2056245076,
				"element": "C" 
			},
			{
				"x": 0.1075069412,
				"y": -1.5937143268,
				"z": 0.6559390021,
				"element": "C" 
			},
			{
				"x": -0.7288887059,
				"y": -0.3863932208,
				"z": 0.7337500869,
				"element": "N" 
			},
			{
				"x": 0.0026820146,
				"y": 1.1190188799,
				"z": 0.7085965151,
				"element": "S" 
			},
			{
				"x": -0.3798920909,
				"y": 1.8623097291,
				"z": 1.9080825796,
				"element": "O" 
			},
			{
				"x": 1.4114012004,
				"y": 0.9265520945,
				"z": 0.3438499675,
				"element": "O" 
			},
			{
				"x": -0.7597642326,
				"y": 1.9331068135,
				"z": -0.7153547105,
				"element": "C" 
			},
			{
				"x": -2.1335977727,
				"y": 2.1935251126,
				"z": -0.8625664888,
				"element": "C" 
			},
			{
				"x": -3.2904150124,
				"y": 1.6592278813,
				"z": 0.3416907411,
				"element": "Cl" 
			},
			{
				"x": -2.6471378152,
				"y": 2.8309692559,
				"z": -1.8987924859,
				"element": "N" 
			},
			{
				"x": -1.8149220322,
				"y": 3.2623814843,
				"z": -2.8565453078,
				"element": "C" 
			},
			{
				"x": -0.4378971739,
				"y": 3.0652249641,
				"z": -2.8146097712,
				"element": "C" 
			},
			{
				"x": 0.094922388,
				"y": 2.3864367267,
				"z": -1.7199827319,
				"element": "C" 
			},
			{
				"x": -3.1282274408,
				"y": -4.4359985694,
				"z": 1.5550259355,
				"element": "H" 
			},
			{
				"x": -1.2020737222,
				"y": -2.5816117241,
				"z": -0.7662779862,
				"element": "H" 
			},
			{
				"x": -0.1070621014,
				"y": -3.6722459958,
				"z": 0.0729040321,
				"element": "H" 
			},
			{
				"x": 0.5835303594,
				"y": -1.8151311658,
				"z": 1.6192353451,
				"element": "H" 
			},
			{
				"x": 0.9026522169,
				"y": -1.4109873727,
				"z": -0.0678519954,
				"element": "H" 
			},
			{
				"x": -1.4260197427,
				"y": -0.438726737,
				"z": 1.4742674181,
				"element": "H" 
			},
			{
				"x": -2.2819321056,
				"y": 3.7859057217,
				"z": -3.6874667486,
				"element": "H" 
			},
			{
				"x": 0.1998116782,
				"y": 3.4309826074,
				"z": -3.6119620526,
				"element": "H" 
			},
			{
				"x": 1.1585538901,
				"y": 2.1984540518,
				"z": -1.6239488444,
				"element": "H" 
			}
		],
		 "valence_orbital": [ 
			{
				"type": "occ",
				"energy": -0.30025,
				"method": "rhf"
			},
			{
				"type": "occ",
				"energy": -0.29684,
				"method": "rhf"
			},
			{
				"type": "occ",
				"energy": -0.28406,
				"method": "rhf"
			},
			{
				"type": "occ",
				"energy": -0.28082,
				"method": "rhf"
			},
			{
				"type": "occ",
				"energy": -0.26696,
				"method": "rhf"
			},
			{
				"type": "unocc",
				"energy": -0.05506,
				"method": "rhf"
			},
			{
				"type": "unocc",
				"energy": -0.04489,
				"method": "rhf"
			},
			{
				"type": "unocc",
				"energy": -0.0111,
				"method": "rhf"
			},
			{
				"type": "unocc",
				"energy": 0.01885,
				"method": "rhf"
			},
			{
				"type": "unocc",
				"energy": 0.06234,
				"method": "rhf"
			}
		],
		"cosmo_sigma_profile": { 
			"-0.025": 0.0,
			"-0.024": 0.0,
			"-0.023": 0.0,
			"-0.022": 0.0,
			"-0.021": 0.0,
			"-0.02": 0.0,
			"-0.019": 0.327491427207,
			"-0.018": 0.902006301638,
			"-0.017": 1.05900133308,
			"-0.016": 0.520658828358,
			"-0.015": 0.769659400142,
			"-0.014": 0.794987948035,
			"-0.013": 0.39899107234,
			"-0.012": 0.837911424798,
			"-0.011": 0.725395997546,
			"-0.01": 0.624211480726,
			"-0.009": 2.31201672833,
			"-0.008": 8.28338979081,
			"-0.007": 13.0763865757,
			"-0.006": 16.9750803088,
			"-0.005": 17.8977244319,
			"-0.004": 16.8040259462,
			"-0.003": 16.2443712232,
			"-0.002": 19.4628390437,
			"-0.001": 21.5940732852,
			"0.0": 16.1318218019,
			"0.001": 11.319682671,
			"0.002": 11.802767198,
			"0.003": 12.0900666576,
			"0.004": 10.3074178635,
			"0.005": 8.89685945606,
			"0.006": 7.47437132951,
			"0.007": 7.12229012989,
			"0.008": 7.26615052979,
			"0.009": 9.17053427307,
			"0.01": 12.4761635609,
			"0.011": 8.85084111703,
			"0.012": 1.88186280804,
			"0.013": 0.679585629503,
			"0.014": 0.0466628303853,
			"0.015": 0.0,
			"0.016": 0.0,
			"0.017": 0.0,
			"0.018": 0.0,
			"0.019": 0.0,
			"0.02": 0.0,
			"0.021": 0.0,
			"0.022": 0.0,
			"0.023": 0.0,
			"0.024": 0.0,
			"0.025": 0.0
		}
	}
}
