{
	 "smiles": "NC(=O)CCNC1=C(C=CC=C1)[N+]([O-])=O", 
	 "Tm": 410.15, 
	 "num_atms": 26, 
	 "gaussian": { 
		 "optdone": 1, 
		 "sigma_profile": "yes", 
		 "theory": "DFT", 
		 "functional": "B3LYP", 
		 "basiset": "6-31G**", 
		 "properties": { 
			 "R2extent": 4567.1329, 
			 "electric_dipole_moment_norm": 3.39708659148, 
			 "electric_quadrupole_moment_norm": 34.2410742888, 
			 "total_energy": -739.439056451, 
			 "HOMO_LUMO_gap": 0.13501, 
			 "cosmo_polarized_energy": -18.82, 
			 "cosmo_cavitation_energy": 30.76, 
			 "cosmo_dispersion_energy": -22.46, 
			 "cosmo_repulsion_energy": 1.78, 
			 "cosmo_total_nonelectrostatic_energy": 10.08, 
			 "SMD_solvation_energy": 7.04 
		},
		"coords": [
			{
				"x": -5.2539521552,
				"y": -0.2831594406,
				"z": -1.3244579838,
				"element": "N" 
			},
			{
				"x": -4.1033241281,
				"y": 0.3882118686,
				"z": -1.0247355944,
				"element": "C" 
			},
			{
				"x": -4.0538098728,
				"y": 1.6076979569,
				"z": -0.9514764481,
				"element": "O" 
			},
			{
				"x": -2.8843617417,
				"y": -0.5029102084,
				"z": -0.7855478873,
				"element": "C" 
			},
			{
				"x": -1.617522514,
				"y": 0.3275043983,
				"z": -0.5955994509,
				"element": "C" 
			},
			{
				"x": -0.4894528333,
				"y": -0.5510659918,
				"z": -0.3436814844,
				"element": "N" 
			},
			{
				"x": 0.7800613084,
				"y": -0.1287064451,
				"z": -0.1205083632,
				"element": "C" 
			},
			{
				"x": 1.8714969187,
				"y": -1.0241678109,
				"z": 0.116794964,
				"element": "C" 
			},
			{
				"x": 3.1719859194,
				"y": -0.5448895812,
				"z": 0.3454840532,
				"element": "C" 
			},
			{
				"x": 3.4384948871,
				"y": 0.8104258763,
				"z": 0.3478987627,
				"element": "C" 
			},
			{
				"x": 2.3818284828,
				"y": 1.7075254433,
				"z": 0.1163672216,
				"element": "C" 
			},
			{
				"x": 1.0945590398,
				"y": 1.2577615533,
				"z": -0.1109015729,
				"element": "C" 
			},
			{
				"x": 1.6994329197,
				"y": -2.4597736617,
				"z": 0.1338348114,
				"element": "N" 
			},
			{
				"x": 0.5617831187,
				"y": -2.9381519883,
				"z": -0.0661314611,
				"element": "O" 
			},
			{
				"x": 2.6809844864,
				"y": -3.1740650652,
				"z": 0.3451411408,
				"element": "O" 
			},
			{
				"x": -6.0958364975,
				"y": 0.2548808024,
				"z": -1.4620884223,
				"element": "H" 
			},
			{
				"x": -5.3040277956,
				"y": -1.2881001097,
				"z": -1.3642335824,
				"element": "H" 
			},
			{
				"x": -2.7650723469,
				"y": -1.1952529341,
				"z": -1.6290244159,
				"element": "H" 
			},
			{
				"x": -3.0658251079,
				"y": -1.1213280488,
				"z": 0.1037551656,
				"element": "H" 
			},
			{
				"x": -1.4470539073,
				"y": 0.940944779,
				"z": -1.4897521131,
				"element": "H" 
			},
			{
				"x": -1.7680300616,
				"y": 1.0265692101,
				"z": 0.2357351987,
				"element": "H" 
			},
			{
				"x": -0.60764918,
				"y": -1.5575222097,
				"z": -0.3372419281,
				"element": "H" 
			},
			{
				"x": 3.9500361592,
				"y": -1.2772889344,
				"z": 0.5181634993,
				"element": "H" 
			},
			{
				"x": 4.4453474669,
				"y": 1.1716985735,
				"z": 0.5252598956,
				"element": "H" 
			},
			{
				"x": 2.57169957,
				"y": 2.7773174951,
				"z": 0.1141106541,
				"element": "H" 
			},
			{
				"x": 0.3014078648,
				"y": 1.9741444729,
				"z": -0.2861646592,
				"element": "H" 
			}
		],
		 "valence_orbital": [ 
			{
				"type": "occ",
				"energy": -0.2802,
				"method": "rhf"
			},
			{
				"type": "occ",
				"energy": -0.27896,
				"method": "rhf"
			},
			{
				"type": "occ",
				"energy": -0.27009,
				"method": "rhf"
			},
			{
				"type": "occ",
				"energy": -0.26236,
				"method": "rhf"
			},
			{
				"type": "occ",
				"energy": -0.21384,
				"method": "rhf"
			},
			{
				"type": "unocc",
				"energy": -0.07883,
				"method": "rhf"
			},
			{
				"type": "unocc",
				"energy": 0.00014,
				"method": "rhf"
			},
			{
				"type": "unocc",
				"energy": 0.01277,
				"method": "rhf"
			},
			{
				"type": "unocc",
				"energy": 0.01838,
				"method": "rhf"
			},
			{
				"type": "unocc",
				"energy": 0.06251,
				"method": "rhf"
			}
		],
		"cosmo_sigma_profile": { 
			"-0.025": 0.0,
			"-0.024": 0.0,
			"-0.023": 0.0,
			"-0.022": 0.0,
			"-0.021": 0.0,
			"-0.02": 0.0,
			"-0.019": 0.0,
			"-0.018": 0.0,
			"-0.017": 0.0,
			"-0.016": 0.0,
			"-0.015": 0.323453110174,
			"-0.014": 2.01853697695,
			"-0.013": 2.05944905729,
			"-0.012": 2.26884220194,
			"-0.011": 2.93098674081,
			"-0.01": 2.41594138524,
			"-0.009": 1.77665003426,
			"-0.008": 4.38052719662,
			"-0.007": 8.09212357421,
			"-0.006": 18.0033279386,
			"-0.005": 18.154824306,
			"-0.004": 19.2770082668,
			"-0.003": 14.4384496884,
			"-0.002": 12.1803138427,
			"-0.001": 13.4428331367,
			"0.0": 14.0112176063,
			"0.001": 16.0921398478,
			"0.002": 14.7050711312,
			"0.003": 14.8620689897,
			"0.004": 13.0536312257,
			"0.005": 4.69524820406,
			"0.006": 4.11995851353,
			"0.007": 4.38945645887,
			"0.008": 7.63867396915,
			"0.009": 6.95564922843,
			"0.01": 5.32855024385,
			"0.011": 4.85344799654,
			"0.012": 2.27463599,
			"0.013": 3.96874606547,
			"0.014": 4.6727172395,
			"0.015": 0.572387451199,
			"0.016": 0.0,
			"0.017": 0.0,
			"0.018": 0.0,
			"0.019": 0.0,
			"0.02": 0.0,
			"0.021": 0.0,
			"0.022": 0.0,
			"0.023": 0.0,
			"0.024": 0.0,
			"0.025": 0.0
		}
	}
}
