{
	 "smiles": "COCC1=NC(SC)=NC(O)=C1", 
	 "Tm": 469.15, 
	 "num_atms": 22, 
	 "gaussian": { 
		 "optdone": 1, 
		 "sigma_profile": "yes", 
		 "theory": "DFT", 
		 "functional": "B3LYP", 
		 "basiset": "6-31G**", 
		 "properties": { 
			 "R2extent": 3234.3481, 
			 "electric_dipole_moment_norm": 1.41397536754, 
			 "electric_quadrupole_moment_norm": 4.52033744094, 
			 "total_energy": -930.901324199, 
			 "HOMO_LUMO_gap": 0.19259, 
			 "cosmo_polarized_energy": -12.2, 
			 "cosmo_cavitation_energy": 27.9, 
			 "cosmo_dispersion_energy": -20.36, 
			 "cosmo_repulsion_energy": 1.62, 
			 "cosmo_total_nonelectrostatic_energy": 9.15, 
			 "SMD_solvation_energy": 3.8 
		},
		"coords": [
			{
				"x": -1.9832732394,
				"y": 0.3944653921,
				"z": 1.5053794699,
				"element": "C" 
			},
			{
				"x": -0.6896603858,
				"y": 0.3219965888,
				"z": 2.0759458539,
				"element": "O" 
			},
			{
				"x": 0.1699649179,
				"y": -0.5748074607,
				"z": 1.4118811429,
				"element": "C" 
			},
			{
				"x": 0.5680597687,
				"y": -0.1434145856,
				"z": 0.0082321846,
				"element": "C" 
			},
			{
				"x": 0.9377917223,
				"y": 1.14492715,
				"z": -0.1442641068,
				"element": "N" 
			},
			{
				"x": 1.3141257365,
				"y": 1.5070054935,
				"z": -1.3676516937,
				"element": "C" 
			},
			{
				"x": 1.8056874517,
				"y": 3.1828504852,
				"z": -1.6691933198,
				"element": "S" 
			},
			{
				"x": 1.6092050392,
				"y": 3.9163476983,
				"z": -0.0105169843,
				"element": "C" 
			},
			{
				"x": 1.3743842679,
				"y": 0.7221714832,
				"z": -2.4586705837,
				"element": "N" 
			},
			{
				"x": 1.0081620165,
				"y": -0.5411028806,
				"z": -2.2828579031,
				"element": "C" 
			},
			{
				"x": 1.0505230531,
				"y": -1.3595169411,
				"z": -3.3474168358,
				"element": "O" 
			},
			{
				"x": 0.5768275666,
				"y": -1.0460150962,
				"z": -1.0453769439,
				"element": "C" 
			},
			{
				"x": -2.4717236557,
				"y": -0.5927212349,
				"z": 1.4810247047,
				"element": "H" 
			},
			{
				"x": -2.5709567085,
				"y": 1.0629585434,
				"z": 2.1385344538,
				"element": "H" 
			},
			{
				"x": -1.9643032089,
				"y": 0.8003623741,
				"z": 0.4845394802,
				"element": "H" 
			},
			{
				"x": -0.266036747,
				"y": -1.5867129816,
				"z": 1.3675280728,
				"element": "H" 
			},
			{
				"x": 1.076361184,
				"y": -0.6264149679,
				"z": 2.0261759827,
				"element": "H" 
			},
			{
				"x": 0.578666714,
				"y": 3.8250481327,
				"z": 0.3324425269,
				"element": "H" 
			},
			{
				"x": 1.8780924063,
				"y": 4.9694233527,
				"z": -0.1192310408,
				"element": "H" 
			},
			{
				"x": 2.2724738747,
				"y": 3.4328736357,
				"z": 0.7069082786,
				"element": "H" 
			},
			{
				"x": 1.3651749806,
				"y": -0.8218542274,
				"z": -4.0929383939,
				"element": "H" 
			},
			{
				"x": 0.2704532452,
				"y": -2.0793699537,
				"z": -0.9390743452,
				"element": "H" 
			}
		],
		 "valence_orbital": [ 
			{
				"type": "occ",
				"energy": -0.30593,
				"method": "rhf"
			},
			{
				"type": "occ",
				"energy": -0.27568,
				"method": "rhf"
			},
			{
				"type": "occ",
				"energy": -0.26579,
				"method": "rhf"
			},
			{
				"type": "occ",
				"energy": -0.25861,
				"method": "rhf"
			},
			{
				"type": "occ",
				"energy": -0.22745,
				"method": "rhf"
			},
			{
				"type": "unocc",
				"energy": -0.03486,
				"method": "rhf"
			},
			{
				"type": "unocc",
				"energy": -0.01605,
				"method": "rhf"
			},
			{
				"type": "unocc",
				"energy": 0.03969,
				"method": "rhf"
			},
			{
				"type": "unocc",
				"energy": 0.07973,
				"method": "rhf"
			},
			{
				"type": "unocc",
				"energy": 0.09442,
				"method": "rhf"
			}
		],
		"cosmo_sigma_profile": { 
			"-0.025": 0.0,
			"-0.024": 0.0,
			"-0.023": 0.0,
			"-0.022": 0.0,
			"-0.021": 0.0,
			"-0.02": 0.0,
			"-0.019": 0.0,
			"-0.018": 0.398133826078,
			"-0.017": 1.03479871483,
			"-0.016": 0.360072279601,
			"-0.015": 1.21542181362,
			"-0.014": 0.568428965377,
			"-0.013": 0.873610017998,
			"-0.012": 0.383718690949,
			"-0.011": 0.569071701905,
			"-0.01": 0.747206351237,
			"-0.009": 0.589796259906,
			"-0.008": 2.28518556961,
			"-0.007": 5.91993354401,
			"-0.006": 8.40949085188,
			"-0.005": 14.3718284095,
			"-0.004": 19.3898001939,
			"-0.003": 19.3570835111,
			"-0.002": 24.5704035393,
			"-0.001": 19.1418156487,
			"0.0": 14.204033148,
			"0.001": 13.5519565965,
			"0.002": 8.48862581324,
			"0.003": 7.38720060817,
			"0.004": 9.85796657718,
			"0.005": 10.1418517634,
			"0.006": 8.73395633671,
			"0.007": 7.75128323965,
			"0.008": 6.03535278745,
			"0.009": 4.91807795496,
			"0.01": 3.70651502613,
			"0.011": 2.3377334659,
			"0.012": 2.00201870587,
			"0.013": 2.25740725732,
			"0.014": 1.01405494588,
			"0.015": 0.352294537751,
			"0.016": 0.00068922041483,
			"0.017": 0.0,
			"0.018": 0.0,
			"0.019": 0.0,
			"0.02": 0.0,
			"0.021": 0.0,
			"0.022": 0.0,
			"0.023": 0.0,
			"0.024": 0.0,
			"0.025": 0.0
		}
	}
}
