{
	 "smiles": "OC(=O)C1=CC=NC=C1", 
	 "Tm": 588.15, 
	 "num_atms": 14, 
	 "gaussian": { 
		 "optdone": 1, 
		 "sigma_profile": "yes", 
		 "theory": "DFT", 
		 "functional": "B3LYP", 
		 "basiset": "6-31G**", 
		 "properties": { 
			 "R2extent": 1908.9629, 
			 "electric_dipole_moment_norm": 2.8745724656, 
			 "electric_quadrupole_moment_norm": 17.1239672748, 
			 "total_energy": -436.846678283, 
			 "HOMO_LUMO_gap": 0.19979, 
			 "cosmo_polarized_energy": -14.69, 
			 "cosmo_cavitation_energy": 18.81, 
			 "cosmo_dispersion_energy": -14.12, 
			 "cosmo_repulsion_energy": 1.15, 
			 "cosmo_total_nonelectrostatic_energy": 5.85, 
			 "SMD_solvation_energy": 3.22 
		},
		"coords": [
			{
				"x": 3.4271592391,
				"y": -1.1679456281,
				"z": 0.672979625,
				"element": "O" 
			},
			{
				"x": 2.6597815054,
				"y": -0.0762251653,
				"z": 0.4252891426,
				"element": "C" 
			},
			{
				"x": 2.7541641202,
				"y": 0.9073908018,
				"z": 1.1182099996,
				"element": "O" 
			},
			{
				"x": 1.7098193511,
				"y": -0.1666897564,
				"z": -0.7377749077,
				"element": "C" 
			},
			{
				"x": 0.6255986965,
				"y": 0.7149785725,
				"z": -0.7752598756,
				"element": "C" 
			},
			{
				"x": -0.2585112719,
				"y": 0.6415336964,
				"z": -1.8501372405,
				"element": "C" 
			},
			{
				"x": -0.1217419947,
				"y": -0.2187482018,
				"z": -2.8688373051,
				"element": "N" 
			},
			{
				"x": 0.9305106321,
				"y": -1.0431716555,
				"z": -2.8365496116,
				"element": "C" 
			},
			{
				"x": 1.868054992,
				"y": -1.0613132957,
				"z": -1.801934786,
				"element": "C" 
			},
			{
				"x": 3.1353666818,
				"y": -1.9170724052,
				"z": 0.1349455055,
				"element": "H" 
			},
			{
				"x": 0.4905841781,
				"y": 1.4338685873,
				"z": 0.0249816908,
				"element": "H" 
			},
			{
				"x": -1.1181560199,
				"y": 1.3068460151,
				"z": -1.8977247733,
				"element": "H" 
			},
			{
				"x": 1.0366496918,
				"y": -1.7222895631,
				"z": -3.680291896,
				"element": "H" 
			},
			{
				"x": 2.7151201984,
				"y": -1.7395620021,
				"z": -1.8650955677,
				"element": "H" 
			}
		],
		 "valence_orbital": [ 
			{
				"type": "occ",
				"energy": -0.33213,
				"method": "rhf"
			},
			{
				"type": "occ",
				"energy": -0.30787,
				"method": "rhf"
			},
			{
				"type": "occ",
				"energy": -0.28938,
				"method": "rhf"
			},
			{
				"type": "occ",
				"energy": -0.28322,
				"method": "rhf"
			},
			{
				"type": "occ",
				"energy": -0.27296,
				"method": "rhf"
			},
			{
				"type": "unocc",
				"energy": -0.07317,
				"method": "rhf"
			},
			{
				"type": "unocc",
				"energy": -0.03462,
				"method": "rhf"
			},
			{
				"type": "unocc",
				"energy": 0.03168,
				"method": "rhf"
			},
			{
				"type": "unocc",
				"energy": 0.05156,
				"method": "rhf"
			},
			{
				"type": "unocc",
				"energy": 0.10143,
				"method": "rhf"
			}
		],
		"cosmo_sigma_profile": { 
			"-0.025": 0.0,
			"-0.024": 0.0,
			"-0.023": 0.0,
			"-0.022": 0.0,
			"-0.021": 0.0,
			"-0.02": 0.0525781974512,
			"-0.019": 0.756329987777,
			"-0.018": 0.805205387311,
			"-0.017": 1.0843636685,
			"-0.016": 1.00988315522,
			"-0.015": 1.27093964713,
			"-0.014": 1.20721404767,
			"-0.013": 1.12279888882,
			"-0.012": 1.00118011398,
			"-0.011": 1.32546282285,
			"-0.01": 1.16723733186,
			"-0.009": 1.77543685802,
			"-0.008": 3.37896088699,
			"-0.007": 8.42250670353,
			"-0.006": 9.22913761109,
			"-0.005": 7.14709214898,
			"-0.004": 7.30351116494,
			"-0.003": 7.24498850693,
			"-0.002": 6.92457315738,
			"-0.001": 8.68510028898,
			"0.0": 14.2718708601,
			"0.001": 14.0484144643,
			"0.002": 4.47502446304,
			"0.003": 3.93484542242,
			"0.004": 4.3174553678,
			"0.005": 3.72658638169,
			"0.006": 3.28968141355,
			"0.007": 3.77956616441,
			"0.008": 4.9964617464,
			"0.009": 4.34227947895,
			"0.01": 6.18440784517,
			"0.011": 6.20811802628,
			"0.012": 3.88012535269,
			"0.013": 1.13255731612,
			"0.014": 0.525672708219,
			"0.015": 1.09542964139,
			"0.016": 0.361708303088,
			"0.017": 0.0,
			"0.018": 0.0,
			"0.019": 0.0,
			"0.02": 0.0,
			"0.021": 0.0,
			"0.022": 0.0,
			"0.023": 0.0,
			"0.024": 0.0,
			"0.025": 0.0
		}
	}
}
