{
	 "smiles": "NNC(=O)CCC1=CC=CC=C1", 
	 "Tm": 373.15, 
	 "num_atms": 24, 
	 "gaussian": { 
		 "optdone": 1, 
		 "sigma_profile": "yes", 
		 "theory": "DFT", 
		 "functional": "B3LYP", 
		 "basiset": "6-31G**", 
		 "properties": { 
			 "R2extent": 2721.8251, 
			 "electric_dipole_moment_norm": 2.11285449097, 
			 "electric_quadrupole_moment_norm": 8.19002048471, 
			 "total_energy": -534.90741869, 
			 "HOMO_LUMO_gap": 0.23962, 
			 "cosmo_polarized_energy": -12.9, 
			 "cosmo_cavitation_energy": 27.64, 
			 "cosmo_dispersion_energy": -19.42, 
			 "cosmo_repulsion_energy": 1.58, 
			 "cosmo_total_nonelectrostatic_energy": 9.8, 
			 "SMD_solvation_energy": 5.36 
		},
		"coords": [
			{
				"x": 1.6282758725,
				"y": 3.1178083633,
				"z": -2.5181356309,
				"element": "N" 
			},
			{
				"x": 1.3646047361,
				"y": 2.9145351917,
				"z": -1.1484236364,
				"element": "N" 
			},
			{
				"x": 0.0877118962,
				"y": 2.9122563079,
				"z": -0.6596215633,
				"element": "C" 
			},
			{
				"x": -0.8735692201,
				"y": 3.197011922,
				"z": -1.3675991596,
				"element": "O" 
			},
			{
				"x": -0.0453880497,
				"y": 2.5717431455,
				"z": 0.8206594013,
				"element": "C" 
			},
			{
				"x": -1.2377025774,
				"y": 1.6300091619,
				"z": 1.0896431857,
				"element": "C" 
			},
			{
				"x": -1.02557398,
				"y": 0.2253607413,
				"z": 0.5628922605,
				"element": "C" 
			},
			{
				"x": -0.4389180745,
				"y": -0.7596321709,
				"z": 1.3696970397,
				"element": "C" 
			},
			{
				"x": -0.214256152,
				"y": -2.0479033485,
				"z": 0.8819402666,
				"element": "C" 
			},
			{
				"x": -0.5754206831,
				"y": -2.3726967594,
				"z": -0.4269517458,
				"element": "C" 
			},
			{
				"x": -1.1622090966,
				"y": -1.4013518805,
				"z": -1.2403670772,
				"element": "C" 
			},
			{
				"x": -1.3856036249,
				"y": -0.1137320013,
				"z": -0.7498185666,
				"element": "C" 
			},
			{
				"x": 0.8816483743,
				"y": 2.6498540825,
				"z": -3.0337583684,
				"element": "H" 
			},
			{
				"x": 1.5001889514,
				"y": 4.1113779346,
				"z": -2.7085149559,
				"element": "H" 
			},
			{
				"x": 2.1133301654,
				"y": 2.4750408638,
				"z": -0.6337307032,
				"element": "H" 
			},
			{
				"x": 0.8831820792,
				"y": 2.1409442743,
				"z": 1.2133314234,
				"element": "H" 
			},
			{
				"x": -0.2087060739,
				"y": 3.5193896136,
				"z": 1.3494910411,
				"element": "H" 
			},
			{
				"x": -2.1222700223,
				"y": 2.0769463827,
				"z": 0.6263374205,
				"element": "H" 
			},
			{
				"x": -1.4141158239,
				"y": 1.5958459626,
				"z": 2.1702974015,
				"element": "H" 
			},
			{
				"x": -0.1628915114,
				"y": -0.5163841901,
				"z": 2.3936743512,
				"element": "H" 
			},
			{
				"x": 0.2367524951,
				"y": -2.7985218625,
				"z": 1.525314272,
				"element": "H" 
			},
			{
				"x": -0.4055938413,
				"y": -3.3757678747,
				"z": -0.8078913657,
				"element": "H" 
			},
			{
				"x": -1.4515754207,
				"y": -1.6471881865,
				"z": -2.2585124722,
				"element": "H" 
			},
			{
				"x": -1.8379004183,
				"y": 0.6423543267,
				"z": -1.3851528184,
				"element": "H" 
			}
		],
		 "valence_orbital": [ 
			{
				"type": "occ",
				"energy": -0.28345,
				"method": "rhf"
			},
			{
				"type": "occ",
				"energy": -0.25715,
				"method": "rhf"
			},
			{
				"type": "occ",
				"energy": -0.25434,
				"method": "rhf"
			},
			{
				"type": "occ",
				"energy": -0.24567,
				"method": "rhf"
			},
			{
				"type": "occ",
				"energy": -0.23899,
				"method": "rhf"
			},
			{
				"type": "unocc",
				"energy": 0.00063,
				"method": "rhf"
			},
			{
				"type": "unocc",
				"energy": 0.00138,
				"method": "rhf"
			},
			{
				"type": "unocc",
				"energy": 0.02431,
				"method": "rhf"
			},
			{
				"type": "unocc",
				"energy": 0.08112,
				"method": "rhf"
			},
			{
				"type": "unocc",
				"energy": 0.08775,
				"method": "rhf"
			}
		],
		"cosmo_sigma_profile": { 
			"-0.025": 0.0,
			"-0.024": 0.0,
			"-0.023": 0.0,
			"-0.022": 0.0,
			"-0.021": 0.0,
			"-0.02": 0.0,
			"-0.019": 0.0,
			"-0.018": 0.0,
			"-0.017": 0.0,
			"-0.016": 0.0,
			"-0.015": 0.093597765337,
			"-0.014": 1.09341618331,
			"-0.013": 1.28248844258,
			"-0.012": 1.52695070546,
			"-0.011": 2.40683280335,
			"-0.01": 3.29260079118,
			"-0.009": 3.49966156225,
			"-0.008": 2.83001981991,
			"-0.007": 3.42555469138,
			"-0.006": 5.88710929978,
			"-0.005": 13.727214967,
			"-0.004": 17.6932333701,
			"-0.003": 22.7706354292,
			"-0.002": 19.2585741164,
			"-0.001": 16.5378879018,
			"0.0": 13.215986514,
			"0.001": 11.0090213855,
			"0.002": 12.1597045221,
			"0.003": 9.99251786049,
			"0.004": 11.5589396897,
			"0.005": 9.33319747167,
			"0.006": 11.1205001047,
			"0.007": 4.71938293208,
			"0.008": 1.68942751431,
			"0.009": 1.84207389177,
			"0.01": 1.41301562492,
			"0.011": 2.54716852715,
			"0.012": 2.5584060776,
			"0.013": 2.93131036512,
			"0.014": 4.37534625033,
			"0.015": 0.58225311618,
			"0.016": 0.990546229393,
			"0.017": 0.141283619926,
			"0.018": 0.0,
			"0.019": 0.0,
			"0.02": 0.0,
			"0.021": 0.0,
			"0.022": 0.0,
			"0.023": 0.0,
			"0.024": 0.0,
			"0.025": 0.0
		}
	}
}
