{
	 "smiles": "COC(=O)C1=CC(=NN1)C(C)(C)C", 
	 "Tm": 446.15, 
	 "num_atms": 27, 
	 "gaussian": { 
		 "optdone": 1, 
		 "sigma_profile": "yes", 
		 "theory": "DFT", 
		 "functional": "B3LYP", 
		 "basiset": "6-31G**", 
		 "properties": { 
			 "R2extent": 3565.9411, 
			 "electric_dipole_moment_norm": 2.14116525518, 
			 "electric_quadrupole_moment_norm": 5.50363401672, 
			 "total_energy": -611.352059935, 
			 "HOMO_LUMO_gap": 0.21052, 
			 "cosmo_polarized_energy": -9.48, 
			 "cosmo_cavitation_energy": 30.33, 
			 "cosmo_dispersion_energy": -21.52, 
			 "cosmo_repulsion_energy": 1.72, 
			 "cosmo_total_nonelectrostatic_energy": 10.53, 
			 "SMD_solvation_energy": 6.2 
		},
		"coords": [
			{
				"x": 1.0956402004,
				"y": 4.0548039243,
				"z": 0.2893072193,
				"element": "C" 
			},
			{
				"x": 0.9668447918,
				"y": 2.6877540521,
				"z": -0.1362737792,
				"element": "O" 
			},
			{
				"x": -0.2836808674,
				"y": 2.189177077,
				"z": -0.0881646114,
				"element": "C" 
			},
			{
				"x": -1.2608931755,
				"y": 2.8162787339,
				"z": 0.2822715894,
				"element": "O" 
			},
			{
				"x": -0.3421069573,
				"y": 0.7934268919,
				"z": -0.5344454983,
				"element": "C" 
			},
			{
				"x": 0.5909992376,
				"y": -0.1235834037,
				"z": -0.9919384027,
				"element": "C" 
			},
			{
				"x": -0.1486031039,
				"y": -1.3035383621,
				"z": -1.2522980443,
				"element": "C" 
			},
			{
				"x": -1.4481239961,
				"y": -1.1179867209,
				"z": -0.9717956244,
				"element": "N" 
			},
			{
				"x": -1.5395489392,
				"y": 0.1465989126,
				"z": -0.5429763505,
				"element": "N" 
			},
			{
				"x": 0.369439536,
				"y": -2.6330810563,
				"z": -1.7745486324,
				"element": "C" 
			},
			{
				"x": 1.024299493,
				"y": -2.4135854622,
				"z": -3.1577414177,
				"element": "C" 
			},
			{
				"x": -0.779934093,
				"y": -3.6480697936,
				"z": -1.9097394426,
				"element": "C" 
			},
			{
				"x": 1.4277757575,
				"y": -3.1856438911,
				"z": -0.7923393111,
				"element": "C" 
			},
			{
				"x": 0.7731963775,
				"y": 4.1662706155,
				"z": 1.3275161224,
				"element": "H" 
			},
			{
				"x": 2.153963894,
				"y": 4.2936439466,
				"z": 0.1886886602,
				"element": "H" 
			},
			{
				"x": 0.4913863236,
				"y": 4.7122027343,
				"z": -0.3407508156,
				"element": "H" 
			},
			{
				"x": 1.6489272251,
				"y": 0.049531911,
				"z": -1.1144204496,
				"element": "H" 
			},
			{
				"x": -2.4251552255,
				"y": 0.5429790793,
				"z": -0.2634474793,
				"element": "H" 
			},
			{
				"x": 1.4182425911,
				"y": -3.3589049816,
				"z": -3.5474379312,
				"element": "H" 
			},
			{
				"x": 1.8554313708,
				"y": -1.702781545,
				"z": -3.1010324321,
				"element": "H" 
			},
			{
				"x": 0.297949393,
				"y": -2.0247780028,
				"z": -3.8786371296,
				"element": "H" 
			},
			{
				"x": -0.3914167814,
				"y": -4.6002890929,
				"z": -2.2866179113,
				"element": "H" 
			},
			{
				"x": -1.2651447722,
				"y": -3.829533621,
				"z": -0.9468179767,
				"element": "H" 
			},
			{
				"x": -1.5473025321,
				"y": -3.2897781881,
				"z": -2.6013594644,
				"element": "H" 
			},
			{
				"x": 2.2687412063,
				"y": -2.4938830866,
				"z": -0.6762756983,
				"element": "H" 
			},
			{
				"x": 1.8262485807,
				"y": -4.1387300669,
				"z": -1.1577520923,
				"element": "H" 
			},
			{
				"x": 0.9932244654,
				"y": -3.3559006036,
				"z": 0.1979269034,
				"element": "H" 
			}
		],
		 "valence_orbital": [ 
			{
				"type": "occ",
				"energy": -0.30942,
				"method": "rhf"
			},
			{
				"type": "occ",
				"energy": -0.28944,
				"method": "rhf"
			},
			{
				"type": "occ",
				"energy": -0.28499,
				"method": "rhf"
			},
			{
				"type": "occ",
				"energy": -0.25603,
				"method": "rhf"
			},
			{
				"type": "occ",
				"energy": -0.25048,
				"method": "rhf"
			},
			{
				"type": "unocc",
				"energy": -0.03996,
				"method": "rhf"
			},
			{
				"type": "unocc",
				"energy": 0.04713,
				"method": "rhf"
			},
			{
				"type": "unocc",
				"energy": 0.08544,
				"method": "rhf"
			},
			{
				"type": "unocc",
				"energy": 0.09596,
				"method": "rhf"
			},
			{
				"type": "unocc",
				"energy": 0.10615,
				"method": "rhf"
			}
		],
		"cosmo_sigma_profile": { 
			"-0.025": 0.0,
			"-0.024": 0.0,
			"-0.023": 0.0,
			"-0.022": 0.0,
			"-0.021": 0.0,
			"-0.02": 0.0,
			"-0.019": 0.0,
			"-0.018": 0.0,
			"-0.017": 0.109024192674,
			"-0.016": 0.895748523651,
			"-0.015": 0.701558526996,
			"-0.014": 0.708315110244,
			"-0.013": 0.603002880335,
			"-0.012": 0.719252983876,
			"-0.011": 1.24125291218,
			"-0.01": 0.582831185431,
			"-0.009": 0.308868804967,
			"-0.008": 0.727672290307,
			"-0.007": 3.03505015261,
			"-0.006": 8.49922843226,
			"-0.005": 10.309450006,
			"-0.004": 13.0146861599,
			"-0.003": 23.8610119667,
			"-0.002": 27.538212954,
			"-0.001": 23.5706798427,
			"0.0": 22.5710830467,
			"0.001": 29.4690201158,
			"0.002": 17.7289649212,
			"0.003": 11.0725781498,
			"0.004": 7.42511037186,
			"0.005": 4.84385084156,
			"0.006": 5.38399333133,
			"0.007": 3.84203169412,
			"0.008": 3.23825158401,
			"0.009": 2.6487174535,
			"0.01": 3.38531611182,
			"0.011": 4.44005904733,
			"0.012": 3.23595534218,
			"0.013": 0.780726849808,
			"0.014": 0.842233184914,
			"0.015": 0.242252791189,
			"0.016": 0.0,
			"0.017": 0.0,
			"0.018": 0.0,
			"0.019": 0.0,
			"0.02": 0.0,
			"0.021": 0.0,
			"0.022": 0.0,
			"0.023": 0.0,
			"0.024": 0.0,
			"0.025": 0.0
		}
	}
}
