{
	 "smiles": "NC1=C(C(=NN1C1=C(Cl)C=C(C=C1Cl)C(F)(F)F)C#N)S(=O)C(F)(F)F", 
	 "Tm": 473.15, 
	 "num_atms": 30, 
	 "gaussian": { 
		 "optdone": 1, 
		 "sigma_profile": "yes", 
		 "theory": "DFT", 
		 "functional": "B3LYP", 
		 "basiset": "6-31G**", 
		 "properties": { 
			 "R2extent": 14875.666, 
			 "electric_dipole_moment_norm": 5.74174598794, 
			 "electric_quadrupole_moment_norm": 29.8962073074, 
			 "total_energy": -2671.41674559, 
			 "HOMO_LUMO_gap": 0.16436, 
			 "cosmo_polarized_energy": -16.81, 
			 "cosmo_cavitation_energy": 45.56, 
			 "cosmo_dispersion_energy": -29.38, 
			 "cosmo_repulsion_energy": 2.08, 
			 "cosmo_total_nonelectrostatic_energy": 18.26, 
			 "SMD_solvation_energy": 9.43 
		},
		"coords": [
			{
				"x": -1.348201452,
				"y": -0.0577021132,
				"z": -1.6335268695,
				"element": "N" 
			},
			{
				"x": -2.2536962646,
				"y": 0.1463685449,
				"z": -0.6383614638,
				"element": "C" 
			},
			{
				"x": -3.5961830287,
				"y": -0.2271079526,
				"z": -0.5596037049,
				"element": "C" 
			},
			{
				"x": -4.0264228287,
				"y": 0.2180764564,
				"z": 0.7242225463,
				"element": "C" 
			},
			{
				"x": -3.0483090784,
				"y": 0.7976483268,
				"z": 1.4080292027,
				"element": "N" 
			},
			{
				"x": -1.970946655,
				"y": 0.7497624651,
				"z": 0.5596179911,
				"element": "N" 
			},
			{
				"x": -0.7244032272,
				"y": 1.276781686,
				"z": 0.9841056382,
				"element": "C" 
			},
			{
				"x": 0.1244399876,
				"y": 0.5233441962,
				"z": 1.8139800248,
				"element": "C" 
			},
			{
				"x": -0.3335811458,
				"y": -1.0813221154,
				"z": 2.2995216192,
				"element": "Cl" 
			},
			{
				"x": 1.3403917915,
				"y": 1.043517781,
				"z": 2.2512418384,
				"element": "C" 
			},
			{
				"x": 1.7177557359,
				"y": 2.3251970598,
				"z": 1.8531097331,
				"element": "C" 
			},
			{
				"x": 0.8996216194,
				"y": 3.0920673875,
				"z": 1.0250962186,
				"element": "C" 
			},
			{
				"x": -0.3170199914,
				"y": 2.5650613749,
				"z": 0.5984243521,
				"element": "C" 
			},
			{
				"x": -1.3409943968,
				"y": 3.5285437267,
				"z": -0.4333671878,
				"element": "Cl" 
			},
			{
				"x": 3.0107694673,
				"y": 2.9133009276,
				"z": 2.3704810108,
				"element": "C" 
			},
			{
				"x": 3.530388361,
				"y": 3.8016667391,
				"z": 1.4996390321,
				"element": "F" 
			},
			{
				"x": 2.8149368309,
				"y": 3.5592439888,
				"z": 3.5374509549,
				"element": "F" 
			},
			{
				"x": 3.9341970978,
				"y": 1.9561896942,
				"z": 2.5888009469,
				"element": "F" 
			},
			{
				"x": -5.3326487491,
				"y": 0.078362252,
				"z": 1.2831474688,
				"element": "C" 
			},
			{
				"x": -6.4107158453,
				"y": -0.0520674044,
				"z": 1.6970445341,
				"element": "N" 
			},
			{
				"x": -4.5278683615,
				"y": -0.8829867974,
				"z": -1.9142512536,
				"element": "S" 
			},
			{
				"x": -3.7002247233,
				"y": -0.6395299916,
				"z": -3.1630791747,
				"element": "O" 
			},
			{
				"x": -4.2694082173,
				"y": -2.7035332983,
				"z": -1.4840536635,
				"element": "C" 
			},
			{
				"x": -4.7969343001,
				"y": -2.9339465592,
				"z": -0.2765157022,
				"element": "F" 
			},
			{
				"x": -2.9770865916,
				"y": -3.0354506958,
				"z": -1.4814504796,
				"element": "F" 
			},
			{
				"x": -4.9095397982,
				"y": -3.442475937,
				"z": -2.3943482142,
				"element": "F" 
			},
			{
				"x": -0.584800624,
				"y": 0.6009890698,
				"z": -1.7028413566,
				"element": "H" 
			},
			{
				"x": -1.7975247297,
				"y": -0.3043876479,
				"z": -2.5151947918,
				"element": "H" 
			},
			{
				"x": 1.9859218341,
				"y": 0.4485585399,
				"z": 2.8851029041,
				"element": "H" 
			},
			{
				"x": 1.200387283,
				"y": 4.0843302961,
				"z": 0.7131778462,
				"element": "H" 
			}
		],
		 "valence_orbital": [ 
			{
				"type": "occ",
				"energy": -0.30521,
				"method": "rhf"
			},
			{
				"type": "occ",
				"energy": -0.29822,
				"method": "rhf"
			},
			{
				"type": "occ",
				"energy": -0.29074,
				"method": "rhf"
			},
			{
				"type": "occ",
				"energy": -0.27104,
				"method": "rhf"
			},
			{
				"type": "occ",
				"energy": -0.24788,
				"method": "rhf"
			},
			{
				"type": "unocc",
				"energy": -0.08352,
				"method": "rhf"
			},
			{
				"type": "unocc",
				"energy": -0.06717,
				"method": "rhf"
			},
			{
				"type": "unocc",
				"energy": -0.05088,
				"method": "rhf"
			},
			{
				"type": "unocc",
				"energy": -0.02859,
				"method": "rhf"
			},
			{
				"type": "unocc",
				"energy": -0.02657,
				"method": "rhf"
			}
		],
		"cosmo_sigma_profile": { 
			"-0.025": 0.0,
			"-0.024": 0.0,
			"-0.023": 0.0,
			"-0.022": 0.0,
			"-0.021": 0.0,
			"-0.02": 0.0,
			"-0.019": 0.0,
			"-0.018": 0.0,
			"-0.017": 0.0,
			"-0.016": 0.0,
			"-0.015": 0.322883748445,
			"-0.014": 1.1179802301,
			"-0.013": 1.17420525644,
			"-0.012": 2.20806912559,
			"-0.011": 2.19844223161,
			"-0.01": 2.19593083939,
			"-0.009": 4.72499929178,
			"-0.008": 4.54428114786,
			"-0.007": 8.33377625961,
			"-0.006": 8.79184853587,
			"-0.005": 10.8166850762,
			"-0.004": 16.7329633128,
			"-0.003": 24.8446913549,
			"-0.002": 40.2893231111,
			"-0.001": 34.2131426127,
			"0.0": 36.0206363349,
			"0.001": 52.9040908433,
			"0.002": 51.6070524875,
			"0.003": 21.4301781205,
			"0.004": 7.66424197226,
			"0.005": 5.64010307768,
			"0.006": 5.65204046965,
			"0.007": 7.08278149826,
			"0.008": 4.74279469218,
			"0.009": 4.79092294189,
			"0.01": 5.65262467152,
			"0.011": 5.24182687143,
			"0.012": 3.33137440422,
			"0.013": 0.707592311154,
			"0.014": 0.0,
			"0.015": 0.0,
			"0.016": 0.0,
			"0.017": 0.0,
			"0.018": 0.0,
			"0.019": 0.0,
			"0.02": 0.0,
			"0.021": 0.0,
			"0.022": 0.0,
			"0.023": 0.0,
			"0.024": 0.0,
			"0.025": 0.0
		}
	}
}
