{
	 "smiles": "CCOC(CC(N)=O)OCC", 
	 "Tm": 325.15, 
	 "num_atms": 26, 
	 "gaussian": { 
		 "optdone": 1, 
		 "sigma_profile": "yes", 
		 "theory": "DFT", 
		 "functional": "B3LYP", 
		 "basiset": "6-31G**", 
		 "properties": { 
			 "R2extent": 2520.2802, 
			 "electric_dipole_moment_norm": 1.73665726613, 
			 "electric_quadrupole_moment_norm": 12.4658434849, 
			 "total_energy": -556.217475475, 
			 "HOMO_LUMO_gap": 0.27353, 
			 "cosmo_polarized_energy": -14.24, 
			 "cosmo_cavitation_energy": 28.62, 
			 "cosmo_dispersion_energy": -19.98, 
			 "cosmo_repulsion_energy": 1.68, 
			 "cosmo_total_nonelectrostatic_energy": 10.33, 
			 "SMD_solvation_energy": 5.83 
		},
		"coords": [
			{
				"x": 0.2603316781,
				"y": 2.4377042839,
				"z": 1.9150071843,
				"element": "C" 
			},
			{
				"x": 0.8789144185,
				"y": 1.2018857296,
				"z": 1.2836745252,
				"element": "C" 
			},
			{
				"x": -0.0637551243,
				"y": 0.130333267,
				"z": 1.4019566455,
				"element": "O" 
			},
			{
				"x": 0.299996408,
				"y": -1.0874123891,
				"z": 0.7692855545,
				"element": "C" 
			},
			{
				"x": -0.7408478957,
				"y": -1.4271980662,
				"z": -0.2941621208,
				"element": "C" 
			},
			{
				"x": -0.7366045455,
				"y": -0.4069869955,
				"z": -1.4266068591,
				"element": "C" 
			},
			{
				"x": -1.9449007813,
				"y": -0.2001942702,
				"z": -2.0269053922,
				"element": "N" 
			},
			{
				"x": 0.2832745322,
				"y": 0.1563987225,
				"z": -1.8072204241,
				"element": "O" 
			},
			{
				"x": 0.2950411205,
				"y": -2.1616813986,
				"z": 1.6700642932,
				"element": "O" 
			},
			{
				"x": 1.2824129942,
				"y": -2.1164159311,
				"z": 2.7025119164,
				"element": "C" 
			},
			{
				"x": 0.7168597597,
				"y": -1.583141318,
				"z": 4.0146991139,
				"element": "C" 
			},
			{
				"x": 0.9509047302,
				"y": 3.2844197987,
				"z": 1.8465155192,
				"element": "H" 
			},
			{
				"x": -0.6677377711,
				"y": 2.7057343653,
				"z": 1.4015438103,
				"element": "H" 
			},
			{
				"x": 0.0286409432,
				"y": 2.2645691671,
				"z": 2.9704199403,
				"element": "H" 
			},
			{
				"x": 1.8179650686,
				"y": 0.9403939797,
				"z": 1.7964817273,
				"element": "H" 
			},
			{
				"x": 1.1086995822,
				"y": 1.378210832,
				"z": 0.2261446632,
				"element": "H" 
			},
			{
				"x": 1.2918165354,
				"y": -0.9710040708,
				"z": 0.3069046359,
				"element": "H" 
			},
			{
				"x": -0.5151003938,
				"y": -2.4139481645,
				"z": -0.7148411514,
				"element": "H" 
			},
			{
				"x": -1.7193287649,
				"y": -1.4914562708,
				"z": 0.1925882249,
				"element": "H" 
			},
			{
				"x": -2.8009831291,
				"y": -0.5793521699,
				"z": -1.6570668191,
				"element": "H" 
			},
			{
				"x": -1.9921997733,
				"y": 0.4765075067,
				"z": -2.7737994493,
				"element": "H" 
			},
			{
				"x": 2.1447937288,
				"y": -1.5182739269,
				"z": 2.3744623263,
				"element": "H" 
			},
			{
				"x": 1.6326962342,
				"y": -3.1473054089,
				"z": 2.8332346334,
				"element": "H" 
			},
			{
				"x": 0.3688002588,
				"y": -0.5552404458,
				"z": 3.8953586958,
				"element": "H" 
			},
			{
				"x": -0.1319643566,
				"y": -2.1948913237,
				"z": 4.3351575283,
				"element": "H" 
			},
			{
				"x": 1.4792745431,
				"y": -1.6152555026,
				"z": 4.8014912781,
				"element": "H" 
			}
		],
		 "valence_orbital": [ 
			{
				"type": "occ",
				"energy": -0.30613,
				"method": "rhf"
			},
			{
				"type": "occ",
				"energy": -0.27134,
				"method": "rhf"
			},
			{
				"type": "occ",
				"energy": -0.26772,
				"method": "rhf"
			},
			{
				"type": "occ",
				"energy": -0.24777,
				"method": "rhf"
			},
			{
				"type": "occ",
				"energy": -0.24533,
				"method": "rhf"
			},
			{
				"type": "unocc",
				"energy": 0.0282,
				"method": "rhf"
			},
			{
				"type": "unocc",
				"energy": 0.07464,
				"method": "rhf"
			},
			{
				"type": "unocc",
				"energy": 0.08802,
				"method": "rhf"
			},
			{
				"type": "unocc",
				"energy": 0.10575,
				"method": "rhf"
			},
			{
				"type": "unocc",
				"energy": 0.11912,
				"method": "rhf"
			}
		],
		"cosmo_sigma_profile": { 
			"-0.025": 0.0,
			"-0.024": 0.0,
			"-0.023": 0.0,
			"-0.022": 0.0,
			"-0.021": 0.0,
			"-0.02": 0.0,
			"-0.019": 0.0,
			"-0.018": 0.0,
			"-0.017": 0.0,
			"-0.016": 0.0,
			"-0.015": 0.130533677458,
			"-0.014": 1.81160286804,
			"-0.013": 2.26657385393,
			"-0.012": 3.02196133952,
			"-0.011": 2.46167298144,
			"-0.01": 2.32694438148,
			"-0.009": 3.00944873631,
			"-0.008": 1.59937589016,
			"-0.007": 2.53775571745,
			"-0.006": 4.21642004077,
			"-0.005": 6.86036096828,
			"-0.004": 15.296527136,
			"-0.003": 24.0011238664,
			"-0.002": 26.2432225843,
			"-0.001": 23.7082339842,
			"0.0": 22.0830169755,
			"0.001": 17.0463843522,
			"0.002": 7.83597201158,
			"0.003": 7.04940448223,
			"0.004": 7.19742646375,
			"0.005": 5.66624074332,
			"0.006": 4.40144353344,
			"0.007": 3.50109721817,
			"0.008": 4.31992693202,
			"0.009": 4.07279555033,
			"0.01": 3.59877421282,
			"0.011": 3.5592452927,
			"0.012": 4.15840791407,
			"0.013": 3.20994774109,
			"0.014": 3.90951717697,
			"0.015": 0.87692287402,
			"0.016": 0.0,
			"0.017": 0.0,
			"0.018": 0.0,
			"0.019": 0.0,
			"0.02": 0.0,
			"0.021": 0.0,
			"0.022": 0.0,
			"0.023": 0.0,
			"0.024": 0.0,
			"0.025": 0.0
		}
	}
}
