{
	 "smiles": "OC(=O)C1=C(C(O)=CC=C1)[N+]([O-])=O", 
	 "Tm": 452.15, 
	 "num_atms": 18, 
	 "gaussian": { 
		 "optdone": 1, 
		 "sigma_profile": "yes", 
		 "theory": "DFT", 
		 "functional": "B3LYP", 
		 "basiset": "6-31G**", 
		 "properties": { 
			 "R2extent": 2610.1707, 
			 "electric_dipole_moment_norm": 8.71159828964, 
			 "electric_quadrupole_moment_norm": 18.0508039378, 
			 "total_energy": -700.509593692, 
			 "HOMO_LUMO_gap": 0.18002, 
			 "cosmo_polarized_energy": -25.89, 
			 "cosmo_cavitation_energy": 24.16, 
			 "cosmo_dispersion_energy": -17.34, 
			 "cosmo_repulsion_energy": 1.38, 
			 "cosmo_total_nonelectrostatic_energy": 8.2, 
			 "SMD_solvation_energy": 8.09 
		},
		"coords": [
			{
				"x": -3.0025036977,
				"y": -1.3898448864,
				"z": -1.3814902126,
				"element": "O" 
			},
			{
				"x": -1.6805247135,
				"y": -1.2817707878,
				"z": -1.6622747561,
				"element": "C" 
			},
			{
				"x": -1.1686084688,
				"y": -1.93450156,
				"z": -2.5333965512,
				"element": "O" 
			},
			{
				"x": -0.9066171861,
				"y": -0.3658141073,
				"z": -0.7443813625,
				"element": "C" 
			},
			{
				"x": 0.0280123641,
				"y": 0.5447807048,
				"z": -1.249119298,
				"element": "C" 
			},
			{
				"x": 0.8232965524,
				"y": 1.321874449,
				"z": -0.3930750116,
				"element": "C" 
			},
			{
				"x": 1.6712236182,
				"y": 2.2246378359,
				"z": -0.9342076051,
				"element": "O" 
			},
			{
				"x": 0.6726662424,
				"y": 1.1585478616,
				"z": 0.9920826805,
				"element": "C" 
			},
			{
				"x": -0.244485302,
				"y": 0.2464044034,
				"z": 1.5007193398,
				"element": "C" 
			},
			{
				"x": -1.038558987,
				"y": -0.513827341,
				"z": 0.6401100487,
				"element": "C" 
			},
			{
				"x": 0.1312190111,
				"y": 0.7486033053,
				"z": -2.7041969488,
				"element": "N" 
			},
			{
				"x": 1.247382932,
				"y": 0.700199852,
				"z": -3.2033444732,
				"element": "O" 
			},
			{
				"x": -0.9213347645,
				"y": 0.9691056537,
				"z": -3.3002606236,
				"element": "O" 
			},
			{
				"x": -3.2630176189,
				"y": -0.701508654,
				"z": -0.7523695064,
				"element": "H" 
			},
			{
				"x": 2.1187736187,
				"y": 2.7119784018,
				"z": -0.2298725801,
				"element": "H" 
			},
			{
				"x": 1.2804956902,
				"y": 1.7593337473,
				"z": 1.6642765755,
				"element": "H" 
			},
			{
				"x": -0.3391123753,
				"y": 0.1251809256,
				"z": 2.575149535,
				"element": "H" 
			},
			{
				"x": -1.7308069153,
				"y": -1.2481798041,
				"z": 1.0390507497,
				"element": "H" 
			}
		],
		 "valence_orbital": [ 
			{
				"type": "occ",
				"energy": -0.30704,
				"method": "rhf"
			},
			{
				"type": "occ",
				"energy": -0.30473,
				"method": "rhf"
			},
			{
				"type": "occ",
				"energy": -0.29005,
				"method": "rhf"
			},
			{
				"type": "occ",
				"energy": -0.27592,
				"method": "rhf"
			},
			{
				"type": "occ",
				"energy": -0.26347,
				"method": "rhf"
			},
			{
				"type": "unocc",
				"energy": -0.08345,
				"method": "rhf"
			},
			{
				"type": "unocc",
				"energy": -0.05247,
				"method": "rhf"
			},
			{
				"type": "unocc",
				"energy": -0.02668,
				"method": "rhf"
			},
			{
				"type": "unocc",
				"energy": 0.01868,
				"method": "rhf"
			},
			{
				"type": "unocc",
				"energy": 0.03975,
				"method": "rhf"
			}
		],
		"cosmo_sigma_profile": { 
			"-0.025": 0.0,
			"-0.024": 0.0,
			"-0.023": 0.0,
			"-0.022": 0.0,
			"-0.021": 0.0,
			"-0.02": 0.242074103734,
			"-0.019": 1.7898537667,
			"-0.018": 2.50252580535,
			"-0.017": 2.37378755395,
			"-0.016": 1.65881163936,
			"-0.015": 2.00277711692,
			"-0.014": 1.99074297031,
			"-0.013": 1.49543290691,
			"-0.012": 2.5388775334,
			"-0.011": 2.13639374699,
			"-0.01": 1.89968291677,
			"-0.009": 3.77037604447,
			"-0.008": 7.82870775666,
			"-0.007": 8.1946635467,
			"-0.006": 6.76473188343,
			"-0.005": 5.6906078679,
			"-0.004": 5.53958234912,
			"-0.003": 5.42710986542,
			"-0.002": 7.36533579597,
			"-0.001": 12.8995987603,
			"0.0": 12.4999070792,
			"0.001": 11.0521806661,
			"0.002": 8.48981068763,
			"0.003": 5.80509326988,
			"0.004": 6.57532751465,
			"0.005": 5.97564776454,
			"0.006": 9.62977424277,
			"0.007": 14.2678168154,
			"0.008": 11.2528040175,
			"0.009": 10.1611470778,
			"0.01": 7.16559027246,
			"0.011": 4.99930949605,
			"0.012": 1.48421133721,
			"0.013": 0.0300223304911,
			"0.014": 0.0,
			"0.015": 0.0,
			"0.016": 0.0,
			"0.017": 0.0,
			"0.018": 0.0,
			"0.019": 0.0,
			"0.02": 0.0,
			"0.021": 0.0,
			"0.022": 0.0,
			"0.023": 0.0,
			"0.024": 0.0,
			"0.025": 0.0
		}
	}
}
