{
	 "smiles": "COC1=CC=C(C=C2SC(=S)N(CNC3=CC=C(C=C3)[N+]([O-])=O)C2=O)C=C1", 
	 "Tm": 449.15, 
	 "num_atms": 42, 
	 "gaussian": { 
		 "optdone": 1, 
		 "sigma_profile": "yes", 
		 "theory": "DFT", 
		 "functional": "B3LYP", 
		 "basiset": "6-31G**", 
		 "properties": { 
			 "R2extent": 16206.5341, 
			 "electric_dipole_moment_norm": 9.0196678043, 
			 "electric_quadrupole_moment_norm": 46.6674711162, 
			 "total_energy": -1956.38404717, 
			 "HOMO_LUMO_gap": 0.11886, 
			 "cosmo_polarized_energy": -20.77, 
			 "cosmo_cavitation_energy": 50.7, 
			 "cosmo_dispersion_energy": -36.55, 
			 "cosmo_repulsion_energy": 2.64, 
			 "cosmo_total_nonelectrostatic_energy": 16.79, 
			 "SMD_solvation_energy": 9.73 
		},
		"coords": [
			{
				"x": -4.7115331709,
				"y": 4.1403375773,
				"z": -4.4467512763,
				"element": "C" 
			},
			{
				"x": -3.7828556582,
				"y": 3.0637076872,
				"z": -4.3745087853,
				"element": "O" 
			},
			{
				"x": -3.596416088,
				"y": 2.4409541404,
				"z": -3.1878919219,
				"element": "C" 
			},
			{
				"x": -4.2632517851,
				"y": 2.7724203794,
				"z": -1.9980515792,
				"element": "C" 
			},
			{
				"x": -3.9834639613,
				"y": 2.0554036598,
				"z": -0.8426099912,
				"element": "C" 
			},
			{
				"x": -3.0454549396,
				"y": 0.9980647938,
				"z": -0.8173016394,
				"element": "C" 
			},
			{
				"x": -2.8578233169,
				"y": 0.3459155117,
				"z": 0.4621571105,
				"element": "C" 
			},
			{
				"x": -2.0759052304,
				"y": -0.6682586082,
				"z": 0.9383496715,
				"element": "C" 
			},
			{
				"x": -2.197708424,
				"y": -1.1360077359,
				"z": 2.6582495475,
				"element": "S" 
			},
			{
				"x": -0.9741071724,
				"y": -2.3882245309,
				"z": 2.5000209618,
				"element": "C" 
			},
			{
				"x": -0.5033768424,
				"y": -3.3742524374,
				"z": 3.7448528234,
				"element": "S" 
			},
			{
				"x": -0.4996064424,
				"y": -2.411501688,
				"z": 1.2107248758,
				"element": "N" 
			},
			{
				"x": 0.5292591038,
				"y": -3.3940875065,
				"z": 0.7789955127,
				"element": "C" 
			},
			{
				"x": 1.8308286543,
				"y": -3.1923930495,
				"z": 1.3342635398,
				"element": "N" 
			},
			{
				"x": 2.7376170465,
				"y": -2.2250247017,
				"z": 0.9328413955,
				"element": "C" 
			},
			{
				"x": 2.5628095177,
				"y": -1.4446567996,
				"z": -0.2298627056,
				"element": "C" 
			},
			{
				"x": 3.5328838178,
				"y": -0.5252680292,
				"z": -0.6054122752,
				"element": "C" 
			},
			{
				"x": 4.6799929334,
				"y": -0.3669337993,
				"z": 0.1722700575,
				"element": "C" 
			},
			{
				"x": 4.8697974266,
				"y": -1.1213692587,
				"z": 1.3334511398,
				"element": "C" 
			},
			{
				"x": 3.9056716054,
				"y": -2.0404782784,
				"z": 1.707527086,
				"element": "C" 
			},
			{
				"x": 5.690877724,
				"y": 0.6030675296,
				"z": -0.2260666991,
				"element": "N" 
			},
			{
				"x": 5.4923420112,
				"y": 1.2550207544,
				"z": -1.255035231,
				"element": "O" 
			},
			{
				"x": 6.6910714933,
				"y": 0.7195369578,
				"z": 0.4877149797,
				"element": "O" 
			},
			{
				"x": -1.0711978971,
				"y": -1.5169077805,
				"z": 0.2779306871,
				"element": "C" 
			},
			{
				"x": -0.7261050625,
				"y": -1.5178716402,
				"z": -0.8977545555,
				"element": "O" 
			},
			{
				"x": -2.3869233313,
				"y": 0.6828967623,
				"z": -2.0333004966,
				"element": "C" 
			},
			{
				"x": -2.6596498206,
				"y": 1.3905780715,
				"z": -3.1882737486,
				"element": "C" 
			},
			{
				"x": -5.7264380103,
				"y": 3.8115234178,
				"z": -4.1929944029,
				"element": "H" 
			},
			{
				"x": -4.4199455033,
				"y": 4.9654342459,
				"z": -3.7860151667,
				"element": "H" 
			},
			{
				"x": -4.6910764698,
				"y": 4.4822507301,
				"z": -5.4818495606,
				"element": "H" 
			},
			{
				"x": -4.9893498085,
				"y": 3.5754327375,
				"z": -1.9664733983,
				"element": "H" 
			},
			{
				"x": -4.5053526552,
				"y": 2.3211662886,
				"z": 0.0730803497,
				"element": "H" 
			},
			{
				"x": -3.5005330919,
				"y": 0.7799931552,
				"z": 1.2287605829,
				"element": "H" 
			},
			{
				"x": 0.1747951548,
				"y": -4.3778452755,
				"z": 1.0903156964,
				"element": "H" 
			},
			{
				"x": 0.5456103444,
				"y": -3.3360650991,
				"z": -0.3085566746,
				"element": "H" 
			},
			{
				"x": 1.9235867942,
				"y": -3.5177591351,
				"z": 2.287496367,
				"element": "H" 
			},
			{
				"x": 1.6645766853,
				"y": -1.536937891,
				"z": -0.8290039141,
				"element": "H" 
			},
			{
				"x": 3.4106174664,
				"y": 0.0817427142,
				"z": -1.4939014422,
				"element": "H" 
			},
			{
				"x": 5.7677323315,
				"y": -0.9744504309,
				"z": 1.9205292974,
				"element": "H" 
			},
			{
				"x": 4.0478942965,
				"y": -2.6355832001,
				"z": 2.6054411515,
				"element": "H" 
			},
			{
				"x": -1.6643406828,
				"y": -0.1211175308,
				"z": -2.0503183708,
				"element": "H" 
			},
			{
				"x": -2.157149042,
				"y": 1.1523472917,
				"z": -4.119838998,
				"element": "H" 
			}
		],
		 "valence_orbital": [ 
			{
				"type": "occ",
				"energy": -0.2677,
				"method": "rhf"
			},
			{
				"type": "occ",
				"energy": -0.26423,
				"method": "rhf"
			},
			{
				"type": "occ",
				"energy": -0.24502,
				"method": "rhf"
			},
			{
				"type": "occ",
				"energy": -0.22427,
				"method": "rhf"
			},
			{
				"type": "occ",
				"energy": -0.22258,
				"method": "rhf"
			},
			{
				"type": "unocc",
				"energy": -0.10372,
				"method": "rhf"
			},
			{
				"type": "unocc",
				"energy": -0.06898,
				"method": "rhf"
			},
			{
				"type": "unocc",
				"energy": -0.04976,
				"method": "rhf"
			},
			{
				"type": "unocc",
				"energy": -0.02288,
				"method": "rhf"
			},
			{
				"type": "unocc",
				"energy": -0.01697,
				"method": "rhf"
			}
		],
		"cosmo_sigma_profile": { 
			"-0.025": 0.0,
			"-0.024": 0.0,
			"-0.023": 0.0,
			"-0.022": 0.0,
			"-0.021": 0.0,
			"-0.02": 0.0,
			"-0.019": 0.0,
			"-0.018": 0.0,
			"-0.017": 0.0,
			"-0.016": 0.0,
			"-0.015": 0.0,
			"-0.014": 0.0,
			"-0.013": 0.12462582756,
			"-0.012": 0.965489216089,
			"-0.011": 1.05682546557,
			"-0.01": 2.20212609675,
			"-0.009": 4.83185685913,
			"-0.008": 6.65931796192,
			"-0.007": 17.0356485954,
			"-0.006": 27.5977973965,
			"-0.005": 25.3858595927,
			"-0.004": 25.4976432819,
			"-0.003": 25.6782120102,
			"-0.002": 21.3613501253,
			"-0.001": 23.953217642,
			"0.0": 32.6528258041,
			"0.001": 36.0822552928,
			"0.002": 41.7167616715,
			"0.003": 36.4948340683,
			"0.004": 16.1696865278,
			"0.005": 11.4455754948,
			"0.006": 10.9830158069,
			"0.007": 11.4365864489,
			"0.008": 12.8726924237,
			"0.009": 11.7429232329,
			"0.01": 5.59315287747,
			"0.011": 2.92322276391,
			"0.012": 0.167729594847,
			"0.013": 0.0,
			"0.014": 0.0,
			"0.015": 0.0,
			"0.016": 0.0,
			"0.017": 0.0,
			"0.018": 0.0,
			"0.019": 0.0,
			"0.02": 0.0,
			"0.021": 0.0,
			"0.022": 0.0,
			"0.023": 0.0,
			"0.024": 0.0,
			"0.025": 0.0
		}
	}
}
