{
	 "smiles": "NC1=NC(CC(O)=O)=CS1", 
	 "Tm": 391.15, 
	 "num_atms": 16, 
	 "gaussian": { 
		 "optdone": 1, 
		 "sigma_profile": "yes", 
		 "theory": "DFT", 
		 "functional": "B3LYP", 
		 "basiset": "6-31G**", 
		 "properties": { 
			 "R2extent": 3118.2817, 
			 "electric_dipole_moment_norm": 1.74267424667, 
			 "electric_quadrupole_moment_norm": 17.231649849, 
			 "total_energy": -852.295498286, 
			 "HOMO_LUMO_gap": 0.20645, 
			 "cosmo_polarized_energy": -14.32, 
			 "cosmo_cavitation_energy": 22.44, 
			 "cosmo_dispersion_energy": -17.5, 
			 "cosmo_repulsion_energy": 1.4, 
			 "cosmo_total_nonelectrostatic_energy": 6.35, 
			 "SMD_solvation_energy": 3.37 
		},
		"coords": [
			{
				"x": -0.8787936959,
				"y": 2.1672879432,
				"z": -2.4186553604,
				"element": "N" 
			},
			{
				"x": 0.0392073484,
				"y": 1.19513251,
				"z": -2.0836328305,
				"element": "C" 
			},
			{
				"x": -0.2592614371,
				"y": 0.1092574107,
				"z": -1.4322598254,
				"element": "N" 
			},
			{
				"x": 0.8504285829,
				"y": -0.715884214,
				"z": -1.3108457342,
				"element": "C" 
			},
			{
				"x": 0.618982234,
				"y": -2.0078797796,
				"z": -0.5754077272,
				"element": "C" 
			},
			{
				"x": 1.8042320035,
				"y": -2.9256090503,
				"z": -0.3782362664,
				"element": "C" 
			},
			{
				"x": 1.426640254,
				"y": -4.0336281904,
				"z": 0.306347967,
				"element": "O" 
			},
			{
				"x": 2.945870928,
				"y": -2.7597537743,
				"z": -0.7496144314,
				"element": "O" 
			},
			{
				"x": 2.0040572227,
				"y": -0.252229218,
				"z": -1.8642848513,
				"element": "C" 
			},
			{
				"x": 1.7219545897,
				"y": 1.3039912895,
				"z": -2.6124193125,
				"element": "S" 
			},
			{
				"x": -0.5333404901,
				"y": 3.114374001,
				"z": -2.4821612318,
				"element": "H" 
			},
			{
				"x": -1.7423681917,
				"y": 2.0834157918,
				"z": -1.8979730916,
				"element": "H" 
			},
			{
				"x": 0.1971170269,
				"y": -1.796456325,
				"z": 0.4156239175,
				"element": "H" 
			},
			{
				"x": -0.1626643807,
				"y": -2.5865148204,
				"z": -1.0850306846,
				"element": "H" 
			},
			{
				"x": 2.2265794916,
				"y": -4.5780620592,
				"z": 0.3972148259,
				"element": "H" 
			},
			{
				"x": 2.9762585135,
				"y": -0.716641515,
				"z": -1.8720653631,
				"element": "H" 
			}
		],
		 "valence_orbital": [ 
			{
				"type": "occ",
				"energy": -0.31343,
				"method": "rhf"
			},
			{
				"type": "occ",
				"energy": -0.28,
				"method": "rhf"
			},
			{
				"type": "occ",
				"energy": -0.27096,
				"method": "rhf"
			},
			{
				"type": "occ",
				"energy": -0.26801,
				"method": "rhf"
			},
			{
				"type": "occ",
				"energy": -0.2065,
				"method": "rhf"
			},
			{
				"type": "unocc",
				"energy": -5e-05,
				"method": "rhf"
			},
			{
				"type": "unocc",
				"energy": 0.0078,
				"method": "rhf"
			},
			{
				"type": "unocc",
				"energy": 0.01701,
				"method": "rhf"
			},
			{
				"type": "unocc",
				"energy": 0.06174,
				"method": "rhf"
			},
			{
				"type": "unocc",
				"energy": 0.07493,
				"method": "rhf"
			}
		],
		"cosmo_sigma_profile": { 
			"-0.025": 0.0,
			"-0.024": 0.0,
			"-0.023": 0.0,
			"-0.022": 0.0,
			"-0.021": 0.0,
			"-0.02": 0.0,
			"-0.019": 0.0,
			"-0.018": 0.536603950275,
			"-0.017": 1.11389290424,
			"-0.016": 0.907044646672,
			"-0.015": 0.750744146276,
			"-0.014": 2.98892936562,
			"-0.013": 3.1375999026,
			"-0.012": 3.17436558731,
			"-0.011": 2.88958328421,
			"-0.01": 3.61898774571,
			"-0.009": 2.71567406859,
			"-0.008": 2.49990652573,
			"-0.007": 7.06106903055,
			"-0.006": 7.58838921734,
			"-0.005": 8.22752744733,
			"-0.004": 7.665111463,
			"-0.003": 7.66747684255,
			"-0.002": 7.87930747258,
			"-0.001": 8.30440818876,
			"0.0": 6.80806270048,
			"0.001": 8.95788715375,
			"0.002": 12.4892404434,
			"0.003": 13.3120275381,
			"0.004": 14.8457303869,
			"0.005": 12.3863101644,
			"0.006": 4.72394781096,
			"0.007": 4.99630484419,
			"0.008": 5.05932022599,
			"0.009": 4.59802944683,
			"0.01": 4.63763458296,
			"0.011": 4.44942061811,
			"0.012": 2.40117485175,
			"0.013": 0.883539748982,
			"0.014": 0.568063280163,
			"0.015": 0.755524287738,
			"0.016": 0.0501339940144,
			"0.017": 0.0,
			"0.018": 0.0,
			"0.019": 0.0,
			"0.02": 0.0,
			"0.021": 0.0,
			"0.022": 0.0,
			"0.023": 0.0,
			"0.024": 0.0,
			"0.025": 0.0
		}
	}
}
