{
	 "smiles": "NC1=C(C=C2CCCCC2=N1)C(O)=O", 
	 "Tm": 559.15, 
	 "num_atms": 26, 
	 "gaussian": { 
		 "optdone": 1, 
		 "sigma_profile": "yes", 
		 "theory": "DFT", 
		 "functional": "B3LYP", 
		 "basiset": "6-31G**", 
		 "properties": { 
			 "R2extent": 3079.4984, 
			 "electric_dipole_moment_norm": 4.10899413239, 
			 "electric_quadrupole_moment_norm": 12.3224186031, 
			 "total_energy": -648.286386644, 
			 "HOMO_LUMO_gap": 0.16226, 
			 "cosmo_polarized_energy": -14.72, 
			 "cosmo_cavitation_energy": 28.13, 
			 "cosmo_dispersion_energy": -21.55, 
			 "cosmo_repulsion_energy": 1.7, 
			 "cosmo_total_nonelectrostatic_energy": 8.28, 
			 "SMD_solvation_energy": 3.51 
		},
		"coords": [
			{
				"x": 1.2127883031,
				"y": 2.2731354989,
				"z": -1.3647316944,
				"element": "N" 
			},
			{
				"x": 0.6560208459,
				"y": 1.1620396081,
				"z": -0.832192314,
				"element": "C" 
			},
			{
				"x": -0.5778743281,
				"y": 1.2032493954,
				"z": -0.1071345124,
				"element": "C" 
			},
			{
				"x": -1.0747061817,
				"y": -0.0215860741,
				"z": 0.3681557578,
				"element": "C" 
			},
			{
				"x": -0.3819161911,
				"y": -1.2052555327,
				"z": 0.173107763,
				"element": "C" 
			},
			{
				"x": -0.8294678619,
				"y": -2.5701788316,
				"z": 0.6302659704,
				"element": "C" 
			},
			{
				"x": 0.3157846562,
				"y": -3.3204159056,
				"z": 1.3510628335,
				"element": "C" 
			},
			{
				"x": 1.6852779236,
				"y": -3.2033863983,
				"z": 0.6172148253,
				"element": "C" 
			},
			{
				"x": 1.6142068642,
				"y": -2.4010897775,
				"z": -0.7031859105,
				"element": "C" 
			},
			{
				"x": 0.846848877,
				"y": -1.1179716744,
				"z": -0.5170827633,
				"element": "C" 
			},
			{
				"x": 1.349060864,
				"y": 0.0131400049,
				"z": -1.0026177017,
				"element": "N" 
			},
			{
				"x": -1.2864791676,
				"y": 2.4861405598,
				"z": 0.087041522,
				"element": "C" 
			},
			{
				"x": -2.3084504879,
				"y": 2.5139656128,
				"z": 0.9844761547,
				"element": "O" 
			},
			{
				"x": -1.0149765563,
				"y": 3.5190175836,
				"z": -0.5037934241,
				"element": "O" 
			},
			{
				"x": 2.0479722494,
				"y": 2.1513851563,
				"z": -1.9140377803,
				"element": "H" 
			},
			{
				"x": 0.6713553627,
				"y": 3.1278261851,
				"z": -1.3731532395,
				"element": "H" 
			},
			{
				"x": -2.0387940312,
				"y": -0.0649065261,
				"z": 0.8738104982,
				"element": "H" 
			},
			{
				"x": -1.7050029133,
				"y": -2.4953019423,
				"z": 1.2848735176,
				"element": "H" 
			},
			{
				"x": -1.149130046,
				"y": -3.1614196178,
				"z": -0.240446757,
				"element": "H" 
			},
			{
				"x": 0.03297735,
				"y": -4.3718206169,
				"z": 1.4691541221,
				"element": "H" 
			},
			{
				"x": 0.413252009,
				"y": -2.9118648016,
				"z": 2.3624517897,
				"element": "H" 
			},
			{
				"x": 2.4083551542,
				"y": -2.7110680395,
				"z": 1.2759176573,
				"element": "H" 
			},
			{
				"x": 2.0916595373,
				"y": -4.1977314977,
				"z": 0.4057101119,
				"element": "H" 
			},
			{
				"x": 1.1025991921,
				"y": -3.0056632551,
				"z": -1.4666602659,
				"element": "H" 
			},
			{
				"x": 2.6122274059,
				"y": -2.1782857749,
				"z": -1.0881257539,
				"element": "H" 
			},
			{
				"x": -2.3167888293,
				"y": 1.703346661,
				"z": 1.5103195936,
				"element": "H" 
			}
		],
		 "valence_orbital": [ 
			{
				"type": "occ",
				"energy": -0.31136,
				"method": "rhf"
			},
			{
				"type": "occ",
				"energy": -0.28233,
				"method": "rhf"
			},
			{
				"type": "occ",
				"energy": -0.27462,
				"method": "rhf"
			},
			{
				"type": "occ",
				"energy": -0.25904,
				"method": "rhf"
			},
			{
				"type": "occ",
				"energy": -0.21165,
				"method": "rhf"
			},
			{
				"type": "unocc",
				"energy": -0.04939,
				"method": "rhf"
			},
			{
				"type": "unocc",
				"energy": -0.00153,
				"method": "rhf"
			},
			{
				"type": "unocc",
				"energy": 0.04755,
				"method": "rhf"
			},
			{
				"type": "unocc",
				"energy": 0.06178,
				"method": "rhf"
			},
			{
				"type": "unocc",
				"energy": 0.07984,
				"method": "rhf"
			}
		],
		"cosmo_sigma_profile": { 
			"-0.025": 0.0,
			"-0.024": 0.0,
			"-0.023": 0.0,
			"-0.022": 0.0,
			"-0.021": 0.0,
			"-0.02": 0.0,
			"-0.019": 0.267223301926,
			"-0.018": 0.906304283379,
			"-0.017": 0.8057178922,
			"-0.016": 1.1034004968,
			"-0.015": 0.837019164911,
			"-0.014": 0.708589985346,
			"-0.013": 1.63685190388,
			"-0.012": 2.82329270062,
			"-0.011": 1.44735449364,
			"-0.01": 2.09840039543,
			"-0.009": 2.55784153944,
			"-0.008": 2.58888536329,
			"-0.007": 3.56178420364,
			"-0.006": 4.299585246,
			"-0.005": 4.47284776564,
			"-0.004": 10.1998641868,
			"-0.003": 18.5682329706,
			"-0.002": 27.2265041081,
			"-0.001": 26.432215354,
			"0.0": 21.011874117,
			"0.001": 18.0874648305,
			"0.002": 15.0852840519,
			"0.003": 9.6873676989,
			"0.004": 5.14051917688,
			"0.005": 4.59679984025,
			"0.006": 4.37723174521,
			"0.007": 4.36549396595,
			"0.008": 4.75836702928,
			"0.009": 4.31535831847,
			"0.01": 4.37402634593,
			"0.011": 4.91211091776,
			"0.012": 4.0139301918,
			"0.013": 2.9816158819,
			"0.014": 1.14399976407,
			"0.015": 0.162134802537,
			"0.016": 0.0,
			"0.017": 0.0,
			"0.018": 0.0,
			"0.019": 0.0,
			"0.02": 0.0,
			"0.021": 0.0,
			"0.022": 0.0,
			"0.023": 0.0,
			"0.024": 0.0,
			"0.025": 0.0
		}
	}
}
