{
	 "smiles": "NC1=CC(=CC=C1)C1=NC=CN1CC(O)=O", 
	 "Tm": 523.15, 
	 "num_atms": 27, 
	 "gaussian": { 
		 "optdone": 1, 
		 "sigma_profile": "yes", 
		 "theory": "DFT", 
		 "functional": "B3LYP", 
		 "basiset": "6-31G**", 
		 "properties": { 
			 "R2extent": 4709.1444, 
			 "electric_dipole_moment_norm": 5.88633567086, 
			 "electric_quadrupole_moment_norm": 12.8518958465, 
			 "total_energy": -740.511283089, 
			 "HOMO_LUMO_gap": 0.18171, 
			 "cosmo_polarized_energy": -23.28, 
			 "cosmo_cavitation_energy": 31.71, 
			 "cosmo_dispersion_energy": -22.31, 
			 "cosmo_repulsion_energy": 1.75, 
			 "cosmo_total_nonelectrostatic_energy": 11.15, 
			 "SMD_solvation_energy": 5.34 
		},
		"coords": [
			{
				"x": -2.0530066037,
				"y": 1.7225556023,
				"z": -0.2952596278,
				"element": "N" 
			},
			{
				"x": -1.3507443346,
				"y": 0.8389695065,
				"z": -1.1162640512,
				"element": "C" 
			},
			{
				"x": -0.0543240627,
				"y": 0.4223337118,
				"z": -0.7690109302,
				"element": "C" 
			},
			{
				"x": 0.6295493424,
				"y": -0.5214915836,
				"z": -1.5490428171,
				"element": "C" 
			},
			{
				"x": 0.0069042707,
				"y": -1.0743814923,
				"z": -2.6796833135,
				"element": "C" 
			},
			{
				"x": -1.2772951475,
				"y": -0.658957749,
				"z": -3.0234161194,
				"element": "C" 
			},
			{
				"x": -1.9528407749,
				"y": 0.2935221832,
				"z": -2.262540909,
				"element": "C" 
			},
			{
				"x": 1.9812993305,
				"y": -0.9837062906,
				"z": -1.1900342259,
				"element": "C" 
			},
			{
				"x": 2.3809012494,
				"y": -2.2425540822,
				"z": -1.25082278,
				"element": "N" 
			},
			{
				"x": 3.6907415941,
				"y": -2.2458286867,
				"z": -0.8401776049,
				"element": "C" 
			},
			{
				"x": 4.103728611,
				"y": -0.9765485517,
				"z": -0.533552449,
				"element": "C" 
			},
			{
				"x": 3.0081585748,
				"y": -0.1604366521,
				"z": -0.7574620547,
				"element": "N" 
			},
			{
				"x": 3.0580959366,
				"y": 1.2836157947,
				"z": -0.7425117432,
				"element": "C" 
			},
			{
				"x": 2.9169958893,
				"y": 1.8877445364,
				"z": 0.6501435465,
				"element": "C" 
			},
			{
				"x": 3.393444156,
				"y": 3.1537492834,
				"z": 0.6585238452,
				"element": "O" 
			},
			{
				"x": 2.4228787451,
				"y": 1.3534370913,
				"z": 1.6141531953,
				"element": "O" 
			},
			{
				"x": -1.4864866818,
				"y": 2.3075004952,
				"z": 0.3023592528,
				"element": "H" 
			},
			{
				"x": -2.7957144429,
				"y": 2.2383987146,
				"z": -0.7455650456,
				"element": "H" 
			},
			{
				"x": 0.392676174,
				"y": 0.7867051777,
				"z": 0.151747539,
				"element": "H" 
			},
			{
				"x": 0.5355593386,
				"y": -1.8178187242,
				"z": -3.2647999268,
				"element": "H" 
			},
			{
				"x": -1.7618504883,
				"y": -1.0781548922,
				"z": -3.90092119,
				"element": "H" 
			},
			{
				"x": -2.9571891047,
				"y": 0.6041104326,
				"z": -2.5401248139,
				"element": "H" 
			},
			{
				"x": 4.2620184721,
				"y": -3.1622304549,
				"z": -0.7834037032,
				"element": "H" 
			},
			{
				"x": 5.0459477306,
				"y": -0.5771743805,
				"z": -0.1894383493,
				"element": "H" 
			},
			{
				"x": 2.2418537728,
				"y": 1.6783684883,
				"z": -1.3554544806,
				"element": "H" 
			},
			{
				"x": 3.9943950218,
				"y": 1.6325421606,
				"z": -1.1874735483,
				"element": "H" 
			},
			{
				"x": 3.2404034312,
				"y": 3.5012303614,
				"z": 1.5536323049,
				"element": "H" 
			}
		],
		 "valence_orbital": [ 
			{
				"type": "occ",
				"energy": -0.26835,
				"method": "rhf"
			},
			{
				"type": "occ",
				"energy": -0.25834,
				"method": "rhf"
			},
			{
				"type": "occ",
				"energy": -0.2547,
				"method": "rhf"
			},
			{
				"type": "occ",
				"energy": -0.21364,
				"method": "rhf"
			},
			{
				"type": "occ",
				"energy": -0.19828,
				"method": "rhf"
			},
			{
				"type": "unocc",
				"energy": -0.01657,
				"method": "rhf"
			},
			{
				"type": "unocc",
				"energy": -0.01115,
				"method": "rhf"
			},
			{
				"type": "unocc",
				"energy": 0.01414,
				"method": "rhf"
			},
			{
				"type": "unocc",
				"energy": 0.04531,
				"method": "rhf"
			},
			{
				"type": "unocc",
				"energy": 0.05979,
				"method": "rhf"
			}
		],
		"cosmo_sigma_profile": { 
			"-0.025": 0.0,
			"-0.024": 0.0,
			"-0.023": 0.0,
			"-0.022": 0.0,
			"-0.021": 0.0,
			"-0.02": 0.0,
			"-0.019": 0.601232113032,
			"-0.018": 0.893189489085,
			"-0.017": 1.05317900047,
			"-0.016": 0.903005705677,
			"-0.015": 0.414817604954,
			"-0.014": 0.661466517425,
			"-0.013": 0.697530954991,
			"-0.012": 3.64456459718,
			"-0.011": 3.73165613196,
			"-0.01": 4.53863204089,
			"-0.009": 8.03678894239,
			"-0.008": 9.96660201111,
			"-0.007": 8.86822007124,
			"-0.006": 13.6375666393,
			"-0.005": 13.3769192074,
			"-0.004": 13.0241056592,
			"-0.003": 14.526400759,
			"-0.002": 10.5720455548,
			"-0.001": 11.3361546429,
			"0.0": 10.3574692421,
			"0.001": 11.4862197414,
			"0.002": 11.9941886779,
			"0.003": 13.2257844922,
			"0.004": 13.249068799,
			"0.005": 16.5348682663,
			"0.006": 16.4535242518,
			"0.007": 8.34901402183,
			"0.008": 5.14573856707,
			"0.009": 4.88792589267,
			"0.01": 4.88253158936,
			"0.011": 6.88268845332,
			"0.012": 2.25112696242,
			"0.013": 1.97709162449,
			"0.014": 1.54615493914,
			"0.015": 1.02929574465,
			"0.016": 0.634236072667,
			"0.017": 1.08186350568,
			"0.018": 0.342986489986,
			"0.019": 0.0,
			"0.02": 0.0,
			"0.021": 0.0,
			"0.022": 0.0,
			"0.023": 0.0,
			"0.024": 0.0,
			"0.025": 0.0
		}
	}
}
