{
	 "smiles": "NC1=CC2=C(NC(=N2)C2=C(F)C=CC(F)=C2)C=C1", 
	 "Tm": 462.15, 
	 "num_atms": 27, 
	 "gaussian": { 
		 "optdone": 1, 
		 "sigma_profile": "yes", 
		 "theory": "DFT", 
		 "functional": "B3LYP", 
		 "basiset": "6-31G**", 
		 "properties": { 
			 "R2extent": 6882.8064, 
			 "electric_dipole_moment_norm": 2.43224158751, 
			 "electric_quadrupole_moment_norm": 15.9133920576, 
			 "total_energy": -864.744049491, 
			 "HOMO_LUMO_gap": 0.14069, 
			 "cosmo_polarized_energy": -19.17, 
			 "cosmo_cavitation_energy": 32.88, 
			 "cosmo_dispersion_energy": -24.15, 
			 "cosmo_repulsion_energy": 1.79, 
			 "cosmo_total_nonelectrostatic_energy": 10.53, 
			 "SMD_solvation_energy": 4.35 
		},
		"coords": [
			{
				"x": 2.2113715264,
				"y": -0.8287792942,
				"z": -3.4422020602,
				"element": "N" 
			},
			{
				"x": 1.381557487,
				"y": -0.3312561117,
				"z": -2.4244249342,
				"element": "C" 
			},
			{
				"x": 1.2905305506,
				"y": -0.9828857688,
				"z": -1.1920172142,
				"element": "C" 
			},
			{
				"x": 0.3964712859,
				"y": -0.4846830742,
				"z": -0.2357163987,
				"element": "C" 
			},
			{
				"x": -0.3828836261,
				"y": 0.6630633714,
				"z": -0.5157883177,
				"element": "C" 
			},
			{
				"x": -1.1168607895,
				"y": 0.8783355361,
				"z": 0.6393984125,
				"element": "N" 
			},
			{
				"x": -0.7806717543,
				"y": -0.1322701326,
				"z": 1.5257167284,
				"element": "C" 
			},
			{
				"x": 0.1260482091,
				"y": -0.9540567413,
				"z": 1.0370085048,
				"element": "N" 
			},
			{
				"x": -1.3793177963,
				"y": -0.1938263271,
				"z": 2.8629041034,
				"element": "C" 
			},
			{
				"x": -1.5268606057,
				"y": -1.4048896007,
				"z": 3.5605433232,
				"element": "C" 
			},
			{
				"x": -1.1271874501,
				"y": -2.5564513494,
				"z": 3.0015208796,
				"element": "F" 
			},
			{
				"x": -2.1035933573,
				"y": -1.4612064178,
				"z": 4.8246041124,
				"element": "C" 
			},
			{
				"x": -2.5586744097,
				"y": -0.2951268333,
				"z": 5.438234303,
				"element": "C" 
			},
			{
				"x": -2.4170806388,
				"y": 0.9074557652,
				"z": 4.7553746586,
				"element": "C" 
			},
			{
				"x": -2.8416437013,
				"y": 2.0491926266,
				"z": 5.3373262049,
				"element": "F" 
			},
			{
				"x": -1.8395032587,
				"y": 0.9750655652,
				"z": 3.4963237619,
				"element": "C" 
			},
			{
				"x": -0.3018057963,
				"y": 1.3256197313,
				"z": -1.7406129364,
				"element": "C" 
			},
			{
				"x": 0.5819628027,
				"y": 0.8132115176,
				"z": -2.683160885,
				"element": "C" 
			},
			{
				"x": 2.5546250117,
				"y": -0.1242141482,
				"z": -4.0816402779,
				"element": "H" 
			},
			{
				"x": 2.9674426341,
				"y": -1.4127409314,
				"z": -3.1098861678,
				"element": "H" 
			},
			{
				"x": 1.8897116261,
				"y": -1.8612471369,
				"z": -0.9716816463,
				"element": "H" 
			},
			{
				"x": -1.8806936989,
				"y": 1.5264249976,
				"z": 0.7487413943,
				"element": "H" 
			},
			{
				"x": -2.1947353807,
				"y": -2.4263209369,
				"z": 5.3104819359,
				"element": "H" 
			},
			{
				"x": -3.010030451,
				"y": -0.3096254348,
				"z": 6.4237397355,
				"element": "H" 
			},
			{
				"x": -1.7150781978,
				"y": 1.9465860329,
				"z": 3.0308419176,
				"element": "H" 
			},
			{
				"x": -0.8974308887,
				"y": 2.2061703061,
				"z": -1.9622465209,
				"element": "H" 
			},
			{
				"x": 0.6634306677,
				"y": 1.2967547895,
				"z": -3.6531826167,
				"element": "H" 
			}
		],
		 "valence_orbital": [ 
			{
				"type": "occ",
				"energy": -0.27224,
				"method": "rhf"
			},
			{
				"type": "occ",
				"energy": -0.26392,
				"method": "rhf"
			},
			{
				"type": "occ",
				"energy": -0.24693,
				"method": "rhf"
			},
			{
				"type": "occ",
				"energy": -0.21522,
				"method": "rhf"
			},
			{
				"type": "occ",
				"energy": -0.18938,
				"method": "rhf"
			},
			{
				"type": "unocc",
				"energy": -0.04869,
				"method": "rhf"
			},
			{
				"type": "unocc",
				"energy": -0.00774,
				"method": "rhf"
			},
			{
				"type": "unocc",
				"energy": 0.01068,
				"method": "rhf"
			},
			{
				"type": "unocc",
				"energy": 0.03681,
				"method": "rhf"
			},
			{
				"type": "unocc",
				"energy": 0.06493,
				"method": "rhf"
			}
		],
		"cosmo_sigma_profile": { 
			"-0.025": 0.0,
			"-0.024": 0.0,
			"-0.023": 0.0,
			"-0.022": 0.0,
			"-0.021": 0.0,
			"-0.02": 0.0,
			"-0.019": 0.0,
			"-0.018": 0.0,
			"-0.017": 0.030328100728,
			"-0.016": 1.18517597336,
			"-0.015": 1.2390740255,
			"-0.014": 1.75873408604,
			"-0.013": 1.38978295345,
			"-0.012": 2.67159242759,
			"-0.011": 4.51344409433,
			"-0.01": 4.18387506817,
			"-0.009": 4.57885286142,
			"-0.008": 9.07593353164,
			"-0.007": 9.81949912743,
			"-0.006": 11.6940195542,
			"-0.005": 11.4617450006,
			"-0.004": 11.2426934515,
			"-0.003": 9.76125229607,
			"-0.002": 9.70946833121,
			"-0.001": 13.0722305452,
			"0.0": 20.1362690478,
			"0.001": 25.1642072698,
			"0.002": 18.814395612,
			"0.003": 16.9730979859,
			"0.004": 23.4408616881,
			"0.005": 15.6282370113,
			"0.006": 13.0436560399,
			"0.007": 4.73708005554,
			"0.008": 2.83019946555,
			"0.009": 2.89893355292,
			"0.01": 1.99073416338,
			"0.011": 1.74805758281,
			"0.012": 2.1107524442,
			"0.013": 2.33052210488,
			"0.014": 1.74043248461,
			"0.015": 1.74152994679,
			"0.016": 1.04497544245,
			"0.017": 0.576525522604,
			"0.018": 0.0,
			"0.019": 0.0,
			"0.02": 0.0,
			"0.021": 0.0,
			"0.022": 0.0,
			"0.023": 0.0,
			"0.024": 0.0,
			"0.025": 0.0
		}
	}
}
