{
	 "smiles": "CC1=C(C=C(C=C1)N1C=C(C=N1)S(Cl)(=O)=O)S(Cl)(=O)=O", 
	 "Tm": 388.15, 
	 "num_atms": 28, 
	 "gaussian": { 
		 "optdone": 1, 
		 "sigma_profile": "yes", 
		 "theory": "DFT", 
		 "functional": "B3LYP", 
		 "basiset": "6-31G**", 
		 "properties": { 
			 "R2extent": 12000.1827, 
			 "electric_dipole_moment_norm": 6.42889856196, 
			 "electric_quadrupole_moment_norm": 24.0318940795, 
			 "total_energy": -2512.88008545, 
			 "HOMO_LUMO_gap": 0.17072, 
			 "cosmo_polarized_energy": -17.2, 
			 "cosmo_cavitation_energy": 40.08, 
			 "cosmo_dispersion_energy": -29.67, 
			 "cosmo_repulsion_energy": 2.18, 
			 "cosmo_total_nonelectrostatic_energy": 12.58, 
			 "SMD_solvation_energy": 3.95 
		},
		"coords": [
			{
				"x": -0.5823652988,
				"y": 0.2667926523,
				"z": -4.7542206724,
				"element": "C" 
			},
			{
				"x": -0.9309113196,
				"y": -0.0088994828,
				"z": -3.313219462,
				"element": "C" 
			},
			{
				"x": -0.0211510051,
				"y": -0.4816489122,
				"z": -2.3488572405,
				"element": "C" 
			},
			{
				"x": -0.3716761759,
				"y": -0.7307099114,
				"z": -1.0210819164,
				"element": "C" 
			},
			{
				"x": -1.6890006058,
				"y": -0.515623002,
				"z": -0.622634822,
				"element": "C" 
			},
			{
				"x": -2.6272753066,
				"y": -0.0398518032,
				"z": -1.5420279047,
				"element": "C" 
			},
			{
				"x": -2.2396562639,
				"y": 0.2057771255,
				"z": -2.8548233642,
				"element": "C" 
			},
			{
				"x": -2.0865651703,
				"y": -0.7710762797,
				"z": 0.7186932466,
				"element": "N" 
			},
			{
				"x": -1.4892390804,
				"y": -1.577887302,
				"z": 1.6309823603,
				"element": "C" 
			},
			{
				"x": -2.2725840873,
				"y": -1.5003064484,
				"z": 2.767876102,
				"element": "C" 
			},
			{
				"x": -3.3337148506,
				"y": -0.617754305,
				"z": 2.4497703808,
				"element": "C" 
			},
			{
				"x": -3.2183373256,
				"y": -0.181938271,
				"z": 1.207002972,
				"element": "N" 
			},
			{
				"x": -1.9972856922,
				"y": -2.3674155916,
				"z": 4.260956806,
				"element": "S" 
			},
			{
				"x": -0.8890233046,
				"y": -0.9469936411,
				"z": 5.3956652573,
				"element": "Cl" 
			},
			{
				"x": -3.2689442227,
				"y": -2.5289839877,
				"z": 4.9512135157,
				"element": "O" 
			},
			{
				"x": -1.0883589902,
				"y": -3.4754748651,
				"z": 3.9992548087,
				"element": "O" 
			},
			{
				"x": 1.7131474349,
				"y": -0.7645151985,
				"z": -2.733708776,
				"element": "S" 
			},
			{
				"x": 1.6009805884,
				"y": -2.58053138,
				"z": -3.8475640739,
				"element": "Cl" 
			},
			{
				"x": 2.4225647455,
				"y": -1.089204437,
				"z": -1.502463525,
				"element": "O" 
			},
			{
				"x": 2.202581945,
				"y": 0.2533948532,
				"z": -3.6537692278,
				"element": "O" 
			},
			{
				"x": -1.4842415611,
				"y": 0.5251015958,
				"z": -5.3130018581,
				"element": "H" 
			},
			{
				"x": 0.1314365185,
				"y": 1.0903724159,
				"z": -4.8376534965,
				"element": "H" 
			},
			{
				"x": -0.1202127014,
				"y": -0.6021304433,
				"z": -5.2319489306,
				"element": "H" 
			},
			{
				"x": 0.3903786383,
				"y": -1.0633575632,
				"z": -0.3273046912,
				"element": "H" 
			},
			{
				"x": -3.6457660176,
				"y": 0.133587336,
				"z": -1.2175488784,
				"element": "H" 
			},
			{
				"x": -2.9799361976,
				"y": 0.5719541194,
				"z": -3.5595383398,
				"element": "H" 
			},
			{
				"x": -0.6046589706,
				"y": -2.161021863,
				"z": 1.4287741364,
				"element": "H" 
			},
			{
				"x": -4.1564857227,
				"y": -0.3042554099,
				"z": 3.0761775936,
				"element": "H" 
			}
		],
		 "valence_orbital": [ 
			{
				"type": "occ",
				"energy": -0.32758,
				"method": "rhf"
			},
			{
				"type": "occ",
				"energy": -0.31913,
				"method": "rhf"
			},
			{
				"type": "occ",
				"energy": -0.30979,
				"method": "rhf"
			},
			{
				"type": "occ",
				"energy": -0.30366,
				"method": "rhf"
			},
			{
				"type": "occ",
				"energy": -0.27521,
				"method": "rhf"
			},
			{
				"type": "unocc",
				"energy": -0.10449,
				"method": "rhf"
			},
			{
				"type": "unocc",
				"energy": -0.09436,
				"method": "rhf"
			},
			{
				"type": "unocc",
				"energy": -0.07177,
				"method": "rhf"
			},
			{
				"type": "unocc",
				"energy": -0.06165,
				"method": "rhf"
			},
			{
				"type": "unocc",
				"energy": -0.01752,
				"method": "rhf"
			}
		],
		"cosmo_sigma_profile": { 
			"-0.025": 0.0,
			"-0.024": 0.0,
			"-0.023": 0.0,
			"-0.022": 0.0,
			"-0.021": 0.0,
			"-0.02": 0.0,
			"-0.019": 0.0,
			"-0.018": 0.0,
			"-0.017": 0.0,
			"-0.016": 0.0880755441627,
			"-0.015": 0.424586703254,
			"-0.014": 0.95864106526,
			"-0.013": 1.3949054306,
			"-0.012": 1.58139098259,
			"-0.011": 2.00378920881,
			"-0.01": 3.03777942989,
			"-0.009": 3.1703961656,
			"-0.008": 7.88444943747,
			"-0.007": 9.29243961344,
			"-0.006": 10.8390176366,
			"-0.005": 12.8777712283,
			"-0.004": 18.4609963212,
			"-0.003": 22.9416945459,
			"-0.002": 30.9893830541,
			"-0.001": 33.6747775879,
			"0.0": 25.004678522,
			"0.001": 20.1006384945,
			"0.002": 21.0058339314,
			"0.003": 30.1421617739,
			"0.004": 14.7856835132,
			"0.005": 6.89722984343,
			"0.006": 8.41737522486,
			"0.007": 13.8166725912,
			"0.008": 19.9479266968,
			"0.009": 7.40389220669,
			"0.01": 0.801549710071,
			"0.011": 0.293634487809,
			"0.012": 0.0,
			"0.013": 0.0,
			"0.014": 0.0,
			"0.015": 0.0,
			"0.016": 0.0,
			"0.017": 0.0,
			"0.018": 0.0,
			"0.019": 0.0,
			"0.02": 0.0,
			"0.021": 0.0,
			"0.022": 0.0,
			"0.023": 0.0,
			"0.024": 0.0,
			"0.025": 0.0
		}
	}
}
