{
	 "smiles": "N#CC1=CC(=NC=C1)N1C=CC=N1", 
	 "Tm": 370.15, 
	 "num_atms": 19, 
	 "gaussian": { 
		 "optdone": 1, 
		 "sigma_profile": "yes", 
		 "theory": "DFT", 
		 "functional": "B3LYP", 
		 "basiset": "6-31G**", 
		 "properties": { 
			 "R2extent": 2957.1851, 
			 "electric_dipole_moment_norm": 1.43176174694, 
			 "electric_quadrupole_moment_norm": 18.4301557525, 
			 "total_energy": -565.522323301, 
			 "HOMO_LUMO_gap": 0.17205, 
			 "cosmo_polarized_energy": -16.3, 
			 "cosmo_cavitation_energy": 25.36, 
			 "cosmo_dispersion_energy": -18.25, 
			 "cosmo_repulsion_energy": 1.41, 
			 "cosmo_total_nonelectrostatic_energy": 8.52, 
			 "SMD_solvation_energy": 4.47 
		},
		"coords": [
			{
				"x": 4.0976660417,
				"y": -2.4065198895,
				"z": -2.2981205111,
				"element": "N" 
			},
			{
				"x": 3.5149085243,
				"y": -1.5282826435,
				"z": -1.8078491589,
				"element": "C" 
			},
			{
				"x": 2.7953398107,
				"y": -0.4432469889,
				"z": -1.2022968046,
				"element": "C" 
			},
			{
				"x": 1.5954549082,
				"y": -0.6950657546,
				"z": -0.5307450904,
				"element": "C" 
			},
			{
				"x": 0.9270426879,
				"y": 0.3958374296,
				"z": 0.0453941868,
				"element": "C" 
			},
			{
				"x": 1.3821406644,
				"y": 1.646419678,
				"z": -0.0197591134,
				"element": "N" 
			},
			{
				"x": 2.5298120036,
				"y": 1.8658381557,
				"z": -0.6656171841,
				"element": "C" 
			},
			{
				"x": 3.2847956453,
				"y": 0.868928427,
				"z": -1.2777610142,
				"element": "C" 
			},
			{
				"x": -0.2909913267,
				"y": 0.1998885732,
				"z": 0.7368897525,
				"element": "N" 
			},
			{
				"x": -0.9643515472,
				"y": -0.9831882218,
				"z": 0.942765014,
				"element": "C" 
			},
			{
				"x": -2.0918396401,
				"y": -0.6793336138,
				"z": 1.6625151878,
				"element": "C" 
			},
			{
				"x": -2.0228546616,
				"y": 0.7260288745,
				"z": 1.8521950199,
				"element": "C" 
			},
			{
				"x": -0.9442013236,
				"y": 1.2557142961,
				"z": 1.2982656038,
				"element": "N" 
			},
			{
				"x": 1.2169506467,
				"y": -1.7066596997,
				"z": -0.4718950178,
				"element": "H" 
			},
			{
				"x": 2.8651901046,
				"y": 2.9002982698,
				"z": -0.6951148044,
				"element": "H" 
			},
			{
				"x": 4.2116529047,
				"y": 1.0939371618,
				"z": -1.7914945146,
				"element": "H" 
			},
			{
				"x": -0.6036488333,
				"y": -1.929417075,
				"z": 0.5731344279,
				"element": "H" 
			},
			{
				"x": -2.8529167906,
				"y": -1.3657117078,
				"z": 2.0020403976,
				"element": "H" 
			},
			{
				"x": -2.7210498191,
				"y": 1.3684347289,
				"z": 2.3724536232,
				"element": "H" 
			}
		],
		 "valence_orbital": [ 
			{
				"type": "occ",
				"energy": -0.30497,
				"method": "rhf"
			},
			{
				"type": "occ",
				"energy": -0.30388,
				"method": "rhf"
			},
			{
				"type": "occ",
				"energy": -0.2766,
				"method": "rhf"
			},
			{
				"type": "occ",
				"energy": -0.26298,
				"method": "rhf"
			},
			{
				"type": "occ",
				"energy": -0.25119,
				"method": "rhf"
			},
			{
				"type": "unocc",
				"energy": -0.07914,
				"method": "rhf"
			},
			{
				"type": "unocc",
				"energy": -0.05177,
				"method": "rhf"
			},
			{
				"type": "unocc",
				"energy": 0.0133,
				"method": "rhf"
			},
			{
				"type": "unocc",
				"energy": 0.01872,
				"method": "rhf"
			},
			{
				"type": "unocc",
				"energy": 0.05996,
				"method": "rhf"
			}
		],
		"cosmo_sigma_profile": { 
			"-0.025": 0.0,
			"-0.024": 0.0,
			"-0.023": 0.0,
			"-0.022": 0.0,
			"-0.021": 0.0,
			"-0.02": 0.0,
			"-0.019": 0.0,
			"-0.018": 0.0,
			"-0.017": 0.0,
			"-0.016": 0.0,
			"-0.015": 0.0,
			"-0.014": 0.0256243296269,
			"-0.013": 0.902700519924,
			"-0.012": 1.86472070236,
			"-0.011": 1.89858291765,
			"-0.01": 2.36936139729,
			"-0.009": 4.41556030591,
			"-0.008": 8.38346487571,
			"-0.007": 11.1768547959,
			"-0.006": 9.64050693449,
			"-0.005": 10.0731599164,
			"-0.004": 13.1027034222,
			"-0.003": 14.1054177652,
			"-0.002": 18.4288836505,
			"-0.001": 15.4307494797,
			"0.0": 12.6311496635,
			"0.001": 9.13620958581,
			"0.002": 9.54761484329,
			"0.003": 9.49544187751,
			"0.004": 9.88310329993,
			"0.005": 5.16553247074,
			"0.006": 5.5649631171,
			"0.007": 4.71492635568,
			"0.008": 5.49998743875,
			"0.009": 4.6485296893,
			"0.01": 4.82359910209,
			"0.011": 2.71770100957,
			"0.012": 2.80029879527,
			"0.013": 2.31999144793,
			"0.014": 1.11222495056,
			"0.015": 0.981563475207,
			"0.016": 1.02488744017,
			"0.017": 0.859482248934,
			"0.018": 1.29950004479,
			"0.019": 0.504577864096,
			"0.02": 0.340555076829,
			"0.021": 0.0,
			"0.022": 0.0,
			"0.023": 0.0,
			"0.024": 0.0,
			"0.025": 0.0
		}
	}
}
