{
	 "smiles": "CC1=C(C=C(O1)C(O)=O)S(Cl)(=O)=O", 
	 "Tm": 388.15, 
	 "num_atms": 18, 
	 "gaussian": { 
		 "optdone": 1, 
		 "sigma_profile": "yes", 
		 "theory": "DFT", 
		 "functional": "B3LYP", 
		 "basiset": "6-31G**", 
		 "properties": { 
			 "R2extent": 4173.2207, 
			 "electric_dipole_moment_norm": 0.618970605118, 
			 "electric_quadrupole_moment_norm": 26.9350675032, 
			 "total_energy": -1466.06193356, 
			 "HOMO_LUMO_gap": 0.18297, 
			 "cosmo_polarized_energy": -19.5, 
			 "cosmo_cavitation_energy": 27.23, 
			 "cosmo_dispersion_energy": -20.14, 
			 "cosmo_repulsion_energy": 1.58, 
			 "cosmo_total_nonelectrostatic_energy": 8.67, 
			 "SMD_solvation_energy": 5.48 
		},
		"coords": [
			{
				"x": 0.4123652209,
				"y": 2.4215378992,
				"z": -1.0866552147,
				"element": "C" 
			},
			{
				"x": 0.4503235628,
				"y": 0.9865011338,
				"z": -0.7092655482,
				"element": "C" 
			},
			{
				"x": 1.152124574,
				"y": -0.1142109244,
				"z": -1.1563047143,
				"element": "C" 
			},
			{
				"x": 0.7530599962,
				"y": -1.2384785705,
				"z": -0.3714340757,
				"element": "C" 
			},
			{
				"x": -0.1807192486,
				"y": -0.7573982697,
				"z": 0.5002177957,
				"element": "C" 
			},
			{
				"x": -0.3574232999,
				"y": 0.5894393492,
				"z": 0.2936330402,
				"element": "O" 
			},
			{
				"x": -0.985712359,
				"y": -1.3508464313,
				"z": 1.5924761198,
				"element": "C" 
			},
			{
				"x": -0.942711401,
				"y": -2.7038055273,
				"z": 1.6796769435,
				"element": "O" 
			},
			{
				"x": -1.6285230498,
				"y": -0.6912400212,
				"z": 2.3690012434,
				"element": "O" 
			},
			{
				"x": 2.3386519703,
				"y": -0.1818712702,
				"z": -2.4471072325,
				"element": "S" 
			},
			{
				"x": 4.1431219385,
				"y": 0.2541465301,
				"z": -1.407597224,
				"element": "Cl" 
			},
			{
				"x": 2.4484069218,
				"y": -1.5651332786,
				"z": -2.8888694963,
				"element": "O" 
			},
			{
				"x": 2.1286911324,
				"y": 0.9246778635,
				"z": -3.3721063898,
				"element": "O" 
			},
			{
				"x": 0.7594441085,
				"y": 3.0410531585,
				"z": -0.2526800154,
				"element": "H" 
			},
			{
				"x": 1.042428202,
				"y": 2.6004187889,
				"z": -1.9570888733,
				"element": "H" 
			},
			{
				"x": -0.6145413652,
				"y": 2.7219623684,
				"z": -1.3178442942,
				"element": "H" 
			},
			{
				"x": 1.1354288873,
				"y": -2.2439040746,
				"z": -0.4726380612,
				"element": "H" 
			},
			{
				"x": -0.484015791,
				"y": -3.0952487237,
				"z": 0.9230859971,
				"element": "H" 
			}
		],
		 "valence_orbital": [ 
			{
				"type": "occ",
				"energy": -0.33866,
				"method": "rhf"
			},
			{
				"type": "occ",
				"energy": -0.33088,
				"method": "rhf"
			},
			{
				"type": "occ",
				"energy": -0.32732,
				"method": "rhf"
			},
			{
				"type": "occ",
				"energy": -0.29936,
				"method": "rhf"
			},
			{
				"type": "occ",
				"energy": -0.28239,
				"method": "rhf"
			},
			{
				"type": "unocc",
				"energy": -0.09942,
				"method": "rhf"
			},
			{
				"type": "unocc",
				"energy": -0.07594,
				"method": "rhf"
			},
			{
				"type": "unocc",
				"energy": -0.02798,
				"method": "rhf"
			},
			{
				"type": "unocc",
				"energy": 0.02972,
				"method": "rhf"
			},
			{
				"type": "unocc",
				"energy": 0.0543,
				"method": "rhf"
			}
		],
		"cosmo_sigma_profile": { 
			"-0.025": 0.0,
			"-0.024": 0.0,
			"-0.023": 0.0,
			"-0.022": 0.0,
			"-0.021": 0.0608977797298,
			"-0.02": 0.985958133839,
			"-0.019": 1.15322195253,
			"-0.018": 1.34422479154,
			"-0.017": 1.3783856998,
			"-0.016": 0.870304101432,
			"-0.015": 0.842540497789,
			"-0.014": 1.33518777444,
			"-0.013": 1.34651733613,
			"-0.012": 1.47785641201,
			"-0.011": 1.41118019584,
			"-0.01": 0.85618851724,
			"-0.009": 1.77168005307,
			"-0.008": 3.56183570858,
			"-0.007": 8.38325029946,
			"-0.006": 8.96806457965,
			"-0.005": 12.2601082835,
			"-0.004": 18.4671718786,
			"-0.003": 16.6339442055,
			"-0.002": 14.145576102,
			"-0.001": 12.1986543352,
			"0.0": 8.4937973754,
			"0.001": 10.7437882743,
			"0.002": 11.4590011508,
			"0.003": 16.9815314884,
			"0.004": 8.36540668544,
			"0.005": 5.46922975294,
			"0.006": 6.37118534869,
			"0.007": 10.5055513144,
			"0.008": 11.8052678474,
			"0.009": 7.36726344229,
			"0.01": 5.29342303109,
			"0.011": 6.36270837834,
			"0.012": 2.62532196553,
			"0.013": 0.128236079007,
			"0.014": 0.0,
			"0.015": 0.0,
			"0.016": 0.0,
			"0.017": 0.0,
			"0.018": 0.0,
			"0.019": 0.0,
			"0.02": 0.0,
			"0.021": 0.0,
			"0.022": 0.0,
			"0.023": 0.0,
			"0.024": 0.0,
			"0.025": 0.0
		}
	}
}
