{
	 "smiles": "CC1CC(=O)C(C)(C)C1", 
	 "Tm": 232.55, 
	 "num_atms": 23, 
	 "gaussian": { 
		 "optdone": 1, 
		 "sigma_profile": "yes", 
		 "theory": "DFT", 
		 "functional": "B3LYP", 
		 "basiset": "6-31G**", 
		 "properties": { 
			 "R2extent": 1345.1654, 
			 "electric_dipole_moment_norm": 2.7353769795, 
			 "electric_quadrupole_moment_norm": 8.30794516051, 
			 "total_energy": -388.526951288, 
			 "HOMO_LUMO_gap": 0.2183, 
			 "cosmo_polarized_energy": -6.41, 
			 "cosmo_cavitation_energy": 23.68, 
			 "cosmo_dispersion_energy": -17.02, 
			 "cosmo_repulsion_energy": 1.39, 
			 "cosmo_total_nonelectrostatic_energy": 8.05, 
			 "SMD_solvation_energy": 4.57 
		},
		"coords": [
			{
				"x": -1.0002609438,
				"y": 1.8301092726,
				"z": -0.6679844175,
				"element": "C" 
			},
			{
				"x": -1.3257391109,
				"y": 1.0869986412,
				"z": 0.6357370768,
				"element": "C" 
			},
			{
				"x": -2.0336237055,
				"y": -0.256366959,
				"z": 0.3724783309,
				"element": "C" 
			},
			{
				"x": -0.9122740022,
				"y": -1.2888064649,
				"z": 0.2816810909,
				"element": "C" 
			},
			{
				"x": -0.9876313262,
				"y": -2.3753593044,
				"z": -0.2521042468,
				"element": "O" 
			},
			{
				"x": 0.352693494,
				"y": -0.747648006,
				"z": 0.9884896971,
				"element": "C" 
			},
			{
				"x": 0.6955030443,
				"y": -1.6797027344,
				"z": 2.1669228562,
				"element": "C" 
			},
			{
				"x": 1.5259244875,
				"y": -0.7483567353,
				"z": -0.0127905793,
				"element": "C" 
			},
			{
				"x": -0.0622629572,
				"y": 0.6754741585,
				"z": 1.4497142367,
				"element": "C" 
			},
			{
				"x": -1.9187092357,
				"y": 2.1223900594,
				"z": -1.1887436658,
				"element": "H" 
			},
			{
				"x": -0.4179881592,
				"y": 1.2115051734,
				"z": -1.3596853537,
				"element": "H" 
			},
			{
				"x": -0.4233261133,
				"y": 2.7396632312,
				"z": -0.4692897091,
				"element": "H" 
			},
			{
				"x": -1.9563502636,
				"y": 1.7427194518,
				"z": 1.2462302771,
				"element": "H" 
			},
			{
				"x": -2.6720583964,
				"y": -0.2825331036,
				"z": -0.5150652286,
				"element": "H" 
			},
			{
				"x": -2.6606051418,
				"y": -0.5421253081,
				"z": 1.229493511,
				"element": "H" 
			},
			{
				"x": -0.1216559209,
				"y": -1.7251329776,
				"z": 2.8953339591,
				"element": "H" 
			},
			{
				"x": 1.5906782632,
				"y": -1.3239950644,
				"z": 2.6890068687,
				"element": "H" 
			},
			{
				"x": 0.883739546,
				"y": -2.6950874846,
				"z": 1.8058807159,
				"element": "H" 
			},
			{
				"x": 2.4497479666,
				"y": -0.4363825083,
				"z": 0.4865452773,
				"element": "H" 
			},
			{
				"x": 1.6706511347,
				"y": -1.7538698604,
				"z": -0.4183539472,
				"element": "H" 
			},
			{
				"x": 1.3538168976,
				"y": -0.0680342552,
				"z": -0.851994227,
				"element": "H" 
			},
			{
				"x": 0.7494119816,
				"y": 1.4018494356,
				"z": 1.3347709661,
				"element": "H" 
			},
			{
				"x": -0.3165815388,
				"y": 0.6539913425,
				"z": 2.5160265112,
				"element": "H" 
			}
		],
		 "valence_orbital": [ 
			{
				"type": "occ",
				"energy": -0.33564,
				"method": "rhf"
			},
			{
				"type": "occ",
				"energy": -0.32669,
				"method": "rhf"
			},
			{
				"type": "occ",
				"energy": -0.32142,
				"method": "rhf"
			},
			{
				"type": "occ",
				"energy": -0.31304,
				"method": "rhf"
			},
			{
				"type": "occ",
				"energy": -0.23265,
				"method": "rhf"
			},
			{
				"type": "unocc",
				"energy": -0.01435,
				"method": "rhf"
			},
			{
				"type": "unocc",
				"energy": 0.07387,
				"method": "rhf"
			},
			{
				"type": "unocc",
				"energy": 0.10714,
				"method": "rhf"
			},
			{
				"type": "unocc",
				"energy": 0.11425,
				"method": "rhf"
			},
			{
				"type": "unocc",
				"energy": 0.12873,
				"method": "rhf"
			}
		],
		"cosmo_sigma_profile": { 
			"-0.025": 0.0,
			"-0.024": 0.0,
			"-0.023": 0.0,
			"-0.022": 0.0,
			"-0.021": 0.0,
			"-0.02": 0.0,
			"-0.019": 0.0,
			"-0.018": 0.0,
			"-0.017": 0.0,
			"-0.016": 0.0,
			"-0.015": 0.0,
			"-0.014": 0.0,
			"-0.013": 0.0,
			"-0.012": 0.0,
			"-0.011": 0.0,
			"-0.01": 0.0,
			"-0.009": 0.0,
			"-0.008": 0.0,
			"-0.007": 0.0,
			"-0.006": 2.24460285192,
			"-0.005": 6.01337041462,
			"-0.004": 9.41214708155,
			"-0.003": 24.7176516937,
			"-0.002": 31.3189728455,
			"-0.001": 30.6587594963,
			"0.0": 27.5252947588,
			"0.001": 21.0783311057,
			"0.002": 4.6385401112,
			"0.003": 2.39492946144,
			"0.004": 1.67796453637,
			"0.005": 2.21593671337,
			"0.006": 1.81042324415,
			"0.007": 1.82697221442,
			"0.008": 1.81964949061,
			"0.009": 1.62987991413,
			"0.01": 1.41290524095,
			"0.011": 2.61570183397,
			"0.012": 4.72530922089,
			"0.013": 2.73015037572,
			"0.014": 0.385514457695,
			"0.015": 0.0,
			"0.016": 0.0,
			"0.017": 0.0,
			"0.018": 0.0,
			"0.019": 0.0,
			"0.02": 0.0,
			"0.021": 0.0,
			"0.022": 0.0,
			"0.023": 0.0,
			"0.024": 0.0,
			"0.025": 0.0
		}
	}
}
