{
	 "smiles": "CC1=C(I)C=CC(O)=N1", 
	 "Tm": 483.15, 
	 "num_atms": 15, 
	 "gaussian": { 
		 "optdone": 1, 
		 "sigma_profile": "yes", 
		 "theory": "DFT", 
		 "functional": "B3LYP", 
		 "basiset": "6-31G**", 
		 "properties": { 
			 "R2extent": 1447.3098, 
			 "electric_dipole_moment_norm": 0.562622795486, 
			 "electric_quadrupole_moment_norm": 4.57476458301, 
			 "total_energy": -373.624917311, 
			 "HOMO_LUMO_gap": 0.19027, 
			 "cosmo_polarized_energy": -6.38, 
			 "cosmo_cavitation_energy": 22.1, 
			 "cosmo_dispersion_energy": -17.92, 
			 "cosmo_repulsion_energy": 1.43, 
			 "cosmo_total_nonelectrostatic_energy": 5.61, 
			 "SMD_solvation_energy": 2.3 
		},
		"coords": [
			{
				"x": 0.5324368939,
				"y": -0.0367599482,
				"z": 1.7894286899,
				"element": "C" 
			},
			{
				"x": 0.5394787772,
				"y": -0.1355449392,
				"z": 0.2875592295,
				"element": "C" 
			},
			{
				"x": 0.3007744272,
				"y": 0.951746339,
				"z": -0.5660955332,
				"element": "C" 
			},
			{
				"x": -0.1038682188,
				"y": 2.8921069146,
				"z": 0.1891485498,
				"element": "I" 
			},
			{
				"x": 0.3275746482,
				"y": 0.7645637409,
				"z": -1.9529330499,
				"element": "C" 
			},
			{
				"x": 0.5903071202,
				"y": -0.4959777042,
				"z": -2.4675627206,
				"element": "C" 
			},
			{
				"x": 0.8172487058,
				"y": -1.5244827272,
				"z": -1.5445571253,
				"element": "C" 
			},
			{
				"x": 1.0770398688,
				"y": -2.7682701251,
				"z": -2.0028956215,
				"element": "O" 
			},
			{
				"x": 0.7933623626,
				"y": -1.3541538539,
				"z": -0.2263312706,
				"element": "N" 
			},
			{
				"x": 1.2834284776,
				"y": 0.6774698946,
				"z": 2.14385258,
				"element": "H" 
			},
			{
				"x": -0.4375734027,
				"y": 0.3119923158,
				"z": 2.1598142755,
				"element": "H" 
			},
			{
				"x": 0.7449231185,
				"y": -1.0188967873,
				"z": 2.2131054801,
				"element": "H" 
			},
			{
				"x": 0.1443855326,
				"y": 1.5984084186,
				"z": -2.621764425,
				"element": "H" 
			},
			{
				"x": 0.6218530039,
				"y": -0.691404459,
				"z": -3.532819413,
				"element": "H" 
			},
			{
				"x": 1.202128685,
				"y": -3.3225970795,
				"z": -1.2160496457,
				"element": "H" 
			}
		],
		 "valence_orbital": [ 
			{
				"type": "occ",
				"energy": -0.30206,
				"method": "rhf"
			},
			{
				"type": "occ",
				"energy": -0.28409,
				"method": "rhf"
			},
			{
				"type": "occ",
				"energy": -0.27795,
				"method": "rhf"
			},
			{
				"type": "occ",
				"energy": -0.26631,
				"method": "rhf"
			},
			{
				"type": "occ",
				"energy": -0.23017,
				"method": "rhf"
			},
			{
				"type": "unocc",
				"energy": -0.0399,
				"method": "rhf"
			},
			{
				"type": "unocc",
				"energy": -0.03095,
				"method": "rhf"
			},
			{
				"type": "unocc",
				"energy": -0.01134,
				"method": "rhf"
			},
			{
				"type": "unocc",
				"energy": 0.03818,
				"method": "rhf"
			},
			{
				"type": "unocc",
				"energy": 0.0473,
				"method": "rhf"
			}
		],
		"cosmo_sigma_profile": { 
			"-0.025": 0.0,
			"-0.024": 0.0,
			"-0.023": 0.0,
			"-0.022": 0.0,
			"-0.021": 0.0,
			"-0.02": 0.0,
			"-0.019": 0.0,
			"-0.018": 0.0,
			"-0.017": 0.487048677531,
			"-0.016": 0.819788311081,
			"-0.015": 0.518600283388,
			"-0.014": 1.0008066637,
			"-0.013": 1.19517225359,
			"-0.012": 0.174997517715,
			"-0.011": 0.130778354993,
			"-0.01": 1.08431223617,
			"-0.009": 0.586136280511,
			"-0.008": 1.61650668796,
			"-0.007": 4.864264637,
			"-0.006": 6.38736612533,
			"-0.005": 7.88362740031,
			"-0.004": 9.14406368606,
			"-0.003": 11.3735790728,
			"-0.002": 12.4416344044,
			"-0.001": 15.0793160808,
			"0.0": 18.5831147624,
			"0.001": 19.9184904462,
			"0.002": 18.5044886641,
			"0.003": 14.7631990587,
			"0.004": 13.0005087266,
			"0.005": 7.19116395734,
			"0.006": 1.95471830945,
			"0.007": 3.20275881294,
			"0.008": 2.43867979803,
			"0.009": 1.84272198637,
			"0.01": 3.45111357207,
			"0.011": 1.52565240871,
			"0.012": 0.0673127237206,
			"0.013": 0.0,
			"0.014": 0.0,
			"0.015": 0.0,
			"0.016": 0.0,
			"0.017": 0.0,
			"0.018": 0.0,
			"0.019": 0.0,
			"0.02": 0.0,
			"0.021": 0.0,
			"0.022": 0.0,
			"0.023": 0.0,
			"0.024": 0.0,
			"0.025": 0.0
		}
	}
}
