{
	 "smiles": "OCCSC1=C2C=CC(Cl)=CC2=NC=C1", 
	 "Tm": 385.15, 
	 "num_atms": 25, 
	 "gaussian": { 
		 "optdone": 1, 
		 "sigma_profile": "yes", 
		 "theory": "DFT", 
		 "functional": "B3LYP", 
		 "basiset": "6-31G**", 
		 "properties": { 
			 "R2extent": 5273.5367, 
			 "electric_dipole_moment_norm": 3.1903321849, 
			 "electric_quadrupole_moment_norm": 12.9790715858, 
			 "total_energy": -1413.54353231, 
			 "HOMO_LUMO_gap": 0.16667, 
			 "cosmo_polarized_energy": -12.42, 
			 "cosmo_cavitation_energy": 32.04, 
			 "cosmo_dispersion_energy": -23.47, 
			 "cosmo_repulsion_energy": 1.8, 
			 "cosmo_total_nonelectrostatic_energy": 10.37, 
			 "SMD_solvation_energy": 3.11 
		},
		"coords": [
			{
				"x": -0.7151470357,
				"y": 2.4028767698,
				"z": -2.7541264344,
				"element": "O" 
			},
			{
				"x": -0.762645041,
				"y": 3.6949642562,
				"z": -2.1799307488,
				"element": "C" 
			},
			{
				"x": -0.7158715671,
				"y": 3.7062242835,
				"z": -0.650682126,
				"element": "C" 
			},
			{
				"x": -2.1143789094,
				"y": 2.8187021828,
				"z": 0.1657438826,
				"element": "S" 
			},
			{
				"x": -1.5099288685,
				"y": 1.1257968465,
				"z": 0.1994996026,
				"element": "C" 
			},
			{
				"x": -0.5651316592,
				"y": 0.6806710391,
				"z": 1.1775108555,
				"element": "C" 
			},
			{
				"x": -0.0025575032,
				"y": 1.5093848408,
				"z": 2.1841912942,
				"element": "C" 
			},
			{
				"x": 0.9180950335,
				"y": 1.0163687754,
				"z": 3.0804560149,
				"element": "C" 
			},
			{
				"x": 1.3115559648,
				"y": -0.3406185037,
				"z": 3.0028774167,
				"element": "C" 
			},
			{
				"x": 2.4926188474,
				"y": -0.938615513,
				"z": 4.1572145418,
				"element": "Cl" 
			},
			{
				"x": 0.7853612632,
				"y": -1.1877158642,
				"z": 2.0580094081,
				"element": "C" 
			},
			{
				"x": -0.1686507968,
				"y": -0.6979357616,
				"z": 1.1261774636,
				"element": "C" 
			},
			{
				"x": -0.6701916025,
				"y": -1.5856968533,
				"z": 0.219468096,
				"element": "N" 
			},
			{
				"x": -1.557888706,
				"y": -1.1352129577,
				"z": -0.6432913915,
				"element": "C" 
			},
			{
				"x": -2.0059038735,
				"y": 0.2071169687,
				"z": -0.7017517869,
				"element": "C" 
			},
			{
				"x": 0.1202078319,
				"y": 1.9872222346,
				"z": -2.5029921577,
				"element": "H" 
			},
			{
				"x": -1.7025935447,
				"y": 4.1381026023,
				"z": -2.5218559231,
				"element": "H" 
			},
			{
				"x": 0.0575370657,
				"y": 4.3344446207,
				"z": -2.5501501733,
				"element": "H" 
			},
			{
				"x": -0.7777375526,
				"y": 4.7389822613,
				"z": -0.2907066024,
				"element": "H" 
			},
			{
				"x": 0.2245415005,
				"y": 3.287889514,
				"z": -0.2761803136,
				"element": "H" 
			},
			{
				"x": -0.3251608437,
				"y": 2.5427136768,
				"z": 2.2502335534,
				"element": "H" 
			},
			{
				"x": 1.3403333331,
				"y": 1.6521607913,
				"z": 3.8506464423,
				"element": "H" 
			},
			{
				"x": 1.0705383634,
				"y": -2.2311028487,
				"z": 1.9971504562,
				"element": "H" 
			},
			{
				"x": -1.9503719358,
				"y": -1.8580937844,
				"z": -1.3576074988,
				"element": "H" 
			},
			{
				"x": -2.7106297637,
				"y": 0.5138704227,
				"z": -1.4653038713,
				"element": "H" 
			}
		],
		 "valence_orbital": [ 
			{
				"type": "occ",
				"energy": -0.28255,
				"method": "rhf"
			},
			{
				"type": "occ",
				"energy": -0.26517,
				"method": "rhf"
			},
			{
				"type": "occ",
				"energy": -0.25814,
				"method": "rhf"
			},
			{
				"type": "occ",
				"energy": -0.2437,
				"method": "rhf"
			},
			{
				"type": "occ",
				"energy": -0.23652,
				"method": "rhf"
			},
			{
				"type": "unocc",
				"energy": -0.06985,
				"method": "rhf"
			},
			{
				"type": "unocc",
				"energy": -0.02895,
				"method": "rhf"
			},
			{
				"type": "unocc",
				"energy": -0.00354,
				"method": "rhf"
			},
			{
				"type": "unocc",
				"energy": 0.02664,
				"method": "rhf"
			},
			{
				"type": "unocc",
				"energy": 0.03758,
				"method": "rhf"
			}
		],
		"cosmo_sigma_profile": { 
			"-0.025": 0.0,
			"-0.024": 0.0,
			"-0.023": 0.0,
			"-0.022": 0.0,
			"-0.021": 0.0,
			"-0.02": 0.0,
			"-0.019": 0.0,
			"-0.018": 0.0,
			"-0.017": 0.0,
			"-0.016": 0.205912248314,
			"-0.015": 0.991994636735,
			"-0.014": 0.633708978867,
			"-0.013": 0.793622073878,
			"-0.012": 1.14952447808,
			"-0.011": 1.36230294063,
			"-0.01": 0.800750018384,
			"-0.009": 0.961778520841,
			"-0.008": 2.02555065981,
			"-0.007": 8.94945268177,
			"-0.006": 13.304553039,
			"-0.005": 18.1134599967,
			"-0.004": 19.2682900047,
			"-0.003": 16.6033772014,
			"-0.002": 13.9574141591,
			"-0.001": 16.457032774,
			"0.0": 21.3614795075,
			"0.001": 28.9645551152,
			"0.002": 22.7863122949,
			"0.003": 15.8917426414,
			"0.004": 16.7662544035,
			"0.005": 9.05549363255,
			"0.006": 5.48044662547,
			"0.007": 5.45276606026,
			"0.008": 4.91520061203,
			"0.009": 2.76850188497,
			"0.01": 1.57327660843,
			"0.011": 1.92404793854,
			"0.012": 1.85870115922,
			"0.013": 2.12516621717,
			"0.014": 1.95742668394,
			"0.015": 1.04529889507,
			"0.016": 0.120154138531,
			"0.017": 0.0,
			"0.018": 0.0,
			"0.019": 0.0,
			"0.02": 0.0,
			"0.021": 0.0,
			"0.022": 0.0,
			"0.023": 0.0,
			"0.024": 0.0,
			"0.025": 0.0
		}
	}
}
