{
	 "smiles": "NC1=NN=C(O1)C1=C2C=CC=CC2=CC=C1", 
	 "Tm": 458.15, 
	 "num_atms": 25, 
	 "gaussian": { 
		 "optdone": 1, 
		 "sigma_profile": "yes", 
		 "theory": "DFT", 
		 "functional": "B3LYP", 
		 "basiset": "6-31G**", 
		 "properties": { 
			 "R2extent": 3818.1077, 
			 "electric_dipole_moment_norm": 3.8193052575, 
			 "electric_quadrupole_moment_norm": 21.1514143371, 
			 "total_energy": -702.162721159, 
			 "HOMO_LUMO_gap": 0.15137, 
			 "cosmo_polarized_energy": -16.75, 
			 "cosmo_cavitation_energy": 29.56, 
			 "cosmo_dispersion_energy": -22.12, 
			 "cosmo_repulsion_energy": 1.69, 
			 "cosmo_total_nonelectrostatic_energy": 9.14, 
			 "SMD_solvation_energy": 3.26 
		},
		"coords": [
			{
				"x": 3.433893227,
				"y": -1.8393493833,
				"z": -1.2989399819,
				"element": "N" 
			},
			{
				"x": 2.8714610564,
				"y": -0.6966015632,
				"z": -0.8003104476,
				"element": "C" 
			},
			{
				"x": 3.4631561656,
				"y": 0.3681312717,
				"z": -0.346408379,
				"element": "N" 
			},
			{
				"x": 2.4356119615,
				"y": 1.2627557908,
				"z": -0.0447182154,
				"element": "N" 
			},
			{
				"x": 1.3095913079,
				"y": 0.6818770078,
				"z": -0.3276080641,
				"element": "C" 
			},
			{
				"x": 1.5181836586,
				"y": -0.594966897,
				"z": -0.8252131892,
				"element": "O" 
			},
			{
				"x": -0.0328874534,
				"y": 1.2580801466,
				"z": -0.2234852852,
				"element": "C" 
			},
			{
				"x": -1.2475261037,
				"y": 0.4919871637,
				"z": -0.1253181728,
				"element": "C" 
			},
			{
				"x": -1.3019751299,
				"y": -0.9303318323,
				"z": -0.0951982349,
				"element": "C" 
			},
			{
				"x": -2.5030783818,
				"y": -1.5977750811,
				"z": 0.0053253225,
				"element": "C" 
			},
			{
				"x": -3.7231557447,
				"y": -0.88755201,
				"z": 0.0816425578,
				"element": "C" 
			},
			{
				"x": -3.7100843276,
				"y": 0.4868387919,
				"z": 0.0670111184,
				"element": "C" 
			},
			{
				"x": -2.4899061037,
				"y": 1.2101027588,
				"z": -0.0281272514,
				"element": "C" 
			},
			{
				"x": -2.4906397232,
				"y": 2.6289949111,
				"z": -0.0150182233,
				"element": "C" 
			},
			{
				"x": -1.3109161011,
				"y": 3.3328058324,
				"z": -0.0897315755,
				"element": "C" 
			},
			{
				"x": -0.0870364105,
				"y": 2.6465601179,
				"z": -0.1988150598,
				"element": "C" 
			},
			{
				"x": 4.4131991509,
				"y": -1.9329175467,
				"z": -1.0676337052,
				"element": "H" 
			},
			{
				"x": 2.8945856338,
				"y": -2.6847002515,
				"z": -1.1744601561,
				"element": "H" 
			},
			{
				"x": -0.3847630323,
				"y": -1.4994638867,
				"z": -0.1530885217,
				"element": "H" 
			},
			{
				"x": -2.5117804812,
				"y": -2.6838220399,
				"z": 0.0278186183,
				"element": "H" 
			},
			{
				"x": -4.6622586807,
				"y": -1.4277642601,
				"z": 0.1567947643,
				"element": "H" 
			},
			{
				"x": -4.6382417464,
				"y": 1.0485357618,
				"z": 0.1339126086,
				"element": "H" 
			},
			{
				"x": -3.4423798035,
				"y": 3.1486708399,
				"z": 0.0578643177,
				"element": "H" 
			},
			{
				"x": -1.3143006598,
				"y": 4.4184033316,
				"z": -0.0773385585,
				"element": "H" 
			},
			{
				"x": 0.8429477216,
				"y": 3.199401026,
				"z": -0.270956286,
				"element": "H" 
			}
		],
		 "valence_orbital": [ 
			{
				"type": "occ",
				"energy": -0.29301,
				"method": "rhf"
			},
			{
				"type": "occ",
				"energy": -0.26822,
				"method": "rhf"
			},
			{
				"type": "occ",
				"energy": -0.24895,
				"method": "rhf"
			},
			{
				"type": "occ",
				"energy": -0.24437,
				"method": "rhf"
			},
			{
				"type": "occ",
				"energy": -0.20783,
				"method": "rhf"
			},
			{
				"type": "unocc",
				"energy": -0.05646,
				"method": "rhf"
			},
			{
				"type": "unocc",
				"energy": -0.01372,
				"method": "rhf"
			},
			{
				"type": "unocc",
				"energy": -0.00105,
				"method": "rhf"
			},
			{
				"type": "unocc",
				"energy": 0.03975,
				"method": "rhf"
			},
			{
				"type": "unocc",
				"energy": 0.05835,
				"method": "rhf"
			}
		],
		"cosmo_sigma_profile": { 
			"-0.025": 0.0,
			"-0.024": 0.0,
			"-0.023": 0.0,
			"-0.022": 0.0,
			"-0.021": 0.0,
			"-0.02": 0.0,
			"-0.019": 0.0,
			"-0.018": 0.0,
			"-0.017": 0.0,
			"-0.016": 0.176014427022,
			"-0.015": 2.21059360845,
			"-0.014": 2.5277740459,
			"-0.013": 2.71328924478,
			"-0.012": 2.43742802234,
			"-0.011": 2.17618253586,
			"-0.01": 1.91226992108,
			"-0.009": 2.48008242323,
			"-0.008": 1.8093276739,
			"-0.007": 3.8368230567,
			"-0.006": 11.9158270743,
			"-0.005": 14.7023038889,
			"-0.004": 18.7435389005,
			"-0.003": 16.289621068,
			"-0.002": 12.9151250968,
			"-0.001": 12.7150294502,
			"0.0": 12.3713076773,
			"0.001": 14.6134845409,
			"0.002": 18.9115312479,
			"0.003": 26.8834828418,
			"0.004": 19.7627451869,
			"0.005": 8.64484190742,
			"0.006": 2.56079119721,
			"0.007": 2.34458733826,
			"0.008": 2.57710865971,
			"0.009": 2.94177455638,
			"0.01": 2.60218958593,
			"0.011": 2.50367897421,
			"0.012": 2.98871561656,
			"0.013": 3.78907594465,
			"0.014": 2.40687550192,
			"0.015": 1.91726279244,
			"0.016": 0.783264520611,
			"0.017": 0.0191871787241,
			"0.018": 0.0,
			"0.019": 0.0,
			"0.02": 0.0,
			"0.021": 0.0,
			"0.022": 0.0,
			"0.023": 0.0,
			"0.024": 0.0,
			"0.025": 0.0
		}
	}
}
