{
	 "smiles": "COC1=C(OC)C(OC)=C(C=C1)C(C)=O", 
	 "Tm": 288.95, 
	 "num_atms": 29, 
	 "gaussian": { 
		 "optdone": 1, 
		 "sigma_profile": "yes", 
		 "theory": "DFT", 
		 "functional": "B3LYP", 
		 "basiset": "6-31G**", 
		 "properties": { 
			 "R2extent": 3735.4259, 
			 "electric_dipole_moment_norm": 4.78457741185, 
			 "electric_quadrupole_moment_norm": 13.7281554045, 
			 "total_energy": -728.452407654, 
			 "HOMO_LUMO_gap": 0.18455, 
			 "cosmo_polarized_energy": -10.22, 
			 "cosmo_cavitation_energy": 31.89, 
			 "cosmo_dispersion_energy": -22.28, 
			 "cosmo_repulsion_energy": 1.75, 
			 "cosmo_total_nonelectrostatic_energy": 11.36, 
			 "SMD_solvation_energy": 8.27 
		},
		"coords": [
			{
				"x": 0.7421512926,
				"y": -1.2626166147,
				"z": 2.7227157405,
				"element": "C" 
			},
			{
				"x": 0.8758100623,
				"y": -2.0463464937,
				"z": 1.5325392591,
				"element": "O" 
			},
			{
				"x": 0.3340385111,
				"y": -1.6154541034,
				"z": 0.3616968186,
				"element": "C" 
			},
			{
				"x": 0.3112624065,
				"y": -0.2764540624,
				"z": -0.0653460772,
				"element": "C" 
			},
			{
				"x": 0.8668843805,
				"y": 0.7157636201,
				"z": 0.7200051677,
				"element": "O" 
			},
			{
				"x": 2.1707081921,
				"y": 1.129844196,
				"z": 0.2874798678,
				"element": "C" 
			},
			{
				"x": -0.2705673926,
				"y": 0.0613748437,
				"z": -1.3045373334,
				"element": "C" 
			},
			{
				"x": -0.2521389681,
				"y": 1.3797416699,
				"z": -1.6966668634,
				"element": "O" 
			},
			{
				"x": -1.0875457262,
				"y": 2.2666076505,
				"z": -0.9390234866,
				"element": "C" 
			},
			{
				"x": -0.7828967566,
				"y": -0.9350625072,
				"z": -2.1577651489,
				"element": "C" 
			},
			{
				"x": -0.7091188994,
				"y": -2.2711116205,
				"z": -1.7177129486,
				"element": "C" 
			},
			{
				"x": -0.181037252,
				"y": -2.6092342003,
				"z": -0.486187905,
				"element": "C" 
			},
			{
				"x": -1.39435023,
				"y": -0.7138219946,
				"z": -3.5135134672,
				"element": "C" 
			},
			{
				"x": -1.5136332059,
				"y": 0.6743496,
				"z": -4.1134030201,
				"element": "C" 
			},
			{
				"x": -1.8026371146,
				"y": -1.6780910957,
				"z": -4.1484367565,
				"element": "O" 
			},
			{
				"x": 1.4958829829,
				"y": -0.4748783456,
				"z": 2.7817333952,
				"element": "H" 
			},
			{
				"x": 0.8744784594,
				"y": -1.9649182649,
				"z": 3.5488904308,
				"element": "H" 
			},
			{
				"x": -0.2513087181,
				"y": -0.807264639,
				"z": 2.7866376462,
				"element": "H" 
			},
			{
				"x": 2.87687373,
				"y": 0.2913684674,
				"z": 0.318208464,
				"element": "H" 
			},
			{
				"x": 2.1329824077,
				"y": 1.5421773309,
				"z": -0.7256441513,
				"element": "H" 
			},
			{
				"x": 2.4946846434,
				"y": 1.9038215673,
				"z": 0.9867251505,
				"element": "H" 
			},
			{
				"x": -2.1389402911,
				"y": 1.9613952445,
				"z": -1.0085539652,
				"element": "H" 
			},
			{
				"x": -0.7812995841,
				"y": 2.2987229103,
				"z": 0.1094696713,
				"element": "H" 
			},
			{
				"x": -0.9681822745,
				"y": 3.2531036916,
				"z": -1.3911554914,
				"element": "H" 
			},
			{
				"x": -1.1054067003,
				"y": -3.0312298353,
				"z": -2.3815545293,
				"element": "H" 
			},
			{
				"x": -0.1448327279,
				"y": -3.6384766934,
				"z": -0.1454913712,
				"element": "H" 
			},
			{
				"x": -0.5444417632,
				"y": 1.1771358178,
				"z": -4.1542798816,
				"element": "H" 
			},
			{
				"x": -1.9349015344,
				"y": 0.5699749813,
				"z": -5.1144522794,
				"element": "H" 
			},
			{
				"x": -2.1681179296,
				"y": 1.3074788795,
				"z": -3.5058769354,
				"element": "H" 
			}
		],
		 "valence_orbital": [ 
			{
				"type": "occ",
				"energy": -0.29385,
				"method": "rhf"
			},
			{
				"type": "occ",
				"energy": -0.27358,
				"method": "rhf"
			},
			{
				"type": "occ",
				"energy": -0.23968,
				"method": "rhf"
			},
			{
				"type": "occ",
				"energy": -0.23796,
				"method": "rhf"
			},
			{
				"type": "occ",
				"energy": -0.22713,
				"method": "rhf"
			},
			{
				"type": "unocc",
				"energy": -0.04258,
				"method": "rhf"
			},
			{
				"type": "unocc",
				"energy": -0.00406,
				"method": "rhf"
			},
			{
				"type": "unocc",
				"energy": 0.04759,
				"method": "rhf"
			},
			{
				"type": "unocc",
				"energy": 0.06346,
				"method": "rhf"
			},
			{
				"type": "unocc",
				"energy": 0.10053,
				"method": "rhf"
			}
		],
		"cosmo_sigma_profile": { 
			"-0.025": 0.0,
			"-0.024": 0.0,
			"-0.023": 0.0,
			"-0.022": 0.0,
			"-0.021": 0.0,
			"-0.02": 0.0,
			"-0.019": 0.0,
			"-0.018": 0.0,
			"-0.017": 0.0,
			"-0.016": 0.0,
			"-0.015": 0.0,
			"-0.014": 0.0,
			"-0.013": 0.0,
			"-0.012": 0.0,
			"-0.011": 0.0,
			"-0.01": 0.0,
			"-0.009": 0.0,
			"-0.008": 0.0,
			"-0.007": 0.240669757241,
			"-0.006": 5.94165987947,
			"-0.005": 19.9027926114,
			"-0.004": 26.9774280611,
			"-0.003": 36.2255452052,
			"-0.002": 30.3301665971,
			"-0.001": 20.5556611955,
			"0.0": 19.1167669185,
			"0.001": 15.9184765149,
			"0.002": 16.8588246998,
			"0.003": 13.8430384407,
			"0.004": 10.8536439426,
			"0.005": 6.32401976696,
			"0.006": 4.66694675146,
			"0.007": 3.74480670253,
			"0.008": 3.58705188321,
			"0.009": 4.25733963977,
			"0.01": 3.37677707353,
			"0.011": 2.96966466757,
			"0.012": 3.69610238208,
			"0.013": 2.38588095736,
			"0.014": 0.513987189954,
			"0.015": 0.0,
			"0.016": 0.0,
			"0.017": 0.0,
			"0.018": 0.0,
			"0.019": 0.0,
			"0.02": 0.0,
			"0.021": 0.0,
			"0.022": 0.0,
			"0.023": 0.0,
			"0.024": 0.0,
			"0.025": 0.0
		}
	}
}
