{
	 "smiles": "N(C1=CC=CC=C1)C1=CC=CC=C1", 
	 "Tm": 326.15, 
	 "num_atms": 24, 
	 "gaussian": { 
		 "optdone": 1, 
		 "sigma_profile": "yes", 
		 "theory": "DFT", 
		 "functional": "B3LYP", 
		 "basiset": "6-31G**", 
		 "properties": { 
			 "R2extent": 3661.6002, 
			 "electric_dipole_moment_norm": 0.87116451374, 
			 "electric_quadrupole_moment_norm": 8.45376803562, 
			 "total_energy": -518.660214893, 
			 "HOMO_LUMO_gap": 0.18214, 
			 "cosmo_polarized_energy": -7.59, 
			 "cosmo_cavitation_energy": 27.44, 
			 "cosmo_dispersion_energy": -20.41, 
			 "cosmo_repulsion_energy": 1.6, 
			 "cosmo_total_nonelectrostatic_energy": 8.63, 
			 "SMD_solvation_energy": 4.44 
		},
		"coords": [
			{
				"x": 0.0490060581,
				"y": 1.6511834308,
				"z": 1.4975810283,
				"element": "N" 
			},
			{
				"x": -0.6599897354,
				"y": 1.0323548688,
				"z": 0.4624283437,
				"element": "C" 
			},
			{
				"x": -0.1073100867,
				"y": 0.0270868443,
				"z": -0.3512841083,
				"element": "C" 
			},
			{
				"x": -0.8573756793,
				"y": -0.5240237135,
				"z": -1.389282751,
				"element": "C" 
			},
			{
				"x": -2.1546747642,
				"y": -0.0825122014,
				"z": -1.6547654363,
				"element": "C" 
			},
			{
				"x": -2.698778242,
				"y": 0.9299749303,
				"z": -0.8611444062,
				"element": "C" 
			},
			{
				"x": -1.9669468451,
				"y": 1.4768322509,
				"z": 0.1889182203,
				"element": "C" 
			},
			{
				"x": 1.13339109,
				"y": 1.1800345512,
				"z": 2.2454409742,
				"element": "C" 
			},
			{
				"x": 1.9646310002,
				"y": 2.1201807842,
				"z": 2.8823517664,
				"element": "C" 
			},
			{
				"x": 3.0281146474,
				"y": 1.7048555824,
				"z": 3.6784549645,
				"element": "C" 
			},
			{
				"x": 3.3000107922,
				"y": 0.3453295817,
				"z": 3.8480891397,
				"element": "C" 
			},
			{
				"x": 2.4759467434,
				"y": -0.5907537371,
				"z": 3.2211459562,
				"element": "C" 
			},
			{
				"x": 1.3972465936,
				"y": -0.1884160428,
				"z": 2.4348211479,
				"element": "C" 
			},
			{
				"x": -0.2693529875,
				"y": 2.5769147973,
				"z": 1.7410994676,
				"element": "H" 
			},
			{
				"x": 0.9119099589,
				"y": -0.3021149497,
				"z": -0.1870395248,
				"element": "H" 
			},
			{
				"x": -0.4108552087,
				"y": -1.2989699032,
				"z": -2.0064794495,
				"element": "H" 
			},
			{
				"x": -2.7296956502,
				"y": -0.515863335,
				"z": -2.4670048704,
				"element": "H" 
			},
			{
				"x": -3.7052359428,
				"y": 1.2920157072,
				"z": -1.052292909,
				"element": "H" 
			},
			{
				"x": -2.4057477995,
				"y": 2.2518590913,
				"z": 0.8131566725,
				"element": "H" 
			},
			{
				"x": 1.7718598093,
				"y": 3.181188608,
				"z": 2.740989948,
				"element": "H" 
			},
			{
				"x": 3.6538622021,
				"y": 2.4509793947,
				"z": 4.1604380923,
				"element": "H" 
			},
			{
				"x": 4.135781434,
				"y": 0.0221796525,
				"z": 4.460655337,
				"element": "H" 
			},
			{
				"x": 2.6614368787,
				"y": -1.6530637801,
				"z": 3.3551012263,
				"element": "H" 
			},
			{
				"x": 0.7463657335,
				"y": -0.931352413,
				"z": 1.9892211704,
				"element": "H" 
			}
		],
		 "valence_orbital": [ 
			{
				"type": "occ",
				"energy": -0.31298,
				"method": "rhf"
			},
			{
				"type": "occ",
				"energy": -0.24913,
				"method": "rhf"
			},
			{
				"type": "occ",
				"energy": -0.24811,
				"method": "rhf"
			},
			{
				"type": "occ",
				"energy": -0.24659,
				"method": "rhf"
			},
			{
				"type": "occ",
				"energy": -0.18734,
				"method": "rhf"
			},
			{
				"type": "unocc",
				"energy": -0.0052,
				"method": "rhf"
			},
			{
				"type": "unocc",
				"energy": 0.0002,
				"method": "rhf"
			},
			{
				"type": "unocc",
				"energy": 0.00275,
				"method": "rhf"
			},
			{
				"type": "unocc",
				"energy": 0.03319,
				"method": "rhf"
			},
			{
				"type": "unocc",
				"energy": 0.08577,
				"method": "rhf"
			}
		],
		"cosmo_sigma_profile": { 
			"-0.025": 0.0,
			"-0.024": 0.0,
			"-0.023": 0.0,
			"-0.022": 0.0,
			"-0.021": 0.0,
			"-0.02": 0.0,
			"-0.019": 0.0,
			"-0.018": 0.0,
			"-0.017": 0.0,
			"-0.016": 0.0,
			"-0.015": 0.0,
			"-0.014": 0.306959704072,
			"-0.013": 1.36148716568,
			"-0.012": 0.952190805439,
			"-0.011": 1.51337670141,
			"-0.01": 1.93206142493,
			"-0.009": 1.13309485677,
			"-0.008": 1.91055398867,
			"-0.007": 1.94904517477,
			"-0.006": 5.40506376996,
			"-0.005": 16.6157078988,
			"-0.004": 19.2962692246,
			"-0.003": 21.7910536281,
			"-0.002": 17.1046054771,
			"-0.001": 13.1981960719,
			"0.0": 12.0394518367,
			"0.001": 13.0121712504,
			"0.002": 12.7462006501,
			"0.003": 14.8953740976,
			"0.004": 18.828207058,
			"0.005": 17.6738078315,
			"0.006": 17.2130300645,
			"0.007": 8.78681969797,
			"0.008": 0.0,
			"0.009": 0.0,
			"0.01": 0.0,
			"0.011": 0.0,
			"0.012": 0.0,
			"0.013": 0.0,
			"0.014": 0.0,
			"0.015": 0.0,
			"0.016": 0.0,
			"0.017": 0.0,
			"0.018": 0.0,
			"0.019": 0.0,
			"0.02": 0.0,
			"0.021": 0.0,
			"0.022": 0.0,
			"0.023": 0.0,
			"0.024": 0.0,
			"0.025": 0.0
		}
	}
}
