{
	 "smiles": "ClCC1=NN=C(O1)C1=C(Cl)C=CC=C1Cl", 
	 "Tm": 320.15, 
	 "num_atms": 20, 
	 "gaussian": { 
		 "optdone": 1, 
		 "sigma_profile": "yes", 
		 "theory": "DFT", 
		 "functional": "B3LYP", 
		 "basiset": "6-31G**", 
		 "properties": { 
			 "R2extent": 4786.1452, 
			 "electric_dipole_moment_norm": 4.2744099663, 
			 "electric_quadrupole_moment_norm": 18.0224284823, 
			 "total_energy": -1911.23395981, 
			 "HOMO_LUMO_gap": 0.21055, 
			 "cosmo_polarized_energy": -12.75, 
			 "cosmo_cavitation_energy": 31.35, 
			 "cosmo_dispersion_energy": -22.29, 
			 "cosmo_repulsion_energy": 1.78, 
			 "cosmo_total_nonelectrostatic_energy": 10.84, 
			 "SMD_solvation_energy": 2.54 
		},
		"coords": [
			{
				"x": 2.4832827729,
				"y": -2.8529879556,
				"z": 1.2894165301,
				"element": "Cl" 
			},
			{
				"x": 1.254031454,
				"y": -2.0226252511,
				"z": 2.3423905014,
				"element": "C" 
			},
			{
				"x": 0.9230078374,
				"y": -0.6650124045,
				"z": 1.8542093125,
				"element": "C" 
			},
			{
				"x": 1.2241869423,
				"y": 0.4687582652,
				"z": 2.4070591119,
				"element": "N" 
			},
			{
				"x": 0.6802694802,
				"y": 1.4584046874,
				"z": 1.5918131807,
				"element": "N" 
			},
			{
				"x": 0.0989701775,
				"y": 0.8425003233,
				"z": 0.6102293646,
				"element": "C" 
			},
			{
				"x": 0.2075436596,
				"y": -0.5152596562,
				"z": 0.7081290192,
				"element": "O" 
			},
			{
				"x": -0.6330128283,
				"y": 1.4190181064,
				"z": -0.5314782831,
				"element": "C" 
			},
			{
				"x": -2.0372891418,
				"y": 1.3772330781,
				"z": -0.5880767208,
				"element": "C" 
			},
			{
				"x": -2.9358977594,
				"y": 0.6238014828,
				"z": 0.7134049421,
				"element": "Cl" 
			},
			{
				"x": -2.7454014289,
				"y": 1.932961741,
				"z": -1.6506430521,
				"element": "C" 
			},
			{
				"x": -2.0434741172,
				"y": 2.547827427,
				"z": -2.6858166848,
				"element": "C" 
			},
			{
				"x": -0.6517503311,
				"y": 2.6059039587,
				"z": -2.6664874513,
				"element": "C" 
			},
			{
				"x": 0.0415719994,
				"y": 2.0420117647,
				"z": -1.5966515085,
				"element": "C" 
			},
			{
				"x": 1.7885350838,
				"y": 2.1020830371,
				"z": -1.6115075687,
				"element": "Cl" 
			},
			{
				"x": 1.679066835,
				"y": -1.9396761486,
				"z": 3.3410348615,
				"element": "H" 
			},
			{
				"x": 0.3743593401,
				"y": -2.6668385566,
				"z": 2.3547468146,
				"element": "H" 
			},
			{
				"x": -3.8279158035,
				"y": 1.8853949819,
				"z": -1.6580382905,
				"element": "H" 
			},
			{
				"x": -2.5873967467,
				"y": 2.9855536947,
				"z": -3.5169689131,
				"element": "H" 
			},
			{
				"x": -0.1005874252,
				"y": 3.0783474243,
				"z": -3.4709651656,
				"element": "H" 
			}
		],
		 "valence_orbital": [ 
			{
				"type": "occ",
				"energy": -0.31081,
				"method": "rhf"
			},
			{
				"type": "occ",
				"energy": -0.29444,
				"method": "rhf"
			},
			{
				"type": "occ",
				"energy": -0.28943,
				"method": "rhf"
			},
			{
				"type": "occ",
				"energy": -0.27689,
				"method": "rhf"
			},
			{
				"type": "occ",
				"energy": -0.26671,
				"method": "rhf"
			},
			{
				"type": "unocc",
				"energy": -0.05616,
				"method": "rhf"
			},
			{
				"type": "unocc",
				"energy": -0.04222,
				"method": "rhf"
			},
			{
				"type": "unocc",
				"energy": -0.03963,
				"method": "rhf"
			},
			{
				"type": "unocc",
				"energy": -0.00682,
				"method": "rhf"
			},
			{
				"type": "unocc",
				"energy": 0.0042,
				"method": "rhf"
			}
		],
		"cosmo_sigma_profile": { 
			"-0.025": 0.0,
			"-0.024": 0.0,
			"-0.023": 0.0,
			"-0.022": 0.0,
			"-0.021": 0.0,
			"-0.02": 0.0,
			"-0.019": 0.0,
			"-0.018": 0.0,
			"-0.017": 0.0,
			"-0.016": 0.0,
			"-0.015": 0.0,
			"-0.014": 0.0,
			"-0.013": 0.0,
			"-0.012": 0.0,
			"-0.011": 0.191641447483,
			"-0.01": 4.22179249347,
			"-0.009": 5.6283897057,
			"-0.008": 10.4893909684,
			"-0.007": 11.5120786242,
			"-0.006": 8.67965839297,
			"-0.005": 7.25775794492,
			"-0.004": 9.50536409319,
			"-0.003": 12.1968586668,
			"-0.002": 15.1900969833,
			"-0.001": 26.122982275,
			"0.0": 28.5293097048,
			"0.001": 25.8270856945,
			"0.002": 21.2568643714,
			"0.003": 23.6842148016,
			"0.004": 14.7747404733,
			"0.005": 11.7141388902,
			"0.006": 4.02585265503,
			"0.007": 2.46496018903,
			"0.008": 2.41293804137,
			"0.009": 2.33758536452,
			"0.01": 3.76511908869,
			"0.011": 2.54560177084,
			"0.012": 2.04437200807,
			"0.013": 2.1677474689,
			"0.014": 1.25119703444,
			"0.015": 0.0128924108396,
			"0.016": 0.0,
			"0.017": 0.0,
			"0.018": 0.0,
			"0.019": 0.0,
			"0.02": 0.0,
			"0.021": 0.0,
			"0.022": 0.0,
			"0.023": 0.0,
			"0.024": 0.0,
			"0.025": 0.0
		}
	}
}
