{
	 "smiles": "ClCC(=O)NC(=O)OCC1=CC=CC=C1", 
	 "Tm": 387.15, 
	 "num_atms": 25, 
	 "gaussian": { 
		 "optdone": 1, 
		 "sigma_profile": "yes", 
		 "theory": "DFT", 
		 "functional": "B3LYP", 
		 "basiset": "6-31G**", 
		 "properties": { 
			 "R2extent": 5348.854, 
			 "electric_dipole_moment_norm": 4.48846935714, 
			 "electric_quadrupole_moment_norm": 21.9177149507, 
			 "total_energy": -1127.73151639, 
			 "HOMO_LUMO_gap": 0.23245, 
			 "cosmo_polarized_energy": -15.11, 
			 "cosmo_cavitation_energy": 32.02, 
			 "cosmo_dispersion_energy": -22.67, 
			 "cosmo_repulsion_energy": 1.81, 
			 "cosmo_total_nonelectrostatic_energy": 11.17, 
			 "SMD_solvation_energy": 7.03 
		},
		"coords": [
			{
				"x": 2.9823731166,
				"y": -1.9871061702,
				"z": -3.9288671927,
				"element": "Cl" 
			},
			{
				"x": 2.0454660487,
				"y": -0.7744719152,
				"z": -3.0056030454,
				"element": "C" 
			},
			{
				"x": 1.0772673743,
				"y": -0.0041215088,
				"z": -3.9009829169,
				"element": "C" 
			},
			{
				"x": 0.9662195904,
				"y": -0.1830843285,
				"z": -5.0934251241,
				"element": "O" 
			},
			{
				"x": 0.2685064918,
				"y": 0.9681834726,
				"z": -3.2899605513,
				"element": "N" 
			},
			{
				"x": 0.1041172015,
				"y": 1.4410720589,
				"z": -1.9911778874,
				"element": "C" 
			},
			{
				"x": -0.7199194256,
				"y": 2.2910650254,
				"z": -1.7237567577,
				"element": "O" 
			},
			{
				"x": 0.9511615784,
				"y": 0.8630002319,
				"z": -1.1216764076,
				"element": "O" 
			},
			{
				"x": 0.804848772,
				"y": 1.2582186209,
				"z": 0.2812742691,
				"element": "C" 
			},
			{
				"x": -0.1412203207,
				"y": 0.3460135893,
				"z": 1.016561098,
				"element": "C" 
			},
			{
				"x": 0.3449265623,
				"y": -0.786027029,
				"z": 1.6830448489,
				"element": "C" 
			},
			{
				"x": -0.5277625149,
				"y": -1.6429432981,
				"z": 2.3543241608,
				"element": "C" 
			},
			{
				"x": -1.8977066808,
				"y": -1.373625591,
				"z": 2.3640188094,
				"element": "C" 
			},
			{
				"x": -2.3908401395,
				"y": -0.2464980761,
				"z": 1.7024461205,
				"element": "C" 
			},
			{
				"x": -1.5182524539,
				"y": 0.610564808,
				"z": 1.0319760586,
				"element": "C" 
			},
			{
				"x": 2.7468439746,
				"y": -0.0879840745,
				"z": -2.5312256936,
				"element": "H" 
			},
			{
				"x": 1.5007082712,
				"y": -1.2896013061,
				"z": -2.2143796829,
				"element": "H" 
			},
			{
				"x": -0.353215881,
				"y": 1.4194034429,
				"z": -3.9511006208,
				"element": "H" 
			},
			{
				"x": 1.8188935224,
				"y": 1.1845732878,
				"z": 0.6777586725,
				"element": "H" 
			},
			{
				"x": 0.4713669935,
				"y": 2.2962028788,
				"z": 0.3044629999,
				"element": "H" 
			},
			{
				"x": 1.4123311602,
				"y": -0.9940217198,
				"z": 1.680338987,
				"element": "H" 
			},
			{
				"x": -0.1394694856,
				"y": -2.5159187959,
				"z": 2.8707614246,
				"element": "H" 
			},
			{
				"x": -2.5785347737,
				"y": -2.0380907299,
				"z": 2.8882224893,
				"element": "H" 
			},
			{
				"x": -3.4557474551,
				"y": -0.0330758702,
				"z": 1.7112843806,
				"element": "H" 
			},
			{
				"x": -1.8969615272,
				"y": 1.4835729969,
				"z": 0.5093815612,
				"element": "H" 
			}
		],
		 "valence_orbital": [ 
			{
				"type": "occ",
				"energy": -0.303,
				"method": "rhf"
			},
			{
				"type": "occ",
				"energy": -0.2959,
				"method": "rhf"
			},
			{
				"type": "occ",
				"energy": -0.27992,
				"method": "rhf"
			},
			{
				"type": "occ",
				"energy": -0.26401,
				"method": "rhf"
			},
			{
				"type": "occ",
				"energy": -0.26267,
				"method": "rhf"
			},
			{
				"type": "unocc",
				"energy": -0.03022,
				"method": "rhf"
			},
			{
				"type": "unocc",
				"energy": -0.02427,
				"method": "rhf"
			},
			{
				"type": "unocc",
				"energy": -0.01498,
				"method": "rhf"
			},
			{
				"type": "unocc",
				"energy": 0.02276,
				"method": "rhf"
			},
			{
				"type": "unocc",
				"energy": 0.04394,
				"method": "rhf"
			}
		],
		"cosmo_sigma_profile": { 
			"-0.025": 0.0,
			"-0.024": 0.0,
			"-0.023": 0.0,
			"-0.022": 0.0,
			"-0.021": 0.0,
			"-0.02": 0.0,
			"-0.019": 0.0,
			"-0.018": 0.0,
			"-0.017": 0.0,
			"-0.016": 0.339691378444,
			"-0.015": 0.780750227687,
			"-0.014": 0.524066965968,
			"-0.013": 1.05183631688,
			"-0.012": 0.778658283547,
			"-0.011": 0.962019033413,
			"-0.01": 1.48434377246,
			"-0.009": 4.31384647203,
			"-0.008": 4.46783010857,
			"-0.007": 8.60178279016,
			"-0.006": 14.7234972547,
			"-0.005": 18.5902469191,
			"-0.004": 21.4699293952,
			"-0.003": 19.982838318,
			"-0.002": 18.2083184598,
			"-0.001": 14.4263480559,
			"0.0": 12.1114630255,
			"0.001": 14.3895133689,
			"0.002": 13.6540109375,
			"0.003": 13.4336902352,
			"0.004": 15.2939331773,
			"0.005": 19.2344174648,
			"0.006": 9.87664081513,
			"0.007": 3.68892467105,
			"0.008": 2.9977536008,
			"0.009": 4.0038131675,
			"0.01": 5.1713031568,
			"0.011": 8.38103979093,
			"0.012": 4.11190410763,
			"0.013": 0.686275661127,
			"0.014": 0.0,
			"0.015": 0.0,
			"0.016": 0.0,
			"0.017": 0.0,
			"0.018": 0.0,
			"0.019": 0.0,
			"0.02": 0.0,
			"0.021": 0.0,
			"0.022": 0.0,
			"0.023": 0.0,
			"0.024": 0.0,
			"0.025": 0.0
		}
	}
}
