{
	 "smiles": "CC1=CC=CC(C)=C1C(O)=O", 
	 "Tm": 389.15, 
	 "num_atms": 21, 
	 "gaussian": { 
		 "optdone": 1, 
		 "sigma_profile": "yes", 
		 "theory": "DFT", 
		 "functional": "B3LYP", 
		 "basiset": "6-31G**", 
		 "properties": { 
			 "R2extent": 2582.8961, 
			 "electric_dipole_moment_norm": 1.47756837405, 
			 "electric_quadrupole_moment_norm": 8.72483763746, 
			 "total_energy": -499.457514652, 
			 "HOMO_LUMO_gap": 0.20222, 
			 "cosmo_polarized_energy": -8.26, 
			 "cosmo_cavitation_energy": 24.09, 
			 "cosmo_dispersion_energy": -17.82, 
			 "cosmo_repulsion_energy": 1.42, 
			 "cosmo_total_nonelectrostatic_energy": 7.69, 
			 "SMD_solvation_energy": 5.23 
		},
		"coords": [
			{
				"x": 1.5965686567,
				"y": -3.947559091,
				"z": -0.6950462276,
				"element": "C" 
			},
			{
				"x": 1.2973690652,
				"y": -2.5850432344,
				"z": -0.1104347536,
				"element": "C" 
			},
			{
				"x": 1.9825236441,
				"y": -2.1933155279,
				"z": 1.044621087,
				"element": "C" 
			},
			{
				"x": 1.7665953637,
				"y": -0.9461992222,
				"z": 1.6226465024,
				"element": "C" 
			},
			{
				"x": 0.8506386099,
				"y": -0.0679164526,
				"z": 1.0517548658,
				"element": "C" 
			},
			{
				"x": 0.1208326213,
				"y": -0.4188154829,
				"z": -0.0896817174,
				"element": "C" 
			},
			{
				"x": -0.8478630013,
				"y": 0.6010292388,
				"z": -0.6507972757,
				"element": "C" 
			},
			{
				"x": 0.3482648845,
				"y": -1.6920131874,
				"z": -0.6694897927,
				"element": "C" 
			},
			{
				"x": -0.3733758243,
				"y": -2.127622043,
				"z": -1.9023216985,
				"element": "C" 
			},
			{
				"x": -1.6636088543,
				"y": -1.7057146065,
				"z": -1.9600102213,
				"element": "O" 
			},
			{
				"x": 0.0948789418,
				"y": -2.8159134471,
				"z": -2.7889731084,
				"element": "O" 
			},
			{
				"x": 2.1207515658,
				"y": -3.8614742152,
				"z": -1.6502464469,
				"element": "H" 
			},
			{
				"x": 0.6870388343,
				"y": -4.5197108636,
				"z": -0.8983159401,
				"element": "H" 
			},
			{
				"x": 2.2181648847,
				"y": -4.5226131241,
				"z": -0.0034719077,
				"element": "H" 
			},
			{
				"x": 2.6987865309,
				"y": -2.8790252313,
				"z": 1.4883588805,
				"element": "H" 
			},
			{
				"x": 2.3154078113,
				"y": -0.6564683353,
				"z": 2.5144400192,
				"element": "H" 
			},
			{
				"x": 0.6930874743,
				"y": 0.9114113231,
				"z": 1.4949489642,
				"element": "H" 
			},
			{
				"x": -0.6775535753,
				"y": 1.5732446696,
				"z": -0.1808469495,
				"element": "H" 
			},
			{
				"x": -1.8863087873,
				"y": 0.3096933218,
				"z": -0.4702827225,
				"element": "H" 
			},
			{
				"x": -0.7407808385,
				"y": 0.7228217141,
				"z": -1.7319488274,
				"element": "H" 
			},
			{
				"x": -2.0050180075,
				"y": -2.0453962027,
				"z": -2.8046027296,
				"element": "H" 
			}
		],
		 "valence_orbital": [ 
			{
				"type": "occ",
				"energy": -0.34216,
				"method": "rhf"
			},
			{
				"type": "occ",
				"energy": -0.3143,
				"method": "rhf"
			},
			{
				"type": "occ",
				"energy": -0.27395,
				"method": "rhf"
			},
			{
				"type": "occ",
				"energy": -0.24995,
				"method": "rhf"
			},
			{
				"type": "occ",
				"energy": -0.24157,
				"method": "rhf"
			},
			{
				"type": "unocc",
				"energy": -0.03935,
				"method": "rhf"
			},
			{
				"type": "unocc",
				"energy": -0.00023,
				"method": "rhf"
			},
			{
				"type": "unocc",
				"energy": 0.0463,
				"method": "rhf"
			},
			{
				"type": "unocc",
				"energy": 0.08055,
				"method": "rhf"
			},
			{
				"type": "unocc",
				"energy": 0.10051,
				"method": "rhf"
			}
		],
		"cosmo_sigma_profile": { 
			"-0.025": 0.0,
			"-0.024": 0.0,
			"-0.023": 0.0,
			"-0.022": 0.0,
			"-0.021": 0.0,
			"-0.02": 0.0,
			"-0.019": 0.0,
			"-0.018": 0.441743332285,
			"-0.017": 0.776667546231,
			"-0.016": 1.11585608071,
			"-0.015": 0.600537034398,
			"-0.014": 0.42072824663,
			"-0.013": 1.02302273677,
			"-0.012": 0.397343319081,
			"-0.011": 0.616564967205,
			"-0.01": 0.831640178236,
			"-0.009": 0.753508783263,
			"-0.008": 0.408952074614,
			"-0.007": 1.37551050332,
			"-0.006": 4.42711374265,
			"-0.005": 10.2776825412,
			"-0.004": 16.6827501122,
			"-0.003": 15.2518113444,
			"-0.002": 17.9477338341,
			"-0.001": 15.541705413,
			"0.0": 20.9460782373,
			"0.001": 15.9099869127,
			"0.002": 10.3819001693,
			"0.003": 11.6175584057,
			"0.004": 13.6751338453,
			"0.005": 11.0387587073,
			"0.006": 2.79624305536,
			"0.007": 1.82457128801,
			"0.008": 2.86598360846,
			"0.009": 1.86912389202,
			"0.01": 1.70278576274,
			"0.011": 3.21426531799,
			"0.012": 3.48559028859,
			"0.013": 0.250159175025,
			"0.014": 0.0,
			"0.015": 0.0,
			"0.016": 0.0,
			"0.017": 0.0,
			"0.018": 0.0,
			"0.019": 0.0,
			"0.02": 0.0,
			"0.021": 0.0,
			"0.022": 0.0,
			"0.023": 0.0,
			"0.024": 0.0,
			"0.025": 0.0
		}
	}
}
