{
	 "smiles": "ClCC1=CC=C(C=C1)N1C=CC=N1", 
	 "Tm": 331.15, 
	 "num_atms": 22, 
	 "gaussian": { 
		 "optdone": 1, 
		 "sigma_profile": "yes", 
		 "theory": "DFT", 
		 "functional": "B3LYP", 
		 "basiset": "6-31G**", 
		 "properties": { 
			 "R2extent": 4913.7027, 
			 "electric_dipole_moment_norm": 2.42939068287, 
			 "electric_quadrupole_moment_norm": 15.9647604899, 
			 "total_energy": -956.165132187, 
			 "HOMO_LUMO_gap": 0.18716, 
			 "cosmo_polarized_energy": -10.47, 
			 "cosmo_cavitation_energy": 28.1, 
			 "cosmo_dispersion_energy": -20.7, 
			 "cosmo_repulsion_energy": 1.62, 
			 "cosmo_total_nonelectrostatic_energy": 9.02, 
			 "SMD_solvation_energy": 4.25 
		},
		"coords": [
			{
				"x": -0.4844940688,
				"y": -2.3465005519,
				"z": 2.7009037656,
				"element": "Cl" 
			},
			{
				"x": -0.5816697044,
				"y": -3.0653833851,
				"z": 1.0080365159,
				"element": "C" 
			},
			{
				"x": 0.0817579783,
				"y": -2.2035938996,
				"z": -0.0203914334,
				"element": "C" 
			},
			{
				"x": -0.6451434495,
				"y": -1.230602011,
				"z": -0.7197546633,
				"element": "C" 
			},
			{
				"x": -0.0372333693,
				"y": -0.4237291258,
				"z": -1.6750314375,
				"element": "C" 
			},
			{
				"x": 1.3260814073,
				"y": -0.5850630137,
				"z": -1.9502650773,
				"element": "C" 
			},
			{
				"x": 2.0648604369,
				"y": -1.5618299455,
				"z": -1.2715249822,
				"element": "C" 
			},
			{
				"x": 1.4431163705,
				"y": -2.3541583516,
				"z": -0.3110112293,
				"element": "C" 
			},
			{
				"x": 1.9430147653,
				"y": 0.2421855471,
				"z": -2.9208695912,
				"element": "N" 
			},
			{
				"x": 3.2768966866,
				"y": 0.5026311158,
				"z": -3.088937751,
				"element": "C" 
			},
			{
				"x": 3.3854926101,
				"y": 1.3716791302,
				"z": -4.1512329537,
				"element": "C" 
			},
			{
				"x": 2.0505477453,
				"y": 1.5887803118,
				"z": -4.5678250779,
				"element": "C" 
			},
			{
				"x": 1.1814474754,
				"y": 0.9113629238,
				"z": -3.8271011015,
				"element": "N" 
			},
			{
				"x": -0.1108498739,
				"y": -4.0452309855,
				"z": 1.0887861818,
				"element": "H" 
			},
			{
				"x": -1.646624254,
				"y": -3.190512141,
				"z": 0.8125859757,
				"element": "H" 
			},
			{
				"x": -1.7026389037,
				"y": -1.096503484,
				"z": -0.5083166924,
				"element": "H" 
			},
			{
				"x": -0.5960758013,
				"y": 0.3276762894,
				"z": -2.2182859201,
				"element": "H" 
			},
			{
				"x": 3.1117587526,
				"y": -1.7228340486,
				"z": -1.50347583,
				"element": "H" 
			},
			{
				"x": 2.024905657,
				"y": -3.1076317731,
				"z": 0.2129620734,
				"element": "H" 
			},
			{
				"x": 4.0268146371,
				"y": 0.082390054,
				"z": -2.437535238,
				"element": "H" 
			},
			{
				"x": 4.2915429689,
				"y": 1.7935575123,
				"z": -4.5593249926,
				"element": "H" 
			},
			{
				"x": 1.6899919335,
				"y": 2.208609832,
				"z": -5.377990541,
				"element": "H" 
			}
		],
		 "valence_orbital": [ 
			{
				"type": "occ",
				"energy": -0.29314,
				"method": "rhf"
			},
			{
				"type": "occ",
				"energy": -0.28949,
				"method": "rhf"
			},
			{
				"type": "occ",
				"energy": -0.26662,
				"method": "rhf"
			},
			{
				"type": "occ",
				"energy": -0.25477,
				"method": "rhf"
			},
			{
				"type": "occ",
				"energy": -0.22965,
				"method": "rhf"
			},
			{
				"type": "unocc",
				"energy": -0.04249,
				"method": "rhf"
			},
			{
				"type": "unocc",
				"energy": -0.01682,
				"method": "rhf"
			},
			{
				"type": "unocc",
				"energy": 0.01313,
				"method": "rhf"
			},
			{
				"type": "unocc",
				"energy": 0.05179,
				"method": "rhf"
			},
			{
				"type": "unocc",
				"energy": 0.06506,
				"method": "rhf"
			}
		],
		"cosmo_sigma_profile": { 
			"-0.025": 0.0,
			"-0.024": 0.0,
			"-0.023": 0.0,
			"-0.022": 0.0,
			"-0.021": 0.0,
			"-0.02": 0.0,
			"-0.019": 0.0,
			"-0.018": 0.0,
			"-0.017": 0.0,
			"-0.016": 0.0,
			"-0.015": 0.0,
			"-0.014": 0.0,
			"-0.013": 0.0,
			"-0.012": 0.0,
			"-0.011": 0.00293827642087,
			"-0.01": 1.34001296838,
			"-0.009": 2.64743222373,
			"-0.008": 5.17402933612,
			"-0.007": 15.4415393854,
			"-0.006": 14.0325905665,
			"-0.005": 15.7148166894,
			"-0.004": 14.7043521352,
			"-0.003": 11.652302406,
			"-0.002": 10.3882076585,
			"-0.001": 9.78741159191,
			"0.0": 13.7046618166,
			"0.001": 14.5859562987,
			"0.002": 15.9398070949,
			"0.003": 20.210961881,
			"0.004": 21.6187124235,
			"0.005": 11.9708654232,
			"0.006": 10.500819316,
			"0.007": 10.6099022945,
			"0.008": 1.66654277997,
			"0.009": 1.55550203753,
			"0.01": 1.5299058016,
			"0.011": 1.15055222775,
			"0.012": 0.957042828192,
			"0.013": 0.930459339913,
			"0.014": 0.155503381342,
			"0.015": 0.0,
			"0.016": 0.0,
			"0.017": 0.0,
			"0.018": 0.0,
			"0.019": 0.0,
			"0.02": 0.0,
			"0.021": 0.0,
			"0.022": 0.0,
			"0.023": 0.0,
			"0.024": 0.0,
			"0.025": 0.0
		}
	}
}
