{
	 "smiles": "CCC(=O)C1=CC=C(Cl)S1", 
	 "Tm": 321.15, 
	 "num_atms": 17, 
	 "gaussian": { 
		 "optdone": 1, 
		 "sigma_profile": "yes", 
		 "theory": "DFT", 
		 "functional": "B3LYP", 
		 "basiset": "6-31G**", 
		 "properties": { 
			 "R2extent": 2761.5375, 
			 "electric_dipole_moment_norm": 1.24129550873, 
			 "electric_quadrupole_moment_norm": 8.76633743533, 
			 "total_energy": -1204.55329465, 
			 "HOMO_LUMO_gap": 0.17471, 
			 "cosmo_polarized_energy": -6.67, 
			 "cosmo_cavitation_energy": 24.62, 
			 "cosmo_dispersion_energy": -18.66, 
			 "cosmo_repulsion_energy": 1.48, 
			 "cosmo_total_nonelectrostatic_energy": 7.44, 
			 "SMD_solvation_energy": 4.33 
		},
		"coords": [
			{
				"x": -0.4556074219,
				"y": -3.2561155278,
				"z": -1.4918121071,
				"element": "C" 
			},
			{
				"x": -0.5058027625,
				"y": -1.733345749,
				"z": -1.385994028,
				"element": "C" 
			},
			{
				"x": -0.0876322663,
				"y": -1.2142337318,
				"z": -0.0163401877,
				"element": "C" 
			},
			{
				"x": 0.2492425222,
				"y": -1.9660621807,
				"z": 0.8871244341,
				"element": "O" 
			},
			{
				"x": -0.0932019788,
				"y": 0.2496879586,
				"z": 0.2166654717,
				"element": "C" 
			},
			{
				"x": 0.2584383168,
				"y": 0.8642966904,
				"z": 1.3976320433,
				"element": "C" 
			},
			{
				"x": 0.1672063278,
				"y": 2.2791790236,
				"z": 1.3597000909,
				"element": "C" 
			},
			{
				"x": -0.2581417626,
				"y": 2.7279065863,
				"z": 0.1347766606,
				"element": "C" 
			},
			{
				"x": -0.5023022885,
				"y": 4.3749085412,
				"z": -0.3312140971,
				"element": "Cl" 
			},
			{
				"x": -0.5537555245,
				"y": 1.4374777577,
				"z": -0.9899916387,
				"element": "S" 
			},
			{
				"x": -0.7634642418,
				"y": -3.5813040907,
				"z": -2.4896292422,
				"element": "H" 
			},
			{
				"x": -1.116532165,
				"y": -3.7202651794,
				"z": -0.7555156759,
				"element": "H" 
			},
			{
				"x": 0.5545683837,
				"y": -3.6272186113,
				"z": -1.3014309929,
				"element": "H" 
			},
			{
				"x": 0.1430406202,
				"y": -1.2665506395,
				"z": -2.1406544222,
				"element": "H" 
			},
			{
				"x": -1.5171992309,
				"y": -1.3589373034,
				"z": -1.5988287831,
				"element": "H" 
			},
			{
				"x": 0.572089412,
				"y": 0.2867261439,
				"z": 2.2588749772,
				"element": "H" 
			},
			{
				"x": 0.4004540603,
				"y": 2.9389503119,
				"z": 2.1859374971,
				"element": "H" 
			}
		],
		 "valence_orbital": [ 
			{
				"type": "occ",
				"energy": -0.34275,
				"method": "rhf"
			},
			{
				"type": "occ",
				"energy": -0.33358,
				"method": "rhf"
			},
			{
				"type": "occ",
				"energy": -0.2756,
				"method": "rhf"
			},
			{
				"type": "occ",
				"energy": -0.25731,
				"method": "rhf"
			},
			{
				"type": "occ",
				"energy": -0.24462,
				"method": "rhf"
			},
			{
				"type": "unocc",
				"energy": -0.06991,
				"method": "rhf"
			},
			{
				"type": "unocc",
				"energy": -0.0001,
				"method": "rhf"
			},
			{
				"type": "unocc",
				"energy": 0.01184,
				"method": "rhf"
			},
			{
				"type": "unocc",
				"energy": 0.01733,
				"method": "rhf"
			},
			{
				"type": "unocc",
				"energy": 0.07066,
				"method": "rhf"
			}
		],
		"cosmo_sigma_profile": { 
			"-0.025": 0.0,
			"-0.024": 0.0,
			"-0.023": 0.0,
			"-0.022": 0.0,
			"-0.021": 0.0,
			"-0.02": 0.0,
			"-0.019": 0.0,
			"-0.018": 0.0,
			"-0.017": 0.0,
			"-0.016": 0.0,
			"-0.015": 0.0,
			"-0.014": 0.0,
			"-0.013": 0.0,
			"-0.012": 0.0,
			"-0.011": 0.0,
			"-0.01": 0.0,
			"-0.009": 0.488243869713,
			"-0.008": 2.65987121659,
			"-0.007": 2.91313546638,
			"-0.006": 8.87320091104,
			"-0.005": 9.88720503775,
			"-0.004": 11.5147693785,
			"-0.003": 15.6523410883,
			"-0.002": 21.2201276331,
			"-0.001": 19.230434379,
			"0.0": 22.1241834688,
			"0.001": 27.9895840674,
			"0.002": 21.7920827958,
			"0.003": 14.4477670656,
			"0.004": 3.23623166657,
			"0.005": 2.04113489994,
			"0.006": 1.3576426083,
			"0.007": 1.73368292329,
			"0.008": 1.94697717022,
			"0.009": 1.79416016269,
			"0.01": 1.980212531,
			"0.011": 2.89305986554,
			"0.012": 4.21234588484,
			"0.013": 0.699141972734,
			"0.014": 0.0,
			"0.015": 0.0,
			"0.016": 0.0,
			"0.017": 0.0,
			"0.018": 0.0,
			"0.019": 0.0,
			"0.02": 0.0,
			"0.021": 0.0,
			"0.022": 0.0,
			"0.023": 0.0,
			"0.024": 0.0,
			"0.025": 0.0
		}
	}
}
