{
	 "smiles": "CC(C(O)=O)=C(C)C1=CC=CC(C)=C1", 
	 "Tm": 436.15, 
	 "num_atms": 28, 
	 "gaussian": { 
		 "optdone": 1, 
		 "sigma_profile": "yes", 
		 "theory": "DFT", 
		 "functional": "B3LYP", 
		 "basiset": "6-31G**", 
		 "properties": { 
			 "R2extent": 3718.4029, 
			 "electric_dipole_moment_norm": 5.04298896092, 
			 "electric_quadrupole_moment_norm": 15.3150366973, 
			 "total_energy": -616.167435363, 
			 "HOMO_LUMO_gap": 0.21422, 
			 "cosmo_polarized_energy": -13.07, 
			 "cosmo_cavitation_energy": 31.37, 
			 "cosmo_dispersion_energy": -21.77, 
			 "cosmo_repulsion_energy": 1.75, 
			 "cosmo_total_nonelectrostatic_energy": 11.35, 
			 "SMD_solvation_energy": 6.69 
		},
		"coords": [
			{
				"x": -0.8155020838,
				"y": -1.1802177159,
				"z": 2.1351788831,
				"element": "C" 
			},
			{
				"x": -1.3896854293,
				"y": -0.9101656978,
				"z": 0.7636201285,
				"element": "C" 
			},
			{
				"x": -2.8941741026,
				"y": -0.8206028774,
				"z": 0.7881162219,
				"element": "C" 
			},
			{
				"x": -3.4648016598,
				"y": 0.2370456397,
				"z": 0.1429676973,
				"element": "O" 
			},
			{
				"x": -3.5919214854,
				"y": -1.607600012,
				"z": 1.3817463592,
				"element": "O" 
			},
			{
				"x": -0.6696859424,
				"y": -0.8416452946,
				"z": -0.3792730259,
				"element": "C" 
			},
			{
				"x": -1.2529916197,
				"y": -0.6658655595,
				"z": -1.76843527,
				"element": "C" 
			},
			{
				"x": 0.8194708213,
				"y": -1.0126263824,
				"z": -0.3826765154,
				"element": "C" 
			},
			{
				"x": 1.4034569514,
				"y": -2.2663593285,
				"z": -0.1553990937,
				"element": "C" 
			},
			{
				"x": 2.7899605989,
				"y": -2.4144626487,
				"z": -0.2145635423,
				"element": "C" 
			},
			{
				"x": 3.604002541,
				"y": -1.3194521209,
				"z": -0.4995837385,
				"element": "C" 
			},
			{
				"x": 3.0455793485,
				"y": -0.0546010409,
				"z": -0.7308663325,
				"element": "C" 
			},
			{
				"x": 3.9271845537,
				"y": 1.1408614781,
				"z": -1.0084255067,
				"element": "C" 
			},
			{
				"x": 1.6533663137,
				"y": 0.0766055691,
				"z": -0.6765661529,
				"element": "C" 
			},
			{
				"x": -1.0921164937,
				"y": -0.3823641854,
				"z": 2.8350310518,
				"element": "H" 
			},
			{
				"x": -1.2421885309,
				"y": -2.1058530937,
				"z": 2.5344153175,
				"element": "H" 
			},
			{
				"x": 0.2705556682,
				"y": -1.263732162,
				"z": 2.1164151434,
				"element": "H" 
			},
			{
				"x": -2.763391017,
				"y": 0.8192538373,
				"z": -0.1819978373,
				"element": "H" 
			},
			{
				"x": -0.9312844243,
				"y": -1.4995502784,
				"z": -2.4030300463,
				"element": "H" 
			},
			{
				"x": -0.8613472028,
				"y": 0.2425918574,
				"z": -2.2438501184,
				"element": "H" 
			},
			{
				"x": -2.342864487,
				"y": -0.6283282732,
				"z": -1.7871459216,
				"element": "H" 
			},
			{
				"x": 0.7697127256,
				"y": -3.1216259528,
				"z": 0.0601506863,
				"element": "H" 
			},
			{
				"x": 3.2356924846,
				"y": -3.3900809423,
				"z": -0.0418772542,
				"element": "H" 
			},
			{
				"x": 4.6829703085,
				"y": -1.4451879683,
				"z": -0.5458559178,
				"element": "H" 
			},
			{
				"x": 4.3460713523,
				"y": 1.5483167635,
				"z": -0.0798954239,
				"element": "H" 
			},
			{
				"x": 3.3702655415,
				"y": 1.9458324458,
				"z": -1.4965478564,
				"element": "H" 
			},
			{
				"x": 4.771035054,
				"y": 0.8740429798,
				"z": -1.6526025335,
				"element": "H" 
			},
			{
				"x": 1.2080302156,
				"y": 1.0526709639,
				"z": -0.8574494018,
				"element": "H" 
			}
		],
		 "valence_orbital": [ 
			{
				"type": "occ",
				"energy": -0.31103,
				"method": "rhf"
			},
			{
				"type": "occ",
				"energy": -0.26991,
				"method": "rhf"
			},
			{
				"type": "occ",
				"energy": -0.26373,
				"method": "rhf"
			},
			{
				"type": "occ",
				"energy": -0.24981,
				"method": "rhf"
			},
			{
				"type": "occ",
				"energy": -0.2421,
				"method": "rhf"
			},
			{
				"type": "unocc",
				"energy": -0.02788,
				"method": "rhf"
			},
			{
				"type": "unocc",
				"energy": -0.00733,
				"method": "rhf"
			},
			{
				"type": "unocc",
				"energy": -0.00659,
				"method": "rhf"
			},
			{
				"type": "unocc",
				"energy": 0.04641,
				"method": "rhf"
			},
			{
				"type": "unocc",
				"energy": 0.06653,
				"method": "rhf"
			}
		],
		"cosmo_sigma_profile": { 
			"-0.025": 0.0,
			"-0.024": 0.0,
			"-0.023": 0.0,
			"-0.022": 0.0,
			"-0.021": 0.0,
			"-0.02": 0.0,
			"-0.019": 0.0,
			"-0.018": 0.133695205176,
			"-0.017": 0.525249390077,
			"-0.016": 1.02770444572,
			"-0.015": 0.469401238892,
			"-0.014": 1.01708442501,
			"-0.013": 1.21441194967,
			"-0.012": 0.512868132593,
			"-0.011": 0.962255774533,
			"-0.01": 0.993438238055,
			"-0.009": 0.725034923397,
			"-0.008": 0.945500979877,
			"-0.007": 1.34805771512,
			"-0.006": 3.29073408148,
			"-0.005": 14.9490106653,
			"-0.004": 24.4845352656,
			"-0.003": 25.003035702,
			"-0.002": 25.5803360562,
			"-0.001": 28.6872262604,
			"0.0": 27.8476107833,
			"0.001": 14.866355514,
			"0.002": 11.7241661613,
			"0.003": 8.82821522987,
			"0.004": 10.2236341772,
			"0.005": 9.24550915619,
			"0.006": 7.3573365905,
			"0.007": 2.2579532804,
			"0.008": 2.6430700592,
			"0.009": 3.64560731337,
			"0.01": 4.56932099133,
			"0.011": 5.31888003231,
			"0.012": 5.38100031638,
			"0.013": 1.86725131366,
			"0.014": 0.0733633146233,
			"0.015": 0.0,
			"0.016": 0.0,
			"0.017": 0.0,
			"0.018": 0.0,
			"0.019": 0.0,
			"0.02": 0.0,
			"0.021": 0.0,
			"0.022": 0.0,
			"0.023": 0.0,
			"0.024": 0.0,
			"0.025": 0.0
		}
	}
}
