{
	 "smiles": "COC(=O)C1=C(Cl)C(Cl)=CC=C1", 
	 "Tm": 308.65, 
	 "num_atms": 18, 
	 "gaussian": { 
		 "optdone": 1, 
		 "sigma_profile": "yes", 
		 "theory": "DFT", 
		 "functional": "B3LYP", 
		 "basiset": "6-31G**", 
		 "properties": { 
			 "R2extent": 3319.9312, 
			 "electric_dipole_moment_norm": 1.37049804816, 
			 "electric_quadrupole_moment_norm": 15.2683596162, 
			 "total_energy": -1379.29661799, 
			 "HOMO_LUMO_gap": 0.19743, 
			 "cosmo_polarized_energy": -7.66, 
			 "cosmo_cavitation_energy": 26.13, 
			 "cosmo_dispersion_energy": -19.37, 
			 "cosmo_repulsion_energy": 1.54, 
			 "cosmo_total_nonelectrostatic_energy": 8.31, 
			 "SMD_solvation_energy": 5.64 
		},
		"coords": [
			{
				"x": -0.7587448535,
				"y": -0.0514977215,
				"z": 3.4156282867,
				"element": "C" 
			},
			{
				"x": -0.6395545117,
				"y": 0.3706420191,
				"z": 2.0453807341,
				"element": "O" 
			},
			{
				"x": 0.4639116142,
				"y": -0.0502537662,
				"z": 1.4105426205,
				"element": "C" 
			},
			{
				"x": 1.2979540623,
				"y": -0.7714048575,
				"z": 1.9226028919,
				"element": "O" 
			},
			{
				"x": 0.5488080896,
				"y": 0.3865820655,
				"z": -0.0262182862,
				"element": "C" 
			},
			{
				"x": 0.0042641036,
				"y": 1.5633508582,
				"z": -0.5819423304,
				"element": "C" 
			},
			{
				"x": -0.8070315171,
				"y": 2.761542432,
				"z": 0.3906220937,
				"element": "Cl" 
			},
			{
				"x": 0.1662403784,
				"y": 1.8071964082,
				"z": -1.9574712519,
				"element": "C" 
			},
			{
				"x": -0.4765580152,
				"y": 3.2502318949,
				"z": -2.7067401268,
				"element": "Cl" 
			},
			{
				"x": 0.854582936,
				"y": 0.9047339495,
				"z": -2.7689725509,
				"element": "C" 
			},
			{
				"x": 1.4066686585,
				"y": -0.2461553087,
				"z": -2.2144176824,
				"element": "C" 
			},
			{
				"x": 1.2599394666,
				"y": -0.4932907262,
				"z": -0.855199968,
				"element": "C" 
			},
			{
				"x": 0.087440549,
				"y": 0.3120096919,
				"z": 4.0032323397,
				"element": "H" 
			},
			{
				"x": -0.7915853993,
				"y": -1.1418096529,
				"z": 3.4780168644,
				"element": "H" 
			},
			{
				"x": -1.6914228635,
				"y": 0.3839744542,
				"z": 3.7724951088,
				"element": "H" 
			},
			{
				"x": 0.9568479529,
				"y": 1.1218747968,
				"z": -3.8263092987,
				"element": "H" 
			},
			{
				"x": 1.9507459486,
				"y": -0.9434584731,
				"z": -2.8430027534,
				"element": "H" 
			},
			{
				"x": 1.6920934005,
				"y": -1.374368064,
				"z": -0.3952466911,
				"element": "H" 
			}
		],
		 "valence_orbital": [ 
			{
				"type": "occ",
				"energy": -0.31423,
				"method": "rhf"
			},
			{
				"type": "occ",
				"energy": -0.30102,
				"method": "rhf"
			},
			{
				"type": "occ",
				"energy": -0.28681,
				"method": "rhf"
			},
			{
				"type": "occ",
				"energy": -0.2681,
				"method": "rhf"
			},
			{
				"type": "occ",
				"energy": -0.25581,
				"method": "rhf"
			},
			{
				"type": "unocc",
				"energy": -0.05838,
				"method": "rhf"
			},
			{
				"type": "unocc",
				"energy": -0.02954,
				"method": "rhf"
			},
			{
				"type": "unocc",
				"energy": -0.00107,
				"method": "rhf"
			},
			{
				"type": "unocc",
				"energy": 0.0329,
				"method": "rhf"
			},
			{
				"type": "unocc",
				"energy": 0.05951,
				"method": "rhf"
			}
		],
		"cosmo_sigma_profile": { 
			"-0.025": 0.0,
			"-0.024": 0.0,
			"-0.023": 0.0,
			"-0.022": 0.0,
			"-0.021": 0.0,
			"-0.02": 0.0,
			"-0.019": 0.0,
			"-0.018": 0.0,
			"-0.017": 0.0,
			"-0.016": 0.0,
			"-0.015": 0.0,
			"-0.014": 0.0,
			"-0.013": 0.0,
			"-0.012": 0.0,
			"-0.011": 0.0,
			"-0.01": 0.0,
			"-0.009": 0.443825226577,
			"-0.008": 3.05162970756,
			"-0.007": 7.26148530203,
			"-0.006": 11.7312675545,
			"-0.005": 12.0770296337,
			"-0.004": 14.955123632,
			"-0.003": 16.5267986627,
			"-0.002": 13.2604015571,
			"-0.001": 17.0429859974,
			"0.0": 23.4419102592,
			"0.001": 19.2723284647,
			"0.002": 17.9403343053,
			"0.003": 15.0743312722,
			"0.004": 15.8463088028,
			"0.005": 8.07757098966,
			"0.006": 3.25682151011,
			"0.007": 2.71959445853,
			"0.008": 2.16644940717,
			"0.009": 1.98231612064,
			"0.01": 1.91980788271,
			"0.011": 4.06385718336,
			"0.012": 1.95060708699,
			"0.013": 0.0,
			"0.014": 0.0,
			"0.015": 0.0,
			"0.016": 0.0,
			"0.017": 0.0,
			"0.018": 0.0,
			"0.019": 0.0,
			"0.02": 0.0,
			"0.021": 0.0,
			"0.022": 0.0,
			"0.023": 0.0,
			"0.024": 0.0,
			"0.025": 0.0
		}
	}
}
