{
	 "smiles": "CC1CN=C(NC2=CC(=CC=C2)S(=O)(=O)N(C)C)S1", 
	 "Tm": 385.15, 
	 "num_atms": 36, 
	 "gaussian": { 
		 "optdone": 1, 
		 "sigma_profile": "yes", 
		 "theory": "DFT", 
		 "functional": "B3LYP", 
		 "basiset": "6-31G**", 
		 "properties": { 
			 "R2extent": 8671.9544, 
			 "electric_dipole_moment_norm": 6.21594190288, 
			 "electric_quadrupole_moment_norm": 29.6216526472, 
			 "total_energy": -1578.5320407, 
			 "HOMO_LUMO_gap": 0.19029, 
			 "cosmo_polarized_energy": -20.33, 
			 "cosmo_cavitation_energy": 41.04, 
			 "cosmo_dispersion_energy": -29.42, 
			 "cosmo_repulsion_energy": 2.19, 
			 "cosmo_total_nonelectrostatic_energy": 13.81, 
			 "SMD_solvation_energy": 2.65 
		},
		"coords": [
			{
				"x": 1.1696849193,
				"y": 4.2694255469,
				"z": -2.4497979481,
				"element": "C" 
			},
			{
				"x": 0.7400829025,
				"y": 3.9117087837,
				"z": -1.026874129,
				"element": "C" 
			},
			{
				"x": -0.1688542649,
				"y": 2.6520628643,
				"z": -0.9549143272,
				"element": "C" 
			},
			{
				"x": 0.6357075145,
				"y": 1.4487634414,
				"z": -0.8001836011,
				"element": "N" 
			},
			{
				"x": 1.7751777592,
				"y": 1.7056427998,
				"z": -0.2867603833,
				"element": "C" 
			},
			{
				"x": 2.7394056814,
				"y": 0.7939112526,
				"z": 0.06884457,
				"element": "N" 
			},
			{
				"x": 2.681436836,
				"y": -0.608419131,
				"z": 0.042273916,
				"element": "C" 
			},
			{
				"x": 1.5887010325,
				"y": -1.3229655614,
				"z": -0.4718861955,
				"element": "C" 
			},
			{
				"x": 1.6330157065,
				"y": -2.7185577185,
				"z": -0.4494231932,
				"element": "C" 
			},
			{
				"x": 2.7252429278,
				"y": -3.427786949,
				"z": 0.0520202178,
				"element": "C" 
			},
			{
				"x": 3.8089751749,
				"y": -2.7020731445,
				"z": 0.5500272014,
				"element": "C" 
			},
			{
				"x": 3.7880645298,
				"y": -1.31153429,
				"z": 0.5521359373,
				"element": "C" 
			},
			{
				"x": 0.2019205914,
				"y": -3.6349222148,
				"z": -1.0512590097,
				"element": "S" 
			},
			{
				"x": 0.6477068659,
				"y": -5.0031065116,
				"z": -1.3258362316,
				"element": "O" 
			},
			{
				"x": -0.4610692466,
				"y": -2.8156563194,
				"z": -2.0666323726,
				"element": "O" 
			},
			{
				"x": -0.8764600482,
				"y": -3.7428258203,
				"z": 0.2479523258,
				"element": "N" 
			},
			{
				"x": -0.4648596523,
				"y": -4.6039040465,
				"z": 1.3581064415,
				"element": "C" 
			},
			{
				"x": -1.5427374971,
				"y": -2.4996727422,
				"z": 0.6424315437,
				"element": "C" 
			},
			{
				"x": 2.1828915758,
				"y": 3.4430765179,
				"z": 0.0336294235,
				"element": "S" 
			},
			{
				"x": 1.6402703201,
				"y": 3.4121699299,
				"z": -2.9401860099,
				"element": "H" 
			},
			{
				"x": 1.8785405017,
				"y": 5.1016391433,
				"z": -2.4570727806,
				"element": "H" 
			},
			{
				"x": 0.2929182296,
				"y": 4.5625559436,
				"z": -3.0395849987,
				"element": "H" 
			},
			{
				"x": 0.2535474603,
				"y": 4.7642220918,
				"z": -0.5459112727,
				"element": "H" 
			},
			{
				"x": -0.8607711965,
				"y": 2.7317318036,
				"z": -0.104440265,
				"element": "H" 
			},
			{
				"x": -0.7771371841,
				"y": 2.5789728312,
				"z": -1.8635061873,
				"element": "H" 
			},
			{
				"x": 3.6201704086,
				"y": 1.1857691998,
				"z": 0.3662452604,
				"element": "H" 
			},
			{
				"x": 0.7498633856,
				"y": -0.7920081091,
				"z": -0.9005479364,
				"element": "H" 
			},
			{
				"x": 2.731465278,
				"y": -4.5107458,
				"z": 0.0213621557,
				"element": "H" 
			},
			{
				"x": 4.678913682,
				"y": -3.2238617914,
				"z": 0.9371731222,
				"element": "H" 
			},
			{
				"x": 4.6377567396,
				"y": -0.7595917188,
				"z": 0.9475075939,
				"element": "H" 
			},
			{
				"x": 0.2729514756,
				"y": -4.1240756091,
				"z": 2.0199315833,
				"element": "H" 
			},
			{
				"x": -1.3546534066,
				"y": -4.843928055,
				"z": 1.947698055,
				"element": "H" 
			},
			{
				"x": -0.0513718244,
				"y": -5.5309279417,
				"z": 0.9619375296,
				"element": "H" 
			},
			{
				"x": -0.9004135395,
				"y": -1.8463677413,
				"z": 1.2526526006,
				"element": "H" 
			},
			{
				"x": -1.8627204115,
				"y": -1.9624948218,
				"z": -0.2498375761,
				"element": "H" 
			},
			{
				"x": -2.4286632272,
				"y": -2.7627261126,
				"z": 1.2282249402,
				"element": "H" 
			}
		],
		 "valence_orbital": [ 
			{
				"type": "occ",
				"energy": -0.2729,
				"method": "rhf"
			},
			{
				"type": "occ",
				"energy": -0.26789,
				"method": "rhf"
			},
			{
				"type": "occ",
				"energy": -0.24864,
				"method": "rhf"
			},
			{
				"type": "occ",
				"energy": -0.24086,
				"method": "rhf"
			},
			{
				"type": "occ",
				"energy": -0.22452,
				"method": "rhf"
			},
			{
				"type": "unocc",
				"energy": -0.03423,
				"method": "rhf"
			},
			{
				"type": "unocc",
				"energy": -0.02058,
				"method": "rhf"
			},
			{
				"type": "unocc",
				"energy": -0.00804,
				"method": "rhf"
			},
			{
				"type": "unocc",
				"energy": 0.03469,
				"method": "rhf"
			},
			{
				"type": "unocc",
				"energy": 0.0661,
				"method": "rhf"
			}
		],
		"cosmo_sigma_profile": { 
			"-0.025": 0.0,
			"-0.024": 0.0,
			"-0.023": 0.0,
			"-0.022": 0.0,
			"-0.021": 0.0,
			"-0.02": 0.0,
			"-0.019": 0.0,
			"-0.018": 0.0,
			"-0.017": 0.0,
			"-0.016": 0.682412930699,
			"-0.015": 1.27019058216,
			"-0.014": 1.31737283204,
			"-0.013": 1.12077622478,
			"-0.012": 0.99357516805,
			"-0.011": 1.72058245459,
			"-0.01": 1.22290107901,
			"-0.009": 1.38641582573,
			"-0.008": 1.98046722862,
			"-0.007": 4.80730737897,
			"-0.006": 14.0308063068,
			"-0.005": 19.8859562667,
			"-0.004": 32.9136653907,
			"-0.003": 32.5473744687,
			"-0.002": 34.1694924975,
			"-0.001": 22.34156412,
			"0.0": 19.1112505043,
			"0.001": 19.6967314606,
			"0.002": 22.8889320709,
			"0.003": 19.7911024932,
			"0.004": 12.615042038,
			"0.005": 9.07740519276,
			"0.006": 7.90293328383,
			"0.007": 9.31291640524,
			"0.008": 8.52228086769,
			"0.009": 5.71812342144,
			"0.01": 6.84419430355,
			"0.011": 8.33312798002,
			"0.012": 4.54445294963,
			"0.013": 0.00852037275651,
			"0.014": 0.0,
			"0.015": 0.0,
			"0.016": 0.0,
			"0.017": 0.0,
			"0.018": 0.0,
			"0.019": 0.0,
			"0.02": 0.0,
			"0.021": 0.0,
			"0.022": 0.0,
			"0.023": 0.0,
			"0.024": 0.0,
			"0.025": 0.0
		}
	}
}
