{
	 "smiles": "CN1CCC(CC1)NC1=CC=CC=C1", 
	 "Tm": 355.15, 
	 "num_atms": 32, 
	 "gaussian": { 
		 "optdone": 1, 
		 "sigma_profile": "yes", 
		 "theory": "DFT", 
		 "functional": "B3LYP", 
		 "basiset": "6-31G**", 
		 "properties": { 
			 "R2extent": 3939.9083, 
			 "electric_dipole_moment_norm": 1.71340627406, 
			 "electric_quadrupole_moment_norm": 5.2783724215, 
			 "total_energy": -577.62254068, 
			 "HOMO_LUMO_gap": 0.19788, 
			 "cosmo_polarized_energy": -8.13, 
			 "cosmo_cavitation_energy": 31.9, 
			 "cosmo_dispersion_energy": -23.3, 
			 "cosmo_repulsion_energy": 1.81, 
			 "cosmo_total_nonelectrostatic_energy": 10.41, 
			 "SMD_solvation_energy": 1.46 
		},
		"coords": [
			{
				"x": -2.8452696421,
				"y": 0.3231501112,
				"z": -3.6790289142,
				"element": "C" 
			},
			{
				"x": -2.7628323521,
				"y": 0.9508301718,
				"z": -2.3658751208,
				"element": "N" 
			},
			{
				"x": -1.4765050779,
				"y": 1.6028292324,
				"z": -2.0963265354,
				"element": "C" 
			},
			{
				"x": -0.3257066086,
				"y": 0.6294044992,
				"z": -1.7795751361,
				"element": "C" 
			},
			{
				"x": -0.693809129,
				"y": -0.3134102334,
				"z": -0.6062218508,
				"element": "C" 
			},
			{
				"x": -2.0616527744,
				"y": -0.9705928912,
				"z": -0.8812189798,
				"element": "C" 
			},
			{
				"x": -3.1391200769,
				"y": 0.0674445299,
				"z": -1.2600396281,
				"element": "C" 
			},
			{
				"x": -0.7252368793,
				"y": 0.3521933096,
				"z": 0.694959657,
				"element": "N" 
			},
			{
				"x": 0.3990542436,
				"y": 0.869780967,
				"z": 1.3303434835,
				"element": "C" 
			},
			{
				"x": 1.7117026837,
				"y": 0.4900345681,
				"z": 0.9871263342,
				"element": "C" 
			},
			{
				"x": 2.801539276,
				"y": 0.9965119897,
				"z": 1.6961704007,
				"element": "C" 
			},
			{
				"x": 2.6250798672,
				"y": 1.8900340169,
				"z": 2.7521807591,
				"element": "C" 
			},
			{
				"x": 1.3250541909,
				"y": 2.2742534953,
				"z": 3.0945416437,
				"element": "C" 
			},
			{
				"x": 0.2297900539,
				"y": 1.7769187001,
				"z": 2.397651791,
				"element": "C" 
			},
			{
				"x": -3.8630968906,
				"y": -0.0494117228,
				"z": -3.8373248479,
				"element": "H" 
			},
			{
				"x": -2.642880541,
				"y": 1.0747910635,
				"z": -4.4494685552,
				"element": "H" 
			},
			{
				"x": -2.1524177294,
				"y": -0.5206254014,
				"z": -3.8492386545,
				"element": "H" 
			},
			{
				"x": -1.6179774943,
				"y": 2.2800890501,
				"z": -1.2423771951,
				"element": "H" 
			},
			{
				"x": -1.218819669,
				"y": 2.233672948,
				"z": -2.9541303734,
				"element": "H" 
			},
			{
				"x": -0.0962884339,
				"y": 0.0202067544,
				"z": -2.6634915596,
				"element": "H" 
			},
			{
				"x": 0.5831894497,
				"y": 1.1906131533,
				"z": -1.536712753,
				"element": "H" 
			},
			{
				"x": 0.0564821105,
				"y": -1.110105992,
				"z": -0.5398962992,
				"element": "H" 
			},
			{
				"x": -1.9415109838,
				"y": -1.6832295456,
				"z": -1.705378148,
				"element": "H" 
			},
			{
				"x": -2.3775203102,
				"y": -1.5453389073,
				"z": -0.0030519089,
				"element": "H" 
			},
			{
				"x": -3.3707745611,
				"y": 0.7019312745,
				"z": -0.3910901251,
				"element": "H" 
			},
			{
				"x": -4.0746561749,
				"y": -0.4409674051,
				"z": -1.5188266922,
				"element": "H" 
			},
			{
				"x": -1.577729296,
				"y": 0.8538146579,
				"z": 0.8984387969,
				"element": "H" 
			},
			{
				"x": 1.8855888078,
				"y": -0.203077413,
				"z": 0.1715630904,
				"element": "H" 
			},
			{
				"x": 3.8031007158,
				"y": 0.6854970232,
				"z": 1.4104409351,
				"element": "H" 
			},
			{
				"x": 3.4792151026,
				"y": 2.2813988395,
				"z": 3.2956061535,
				"element": "H" 
			},
			{
				"x": 1.1603860664,
				"y": 2.9710153722,
				"z": 3.9122713537,
				"element": "H" 
			},
			{
				"x": -0.7761779434,
				"y": 2.0823437843,
				"z": 2.6783788787,
				"element": "H" 
			}
		],
		 "valence_orbital": [ 
			{
				"type": "occ",
				"energy": -0.3235,
				"method": "rhf"
			},
			{
				"type": "occ",
				"energy": -0.2836,
				"method": "rhf"
			},
			{
				"type": "occ",
				"energy": -0.23876,
				"method": "rhf"
			},
			{
				"type": "occ",
				"energy": -0.2031,
				"method": "rhf"
			},
			{
				"type": "occ",
				"energy": -0.18776,
				"method": "rhf"
			},
			{
				"type": "unocc",
				"energy": 0.01012,
				"method": "rhf"
			},
			{
				"type": "unocc",
				"energy": 0.0259,
				"method": "rhf"
			},
			{
				"type": "unocc",
				"energy": 0.06606,
				"method": "rhf"
			},
			{
				"type": "unocc",
				"energy": 0.07928,
				"method": "rhf"
			},
			{
				"type": "unocc",
				"energy": 0.10092,
				"method": "rhf"
			}
		],
		"cosmo_sigma_profile": { 
			"-0.025": 0.0,
			"-0.024": 0.0,
			"-0.023": 0.0,
			"-0.022": 0.0,
			"-0.021": 0.0,
			"-0.02": 0.0,
			"-0.019": 0.0,
			"-0.018": 0.0,
			"-0.017": 0.0,
			"-0.016": 0.0,
			"-0.015": 0.0,
			"-0.014": 0.0,
			"-0.013": 0.0,
			"-0.012": 0.0,
			"-0.011": 0.791833936584,
			"-0.01": 1.44089035503,
			"-0.009": 1.75389519574,
			"-0.008": 1.80255650462,
			"-0.007": 2.2298225662,
			"-0.006": 2.66917132376,
			"-0.005": 9.0350879727,
			"-0.004": 14.7408735282,
			"-0.003": 34.0157209985,
			"-0.002": 36.2764330159,
			"-0.001": 33.1558469214,
			"0.0": 28.279879019,
			"0.001": 15.0853296897,
			"0.002": 9.39799022233,
			"0.003": 8.22513111994,
			"0.004": 8.89472245447,
			"0.005": 8.13250936093,
			"0.006": 10.0131698352,
			"0.007": 9.92027996136,
			"0.008": 6.46195518577,
			"0.009": 1.42565658998,
			"0.01": 1.28682491732,
			"0.011": 0.861457159335,
			"0.012": 0.812523679354,
			"0.013": 0.0555990417181,
			"0.014": 0.435501943899,
			"0.015": 1.09254258874,
			"0.016": 0.284758453597,
			"0.017": 0.308834169765,
			"0.018": 0.0,
			"0.019": 0.0,
			"0.02": 0.0,
			"0.021": 0.0,
			"0.022": 0.0,
			"0.023": 0.0,
			"0.024": 0.0,
			"0.025": 0.0
		}
	}
}
