{
	 "smiles": "N#CC1=C(C=C2C=CC=CC2=C1)C#N", 
	 "Tm": 528.15, 
	 "num_atms": 20, 
	 "gaussian": { 
		 "optdone": 1, 
		 "sigma_profile": "yes", 
		 "theory": "DFT", 
		 "functional": "B3LYP", 
		 "basiset": "6-31G**", 
		 "properties": { 
			 "R2extent": 3010.5495, 
			 "electric_dipole_moment_norm": 8.41904554032, 
			 "electric_quadrupole_moment_norm": 20.8483953272, 
			 "total_energy": -570.369113773, 
			 "HOMO_LUMO_gap": 0.1668, 
			 "cosmo_polarized_energy": -15.36, 
			 "cosmo_cavitation_energy": 26.96, 
			 "cosmo_dispersion_energy": -18.59, 
			 "cosmo_repulsion_energy": 1.43, 
			 "cosmo_total_nonelectrostatic_energy": 9.8, 
			 "SMD_solvation_energy": 6.95 
		},
		"coords": [
			{
				"x": 0.776180663,
				"y": -3.4593394296,
				"z": -2.3384153765,
				"element": "N" 
			},
			{
				"x": 0.5082714319,
				"y": -2.6691439445,
				"z": -1.5282798783,
				"element": "C" 
			},
			{
				"x": 0.1883820672,
				"y": -1.6725083724,
				"z": -0.5505123985,
				"element": "C" 
			},
			{
				"x": -0.3475295911,
				"y": -2.0469913875,
				"z": 0.7295957235,
				"element": "C" 
			},
			{
				"x": -0.6492009458,
				"y": -1.0680763436,
				"z": 1.6584364983,
				"element": "C" 
			},
			{
				"x": -0.4410561753,
				"y": 0.305113967,
				"z": 1.3761603179,
				"element": "C" 
			},
			{
				"x": -0.7462724749,
				"y": 1.3209757687,
				"z": 2.3203031124,
				"element": "C" 
			},
			{
				"x": -0.531893266,
				"y": 2.6461643868,
				"z": 2.0138657046,
				"element": "C" 
			},
			{
				"x": -0.0035963404,
				"y": 3.0153338239,
				"z": 0.7519242531,
				"element": "C" 
			},
			{
				"x": 0.3025596868,
				"y": 2.0538776391,
				"z": -0.1850163021,
				"element": "C" 
			},
			{
				"x": 0.0932860259,
				"y": 0.6785098104,
				"z": 0.0997757967,
				"element": "C" 
			},
			{
				"x": 0.39723441,
				"y": -0.3368613671,
				"z": -0.8411260944,
				"element": "C" 
			},
			{
				"x": -0.5723107569,
				"y": -3.424192032,
				"z": 1.0527843911,
				"element": "C" 
			},
			{
				"x": -0.7637405568,
				"y": -4.5350767951,
				"z": 1.3387943039,
				"element": "N" 
			},
			{
				"x": -1.0535966558,
				"y": -1.3578453952,
				"z": 2.6230666797,
				"element": "H" 
			},
			{
				"x": -1.1511748922,
				"y": 1.0353239514,
				"z": 3.2870117697,
				"element": "H" 
			},
			{
				"x": -0.7678857315,
				"y": 3.416782519,
				"z": 2.7413048154,
				"element": "H" 
			},
			{
				"x": 0.159378983,
				"y": 4.0647447319,
				"z": 0.5263392968,
				"element": "H" 
			},
			{
				"x": 0.7076943497,
				"y": 2.3342357549,
				"z": -1.1531764843,
				"element": "H" 
			},
			{
				"x": 0.8021697691,
				"y": -0.0611272861,
				"z": -1.8096361288,
				"element": "H" 
			}
		],
		 "valence_orbital": [ 
			{
				"type": "occ",
				"energy": -0.33894,
				"method": "rhf"
			},
			{
				"type": "occ",
				"energy": -0.33298,
				"method": "rhf"
			},
			{
				"type": "occ",
				"energy": -0.31814,
				"method": "rhf"
			},
			{
				"type": "occ",
				"energy": -0.27487,
				"method": "rhf"
			},
			{
				"type": "occ",
				"energy": -0.25317,
				"method": "rhf"
			},
			{
				"type": "unocc",
				"energy": -0.08637,
				"method": "rhf"
			},
			{
				"type": "unocc",
				"energy": -0.07663,
				"method": "rhf"
			},
			{
				"type": "unocc",
				"energy": -0.00999,
				"method": "rhf"
			},
			{
				"type": "unocc",
				"energy": 0.01642,
				"method": "rhf"
			},
			{
				"type": "unocc",
				"energy": 0.01932,
				"method": "rhf"
			}
		],
		"cosmo_sigma_profile": { 
			"-0.025": 0.0,
			"-0.024": 0.0,
			"-0.023": 0.0,
			"-0.022": 0.0,
			"-0.021": 0.0,
			"-0.02": 0.0,
			"-0.019": 0.0,
			"-0.018": 0.0,
			"-0.017": 0.0,
			"-0.016": 0.0,
			"-0.015": 0.0,
			"-0.014": 0.0,
			"-0.013": 0.0,
			"-0.012": 0.0,
			"-0.011": 0.0,
			"-0.01": 0.349064153175,
			"-0.009": 6.18837233577,
			"-0.008": 7.07725957882,
			"-0.007": 12.1748064408,
			"-0.006": 11.9089916383,
			"-0.005": 13.4536966987,
			"-0.004": 11.1608656467,
			"-0.003": 14.0039118418,
			"-0.002": 17.1616984204,
			"-0.001": 19.7703401538,
			"0.0": 18.1002160881,
			"0.001": 14.080014687,
			"0.002": 14.0417147551,
			"0.003": 11.4543267693,
			"0.004": 3.89229925894,
			"0.005": 5.61175988458,
			"0.006": 4.73969332069,
			"0.007": 6.33047446047,
			"0.008": 6.47775385803,
			"0.009": 6.48333954152,
			"0.01": 5.61103665818,
			"0.011": 5.00357436269,
			"0.012": 4.37546066897,
			"0.013": 0.759329785207,
			"0.014": 0.0,
			"0.015": 0.0,
			"0.016": 0.0,
			"0.017": 0.0,
			"0.018": 0.0,
			"0.019": 0.0,
			"0.02": 0.0,
			"0.021": 0.0,
			"0.022": 0.0,
			"0.023": 0.0,
			"0.024": 0.0,
			"0.025": 0.0
		}
	}
}
