{
	 "smiles": "CN(C)S(=O)(=O)C1=CC=C(C=CC(O)=O)C=C1", 
	 "Tm": 542.15, 
	 "num_atms": 30, 
	 "gaussian": { 
		 "optdone": 1, 
		 "sigma_profile": "yes", 
		 "theory": "DFT", 
		 "functional": "B3LYP", 
		 "basiset": "6-31G**", 
		 "properties": { 
			 "R2extent": 6630.6542, 
			 "electric_dipole_moment_norm": 4.57031406908, 
			 "electric_quadrupole_moment_norm": 24.0112092451, 
			 "total_energy": -1180.76099853, 
			 "HOMO_LUMO_gap": 0.15978, 
			 "cosmo_polarized_energy": -17.6, 
			 "cosmo_cavitation_energy": 35.6, 
			 "cosmo_dispersion_energy": -25.72, 
			 "cosmo_repulsion_energy": 1.94, 
			 "cosmo_total_nonelectrostatic_energy": 11.82, 
			 "SMD_solvation_energy": 6.32 
		},
		"coords": [
			{
				"x": -3.2040480407,
				"y": 0.2393062658,
				"z": 1.0765069816,
				"element": "C" 
			},
			{
				"x": -2.9208322184,
				"y": -0.8315410405,
				"z": 0.1138770998,
				"element": "N" 
			},
			{
				"x": -4.1076446846,
				"y": -1.3074625279,
				"z": -0.6123062735,
				"element": "C" 
			},
			{
				"x": -1.9363865239,
				"y": -2.0725135731,
				"z": 0.7389431339,
				"element": "S" 
			},
			{
				"x": -1.9354116528,
				"y": -3.1391719218,
				"z": -0.2669666911,
				"element": "O" 
			},
			{
				"x": -2.2742267632,
				"y": -2.3707110477,
				"z": 2.1390206964,
				"element": "O" 
			},
			{
				"x": -0.3290194619,
				"y": -1.2690827215,
				"z": 0.7355848706,
				"element": "C" 
			},
			{
				"x": 0.2557558042,
				"y": -0.896681989,
				"z": -0.4780512769,
				"element": "C" 
			},
			{
				"x": 1.5186039792,
				"y": -0.3157381657,
				"z": -0.4872351359,
				"element": "C" 
			},
			{
				"x": 2.2189721037,
				"y": -0.1072726566,
				"z": 0.7209396803,
				"element": "C" 
			},
			{
				"x": 3.5531514418,
				"y": 0.4899042844,
				"z": 0.8456027209,
				"element": "C" 
			},
			{
				"x": 4.4691256888,
				"y": 1.0111750732,
				"z": -0.0043870734,
				"element": "C" 
			},
			{
				"x": 4.4480763243,
				"y": 1.1817085133,
				"z": -1.4691065909,
				"element": "C" 
			},
			{
				"x": 5.6065336684,
				"y": 1.7622560237,
				"z": -1.8784898714,
				"element": "O" 
			},
			{
				"x": 3.5778488822,
				"y": 0.8836892047,
				"z": -2.2692096012,
				"element": "O" 
			},
			{
				"x": 1.6051348588,
				"y": -0.5046986278,
				"z": 1.9275318133,
				"element": "C" 
			},
			{
				"x": 0.3395673941,
				"y": -1.0828039249,
				"z": 1.9447642498,
				"element": "C" 
			},
			{
				"x": -2.2737261135,
				"y": 0.5926202006,
				"z": 1.5271016745,
				"element": "H" 
			},
			{
				"x": -3.8872388989,
				"y": -0.0778280494,
				"z": 1.875421038,
				"element": "H" 
			},
			{
				"x": -3.6515778798,
				"y": 1.0733999144,
				"z": 0.5288820738,
				"element": "H" 
			},
			{
				"x": -3.8192803713,
				"y": -2.1078131302,
				"z": -1.2925810742,
				"element": "H" 
			},
			{
				"x": -4.8988117962,
				"y": -1.6708638226,
				"z": 0.0590759509,
				"element": "H" 
			},
			{
				"x": -4.4985517392,
				"y": -0.4675453498,
				"z": -1.1939245732,
				"element": "H" 
			},
			{
				"x": -0.2770276186,
				"y": -1.0606451347,
				"z": -1.4083339859,
				"element": "H" 
			},
			{
				"x": 1.9758886195,
				"y": -0.0193845442,
				"z": -1.4217508168,
				"element": "H" 
			},
			{
				"x": 3.881452341,
				"y": 0.5173621859,
				"z": 1.8843947244,
				"element": "H" 
			},
			{
				"x": 5.3873097382,
				"y": 1.3775814008,
				"z": 0.4440173343,
				"element": "H" 
			},
			{
				"x": 5.5347689385,
				"y": 1.8470274832,
				"z": -2.8435732036,
				"element": "H" 
			},
			{
				"x": 2.1321267963,
				"y": -0.357686441,
				"z": 2.8663484703,
				"element": "H" 
			},
			{
				"x": -0.1293328158,
				"y": -1.3936858818,
				"z": 2.8716036548,
				"element": "H" 
			}
		],
		 "valence_orbital": [ 
			{
				"type": "occ",
				"energy": -0.29791,
				"method": "rhf"
			},
			{
				"type": "occ",
				"energy": -0.28249,
				"method": "rhf"
			},
			{
				"type": "occ",
				"energy": -0.27267,
				"method": "rhf"
			},
			{
				"type": "occ",
				"energy": -0.26107,
				"method": "rhf"
			},
			{
				"type": "occ",
				"energy": -0.24706,
				"method": "rhf"
			},
			{
				"type": "unocc",
				"energy": -0.08728,
				"method": "rhf"
			},
			{
				"type": "unocc",
				"energy": -0.02157,
				"method": "rhf"
			},
			{
				"type": "unocc",
				"energy": -0.01084,
				"method": "rhf"
			},
			{
				"type": "unocc",
				"energy": 0.06124,
				"method": "rhf"
			},
			{
				"type": "unocc",
				"energy": 0.07032,
				"method": "rhf"
			}
		],
		"cosmo_sigma_profile": { 
			"-0.025": 0.0,
			"-0.024": 0.0,
			"-0.023": 0.0,
			"-0.022": 0.0,
			"-0.021": 0.0,
			"-0.02": 0.0,
			"-0.019": 0.0,
			"-0.018": 0.89207886646,
			"-0.017": 0.579681954365,
			"-0.016": 0.869474191531,
			"-0.015": 0.653640411228,
			"-0.014": 1.25102870224,
			"-0.013": 0.533945600699,
			"-0.012": 0.291546914031,
			"-0.011": 0.74044051968,
			"-0.01": 1.12927124708,
			"-0.009": 1.36596917635,
			"-0.008": 4.52220760369,
			"-0.007": 10.8483490458,
			"-0.006": 13.7272585745,
			"-0.005": 16.2525256962,
			"-0.004": 22.2292810342,
			"-0.003": 22.5607650264,
			"-0.002": 26.7073108395,
			"-0.001": 16.8298203113,
			"0.0": 20.3239096336,
			"0.001": 24.5739419092,
			"0.002": 25.0588902854,
			"0.003": 9.48682390049,
			"0.004": 5.59271651195,
			"0.005": 8.17916212177,
			"0.006": 5.25702374417,
			"0.007": 5.41232103827,
			"0.008": 6.6332115622,
			"0.009": 7.56275037616,
			"0.01": 8.81017219257,
			"0.011": 10.387821403,
			"0.012": 4.27820479494,
			"0.013": 0.0,
			"0.014": 0.0,
			"0.015": 0.0,
			"0.016": 0.0,
			"0.017": 0.0,
			"0.018": 0.0,
			"0.019": 0.0,
			"0.02": 0.0,
			"0.021": 0.0,
			"0.022": 0.0,
			"0.023": 0.0,
			"0.024": 0.0,
			"0.025": 0.0
		}
	}
}
