{
	 "smiles": "CC12CC(O)C3C(CCC4=CC(=O)C=CC34C)C1CCC2(O)C(=O)COC(=O)CCCC1=CC=C(C=C1)N(CCCl)CCCl", 
	 "Tm": 437.15, 
	 "num_atms": 89, 
	 "gaussian": { 
		 "optdone": 1, 
		 "sigma_profile": "yes", 
		 "theory": "DFT", 
		 "functional": "B3LYP", 
		 "basiset": "6-31G**", 
		 "properties": { 
			 "R2extent": 33311.4441, 
			 "electric_dipole_moment_norm": 8.04492270006, 
			 "electric_quadrupole_moment_norm": 36.35083703, 
			 "total_energy": -2787.28823487, 
			 "HOMO_LUMO_gap": 0.17634, 
			 "cosmo_polarized_energy": -33.12, 
			 "cosmo_cavitation_energy": 85.38, 
			 "cosmo_dispersion_energy": -51.11, 
			 "cosmo_repulsion_energy": 3.75, 
			 "cosmo_total_nonelectrostatic_energy": 38.02, 
			 "SMD_solvation_energy": 12.83 
		},
		"coords": [
			{
				"x": 2.9262097019,
				"y": -0.9385724132,
				"z": 3.4238401407,
				"element": "C" 
			},
			{
				"x": 1.6301794961,
				"y": -0.3868839556,
				"z": 2.7873718971,
				"element": "C" 
			},
			{
				"x": 1.4421319125,
				"y": -0.8870896301,
				"z": 1.344378843,
				"element": "C" 
			},
			{
				"x": 2.4058564048,
				"y": -0.2182677629,
				"z": 0.3352467352,
				"element": "C" 
			},
			{
				"x": 3.7553165335,
				"y": -0.6366941119,
				"z": 0.5627520662,
				"element": "O" 
			},
			{
				"x": 2.3126485946,
				"y": 1.3240832285,
				"z": 0.3786074436,
				"element": "C" 
			},
			{
				"x": 2.4694792692,
				"y": 1.9232893113,
				"z": 1.8064079794,
				"element": "C" 
			},
			{
				"x": 3.9531115991,
				"y": 2.1362148306,
				"z": 2.147342516,
				"element": "C" 
			},
			{
				"x": 4.5246726904,
				"y": 3.2289735071,
				"z": 1.197814392,
				"element": "C" 
			},
			{
				"x": 3.6992923329,
				"y": 3.3945089616,
				"z": -0.0626627656,
				"element": "C" 
			},
			{
				"x": 3.4383739408,
				"y": 4.6098243588,
				"z": -0.581939043,
				"element": "C" 
			},
			{
				"x": 2.6254075479,
				"y": 4.8169660756,
				"z": -1.7936942845,
				"element": "C" 
			},
			{
				"x": 2.417455156,
				"y": 5.9337324956,
				"z": -2.2634226438,
				"element": "O" 
			},
			{
				"x": 2.0561331819,
				"y": 3.5959288334,
				"z": -2.4052944462,
				"element": "C" 
			},
			{
				"x": 2.3046053747,
				"y": 2.3801283627,
				"z": -1.899473808,
				"element": "C" 
			},
			{
				"x": 3.1870306618,
				"y": 2.1133227824,
				"z": -0.7042141034,
				"element": "C" 
			},
			{
				"x": 4.4319244003,
				"y": 1.351917368,
				"z": -1.2605011915,
				"element": "C" 
			},
			{
				"x": 1.5427015234,
				"y": 1.1619419391,
				"z": 2.770965432,
				"element": "C" 
			},
			{
				"x": 1.4659865425,
				"y": 1.5521311574,
				"z": 4.2525005886,
				"element": "C" 
			},
			{
				"x": 0.5835531273,
				"y": 0.4303929381,
				"z": 4.8679385721,
				"element": "C" 
			},
			{
				"x": 0.4136730118,
				"y": -0.6717186855,
				"z": 3.7797819895,
				"element": "C" 
			},
			{
				"x": -0.8508466772,
				"y": -0.4427927942,
				"z": 3.1463171211,
				"element": "O" 
			},
			{
				"x": 0.4667570934,
				"y": -2.0881460233,
				"z": 4.3778982984,
				"element": "C" 
			},
			{
				"x": 0.9585999135,
				"y": -2.3156644705,
				"z": 5.4664387312,
				"element": "O" 
			},
			{
				"x": 0.0294752003,
				"y": -3.3312024927,
				"z": 3.5841179803,
				"element": "C" 
			},
			{
				"x": -1.0981661654,
				"y": -3.1539455703,
				"z": 2.6940543787,
				"element": "O" 
			},
			{
				"x": -0.97750018,
				"y": -3.6470286589,
				"z": 1.417294987,
				"element": "C" 
			},
			{
				"x": 0.0641875093,
				"y": -4.0670663107,
				"z": 0.9691102175,
				"element": "O" 
			},
			{
				"x": -2.2906014565,
				"y": -3.6089520021,
				"z": 0.6655559034,
				"element": "C" 
			},
			{
				"x": -2.3318326282,
				"y": -2.5442207699,
				"z": -0.4563742608,
				"element": "C" 
			},
			{
				"x": -2.7078879767,
				"y": -1.1344678364,
				"z": 0.0419139427,
				"element": "C" 
			},
			{
				"x": -2.7698499321,
				"y": -0.1026209758,
				"z": -1.0664799836,
				"element": "C" 
			},
			{
				"x": -1.859372817,
				"y": 0.9612435826,
				"z": -1.1113619949,
				"element": "C" 
			},
			{
				"x": -1.9096192349,
				"y": 1.915752049,
				"z": -2.1275369155,
				"element": "C" 
			},
			{
				"x": -2.8837908086,
				"y": 1.8298986862,
				"z": -3.1317275513,
				"element": "C" 
			},
			{
				"x": -3.7969167638,
				"y": 0.7690552944,
				"z": -3.0947671911,
				"element": "C" 
			},
			{
				"x": -3.7400066034,
				"y": -0.1812972549,
				"z": -2.0754928353,
				"element": "C" 
			},
			{
				"x": -2.9789841912,
				"y": 2.7990442106,
				"z": -4.1971768976,
				"element": "N" 
			},
			{
				"x": -1.8911241189,
				"y": 2.7245805286,
				"z": -5.1708219224,
				"element": "C" 
			},
			{
				"x": -1.859908352,
				"y": 1.4172048555,
				"z": -5.9514537798,
				"element": "C" 
			},
			{
				"x": -3.3213720431,
				"y": 1.1931432305,
				"z": -7.0057292649,
				"element": "Cl" 
			},
			{
				"x": -3.2953437735,
				"y": 4.1595755462,
				"z": -3.7486566531,
				"element": "C" 
			},
			{
				"x": -4.7584854867,
				"y": 4.2319284614,
				"z": -3.3159793617,
				"element": "C" 
			},
			{
				"x": -5.1768318142,
				"y": 5.9070201395,
				"z": -2.7560727001,
				"element": "Cl" 
			},
			{
				"x": 3.008768007,
				"y": -0.6833915274,
				"z": 4.4823520159,
				"element": "H" 
			},
			{
				"x": 3.8080568755,
				"y": -0.5717649441,
				"z": 2.9043772793,
				"element": "H" 
			},
			{
				"x": 2.9502819941,
				"y": -2.0332428742,
				"z": 3.3620905374,
				"element": "H" 
			},
			{
				"x": 1.5694601731,
				"y": -1.9748371488,
				"z": 1.263773384,
				"element": "H" 
			},
			{
				"x": 0.4165519357,
				"y": -0.6696421814,
				"z": 1.0264030916,
				"element": "H" 
			},
			{
				"x": 2.0978040654,
				"y": -0.5405245446,
				"z": -0.6741481724,
				"element": "H" 
			},
			{
				"x": 3.7662586704,
				"y": -1.6027741273,
				"z": 0.5693563977,
				"element": "H" 
			},
			{
				"x": 1.2691689314,
				"y": 1.5218328701,
				"z": 0.1000003383,
				"element": "H" 
			},
			{
				"x": 2.0372742881,
				"y": 2.9337909659,
				"z": 1.7531598719,
				"element": "H" 
			},
			{
				"x": 4.0744444252,
				"y": 2.4585497031,
				"z": 3.186544955,
				"element": "H" 
			},
			{
				"x": 4.511736902,
				"y": 1.2065279337,
				"z": 2.0296389838,
				"element": "H" 
			},
			{
				"x": 4.5687110055,
				"y": 4.1969094912,
				"z": 1.7072781803,
				"element": "H" 
			},
			{
				"x": 5.5589551088,
				"y": 2.9801859995,
				"z": 0.9263235904,
				"element": "H" 
			},
			{
				"x": 3.8170455053,
				"y": 5.5147354401,
				"z": -0.1123979093,
				"element": "H" 
			},
			{
				"x": 1.4336352924,
				"y": 3.7428664684,
				"z": -3.2839391367,
				"element": "H" 
			},
			{
				"x": 1.8780364409,
				"y": 1.4948297698,
				"z": -2.3714791047,
				"element": "H" 
			},
			{
				"x": 4.9318363269,
				"y": 1.9956051672,
				"z": -1.9905977241,
				"element": "H" 
			},
			{
				"x": 5.1367533647,
				"y": 1.0859417649,
				"z": -0.4740774927,
				"element": "H" 
			},
			{
				"x": 4.1383248037,
				"y": 0.4266810626,
				"z": -1.7609539818,
				"element": "H" 
			},
			{
				"x": 0.5362978218,
				"y": 1.3559975802,
				"z": 2.3719089112,
				"element": "H" 
			},
			{
				"x": 2.4574542312,
				"y": 1.5707079792,
				"z": 4.7168643481,
				"element": "H" 
			},
			{
				"x": 1.0279683618,
				"y": 2.5449203524,
				"z": 4.3937741252,
				"element": "H" 
			},
			{
				"x": -0.416520641,
				"y": 0.7895179768,
				"z": 5.1200135433,
				"element": "H" 
			},
			{
				"x": 1.023226966,
				"y": 0.0037378295,
				"z": 5.7704270512,
				"element": "H" 
			},
			{
				"x": -1.2231446192,
				"y": -1.2883595067,
				"z": 2.8590363044,
				"element": "H" 
			},
			{
				"x": 0.8852988081,
				"y": -3.6821019937,
				"z": 2.9978984923,
				"element": "H" 
			},
			{
				"x": -0.2395271001,
				"y": -4.0982914488,
				"z": 4.3132278917,
				"element": "H" 
			},
			{
				"x": -2.3918148099,
				"y": -4.6021442793,
				"z": 0.2164621902,
				"element": "H" 
			},
			{
				"x": -3.1181776074,
				"y": -3.4664288688,
				"z": 1.3658676901,
				"element": "H" 
			},
			{
				"x": -1.365269953,
				"y": -2.5242661003,
				"z": -0.9720086188,
				"element": "H" 
			},
			{
				"x": -3.068933927,
				"y": -2.8661141188,
				"z": -1.1995051379,
				"element": "H" 
			},
			{
				"x": -1.9968634447,
				"y": -0.7960053817,
				"z": 0.8031745641,
				"element": "H" 
			},
			{
				"x": -3.6849837089,
				"y": -1.1942066735,
				"z": 0.540568687,
				"element": "H" 
			},
			{
				"x": -1.1116970033,
				"y": 1.0542970647,
				"z": -0.3277417821,
				"element": "H" 
			},
			{
				"x": -1.1900948906,
				"y": 2.7302856735,
				"z": -2.1322405238,
				"element": "H" 
			},
			{
				"x": -4.5500441677,
				"y": 0.708125176,
				"z": -3.8740436721,
				"element": "H" 
			},
			{
				"x": -4.4695214597,
				"y": -0.9877098609,
				"z": -2.061143267,
				"element": "H" 
			},
			{
				"x": -2.0050345369,
				"y": 3.554674402,
				"z": -5.8739536425,
				"element": "H" 
			},
			{
				"x": -0.8916060037,
				"y": 2.831756125,
				"z": -4.7047401411,
				"element": "H" 
			},
			{
				"x": -0.9933247782,
				"y": 1.3989958884,
				"z": -6.6143639681,
				"element": "H" 
			},
			{
				"x": -1.8235604839,
				"y": 0.5512391124,
				"z": -5.2895019742,
				"element": "H" 
			},
			{
				"x": -2.6506660591,
				"y": 4.511931243,
				"z": -2.9278647158,
				"element": "H" 
			},
			{
				"x": -3.1455043548,
				"y": 4.8420637962,
				"z": -4.5898989408,
				"element": "H" 
			},
			{
				"x": -4.9678450394,
				"y": 3.5626009971,
				"z": -2.4810306807,
				"element": "H" 
			},
			{
				"x": -5.4208374133,
				"y": 3.991526731,
				"z": -4.1478083956,
				"element": "H" 
			}
		],
		 "valence_orbital": [ 
			{
				"type": "occ",
				"energy": -0.25672,
				"method": "rhf"
			},
			{
				"type": "occ",
				"energy": -0.25423,
				"method": "rhf"
			},
			{
				"type": "occ",
				"energy": -0.25405,
				"method": "rhf"
			},
			{
				"type": "occ",
				"energy": -0.23332,
				"method": "rhf"
			},
			{
				"type": "occ",
				"energy": -0.23151,
				"method": "rhf"
			},
			{
				"type": "unocc",
				"energy": -0.05517,
				"method": "rhf"
			},
			{
				"type": "unocc",
				"energy": -0.04826,
				"method": "rhf"
			},
			{
				"type": "unocc",
				"energy": -0.03103,
				"method": "rhf"
			},
			{
				"type": "unocc",
				"energy": -0.02183,
				"method": "rhf"
			},
			{
				"type": "unocc",
				"energy": -0.01494,
				"method": "rhf"
			}
		],
		"cosmo_sigma_profile": { 
			"-0.025": 0.0,
			"-0.024": 0.0,
			"-0.023": 0.0,
			"-0.022": 0.0,
			"-0.021": 0.0,
			"-0.02": 0.0,
			"-0.019": 0.0,
			"-0.018": 0.0,
			"-0.017": 0.0,
			"-0.016": 0.00248486776956,
			"-0.015": 0.430768612921,
			"-0.014": 0.881841576815,
			"-0.013": 0.77225137544,
			"-0.012": 1.65033135306,
			"-0.011": 1.13545764401,
			"-0.01": 1.30412610783,
			"-0.009": 2.25816914383,
			"-0.008": 3.928655154,
			"-0.007": 10.2567691202,
			"-0.006": 24.2179971617,
			"-0.005": 46.627602318,
			"-0.004": 62.7773291257,
			"-0.003": 70.8069572269,
			"-0.002": 70.0241108709,
			"-0.001": 60.7040872259,
			"0.0": 55.9752239289,
			"0.001": 51.3966517097,
			"0.002": 33.7680166631,
			"0.003": 27.4952728996,
			"0.004": 25.1961346933,
			"0.005": 27.6101204725,
			"0.006": 22.9799404285,
			"0.007": 18.1227685576,
			"0.008": 9.64700595485,
			"0.009": 7.28667111058,
			"0.01": 7.66511862043,
			"0.011": 9.52288377516,
			"0.012": 4.67479677567,
			"0.013": 4.9427678593,
			"0.014": 4.73796880986,
			"0.015": 1.78203727635,
			"0.016": 0.0145835746391,
			"0.017": 0.0,
			"0.018": 0.0,
			"0.019": 0.0,
			"0.02": 0.0,
			"0.021": 0.0,
			"0.022": 0.0,
			"0.023": 0.0,
			"0.024": 0.0,
			"0.025": 0.0
		}
	}
}
