{
	 "smiles": "CCCCCCC(O)C1C(O)C2=C(CC(CC3=C1C(=O)OC3=O)C(O)C1CC=CC(=O)O1)C(=O)OC2=O", 
	 "Tm": 443.65, 
	 "num_atms": 67, 
	 "gaussian": { 
		 "optdone": 1, 
		 "sigma_profile": "yes", 
		 "theory": "DFT", 
		 "functional": "B3LYP", 
		 "basiset": "6-31G**", 
		 "properties": { 
			 "R2extent": 21594.5257, 
			 "electric_dipole_moment_norm": 7.58750573048, 
			 "electric_quadrupole_moment_norm": 48.1993809233, 
			 "total_energy": -1836.29879876, 
			 "HOMO_LUMO_gap": 0.14516, 
			 "cosmo_polarized_energy": -39.39, 
			 "cosmo_cavitation_energy": 66.27, 
			 "cosmo_dispersion_energy": -42.17, 
			 "cosmo_repulsion_energy": 3.13, 
			 "cosmo_total_nonelectrostatic_energy": 27.23, 
			 "SMD_solvation_energy": 13.96 
		},
		"coords": [
			{
				"x": -6.8927883727,
				"y": 0.5258553439,
				"z": -4.0670424799,
				"element": "C" 
			},
			{
				"x": -6.5123555042,
				"y": 1.7957953773,
				"z": -3.2960512575,
				"element": "C" 
			},
			{
				"x": -5.0754084958,
				"y": 1.8066246298,
				"z": -2.7462814939,
				"element": "C" 
			},
			{
				"x": -3.9903318935,
				"y": 1.8457957731,
				"z": -3.8328843451,
				"element": "C" 
			},
			{
				"x": -2.5440453586,
				"y": 1.8273480948,
				"z": -3.3028999544,
				"element": "C" 
			},
			{
				"x": -2.1474851716,
				"y": 3.1089650421,
				"z": -2.5492566921,
				"element": "C" 
			},
			{
				"x": -0.6953726224,
				"y": 3.1821032898,
				"z": -2.0329440385,
				"element": "C" 
			},
			{
				"x": 0.248608676,
				"y": 2.7049510742,
				"z": -3.0067433582,
				"element": "O" 
			},
			{
				"x": -0.4344788159,
				"y": 2.5665620088,
				"z": -0.6171020495,
				"element": "C" 
			},
			{
				"x": 1.0020901777,
				"y": 2.9622611846,
				"z": -0.1260682405,
				"element": "C" 
			},
			{
				"x": 2.0397703884,
				"y": 2.5854311882,
				"z": -1.0049311506,
				"element": "O" 
			},
			{
				"x": 1.2643745909,
				"y": 2.3815723798,
				"z": 1.2296481038,
				"element": "C" 
			},
			{
				"x": 2.0157659225,
				"y": 1.334634391,
				"z": 1.6224821139,
				"element": "C" 
			},
			{
				"x": 2.9251290864,
				"y": 0.3909127324,
				"z": 0.9033006714,
				"element": "C" 
			},
			{
				"x": 2.188110526,
				"y": -0.8392596905,
				"z": 0.3072856543,
				"element": "C" 
			},
			{
				"x": 1.2997620036,
				"y": -0.4430204134,
				"z": -0.9214541914,
				"element": "C" 
			},
			{
				"x": -0.0994888682,
				"y": -0.0562633404,
				"z": -0.5601985422,
				"element": "C" 
			},
			{
				"x": -0.7793491082,
				"y": 1.1095411918,
				"z": -0.4624338649,
				"element": "C" 
			},
			{
				"x": -2.164742819,
				"y": 0.7706163795,
				"z": 0.0028639018,
				"element": "C" 
			},
			{
				"x": -3.0754394877,
				"y": 1.5107276792,
				"z": 0.2586159521,
				"element": "O" 
			},
			{
				"x": -2.2801474769,
				"y": -0.6078283777,
				"z": 0.118340729,
				"element": "O" 
			},
			{
				"x": -1.0494786595,
				"y": -1.15801696,
				"z": -0.2040177758,
				"element": "C" 
			},
			{
				"x": -0.8459245438,
				"y": -2.342121549,
				"z": -0.1832058501,
				"element": "O" 
			},
			{
				"x": 3.1583415706,
				"y": -1.9659843925,
				"z": -0.1287228743,
				"element": "C" 
			},
			{
				"x": 4.0528470347,
				"y": -1.5385602944,
				"z": -1.1465458946,
				"element": "O" 
			},
			{
				"x": 4.0200716514,
				"y": -2.6265530536,
				"z": 0.9592171219,
				"element": "C" 
			},
			{
				"x": 3.2477758007,
				"y": -3.1634542505,
				"z": 2.1642190833,
				"element": "C" 
			},
			{
				"x": 4.2318658118,
				"y": -3.7306664491,
				"z": 3.1510365031,
				"element": "C" 
			},
			{
				"x": 5.4871151488,
				"y": -3.2667630108,
				"z": 3.1973232656,
				"element": "C" 
			},
			{
				"x": 5.9132620346,
				"y": -2.1143364044,
				"z": 2.3692835945,
				"element": "C" 
			},
			{
				"x": 6.9302366606,
				"y": -1.4894693244,
				"z": 2.5606209855,
				"element": "O" 
			},
			{
				"x": 5.0514916285,
				"y": -1.7109911337,
				"z": 1.3823382869,
				"element": "O" 
			},
			{
				"x": 1.7772765139,
				"y": 1.1605065096,
				"z": 3.0909078221,
				"element": "C" 
			},
			{
				"x": 2.1989609565,
				"y": 0.30951925,
				"z": 3.8265028684,
				"element": "O" 
			},
			{
				"x": 0.9154157816,
				"y": 2.160418586,
				"z": 3.5290733771,
				"element": "O" 
			},
			{
				"x": 0.5666636537,
				"y": 2.9290798856,
				"z": 2.4254178075,
				"element": "C" 
			},
			{
				"x": -0.1887617019,
				"y": 3.8613925344,
				"z": 2.5003103842,
				"element": "O" 
			},
			{
				"x": -6.7579398172,
				"y": -0.3669886383,
				"z": -3.4454674832,
				"element": "H" 
			},
			{
				"x": -6.2889823487,
				"y": 0.3946803146,
				"z": -4.971131252,
				"element": "H" 
			},
			{
				"x": -7.9417646661,
				"y": 0.5564825499,
				"z": -4.379158171,
				"element": "H" 
			},
			{
				"x": -6.6600876038,
				"y": 2.6739787626,
				"z": -3.9398995826,
				"element": "H" 
			},
			{
				"x": -7.2046654884,
				"y": 1.9193354145,
				"z": -2.4541804869,
				"element": "H" 
			},
			{
				"x": -4.9234948978,
				"y": 0.9226232827,
				"z": -2.1115423211,
				"element": "H" 
			},
			{
				"x": -4.9648660183,
				"y": 2.6725169685,
				"z": -2.0828466575,
				"element": "H" 
			},
			{
				"x": -4.1135908434,
				"y": 0.9868274367,
				"z": -4.5029370848,
				"element": "H" 
			},
			{
				"x": -4.1303892572,
				"y": 2.7399012559,
				"z": -4.4572696281,
				"element": "H" 
			},
			{
				"x": -2.4124850341,
				"y": 0.9387569574,
				"z": -2.6723468989,
				"element": "H" 
			},
			{
				"x": -1.8745216898,
				"y": 1.7010788593,
				"z": -4.165047639,
				"element": "H" 
			},
			{
				"x": -2.2891385845,
				"y": 3.9524397225,
				"z": -3.2359012418,
				"element": "H" 
			},
			{
				"x": -2.8180302749,
				"y": 3.2752634222,
				"z": -1.7012378606,
				"element": "H" 
			},
			{
				"x": -0.4394197229,
				"y": 4.24188178,
				"z": -1.9216801473,
				"element": "H" 
			},
			{
				"x": -0.0163532169,
				"y": 1.8146974149,
				"z": -3.2762983607,
				"element": "H" 
			},
			{
				"x": -1.1275253631,
				"y": 3.0983707298,
				"z": 0.0463917167,
				"element": "H" 
			},
			{
				"x": 0.9711154066,
				"y": 4.0594769628,
				"z": -0.0166540209,
				"element": "H" 
			},
			{
				"x": 1.7087912795,
				"y": 2.7281488686,
				"z": -1.9119196673,
				"element": "H" 
			},
			{
				"x": 3.4515196857,
				"y": 0.913142615,
				"z": 0.1045995424,
				"element": "H" 
			},
			{
				"x": 3.6688714113,
				"y": 0.0365031091,
				"z": 1.6174910706,
				"element": "H" 
			},
			{
				"x": 1.533275452,
				"y": -1.2726269458,
				"z": 1.0725805852,
				"element": "H" 
			},
			{
				"x": 1.7834904537,
				"y": 0.3649527047,
				"z": -1.4699423496,
				"element": "H" 
			},
			{
				"x": 1.2100108566,
				"y": -1.3207906139,
				"z": -1.5747144219,
				"element": "H" 
			},
			{
				"x": 2.5172922813,
				"y": -2.7852499541,
				"z": -0.4975778356,
				"element": "H" 
			},
			{
				"x": 3.5551840487,
				"y": -1.4289925462,
				"z": -1.9659160311,
				"element": "H" 
			},
			{
				"x": 4.522898102,
				"y": -3.4686395377,
				"z": 0.4643006196,
				"element": "H" 
			},
			{
				"x": 2.6687512915,
				"y": -2.3676173649,
				"z": 2.6533705443,
				"element": "H" 
			},
			{
				"x": 2.5324891322,
				"y": -3.9276873248,
				"z": 1.8397170712,
				"element": "H" 
			},
			{
				"x": 3.8985984251,
				"y": -4.5035087041,
				"z": 3.8394474296,
				"element": "H" 
			},
			{
				"x": 6.2262302823,
				"y": -3.6302833836,
				"z": 3.9021663894,
				"element": "H" 
			}
		],
		 "valence_orbital": [ 
			{
				"type": "occ",
				"energy": -0.29287,
				"method": "rhf"
			},
			{
				"type": "occ",
				"energy": -0.28962,
				"method": "rhf"
			},
			{
				"type": "occ",
				"energy": -0.28518,
				"method": "rhf"
			},
			{
				"type": "occ",
				"energy": -0.28046,
				"method": "rhf"
			},
			{
				"type": "occ",
				"energy": -0.26504,
				"method": "rhf"
			},
			{
				"type": "unocc",
				"energy": -0.11988,
				"method": "rhf"
			},
			{
				"type": "unocc",
				"energy": -0.10705,
				"method": "rhf"
			},
			{
				"type": "unocc",
				"energy": -0.04878,
				"method": "rhf"
			},
			{
				"type": "unocc",
				"energy": 0.00656,
				"method": "rhf"
			},
			{
				"type": "unocc",
				"energy": 0.02143,
				"method": "rhf"
			}
		],
		"cosmo_sigma_profile": { 
			"-0.025": 0.0,
			"-0.024": 0.0,
			"-0.023": 0.0,
			"-0.022": 0.0,
			"-0.021": 0.0,
			"-0.02": 0.0,
			"-0.019": 0.0,
			"-0.018": 0.0,
			"-0.017": 0.0,
			"-0.016": 0.463586602643,
			"-0.015": 1.12950413971,
			"-0.014": 1.27795877529,
			"-0.013": 2.44014419741,
			"-0.012": 2.53909872881,
			"-0.011": 2.46627170666,
			"-0.01": 4.23162709672,
			"-0.009": 7.58277055792,
			"-0.008": 14.7387212442,
			"-0.007": 21.8904034435,
			"-0.006": 33.8801404534,
			"-0.005": 26.2991974371,
			"-0.004": 27.6127051328,
			"-0.003": 30.3990806513,
			"-0.002": 43.2580246076,
			"-0.001": 48.801520518,
			"0.0": 44.6056493594,
			"0.001": 38.8563694635,
			"0.002": 20.8769839829,
			"0.003": 13.9752576039,
			"0.004": 13.4042300942,
			"0.005": 14.6151597462,
			"0.006": 15.3398256337,
			"0.007": 17.4560098425,
			"0.008": 13.614721045,
			"0.009": 19.0162131106,
			"0.01": 14.4584179488,
			"0.011": 8.07108549782,
			"0.012": 9.50282034559,
			"0.013": 4.960886389,
			"0.014": 1.94914925474,
			"0.015": 0.164417587048,
			"0.016": 0.0,
			"0.017": 0.0,
			"0.018": 0.0,
			"0.019": 0.0,
			"0.02": 0.0,
			"0.021": 0.0,
			"0.022": 0.0,
			"0.023": 0.0,
			"0.024": 0.0,
			"0.025": 0.0
		}
	}
}
