{
	 "smiles": "CC1=C(O)C=CC=C1N", 
	 "Tm": 403.15, 
	 "num_atms": 18, 
	 "gaussian": { 
		 "optdone": 1, 
		 "sigma_profile": "yes", 
		 "theory": "DFT", 
		 "functional": "B3LYP", 
		 "basiset": "6-31G**", 
		 "properties": { 
			 "R2extent": 1462.3133, 
			 "electric_dipole_moment_norm": 2.83647465175, 
			 "electric_quadrupole_moment_norm": 8.68460726803, 
			 "total_energy": -402.14712634, 
			 "HOMO_LUMO_gap": 0.21016, 
			 "cosmo_polarized_energy": -11.62, 
			 "cosmo_cavitation_energy": 20.74, 
			 "cosmo_dispersion_energy": -15.87, 
			 "cosmo_repulsion_energy": 1.3, 
			 "cosmo_total_nonelectrostatic_energy": 6.16, 
			 "SMD_solvation_energy": 3.76 
		},
		"coords": [
			{
				"x": -0.6416370386,
				"y": -1.4234816891,
				"z": 1.4192471595,
				"element": "C" 
			},
			{
				"x": -0.7990171639,
				"y": -0.7673574228,
				"z": 0.0666707464,
				"element": "C" 
			},
			{
				"x": -0.5899643851,
				"y": -1.4808773178,
				"z": -1.1259271237,
				"element": "C" 
			},
			{
				"x": -0.1799595225,
				"y": -2.788418019,
				"z": -1.1304317535,
				"element": "O" 
			},
			{
				"x": -0.80572355,
				"y": -0.897930895,
				"z": -2.3789702291,
				"element": "C" 
			},
			{
				"x": -1.2216128758,
				"y": 0.4276112371,
				"z": -2.4439378502,
				"element": "C" 
			},
			{
				"x": -1.4039142806,
				"y": 1.1754560666,
				"z": -1.2828857067,
				"element": "C" 
			},
			{
				"x": -1.1896191119,
				"y": 0.5872349873,
				"z": -0.027614645,
				"element": "C" 
			},
			{
				"x": -1.4252462269,
				"y": 1.3250600531,
				"z": 1.1447055842,
				"element": "N" 
			},
			{
				"x": 0.3621934202,
				"y": -1.2983193332,
				"z": 1.8501259884,
				"element": "H" 
			},
			{
				"x": -1.3597105286,
				"y": -1.0054421594,
				"z": 2.1314894752,
				"element": "H" 
			},
			{
				"x": -0.8474826159,
				"y": -2.5000531343,
				"z": 1.382702045,
				"element": "H" 
			},
			{
				"x": 0.0378809776,
				"y": -3.0598514703,
				"z": -0.2307978618,
				"element": "H" 
			},
			{
				"x": -0.6384316972,
				"y": -1.4933471589,
				"z": -3.2694438945,
				"element": "H" 
			},
			{
				"x": -1.3899296754,
				"y": 0.8912814804,
				"z": -3.4118773095,
				"element": "H" 
			},
			{
				"x": -1.7101465303,
				"y": 2.2167725562,
				"z": -1.340945552,
				"element": "H" 
			},
			{
				"x": -0.7715605804,
				"y": 1.149729724,
				"z": 1.8963514522,
				"element": "H" 
			},
			{
				"x": -1.5188186146,
				"y": 2.3190324949,
				"z": 0.9813394752,
				"element": "H" 
			}
		],
		 "valence_orbital": [ 
			{
				"type": "occ",
				"energy": -0.34603,
				"method": "rhf"
			},
			{
				"type": "occ",
				"energy": -0.33477,
				"method": "rhf"
			},
			{
				"type": "occ",
				"energy": -0.28625,
				"method": "rhf"
			},
			{
				"type": "occ",
				"energy": -0.21509,
				"method": "rhf"
			},
			{
				"type": "occ",
				"energy": -0.19513,
				"method": "rhf"
			},
			{
				"type": "unocc",
				"energy": 0.01503,
				"method": "rhf"
			},
			{
				"type": "unocc",
				"energy": 0.03095,
				"method": "rhf"
			},
			{
				"type": "unocc",
				"energy": 0.06304,
				"method": "rhf"
			},
			{
				"type": "unocc",
				"energy": 0.09429,
				"method": "rhf"
			},
			{
				"type": "unocc",
				"energy": 0.11182,
				"method": "rhf"
			}
		],
		"cosmo_sigma_profile": { 
			"-0.025": 0.0,
			"-0.024": 0.0,
			"-0.023": 0.0,
			"-0.022": 0.0,
			"-0.021": 0.0,
			"-0.02": 0.0,
			"-0.019": 0.0,
			"-0.018": 0.0,
			"-0.017": 0.0,
			"-0.016": 0.297292293436,
			"-0.015": 0.675268731928,
			"-0.014": 1.14234015315,
			"-0.013": 0.729982562317,
			"-0.012": 2.2413295876,
			"-0.011": 3.2875558923,
			"-0.01": 3.0601023663,
			"-0.009": 4.40730704328,
			"-0.008": 4.6532734557,
			"-0.007": 3.08373967986,
			"-0.006": 4.94810936621,
			"-0.005": 8.23676065222,
			"-0.004": 12.3157781808,
			"-0.003": 11.1784400463,
			"-0.002": 11.1730229885,
			"-0.001": 10.1046212174,
			"0.0": 8.50606874249,
			"0.001": 6.76064779808,
			"0.002": 6.74495689376,
			"0.003": 6.32637543519,
			"0.004": 7.58770340705,
			"0.005": 9.25190957086,
			"0.006": 10.6197316661,
			"0.007": 10.2355320999,
			"0.008": 5.16830514549,
			"0.009": 2.04543164255,
			"0.01": 2.19382886416,
			"0.011": 2.5650300705,
			"0.012": 2.57349878173,
			"0.013": 0.649179733047,
			"0.014": 0.437132500368,
			"0.015": 0.495737147364,
			"0.016": 0.0,
			"0.017": 0.0,
			"0.018": 0.0,
			"0.019": 0.0,
			"0.02": 0.0,
			"0.021": 0.0,
			"0.022": 0.0,
			"0.023": 0.0,
			"0.024": 0.0,
			"0.025": 0.0
		}
	}
}
