{
	 "smiles": "CN1C=C(C=N1)C#N", 
	 "Tm": 333.15, 
	 "num_atms": 13, 
	 "gaussian": { 
		 "optdone": 1, 
		 "sigma_profile": "yes", 
		 "theory": "DFT", 
		 "functional": "B3LYP", 
		 "basiset": "6-31G**", 
		 "properties": { 
			 "R2extent": 1154.4901, 
			 "electric_dipole_moment_norm": 5.33726403132, 
			 "electric_quadrupole_moment_norm": 16.193448244, 
			 "total_energy": -357.758055778, 
			 "HOMO_LUMO_gap": 0.23897, 
			 "cosmo_polarized_energy": -12.64, 
			 "cosmo_cavitation_energy": 18.58, 
			 "cosmo_dispersion_energy": -13.21, 
			 "cosmo_repulsion_energy": 1.1, 
			 "cosmo_total_nonelectrostatic_energy": 6.47, 
			 "SMD_solvation_energy": 4.62 
		},
		"coords": [
			{
				"x": 2.4514716515,
				"y": -0.7210432398,
				"z": 1.1398886953,
				"element": "C" 
			},
			{
				"x": 1.3454740419,
				"y": -0.5274484409,
				"z": 0.2173301413,
				"element": "N" 
			},
			{
				"x": 1.1409512194,
				"y": 0.5032557265,
				"z": -0.6311102422,
				"element": "C" 
			},
			{
				"x": -0.0502007511,
				"y": 0.2353911217,
				"z": -1.3001671842,
				"element": "C" 
			},
			{
				"x": -0.481494962,
				"y": -1.007366439,
				"z": -0.7618196464,
				"element": "C" 
			},
			{
				"x": 0.365580403,
				"y": -1.460429872,
				"z": 0.1525357125,
				"element": "N" 
			},
			{
				"x": -0.678612679,
				"y": 1.03123228,
				"z": -2.2916731863,
				"element": "C" 
			},
			{
				"x": -1.2025615913,
				"y": 1.6769881095,
				"z": -3.1062420021,
				"element": "N" 
			},
			{
				"x": 2.0738609304,
				"y": -0.783364867,
				"z": 2.1630891197,
				"element": "H" 
			},
			{
				"x": 3.1362453528,
				"y": 0.1235741671,
				"z": 1.054042521,
				"element": "H" 
			},
			{
				"x": 2.9792203319,
				"y": -1.6461078732,
				"z": 0.8966814628,
				"element": "H" 
			},
			{
				"x": 1.823572469,
				"y": 1.3360198096,
				"z": -0.7104724286,
				"element": "H" 
			},
			{
				"x": -1.3704064165,
				"y": -1.5677004825,
				"z": -1.0155829628,
				"element": "H" 
			}
		],
		 "valence_orbital": [ 
			{
				"type": "occ",
				"energy": -0.35614,
				"method": "rhf"
			},
			{
				"type": "occ",
				"energy": -0.33537,
				"method": "rhf"
			},
			{
				"type": "occ",
				"energy": -0.30584,
				"method": "rhf"
			},
			{
				"type": "occ",
				"energy": -0.27974,
				"method": "rhf"
			},
			{
				"type": "occ",
				"energy": -0.25886,
				"method": "rhf"
			},
			{
				"type": "unocc",
				"energy": -0.01989,
				"method": "rhf"
			},
			{
				"type": "unocc",
				"energy": 0.005,
				"method": "rhf"
			},
			{
				"type": "unocc",
				"energy": 0.03323,
				"method": "rhf"
			},
			{
				"type": "unocc",
				"energy": 0.07672,
				"method": "rhf"
			},
			{
				"type": "unocc",
				"energy": 0.10517,
				"method": "rhf"
			}
		],
		"cosmo_sigma_profile": { 
			"-0.025": 0.0,
			"-0.024": 0.0,
			"-0.023": 0.0,
			"-0.022": 0.0,
			"-0.021": 0.0,
			"-0.02": 0.0,
			"-0.019": 0.0,
			"-0.018": 0.0,
			"-0.017": 0.0,
			"-0.016": 0.0,
			"-0.015": 0.0,
			"-0.014": 0.0,
			"-0.013": 0.0,
			"-0.012": 0.0,
			"-0.011": 2.17368978616,
			"-0.01": 3.43563381286,
			"-0.009": 4.12990232498,
			"-0.008": 4.65092010879,
			"-0.007": 7.90733229469,
			"-0.006": 10.0851266053,
			"-0.005": 9.72285717665,
			"-0.004": 12.0699692461,
			"-0.003": 10.1153061399,
			"-0.002": 5.63266083453,
			"-0.001": 7.98438430601,
			"0.0": 11.0252719105,
			"0.001": 8.925461472,
			"0.002": 6.25678661278,
			"0.003": 4.57519637969,
			"0.004": 4.21233253422,
			"0.005": 4.00089503236,
			"0.006": 3.70217953593,
			"0.007": 3.30937293257,
			"0.008": 5.12900999909,
			"0.009": 4.77697760079,
			"0.01": 4.46318593772,
			"0.011": 4.19071895813,
			"0.012": 3.36454573313,
			"0.013": 3.20316426088,
			"0.014": 1.17242690188,
			"0.015": 0.13015423539,
			"0.016": 0.0,
			"0.017": 0.0,
			"0.018": 0.0,
			"0.019": 0.0,
			"0.02": 0.0,
			"0.021": 0.0,
			"0.022": 0.0,
			"0.023": 0.0,
			"0.024": 0.0,
			"0.025": 0.0
		}
	}
}
