{
	 "smiles": "NC(=O)C1CCCCS1", 
	 "Tm": 438.15, 
	 "num_atms": 20, 
	 "gaussian": { 
		 "optdone": 1, 
		 "sigma_profile": "yes", 
		 "theory": "DFT", 
		 "functional": "B3LYP", 
		 "basiset": "6-31G**", 
		 "properties": { 
			 "R2extent": 2642.196, 
			 "electric_dipole_moment_norm": 2.21334736768, 
			 "electric_quadrupole_moment_norm": 12.4817830777, 
			 "total_energy": -763.461309157, 
			 "HOMO_LUMO_gap": 0.24434, 
			 "cosmo_polarized_energy": -10.64, 
			 "cosmo_cavitation_energy": 22.67, 
			 "cosmo_dispersion_energy": -17.58, 
			 "cosmo_repulsion_energy": 1.4, 
			 "cosmo_total_nonelectrostatic_energy": 6.49, 
			 "SMD_solvation_energy": 3.49 
		},
		"coords": [
			{
				"x": 3.9360074675,
				"y": 0.5392991056,
				"z": 1.1119840569,
				"element": "N" 
			},
			{
				"x": 2.8146562837,
				"y": 0.0589785788,
				"z": 0.5135839347,
				"element": "C" 
			},
			{
				"x": 2.7426772642,
				"y": -0.1638764242,
				"z": -0.6884193265,
				"element": "O" 
			},
			{
				"x": 1.6245877501,
				"y": -0.2672525404,
				"z": 1.4491104568,
				"element": "C" 
			},
			{
				"x": 0.2845518224,
				"y": -0.1765097085,
				"z": 0.7007576113,
				"element": "C" 
			},
			{
				"x": -0.1303055935,
				"y": 1.2607466456,
				"z": 0.3503336161,
				"element": "C" 
			},
			{
				"x": -0.2813734288,
				"y": 2.1731592777,
				"z": 1.5771276637,
				"element": "C" 
			},
			{
				"x": 1.0116820946,
				"y": 2.2961381273,
				"z": 2.3871546939,
				"element": "C" 
			},
			{
				"x": 1.5925928254,
				"y": 0.6755628191,
				"z": 3.038608405,
				"element": "S" 
			},
			{
				"x": 4.7406246883,
				"y": 0.7252277933,
				"z": 0.5336922426,
				"element": "H" 
			},
			{
				"x": 3.94221928,
				"y": 0.7645908048,
				"z": 2.0957606236,
				"element": "H" 
			},
			{
				"x": 1.7795939703,
				"y": -1.3038638714,
				"z": 1.773261962,
				"element": "H" 
			},
			{
				"x": -0.4869468398,
				"y": -0.6477923811,
				"z": 1.3199614662,
				"element": "H" 
			},
			{
				"x": 0.382872311,
				"y": -0.7591564725,
				"z": -0.2193685572,
				"element": "H" 
			},
			{
				"x": 0.6107245338,
				"y": 1.6866114556,
				"z": -0.3380011557,
				"element": "H" 
			},
			{
				"x": -1.0790311782,
				"y": 1.2318009199,
				"z": -0.1978018401,
				"element": "H" 
			},
			{
				"x": -1.0780888636,
				"y": 1.7937703511,
				"z": 2.2291104068,
				"element": "H" 
			},
			{
				"x": -0.5838709815,
				"y": 3.177799148,
				"z": 1.2535212811,
				"element": "H" 
			},
			{
				"x": 1.8110288582,
				"y": 2.7387444635,
				"z": 1.7820529886,
				"element": "H" 
			},
			{
				"x": 0.8732977358,
				"y": 2.9260219079,
				"z": 3.2705694701,
				"element": "H" 
			}
		],
		 "valence_orbital": [ 
			{
				"type": "occ",
				"energy": -0.31293,
				"method": "rhf"
			},
			{
				"type": "occ",
				"energy": -0.30587,
				"method": "rhf"
			},
			{
				"type": "occ",
				"energy": -0.2675,
				"method": "rhf"
			},
			{
				"type": "occ",
				"energy": -0.25919,
				"method": "rhf"
			},
			{
				"type": "occ",
				"energy": -0.22404,
				"method": "rhf"
			},
			{
				"type": "unocc",
				"energy": 0.0203,
				"method": "rhf"
			},
			{
				"type": "unocc",
				"energy": 0.03432,
				"method": "rhf"
			},
			{
				"type": "unocc",
				"energy": 0.07315,
				"method": "rhf"
			},
			{
				"type": "unocc",
				"energy": 0.08571,
				"method": "rhf"
			},
			{
				"type": "unocc",
				"energy": 0.09699,
				"method": "rhf"
			}
		],
		"cosmo_sigma_profile": { 
			"-0.025": 0.0,
			"-0.024": 0.0,
			"-0.023": 0.0,
			"-0.022": 0.0,
			"-0.021": 0.0,
			"-0.02": 0.0,
			"-0.019": 0.0,
			"-0.018": 0.0,
			"-0.017": 0.0,
			"-0.016": 0.0,
			"-0.015": 0.00651215623369,
			"-0.014": 0.65192281719,
			"-0.013": 1.38118006654,
			"-0.012": 0.707534210503,
			"-0.011": 1.96926870186,
			"-0.01": 2.30109782324,
			"-0.009": 2.21393400398,
			"-0.008": 1.25901643744,
			"-0.007": 3.75937808145,
			"-0.006": 5.55796381029,
			"-0.005": 5.96017155636,
			"-0.004": 9.58770718343,
			"-0.003": 18.9393068281,
			"-0.002": 24.5988579948,
			"-0.001": 23.5458988341,
			"0.0": 15.6739782696,
			"0.001": 9.32214702433,
			"0.002": 5.83073774018,
			"0.003": 5.40174703583,
			"0.004": 5.78341490476,
			"0.005": 5.66544393253,
			"0.006": 4.34407231028,
			"0.007": 3.87584759419,
			"0.008": 2.57934891821,
			"0.009": 2.45643403237,
			"0.01": 2.46643167681,
			"0.011": 1.47776718956,
			"0.012": 1.88845372185,
			"0.013": 3.20007262681,
			"0.014": 4.97488474385,
			"0.015": 0.534254737364,
			"0.016": 0.0,
			"0.017": 0.0,
			"0.018": 0.0,
			"0.019": 0.0,
			"0.02": 0.0,
			"0.021": 0.0,
			"0.022": 0.0,
			"0.023": 0.0,
			"0.024": 0.0,
			"0.025": 0.0
		}
	}
}
