{
	 "smiles": "NC1=NC2=C(N=CN2COCCO)C(=O)N1", 
	 "Tm": 528.15, 
	 "num_atms": 27, 
	 "gaussian": { 
		 "optdone": 1, 
		 "sigma_profile": "yes", 
		 "theory": "DFT", 
		 "functional": "B3LYP", 
		 "basiset": "6-31G**", 
		 "properties": { 
			 "R2extent": 5125.2426, 
			 "electric_dipole_moment_norm": 8.27627790556, 
			 "electric_quadrupole_moment_norm": 30.5473343906, 
			 "total_energy": -810.912203598, 
			 "HOMO_LUMO_gap": 0.19952, 
			 "cosmo_polarized_energy": -30.71, 
			 "cosmo_cavitation_energy": 31.63, 
			 "cosmo_dispersion_energy": -22.82, 
			 "cosmo_repulsion_energy": 1.82, 
			 "cosmo_total_nonelectrostatic_energy": 10.63, 
			 "SMD_solvation_energy": 3.74 
		},
		"coords": [
			{
				"x": 0.1941215648,
				"y": -1.5258122172,
				"z": -1.3948404128,
				"element": "N" 
			},
			{
				"x": 1.0513232665,
				"y": -0.7480516605,
				"z": -0.6460954611,
				"element": "C" 
			},
			{
				"x": 0.708473594,
				"y": -0.3975066597,
				"z": 0.5705608846,
				"element": "N" 
			},
			{
				"x": 1.6175324402,
				"y": 0.4256675275,
				"z": 1.1574555714,
				"element": "C" 
			},
			{
				"x": 2.8239228972,
				"y": 0.9042512234,
				"z": 0.647549169,
				"element": "C" 
			},
			{
				"x": 3.4595546696,
				"y": 1.7160021948,
				"z": 1.567544713,
				"element": "N" 
			},
			{
				"x": 2.6580769204,
				"y": 1.7232905037,
				"z": 2.6004192076,
				"element": "C" 
			},
			{
				"x": 1.5188150062,
				"y": 0.9500060501,
				"z": 2.4257992661,
				"element": "N" 
			},
			{
				"x": 0.4151410318,
				"y": 0.7898622964,
				"z": 3.3671642361,
				"element": "C" 
			},
			{
				"x": -0.4719057053,
				"y": 1.8798083565,
				"z": 3.3593066981,
				"element": "O" 
			},
			{
				"x": -1.5378630374,
				"y": 1.7983938212,
				"z": 2.4106863037,
				"element": "C" 
			},
			{
				"x": -2.7923999085,
				"y": 1.2141101278,
				"z": 3.0374931745,
				"element": "C" 
			},
			{
				"x": -2.5602653327,
				"y": -0.163814243,
				"z": 3.3096472045,
				"element": "O" 
			},
			{
				"x": 3.2167297334,
				"y": 0.522573347,
				"z": -0.6848101816,
				"element": "C" 
			},
			{
				"x": 4.1959226617,
				"y": 0.8083131455,
				"z": -1.35133899,
				"element": "O" 
			},
			{
				"x": 2.2108947462,
				"y": -0.3395978761,
				"z": -1.2518510495,
				"element": "N" 
			},
			{
				"x": 0.6102775766,
				"y": -2.1709382279,
				"z": -2.0520148887,
				"element": "H" 
			},
			{
				"x": -0.5492333884,
				"y": -1.9273567629,
				"z": -0.8396354795,
				"element": "H" 
			},
			{
				"x": 2.8259412714,
				"y": 2.2619666845,
				"z": 3.5238525721,
				"element": "H" 
			},
			{
				"x": 0.8430279021,
				"y": 0.7444514035,
				"z": 4.3719056274,
				"element": "H" 
			},
			{
				"x": -0.0884269064,
				"y": -0.1502081164,
				"z": 3.1336678745,
				"element": "H" 
			},
			{
				"x": -1.7449470855,
				"y": 2.8216482279,
				"z": 2.0788244863,
				"element": "H" 
			},
			{
				"x": -1.244904694,
				"y": 1.2030020049,
				"z": 1.5374492724,
				"element": "H" 
			},
			{
				"x": -3.6350414302,
				"y": 1.3505594106,
				"z": 2.3390264315,
				"element": "H" 
			},
			{
				"x": -3.0193513776,
				"y": 1.7732805252,
				"z": 3.9569463381,
				"element": "H" 
			},
			{
				"x": -3.257938978,
				"y": -0.4811600386,
				"z": 3.8951162493,
				"element": "H" 
			},
			{
				"x": 2.3948225618,
				"y": -0.5878410481,
				"z": -2.2164288168,
				"element": "H" 
			}
		],
		 "valence_orbital": [ 
			{
				"type": "occ",
				"energy": -0.27646,
				"method": "rhf"
			},
			{
				"type": "occ",
				"energy": -0.26591,
				"method": "rhf"
			},
			{
				"type": "occ",
				"energy": -0.25967,
				"method": "rhf"
			},
			{
				"type": "occ",
				"energy": -0.24976,
				"method": "rhf"
			},
			{
				"type": "occ",
				"energy": -0.20428,
				"method": "rhf"
			},
			{
				"type": "unocc",
				"energy": -0.00476,
				"method": "rhf"
			},
			{
				"type": "unocc",
				"energy": 0.00538,
				"method": "rhf"
			},
			{
				"type": "unocc",
				"energy": 0.0433,
				"method": "rhf"
			},
			{
				"type": "unocc",
				"energy": 0.05597,
				"method": "rhf"
			},
			{
				"type": "unocc",
				"energy": 0.06392,
				"method": "rhf"
			}
		],
		"cosmo_sigma_profile": { 
			"-0.025": 0.0,
			"-0.024": 0.0,
			"-0.023": 0.0,
			"-0.022": 0.0,
			"-0.021": 0.0,
			"-0.02": 0.0,
			"-0.019": 0.0,
			"-0.018": 0.186914973585,
			"-0.017": 1.47158857086,
			"-0.016": 2.81041867883,
			"-0.015": 3.78635017803,
			"-0.014": 3.70980124363,
			"-0.013": 3.9561108489,
			"-0.012": 4.05789396519,
			"-0.011": 3.05893086107,
			"-0.01": 3.9220844431,
			"-0.009": 6.41033375367,
			"-0.008": 6.97478680413,
			"-0.007": 6.24416603537,
			"-0.006": 7.27576520959,
			"-0.005": 11.2476515719,
			"-0.004": 17.2056947012,
			"-0.003": 16.0314200013,
			"-0.002": 14.6303788109,
			"-0.001": 14.2023537515,
			"0.0": 15.0425078925,
			"0.001": 10.8100012921,
			"0.002": 9.36009902882,
			"0.003": 7.59881570986,
			"0.004": 8.51434333388,
			"0.005": 9.26603280754,
			"0.006": 7.56154197974,
			"0.007": 6.49568368457,
			"0.008": 7.62995910503,
			"0.009": 6.20396846089,
			"0.01": 5.91211509823,
			"0.011": 4.9075667365,
			"0.012": 6.33174994382,
			"0.013": 9.13366900395,
			"0.014": 4.84243440144,
			"0.015": 1.86584100129,
			"0.016": 1.14257179343,
			"0.017": 0.583166408644,
			"0.018": 0.0,
			"0.019": 0.0,
			"0.02": 0.0,
			"0.021": 0.0,
			"0.022": 0.0,
			"0.023": 0.0,
			"0.024": 0.0,
			"0.025": 0.0
		}
	}
}
