{
	 "smiles": "CCOC(=O)C1=C(C)C(C(=O)OCC)=C(C)N1", 
	 "Tm": 410.15, 
	 "num_atms": 34, 
	 "gaussian": { 
		 "optdone": 1, 
		 "sigma_profile": "yes", 
		 "theory": "DFT", 
		 "functional": "B3LYP", 
		 "basiset": "6-31G**", 
		 "properties": { 
			 "R2extent": 6239.9503, 
			 "electric_dipole_moment_norm": 1.61463921357, 
			 "electric_quadrupole_moment_norm": 19.4327189315, 
			 "total_energy": -823.225259532, 
			 "HOMO_LUMO_gap": 0.19742, 
			 "cosmo_polarized_energy": -12.44, 
			 "cosmo_cavitation_energy": 37.67, 
			 "cosmo_dispersion_energy": -26.38, 
			 "cosmo_repulsion_energy": 2.09, 
			 "cosmo_total_nonelectrostatic_energy": 13.38, 
			 "SMD_solvation_energy": 8.48 
		},
		"coords": [
			{
				"x": 5.7818990193,
				"y": -0.5295453739,
				"z": 1.7250056801,
				"element": "C" 
			},
			{
				"x": 4.4432150062,
				"y": -0.6562786041,
				"z": 2.4268389656,
				"element": "C" 
			},
			{
				"x": 3.419879486,
				"y": -0.2658998525,
				"z": 1.4827965483,
				"element": "O" 
			},
			{
				"x": 2.1517103241,
				"y": -0.3218575167,
				"z": 1.9409489206,
				"element": "C" 
			},
			{
				"x": 1.8597696229,
				"y": -0.6757610286,
				"z": 3.076198854,
				"element": "O" 
			},
			{
				"x": 1.1431664605,
				"y": 0.0776173825,
				"z": 0.9645249107,
				"element": "C" 
			},
			{
				"x": 1.1311136444,
				"y": 0.5158889015,
				"z": -0.3549958039,
				"element": "C" 
			},
			{
				"x": 2.3054714272,
				"y": 0.7272881367,
				"z": -1.2615302291,
				"element": "C" 
			},
			{
				"x": -0.246990083,
				"y": 0.7302865383,
				"z": -0.6884677838,
				"element": "C" 
			},
			{
				"x": -0.7205458958,
				"y": 1.1990165311,
				"z": -1.9920734789,
				"element": "C" 
			},
			{
				"x": -0.0059290287,
				"y": 1.4550942149,
				"z": -2.9465794375,
				"element": "O" 
			},
			{
				"x": -2.0786782555,
				"y": 1.3208169652,
				"z": -2.0350226238,
				"element": "O" 
			},
			{
				"x": -2.6391546358,
				"y": 1.7818552203,
				"z": -3.2844120327,
				"element": "C" 
			},
			{
				"x": -2.6330696271,
				"y": 3.3012503107,
				"z": -3.3725406383,
				"element": "C" 
			},
			{
				"x": -1.0283409203,
				"y": 0.4159353041,
				"z": 0.437854975,
				"element": "C" 
			},
			{
				"x": -2.5044025254,
				"y": 0.4472529167,
				"z": 0.6759668326,
				"element": "C" 
			},
			{
				"x": -0.1713051749,
				"y": 0.0302260837,
				"z": 1.4068347521,
				"element": "N" 
			},
			{
				"x": 5.9580354171,
				"y": 0.4999719721,
				"z": 1.4002229203,
				"element": "H" 
			},
			{
				"x": 6.5868871194,
				"y": -0.8170582371,
				"z": 2.4085609851,
				"element": "H" 
			},
			{
				"x": 5.827205645,
				"y": -1.180710549,
				"z": 0.847320619,
				"element": "H" 
			},
			{
				"x": 4.3774976794,
				"y": -0.009406996,
				"z": 3.3073443077,
				"element": "H" 
			},
			{
				"x": 4.2472400508,
				"y": -1.6811466065,
				"z": 2.7572913687,
				"element": "H" 
			},
			{
				"x": 2.2169521041,
				"y": 0.1059443943,
				"z": -2.1578319166,
				"element": "H" 
			},
			{
				"x": 2.3353957246,
				"y": 1.7611501361,
				"z": -1.6184695647,
				"element": "H" 
			},
			{
				"x": 3.238761744,
				"y": 0.4938070922,
				"z": -0.7509109083,
				"element": "H" 
			},
			{
				"x": -3.658259068,
				"y": 1.3862412901,
				"z": -3.288955407,
				"element": "H" 
			},
			{
				"x": -2.0753138878,
				"y": 1.3405216199,
				"z": -4.1095828141,
				"element": "H" 
			},
			{
				"x": -3.1624772117,
				"y": 3.7438617211,
				"z": -2.5232477699,
				"element": "H" 
			},
			{
				"x": -3.131009767,
				"y": 3.6237375742,
				"z": -4.2932997001,
				"element": "H" 
			},
			{
				"x": -1.6077390811,
				"y": 3.6781393658,
				"z": -3.3864664733,
				"element": "H" 
			},
			{
				"x": -3.0290488871,
				"y": -0.2159100758,
				"z": -0.0173941752,
				"element": "H" 
			},
			{
				"x": -2.9075630982,
				"y": 1.4506588361,
				"z": 0.515200766,
				"element": "H" 
			},
			{
				"x": -2.7360497378,
				"y": 0.1364784915,
				"z": 1.6991665777,
				"element": "H" 
			},
			{
				"x": -0.4001235894,
				"y": -0.2640661591,
				"z": 2.3465027738,
				"element": "H" 
			}
		],
		 "valence_orbital": [ 
			{
				"type": "occ",
				"energy": -0.28841,
				"method": "rhf"
			},
			{
				"type": "occ",
				"energy": -0.27469,
				"method": "rhf"
			},
			{
				"type": "occ",
				"energy": -0.26106,
				"method": "rhf"
			},
			{
				"type": "occ",
				"energy": -0.24739,
				"method": "rhf"
			},
			{
				"type": "occ",
				"energy": -0.2202,
				"method": "rhf"
			},
			{
				"type": "unocc",
				"energy": -0.02278,
				"method": "rhf"
			},
			{
				"type": "unocc",
				"energy": -0.01057,
				"method": "rhf"
			},
			{
				"type": "unocc",
				"energy": 0.08691,
				"method": "rhf"
			},
			{
				"type": "unocc",
				"energy": 0.09986,
				"method": "rhf"
			},
			{
				"type": "unocc",
				"energy": 0.10081,
				"method": "rhf"
			}
		],
		"cosmo_sigma_profile": { 
			"-0.025": 0.0,
			"-0.024": 0.0,
			"-0.023": 0.0,
			"-0.022": 0.0,
			"-0.021": 0.0,
			"-0.02": 0.0,
			"-0.019": 0.0,
			"-0.018": 0.0,
			"-0.017": 0.0,
			"-0.016": 0.0,
			"-0.015": 0.347209528481,
			"-0.014": 0.945846076997,
			"-0.013": 0.869412960742,
			"-0.012": 1.19152282523,
			"-0.011": 1.08240709645,
			"-0.01": 1.17031059365,
			"-0.009": 1.32144379331,
			"-0.008": 0.853731299802,
			"-0.007": 1.17487675088,
			"-0.006": 2.78233168123,
			"-0.005": 12.7756302485,
			"-0.004": 25.7369628029,
			"-0.003": 31.9702078214,
			"-0.002": 33.5096074348,
			"-0.001": 34.6191401606,
			"0.0": 36.3409896196,
			"0.001": 26.5620767978,
			"0.002": 18.8875160624,
			"0.003": 17.3055882729,
			"0.004": 12.3019798364,
			"0.005": 4.75122334457,
			"0.006": 4.44584096468,
			"0.007": 2.43267610694,
			"0.008": 2.65435341829,
			"0.009": 3.32157157869,
			"0.01": 3.49168621834,
			"0.011": 3.37596341585,
			"0.012": 6.53312938393,
			"0.013": 3.47064842466,
			"0.014": 0.0,
			"0.015": 0.0,
			"0.016": 0.0,
			"0.017": 0.0,
			"0.018": 0.0,
			"0.019": 0.0,
			"0.02": 0.0,
			"0.021": 0.0,
			"0.022": 0.0,
			"0.023": 0.0,
			"0.024": 0.0,
			"0.025": 0.0
		}
	}
}
