{
	 "smiles": "CC(C)(C)C(Cl)=O", 
	 "Tm": 217.15, 
	 "num_atms": 16, 
	 "gaussian": { 
		 "optdone": 1, 
		 "sigma_profile": "yes", 
		 "theory": "DFT", 
		 "functional": "B3LYP", 
		 "basiset": "6-31G**", 
		 "properties": { 
			 "R2extent": 1329.3786, 
			 "electric_dipole_moment_norm": 3.18089897513, 
			 "electric_quadrupole_moment_norm": 5.09711417078, 
			 "total_energy": -731.39209422, 
			 "HOMO_LUMO_gap": 0.2525, 
			 "cosmo_polarized_energy": -4.87, 
			 "cosmo_cavitation_energy": 20.26, 
			 "cosmo_dispersion_energy": -14.58, 
			 "cosmo_repulsion_energy": 1.23, 
			 "cosmo_total_nonelectrostatic_energy": 6.91, 
			 "SMD_solvation_energy": 4.37 
		},
		"coords": [
			{
				"x": 0.4010498464,
				"y": 2.0194790018,
				"z": -0.2889286756,
				"element": "C" 
			},
			{
				"x": 0.059639238,
				"y": 0.892112029,
				"z": -1.2877111972,
				"element": "C" 
			},
			{
				"x": 0.6391887485,
				"y": 1.2193677479,
				"z": -2.6812571895,
				"element": "C" 
			},
			{
				"x": -1.4670033116,
				"y": 0.7067360598,
				"z": -1.3776759357,
				"element": "C" 
			},
			{
				"x": 0.648706194,
				"y": -0.4308946162,
				"z": -0.7863130035,
				"element": "C" 
			},
			{
				"x": 2.4887220481,
				"y": -0.4175092207,
				"z": -0.6084455299,
				"element": "Cl" 
			},
			{
				"x": 0.0622177958,
				"y": -1.4264167877,
				"z": -0.5110582272,
				"element": "O" 
			},
			{
				"x": 1.4783261375,
				"y": 2.1811478187,
				"z": -0.2160855088,
				"element": "H" 
			},
			{
				"x": 0.0154904367,
				"y": 1.7965455048,
				"z": 0.710895385,
				"element": "H" 
			},
			{
				"x": -0.0650578553,
				"y": 2.9489073842,
				"z": -0.6310826647,
				"element": "H" 
			},
			{
				"x": 1.7198446707,
				"y": 1.369943264,
				"z": -2.6433744269,
				"element": "H" 
			},
			{
				"x": 0.1752344214,
				"y": 2.1394383068,
				"z": -3.050551775,
				"element": "H" 
			},
			{
				"x": 0.4252306886,
				"y": 0.4215683289,
				"z": -3.3994038368,
				"element": "H" 
			},
			{
				"x": -1.9247282818,
				"y": 1.6346318368,
				"z": -1.7337120049,
				"element": "H" 
			},
			{
				"x": -1.7298034323,
				"y": -0.0964589606,
				"z": -2.0708769481,
				"element": "H" 
			},
			{
				"x": -1.8958573446,
				"y": 0.4617023025,
				"z": -0.4026184615,
				"element": "H" 
			}
		],
		 "valence_orbital": [ 
			{
				"type": "occ",
				"energy": -0.35266,
				"method": "rhf"
			},
			{
				"type": "occ",
				"energy": -0.35079,
				"method": "rhf"
			},
			{
				"type": "occ",
				"energy": -0.3159,
				"method": "rhf"
			},
			{
				"type": "occ",
				"energy": -0.31285,
				"method": "rhf"
			},
			{
				"type": "occ",
				"energy": -0.28942,
				"method": "rhf"
			},
			{
				"type": "unocc",
				"energy": -0.03692,
				"method": "rhf"
			},
			{
				"type": "unocc",
				"energy": 0.01772,
				"method": "rhf"
			},
			{
				"type": "unocc",
				"energy": 0.07414,
				"method": "rhf"
			},
			{
				"type": "unocc",
				"energy": 0.11779,
				"method": "rhf"
			},
			{
				"type": "unocc",
				"energy": 0.13838,
				"method": "rhf"
			}
		],
		"cosmo_sigma_profile": { 
			"-0.025": 0.0,
			"-0.024": 0.0,
			"-0.023": 0.0,
			"-0.022": 0.0,
			"-0.021": 0.0,
			"-0.02": 0.0,
			"-0.019": 0.0,
			"-0.018": 0.0,
			"-0.017": 0.0,
			"-0.016": 0.0,
			"-0.015": 0.0,
			"-0.014": 0.0,
			"-0.013": 0.0,
			"-0.012": 0.0,
			"-0.011": 0.0,
			"-0.01": 0.0,
			"-0.009": 0.0,
			"-0.008": 0.0,
			"-0.007": 0.00124018913504,
			"-0.006": 1.78603946458,
			"-0.005": 10.2466962897,
			"-0.004": 16.3283167709,
			"-0.003": 17.0511453589,
			"-0.002": 16.5516569705,
			"-0.001": 20.662878226,
			"0.0": 22.3400181666,
			"0.001": 9.1893195361,
			"0.002": 6.11982664696,
			"0.003": 7.71002724195,
			"0.004": 8.76052031387,
			"0.005": 8.05710098391,
			"0.006": 5.46106850188,
			"0.007": 2.74597642804,
			"0.008": 4.89205494654,
			"0.009": 2.34660350338,
			"0.01": 0.0620317221325,
			"0.011": 0.0,
			"0.012": 0.0,
			"0.013": 0.0,
			"0.014": 0.0,
			"0.015": 0.0,
			"0.016": 0.0,
			"0.017": 0.0,
			"0.018": 0.0,
			"0.019": 0.0,
			"0.02": 0.0,
			"0.021": 0.0,
			"0.022": 0.0,
			"0.023": 0.0,
			"0.024": 0.0,
			"0.025": 0.0
		}
	}
}
