{
	 "smiles": "COC1=C(N=C(Br)C=C1)C(F)(F)F", 
	 "Tm": 306.15, 
	 "num_atms": 18, 
	 "gaussian": { 
		 "optdone": 1, 
		 "sigma_profile": "yes", 
		 "theory": "DFT", 
		 "functional": "B3LYP", 
		 "basiset": "6-31G**", 
		 "properties": { 
			 "R2extent": 4535.0053, 
			 "electric_dipole_moment_norm": 5.80209105926, 
			 "electric_quadrupole_moment_norm": 9.34485391753, 
			 "total_energy": -3270.63860657, 
			 "HOMO_LUMO_gap": 0.18972, 
			 "cosmo_polarized_energy": -10.37, 
			 "cosmo_cavitation_energy": 26.48, 
			 "cosmo_dispersion_energy": -19.3, 
			 "cosmo_repulsion_energy": 1.5, 
			 "cosmo_total_nonelectrostatic_energy": 8.68, 
			 "SMD_solvation_energy": 4.24 
		},
		"coords": [
			{
				"x": 1.103149082,
				"y": -2.896419471,
				"z": -1.1611337761,
				"element": "C" 
			},
			{
				"x": 1.7182772928,
				"y": -1.7834914089,
				"z": -0.5208585421,
				"element": "O" 
			},
			{
				"x": 0.9356746649,
				"y": -0.9036906575,
				"z": 0.1420354595,
				"element": "C" 
			},
			{
				"x": 1.5754035271,
				"y": 0.188404462,
				"z": 0.765119293,
				"element": "C" 
			},
			{
				"x": 0.9125353126,
				"y": 1.1193830385,
				"z": 1.4459449164,
				"element": "N" 
			},
			{
				"x": -0.3992876065,
				"y": 1.0202159719,
				"z": 1.5446646638,
				"element": "C" 
			},
			{
				"x": -1.3112194236,
				"y": 2.385560608,
				"z": 2.535567878,
				"element": "Br" 
			},
			{
				"x": -1.1426292419,
				"y": -0.0113011942,
				"z": 0.9734309782,
				"element": "C" 
			},
			{
				"x": -0.4576972559,
				"y": -0.9903095009,
				"z": 0.2589653277,
				"element": "C" 
			},
			{
				"x": 3.0851945756,
				"y": 0.345095852,
				"z": 0.6789792504,
				"element": "C" 
			},
			{
				"x": 3.5073707651,
				"y": 1.4363144896,
				"z": 1.3273961816,
				"element": "F" 
			},
			{
				"x": 3.487606794,
				"y": 0.4453286368,
				"z": -0.6068352605,
				"element": "F" 
			},
			{
				"x": 3.7128904058,
				"y": -0.7244368355,
				"z": 1.2150893217,
				"element": "F" 
			},
			{
				"x": 1.9155340655,
				"y": -3.4574504903,
				"z": -1.6227580321,
				"element": "H" 
			},
			{
				"x": 0.5838349589,
				"y": -3.5370541331,
				"z": -0.4381193106,
				"element": "H" 
			},
			{
				"x": 0.3984863449,
				"y": -2.5724361831,
				"z": -1.9365913056,
				"element": "H" 
			},
			{
				"x": -2.2197241542,
				"y": -0.0479289627,
				"z": 1.083304144,
				"element": "H" 
			},
			{
				"x": -1.007300107,
				"y": -1.8049842217,
				"z": -0.1969011872,
				"element": "H" 
			}
		],
		 "valence_orbital": [ 
			{
				"type": "occ",
				"energy": -0.31312,
				"method": "rhf"
			},
			{
				"type": "occ",
				"energy": -0.30377,
				"method": "rhf"
			},
			{
				"type": "occ",
				"energy": -0.29288,
				"method": "rhf"
			},
			{
				"type": "occ",
				"energy": -0.28408,
				"method": "rhf"
			},
			{
				"type": "occ",
				"energy": -0.24439,
				"method": "rhf"
			},
			{
				"type": "unocc",
				"energy": -0.05467,
				"method": "rhf"
			},
			{
				"type": "unocc",
				"energy": -0.02942,
				"method": "rhf"
			},
			{
				"type": "unocc",
				"energy": 0.00469,
				"method": "rhf"
			},
			{
				"type": "unocc",
				"energy": 0.07264,
				"method": "rhf"
			},
			{
				"type": "unocc",
				"energy": 0.08602,
				"method": "rhf"
			}
		],
		"cosmo_sigma_profile": { 
			"-0.025": 0.0,
			"-0.024": 0.0,
			"-0.023": 0.0,
			"-0.022": 0.0,
			"-0.021": 0.0,
			"-0.02": 0.0,
			"-0.019": 0.0,
			"-0.018": 0.0,
			"-0.017": 0.0,
			"-0.016": 0.0,
			"-0.015": 0.0,
			"-0.014": 0.0,
			"-0.013": 0.0,
			"-0.012": 0.0,
			"-0.011": 0.0,
			"-0.01": 0.0419310975113,
			"-0.009": 3.32628729454,
			"-0.008": 5.66607533875,
			"-0.007": 9.49978103537,
			"-0.006": 11.2813458534,
			"-0.005": 9.75712416371,
			"-0.004": 12.6420315292,
			"-0.003": 9.0848650578,
			"-0.002": 14.9366319187,
			"-0.001": 15.6945972013,
			"0.0": 17.023433359,
			"0.001": 12.4409220531,
			"0.002": 22.7160109099,
			"0.003": 30.2028397385,
			"0.004": 16.8148750632,
			"0.005": 9.5135976189,
			"0.006": 4.80083776891,
			"0.007": 4.49304862513,
			"0.008": 2.20457105061,
			"0.009": 1.1117205253,
			"0.01": 1.19999028993,
			"0.011": 1.14930459868,
			"0.012": 0.575655906922,
			"0.013": 0.0259691317019,
			"0.014": 0.0,
			"0.015": 0.0,
			"0.016": 0.0,
			"0.017": 0.0,
			"0.018": 0.0,
			"0.019": 0.0,
			"0.02": 0.0,
			"0.021": 0.0,
			"0.022": 0.0,
			"0.023": 0.0,
			"0.024": 0.0,
			"0.025": 0.0
		}
	}
}
