{
	 "smiles": "CC1=CC(Br)=CC=C1C#N", 
	 "Tm": 337.15, 
	 "num_atms": 16, 
	 "gaussian": { 
		 "optdone": 1, 
		 "sigma_profile": "yes", 
		 "theory": "DFT", 
		 "functional": "B3LYP", 
		 "basiset": "6-31G**", 
		 "properties": { 
			 "R2extent": 4544.947, 
			 "electric_dipole_moment_norm": 2.62794828145, 
			 "electric_quadrupole_moment_norm": 10.038154158, 
			 "total_energy": -2934.61414182, 
			 "HOMO_LUMO_gap": 0.19562, 
			 "cosmo_polarized_energy": -8.06, 
			 "cosmo_cavitation_energy": 23.53, 
			 "cosmo_dispersion_energy": -17.06, 
			 "cosmo_repulsion_energy": 1.38, 
			 "cosmo_total_nonelectrostatic_energy": 7.86, 
			 "SMD_solvation_energy": 4.2 
		},
		"coords": [
			{
				"x": 2.1743387818,
				"y": 0.9480742095,
				"z": 1.2718519444,
				"element": "C" 
			},
			{
				"x": 1.6594248246,
				"y": 0.5090330294,
				"z": -0.0753090383,
				"element": "C" 
			},
			{
				"x": 2.5243387623,
				"y": 0.3666058411,
				"z": -1.1632146435,
				"element": "C" 
			},
			{
				"x": 2.0409794587,
				"y": -0.0399709813,
				"z": -2.406605246,
				"element": "C" 
			},
			{
				"x": 3.2581796449,
				"y": -0.2207278105,
				"z": -3.8627093253,
				"element": "Br" 
			},
			{
				"x": 0.689569121,
				"y": -0.3165461503,
				"z": -2.6075068877,
				"element": "C" 
			},
			{
				"x": -0.1848251001,
				"y": -0.1796325618,
				"z": -1.5346578782,
				"element": "C" 
			},
			{
				"x": 0.2879724525,
				"y": 0.2288851009,
				"z": -0.2772453425,
				"element": "C" 
			},
			{
				"x": -0.6360613788,
				"y": 0.3616199215,
				"z": 0.8106220842,
				"element": "C" 
			},
			{
				"x": -1.3805484971,
				"y": 0.471252768,
				"z": 1.6982437099,
				"element": "N" 
			},
			{
				"x": 3.252648983,
				"y": 1.1191533732,
				"z": 1.2432900925,
				"element": "H" 
			},
			{
				"x": 1.9658226688,
				"y": 0.1945014825,
				"z": 2.0388581146,
				"element": "H" 
			},
			{
				"x": 1.6877573621,
				"y": 1.8735735894,
				"z": 1.597950986,
				"element": "H" 
			},
			{
				"x": 3.5814154079,
				"y": 0.5741420415,
				"z": -1.0396464695,
				"element": "H" 
			},
			{
				"x": 0.3297592507,
				"y": -0.6314037419,
				"z": -3.5796717368,
				"element": "H" 
			},
			{
				"x": -1.2414717423,
				"y": -0.3886601113,
				"z": -1.6643503638,
				"element": "H" 
			}
		],
		 "valence_orbital": [ 
			{
				"type": "occ",
				"energy": -0.33513,
				"method": "rhf"
			},
			{
				"type": "occ",
				"energy": -0.31608,
				"method": "rhf"
			},
			{
				"type": "occ",
				"energy": -0.30202,
				"method": "rhf"
			},
			{
				"type": "occ",
				"energy": -0.27869,
				"method": "rhf"
			},
			{
				"type": "occ",
				"energy": -0.25683,
				"method": "rhf"
			},
			{
				"type": "unocc",
				"energy": -0.06121,
				"method": "rhf"
			},
			{
				"type": "unocc",
				"energy": -0.03177,
				"method": "rhf"
			},
			{
				"type": "unocc",
				"energy": -0.00809,
				"method": "rhf"
			},
			{
				"type": "unocc",
				"energy": 0.03043,
				"method": "rhf"
			},
			{
				"type": "unocc",
				"energy": 0.0664,
				"method": "rhf"
			}
		],
		"cosmo_sigma_profile": { 
			"-0.025": 0.0,
			"-0.024": 0.0,
			"-0.023": 0.0,
			"-0.022": 0.0,
			"-0.021": 0.0,
			"-0.02": 0.0,
			"-0.019": 0.0,
			"-0.018": 0.0,
			"-0.017": 0.0,
			"-0.016": 0.0,
			"-0.015": 0.0,
			"-0.014": 0.0,
			"-0.013": 0.0,
			"-0.012": 0.0,
			"-0.011": 0.0,
			"-0.01": 0.0,
			"-0.009": 0.599667065749,
			"-0.008": 4.43546504986,
			"-0.007": 7.394024984,
			"-0.006": 8.47042322343,
			"-0.005": 11.2780602101,
			"-0.004": 12.4971174247,
			"-0.003": 13.6756022926,
			"-0.002": 15.9599013741,
			"-0.001": 20.0680667811,
			"0.0": 16.4332881737,
			"0.001": 23.1344731049,
			"0.002": 12.9003125846,
			"0.003": 9.81370142729,
			"0.004": 12.394140803,
			"0.005": 2.39270986233,
			"0.006": 2.5359091951,
			"0.007": 2.54425456782,
			"0.008": 3.1928509774,
			"0.009": 3.37817453756,
			"0.01": 3.09985058336,
			"0.011": 2.85232778155,
			"0.012": 2.39248094664,
			"0.013": 1.44704170662,
			"0.014": 0.0395870305948,
			"0.015": 0.0,
			"0.016": 0.0,
			"0.017": 0.0,
			"0.018": 0.0,
			"0.019": 0.0,
			"0.02": 0.0,
			"0.021": 0.0,
			"0.022": 0.0,
			"0.023": 0.0,
			"0.024": 0.0,
			"0.025": 0.0
		}
	}
}
