{
	 "smiles": "CC1=C(C(O)=O)C(I)=CC=C1", 
	 "Tm": 390.15, 
	 "num_atms": 18, 
	 "gaussian": { 
		 "optdone": 1, 
		 "sigma_profile": "yes", 
		 "theory": "DFT", 
		 "functional": "B3LYP", 
		 "basiset": "6-31G**", 
		 "properties": { 
			 "R2extent": 2190.2042, 
			 "electric_dipole_moment_norm": 4.44900922454, 
			 "electric_quadrupole_moment_norm": 8.2162945103, 
			 "total_energy": -470.90924543, 
			 "HOMO_LUMO_gap": 0.2, 
			 "cosmo_polarized_energy": -11.96, 
			 "cosmo_cavitation_energy": 24.99, 
			 "cosmo_dispersion_energy": -19.5, 
			 "cosmo_repulsion_energy": 1.53, 
			 "cosmo_total_nonelectrostatic_energy": 7.02, 
			 "SMD_solvation_energy": 4.47 
		},
		"coords": [
			{
				"x": 0.0293751002,
				"y": 0.5285847516,
				"z": 1.3453440313,
				"element": "C" 
			},
			{
				"x": 0.0942200882,
				"y": 0.0115600952,
				"z": -0.07374782,
				"element": "C" 
			},
			{
				"x": 0.0386503521,
				"y": -1.3755132036,
				"z": -0.3571666999,
				"element": "C" 
			},
			{
				"x": -0.1018729184,
				"y": -2.3237567673,
				"z": 0.8117973724,
				"element": "C" 
			},
			{
				"x": 0.8866572114,
				"y": -3.2359812894,
				"z": 0.9713906004,
				"element": "O" 
			},
			{
				"x": -1.0046346539,
				"y": -2.2596826315,
				"z": 1.6093996005,
				"element": "O" 
			},
			{
				"x": 0.0765746697,
				"y": -1.801844374,
				"z": -1.6940906698,
				"element": "C" 
			},
			{
				"x": -0.0866445751,
				"y": -3.8598076466,
				"z": -2.2340116104,
				"element": "I" 
			},
			{
				"x": 0.1761781078,
				"y": -0.8901052558,
				"z": -2.7472141875,
				"element": "C" 
			},
			{
				"x": 0.2523519126,
				"y": 0.4698520479,
				"z": -2.4591132594,
				"element": "C" 
			},
			{
				"x": 0.2126975292,
				"y": 0.9103040237,
				"z": -1.1374784294,
				"element": "C" 
			},
			{
				"x": 0.7957899131,
				"y": 0.0716396146,
				"z": 1.9803872232,
				"element": "H" 
			},
			{
				"x": 0.1761042102,
				"y": 1.6110771127,
				"z": 1.3635029366,
				"element": "H" 
			},
			{
				"x": -0.9359874401,
				"y": 0.2940011354,
				"z": 1.8008854652,
				"element": "H" 
			},
			{
				"x": 1.5192017026,
				"y": -3.1789260869,
				"z": 0.2397588686,
				"element": "H" 
			},
			{
				"x": 0.1910738824,
				"y": -1.2382599008,
				"z": -3.7732822201,
				"element": "H" 
			},
			{
				"x": 0.3370863533,
				"y": 1.1858932477,
				"z": -3.2712045109,
				"element": "H" 
			},
			{
				"x": 0.2683785546,
				"y": 1.9734651271,
				"z": -0.9224566908,
				"element": "H" 
			}
		],
		 "valence_orbital": [ 
			{
				"type": "occ",
				"energy": -0.30658,
				"method": "rhf"
			},
			{
				"type": "occ",
				"energy": -0.28482,
				"method": "rhf"
			},
			{
				"type": "occ",
				"energy": -0.27815,
				"method": "rhf"
			},
			{
				"type": "occ",
				"energy": -0.26404,
				"method": "rhf"
			},
			{
				"type": "occ",
				"energy": -0.25275,
				"method": "rhf"
			},
			{
				"type": "unocc",
				"energy": -0.05275,
				"method": "rhf"
			},
			{
				"type": "unocc",
				"energy": -0.0465,
				"method": "rhf"
			},
			{
				"type": "unocc",
				"energy": -0.02815,
				"method": "rhf"
			},
			{
				"type": "unocc",
				"energy": 0.01552,
				"method": "rhf"
			},
			{
				"type": "unocc",
				"energy": 0.03272,
				"method": "rhf"
			}
		],
		"cosmo_sigma_profile": { 
			"-0.025": 0.0,
			"-0.024": 0.0,
			"-0.023": 0.0,
			"-0.022": 0.0,
			"-0.021": 0.0,
			"-0.02": 0.0,
			"-0.019": 0.0170068967225,
			"-0.018": 0.539466623577,
			"-0.017": 0.373660986338,
			"-0.016": 1.1779207335,
			"-0.015": 0.5635530071,
			"-0.014": 0.708743046802,
			"-0.013": 0.89423008952,
			"-0.012": 0.944479728212,
			"-0.011": 0.883343154959,
			"-0.01": 0.610106492491,
			"-0.009": 1.07433603329,
			"-0.008": 1.53121120655,
			"-0.007": 6.1767216065,
			"-0.006": 12.493146861,
			"-0.005": 12.3695513534,
			"-0.004": 11.021651943,
			"-0.003": 11.8530972737,
			"-0.002": 14.6326242071,
			"-0.001": 14.4771847825,
			"0.0": 18.1468284442,
			"0.001": 15.97816577,
			"0.002": 18.2096643295,
			"0.003": 20.0059011033,
			"0.004": 11.0549047472,
			"0.005": 2.80187438304,
			"0.006": 2.14332807299,
			"0.007": 3.14956692779,
			"0.008": 3.28061579412,
			"0.009": 3.49010126934,
			"0.01": 5.28153386682,
			"0.011": 5.37232193599,
			"0.012": 2.73958954659,
			"0.013": 0.345141370828,
			"0.014": 0.0,
			"0.015": 0.0,
			"0.016": 0.0,
			"0.017": 0.0,
			"0.018": 0.0,
			"0.019": 0.0,
			"0.02": 0.0,
			"0.021": 0.0,
			"0.022": 0.0,
			"0.023": 0.0,
			"0.024": 0.0,
			"0.025": 0.0
		}
	}
}
