{
	 "smiles": "CCOC=C(C#N)S(=O)(=O)CC1=CC=CO1", 
	 "Tm": 372.15, 
	 "num_atms": 27, 
	 "gaussian": { 
		 "optdone": 1, 
		 "sigma_profile": "yes", 
		 "theory": "DFT", 
		 "functional": "B3LYP", 
		 "basiset": "6-31G**", 
		 "properties": { 
			 "R2extent": 5173.0859, 
			 "electric_dipole_moment_norm": 8.91174644444, 
			 "electric_quadrupole_moment_norm": 23.1473515444, 
			 "total_energy": -1141.37877551, 
			 "HOMO_LUMO_gap": 0.16893, 
			 "cosmo_polarized_energy": -27.1, 
			 "cosmo_cavitation_energy": 35.04, 
			 "cosmo_dispersion_energy": -23.57, 
			 "cosmo_repulsion_energy": 1.85, 
			 "cosmo_total_nonelectrostatic_energy": 13.31, 
			 "SMD_solvation_energy": 8.44 
		},
		"coords": [
			{
				"x": 3.0253011037,
				"y": 2.8136112371,
				"z": 0.0462775095,
				"element": "C" 
			},
			{
				"x": 1.9253432285,
				"y": 3.1634447833,
				"z": 1.03464188,
				"element": "C" 
			},
			{
				"x": 0.8253478694,
				"y": 2.2244384606,
				"z": 0.9500338582,
				"element": "O" 
			},
			{
				"x": 0.8825309963,
				"y": 1.142594999,
				"z": 1.7182720163,
				"element": "C" 
			},
			{
				"x": -0.0878680033,
				"y": 0.1948835848,
				"z": 1.7408874942,
				"element": "C" 
			},
			{
				"x": 0.0681503129,
				"y": -0.9581692364,
				"z": 2.5537044229,
				"element": "C" 
			},
			{
				"x": 0.2229352512,
				"y": -1.9000878612,
				"z": 3.2211540431,
				"element": "N" 
			},
			{
				"x": -1.6268113144,
				"y": 0.3495639173,
				"z": 0.7796544271,
				"element": "S" 
			},
			{
				"x": -2.1334771848,
				"y": 1.7176679874,
				"z": 0.9394180983,
				"element": "O" 
			},
			{
				"x": -2.4495789981,
				"y": -0.8129863455,
				"z": 1.1233773999,
				"element": "O" 
			},
			{
				"x": -1.0238721219,
				"y": 0.171182272,
				"z": -0.9598854509,
				"element": "C" 
			},
			{
				"x": -2.1399221959,
				"y": 0.2307565392,
				"z": -1.9281494939,
				"element": "C" 
			},
			{
				"x": -2.8742201374,
				"y": 1.256410072,
				"z": -2.4537901481,
				"element": "C" 
			},
			{
				"x": -3.85382288,
				"y": 0.6560373056,
				"z": -3.306099826,
				"element": "C" 
			},
			{
				"x": -3.6449343555,
				"y": -0.6884943765,
				"z": -3.232558512,
				"element": "C" 
			},
			{
				"x": -2.6084148936,
				"y": -0.9665579528,
				"z": -2.3969731291,
				"element": "O" 
			},
			{
				"x": 3.4729238231,
				"y": 1.8411361531,
				"z": 0.2741206357,
				"element": "H" 
			},
			{
				"x": 2.6345251589,
				"y": 2.7857770689,
				"z": -0.974589599,
				"element": "H" 
			},
			{
				"x": 3.8156377435,
				"y": 3.5695441997,
				"z": 0.0909360428,
				"element": "H" 
			},
			{
				"x": 1.4756012447,
				"y": 4.132702745,
				"z": 0.8109327034,
				"element": "H" 
			},
			{
				"x": 2.2945608497,
				"y": 3.1864966404,
				"z": 2.0663336324,
				"element": "H" 
			},
			{
				"x": 1.7643388966,
				"y": 1.0271119747,
				"z": 2.3501022119,
				"element": "H" 
			},
			{
				"x": -0.5101709021,
				"y": -0.7916353367,
				"z": -1.0076227223,
				"element": "H" 
			},
			{
				"x": -0.3124587179,
				"y": 0.9891458245,
				"z": -1.0931857897,
				"element": "H" 
			},
			{
				"x": -2.7399520371,
				"y": 2.3069039749,
				"z": -2.2409699136,
				"element": "H" 
			},
			{
				"x": -4.6097288089,
				"y": 1.1590078021,
				"z": -3.8914000805,
				"element": "H" 
			},
			{
				"x": -4.1177639277,
				"y": -1.5415864324,
				"z": -3.6936217106,
				"element": "H" 
			}
		],
		 "valence_orbital": [ 
			{
				"type": "occ",
				"energy": -0.2988,
				"method": "rhf"
			},
			{
				"type": "occ",
				"energy": -0.29646,
				"method": "rhf"
			},
			{
				"type": "occ",
				"energy": -0.2829,
				"method": "rhf"
			},
			{
				"type": "occ",
				"energy": -0.26589,
				"method": "rhf"
			},
			{
				"type": "occ",
				"energy": -0.22926,
				"method": "rhf"
			},
			{
				"type": "unocc",
				"energy": -0.06033,
				"method": "rhf"
			},
			{
				"type": "unocc",
				"energy": -0.01953,
				"method": "rhf"
			},
			{
				"type": "unocc",
				"energy": 0.01462,
				"method": "rhf"
			},
			{
				"type": "unocc",
				"energy": 0.04501,
				"method": "rhf"
			},
			{
				"type": "unocc",
				"energy": 0.05544,
				"method": "rhf"
			}
		],
		"cosmo_sigma_profile": { 
			"-0.025": 0.0,
			"-0.024": 0.0,
			"-0.023": 0.0,
			"-0.022": 0.0,
			"-0.021": 0.0,
			"-0.02": 0.0,
			"-0.019": 0.0,
			"-0.018": 0.0,
			"-0.017": 0.0,
			"-0.016": 0.0,
			"-0.015": 0.0,
			"-0.014": 0.0,
			"-0.013": 0.0119216682527,
			"-0.012": 2.73544173004,
			"-0.011": 3.10794890882,
			"-0.01": 4.29998810236,
			"-0.009": 6.50705814313,
			"-0.008": 8.4642492798,
			"-0.007": 15.175048037,
			"-0.006": 16.9483378422,
			"-0.005": 22.0261388657,
			"-0.004": 22.5208541528,
			"-0.003": 17.6274147641,
			"-0.002": 16.0923970356,
			"-0.001": 15.5273179782,
			"0.0": 11.4830988616,
			"0.001": 8.62827234451,
			"0.002": 12.0112757508,
			"0.003": 11.0869314672,
			"0.004": 11.6810214173,
			"0.005": 10.2740034661,
			"0.006": 8.57759489603,
			"0.007": 8.98315868491,
			"0.008": 7.98474577794,
			"0.009": 8.39579825962,
			"0.01": 13.4016188732,
			"0.011": 12.2448088139,
			"0.012": 3.61526746066,
			"0.013": 1.22006258675,
			"0.014": 0.00293121843968,
			"0.015": 0.0,
			"0.016": 0.0,
			"0.017": 0.0,
			"0.018": 0.0,
			"0.019": 0.0,
			"0.02": 0.0,
			"0.021": 0.0,
			"0.022": 0.0,
			"0.023": 0.0,
			"0.024": 0.0,
			"0.025": 0.0
		}
	}
}
