{
	 "smiles": "O=C(OCC1=CC=CC=C1)C1=CC=CC=C1C(=O)OCC1=CC=CC=C1", 
	 "Tm": 315.65, 
	 "num_atms": 44, 
	 "gaussian": { 
		 "optdone": 1, 
		 "sigma_profile": "yes", 
		 "theory": "DFT", 
		 "functional": "B3LYP", 
		 "basiset": "6-31G**", 
		 "properties": { 
			 "R2extent": 13668.1523, 
			 "electric_dipole_moment_norm": 3.01551289999, 
			 "electric_quadrupole_moment_norm": 19.0741137529, 
			 "total_energy": -1150.1064609, 
			 "HOMO_LUMO_gap": 0.192, 
			 "cosmo_polarized_energy": -14.33, 
			 "cosmo_cavitation_energy": 49.78, 
			 "cosmo_dispersion_energy": -33.86, 
			 "cosmo_repulsion_energy": 2.58, 
			 "cosmo_total_nonelectrostatic_energy": 18.5, 
			 "SMD_solvation_energy": 9.54 
		},
		"coords": [
			{
				"x": 1.8466696688,
				"y": 0.6709014288,
				"z": -0.71583825,
				"element": "O" 
			},
			{
				"x": 1.0699515947,
				"y": 0.9139691002,
				"z": 0.1869251589,
				"element": "C" 
			},
			{
				"x": 0.0111616477,
				"y": 1.7458330897,
				"z": 0.0728168392,
				"element": "O" 
			},
			{
				"x": -0.1592421171,
				"y": 2.4169804537,
				"z": -1.2087931087,
				"element": "C" 
			},
			{
				"x": 0.5237995068,
				"y": 3.7614641624,
				"z": -1.2291862091,
				"element": "C" 
			},
			{
				"x": 1.8725098849,
				"y": 3.8712389637,
				"z": -1.5970951341,
				"element": "C" 
			},
			{
				"x": 2.5021818073,
				"y": 5.1159485127,
				"z": -1.6016024393,
				"element": "C" 
			},
			{
				"x": 1.7924614082,
				"y": 6.2635415754,
				"z": -1.2401997155,
				"element": "C" 
			},
			{
				"x": 0.4492507976,
				"y": 6.1629327645,
				"z": -0.873036601,
				"element": "C" 
			},
			{
				"x": -0.1796436815,
				"y": 4.9173076933,
				"z": -0.8677162086,
				"element": "C" 
			},
			{
				"x": 1.1932898831,
				"y": 0.3715512593,
				"z": 1.5762247621,
				"element": "C" 
			},
			{
				"x": 0.8040575774,
				"y": 1.1683321739,
				"z": 2.6605148747,
				"element": "C" 
			},
			{
				"x": 1.0422706273,
				"y": 0.7533113051,
				"z": 3.97017041,
				"element": "C" 
			},
			{
				"x": 1.6831882149,
				"y": -0.4623839111,
				"z": 4.2088059097,
				"element": "C" 
			},
			{
				"x": 2.0692401808,
				"y": -1.2657804507,
				"z": 3.1363215147,
				"element": "C" 
			},
			{
				"x": 1.814772205,
				"y": -0.8701068465,
				"z": 1.8199196755,
				"element": "C" 
			},
			{
				"x": 2.2033269018,
				"y": -1.8409233263,
				"z": 0.7435036139,
				"element": "C" 
			},
			{
				"x": 3.258975651,
				"y": -2.442717561,
				"z": 0.7387578431,
				"element": "O" 
			},
			{
				"x": 1.211433728,
				"y": -2.0206697937,
				"z": -0.1465202158,
				"element": "O" 
			},
			{
				"x": 1.5054015045,
				"y": -2.8650231965,
				"z": -1.2955099541,
				"element": "C" 
			},
			{
				"x": 1.0444043888,
				"y": -4.2851218333,
				"z": -1.0807721436,
				"element": "C" 
			},
			{
				"x": -0.2097874297,
				"y": -4.7001914708,
				"z": -1.544352483,
				"element": "C" 
			},
			{
				"x": -0.6437387405,
				"y": -6.0117370777,
				"z": -1.345628499,
				"element": "C" 
			},
			{
				"x": 0.1761663907,
				"y": -6.9230315799,
				"z": -0.6780689777,
				"element": "C" 
			},
			{
				"x": 1.4291418445,
				"y": -6.5177356961,
				"z": -0.2113949509,
				"element": "C" 
			},
			{
				"x": 1.8621757529,
				"y": -5.2071545695,
				"z": -0.4115307769,
				"element": "C" 
			},
			{
				"x": 0.2235324721,
				"y": 1.7613861091,
				"z": -1.9926491217,
				"element": "H" 
			},
			{
				"x": -1.2409906109,
				"y": 2.5236881511,
				"z": -1.31117419,
				"element": "H" 
			},
			{
				"x": 2.4217426283,
				"y": 2.9751227802,
				"z": -1.8689117017,
				"element": "H" 
			},
			{
				"x": 3.5467995122,
				"y": 5.1906730402,
				"z": -1.8900090607,
				"element": "H" 
			},
			{
				"x": 2.2835207829,
				"y": 7.2325298859,
				"z": -1.2475478652,
				"element": "H" 
			},
			{
				"x": -0.1083528553,
				"y": 7.0526002084,
				"z": -0.5944381428,
				"element": "H" 
			},
			{
				"x": -1.22676342,
				"y": 4.8404993616,
				"z": -0.5845031225,
				"element": "H" 
			},
			{
				"x": 0.3329591368,
				"y": 2.1245079252,
				"z": 2.464054021,
				"element": "H" 
			},
			{
				"x": 0.7388623265,
				"y": 1.3847138334,
				"z": 4.7998640545,
				"element": "H" 
			},
			{
				"x": 1.8818387255,
				"y": -0.7866272833,
				"z": 5.2259609996,
				"element": "H" 
			},
			{
				"x": 2.5652984811,
				"y": -2.2157195842,
				"z": 3.3051360613,
				"element": "H" 
			},
			{
				"x": 0.9627718358,
				"y": -2.394486316,
				"z": -2.1178408995,
				"element": "H" 
			},
			{
				"x": 2.578104349,
				"y": -2.8180159385,
				"z": -1.4899150293,
				"element": "H" 
			},
			{
				"x": -0.8486597374,
				"y": -3.9918378204,
				"z": -2.0664034798,
				"element": "H" 
			},
			{
				"x": -1.6180017306,
				"y": -6.3215671686,
				"z": -1.7130293073,
				"element": "H" 
			},
			{
				"x": -0.1581803633,
				"y": -7.9452056726,
				"z": -0.5242105687,
				"element": "H" 
			},
			{
				"x": 2.0712801648,
				"y": -7.2249630547,
				"z": 0.3061125391,
				"element": "H" 
			},
			{
				"x": 2.8310191044,
				"y": -4.8828336263,
				"z": -0.0444101209,
				"element": "H" 
			}
		],
		 "valence_orbital": [ 
			{
				"type": "occ",
				"energy": -0.2567,
				"method": "rhf"
			},
			{
				"type": "occ",
				"energy": -0.25343,
				"method": "rhf"
			},
			{
				"type": "occ",
				"energy": -0.25087,
				"method": "rhf"
			},
			{
				"type": "occ",
				"energy": -0.24828,
				"method": "rhf"
			},
			{
				"type": "occ",
				"energy": -0.24502,
				"method": "rhf"
			},
			{
				"type": "unocc",
				"energy": -0.05302,
				"method": "rhf"
			},
			{
				"type": "unocc",
				"energy": -0.02469,
				"method": "rhf"
			},
			{
				"type": "unocc",
				"energy": -0.01265,
				"method": "rhf"
			},
			{
				"type": "unocc",
				"energy": -0.00772,
				"method": "rhf"
			},
			{
				"type": "unocc",
				"energy": -0.00449,
				"method": "rhf"
			}
		],
		"cosmo_sigma_profile": { 
			"-0.025": 0.0,
			"-0.024": 0.0,
			"-0.023": 0.0,
			"-0.022": 0.0,
			"-0.021": 0.0,
			"-0.02": 0.0,
			"-0.019": 0.0,
			"-0.018": 0.0,
			"-0.017": 0.0,
			"-0.016": 0.0,
			"-0.015": 0.0,
			"-0.014": 0.0,
			"-0.013": 0.0,
			"-0.012": 0.0,
			"-0.011": 0.0,
			"-0.01": 0.0,
			"-0.009": 0.0,
			"-0.008": 0.165263540191,
			"-0.007": 8.77528361706,
			"-0.006": 26.4764502623,
			"-0.005": 34.8567646284,
			"-0.004": 35.0000492596,
			"-0.003": 34.4724666292,
			"-0.002": 24.6707945201,
			"-0.001": 23.7834637624,
			"0.0": 24.8195442272,
			"0.001": 28.8848456357,
			"0.002": 35.0378572416,
			"0.003": 33.4544300728,
			"0.004": 26.2133368418,
			"0.005": 28.7065068814,
			"0.006": 11.8355690158,
			"0.007": 5.78970522032,
			"0.008": 3.41869921885,
			"0.009": 3.0447261013,
			"0.01": 3.62036427475,
			"0.011": 3.59252161005,
			"0.012": 2.13214129982,
			"0.013": 0.162420296486,
			"0.014": 0.0,
			"0.015": 0.0,
			"0.016": 0.0,
			"0.017": 0.0,
			"0.018": 0.0,
			"0.019": 0.0,
			"0.02": 0.0,
			"0.021": 0.0,
			"0.022": 0.0,
			"0.023": 0.0,
			"0.024": 0.0,
			"0.025": 0.0
		}
	}
}
