{
	 "smiles": "OC(=O)C1=CC=C(S1)C1=NC2=C(S1)C=CC=C2", 
	 "Tm": 528.15, 
	 "num_atms": 24, 
	 "gaussian": { 
		 "optdone": 1, 
		 "sigma_profile": "yes", 
		 "theory": "DFT", 
		 "functional": "B3LYP", 
		 "basiset": "6-31G**", 
		 "properties": { 
			 "R2extent": 7093.8902, 
			 "electric_dipole_moment_norm": 5.37275380229, 
			 "electric_quadrupole_moment_norm": 14.6706267494, 
			 "total_energy": -1463.07314351, 
			 "HOMO_LUMO_gap": 0.13954, 
			 "cosmo_polarized_energy": -14.82, 
			 "cosmo_cavitation_energy": 32.73, 
			 "cosmo_dispersion_energy": -25.22, 
			 "cosmo_repulsion_energy": 1.83, 
			 "cosmo_total_nonelectrostatic_energy": 9.34, 
			 "SMD_solvation_energy": 4.42 
		},
		"coords": [
			{
				"x": 5.2078473001,
				"y": 0.3669608375,
				"z": 1.5432907334,
				"element": "O" 
			},
			{
				"x": 4.1365690854,
				"y": 0.8575156966,
				"z": 2.2200015331,
				"element": "C" 
			},
			{
				"x": 4.3025064804,
				"y": 1.5905800207,
				"z": 3.166996997,
				"element": "O" 
			},
			{
				"x": 2.7825748683,
				"y": 0.4690343893,
				"z": 1.7587955451,
				"element": "C" 
			},
			{
				"x": 1.6137065781,
				"y": 0.8939526436,
				"z": 2.3510951618,
				"element": "C" 
			},
			{
				"x": 0.4516833063,
				"y": 0.3869231584,
				"z": 1.7292757055,
				"element": "C" 
			},
			{
				"x": 0.7251051775,
				"y": -0.4337606362,
				"z": 0.6510516554,
				"element": "C" 
			},
			{
				"x": 2.4462294383,
				"y": -0.5809623442,
				"z": 0.4018195342,
				"element": "S" 
			},
			{
				"x": -0.2547355239,
				"y": -1.1021933624,
				"z": -0.1870959323,
				"element": "C" 
			},
			{
				"x": -1.5361816293,
				"y": -0.9871301234,
				"z": 0.0055661486,
				"element": "N" 
			},
			{
				"x": -2.2530500333,
				"y": -1.7160764447,
				"z": -0.9203209287,
				"element": "C" 
			},
			{
				"x": -1.4768269317,
				"y": -2.4263892052,
				"z": -1.8717624723,
				"element": "C" 
			},
			{
				"x": 0.2225884747,
				"y": -2.1416328184,
				"z": -1.5573661022,
				"element": "S" 
			},
			{
				"x": -2.0724137527,
				"y": -3.2048535044,
				"z": -2.8661031902,
				"element": "C" 
			},
			{
				"x": -3.46333037,
				"y": -3.2673753094,
				"z": -2.9010559345,
				"element": "C" 
			},
			{
				"x": -4.2462607861,
				"y": -2.5685090046,
				"z": -1.9643265757,
				"element": "C" 
			},
			{
				"x": -3.6543816371,
				"y": -1.7943404788,
				"z": -0.9754596057,
				"element": "C" 
			},
			{
				"x": 4.9482067133,
				"y": -0.2050610511,
				"z": 0.8071817816,
				"element": "H" 
			},
			{
				"x": 1.6250798162,
				"y": 1.5535992333,
				"z": 3.2100677743,
				"element": "H" 
			},
			{
				"x": -0.5644380511,
				"y": 0.5976540394,
				"z": 2.0376674152,
				"element": "H" 
			},
			{
				"x": -1.4735688738,
				"y": -3.7460976938,
				"z": -3.5912866354,
				"element": "H" 
			},
			{
				"x": -3.9493767979,
				"y": -3.8663241939,
				"z": -3.6651618405,
				"element": "H" 
			},
			{
				"x": -5.3284301753,
				"y": -2.6371328201,
				"z": -2.0175519603,
				"element": "H" 
			},
			{
				"x": -4.2438026763,
				"y": -1.2493810282,
				"z": -0.2457188073,
				"element": "H" 
			}
		],
		 "valence_orbital": [ 
			{
				"type": "occ",
				"energy": -0.28391,
				"method": "rhf"
			},
			{
				"type": "occ",
				"energy": -0.28266,
				"method": "rhf"
			},
			{
				"type": "occ",
				"energy": -0.28187,
				"method": "rhf"
			},
			{
				"type": "occ",
				"energy": -0.24777,
				"method": "rhf"
			},
			{
				"type": "occ",
				"energy": -0.23244,
				"method": "rhf"
			},
			{
				"type": "unocc",
				"energy": -0.0929,
				"method": "rhf"
			},
			{
				"type": "unocc",
				"energy": -0.03373,
				"method": "rhf"
			},
			{
				"type": "unocc",
				"energy": -0.02948,
				"method": "rhf"
			},
			{
				"type": "unocc",
				"energy": -0.01743,
				"method": "rhf"
			},
			{
				"type": "unocc",
				"energy": 0.00904,
				"method": "rhf"
			}
		],
		"cosmo_sigma_profile": { 
			"-0.025": 0.0,
			"-0.024": 0.0,
			"-0.023": 0.0,
			"-0.022": 0.0,
			"-0.021": 0.0,
			"-0.02": 0.0,
			"-0.019": 0.256115744827,
			"-0.018": 0.739593325868,
			"-0.017": 0.8707171992,
			"-0.016": 0.934804943879,
			"-0.015": 1.13317389091,
			"-0.014": 0.882945221703,
			"-0.013": 1.24286572932,
			"-0.012": 0.957130271761,
			"-0.011": 0.645892610495,
			"-0.01": 0.991842426822,
			"-0.009": 1.13889109932,
			"-0.008": 4.38792988004,
			"-0.007": 9.18214276803,
			"-0.006": 13.3460552709,
			"-0.005": 12.2580187537,
			"-0.004": 14.9679087026,
			"-0.003": 14.3076746334,
			"-0.002": 16.317625607,
			"-0.001": 22.2124230819,
			"0.0": 27.2713742344,
			"0.001": 29.8378576699,
			"0.002": 23.8231420884,
			"0.003": 17.9509291367,
			"0.004": 14.6136077142,
			"0.005": 5.47377423186,
			"0.006": 2.85921569079,
			"0.007": 4.78544675065,
			"0.008": 3.98083222222,
			"0.009": 4.36165535122,
			"0.01": 6.00114956134,
			"0.011": 6.55549168841,
			"0.012": 3.83895100072,
			"0.013": 0.677707369429,
			"0.014": 0.0,
			"0.015": 0.0,
			"0.016": 0.0,
			"0.017": 0.0,
			"0.018": 0.0,
			"0.019": 0.0,
			"0.02": 0.0,
			"0.021": 0.0,
			"0.022": 0.0,
			"0.023": 0.0,
			"0.024": 0.0,
			"0.0": 0.0
		}
	}
}
