{
	 "smiles": "FC1=CC=C(C=C1)S(=O)(=O)NC1=C(Cl)N=C2C=CC=CC2=N1", 
	 "Tm": 455.15, 
	 "num_atms": 31, 
	 "gaussian": { 
		 "optdone": 1, 
		 "sigma_profile": "yes", 
		 "theory": "DFT", 
		 "functional": "B3LYP", 
		 "basiset": "6-31G**", 
		 "properties": { 
			 "R2extent": 9538.3286, 
			 "electric_dipole_moment_norm": 2.6927475448, 
			 "electric_quadrupole_moment_norm": 26.4992706049, 
			 "total_energy": -1811.75805763, 
			 "HOMO_LUMO_gap": 0.16702, 
			 "cosmo_polarized_energy": -14.79, 
			 "cosmo_cavitation_energy": 39.77, 
			 "cosmo_dispersion_energy": -28.81, 
			 "cosmo_repulsion_energy": 2.09, 
			 "cosmo_total_nonelectrostatic_energy": 13.06, 
			 "SMD_solvation_energy": 2.98 
		},
		"coords": [
			{
				"x": 4.5661563515,
				"y": 5.3816848887,
				"z": 0.4076525538,
				"element": "F" 
			},
			{
				"x": 3.8243259322,
				"y": 4.3728265031,
				"z": -0.0797725349,
				"element": "C" 
			},
			{
				"x": 2.5023083371,
				"y": 4.6218218528,
				"z": -0.4339241882,
				"element": "C" 
			},
			{
				"x": 1.7344436771,
				"y": 3.5723393148,
				"z": -0.9354500372,
				"element": "C" 
			},
			{
				"x": 2.310760805,
				"y": 2.3084292493,
				"z": -1.0685030675,
				"element": "C" 
			},
			{
				"x": 3.6454755035,
				"y": 2.0731471903,
				"z": -0.7257746144,
				"element": "C" 
			},
			{
				"x": 4.411966236,
				"y": 3.1167819813,
				"z": -0.2169348714,
				"element": "C" 
			},
			{
				"x": 1.3468224824,
				"y": 0.984981384,
				"z": -1.7844565558,
				"element": "S" 
			},
			{
				"x": 0.0270592352,
				"y": 1.5055585443,
				"z": -2.1373819017,
				"element": "O" 
			},
			{
				"x": 2.2025895736,
				"y": 0.286565806,
				"z": -2.7471473439,
				"element": "O" 
			},
			{
				"x": 1.1570895841,
				"y": -0.1730445907,
				"z": -0.4988223662,
				"element": "N" 
			},
			{
				"x": -0.1325179947,
				"y": -0.5349302599,
				"z": -0.0489627549,
				"element": "C" 
			},
			{
				"x": -0.9503362719,
				"y": 0.3249393479,
				"z": 0.7661429159,
				"element": "C" 
			},
			{
				"x": -0.3480996239,
				"y": 1.8961909891,
				"z": 1.2579161676,
				"element": "Cl" 
			},
			{
				"x": -2.1158868311,
				"y": -0.0301990314,
				"z": 1.2070072945,
				"element": "N" 
			},
			{
				"x": -2.5617193403,
				"y": -1.284100907,
				"z": 0.9010805519,
				"element": "C" 
			},
			{
				"x": -3.8283543618,
				"y": -1.7179964876,
				"z": 1.3587693726,
				"element": "C" 
			},
			{
				"x": -4.2548096739,
				"y": -2.9965869953,
				"z": 1.0679670607,
				"element": "C" 
			},
			{
				"x": -3.4368076496,
				"y": -3.8795802232,
				"z": 0.3196199585,
				"element": "C" 
			},
			{
				"x": -2.1985825384,
				"y": -3.4797682864,
				"z": -0.1363402284,
				"element": "C" 
			},
			{
				"x": -1.739616629,
				"y": -2.1695893849,
				"z": 0.1426451539,
				"element": "C" 
			},
			{
				"x": -0.5311123894,
				"y": -1.7533396321,
				"z": -0.3293734367,
				"element": "N" 
			},
			{
				"x": 2.0935434892,
				"y": 5.6191025737,
				"z": -0.3166727804,
				"element": "H" 
			},
			{
				"x": 0.7010765658,
				"y": 3.7241947967,
				"z": -1.2238217295,
				"element": "H" 
			},
			{
				"x": 4.0827379761,
				"y": 1.0904038921,
				"z": -0.8628779632,
				"element": "H" 
			},
			{
				"x": 5.4494226756,
				"y": 2.9763785591,
				"z": 0.0646949283,
				"element": "H" 
			},
			{
				"x": 1.6216422513,
				"y": -1.0153739429,
				"z": -0.8382356819,
				"element": "H" 
			},
			{
				"x": -4.4325763142,
				"y": -1.0241080702,
				"z": 1.9334875965,
				"element": "H" 
			},
			{
				"x": -5.2261066071,
				"y": -3.3354271835,
				"z": 1.4152788715,
				"element": "H" 
			},
			{
				"x": -3.7943304584,
				"y": -4.8818226385,
				"z": 0.1034414199,
				"element": "H" 
			},
			{
				"x": -1.558463992,
				"y": -4.1365792394,
				"z": -0.7158517895,
				"element": "H" 
			}
		],
		 "valence_orbital": [ 
			{
				"type": "occ",
				"energy": -0.28423,
				"method": "rhf"
			},
			{
				"type": "occ",
				"energy": -0.27529,
				"method": "rhf"
			},
			{
				"type": "occ",
				"energy": -0.27004,
				"method": "rhf"
			},
			{
				"type": "occ",
				"energy": -0.25627,
				"method": "rhf"
			},
			{
				"type": "occ",
				"energy": -0.25042,
				"method": "rhf"
			},
			{
				"type": "unocc",
				"energy": -0.0834,
				"method": "rhf"
			},
			{
				"type": "unocc",
				"energy": -0.04649,
				"method": "rhf"
			},
			{
				"type": "unocc",
				"energy": -0.03793,
				"method": "rhf"
			},
			{
				"type": "unocc",
				"energy": -0.03334,
				"method": "rhf"
			},
			{
				"type": "unocc",
				"energy": -0.00296,
				"method": "rhf"
			}
		],
		"cosmo_sigma_profile": { 
			"-0.025": 0.0,
			"-0.024": 0.0,
			"-0.023": 0.0,
			"-0.022": 0.0,
			"-0.021": 0.0,
			"-0.02": 0.0,
			"-0.019": 0.0,
			"-0.018": 0.0,
			"-0.017": 0.0,
			"-0.016": 0.0,
			"-0.015": 0.104830843302,
			"-0.014": 0.881041431888,
			"-0.013": 0.438480913068,
			"-0.012": 0.156608065376,
			"-0.011": 1.39203627607,
			"-0.01": 0.665966187449,
			"-0.009": 2.58648547095,
			"-0.008": 7.89106115535,
			"-0.007": 15.3708455862,
			"-0.006": 17.3409831887,
			"-0.005": 16.3917018672,
			"-0.004": 15.9889747239,
			"-0.003": 17.3251174452,
			"-0.002": 19.0709772049,
			"-0.001": 25.4539653093,
			"0.0": 31.6242348618,
			"0.001": 33.9628567051,
			"0.002": 26.4441982437,
			"0.003": 26.8978491571,
			"0.004": 16.943767582,
			"0.005": 8.62668274934,
			"0.006": 5.48696423098,
			"0.007": 6.13183070269,
			"0.008": 5.13951764945,
			"0.009": 8.03771300379,
			"0.01": 9.6819059038,
			"0.011": 2.6766372378,
			"0.012": 0.648043587576,
			"0.013": 0.0303430809157,
			"0.014": 0.0,
			"0.015": 0.0,
			"0.016": 0.0,
			"0.017": 0.0,
			"0.018": 0.0,
			"0.019": 0.0,
			"0.02": 0.0,
			"0.021": 0.0,
			"0.022": 0.0,
			"0.023": 0.0,
			"0.024": 0.0,
			"0.025": 0.0
		}
	}
}
