{
	 "smiles": "COC1=CC=CC2=C1C(=O)C=C(O2)C1=CC=CC=C1", 
	 "Tm": 402.65, 
	 "num_atms": 31, 
	 "gaussian": { 
		 "optdone": 1, 
		 "sigma_profile": "yes", 
		 "theory": "DFT", 
		 "functional": "B3LYP", 
		 "basiset": "6-31G**", 
		 "properties": { 
			 "R2extent": 6065.681, 
			 "electric_dipole_moment_norm": 4.1321138767, 
			 "electric_quadrupole_moment_norm": 16.2726913886, 
			 "total_energy": -842.586076963, 
			 "HOMO_LUMO_gap": 0.1625, 
			 "cosmo_polarized_energy": -12.64, 
			 "cosmo_cavitation_energy": 35.15, 
			 "cosmo_dispersion_energy": -25.75, 
			 "cosmo_repulsion_energy": 1.93, 
			 "cosmo_total_nonelectrostatic_energy": 11.33, 
			 "SMD_solvation_energy": 7.35 
		},
		"coords": [
			{
				"x": 2.4144250076,
				"y": 1.3744056911,
				"z": 4.1648072407,
				"element": "C" 
			},
			{
				"x": 1.7575618863,
				"y": 2.3847837232,
				"z": 3.3898760112,
				"element": "O" 
			},
			{
				"x": 0.5550753265,
				"y": 2.0563472974,
				"z": 2.835601727,
				"element": "C" 
			},
			{
				"x": -0.5753165484,
				"y": 2.6394739314,
				"z": 3.4065387635,
				"element": "C" 
			},
			{
				"x": -1.8465494026,
				"y": 2.4160644161,
				"z": 2.870314064,
				"element": "C" 
			},
			{
				"x": -2.005622137,
				"y": 1.6071248279,
				"z": 1.7548674009,
				"element": "C" 
			},
			{
				"x": -0.8698927037,
				"y": 1.0344677329,
				"z": 1.1771534539,
				"element": "C" 
			},
			{
				"x": 0.43119353,
				"y": 1.2254858359,
				"z": 1.6858120353,
				"element": "C" 
			},
			{
				"x": 1.5718021418,
				"y": 0.6076858976,
				"z": 0.9601548929,
				"element": "C" 
			},
			{
				"x": 2.7502011602,
				"y": 0.6938212323,
				"z": 1.3106030979,
				"element": "O" 
			},
			{
				"x": 1.1920446081,
				"y": -0.146040734,
				"z": -0.2301410302,
				"element": "C" 
			},
			{
				"x": -0.092370998,
				"y": -0.2889270575,
				"z": -0.6367854247,
				"element": "C" 
			},
			{
				"x": -1.1161636137,
				"y": 0.2783243873,
				"z": 0.0584014611,
				"element": "O" 
			},
			{
				"x": -0.5628398276,
				"y": -1.0492550543,
				"z": -1.8101825705,
				"element": "C" 
			},
			{
				"x": -1.9077703861,
				"y": -1.4439967218,
				"z": -1.9095743683,
				"element": "C" 
			},
			{
				"x": -2.3491439037,
				"y": -2.1771285076,
				"z": -3.009303393,
				"element": "C" 
			},
			{
				"x": -1.4598945838,
				"y": -2.5229491038,
				"z": -4.0279961867,
				"element": "C" 
			},
			{
				"x": -0.1229916004,
				"y": -2.1261866814,
				"z": -3.9424737778,
				"element": "C" 
			},
			{
				"x": 0.3227967048,
				"y": -1.3936920749,
				"z": -2.8459508162,
				"element": "C" 
			},
			{
				"x": 3.3017987865,
				"y": 1.8529868923,
				"z": 4.5829098215,
				"element": "H" 
			},
			{
				"x": 2.7190696816,
				"y": 0.5354929255,
				"z": 3.5366104759,
				"element": "H" 
			},
			{
				"x": 1.7652448414,
				"y": 1.0360232459,
				"z": 4.9828966195,
				"element": "H" 
			},
			{
				"x": -0.433302868,
				"y": 3.2766243183,
				"z": 4.2726122042,
				"element": "H" 
			},
			{
				"x": -2.7153682109,
				"y": 2.8772171566,
				"z": 3.3301870551,
				"element": "H" 
			},
			{
				"x": -2.9761354738,
				"y": 1.4169865775,
				"z": 1.3107032767,
				"element": "H" 
			},
			{
				"x": 1.9977522606,
				"y": -0.6259834001,
				"z": -0.7701692224,
				"element": "H" 
			},
			{
				"x": -2.6000321665,
				"y": -1.1788422927,
				"z": -1.1191292388,
				"element": "H" 
			},
			{
				"x": -3.390452163,
				"y": -2.4797402604,
				"z": -3.069040943,
				"element": "H" 
			},
			{
				"x": -1.8059205493,
				"y": -3.0927092927,
				"z": -4.8853399224,
				"element": "H" 
			},
			{
				"x": 0.5729927073,
				"y": -2.3801360112,
				"z": -4.7363905533,
				"element": "H" 
			},
			{
				"x": 1.3576084937,
				"y": -1.070728897,
				"z": -2.8045721539,
				"element": "H" 
			}
		],
		 "valence_orbital": [ 
			{
				"type": "occ",
				"energy": -0.26481,
				"method": "rhf"
			},
			{
				"type": "occ",
				"energy": -0.25432,
				"method": "rhf"
			},
			{
				"type": "occ",
				"energy": -0.24615,
				"method": "rhf"
			},
			{
				"type": "occ",
				"energy": -0.23466,
				"method": "rhf"
			},
			{
				"type": "occ",
				"energy": -0.22776,
				"method": "rhf"
			},
			{
				"type": "unocc",
				"energy": -0.06526,
				"method": "rhf"
			},
			{
				"type": "unocc",
				"energy": -0.03264,
				"method": "rhf"
			},
			{
				"type": "unocc",
				"energy": -0.0139,
				"method": "rhf"
			},
			{
				"type": "unocc",
				"energy": -0.00248,
				"method": "rhf"
			},
			{
				"type": "unocc",
				"energy": 0.0257,
				"method": "rhf"
			}
		],
		"cosmo_sigma_profile": { 
			"-0.025": 0.0,
			"-0.024": 0.0,
			"-0.023": 0.0,
			"-0.022": 0.0,
			"-0.021": 0.0,
			"-0.02": 0.0,
			"-0.019": 0.0,
			"-0.018": 0.0,
			"-0.017": 0.0,
			"-0.016": 0.0,
			"-0.015": 0.0,
			"-0.014": 0.0,
			"-0.013": 0.0,
			"-0.012": 0.0,
			"-0.011": 0.0,
			"-0.01": 0.0,
			"-0.009": 0.459505619195,
			"-0.008": 2.23813789842,
			"-0.007": 7.54573037222,
			"-0.006": 16.4933906727,
			"-0.005": 21.0826314826,
			"-0.004": 21.182361775,
			"-0.003": 21.7863133197,
			"-0.002": 24.151782254,
			"-0.001": 25.5334560821,
			"0.0": 23.6582930077,
			"0.001": 26.0810704849,
			"0.002": 23.7503141981,
			"0.003": 20.8022706263,
			"0.004": 16.7681540455,
			"0.005": 5.11854615031,
			"0.006": 2.20832654332,
			"0.007": 2.44185027591,
			"0.008": 2.57028064373,
			"0.009": 1.83822885694,
			"0.01": 2.55426463161,
			"0.011": 3.71448206522,
			"0.012": 3.2541565736,
			"0.013": 3.81372661613,
			"0.014": 3.17710224082,
			"0.015": 0.624239674909,
			"0.016": 0.0,
			"0.017": 0.0,
			"0.018": 0.0,
			"0.019": 0.0,
			"0.02": 0.0,
			"0.021": 0.0,
			"0.022": 0.0,
			"0.023": 0.0,
			"0.024": 0.0,
			"0.025": 0.0
		}
	}
}
