{
	 "smiles": "CC1=C(Br)C=C(I)C(N)=N1", 
	 "Tm": 409.15, 
	 "num_atms": 16, 
	 "gaussian": { 
		 "optdone": 1, 
		 "sigma_profile": "yes", 
		 "theory": "DFT", 
		 "functional": "B3LYP", 
		 "basiset": "6-31G**", 
		 "properties": { 
			 "R2extent": 3711.7752, 
			 "electric_dipole_moment_norm": 1.78016049557, 
			 "electric_quadrupole_moment_norm": 5.60046703767, 
			 "total_energy": -2924.56108067, 
			 "HOMO_LUMO_gap": 0.16788, 
			 "cosmo_polarized_energy": -7.1, 
			 "cosmo_cavitation_energy": 25.26, 
			 "cosmo_dispersion_energy": -20.62, 
			 "cosmo_repulsion_energy": 1.64, 
			 "cosmo_total_nonelectrostatic_energy": 6.29, 
			 "SMD_solvation_energy": 1.15 
		},
		"coords": [
			{
				"x": 0.0372727644,
				"y": 1.2535491745,
				"z": 3.2425622135,
				"element": "C" 
			},
			{
				"x": 0.0482231294,
				"y": 1.1386623879,
				"z": 1.7423949553,
				"element": "C" 
			},
			{
				"x": 0.5514038067,
				"y": 2.14442019,
				"z": 0.905710562,
				"element": "C" 
			},
			{
				"x": 1.2722109056,
				"y": 3.7632024101,
				"z": 1.6224414323,
				"element": "Br" 
			},
			{
				"x": 0.5349904048,
				"y": 1.9665405563,
				"z": -0.4766112187,
				"element": "C" 
			},
			{
				"x": 0.0098413791,
				"y": 0.7924951532,
				"z": -0.9968782408,
				"element": "C" 
			},
			{
				"x": -0.0222193198,
				"y": 0.5036526744,
				"z": -3.0982239611,
				"element": "I" 
			},
			{
				"x": -0.4883844741,
				"y": -0.1871630623,
				"z": -0.1075900117,
				"element": "C" 
			},
			{
				"x": -1.0672628298,
				"y": -1.3566619849,
				"z": -0.5236890983,
				"element": "N" 
			},
			{
				"x": -0.4483148728,
				"y": 0.0104906996,
				"z": 1.2206851162,
				"element": "N" 
			},
			{
				"x": -0.5475250837,
				"y": 2.1212631924,
				"z": 3.5658879412,
				"element": "H" 
			},
			{
				"x": -0.3958707215,
				"y": 0.3480846493,
				"z": 3.6685369631,
				"element": "H" 
			},
			{
				"x": 1.050453396,
				"y": 1.3907280029,
				"z": 3.635022045,
				"element": "H" 
			},
			{
				"x": 0.9267171805,
				"y": 2.7370345763,
				"z": -1.12936438,
				"element": "H" 
			},
			{
				"x": -0.87318261,
				"y": -1.6958318893,
				"z": -1.4529376271,
				"element": "H" 
			},
			{
				"x": -1.2010530548,
				"y": -2.0467667303,
				"z": 0.1999533091,
				"element": "H" 
			}
		],
		 "valence_orbital": [ 
			{
				"type": "occ",
				"energy": -0.29594,
				"method": "rhf"
			},
			{
				"type": "occ",
				"energy": -0.28229,
				"method": "rhf"
			},
			{
				"type": "occ",
				"energy": -0.26606,
				"method": "rhf"
			},
			{
				"type": "occ",
				"energy": -0.2626,
				"method": "rhf"
			},
			{
				"type": "occ",
				"energy": -0.21754,
				"method": "rhf"
			},
			{
				"type": "unocc",
				"energy": -0.04966,
				"method": "rhf"
			},
			{
				"type": "unocc",
				"energy": -0.03396,
				"method": "rhf"
			},
			{
				"type": "unocc",
				"energy": -0.00995,
				"method": "rhf"
			},
			{
				"type": "unocc",
				"energy": 0.01175,
				"method": "rhf"
			},
			{
				"type": "unocc",
				"energy": 0.03431,
				"method": "rhf"
			}
		],
		"cosmo_sigma_profile": { 
			"-0.025": 0.0,
			"-0.024": 0.0,
			"-0.023": 0.0,
			"-0.022": 0.0,
			"-0.021": 0.0,
			"-0.02": 0.0,
			"-0.019": 0.0,
			"-0.018": 0.0,
			"-0.017": 0.0,
			"-0.016": 0.0,
			"-0.015": 0.0,
			"-0.014": 0.161045066829,
			"-0.013": 1.05773142069,
			"-0.012": 1.77726101288,
			"-0.011": 1.99916782466,
			"-0.01": 2.45517249274,
			"-0.009": 1.67974505178,
			"-0.008": 3.04565369992,
			"-0.007": 4.62762565171,
			"-0.006": 4.67890333054,
			"-0.005": 8.07145145734,
			"-0.004": 10.569436164,
			"-0.003": 12.0157942412,
			"-0.002": 13.981336072,
			"-0.001": 17.509608785,
			"0.0": 20.3587486719,
			"0.001": 25.5342504831,
			"0.002": 23.005139205,
			"0.003": 17.1595510685,
			"0.004": 20.4269049094,
			"0.005": 7.83159048711,
			"0.006": 2.35987770348,
			"0.007": 2.23808420299,
			"0.008": 1.89725591813,
			"0.009": 1.66296055209,
			"0.01": 1.40743853328,
			"0.011": 1.31197542122,
			"0.012": 0.879871511058,
			"0.013": 0.121024608628,
			"0.014": 0.0,
			"0.015": 0.0,
			"0.016": 0.0,
			"0.017": 0.0,
			"0.018": 0.0,
			"0.019": 0.0,
			"0.02": 0.0,
			"0.021": 0.0,
			"0.022": 0.0,
			"0.023": 0.0,
			"0.024": 0.0,
			"0.025": 0.0
		}
	}
}
