{
	 "smiles": "NCCCNC(=O)C1=CC(O)=CC=C1", 
	 "Tm": 410.15, 
	 "num_atms": 28, 
	 "gaussian": { 
		 "optdone": 1, 
		 "sigma_profile": "yes", 
		 "theory": "DFT", 
		 "functional": "B3LYP", 
		 "basiset": "6-31G**", 
		 "properties": { 
			 "R2extent": 5541.7352, 
			 "electric_dipole_moment_norm": 3.72009863041, 
			 "electric_quadrupole_moment_norm": 15.7690922554, 
			 "total_energy": -649.458356116, 
			 "HOMO_LUMO_gap": 0.19761, 
			 "cosmo_polarized_energy": -18.89, 
			 "cosmo_cavitation_energy": 31.82, 
			 "cosmo_dispersion_energy": -22.8, 
			 "cosmo_repulsion_energy": 1.86, 
			 "cosmo_total_nonelectrostatic_energy": 10.88, 
			 "SMD_solvation_energy": 4.32 
		},
		"coords": [
			{
				"x": 0.0476841176,
				"y": -3.3818651643,
				"z": -0.8988225055,
				"element": "N" 
			},
			{
				"x": -0.7050195702,
				"y": -2.2390514446,
				"z": -0.3742399606,
				"element": "C" 
			},
			{
				"x": -0.0421618263,
				"y": -1.7042260138,
				"z": 0.8978395819,
				"element": "C" 
			},
			{
				"x": -0.8316971362,
				"y": -0.5546559156,
				"z": 1.5366885958,
				"element": "C" 
			},
			{
				"x": -0.2009421495,
				"y": -0.0695955122,
				"z": 2.7628535016,
				"element": "N" 
			},
			{
				"x": 0.4172550125,
				"y": 1.1374723175,
				"z": 2.9956061387,
				"element": "C" 
			},
			{
				"x": 1.2922841344,
				"y": 1.2384715442,
				"z": 3.8523198523,
				"element": "O" 
			},
			{
				"x": -0.0327509259,
				"y": 2.343944374,
				"z": 2.2169986915,
				"element": "C" 
			},
			{
				"x": 0.9407883584,
				"y": 3.3099502632,
				"z": 1.9350927413,
				"element": "C" 
			},
			{
				"x": 0.5932363047,
				"y": 4.4860640387,
				"z": 1.2701495904,
				"element": "C" 
			},
			{
				"x": 1.5060732356,
				"y": 5.4519956094,
				"z": 0.9573190583,
				"element": "O" 
			},
			{
				"x": -0.7389831615,
				"y": 4.7160482547,
				"z": 0.9017415946,
				"element": "C" 
			},
			{
				"x": -1.7089971303,
				"y": 3.7666929966,
				"z": 1.2098790066,
				"element": "C" 
			},
			{
				"x": -1.3673899774,
				"y": 2.5787622051,
				"z": 1.8619769925,
				"element": "C" 
			},
			{
				"x": -0.4297958457,
				"y": -3.7717579443,
				"z": -1.7075494509,
				"element": "H" 
			},
			{
				"x": 0.9582046952,
				"y": -3.0706056462,
				"z": -1.230693898,
				"element": "H" 
			},
			{
				"x": -0.8262898791,
				"y": -1.4082856024,
				"z": -1.0939994438,
				"element": "H" 
			},
			{
				"x": -1.7171978606,
				"y": -2.5886630766,
				"z": -0.1333209742,
				"element": "H" 
			},
			{
				"x": 0.9734289672,
				"y": -1.3539571164,
				"z": 0.6691617732,
				"element": "H" 
			},
			{
				"x": 0.0629004844,
				"y": -2.5339254838,
				"z": 1.6079890731,
				"element": "H" 
			},
			{
				"x": -0.9105139511,
				"y": 0.2788881888,
				"z": 0.8364467273,
				"element": "H" 
			},
			{
				"x": -1.8567484636,
				"y": -0.8883297761,
				"z": 1.7530809202,
				"element": "H" 
			},
			{
				"x": 0.1729488859,
				"y": -0.7858590104,
				"z": 3.3754557712,
				"element": "H" 
			},
			{
				"x": 1.9616243507,
				"y": 3.1296209372,
				"z": 2.261753745,
				"element": "H" 
			},
			{
				"x": 2.3731156896,
				"y": 5.1862280584,
				"z": 1.2907647478,
				"element": "H" 
			},
			{
				"x": -0.9903368648,
				"y": 5.6402870559,
				"z": 0.3920220221,
				"element": "H" 
			},
			{
				"x": -2.7449402855,
				"y": 3.9572265274,
				"z": 0.9446290255,
				"element": "H" 
			},
			{
				"x": -2.1372792087,
				"y": 1.8603253357,
				"z": 2.1216570822,
				"element": "H" 
			}
		],
		 "valence_orbital": [ 
			{
				"type": "occ",
				"energy": -0.26184,
				"method": "rhf"
			},
			{
				"type": "occ",
				"energy": -0.2512,
				"method": "rhf"
			},
			{
				"type": "occ",
				"energy": -0.23987,
				"method": "rhf"
			},
			{
				"type": "occ",
				"energy": -0.2369,
				"method": "rhf"
			},
			{
				"type": "occ",
				"energy": -0.22715,
				"method": "rhf"
			},
			{
				"type": "unocc",
				"energy": -0.02954,
				"method": "rhf"
			},
			{
				"type": "unocc",
				"energy": 0.00392,
				"method": "rhf"
			},
			{
				"type": "unocc",
				"energy": 0.06009,
				"method": "rhf"
			},
			{
				"type": "unocc",
				"energy": 0.07145,
				"method": "rhf"
			},
			{
				"type": "unocc",
				"energy": 0.07514,
				"method": "rhf"
			}
		],
		"cosmo_sigma_profile": { 
			"-0.025": 0.0,
			"-0.024": 0.0,
			"-0.023": 0.0,
			"-0.022": 0.0,
			"-0.021": 0.0,
			"-0.02": 0.0,
			"-0.019": 0.0,
			"-0.018": 0.438155291526,
			"-0.017": 1.13887726914,
			"-0.016": 0.980768151397,
			"-0.015": 1.26551396263,
			"-0.014": 1.01025010738,
			"-0.013": 1.07615773674,
			"-0.012": 1.93464725258,
			"-0.011": 1.72822185619,
			"-0.01": 2.83387609439,
			"-0.009": 4.92188355521,
			"-0.008": 5.02138973845,
			"-0.007": 4.70996669826,
			"-0.006": 10.2746885288,
			"-0.005": 11.966276714,
			"-0.004": 20.5134517729,
			"-0.003": 24.723597318,
			"-0.002": 23.768987665,
			"-0.001": 17.568968711,
			"0.0": 14.108254761,
			"0.001": 10.8092032606,
			"0.002": 10.9128626893,
			"0.003": 14.0304610112,
			"0.004": 13.8281208551,
			"0.005": 9.67453458358,
			"0.006": 4.64371041381,
			"0.007": 2.79807094989,
			"0.008": 3.96272621278,
			"0.009": 3.53289352847,
			"0.01": 3.90530878743,
			"0.011": 4.55754784909,
			"0.012": 2.51538442176,
			"0.013": 3.81330459816,
			"0.014": 6.39466682571,
			"0.015": 1.48675460886,
			"0.016": 0.648225528298,
			"0.017": 0.33653562734,
			"0.018": 0.851253896035,
			"0.019": 0.433407893889,
			"0.02": 0.369473630061,
			"0.021": 0.0,
			"0.022": 0.0,
			"0.023": 0.0,
			"0.024": 0.0,
			"0.025": 0.0
		}
	}
}
