{
	 "smiles": "NS(=O)(=O)C1=C2C=CC=NC2=C(F)C=C1", 
	 "Tm": 530.15, 
	 "num_atms": 22, 
	 "gaussian": { 
		 "optdone": 1, 
		 "sigma_profile": "yes", 
		 "theory": "DFT", 
		 "functional": "B3LYP", 
		 "basiset": "6-31G**", 
		 "properties": { 
			 "R2extent": 3489.9215, 
			 "electric_dipole_moment_norm": 3.16863121553, 
			 "electric_quadrupole_moment_norm": 16.4778504812, 
			 "total_energy": -1105.07832037, 
			 "HOMO_LUMO_gap": 0.17445, 
			 "cosmo_polarized_energy": -17.04, 
			 "cosmo_cavitation_energy": 27.98, 
			 "cosmo_dispersion_energy": -21.25, 
			 "cosmo_repulsion_energy": 1.57, 
			 "cosmo_total_nonelectrostatic_energy": 8.3, 
			 "SMD_solvation_energy": 3.58 
		},
		"coords": [
			{
				"x": 0.6806642854,
				"y": -0.7974328181,
				"z": 2.0649305478,
				"element": "N" 
			},
			{
				"x": -0.8391337153,
				"y": -0.8931025991,
				"z": 1.3154878035,
				"element": "S" 
			},
			{
				"x": -1.4089996956,
				"y": -2.2329190236,
				"z": 1.4942210318,
				"element": "O" 
			},
			{
				"x": -1.5594927601,
				"y": 0.2981227794,
				"z": 1.7769141281,
				"element": "O" 
			},
			{
				"x": -0.4091164607,
				"y": -0.7239976869,
				"z": -0.4184883674,
				"element": "C" 
			},
			{
				"x": 0.1485249253,
				"y": 0.4808341761,
				"z": -0.9504825077,
				"element": "C" 
			},
			{
				"x": 0.4168504217,
				"y": 1.6626334238,
				"z": -0.2088774577,
				"element": "C" 
			},
			{
				"x": 0.9668338349,
				"y": 2.747742436,
				"z": -0.849497284,
				"element": "C" 
			},
			{
				"x": 1.2502832725,
				"y": 2.6661576234,
				"z": -2.2335243164,
				"element": "C" 
			},
			{
				"x": 1.0110786646,
				"y": 1.5987937439,
				"z": -2.9674878502,
				"element": "N" 
			},
			{
				"x": 0.4671536518,
				"y": 0.5193002531,
				"z": -2.3469663823,
				"element": "C" 
			},
			{
				"x": 0.1949916525,
				"y": -0.638122472,
				"z": -3.1353494676,
				"element": "C" 
			},
			{
				"x": 0.4909654129,
				"y": -0.5948730437,
				"z": -4.4362069471,
				"element": "F" 
			},
			{
				"x": -0.3559797029,
				"y": -1.7760625199,
				"z": -2.6031189613,
				"element": "C" 
			},
			{
				"x": -0.6577541952,
				"y": -1.8143530625,
				"z": -1.2255974792,
				"element": "C" 
			},
			{
				"x": 0.5504056672,
				"y": -0.3695630271,
				"z": 2.9797198881,
				"element": "H" 
			},
			{
				"x": 1.0874077276,
				"y": -1.7256849748,
				"z": 2.1605717608,
				"element": "H" 
			},
			{
				"x": 0.1708141125,
				"y": 1.7061811185,
				"z": 0.8439458816,
				"element": "H" 
			},
			{
				"x": 1.1792548346,
				"y": 3.6638945192,
				"z": -0.3078496966,
				"element": "H" 
			},
			{
				"x": 1.6874382439,
				"y": 3.5199964131,
				"z": -2.7492493119,
				"element": "H" 
			},
			{
				"x": -0.5496663952,
				"y": -2.6287504783,
				"z": -3.2437100853,
				"element": "H" 
			},
			{
				"x": -1.0919237822,
				"y": -2.7061947806,
				"z": -0.7886849268,
				"element": "H" 
			}
		],
		 "valence_orbital": [ 
			{
				"type": "occ",
				"energy": -0.31388,
				"method": "rhf"
			},
			{
				"type": "occ",
				"energy": -0.29519,
				"method": "rhf"
			},
			{
				"type": "occ",
				"energy": -0.27477,
				"method": "rhf"
			},
			{
				"type": "occ",
				"energy": -0.27011,
				"method": "rhf"
			},
			{
				"type": "occ",
				"energy": -0.25044,
				"method": "rhf"
			},
			{
				"type": "unocc",
				"energy": -0.07599,
				"method": "rhf"
			},
			{
				"type": "unocc",
				"energy": -0.03837,
				"method": "rhf"
			},
			{
				"type": "unocc",
				"energy": -0.01014,
				"method": "rhf"
			},
			{
				"type": "unocc",
				"energy": 0.04891,
				"method": "rhf"
			},
			{
				"type": "unocc",
				"energy": 0.06724,
				"method": "rhf"
			}
		],
		"cosmo_sigma_profile": { 
			"-0.025": 0.0,
			"-0.024": 0.0,
			"-0.023": 0.0,
			"-0.022": 0.0,
			"-0.021": 0.0,
			"-0.02": 0.0,
			"-0.019": 0.0,
			"-0.018": 0.0,
			"-0.017": 0.0,
			"-0.016": 0.0356926116721,
			"-0.015": 1.77887150476,
			"-0.014": 2.83518861354,
			"-0.013": 3.0828391879,
			"-0.012": 3.11511593118,
			"-0.011": 1.9347500217,
			"-0.01": 1.06670853936,
			"-0.009": 2.56826366893,
			"-0.008": 6.49457310379,
			"-0.007": 10.8021785161,
			"-0.006": 11.1464460601,
			"-0.005": 8.73188177877,
			"-0.004": 8.1651891424,
			"-0.003": 8.45837135383,
			"-0.002": 15.0143801099,
			"-0.001": 20.8563242799,
			"0.0": 22.7363122592,
			"0.001": 16.5037524674,
			"0.002": 9.38188553942,
			"0.003": 12.7644303618,
			"0.004": 8.56322573428,
			"0.005": 4.94889453038,
			"0.006": 5.38383104645,
			"0.007": 5.00780662046,
			"0.008": 5.2255268421,
			"0.009": 5.63655445,
			"0.01": 8.95571878113,
			"0.011": 9.00605853373,
			"0.012": 3.06817474253,
			"0.013": 0.872071060102,
			"0.014": 1.0049811035,
			"0.015": 0.276683976755,
			"0.016": 0.0,
			"0.017": 0.0,
			"0.018": 0.0,
			"0.019": 0.0,
			"0.02": 0.0,
			"0.021": 0.0,
			"0.022": 0.0,
			"0.023": 0.0,
			"0.024": 0.0,
			"0.025": 0.0
		}
	}
}
