{
	 "smiles": "COC(=O)C1=CC(NC(=O)OCC(F)(F)F)=C(C)C=C1", 
	 "Tm": 395.15, 
	 "num_atms": 32, 
	 "gaussian": { 
		 "optdone": 1, 
		 "sigma_profile": "yes", 
		 "theory": "DFT", 
		 "functional": "B3LYP", 
		 "basiset": "6-31G**", 
		 "properties": { 
			 "R2extent": 8726.3995, 
			 "electric_dipole_moment_norm": 3.08829768643, 
			 "electric_quadrupole_moment_norm": 22.006728788, 
			 "total_energy": -1119.72418455, 
			 "HOMO_LUMO_gap": 0.18672, 
			 "cosmo_polarized_energy": -14.84, 
			 "cosmo_cavitation_energy": 38.85, 
			 "cosmo_dispersion_energy": -27.06, 
			 "cosmo_repulsion_energy": 2.04, 
			 "cosmo_total_nonelectrostatic_energy": 13.83, 
			 "SMD_solvation_energy": 10.23 
		},
		"coords": [
			{
				"x": 2.8160672743,
				"y": 3.8338141515,
				"z": -0.3909625542,
				"element": "C" 
			},
			{
				"x": 1.6512350127,
				"y": 2.9961965756,
				"z": -0.413496779,
				"element": "O" 
			},
			{
				"x": 0.9166099563,
				"y": 3.0595920931,
				"z": -1.5460044929,
				"element": "C" 
			},
			{
				"x": 1.2079183113,
				"y": 3.7726204392,
				"z": -2.4874153054,
				"element": "O" 
			},
			{
				"x": -0.2764129137,
				"y": 2.1653847604,
				"z": -1.5063498539,
				"element": "C" 
			},
			{
				"x": -0.5614656883,
				"y": 1.3658541659,
				"z": -0.3938241162,
				"element": "C" 
			},
			{
				"x": -1.6927894597,
				"y": 0.5433374812,
				"z": -0.4038948721,
				"element": "C" 
			},
			{
				"x": -2.0303147792,
				"y": -0.2835208866,
				"z": 0.6910537324,
				"element": "N" 
			},
			{
				"x": -1.3709465909,
				"y": -0.4298940045,
				"z": 1.8775920095,
				"element": "C" 
			},
			{
				"x": -0.346281749,
				"y": 0.1102499763,
				"z": 2.2374237688,
				"element": "O" 
			},
			{
				"x": -2.0943509454,
				"y": -1.3126921057,
				"z": 2.6509727211,
				"element": "O" 
			},
			{
				"x": -1.4962145123,
				"y": -1.692338762,
				"z": 3.8828655919,
				"element": "C" 
			},
			{
				"x": -0.9403282301,
				"y": -3.1015972924,
				"z": 3.7657471096,
				"element": "C" 
			},
			{
				"x": -0.0197298107,
				"y": -3.1883070424,
				"z": 2.788339942,
				"element": "F" 
			},
			{
				"x": -1.9076200557,
				"y": -4.000263419,
				"z": 3.4985400137,
				"element": "F" 
			},
			{
				"x": -0.3577865498,
				"y": -3.4522894965,
				"z": 4.9312552238,
				"element": "F" 
			},
			{
				"x": -2.5495645801,
				"y": 0.512103094,
				"z": -1.5285376986,
				"element": "C" 
			},
			{
				"x": -3.7746501284,
				"y": -0.370447169,
				"z": -1.559148848,
				"element": "C" 
			},
			{
				"x": -2.234817296,
				"y": 1.3235436059,
				"z": -2.6231388558,
				"element": "C" 
			},
			{
				"x": -1.1137757762,
				"y": 2.1463371397,
				"z": -2.6255031113,
				"element": "C" 
			},
			{
				"x": 3.2836509536,
				"y": 3.6603706433,
				"z": 0.5781155553,
				"element": "H" 
			},
			{
				"x": 3.499128287,
				"y": 3.5657333179,
				"z": -1.2010392308,
				"element": "H" 
			},
			{
				"x": 2.537106304,
				"y": 4.884912018,
				"z": -0.5009877524,
				"element": "H" 
			},
			{
				"x": 0.0867933095,
				"y": 1.3795262256,
				"z": 0.4696579204,
				"element": "H" 
			},
			{
				"x": -2.8613133052,
				"y": -0.8486389802,
				"z": 0.60402566,
				"element": "H" 
			},
			{
				"x": -2.2703983454,
				"y": -1.6815683478,
				"z": 4.6528496073,
				"element": "H" 
			},
			{
				"x": -0.6861579596,
				"y": -1.0089375908,
				"z": 4.1437484244,
				"element": "H" 
			},
			{
				"x": -4.4832427562,
				"y": -0.1214481563,
				"z": -0.7579114723,
				"element": "H" 
			},
			{
				"x": -4.3072113443,
				"y": -0.2575550587,
				"z": -2.5058434753,
				"element": "H" 
			},
			{
				"x": -3.520026776,
				"y": -1.4337103954,
				"z": -1.4561743479,
				"element": "H" 
			},
			{
				"x": -2.8894236093,
				"y": 1.3036411443,
				"z": -3.4901883517,
				"element": "H" 
			},
			{
				"x": -0.8723862468,
				"y": 2.7741918753,
				"z": -3.4755661623,
				"element": "H" 
			}
		],
		 "valence_orbital": [ 
			{
				"type": "occ",
				"energy": -0.29717,
				"method": "rhf"
			},
			{
				"type": "occ",
				"energy": -0.29677,
				"method": "rhf"
			},
			{
				"type": "occ",
				"energy": -0.26976,
				"method": "rhf"
			},
			{
				"type": "occ",
				"energy": -0.25679,
				"method": "rhf"
			},
			{
				"type": "occ",
				"energy": -0.23059,
				"method": "rhf"
			},
			{
				"type": "unocc",
				"energy": -0.04387,
				"method": "rhf"
			},
			{
				"type": "unocc",
				"energy": -0.01456,
				"method": "rhf"
			},
			{
				"type": "unocc",
				"energy": 0.03754,
				"method": "rhf"
			},
			{
				"type": "unocc",
				"energy": 0.06704,
				"method": "rhf"
			},
			{
				"type": "unocc",
				"energy": 0.0699,
				"method": "rhf"
			}
		],
		"cosmo_sigma_profile": { 
			"-0.025": 0.0,
			"-0.024": 0.0,
			"-0.023": 0.0,
			"-0.022": 0.0,
			"-0.021": 0.0,
			"-0.02": 0.0,
			"-0.019": 0.0,
			"-0.018": 0.0,
			"-0.017": 0.0,
			"-0.016": 0.0,
			"-0.015": 0.0,
			"-0.014": 0.0823840079334,
			"-0.013": 0.937354442294,
			"-0.012": 1.30118005622,
			"-0.011": 1.09117612664,
			"-0.01": 2.05129038488,
			"-0.009": 4.12172586389,
			"-0.008": 4.61517391064,
			"-0.007": 7.79010881284,
			"-0.006": 14.9846001632,
			"-0.005": 19.2154319627,
			"-0.004": 18.8966968584,
			"-0.003": 21.7352183306,
			"-0.002": 21.2723130815,
			"-0.001": 21.0189991952,
			"0.0": 18.8050244442,
			"0.001": 22.7785456669,
			"0.002": 40.2043611115,
			"0.003": 39.4357488023,
			"0.004": 14.0166897624,
			"0.005": 6.87136556796,
			"0.006": 4.5821530254,
			"0.007": 3.22380879304,
			"0.008": 3.13259608199,
			"0.009": 3.42310079451,
			"0.01": 3.68301671227,
			"0.011": 5.60565946895,
			"0.012": 4.47545033783,
			"0.013": 0.492236117833,
			"0.014": 0.0,
			"0.015": 0.0,
			"0.016": 0.0,
			"0.017": 0.0,
			"0.018": 0.0,
			"0.019": 0.0,
			"0.02": 0.0,
			"0.021": 0.0,
			"0.022": 0.0,
			"0.023": 0.0,
			"0.024": 0.0,
			"0.025": 0.0
		}
	}
}
