{
	 "smiles": "NC1=NC(=CS1)C1=CC(N)=CC=C1", 
	 "Tm": 448.15, 
	 "num_atms": 22, 
	 "gaussian": { 
		 "optdone": 1, 
		 "sigma_profile": "yes", 
		 "theory": "DFT", 
		 "functional": "B3LYP", 
		 "basiset": "6-31G**", 
		 "properties": { 
			 "R2extent": 3730.0234, 
			 "electric_dipole_moment_norm": 2.3791981023, 
			 "electric_quadrupole_moment_norm": 15.5686994338, 
			 "total_energy": -910.827266736, 
			 "HOMO_LUMO_gap": 0.16921, 
			 "cosmo_polarized_energy": -16.34, 
			 "cosmo_cavitation_energy": 27.84, 
			 "cosmo_dispersion_energy": -21.42, 
			 "cosmo_repulsion_energy": 1.65, 
			 "cosmo_total_nonelectrostatic_energy": 8.08, 
			 "SMD_solvation_energy": 3.25 
		},
		"coords": [
			{
				"x": -2.5959393467,
				"y": -1.8042674117,
				"z": -3.3026738459,
				"element": "N" 
			},
			{
				"x": -2.3518547868,
				"y": -0.8238417583,
				"z": -2.3652733912,
				"element": "C" 
			},
			{
				"x": -1.3272354127,
				"y": -0.8177246777,
				"z": -1.5690079614,
				"element": "N" 
			},
			{
				"x": -1.2997570524,
				"y": 0.3276830684,
				"z": -0.7817949853,
				"element": "C" 
			},
			{
				"x": -2.3347604428,
				"y": 1.1979472644,
				"z": -0.9943147721,
				"element": "C" 
			},
			{
				"x": -3.4023956409,
				"y": 0.5952668008,
				"z": -2.2361942339,
				"element": "S" 
			},
			{
				"x": -0.1933408858,
				"y": 0.503183696,
				"z": 0.1805467146,
				"element": "C" 
			},
			{
				"x": -0.233672301,
				"y": 1.5055804624,
				"z": 1.1606360729,
				"element": "C" 
			},
			{
				"x": 0.8232564719,
				"y": 1.6833559971,
				"z": 2.0630934762,
				"element": "C" 
			},
			{
				"x": 0.7940293372,
				"y": 2.7245189752,
				"z": 2.9983185738,
				"element": "N" 
			},
			{
				"x": 1.9373216037,
				"y": 0.8294763674,
				"z": 1.9796214959,
				"element": "C" 
			},
			{
				"x": 1.9740340417,
				"y": -0.1725863572,
				"z": 1.0139124119,
				"element": "C" 
			},
			{
				"x": 0.9223508522,
				"y": -0.3465832929,
				"z": 0.1157897299,
				"element": "C" 
			},
			{
				"x": -3.5642146745,
				"y": -1.9903460151,
				"z": -3.5222404303,
				"element": "H" 
			},
			{
				"x": -2.0478486627,
				"y": -2.6397342892,
				"z": -3.1425060888,
				"element": "H" 
			},
			{
				"x": -2.5310254888,
				"y": 2.1516936494,
				"z": -0.5290426187,
				"element": "H" 
			},
			{
				"x": -1.1011206479,
				"y": 2.1559218276,
				"z": 1.2388185038,
				"element": "H" 
			},
			{
				"x": 1.360684608,
				"y": 2.568198448,
				"z": 3.8209666977,
				"element": "H" 
			},
			{
				"x": -0.1324317807,
				"y": 3.04594024,
				"z": 3.2448236563,
				"element": "H" 
			},
			{
				"x": 2.7654256892,
				"y": 0.9571244763,
				"z": 2.6725743504,
				"element": "H" 
			},
			{
				"x": 2.8381162126,
				"y": -0.8296252585,
				"z": 0.9626333329,
				"element": "H" 
			},
			{
				"x": 0.9479783071,
				"y": -1.1266822123,
				"z": -0.6349866888,
				"element": "H" 
			}
		],
		 "valence_orbital": [ 
			{
				"type": "occ",
				"energy": -0.27389,
				"method": "rhf"
			},
			{
				"type": "occ",
				"energy": -0.26842,
				"method": "rhf"
			},
			{
				"type": "occ",
				"energy": -0.24352,
				"method": "rhf"
			},
			{
				"type": "occ",
				"energy": -0.20189,
				"method": "rhf"
			},
			{
				"type": "occ",
				"energy": -0.19186,
				"method": "rhf"
			},
			{
				"type": "unocc",
				"energy": -0.02265,
				"method": "rhf"
			},
			{
				"type": "unocc",
				"energy": 0.01337,
				"method": "rhf"
			},
			{
				"type": "unocc",
				"energy": 0.02057,
				"method": "rhf"
			},
			{
				"type": "unocc",
				"energy": 0.02471,
				"method": "rhf"
			},
			{
				"type": "unocc",
				"energy": 0.07305,
				"method": "rhf"
			}
		],
		"cosmo_sigma_profile": { 
			"-0.025": 0.0,
			"-0.024": 0.0,
			"-0.023": 0.0,
			"-0.022": 0.0,
			"-0.021": 0.0,
			"-0.02": 0.0,
			"-0.019": 0.0,
			"-0.018": 0.0,
			"-0.017": 0.0,
			"-0.016": 0.0,
			"-0.015": 0.215401572466,
			"-0.014": 1.73577189547,
			"-0.013": 2.73786132037,
			"-0.012": 4.35097809246,
			"-0.011": 6.36845620408,
			"-0.01": 5.1342885198,
			"-0.009": 5.58496867451,
			"-0.008": 7.11323383514,
			"-0.007": 7.2436944162,
			"-0.006": 8.37044404485,
			"-0.005": 8.44276216838,
			"-0.004": 8.90820446846,
			"-0.003": 9.7653930064,
			"-0.002": 10.2310039352,
			"-0.001": 9.25746506095,
			"0.0": 9.21179278803,
			"0.001": 10.8468773746,
			"0.002": 14.7223905577,
			"0.003": 16.159577942,
			"0.004": 19.4117579071,
			"0.005": 17.6778582301,
			"0.006": 15.5345265459,
			"0.007": 9.03576493515,
			"0.008": 4.4505832895,
			"0.009": 2.54384294041,
			"0.01": 2.46270198585,
			"0.011": 2.80542860036,
			"0.012": 1.96709455078,
			"0.013": 0.821944720921,
			"0.014": 0.72501734732,
			"0.015": 0.41947826071,
			"0.016": 0.0111601688205,
			"0.017": 0.0,
			"0.018": 0.0,
			"0.019": 0.0,
			"0.02": 0.0,
			"0.021": 0.0,
			"0.022": 0.0,
			"0.023": 0.0,
			"0.024": 0.0,
			"0.025": 0.0
		}
	}
}
