{
	 "smiles": "FC1=CC(Br)=CC(F)=C1C#N", 
	 "Tm": 354.15, 
	 "num_atms": 13, 
	 "gaussian": { 
		 "optdone": 1, 
		 "sigma_profile": "yes", 
		 "theory": "DFT", 
		 "functional": "B3LYP", 
		 "basiset": "6-31G**", 
		 "properties": { 
			 "R2extent": 3274.3147, 
			 "electric_dipole_moment_norm": 4.23276194582, 
			 "electric_quadrupole_moment_norm": 9.49364627633, 
			 "total_energy": -3093.74656055, 
			 "HOMO_LUMO_gap": 0.19825, 
			 "cosmo_polarized_energy": -7.73, 
			 "cosmo_cavitation_energy": 22.6, 
			 "cosmo_dispersion_energy": -16.18, 
			 "cosmo_repulsion_energy": 1.26, 
			 "cosmo_total_nonelectrostatic_energy": 7.68, 
			 "SMD_solvation_energy": 5.09 
		},
		"coords": [
			{
				"x": 1.2131366042,
				"y": 0.1644854848,
				"z": -1.9025969697,
				"element": "F" 
			},
			{
				"x": 0.4892809181,
				"y": -0.2278158474,
				"z": -0.8511631174,
				"element": "C" 
			},
			{
				"x": -0.1041922433,
				"y": -1.4815364098,
				"z": -0.8690197352,
				"element": "C" 
			},
			{
				"x": -0.8556209975,
				"y": -1.8688027996,
				"z": 0.2410933945,
				"element": "C" 
			},
			{
				"x": -1.6803032501,
				"y": -3.578740574,
				"z": 0.2457280847,
				"element": "Br" 
			},
			{
				"x": -1.0182732976,
				"y": -1.0348763777,
				"z": 1.3479355784,
				"element": "C" 
			},
			{
				"x": -0.4073081249,
				"y": 0.2102732621,
				"z": 1.3232721263,
				"element": "C" 
			},
			{
				"x": -0.5491058428,
				"y": 1.0255550357,
				"z": 2.3714095203,
				"element": "F" 
			},
			{
				"x": 0.3601318125,
				"y": 0.6534764844,
				"z": 0.2342196783,
				"element": "C" 
			},
			{
				"x": 0.9791635819,
				"y": 1.9382714825,
				"z": 0.2306711968,
				"element": "C" 
			},
			{
				"x": 1.4836543976,
				"y": 2.985460274,
				"z": 0.2277918603,
				"element": "N" 
			},
			{
				"x": 0.0242463094,
				"y": -2.1254960813,
				"z": -1.7292043896,
				"element": "H" 
			},
			{
				"x": -1.6002098674,
				"y": -1.3317539335,
				"z": 2.2106627723,
				"element": "H" 
			}
		],
		 "valence_orbital": [ 
			{
				"type": "occ",
				"energy": -0.34695,
				"method": "rhf"
			},
			{
				"type": "occ",
				"energy": -0.3265,
				"method": "rhf"
			},
			{
				"type": "occ",
				"energy": -0.3169,
				"method": "rhf"
			},
			{
				"type": "occ",
				"energy": -0.28696,
				"method": "rhf"
			},
			{
				"type": "occ",
				"energy": -0.27361,
				"method": "rhf"
			},
			{
				"type": "unocc",
				"energy": -0.07536,
				"method": "rhf"
			},
			{
				"type": "unocc",
				"energy": -0.03958,
				"method": "rhf"
			},
			{
				"type": "unocc",
				"energy": -0.02692,
				"method": "rhf"
			},
			{
				"type": "unocc",
				"energy": 0.01542,
				"method": "rhf"
			},
			{
				"type": "unocc",
				"energy": 0.0507,
				"method": "rhf"
			}
		],
		"cosmo_sigma_profile": { 
			"-0.025": 0.0,
			"-0.024": 0.0,
			"-0.023": 0.0,
			"-0.022": 0.0,
			"-0.021": 0.0,
			"-0.02": 0.0,
			"-0.019": 0.0,
			"-0.018": 0.0,
			"-0.017": 0.0,
			"-0.016": 0.0,
			"-0.015": 0.0,
			"-0.014": 0.0,
			"-0.013": 0.0,
			"-0.012": 0.0,
			"-0.011": 0.0,
			"-0.01": 1.50676001265,
			"-0.009": 3.37330284757,
			"-0.008": 2.89251018029,
			"-0.007": 3.32751498372,
			"-0.006": 3.685318809,
			"-0.005": 7.27792286099,
			"-0.004": 14.4079760255,
			"-0.003": 19.5859349636,
			"-0.002": 15.936987128,
			"-0.001": 19.9173809538,
			"0.0": 13.0596751227,
			"0.001": 11.5105711157,
			"0.002": 28.4053905355,
			"0.003": 17.6038580599,
			"0.004": 3.57590199317,
			"0.005": 2.77013954964,
			"0.006": 2.65960823261,
			"0.007": 3.35461308988,
			"0.008": 2.95082200187,
			"0.009": 3.31518715489,
			"0.01": 2.5117919273,
			"0.011": 2.48024824399,
			"0.012": 1.64177321831,
			"0.013": 0.0885230514287,
			"0.014": 0.0,
			"0.015": 0.0,
			"0.016": 0.0,
			"0.017": 0.0,
			"0.018": 0.0,
			"0.019": 0.0,
			"0.02": 0.0,
			"0.021": 0.0,
			"0.022": 0.0,
			"0.023": 0.0,
			"0.024": 0.0,
			"0.025": 0.0
		}
	}
}
