{
	 "smiles": "CC1=CC(C)=C(C=C1)N1N=NN=C1S", 
	 "Tm": 384.15, 
	 "num_atms": 24, 
	 "gaussian": { 
		 "optdone": 1, 
		 "sigma_profile": "yes", 
		 "theory": "DFT", 
		 "functional": "B3LYP", 
		 "basiset": "6-31G**", 
		 "properties": { 
			 "R2extent": 4015.6787, 
			 "electric_dipole_moment_norm": 7.1972753296, 
			 "electric_quadrupole_moment_norm": 22.232314442, 
			 "total_energy": -966.125089231, 
			 "HOMO_LUMO_gap": 0.21639, 
			 "cosmo_polarized_energy": -14.31, 
			 "cosmo_cavitation_energy": 30.01, 
			 "cosmo_dispersion_energy": -21.43, 
			 "cosmo_repulsion_energy": 1.63, 
			 "cosmo_total_nonelectrostatic_energy": 10.22, 
			 "SMD_solvation_energy": 2.99 
		},
		"coords": [
			{
				"x": -0.6348818341,
				"y": -3.2181106168,
				"z": 0.2851481841,
				"element": "C" 
			},
			{
				"x": -0.0863713449,
				"y": -1.8427196903,
				"z": -0.010454638,
				"element": "C" 
			},
			{
				"x": 0.8288308535,
				"y": -1.2368902746,
				"z": 0.8616101808,
				"element": "C" 
			},
			{
				"x": 1.3844815179,
				"y": 0.0229808249,
				"z": 0.618982616,
				"element": "C" 
			},
			{
				"x": 2.3639383137,
				"y": 0.6469258452,
				"z": 1.5813308831,
				"element": "C" 
			},
			{
				"x": 0.9902889237,
				"y": 0.6800312882,
				"z": -0.5603112048,
				"element": "C" 
			},
			{
				"x": 0.0850453649,
				"y": 0.0996597469,
				"z": -1.4508763708,
				"element": "C" 
			},
			{
				"x": -0.4562554925,
				"y": -1.1530845634,
				"z": -1.1710828891,
				"element": "C" 
			},
			{
				"x": 1.5249072537,
				"y": 1.9716895794,
				"z": -0.8647221953,
				"element": "N" 
			},
			{
				"x": 2.8379175769,
				"y": 2.1527469639,
				"z": -1.2164625248,
				"element": "N" 
			},
			{
				"x": 2.9910953012,
				"y": 3.4145721499,
				"z": -1.4179455174,
				"element": "N" 
			},
			{
				"x": 1.8338478353,
				"y": 4.1018801246,
				"z": -1.2180672308,
				"element": "N" 
			},
			{
				"x": 0.9363795061,
				"y": 3.1965432825,
				"z": -0.8745556147,
				"element": "C" 
			},
			{
				"x": -0.7295003563,
				"y": 3.5908326354,
				"z": -0.4785436879,
				"element": "S" 
			},
			{
				"x": -1.6051658772,
				"y": -3.3740387442,
				"z": -0.1945629827,
				"element": "H" 
			},
			{
				"x": 0.0427161952,
				"y": -3.9970050068,
				"z": -0.0856086368,
				"element": "H" 
			},
			{
				"x": -0.7558516322,
				"y": -3.3786418495,
				"z": 1.3605273757,
				"element": "H" 
			},
			{
				"x": 1.1189160588,
				"y": -1.7625853596,
				"z": 1.7682509319,
				"element": "H" 
			},
			{
				"x": 2.0144243888,
				"y": 1.625290436,
				"z": 1.9295636373,
				"element": "H" 
			},
			{
				"x": 2.5073718747,
				"y": 0.0075320442,
				"z": 2.4553250264,
				"element": "H" 
			},
			{
				"x": 3.3353380002,
				"y": 0.8085859074,
				"z": 1.1047135376,
				"element": "H" 
			},
			{
				"x": -0.1810314292,
				"y": 0.6284994423,
				"z": -2.3609896576,
				"element": "H" 
			},
			{
				"x": -1.1622623407,
				"y": -1.5995798302,
				"z": -1.8654516269,
				"element": "H" 
			},
			{
				"x": -1.1068786575,
				"y": 2.3166856647,
				"z": -0.2479175955,
				"element": "H" 
			}
		],
		 "valence_orbital": [ 
			{
				"type": "occ",
				"energy": -0.29595,
				"method": "rhf"
			},
			{
				"type": "occ",
				"energy": -0.29005,
				"method": "rhf"
			},
			{
				"type": "occ",
				"energy": -0.27116,
				"method": "rhf"
			},
			{
				"type": "occ",
				"energy": -0.26009,
				"method": "rhf"
			},
			{
				"type": "occ",
				"energy": -0.25556,
				"method": "rhf"
			},
			{
				"type": "unocc",
				"energy": -0.03917,
				"method": "rhf"
			},
			{
				"type": "unocc",
				"energy": -0.02733,
				"method": "rhf"
			},
			{
				"type": "unocc",
				"energy": -0.01066,
				"method": "rhf"
			},
			{
				"type": "unocc",
				"energy": 0.00379,
				"method": "rhf"
			},
			{
				"type": "unocc",
				"energy": 0.02473,
				"method": "rhf"
			}
		],
		"cosmo_sigma_profile": { 
			"-0.025": 0.0,
			"-0.024": 0.0,
			"-0.023": 0.0,
			"-0.022": 0.0,
			"-0.021": 0.0,
			"-0.02": 0.0,
			"-0.019": 0.0,
			"-0.018": 0.0,
			"-0.017": 0.0,
			"-0.016": 0.0,
			"-0.015": 0.0,
			"-0.014": 0.0,
			"-0.013": 0.227759751288,
			"-0.012": 1.21665376007,
			"-0.011": 0.732635046914,
			"-0.01": 1.21226779412,
			"-0.009": 0.921953112604,
			"-0.008": 2.73409145715,
			"-0.007": 6.97008324842,
			"-0.006": 10.7652879353,
			"-0.005": 18.4109837087,
			"-0.004": 21.0412156129,
			"-0.003": 17.3297580742,
			"-0.002": 19.1970698605,
			"-0.001": 24.8454112249,
			"0.0": 22.2150168846,
			"0.001": 16.1171463328,
			"0.002": 14.4236697174,
			"0.003": 15.3765202618,
			"0.004": 10.5834294407,
			"0.005": 5.20682942836,
			"0.006": 4.0315483047,
			"0.007": 3.6940929722,
			"0.008": 5.19419334957,
			"0.009": 4.76777786135,
			"0.01": 4.9785931666,
			"0.011": 3.61055872564,
			"0.012": 3.00075791663,
			"0.013": 2.02216658412,
			"0.014": 1.40669634812,
			"0.015": 0.128539432311,
			"0.016": 0.0,
			"0.017": 0.0,
			"0.018": 0.0,
			"0.019": 0.0,
			"0.02": 0.0,
			"0.021": 0.0,
			"0.022": 0.0,
			"0.023": 0.0,
			"0.024": 0.0,
			"0.025": 0.0
		}
	}
}
