{
	 "smiles": "NC1=CN=C(N=C1)C1CC1", 
	 "Tm": 443.15, 
	 "num_atms": 19, 
	 "gaussian": { 
		 "optdone": 1, 
		 "sigma_profile": "yes", 
		 "theory": "DFT", 
		 "functional": "B3LYP", 
		 "basiset": "6-31G**", 
		 "properties": { 
			 "R2extent": 2086.5697, 
			 "electric_dipole_moment_norm": 3.46655121122, 
			 "electric_quadrupole_moment_norm": 7.92476939349, 
			 "total_energy": -436.385351899, 
			 "HOMO_LUMO_gap": 0.18938, 
			 "cosmo_polarized_energy": -13.44, 
			 "cosmo_cavitation_energy": 22.89, 
			 "cosmo_dispersion_energy": -17.0, 
			 "cosmo_repulsion_energy": 1.4, 
			 "cosmo_total_nonelectrostatic_energy": 7.29, 
			 "SMD_solvation_energy": 0.91 
		},
		"coords": [
			{
				"x": 1.9087246123,
				"y": 1.6684075145,
				"z": 0.2536504394,
				"element": "N" 
			},
			{
				"x": 0.6596798631,
				"y": 1.1712695976,
				"z": -0.0971619267,
				"element": "C" 
			},
			{
				"x": -0.1665744579,
				"y": 0.4917737323,
				"z": 0.8116670765,
				"element": "C" 
			},
			{
				"x": -1.3387006496,
				"y": -0.0380329776,
				"z": 0.4677922965,
				"element": "N" 
			},
			{
				"x": -1.727590009,
				"y": 0.0950350743,
				"z": -0.811099327,
				"element": "C" 
			},
			{
				"x": -1.0185514232,
				"y": 0.7293141968,
				"z": -1.7594916267,
				"element": "N" 
			},
			{
				"x": 0.1518074886,
				"y": 1.2547525284,
				"z": -1.4030981214,
				"element": "C" 
			},
			{
				"x": -3.0603842974,
				"y": -0.4707270613,
				"z": -1.1975496084,
				"element": "C" 
			},
			{
				"x": -3.1749496143,
				"y": -1.4315954799,
				"z": -2.3523829201,
				"element": "C" 
			},
			{
				"x": -3.3776309091,
				"y": -1.9204999771,
				"z": -0.9375159335,
				"element": "C" 
			},
			{
				"x": 2.0393244849,
				"y": 1.8667596155,
				"z": 1.2362261393,
				"element": "H" 
			},
			{
				"x": 2.2652564054,
				"y": 2.4083215708,
				"z": -0.3356451295,
				"element": "H" 
			},
			{
				"x": 0.1404672808,
				"y": 0.3754966689,
				"z": 1.8523953012,
				"element": "H" 
			},
			{
				"x": 0.7204364721,
				"y": 1.7653716888,
				"z": -2.182096355,
				"element": "H" 
			},
			{
				"x": -3.8839280671,
				"y": 0.2315137224,
				"z": -1.0728235386,
				"element": "H" 
			},
			{
				"x": -4.0389300941,
				"y": -1.3483938835,
				"z": -3.0047655235,
				"element": "H" 
			},
			{
				"x": -2.2566336058,
				"y": -1.705791369,
				"z": -2.8622878228,
				"element": "H" 
			},
			{
				"x": -4.3816942276,
				"y": -2.1752071028,
				"z": -0.6119848963,
				"element": "H" 
			},
			{
				"x": -2.5967292518,
				"y": -2.5261680594,
				"z": -0.4882285234,
				"element": "H" 
			}
		],
		 "valence_orbital": [ 
			{
				"type": "occ",
				"energy": -0.29645,
				"method": "rhf"
			},
			{
				"type": "occ",
				"energy": -0.28459,
				"method": "rhf"
			},
			{
				"type": "occ",
				"energy": -0.28117,
				"method": "rhf"
			},
			{
				"type": "occ",
				"energy": -0.23568,
				"method": "rhf"
			},
			{
				"type": "occ",
				"energy": -0.21979,
				"method": "rhf"
			},
			{
				"type": "unocc",
				"energy": -0.03041,
				"method": "rhf"
			},
			{
				"type": "unocc",
				"energy": -0.00502,
				"method": "rhf"
			},
			{
				"type": "unocc",
				"energy": 0.06703,
				"method": "rhf"
			},
			{
				"type": "unocc",
				"energy": 0.11125,
				"method": "rhf"
			},
			{
				"type": "unocc",
				"energy": 0.11877,
				"method": "rhf"
			}
		],
		"cosmo_sigma_profile": { 
			"-0.025": 0.0,
			"-0.024": 0.0,
			"-0.023": 0.0,
			"-0.022": 0.0,
			"-0.021": 0.0,
			"-0.02": 0.0,
			"-0.019": 0.0,
			"-0.018": 0.0,
			"-0.017": 0.0,
			"-0.016": 0.0,
			"-0.015": 0.0,
			"-0.014": 0.261694685828,
			"-0.013": 2.92463720808,
			"-0.012": 3.11698498223,
			"-0.011": 2.97135950578,
			"-0.01": 3.86669758461,
			"-0.009": 3.07645464657,
			"-0.008": 3.96172393533,
			"-0.007": 4.64802254094,
			"-0.006": 4.74319508396,
			"-0.005": 6.29892411563,
			"-0.004": 12.7238969214,
			"-0.003": 12.8195300765,
			"-0.002": 13.7377651257,
			"-0.001": 10.6350588703,
			"0.0": 15.7803318953,
			"0.001": 16.2552879914,
			"0.002": 10.8796119418,
			"0.003": 8.96437942247,
			"0.004": 6.83324854417,
			"0.005": 6.40049483753,
			"0.006": 5.01385501771,
			"0.007": 3.63290940596,
			"0.008": 3.59885993489,
			"0.009": 2.59437451366,
			"0.01": 3.32444653025,
			"0.011": 1.96697767438,
			"0.012": 3.4736897906,
			"0.013": 2.0003326977,
			"0.014": 1.90063696027,
			"0.015": 1.54979787314,
			"0.016": 1.42083719688,
			"0.017": 0.128979195888,
			"0.018": 0.0,
			"0.019": 0.0,
			"0.02": 0.0,
			"0.021": 0.0,
			"0.022": 0.0,
			"0.023": 0.0,
			"0.024": 0.0,
			"0.025": 0.0
		}
	}
}
