{
	 "smiles": "CCCCCC(O)CCCC", 
	 "Tm": 281.15, 
	 "num_atms": 33, 
	 "gaussian": { 
		 "optdone": 1, 
		 "sigma_profile": "yes", 
		 "theory": "DFT", 
		 "functional": "B3LYP", 
		 "basiset": "6-31G**", 
		 "properties": { 
			 "R2extent": 3400.644, 
			 "electric_dipole_moment_norm": 1.80422838078, 
			 "electric_quadrupole_moment_norm": 7.54466157624, 
			 "total_energy": -469.567301578, 
			 "HOMO_LUMO_gap": 0.3198, 
			 "cosmo_polarized_energy": -5.64, 
			 "cosmo_cavitation_energy": 32.63, 
			 "cosmo_dispersion_energy": -22.92, 
			 "cosmo_repulsion_energy": 1.9, 
			 "cosmo_total_nonelectrostatic_energy": 11.61, 
			 "SMD_solvation_energy": 4.63 
		},
		"coords": [
			{
				"x": -0.837512547,
				"y": -1.9534021914,
				"z": 3.9071539923,
				"element": "C" 
			},
			{
				"x": -0.9605870289,
				"y": -2.4183478846,
				"z": 2.451058709,
				"element": "C" 
			},
			{
				"x": 0.1416089702,
				"y": -1.8862639868,
				"z": 1.5168166083,
				"element": "C" 
			},
			{
				"x": 0.0471002045,
				"y": -0.3776253153,
				"z": 1.229303193,
				"element": "C" 
			},
			{
				"x": 1.2627993527,
				"y": 0.260635007,
				"z": 0.5301058998,
				"element": "C" 
			},
			{
				"x": 1.6385803155,
				"y": -0.2377226522,
				"z": -0.8805041822,
				"element": "C" 
			},
			{
				"x": 2.2981760706,
				"y": -1.5076464025,
				"z": -0.8414199101,
				"element": "O" 
			},
			{
				"x": 0.4875791116,
				"y": -0.2538574804,
				"z": -1.8995682817,
				"element": "C" 
			},
			{
				"x": -0.1242103666,
				"y": 1.12293998,
				"z": -2.196629047,
				"element": "C" 
			},
			{
				"x": -1.2337833056,
				"y": 1.1060037853,
				"z": -3.2626620849,
				"element": "C" 
			},
			{
				"x": -0.7578236179,
				"y": 0.7374517817,
				"z": -4.6728654157,
				"element": "C" 
			},
			{
				"x": -1.6269299233,
				"y": -2.3919414528,
				"z": 4.5263308197,
				"element": "H" 
			},
			{
				"x": 0.1258807421,
				"y": -2.253559432,
				"z": 4.3352939126,
				"element": "H" 
			},
			{
				"x": -0.9165642341,
				"y": -0.8655735755,
				"z": 4.0013462247,
				"element": "H" 
			},
			{
				"x": -0.9394952731,
				"y": -3.515265031,
				"z": 2.4287156427,
				"element": "H" 
			},
			{
				"x": -1.94252905,
				"y": -2.1269504851,
				"z": 2.053349802,
				"element": "H" 
			},
			{
				"x": 0.0742625974,
				"y": -2.4459254873,
				"z": 0.5730288354,
				"element": "H" 
			},
			{
				"x": 1.1259355569,
				"y": -2.120108232,
				"z": 1.945117111,
				"element": "H" 
			},
			{
				"x": -0.0904896841,
				"y": 0.1536043556,
				"z": 2.1791261993,
				"element": "H" 
			},
			{
				"x": -0.8662161282,
				"y": -0.1838781674,
				"z": 0.6503036635,
				"element": "H" 
			},
			{
				"x": 1.0906863421,
				"y": 1.3435404481,
				"z": 0.473935278,
				"element": "H" 
			},
			{
				"x": 2.1525980587,
				"y": 0.125981811,
				"z": 1.1577411324,
				"element": "H" 
			},
			{
				"x": 2.4115277138,
				"y": 0.4433573977,
				"z": -1.2605546094,
				"element": "H" 
			},
			{
				"x": 1.6432061715,
				"y": -2.1743762916,
				"z": -0.6006671366,
				"element": "H" 
			},
			{
				"x": 0.889288755,
				"y": -0.6958193371,
				"z": -2.8181430646,
				"element": "H" 
			},
			{
				"x": -0.303928461,
				"y": -0.9342159785,
				"z": -1.551087126,
				"element": "H" 
			},
			{
				"x": -0.5366002593,
				"y": 1.5467233801,
				"z": -1.2723750179,
				"element": "H" 
			},
			{
				"x": 0.6719411481,
				"y": 1.8103548779,
				"z": -2.5176271149,
				"element": "H" 
			},
			{
				"x": -1.7011245133,
				"y": 2.0985071737,
				"z": -3.2942115033,
				"element": "H" 
			},
			{
				"x": -2.0241899076,
				"y": 0.4100055784,
				"z": -2.9491622838,
				"element": "H" 
			},
			{
				"x": -1.5816991289,
				"y": 0.7919230223,
				"z": -5.3920827741,
				"element": "H" 
			},
			{
				"x": -0.3520096143,
				"y": -0.2782668373,
				"z": -4.7171291892,
				"element": "H" 
			},
			{
				"x": 0.0270219327,
				"y": 1.4222176218,
				"z": -5.0149382823,
				"element": "H" 
			}
		],
		 "valence_orbital": [ 
			{
				"type": "occ",
				"energy": -0.32362,
				"method": "rhf"
			},
			{
				"type": "occ",
				"energy": -0.31713,
				"method": "rhf"
			},
			{
				"type": "occ",
				"energy": -0.31047,
				"method": "rhf"
			},
			{
				"type": "occ",
				"energy": -0.29291,
				"method": "rhf"
			},
			{
				"type": "occ",
				"energy": -0.25326,
				"method": "rhf"
			},
			{
				"type": "unocc",
				"energy": 0.06654,
				"method": "rhf"
			},
			{
				"type": "unocc",
				"energy": 0.08368,
				"method": "rhf"
			},
			{
				"type": "unocc",
				"energy": 0.10229,
				"method": "rhf"
			},
			{
				"type": "unocc",
				"energy": 0.10488,
				"method": "rhf"
			},
			{
				"type": "unocc",
				"energy": 0.11444,
				"method": "rhf"
			}
		],
		"cosmo_sigma_profile": { 
			"-0.025": 0.0,
			"-0.024": 0.0,
			"-0.023": 0.0,
			"-0.022": 0.0,
			"-0.021": 0.0,
			"-0.02": 0.0,
			"-0.019": 0.0,
			"-0.018": 0.0,
			"-0.017": 0.0,
			"-0.016": 0.0,
			"-0.015": 0.0,
			"-0.014": 0.0,
			"-0.013": 0.0,
			"-0.012": 0.497396871818,
			"-0.011": 0.59643187506,
			"-0.01": 1.07028170226,
			"-0.009": 0.952810657212,
			"-0.008": 1.60740243815,
			"-0.007": 1.03763330401,
			"-0.006": 1.37333787623,
			"-0.005": 1.06629468102,
			"-0.004": 2.14270677923,
			"-0.003": 10.9867759965,
			"-0.002": 44.101524351,
			"-0.001": 53.400360159,
			"0.0": 51.6663884456,
			"0.001": 43.9182272353,
			"0.002": 16.230926813,
			"0.003": 1.91290447314,
			"0.004": 1.55680792213,
			"0.005": 1.71991724217,
			"0.006": 0.922125071733,
			"0.007": 1.25194258233,
			"0.008": 1.31442417968,
			"0.009": 1.23720181258,
			"0.01": 0.701182459234,
			"0.011": 1.13409407938,
			"0.012": 1.8377011232,
			"0.013": 0.891862915827,
			"0.014": 1.80559862472,
			"0.015": 2.34671933066,
			"0.016": 0.141211450882,
			"0.017": 0.0,
			"0.018": 0.0,
			"0.019": 0.0,
			"0.02": 0.0,
			"0.021": 0.0,
			"0.022": 0.0,
			"0.023": 0.0,
			"0.024": 0.0,
			"0.025": 0.0
		}
	}
}
