{
	 "smiles": "OC(=O)C1=C(NC(=O)COC2=CC=CC=C2)C=C(Cl)C=C1", 
	 "Tm": 521.15, 
	 "num_atms": 33, 
	 "gaussian": { 
		 "optdone": 1, 
		 "sigma_profile": "yes", 
		 "theory": "DFT", 
		 "functional": "B3LYP", 
		 "basiset": "6-31G**", 
		 "properties": { 
			 "R2extent": 9338.8627, 
			 "electric_dipole_moment_norm": 3.74557297352, 
			 "electric_quadrupole_moment_norm": 11.4427622767, 
			 "total_energy": -1394.68429817, 
			 "HOMO_LUMO_gap": 0.18293, 
			 "cosmo_polarized_energy": -18.47, 
			 "cosmo_cavitation_energy": 39.89, 
			 "cosmo_dispersion_energy": -28.04, 
			 "cosmo_repulsion_energy": 2.15, 
			 "cosmo_total_nonelectrostatic_energy": 14.01, 
			 "SMD_solvation_energy": 8.2 
		},
		"coords": [
			{
				"x": 0.2569079208,
				"y": -0.9239936969,
				"z": -0.6891214131,
				"element": "O" 
			},
			{
				"x": -1.0233166818,
				"y": -0.7558776018,
				"z": -0.2748107321,
				"element": "C" 
			},
			{
				"x": -1.8532521239,
				"y": -1.6325833524,
				"z": -0.3918034946,
				"element": "O" 
			},
			{
				"x": -1.3381662798,
				"y": 0.6240913139,
				"z": 0.2007148808,
				"element": "C" 
			},
			{
				"x": -0.4438883863,
				"y": 1.5139168341,
				"z": 0.8320572253,
				"element": "C" 
			},
			{
				"x": 0.8565989644,
				"y": 1.1548472145,
				"z": 1.2384372351,
				"element": "N" 
			},
			{
				"x": 1.2013642736,
				"y": 0.0048890766,
				"z": 1.905602917,
				"element": "C" 
			},
			{
				"x": 0.4498264914,
				"y": -0.9204300409,
				"z": 2.1597988897,
				"element": "O" 
			},
			{
				"x": 2.6649671098,
				"y": -0.0377850706,
				"z": 2.3567700747,
				"element": "C" 
			},
			{
				"x": 3.4485943428,
				"y": 1.0835229691,
				"z": 1.9630916457,
				"element": "O" 
			},
			{
				"x": 4.2040109708,
				"y": 0.9898629487,
				"z": 0.8063085576,
				"element": "C" 
			},
			{
				"x": 3.8377327626,
				"y": 0.2120479088,
				"z": -0.2960993404,
				"element": "C" 
			},
			{
				"x": 4.6603432618,
				"y": 0.2071971064,
				"z": -1.4264120289,
				"element": "C" 
			},
			{
				"x": 5.8252808357,
				"y": 0.9724533538,
				"z": -1.4666516596,
				"element": "C" 
			},
			{
				"x": 6.1711896263,
				"y": 1.7561543224,
				"z": -0.3620767518,
				"element": "C" 
			},
			{
				"x": 5.3673584983,
				"y": 1.7651203284,
				"z": 0.7754115074,
				"element": "C" 
			},
			{
				"x": -0.853818976,
				"y": 2.8270938075,
				"z": 1.1037134803,
				"element": "C" 
			},
			{
				"x": -2.1375880616,
				"y": 3.2424594664,
				"z": 0.7692053651,
				"element": "C" 
			},
			{
				"x": -2.6136331643,
				"y": 4.8961849292,
				"z": 1.106708739,
				"element": "Cl" 
			},
			{
				"x": -3.0562930195,
				"y": 2.362235405,
				"z": 0.1978303571,
				"element": "C" 
			},
			{
				"x": -2.6431421948,
				"y": 1.0629345897,
				"z": -0.068861396,
				"element": "C" 
			},
			{
				"x": 0.3105453925,
				"y": -1.8547980066,
				"z": -0.963576078,
				"element": "H" 
			},
			{
				"x": 1.5596604876,
				"y": 1.883524472,
				"z": 1.2552400677,
				"element": "H" 
			},
			{
				"x": 3.1000182005,
				"y": -0.9786786371,
				"z": 2.0038835822,
				"element": "H" 
			},
			{
				"x": 2.6673506252,
				"y": -0.0548702624,
				"z": 3.4512505256,
				"element": "H" 
			},
			{
				"x": 2.9124605378,
				"y": -0.3535430629,
				"z": -0.2975822952,
				"element": "H" 
			},
			{
				"x": 4.3748347605,
				"y": -0.3946958062,
				"z": -2.2843602179,
				"element": "H" 
			},
			{
				"x": 6.4557769751,
				"y": 0.9631375418,
				"z": -2.3502473783,
				"element": "H" 
			},
			{
				"x": 7.0757285688,
				"y": 2.3571478303,
				"z": -0.381322378,
				"element": "H" 
			},
			{
				"x": 5.6238991185,
				"y": 2.3571822436,
				"z": 1.647821675,
				"element": "H" 
			},
			{
				"x": -0.1749146503,
				"y": 3.5115770241,
				"z": 1.600963998,
				"element": "H" 
			},
			{
				"x": -4.0618301569,
				"y": 2.6906522052,
				"z": -0.036977164,
				"element": "H" 
			},
			{
				"x": -3.3277060295,
				"y": 0.3538226465,
				"z": -0.5210083955,
				"element": "H" 
			}
		],
		 "valence_orbital": [ 
			{
				"type": "occ",
				"energy": -0.27179,
				"method": "rhf"
			},
			{
				"type": "occ",
				"energy": -0.26129,
				"method": "rhf"
			},
			{
				"type": "occ",
				"energy": -0.25912,
				"method": "rhf"
			},
			{
				"type": "occ",
				"energy": -0.2466,
				"method": "rhf"
			},
			{
				"type": "occ",
				"energy": -0.23646,
				"method": "rhf"
			},
			{
				"type": "unocc",
				"energy": -0.05353,
				"method": "rhf"
			},
			{
				"type": "unocc",
				"energy": -0.03088,
				"method": "rhf"
			},
			{
				"type": "unocc",
				"energy": -0.01223,
				"method": "rhf"
			},
			{
				"type": "unocc",
				"energy": -0.00223,
				"method": "rhf"
			},
			{
				"type": "unocc",
				"energy": 0.01537,
				"method": "rhf"
			}
		],
		"cosmo_sigma_profile": { 
			"-0.025": 0.0,
			"-0.024": 0.0,
			"-0.023": 0.0,
			"-0.022": 0.0,
			"-0.021": 0.0,
			"-0.02": 0.0,
			"-0.019": 0.0,
			"-0.018": 0.750242955575,
			"-0.017": 0.891361934963,
			"-0.016": 0.622138405997,
			"-0.015": 0.886844489482,
			"-0.014": 1.71946303679,
			"-0.013": 1.64677327996,
			"-0.012": 1.75110015542,
			"-0.011": 1.75857205706,
			"-0.01": 1.75797681551,
			"-0.009": 2.74370741788,
			"-0.008": 5.99557129884,
			"-0.007": 11.29126941,
			"-0.006": 17.4222634119,
			"-0.005": 18.9249862903,
			"-0.004": 19.3207686657,
			"-0.003": 20.325179215,
			"-0.002": 16.8578886627,
			"-0.001": 17.6179381926,
			"0.0": 23.6649009178,
			"0.001": 29.0897591868,
			"0.002": 24.0296097643,
			"0.003": 21.4010151696,
			"0.004": 24.6854251941,
			"0.005": 15.1509548334,
			"0.006": 7.77109785442,
			"0.007": 5.89447832704,
			"0.008": 5.01602563673,
			"0.009": 3.5315888201,
			"0.01": 4.50850130112,
			"0.011": 6.28778448814,
			"0.012": 6.45787035595,
			"0.013": 1.89431214446,
			"0.014": 0.159286803557,
			"0.015": 0.0,
			"0.016": 0.0,
			"0.017": 0.0,
			"0.018": 0.0,
			"0.019": 0.0,
			"0.02": 0.0,
			"0.021": 0.0,
			"0.022": 0.0,
			"0.023": 0.0,
			"0.024": 0.0,
			"0.025": 0.0
		}
	}
}
