{
	 "smiles": "OP(O)(=O)CP(O)(O)=O", 
	 "Tm": 474.15, 
	 "num_atms": 15, 
	 "gaussian": { 
		 "optdone": 1, 
		 "sigma_profile": "yes", 
		 "theory": "DFT", 
		 "functional": "B3LYP", 
		 "basiset": "6-31G**", 
		 "properties": { 
			 "R2extent": 2168.5211, 
			 "electric_dipole_moment_norm": 3.0134666333, 
			 "electric_quadrupole_moment_norm": 15.5532606488, 
			 "total_energy": -1175.9239708, 
			 "HOMO_LUMO_gap": 0.31812, 
			 "cosmo_polarized_energy": -24.27, 
			 "cosmo_cavitation_energy": 21.52, 
			 "cosmo_dispersion_energy": -17.42, 
			 "cosmo_repulsion_energy": 1.4, 
			 "cosmo_total_nonelectrostatic_energy": 5.5, 
			 "SMD_solvation_energy": 8.13 
		},
		"coords": [
			{
				"x": 2.37559885,
				"y": -0.8397807672,
				"z": 0.7471491858,
				"element": "O" 
			},
			{
				"x": 1.9924819246,
				"y": 0.5919038694,
				"z": 1.36472718,
				"element": "P" 
			},
			{
				"x": 3.3864873052,
				"y": 1.0402384033,
				"z": 2.0286968954,
				"element": "O" 
			},
			{
				"x": 0.8166030339,
				"y": 0.6407067219,
				"z": 2.2906092706,
				"element": "O" 
			},
			{
				"x": 1.7358974009,
				"y": 1.6850293769,
				"z": -0.0696777097,
				"element": "C" 
			},
			{
				"x": 0.0833299311,
				"y": 1.3947835394,
				"z": -0.8080112677,
				"element": "P" 
			},
			{
				"x": -0.9353196284,
				"y": 1.5805176647,
				"z": 0.4085714069,
				"element": "O" 
			},
			{
				"x": 0.2294021419,
				"y": -0.2352028905,
				"z": -1.0395450948,
				"element": "O" 
			},
			{
				"x": -0.2662133713,
				"y": 2.1433114882,
				"z": -2.0321753878,
				"element": "O" 
			},
			{
				"x": 1.6867014606,
				"y": -1.1187098555,
				"z": 0.114870406,
				"element": "H" 
			},
			{
				"x": 3.2928590777,
				"y": 1.1297925765,
				"z": 2.9886031824,
				"element": "H" 
			},
			{
				"x": 1.7669440607,
				"y": 2.7255673757,
				"z": 0.2659390887,
				"element": "H" 
			},
			{
				"x": 2.5114900694,
				"y": 1.5379653429,
				"z": -0.8250372833,
				"element": "H" 
			},
			{
				"x": -0.5549531183,
				"y": 1.2396145479,
				"z": 1.2577300107,
				"element": "H" 
			},
			{
				"x": -0.4228091379,
				"y": -0.5558373935,
				"z": -1.6801498832,
				"element": "H" 
			}
		],
		 "valence_orbital": [ 
			{
				"type": "occ",
				"energy": -0.34871,
				"method": "rhf"
			},
			{
				"type": "occ",
				"energy": -0.32328,
				"method": "rhf"
			},
			{
				"type": "occ",
				"energy": -0.31936,
				"method": "rhf"
			},
			{
				"type": "occ",
				"energy": -0.30234,
				"method": "rhf"
			},
			{
				"type": "occ",
				"energy": -0.30066,
				"method": "rhf"
			},
			{
				"type": "unocc",
				"energy": 0.01746,
				"method": "rhf"
			},
			{
				"type": "unocc",
				"energy": 0.03319,
				"method": "rhf"
			},
			{
				"type": "unocc",
				"energy": 0.06735,
				"method": "rhf"
			},
			{
				"type": "unocc",
				"energy": 0.07459,
				"method": "rhf"
			},
			{
				"type": "unocc",
				"energy": 0.08812,
				"method": "rhf"
			}
		],
		"cosmo_sigma_profile": { 
			"-0.025": 0.0,
			"-0.024": 0.0,
			"-0.023": 0.0,
			"-0.022": 0.0,
			"-0.021": 0.0111858019884,
			"-0.02": 0.901998912199,
			"-0.019": 2.27001334841,
			"-0.018": 1.75772688896,
			"-0.017": 2.01978533627,
			"-0.016": 1.32872589999,
			"-0.015": 1.90640214845,
			"-0.014": 1.24190651032,
			"-0.013": 2.38473990598,
			"-0.012": 1.60544009531,
			"-0.011": 2.86189503127,
			"-0.01": 7.02189348223,
			"-0.009": 6.16003739967,
			"-0.008": 6.13368437345,
			"-0.007": 6.93773028282,
			"-0.006": 6.86113508259,
			"-0.005": 7.67029702139,
			"-0.004": 6.01383963114,
			"-0.003": 5.43457470365,
			"-0.002": 5.62438004408,
			"-0.001": 4.0620107941,
			"0.0": 5.69024661149,
			"0.001": 5.6872478886,
			"0.002": 4.12367992383,
			"0.003": 4.94304212881,
			"0.004": 5.1595988773,
			"0.005": 4.42655514997,
			"0.006": 4.58922159196,
			"0.007": 5.20503424642,
			"0.008": 6.88031207355,
			"0.009": 7.62082890942,
			"0.01": 5.98895364466,
			"0.011": 4.98292678067,
			"0.012": 3.12334615029,
			"0.013": 5.75062815198,
			"0.014": 9.12323270706,
			"0.015": 0.997115160705,
			"0.016": 0.0,
			"0.017": 0.0,
			"0.018": 0.0,
			"0.019": 0.0,
			"0.02": 0.0,
			"0.021": 0.0,
			"0.022": 0.0,
			"0.023": 0.0,
			"0.024": 0.0,
			"0.025": 0.0
		}
	}
}
