{
	 "smiles": "COC(=O)C1=CC=C(O)C(OC)=C1", 
	 "Tm": 337.15, 
	 "num_atms": 23, 
	 "gaussian": { 
		 "optdone": 1, 
		 "sigma_profile": "yes", 
		 "theory": "DFT", 
		 "functional": "B3LYP", 
		 "basiset": "6-31G**", 
		 "properties": { 
			 "R2extent": 3216.6363, 
			 "electric_dipole_moment_norm": 1.91859213748, 
			 "electric_quadrupole_moment_norm": 8.6299340629, 
			 "total_energy": -649.871265906, 
			 "HOMO_LUMO_gap": 0.17987, 
			 "cosmo_polarized_energy": -14.61, 
			 "cosmo_cavitation_energy": 27.6, 
			 "cosmo_dispersion_energy": -20.3, 
			 "cosmo_repulsion_energy": 1.62, 
			 "cosmo_total_nonelectrostatic_energy": 8.91, 
			 "SMD_solvation_energy": 7.55 
		},
		"coords": [
			{
				"x": 1.2857600779,
				"y": -1.3625107315,
				"z": 3.8461292699,
				"element": "C" 
			},
			{
				"x": 1.4039313869,
				"y": -0.4831983711,
				"z": 2.7196000051,
				"element": "O" 
			},
			{
				"x": 0.2915163468,
				"y": -0.3805098178,
				"z": 1.9509625563,
				"element": "C" 
			},
			{
				"x": -0.7350380775,
				"y": -0.988405725,
				"z": 2.1952960832,
				"element": "O" 
			},
			{
				"x": 0.4745695785,
				"y": 0.5415034577,
				"z": 0.8031398599,
				"element": "C" 
			},
			{
				"x": 1.6707598146,
				"y": 1.2189711419,
				"z": 0.5608005105,
				"element": "C" 
			},
			{
				"x": 1.7676385411,
				"y": 2.0704466194,
				"z": -0.5400746098,
				"element": "C" 
			},
			{
				"x": 0.6862398511,
				"y": 2.253542848,
				"z": -1.4008256859,
				"element": "C" 
			},
			{
				"x": 0.7274636386,
				"y": 3.0706589562,
				"z": -2.4867241374,
				"element": "O" 
			},
			{
				"x": -0.5305718603,
				"y": 1.5677179602,
				"z": -1.1587335124,
				"element": "C" 
			},
			{
				"x": -1.5273814598,
				"y": 1.8106763322,
				"z": -2.0527964113,
				"element": "O" 
			},
			{
				"x": -2.7665093314,
				"y": 1.147709754,
				"z": -1.8542593143,
				"element": "C" 
			},
			{
				"x": -0.6214174547,
				"y": 0.7211342718,
				"z": -0.0611265806,
				"element": "C" 
			},
			{
				"x": 1.0574872785,
				"y": -2.3807170001,
				"z": 3.5203349846,
				"element": "H" 
			},
			{
				"x": 2.2528235033,
				"y": -1.3298867103,
				"z": 4.3484878635,
				"element": "H" 
			},
			{
				"x": 0.4929744969,
				"y": -1.0253707772,
				"z": 4.5190550202,
				"element": "H" 
			},
			{
				"x": 2.5161274722,
				"y": 1.0829306552,
				"z": 1.2240505909,
				"element": "H" 
			},
			{
				"x": 2.6957381148,
				"y": 2.6030706205,
				"z": -0.7376199174,
				"element": "H" 
			},
			{
				"x": 1.6038665763,
				"y": 3.4743006336,
				"z": -2.5385915542,
				"element": "H" 
			},
			{
				"x": -3.415162397,
				"y": 1.4761915895,
				"z": -2.6675227291,
				"element": "H" 
			},
			{
				"x": -3.2218871804,
				"y": 1.420645396,
				"z": -0.8936580318,
				"element": "H" 
			},
			{
				"x": -2.6531676775,
				"y": 0.0569117016,
				"z": -1.8980705888,
				"element": "H" 
			},
			{
				"x": -1.5314612388,
				"y": 0.1782871952,
				"z": 0.1604463289,
				"element": "H" 
			}
		],
		 "valence_orbital": [ 
			{
				"type": "occ",
				"energy": -0.31854,
				"method": "rhf"
			},
			{
				"type": "occ",
				"energy": -0.29488,
				"method": "rhf"
			},
			{
				"type": "occ",
				"energy": -0.26664,
				"method": "rhf"
			},
			{
				"type": "occ",
				"energy": -0.24404,
				"method": "rhf"
			},
			{
				"type": "occ",
				"energy": -0.21219,
				"method": "rhf"
			},
			{
				"type": "unocc",
				"energy": -0.03232,
				"method": "rhf"
			},
			{
				"type": "unocc",
				"energy": 0.00482,
				"method": "rhf"
			},
			{
				"type": "unocc",
				"energy": 0.06418,
				"method": "rhf"
			},
			{
				"type": "unocc",
				"energy": 0.07281,
				"method": "rhf"
			},
			{
				"type": "unocc",
				"energy": 0.09379,
				"method": "rhf"
			}
		],
		"cosmo_sigma_profile": { 
			"-0.025": 0.0,
			"-0.024": 0.0,
			"-0.023": 0.0,
			"-0.022": 0.0,
			"-0.021": 0.0,
			"-0.02": 0.0,
			"-0.019": 0.167058823868,
			"-0.018": 0.986872888215,
			"-0.017": 1.23459448634,
			"-0.016": 0.962249692911,
			"-0.015": 1.0824935848,
			"-0.014": 1.07751290276,
			"-0.013": 0.847138612791,
			"-0.012": 0.972314814195,
			"-0.011": 1.34072541156,
			"-0.01": 0.851339648676,
			"-0.009": 1.06069809955,
			"-0.008": 1.24332974992,
			"-0.007": 2.50123566502,
			"-0.006": 12.1249696671,
			"-0.005": 19.5534866751,
			"-0.004": 19.7734753966,
			"-0.003": 19.0789677235,
			"-0.002": 13.1286003263,
			"-0.001": 10.9761590329,
			"0.0": 9.88172168383,
			"0.001": 12.6180276861,
			"0.002": 17.3176760283,
			"0.003": 15.3863891783,
			"0.004": 13.7953700622,
			"0.005": 6.52282357916,
			"0.006": 5.89648653822,
			"0.007": 3.77743200051,
			"0.008": 3.00335626731,
			"0.009": 2.70144510164,
			"0.01": 4.73253878622,
			"0.011": 4.57066427415,
			"0.012": 5.86674781899,
			"0.013": 3.22432023429,
			"0.014": 0.966683170019,
			"0.015": 0.012146904635,
			"0.016": 0.0,
			"0.017": 0.0,
			"0.018": 0.0,
			"0.019": 0.0,
			"0.02": 0.0,
			"0.021": 0.0,
			"0.022": 0.0,
			"0.023": 0.0,
			"0.024": 0.0,
			"0.025": 0.0
		}
	}
}
