{
	 "smiles": "CC1=CC2=C(N3C(S)=NN=C3C=C2C)C(C)=C1", 
	 "Tm": 536.15, 
	 "num_atms": 30, 
	 "gaussian": { 
		 "optdone": 1, 
		 "sigma_profile": "yes", 
		 "theory": "DFT", 
		 "functional": "B3LYP", 
		 "basiset": "6-31G**", 
		 "properties": { 
			 "R2extent": 5087.7404, 
			 "electric_dipole_moment_norm": 5.72150232194, 
			 "electric_quadrupole_moment_norm": 20.2005525063, 
			 "total_energy": -1065.64407074, 
			 "HOMO_LUMO_gap": 0.15493, 
			 "cosmo_polarized_energy": -14.2, 
			 "cosmo_cavitation_energy": 33.7, 
			 "cosmo_dispersion_energy": -25.21, 
			 "cosmo_repulsion_energy": 1.86, 
			 "cosmo_total_nonelectrostatic_energy": 10.36, 
			 "SMD_solvation_energy": 3.13 
		},
		"coords": [
			{
				"x": -1.4861808487,
				"y": 2.8348626602,
				"z": 1.7037630898,
				"element": "C" 
			},
			{
				"x": -1.1372907741,
				"y": 1.5940060022,
				"z": 0.9185916994,
				"element": "C" 
			},
			{
				"x": 0.1610472198,
				"y": 1.3467892853,
				"z": 0.4886381083,
				"element": "C" 
			},
			{
				"x": 0.4909289356,
				"y": 0.2193432789,
				"z": -0.2853952001,
				"element": "C" 
			},
			{
				"x": -0.5625929476,
				"y": -0.6533556513,
				"z": -0.6978531632,
				"element": "C" 
			},
			{
				"x": -0.2025478688,
				"y": -1.6797142176,
				"z": -1.6057509649,
				"element": "N" 
			},
			{
				"x": -0.8678786737,
				"y": -2.4823940214,
				"z": -2.5238796897,
				"element": "C" 
			},
			{
				"x": -2.5303867257,
				"y": -2.3106785725,
				"z": -3.1157587657,
				"element": "S" 
			},
			{
				"x": -0.0181017049,
				"y": -3.2918118113,
				"z": -3.1258001969,
				"element": "N" 
			},
			{
				"x": 1.240125703,
				"y": -3.0228620124,
				"z": -2.6705755652,
				"element": "N" 
			},
			{
				"x": 1.1342610732,
				"y": -2.0452007998,
				"z": -1.7900724215,
				"element": "C" 
			},
			{
				"x": 2.1771675102,
				"y": -1.2627476345,
				"z": -1.2183203567,
				"element": "C" 
			},
			{
				"x": 1.8878846545,
				"y": -0.1093184903,
				"z": -0.5605722668,
				"element": "C" 
			},
			{
				"x": 2.992330195,
				"y": 0.787863231,
				"z": -0.064065346,
				"element": "C" 
			},
			{
				"x": -1.8477769994,
				"y": -0.5174931729,
				"z": -0.1250117635,
				"element": "C" 
			},
			{
				"x": -2.9200628352,
				"y": -1.5842991186,
				"z": -0.1602673604,
				"element": "C" 
			},
			{
				"x": -2.1050114094,
				"y": 0.6214815924,
				"z": 0.6417675055,
				"element": "C" 
			},
			{
				"x": -1.9686128086,
				"y": 3.5830634508,
				"z": 1.0628642396,
				"element": "H" 
			},
			{
				"x": -2.1827203124,
				"y": 2.6111808712,
				"z": 2.5181957977,
				"element": "H" 
			},
			{
				"x": -0.5955497784,
				"y": 3.2989904963,
				"z": 2.1365768594,
				"element": "H" 
			},
			{
				"x": 0.9505144382,
				"y": 2.0304322989,
				"z": 0.7803910236,
				"element": "H" 
			},
			{
				"x": -2.2038147073,
				"y": -2.8640010832,
				"z": -4.2992138325,
				"element": "H" 
			},
			{
				"x": 3.195125515,
				"y": -1.5827674527,
				"z": -1.4097145626,
				"element": "H" 
			},
			{
				"x": 2.9151151406,
				"y": 1.7941907078,
				"z": -0.4922103537,
				"element": "H" 
			},
			{
				"x": 2.968201074,
				"y": 0.8978672186,
				"z": 1.0264305407,
				"element": "H" 
			},
			{
				"x": 3.9679575301,
				"y": 0.3813158151,
				"z": -0.3396427339,
				"element": "H" 
			},
			{
				"x": -3.6946669803,
				"y": -1.3879674663,
				"z": -0.9069474704,
				"element": "H" 
			},
			{
				"x": -3.4161920752,
				"y": -1.6163963622,
				"z": 0.814128426,
				"element": "H" 
			},
			{
				"x": -2.5142718541,
				"y": -2.5799956813,
				"z": -0.3490911864,
				"element": "H" 
			},
			{
				"x": -3.0977996852,
				"y": 0.7287166395,
				"z": 1.0731959099,
				"element": "H" 
			}
		],
		 "valence_orbital": [ 
			{
				"type": "occ",
				"energy": -0.28764,
				"method": "rhf"
			},
			{
				"type": "occ",
				"energy": -0.2563,
				"method": "rhf"
			},
			{
				"type": "occ",
				"energy": -0.25294,
				"method": "rhf"
			},
			{
				"type": "occ",
				"energy": -0.23955,
				"method": "rhf"
			},
			{
				"type": "occ",
				"energy": -0.20708,
				"method": "rhf"
			},
			{
				"type": "unocc",
				"energy": -0.05215,
				"method": "rhf"
			},
			{
				"type": "unocc",
				"energy": -0.02798,
				"method": "rhf"
			},
			{
				"type": "unocc",
				"energy": 0.00945,
				"method": "rhf"
			},
			{
				"type": "unocc",
				"energy": 0.01709,
				"method": "rhf"
			},
			{
				"type": "unocc",
				"energy": 0.02823,
				"method": "rhf"
			}
		],
		"cosmo_sigma_profile": { 
			"-0.025": 0.0,
			"-0.024": 0.0,
			"-0.023": 0.0,
			"-0.022": 0.0,
			"-0.021": 0.0,
			"-0.02": 0.0,
			"-0.019": 0.0,
			"-0.018": 0.0,
			"-0.017": 0.0,
			"-0.016": 0.0,
			"-0.015": 0.0,
			"-0.014": 0.0,
			"-0.013": 0.0,
			"-0.012": 0.352368250526,
			"-0.011": 1.53085365517,
			"-0.01": 1.46174982264,
			"-0.009": 1.17097440945,
			"-0.008": 1.3865267187,
			"-0.007": 3.14106503569,
			"-0.006": 7.29876691965,
			"-0.005": 20.9823758655,
			"-0.004": 24.5245270521,
			"-0.003": 23.6951572625,
			"-0.002": 28.7158823569,
			"-0.001": 30.7712805196,
			"0.0": 29.8081667435,
			"0.001": 18.9672716648,
			"0.002": 18.1020497022,
			"0.003": 14.5929541352,
			"0.004": 10.6697939154,
			"0.005": 4.41879742634,
			"0.006": 3.84641779665,
			"0.007": 2.64405671273,
			"0.008": 2.69325460634,
			"0.009": 1.80352125942,
			"0.01": 1.94636510515,
			"0.011": 2.46296801069,
			"0.012": 2.87122360802,
			"0.013": 3.46153152937,
			"0.014": 2.64056421945,
			"0.015": 2.45752025091,
			"0.016": 1.65275024596,
			"0.017": 0.642195184521,
			"0.018": 0.0,
			"0.019": 0.0,
			"0.02": 0.0,
			"0.021": 0.0,
			"0.022": 0.0,
			"0.023": 0.0,
			"0.024": 0.0,
			"0.025": 0.0
		}
	}
}
