{
	 "smiles": "CC(C=CC=C(/C)C=CC1=C(C)C=CCC1(C)C)=C/C=O", 
	 "Tm": 350.65, 
	 "num_atms": 47, 
	 "gaussian": { 
		 "optdone": 1, 
		 "sigma_profile": "yes", 
		 "theory": "DFT", 
		 "functional": "B3LYP", 
		 "basiset": "6-31G**", 
		 "properties": { 
			 "R2extent": 13404.6148, 
			 "electric_dipole_moment_norm": 5.97900290768, 
			 "electric_quadrupole_moment_norm": 39.2444021072, 
			 "total_energy": -852.946043959, 
			 "HOMO_LUMO_gap": 0.10619, 
			 "cosmo_polarized_energy": -11.97, 
			 "cosmo_cavitation_energy": 48.41, 
			 "cosmo_dispersion_energy": -32.79, 
			 "cosmo_repulsion_energy": 2.54, 
			 "cosmo_total_nonelectrostatic_energy": 18.16, 
			 "SMD_solvation_energy": 9.44 
		},
		"coords": [
			{
				"x": -4.6578480993,
				"y": 4.6696328861,
				"z": -1.8540130278,
				"element": "C" 
			},
			{
				"x": -4.45855188,
				"y": 4.0386222454,
				"z": -0.4931519496,
				"element": "C" 
			},
			{
				"x": -3.384084906,
				"y": 3.0475067996,
				"z": -0.4439456895,
				"element": "C" 
			},
			{
				"x": -3.2780321549,
				"y": 2.0410501287,
				"z": 0.46549621,
				"element": "C" 
			},
			{
				"x": -2.251721982,
				"y": 1.0303077429,
				"z": 0.5823670001,
				"element": "C" 
			},
			{
				"x": -0.9383101538,
				"y": 1.0521053419,
				"z": 0.1951959301,
				"element": "C" 
			},
			{
				"x": -0.2713761797,
				"y": 2.2640918986,
				"z": -0.4070187062,
				"element": "C" 
			},
			{
				"x": -0.152463226,
				"y": -0.1529788125,
				"z": 0.4115868988,
				"element": "C" 
			},
			{
				"x": 1.1264100535,
				"y": -0.3594954175,
				"z": 0.0047648764,
				"element": "C" 
			},
			{
				"x": 1.9238976955,
				"y": -1.5704353826,
				"z": 0.2041760294,
				"element": "C" 
			},
			{
				"x": 1.9223911587,
				"y": -2.3004677025,
				"z": 1.3605848215,
				"element": "C" 
			},
			{
				"x": 1.1805179796,
				"y": -1.9255620577,
				"z": 2.6233102102,
				"element": "C" 
			},
			{
				"x": 2.7179986467,
				"y": -3.530319072,
				"z": 1.4540247991,
				"element": "C" 
			},
			{
				"x": 3.6817246911,
				"y": -3.8287243789,
				"z": 0.5698478342,
				"element": "C" 
			},
			{
				"x": 3.9794162849,
				"y": -2.8757937517,
				"z": -0.5512237883,
				"element": "C" 
			},
			{
				"x": 2.735981594,
				"y": -2.0821658966,
				"z": -1.0147941334,
				"element": "C" 
			},
			{
				"x": 3.2262002422,
				"y": -0.944242677,
				"z": -1.9322241762,
				"element": "C" 
			},
			{
				"x": 1.8013144857,
				"y": -3.0053560047,
				"z": -1.8354697145,
				"element": "C" 
			},
			{
				"x": -5.1915881778,
				"y": 4.360957052,
				"z": 0.6091000543,
				"element": "C" 
			},
			{
				"x": -6.319286938,
				"y": 5.2859536256,
				"z": 0.668328183,
				"element": "C" 
			},
			{
				"x": -6.9392605113,
				"y": 5.518734498,
				"z": 1.6968372277,
				"element": "O" 
			},
			{
				"x": -3.7137311461,
				"y": 5.1059388935,
				"z": -2.2019157911,
				"element": "H" 
			},
			{
				"x": -4.9406013449,
				"y": 3.9070284996,
				"z": -2.5893835877,
				"element": "H" 
			},
			{
				"x": -5.4140350207,
				"y": 5.4535093272,
				"z": -1.8687287405,
				"element": "H" 
			},
			{
				"x": -2.6680450292,
				"y": 3.0975578879,
				"z": -1.2599245595,
				"element": "H" 
			},
			{
				"x": -4.0992051366,
				"y": 1.9271353042,
				"z": 1.1726544892,
				"element": "H" 
			},
			{
				"x": -2.5815066111,
				"y": 0.1234885869,
				"z": 1.0885983531,
				"element": "H" 
			},
			{
				"x": -0.7942863446,
				"y": 3.1818904001,
				"z": -0.1309153304,
				"element": "H" 
			},
			{
				"x": -0.2466229524,
				"y": 2.2116136011,
				"z": -1.5032528653,
				"element": "H" 
			},
			{
				"x": 0.7639580502,
				"y": 2.347722769,
				"z": -0.064775774,
				"element": "H" 
			},
			{
				"x": -0.6784475339,
				"y": -0.9672262566,
				"z": 0.904491371,
				"element": "H" 
			},
			{
				"x": 1.6009287807,
				"y": 0.4264768241,
				"z": -0.5770455607,
				"element": "H" 
			},
			{
				"x": 0.2507859976,
				"y": -2.5003280258,
				"z": 2.7319983484,
				"element": "H" 
			},
			{
				"x": 1.7941624765,
				"y": -2.1577562322,
				"z": 3.5011460998,
				"element": "H" 
			},
			{
				"x": 0.918846687,
				"y": -0.8669186242,
				"z": 2.6552619967,
				"element": "H" 
			},
			{
				"x": 2.5304188021,
				"y": -4.1822755507,
				"z": 2.3047205367,
				"element": "H" 
			},
			{
				"x": 4.2903226877,
				"y": -4.7220098581,
				"z": 0.6862819226,
				"element": "H" 
			},
			{
				"x": 4.7597897287,
				"y": -2.1718656309,
				"z": -0.2153369807,
				"element": "H" 
			},
			{
				"x": 4.4052631237,
				"y": -3.4052711445,
				"z": -1.4125633352,
				"element": "H" 
			},
			{
				"x": 3.8157998952,
				"y": -0.2040215364,
				"z": -1.3796908981,
				"element": "H" 
			},
			{
				"x": 2.4000976769,
				"y": -0.4264319743,
				"z": -2.4282435736,
				"element": "H" 
			},
			{
				"x": 3.8667545542,
				"y": -1.3583797326,
				"z": -2.7184199779,
				"element": "H" 
			},
			{
				"x": 0.8997878859,
				"y": -2.4659947538,
				"z": -2.1428780766,
				"element": "H" 
			},
			{
				"x": 2.3090397045,
				"y": -3.3627001085,
				"z": -2.7397578533,
				"element": "H" 
			},
			{
				"x": 1.4940088354,
				"y": -3.8763833545,
				"z": -1.2499386843,
				"element": "H" 
			},
			{
				"x": -4.9436018051,
				"y": 3.9139060832,
				"z": 1.5684345578,
				"element": "H" 
			},
			{
				"x": -6.6108105848,
				"y": 5.7877735416,
				"z": -0.2778949754,
				"element": "H" 
			}
		],
		 "valence_orbital": [ 
			{
				"type": "occ",
				"energy": -0.29011,
				"method": "rhf"
			},
			{
				"type": "occ",
				"energy": -0.26101,
				"method": "rhf"
			},
			{
				"type": "occ",
				"energy": -0.23562,
				"method": "rhf"
			},
			{
				"type": "occ",
				"energy": -0.22425,
				"method": "rhf"
			},
			{
				"type": "occ",
				"energy": -0.19159,
				"method": "rhf"
			},
			{
				"type": "unocc",
				"energy": -0.0854,
				"method": "rhf"
			},
			{
				"type": "unocc",
				"energy": -0.03988,
				"method": "rhf"
			},
			{
				"type": "unocc",
				"energy": -0.00503,
				"method": "rhf"
			},
			{
				"type": "unocc",
				"energy": 0.03887,
				"method": "rhf"
			},
			{
				"type": "unocc",
				"energy": 0.0708,
				"method": "rhf"
			}
		],
		"cosmo_sigma_profile": { 
			"-0.025": 0.0,
			"-0.024": 0.0,
			"-0.023": 0.0,
			"-0.022": 0.0,
			"-0.021": 0.0,
			"-0.02": 0.0,
			"-0.019": 0.0,
			"-0.018": 0.0,
			"-0.017": 0.0,
			"-0.016": 0.0,
			"-0.015": 0.0,
			"-0.014": 0.0,
			"-0.013": 0.0,
			"-0.012": 0.0,
			"-0.011": 0.0,
			"-0.01": 0.0,
			"-0.009": 0.0,
			"-0.008": 0.0,
			"-0.007": 1.16980837837,
			"-0.006": 6.71674028168,
			"-0.005": 20.5727034737,
			"-0.004": 28.7618366342,
			"-0.003": 44.3803656248,
			"-0.002": 49.831789117,
			"-0.001": 46.244184859,
			"0.0": 42.4375709226,
			"0.001": 35.9781550065,
			"0.002": 25.2016899098,
			"0.003": 24.5493107717,
			"0.004": 20.278761421,
			"0.005": 10.8265210307,
			"0.006": 2.85517443807,
			"0.007": 2.13774808815,
			"0.008": 0.913645741621,
			"0.009": 2.02574866707,
			"0.01": 1.88747331617,
			"0.011": 2.17365548799,
			"0.012": 4.03912009524,
			"0.013": 4.79781608604,
			"0.014": 2.3251958464,
			"0.015": 0.159790981196,
			"0.016": 0.0,
			"0.017": 0.0,
			"0.018": 0.0,
			"0.019": 0.0,
			"0.02": 0.0,
			"0.021": 0.0,
			"0.022": 0.0,
			"0.023": 0.0,
			"0.024": 0.0,
			"0.025": 0.0
		}
	}
}
