{
	 "smiles": "C=CCC=C", 
	 "Tm": 125.15, 
	 "num_atms": 13, 
	 "gaussian": { 
		 "optdone": 1, 
		 "sigma_profile": "yes", 
		 "theory": "DFT", 
		 "functional": "B3LYP", 
		 "basiset": "6-31G**", 
		 "properties": { 
			 "R2extent": 1039.2551, 
			 "electric_dipole_moment_norm": 0.290210371972, 
			 "electric_quadrupole_moment_norm": 2.00052278167, 
			 "total_energy": -195.304808597, 
			 "HOMO_LUMO_gap": 0.26281, 
			 "cosmo_polarized_energy": -2.59, 
			 "cosmo_cavitation_energy": 16.66, 
			 "cosmo_dispersion_energy": -11.71, 
			 "cosmo_repulsion_energy": 1.04, 
			 "cosmo_total_nonelectrostatic_energy": 6.0, 
			 "SMD_solvation_energy": 4.34 
		},
		"coords": [
			{
				"x": -3.5949969648,
				"y": 1.3194136927,
				"z": 0.5484044982,
				"element": "C" 
			},
			{
				"x": -2.692189621,
				"y": 1.3061943974,
				"z": -0.4314503895,
				"element": "C" 
			},
			{
				"x": -2.1344164981,
				"y": 0.0615450067,
				"z": -1.0800017555,
				"element": "C" 
			},
			{
				"x": -0.6295724286,
				"y": -0.0213069425,
				"z": -0.9826697889,
				"element": "C" 
			},
			{
				"x": 0.0469689608,
				"y": -1.0245943014,
				"z": -0.4249424505,
				"element": "C" 
			},
			{
				"x": -4.0022523394,
				"y": 0.3994627033,
				"z": 0.9617202144,
				"element": "H" 
			},
			{
				"x": -3.9626735506,
				"y": 2.2486287795,
				"z": 0.9737744097,
				"element": "H" 
			},
			{
				"x": -2.3069553875,
				"y": 2.2529018978,
				"z": -0.8127379055,
				"element": "H" 
			},
			{
				"x": -2.4162003344,
				"y": 0.0661611288,
				"z": -2.1455136464,
				"element": "H" 
			},
			{
				"x": -2.5896295661,
				"y": -0.8304491844,
				"z": -0.6352097781,
				"element": "H" 
			},
			{
				"x": -0.0798699187,
				"y": 0.8195739724,
				"z": -1.4078586567,
				"element": "H" 
			},
			{
				"x": 1.132398744,
				"y": -1.0305985779,
				"z": -0.3878898436,
				"element": "H" 
			},
			{
				"x": -0.4604110956,
				"y": -1.8801325725,
				"z": 0.0150750925,
				"element": "H" 
			}
		],
		 "valence_orbital": [ 
			{
				"type": "occ",
				"energy": -0.38592,
				"method": "rhf"
			},
			{
				"type": "occ",
				"energy": -0.34379,
				"method": "rhf"
			},
			{
				"type": "occ",
				"energy": -0.34331,
				"method": "rhf"
			},
			{
				"type": "occ",
				"energy": -0.25547,
				"method": "rhf"
			},
			{
				"type": "occ",
				"energy": -0.25197,
				"method": "rhf"
			},
			{
				"type": "unocc",
				"energy": 0.01084,
				"method": "rhf"
			},
			{
				"type": "unocc",
				"energy": 0.03899,
				"method": "rhf"
			},
			{
				"type": "unocc",
				"energy": 0.11262,
				"method": "rhf"
			},
			{
				"type": "unocc",
				"energy": 0.11923,
				"method": "rhf"
			},
			{
				"type": "unocc",
				"energy": 0.13117,
				"method": "rhf"
			}
		],
		"cosmo_sigma_profile": { 
			"-0.025": 0.0,
			"-0.024": 0.0,
			"-0.023": 0.0,
			"-0.022": 0.0,
			"-0.021": 0.0,
			"-0.02": 0.0,
			"-0.019": 0.0,
			"-0.018": 0.0,
			"-0.017": 0.0,
			"-0.016": 0.0,
			"-0.015": 0.0,
			"-0.014": 0.0,
			"-0.013": 0.0,
			"-0.012": 0.0,
			"-0.011": 0.0,
			"-0.01": 0.0,
			"-0.009": 0.0,
			"-0.008": 0.0,
			"-0.007": 0.0,
			"-0.006": 0.0070478458975,
			"-0.005": 6.66501007438,
			"-0.004": 15.7276858401,
			"-0.003": 17.2137784828,
			"-0.002": 16.0121143956,
			"-0.001": 12.9229156543,
			"0.0": 11.9144820317,
			"0.001": 8.52345048297,
			"0.002": 9.27627359786,
			"0.003": 6.95051272337,
			"0.004": 7.0835308574,
			"0.005": 6.50162193767,
			"0.006": 6.07146321447,
			"0.007": 5.4034436676,
			"0.008": 1.2350536759,
			"0.009": 0.0,
			"0.01": 0.0,
			"0.011": 0.0,
			"0.012": 0.0,
			"0.013": 0.0,
			"0.014": 0.0,
			"0.015": 0.0,
			"0.016": 0.0,
			"0.017": 0.0,
			"0.018": 0.0,
			"0.019": 0.0,
			"0.02": 0.0,
			"0.021": 0.0,
			"0.022": 0.0,
			"0.023": 0.0,
			"0.024": 0.0,
			"0.025": 0.0
		}
	}
}
