{
	 "smiles": "ClS(=O)(=O)C1=CC=C(C=C1)C(=O)N1CCOCC1", 
	 "Tm": 384.15, 
	 "num_atms": 30, 
	 "gaussian": { 
		 "optdone": 1, 
		 "sigma_profile": "yes", 
		 "theory": "DFT", 
		 "functional": "B3LYP", 
		 "basiset": "6-31G**", 
		 "properties": { 
			 "R2extent": 8973.1707, 
			 "electric_dipole_moment_norm": 4.87310920563, 
			 "electric_quadrupole_moment_norm": 24.7851097785, 
			 "total_energy": -1640.34741839, 
			 "HOMO_LUMO_gap": 0.1613, 
			 "cosmo_polarized_energy": -17.6, 
			 "cosmo_cavitation_energy": 36.72, 
			 "cosmo_dispersion_energy": -27.12, 
			 "cosmo_repulsion_energy": 2.06, 
			 "cosmo_total_nonelectrostatic_energy": 11.67, 
			 "SMD_solvation_energy": 4.47 
		},
		"coords": [
			{
				"x": -0.9419406447,
				"y": 5.3864830638,
				"z": 2.0245008923,
				"element": "Cl" 
			},
			{
				"x": 0.4283389749,
				"y": 4.9059002724,
				"z": 0.4632139103,
				"element": "S" 
			},
			{
				"x": 0.0918665223,
				"y": 5.7759151891,
				"z": -0.6564030501,
				"element": "O" 
			},
			{
				"x": 1.7522525726,
				"y": 4.8949615954,
				"z": 1.0730442287,
				"element": "O" 
			},
			{
				"x": -0.055586206,
				"y": 3.2287455753,
				"z": 0.0745986216,
				"element": "C" 
			},
			{
				"x": -1.0362793998,
				"y": 3.0169221826,
				"z": -0.8965618033,
				"element": "C" 
			},
			{
				"x": -1.3939775106,
				"y": 1.7073153506,
				"z": -1.2000233389,
				"element": "C" 
			},
			{
				"x": -0.7617130738,
				"y": 0.6284138628,
				"z": -0.5646276297,
				"element": "C" 
			},
			{
				"x": 0.2114300302,
				"y": 0.8732488464,
				"z": 0.4144403647,
				"element": "C" 
			},
			{
				"x": 0.5689159674,
				"y": 2.1788945226,
				"z": 0.7466207726,
				"element": "C" 
			},
			{
				"x": -1.2659792159,
				"y": -0.7554520011,
				"z": -0.895548572,
				"element": "C" 
			},
			{
				"x": -2.4727835853,
				"y": -0.9375433752,
				"z": -1.0432256518,
				"element": "O" 
			},
			{
				"x": -0.3676717097,
				"y": -1.7861696642,
				"z": -0.9918822587,
				"element": "N" 
			},
			{
				"x": -0.9309817512,
				"y": -3.1212547749,
				"z": -1.2520559213,
				"element": "C" 
			},
			{
				"x": 0.150828285,
				"y": -4.1766068472,
				"z": -1.0624557636,
				"element": "C" 
			},
			{
				"x": 1.2704358246,
				"y": -3.9943114822,
				"z": -1.9282890136,
				"element": "O" 
			},
			{
				"x": 1.5231141008,
				"y": -2.6424186552,
				"z": -2.2904755668,
				"element": "C" 
			},
			{
				"x": 1.0790188297,
				"y": -1.6494390355,
				"z": -1.2165515898,
				"element": "C" 
			},
			{
				"x": -1.5010852209,
				"y": 3.8583824646,
				"z": -1.3978175859,
				"element": "H" 
			},
			{
				"x": -2.1732763542,
				"y": 1.5021547718,
				"z": -1.925664398,
				"element": "H" 
			},
			{
				"x": 0.6799510864,
				"y": 0.0459405494,
				"z": 0.9366964077,
				"element": "H" 
			},
			{
				"x": 1.3185653767,
				"y": 2.3817960684,
				"z": 1.5030286866,
				"element": "H" 
			},
			{
				"x": -1.3452179499,
				"y": -3.1696797753,
				"z": -2.2675437032,
				"element": "H" 
			},
			{
				"x": -1.7616316164,
				"y": -3.2930014686,
				"z": -0.562792488,
				"element": "H" 
			},
			{
				"x": 0.4829077396,
				"y": -4.1777177375,
				"z": -0.0125817947,
				"element": "H" 
			},
			{
				"x": -0.2600784954,
				"y": -5.1671863772,
				"z": -1.2800659567,
				"element": "H" 
			},
			{
				"x": 2.6021966329,
				"y": -2.5503192142,
				"z": -2.4527152504,
				"element": "H" 
			},
			{
				"x": 1.0186035314,
				"y": -2.397956421,
				"z": -3.2381756797,
				"element": "H" 
			},
			{
				"x": 1.6415630219,
				"y": -1.8401871881,
				"z": -0.2925290699,
				"element": "H" 
			},
			{
				"x": 1.3110142375,
				"y": -0.6337302978,
				"z": -1.5431577986,
				"element": "H" 
			}
		],
		 "valence_orbital": [ 
			{
				"type": "occ",
				"energy": -0.29734,
				"method": "rhf"
			},
			{
				"type": "occ",
				"energy": -0.29433,
				"method": "rhf"
			},
			{
				"type": "occ",
				"energy": -0.27427,
				"method": "rhf"
			},
			{
				"type": "occ",
				"energy": -0.26436,
				"method": "rhf"
			},
			{
				"type": "occ",
				"energy": -0.25782,
				"method": "rhf"
			},
			{
				"type": "unocc",
				"energy": -0.09652,
				"method": "rhf"
			},
			{
				"type": "unocc",
				"energy": -0.05945,
				"method": "rhf"
			},
			{
				"type": "unocc",
				"energy": -0.04364,
				"method": "rhf"
			},
			{
				"type": "unocc",
				"energy": 0.01415,
				"method": "rhf"
			},
			{
				"type": "unocc",
				"energy": 0.05209,
				"method": "rhf"
			}
		],
		"cosmo_sigma_profile": { 
			"-0.025": 0.0,
			"-0.024": 0.0,
			"-0.023": 0.0,
			"-0.022": 0.0,
			"-0.021": 0.0,
			"-0.02": 0.0,
			"-0.019": 0.0,
			"-0.018": 0.0,
			"-0.017": 0.0,
			"-0.016": 0.0,
			"-0.015": 0.0,
			"-0.014": 0.0,
			"-0.013": 0.0,
			"-0.012": 0.0,
			"-0.011": 0.0,
			"-0.01": 0.00724111122537,
			"-0.009": 1.38564424876,
			"-0.008": 6.46057828112,
			"-0.007": 10.5721727659,
			"-0.006": 18.8363576839,
			"-0.005": 28.576521719,
			"-0.004": 30.1432557824,
			"-0.003": 22.4197518344,
			"-0.002": 17.3545860994,
			"-0.001": 20.5029093597,
			"0.0": 23.3191175705,
			"0.001": 16.4262967296,
			"0.002": 12.794025344,
			"0.003": 17.7851072861,
			"0.004": 10.651767122,
			"0.005": 5.58175368205,
			"0.006": 6.4658800249,
			"0.007": 8.54263816316,
			"0.008": 13.0433706134,
			"0.009": 6.25652290285,
			"0.01": 2.29849260766,
			"0.011": 2.92967900211,
			"0.012": 3.17517989743,
			"0.013": 6.64132560794,
			"0.014": 2.21899077532,
			"0.015": 0.0,
			"0.016": 0.0,
			"0.017": 0.0,
			"0.018": 0.0,
			"0.019": 0.0,
			"0.02": 0.0,
			"0.021": 0.0,
			"0.022": 0.0,
			"0.023": 0.0,
			"0.024": 0.0,
			"0.025": 0.0
		}
	}
}
