{
	 "smiles": "OC(=O)C1=CC2=C(C=C1)C(=O)N(CC1CCCO1)C2=O", 
	 "Tm": 427.15, 
	 "num_atms": 33, 
	 "gaussian": { 
		 "optdone": 1, 
		 "sigma_profile": "yes", 
		 "theory": "DFT", 
		 "functional": "B3LYP", 
		 "basiset": "6-31G**", 
		 "properties": { 
			 "R2extent": 9025.586, 
			 "electric_dipole_moment_norm": 5.31655625946, 
			 "electric_quadrupole_moment_norm": 34.499538886, 
			 "total_energy": -972.225647035, 
			 "HOMO_LUMO_gap": 0.14707, 
			 "cosmo_polarized_energy": -22.5, 
			 "cosmo_cavitation_energy": 37.53, 
			 "cosmo_dispersion_energy": -26.75, 
			 "cosmo_repulsion_energy": 2.03, 
			 "cosmo_total_nonelectrostatic_energy": 12.8, 
			 "SMD_solvation_energy": 8.02 
		},
		"coords": [
			{
				"x": 2.5756594264,
				"y": 4.3218150086,
				"z": -5.0400399042,
				"element": "O" 
			},
			{
				"x": 2.1677660285,
				"y": 4.4074963761,
				"z": -3.7474232185,
				"element": "C" 
			},
			{
				"x": 2.2252232985,
				"y": 5.4593288294,
				"z": -3.1583357057,
				"element": "O" 
			},
			{
				"x": 1.6563783886,
				"y": 3.1446304592,
				"z": -3.1100038893,
				"element": "C" 
			},
			{
				"x": 0.8167623738,
				"y": 3.2856677273,
				"z": -1.9897871463,
				"element": "C" 
			},
			{
				"x": 0.3480370599,
				"y": 2.1301773193,
				"z": -1.3903830057,
				"element": "C" 
			},
			{
				"x": 0.7088506973,
				"y": 0.8641118653,
				"z": -1.8573633271,
				"element": "C" 
			},
			{
				"x": 1.5558596032,
				"y": 0.7054056584,
				"z": -2.9428388298,
				"element": "C" 
			},
			{
				"x": 2.0251752283,
				"y": 1.8672776922,
				"z": -3.5674640492,
				"element": "C" 
			},
			{
				"x": 0.0478510279,
				"y": -0.1622393798,
				"z": -0.9935415859,
				"element": "C" 
			},
			{
				"x": 0.1150869289,
				"y": -1.3737820845,
				"z": -1.0723648228,
				"element": "O" 
			},
			{
				"x": -0.6893642363,
				"y": 0.5594241071,
				"z": -0.044645819,
				"element": "N" 
			},
			{
				"x": -1.4570240434,
				"y": -0.0491841655,
				"z": 1.0366693923,
				"element": "C" 
			},
			{
				"x": -2.9621356184,
				"y": -0.1466997944,
				"z": 0.7339658441,
				"element": "C" 
			},
			{
				"x": -3.3445180887,
				"y": -1.2261863951,
				"z": -0.3047448232,
				"element": "C" 
			},
			{
				"x": -3.7986116429,
				"y": -2.4039180344,
				"z": 0.5742948834,
				"element": "C" 
			},
			{
				"x": -4.4168479717,
				"y": -1.6706946534,
				"z": 1.7642968221,
				"element": "C" 
			},
			{
				"x": -3.5947047057,
				"y": -0.519097223,
				"z": 1.9660512117,
				"element": "O" 
			},
			{
				"x": -0.554348006,
				"y": 1.9506373084,
				"z": -0.2105436279,
				"element": "C" 
			},
			{
				"x": -1.0766221802,
				"y": 2.7942562248,
				"z": 0.4871202352,
				"element": "O" 
			},
			{
				"x": 2.3087378608,
				"y": 3.4762823147,
				"z": -5.4262914927,
				"element": "H" 
			},
			{
				"x": 0.5590680281,
				"y": 4.2738036829,
				"z": -1.6251233607,
				"element": "H" 
			},
			{
				"x": 1.8470760739,
				"y": -0.2817092058,
				"z": -3.2861432343,
				"element": "H" 
			},
			{
				"x": 2.7195944354,
				"y": 1.7668531653,
				"z": -4.397682775,
				"element": "H" 
			},
			{
				"x": -1.0390129356,
				"y": -1.0426126869,
				"z": 1.215930912,
				"element": "H" 
			},
			{
				"x": -1.3230957493,
				"y": 0.5629490606,
				"z": 1.9316021524,
				"element": "H" 
			},
			{
				"x": -3.3185103064,
				"y": 0.8471184084,
				"z": 0.4320839262,
				"element": "H" 
			},
			{
				"x": -4.1755555569,
				"y": -0.8730527407,
				"z": -0.9244170377,
				"element": "H" 
			},
			{
				"x": -2.5148130596,
				"y": -1.4858440767,
				"z": -0.9661659546,
				"element": "H" 
			},
			{
				"x": -2.938060418,
				"y": -2.9985549489,
				"z": 0.8994900726,
				"element": "H" 
			},
			{
				"x": -4.5005059515,
				"y": -3.072683825,
				"z": 0.0684457536,
				"element": "H" 
			},
			{
				"x": -4.4200804645,
				"y": -2.2487019402,
				"z": 2.6934991348,
				"element": "H" 
			},
			{
				"x": -5.4527155244,
				"y": -1.3669740535,
				"z": 1.5439532692,
				"element": "H" 
			}
		],
		 "valence_orbital": [ 
			{
				"type": "occ",
				"energy": -0.29834,
				"method": "rhf"
			},
			{
				"type": "occ",
				"energy": -0.28808,
				"method": "rhf"
			},
			{
				"type": "occ",
				"energy": -0.2839,
				"method": "rhf"
			},
			{
				"type": "occ",
				"energy": -0.27997,
				"method": "rhf"
			},
			{
				"type": "occ",
				"energy": -0.25076,
				"method": "rhf"
			},
			{
				"type": "unocc",
				"energy": -0.10369,
				"method": "rhf"
			},
			{
				"type": "unocc",
				"energy": -0.06595,
				"method": "rhf"
			},
			{
				"type": "unocc",
				"energy": -0.02409,
				"method": "rhf"
			},
			{
				"type": "unocc",
				"energy": 0.04522,
				"method": "rhf"
			},
			{
				"type": "unocc",
				"energy": 0.05262,
				"method": "rhf"
			}
		],
		"cosmo_sigma_profile": { 
			"-0.025": 0.0,
			"-0.024": 0.0,
			"-0.023": 0.0,
			"-0.022": 0.0,
			"-0.021": 0.0,
			"-0.02": 0.0607408379958,
			"-0.019": 0.966838895445,
			"-0.018": 0.969303065559,
			"-0.017": 1.45259463104,
			"-0.016": 0.779018368034,
			"-0.015": 0.706627706451,
			"-0.014": 0.877088900798,
			"-0.013": 1.64666576876,
			"-0.012": 1.14477242251,
			"-0.011": 1.06067381453,
			"-0.01": 1.96068108961,
			"-0.009": 2.44297680388,
			"-0.008": 4.96610064077,
			"-0.007": 5.86862346008,
			"-0.006": 8.31468660817,
			"-0.005": 15.0253313091,
			"-0.004": 26.4459414903,
			"-0.003": 35.8680983998,
			"-0.002": 32.1690459975,
			"-0.001": 29.5298640937,
			"0.0": 24.8350259557,
			"0.001": 10.3877516354,
			"0.002": 8.98877620112,
			"0.003": 6.79514819613,
			"0.004": 6.8830629863,
			"0.005": 5.50833057564,
			"0.006": 6.30497831529,
			"0.007": 7.00550954151,
			"0.008": 6.80070541507,
			"0.009": 8.72416314664,
			"0.01": 12.5582761154,
			"0.011": 13.8679405527,
			"0.012": 5.44585109526,
			"0.013": 1.48858843783,
			"0.014": 0.644437603964,
			"0.015": 0.0,
			"0.016": 0.0,
			"0.017": 0.0,
			"0.018": 0.0,
			"0.019": 0.0,
			"0.02": 0.0,
			"0.021": 0.0,
			"0.022": 0.0,
			"0.023": 0.0,
			"0.024": 0.0,
			"0.025": 0.0
		}
	}
}
