{
	 "smiles": "CC(Cl)C(=O)C1=CNC2=C1C=CC=N2", 
	 "Tm": 436.15, 
	 "num_atms": 23, 
	 "gaussian": { 
		 "optdone": 1, 
		 "sigma_profile": "yes", 
		 "theory": "DFT", 
		 "functional": "B3LYP", 
		 "basiset": "6-31G**", 
		 "properties": { 
			 "R2extent": 4652.7749, 
			 "electric_dipole_moment_norm": 2.90048835026, 
			 "electric_quadrupole_moment_norm": 10.0828127772, 
			 "total_energy": -1031.42186025, 
			 "HOMO_LUMO_gap": 0.17372, 
			 "cosmo_polarized_energy": -14.54, 
			 "cosmo_cavitation_energy": 28.82, 
			 "cosmo_dispersion_energy": -21.24, 
			 "cosmo_repulsion_energy": 1.66, 
			 "cosmo_total_nonelectrostatic_energy": 9.25, 
			 "SMD_solvation_energy": 3.3 
		},
		"coords": [
			{
				"x": 2.4270714663,
				"y": -0.9074173152,
				"z": -2.8615685867,
				"element": "C" 
			},
			{
				"x": 1.7448956446,
				"y": -1.4449032668,
				"z": -1.6175911136,
				"element": "C" 
			},
			{
				"x": 2.5868976805,
				"y": -0.803997583,
				"z": -0.1102129246,
				"element": "Cl" 
			},
			{
				"x": 0.2505986584,
				"y": -1.0611286431,
				"z": -1.5436430276,
				"element": "C" 
			},
			{
				"x": -0.1896088528,
				"y": -0.2202187027,
				"z": -2.3184930467,
				"element": "O" 
			},
			{
				"x": -0.6084082373,
				"y": -1.746834454,
				"z": -0.5829576524,
				"element": "C" 
			},
			{
				"x": -0.2525186336,
				"y": -2.6992936386,
				"z": 0.3612888409,
				"element": "C" 
			},
			{
				"x": -1.3571620962,
				"y": -3.1029876686,
				"z": 1.0541220016,
				"element": "N" 
			},
			{
				"x": -2.4713390937,
				"y": -2.4216674699,
				"z": 0.5858401098,
				"element": "C" 
			},
			{
				"x": -2.0357326008,
				"y": -1.5557134629,
				"z": -0.4468858465,
				"element": "C" 
			},
			{
				"x": -3.0152467208,
				"y": -0.7678921816,
				"z": -1.0634123562,
				"element": "C" 
			},
			{
				"x": -4.3224651612,
				"y": -0.9081058682,
				"z": -0.6036526678,
				"element": "C" 
			},
			{
				"x": -4.6179081523,
				"y": -1.810332441,
				"z": 0.4350093847,
				"element": "C" 
			},
			{
				"x": -3.708066354,
				"y": -2.579369079,
				"z": 1.0455118413,
				"element": "N" 
			},
			{
				"x": 1.956473294,
				"y": -1.3457813501,
				"z": -3.7475137751,
				"element": "H" 
			},
			{
				"x": 3.4878210951,
				"y": -1.1667839035,
				"z": -2.8591305354,
				"element": "H" 
			},
			{
				"x": 2.313420448,
				"y": 0.1756703249,
				"z": -2.923853572,
				"element": "H" 
			},
			{
				"x": 1.8529303266,
				"y": -2.5298308408,
				"z": -1.5444213813,
				"element": "H" 
			},
			{
				"x": 0.722633262,
				"y": -3.0973222432,
				"z": 0.6010186516,
				"element": "H" 
			},
			{
				"x": -1.3802247102,
				"y": -3.7738697313,
				"z": 1.807271322,
				"element": "H" 
			},
			{
				"x": -2.7503442136,
				"y": -0.0824047998,
				"z": -1.8597962341,
				"element": "H" 
			},
			{
				"x": -5.1255836785,
				"y": -0.3233300141,
				"z": -1.0403763938,
				"element": "H" 
			},
			{
				"x": -5.6415333706,
				"y": -1.9136856673,
				"z": 0.7884469619,
				"element": "H" 
			}
		],
		 "valence_orbital": [ 
			{
				"type": "occ",
				"energy": -0.30197,
				"method": "rhf"
			},
			{
				"type": "occ",
				"energy": -0.27329,
				"method": "rhf"
			},
			{
				"type": "occ",
				"energy": -0.25309,
				"method": "rhf"
			},
			{
				"type": "occ",
				"energy": -0.24808,
				"method": "rhf"
			},
			{
				"type": "occ",
				"energy": -0.2344,
				"method": "rhf"
			},
			{
				"type": "unocc",
				"energy": -0.06068,
				"method": "rhf"
			},
			{
				"type": "unocc",
				"energy": -0.02998,
				"method": "rhf"
			},
			{
				"type": "unocc",
				"energy": 0.00972,
				"method": "rhf"
			},
			{
				"type": "unocc",
				"energy": 0.02194,
				"method": "rhf"
			},
			{
				"type": "unocc",
				"energy": 0.06993,
				"method": "rhf"
			}
		],
		"cosmo_sigma_profile": { 
			"-0.025": 0.0,
			"-0.024": 0.0,
			"-0.023": 0.0,
			"-0.022": 0.0,
			"-0.021": 0.0,
			"-0.02": 0.0,
			"-0.019": 0.0,
			"-0.018": 0.0,
			"-0.017": 0.964315613247,
			"-0.016": 1.6070992268,
			"-0.015": 1.38363486996,
			"-0.014": 1.3914706798,
			"-0.013": 1.07063289622,
			"-0.012": 0.920973147191,
			"-0.011": 1.1996435736,
			"-0.01": 2.71532300228,
			"-0.009": 4.21093380329,
			"-0.008": 4.39813107291,
			"-0.007": 5.05643552495,
			"-0.006": 9.57575986557,
			"-0.005": 13.7307273806,
			"-0.004": 12.5815801287,
			"-0.003": 11.0882113875,
			"-0.002": 12.0965614271,
			"-0.001": 14.5032310206,
			"0.0": 18.2597938393,
			"0.001": 18.4826784808,
			"0.002": 20.7479639879,
			"0.003": 21.6347233315,
			"0.004": 13.2668010945,
			"0.005": 10.9555328387,
			"0.006": 8.95376761852,
			"0.007": 3.55845796246,
			"0.008": 3.0655850174,
			"0.009": 2.89498473875,
			"0.01": 3.1248099415,
			"0.011": 3.31443359246,
			"0.012": 2.64060272064,
			"0.013": 1.33981103535,
			"0.014": 0.742873601075,
			"0.015": 0.855451836272,
			"0.016": 0.121103212533,
			"0.017": 0.0,
			"0.018": 0.0,
			"0.019": 0.0,
			"0.02": 0.0,
			"0.021": 0.0,
			"0.022": 0.0,
			"0.023": 0.0,
			"0.024": 0.0,
			"0.025": 0.0
		}
	}
}
