{
	 "smiles": "[O-][N+](=O)C1=CC=C(SC2=CC=C(C=C2)[N+]([O-])=O)C=C1", 
	 "Tm": 433.15, 
	 "num_atms": 27, 
	 "gaussian": { 
		 "optdone": 1, 
		 "sigma_profile": "yes", 
		 "theory": "DFT", 
		 "functional": "B3LYP", 
		 "basiset": "6-31G**", 
		 "properties": { 
			 "R2extent": 8330.3921, 
			 "electric_dipole_moment_norm": 3.63557562292, 
			 "electric_quadrupole_moment_norm": 28.7928351152, 
			 "total_energy": -1270.47908305, 
			 "HOMO_LUMO_gap": 0.14353, 
			 "cosmo_polarized_energy": -14.63, 
			 "cosmo_cavitation_energy": 35.49, 
			 "cosmo_dispersion_energy": -25.75, 
			 "cosmo_repulsion_energy": 1.92, 
			 "cosmo_total_nonelectrostatic_energy": 11.65, 
			 "SMD_solvation_energy": 10.12 
		},
		"coords": [
			{
				"x": -2.4776705781,
				"y": 1.3311308945,
				"z": 4.4941423214,
				"element": "O" 
			},
			{
				"x": -2.2489092315,
				"y": 2.2389088356,
				"z": 3.6954640551,
				"element": "N" 
			},
			{
				"x": -2.292069833,
				"y": 3.4392446292,
				"z": 3.9627759257,
				"element": "O" 
			},
			{
				"x": -1.8979075176,
				"y": 1.8608037124,
				"z": 2.3189231111,
				"element": "C" 
			},
			{
				"x": -1.6250734146,
				"y": 2.8627783126,
				"z": 1.3908473936,
				"element": "C" 
			},
			{
				"x": -1.280175545,
				"y": 2.4990323038,
				"z": 0.092510436,
				"element": "C" 
			},
			{
				"x": -1.2288321433,
				"y": 1.1447990229,
				"z": -0.2722965275,
				"element": "C" 
			},
			{
				"x": -0.8959414124,
				"y": 0.7698273866,
				"z": -1.9874643827,
				"element": "S" 
			},
			{
				"x": 0.1361611562,
				"y": -0.6878729931,
				"z": -1.9309895494,
				"element": "C" 
			},
			{
				"x": -0.0647160351,
				"y": -1.658176846,
				"z": -2.9248707181,
				"element": "C" 
			},
			{
				"x": 0.7649427832,
				"y": -2.7734842188,
				"z": -2.9937125972,
				"element": "C" 
			},
			{
				"x": 1.7798140372,
				"y": -2.9146833174,
				"z": -2.0504280285,
				"element": "C" 
			},
			{
				"x": 1.9945986818,
				"y": -1.9660545799,
				"z": -1.0507936025,
				"element": "C" 
			},
			{
				"x": 1.1761562637,
				"y": -0.8435651634,
				"z": -1.0000417287,
				"element": "C" 
			},
			{
				"x": 2.6501449377,
				"y": -4.0979380235,
				"z": -2.1096738174,
				"element": "N" 
			},
			{
				"x": 3.533145961,
				"y": -4.1980019532,
				"z": -1.2584595243,
				"element": "O" 
			},
			{
				"x": 2.4412883909,
				"y": -4.9139833106,
				"z": -3.0066465625,
				"element": "O" 
			},
			{
				"x": -1.5233669972,
				"y": 0.1521039555,
				"z": 0.6765573936,
				"element": "C" 
			},
			{
				"x": -1.8477218634,
				"y": 0.5087036955,
				"z": 1.9804092928,
				"element": "C" 
			},
			{
				"x": -1.6699972731,
				"y": 3.9004339557,
				"z": 1.6969373635,
				"element": "H" 
			},
			{
				"x": -1.041852288,
				"y": 3.2652071887,
				"z": -0.6379387164,
				"element": "H" 
			},
			{
				"x": -0.8751437915,
				"y": -1.5429031042,
				"z": -3.6371106951,
				"element": "H" 
			},
			{
				"x": 0.6291655444,
				"y": -3.5364490952,
				"z": -3.749946268,
				"element": "H" 
			},
			{
				"x": 2.8018645674,
				"y": -2.1114833729,
				"z": -0.343805261,
				"element": "H" 
			},
			{
				"x": 1.3450893423,
				"y": -0.0890030668,
				"z": -0.2399480436,
				"element": "H" 
			},
			{
				"x": -1.5002259935,
				"y": -0.8948669819,
				"z": 0.3955749986,
				"element": "H" 
			},
			{
				"x": -2.0767677484,
				"y": -0.236807866,
				"z": 2.7316837316,
				"element": "H" 
			}
		],
		 "valence_orbital": [ 
			{
				"type": "occ",
				"energy": -0.29957,
				"method": "rhf"
			},
			{
				"type": "occ",
				"energy": -0.29949,
				"method": "rhf"
			},
			{
				"type": "occ",
				"energy": -0.2962,
				"method": "rhf"
			},
			{
				"type": "occ",
				"energy": -0.29253,
				"method": "rhf"
			},
			{
				"type": "occ",
				"energy": -0.24847,
				"method": "rhf"
			},
			{
				"type": "unocc",
				"energy": -0.10494,
				"method": "rhf"
			},
			{
				"type": "unocc",
				"energy": -0.09735,
				"method": "rhf"
			},
			{
				"type": "unocc",
				"energy": -0.05107,
				"method": "rhf"
			},
			{
				"type": "unocc",
				"energy": -0.03882,
				"method": "rhf"
			},
			{
				"type": "unocc",
				"energy": -0.02408,
				"method": "rhf"
			}
		],
		"cosmo_sigma_profile": { 
			"-0.025": 0.0,
			"-0.024": 0.0,
			"-0.023": 0.0,
			"-0.022": 0.0,
			"-0.021": 0.0,
			"-0.02": 0.0,
			"-0.019": 0.0,
			"-0.018": 0.0,
			"-0.017": 0.0,
			"-0.016": 0.0,
			"-0.015": 0.0,
			"-0.014": 0.0,
			"-0.013": 0.0,
			"-0.012": 0.0,
			"-0.011": 0.0,
			"-0.01": 0.0,
			"-0.009": 0.356950771641,
			"-0.008": 10.1501859572,
			"-0.007": 15.8384669811,
			"-0.006": 16.5810393455,
			"-0.005": 15.7400223042,
			"-0.004": 15.6875535786,
			"-0.003": 18.3920248764,
			"-0.002": 21.7681745134,
			"-0.001": 25.8589121063,
			"0.0": 32.5668378006,
			"0.001": 26.8523178534,
			"0.002": 10.5816365656,
			"0.003": 8.59511249717,
			"0.004": 7.97065710324,
			"0.005": 8.20343763874,
			"0.006": 8.11030170076,
			"0.007": 16.0088982146,
			"0.008": 14.9461747976,
			"0.009": 8.9335068314,
			"0.01": 4.87031988166,
			"0.011": 0.24640116892,
			"0.012": 0.0,
			"0.013": 0.0,
			"0.014": 0.0,
			"0.015": 0.0,
			"0.016": 0.0,
			"0.017": 0.0,
			"0.018": 0.0,
			"0.019": 0.0,
			"0.02": 0.0,
			"0.021": 0.0,
			"0.022": 0.0,
			"0.023": 0.0,
			"0.024": 0.0,
			"0.025": 0.0
		}
	}
}
