{
	 "smiles": "CP(O)(=O)CC[C@@H](N)C(O)=O", 
	 "Tm": 503.15, 
	 "num_atms": 23, 
	 "gaussian": { 
		 "optdone": 1, 
		 "sigma_profile": "yes", 
		 "theory": "DFT", 
		 "functional": "B3LYP", 
		 "basiset": "6-31G**", 
		 "properties": { 
			 "R2extent": 2392.5895, 
			 "electric_dipole_moment_norm": 3.57117614659, 
			 "electric_quadrupole_moment_norm": 20.9677727267, 
			 "total_energy": -894.838049948, 
			 "HOMO_LUMO_gap": 0.26549, 
			 "cosmo_polarized_energy": -23.37, 
			 "cosmo_cavitation_energy": 27.21, 
			 "cosmo_dispersion_energy": -19.52, 
			 "cosmo_repulsion_energy": 1.56, 
			 "cosmo_total_nonelectrostatic_energy": 9.25, 
			 "SMD_solvation_energy": 7.06 
		},
		"coords": [
			{
				"x": 0.68222994,
				"y": 2.9489236861,
				"z": 0.6507605422,
				"element": "C" 
			},
			{
				"x": -0.3430452078,
				"y": 1.7050320724,
				"z": -0.1988225219,
				"element": "P" 
			},
			{
				"x": 0.6369046353,
				"y": 1.1696617112,
				"z": -1.4230166579,
				"element": "O" 
			},
			{
				"x": -1.6664465312,
				"y": 2.2085106156,
				"z": -0.6759583485,
				"element": "O" 
			},
			{
				"x": -0.3790272074,
				"y": 0.2492408797,
				"z": 0.9030288297,
				"element": "C" 
			},
			{
				"x": -1.4900802532,
				"y": -0.7842998814,
				"z": 0.6244194778,
				"element": "C" 
			},
			{
				"x": -1.2064657627,
				"y": -1.8321647254,
				"z": -0.4666773701,
				"element": "C" 
			},
			{
				"x": -1.0522193696,
				"y": -1.3789171039,
				"z": -1.8572392894,
				"element": "N" 
			},
			{
				"x": 0.0106919231,
				"y": -2.7162852425,
				"z": -0.111198231,
				"element": "C" 
			},
			{
				"x": 0.6070252523,
				"y": -3.249690648,
				"z": -1.1859831019,
				"element": "O" 
			},
			{
				"x": 0.3696854131,
				"y": -2.9349063229,
				"z": 1.0241054395,
				"element": "O" 
			},
			{
				"x": 1.6439810577,
				"y": 2.5248968781,
				"z": 0.9518878449,
				"element": "H" 
			},
			{
				"x": 0.8577369668,
				"y": 3.7935118117,
				"z": -0.021014653,
				"element": "H" 
			},
			{
				"x": 0.1536516246,
				"y": 3.3174704209,
				"z": 1.5338365141,
				"element": "H" 
			},
			{
				"x": 0.5308479535,
				"y": 1.7362856428,
				"z": -2.2020038129,
				"element": "H" 
			},
			{
				"x": 0.6091911234,
				"y": -0.222143765,
				"z": 0.9289898416,
				"element": "H" 
			},
			{
				"x": -0.5442186831,
				"y": 0.669341417,
				"z": 1.9025618503,
				"element": "H" 
			},
			{
				"x": -2.4209947283,
				"y": -0.2608318521,
				"z": 0.3814964899,
				"element": "H" 
			},
			{
				"x": -1.6579259005,
				"y": -1.3398370107,
				"z": 1.5514165599,
				"element": "H" 
			},
			{
				"x": -2.0596034194,
				"y": -2.5252852164,
				"z": -0.4617789118,
				"element": "H" 
			},
			{
				"x": -1.9449550675,
				"y": -1.0984761881,
				"z": -2.2517939442,
				"element": "H" 
			},
			{
				"x": -0.4292693177,
				"y": -0.5736110226,
				"z": -1.9066889139,
				"element": "H" 
			},
			{
				"x": 0.1394055588,
				"y": -2.8420261565,
				"z": -1.9546276335,
				"element": "H" 
			}
		],
		 "valence_orbital": [ 
			{
				"type": "occ",
				"energy": -0.30134,
				"method": "rhf"
			},
			{
				"type": "occ",
				"energy": -0.29262,
				"method": "rhf"
			},
			{
				"type": "occ",
				"energy": -0.28519,
				"method": "rhf"
			},
			{
				"type": "occ",
				"energy": -0.2768,
				"method": "rhf"
			},
			{
				"type": "occ",
				"energy": -0.25209,
				"method": "rhf"
			},
			{
				"type": "unocc",
				"energy": 0.0134,
				"method": "rhf"
			},
			{
				"type": "unocc",
				"energy": 0.03546,
				"method": "rhf"
			},
			{
				"type": "unocc",
				"energy": 0.06562,
				"method": "rhf"
			},
			{
				"type": "unocc",
				"energy": 0.07519,
				"method": "rhf"
			},
			{
				"type": "unocc",
				"energy": 0.08841,
				"method": "rhf"
			}
		],
		"cosmo_sigma_profile": { 
			"-0.025": 0.0,
			"-0.024": 0.0,
			"-0.023": 0.0,
			"-0.022": 0.0,
			"-0.021": 0.0,
			"-0.02": 0.0,
			"-0.019": 0.0695857525285,
			"-0.018": 1.08711389263,
			"-0.017": 0.767202398553,
			"-0.016": 0.874564515901,
			"-0.015": 1.37230328799,
			"-0.014": 0.67111774103,
			"-0.013": 1.04668891064,
			"-0.012": 1.02951354504,
			"-0.011": 2.1732067147,
			"-0.01": 3.27442387345,
			"-0.009": 3.15812834513,
			"-0.008": 4.97189509064,
			"-0.007": 14.1245400432,
			"-0.006": 15.6244570599,
			"-0.005": 14.8024104952,
			"-0.004": 17.9325400127,
			"-0.003": 15.7155292971,
			"-0.002": 13.3615008998,
			"-0.001": 11.409758512,
			"0.0": 7.54966106921,
			"0.001": 5.65270412441,
			"0.002": 5.71782607281,
			"0.003": 4.07820016028,
			"0.004": 5.7258525843,
			"0.005": 3.6060246216,
			"0.006": 4.75307726224,
			"0.007": 5.51146895419,
			"0.008": 4.09379676314,
			"0.009": 5.10817502182,
			"0.01": 5.34812510137,
			"0.011": 6.45796512554,
			"0.012": 6.06942251544,
			"0.013": 4.92617435545,
			"0.014": 1.81089361024,
			"0.015": 4.79091344182,
			"0.016": 4.87559750154,
			"0.017": 0.0341876955059,
			"0.018": 0.0,
			"0.019": 0.0,
			"0.02": 0.0,
			"0.021": 0.0,
			"0.022": 0.0,
			"0.023": 0.0,
			"0.024": 0.0,
			"0.025": 0.0
		}
	}
}
