{
	 "smiles": "OC(=O)CC(=O)C(O)=O", 
	 "Tm": 434.15, 
	 "num_atms": 13, 
	 "gaussian": { 
		 "optdone": 1, 
		 "sigma_profile": "yes", 
		 "theory": "DFT", 
		 "functional": "B3LYP", 
		 "basiset": "6-31G**", 
		 "properties": { 
			 "R2extent": 1480.335, 
			 "electric_dipole_moment_norm": 4.69462842619, 
			 "electric_quadrupole_moment_norm": 11.3817190415, 
			 "total_energy": -530.953657944, 
			 "HOMO_LUMO_gap": 0.17934, 
			 "cosmo_polarized_energy": -21.02, 
			 "cosmo_cavitation_energy": 18.97, 
			 "cosmo_dispersion_energy": -13.64, 
			 "cosmo_repulsion_energy": 1.16, 
			 "cosmo_total_nonelectrostatic_energy": 6.48, 
			 "SMD_solvation_energy": 6.6 
		},
		"coords": [
			{
				"x": 3.007843296,
				"y": 0.2140687749,
				"z": -0.4072590258,
				"element": "O" 
			},
			{
				"x": 1.8133161514,
				"y": -0.2555375111,
				"z": -0.8271106284,
				"element": "C" 
			},
			{
				"x": 1.7318942262,
				"y": -0.998228349,
				"z": -1.7719049514,
				"element": "O" 
			},
			{
				"x": 0.5869054289,
				"y": 0.2450683633,
				"z": -0.0573154926,
				"element": "C" 
			},
			{
				"x": -0.6100157184,
				"y": -0.5848207457,
				"z": -0.462934067,
				"element": "C" 
			},
			{
				"x": -1.5264182944,
				"y": -0.1875616426,
				"z": -1.1535644186,
				"element": "O" 
			},
			{
				"x": -0.645299266,
				"y": -2.0315284855,
				"z": 0.0726365769,
				"element": "C" 
			},
			{
				"x": -1.673617879,
				"y": -2.7335128828,
				"z": -0.4058254278,
				"element": "O" 
			},
			{
				"x": 0.1648674216,
				"y": -2.4463152771,
				"z": 0.865997859,
				"element": "O" 
			},
			{
				"x": 2.9080643965,
				"y": 0.7712865362,
				"z": 0.377481542,
				"element": "H" 
			},
			{
				"x": 0.3965156799,
				"y": 1.293203443,
				"z": -0.3081839855,
				"element": "H" 
			},
			{
				"x": 0.7508219641,
				"y": 0.1477724536,
				"z": 1.0213567912,
				"element": "H" 
			},
			{
				"x": -2.1687774068,
				"y": -2.1389946772,
				"z": -1.0032747722,
				"element": "H" 
			}
		],
		 "valence_orbital": [ 
			{
				"type": "occ",
				"energy": -0.34798,
				"method": "rhf"
			},
			{
				"type": "occ",
				"energy": -0.34146,
				"method": "rhf"
			},
			{
				"type": "occ",
				"energy": -0.33474,
				"method": "rhf"
			},
			{
				"type": "occ",
				"energy": -0.29843,
				"method": "rhf"
			},
			{
				"type": "occ",
				"energy": -0.27898,
				"method": "rhf"
			},
			{
				"type": "unocc",
				"energy": -0.09964,
				"method": "rhf"
			},
			{
				"type": "unocc",
				"energy": -0.01295,
				"method": "rhf"
			},
			{
				"type": "unocc",
				"energy": 0.03148,
				"method": "rhf"
			},
			{
				"type": "unocc",
				"energy": 0.04748,
				"method": "rhf"
			},
			{
				"type": "unocc",
				"energy": 0.08259,
				"method": "rhf"
			}
		],
		"cosmo_sigma_profile": { 
			"-0.025": 0.0,
			"-0.024": 0.0,
			"-0.023": 0.0,
			"-0.022": 0.0,
			"-0.021": 0.0514481529358,
			"-0.02": 1.03083242699,
			"-0.019": 1.27713834749,
			"-0.018": 1.36715757505,
			"-0.017": 1.48940779415,
			"-0.016": 2.24544048968,
			"-0.015": 1.34497765021,
			"-0.014": 0.869880431672,
			"-0.013": 3.08710835115,
			"-0.012": 2.24987526305,
			"-0.011": 2.16398079864,
			"-0.01": 5.54802587485,
			"-0.009": 7.61108199783,
			"-0.008": 6.0972774074,
			"-0.007": 3.82171536633,
			"-0.006": 5.78155592357,
			"-0.005": 4.33612468687,
			"-0.004": 2.84776421601,
			"-0.003": 3.2262745651,
			"-0.002": 3.41829069741,
			"-0.001": 3.9424856784,
			"0.0": 5.46696848221,
			"0.001": 5.05178723589,
			"0.002": 5.68834461627,
			"0.003": 5.81875344151,
			"0.004": 6.38941754706,
			"0.005": 6.84948554294,
			"0.006": 6.64787559613,
			"0.007": 8.22215682005,
			"0.008": 10.7801562073,
			"0.009": 9.87737547468,
			"0.01": 9.60052916122,
			"0.011": 4.98336555803,
			"0.012": 1.74460662679,
			"0.013": 0.0577022201016,
			"0.014": 0.0,
			"0.015": 0.0,
			"0.016": 0.0,
			"0.017": 0.0,
			"0.018": 0.0,
			"0.019": 0.0,
			"0.02": 0.0,
			"0.021": 0.0,
			"0.022": 0.0,
			"0.023": 0.0,
			"0.024": 0.0,
			"0.025": 0.0
		}
	}
}
