{
	 "smiles": "IC1=CC=C(CC#N)C=C1", 
	 "Tm": 323.65, 
	 "num_atms": 16, 
	 "gaussian": { 
		 "optdone": 1, 
		 "sigma_profile": "no", 
		 "theory": "DFT", 
		 "functional": "B3LYP", 
		 "basiset": "6-31G**", 
		 "properties": { 
			 "R2extent": 1843.8754, 
			 "electric_dipole_moment_norm": 3.41245612133, 
			 "electric_quadrupole_moment_norm": 17.2268846565, 
			 "total_energy": -374.585650351, 
			 "HOMO_LUMO_gap": 0.20266, 
			 "cosmo_polarized_energy": -103512.42, 
			 "cosmo_cavitation_energy": 24.68, 
			 "cosmo_dispersion_energy": -18.75, 
			 "cosmo_repulsion_energy": 1.5, 
			 "cosmo_total_nonelectrostatic_energy": 7.42, 
			 "SMD_solvation_energy": 4.77 
		},
		"coords": [
			{
				"x": 3.5750506793,
				"y": 2.8145712149,
				"z": 0.3182182901,
				"element": "I" 
			},
			{
				"x": 1.7740129891,
				"y": 1.6989609711,
				"z": 0.2995108447,
				"element": "C" 
			},
			{
				"x": 0.9026970867,
				"y": 1.7769331594,
				"z": 1.3873726979,
				"element": "C" 
			},
			{
				"x": -0.2837196682,
				"y": 1.0432516536,
				"z": 1.3645330373,
				"element": "C" 
			},
			{
				"x": -0.6077895697,
				"y": 0.2361962516,
				"z": 0.2697775678,
				"element": "C" 
			},
			{
				"x": -1.9011748455,
				"y": -0.5673347812,
				"z": 0.2572865824,
				"element": "C" 
			},
			{
				"x": -1.7434325904,
				"y": -1.9088728482,
				"z": 0.8361573653,
				"element": "C" 
			},
			{
				"x": -1.6111835911,
				"y": -2.9667900218,
				"z": 1.2946221452,
				"element": "N" 
			},
			{
				"x": 0.2794398507,
				"y": 0.1704559581,
				"z": -0.8088025226,
				"element": "C" 
			},
			{
				"x": 1.4701198885,
				"y": 0.8975392968,
				"z": -0.8023352803,
				"element": "C" 
			},
			{
				"x": 1.1392078634,
				"y": 2.4003996889,
				"z": 2.2421251222,
				"element": "H" 
			},
			{
				"x": -0.9602600112,
				"y": 1.1044010555,
				"z": 2.2129362654,
				"element": "H" 
			},
			{
				"x": -2.2719372798,
				"y": -0.6811453322,
				"z": -0.7676494797,
				"element": "H" 
			},
			{
				"x": -2.6828711354,
				"y": -0.0444227678,
				"z": 0.8197975734,
				"element": "H" 
			},
			{
				"x": 0.0451352225,
				"y": -0.4537992427,
				"z": -1.6670790266,
				"element": "H" 
			},
			{
				"x": 2.147005111,
				"y": 0.8384557439,
				"z": -1.6470711826,
				"element": "H" 
			}
		],
		 "valence_orbital": [ 
			{
				"type": "occ",
				"energy": -0.32867,
				"method": "rhf"
			},
			{
				"type": "occ",
				"energy": -0.30502,
				"method": "rhf"
			},
			{
				"type": "occ",
				"energy": -0.27749,
				"method": "rhf"
			},
			{
				"type": "occ",
				"energy": -0.27565,
				"method": "rhf"
			},
			{
				"type": "occ",
				"energy": -0.24891,
				"method": "rhf"
			},
			{
				"type": "unocc",
				"energy": -0.04625,
				"method": "rhf"
			},
			{
				"type": "unocc",
				"energy": -0.03535,
				"method": "rhf"
			},
			{
				"type": "unocc",
				"energy": -0.03042,
				"method": "rhf"
			},
			{
				"type": "unocc",
				"energy": 0.03231,
				"method": "rhf"
			},
			{
				"type": "unocc",
				"energy": 0.03595,
				"method": "rhf"
			}
		],
		"cosmo_sigma_profile": { 
			"0.0": 0.0,
			"0.0": 0.0,
			"0.0": 0.0,
			"0.0": 0.0,
			"0.0": 0.0,
			"0.0": 0.0,
			"0.0": 0.0,
			"0.0": 0.0,
			"0.0": 0.0,
			"0.0": 0.0,
			"0.0": 0.0,
			"0.0": 0.0,
			"0.0": 0.0,
			"0.0": 0.0,
			"0.0": 0.0,
			"0.0": 0.0,
			"0.0": 0.0,
			"0.0": 0.0,
			"0.0": 0.0,
			"0.0": 0.0,
			"0.0": 0.0,
			"0.0": 0.0,
			"0.0": 0.0,
			"0.0": 0.0,
			"0.0": 0.0,
			"0.0": 0.0,
			"0.0": 0.0,
			"0.0": 0.0,
			"0.0": 0.0,
			"0.0": 0.0,
			"0.0": 0.0,
			"0.0": 0.0,
			"0.0": 0.0,
			"0.0": 0.0,
			"0.0": 0.0,
			"0.0": 0.0,
			"0.0": 0.0,
			"0.0": 0.0,
			"0.0": 0.0,
			"0.0": 0.0,
			"0.0": 0.0,
			"0.0": 0.0,
			"0.0": 0.0,
			"0.0": 0.0,
			"0.0": 0.0,
			"0.0": 0.0,
			"0.0": 0.0,
			"0.0": 0.0,
			"0.0": 0.0,
			"0.0": 0.0,
			"0.0": 0.0
		}
	}
}
