{
	 "smiles": "CCCC(O)C1(C)CCC(C(O)=O)C(C)(C)O1", 
	 "Tm": 452.15, 
	 "num_atms": 41, 
	 "gaussian": { 
		 "optdone": 1, 
		 "sigma_profile": "yes", 
		 "theory": "DFT", 
		 "functional": "B3LYP", 
		 "basiset": "6-31G**", 
		 "properties": { 
			 "R2extent": 5230.144, 
			 "electric_dipole_moment_norm": 3.06596055748, 
			 "electric_quadrupole_moment_norm": 12.1772568717, 
			 "total_energy": -810.757103143, 
			 "HOMO_LUMO_gap": 0.24763, 
			 "cosmo_polarized_energy": -15.76, 
			 "cosmo_cavitation_energy": 38.7, 
			 "cosmo_dispersion_energy": -26.6, 
			 "cosmo_repulsion_energy": 2.06, 
			 "cosmo_total_nonelectrostatic_energy": 14.16, 
			 "SMD_solvation_energy": 7.27 
		},
		"coords": [
			{
				"x": 0.7934051743,
				"y": 0.4469828374,
				"z": -4.9047667668,
				"element": "C" 
			},
			{
				"x": 0.3883365364,
				"y": 0.7408790324,
				"z": -3.4559095678,
				"element": "C" 
			},
			{
				"x": 1.1187332037,
				"y": -0.1607032769,
				"z": -2.4509660095,
				"element": "C" 
			},
			{
				"x": 1.0664382085,
				"y": 0.2365139886,
				"z": -0.9574979316,
				"element": "C" 
			},
			{
				"x": 1.5545522512,
				"y": 1.5650759911,
				"z": -0.7720398879,
				"element": "O" 
			},
			{
				"x": -0.3061346588,
				"y": 0.1452727064,
				"z": -0.2253749531,
				"element": "C" 
			},
			{
				"x": -1.1860372827,
				"y": 1.3723423418,
				"z": -0.5063878208,
				"element": "C" 
			},
			{
				"x": -1.0394551068,
				"y": -1.1679449357,
				"z": -0.5648977023,
				"element": "C" 
			},
			{
				"x": -2.0493117219,
				"y": -1.5293948458,
				"z": 0.526221541,
				"element": "C" 
			},
			{
				"x": -1.3930140948,
				"y": -1.7056179403,
				"z": 1.9178818521,
				"element": "C" 
			},
			{
				"x": -1.2149942651,
				"y": -3.1458315605,
				"z": 2.3587031249,
				"element": "C" 
			},
			{
				"x": -1.0680075019,
				"y": -4.0167680886,
				"z": 1.3261954498,
				"element": "O" 
			},
			{
				"x": -1.1711201231,
				"y": -3.5166219373,
				"z": 3.5137411384,
				"element": "O" 
			},
			{
				"x": -0.0214978139,
				"y": -0.9188680766,
				"z": 2.0426492082,
				"element": "C" 
			},
			{
				"x": 0.0948604447,
				"y": -0.3430505924,
				"z": 3.4590438101,
				"element": "C" 
			},
			{
				"x": 1.2158266655,
				"y": -1.8002443717,
				"z": 1.7692575794,
				"element": "C" 
			},
			{
				"x": -0.0599887104,
				"y": 0.2387218186,
				"z": 1.2025203957,
				"element": "O" 
			},
			{
				"x": 0.580382099,
				"y": -0.5935842649,
				"z": -5.1763107607,
				"element": "H" 
			},
			{
				"x": 1.8660115568,
				"y": 0.6132218594,
				"z": -5.0588184708,
				"element": "H" 
			},
			{
				"x": 0.253744373,
				"y": 1.0899540197,
				"z": -5.6077265761,
				"element": "H" 
			},
			{
				"x": -0.6962640061,
				"y": 0.6143697307,
				"z": -3.3594559208,
				"element": "H" 
			},
			{
				"x": 0.602706487,
				"y": 1.7873754946,
				"z": -3.2119441193,
				"element": "H" 
			},
			{
				"x": 0.7880175056,
				"y": -1.2003051522,
				"z": -2.5672001348,
				"element": "H" 
			},
			{
				"x": 2.1866021565,
				"y": -0.1696469489,
				"z": -2.7202406637,
				"element": "H" 
			},
			{
				"x": 1.7222229465,
				"y": -0.4706820949,
				"z": -0.4321412441,
				"element": "H" 
			},
			{
				"x": 2.4758517876,
				"y": 1.5822467244,
				"z": -1.0597739828,
				"element": "H" 
			},
			{
				"x": -1.4234864447,
				"y": 1.469704498,
				"z": -1.5674080438,
				"element": "H" 
			},
			{
				"x": -0.6620047152,
				"y": 2.2723592099,
				"z": -0.184034947,
				"element": "H" 
			},
			{
				"x": -2.1207369634,
				"y": 1.2973078401,
				"z": 0.0551649413,
				"element": "H" 
			},
			{
				"x": -0.3318032161,
				"y": -1.994594924,
				"z": -0.6892742953,
				"element": "H" 
			},
			{
				"x": -1.5531190189,
				"y": -1.0548986587,
				"z": -1.5254562215,
				"element": "H" 
			},
			{
				"x": -2.7967404737,
				"y": -0.7337086701,
				"z": 0.6001570516,
				"element": "H" 
			},
			{
				"x": -2.5888275159,
				"y": -2.4369918167,
				"z": 0.2449874402,
				"element": "H" 
			},
			{
				"x": -2.0573722532,
				"y": -1.2762770744,
				"z": 2.6725741598,
				"element": "H" 
			},
			{
				"x": -0.9355046379,
				"y": -4.8892856498,
				"z": 1.7342768835,
				"element": "H" 
			},
			{
				"x": -0.7037610706,
				"y": 0.3842324293,
				"z": 3.6291558409,
				"element": "H" 
			},
			{
				"x": 0.0113206681,
				"y": -1.1417768473,
				"z": 4.2011460185,
				"element": "H" 
			},
			{
				"x": 1.0540374899,
				"y": 0.1675284621,
				"z": 3.584600046,
				"element": "H" 
			},
			{
				"x": 2.1070466793,
				"y": -1.1668195487,
				"z": 1.7734157549,
				"element": "H" 
			},
			{
				"x": 1.3311926981,
				"y": -2.546577118,
				"z": 2.5611924414,
				"element": "H" 
			},
			{
				"x": 1.1687926636,
				"y": -2.3327945897,
				"z": 0.8174413428,
				"element": "H" 
			}
		],
		 "valence_orbital": [ 
			{
				"type": "occ",
				"energy": -0.30961,
				"method": "rhf"
			},
			{
				"type": "occ",
				"energy": -0.28437,
				"method": "rhf"
			},
			{
				"type": "occ",
				"energy": -0.26973,
				"method": "rhf"
			},
			{
				"type": "occ",
				"energy": -0.26015,
				"method": "rhf"
			},
			{
				"type": "occ",
				"energy": -0.24146,
				"method": "rhf"
			},
			{
				"type": "unocc",
				"energy": 0.00617,
				"method": "rhf"
			},
			{
				"type": "unocc",
				"energy": 0.06149,
				"method": "rhf"
			},
			{
				"type": "unocc",
				"energy": 0.07175,
				"method": "rhf"
			},
			{
				"type": "unocc",
				"energy": 0.08927,
				"method": "rhf"
			},
			{
				"type": "unocc",
				"energy": 0.09708,
				"method": "rhf"
			}
		],
		"cosmo_sigma_profile": { 
			"-0.025": 0.0,
			"-0.024": 0.0,
			"-0.023": 0.0,
			"-0.022": 0.0,
			"-0.021": 0.0,
			"-0.02": 0.0,
			"-0.019": 0.0,
			"-0.018": 0.711601230773,
			"-0.017": 0.863887722018,
			"-0.016": 0.634634293325,
			"-0.015": 1.73924708025,
			"-0.014": 1.47619399558,
			"-0.013": 1.59611520061,
			"-0.012": 1.45596848239,
			"-0.011": 1.92747955905,
			"-0.01": 1.32184674139,
			"-0.009": 1.26690041404,
			"-0.008": 1.38429558068,
			"-0.007": 2.67411480668,
			"-0.006": 2.49360446617,
			"-0.005": 5.63492171818,
			"-0.004": 15.3749857125,
			"-0.003": 34.3056938423,
			"-0.002": 39.1667613119,
			"-0.001": 39.2665484839,
			"0.0": 37.1314356136,
			"0.001": 33.9179406777,
			"0.002": 15.9155790485,
			"0.003": 6.27958154151,
			"0.004": 6.37907191286,
			"0.005": 4.84584237707,
			"0.006": 5.09428268986,
			"0.007": 5.57594930694,
			"0.008": 3.86780950695,
			"0.009": 2.93032849887,
			"0.01": 4.27176314838,
			"0.011": 5.678699641,
			"0.012": 7.08178586059,
			"0.013": 1.60441275039,
			"0.014": 1.29580916933,
			"0.015": 1.10013951594,
			"0.016": 0.820457603753,
			"0.017": 0.37743828516,
			"0.018": 0.0,
			"0.019": 0.0,
			"0.02": 0.0,
			"0.021": 0.0,
			"0.022": 0.0,
			"0.023": 0.0,
			"0.024": 0.0,
			"0.025": 0.0
		}
	}
}
