{
	 "smiles": "ClC(=O)C1=C(Cl)N=CC=C1", 
	 "Tm": 313.15, 
	 "num_atms": 13, 
	 "gaussian": { 
		 "optdone": 1, 
		 "sigma_profile": "yes", 
		 "theory": "DFT", 
		 "functional": "B3LYP", 
		 "basiset": "6-31G**", 
		 "properties": { 
			 "R2extent": 2943.4164, 
			 "electric_dipole_moment_norm": 3.89037786597, 
			 "electric_quadrupole_moment_norm": 4.00010619734, 
			 "total_energy": -1280.79320531, 
			 "HOMO_LUMO_gap": 0.19633, 
			 "cosmo_polarized_energy": -8.23, 
			 "cosmo_cavitation_energy": 21.79, 
			 "cosmo_dispersion_energy": -16.25, 
			 "cosmo_repulsion_energy": 1.33, 
			 "cosmo_total_nonelectrostatic_energy": 6.87, 
			 "SMD_solvation_energy": 2.82 
		},
		"coords": [
			{
				"x": 0.4033129547,
				"y": -3.5095674912,
				"z": -1.1717793924,
				"element": "Cl" 
			},
			{
				"x": 0.7617948094,
				"y": -1.7649995256,
				"z": -1.4593934255,
				"element": "C" 
			},
			{
				"x": 0.7073546624,
				"y": -1.31531691,
				"z": -2.5642833893,
				"element": "O" 
			},
			{
				"x": 0.9742768466,
				"y": -0.9460337467,
				"z": -0.2300820973,
				"element": "C" 
			},
			{
				"x": 1.8560853678,
				"y": -1.2134626067,
				"z": 0.8360461886,
				"element": "C" 
			},
			{
				"x": 2.9591738869,
				"y": -2.5730099727,
				"z": 0.7757177882,
				"element": "Cl" 
			},
			{
				"x": 1.9689473782,
				"y": -0.442203703,
				"z": 1.9022540372,
				"element": "N" 
			},
			{
				"x": 1.2162515289,
				"y": 0.662145945,
				"z": 1.9761177552,
				"element": "C" 
			},
			{
				"x": 0.3496511174,
				"y": 1.0621217355,
				"z": 0.9611110555,
				"element": "C" 
			},
			{
				"x": 0.2408699012,
				"y": 0.2468873145,
				"z": -0.1600666901,
				"element": "C" 
			},
			{
				"x": 1.326386523,
				"y": 1.2507202347,
				"z": 2.8838941895,
				"element": "H" 
			},
			{
				"x": -0.2203413889,
				"y": 1.9806209425,
				"z": 1.0461413949,
				"element": "H" 
			},
			{
				"x": -0.4151635876,
				"y": 0.5068977838,
				"z": -0.9842774144,
				"element": "H" 
			}
		],
		 "valence_orbital": [ 
			{
				"type": "occ",
				"energy": -0.32512,
				"method": "rhf"
			},
			{
				"type": "occ",
				"energy": -0.31642,
				"method": "rhf"
			},
			{
				"type": "occ",
				"energy": -0.30705,
				"method": "rhf"
			},
			{
				"type": "occ",
				"energy": -0.29079,
				"method": "rhf"
			},
			{
				"type": "occ",
				"energy": -0.28151,
				"method": "rhf"
			},
			{
				"type": "unocc",
				"energy": -0.08518,
				"method": "rhf"
			},
			{
				"type": "unocc",
				"energy": -0.05531,
				"method": "rhf"
			},
			{
				"type": "unocc",
				"energy": -0.0272,
				"method": "rhf"
			},
			{
				"type": "unocc",
				"energy": 0.01482,
				"method": "rhf"
			},
			{
				"type": "unocc",
				"energy": 0.02919,
				"method": "rhf"
			}
		],
		"cosmo_sigma_profile": { 
			"-0.025": 0.0,
			"-0.024": 0.0,
			"-0.023": 0.0,
			"-0.022": 0.0,
			"-0.021": 0.0,
			"-0.02": 0.0,
			"-0.019": 0.0,
			"-0.018": 0.0,
			"-0.017": 0.0,
			"-0.016": 0.0,
			"-0.015": 0.0,
			"-0.014": 0.0,
			"-0.013": 0.0,
			"-0.012": 0.0,
			"-0.011": 0.0,
			"-0.01": 0.3286760926,
			"-0.009": 3.47289886685,
			"-0.008": 9.06979968034,
			"-0.007": 7.62077501533,
			"-0.006": 6.19646466882,
			"-0.005": 6.01374811817,
			"-0.004": 6.44341731085,
			"-0.003": 11.8973116718,
			"-0.002": 15.7239264035,
			"-0.001": 16.5498397078,
			"0.0": 15.7148493754,
			"0.001": 11.3153828446,
			"0.002": 12.408081623,
			"0.003": 18.3069221594,
			"0.004": 14.3931584882,
			"0.005": 5.66469562697,
			"0.006": 3.57961643469,
			"0.007": 5.27738592947,
			"0.008": 5.29774435503,
			"0.009": 2.09379490922,
			"0.01": 0.79157784527,
			"0.011": 1.00864369434,
			"0.012": 0.876404778823,
			"0.013": 0.532170471137,
			"0.014": 0.220435900185,
			"0.015": 0.0,
			"0.016": 0.0,
			"0.017": 0.0,
			"0.018": 0.0,
			"0.019": 0.0,
			"0.02": 0.0,
			"0.021": 0.0,
			"0.022": 0.0,
			"0.023": 0.0,
			"0.024": 0.0,
			"0.025": 0.0
		}
	}
}
