{
	 "smiles": "OC(=O)C=CC1=CC=C(C=C1)S(=O)(=O)NCC1=CC=CO1", 
	 "Tm": 487.15, 
	 "num_atms": 34, 
	 "gaussian": { 
		 "optdone": 1, 
		 "sigma_profile": "yes", 
		 "theory": "DFT", 
		 "functional": "B3LYP", 
		 "basiset": "6-31G**", 
		 "properties": { 
			 "R2extent": 9675.8294, 
			 "electric_dipole_moment_norm": 4.37004179728, 
			 "electric_quadrupole_moment_norm": 32.1121012452, 
			 "total_energy": -1370.27394279, 
			 "HOMO_LUMO_gap": 0.15136, 
			 "cosmo_polarized_energy": -23.61, 
			 "cosmo_cavitation_energy": 41.54, 
			 "cosmo_dispersion_energy": -29.41, 
			 "cosmo_repulsion_energy": 2.23, 
			 "cosmo_total_nonelectrostatic_energy": 14.36, 
			 "SMD_solvation_energy": 7.74 
		},
		"coords": [
			{
				"x": 3.7094354256,
				"y": 2.5745239702,
				"z": 1.2800084894,
				"element": "O" 
			},
			{
				"x": 4.9588776233,
				"y": 2.7287558478,
				"z": 0.7752835,
				"element": "C" 
			},
			{
				"x": 5.6760498724,
				"y": 3.651503726,
				"z": 1.1108405057,
				"element": "O" 
			},
			{
				"x": 5.3687569271,
				"y": 1.7364011482,
				"z": -0.2420002854,
				"element": "C" 
			},
			{
				"x": 4.8023360792,
				"y": 0.5865901453,
				"z": -0.6619798339,
				"element": "C" 
			},
			{
				"x": 3.6267424,
				"y": -0.1780742376,
				"z": -0.2121499429,
				"element": "C" 
			},
			{
				"x": 3.2291275268,
				"y": -0.2873372196,
				"z": 1.1330411738,
				"element": "C" 
			},
			{
				"x": 2.1361832417,
				"y": -1.0698240512,
				"z": 1.4899395201,
				"element": "C" 
			},
			{
				"x": 1.4229249271,
				"y": -1.7525324969,
				"z": 0.5002125578,
				"element": "C" 
			},
			{
				"x": 1.8131283051,
				"y": -1.685375478,
				"z": -0.8390629978,
				"element": "C" 
			},
			{
				"x": 2.9187653604,
				"y": -0.9123604866,
				"z": -1.1822035237,
				"element": "C" 
			},
			{
				"x": -0.0179705278,
				"y": -2.7274033437,
				"z": 0.9611785182,
				"element": "S" 
			},
			{
				"x": -0.2450048268,
				"y": -3.6955100019,
				"z": -0.1130763197,
				"element": "O" 
			},
			{
				"x": 0.1475789836,
				"y": -3.1133479383,
				"z": 2.362136555,
				"element": "O" 
			},
			{
				"x": -1.3373311309,
				"y": -1.6896440047,
				"z": 0.9357598889,
				"element": "N" 
			},
			{
				"x": -1.7750007531,
				"y": -1.1205030402,
				"z": -0.354210398,
				"element": "C" 
			},
			{
				"x": -3.0236545806,
				"y": -0.3315491504,
				"z": -0.1732504553,
				"element": "C" 
			},
			{
				"x": -4.3202103765,
				"y": -0.5085609763,
				"z": -0.5532017661,
				"element": "C" 
			},
			{
				"x": -5.0495813295,
				"y": 0.622151407,
				"z": -0.0564218044,
				"element": "C" 
			},
			{
				"x": -4.1435609276,
				"y": 1.4000163633,
				"z": 0.5949869964,
				"element": "C" 
			},
			{
				"x": -2.9009713779,
				"y": 0.8381047043,
				"z": 0.5330690009,
				"element": "O" 
			},
			{
				"x": 3.5872568413,
				"y": 3.3159813799,
				"z": 1.8967115383,
				"element": "H" 
			},
			{
				"x": 6.2829770098,
				"y": 2.052286615,
				"z": -0.7346937497,
				"element": "H" 
			},
			{
				"x": 5.3074732476,
				"y": 0.1223167794,
				"z": -1.5093125832,
				"element": "H" 
			},
			{
				"x": 3.7887832129,
				"y": 0.2290648227,
				"z": 1.9015771657,
				"element": "H" 
			},
			{
				"x": 1.850471659,
				"y": -1.1794475847,
				"z": 2.5306921053,
				"element": "H" 
			},
			{
				"x": 1.2783799802,
				"y": -2.2603799807,
				"z": -1.5868218664,
				"element": "H" 
			},
			{
				"x": 3.2398672231,
				"y": -0.871805019,
				"z": -2.2194623629,
				"element": "H" 
			},
			{
				"x": -1.2925614184,
				"y": -1.0175349358,
				"z": 1.6971230109,
				"element": "H" 
			},
			{
				"x": -0.9947118929,
				"y": -0.487517378,
				"z": -0.8044660797,
				"element": "H" 
			},
			{
				"x": -1.9712681941,
				"y": -1.9535958387,
				"z": -1.03127292,
				"element": "H" 
			},
			{
				"x": -4.7102054037,
				"y": -1.3452613476,
				"z": -1.1148048632,
				"element": "H" 
			},
			{
				"x": -6.105113063,
				"y": 0.8221170922,
				"z": -0.1704920063,
				"element": "H" 
			},
			{
				"x": -4.2101700434,
				"y": 2.3364505084,
				"z": 1.1266232323,
				"element": "H" 
			}
		],
		 "valence_orbital": [ 
			{
				"type": "occ",
				"energy": -0.28748,
				"method": "rhf"
			},
			{
				"type": "occ",
				"energy": -0.28407,
				"method": "rhf"
			},
			{
				"type": "occ",
				"energy": -0.27671,
				"method": "rhf"
			},
			{
				"type": "occ",
				"energy": -0.25628,
				"method": "rhf"
			},
			{
				"type": "occ",
				"energy": -0.23578,
				"method": "rhf"
			},
			{
				"type": "unocc",
				"energy": -0.08442,
				"method": "rhf"
			},
			{
				"type": "unocc",
				"energy": -0.02889,
				"method": "rhf"
			},
			{
				"type": "unocc",
				"energy": -0.01943,
				"method": "rhf"
			},
			{
				"type": "unocc",
				"energy": -0.00226,
				"method": "rhf"
			},
			{
				"type": "unocc",
				"energy": 0.05249,
				"method": "rhf"
			}
		],
		"cosmo_sigma_profile": { 
			"-0.025": 0.0,
			"-0.024": 0.0,
			"-0.023": 0.0,
			"-0.022": 0.0,
			"-0.021": 0.0,
			"-0.02": 0.0,
			"-0.019": 0.0239080787166,
			"-0.018": 0.635466646431,
			"-0.017": 1.1140679616,
			"-0.016": 0.642585503804,
			"-0.015": 1.16906330537,
			"-0.014": 1.26051814722,
			"-0.013": 1.36936328786,
			"-0.012": 1.74776206875,
			"-0.011": 1.8585558622,
			"-0.01": 2.27096120744,
			"-0.009": 2.0105025787,
			"-0.008": 7.96652117253,
			"-0.007": 18.3068743594,
			"-0.006": 22.5875472925,
			"-0.005": 21.6403160741,
			"-0.004": 20.6811073237,
			"-0.003": 18.3190979992,
			"-0.002": 17.881122872,
			"-0.001": 18.1886356688,
			"0.0": 19.8329480562,
			"0.001": 23.1679957741,
			"0.002": 25.8114002547,
			"0.003": 16.2687407233,
			"0.004": 13.221829492,
			"0.005": 13.4473049123,
			"0.006": 8.84381021662,
			"0.007": 8.34577202392,
			"0.008": 7.49421253278,
			"0.009": 5.2446790786,
			"0.01": 10.5088217314,
			"0.011": 12.108294312,
			"0.012": 7.59027014962,
			"0.013": 0.90500478902,
			"0.014": 0.0,
			"0.015": 0.0,
			"0.016": 0.0,
			"0.017": 0.0,
			"0.018": 0.0,
			"0.019": 0.0,
			"0.02": 0.0,
			"0.021": 0.0,
			"0.022": 0.0,
			"0.023": 0.0,
			"0.024": 0.0,
			"0.0": 0.0
		}
	}
}
