{
	 "smiles": "CC(C(O)=O)C1=C(F)C=CC=C1", 
	 "Tm": 321.15, 
	 "num_atms": 21, 
	 "gaussian": { 
		 "optdone": 1, 
		 "sigma_profile": "yes", 
		 "theory": "DFT", 
		 "functional": "B3LYP", 
		 "basiset": "6-31G**", 
		 "properties": { 
			 "R2extent": 2324.3768, 
			 "electric_dipole_moment_norm": 2.66180558832, 
			 "electric_quadrupole_moment_norm": 8.49587267619, 
			 "total_energy": -598.682739091, 
			 "HOMO_LUMO_gap": 0.22985, 
			 "cosmo_polarized_energy": -10.39, 
			 "cosmo_cavitation_energy": 25.33, 
			 "cosmo_dispersion_energy": -17.94, 
			 "cosmo_repulsion_energy": 1.42, 
			 "cosmo_total_nonelectrostatic_energy": 8.81, 
			 "SMD_solvation_energy": 5.91 
		},
		"coords": [
			{
				"x": 0.6282708683,
				"y": 2.0461059537,
				"z": -2.4977455369,
				"element": "C" 
			},
			{
				"x": -0.4258008483,
				"y": 1.4929826851,
				"z": -1.5197349554,
				"element": "C" 
			},
			{
				"x": -1.2062025231,
				"y": 2.6775953674,
				"z": -0.9485842338,
				"element": "C" 
			},
			{
				"x": -0.6581183142,
				"y": 3.1711153411,
				"z": 0.1864175342,
				"element": "O" 
			},
			{
				"x": -2.1741437367,
				"y": 3.1764562942,
				"z": -1.4769050329,
				"element": "O" 
			},
			{
				"x": 0.1282091197,
				"y": 0.5664864657,
				"z": -0.4497086374,
				"element": "C" 
			},
			{
				"x": -0.7665944726,
				"y": -0.0795240414,
				"z": 0.4084715784,
				"element": "C" 
			},
			{
				"x": -2.0873929518,
				"y": 0.1873331315,
				"z": 0.258391819,
				"element": "F" 
			},
			{
				"x": -0.3738441605,
				"y": -0.9655315168,
				"z": 1.3995882241,
				"element": "C" 
			},
			{
				"x": 0.9886944123,
				"y": -1.2311165324,
				"z": 1.5533330282,
				"element": "C" 
			},
			{
				"x": 1.9158462688,
				"y": -0.6070323502,
				"z": 0.7195920751,
				"element": "C" 
			},
			{
				"x": 1.4855779667,
				"y": 0.2810679752,
				"z": -0.2704960113,
				"element": "C" 
			},
			{
				"x": 1.148588568,
				"y": 1.2296780403,
				"z": -3.0064134548,
				"element": "H" 
			},
			{
				"x": 1.3699812602,
				"y": 2.6621450489,
				"z": -1.9806857481,
				"element": "H" 
			},
			{
				"x": 0.1388171437,
				"y": 2.6636703208,
				"z": -3.2549100365,
				"element": "H" 
			},
			{
				"x": -1.1718115684,
				"y": 0.9422775924,
				"z": -2.1023024085,
				"element": "H" 
			},
			{
				"x": -1.2056558428,
				"y": 3.9348654213,
				"z": 0.4354884965,
				"element": "H" 
			},
			{
				"x": -1.1269013484,
				"y": -1.4283429855,
				"z": 2.0281510541,
				"element": "H" 
			},
			{
				"x": 1.3186216084,
				"y": -1.9223603168,
				"z": 2.3228484138,
				"element": "H" 
			},
			{
				"x": 2.9760862606,
				"y": -0.8095139827,
				"z": 0.8356314872,
				"element": "H" 
			},
			{
				"x": 2.2208722902,
				"y": 0.7563420884,
				"z": -0.9106276551,
				"element": "H" 
			}
		],
		 "valence_orbital": [ 
			{
				"type": "occ",
				"energy": -0.34269,
				"method": "rhf"
			},
			{
				"type": "occ",
				"energy": -0.31483,
				"method": "rhf"
			},
			{
				"type": "occ",
				"energy": -0.27659,
				"method": "rhf"
			},
			{
				"type": "occ",
				"energy": -0.25552,
				"method": "rhf"
			},
			{
				"type": "occ",
				"energy": -0.24226,
				"method": "rhf"
			},
			{
				"type": "unocc",
				"energy": -0.01241,
				"method": "rhf"
			},
			{
				"type": "unocc",
				"energy": -0.00158,
				"method": "rhf"
			},
			{
				"type": "unocc",
				"energy": 0.01293,
				"method": "rhf"
			},
			{
				"type": "unocc",
				"energy": 0.07643,
				"method": "rhf"
			},
			{
				"type": "unocc",
				"energy": 0.08452,
				"method": "rhf"
			}
		],
		"cosmo_sigma_profile": { 
			"-0.025": 0.0,
			"-0.024": 0.0,
			"-0.023": 0.0,
			"-0.022": 0.0,
			"-0.021": 0.0,
			"-0.02": 0.0,
			"-0.019": 0.0,
			"-0.018": 0.709431836342,
			"-0.017": 1.06788537456,
			"-0.016": 0.779920014195,
			"-0.015": 0.803165230522,
			"-0.014": 0.54973425506,
			"-0.013": 0.775878712242,
			"-0.012": 0.894630506356,
			"-0.011": 0.585751764784,
			"-0.01": 0.812743988356,
			"-0.009": 0.268329072464,
			"-0.008": 0.890561227712,
			"-0.007": 2.65132946782,
			"-0.006": 9.92140185539,
			"-0.005": 13.6840629555,
			"-0.004": 18.4066308353,
			"-0.003": 16.0305837901,
			"-0.002": 16.3248467327,
			"-0.001": 13.4359311451,
			"0.0": 12.490266347,
			"0.001": 11.7451944433,
			"0.002": 11.68049409,
			"0.003": 14.418093954,
			"0.004": 18.4064041937,
			"0.005": 10.2097390145,
			"0.006": 3.30908292201,
			"0.007": 2.81188030714,
			"0.008": 2.78130992979,
			"0.009": 2.96391940798,
			"0.01": 2.23221479527,
			"0.011": 3.76793443596,
			"0.012": 4.48111873896,
			"0.013": 0.904669050928,
			"0.014": 0.0,
			"0.015": 0.0,
			"0.016": 0.0,
			"0.017": 0.0,
			"0.018": 0.0,
			"0.019": 0.0,
			"0.02": 0.0,
			"0.021": 0.0,
			"0.022": 0.0,
			"0.023": 0.0,
			"0.024": 0.0,
			"0.025": 0.0
		}
	}
}
