{
	 "smiles": "CC1=CC(=CC=C1)N1N=NN=C1S", 
	 "Tm": 430.15, 
	 "num_atms": 21, 
	 "gaussian": { 
		 "optdone": 1, 
		 "sigma_profile": "yes", 
		 "theory": "DFT", 
		 "functional": "B3LYP", 
		 "basiset": "6-31G**", 
		 "properties": { 
			 "R2extent": 3350.8052, 
			 "electric_dipole_moment_norm": 5.57994444775, 
			 "electric_quadrupole_moment_norm": 11.8637997109, 
			 "total_energy": -926.807411637, 
			 "HOMO_LUMO_gap": 0.21096, 
			 "cosmo_polarized_energy": -12.47, 
			 "cosmo_cavitation_energy": 27.36, 
			 "cosmo_dispersion_energy": -20.28, 
			 "cosmo_repulsion_energy": 1.56, 
			 "cosmo_total_nonelectrostatic_energy": 8.64, 
			 "SMD_solvation_energy": 2.64 
		},
		"coords": [
			{
				"x": -3.5030310938,
				"y": 1.4235093125,
				"z": 1.1290998372,
				"element": "C" 
			},
			{
				"x": -2.3305546787,
				"y": 1.2500580957,
				"z": 0.1927663069,
				"element": "C" 
			},
			{
				"x": -1.0440422125,
				"y": 1.0276329137,
				"z": 0.6997491258,
				"element": "C" 
			},
			{
				"x": 0.0317303168,
				"y": 0.8438912782,
				"z": -0.1709040629,
				"element": "C" 
			},
			{
				"x": -0.1466500586,
				"y": 0.8524889422,
				"z": -1.5561758386,
				"element": "C" 
			},
			{
				"x": -1.4281474533,
				"y": 1.0603878778,
				"z": -2.059988726,
				"element": "C" 
			},
			{
				"x": -2.505788839,
				"y": 1.2660250634,
				"z": -1.1967641602,
				"element": "C" 
			},
			{
				"x": 1.3423872166,
				"y": 0.6295223298,
				"z": 0.3505189189,
				"element": "N" 
			},
			{
				"x": 2.1719341635,
				"y": -0.3183754918,
				"z": -0.1892870057,
				"element": "N" 
			},
			{
				"x": 3.2794332257,
				"y": -0.2502949903,
				"z": 0.4619662322,
				"element": "N" 
			},
			{
				"x": 3.2376594688,
				"y": 0.7079190675,
				"z": 1.4262618983,
				"element": "N" 
			},
			{
				"x": 2.0334948537,
				"y": 1.2467835433,
				"z": 1.3421397404,
				"element": "C" 
			},
			{
				"x": 1.4394472798,
				"y": 2.5847619134,
				"z": 2.3174271636,
				"element": "S" 
			},
			{
				"x": -3.9402042769,
				"y": 0.453317691,
				"z": 1.3952399243,
				"element": "H" 
			},
			{
				"x": -4.2939255247,
				"y": 2.0223956453,
				"z": 0.6688882964,
				"element": "H" 
			},
			{
				"x": -3.2040507892,
				"y": 1.9126327825,
				"z": 2.0606807683,
				"element": "H" 
			},
			{
				"x": -0.8872189688,
				"y": 0.9781098099,
				"z": 1.7729784231,
				"element": "H" 
			},
			{
				"x": 0.7044014445,
				"y": 0.6988852499,
				"z": -2.2090310493,
				"element": "H" 
			},
			{
				"x": -1.5849369873,
				"y": 1.0732865613,
				"z": -3.1342232279,
				"element": "H" 
			},
			{
				"x": -3.4974389542,
				"y": 1.4380377435,
				"z": -1.6064900493,
				"element": "H" 
			},
			{
				"x": 2.6300018677,
				"y": 2.7460246613,
				"z": 2.9269474847,
				"element": "H" 
			}
		],
		 "valence_orbital": [ 
			{
				"type": "occ",
				"energy": -0.29716,
				"method": "rhf"
			},
			{
				"type": "occ",
				"energy": -0.28988,
				"method": "rhf"
			},
			{
				"type": "occ",
				"energy": -0.2691,
				"method": "rhf"
			},
			{
				"type": "occ",
				"energy": -0.26337,
				"method": "rhf"
			},
			{
				"type": "occ",
				"energy": -0.2542,
				"method": "rhf"
			},
			{
				"type": "unocc",
				"energy": -0.04324,
				"method": "rhf"
			},
			{
				"type": "unocc",
				"energy": -0.02766,
				"method": "rhf"
			},
			{
				"type": "unocc",
				"energy": -0.00049,
				"method": "rhf"
			},
			{
				"type": "unocc",
				"energy": 0.00232,
				"method": "rhf"
			},
			{
				"type": "unocc",
				"energy": 0.02218,
				"method": "rhf"
			}
		],
		"cosmo_sigma_profile": { 
			"-0.025": 0.0,
			"-0.024": 0.0,
			"-0.023": 0.0,
			"-0.022": 0.0,
			"-0.021": 0.0,
			"-0.02": 0.0,
			"-0.019": 0.0,
			"-0.018": 0.0,
			"-0.017": 0.0,
			"-0.016": 0.0,
			"-0.015": 0.0,
			"-0.014": 0.015192712805,
			"-0.013": 1.26332019526,
			"-0.012": 1.70137709373,
			"-0.011": 1.49793752564,
			"-0.01": 0.97756746705,
			"-0.009": 0.951546793908,
			"-0.008": 1.68590501231,
			"-0.007": 5.6375228606,
			"-0.006": 10.5771386424,
			"-0.005": 17.3084469005,
			"-0.004": 18.3683318677,
			"-0.003": 15.9140212022,
			"-0.002": 17.453480805,
			"-0.001": 20.0480085898,
			"0.0": 18.4552924788,
			"0.001": 13.9595876162,
			"0.002": 13.8513591332,
			"0.003": 14.8811752498,
			"0.004": 10.9603896528,
			"0.005": 5.22381979789,
			"0.006": 3.55580284085,
			"0.007": 4.20311273318,
			"0.008": 4.93860987641,
			"0.009": 4.53760387837,
			"0.01": 5.10012864098,
			"0.011": 3.29164733835,
			"0.012": 2.71202073312,
			"0.013": 1.87771791567,
			"0.014": 1.06876643864,
			"0.015": 0.0297584148891,
			"0.016": 0.0,
			"0.017": 0.0,
			"0.018": 0.0,
			"0.019": 0.0,
			"0.02": 0.0,
			"0.021": 0.0,
			"0.022": 0.0,
			"0.023": 0.0,
			"0.024": 0.0,
			"0.025": 0.0
		}
	}
}
