{
	 "smiles": "FC1=CC=C(C=C1)C(C#N)(C1=CC=CC=C1)C1=CC=C(F)C=C1", 
	 "Tm": 348.15, 
	 "num_atms": 36, 
	 "gaussian": { 
		 "optdone": 1, 
		 "sigma_profile": "yes", 
		 "theory": "DFT", 
		 "functional": "B3LYP", 
		 "basiset": "6-31G**", 
		 "properties": { 
			 "R2extent": 7790.9765, 
			 "electric_dipole_moment_norm": 3.3261151784, 
			 "electric_quadrupole_moment_norm": 9.67509357422, 
			 "total_energy": -1024.35675837, 
			 "HOMO_LUMO_gap": 0.21345, 
			 "cosmo_polarized_energy": -10.38, 
			 "cosmo_cavitation_energy": 41.35, 
			 "cosmo_dispersion_energy": -27.39, 
			 "cosmo_repulsion_energy": 2.04, 
			 "cosmo_total_nonelectrostatic_energy": 16.01, 
			 "SMD_solvation_energy": 8.89 
		},
		"coords": [
			{
				"x": 0.3847523216,
				"y": 4.7225542814,
				"z": -4.3674539317,
				"element": "F" 
			},
			{
				"x": 0.2782791436,
				"y": 3.6402846319,
				"z": -3.5712232635,
				"element": "C" 
			},
			{
				"x": 1.1134276467,
				"y": 3.5260501094,
				"z": -2.4680692077,
				"element": "C" 
			},
			{
				"x": 1.001776064,
				"y": 2.3985096064,
				"z": -1.6517649718,
				"element": "C" 
			},
			{
				"x": 0.0637280281,
				"y": 1.3982696992,
				"z": -1.9309371558,
				"element": "C" 
			},
			{
				"x": -0.7663746477,
				"y": 1.5484120575,
				"z": -3.0521294318,
				"element": "C" 
			},
			{
				"x": -0.6640137558,
				"y": 2.664349878,
				"z": -3.8787191573,
				"element": "C" 
			},
			{
				"x": -0.1108763297,
				"y": 0.1677367264,
				"z": -1.0022674429,
				"element": "C" 
			},
			{
				"x": -0.3330799249,
				"y": -1.0134648151,
				"z": -1.8708469881,
				"element": "C" 
			},
			{
				"x": -0.504882082,
				"y": -1.9364606607,
				"z": -2.5541276273,
				"element": "N" 
			},
			{
				"x": -1.3563928487,
				"y": 0.3175949603,
				"z": -0.0876975042,
				"element": "C" 
			},
			{
				"x": -1.8675507931,
				"y": 1.5771399421,
				"z": 0.2440641202,
				"element": "C" 
			},
			{
				"x": -2.9564818341,
				"y": 1.6938648931,
				"z": 1.1120789133,
				"element": "C" 
			},
			{
				"x": -3.5504518956,
				"y": 0.555139345,
				"z": 1.6544559652,
				"element": "C" 
			},
			{
				"x": -3.0460241579,
				"y": -0.705212375,
				"z": 1.3265136652,
				"element": "C" 
			},
			{
				"x": -1.9565479608,
				"y": -0.8227811119,
				"z": 0.4651499294,
				"element": "C" 
			},
			{
				"x": 1.1702970283,
				"y": -0.1015556579,
				"z": -0.1696560125,
				"element": "C" 
			},
			{
				"x": 1.2670238149,
				"y": 0.2940193259,
				"z": 1.1693931336,
				"element": "C" 
			},
			{
				"x": 2.4438157862,
				"y": 0.0930965651,
				"z": 1.8937351551,
				"element": "C" 
			},
			{
				"x": 3.523150819,
				"y": -0.5129408942,
				"z": 1.2648311131,
				"element": "C" 
			},
			{
				"x": 4.6599378354,
				"y": -0.716083735,
				"z": 1.9598231733,
				"element": "F" 
			},
			{
				"x": 3.4607412485,
				"y": -0.9196416608,
				"z": -0.0638531135,
				"element": "C" 
			},
			{
				"x": 2.2818027289,
				"y": -0.7078278038,
				"z": -0.7742855793,
				"element": "C" 
			},
			{
				"x": 1.8397055084,
				"y": 4.3043213869,
				"z": -2.2605611893,
				"element": "H" 
			},
			{
				"x": 1.6577237912,
				"y": 2.3035642813,
				"z": -0.7942094329,
				"element": "H" 
			},
			{
				"x": -1.4970657601,
				"y": 0.7814634572,
				"z": -3.2893233232,
				"element": "H" 
			},
			{
				"x": -1.2968259329,
				"y": 2.7833625211,
				"z": -4.7513584881,
				"element": "H" 
			},
			{
				"x": -1.421664662,
				"y": 2.4712897649,
				"z": -0.1767306253,
				"element": "H" 
			},
			{
				"x": -3.3411316053,
				"y": 2.6797910935,
				"z": 1.3566157239,
				"element": "H" 
			},
			{
				"x": -4.4009980973,
				"y": 0.6469352362,
				"z": 2.3234860033,
				"element": "H" 
			},
			{
				"x": -3.5021472789,
				"y": -1.6005307185,
				"z": 1.7386857898,
				"element": "H" 
			},
			{
				"x": -1.5754598186,
				"y": -1.8080713539,
				"z": 0.214261604,
				"element": "H" 
			},
			{
				"x": 0.4199878064,
				"y": 0.7592289367,
				"z": 1.6601283248,
				"element": "H" 
			},
			{
				"x": 2.5261639834,
				"y": 0.3934819772,
				"z": 2.9325962323,
				"element": "H" 
			},
			{
				"x": 4.3210886017,
				"y": -1.3949146132,
				"z": -0.5221514167,
				"element": "H" 
			},
			{
				"x": 2.2255672292,
				"y": -1.0274752766,
				"z": -1.8101529836,
				"element": "H" 
			}
		],
		 "valence_orbital": [ 
			{
				"type": "occ",
				"energy": -0.27033,
				"method": "rhf"
			},
			{
				"type": "occ",
				"energy": -0.26337,
				"method": "rhf"
			},
			{
				"type": "occ",
				"energy": -0.26036,
				"method": "rhf"
			},
			{
				"type": "occ",
				"energy": -0.25442,
				"method": "rhf"
			},
			{
				"type": "occ",
				"energy": -0.24649,
				"method": "rhf"
			},
			{
				"type": "unocc",
				"energy": -0.03304,
				"method": "rhf"
			},
			{
				"type": "unocc",
				"energy": -0.02386,
				"method": "rhf"
			},
			{
				"type": "unocc",
				"energy": -0.02063,
				"method": "rhf"
			},
			{
				"type": "unocc",
				"energy": -0.01389,
				"method": "rhf"
			},
			{
				"type": "unocc",
				"energy": -0.00973,
				"method": "rhf"
			}
		],
		"cosmo_sigma_profile": { 
			"-0.025": 0.0,
			"-0.024": 0.0,
			"-0.023": 0.0,
			"-0.022": 0.0,
			"-0.021": 0.0,
			"-0.02": 0.0,
			"-0.019": 0.0,
			"-0.018": 0.0,
			"-0.017": 0.0,
			"-0.016": 0.0,
			"-0.015": 0.0,
			"-0.014": 0.0,
			"-0.013": 0.0,
			"-0.012": 0.0,
			"-0.011": 0.0,
			"-0.01": 0.0,
			"-0.009": 0.0,
			"-0.008": 2.1850278962,
			"-0.007": 9.76872587738,
			"-0.006": 19.1610163303,
			"-0.005": 25.7430762355,
			"-0.004": 23.0338308737,
			"-0.003": 22.2206174317,
			"-0.002": 20.4483906244,
			"-0.001": 20.5937806612,
			"0.0": 29.0658053326,
			"0.001": 34.7243043241,
			"0.002": 36.917658137,
			"0.003": 30.3828410844,
			"0.004": 30.4242235218,
			"0.005": 10.7927265146,
			"0.006": 2.04307964453,
			"0.007": 1.69148884918,
			"0.008": 2.7745671479,
			"0.009": 2.62411292928,
			"0.01": 2.86299959498,
			"0.011": 2.69061269449,
			"0.012": 2.45908763991,
			"0.013": 1.13226582478,
			"0.014": 0.0,
			"0.015": 0.0,
			"0.016": 0.0,
			"0.017": 0.0,
			"0.018": 0.0,
			"0.019": 0.0,
			"0.02": 0.0,
			"0.021": 0.0,
			"0.022": 0.0,
			"0.023": 0.0,
			"0.024": 0.0,
			"0.025": 0.0
		}
	}
}
