{
	 "smiles": "CC(C)(C)OC(=O)N[C@@H](CI)C(=O)OCC1=CC=CC=C1", 
	 "Tm": 354.15, 
	 "num_atms": 41, 
	 "gaussian": { 
		 "optdone": 1, 
		 "sigma_profile": "no", 
		 "theory": "DFT", 
		 "functional": "B3LYP", 
		 "basiset": "6-31G**", 
		 "properties": { 
			 "R2extent": 6105.0185, 
			 "electric_dipole_moment_norm": 2.46084554777, 
			 "electric_quadrupole_moment_norm": 17.1841865414, 
			 "total_energy": -950.73211753, 
			 "HOMO_LUMO_gap": 0.20615, 
			 "cosmo_polarized_energy": -105512.1, 
			 "cosmo_cavitation_energy": 47.19, 
			 "cosmo_dispersion_energy": -30.43, 
			 "cosmo_repulsion_energy": 2.34, 
			 "cosmo_total_nonelectrostatic_energy": 19.1, 
			 "SMD_solvation_energy": 8.12 
		},
		"coords": [
			{
				"x": 1.2477494404,
				"y": -2.550151584,
				"z": 0.2417030437,
				"element": "C" 
			},
			{
				"x": 1.8603178387,
				"y": -1.3484207273,
				"z": 0.9640288889,
				"element": "C" 
			},
			{
				"x": 1.1733720506,
				"y": -1.1120643155,
				"z": 2.3119401402,
				"element": "C" 
			},
			{
				"x": 3.3780832594,
				"y": -1.4996962187,
				"z": 1.1013715098,
				"element": "C" 
			},
			{
				"x": 1.5582108844,
				"y": -0.2340907453,
				"z": 0.0403522509,
				"element": "O" 
			},
			{
				"x": 1.92144759,
				"y": 1.0313913076,
				"z": 0.3319781273,
				"element": "C" 
			},
			{
				"x": 2.5086118042,
				"y": 1.4185949466,
				"z": 1.3267120034,
				"element": "O" 
			},
			{
				"x": 1.5469219669,
				"y": 1.881873159,
				"z": -0.6840782792,
				"element": "N" 
			},
			{
				"x": 0.7737184248,
				"y": 1.5507725559,
				"z": -1.8737922474,
				"element": "C" 
			},
			{
				"x": 1.5685048882,
				"y": 0.6688573793,
				"z": -2.8451368807,
				"element": "C" 
			},
			{
				"x": 0.9000134761,
				"y": 0.872167613,
				"z": -4.9134409984,
				"element": "I" 
			},
			{
				"x": -0.5976320689,
				"y": 0.9281901014,
				"z": -1.538118785,
				"element": "C" 
			},
			{
				"x": -1.0062288142,
				"y": -0.1230279245,
				"z": -1.9757674253,
				"element": "O" 
			},
			{
				"x": -1.2918300115,
				"y": 1.7520618257,
				"z": -0.7324523557,
				"element": "O" 
			},
			{
				"x": -2.6536552142,
				"y": 1.3458904353,
				"z": -0.4037911539,
				"element": "C" 
			},
			{
				"x": -2.7198407228,
				"y": 0.4367611401,
				"z": 0.7973105673,
				"element": "C" 
			},
			{
				"x": -2.8496131589,
				"y": -0.9491802607,
				"z": 0.6366299806,
				"element": "C" 
			},
			{
				"x": -2.9350457071,
				"y": -1.7842578567,
				"z": 1.7519414793,
				"element": "C" 
			},
			{
				"x": -2.8837781986,
				"y": -1.2426484087,
				"z": 3.0383343722,
				"element": "C" 
			},
			{
				"x": -2.7465567132,
				"y": 0.1373119981,
				"z": 3.2069816796,
				"element": "C" 
			},
			{
				"x": -2.6682783403,
				"y": 0.9711553751,
				"z": 2.0913994999,
				"element": "C" 
			},
			{
				"x": 1.380501495,
				"y": -3.4538537577,
				"z": 0.8440133012,
				"element": "H" 
			},
			{
				"x": 0.1791817443,
				"y": -2.3924167726,
				"z": 0.0745315921,
				"element": "H" 
			},
			{
				"x": 1.72923287,
				"y": -2.70899391,
				"z": -0.7278644869,
				"element": "H" 
			},
			{
				"x": 1.3146396357,
				"y": -1.9922398501,
				"z": 2.9479113476,
				"element": "H" 
			},
			{
				"x": 1.5931418931,
				"y": -0.2423264732,
				"z": 2.8177038824,
				"element": "H" 
			},
			{
				"x": 0.0991580485,
				"y": -0.9622093141,
				"z": 2.1736407685,
				"element": "H" 
			},
			{
				"x": 3.8405369907,
				"y": -1.623930251,
				"z": 0.1169398635,
				"element": "H" 
			},
			{
				"x": 3.6040575007,
				"y": -2.3906140763,
				"z": 1.6961458615,
				"element": "H" 
			},
			{
				"x": 3.8149663649,
				"y": -0.6293295926,
				"z": 1.5921410761,
				"element": "H" 
			},
			{
				"x": 1.71877059,
				"y": 2.8529535655,
				"z": -0.475188765,
				"element": "H" 
			},
			{
				"x": 0.5584994175,
				"y": 2.5105556342,
				"z": -2.3523613419,
				"element": "H" 
			},
			{
				"x": 2.6130511796,
				"y": 0.9710430325,
				"z": -2.858035656,
				"element": "H" 
			},
			{
				"x": 1.4673543397,
				"y": -0.3859831653,
				"z": -2.6081366543,
				"element": "H" 
			},
			{
				"x": -3.161199333,
				"y": 2.2924613077,
				"z": -0.2072254035,
				"element": "H" 
			},
			{
				"x": -3.0922063285,
				"y": 0.8698303475,
				"z": -1.2828695912,
				"element": "H" 
			},
			{
				"x": -2.8758068999,
				"y": -1.3661667006,
				"z": -0.3653723071,
				"element": "H" 
			},
			{
				"x": -3.0435130083,
				"y": -2.8565510933,
				"z": 1.6164655104,
				"element": "H" 
			},
			{
				"x": -2.9527268453,
				"y": -1.8923852167,
				"z": 3.906128323,
				"element": "H" 
			},
			{
				"x": -2.7075705184,
				"y": 0.5633596304,
				"z": 4.2052894056,
				"element": "H" 
			},
			{
				"x": -2.5696618105,
				"y": 2.0457068605,
				"z": 2.2242378565,
				"element": "H" 
			}
		],
		 "valence_orbital": [ 
			{
				"type": "occ",
				"energy": -0.26632,
				"method": "rhf"
			},
			{
				"type": "occ",
				"energy": -0.25849,
				"method": "rhf"
			},
			{
				"type": "occ",
				"energy": -0.25816,
				"method": "rhf"
			},
			{
				"type": "occ",
				"energy": -0.2547,
				"method": "rhf"
			},
			{
				"type": "occ",
				"energy": -0.25013,
				"method": "rhf"
			},
			{
				"type": "unocc",
				"energy": -0.04398,
				"method": "rhf"
			},
			{
				"type": "unocc",
				"energy": -0.0194,
				"method": "rhf"
			},
			{
				"type": "unocc",
				"energy": -0.00912,
				"method": "rhf"
			},
			{
				"type": "unocc",
				"energy": -0.00339,
				"method": "rhf"
			},
			{
				"type": "unocc",
				"energy": 0.03867,
				"method": "rhf"
			}
		],
		"cosmo_sigma_profile": { 
			"0.0": 0.0,
			"0.0": 0.0,
			"0.0": 0.0,
			"0.0": 0.0,
			"0.0": 0.0,
			"0.0": 0.0,
			"0.0": 0.0,
			"0.0": 0.0,
			"0.0": 0.0,
			"0.0": 0.0,
			"0.0": 0.0,
			"0.0": 0.0,
			"0.0": 0.0,
			"0.0": 0.0,
			"0.0": 0.0,
			"0.0": 0.0,
			"0.0": 0.0,
			"0.0": 0.0,
			"0.0": 0.0,
			"0.0": 0.0,
			"0.0": 0.0,
			"0.0": 0.0,
			"0.0": 0.0,
			"0.0": 0.0,
			"0.0": 0.0,
			"0.0": 0.0,
			"0.0": 0.0,
			"0.0": 0.0,
			"0.0": 0.0,
			"0.0": 0.0,
			"0.0": 0.0,
			"0.0": 0.0,
			"0.0": 0.0,
			"0.0": 0.0,
			"0.0": 0.0,
			"0.0": 0.0,
			"0.0": 0.0,
			"0.0": 0.0,
			"0.0": 0.0,
			"0.0": 0.0,
			"0.0": 0.0,
			"0.0": 0.0,
			"0.0": 0.0,
			"0.0": 0.0,
			"0.0": 0.0,
			"0.0": 0.0,
			"0.0": 0.0,
			"0.0": 0.0,
			"0.0": 0.0,
			"0.0": 0.0,
			"0.0": 0.0
		}
	}
}
