{
	 "smiles": "OC(=O)CN1C=CC=NC1=O", 
	 "Tm": 485.15, 
	 "num_atms": 17, 
	 "gaussian": { 
		 "optdone": 1, 
		 "sigma_profile": "yes", 
		 "theory": "DFT", 
		 "functional": "B3LYP", 
		 "basiset": "6-31G**", 
		 "properties": { 
			 "R2extent": 1818.4207, 
			 "electric_dipole_moment_norm": 6.19999235967, 
			 "electric_quadrupole_moment_norm": 17.2188980704, 
			 "total_energy": -567.436629674, 
			 "HOMO_LUMO_gap": 0.17788, 
			 "cosmo_polarized_energy": -20.77, 
			 "cosmo_cavitation_energy": 21.59, 
			 "cosmo_dispersion_energy": -16.16, 
			 "cosmo_repulsion_energy": 1.28, 
			 "cosmo_total_nonelectrostatic_energy": 6.71, 
			 "SMD_solvation_energy": 4.33 
		},
		"coords": [
			{
				"x": 1.6869803585,
				"y": -0.9388191007,
				"z": -2.3432975149,
				"element": "O" 
			},
			{
				"x": 1.412440353,
				"y": 0.3116262293,
				"z": -1.9765230221,
				"element": "C" 
			},
			{
				"x": 1.4670358281,
				"y": 1.2557143053,
				"z": -2.7290104925,
				"element": "O" 
			},
			{
				"x": 1.0358705854,
				"y": 0.5027986521,
				"z": -0.4897628935,
				"element": "C" 
			},
			{
				"x": -0.1919773741,
				"y": -0.2059798451,
				"z": -0.090014017,
				"element": "N" 
			},
			{
				"x": -1.3681083241,
				"y": 0.4610658777,
				"z": 0.0471739649,
				"element": "C" 
			},
			{
				"x": -2.4843907754,
				"y": -0.1954024748,
				"z": 0.4866535643,
				"element": "C" 
			},
			{
				"x": -2.319575961,
				"y": -1.5633242172,
				"z": 0.8168958163,
				"element": "C" 
			},
			{
				"x": -1.2004901486,
				"y": -2.2355281544,
				"z": 0.6738045705,
				"element": "N" 
			},
			{
				"x": -0.102756842,
				"y": -1.6044921745,
				"z": 0.1510973044,
				"element": "C" 
			},
			{
				"x": 0.9595303813,
				"y": -2.1793462704,
				"z": -0.1144240397,
				"element": "O" 
			},
			{
				"x": 1.5743375854,
				"y": -1.5472674467,
				"z": -1.5663693288,
				"element": "H" 
			},
			{
				"x": 0.892490813,
				"y": 1.5691334549,
				"z": -0.3213601376,
				"element": "H" 
			},
			{
				"x": 1.847408444,
				"y": 0.1326944505,
				"z": 0.1435881712,
				"element": "H" 
			},
			{
				"x": -1.3525928909,
				"y": 1.5170194088,
				"z": -0.2010902167,
				"element": "H" 
			},
			{
				"x": -3.4303469528,
				"y": 0.3164847014,
				"z": 0.6032077451,
				"element": "H" 
			},
			{
				"x": -3.1626550798,
				"y": -2.1205773962,
				"z": 1.2261305261,
				"element": "H" 
			}
		],
		 "valence_orbital": [ 
			{
				"type": "occ",
				"energy": -0.3118,
				"method": "rhf"
			},
			{
				"type": "occ",
				"energy": -0.30203,
				"method": "rhf"
			},
			{
				"type": "occ",
				"energy": -0.29029,
				"method": "rhf"
			},
			{
				"type": "occ",
				"energy": -0.27758,
				"method": "rhf"
			},
			{
				"type": "occ",
				"energy": -0.26139,
				"method": "rhf"
			},
			{
				"type": "unocc",
				"energy": -0.08351,
				"method": "rhf"
			},
			{
				"type": "unocc",
				"energy": -0.02662,
				"method": "rhf"
			},
			{
				"type": "unocc",
				"energy": -0.0021,
				"method": "rhf"
			},
			{
				"type": "unocc",
				"energy": 0.05996,
				"method": "rhf"
			},
			{
				"type": "unocc",
				"energy": 0.08663,
				"method": "rhf"
			}
		],
		"cosmo_sigma_profile": { 
			"-0.025": 0.0,
			"-0.024": 0.0,
			"-0.023": 0.0,
			"-0.022": 0.0,
			"-0.021": 0.0,
			"-0.02": 0.0,
			"-0.019": 0.0,
			"-0.018": 0.0,
			"-0.017": 0.0,
			"-0.016": 0.0,
			"-0.015": 0.0,
			"-0.014": 0.0,
			"-0.013": 0.0397910694343,
			"-0.012": 2.10029244125,
			"-0.011": 3.12208648565,
			"-0.01": 3.86612703144,
			"-0.009": 6.8886906483,
			"-0.008": 12.0333547564,
			"-0.007": 13.4100681672,
			"-0.006": 11.6956855951,
			"-0.005": 10.2569607824,
			"-0.004": 10.2315534576,
			"-0.003": 7.96976050596,
			"-0.002": 7.66352291226,
			"-0.001": 9.50269108483,
			"0.0": 6.91749591494,
			"0.001": 4.42372101078,
			"0.002": 3.45076500212,
			"0.003": 4.50938019204,
			"0.004": 2.5728319694,
			"0.005": 3.73024640301,
			"0.006": 4.19588487185,
			"0.007": 3.61339895575,
			"0.008": 4.99452109344,
			"0.009": 4.6439409087,
			"0.01": 7.2374168359,
			"0.011": 8.8689608631,
			"0.012": 7.25931881271,
			"0.013": 3.72525530079,
			"0.014": 3.06257628811,
			"0.015": 1.34076445697,
			"0.016": 0.200611153596,
			"0.017": 0.0,
			"0.018": 0.0,
			"0.019": 0.0,
			"0.02": 0.0,
			"0.021": 0.0,
			"0.022": 0.0,
			"0.023": 0.0,
			"0.024": 0.0,
			"0.025": 0.0
		}
	}
}
