{
	 "smiles": "CN1CCN(CC1)C1=NC2=C(CC3=C1C=CC=C3)C=CC=C2", 
	 "Tm": 410.15, 
	 "num_atms": 43, 
	 "gaussian": { 
		 "optdone": 1, 
		 "sigma_profile": "yes", 
		 "theory": "DFT", 
		 "functional": "B3LYP", 
		 "basiset": "6-31G**", 
		 "properties": { 
			 "R2extent": 7436.9495, 
			 "electric_dipole_moment_norm": 3.23810390352, 
			 "electric_quadrupole_moment_norm": 9.29137752166, 
			 "total_energy": -900.922748147, 
			 "HOMO_LUMO_gap": 0.16034, 
			 "cosmo_polarized_energy": -11.0, 
			 "cosmo_cavitation_energy": 42.91, 
			 "cosmo_dispersion_energy": -30.25, 
			 "cosmo_repulsion_energy": 2.29, 
			 "cosmo_total_nonelectrostatic_energy": 14.94, 
			 "SMD_solvation_energy": 2.21 
		},
		"coords": [
			{
				"x": 5.389231044,
				"y": 0.0128096568,
				"z": 1.7583827982,
				"element": "C" 
			},
			{
				"x": 4.2872444855,
				"y": 0.569603279,
				"z": 0.9911999516,
				"element": "N" 
			},
			{
				"x": 3.0275902817,
				"y": 0.6979259824,
				"z": 1.7416016674,
				"element": "C" 
			},
			{
				"x": 1.9980026192,
				"y": -0.3847498708,
				"z": 1.3895330421,
				"element": "C" 
			},
			{
				"x": 1.6792470626,
				"y": -0.3217081516,
				"z": -0.0456549347,
				"element": "N" 
			},
			{
				"x": 2.7547054825,
				"y": 0.1874712777,
				"z": -0.9076157754,
				"element": "C" 
			},
			{
				"x": 4.1100432754,
				"y": -0.1280517973,
				"z": -0.2855867758,
				"element": "C" 
			},
			{
				"x": 0.3831194066,
				"y": -0.2348249481,
				"z": -0.5207251436,
				"element": "C" 
			},
			{
				"x": 0.2107200872,
				"y": 0.3332281412,
				"z": -1.6752454975,
				"element": "N" 
			},
			{
				"x": -1.0110534311,
				"y": 0.4839411919,
				"z": -2.3295883225,
				"element": "C" 
			},
			{
				"x": -2.2089869121,
				"y": 0.8727484457,
				"z": -1.6827636105,
				"element": "C" 
			},
			{
				"x": -2.2012092537,
				"y": 1.0348582347,
				"z": -0.177799944,
				"element": "C" 
			},
			{
				"x": -1.9354079477,
				"y": -0.3095143444,
				"z": 0.4608291992,
				"element": "C" 
			},
			{
				"x": -0.6772889008,
				"y": -0.9192155635,
				"z": 0.2791786748,
				"element": "C" 
			},
			{
				"x": -0.4539141504,
				"y": -2.2081587922,
				"z": 0.791297415,
				"element": "C" 
			},
			{
				"x": -1.451717279,
				"y": -2.8814799517,
				"z": 1.4906366405,
				"element": "C" 
			},
			{
				"x": -2.6906574228,
				"y": -2.2677512085,
				"z": 1.6899141103,
				"element": "C" 
			},
			{
				"x": -2.9269198765,
				"y": -0.9957997095,
				"z": 1.170910318,
				"element": "C" 
			},
			{
				"x": -3.3651165849,
				"y": 1.0812551981,
				"z": -2.4400645048,
				"element": "C" 
			},
			{
				"x": -3.3623325619,
				"y": 0.9197754617,
				"z": -3.8250910978,
				"element": "C" 
			},
			{
				"x": -2.1781597881,
				"y": 0.5494620515,
				"z": -4.4690240197,
				"element": "C" 
			},
			{
				"x": -1.0165240092,
				"y": 0.3488641843,
				"z": -3.7313170229,
				"element": "C" 
			},
			{
				"x": 5.5618056767,
				"y": 0.6110998673,
				"z": 2.6583936127,
				"element": "H" 
			},
			{
				"x": 5.2367356763,
				"y": -1.0406334982,
				"z": 2.0669697466,
				"element": "H" 
			},
			{
				"x": 6.3045117102,
				"y": 0.0477362331,
				"z": 1.1570899179,
				"element": "H" 
			},
			{
				"x": 2.5782455853,
				"y": 1.6813992533,
				"z": 1.545860174,
				"element": "H" 
			},
			{
				"x": 3.2399298991,
				"y": 0.6545754944,
				"z": 2.8149433406,
				"element": "H" 
			},
			{
				"x": 1.0875397236,
				"y": -0.234608615,
				"z": 1.9724962941,
				"element": "H" 
			},
			{
				"x": 2.3939170082,
				"y": -1.3739973488,
				"z": 1.6594353623,
				"element": "H" 
			},
			{
				"x": 2.663054409,
				"y": -0.2819027107,
				"z": -1.8900145502,
				"element": "H" 
			},
			{
				"x": 2.6495821109,
				"y": 1.2689991563,
				"z": -1.0697719692,
				"element": "H" 
			},
			{
				"x": 4.9039143024,
				"y": 0.1806922207,
				"z": -0.9771728829,
				"element": "H" 
			},
			{
				"x": 4.1992148941,
				"y": -1.2265719644,
				"z": -0.1717170018,
				"element": "H" 
			},
			{
				"x": -1.4177777242,
				"y": 1.7493000659,
				"z": 0.1125122964,
				"element": "H" 
			},
			{
				"x": -3.1574094404,
				"y": 1.4386735145,
				"z": 0.1675196878,
				"element": "H" 
			},
			{
				"x": 0.5066836411,
				"y": -2.6841443214,
				"z": 0.6204415735,
				"element": "H" 
			},
			{
				"x": -1.2656872084,
				"y": -3.8798762206,
				"z": 1.8753962492,
				"element": "H" 
			},
			{
				"x": -3.4728633774,
				"y": -2.7818877589,
				"z": 2.241209525,
				"element": "H" 
			},
			{
				"x": -3.8958116983,
				"y": -0.5241522698,
				"z": 1.3130188586,
				"element": "H" 
			},
			{
				"x": -4.2799033136,
				"y": 1.3779344434,
				"z": -1.9316296658,
				"element": "H" 
			},
			{
				"x": -4.2702905069,
				"y": 1.0903831721,
				"z": -4.3960521374,
				"element": "H" 
			},
			{
				"x": -2.1593035481,
				"y": 0.4258816478,
				"z": -5.548418614,
				"element": "H" 
			},
			{
				"x": -0.084903446,
				"y": 0.0760108714,
				"z": -4.2173169854,
				"element": "H" 
			}
		],
		 "valence_orbital": [ 
			{
				"type": "occ",
				"energy": -0.24793,
				"method": "rhf"
			},
			{
				"type": "occ",
				"energy": -0.22903,
				"method": "rhf"
			},
			{
				"type": "occ",
				"energy": -0.22809,
				"method": "rhf"
			},
			{
				"type": "occ",
				"energy": -0.20673,
				"method": "rhf"
			},
			{
				"type": "occ",
				"energy": -0.1899,
				"method": "rhf"
			},
			{
				"type": "unocc",
				"energy": -0.02956,
				"method": "rhf"
			},
			{
				"type": "unocc",
				"energy": -0.00581,
				"method": "rhf"
			},
			{
				"type": "unocc",
				"energy": 0.0113,
				"method": "rhf"
			},
			{
				"type": "unocc",
				"energy": 0.02089,
				"method": "rhf"
			},
			{
				"type": "unocc",
				"energy": 0.06255,
				"method": "rhf"
			}
		],
		"cosmo_sigma_profile": { 
			"-0.025": 0.0,
			"-0.024": 0.0,
			"-0.023": 0.0,
			"-0.022": 0.0,
			"-0.021": 0.0,
			"-0.02": 0.0,
			"-0.019": 0.0,
			"-0.018": 0.0,
			"-0.017": 0.0,
			"-0.016": 0.0,
			"-0.015": 0.0,
			"-0.014": 0.0,
			"-0.013": 0.0,
			"-0.012": 0.0,
			"-0.011": 0.0,
			"-0.01": 0.0,
			"-0.009": 0.0,
			"-0.008": 0.0,
			"-0.007": 0.0366346877133,
			"-0.006": 5.57608911763,
			"-0.005": 20.7541680785,
			"-0.004": 35.6622238022,
			"-0.003": 47.0375519699,
			"-0.002": 42.4003511964,
			"-0.001": 34.6811997153,
			"0.0": 27.7680831935,
			"0.001": 17.9666623364,
			"0.002": 16.7902657135,
			"0.003": 17.388909829,
			"0.004": 20.2723839452,
			"0.005": 18.4506975018,
			"0.006": 12.6767666987,
			"0.007": 9.35296768851,
			"0.008": 2.11405405662,
			"0.009": 1.9189848606,
			"0.01": 1.55688229093,
			"0.011": 1.53848620319,
			"0.012": 1.55783626893,
			"0.013": 0.729308814589,
			"0.014": 0.934614552067,
			"0.015": 0.49727768821,
			"0.016": 0.327481452728,
			"0.017": 0.150011028832,
			"0.018": 0.0,
			"0.019": 0.0,
			"0.02": 0.0,
			"0.021": 0.0,
			"0.022": 0.0,
			"0.023": 0.0,
			"0.024": 0.0,
			"0.025": 0.0
		}
	}
}
