{
	 "smiles": "OC(=O)C1C(N(CC2=CC=C(F)C=C2)C(=O)C2=C1C=CC=C2)C1=CN=CC=C1", 
	 "Tm": 523.15, 
	 "num_atms": 45, 
	 "gaussian": { 
		 "optdone": 1, 
		 "sigma_profile": "yes", 
		 "theory": "DFT", 
		 "functional": "B3LYP", 
		 "basiset": "6-31G**", 
		 "properties": { 
			 "R2extent": 10098.1503, 
			 "electric_dipole_moment_norm": 3.84530565365, 
			 "electric_quadrupole_moment_norm": 17.578577662, 
			 "total_energy": -1283.62707408, 
			 "HOMO_LUMO_gap": 0.18795, 
			 "cosmo_polarized_energy": -20.73, 
			 "cosmo_cavitation_energy": 49.25, 
			 "cosmo_dispersion_energy": -31.4, 
			 "cosmo_repulsion_energy": 2.35, 
			 "cosmo_total_nonelectrostatic_energy": 20.2, 
			 "SMD_solvation_energy": 8.61 
		},
		"coords": [
			{
				"x": -4.8125016951,
				"y": -1.3865996905,
				"z": 1.6724181745,
				"element": "O" 
			},
			{
				"x": -3.7583823173,
				"y": -0.559554394,
				"z": 1.8280291864,
				"element": "C" 
			},
			{
				"x": -3.5919570987,
				"y": 0.112193463,
				"z": 2.8222222738,
				"element": "O" 
			},
			{
				"x": -2.8589908385,
				"y": -0.5423458982,
				"z": 0.5848581647,
				"element": "C" 
			},
			{
				"x": -1.6032206924,
				"y": 0.316543045,
				"z": 0.8548382166,
				"element": "C" 
			},
			{
				"x": -0.6635981735,
				"y": -0.4186598211,
				"z": 1.7069359956,
				"element": "N" 
			},
			{
				"x": 0.0774720608,
				"y": 0.32256359,
				"z": 2.740945125,
				"element": "C" 
			},
			{
				"x": 1.3089593419,
				"y": 1.0564245315,
				"z": 2.2442816114,
				"element": "C" 
			},
			{
				"x": 2.4668179295,
				"y": 0.3400821928,
				"z": 1.9012766491,
				"element": "C" 
			},
			{
				"x": 3.6057487141,
				"y": 1.000140094,
				"z": 1.4445372437,
				"element": "C" 
			},
			{
				"x": 3.578583898,
				"y": 2.3876265537,
				"z": 1.3385182718,
				"element": "C" 
			},
			{
				"x": 4.6808621132,
				"y": 3.0316710927,
				"z": 0.8981852323,
				"element": "F" 
			},
			{
				"x": 2.4540213412,
				"y": 3.1290687667,
				"z": 1.6763694532,
				"element": "C" 
			},
			{
				"x": 1.3208096686,
				"y": 2.4508977953,
				"z": 2.1299029213,
				"element": "C" 
			},
			{
				"x": -0.4157909372,
				"y": -1.7622595575,
				"z": 1.560514652,
				"element": "C" 
			},
			{
				"x": 0.4745938827,
				"y": -2.3401259807,
				"z": 2.1872340842,
				"element": "O" 
			},
			{
				"x": -1.2964136068,
				"y": -2.5006399997,
				"z": 0.6008032131,
				"element": "C" 
			},
			{
				"x": -2.4825873965,
				"y": -1.9327624582,
				"z": 0.1122935759,
				"element": "C" 
			},
			{
				"x": -3.2785412031,
				"y": -2.662503876,
				"z": -0.7738221438,
				"element": "C" 
			},
			{
				"x": -2.8978113384,
				"y": -3.945511374,
				"z": -1.1668930668,
				"element": "C" 
			},
			{
				"x": -1.7201289293,
				"y": -4.5135945757,
				"z": -0.6715388088,
				"element": "C" 
			},
			{
				"x": -0.9227618207,
				"y": -3.7925404658,
				"z": 0.2125604278,
				"element": "C" 
			},
			{
				"x": -1.0016100963,
				"y": 0.8554098464,
				"z": -0.4420872567,
				"element": "C" 
			},
			{
				"x": -1.5752889437,
				"y": 1.9909100738,
				"z": -1.0308279626,
				"element": "C" 
			},
			{
				"x": -1.1704141222,
				"y": 2.5383509454,
				"z": -2.1803180545,
				"element": "N" 
			},
			{
				"x": -0.1371754417,
				"y": 1.9558370533,
				"z": -2.8022807664,
				"element": "C" 
			},
			{
				"x": 0.5204417076,
				"y": 0.8315612967,
				"z": -2.303783582,
				"element": "C" 
			},
			{
				"x": 0.0810391806,
				"y": 0.273069934,
				"z": -1.1045290706,
				"element": "C" 
			},
			{
				"x": -5.3374368277,
				"y": -1.320157102,
				"z": 2.4882214902,
				"element": "H" 
			},
			{
				"x": -3.4519402009,
				"y": -0.0529466473,
				"z": -0.1979258297,
				"element": "H" 
			},
			{
				"x": -1.9401177357,
				"y": 1.1724241292,
				"z": 1.4461456188,
				"element": "H" 
			},
			{
				"x": 0.3635773377,
				"y": -0.4156935909,
				"z": 3.4924179487,
				"element": "H" 
			},
			{
				"x": -0.6246961469,
				"y": 1.0251446708,
				"z": 3.2004742374,
				"element": "H" 
			},
			{
				"x": 2.4636992212,
				"y": -0.7415165558,
				"z": 1.9986984544,
				"element": "H" 
			},
			{
				"x": 4.5092554563,
				"y": 0.4612716427,
				"z": 1.1794298432,
				"element": "H" 
			},
			{
				"x": 2.4744749998,
				"y": 4.2094738444,
				"z": 1.5833707618,
				"element": "H" 
			},
			{
				"x": 0.4358400255,
				"y": 3.0212073923,
				"z": 2.4010724875,
				"element": "H" 
			},
			{
				"x": -4.1997698431,
				"y": -2.2278626877,
				"z": -1.1505838352,
				"element": "H" 
			},
			{
				"x": -3.5210210789,
				"y": -4.5025221298,
				"z": -1.8604920807,
				"element": "H" 
			},
			{
				"x": -1.427558431,
				"y": -5.5139380037,
				"z": -0.9762129866,
				"element": "H" 
			},
			{
				"x": -0.0068133641,
				"y": -4.204534719,
				"z": 0.6221414528,
				"element": "H" 
			},
			{
				"x": -2.4095600118,
				"y": 2.4913791017,
				"z": -0.5362089912,
				"element": "H" 
			},
			{
				"x": 0.1822966466,
				"y": 2.414449468,
				"z": -3.7362681471,
				"element": "H" 
			},
			{
				"x": 1.3622971737,
				"y": 0.4055558242,
				"z": -2.8404490652,
				"element": "H" 
			},
			{
				"x": 0.5856975927,
				"y": -0.5905868199,
				"z": -0.6856751193,
				"element": "H" 
			}
		],
		 "valence_orbital": [ 
			{
				"type": "occ",
				"energy": -0.25775,
				"method": "rhf"
			},
			{
				"type": "occ",
				"energy": -0.25651,
				"method": "rhf"
			},
			{
				"type": "occ",
				"energy": -0.25512,
				"method": "rhf"
			},
			{
				"type": "occ",
				"energy": -0.24484,
				"method": "rhf"
			},
			{
				"type": "occ",
				"energy": -0.23514,
				"method": "rhf"
			},
			{
				"type": "unocc",
				"energy": -0.04719,
				"method": "rhf"
			},
			{
				"type": "unocc",
				"energy": -0.03197,
				"method": "rhf"
			},
			{
				"type": "unocc",
				"energy": -0.02304,
				"method": "rhf"
			},
			{
				"type": "unocc",
				"energy": -0.01647,
				"method": "rhf"
			},
			{
				"type": "unocc",
				"energy": -0.00841,
				"method": "rhf"
			}
		],
		"cosmo_sigma_profile": { 
			"-0.025": 0.0,
			"-0.024": 0.0,
			"-0.023": 0.0,
			"-0.022": 0.0,
			"-0.021": 0.0,
			"-0.02": 0.0,
			"-0.019": 0.230052255431,
			"-0.018": 1.12594424411,
			"-0.017": 1.07305938811,
			"-0.016": 0.743904905672,
			"-0.015": 0.806176935476,
			"-0.014": 0.414226876014,
			"-0.013": 0.336846646405,
			"-0.012": 1.12160918707,
			"-0.011": 0.975443684639,
			"-0.01": 0.602240008594,
			"-0.009": 1.60533952084,
			"-0.008": 6.32736212571,
			"-0.007": 16.1411244913,
			"-0.006": 24.7638889227,
			"-0.005": 28.2698027053,
			"-0.004": 29.659326812,
			"-0.003": 22.9183590785,
			"-0.002": 21.5407465917,
			"-0.001": 22.0157858971,
			"0.0": 25.1430041567,
			"0.001": 29.0914023218,
			"0.002": 32.8478218414,
			"0.003": 32.8544539957,
			"0.004": 35.7697591418,
			"0.005": 13.5497717501,
			"0.006": 5.89358206011,
			"0.007": 6.67859837314,
			"0.008": 5.45422538928,
			"0.009": 5.06050244818,
			"0.01": 4.16630339923,
			"0.011": 5.3565250119,
			"0.012": 3.6430350347,
			"0.013": 4.1348063816,
			"0.014": 1.73549234266,
			"0.015": 0.730977752689,
			"0.016": 0.997211676995,
			"0.017": 0.228477102209,
			"0.018": 0.0,
			"0.019": 0.0,
			"0.02": 0.0,
			"0.021": 0.0,
			"0.022": 0.0,
			"0.023": 0.0,
			"0.024": 0.0,
			"0.025": 0.0
		}
	}
}
