{
	 "smiles": "CC(OC1=C(C)C(C)=CC=C1)C(=O)NN", 
	 "Tm": 415.15, 
	 "num_atms": 31, 
	 "gaussian": { 
		 "optdone": 1, 
		 "sigma_profile": "yes", 
		 "theory": "DFT", 
		 "functional": "B3LYP", 
		 "basiset": "6-31G**", 
		 "properties": { 
			 "R2extent": 3634.7602, 
			 "electric_dipole_moment_norm": 2.65179651746, 
			 "electric_quadrupole_moment_norm": 5.32878735924, 
			 "total_energy": -688.742784568, 
			 "HOMO_LUMO_gap": 0.22743, 
			 "cosmo_polarized_energy": -12.49, 
			 "cosmo_cavitation_energy": 32.62, 
			 "cosmo_dispersion_energy": -22.57, 
			 "cosmo_repulsion_energy": 1.76, 
			 "cosmo_total_nonelectrostatic_energy": 11.81, 
			 "SMD_solvation_energy": 6.48 
		},
		"coords": [
			{
				"x": -1.3406089881,
				"y": 1.9765458729,
				"z": 1.6004077609,
				"element": "C" 
			},
			{
				"x": -0.2023237062,
				"y": 1.5016797444,
				"z": 0.6967908498,
				"element": "C" 
			},
			{
				"x": -0.6049917458,
				"y": 1.1758474342,
				"z": -0.6538742678,
				"element": "O" 
			},
			{
				"x": -1.5436548026,
				"y": 0.1874469517,
				"z": -0.9049501079,
				"element": "C" 
			},
			{
				"x": -1.1101086933,
				"y": -1.0565835634,
				"z": -1.4059997212,
				"element": "C" 
			},
			{
				"x": 0.358704838,
				"y": -1.3408057999,
				"z": -1.6096267504,
				"element": "C" 
			},
			{
				"x": -2.0831075487,
				"y": -2.0296771665,
				"z": -1.7288916315,
				"element": "C" 
			},
			{
				"x": -1.6624932914,
				"y": -3.3806159367,
				"z": -2.2581398625,
				"element": "C" 
			},
			{
				"x": -3.4406414092,
				"y": -1.736987969,
				"z": -1.5607360089,
				"element": "C" 
			},
			{
				"x": -3.8545836434,
				"y": -0.4898006005,
				"z": -1.0937473944,
				"element": "C" 
			},
			{
				"x": -2.907804202,
				"y": 0.4776852344,
				"z": -0.7717209339,
				"element": "C" 
			},
			{
				"x": 0.6423819968,
				"y": 0.38929481,
				"z": 1.3483303066,
				"element": "C" 
			},
			{
				"x": 1.8411686988,
				"y": 0.5356778412,
				"z": 1.5627423066,
				"element": "O" 
			},
			{
				"x": -0.0208092523,
				"y": -0.7588227971,
				"z": 1.695129045,
				"element": "N" 
			},
			{
				"x": 0.7301023797,
				"y": -1.9032565872,
				"z": 2.0686055592,
				"element": "N" 
			},
			{
				"x": -2.0751460688,
				"y": 1.1919349675,
				"z": 1.7960707753,
				"element": "H" 
			},
			{
				"x": -1.8510088486,
				"y": 2.8307579066,
				"z": 1.1465555723,
				"element": "H" 
			},
			{
				"x": -0.9258068051,
				"y": 2.2957884476,
				"z": 2.5619072429,
				"element": "H" 
			},
			{
				"x": 0.5065693401,
				"y": 2.3179082317,
				"z": 0.5473472579,
				"element": "H" 
			},
			{
				"x": 0.5534502249,
				"y": -1.6797225305,
				"z": -2.6332560513,
				"element": "H" 
			},
			{
				"x": 0.95901141,
				"y": -0.4492033949,
				"z": -1.4295511603,
				"element": "H" 
			},
			{
				"x": 0.7087503527,
				"y": -2.1347786588,
				"z": -0.9385764484,
				"element": "H" 
			},
			{
				"x": -1.1255925684,
				"y": -3.2921764334,
				"z": -3.2104334643,
				"element": "H" 
			},
			{
				"x": -2.5300889033,
				"y": -4.0243570198,
				"z": -2.4237750008,
				"element": "H" 
			},
			{
				"x": -0.9885506612,
				"y": -3.895852616,
				"z": -1.5638280642,
				"element": "H" 
			},
			{
				"x": -4.180281818,
				"y": -2.4925705322,
				"z": -1.8116869745,
				"element": "H" 
			},
			{
				"x": -4.9128804583,
				"y": -0.2686529019,
				"z": -0.9900611611,
				"element": "H" 
			},
			{
				"x": -3.2088616286,
				"y": 1.4645779477,
				"z": -0.4399622309,
				"element": "H" 
			},
			{
				"x": -0.8842253985,
				"y": -0.982717557,
				"z": 1.2159860994,
				"element": "H" 
			},
			{
				"x": 0.7795409182,
				"y": -1.9106444379,
				"z": 3.0874065576,
				"element": "H" 
			},
			{
				"x": 1.6851902827,
				"y": -1.7143188874,
				"z": 1.7571379007,
				"element": "H" 
			}
		],
		 "valence_orbital": [ 
			{
				"type": "occ",
				"energy": -0.29355,
				"method": "rhf"
			},
			{
				"type": "occ",
				"energy": -0.25273,
				"method": "rhf"
			},
			{
				"type": "occ",
				"energy": -0.24834,
				"method": "rhf"
			},
			{
				"type": "occ",
				"energy": -0.23953,
				"method": "rhf"
			},
			{
				"type": "occ",
				"energy": -0.23313,
				"method": "rhf"
			},
			{
				"type": "unocc",
				"energy": -0.0057,
				"method": "rhf"
			},
			{
				"type": "unocc",
				"energy": -0.00406,
				"method": "rhf"
			},
			{
				"type": "unocc",
				"energy": 0.01608,
				"method": "rhf"
			},
			{
				"type": "unocc",
				"energy": 0.07966,
				"method": "rhf"
			},
			{
				"type": "unocc",
				"energy": 0.08462,
				"method": "rhf"
			}
		],
		"cosmo_sigma_profile": { 
			"-0.025": 0.0,
			"-0.024": 0.0,
			"-0.023": 0.0,
			"-0.022": 0.0,
			"-0.021": 0.0,
			"-0.02": 0.0,
			"-0.019": 0.0,
			"-0.018": 0.0,
			"-0.017": 0.0,
			"-0.016": 0.0,
			"-0.015": 0.0,
			"-0.014": 0.0,
			"-0.013": 0.0,
			"-0.012": 0.650080787578,
			"-0.011": 1.78522825042,
			"-0.01": 2.16230521815,
			"-0.009": 3.11492002679,
			"-0.008": 3.69713247687,
			"-0.007": 2.62909387317,
			"-0.006": 6.70868830478,
			"-0.005": 16.7462638269,
			"-0.004": 24.1768928671,
			"-0.003": 25.7814875778,
			"-0.002": 24.9853002349,
			"-0.001": 23.4365233318,
			"0.0": 26.6931396836,
			"0.001": 17.0254707236,
			"0.002": 10.9096998494,
			"0.003": 10.539086788,
			"0.004": 11.3603847032,
			"0.005": 10.6141043834,
			"0.006": 6.10139051245,
			"0.007": 3.30787717474,
			"0.008": 2.68035327763,
			"0.009": 2.71153452233,
			"0.01": 2.36410837671,
			"0.011": 4.16209347336,
			"0.012": 2.95416812309,
			"0.013": 5.19348184015,
			"0.014": 1.86189112306,
			"0.015": 0.615827925347,
			"0.016": 0.635775011043,
			"0.017": 0.0503452575562,
			"0.018": 0.0,
			"0.019": 0.0,
			"0.02": 0.0,
			"0.021": 0.0,
			"0.022": 0.0,
			"0.023": 0.0,
			"0.024": 0.0,
			"0.025": 0.0
		}
	}
}
