{
	 "smiles": "CC(C)C1CCC(C)CC1OC(=O)C(CC1=CC=CC=C1)C(C)=O", 
	 "Tm": 341.15, 
	 "num_atms": 54, 
	 "gaussian": { 
		 "optdone": 1, 
		 "sigma_profile": "yes", 
		 "theory": "DFT", 
		 "functional": "B3LYP", 
		 "basiset": "6-31G**", 
		 "properties": { 
			 "R2extent": 9665.2647, 
			 "electric_dipole_moment_norm": 3.50124102284, 
			 "electric_quadrupole_moment_norm": 10.6801054569, 
			 "total_energy": -1044.02851734, 
			 "HOMO_LUMO_gap": 0.21534, 
			 "cosmo_polarized_energy": -13.91, 
			 "cosmo_cavitation_energy": 52.99, 
			 "cosmo_dispersion_energy": -32.55, 
			 "cosmo_repulsion_energy": 2.46, 
			 "cosmo_total_nonelectrostatic_energy": 22.9, 
			 "SMD_solvation_energy": 9.34 
		},
		"coords": [
			{
				"x": 1.4097709777,
				"y": -3.0588019576,
				"z": -0.7942787028,
				"element": "C" 
			},
			{
				"x": 0.8629206035,
				"y": -2.0619416733,
				"z": -1.8298693025,
				"element": "C" 
			},
			{
				"x": 1.7204935891,
				"y": -0.7870023186,
				"z": -1.869099018,
				"element": "C" 
			},
			{
				"x": -0.6614468201,
				"y": -1.7725337974,
				"z": -1.6830228008,
				"element": "C" 
			},
			{
				"x": -1.492712423,
				"y": -2.9150457621,
				"z": -2.3168670829,
				"element": "C" 
			},
			{
				"x": -3.0058201484,
				"y": -2.6603623319,
				"z": -2.2763184199,
				"element": "C" 
			},
			{
				"x": -3.5212044,
				"y": -2.3958330861,
				"z": -0.8485010185,
				"element": "C" 
			},
			{
				"x": -3.5631154592,
				"y": -3.6674333256,
				"z": 0.0158491715,
				"element": "C" 
			},
			{
				"x": -2.6835223975,
				"y": -1.2693184228,
				"z": -0.2107701384,
				"element": "C" 
			},
			{
				"x": -1.1730616139,
				"y": -1.5397244774,
				"z": -0.2530229459,
				"element": "C" 
			},
			{
				"x": -0.4978994676,
				"y": -0.3662913006,
				"z": 0.3106254226,
				"element": "O" 
			},
			{
				"x": -0.4581861325,
				"y": -0.2806089089,
				"z": 1.6631217092,
				"element": "C" 
			},
			{
				"x": -0.8216504768,
				"y": -1.1592877802,
				"z": 2.4112990248,
				"element": "O" 
			},
			{
				"x": 0.0832165178,
				"y": 1.0705030168,
				"z": 2.1387988667,
				"element": "C" 
			},
			{
				"x": 1.6267757291,
				"y": 1.1769127753,
				"z": 2.0074878591,
				"element": "C" 
			},
			{
				"x": 2.3844992608,
				"y": 0.1725715465,
				"z": 2.853430923,
				"element": "C" 
			},
			{
				"x": 2.3700107568,
				"y": 0.2623427673,
				"z": 4.2528196132,
				"element": "C" 
			},
			{
				"x": 3.0667891331,
				"y": -0.6569829181,
				"z": 5.0351736913,
				"element": "C" 
			},
			{
				"x": 3.7958674396,
				"y": -1.6837197123,
				"z": 4.429997932,
				"element": "C" 
			},
			{
				"x": 3.8236262756,
				"y": -1.7800641092,
				"z": 3.0391581209,
				"element": "C" 
			},
			{
				"x": 3.1233382339,
				"y": -0.8570581383,
				"z": 2.2586808055,
				"element": "C" 
			},
			{
				"x": -0.6845912836,
				"y": 2.225549738,
				"z": 1.4561550949,
				"element": "C" 
			},
			{
				"x": -0.1634263394,
				"y": 2.7897470374,
				"z": 0.1497182869,
				"element": "C" 
			},
			{
				"x": -1.6917092486,
				"y": 2.6565089509,
				"z": 1.9827980955,
				"element": "O" 
			},
			{
				"x": 0.8222650109,
				"y": -3.9822897449,
				"z": -0.7588492612,
				"element": "H" 
			},
			{
				"x": 2.4387919946,
				"y": -3.3384520137,
				"z": -1.0449446636,
				"element": "H" 
			},
			{
				"x": 1.4236112355,
				"y": -2.6326421362,
				"z": 0.2143127935,
				"element": "H" 
			},
			{
				"x": 0.970732581,
				"y": -2.5356830293,
				"z": -2.8164996385,
				"element": "H" 
			},
			{
				"x": 1.6919681976,
				"y": -0.2584143488,
				"z": -0.9135105258,
				"element": "H" 
			},
			{
				"x": 1.3690223214,
				"y": -0.0958352618,
				"z": -2.6435836805,
				"element": "H" 
			},
			{
				"x": 2.76540482,
				"y": -1.0306903496,
				"z": -2.0926249075,
				"element": "H" 
			},
			{
				"x": -0.8793198382,
				"y": -0.8575488433,
				"z": -2.2550066335,
				"element": "H" 
			},
			{
				"x": -1.2607234519,
				"y": -3.8602422589,
				"z": -1.8091740378,
				"element": "H" 
			},
			{
				"x": -1.1700292157,
				"y": -3.0443739141,
				"z": -3.3566365443,
				"element": "H" 
			},
			{
				"x": -3.5396188293,
				"y": -3.5094703906,
				"z": -2.7208324094,
				"element": "H" 
			},
			{
				"x": -3.2338391155,
				"y": -1.7868648261,
				"z": -2.9025685229,
				"element": "H" 
			},
			{
				"x": -4.552506083,
				"y": -2.026407433,
				"z": -0.9249999443,
				"element": "H" 
			},
			{
				"x": -3.9507005976,
				"y": -3.446070675,
				"z": 1.0156509377,
				"element": "H" 
			},
			{
				"x": -2.5762627707,
				"y": -4.1232609757,
				"z": 0.1447025298,
				"element": "H" 
			},
			{
				"x": -4.2156491746,
				"y": -4.4215491444,
				"z": -0.4377826688,
				"element": "H" 
			},
			{
				"x": -2.8696011165,
				"y": -0.3300970185,
				"z": -0.7478675365,
				"element": "H" 
			},
			{
				"x": -2.98539388,
				"y": -1.113560571,
				"z": 0.8296602916,
				"element": "H" 
			},
			{
				"x": -0.9257501127,
				"y": -2.3882062078,
				"z": 0.3885646333,
				"element": "H" 
			},
			{
				"x": -0.1931377356,
				"y": 1.1176000406,
				"z": 3.1942768816,
				"element": "H" 
			},
			{
				"x": 1.918851361,
				"y": 1.0709144015,
				"z": 0.958683152,
				"element": "H" 
			},
			{
				"x": 1.9116801741,
				"y": 2.1922043168,
				"z": 2.3115034983,
				"element": "H" 
			},
			{
				"x": 1.8097341923,
				"y": 1.0602305369,
				"z": 4.7347811251,
				"element": "H" 
			},
			{
				"x": 3.0433314366,
				"y": -0.5707923026,
				"z": 6.1178148852,
				"element": "H" 
			},
			{
				"x": 4.3394821411,
				"y": -2.3999665122,
				"z": 5.0392200967,
				"element": "H" 
			},
			{
				"x": 4.3915908782,
				"y": -2.5713410806,
				"z": 2.5580052283,
				"element": "H" 
			},
			{
				"x": 3.1585046059,
				"y": -0.9333941672,
				"z": 1.1751223061,
				"element": "H" 
			},
			{
				"x": -0.0117206053,
				"y": 1.9880800839,
				"z": -0.5780613185,
				"element": "H" 
			},
			{
				"x": -0.8786046051,
				"y": 3.5193441108,
				"z": -0.2323655783,
				"element": "H" 
			},
			{
				"x": 0.8041238751,
				"y": 3.2814539032,
				"z": 0.3026443244,
				"element": "H" 
			}
		],
		 "valence_orbital": [ 
			{
				"type": "occ",
				"energy": -0.2848,
				"method": "rhf"
			},
			{
				"type": "occ",
				"energy": -0.27527,
				"method": "rhf"
			},
			{
				"type": "occ",
				"energy": -0.25019,
				"method": "rhf"
			},
			{
				"type": "occ",
				"energy": -0.24737,
				"method": "rhf"
			},
			{
				"type": "occ",
				"energy": -0.23972,
				"method": "rhf"
			},
			{
				"type": "unocc",
				"energy": -0.02438,
				"method": "rhf"
			},
			{
				"type": "unocc",
				"energy": -0.00505,
				"method": "rhf"
			},
			{
				"type": "unocc",
				"energy": -0.00098,
				"method": "rhf"
			},
			{
				"type": "unocc",
				"energy": 0.01358,
				"method": "rhf"
			},
			{
				"type": "unocc",
				"energy": 0.06512,
				"method": "rhf"
			}
		],
		"cosmo_sigma_profile": { 
			"-0.025": 0.0,
			"-0.024": 0.0,
			"-0.023": 0.0,
			"-0.022": 0.0,
			"-0.021": 0.0,
			"-0.02": 0.0,
			"-0.019": 0.0,
			"-0.018": 0.0,
			"-0.017": 0.0,
			"-0.016": 0.0,
			"-0.015": 0.0,
			"-0.014": 0.0,
			"-0.013": 0.0,
			"-0.012": 0.0,
			"-0.011": 0.0,
			"-0.01": 0.0,
			"-0.009": 0.0,
			"-0.008": 0.531084787313,
			"-0.007": 3.06557981619,
			"-0.006": 11.2200269797,
			"-0.005": 17.7105677904,
			"-0.004": 22.4667496484,
			"-0.003": 39.888095778,
			"-0.002": 65.8651476992,
			"-0.001": 64.521489144,
			"0.0": 53.5993466408,
			"0.001": 38.2452765223,
			"0.002": 21.5555523711,
			"0.003": 10.7040931244,
			"0.004": 10.3414639302,
			"0.005": 10.6925530639,
			"0.006": 11.5310896193,
			"0.007": 4.60133883725,
			"0.008": 2.47414507092,
			"0.009": 3.51901514108,
			"0.01": 4.41160106178,
			"0.011": 7.48508923626,
			"0.012": 6.61232479319,
			"0.013": 1.19693761128,
			"0.014": 0.0,
			"0.015": 0.0,
			"0.016": 0.0,
			"0.017": 0.0,
			"0.018": 0.0,
			"0.019": 0.0,
			"0.02": 0.0,
			"0.021": 0.0,
			"0.022": 0.0,
			"0.023": 0.0,
			"0.024": 0.0,
			"0.025": 0.0
		}
	}
}
