{
	 "smiles": "COC1=C(Cl)C=CC(Cl)=C1Cl", 
	 "Tm": 318.15, 
	 "num_atms": 16, 
	 "gaussian": { 
		 "optdone": 1, 
		 "sigma_profile": "yes", 
		 "theory": "DFT", 
		 "functional": "B3LYP", 
		 "basiset": "6-31G**", 
		 "properties": { 
			 "R2extent": 3235.1487, 
			 "electric_dipole_moment_norm": 1.90026290286, 
			 "electric_quadrupole_moment_norm": 10.5693190561, 
			 "total_energy": -1725.53295811, 
			 "HOMO_LUMO_gap": 0.21618, 
			 "cosmo_polarized_energy": -5.61, 
			 "cosmo_cavitation_energy": 25.35, 
			 "cosmo_dispersion_energy": -18.92, 
			 "cosmo_repulsion_energy": 1.52, 
			 "cosmo_total_nonelectrostatic_energy": 7.95, 
			 "SMD_solvation_energy": 4.43 
		},
		"coords": [
			{
				"x": -1.4668515039,
				"y": -0.5633420303,
				"z": -1.4825375815,
				"element": "C" 
			},
			{
				"x": -0.9382028532,
				"y": 0.7368014311,
				"z": -1.1762231264,
				"element": "O" 
			},
			{
				"x": 0.3764639431,
				"y": 0.7696793733,
				"z": -0.8305481258,
				"element": "C" 
			},
			{
				"x": 1.3740532467,
				"y": 0.9601251786,
				"z": -1.7991997388,
				"element": "C" 
			},
			{
				"x": 0.9173305529,
				"y": 1.0901821883,
				"z": -3.4822942472,
				"element": "Cl" 
			},
			{
				"x": 2.7164559958,
				"y": 1.0619472749,
				"z": -1.4410164765,
				"element": "C" 
			},
			{
				"x": 3.0838747312,
				"y": 0.9705201908,
				"z": -0.1026209692,
				"element": "C" 
			},
			{
				"x": 2.1117044126,
				"y": 0.7824598369,
				"z": 0.8806661453,
				"element": "C" 
			},
			{
				"x": 2.6155385522,
				"y": 0.6804597786,
				"z": 2.5489185489,
				"element": "Cl" 
			},
			{
				"x": 0.7605051964,
				"y": 0.6795109895,
				"z": 0.5227053816,
				"element": "C" 
			},
			{
				"x": -0.4808322951,
				"y": 0.4587455129,
				"z": 1.7220608687,
				"element": "Cl" 
			},
			{
				"x": -2.5154386325,
				"y": -0.4060915692,
				"z": -1.7379311088,
				"element": "H" 
			},
			{
				"x": -1.3973396256,
				"y": -1.2285226961,
				"z": -0.6153446176,
				"element": "H" 
			},
			{
				"x": -0.9446450145,
				"y": -1.0069771274,
				"z": -2.3367887761,
				"element": "H" 
			},
			{
				"x": 3.467231851,
				"y": 1.2133314222,
				"z": -2.2079583268,
				"element": "H" 
			},
			{
				"x": 4.1248514427,
				"y": 1.0497702461,
				"z": 0.1881121501,
				"element": "H" 
			}
		],
		 "valence_orbital": [ 
			{
				"type": "occ",
				"energy": -0.3214,
				"method": "rhf"
			},
			{
				"type": "occ",
				"energy": -0.31535,
				"method": "rhf"
			},
			{
				"type": "occ",
				"energy": -0.29374,
				"method": "rhf"
			},
			{
				"type": "occ",
				"energy": -0.26113,
				"method": "rhf"
			},
			{
				"type": "occ",
				"energy": -0.25097,
				"method": "rhf"
			},
			{
				"type": "unocc",
				"energy": -0.03479,
				"method": "rhf"
			},
			{
				"type": "unocc",
				"energy": -0.0309,
				"method": "rhf"
			},
			{
				"type": "unocc",
				"energy": -0.01275,
				"method": "rhf"
			},
			{
				"type": "unocc",
				"energy": 0.02949,
				"method": "rhf"
			},
			{
				"type": "unocc",
				"energy": 0.06018,
				"method": "rhf"
			}
		],
		"cosmo_sigma_profile": { 
			"-0.025": 0.0,
			"-0.024": 0.0,
			"-0.023": 0.0,
			"-0.022": 0.0,
			"-0.021": 0.0,
			"-0.02": 0.0,
			"-0.019": 0.0,
			"-0.018": 0.0,
			"-0.017": 0.0,
			"-0.016": 0.0,
			"-0.015": 0.0,
			"-0.014": 0.0,
			"-0.013": 0.0,
			"-0.012": 0.0,
			"-0.011": 0.0,
			"-0.01": 0.0,
			"-0.009": 1.11146226987,
			"-0.008": 3.88399576459,
			"-0.007": 4.65345963008,
			"-0.006": 5.69062644216,
			"-0.005": 8.8578550507,
			"-0.004": 14.219909862,
			"-0.003": 16.9082139244,
			"-0.002": 12.400004989,
			"-0.001": 19.9269694192,
			"0.0": 25.5664611087,
			"0.001": 22.3507116793,
			"0.002": 19.0263986361,
			"0.003": 19.5665867702,
			"0.004": 20.1332706168,
			"0.005": 6.29625708132,
			"0.006": 2.39263420354,
			"0.007": 2.17475963308,
			"0.008": 1.10419746258,
			"0.009": 2.02273415031,
			"0.01": 1.41121907643,
			"0.011": 0.256153329774,
			"0.012": 0.0,
			"0.013": 0.0,
			"0.014": 0.0,
			"0.015": 0.0,
			"0.016": 0.0,
			"0.017": 0.0,
			"0.018": 0.0,
			"0.019": 0.0,
			"0.02": 0.0,
			"0.021": 0.0,
			"0.022": 0.0,
			"0.023": 0.0,
			"0.024": 0.0,
			"0.025": 0.0
		}
	}
}
