{
	 "smiles": "CCCCC1=CC=C(C=C1)C#CC1=CC=C(OCC)C=C1", 
	 "Tm": 327.15, 
	 "num_atms": 43, 
	 "gaussian": { 
		 "optdone": 1, 
		 "sigma_profile": "yes", 
		 "theory": "DFT", 
		 "functional": "B3LYP", 
		 "basiset": "6-31G**", 
		 "properties": { 
			 "R2extent": 14671.1761, 
			 "electric_dipole_moment_norm": 1.52935558324, 
			 "electric_quadrupole_moment_norm": 20.509355071, 
			 "total_energy": -850.572715677, 
			 "HOMO_LUMO_gap": 0.1557, 
			 "cosmo_polarized_energy": -8.81, 
			 "cosmo_cavitation_energy": 46.82, 
			 "cosmo_dispersion_energy": -32.72, 
			 "cosmo_repulsion_energy": 2.56, 
			 "cosmo_total_nonelectrostatic_energy": 16.66, 
			 "SMD_solvation_energy": 7.93 
		},
		"coords": [
			{
				"x": -4.0795838057,
				"y": -0.0457770863,
				"z": -4.5517642394,
				"element": "C" 
			},
			{
				"x": -5.5183124913,
				"y": -0.5751739457,
				"z": -4.4987330182,
				"element": "C" 
			},
			{
				"x": -5.7598462718,
				"y": -1.7696131403,
				"z": -3.5578717964,
				"element": "C" 
			},
			{
				"x": -5.7983090053,
				"y": -1.4558759604,
				"z": -2.0437309344,
				"element": "C" 
			},
			{
				"x": -4.4722360796,
				"y": -1.1381581964,
				"z": -1.3825982251,
				"element": "C" 
			},
			{
				"x": -4.2315728544,
				"y": 0.1102158847,
				"z": -0.7919298777,
				"element": "C" 
			},
			{
				"x": -3.0199011161,
				"y": 0.398876918,
				"z": -0.1701087795,
				"element": "C" 
			},
			{
				"x": -1.9961242287,
				"y": -0.5668252458,
				"z": -0.113827734,
				"element": "C" 
			},
			{
				"x": -2.2373315301,
				"y": -1.8274654977,
				"z": -0.6988516932,
				"element": "C" 
			},
			{
				"x": -3.4521504783,
				"y": -2.100715972,
				"z": -1.3161391036,
				"element": "C" 
			},
			{
				"x": -0.7534040894,
				"y": -0.281234468,
				"z": 0.519872842,
				"element": "C" 
			},
			{
				"x": 0.3093224383,
				"y": -0.0371995318,
				"z": 1.0606980474,
				"element": "C" 
			},
			{
				"x": 1.5531221979,
				"y": 0.245418439,
				"z": 1.6920516956,
				"element": "C" 
			},
			{
				"x": 2.5750691453,
				"y": -0.7278922809,
				"z": 1.7548094575,
				"element": "C" 
			},
			{
				"x": 3.7848494593,
				"y": -0.4516827807,
				"z": 2.370477387,
				"element": "C" 
			},
			{
				"x": 4.0212189192,
				"y": 0.8077994791,
				"z": 2.9466228503,
				"element": "C" 
			},
			{
				"x": 5.2534200368,
				"y": 0.9704679426,
				"z": 3.5067780231,
				"element": "O" 
			},
			{
				"x": 5.5915544521,
				"y": 2.2017244172,
				"z": 4.1516569269,
				"element": "C" 
			},
			{
				"x": 5.0412323846,
				"y": 2.2890948554,
				"z": 5.5715125272,
				"element": "C" 
			},
			{
				"x": 3.0169964329,
				"y": 1.7851544971,
				"z": 2.8964436111,
				"element": "C" 
			},
			{
				"x": 1.8029256106,
				"y": 1.5009730182,
				"z": 2.2745561943,
				"element": "C" 
			},
			{
				"x": -3.7538693431,
				"y": 0.363066648,
				"z": -3.5924797969,
				"element": "H" 
			},
			{
				"x": -3.378376633,
				"y": -0.8428830818,
				"z": -4.8243974423,
				"element": "H" 
			},
			{
				"x": -3.987356231,
				"y": 0.7468686702,
				"z": -5.3023167365,
				"element": "H" 
			},
			{
				"x": -5.8134405237,
				"y": -0.8808281698,
				"z": -5.5111057637,
				"element": "H" 
			},
			{
				"x": -6.201990866,
				"y": 0.2402138769,
				"z": -4.2233028053,
				"element": "H" 
			},
			{
				"x": -6.7280545338,
				"y": -2.2169510486,
				"z": -3.817036197,
				"element": "H" 
			},
			{
				"x": -5.0080496922,
				"y": -2.5463691753,
				"z": -3.752751094,
				"element": "H" 
			},
			{
				"x": -6.2350663534,
				"y": -2.3266962021,
				"z": -1.5358575159,
				"element": "H" 
			},
			{
				"x": -6.4950398623,
				"y": -0.6259141766,
				"z": -1.8720980505,
				"element": "H" 
			},
			{
				"x": -5.0082487944,
				"y": 0.8706636669,
				"z": -0.8209271041,
				"element": "H" 
			},
			{
				"x": -2.8540284618,
				"y": 1.372860765,
				"z": 0.2793074652,
				"element": "H" 
			},
			{
				"x": -1.4615967222,
				"y": -2.5855767484,
				"z": -0.6574858828,
				"element": "H" 
			},
			{
				"x": -3.6142852469,
				"y": -3.0834181696,
				"z": -1.7525813205,
				"element": "H" 
			},
			{
				"x": 2.4038201536,
				"y": -1.7036068154,
				"z": 1.3116086524,
				"element": "H" 
			},
			{
				"x": 4.5733986996,
				"y": -1.1955013618,
				"z": 2.4181972163,
				"element": "H" 
			},
			{
				"x": 6.6850397958,
				"y": 2.2070280377,
				"z": 4.1682918911,
				"element": "H" 
			},
			{
				"x": 5.2696301147,
				"y": 3.0533000267,
				"z": 3.5391139512,
				"element": "H" 
			},
			{
				"x": 5.3968331182,
				"y": 1.4438070392,
				"z": 6.1674428841,
				"element": "H" 
			},
			{
				"x": 3.9480732231,
				"y": 2.2788017567,
				"z": 5.5841888222,
				"element": "H" 
			},
			{
				"x": 5.3805605211,
				"y": 3.2147423771,
				"z": 6.048490078,
				"element": "H" 
			},
			{
				"x": 3.1649581072,
				"y": 2.7640036638,
				"z": 3.33646136,
				"element": "H" 
			},
			{
				"x": 1.029950404,
				"y": 2.2620770757,
				"z": 2.2395132282,
				"element": "H" 
			}
		],
		 "valence_orbital": [ 
			{
				"type": "occ",
				"energy": -0.25718,
				"method": "rhf"
			},
			{
				"type": "occ",
				"energy": -0.2538,
				"method": "rhf"
			},
			{
				"type": "occ",
				"energy": -0.24888,
				"method": "rhf"
			},
			{
				"type": "occ",
				"energy": -0.24089,
				"method": "rhf"
			},
			{
				"type": "occ",
				"energy": -0.19175,
				"method": "rhf"
			},
			{
				"type": "unocc",
				"energy": -0.03605,
				"method": "rhf"
			},
			{
				"type": "unocc",
				"energy": -0.00258,
				"method": "rhf"
			},
			{
				"type": "unocc",
				"energy": 0.00074,
				"method": "rhf"
			},
			{
				"type": "unocc",
				"energy": 0.01974,
				"method": "rhf"
			},
			{
				"type": "unocc",
				"energy": 0.06123,
				"method": "rhf"
			}
		],
		"cosmo_sigma_profile": { 
			"-0.025": 0.0,
			"-0.024": 0.0,
			"-0.023": 0.0,
			"-0.022": 0.0,
			"-0.021": 0.0,
			"-0.02": 0.0,
			"-0.019": 0.0,
			"-0.018": 0.0,
			"-0.017": 0.0,
			"-0.016": 0.0,
			"-0.015": 0.0,
			"-0.014": 0.0,
			"-0.013": 0.0,
			"-0.012": 0.0,
			"-0.011": 0.0,
			"-0.01": 0.0,
			"-0.009": 0.0,
			"-0.008": 0.189028719845,
			"-0.007": 2.29354390226,
			"-0.006": 11.5776453606,
			"-0.005": 20.23900177,
			"-0.004": 28.8129850567,
			"-0.003": 32.0832218168,
			"-0.002": 39.5893962926,
			"-0.001": 37.8619284267,
			"0.0": 39.0641777421,
			"0.001": 36.344581132,
			"0.002": 25.5921867086,
			"0.003": 25.8492106739,
			"0.004": 35.3021951614,
			"0.005": 21.072489221,
			"0.006": 7.54340415073,
			"0.007": 3.02333686331,
			"0.008": 1.74216199392,
			"0.009": 1.11668165431,
			"0.01": 1.24449281235,
			"0.011": 0.12060030476,
			"0.012": 0.0,
			"0.013": 0.0,
			"0.014": 0.0,
			"0.015": 0.0,
			"0.016": 0.0,
			"0.017": 0.0,
			"0.018": 0.0,
			"0.019": 0.0,
			"0.02": 0.0,
			"0.021": 0.0,
			"0.022": 0.0,
			"0.023": 0.0,
			"0.024": 0.0,
			"0.025": 0.0
		}
	}
}
