{
	 "smiles": "COC(=O)CN1C=NC(=N1)C#N", 
	 "Tm": 327.15, 
	 "num_atms": 18, 
	 "gaussian": { 
		 "optdone": 1, 
		 "sigma_profile": "yes", 
		 "theory": "DFT", 
		 "functional": "B3LYP", 
		 "basiset": "6-31G**", 
		 "properties": { 
			 "R2extent": 2916.1612, 
			 "electric_dipole_moment_norm": 6.11950112836, 
			 "electric_quadrupole_moment_norm": 25.8734695501, 
			 "total_energy": -601.664738392, 
			 "HOMO_LUMO_gap": 0.23507, 
			 "cosmo_polarized_energy": -18.22, 
			 "cosmo_cavitation_energy": 25.26, 
			 "cosmo_dispersion_energy": -17.28, 
			 "cosmo_repulsion_energy": 1.41, 
			 "cosmo_total_nonelectrostatic_energy": 9.38, 
			 "SMD_solvation_energy": 5.2 
		},
		"coords": [
			{
				"x": 0.321459415,
				"y": 2.3223859149,
				"z": -1.2167796883,
				"element": "C" 
			},
			{
				"x": 0.6687716013,
				"y": 1.1654136926,
				"z": -0.4269727439,
				"element": "O" 
			},
			{
				"x": 1.9767636385,
				"y": 0.9925621233,
				"z": -0.2064560251,
				"element": "C" 
			},
			{
				"x": 2.8626256998,
				"y": 1.6962698183,
				"z": -0.6320559481,
				"element": "O" 
			},
			{
				"x": 2.2697873574,
				"y": -0.2534211652,
				"z": 0.6333835341,
				"element": "C" 
			},
			{
				"x": 1.1269123788,
				"y": -0.819764192,
				"z": 1.3205446944,
				"element": "N" 
			},
			{
				"x": 0.27274232,
				"y": -1.7956923961,
				"z": 0.9202270126,
				"element": "C" 
			},
			{
				"x": -0.6915196427,
				"y": -1.9571560238,
				"z": 1.8032483098,
				"element": "N" 
			},
			{
				"x": -0.3783596399,
				"y": -1.0200197791,
				"z": 2.7474870416,
				"element": "C" 
			},
			{
				"x": 0.7154089261,
				"y": -0.3017989352,
				"z": 2.4964163605,
				"element": "N" 
			},
			{
				"x": -1.1543246313,
				"y": -0.814914207,
				"z": 3.9316242626,
				"element": "C" 
			},
			{
				"x": -1.7892238888,
				"y": -0.6514284518,
				"z": 4.8902337345,
				"element": "N" 
			},
			{
				"x": -0.7652457905,
				"y": 2.3117464267,
				"z": -1.2848883257,
				"element": "H" 
			},
			{
				"x": 0.7746551157,
				"y": 2.2541881896,
				"z": -2.2082069706,
				"element": "H" 
			},
			{
				"x": 0.669969526,
				"y": 3.2325859914,
				"z": -0.7244730297,
				"element": "H" 
			},
			{
				"x": 2.6970125501,
				"y": -1.0139506675,
				"z": -0.0268861332,
				"element": "H" 
			},
			{
				"x": 3.0262763402,
				"y": 0.0126933781,
				"z": 1.3728846757,
				"element": "H" 
			},
			{
				"x": 0.3983887241,
				"y": -2.3495997172,
				"z": 0.0002692386,
				"element": "H" 
			}
		],
		 "valence_orbital": [ 
			{
				"type": "occ",
				"energy": -0.33186,
				"method": "rhf"
			},
			{
				"type": "occ",
				"energy": -0.32653,
				"method": "rhf"
			},
			{
				"type": "occ",
				"energy": -0.30972,
				"method": "rhf"
			},
			{
				"type": "occ",
				"energy": -0.30421,
				"method": "rhf"
			},
			{
				"type": "occ",
				"energy": -0.28138,
				"method": "rhf"
			},
			{
				"type": "unocc",
				"energy": -0.04631,
				"method": "rhf"
			},
			{
				"type": "unocc",
				"energy": -0.02153,
				"method": "rhf"
			},
			{
				"type": "unocc",
				"energy": -0.00599,
				"method": "rhf"
			},
			{
				"type": "unocc",
				"energy": 0.02031,
				"method": "rhf"
			},
			{
				"type": "unocc",
				"energy": 0.06773,
				"method": "rhf"
			}
		],
		"cosmo_sigma_profile": { 
			"-0.025": 0.0,
			"-0.024": 0.0,
			"-0.023": 0.0,
			"-0.022": 0.0,
			"-0.021": 0.0,
			"-0.02": 0.0,
			"-0.019": 0.0,
			"-0.018": 0.0,
			"-0.017": 0.0,
			"-0.016": 0.0,
			"-0.015": 0.0,
			"-0.014": 0.409531821707,
			"-0.013": 1.98809828213,
			"-0.012": 3.57204840598,
			"-0.011": 4.38592154724,
			"-0.01": 3.86088147472,
			"-0.009": 5.04294603528,
			"-0.008": 4.55094208863,
			"-0.007": 7.95841730963,
			"-0.006": 10.2453032935,
			"-0.005": 12.6433731932,
			"-0.004": 14.7067520342,
			"-0.003": 13.8695431032,
			"-0.002": 8.60460529687,
			"-0.001": 10.1472095592,
			"0.0": 11.2492352121,
			"0.001": 9.57169223347,
			"0.002": 9.84257305223,
			"0.003": 8.7627360449,
			"0.004": 8.35766386875,
			"0.005": 8.037460147,
			"0.006": 5.31785027384,
			"0.007": 6.13029426493,
			"0.008": 6.89036407863,
			"0.009": 7.41691803183,
			"0.01": 6.16627135579,
			"0.011": 9.22106927489,
			"0.012": 3.16065062387,
			"0.013": 1.08811806598,
			"0.014": 0.657504637597,
			"0.015": 0.0183798015878,
			"0.016": 0.0,
			"0.017": 0.0,
			"0.018": 0.0,
			"0.019": 0.0,
			"0.02": 0.0,
			"0.021": 0.0,
			"0.022": 0.0,
			"0.023": 0.0,
			"0.024": 0.0,
			"0.025": 0.0
		}
	}
}
