{
	 "smiles": "OC1=C2C=CC=CC2=C(C=C1)C1(OC(=O)C2=C1C=CC=C2)C1=C2C=CC=CC2=C(O)C=C1", 
	 "Tm": 527.15, 
	 "num_atms": 50, 
	 "gaussian": { 
		 "optdone": 1, 
		 "sigma_profile": "yes", 
		 "theory": "DFT", 
		 "functional": "B3LYP", 
		 "basiset": "6-31G**", 
		 "properties": { 
			 "R2extent": 11775.1285, 
			 "electric_dipole_moment_norm": 4.68036149886, 
			 "electric_quadrupole_moment_norm": 23.2772806341, 
			 "total_energy": -1378.73776136, 
			 "HOMO_LUMO_gap": 0.15401, 
			 "cosmo_polarized_energy": -23.29, 
			 "cosmo_cavitation_energy": 52.07, 
			 "cosmo_dispersion_energy": -35.39, 
			 "cosmo_repulsion_energy": 2.62, 
			 "cosmo_total_nonelectrostatic_energy": 19.31, 
			 "SMD_solvation_energy": 9.62 
		},
		"coords": [
			{
				"x": 2.7348914448,
				"y": 3.6342619421,
				"z": 3.5087406148,
				"element": "O" 
			},
			{
				"x": 2.0248453037,
				"y": 2.8814067787,
				"z": 2.6193164801,
				"element": "C" 
			},
			{
				"x": 2.6429874448,
				"y": 2.2433315628,
				"z": 1.4962310285,
				"element": "C" 
			},
			{
				"x": 4.043111049,
				"y": 2.3315001643,
				"z": 1.2729618401,
				"element": "C" 
			},
			{
				"x": 4.6331204881,
				"y": 1.7380257902,
				"z": 0.1809738005,
				"element": "C" 
			},
			{
				"x": 3.835116392,
				"y": 1.0250013464,
				"z": -0.7387327945,
				"element": "C" 
			},
			{
				"x": 2.4774860081,
				"y": 0.9029885422,
				"z": -0.5419671687,
				"element": "C" 
			},
			{
				"x": 1.8274463704,
				"y": 1.4922905437,
				"z": 0.5799289978,
				"element": "C" 
			},
			{
				"x": 0.415449607,
				"y": 1.3587508758,
				"z": 0.8361228261,
				"element": "C" 
			},
			{
				"x": -0.1113272229,
				"y": 1.9761205412,
				"z": 1.9537848848,
				"element": "C" 
			},
			{
				"x": 0.6754352036,
				"y": 2.7364893485,
				"z": 2.8418485777,
				"element": "C" 
			},
			{
				"x": -0.4847933299,
				"y": 0.5680497583,
				"z": -0.134800037,
				"element": "C" 
			},
			{
				"x": -0.2794520656,
				"y": 1.2098409693,
				"z": -1.4472944707,
				"element": "O" 
			},
			{
				"x": -1.3718245948,
				"y": 1.9518467809,
				"z": -1.8306904295,
				"element": "C" 
			},
			{
				"x": -1.3713271663,
				"y": 2.6460774204,
				"z": -2.8173647996,
				"element": "O" 
			},
			{
				"x": -2.45947041,
				"y": 1.6648025924,
				"z": -0.8721078856,
				"element": "C" 
			},
			{
				"x": -1.975018743,
				"y": 0.8037601688,
				"z": 0.1046629228,
				"element": "C" 
			},
			{
				"x": -2.8295909103,
				"y": 0.2948396832,
				"z": 1.0794460693,
				"element": "C" 
			},
			{
				"x": -4.167484533,
				"y": 0.7017898621,
				"z": 1.0575445401,
				"element": "C" 
			},
			{
				"x": -4.6449110995,
				"y": 1.5889520322,
				"z": 0.0805544299,
				"element": "C" 
			},
			{
				"x": -3.7901006872,
				"y": 2.0774173382,
				"z": -0.9069171516,
				"element": "C" 
			},
			{
				"x": -0.1645585797,
				"y": -0.9398344859,
				"z": -0.1688496384,
				"element": "C" 
			},
			{
				"x": -0.5599970171,
				"y": -1.8361403517,
				"z": -1.2308255555,
				"element": "C" 
			},
			{
				"x": -1.2032361867,
				"y": -1.4289202051,
				"z": -2.4349207308,
				"element": "C" 
			},
			{
				"x": -1.5613428499,
				"y": -2.3335618365,
				"z": -3.411334812,
				"element": "C" 
			},
			{
				"x": -1.2955547976,
				"y": -3.7098675017,
				"z": -3.2567692535,
				"element": "C" 
			},
			{
				"x": -0.672571009,
				"y": -4.153182681,
				"z": -2.1131462632,
				"element": "C" 
			},
			{
				"x": -0.3000800704,
				"y": -3.244982519,
				"z": -1.088925745,
				"element": "C" 
			},
			{
				"x": 0.3293710627,
				"y": -3.7313795159,
				"z": 0.0970901135,
				"element": "C" 
			},
			{
				"x": 0.5471330007,
				"y": -5.0767541102,
				"z": 0.1682272316,
				"element": "O" 
			},
			{
				"x": 0.6824995502,
				"y": -2.8613207609,
				"z": 1.1012207686,
				"element": "C" 
			},
			{
				"x": 0.4317284949,
				"y": -1.4820375367,
				"z": 0.9549982874,
				"element": "C" 
			},
			{
				"x": 3.5935753104,
				"y": 3.862080506,
				"z": 3.1322069449,
				"element": "H" 
			},
			{
				"x": 4.6795540545,
				"y": 2.8501218057,
				"z": 1.9865386071,
				"element": "H" 
			},
			{
				"x": 5.7057801695,
				"y": 1.8140398636,
				"z": 0.030270654,
				"element": "H" 
			},
			{
				"x": 4.2944019561,
				"y": 0.5635445917,
				"z": -1.6078511545,
				"element": "H" 
			},
			{
				"x": 1.8891756166,
				"y": 0.3562145624,
				"z": -1.2652013125,
				"element": "H" 
			},
			{
				"x": -1.1709273003,
				"y": 1.8976388124,
				"z": 2.1640277405,
				"element": "H" 
			},
			{
				"x": 0.2264979997,
				"y": 3.2283636021,
				"z": 3.6978252315,
				"element": "H" 
			},
			{
				"x": -2.4733399531,
				"y": -0.4054932931,
				"z": 1.8285904336,
				"element": "H" 
			},
			{
				"x": -4.8530440825,
				"y": 0.3172314605,
				"z": 1.8073006568,
				"element": "H" 
			},
			{
				"x": -5.6901566265,
				"y": 1.8827028419,
				"z": 0.0886715571,
				"element": "H" 
			},
			{
				"x": -4.1364700009,
				"y": 2.7459262077,
				"z": -1.6888012683,
				"element": "H" 
			},
			{
				"x": -1.405920795,
				"y": -0.3853462581,
				"z": -2.6078200078,
				"element": "H" 
			},
			{
				"x": -2.0492235715,
				"y": -1.9750297088,
				"z": -4.3132148879,
				"element": "H" 
			},
			{
				"x": -1.5784086961,
				"y": -4.4122092529,
				"z": -4.0352673361,
				"element": "H" 
			},
			{
				"x": -0.4560182334,
				"y": -5.2054874984,
				"z": -1.970399297,
				"element": "H" 
			},
			{
				"x": 0.9810081422,
				"y": -5.2797690402,
				"z": 1.0070207038,
				"element": "H" 
			},
			{
				"x": 1.1606076105,
				"y": -3.2273824482,
				"z": 2.0069921715,
				"element": "H" 
			},
			{
				"x": 0.7272282532,
				"y": -0.8277092916,
				"z": 1.7661038856,
				"element": "H" 
			}
		],
		 "valence_orbital": [ 
			{
				"type": "occ",
				"energy": -0.25823,
				"method": "rhf"
			},
			{
				"type": "occ",
				"energy": -0.24814,
				"method": "rhf"
			},
			{
				"type": "occ",
				"energy": -0.24404,
				"method": "rhf"
			},
			{
				"type": "occ",
				"energy": -0.20712,
				"method": "rhf"
			},
			{
				"type": "occ",
				"energy": -0.20369,
				"method": "rhf"
			},
			{
				"type": "unocc",
				"energy": -0.04968,
				"method": "rhf"
			},
			{
				"type": "unocc",
				"energy": -0.0396,
				"method": "rhf"
			},
			{
				"type": "unocc",
				"energy": -0.03451,
				"method": "rhf"
			},
			{
				"type": "unocc",
				"energy": -0.02212,
				"method": "rhf"
			},
			{
				"type": "unocc",
				"energy": -0.01654,
				"method": "rhf"
			}
		],
		"cosmo_sigma_profile": { 
			"-0.025": 0.0,
			"-0.024": 0.0,
			"-0.023": 0.0,
			"-0.022": 0.0,
			"-0.021": 0.0,
			"-0.02": 0.0,
			"-0.019": 0.0269919051271,
			"-0.018": 1.44563979432,
			"-0.017": 1.96553514136,
			"-0.016": 2.06363267633,
			"-0.015": 2.10943035018,
			"-0.014": 1.52882570688,
			"-0.013": 1.10618807515,
			"-0.012": 1.42789216574,
			"-0.011": 2.76694806841,
			"-0.01": 2.97022013626,
			"-0.009": 1.94014210395,
			"-0.008": 1.88967854285,
			"-0.007": 9.32507877668,
			"-0.006": 20.5255358271,
			"-0.005": 27.5666971601,
			"-0.004": 30.7800947864,
			"-0.003": 26.8291800295,
			"-0.002": 23.1223451459,
			"-0.001": 23.7006190233,
			"0.0": 26.3543357788,
			"0.001": 27.7590665716,
			"0.002": 35.9311386681,
			"0.003": 43.7956625411,
			"0.004": 37.2893900905,
			"0.005": 24.7525054606,
			"0.006": 6.31328116147,
			"0.007": 5.50865185345,
			"0.008": 6.56016493507,
			"0.009": 4.9626543939,
			"0.01": 4.94919988104,
			"0.011": 6.62204860534,
			"0.012": 4.64642187952,
			"0.013": 0.789244083815,
			"0.014": 0.0,
			"0.015": 0.0,
			"0.016": 0.0,
			"0.017": 0.0,
			"0.018": 0.0,
			"0.019": 0.0,
			"0.02": 0.0,
			"0.021": 0.0,
			"0.022": 0.0,
			"0.023": 0.0,
			"0.024": 0.0,
			"0.025": 0.0
		}
	}
}
