{
	 "smiles": "CC(=O)NCC1=CC=C(S1)S(Cl)(=O)=O", 
	 "Tm": 354.15, 
	 "num_atms": 22, 
	 "gaussian": { 
		 "optdone": 1, 
		 "sigma_profile": "yes", 
		 "theory": "DFT", 
		 "functional": "B3LYP", 
		 "basiset": "6-31G**", 
		 "properties": { 
			 "R2extent": 6311.474, 
			 "electric_dipole_moment_norm": 6.04634091414, 
			 "electric_quadrupole_moment_norm": 23.6567068602, 
			 "total_energy": -1808.48559954, 
			 "HOMO_LUMO_gap": 0.16999, 
			 "cosmo_polarized_energy": -17.28, 
			 "cosmo_cavitation_energy": 32.0, 
			 "cosmo_dispersion_energy": -23.74, 
			 "cosmo_repulsion_energy": 1.81, 
			 "cosmo_total_nonelectrostatic_energy": 10.07, 
			 "SMD_solvation_energy": 3.9 
		},
		"coords": [
			{
				"x": 1.0880604329,
				"y": 3.7182202355,
				"z": -1.2415565968,
				"element": "C" 
			},
			{
				"x": -0.044745023,
				"y": 2.771032932,
				"z": -0.8875648276,
				"element": "C" 
			},
			{
				"x": -1.0108344874,
				"y": 2.5986862656,
				"z": -1.6218074173,
				"element": "O" 
			},
			{
				"x": 0.0768197871,
				"y": 2.1215781353,
				"z": 0.3150652462,
				"element": "N" 
			},
			{
				"x": -0.9094127806,
				"y": 1.1292752049,
				"z": 0.724474195,
				"element": "C" 
			},
			{
				"x": -0.6684588298,
				"y": -0.2450691301,
				"z": 0.1432786376,
				"element": "C" 
			},
			{
				"x": -0.926211313,
				"y": -0.6590708699,
				"z": -1.1448105244,
				"element": "C" 
			},
			{
				"x": -0.5272157513,
				"y": -1.9973052061,
				"z": -1.3900291994,
				"element": "C" 
			},
			{
				"x": 0.0423640372,
				"y": -2.5734345439,
				"z": -0.2787590102,
				"element": "C" 
			},
			{
				"x": 0.0853490854,
				"y": -1.4980043974,
				"z": 1.0862284373,
				"element": "S" 
			},
			{
				"x": 0.6354362725,
				"y": -4.2195928121,
				"z": -0.1850698143,
				"element": "S" 
			},
			{
				"x": -1.0768329778,
				"y": -5.2878635681,
				"z": 0.5110429504,
				"element": "Cl" 
			},
			{
				"x": 0.8845434633,
				"y": -4.7058726044,
				"z": -1.5351098993,
				"element": "O" 
			},
			{
				"x": 1.6192654884,
				"y": -4.3108974981,
				"z": 0.8859996676,
				"element": "O" 
			},
			{
				"x": 1.7912857361,
				"y": 3.8890393118,
				"z": -0.4221253606,
				"element": "H" 
			},
			{
				"x": 1.634061264,
				"y": 3.3113950277,
				"z": -2.0981613757,
				"element": "H" 
			},
			{
				"x": 0.6584242024,
				"y": 4.67331061,
				"z": -1.5520610378,
				"element": "H" 
			},
			{
				"x": 0.9449242722,
				"y": 2.1824183747,
				"z": 0.8258478758,
				"element": "H" 
			},
			{
				"x": -1.8812599779,
				"y": 1.4852678406,
				"z": 0.3737915299,
				"element": "H" 
			},
			{
				"x": -0.9348442917,
				"y": 1.092019852,
				"z": 1.8169629866,
				"element": "H" 
			},
			{
				"x": -1.3695424872,
				"y": 0.0003739331,
				"z": -1.8812944836,
				"element": "H" 
			},
			{
				"x": -0.6436761217,
				"y": -2.521007093,
				"z": -2.3310419797,
				"element": "H" 
			}
		],
		 "valence_orbital": [ 
			{
				"type": "occ",
				"energy": -0.31209,
				"method": "rhf"
			},
			{
				"type": "occ",
				"energy": -0.289,
				"method": "rhf"
			},
			{
				"type": "occ",
				"energy": -0.284,
				"method": "rhf"
			},
			{
				"type": "occ",
				"energy": -0.26868,
				"method": "rhf"
			},
			{
				"type": "occ",
				"energy": -0.26413,
				"method": "rhf"
			},
			{
				"type": "unocc",
				"energy": -0.09414,
				"method": "rhf"
			},
			{
				"type": "unocc",
				"energy": -0.05011,
				"method": "rhf"
			},
			{
				"type": "unocc",
				"energy": -0.01164,
				"method": "rhf"
			},
			{
				"type": "unocc",
				"energy": 0.00785,
				"method": "rhf"
			},
			{
				"type": "unocc",
				"energy": 0.0207,
				"method": "rhf"
			}
		],
		"cosmo_sigma_profile": { 
			"-0.025": 0.0,
			"-0.024": 0.0,
			"-0.023": 0.0,
			"-0.022": 0.0,
			"-0.021": 0.0,
			"-0.02": 0.0,
			"-0.019": 0.0,
			"-0.018": 0.0,
			"-0.017": 0.0,
			"-0.016": 0.0,
			"-0.015": 0.42199247889,
			"-0.014": 1.45946786043,
			"-0.013": 1.91220290676,
			"-0.012": 1.32411378021,
			"-0.011": 1.81935718646,
			"-0.01": 1.97187883597,
			"-0.009": 5.07880974259,
			"-0.008": 5.72501319746,
			"-0.007": 5.58092746975,
			"-0.006": 11.9583746685,
			"-0.005": 13.1380594364,
			"-0.004": 15.6795665169,
			"-0.003": 15.7294039212,
			"-0.002": 18.2480190702,
			"-0.001": 22.3680504093,
			"0.0": 25.2479500743,
			"0.001": 21.2816621488,
			"0.002": 16.7677154283,
			"0.003": 17.0686834685,
			"0.004": 12.6254317322,
			"0.005": 4.68659779041,
			"0.006": 3.66910598694,
			"0.007": 9.06736699056,
			"0.008": 11.568219879,
			"0.009": 4.42900205118,
			"0.01": 1.51761151025,
			"0.011": 1.61656179503,
			"0.012": 1.73246592121,
			"0.013": 2.70561801367,
			"0.014": 2.58784342631,
			"0.015": 1.12281425629,
			"0.016": 0.0,
			"0.017": 0.0,
			"0.018": 0.0,
			"0.019": 0.0,
			"0.02": 0.0,
			"0.021": 0.0,
			"0.022": 0.0,
			"0.023": 0.0,
			"0.024": 0.0,
			"0.025": 0.0
		}
	}
}
