{
	 "smiles": "CN1C=C(C=N1)C1C(CCC(=O)N1C)C(O)=O", 
	 "Tm": 499.15, 
	 "num_atms": 32, 
	 "gaussian": { 
		 "optdone": 1, 
		 "sigma_profile": "yes", 
		 "theory": "DFT", 
		 "functional": "B3LYP", 
		 "basiset": "6-31G**", 
		 "properties": { 
			 "R2extent": 4504.3993, 
			 "electric_dipole_moment_norm": 6.44187418225, 
			 "electric_quadrupole_moment_norm": 15.9018454159, 
			 "total_energy": -818.140599373, 
			 "HOMO_LUMO_gap": 0.22365, 
			 "cosmo_polarized_energy": -22.19, 
			 "cosmo_cavitation_energy": 34.06, 
			 "cosmo_dispersion_energy": -23.89, 
			 "cosmo_repulsion_energy": 1.87, 
			 "cosmo_total_nonelectrostatic_energy": 12.03, 
			 "SMD_solvation_energy": 6.38 
		},
		"coords": [
			{
				"x": 3.9084206963,
				"y": 0.0654598713,
				"z": -0.8687900441,
				"element": "C" 
			},
			{
				"x": 2.5215952015,
				"y": -0.1535079549,
				"z": -0.5039923041,
				"element": "N" 
			},
			{
				"x": 1.6340760039,
				"y": 0.7440717968,
				"z": -0.0029493883,
				"element": "C" 
			},
			{
				"x": 0.4590488241,
				"y": 0.0574040185,
				"z": 0.2583792147,
				"element": "C" 
			},
			{
				"x": 0.7531259656,
				"y": -1.2750628335,
				"z": -0.1309867368,
				"element": "C" 
			},
			{
				"x": 1.9979907838,
				"y": -1.3961124904,
				"z": -0.5888180559,
				"element": "N" 
			},
			{
				"x": -0.8050709272,
				"y": 0.6456262615,
				"z": 0.8402752793,
				"element": "C" 
			},
			{
				"x": -0.9785133562,
				"y": 0.2888329482,
				"z": 2.3390307936,
				"element": "C" 
			},
			{
				"x": -2.3639542963,
				"y": 0.7505886204,
				"z": 2.8309642207,
				"element": "C" 
			},
			{
				"x": -3.4679170721,
				"y": 0.0826661585,
				"z": 2.0135237167,
				"element": "C" 
			},
			{
				"x": -3.2762112227,
				"y": 0.1695900727,
				"z": 0.5054156761,
				"element": "C" 
			},
			{
				"x": -4.2453777208,
				"y": 0.0648215822,
				"z": -0.2394180082,
				"element": "O" 
			},
			{
				"x": -1.9930501817,
				"y": 0.3390057861,
				"z": 0.0208453133,
				"element": "N" 
			},
			{
				"x": -1.8471338358,
				"y": 0.5721408736,
				"z": -1.4152725498,
				"element": "C" 
			},
			{
				"x": -0.7851831363,
				"y": -1.1877327091,
				"z": 2.645195273,
				"element": "C" 
			},
			{
				"x": 0.0364481327,
				"y": -1.3673616541,
				"z": 3.706083246,
				"element": "O" 
			},
			{
				"x": -1.3144092312,
				"y": -2.1169225733,
				"z": 2.0722900953,
				"element": "O" 
			},
			{
				"x": 4.0753576441,
				"y": 1.1334308918,
				"z": -1.0214348755,
				"element": "H" 
			},
			{
				"x": 4.5820442498,
				"y": -0.2969549494,
				"z": -0.0855947902,
				"element": "H" 
			},
			{
				"x": 4.1209416953,
				"y": -0.4713939067,
				"z": -1.7948426442,
				"element": "H" 
			},
			{
				"x": 1.8907458667,
				"y": 1.7868046893,
				"z": 0.1230636987,
				"element": "H" 
			},
			{
				"x": 0.0994845587,
				"y": -2.135014749,
				"z": -0.0989821268,
				"element": "H" 
			},
			{
				"x": -0.6707153796,
				"y": 1.7414428438,
				"z": 0.8273504539,
				"element": "H" 
			},
			{
				"x": -0.19822948,
				"y": 0.8304136859,
				"z": 2.8801331975,
				"element": "H" 
			},
			{
				"x": -2.4820431855,
				"y": 0.5391763733,
				"z": 3.8993391635,
				"element": "H" 
			},
			{
				"x": -2.4149813849,
				"y": 1.8407653901,
				"z": 2.7179161437,
				"element": "H" 
			},
			{
				"x": -3.5379029125,
				"y": -0.9819556813,
				"z": 2.2595595111,
				"element": "H" 
			},
			{
				"x": -4.4456320953,
				"y": 0.523521152,
				"z": 2.2223939251,
				"element": "H" 
			},
			{
				"x": -2.835238343,
				"y": 0.4896720102,
				"z": -1.8634716257,
				"element": "H" 
			},
			{
				"x": -1.1733830841,
				"y": -0.1595949078,
				"z": -1.8674830341,
				"element": "H" 
			},
			{
				"x": -1.4411049385,
				"y": 1.5755065409,
				"z": -1.6018129444,
				"element": "H" 
			},
			{
				"x": 0.0806721615,
				"y": -2.3279271577,
				"z": 3.8536902063,
				"element": "H" 
			}
		],
		 "valence_orbital": [ 
			{
				"type": "occ",
				"energy": -0.28032,
				"method": "rhf"
			},
			{
				"type": "occ",
				"energy": -0.25424,
				"method": "rhf"
			},
			{
				"type": "occ",
				"energy": -0.24723,
				"method": "rhf"
			},
			{
				"type": "occ",
				"energy": -0.23338,
				"method": "rhf"
			},
			{
				"type": "occ",
				"energy": -0.22792,
				"method": "rhf"
			},
			{
				"type": "unocc",
				"energy": -0.00427,
				"method": "rhf"
			},
			{
				"type": "unocc",
				"energy": 0.01424,
				"method": "rhf"
			},
			{
				"type": "unocc",
				"energy": 0.03255,
				"method": "rhf"
			},
			{
				"type": "unocc",
				"energy": 0.05252,
				"method": "rhf"
			},
			{
				"type": "unocc",
				"energy": 0.07369,
				"method": "rhf"
			}
		],
		"cosmo_sigma_profile": { 
			"-0.025": 0.0,
			"-0.024": 0.0,
			"-0.023": 0.0,
			"-0.022": 0.0,
			"-0.021": 0.0,
			"-0.02": 0.0,
			"-0.019": 0.0,
			"-0.018": 0.58642882917,
			"-0.017": 1.09566366689,
			"-0.016": 0.616186143513,
			"-0.015": 1.01063376243,
			"-0.014": 0.592355961348,
			"-0.013": 1.23291943985,
			"-0.012": 0.256059434864,
			"-0.011": 0.936528499856,
			"-0.01": 0.829553540699,
			"-0.009": 2.3259041114,
			"-0.008": 4.06240645734,
			"-0.007": 5.87190904176,
			"-0.006": 17.3385571158,
			"-0.005": 23.3099525578,
			"-0.004": 24.3516609388,
			"-0.003": 28.7173114676,
			"-0.002": 23.4208994573,
			"-0.001": 18.7821559354,
			"0.0": 11.9494858763,
			"0.001": 11.113992659,
			"0.002": 10.5008269099,
			"0.003": 10.6790652862,
			"0.004": 8.94174050007,
			"0.005": 6.50330318273,
			"0.006": 6.53615290891,
			"0.007": 6.47518038103,
			"0.008": 5.5756510676,
			"0.009": 5.95703717603,
			"0.01": 4.77997917824,
			"0.011": 6.0896783647,
			"0.012": 3.49336403307,
			"0.013": 3.9178537367,
			"0.014": 6.06126557509,
			"0.015": 2.84424397779,
			"0.016": 0.808472899496,
			"0.017": 0.0067222902851,
			"0.018": 0.0,
			"0.019": 0.0,
			"0.02": 0.0,
			"0.021": 0.0,
			"0.022": 0.0,
			"0.023": 0.0,
			"0.024": 0.0,
			"0.025": 0.0
		}
	}
}
