{
	 "smiles": "CCCC(C)(C)C(C)C", 
	 "Tm": 156.15, 
	 "num_atms": 29, 
	 "gaussian": { 
		 "optdone": 1, 
		 "sigma_profile": "yes", 
		 "theory": "DFT", 
		 "functional": "B3LYP", 
		 "basiset": "6-31G**", 
		 "properties": { 
			 "R2extent": 2080.7749, 
			 "electric_dipole_moment_norm": 0.0658328945133, 
			 "electric_quadrupole_moment_norm": 0.522478257921, 
			 "total_energy": -355.033938434, 
			 "HOMO_LUMO_gap": 0.36507, 
			 "cosmo_polarized_energy": -0.84, 
			 "cosmo_cavitation_energy": 27.18, 
			 "cosmo_dispersion_energy": -19.35, 
			 "cosmo_repulsion_energy": 1.56, 
			 "cosmo_total_nonelectrostatic_energy": 9.39, 
			 "SMD_solvation_energy": 4.76 
		},
		"coords": [
			{
				"x": 1.2270070735,
				"y": 2.1672772375,
				"z": 1.6068011148,
				"element": "C" 
			},
			{
				"x": 0.4728301651,
				"y": 2.6726585159,
				"z": 0.369040715,
				"element": "C" 
			},
			{
				"x": -0.017985799,
				"y": 1.5654275878,
				"z": -0.5962449626,
				"element": "C" 
			},
			{
				"x": -1.4684122755,
				"y": 1.0330523714,
				"z": -0.4124447909,
				"element": "C" 
			},
			{
				"x": -1.7337542904,
				"y": 0.6062995288,
				"z": 1.0474444774,
				"element": "C" 
			},
			{
				"x": -2.4787346856,
				"y": 2.1518728069,
				"z": -0.7547570079,
				"element": "C" 
			},
			{
				"x": -1.7347194979,
				"y": -0.1945873572,
				"z": -1.3612358989,
				"element": "C" 
			},
			{
				"x": -1.5083975655,
				"y": 0.0975152449,
				"z": -2.856622872,
				"element": "C" 
			},
			{
				"x": -0.9651269911,
				"y": -1.4735156854,
				"z": -0.9810195785,
				"element": "C" 
			},
			{
				"x": 0.6031042419,
				"y": 1.5344192297,
				"z": 2.2440149406,
				"element": "H" 
			},
			{
				"x": 1.5820119955,
				"y": 3.0040106629,
				"z": 2.2184908536,
				"element": "H" 
			},
			{
				"x": 2.1035156393,
				"y": 1.5772676359,
				"z": 1.3146176759,
				"element": "H" 
			},
			{
				"x": 1.1457320707,
				"y": 3.3380617249,
				"z": -0.1860238727,
				"element": "H" 
			},
			{
				"x": -0.3652531189,
				"y": 3.3061911183,
				"z": 0.6837975506,
				"element": "H" 
			},
			{
				"x": 0.0620278938,
				"y": 1.9464732155,
				"z": -1.6207857047,
				"element": "H" 
			},
			{
				"x": 0.6865406579,
				"y": 0.7258218601,
				"z": -0.5356616458,
				"element": "H" 
			},
			{
				"x": -2.7220213652,
				"y": 0.1396705643,
				"z": 1.1391689722,
				"element": "H" 
			},
			{
				"x": -1.720535926,
				"y": 1.4711204254,
				"z": 1.7180141515,
				"element": "H" 
			},
			{
				"x": -0.9924173362,
				"y": -0.1080799556,
				"z": 1.4157574786,
				"element": "H" 
			},
			{
				"x": -2.3985296936,
				"y": 2.9879929551,
				"z": -0.0529037349,
				"element": "H" 
			},
			{
				"x": -3.5076400132,
				"y": 1.7780025881,
				"z": -0.6966717798,
				"element": "H" 
			},
			{
				"x": -2.3252999697,
				"y": 2.5562680972,
				"z": -1.7596403858,
				"element": "H" 
			},
			{
				"x": -2.8044747913,
				"y": -0.4230381791,
				"z": -1.2387137707,
				"element": "H" 
			},
			{
				"x": -0.4480215785,
				"y": 0.2521911126,
				"z": -3.0835239932,
				"element": "H" 
			},
			{
				"x": -2.0573156535,
				"y": 0.9770745101,
				"z": -3.2037698251,
				"element": "H" 
			},
			{
				"x": -1.8449852061,
				"y": -0.753862937,
				"z": -3.4581305251,
				"element": "H" 
			},
			{
				"x": -1.2310274871,
				"y": -2.2858527465,
				"z": -1.6662108078,
				"element": "H" 
			},
			{
				"x": -1.1933624939,
				"y": -1.8157728102,
				"z": 0.0315565358,
				"element": "H" 
			},
			{
				"x": 0.1195460007,
				"y": -1.335859322,
				"z": -1.0527433096,
				"element": "H" 
			}
		],
		 "valence_orbital": [ 
			{
				"type": "occ",
				"energy": -0.32945,
				"method": "rhf"
			},
			{
				"type": "occ",
				"energy": -0.32206,
				"method": "rhf"
			},
			{
				"type": "occ",
				"energy": -0.30008,
				"method": "rhf"
			},
			{
				"type": "occ",
				"energy": -0.29619,
				"method": "rhf"
			},
			{
				"type": "occ",
				"energy": -0.28767,
				"method": "rhf"
			},
			{
				"type": "unocc",
				"energy": 0.0774,
				"method": "rhf"
			},
			{
				"type": "unocc",
				"energy": 0.10422,
				"method": "rhf"
			},
			{
				"type": "unocc",
				"energy": 0.11375,
				"method": "rhf"
			},
			{
				"type": "unocc",
				"energy": 0.12184,
				"method": "rhf"
			},
			{
				"type": "unocc",
				"energy": 0.12879,
				"method": "rhf"
			}
		],
		"cosmo_sigma_profile": { 
			"-0.025": 0.0,
			"-0.024": 0.0,
			"-0.023": 0.0,
			"-0.022": 0.0,
			"-0.021": 0.0,
			"-0.02": 0.0,
			"-0.019": 0.0,
			"-0.018": 0.0,
			"-0.017": 0.0,
			"-0.016": 0.0,
			"-0.015": 0.0,
			"-0.014": 0.0,
			"-0.013": 0.0,
			"-0.012": 0.0,
			"-0.011": 0.0,
			"-0.01": 0.0,
			"-0.009": 0.0,
			"-0.008": 0.0,
			"-0.007": 0.0,
			"-0.006": 0.0,
			"-0.005": 0.0,
			"-0.004": 0.0,
			"-0.003": 4.98671649384,
			"-0.002": 30.814109759,
			"-0.001": 45.8660044382,
			"0.0": 45.748447535,
			"0.001": 42.4146344851,
			"0.002": 34.1715397747,
			"0.003": 3.52320157917,
			"0.004": 0.0,
			"0.005": 0.0,
			"0.006": 0.0,
			"0.007": 0.0,
			"0.008": 0.0,
			"0.009": 0.0,
			"0.01": 0.0,
			"0.011": 0.0,
			"0.012": 0.0,
			"0.013": 0.0,
			"0.014": 0.0,
			"0.015": 0.0,
			"0.016": 0.0,
			"0.017": 0.0,
			"0.018": 0.0,
			"0.019": 0.0,
			"0.02": 0.0,
			"0.021": 0.0,
			"0.022": 0.0,
			"0.023": 0.0,
			"0.024": 0.0,
			"0.025": 0.0
		}
	}
}
