{
	 "smiles": "CCNC1=C(C=C2C(=O)OC3=CC=CC=C3C2=N1)C(=O)OCC", 
	 "Tm": 459.15, 
	 "num_atms": 39, 
	 "gaussian": { 
		 "optdone": 1, 
		 "sigma_profile": "yes", 
		 "theory": "DFT", 
		 "functional": "B3LYP", 
		 "basiset": "6-31G**", 
		 "properties": { 
			 "R2extent": 10012.3865, 
			 "electric_dipole_moment_norm": 3.61607496604, 
			 "electric_quadrupole_moment_norm": 23.803016793, 
			 "total_energy": -1067.92223104, 
			 "HOMO_LUMO_gap": 0.14993, 
			 "cosmo_polarized_energy": -12.81, 
			 "cosmo_cavitation_energy": 43.25, 
			 "cosmo_dispersion_energy": -30.82, 
			 "cosmo_repulsion_energy": 2.35, 
			 "cosmo_total_nonelectrostatic_energy": 14.78, 
			 "SMD_solvation_energy": 8.07 
		},
		"coords": [
			{
				"x": -3.17788296,
				"y": -0.3676665617,
				"z": -1.0945354398,
				"element": "C" 
			},
			{
				"x": -2.2225312,
				"y": 0.8303935359,
				"z": -1.0894003946,
				"element": "C" 
			},
			{
				"x": -0.8163053743,
				"y": 0.4473900217,
				"z": -1.0658030277,
				"element": "N" 
			},
			{
				"x": -0.1313659866,
				"y": 0.1416457384,
				"z": 0.053275253,
				"element": "C" 
			},
			{
				"x": 1.2608233842,
				"y": -0.2499417716,
				"z": -0.0141175982,
				"element": "C" 
			},
			{
				"x": 1.9036019367,
				"y": -0.5334326464,
				"z": 1.1810634498,
				"element": "C" 
			},
			{
				"x": 1.2178688597,
				"y": -0.4394827491,
				"z": 2.3966415335,
				"element": "C" 
			},
			{
				"x": 1.9148228015,
				"y": -0.7433865776,
				"z": 3.6474756549,
				"element": "C" 
			},
			{
				"x": 3.0723421671,
				"y": -1.0804426426,
				"z": 3.7500791772,
				"element": "O" 
			},
			{
				"x": 1.169024299,
				"y": -0.630073183,
				"z": 4.8119740318,
				"element": "O" 
			},
			{
				"x": -0.1502511989,
				"y": -0.2559070975,
				"z": 4.8112649504,
				"element": "C" 
			},
			{
				"x": -0.7735350075,
				"y": -0.1844754447,
				"z": 6.0597589238,
				"element": "C" 
			},
			{
				"x": -2.1109700838,
				"y": 0.1884019444,
				"z": 6.1316812034,
				"element": "C" 
			},
			{
				"x": -2.8305451539,
				"y": 0.4904245366,
				"z": 4.9658283719,
				"element": "C" 
			},
			{
				"x": -2.2044693616,
				"y": 0.4172001973,
				"z": 3.729603505,
				"element": "C" 
			},
			{
				"x": -0.8530687696,
				"y": 0.0425747457,
				"z": 3.6315608168,
				"element": "C" 
			},
			{
				"x": -0.1401103145,
				"y": -0.0519939459,
				"z": 2.3611549234,
				"element": "C" 
			},
			{
				"x": -0.7890803805,
				"y": 0.2237402764,
				"z": 1.2270600505,
				"element": "N" 
			},
			{
				"x": 1.9689815835,
				"y": -0.346500424,
				"z": -1.3059331047,
				"element": "C" 
			},
			{
				"x": 1.464263334,
				"y": -0.1198045944,
				"z": -2.4028484613,
				"element": "O" 
			},
			{
				"x": 3.2552741293,
				"y": -0.7175714411,
				"z": -1.1730225091,
				"element": "O" 
			},
			{
				"x": 4.0187655553,
				"y": -0.8377352905,
				"z": -2.396867044,
				"element": "C" 
			},
			{
				"x": 5.4237833349,
				"y": -1.2600252016,
				"z": -2.0132282337,
				"element": "C" 
			},
			{
				"x": -4.2171426957,
				"y": -0.0242852877,
				"z": -1.135777006,
				"element": "H" 
			},
			{
				"x": -2.9971885647,
				"y": -1.0130174182,
				"z": -1.9600543266,
				"element": "H" 
			},
			{
				"x": -3.047104958,
				"y": -0.9617620079,
				"z": -0.1863102342,
				"element": "H" 
			},
			{
				"x": -2.4207165772,
				"y": 1.4633083411,
				"z": -0.221085107,
				"element": "H" 
			},
			{
				"x": -2.3715190651,
				"y": 1.4391184264,
				"z": -1.9872187477,
				"element": "H" 
			},
			{
				"x": -0.294885845,
				"y": 0.3432989847,
				"z": -1.931883736,
				"element": "H" 
			},
			{
				"x": 2.9452723906,
				"y": -0.8310815162,
				"z": 1.187215472,
				"element": "H" 
			},
			{
				"x": -0.1957052095,
				"y": -0.4228849537,
				"z": 6.9459797753,
				"element": "H" 
			},
			{
				"x": -2.5978848812,
				"y": 0.2448075549,
				"z": 7.1007653093,
				"element": "H" 
			},
			{
				"x": -3.8744167596,
				"y": 0.7807680904,
				"z": 5.0309462609,
				"element": "H" 
			},
			{
				"x": -2.7348499123,
				"y": 0.644804705,
				"z": 2.8118910702,
				"element": "H" 
			},
			{
				"x": 3.5291915729,
				"y": -1.5705593708,
				"z": -3.0456937374,
				"element": "H" 
			},
			{
				"x": 4.0035784259,
				"y": 0.1254220035,
				"z": -2.9162295976,
				"element": "H" 
			},
			{
				"x": 6.0367587991,
				"y": -1.3627579211,
				"z": -2.9139843038,
				"element": "H" 
			},
			{
				"x": 5.8917230208,
				"y": -0.5172473555,
				"z": -1.3610946024,
				"element": "H" 
			},
			{
				"x": 5.4152546651,
				"y": -2.2208636997,
				"z": -1.4910325217,
				"element": "H" 
			}
		],
		 "valence_orbital": [ 
			{
				"type": "occ",
				"energy": -0.27856,
				"method": "rhf"
			},
			{
				"type": "occ",
				"energy": -0.26473,
				"method": "rhf"
			},
			{
				"type": "occ",
				"energy": -0.25522,
				"method": "rhf"
			},
			{
				"type": "occ",
				"energy": -0.23944,
				"method": "rhf"
			},
			{
				"type": "occ",
				"energy": -0.22137,
				"method": "rhf"
			},
			{
				"type": "unocc",
				"energy": -0.07144,
				"method": "rhf"
			},
			{
				"type": "unocc",
				"energy": -0.04168,
				"method": "rhf"
			},
			{
				"type": "unocc",
				"energy": -0.00886,
				"method": "rhf"
			},
			{
				"type": "unocc",
				"energy": -0.00043,
				"method": "rhf"
			},
			{
				"type": "unocc",
				"energy": 0.03325,
				"method": "rhf"
			}
		],
		"cosmo_sigma_profile": { 
			"-0.025": 0.0,
			"-0.024": 0.0,
			"-0.023": 0.0,
			"-0.022": 0.0,
			"-0.021": 0.0,
			"-0.02": 0.0,
			"-0.019": 0.0,
			"-0.018": 0.0,
			"-0.017": 0.0,
			"-0.016": 0.0,
			"-0.015": 0.0,
			"-0.014": 0.0,
			"-0.013": 0.0,
			"-0.012": 0.0,
			"-0.011": 0.0,
			"-0.01": 0.350273792008,
			"-0.009": 0.700595702998,
			"-0.008": 1.00846804585,
			"-0.007": 4.39901124441,
			"-0.006": 9.6562101091,
			"-0.005": 20.499991292,
			"-0.004": 29.2704276956,
			"-0.003": 34.6788600127,
			"-0.002": 36.9763662367,
			"-0.001": 40.0153601139,
			"0.0": 40.1373785387,
			"0.001": 28.785297205,
			"0.002": 23.7194283017,
			"0.003": 19.800779934,
			"0.004": 13.9214465705,
			"0.005": 7.21526364741,
			"0.006": 4.50182714139,
			"0.007": 4.36924521922,
			"0.008": 3.37464892978,
			"0.009": 4.24469182127,
			"0.01": 4.57009534837,
			"0.011": 5.56423085039,
			"0.012": 5.92428311974,
			"0.013": 1.42651668556,
			"0.014": 0.0356446426683,
			"0.015": 0.0,
			"0.016": 0.0,
			"0.017": 0.0,
			"0.018": 0.0,
			"0.019": 0.0,
			"0.02": 0.0,
			"0.021": 0.0,
			"0.022": 0.0,
			"0.023": 0.0,
			"0.024": 0.0,
			"0.025": 0.0
		}
	}
}
