{
	 "smiles": "CC1=CSC(=N1)C(OS(=O)(=O)C1=CC=C(C)C=C1)C(F)(F)F", 
	 "Tm": 379.15, 
	 "num_atms": 34, 
	 "gaussian": { 
		 "optdone": 1, 
		 "sigma_profile": "yes", 
		 "theory": "DFT", 
		 "functional": "B3LYP", 
		 "basiset": "6-31G**", 
		 "properties": { 
			 "R2extent": 8976.9045, 
			 "electric_dipole_moment_norm": 3.40630728356, 
			 "electric_quadrupole_moment_norm": 36.5218157336, 
			 "total_energy": -1878.86721918, 
			 "HOMO_LUMO_gap": 0.19402, 
			 "cosmo_polarized_energy": -13.21, 
			 "cosmo_cavitation_energy": 43.02, 
			 "cosmo_dispersion_energy": -29.94, 
			 "cosmo_repulsion_energy": 2.19, 
			 "cosmo_total_nonelectrostatic_energy": 15.26, 
			 "SMD_solvation_energy": 5.8 
		},
		"coords": [
			{
				"x": -5.5243700429,
				"y": 1.2691350016,
				"z": -2.3053756503,
				"element": "C" 
			},
			{
				"x": -4.3658222559,
				"y": 0.4259319964,
				"z": -1.8613829894,
				"element": "C" 
			},
			{
				"x": -4.1863039169,
				"y": -0.9075663386,
				"z": -2.1200825962,
				"element": "C" 
			},
			{
				"x": -2.7120632396,
				"y": -1.4801199554,
				"z": -1.4207637051,
				"element": "S" 
			},
			{
				"x": -2.4275384039,
				"y": 0.1414857827,
				"z": -0.8202461628,
				"element": "C" 
			},
			{
				"x": -3.3536584491,
				"y": 1.0051878591,
				"z": -1.124255401,
				"element": "N" 
			},
			{
				"x": -1.2024993274,
				"y": 0.5292783886,
				"z": -0.0433920999,
				"element": "C" 
			},
			{
				"x": -0.0124967401,
				"y": 0.187133805,
				"z": -0.775679603,
				"element": "O" 
			},
			{
				"x": 1.0360838914,
				"y": 1.4115852394,
				"z": -1.2282309561,
				"element": "S" 
			},
			{
				"x": 1.1036724717,
				"y": 1.3734594956,
				"z": -2.6821399922,
				"element": "O" 
			},
			{
				"x": 0.6349250119,
				"y": 2.6209982078,
				"z": -0.5106735562,
				"element": "O" 
			},
			{
				"x": 2.5582699005,
				"y": 0.7828433398,
				"z": -0.5548904102,
				"element": "C" 
			},
			{
				"x": 2.8836846756,
				"y": 1.0551503596,
				"z": 0.7762551236,
				"element": "C" 
			},
			{
				"x": 4.0806786328,
				"y": 0.5625544188,
				"z": 1.2861571743,
				"element": "C" 
			},
			{
				"x": 4.9528779058,
				"y": -0.1978952656,
				"z": 0.4908717198,
				"element": "C" 
			},
			{
				"x": 6.2344083586,
				"y": -0.7468953841,
				"z": 1.0686995581,
				"element": "C" 
			},
			{
				"x": 4.5986779842,
				"y": -0.4473353035,
				"z": -0.8420963412,
				"element": "C" 
			},
			{
				"x": 3.4052417877,
				"y": 0.0370031191,
				"z": -1.3745921221,
				"element": "C" 
			},
			{
				"x": -1.0891745936,
				"y": -0.1625785585,
				"z": 1.3183115133,
				"element": "C" 
			},
			{
				"x": -2.1815811404,
				"y": 0.0903583318,
				"z": 2.0598280413,
				"element": "F" 
			},
			{
				"x": -0.9602955335,
				"y": -1.4973260891,
				"z": 1.2005387544,
				"element": "F" 
			},
			{
				"x": -0.0123084392,
				"y": 0.2934768378,
				"z": 1.9910977126,
				"element": "F" 
			},
			{
				"x": -5.1785286083,
				"y": 2.1030153155,
				"z": -2.9250110422,
				"element": "H" 
			},
			{
				"x": -6.2423960187,
				"y": 0.6821251854,
				"z": -2.8829823329,
				"element": "H" 
			},
			{
				"x": -6.0423501606,
				"y": 1.6993513437,
				"z": -1.4417868708,
				"element": "H" 
			},
			{
				"x": -4.8312985252,
				"y": -1.5717552427,
				"z": -2.6781074182,
				"element": "H" 
			},
			{
				"x": -1.2541517665,
				"y": 1.6060624966,
				"z": 0.1369291348,
				"element": "H" 
			},
			{
				"x": 2.2163131808,
				"y": 1.6475817583,
				"z": 1.390897316,
				"element": "H" 
			},
			{
				"x": 4.3459206381,
				"y": 0.775265031,
				"z": 2.3182136683,
				"element": "H" 
			},
			{
				"x": 6.9469982627,
				"y": -1.0131615673,
				"z": 0.2836222463,
				"element": "H" 
			},
			{
				"x": 6.7139309734,
				"y": -0.0234920675,
				"z": 1.7351828285,
				"element": "H" 
			},
			{
				"x": 6.0397097331,
				"y": -1.6510935589,
				"z": 1.6583893964,
				"element": "H" 
			},
			{
				"x": 5.2675426005,
				"y": -1.0240055926,
				"z": -1.4748514029,
				"element": "H" 
			},
			{
				"x": 3.1367011531,
				"y": -0.1440583899,
				"z": -2.4092535351,
				"element": "H" 
			}
		],
		 "valence_orbital": [ 
			{
				"type": "occ",
				"energy": -0.28823,
				"method": "rhf"
			},
			{
				"type": "occ",
				"energy": -0.28202,
				"method": "rhf"
			},
			{
				"type": "occ",
				"energy": -0.27486,
				"method": "rhf"
			},
			{
				"type": "occ",
				"energy": -0.26854,
				"method": "rhf"
			},
			{
				"type": "occ",
				"energy": -0.24496,
				"method": "rhf"
			},
			{
				"type": "unocc",
				"energy": -0.05094,
				"method": "rhf"
			},
			{
				"type": "unocc",
				"energy": -0.03562,
				"method": "rhf"
			},
			{
				"type": "unocc",
				"energy": -0.02512,
				"method": "rhf"
			},
			{
				"type": "unocc",
				"energy": 0.01753,
				"method": "rhf"
			},
			{
				"type": "unocc",
				"energy": 0.03014,
				"method": "rhf"
			}
		],
		"cosmo_sigma_profile": { 
			"-0.025": 0.0,
			"-0.024": 0.0,
			"-0.023": 0.0,
			"-0.022": 0.0,
			"-0.021": 0.0,
			"-0.02": 0.0,
			"-0.019": 0.0,
			"-0.018": 0.0,
			"-0.017": 0.0,
			"-0.016": 0.0,
			"-0.015": 0.0,
			"-0.014": 0.0,
			"-0.013": 0.0,
			"-0.012": 0.0,
			"-0.011": 0.0618883923839,
			"-0.01": 0.706195447067,
			"-0.009": 2.60203390647,
			"-0.008": 3.46157389628,
			"-0.007": 8.32573318248,
			"-0.006": 13.5180524872,
			"-0.005": 21.4476368674,
			"-0.004": 21.7278481632,
			"-0.003": 22.5223981313,
			"-0.002": 25.5963777723,
			"-0.001": 34.8064269037,
			"0.0": 33.8784250158,
			"0.001": 37.5102072431,
			"0.002": 55.7810073044,
			"0.003": 19.9610761452,
			"0.004": 5.70270024472,
			"0.005": 5.32909883965,
			"0.006": 4.54583768936,
			"0.007": 3.74316797807,
			"0.008": 6.5735917383,
			"0.009": 9.35301648044,
			"0.01": 6.64320610819,
			"0.011": 0.69093160864,
			"0.012": 0.754958770086,
			"0.013": 0.835309803547,
			"0.014": 0.198002472651,
			"0.015": 0.0,
			"0.016": 0.0,
			"0.017": 0.0,
			"0.018": 0.0,
			"0.019": 0.0,
			"0.02": 0.0,
			"0.021": 0.0,
			"0.022": 0.0,
			"0.023": 0.0,
			"0.024": 0.0,
			"0.025": 0.0
		}
	}
}
