{
	 "smiles": "CC1=NN(CC2=CC=C(Cl)C=C2)C(C)=C1C=O", 
	 "Tm": 345.15, 
	 "num_atms": 30, 
	 "gaussian": { 
		 "optdone": 1, 
		 "sigma_profile": "yes", 
		 "theory": "DFT", 
		 "functional": "B3LYP", 
		 "basiset": "6-31G**", 
		 "properties": { 
			 "R2extent": 6301.5516, 
			 "electric_dipole_moment_norm": 2.59725833525, 
			 "electric_quadrupole_moment_norm": 23.6199064725, 
			 "total_energy": -1148.13259994, 
			 "HOMO_LUMO_gap": 0.20386, 
			 "cosmo_polarized_energy": -12.5, 
			 "cosmo_cavitation_energy": 36.18, 
			 "cosmo_dispersion_energy": -25.14, 
			 "cosmo_repulsion_energy": 1.96, 
			 "cosmo_total_nonelectrostatic_energy": 12.99, 
			 "SMD_solvation_energy": 5.95 
		},
		"coords": [
			{
				"x": 3.5202473704,
				"y": 0.0280025921,
				"z": -2.5429401894,
				"element": "C" 
			},
			{
				"x": 2.8898235205,
				"y": -0.5238319668,
				"z": -1.3002383776,
				"element": "C" 
			},
			{
				"x": 1.7146909506,
				"y": -1.1357651111,
				"z": -1.363456016,
				"element": "N" 
			},
			{
				"x": 1.4396169271,
				"y": -1.5200725525,
				"z": -0.0778159656,
				"element": "N" 
			},
			{
				"x": 0.1651807096,
				"y": -2.1742224517,
				"z": 0.197721516,
				"element": "C" 
			},
			{
				"x": -0.9340191638,
				"y": -1.2157159401,
				"z": 0.622266804,
				"element": "C" 
			},
			{
				"x": -1.6883621384,
				"y": -1.4638985948,
				"z": 1.7728233932,
				"element": "C" 
			},
			{
				"x": -2.7220238365,
				"y": -0.6062866557,
				"z": 2.154666187,
				"element": "C" 
			},
			{
				"x": -2.9926705999,
				"y": 0.5139799068,
				"z": 1.3725549588,
				"element": "C" 
			},
			{
				"x": -4.2873462813,
				"y": 1.6049640551,
				"z": 1.8431513463,
				"element": "Cl" 
			},
			{
				"x": -2.2510080505,
				"y": 0.7855822043,
				"z": 0.2212408342,
				"element": "C" 
			},
			{
				"x": -1.2267815297,
				"y": -0.0827478136,
				"z": -0.1490131382,
				"element": "C" 
			},
			{
				"x": 2.4036712665,
				"y": -1.1594035231,
				"z": 0.7998483859,
				"element": "C" 
			},
			{
				"x": 2.3444065319,
				"y": -1.4465301536,
				"z": 2.2646362346,
				"element": "C" 
			},
			{
				"x": 3.383871027,
				"y": -0.5060204394,
				"z": 0.0407549,
				"element": "C" 
			},
			{
				"x": 4.6366901498,
				"y": 0.0644170372,
				"z": 0.5099602766,
				"element": "C" 
			},
			{
				"x": 5.0384507792,
				"y": 0.0595469594,
				"z": 1.666457799,
				"element": "O" 
			},
			{
				"x": 4.4902939382,
				"y": -0.4394288859,
				"z": -2.7439385537,
				"element": "H" 
			},
			{
				"x": 2.8654123249,
				"y": -0.1583175421,
				"z": -3.3967346761,
				"element": "H" 
			},
			{
				"x": 3.687589381,
				"y": 1.107671918,
				"z": -2.4642607815,
				"element": "H" 
			},
			{
				"x": -0.1053319367,
				"y": -2.6897416699,
				"z": -0.7277678858,
				"element": "H" 
			},
			{
				"x": 0.3235291979,
				"y": -2.9329545995,
				"z": 0.9689916983,
				"element": "H" 
			},
			{
				"x": -1.4739477418,
				"y": -2.3378330904,
				"z": 2.3829932506,
				"element": "H" 
			},
			{
				"x": -3.3044293402,
				"y": -0.8015303249,
				"z": 3.0481716046,
				"element": "H" 
			},
			{
				"x": -2.4765012129,
				"y": 1.6628569387,
				"z": -0.3749496546,
				"element": "H" 
			},
			{
				"x": -0.642689781,
				"y": 0.1189773435,
				"z": -1.0421015651,
				"element": "H" 
			},
			{
				"x": 2.3117688772,
				"y": -2.5254452234,
				"z": 2.4596963335,
				"element": "H" 
			},
			{
				"x": 1.4552959665,
				"y": -0.9989657812,
				"z": 2.7224953215,
				"element": "H" 
			},
			{
				"x": 3.2363864262,
				"y": -1.0343691206,
				"z": 2.7358673595,
				"element": "H" 
			},
			{
				"x": 5.2510862682,
				"y": 0.5372824854,
				"z": -0.2873814003,
				"element": "H" 
			}
		],
		 "valence_orbital": [ 
			{
				"type": "occ",
				"energy": -0.27251,
				"method": "rhf"
			},
			{
				"type": "occ",
				"energy": -0.25855,
				"method": "rhf"
			},
			{
				"type": "occ",
				"energy": -0.25015,
				"method": "rhf"
			},
			{
				"type": "occ",
				"energy": -0.24867,
				"method": "rhf"
			},
			{
				"type": "occ",
				"energy": -0.2445,
				"method": "rhf"
			},
			{
				"type": "unocc",
				"energy": -0.04064,
				"method": "rhf"
			},
			{
				"type": "unocc",
				"energy": -0.02683,
				"method": "rhf"
			},
			{
				"type": "unocc",
				"energy": -0.02287,
				"method": "rhf"
			},
			{
				"type": "unocc",
				"energy": 0.01408,
				"method": "rhf"
			},
			{
				"type": "unocc",
				"energy": 0.02426,
				"method": "rhf"
			}
		],
		"cosmo_sigma_profile": { 
			"-0.025": 0.0,
			"-0.024": 0.0,
			"-0.023": 0.0,
			"-0.022": 0.0,
			"-0.021": 0.0,
			"-0.02": 0.0,
			"-0.019": 0.0,
			"-0.018": 0.0,
			"-0.017": 0.0,
			"-0.016": 0.0,
			"-0.015": 0.0,
			"-0.014": 0.0,
			"-0.013": 0.0,
			"-0.012": 0.0,
			"-0.011": 0.0,
			"-0.01": 0.0,
			"-0.009": 0.0,
			"-0.008": 3.02105146934,
			"-0.007": 10.6884685532,
			"-0.006": 12.8295004541,
			"-0.005": 24.1671853813,
			"-0.004": 22.120587825,
			"-0.003": 22.3500200463,
			"-0.002": 22.9850551156,
			"-0.001": 24.3542105329,
			"0.0": 23.1001830462,
			"0.001": 24.3067539771,
			"0.002": 23.124247274,
			"0.003": 24.3709555009,
			"0.004": 16.9964591337,
			"0.005": 9.92012489284,
			"0.006": 3.47619030915,
			"0.007": 3.15989932166,
			"0.008": 2.3570484733,
			"0.009": 2.95480696192,
			"0.01": 2.81541891041,
			"0.011": 3.23309435141,
			"0.012": 3.96586089764,
			"0.013": 2.79679098205,
			"0.014": 1.50692951542,
			"0.015": 0.229153328707,
			"0.016": 0.0,
			"0.017": 0.0,
			"0.018": 0.0,
			"0.019": 0.0,
			"0.02": 0.0,
			"0.021": 0.0,
			"0.022": 0.0,
			"0.023": 0.0,
			"0.024": 0.0,
			"0.025": 0.0
		}
	}
}
