{
	 "smiles": "COC1=CC(C(N)=O)=C(O)C=C1", 
	 "Tm": 425.15, 
	 "num_atms": 21, 
	 "gaussian": { 
		 "optdone": 1, 
		 "sigma_profile": "yes", 
		 "theory": "DFT", 
		 "functional": "B3LYP", 
		 "basiset": "6-31G**", 
		 "properties": { 
			 "R2extent": 2433.3641, 
			 "electric_dipole_moment_norm": 5.71070860752, 
			 "electric_quadrupole_moment_norm": 16.7782489551, 
			 "total_energy": -590.700196448, 
			 "HOMO_LUMO_gap": 0.18027, 
			 "cosmo_polarized_energy": -18.47, 
			 "cosmo_cavitation_energy": 24.96, 
			 "cosmo_dispersion_energy": -18.96, 
			 "cosmo_repulsion_energy": 1.51, 
			 "cosmo_total_nonelectrostatic_energy": 7.51, 
			 "SMD_solvation_energy": 6.05 
		},
		"coords": [
			{
				"x": 1.3076665316,
				"y": 0.1888406174,
				"z": 3.553466101,
				"element": "C" 
			},
			{
				"x": 1.4545333771,
				"y": 0.7907537767,
				"z": 2.2795144134,
				"element": "O" 
			},
			{
				"x": 0.6063135961,
				"y": 0.3971433443,
				"z": 1.2818436055,
				"element": "C" 
			},
			{
				"x": 0.7880753462,
				"y": 1.0174360453,
				"z": 0.0432974469,
				"element": "C" 
			},
			{
				"x": -0.0060342323,
				"y": 0.7124679772,
				"z": -1.0633449009,
				"element": "C" 
			},
			{
				"x": 0.326388484,
				"y": 1.4770661311,
				"z": -2.3264523891,
				"element": "C" 
			},
			{
				"x": -0.4189333985,
				"y": 1.2152650093,
				"z": -3.4345835055,
				"element": "N" 
			},
			{
				"x": 1.2374970993,
				"y": 2.3004496845,
				"z": -2.3387478904,
				"element": "O" 
			},
			{
				"x": -1.0211641911,
				"y": -0.2565120813,
				"z": -0.9083273596,
				"element": "C" 
			},
			{
				"x": -1.8235804762,
				"y": -0.5812344868,
				"z": -1.9818275778,
				"element": "O" 
			},
			{
				"x": -1.20541783,
				"y": -0.8770634476,
				"z": 0.3252074576,
				"element": "C" 
			},
			{
				"x": -0.4023990931,
				"y": -0.5609107932,
				"z": 1.4231473763,
				"element": "C" 
			},
			{
				"x": 1.4688556367,
				"y": -0.8969539803,
				"z": 3.5123388164,
				"element": "H" 
			},
			{
				"x": 2.070733484,
				"y": 0.6387607271,
				"z": 4.1904091283,
				"element": "H" 
			},
			{
				"x": 0.3172591713,
				"y": 0.3860000949,
				"z": 3.9857157611,
				"element": "H" 
			},
			{
				"x": 1.5657722466,
				"y": 1.7621917878,
				"z": -0.0817966306,
				"element": "H" 
			},
			{
				"x": -1.1673989256,
				"y": 0.5403870163,
				"z": -3.4295473982,
				"element": "H" 
			},
			{
				"x": -0.186640115,
				"y": 1.7312689379,
				"z": -4.2686107992,
				"element": "H" 
			},
			{
				"x": -2.4605600458,
				"y": -1.2535411681,
				"z": -1.7099911317,
				"element": "H" 
			},
			{
				"x": -1.9901982311,
				"y": -1.6230705476,
				"z": 0.4367822272,
				"element": "H" 
			},
			{
				"x": -0.576668434,
				"y": -1.065244645,
				"z": 2.3660072494,
				"element": "H" 
			}
		],
		 "valence_orbital": [ 
			{
				"type": "occ",
				"energy": -0.30292,
				"method": "rhf"
			},
			{
				"type": "occ",
				"energy": -0.25746,
				"method": "rhf"
			},
			{
				"type": "occ",
				"energy": -0.24847,
				"method": "rhf"
			},
			{
				"type": "occ",
				"energy": -0.24027,
				"method": "rhf"
			},
			{
				"type": "occ",
				"energy": -0.20959,
				"method": "rhf"
			},
			{
				"type": "unocc",
				"energy": -0.02932,
				"method": "rhf"
			},
			{
				"type": "unocc",
				"energy": 0.01232,
				"method": "rhf"
			},
			{
				"type": "unocc",
				"energy": 0.05371,
				"method": "rhf"
			},
			{
				"type": "unocc",
				"energy": 0.08025,
				"method": "rhf"
			},
			{
				"type": "unocc",
				"energy": 0.08876,
				"method": "rhf"
			}
		],
		"cosmo_sigma_profile": { 
			"-0.025": 0.0,
			"-0.024": 0.0,
			"-0.023": 0.0,
			"-0.022": 0.0,
			"-0.021": 0.0,
			"-0.02": 0.0,
			"-0.019": 0.0985546365586,
			"-0.018": 0.991598250301,
			"-0.017": 1.49898580257,
			"-0.016": 0.69750071464,
			"-0.015": 1.0081071347,
			"-0.014": 1.26936441586,
			"-0.013": 2.09520341717,
			"-0.012": 2.48462209254,
			"-0.011": 1.9290385173,
			"-0.01": 2.09723379986,
			"-0.009": 2.81515245867,
			"-0.008": 3.35980056897,
			"-0.007": 5.13145640584,
			"-0.006": 9.04743521022,
			"-0.005": 12.6966030768,
			"-0.004": 13.304432526,
			"-0.003": 12.3756824476,
			"-0.002": 9.60131958579,
			"-0.001": 6.88981964744,
			"0.0": 8.59326738126,
			"0.001": 12.945813158,
			"0.002": 14.2043716459,
			"0.003": 18.960661609,
			"0.004": 17.0781538177,
			"0.005": 7.18262545445,
			"0.006": 4.73838898973,
			"0.007": 3.19032991973,
			"0.008": 2.84151404342,
			"0.009": 2.30038627245,
			"0.01": 3.18742926635,
			"0.011": 2.27664074485,
			"0.012": 1.82652175108,
			"0.013": 2.62209393066,
			"0.014": 5.62641348857,
			"0.015": 1.27202064598,
			"0.016": 0.0,
			"0.017": 0.0,
			"0.018": 0.0,
			"0.019": 0.0,
			"0.02": 0.0,
			"0.021": 0.0,
			"0.022": 0.0,
			"0.023": 0.0,
			"0.024": 0.0,
			"0.025": 0.0
		}
	}
}
