{
	 "smiles": "NNC(=O)C1=CC=CC=C1F", 
	 "Tm": 346.15, 
	 "num_atms": 18, 
	 "gaussian": { 
		 "optdone": 1, 
		 "sigma_profile": "yes", 
		 "theory": "DFT", 
		 "functional": "B3LYP", 
		 "basiset": "6-31G**", 
		 "properties": { 
			 "R2extent": 3194.3854, 
			 "electric_dipole_moment_norm": 4.53917799607, 
			 "electric_quadrupole_moment_norm": 28.2500105565, 
			 "total_energy": -555.493615243, 
			 "HOMO_LUMO_gap": 0.21153, 
			 "cosmo_polarized_energy": -16.25, 
			 "cosmo_cavitation_energy": 23.05, 
			 "cosmo_dispersion_energy": -16.76, 
			 "cosmo_repulsion_energy": 1.37, 
			 "cosmo_total_nonelectrostatic_energy": 7.66, 
			 "SMD_solvation_energy": 5.86 
		},
		"coords": [
			{
				"x": 3.3835798158,
				"y": -0.2513785943,
				"z": -0.0481220512,
				"element": "N" 
			},
			{
				"x": 3.5306055144,
				"y": -0.9249888511,
				"z": -1.269483826,
				"element": "N" 
			},
			{
				"x": 2.5560263327,
				"y": -1.7562300529,
				"z": -1.7913153806,
				"element": "C" 
			},
			{
				"x": 2.851887036,
				"y": -2.5654423599,
				"z": -2.6584748741,
				"element": "O" 
			},
			{
				"x": 1.1476567208,
				"y": -1.5693547613,
				"z": -1.3083874847,
				"element": "C" 
			},
			{
				"x": 0.5469673891,
				"y": -0.3053959448,
				"z": -1.2212675883,
				"element": "C" 
			},
			{
				"x": -0.7993223585,
				"y": -0.1689941747,
				"z": -0.8897633134,
				"element": "C" 
			},
			{
				"x": -1.5683260236,
				"y": -1.3043936215,
				"z": -0.6226982724,
				"element": "C" 
			},
			{
				"x": -0.9923104374,
				"y": -2.5720908274,
				"z": -0.6923763249,
				"element": "C" 
			},
			{
				"x": 0.348827719,
				"y": -2.6860545903,
				"z": -1.0415490808,
				"element": "C" 
			},
			{
				"x": 0.8892551615,
				"y": -3.9170753969,
				"z": -1.0865141824,
				"element": "F" 
			},
			{
				"x": 3.9044279333,
				"y": -0.7222059945,
				"z": 0.6891676244,
				"element": "H" 
			},
			{
				"x": 3.7329284251,
				"y": 0.6978552074,
				"z": -0.1402724721,
				"element": "H" 
			},
			{
				"x": 4.4590654003,
				"y": -1.160189069,
				"z": -1.611595457,
				"element": "H" 
			},
			{
				"x": 1.1475569317,
				"y": 0.5732666426,
				"z": -1.4274633704,
				"element": "H" 
			},
			{
				"x": -1.2471503843,
				"y": 0.8184803941,
				"z": -0.8390748171,
				"element": "H" 
			},
			{
				"x": -2.6169500061,
				"y": -1.2058076344,
				"z": -0.3581607961,
				"element": "H" 
			},
			{
				"x": -1.5588251696,
				"y": -3.4734003712,
				"z": -0.4849483329,
				"element": "H" 
			}
		],
		 "valence_orbital": [ 
			{
				"type": "occ",
				"energy": -0.28686,
				"method": "rhf"
			},
			{
				"type": "occ",
				"energy": -0.26381,
				"method": "rhf"
			},
			{
				"type": "occ",
				"energy": -0.25829,
				"method": "rhf"
			},
			{
				"type": "occ",
				"energy": -0.24718,
				"method": "rhf"
			},
			{
				"type": "occ",
				"energy": -0.23915,
				"method": "rhf"
			},
			{
				"type": "unocc",
				"energy": -0.02762,
				"method": "rhf"
			},
			{
				"type": "unocc",
				"energy": 0.00123,
				"method": "rhf"
			},
			{
				"type": "unocc",
				"energy": 0.04451,
				"method": "rhf"
			},
			{
				"type": "unocc",
				"energy": 0.06124,
				"method": "rhf"
			},
			{
				"type": "unocc",
				"energy": 0.09254,
				"method": "rhf"
			}
		],
		"cosmo_sigma_profile": { 
			"-0.025": 0.0,
			"-0.024": 0.0,
			"-0.023": 0.0,
			"-0.022": 0.0,
			"-0.021": 0.0,
			"-0.02": 0.0,
			"-0.019": 0.0,
			"-0.018": 0.0,
			"-0.017": 0.0,
			"-0.016": 0.0,
			"-0.015": 0.0,
			"-0.014": 0.144886045811,
			"-0.013": 1.39835903061,
			"-0.012": 3.12842305567,
			"-0.011": 5.57735114824,
			"-0.01": 5.05607837698,
			"-0.009": 4.6932217221,
			"-0.008": 3.30861161241,
			"-0.007": 6.41603056295,
			"-0.006": 9.14337185182,
			"-0.005": 10.4191470434,
			"-0.004": 9.90183147043,
			"-0.003": 7.90209225164,
			"-0.002": 9.46078212617,
			"-0.001": 8.25564040756,
			"0.0": 10.135354861,
			"0.001": 10.2371743822,
			"0.002": 12.0883281586,
			"0.003": 13.3918455136,
			"0.004": 16.7980100328,
			"0.005": 6.53845388085,
			"0.006": 3.25086222091,
			"0.007": 2.52008248958,
			"0.008": 2.68401601025,
			"0.009": 3.14356220215,
			"0.01": 1.6865676489,
			"0.011": 2.62130485181,
			"0.012": 3.7095036804,
			"0.013": 6.45996265741,
			"0.014": 3.23077655157,
			"0.015": 0.116257455139,
			"0.016": 0.0,
			"0.017": 0.0,
			"0.018": 0.0,
			"0.019": 0.0,
			"0.02": 0.0,
			"0.021": 0.0,
			"0.022": 0.0,
			"0.023": 0.0,
			"0.024": 0.0,
			"0.025": 0.0
		}
	}
}
