{
	 "smiles": "CCCCCCCCCCCCCC=O", 
	 "Tm": 295.35, 
	 "num_atms": 43, 
	 "gaussian": { 
		 "optdone": 1, 
		 "sigma_profile": "yes", 
		 "theory": "DFT", 
		 "functional": "B3LYP", 
		 "basiset": "6-31G**", 
		 "properties": { 
			 "R2extent": 5218.6424, 
			 "electric_dipole_moment_norm": 3.02249284366, 
			 "electric_quadrupole_moment_norm": 12.6553141395, 
			 "total_energy": -625.6165283, 
			 "HOMO_LUMO_gap": 0.2274, 
			 "cosmo_polarized_energy": -6.05, 
			 "cosmo_cavitation_energy": 42.35, 
			 "cosmo_dispersion_energy": -27.16, 
			 "cosmo_repulsion_energy": 2.18, 
			 "cosmo_total_nonelectrostatic_energy": 17.37, 
			 "SMD_solvation_energy": 6.06 
		},
		"coords": [
			{
				"x": 4.1655665083,
				"y": 0.7164023494,
				"z": 1.5245314291,
				"element": "C" 
			},
			{
				"x": 3.3353815163,
				"y": -0.5697287561,
				"z": 1.4715141981,
				"element": "C" 
			},
			{
				"x": 2.5033630384,
				"y": -0.6970337966,
				"z": 0.1886552976,
				"element": "C" 
			},
			{
				"x": 1.6643280766,
				"y": -1.9813917106,
				"z": 0.1362876641,
				"element": "C" 
			},
			{
				"x": 0.9303216389,
				"y": -2.2199585735,
				"z": -1.1954749906,
				"element": "C" 
			},
			{
				"x": -0.1336594065,
				"y": -1.1763958744,
				"z": -1.5808005139,
				"element": "C" 
			},
			{
				"x": -1.3264667748,
				"y": -1.1033779747,
				"z": -0.6154151552,
				"element": "C" 
			},
			{
				"x": -2.4968004212,
				"y": -0.237743298,
				"z": -1.1175668595,
				"element": "C" 
			},
			{
				"x": -2.1862342603,
				"y": 1.2522520765,
				"z": -1.3452415953,
				"element": "C" 
			},
			{
				"x": -1.7805436362,
				"y": 2.0185284841,
				"z": -0.0781266394,
				"element": "C" 
			},
			{
				"x": -1.5303721858,
				"y": 3.5103971628,
				"z": -0.3396885133,
				"element": "C" 
			},
			{
				"x": -1.187773839,
				"y": 4.3500868732,
				"z": 0.9024973061,
				"element": "C" 
			},
			{
				"x": 0.1626302531,
				"y": 4.0140401905,
				"z": 1.5694142733,
				"element": "C" 
			},
			{
				"x": 0.1475538817,
				"y": 2.7697352049,
				"z": 2.4268123516,
				"element": "C" 
			},
			{
				"x": 0.9941295075,
				"y": 1.9015629695,
				"z": 2.4157934166,
				"element": "O" 
			},
			{
				"x": 3.5108843225,
				"y": 1.5933361209,
				"z": 1.5184609496,
				"element": "H" 
			},
			{
				"x": 4.7745350115,
				"y": 0.7609570451,
				"z": 2.4340724859,
				"element": "H" 
			},
			{
				"x": 4.8450552732,
				"y": 0.7883501603,
				"z": 0.6665592601,
				"element": "H" 
			},
			{
				"x": 3.9961408532,
				"y": -1.4435584982,
				"z": 1.5615583865,
				"element": "H" 
			},
			{
				"x": 2.6626328008,
				"y": -0.5974549013,
				"z": 2.3380523893,
				"element": "H" 
			},
			{
				"x": 3.1738385022,
				"y": -0.6669585786,
				"z": -0.6835159076,
				"element": "H" 
			},
			{
				"x": 1.8527217303,
				"y": 0.1831761464,
				"z": 0.1072668924,
				"element": "H" 
			},
			{
				"x": 2.3243676154,
				"y": -2.8406529362,
				"z": 0.3193686498,
				"element": "H" 
			},
			{
				"x": 0.9454769148,
				"y": -1.9779490968,
				"z": 0.9665571879,
				"element": "H" 
			},
			{
				"x": 0.4526128473,
				"y": -3.2091634376,
				"z": -1.1621169615,
				"element": "H" 
			},
			{
				"x": 1.6760562522,
				"y": -2.2720312855,
				"z": -2.0008371514,
				"element": "H" 
			},
			{
				"x": 0.3366984877,
				"y": -0.1892551005,
				"z": -1.6708197395,
				"element": "H" 
			},
			{
				"x": -0.5086431939,
				"y": -1.4217035362,
				"z": -2.5845880549,
				"element": "H" 
			},
			{
				"x": -1.7042697378,
				"y": -2.121210023,
				"z": -0.4454309611,
				"element": "H" 
			},
			{
				"x": -0.9918729865,
				"y": -0.7438647474,
				"z": 0.3655184478,
				"element": "H" 
			},
			{
				"x": -2.8674374119,
				"y": -0.6628151348,
				"z": -2.0604264261,
				"element": "H" 
			},
			{
				"x": -3.3274877576,
				"y": -0.3185130731,
				"z": -0.402777027,
				"element": "H" 
			},
			{
				"x": -3.0753586541,
				"y": 1.7304893139,
				"z": -1.7786437445,
				"element": "H" 
			},
			{
				"x": -1.3941603,
				"y": 1.3570679794,
				"z": -2.098534769,
				"element": "H" 
			},
			{
				"x": -2.5711523661,
				"y": 1.9088878604,
				"z": 0.6790518484,
				"element": "H" 
			},
			{
				"x": -0.881192956,
				"y": 1.5608221365,
				"z": 0.3487435199,
				"element": "H" 
			},
			{
				"x": -0.7223537474,
				"y": 3.6188773551,
				"z": -1.0768823817,
				"element": "H" 
			},
			{
				"x": -2.4249970554,
				"y": 3.9425537627,
				"z": -0.807964151,
				"element": "H" 
			},
			{
				"x": -1.1693744494,
				"y": 5.4076102574,
				"z": 0.615706744,
				"element": "H" 
			},
			{
				"x": -1.9915591648,
				"y": 4.25477427,
				"z": 1.6468068002,
				"element": "H" 
			},
			{
				"x": 0.9722133626,
				"y": 3.9262990686,
				"z": 0.8373512269,
				"element": "H" 
			},
			{
				"x": 0.4262816793,
				"y": 4.8364705124,
				"z": 2.2525196609,
				"element": "H" 
			},
			{
				"x": -0.7180797693,
				"y": 2.7036830328,
				"z": 3.1274511564,
				"element": "H" 
			}
		],
		 "valence_orbital": [ 
			{
				"type": "occ",
				"energy": -0.30402,
				"method": "rhf"
			},
			{
				"type": "occ",
				"energy": -0.29714,
				"method": "rhf"
			},
			{
				"type": "occ",
				"energy": -0.29694,
				"method": "rhf"
			},
			{
				"type": "occ",
				"energy": -0.29249,
				"method": "rhf"
			},
			{
				"type": "occ",
				"energy": -0.25417,
				"method": "rhf"
			},
			{
				"type": "unocc",
				"energy": -0.02677,
				"method": "rhf"
			},
			{
				"type": "unocc",
				"energy": 0.07246,
				"method": "rhf"
			},
			{
				"type": "unocc",
				"energy": 0.09067,
				"method": "rhf"
			},
			{
				"type": "unocc",
				"energy": 0.09944,
				"method": "rhf"
			},
			{
				"type": "unocc",
				"energy": 0.10559,
				"method": "rhf"
			}
		],
		"cosmo_sigma_profile": { 
			"-0.025": 0.0,
			"-0.024": 0.0,
			"-0.023": 0.0,
			"-0.022": 0.0,
			"-0.021": 0.0,
			"-0.02": 0.0,
			"-0.019": 0.0,
			"-0.018": 0.0,
			"-0.017": 0.0,
			"-0.016": 0.0,
			"-0.015": 0.0,
			"-0.014": 0.0,
			"-0.013": 0.0,
			"-0.012": 0.0,
			"-0.011": 0.0,
			"-0.01": 0.0,
			"-0.009": 0.0,
			"-0.008": 0.0,
			"-0.007": 0.502678302651,
			"-0.006": 6.06577712262,
			"-0.005": 8.22938955686,
			"-0.004": 7.75972415846,
			"-0.003": 13.0665912744,
			"-0.002": 36.7837948826,
			"-0.001": 70.4825380625,
			"0.0": 65.7015778074,
			"0.001": 54.8570850398,
			"0.002": 28.7698986641,
			"0.003": 7.00341928411,
			"0.004": 3.6038856206,
			"0.005": 5.28352578494,
			"0.006": 5.12604349633,
			"0.007": 3.90895630779,
			"0.008": 2.64276723186,
			"0.009": 1.64161099405,
			"0.01": 0.844235297991,
			"0.011": 1.34135109935,
			"0.012": 0.63531493869,
			"0.013": 0.0,
			"0.014": 0.0,
			"0.015": 0.0,
			"0.016": 0.0,
			"0.017": 0.0,
			"0.018": 0.0,
			"0.019": 0.0,
			"0.02": 0.0,
			"0.021": 0.0,
			"0.022": 0.0,
			"0.023": 0.0,
			"0.024": 0.0,
			"0.025": 0.0
		}
	}
}
