{
	 "smiles": "CCCCCCCCCCCCCCCCCC", 
	 "Tm": 301.25, 
	 "num_atms": 56, 
	 "gaussian": { 
		 "optdone": 1, 
		 "sigma_profile": "yes", 
		 "theory": "DFT", 
		 "functional": "B3LYP", 
		 "basiset": "6-31G**", 
		 "properties": { 
			 "R2extent": 10921.2884, 
			 "electric_dipole_moment_norm": 0.0457650521687, 
			 "electric_quadrupole_moment_norm": 1.13976543201, 
			 "total_energy": -708.874026061, 
			 "HOMO_LUMO_gap": 0.36597, 
			 "cosmo_polarized_energy": -1.14, 
			 "cosmo_cavitation_energy": 53.25, 
			 "cosmo_dispersion_energy": -35.09, 
			 "cosmo_repulsion_energy": 2.86, 
			 "cosmo_total_nonelectrostatic_energy": 21.03, 
			 "SMD_solvation_energy": 6.87 
		},
		"coords": [
			{
				"x": 3.401886646,
				"y": 1.8134035158,
				"z": 5.462113412,
				"element": "C" 
			},
			{
				"x": 2.2201056284,
				"y": 1.6560066406,
				"z": 4.4998933477,
				"element": "C" 
			},
			{
				"x": 1.1907657672,
				"y": 0.6195361225,
				"z": 4.96820051,
				"element": "C" 
			},
			{
				"x": 0.0024976631,
				"y": 0.4568981072,
				"z": 4.0115553245,
				"element": "C" 
			},
			{
				"x": -1.0230888597,
				"y": -0.5811493053,
				"z": 4.4890583758,
				"element": "C" 
			},
			{
				"x": -2.2673186216,
				"y": -0.7183118957,
				"z": 3.5958509991,
				"element": "C" 
			},
			{
				"x": -1.9969296609,
				"y": -1.2875125673,
				"z": 2.1954779859,
				"element": "C" 
			},
			{
				"x": -3.2816311069,
				"y": -1.4865695141,
				"z": 1.3754918737,
				"element": "C" 
			},
			{
				"x": -3.0934750681,
				"y": -2.103374323,
				"z": -0.027812849,
				"element": "C" 
			},
			{
				"x": -2.8579621494,
				"y": -1.1104008753,
				"z": -1.1836703815,
				"element": "C" 
			},
			{
				"x": -1.5556830061,
				"y": -0.2903548942,
				"z": -1.1732268667,
				"element": "C" 
			},
			{
				"x": -0.272034626,
				"y": -1.1310344917,
				"z": -1.2663979277,
				"element": "C" 
			},
			{
				"x": 1.0381905337,
				"y": -0.3137517599,
				"z": -1.3453348691,
				"element": "C" 
			},
			{
				"x": 1.5567954685,
				"y": -0.0028340516,
				"z": -2.7617558149,
				"element": "C" 
			},
			{
				"x": 0.6649454026,
				"y": 0.9077300853,
				"z": -3.6185638106,
				"element": "C" 
			},
			{
				"x": 1.3089511315,
				"y": 1.3498858478,
				"z": -4.9453065256,
				"element": "C" 
			},
			{
				"x": 1.6273778725,
				"y": 0.2248096074,
				"z": -5.9464408252,
				"element": "C" 
			},
			{
				"x": 0.3975618894,
				"y": -0.5408891078,
				"z": -6.448510771,
				"element": "C" 
			},
			{
				"x": 3.9415008854,
				"y": 0.8672756598,
				"z": 5.5851770378,
				"element": "H" 
			},
			{
				"x": 3.064499313,
				"y": 2.1309561599,
				"z": 6.455489621,
				"element": "H" 
			},
			{
				"x": 4.1175875221,
				"y": 2.5591372273,
				"z": 5.1004987404,
				"element": "H" 
			},
			{
				"x": 1.7220459953,
				"y": 2.6266103165,
				"z": 4.3699273249,
				"element": "H" 
			},
			{
				"x": 2.5925120924,
				"y": 1.3721136791,
				"z": 3.5060530697,
				"element": "H" 
			},
			{
				"x": 1.6892226746,
				"y": -0.3521472145,
				"z": 5.0972516572,
				"element": "H" 
			},
			{
				"x": 0.8197580025,
				"y": 0.9022263319,
				"z": 5.9640507895,
				"element": "H" 
			},
			{
				"x": -0.498906695,
				"y": 1.4279985676,
				"z": 3.8878572511,
				"element": "H" 
			},
			{
				"x": 0.3801450598,
				"y": 0.1821246407,
				"z": 3.0177832862,
				"element": "H" 
			},
			{
				"x": -0.5322229677,
				"y": -1.561035799,
				"z": 4.5790598574,
				"element": "H" 
			},
			{
				"x": -1.3468977261,
				"y": -0.3125326533,
				"z": 5.5039359031,
				"element": "H" 
			},
			{
				"x": -2.9953518173,
				"y": -1.3663187757,
				"z": 4.1031438609,
				"element": "H" 
			},
			{
				"x": -2.7537295999,
				"y": 0.2633817354,
				"z": 3.500407837,
				"element": "H" 
			},
			{
				"x": -1.4842365401,
				"y": -2.2556077573,
				"z": 2.2946404804,
				"element": "H" 
			},
			{
				"x": -1.3044102659,
				"y": -0.6316874949,
				"z": 1.6568653979,
				"element": "H" 
			},
			{
				"x": -3.8098955713,
				"y": -0.5264541382,
				"z": 1.2829724665,
				"element": "H" 
			},
			{
				"x": -3.9502850172,
				"y": -2.1358757757,
				"z": 1.9568487674,
				"element": "H" 
			},
			{
				"x": -3.9998695688,
				"y": -2.6690100809,
				"z": -0.278497656,
				"element": "H" 
			},
			{
				"x": -2.2863213957,
				"y": -2.8473205533,
				"z": 0.0055276421,
				"element": "H" 
			},
			{
				"x": -2.9020198736,
				"y": -1.6717547287,
				"z": -2.1277905047,
				"element": "H" 
			},
			{
				"x": -3.7067851007,
				"y": -0.4131319668,
				"z": -1.2119171079,
				"element": "H" 
			},
			{
				"x": -1.5946164315,
				"y": 0.4133791888,
				"z": -2.0128996567,
				"element": "H" 
			},
			{
				"x": -1.5109886384,
				"y": 0.3336460989,
				"z": -0.2709168713,
				"element": "H" 
			},
			{
				"x": -0.3371764387,
				"y": -1.8012999667,
				"z": -2.1361910487,
				"element": "H" 
			},
			{
				"x": -0.2220707924,
				"y": -1.7889425166,
				"z": -0.3907129425,
				"element": "H" 
			},
			{
				"x": 0.9156204944,
				"y": 0.6256008117,
				"z": -0.7871791875,
				"element": "H" 
			},
			{
				"x": 1.8293428738,
				"y": -0.866957319,
				"z": -0.8237853728,
				"element": "H" 
			},
			{
				"x": 2.5460820673,
				"y": 0.4678783446,
				"z": -2.6692215957,
				"element": "H" 
			},
			{
				"x": 1.7255816148,
				"y": -0.953572466,
				"z": -3.2854989788,
				"element": "H" 
			},
			{
				"x": 0.416307844,
				"y": 1.8077084667,
				"z": -3.039509806,
				"element": "H" 
			},
			{
				"x": -0.2905207505,
				"y": 0.4098893446,
				"z": -3.8237008552,
				"element": "H" 
			},
			{
				"x": 2.2368749033,
				"y": 1.89408132,
				"z": -4.7210800302,
				"element": "H" 
			},
			{
				"x": 0.6431791828,
				"y": 2.0745969347,
				"z": -5.4342037445,
				"element": "H" 
			},
			{
				"x": 2.1463889545,
				"y": 0.6676855398,
				"z": -6.8062393602,
				"element": "H" 
			},
			{
				"x": 2.3398642467,
				"y": -0.4807241242,
				"z": -5.5004010915,
				"element": "H" 
			},
			{
				"x": -0.3325650385,
				"y": 0.1389845216,
				"z": -6.9033413947,
				"element": "H" 
			},
			{
				"x": 0.6762949802,
				"y": -1.2822142319,
				"z": -7.2047782151,
				"element": "H" 
			},
			{
				"x": -0.1103933819,
				"y": -1.0756744676,
				"z": -5.6390467578,
				"element": "H" 
			}
		],
		 "valence_orbital": [ 
			{
				"type": "occ",
				"energy": -0.30632,
				"method": "rhf"
			},
			{
				"type": "occ",
				"energy": -0.2996,
				"method": "rhf"
			},
			{
				"type": "occ",
				"energy": -0.29544,
				"method": "rhf"
			},
			{
				"type": "occ",
				"energy": -0.29258,
				"method": "rhf"
			},
			{
				"type": "occ",
				"energy": -0.29132,
				"method": "rhf"
			},
			{
				"type": "unocc",
				"energy": 0.07465,
				"method": "rhf"
			},
			{
				"type": "unocc",
				"energy": 0.08635,
				"method": "rhf"
			},
			{
				"type": "unocc",
				"energy": 0.09399,
				"method": "rhf"
			},
			{
				"type": "unocc",
				"energy": 0.10039,
				"method": "rhf"
			},
			{
				"type": "unocc",
				"energy": 0.10178,
				"method": "rhf"
			}
		],
		"cosmo_sigma_profile": { 
			"-0.025": 0.0,
			"-0.024": 0.0,
			"-0.023": 0.0,
			"-0.022": 0.0,
			"-0.021": 0.0,
			"-0.02": 0.0,
			"-0.019": 0.0,
			"-0.018": 0.0,
			"-0.017": 0.0,
			"-0.016": 0.0,
			"-0.015": 0.0,
			"-0.014": 0.0,
			"-0.013": 0.0,
			"-0.012": 0.0,
			"-0.011": 0.0,
			"-0.01": 0.0,
			"-0.009": 0.0,
			"-0.008": 0.0,
			"-0.007": 0.0,
			"-0.006": 0.0,
			"-0.005": 0.0,
			"-0.004": 0.0,
			"-0.003": 2.3946164916,
			"-0.002": 39.2945934144,
			"-0.001": 105.873091481,
			"0.0": 114.581878241,
			"0.001": 96.4056526145,
			"0.002": 45.7811427054,
			"0.003": 1.36372499785,
			"0.004": 0.0,
			"0.005": 0.0,
			"0.006": 0.0,
			"0.007": 0.0,
			"0.008": 0.0,
			"0.009": 0.0,
			"0.01": 0.0,
			"0.011": 0.0,
			"0.012": 0.0,
			"0.013": 0.0,
			"0.014": 0.0,
			"0.015": 0.0,
			"0.016": 0.0,
			"0.017": 0.0,
			"0.018": 0.0,
			"0.019": 0.0,
			"0.02": 0.0,
			"0.021": 0.0,
			"0.022": 0.0,
			"0.023": 0.0,
			"0.024": 0.0,
			"0.025": 0.0
		}
	}
}
