{
	 "smiles": "COC1=C(C=C(C)C2=C1CCC2)C#N", 
	 "Tm": 335.65, 
	 "num_atms": 27, 
	 "gaussian": { 
		 "optdone": 1, 
		 "sigma_profile": "yes", 
		 "theory": "DFT", 
		 "functional": "B3LYP", 
		 "basiset": "6-31G**", 
		 "properties": { 
			 "R2extent": 2945.0083, 
			 "electric_dipole_moment_norm": 5.0451055539, 
			 "electric_quadrupole_moment_norm": 15.2998430685, 
			 "total_energy": -595.074464954, 
			 "HOMO_LUMO_gap": 0.19536, 
			 "cosmo_polarized_energy": -9.43, 
			 "cosmo_cavitation_energy": 30.23, 
			 "cosmo_dispersion_energy": -21.25, 
			 "cosmo_repulsion_energy": 1.68, 
			 "cosmo_total_nonelectrostatic_energy": 10.66, 
			 "SMD_solvation_energy": 6.45 
		},
		"coords": [
			{
				"x": -1.0685907478,
				"y": 1.2107956939,
				"z": 3.0347301163,
				"element": "C" 
			},
			{
				"x": -0.2746150283,
				"y": 0.2207309437,
				"z": 2.3659857668,
				"element": "O" 
			},
			{
				"x": 0.1000895771,
				"y": 0.4826196065,
				"z": 1.0758298959,
				"element": "C" 
			},
			{
				"x": 0.9721288698,
				"y": 1.5367948967,
				"z": 0.7202014792,
				"element": "C" 
			},
			{
				"x": 1.3603481696,
				"y": 1.7094136334,
				"z": -0.6233493295,
				"element": "C" 
			},
			{
				"x": 0.9177225653,
				"y": 0.8564327554,
				"z": -1.6350135738,
				"element": "C" 
			},
			{
				"x": 1.3502244166,
				"y": 1.0485252209,
				"z": -3.0680687359,
				"element": "C" 
			},
			{
				"x": 0.0596706133,
				"y": -0.1891107889,
				"z": -1.2606498853,
				"element": "C" 
			},
			{
				"x": -0.3430421877,
				"y": -0.3716851675,
				"z": 0.0666421837,
				"element": "C" 
			},
			{
				"x": -1.241054528,
				"y": -1.5795497025,
				"z": 0.2051320398,
				"element": "C" 
			},
			{
				"x": -1.6710277811,
				"y": -1.8618372413,
				"z": -1.256802116,
				"element": "C" 
			},
			{
				"x": -0.5462788877,
				"y": -1.2630939308,
				"z": -2.1397083472,
				"element": "C" 
			},
			{
				"x": 1.512264426,
				"y": 2.4160801973,
				"z": 1.7115879295,
				"element": "C" 
			},
			{
				"x": 1.9624826133,
				"y": 3.1404860212,
				"z": 2.5041229654,
				"element": "N" 
			},
			{
				"x": -0.5151773078,
				"y": 2.1395987583,
				"z": 3.197086682,
				"element": "H" 
			},
			{
				"x": -1.9840318144,
				"y": 1.4211555142,
				"z": 2.4683593683,
				"element": "H" 
			},
			{
				"x": -1.3316038161,
				"y": 0.7771050687,
				"z": 4.00087765,
				"element": "H" 
			},
			{
				"x": 2.0308953993,
				"y": 2.5292671697,
				"z": -0.8628095678,
				"element": "H" 
			},
			{
				"x": 2.0170487508,
				"y": 1.9086255827,
				"z": -3.1697474715,
				"element": "H" 
			},
			{
				"x": 1.8802718094,
				"y": 0.167238148,
				"z": -3.4481223978,
				"element": "H" 
			},
			{
				"x": 0.490340975,
				"y": 1.2120567861,
				"z": -3.7285487315,
				"element": "H" 
			},
			{
				"x": -0.6748407238,
				"y": -2.4213800314,
				"z": 0.6264210118,
				"element": "H" 
			},
			{
				"x": -2.087228361,
				"y": -1.4091595697,
				"z": 0.8770138795,
				"element": "H" 
			},
			{
				"x": -1.8421382854,
				"y": -2.9239109319,
				"z": -1.451481945,
				"element": "H" 
			},
			{
				"x": -2.6094781064,
				"y": -1.3364700387,
				"z": -1.4656565803,
				"element": "H" 
			},
			{
				"x": -0.9177083853,
				"y": -0.8781786632,
				"z": -3.0956837125,
				"element": "H" 
			},
			{
				"x": 0.2143277751,
				"y": -2.0191499307,
				"z": -2.3840485743,
				"element": "H" 
			}
		],
		 "valence_orbital": [ 
			{
				"type": "occ",
				"energy": -0.32365,
				"method": "rhf"
			},
			{
				"type": "occ",
				"energy": -0.31645,
				"method": "rhf"
			},
			{
				"type": "occ",
				"energy": -0.28724,
				"method": "rhf"
			},
			{
				"type": "occ",
				"energy": -0.24624,
				"method": "rhf"
			},
			{
				"type": "occ",
				"energy": -0.2365,
				"method": "rhf"
			},
			{
				"type": "unocc",
				"energy": -0.04114,
				"method": "rhf"
			},
			{
				"type": "unocc",
				"energy": -0.00862,
				"method": "rhf"
			},
			{
				"type": "unocc",
				"energy": 0.04106,
				"method": "rhf"
			},
			{
				"type": "unocc",
				"energy": 0.07913,
				"method": "rhf"
			},
			{
				"type": "unocc",
				"energy": 0.08075,
				"method": "rhf"
			}
		],
		"cosmo_sigma_profile": { 
			"-0.025": 0.0,
			"-0.024": 0.0,
			"-0.023": 0.0,
			"-0.022": 0.0,
			"-0.021": 0.0,
			"-0.02": 0.0,
			"-0.019": 0.0,
			"-0.018": 0.0,
			"-0.017": 0.0,
			"-0.016": 0.0,
			"-0.015": 0.0,
			"-0.014": 0.0,
			"-0.013": 0.0,
			"-0.012": 0.0,
			"-0.011": 0.0,
			"-0.01": 0.0,
			"-0.009": 0.0,
			"-0.008": 0.0212382273553,
			"-0.007": 1.73392279034,
			"-0.006": 4.50768033987,
			"-0.005": 9.92624020678,
			"-0.004": 23.6135743915,
			"-0.003": 34.5648550742,
			"-0.002": 32.2820442416,
			"-0.001": 27.3390054079,
			"0.0": 28.2477848057,
			"0.001": 14.3949884277,
			"0.002": 13.8908269658,
			"0.003": 12.1296220468,
			"0.004": 5.23348701009,
			"0.005": 3.08200551521,
			"0.006": 3.82612596959,
			"0.007": 3.85798487823,
			"0.008": 4.16265273412,
			"0.009": 3.62995495654,
			"0.01": 4.70392311641,
			"0.011": 3.45203486832,
			"0.012": 2.73477617071,
			"0.013": 1.83888872193,
			"0.014": 0.349224745334,
			"0.015": 0.0,
			"0.016": 0.0,
			"0.017": 0.0,
			"0.018": 0.0,
			"0.019": 0.0,
			"0.02": 0.0,
			"0.021": 0.0,
			"0.022": 0.0,
			"0.023": 0.0,
			"0.024": 0.0,
			"0.025": 0.0
		}
	}
}
