{
	 "smiles": "CSC#N", 
	 "Tm": 268.15, 
	 "num_atms": 7, 
	 "gaussian": { 
		 "optdone": 1, 
		 "sigma_profile": "yes", 
		 "theory": "DFT", 
		 "functional": "B3LYP", 
		 "basiset": "6-31G**", 
		 "properties": { 
			 "R2extent": 730.4739, 
			 "electric_dipole_moment_norm": 4.04625919709, 
			 "electric_quadrupole_moment_norm": 9.99963363129, 
			 "total_energy": -530.929209457, 
			 "HOMO_LUMO_gap": 0.23844, 
			 "cosmo_polarized_energy": -7.97, 
			 "cosmo_cavitation_energy": 13.42, 
			 "cosmo_dispersion_energy": -10.01, 
			 "cosmo_repulsion_energy": 0.87, 
			 "cosmo_total_nonelectrostatic_energy": 4.29, 
			 "SMD_solvation_energy": 4.81 
		},
		"coords": [
			{
				"x": 0.6346604896,
				"y": -0.6682580631,
				"z": -0.0988821221,
				"element": "C" 
			},
			{
				"x": -0.3132187566,
				"y": -0.1606942305,
				"z": 1.3949274919,
				"element": "S" 
			},
			{
				"x": -1.1251221478,
				"y": -1.616607701,
				"z": 1.7337583698,
				"element": "C" 
			},
			{
				"x": -1.6993021891,
				"y": -2.5968936029,
				"z": 1.9978514222,
				"element": "N" 
			},
			{
				"x": -0.044652614,
				"y": -0.9594719818,
				"z": -0.8998886577,
				"element": "H" 
			},
			{
				"x": 1.198420045,
				"y": 0.2181754787,
				"z": -0.3961323338,
				"element": "H" 
			},
			{
				"x": 1.3219151729,
				"y": -1.4786498994,
				"z": 0.1436658296,
				"element": "H" 
			}
		],
		 "valence_orbital": [ 
			{
				"type": "occ",
				"energy": -0.40177,
				"method": "rhf"
			},
			{
				"type": "occ",
				"energy": -0.37092,
				"method": "rhf"
			},
			{
				"type": "occ",
				"energy": -0.3631,
				"method": "rhf"
			},
			{
				"type": "occ",
				"energy": -0.33136,
				"method": "rhf"
			},
			{
				"type": "occ",
				"energy": -0.26684,
				"method": "rhf"
			},
			{
				"type": "unocc",
				"energy": -0.0284,
				"method": "rhf"
			},
			{
				"type": "unocc",
				"energy": 0.03723,
				"method": "rhf"
			},
			{
				"type": "unocc",
				"energy": 0.03823,
				"method": "rhf"
			},
			{
				"type": "unocc",
				"energy": 0.0633,
				"method": "rhf"
			},
			{
				"type": "unocc",
				"energy": 0.09568,
				"method": "rhf"
			}
		],
		"cosmo_sigma_profile": { 
			"-0.025": 0.0,
			"-0.024": 0.0,
			"-0.023": 0.0,
			"-0.022": 0.0,
			"-0.021": 0.0,
			"-0.02": 0.0,
			"-0.019": 0.0,
			"-0.018": 0.0,
			"-0.017": 0.0,
			"-0.016": 0.0,
			"-0.015": 0.0,
			"-0.014": 0.0,
			"-0.013": 0.0,
			"-0.012": 0.0,
			"-0.011": 0.0,
			"-0.01": 0.400911325115,
			"-0.009": 1.8490875075,
			"-0.008": 4.74122480161,
			"-0.007": 6.83174353498,
			"-0.006": 7.00345764873,
			"-0.005": 7.28437530934,
			"-0.004": 9.68060523721,
			"-0.003": 8.96626251392,
			"-0.002": 5.07174797619,
			"-0.001": 5.88020449685,
			"0.0": 6.69357129895,
			"0.001": 5.86266598786,
			"0.002": 5.28638082807,
			"0.003": 5.38443322272,
			"0.004": 4.14566121413,
			"0.005": 3.57711890963,
			"0.006": 2.57173807492,
			"0.007": 3.07867649563,
			"0.008": 3.73414272963,
			"0.009": 3.19263180762,
			"0.01": 3.26205254015,
			"0.011": 2.62864264598,
			"0.012": 2.45610558946,
			"0.013": 0.80865143382,
			"0.014": 0.0,
			"0.015": 0.0,
			"0.016": 0.0,
			"0.017": 0.0,
			"0.018": 0.0,
			"0.019": 0.0,
			"0.02": 0.0,
			"0.021": 0.0,
			"0.022": 0.0,
			"0.023": 0.0,
			"0.024": 0.0,
			"0.025": 0.0
		}
	}
}
