{
	 "smiles": "CCOC(=O)CC1=NC2=C(S1)C=CC(Cl)=C2", 
	 "Tm": 353.15, 
	 "num_atms": 26, 
	 "gaussian": { 
		 "optdone": 1, 
		 "sigma_profile": "yes", 
		 "theory": "DFT", 
		 "functional": "B3LYP", 
		 "basiset": "6-31G**", 
		 "properties": { 
			 "R2extent": 8657.0301, 
			 "electric_dipole_moment_norm": 3.82365123148, 
			 "electric_quadrupole_moment_norm": 14.9564942176, 
			 "total_energy": -1488.80134842, 
			 "HOMO_LUMO_gap": 0.19122, 
			 "cosmo_polarized_energy": -10.24, 
			 "cosmo_cavitation_energy": 34.11, 
			 "cosmo_dispersion_energy": -25.7, 
			 "cosmo_repulsion_energy": 1.98, 
			 "cosmo_total_nonelectrostatic_energy": 10.39, 
			 "SMD_solvation_energy": 4.31 
		},
		"coords": [
			{
				"x": -3.1542303352,
				"y": 2.0488639543,
				"z": -2.7200327585,
				"element": "C" 
			},
			{
				"x": -1.6432070209,
				"y": 2.0941593638,
				"z": -2.8833579385,
				"element": "C" 
			},
			{
				"x": -0.9840031757,
				"y": 2.3531396807,
				"z": -1.614546109,
				"element": "O" 
			},
			{
				"x": -0.744627809,
				"y": 1.2880193931,
				"z": -0.8308246531,
				"element": "C" 
			},
			{
				"x": -1.019029004,
				"y": 0.1420542213,
				"z": -1.1210968653,
				"element": "O" 
			},
			{
				"x": -0.1335411906,
				"y": 1.724326755,
				"z": 0.4889236934,
				"element": "C" 
			},
			{
				"x": 0.7796754267,
				"y": 0.7279466213,
				"z": 1.1474969348,
				"element": "C" 
			},
			{
				"x": 1.7876802392,
				"y": 1.1133855213,
				"z": 1.8652460666,
				"element": "N" 
			},
			{
				"x": 2.4343579499,
				"y": 0.0318682849,
				"z": 2.4404560299,
				"element": "C" 
			},
			{
				"x": 1.875103494,
				"y": -1.2325526584,
				"z": 2.1416453962,
				"element": "C" 
			},
			{
				"x": 0.4995848725,
				"y": -1.0264247899,
				"z": 1.0784167086,
				"element": "S" 
			},
			{
				"x": 2.4359729058,
				"y": -2.406531767,
				"z": 2.6524101527,
				"element": "C" 
			},
			{
				"x": 3.5547019202,
				"y": -2.3089210612,
				"z": 3.4734287451,
				"element": "C" 
			},
			{
				"x": 4.1030003216,
				"y": -1.0489943853,
				"z": 3.7681908999,
				"element": "C" 
			},
			{
				"x": 5.5194393087,
				"y": -0.9685823686,
				"z": 4.8093373314,
				"element": "Cl" 
			},
			{
				"x": 3.5650120002,
				"y": 0.1264500923,
				"z": 3.26549012,
				"element": "C" 
			},
			{
				"x": -3.5263449382,
				"y": 2.9731474508,
				"z": -2.2685852404,
				"element": "H" 
			},
			{
				"x": -3.4502585703,
				"y": 1.2028184991,
				"z": -2.0948806636,
				"element": "H" 
			},
			{
				"x": -3.6276628875,
				"y": 1.9310834482,
				"z": -3.7002484222,
				"element": "H" 
			},
			{
				"x": -1.2584274073,
				"y": 1.1570699877,
				"z": -3.291695745,
				"element": "H" 
			},
			{
				"x": -1.3308118192,
				"y": 2.9247647746,
				"z": -3.5197861313,
				"element": "H" 
			},
			{
				"x": -0.9780644378,
				"y": 1.9350567685,
				"z": 1.161877748,
				"element": "H" 
			},
			{
				"x": 0.4100096586,
				"y": 2.663051566,
				"z": 0.3688817786,
				"element": "H" 
			},
			{
				"x": 2.0135833308,
				"y": -3.3792729523,
				"z": 2.4222988654,
				"element": "H" 
			},
			{
				"x": 4.0094005102,
				"y": -3.200635886,
				"z": 3.8896405805,
				"element": "H" 
			},
			{
				"x": 3.9937866573,
				"y": 1.0946094855,
				"z": 3.4946134756,
				"element": "H" 
			}
		],
		 "valence_orbital": [ 
			{
				"type": "occ",
				"energy": -0.29857,
				"method": "rhf"
			},
			{
				"type": "occ",
				"energy": -0.28899,
				"method": "rhf"
			},
			{
				"type": "occ",
				"energy": -0.2809,
				"method": "rhf"
			},
			{
				"type": "occ",
				"energy": -0.2436,
				"method": "rhf"
			},
			{
				"type": "occ",
				"energy": -0.23328,
				"method": "rhf"
			},
			{
				"type": "unocc",
				"energy": -0.04206,
				"method": "rhf"
			},
			{
				"type": "unocc",
				"energy": -0.0135,
				"method": "rhf"
			},
			{
				"type": "unocc",
				"energy": -0.00391,
				"method": "rhf"
			},
			{
				"type": "unocc",
				"energy": 0.01507,
				"method": "rhf"
			},
			{
				"type": "unocc",
				"energy": 0.02642,
				"method": "rhf"
			}
		],
		"cosmo_sigma_profile": { 
			"-0.025": 0.0,
			"-0.024": 0.0,
			"-0.023": 0.0,
			"-0.022": 0.0,
			"-0.021": 0.0,
			"-0.02": 0.0,
			"-0.019": 0.0,
			"-0.018": 0.0,
			"-0.017": 0.0,
			"-0.016": 0.0,
			"-0.015": 0.0,
			"-0.014": 0.0,
			"-0.013": 0.0,
			"-0.012": 0.0,
			"-0.011": 0.0,
			"-0.01": 0.419519431361,
			"-0.009": 2.86715900833,
			"-0.008": 5.30013394737,
			"-0.007": 9.15256035734,
			"-0.006": 12.066967339,
			"-0.005": 16.5214874575,
			"-0.004": 19.7184909738,
			"-0.003": 20.6629772541,
			"-0.002": 18.8567545364,
			"-0.001": 20.8553578986,
			"0.0": 23.0983868957,
			"0.001": 22.9005150004,
			"0.002": 29.6242145076,
			"0.003": 22.3867445732,
			"0.004": 16.1928914474,
			"0.005": 11.5955463536,
			"0.006": 4.22984012913,
			"0.007": 4.38564399239,
			"0.008": 3.31251325228,
			"0.009": 3.09629975336,
			"0.01": 3.32688770128,
			"0.011": 4.04753027546,
			"0.012": 0.984194346048,
			"0.013": 0.60095503207,
			"0.014": 0.587150826333,
			"0.015": 0.0412449430488,
			"0.016": 0.0,
			"0.017": 0.0,
			"0.018": 0.0,
			"0.019": 0.0,
			"0.02": 0.0,
			"0.021": 0.0,
			"0.022": 0.0,
			"0.023": 0.0,
			"0.024": 0.0,
			"0.025": 0.0
		}
	}
}
