{
	 "smiles": "CC1=CC=C(OCC(O)=O)C=C1C", 
	 "Tm": 436.15, 
	 "num_atms": 25, 
	 "gaussian": { 
		 "optdone": 1, 
		 "sigma_profile": "yes", 
		 "theory": "DFT", 
		 "functional": "B3LYP", 
		 "basiset": "6-31G**", 
		 "properties": { 
			 "R2extent": 3715.9914, 
			 "electric_dipole_moment_norm": 3.86007950177, 
			 "electric_quadrupole_moment_norm": 9.8841251363, 
			 "total_energy": -613.977449973, 
			 "HOMO_LUMO_gap": 0.21647, 
			 "cosmo_polarized_energy": -12.03, 
			 "cosmo_cavitation_energy": 28.55, 
			 "cosmo_dispersion_energy": -20.5, 
			 "cosmo_repulsion_energy": 1.64, 
			 "cosmo_total_nonelectrostatic_energy": 9.69, 
			 "SMD_solvation_energy": 6.33 
		},
		"coords": [
			{
				"x": -2.4795162392,
				"y": 3.4108717531,
				"z": 0.6673438746,
				"element": "C" 
			},
			{
				"x": -1.0971906115,
				"y": 2.8715255803,
				"z": 0.3866182264,
				"element": "C" 
			},
			{
				"x": 0.0337460033,
				"y": 3.6653423805,
				"z": 0.6152994,
				"element": "C" 
			},
			{
				"x": 1.3217469772,
				"y": 3.2018421564,
				"z": 0.3639919893,
				"element": "C" 
			},
			{
				"x": 1.4928561328,
				"y": 1.9075265664,
				"z": -0.1257738528,
				"element": "C" 
			},
			{
				"x": 2.8072976047,
				"y": 1.5093944333,
				"z": -0.3295265606,
				"element": "O" 
			},
			{
				"x": 3.0465154519,
				"y": 0.3545306472,
				"z": -1.1255443809,
				"element": "C" 
			},
			{
				"x": 3.0112470069,
				"y": -0.9443024853,
				"z": -0.3111532837,
				"element": "C" 
			},
			{
				"x": 3.1344151409,
				"y": -0.7710026647,
				"z": 1.0176646011,
				"element": "O" 
			},
			{
				"x": 2.9249829586,
				"y": -2.0309193005,
				"z": -0.8263846338,
				"element": "O" 
			},
			{
				"x": 0.3833110625,
				"y": 1.0916486693,
				"z": -0.3569197636,
				"element": "C" 
			},
			{
				"x": -0.912524929,
				"y": 1.5643938112,
				"z": -0.1067823625,
				"element": "C" 
			},
			{
				"x": -2.0956789883,
				"y": 0.6615627043,
				"z": -0.3639596168,
				"element": "C" 
			},
			{
				"x": -2.4321481047,
				"y": 4.4372527502,
				"z": 1.0406147824,
				"element": "H" 
			},
			{
				"x": -3.0073853117,
				"y": 2.8087454296,
				"z": 1.4170063607,
				"element": "H" 
			},
			{
				"x": -3.106788189,
				"y": 3.4129710821,
				"z": -0.2324912711,
				"element": "H" 
			},
			{
				"x": -0.0976710428,
				"y": 4.6755661361,
				"z": 0.9945294705,
				"element": "H" 
			},
			{
				"x": 2.1933361121,
				"y": 3.8248870727,
				"z": 0.5349025938,
				"element": "H" 
			},
			{
				"x": 4.0579191403,
				"y": 0.4688791152,
				"z": -1.5291689498,
				"element": "H" 
			},
			{
				"x": 2.3503555344,
				"y": 0.2739981266,
				"z": -1.9645285627,
				"element": "H" 
			},
			{
				"x": 3.1690088615,
				"y": 0.1874288249,
				"z": 1.1883719446,
				"element": "H" 
			},
			{
				"x": 0.5026928617,
				"y": 0.0764128328,
				"z": -0.7205277257,
				"element": "H" 
			},
			{
				"x": -2.7784792446,
				"y": 1.0949947164,
				"z": -1.1047143046,
				"element": "H" 
			},
			{
				"x": -1.7778771087,
				"y": -0.3162366027,
				"z": -0.7343319749,
				"element": "H" 
			},
			{
				"x": -2.6829710792,
				"y": 0.4990862647,
				"z": 0.547664,
				"element": "H" 
			}
		],
		 "valence_orbital": [ 
			{
				"type": "occ",
				"energy": -0.33115,
				"method": "rhf"
			},
			{
				"type": "occ",
				"energy": -0.31624,
				"method": "rhf"
			},
			{
				"type": "occ",
				"energy": -0.27192,
				"method": "rhf"
			},
			{
				"type": "occ",
				"energy": -0.2534,
				"method": "rhf"
			},
			{
				"type": "occ",
				"energy": -0.22685,
				"method": "rhf"
			},
			{
				"type": "unocc",
				"energy": -0.01038,
				"method": "rhf"
			},
			{
				"type": "unocc",
				"energy": 0.00187,
				"method": "rhf"
			},
			{
				"type": "unocc",
				"energy": 0.00697,
				"method": "rhf"
			},
			{
				"type": "unocc",
				"energy": 0.07896,
				"method": "rhf"
			},
			{
				"type": "unocc",
				"energy": 0.08585,
				"method": "rhf"
			}
		],
		"cosmo_sigma_profile": { 
			"-0.025": 0.0,
			"-0.024": 0.0,
			"-0.023": 0.0,
			"-0.022": 0.0,
			"-0.021": 0.0,
			"-0.02": 0.0,
			"-0.019": 0.0,
			"-0.018": 0.0,
			"-0.017": 0.0,
			"-0.016": 0.134395258431,
			"-0.015": 0.772388172734,
			"-0.014": 0.26717109252,
			"-0.013": 0.230172785279,
			"-0.012": 1.23977314604,
			"-0.011": 0.893534407706,
			"-0.01": 1.53441186507,
			"-0.009": 4.04517358425,
			"-0.008": 5.23449810231,
			"-0.007": 5.78224612685,
			"-0.006": 8.68556229414,
			"-0.005": 11.320956873,
			"-0.004": 19.1996396586,
			"-0.003": 19.7575610962,
			"-0.002": 16.8791563653,
			"-0.001": 17.7730090375,
			"0.0": 22.1007707467,
			"0.001": 14.4942087829,
			"0.002": 9.6018411818,
			"0.003": 10.6348839686,
			"0.004": 9.96223341873,
			"0.005": 10.7890483652,
			"0.006": 7.08782167304,
			"0.007": 2.86505349191,
			"0.008": 4.19740693934,
			"0.009": 5.02557483269,
			"0.01": 4.51133105925,
			"0.011": 4.61435144219,
			"0.012": 4.9613725605,
			"0.013": 1.06599692329,
			"0.014": 0.0,
			"0.015": 0.0,
			"0.016": 0.0,
			"0.017": 0.0,
			"0.018": 0.0,
			"0.019": 0.0,
			"0.02": 0.0,
			"0.021": 0.0,
			"0.022": 0.0,
			"0.023": 0.0,
			"0.024": 0.0,
			"0.025": 0.0
		}
	}
}
