{
	 "smiles": "CCOC(=O)C(C#N)=C(N)C1=CC2=C(OC1=O)C=CC=C2", 
	 "Tm": 521.15, 
	 "num_atms": 33, 
	 "gaussian": { 
		 "optdone": 1, 
		 "sigma_profile": "yes", 
		 "theory": "DFT", 
		 "functional": "B3LYP", 
		 "basiset": "6-31G**", 
		 "properties": { 
			 "R2extent": 6799.9982, 
			 "electric_dipole_moment_norm": 6.88761635473, 
			 "electric_quadrupole_moment_norm": 17.5964141839, 
			 "total_energy": -989.224892682, 
			 "HOMO_LUMO_gap": 0.14945, 
			 "cosmo_polarized_energy": -26.2, 
			 "cosmo_cavitation_energy": 39.38, 
			 "cosmo_dispersion_energy": -26.96, 
			 "cosmo_repulsion_energy": 2.1, 
			 "cosmo_total_nonelectrostatic_energy": 14.51, 
			 "SMD_solvation_energy": 9.73 
		},
		"coords": [
			{
				"x": -4.0794566902,
				"y": 3.069794347,
				"z": -0.0098951812,
				"element": "C" 
			},
			{
				"x": -3.0924892577,
				"y": 3.3298649384,
				"z": 1.1182393099,
				"element": "C" 
			},
			{
				"x": -1.7286939369,
				"y": 3.3086021262,
				"z": 0.633941582,
				"element": "O" 
			},
			{
				"x": -1.1383334523,
				"y": 2.0984678752,
				"z": 0.5476511056,
				"element": "C" 
			},
			{
				"x": -1.6715394821,
				"y": 1.0543848515,
				"z": 0.8846710986,
				"element": "O" 
			},
			{
				"x": 0.2306594334,
				"y": 2.2184995739,
				"z": 0.0144399889,
				"element": "C" 
			},
			{
				"x": 0.810407609,
				"y": 3.5015835735,
				"z": -0.1969146488,
				"element": "C" 
			},
			{
				"x": 1.3857441313,
				"y": 4.4970174423,
				"z": -0.3931370793,
				"element": "N" 
			},
			{
				"x": 1.0090959526,
				"y": 1.1110333935,
				"z": -0.2636916626,
				"element": "C" 
			},
			{
				"x": 2.3180225504,
				"y": 1.227589617,
				"z": -0.6072167534,
				"element": "N" 
			},
			{
				"x": 0.5189803443,
				"y": -0.2877377494,
				"z": -0.1559169184,
				"element": "C" 
			},
			{
				"x": 1.1174704744,
				"y": -1.1777828353,
				"z": 0.6764075862,
				"element": "C" 
			},
			{
				"x": 0.6356306546,
				"y": -2.5274701148,
				"z": 0.7932576184,
				"element": "C" 
			},
			{
				"x": -0.4694751218,
				"y": -2.8916749325,
				"z": 0.001466564,
				"element": "C" 
			},
			{
				"x": -1.0312551845,
				"y": -2.010416528,
				"z": -0.8751559546,
				"element": "O" 
			},
			{
				"x": -0.5824043156,
				"y": -0.7071327664,
				"z": -1.043618299,
				"element": "C" 
			},
			{
				"x": -1.0836735198,
				"y": -0.0429657139,
				"z": -1.9156299078,
				"element": "O" 
			},
			{
				"x": -1.0224712349,
				"y": -4.171230946,
				"z": 0.0729340554,
				"element": "C" 
			},
			{
				"x": -0.4604847651,
				"y": -5.0995899144,
				"z": 0.9433406099,
				"element": "C" 
			},
			{
				"x": 0.6445837996,
				"y": -4.7616087358,
				"z": 1.7406113119,
				"element": "C" 
			},
			{
				"x": 1.1854655065,
				"y": -3.4861716275,
				"z": 1.6659191637,
				"element": "C" 
			},
			{
				"x": -3.9438309015,
				"y": 2.06371642,
				"z": -0.4139442341,
				"element": "H" 
			},
			{
				"x": -5.1042096511,
				"y": 3.156276665,
				"z": 0.3670030015,
				"element": "H" 
			},
			{
				"x": -3.946516603,
				"y": 3.7956623305,
				"z": -0.8171804427,
				"element": "H" 
			},
			{
				"x": -3.2127852005,
				"y": 4.3319580491,
				"z": 1.5362144985,
				"element": "H" 
			},
			{
				"x": -3.195800918,
				"y": 2.5882377023,
				"z": 1.9139526911,
				"element": "H" 
			},
			{
				"x": 2.772093328,
				"y": 0.4532835457,
				"z": -1.0651081782,
				"element": "H" 
			},
			{
				"x": 2.7028719626,
				"y": 2.1513816828,
				"z": -0.761135985,
				"element": "H" 
			},
			{
				"x": 1.9485452692,
				"y": -0.8618514992,
				"z": 1.3023259181,
				"element": "H" 
			},
			{
				"x": -1.8754842958,
				"y": -4.4121384453,
				"z": -0.5516799688,
				"element": "H" 
			},
			{
				"x": -0.8848741878,
				"y": -6.0970940465,
				"z": 1.0041589015,
				"element": "H" 
			},
			{
				"x": 1.0720333985,
				"y": -5.4958802693,
				"z": 2.4155875158,
				"element": "H" 
			},
			{
				"x": 2.0362743041,
				"y": -3.20920801,
				"z": 2.2824026927,
				"element": "H" 
			}
		],
		 "valence_orbital": [ 
			{
				"type": "occ",
				"energy": -0.28464,
				"method": "rhf"
			},
			{
				"type": "occ",
				"energy": -0.27612,
				"method": "rhf"
			},
			{
				"type": "occ",
				"energy": -0.26287,
				"method": "rhf"
			},
			{
				"type": "occ",
				"energy": -0.24715,
				"method": "rhf"
			},
			{
				"type": "occ",
				"energy": -0.23276,
				"method": "rhf"
			},
			{
				"type": "unocc",
				"energy": -0.08331,
				"method": "rhf"
			},
			{
				"type": "unocc",
				"energy": -0.0435,
				"method": "rhf"
			},
			{
				"type": "unocc",
				"energy": -0.02066,
				"method": "rhf"
			},
			{
				"type": "unocc",
				"energy": -0.00716,
				"method": "rhf"
			},
			{
				"type": "unocc",
				"energy": 0.03149,
				"method": "rhf"
			}
		],
		"cosmo_sigma_profile": { 
			"-0.025": 0.0,
			"-0.024": 0.0,
			"-0.023": 0.0,
			"-0.022": 0.0,
			"-0.021": 0.0,
			"-0.02": 0.0,
			"-0.019": 0.0,
			"-0.018": 0.0,
			"-0.017": 0.0,
			"-0.016": 0.834110364869,
			"-0.015": 1.64153267609,
			"-0.014": 2.4603213952,
			"-0.013": 2.69855334658,
			"-0.012": 1.76386380725,
			"-0.011": 2.08213250099,
			"-0.01": 2.38012547109,
			"-0.009": 5.39194033103,
			"-0.008": 5.12587495645,
			"-0.007": 11.9465522759,
			"-0.006": 15.6022161729,
			"-0.005": 18.232987006,
			"-0.004": 21.3202581044,
			"-0.003": 20.888294819,
			"-0.002": 20.3102947265,
			"-0.001": 24.7749732803,
			"0.0": 26.8945078481,
			"0.001": 20.7353633205,
			"0.002": 16.6124650726,
			"0.003": 15.8581606319,
			"0.004": 9.10096786596,
			"0.005": 7.30111524512,
			"0.006": 7.01189560515,
			"0.007": 9.11980227685,
			"0.008": 9.71714248548,
			"0.009": 8.16135010591,
			"0.01": 7.31944731426,
			"0.011": 9.32036100756,
			"0.012": 7.59200762178,
			"0.013": 3.05086698968,
			"0.014": 0.522602797759,
			"0.015": 0.0,
			"0.016": 0.0,
			"0.017": 0.0,
			"0.018": 0.0,
			"0.019": 0.0,
			"0.02": 0.0,
			"0.021": 0.0,
			"0.022": 0.0,
			"0.023": 0.0,
			"0.024": 0.0,
			"0.025": 0.0
		}
	}
}
