{
	 "smiles": "COC1=C(C#N)C(OCC2=CC=CC=C2)=CC=C1", 
	 "Tm": 344.15, 
	 "num_atms": 31, 
	 "gaussian": { 
		 "optdone": 1, 
		 "sigma_profile": "yes", 
		 "theory": "DFT", 
		 "functional": "B3LYP", 
		 "basiset": "6-31G**", 
		 "properties": { 
			 "R2extent": 5907.0001, 
			 "electric_dipole_moment_norm": 6.00839886908, 
			 "electric_quadrupole_moment_norm": 31.1102253028, 
			 "total_energy": -784.592312324, 
			 "HOMO_LUMO_gap": 0.19388, 
			 "cosmo_polarized_energy": -16.14, 
			 "cosmo_cavitation_energy": 36.19, 
			 "cosmo_dispersion_energy": -24.98, 
			 "cosmo_repulsion_energy": 1.95, 
			 "cosmo_total_nonelectrostatic_energy": 13.17, 
			 "SMD_solvation_energy": 8.35 
		},
		"coords": [
			{
				"x": -2.0474117011,
				"y": 4.2578068578,
				"z": -0.1588888076,
				"element": "C" 
			},
			{
				"x": -1.5480704189,
				"y": 3.27153601,
				"z": -1.0528039039,
				"element": "O" 
			},
			{
				"x": -0.7645632489,
				"y": 2.2836161111,
				"z": -0.5600187577,
				"element": "C" 
			},
			{
				"x": -0.3047603751,
				"y": 1.3443380461,
				"z": -1.5119274989,
				"element": "C" 
			},
			{
				"x": -0.6713485494,
				"y": 1.4782499893,
				"z": -2.8856048007,
				"element": "C" 
			},
			{
				"x": -0.971407712,
				"y": 1.5846671616,
				"z": -4.0047525355,
				"element": "N" 
			},
			{
				"x": 0.5207714162,
				"y": 0.2741787546,
				"z": -1.0995687955,
				"element": "C" 
			},
			{
				"x": 0.9158831628,
				"y": -0.5610155084,
				"z": -2.093810822,
				"element": "O" 
			},
			{
				"x": 1.8392880432,
				"y": -1.6167382291,
				"z": -1.8114958486,
				"element": "C" 
			},
			{
				"x": 1.2115400096,
				"y": -2.818746838,
				"z": -1.1350150044,
				"element": "C" 
			},
			{
				"x": -0.100675742,
				"y": -3.2032681384,
				"z": -1.4360198531,
				"element": "C" 
			},
			{
				"x": -0.6521620064,
				"y": -4.3413808444,
				"z": -0.8478716474,
				"element": "C" 
			},
			{
				"x": 0.1031160909,
				"y": -5.1121226283,
				"z": 0.0393140919,
				"element": "C" 
			},
			{
				"x": 1.4129281542,
				"y": -4.7360255009,
				"z": 0.3402223029,
				"element": "C" 
			},
			{
				"x": 1.9618129326,
				"y": -3.5916267502,
				"z": -0.2415105398,
				"element": "C" 
			},
			{
				"x": 0.8755028801,
				"y": 0.1417379563,
				"z": 0.2476905477,
				"element": "C" 
			},
			{
				"x": 0.4108731343,
				"y": 1.0830083599,
				"z": 1.1642282232,
				"element": "C" 
			},
			{
				"x": -0.4002248315,
				"y": 2.151940812,
				"z": 0.7842611549,
				"element": "C" 
			},
			{
				"x": -1.2329148111,
				"y": 4.8156520676,
				"z": 0.318929404,
				"element": "H" 
			},
			{
				"x": -2.6858740028,
				"y": 3.8126421089,
				"z": 0.613826704,
				"element": "H" 
			},
			{
				"x": -2.6408616251,
				"y": 4.93758892,
				"z": -0.7708442898,
				"element": "H" 
			},
			{
				"x": 2.2195017298,
				"y": -1.8929668356,
				"z": -2.8002443923,
				"element": "H" 
			},
			{
				"x": 2.6860270049,
				"y": -1.2355010465,
				"z": -1.2270143585,
				"element": "H" 
			},
			{
				"x": -0.6863599395,
				"y": -2.6026617734,
				"z": -2.1252250853,
				"element": "H" 
			},
			{
				"x": -1.6728067566,
				"y": -4.6282776175,
				"z": -1.0843805314,
				"element": "H" 
			},
			{
				"x": -0.3279852181,
				"y": -5.9987482823,
				"z": 0.4951034078,
				"element": "H" 
			},
			{
				"x": 2.0054052777,
				"y": -5.3271843048,
				"z": 1.0326919982,
				"element": "H" 
			},
			{
				"x": 2.9812233147,
				"y": -3.2987524486,
				"z": 0.0009965863,
				"element": "H" 
			},
			{
				"x": 1.4771708112,
				"y": -0.6917296941,
				"z": 0.5840113437,
				"element": "H" 
			},
			{
				"x": 0.6843789105,
				"y": 0.9766171917,
				"z": 2.2099677618,
				"element": "H" 
			},
			{
				"x": -0.7429959342,
				"y": 2.8617660937,
				"z": 1.5257539459,
				"element": "H" 
			}
		],
		 "valence_orbital": [ 
			{
				"type": "occ",
				"energy": -0.30919,
				"method": "rhf"
			},
			{
				"type": "occ",
				"energy": -0.25746,
				"method": "rhf"
			},
			{
				"type": "occ",
				"energy": -0.25302,
				"method": "rhf"
			},
			{
				"type": "occ",
				"energy": -0.23567,
				"method": "rhf"
			},
			{
				"type": "occ",
				"energy": -0.23071,
				"method": "rhf"
			},
			{
				"type": "unocc",
				"energy": -0.03683,
				"method": "rhf"
			},
			{
				"type": "unocc",
				"energy": -0.0122,
				"method": "rhf"
			},
			{
				"type": "unocc",
				"energy": -0.00964,
				"method": "rhf"
			},
			{
				"type": "unocc",
				"energy": 0.00656,
				"method": "rhf"
			},
			{
				"type": "unocc",
				"energy": 0.05136,
				"method": "rhf"
			}
		],
		"cosmo_sigma_profile": { 
			"-0.025": 0.0,
			"-0.024": 0.0,
			"-0.023": 0.0,
			"-0.022": 0.0,
			"-0.021": 0.0,
			"-0.02": 0.0,
			"-0.019": 0.0,
			"-0.018": 0.0,
			"-0.017": 0.0,
			"-0.016": 0.0,
			"-0.015": 0.0,
			"-0.014": 0.0,
			"-0.013": 0.0,
			"-0.012": 0.0,
			"-0.011": 0.0,
			"-0.01": 0.0,
			"-0.009": 0.0,
			"-0.008": 0.564897826251,
			"-0.007": 11.2832751694,
			"-0.006": 24.0746016106,
			"-0.005": 29.7880189026,
			"-0.004": 26.543565907,
			"-0.003": 20.6439994334,
			"-0.002": 15.4101695513,
			"-0.001": 14.6105878048,
			"0.0": 20.2140641617,
			"0.001": 20.7217855089,
			"0.002": 18.5344135365,
			"0.003": 19.4176831723,
			"0.004": 15.9013037496,
			"0.005": 12.1059069926,
			"0.006": 8.9621182585,
			"0.007": 5.64272349218,
			"0.008": 7.68033366681,
			"0.009": 6.09782510492,
			"0.01": 3.44579621262,
			"0.011": 3.31287823183,
			"0.012": 2.56789166112,
			"0.013": 2.37689467457,
			"0.014": 0.539801335632,
			"0.015": 0.0,
			"0.016": 0.0,
			"0.017": 0.0,
			"0.018": 0.0,
			"0.019": 0.0,
			"0.02": 0.0,
			"0.021": 0.0,
			"0.022": 0.0,
			"0.023": 0.0,
			"0.024": 0.0,
			"0.025": 0.0
		}
	}
}
