{
	 "smiles": "CCCCCCCCCCCCCCCCCOC(=O)C1=CC=C(C=NC2=CC=C(Br)C=C2)C(O)=C1", 
	 "Tm": 383.15, 
	 "num_atms": 80, 
	 "gaussian": { 
		 "optdone": 1, 
		 "sigma_profile": "yes", 
		 "theory": "DFT", 
		 "functional": "B3LYP", 
		 "basiset": "6-31G**", 
		 "properties": { 
			 "R2extent": 36674.1978, 
			 "electric_dipole_moment_norm": 0.562843086481, 
			 "electric_quadrupole_moment_norm": 16.03524597, 
			 "total_energy": -4059.7169435, 
			 "HOMO_LUMO_gap": 0.13827, 
			 "cosmo_polarized_energy": -13.72, 
			 "cosmo_cavitation_energy": 82.72, 
			 "cosmo_dispersion_energy": -50.26, 
			 "cosmo_repulsion_energy": 3.83, 
			 "cosmo_total_nonelectrostatic_energy": 36.3, 
			 "SMD_solvation_energy": 10.85 
		},
		"coords": [
			{
				"x": 2.7075522575,
				"y": -5.4744565453,
				"z": 3.8591451981,
				"element": "C" 
			},
			{
				"x": 2.4354156836,
				"y": -6.520334183,
				"z": 2.771530043,
				"element": "C" 
			},
			{
				"x": 2.888661453,
				"y": -6.1019410935,
				"z": 1.3612825779,
				"element": "C" 
			},
			{
				"x": 2.1887630831,
				"y": -4.8657700058,
				"z": 0.76852204,
				"element": "C" 
			},
			{
				"x": 0.6794695947,
				"y": -5.0404769203,
				"z": 0.5424364004,
				"element": "C" 
			},
			{
				"x": 0.014331072,
				"y": -3.8818226354,
				"z": -0.2226081995,
				"element": "C" 
			},
			{
				"x": 0.0398516658,
				"y": -2.5064692028,
				"z": 0.4696055009,
				"element": "C" 
			},
			{
				"x": -0.7506158059,
				"y": -2.4450424443,
				"z": 1.7857329107,
				"element": "C" 
			},
			{
				"x": -0.7639677129,
				"y": -1.0622913516,
				"z": 2.4608540772,
				"element": "C" 
			},
			{
				"x": -1.524095043,
				"y": 0.0221170597,
				"z": 1.6849899621,
				"element": "C" 
			},
			{
				"x": -1.5710699245,
				"y": 1.375611005,
				"z": 2.4077768849,
				"element": "C" 
			},
			{
				"x": -2.3422179398,
				"y": 2.4386922686,
				"z": 1.6134729532,
				"element": "C" 
			},
			{
				"x": -2.3599322601,
				"y": 3.8480415112,
				"z": 2.2282655845,
				"element": "C" 
			},
			{
				"x": -0.9666847254,
				"y": 4.4749050115,
				"z": 2.4115816152,
				"element": "C" 
			},
			{
				"x": -0.9845978096,
				"y": 5.9968103937,
				"z": 2.647038137,
				"element": "C" 
			},
			{
				"x": -1.3733121779,
				"y": 6.8731634413,
				"z": 1.4412900694,
				"element": "C" 
			},
			{
				"x": -0.3708088416,
				"y": 6.9027838073,
				"z": 0.2868583291,
				"element": "C" 
			},
			{
				"x": -0.3499714643,
				"y": 5.6630585168,
				"z": -0.4658324621,
				"element": "O" 
			},
			{
				"x": -1.1658141667,
				"y": 5.5844005673,
				"z": -1.5395756485,
				"element": "C" 
			},
			{
				"x": -1.8792789453,
				"y": 6.4928572818,
				"z": -1.9198695084,
				"element": "O" 
			},
			{
				"x": -1.1009955,
				"y": 4.2464850247,
				"z": -2.2069162541,
				"element": "C" 
			},
			{
				"x": -1.9013917899,
				"y": 4.0504845179,
				"z": -3.3486210457,
				"element": "C" 
			},
			{
				"x": -1.892875728,
				"y": 2.8184475462,
				"z": -3.976751537,
				"element": "C" 
			},
			{
				"x": -1.1081321025,
				"y": 1.751598819,
				"z": -3.4911462034,
				"element": "C" 
			},
			{
				"x": -1.1357060146,
				"y": 0.4674763174,
				"z": -4.1624345395,
				"element": "C" 
			},
			{
				"x": -0.4316124472,
				"y": -0.5368168148,
				"z": -3.7506171121,
				"element": "N" 
			},
			{
				"x": -0.5075884722,
				"y": -1.7939292492,
				"z": -4.3760651005,
				"element": "C" 
			},
			{
				"x": -1.6836647553,
				"y": -2.3011444102,
				"z": -4.9551060136,
				"element": "C" 
			},
			{
				"x": -1.694927771,
				"y": -3.5608949043,
				"z": -5.5493928804,
				"element": "C" 
			},
			{
				"x": -0.5270946928,
				"y": -4.3227985979,
				"z": -5.565182465,
				"element": "C" 
			},
			{
				"x": -0.5416945282,
				"y": -6.0496046487,
				"z": -6.3790860057,
				"element": "Br" 
			},
			{
				"x": 0.6466962688,
				"y": -3.847425877,
				"z": -4.9793386906,
				"element": "C" 
			},
			{
				"x": 0.6480165151,
				"y": -2.5922009583,
				"z": -4.3783151304,
				"element": "C" 
			},
			{
				"x": -0.3013443875,
				"y": 1.960673281,
				"z": -2.3372829105,
				"element": "C" 
			},
			{
				"x": 0.4627436091,
				"y": 0.9886358556,
				"z": -1.8189688791,
				"element": "O" 
			},
			{
				"x": -0.3011234252,
				"y": 3.2166753327,
				"z": -1.7135865363,
				"element": "C" 
			},
			{
				"x": 3.7711052462,
				"y": -5.2103436978,
				"z": 3.8959704791,
				"element": "H" 
			},
			{
				"x": 2.4249215795,
				"y": -5.8509681069,
				"z": 4.8478688395,
				"element": "H" 
			},
			{
				"x": 2.1449698673,
				"y": -4.5505112269,
				"z": 3.6886948457,
				"element": "H" 
			},
			{
				"x": 1.3661345049,
				"y": -6.7670195303,
				"z": 2.761380026,
				"element": "H" 
			},
			{
				"x": 2.9529383207,
				"y": -7.4515203705,
				"z": 3.0359734749,
				"element": "H" 
			},
			{
				"x": 2.7408263731,
				"y": -6.9503997474,
				"z": 0.6788257818,
				"element": "H" 
			},
			{
				"x": 3.9715220968,
				"y": -5.9159230342,
				"z": 1.3834308034,
				"element": "H" 
			},
			{
				"x": 2.6631229967,
				"y": -4.6301860769,
				"z": -0.194551025,
				"element": "H" 
			},
			{
				"x": 2.3735185742,
				"y": -3.9953397751,
				"z": 1.4102473753,
				"element": "H" 
			},
			{
				"x": 0.5146729702,
				"y": -5.9668395019,
				"z": -0.0255531867,
				"element": "H" 
			},
			{
				"x": 0.1715283017,
				"y": -5.1879104953,
				"z": 1.5035875416,
				"element": "H" 
			},
			{
				"x": -1.0312891412,
				"y": -4.1510166868,
				"z": -0.4265723505,
				"element": "H" 
			},
			{
				"x": 0.49614894,
				"y": -3.7888562003,
				"z": -1.2057541416,
				"element": "H" 
			},
			{
				"x": 1.0776896098,
				"y": -2.2000101386,
				"z": 0.6588966283,
				"element": "H" 
			},
			{
				"x": -0.3623224622,
				"y": -1.7670809464,
				"z": -0.233579065,
				"element": "H" 
			},
			{
				"x": -0.3334007658,
				"y": -3.1719021409,
				"z": 2.4943779213,
				"element": "H" 
			},
			{
				"x": -1.7863187508,
				"y": -2.7660752759,
				"z": 1.5998787622,
				"element": "H" 
			},
			{
				"x": -1.2124271254,
				"y": -1.162379798,
				"z": 3.4589287324,
				"element": "H" 
			},
			{
				"x": 0.2713155873,
				"y": -0.7308972293,
				"z": 2.6271234416,
				"element": "H" 
			},
			{
				"x": -2.5507166284,
				"y": -0.3245339941,
				"z": 1.4946618435,
				"element": "H" 
			},
			{
				"x": -1.0623755989,
				"y": 0.1704331591,
				"z": 0.7004326088,
				"element": "H" 
			},
			{
				"x": -0.5425132573,
				"y": 1.715769952,
				"z": 2.5865063149,
				"element": "H" 
			},
			{
				"x": -2.0285605202,
				"y": 1.2521600837,
				"z": 3.4004300765,
				"element": "H" 
			},
			{
				"x": -3.3777511443,
				"y": 2.0975092582,
				"z": 1.4773231297,
				"element": "H" 
			},
			{
				"x": -1.9126306743,
				"y": 2.5051430004,
				"z": 0.6047002826,
				"element": "H" 
			},
			{
				"x": -2.9693274704,
				"y": 4.4890013811,
				"z": 1.5781638599,
				"element": "H" 
			},
			{
				"x": -2.8767312475,
				"y": 3.8281812045,
				"z": 3.1984709643,
				"element": "H" 
			},
			{
				"x": -0.3478440355,
				"y": 4.2522536921,
				"z": 1.5354135456,
				"element": "H" 
			},
			{
				"x": -0.467478221,
				"y": 4.0017826927,
				"z": 3.2659061778,
				"element": "H" 
			},
			{
				"x": 0.0080186851,
				"y": 6.3154087485,
				"z": 2.9947054806,
				"element": "H" 
			},
			{
				"x": -1.6754858445,
				"y": 6.2213077007,
				"z": 3.471155287,
				"element": "H" 
			},
			{
				"x": -2.3556491259,
				"y": 6.5953392313,
				"z": 1.0428161266,
				"element": "H" 
			},
			{
				"x": -1.4751185719,
				"y": 7.9105702717,
				"z": 1.7871489075,
				"element": "H" 
			},
			{
				"x": -0.6049176765,
				"y": 7.7157894734,
				"z": -0.4032386638,
				"element": "H" 
			},
			{
				"x": 0.6531393076,
				"y": 7.0180446861,
				"z": 0.654217089,
				"element": "H" 
			},
			{
				"x": -2.5115209149,
				"y": 4.8706115627,
				"z": -3.7074648398,
				"element": "H" 
			},
			{
				"x": -2.5055540209,
				"y": 2.653605802,
				"z": -4.8597444713,
				"element": "H" 
			},
			{
				"x": -1.7751847419,
				"y": 0.3900942339,
				"z": -5.0508123427,
				"element": "H" 
			},
			{
				"x": -2.6036407057,
				"y": -1.7266701935,
				"z": -4.9110568891,
				"element": "H" 
			},
			{
				"x": -2.6064589628,
				"y": -3.9528188045,
				"z": -5.9861460959,
				"element": "H" 
			},
			{
				"x": 1.5454440269,
				"y": -4.4532658275,
				"z": -4.989345438,
				"element": "H" 
			},
			{
				"x": 1.5512996508,
				"y": -2.2062944747,
				"z": -3.9166853922,
				"element": "H" 
			},
			{
				"x": 0.3434227261,
				"y": 0.1832017778,
				"z": -2.3948996383,
				"element": "H" 
			},
			{
				"x": 0.3246954723,
				"y": 3.3624576458,
				"z": -0.8425179686,
				"element": "H" 
			}
		],
		 "valence_orbital": [ 
			{
				"type": "occ",
				"energy": -0.27728,
				"method": "rhf"
			},
			{
				"type": "occ",
				"energy": -0.27426,
				"method": "rhf"
			},
			{
				"type": "occ",
				"energy": -0.2707,
				"method": "rhf"
			},
			{
				"type": "occ",
				"energy": -0.24238,
				"method": "rhf"
			},
			{
				"type": "occ",
				"energy": -0.22513,
				"method": "rhf"
			},
			{
				"type": "unocc",
				"energy": -0.08686,
				"method": "rhf"
			},
			{
				"type": "unocc",
				"energy": -0.02708,
				"method": "rhf"
			},
			{
				"type": "unocc",
				"energy": -0.0245,
				"method": "rhf"
			},
			{
				"type": "unocc",
				"energy": -0.00442,
				"method": "rhf"
			},
			{
				"type": "unocc",
				"energy": 0.00121,
				"method": "rhf"
			}
		],
		"cosmo_sigma_profile": { 
			"-0.025": 0.0,
			"-0.024": 0.0,
			"-0.023": 0.0,
			"-0.022": 0.0,
			"-0.021": 0.0,
			"-0.02": 0.120116527958,
			"-0.019": 0.371871592314,
			"-0.018": 0.00829867172749,
			"-0.017": 0.0891891728362,
			"-0.016": 0.0223700491638,
			"-0.015": 0.141027271769,
			"-0.014": 0.653420907072,
			"-0.013": 0.0380138233732,
			"-0.012": 0.143315256284,
			"-0.011": 0.212229972043,
			"-0.01": 0.414549498912,
			"-0.009": 1.51441944357,
			"-0.008": 6.27237135762,
			"-0.007": 11.1106243693,
			"-0.006": 13.0006056527,
			"-0.005": 16.2431955749,
			"-0.004": 19.5258819569,
			"-0.003": 25.5492958159,
			"-0.002": 56.9912105722,
			"-0.001": 101.692894657,
			"0.0": 119.565183144,
			"0.001": 123.245614835,
			"0.002": 70.7883596618,
			"0.003": 32.1375390553,
			"0.004": 17.026023679,
			"0.005": 10.2768300223,
			"0.006": 2.29056477597,
			"0.007": 2.77058790575,
			"0.008": 2.77505461813,
			"0.009": 2.87923520141,
			"0.01": 3.25937016354,
			"0.011": 4.54684573931,
			"0.012": 3.39829642264,
			"0.013": 0.179028985513,
			"0.014": 0.0,
			"0.015": 0.0,
			"0.016": 0.0,
			"0.017": 0.0,
			"0.018": 0.0,
			"0.019": 0.0,
			"0.02": 0.0,
			"0.021": 0.0,
			"0.022": 0.0,
			"0.023": 0.0,
			"0.024": 0.0,
			"0.025": 0.0
		}
	}
}
