{
	 "smiles": "CC1=C(OCCN2CCOCC2)C=CC=C1O", 
	 "Tm": 391.15, 
	 "num_atms": 36, 
	 "gaussian": { 
		 "optdone": 1, 
		 "sigma_profile": "yes", 
		 "theory": "DFT", 
		 "functional": "B3LYP", 
		 "basiset": "6-31G**", 
		 "properties": { 
			 "R2extent": 6492.2229, 
			 "electric_dipole_moment_norm": 1.11016554621, 
			 "electric_quadrupole_moment_norm": 18.445329681, 
			 "total_energy": -787.220860452, 
			 "HOMO_LUMO_gap": 0.21007, 
			 "cosmo_polarized_energy": -13.77, 
			 "cosmo_cavitation_energy": 36.99, 
			 "cosmo_dispersion_energy": -26.57, 
			 "cosmo_repulsion_energy": 2.07, 
			 "cosmo_total_nonelectrostatic_energy": 12.5, 
			 "SMD_solvation_energy": 4.28 
		},
		"coords": [
			{
				"x": -1.4437170594,
				"y": 1.9033299199,
				"z": 2.5120904399,
				"element": "C" 
			},
			{
				"x": -2.1403948175,
				"y": 0.7040422003,
				"z": 1.921679146,
				"element": "C" 
			},
			{
				"x": -1.3956955663,
				"y": -0.3120033536,
				"z": 1.2908693484,
				"element": "C" 
			},
			{
				"x": -0.0432146356,
				"y": -0.0955542493,
				"z": 1.2892837469,
				"element": "O" 
			},
			{
				"x": 0.8411586363,
				"y": -1.0320810928,
				"z": 0.6772261633,
				"element": "C" 
			},
			{
				"x": 0.9514344869,
				"y": -0.8117050833,
				"z": -0.8381980456,
				"element": "C" 
			},
			{
				"x": 1.9198079985,
				"y": -1.7513291546,
				"z": -1.4094379346,
				"element": "N" 
			},
			{
				"x": 2.7580974741,
				"y": -1.2218368648,
				"z": -2.4919388273,
				"element": "C" 
			},
			{
				"x": 2.0413548806,
				"y": -1.199891212,
				"z": -3.8457793981,
				"element": "C" 
			},
			{
				"x": 1.5584976616,
				"y": -2.498643914,
				"z": -4.1764493348,
				"element": "O" 
			},
			{
				"x": 0.6635689553,
				"y": -2.9872355969,
				"z": -3.1826763704,
				"element": "C" 
			},
			{
				"x": 1.3487663093,
				"y": -3.0446388811,
				"z": -1.8120059409,
				"element": "C" 
			},
			{
				"x": -2.0174359167,
				"y": -1.4378682136,
				"z": 0.735432709,
				"element": "C" 
			},
			{
				"x": -3.4057857868,
				"y": -1.5537478001,
				"z": 0.8141047994,
				"element": "C" 
			},
			{
				"x": -4.1698667902,
				"y": -0.5695393295,
				"z": 1.4303932723,
				"element": "C" 
			},
			{
				"x": -3.5319992371,
				"y": 0.5517338645,
				"z": 1.9784777651,
				"element": "C" 
			},
			{
				"x": -4.247972385,
				"y": 1.5456692174,
				"z": 2.594498862,
				"element": "O" 
			},
			{
				"x": -0.7212443657,
				"y": 1.5984270672,
				"z": 3.2770374963,
				"element": "H" 
			},
			{
				"x": -0.8764393425,
				"y": 2.4437346062,
				"z": 1.746294648,
				"element": "H" 
			},
			{
				"x": -2.1625423714,
				"y": 2.5877638401,
				"z": 2.9624101586,
				"element": "H" 
			},
			{
				"x": 0.5491706467,
				"y": -2.0617259204,
				"z": 0.9167679549,
				"element": "H" 
			},
			{
				"x": 1.8174750533,
				"y": -0.8544278434,
				"z": 1.1343383987,
				"element": "H" 
			},
			{
				"x": 1.3061271942,
				"y": 0.2113604278,
				"z": -0.9986717765,
				"element": "H" 
			},
			{
				"x": -0.0485035304,
				"y": -0.8673073285,
				"z": -1.2958641611,
				"element": "H" 
			},
			{
				"x": 3.1093794508,
				"y": -0.2199990961,
				"z": -2.2218238421,
				"element": "H" 
			},
			{
				"x": 3.6408975731,
				"y": -1.869255729,
				"z": -2.5811074669,
				"element": "H" 
			},
			{
				"x": 2.7249745494,
				"y": -0.9091651645,
				"z": -4.6500970525,
				"element": "H" 
			},
			{
				"x": 1.2062973156,
				"y": -0.4781141854,
				"z": -3.8281249905,
				"element": "H" 
			},
			{
				"x": -0.2357009571,
				"y": -2.3490422701,
				"z": -3.1396204675,
				"element": "H" 
			},
			{
				"x": 0.3530285979,
				"y": -3.9856590177,
				"z": -3.5072751273,
				"element": "H" 
			},
			{
				"x": 2.1644050497,
				"y": -3.7779432022,
				"z": -1.8600354272,
				"element": "H" 
			},
			{
				"x": 0.6454008572,
				"y": -3.3909719078,
				"z": -1.0464136111,
				"element": "H" 
			},
			{
				"x": -1.4422305411,
				"y": -2.2138695867,
				"z": 0.2467503912,
				"element": "H" 
			},
			{
				"x": -3.8943698177,
				"y": -2.4238019923,
				"z": 0.3851572553,
				"element": "H" 
			},
			{
				"x": -5.2520494497,
				"y": -0.6622821138,
				"z": 1.4876859825,
				"element": "H" 
			},
			{
				"x": -5.1845801201,
				"y": 1.31357896,
				"z": 2.5674212366,
				"element": "H" 
			}
		],
		 "valence_orbital": [ 
			{
				"type": "occ",
				"energy": -0.30104,
				"method": "rhf"
			},
			{
				"type": "occ",
				"energy": -0.27119,
				"method": "rhf"
			},
			{
				"type": "occ",
				"energy": -0.21598,
				"method": "rhf"
			},
			{
				"type": "occ",
				"energy": -0.21328,
				"method": "rhf"
			},
			{
				"type": "occ",
				"energy": -0.20023,
				"method": "rhf"
			},
			{
				"type": "unocc",
				"energy": 0.00984,
				"method": "rhf"
			},
			{
				"type": "unocc",
				"energy": 0.0252,
				"method": "rhf"
			},
			{
				"type": "unocc",
				"energy": 0.06243,
				"method": "rhf"
			},
			{
				"type": "unocc",
				"energy": 0.0731,
				"method": "rhf"
			},
			{
				"type": "unocc",
				"energy": 0.09615,
				"method": "rhf"
			}
		],
		"cosmo_sigma_profile": { 
			"-0.025": 0.0,
			"-0.024": 0.0,
			"-0.023": 0.0,
			"-0.022": 0.0,
			"-0.021": 0.0,
			"-0.02": 0.0,
			"-0.019": 0.0,
			"-0.018": 0.0966523042341,
			"-0.017": 0.931852876416,
			"-0.016": 1.02326489289,
			"-0.015": 0.940876735292,
			"-0.014": 1.00806774657,
			"-0.013": 0.977305562654,
			"-0.012": 1.0203205638,
			"-0.011": 0.838059810318,
			"-0.01": 1.17165604181,
			"-0.009": 0.917065220489,
			"-0.008": 1.81239918744,
			"-0.007": 2.59955955816,
			"-0.006": 5.43620052081,
			"-0.005": 16.5828560078,
			"-0.004": 27.7983922375,
			"-0.003": 37.8307399178,
			"-0.002": 30.2181833608,
			"-0.001": 24.0775454243,
			"0.0": 18.0986684303,
			"0.001": 17.2016299466,
			"0.002": 12.7733839916,
			"0.003": 12.658013051,
			"0.004": 15.5063100599,
			"0.005": 14.7421463526,
			"0.006": 12.5515259183,
			"0.007": 8.57366600798,
			"0.008": 5.20844757515,
			"0.009": 5.1636037655,
			"0.01": 3.80437415715,
			"0.011": 1.92244016377,
			"0.012": 1.68297588782,
			"0.013": 2.46874925368,
			"0.014": 1.4982179374,
			"0.015": 0.0,
			"0.016": 0.0,
			"0.017": 0.0,
			"0.018": 0.0,
			"0.019": 0.0,
			"0.02": 0.0,
			"0.021": 0.0,
			"0.022": 0.0,
			"0.023": 0.0,
			"0.024": 0.0,
			"0.025": 0.0
		}
	}
}
