{
	 "smiles": "BrC1=CC=C2NC(=O)OC(=O)C2=C1", 
	 "Tm": 561.15, 
	 "num_atms": 17, 
	 "gaussian": { 
		 "optdone": 1, 
		 "sigma_profile": "yes", 
		 "theory": "DFT", 
		 "functional": "B3LYP", 
		 "basiset": "6-31G**", 
		 "properties": { 
			 "R2extent": 5165.9665, 
			 "electric_dipole_moment_norm": 5.72459065261, 
			 "electric_quadrupole_moment_norm": 16.5541809018, 
			 "total_energy": -3159.12051461, 
			 "HOMO_LUMO_gap": 0.16975, 
			 "cosmo_polarized_energy": -17.21, 
			 "cosmo_cavitation_energy": 24.94, 
			 "cosmo_dispersion_energy": -19.17, 
			 "cosmo_repulsion_energy": 1.5, 
			 "cosmo_total_nonelectrostatic_energy": 7.26, 
			 "SMD_solvation_energy": 5.22 
		},
		"coords": [
			{
				"x": 4.3103141105,
				"y": 2.1823343172,
				"z": 1.0185429621,
				"element": "Br" 
			},
			{
				"x": 2.426515096,
				"y": 2.0258195951,
				"z": 0.778290958,
				"element": "C" 
			},
			{
				"x": 1.6312057433,
				"y": 3.1793676051,
				"z": 0.8062882986,
				"element": "C" 
			},
			{
				"x": 0.255597787,
				"y": 3.0868350101,
				"z": 0.6332008582,
				"element": "C" 
			},
			{
				"x": -0.3350346288,
				"y": 1.8322484861,
				"z": 0.430011564,
				"element": "C" 
			},
			{
				"x": -1.7027455147,
				"y": 1.6857788105,
				"z": 0.2521499171,
				"element": "N" 
			},
			{
				"x": -2.3529185105,
				"y": 0.4854621792,
				"z": 0.0478040697,
				"element": "C" 
			},
			{
				"x": -3.5424659156,
				"y": 0.3867157972,
				"z": -0.1043669432,
				"element": "O" 
			},
			{
				"x": -1.5440769654,
				"y": -0.6276764974,
				"z": 0.0253930278,
				"element": "O" 
			},
			{
				"x": -0.1561474098,
				"y": -0.6326786743,
				"z": 0.1896768479,
				"element": "C" 
			},
			{
				"x": 0.415273347,
				"y": -1.6896315203,
				"z": 0.1446967592,
				"element": "O" 
			},
			{
				"x": 0.4670959534,
				"y": 0.6818120431,
				"z": 0.4031240289,
				"element": "C" 
			},
			{
				"x": 1.853480108,
				"y": 0.7792679142,
				"z": 0.5779771056,
				"element": "C" 
			},
			{
				"x": 2.0921804245,
				"y": 4.1478713629,
				"z": 0.9637270062,
				"element": "H" 
			},
			{
				"x": -0.3576744183,
				"y": 3.9827662632,
				"z": 0.6554597312,
				"element": "H" 
			},
			{
				"x": -2.3098305884,
				"y": 2.4934246365,
				"z": 0.2657143337,
				"element": "H" 
			},
			{
				"x": 2.4471313819,
				"y": -0.1267173284,
				"z": 0.5523094751,
				"element": "H" 
			}
		],
		 "valence_orbital": [ 
			{
				"type": "occ",
				"energy": -0.31018,
				"method": "rhf"
			},
			{
				"type": "occ",
				"energy": -0.30581,
				"method": "rhf"
			},
			{
				"type": "occ",
				"energy": -0.29808,
				"method": "rhf"
			},
			{
				"type": "occ",
				"energy": -0.29368,
				"method": "rhf"
			},
			{
				"type": "occ",
				"energy": -0.2499,
				"method": "rhf"
			},
			{
				"type": "unocc",
				"energy": -0.08015,
				"method": "rhf"
			},
			{
				"type": "unocc",
				"energy": -0.0436,
				"method": "rhf"
			},
			{
				"type": "unocc",
				"energy": -0.01235,
				"method": "rhf"
			},
			{
				"type": "unocc",
				"energy": 0.00449,
				"method": "rhf"
			},
			{
				"type": "unocc",
				"energy": 0.04277,
				"method": "rhf"
			}
		],
		"cosmo_sigma_profile": { 
			"-0.025": 0.0,
			"-0.024": 0.0,
			"-0.023": 0.0,
			"-0.022": 0.0,
			"-0.021": 0.0,
			"-0.02": 0.0,
			"-0.019": 0.0,
			"-0.018": 0.236601686939,
			"-0.017": 1.35113352383,
			"-0.016": 1.85276842417,
			"-0.015": 1.07883264814,
			"-0.014": 0.89913900147,
			"-0.013": 1.50258560303,
			"-0.012": 1.03557374731,
			"-0.011": 1.29900285447,
			"-0.01": 1.77632606122,
			"-0.009": 4.55109692306,
			"-0.008": 7.13524065708,
			"-0.007": 7.41142685716,
			"-0.006": 6.81631688859,
			"-0.005": 7.76977226149,
			"-0.004": 11.3970954649,
			"-0.003": 10.5508320886,
			"-0.002": 13.1186032153,
			"-0.001": 15.495747648,
			"0.0": 18.7720231256,
			"0.001": 15.4465421185,
			"0.002": 9.36517504298,
			"0.003": 10.2920329995,
			"0.004": 13.3403537841,
			"0.005": 4.40336371409,
			"0.006": 2.65650905392,
			"0.007": 4.16884096132,
			"0.008": 6.52566861679,
			"0.009": 5.2110695574,
			"0.01": 8.21210048236,
			"0.011": 8.90352647029,
			"0.012": 2.36755203498,
			"0.013": 0.0678204563323,
			"0.014": 0.0,
			"0.015": 0.0,
			"0.016": 0.0,
			"0.017": 0.0,
			"0.018": 0.0,
			"0.019": 0.0,
			"0.02": 0.0,
			"0.021": 0.0,
			"0.022": 0.0,
			"0.023": 0.0,
			"0.024": 0.0,
			"0.025": 0.0
		}
	}
}
