{
	 "smiles": "NC1=CC=NN1CC1=CC=C(F)C=C1", 
	 "Tm": 333.15, 
	 "num_atms": 24, 
	 "gaussian": { 
		 "optdone": 1, 
		 "sigma_profile": "yes", 
		 "theory": "DFT", 
		 "functional": "B3LYP", 
		 "basiset": "6-31G**", 
		 "properties": { 
			 "R2extent": 3276.4725, 
			 "electric_dipole_moment_norm": 2.63793486842, 
			 "electric_quadrupole_moment_norm": 9.3027731962, 
			 "total_energy": -651.156731831, 
			 "HOMO_LUMO_gap": 0.18746, 
			 "cosmo_polarized_energy": -12.27, 
			 "cosmo_cavitation_energy": 28.6, 
			 "cosmo_dispersion_energy": -20.25, 
			 "cosmo_repulsion_energy": 1.57, 
			 "cosmo_total_nonelectrostatic_energy": 9.92, 
			 "SMD_solvation_energy": 4.65 
		},
		"coords": [
			{
				"x": 2.105396608,
				"y": -1.0290083284,
				"z": 1.2264716305,
				"element": "N" 
			},
			{
				"x": 2.1693528773,
				"y": -0.2434316021,
				"z": 0.0708208939,
				"element": "C" 
			},
			{
				"x": 3.1691068046,
				"y": 0.5511464876,
				"z": -0.471955106,
				"element": "C" 
			},
			{
				"x": 2.6220497701,
				"y": 1.0168927633,
				"z": -1.6879933457,
				"element": "C" 
			},
			{
				"x": 1.3882728914,
				"y": 0.5665263577,
				"z": -1.8978002796,
				"element": "N" 
			},
			{
				"x": 1.1332643719,
				"y": -0.2271014993,
				"z": -0.8156255277,
				"element": "N" 
			},
			{
				"x": -0.1512116497,
				"y": -0.8890675847,
				"z": -0.6746125533,
				"element": "C" 
			},
			{
				"x": -1.0912352785,
				"y": -0.190884084,
				"z": 0.294886511,
				"element": "C" 
			},
			{
				"x": -1.3174332166,
				"y": 1.1898251376,
				"z": 0.188811759,
				"element": "C" 
			},
			{
				"x": -2.1927465776,
				"y": 1.8373334658,
				"z": 1.0571568952,
				"element": "C" 
			},
			{
				"x": -2.8429452572,
				"y": 1.0889911495,
				"z": 2.0350226469,
				"element": "C" 
			},
			{
				"x": -3.6908280783,
				"y": 1.7128972572,
				"z": 2.8791833263,
				"element": "F" 
			},
			{
				"x": -2.6410268428,
				"y": -0.2782195841,
				"z": 2.1701176743,
				"element": "C" 
			},
			{
				"x": -1.75701222,
				"y": -0.9114921767,
				"z": 1.292639489,
				"element": "C" 
			},
			{
				"x": 2.9408738504,
				"y": -0.9352726927,
				"z": 1.7901340314,
				"element": "H" 
			},
			{
				"x": 1.2861754055,
				"y": -0.8347725281,
				"z": 1.7948942362,
				"element": "H" 
			},
			{
				"x": 4.1382817632,
				"y": 0.7631352121,
				"z": -0.0451213978,
				"element": "H" 
			},
			{
				"x": 3.0810373538,
				"y": 1.67045344,
				"z": -2.4185900191,
				"element": "H" 
			},
			{
				"x": 0.0230673133,
				"y": -1.9210572309,
				"z": -0.3518277923,
				"element": "H" 
			},
			{
				"x": -0.5771693021,
				"y": -0.9161040084,
				"z": -1.6812026366,
				"element": "H" 
			},
			{
				"x": -0.7960842914,
				"y": 1.7533945924,
				"z": -0.5796787583,
				"element": "H" 
			},
			{
				"x": -2.3788219884,
				"y": 2.9037641698,
				"z": 0.9883161337,
				"element": "H" 
			},
			{
				"x": -3.1637476296,
				"y": -0.8247043316,
				"z": 2.9476168601,
				"element": "H" 
			},
			{
				"x": -1.5907166773,
				"y": -1.982044382,
				"z": 1.3859353287,
				"element": "H" 
			}
		],
		 "valence_orbital": [ 
			{
				"type": "occ",
				"energy": -0.27621,
				"method": "rhf"
			},
			{
				"type": "occ",
				"energy": -0.26687,
				"method": "rhf"
			},
			{
				"type": "occ",
				"energy": -0.25056,
				"method": "rhf"
			},
			{
				"type": "occ",
				"energy": -0.23591,
				"method": "rhf"
			},
			{
				"type": "occ",
				"energy": -0.2063,
				"method": "rhf"
			},
			{
				"type": "unocc",
				"energy": -0.01884,
				"method": "rhf"
			},
			{
				"type": "unocc",
				"energy": -0.00861,
				"method": "rhf"
			},
			{
				"type": "unocc",
				"energy": 0.03614,
				"method": "rhf"
			},
			{
				"type": "unocc",
				"energy": 0.07399,
				"method": "rhf"
			},
			{
				"type": "unocc",
				"energy": 0.08338,
				"method": "rhf"
			}
		],
		"cosmo_sigma_profile": { 
			"-0.025": 0.0,
			"-0.024": 0.0,
			"-0.023": 0.0,
			"-0.022": 0.0,
			"-0.021": 0.0,
			"-0.02": 0.0,
			"-0.019": 0.0,
			"-0.018": 0.0,
			"-0.017": 0.0,
			"-0.016": 0.0,
			"-0.015": 0.0,
			"-0.014": 0.0153781596013,
			"-0.013": 0.969406637199,
			"-0.012": 1.31670091457,
			"-0.011": 2.28243153845,
			"-0.01": 2.61751780673,
			"-0.009": 2.37149956505,
			"-0.008": 2.70661237289,
			"-0.007": 8.19403049406,
			"-0.006": 16.4596743178,
			"-0.005": 15.8189203724,
			"-0.004": 15.0029666194,
			"-0.003": 12.6559020251,
			"-0.002": 12.4411521081,
			"-0.001": 11.9975514327,
			"0.0": 12.1143609316,
			"0.001": 16.2954581927,
			"0.002": 18.9367938505,
			"0.003": 17.1515096233,
			"0.004": 20.411147695,
			"0.005": 11.9932910357,
			"0.006": 6.85096041927,
			"0.007": 5.25551849008,
			"0.008": 2.59378464278,
			"0.009": 1.89082311244,
			"0.01": 1.52211592867,
			"0.011": 2.10127490952,
			"0.012": 1.53880551264,
			"0.013": 1.31586512581,
			"0.014": 1.58992957219,
			"0.015": 0.985644318556,
			"0.016": 0.762047646189,
			"0.017": 0.264154859121,
			"0.018": 0.0,
			"0.019": 0.0,
			"0.02": 0.0,
			"0.021": 0.0,
			"0.022": 0.0,
			"0.023": 0.0,
			"0.024": 0.0,
			"0.025": 0.0
		}
	}
}
