{
	 "smiles": "CC(C(C)(C)C)C(C)(C)C", 
	 "Tm": 234.25, 
	 "num_atms": 32, 
	 "gaussian": { 
		 "optdone": 1, 
		 "sigma_profile": "yes", 
		 "theory": "DFT", 
		 "functional": "B3LYP", 
		 "basiset": "6-31G**", 
		 "properties": { 
			 "R2extent": 1847.4439, 
			 "electric_dipole_moment_norm": 0.0335289427212, 
			 "electric_quadrupole_moment_norm": 0.264295932621, 
			 "total_energy": -394.338587876, 
			 "HOMO_LUMO_gap": 0.35355, 
			 "cosmo_polarized_energy": -0.99, 
			 "cosmo_cavitation_energy": 28.41, 
			 "cosmo_dispersion_energy": -20.31, 
			 "cosmo_repulsion_energy": 1.57, 
			 "cosmo_total_nonelectrostatic_energy": 9.67, 
			 "SMD_solvation_energy": 5.14 
		},
		"coords": [
			{
				"x": -0.3248850354,
				"y": 2.5355287001,
				"z": -0.8001004294,
				"element": "C" 
			},
			{
				"x": -0.5470586175,
				"y": 1.1018921363,
				"z": -0.260193532,
				"element": "C" 
			},
			{
				"x": -0.4410629313,
				"y": 0.0567191291,
				"z": -1.4530516548,
				"element": "C" 
			},
			{
				"x": -1.6998895138,
				"y": 0.2280576365,
				"z": -2.3417542467,
				"element": "C" 
			},
			{
				"x": 0.8032045761,
				"y": 0.2793920779,
				"z": -2.3440093576,
				"element": "C" 
			},
			{
				"x": -0.4443621701,
				"y": -1.4215003626,
				"z": -1.0083918288,
				"element": "C" 
			},
			{
				"x": 0.2632664444,
				"y": 0.8755719969,
				"z": 1.0862005102,
				"element": "C" 
			},
			{
				"x": -0.324224065,
				"y": -0.2840215774,
				"z": 1.9268742318,
				"element": "C" 
			},
			{
				"x": 1.7708129874,
				"y": 0.6286115693,
				"z": 0.8712650833,
				"element": "C" 
			},
			{
				"x": 0.1230819602,
				"y": 2.1370288675,
				"z": 1.9777949438,
				"element": "C" 
			},
			{
				"x": -0.7639348106,
				"y": 3.2848000363,
				"z": -0.1386989994,
				"element": "H" 
			},
			{
				"x": 0.7385893982,
				"y": 2.7736256367,
				"z": -0.9071147062,
				"element": "H" 
			},
			{
				"x": -0.7853234393,
				"y": 2.6757353799,
				"z": -1.7801371825,
				"element": "H" 
			},
			{
				"x": -1.5997341441,
				"y": 1.0520675053,
				"z": 0.0564939437,
				"element": "H" 
			},
			{
				"x": -1.7942091858,
				"y": 1.2347728694,
				"z": -2.7579483358,
				"element": "H" 
			},
			{
				"x": -2.6131654519,
				"y": 0.0143306373,
				"z": -1.7747347033,
				"element": "H" 
			},
			{
				"x": -1.6640708726,
				"y": -0.4686645834,
				"z": -3.1866730675,
				"element": "H" 
			},
			{
				"x": 1.7379107185,
				"y": 0.1506895609,
				"z": -1.7931114729,
				"element": "H" 
			},
			{
				"x": 0.8151235864,
				"y": 1.2750887805,
				"z": -2.7957806008,
				"element": "H" 
			},
			{
				"x": 0.8044405153,
				"y": -0.4476459921,
				"z": -3.1642269375,
				"element": "H" 
			},
			{
				"x": -1.30848784,
				"y": -1.6567947211,
				"z": -0.3794525917,
				"element": "H" 
			},
			{
				"x": -0.5013984576,
				"y": -2.0651807482,
				"z": -1.893876216,
				"element": "H" 
			},
			{
				"x": 0.4623388459,
				"y": -1.7032105858,
				"z": -0.4678051114,
				"element": "H" 
			},
			{
				"x": 0.1438255804,
				"y": -0.2963593832,
				"z": 2.9178470526,
				"element": "H" 
			},
			{
				"x": -1.402366422,
				"y": -0.1533483845,
				"z": 2.0767956805,
				"element": "H" 
			},
			{
				"x": -0.1642079027,
				"y": -1.2667841892,
				"z": 1.4858697881,
				"element": "H" 
			},
			{
				"x": 2.2869138164,
				"y": 0.6045909617,
				"z": 1.8382057747,
				"element": "H" 
			},
			{
				"x": 1.9703488274,
				"y": -0.3249493407,
				"z": 0.3753346262,
				"element": "H" 
			},
			{
				"x": 2.2343686655,
				"y": 1.4223700285,
				"z": 0.2761585393,
				"element": "H" 
			},
			{
				"x": 0.6427049463,
				"y": 3.0053399031,
				"z": 1.5651283419,
				"element": "H" 
			},
			{
				"x": 0.5543391311,
				"y": 1.9397083225,
				"z": 2.9651447281,
				"element": "H" 
			},
			{
				"x": -0.9283891401,
				"y": 2.4095381324,
				"z": 2.1268477303,
				"element": "H" 
			}
		],
		 "valence_orbital": [ 
			{
				"type": "occ",
				"energy": -0.3207,
				"method": "rhf"
			},
			{
				"type": "occ",
				"energy": -0.31638,
				"method": "rhf"
			},
			{
				"type": "occ",
				"energy": -0.30093,
				"method": "rhf"
			},
			{
				"type": "occ",
				"energy": -0.29267,
				"method": "rhf"
			},
			{
				"type": "occ",
				"energy": -0.28356,
				"method": "rhf"
			},
			{
				"type": "unocc",
				"energy": 0.06999,
				"method": "rhf"
			},
			{
				"type": "unocc",
				"energy": 0.11226,
				"method": "rhf"
			},
			{
				"type": "unocc",
				"energy": 0.11402,
				"method": "rhf"
			},
			{
				"type": "unocc",
				"energy": 0.118,
				"method": "rhf"
			},
			{
				"type": "unocc",
				"energy": 0.12469,
				"method": "rhf"
			}
		],
		"cosmo_sigma_profile": { 
			"-0.025": 0.0,
			"-0.024": 0.0,
			"-0.023": 0.0,
			"-0.022": 0.0,
			"-0.021": 0.0,
			"-0.02": 0.0,
			"-0.019": 0.0,
			"-0.018": 0.0,
			"-0.017": 0.0,
			"-0.016": 0.0,
			"-0.015": 0.0,
			"-0.014": 0.0,
			"-0.013": 0.0,
			"-0.012": 0.0,
			"-0.011": 0.0,
			"-0.01": 0.0,
			"-0.009": 0.0,
			"-0.008": 0.0,
			"-0.007": 0.0,
			"-0.006": 0.0,
			"-0.005": 0.0,
			"-0.004": 0.764940791489,
			"-0.003": 5.82617562279,
			"-0.002": 33.4245276865,
			"-0.001": 49.9319958129,
			"0.0": 43.2977449444,
			"0.001": 35.8283731402,
			"0.002": 40.9488566251,
			"0.003": 6.38478242262,
			"0.004": 0.0,
			"0.005": 0.0,
			"0.006": 0.0,
			"0.007": 0.0,
			"0.008": 0.0,
			"0.009": 0.0,
			"0.01": 0.0,
			"0.011": 0.0,
			"0.012": 0.0,
			"0.013": 0.0,
			"0.014": 0.0,
			"0.015": 0.0,
			"0.016": 0.0,
			"0.017": 0.0,
			"0.018": 0.0,
			"0.019": 0.0,
			"0.02": 0.0,
			"0.021": 0.0,
			"0.022": 0.0,
			"0.023": 0.0,
			"0.024": 0.0,
			"0.025": 0.0
		}
	}
}
