{
	 "smiles": "C1CCC2=CC3=C(CCCC3)C=C2C1", 
	 "Tm": 351.15, 
	 "num_atms": 32, 
	 "gaussian": { 
		 "optdone": 1, 
		 "sigma_profile": "yes", 
		 "theory": "DFT", 
		 "functional": "B3LYP", 
		 "basiset": "6-31G**", 
		 "properties": { 
			 "R2extent": 4479.7635, 
			 "electric_dipole_moment_norm": 0.10385273227, 
			 "electric_quadrupole_moment_norm": 4.94404965691, 
			 "total_energy": -544.370987509, 
			 "HOMO_LUMO_gap": 0.22777, 
			 "cosmo_polarized_energy": -2.9, 
			 "cosmo_cavitation_energy": 31.2, 
			 "cosmo_dispersion_energy": -23.44, 
			 "cosmo_repulsion_energy": 1.85, 
			 "cosmo_total_nonelectrostatic_energy": 9.61, 
			 "SMD_solvation_energy": 3.54 
		},
		"coords": [
			{
				"x": -0.1859157789,
				"y": -0.7566214518,
				"z": -1.7776196788,
				"element": "C" 
			},
			{
				"x": 1.3163742569,
				"y": -0.4773966717,
				"z": -1.4775759193,
				"element": "C" 
			},
			{
				"x": 1.5288909642,
				"y": 0.623474197,
				"z": -0.4118706032,
				"element": "C" 
			},
			{
				"x": 0.6223676483,
				"y": 0.4145417019,
				"z": 0.7768961854,
				"element": "C" 
			},
			{
				"x": 1.0653135007,
				"y": 0.443320202,
				"z": 2.1016390414,
				"element": "C" 
			},
			{
				"x": 0.1782106311,
				"y": 0.2420557921,
				"z": 3.1620741819,
				"element": "C" 
			},
			{
				"x": -1.1787536852,
				"y": -0.0102019244,
				"z": 2.8911686846,
				"element": "C" 
			},
			{
				"x": -2.0819455218,
				"y": -0.2368732896,
				"z": 4.0791958898,
				"element": "C" 
			},
			{
				"x": -1.46104687,
				"y": -1.2510515318,
				"z": 5.0685264565,
				"element": "C" 
			},
			{
				"x": 0.0413596566,
				"y": -0.9721113469,
				"z": 5.3682183933,
				"element": "C" 
			},
			{
				"x": 0.5932070792,
				"y": 0.2601426421,
				"z": 4.6132888102,
				"element": "C" 
			},
			{
				"x": -1.6184741727,
				"y": -0.0556570067,
				"z": 1.5658160157,
				"element": "C" 
			},
			{
				"x": -0.7345866921,
				"y": 0.1621977214,
				"z": 0.5059918999,
				"element": "C" 
			},
			{
				"x": -1.1460888864,
				"y": 0.1260920554,
				"z": -0.9458834719,
				"element": "C" 
			},
			{
				"x": -0.4097500587,
				"y": -1.8063158955,
				"z": -1.5592573385,
				"element": "H" 
			},
			{
				"x": -0.3974534295,
				"y": -0.6114308297,
				"z": -2.8427261476,
				"element": "H" 
			},
			{
				"x": 1.8443918094,
				"y": -0.1949430209,
				"z": -2.3950195119,
				"element": "H" 
			},
			{
				"x": 1.7911609375,
				"y": -1.3971656402,
				"z": -1.1194629491,
				"element": "H" 
			},
			{
				"x": 1.3134567788,
				"y": 1.6023280274,
				"z": -0.8659798408,
				"element": "H" 
			},
			{
				"x": 2.5792468935,
				"y": 0.6536279225,
				"z": -0.1025655263,
				"element": "H" 
			},
			{
				"x": 2.1183178579,
				"y": 0.6253459797,
				"z": 2.3109092136,
				"element": "H" 
			},
			{
				"x": -3.0721683638,
				"y": -0.5781146304,
				"z": 3.7585040123,
				"element": "H" 
			},
			{
				"x": -2.2401105165,
				"y": 0.71767189,
				"z": 4.6032155062,
				"element": "H" 
			},
			{
				"x": -1.5648722783,
				"y": -2.2541650689,
				"z": 4.6411643647,
				"element": "H" 
			},
			{
				"x": -2.0436609239,
				"y": -1.2494701978,
				"z": 5.9963409848,
				"element": "H" 
			},
			{
				"x": 0.1983746054,
				"y": -0.8336729842,
				"z": 6.4436081066,
				"element": "H" 
			},
			{
				"x": 0.6363169895,
				"y": -1.8453151404,
				"z": 5.0798035597,
				"element": "H" 
			},
			{
				"x": 0.2045820886,
				"y": 1.1717881625,
				"z": 5.0914673631,
				"element": "H" 
			},
			{
				"x": 1.6835342959,
				"y": 0.3054016586,
				"z": 4.7079926156,
				"element": "H" 
			},
			{
				"x": -2.6663534287,
				"y": -0.2642106279,
				"z": 1.355588983,
				"element": "H" 
			},
			{
				"x": -2.1762828833,
				"y": -0.2306751441,
				"z": -1.0519105023,
				"element": "H" 
			},
			{
				"x": -1.1306425036,
				"y": 1.1479044504,
				"z": -1.3538387786,
				"element": "H" 
			}
		],
		 "valence_orbital": [ 
			{
				"type": "occ",
				"energy": -0.31277,
				"method": "rhf"
			},
			{
				"type": "occ",
				"energy": -0.30195,
				"method": "rhf"
			},
			{
				"type": "occ",
				"energy": -0.28887,
				"method": "rhf"
			},
			{
				"type": "occ",
				"energy": -0.2287,
				"method": "rhf"
			},
			{
				"type": "occ",
				"energy": -0.21465,
				"method": "rhf"
			},
			{
				"type": "unocc",
				"energy": 0.01312,
				"method": "rhf"
			},
			{
				"type": "unocc",
				"energy": 0.01367,
				"method": "rhf"
			},
			{
				"type": "unocc",
				"energy": 0.09131,
				"method": "rhf"
			},
			{
				"type": "unocc",
				"energy": 0.0915,
				"method": "rhf"
			},
			{
				"type": "unocc",
				"energy": 0.12122,
				"method": "rhf"
			}
		],
		"cosmo_sigma_profile": { 
			"-0.025": 0.0,
			"-0.024": 0.0,
			"-0.023": 0.0,
			"-0.022": 0.0,
			"-0.021": 0.0,
			"-0.02": 0.0,
			"-0.019": 0.0,
			"-0.018": 0.0,
			"-0.017": 0.0,
			"-0.016": 0.0,
			"-0.015": 0.0,
			"-0.014": 0.0,
			"-0.013": 0.0,
			"-0.012": 0.0,
			"-0.011": 0.0,
			"-0.01": 0.0,
			"-0.009": 0.0,
			"-0.008": 0.0,
			"-0.007": 0.0,
			"-0.006": 0.0,
			"-0.005": 0.166489830209,
			"-0.004": 4.33892834448,
			"-0.003": 27.6203037731,
			"-0.002": 41.811546249,
			"-0.001": 45.7748529349,
			"0.0": 43.9343683051,
			"0.001": 32.2728528446,
			"0.002": 12.2163925136,
			"0.003": 7.79710249939,
			"0.004": 5.7641402566,
			"0.005": 6.52839304291,
			"0.006": 5.56536091032,
			"0.007": 6.26396361691,
			"0.008": 2.12711840182,
			"0.009": 0.0,
			"0.01": 0.0,
			"0.011": 0.0,
			"0.012": 0.0,
			"0.013": 0.0,
			"0.014": 0.0,
			"0.015": 0.0,
			"0.016": 0.0,
			"0.017": 0.0,
			"0.018": 0.0,
			"0.019": 0.0,
			"0.02": 0.0,
			"0.021": 0.0,
			"0.022": 0.0,
			"0.023": 0.0,
			"0.024": 0.0,
			"0.025": 0.0
		}
	}
}
