{
	 "smiles": "OC(=O)C1=NNC2=C1C=C(Br)C=C2", 
	 "Tm": 564.15, 
	 "num_atms": 18, 
	 "gaussian": { 
		 "optdone": 1, 
		 "sigma_profile": "yes", 
		 "theory": "DFT", 
		 "functional": "B3LYP", 
		 "basiset": "6-31G**", 
		 "properties": { 
			 "R2extent": 4484.5536, 
			 "electric_dipole_moment_norm": 6.6117223641, 
			 "electric_quadrupole_moment_norm": 9.8415178057, 
			 "total_energy": -3139.2196027, 
			 "HOMO_LUMO_gap": 0.17399, 
			 "cosmo_polarized_energy": -16.66, 
			 "cosmo_cavitation_energy": 25.62, 
			 "cosmo_dispersion_energy": -19.69, 
			 "cosmo_repulsion_energy": 1.55, 
			 "cosmo_total_nonelectrostatic_energy": 7.48, 
			 "SMD_solvation_energy": 3.52 
		},
		"coords": [
			{
				"x": 1.4887416511,
				"y": -3.8945946349,
				"z": -1.2553811303,
				"element": "O" 
			},
			{
				"x": 1.2006096544,
				"y": -2.6344313732,
				"z": -1.6439621375,
				"element": "C" 
			},
			{
				"x": 1.4954434405,
				"y": -2.2141244093,
				"z": -2.7405112636,
				"element": "O" 
			},
			{
				"x": 0.497164636,
				"y": -1.8127726937,
				"z": -0.6301346131,
				"element": "C" 
			},
			{
				"x": 0.196300329,
				"y": -2.3239339263,
				"z": 0.5580923115,
				"element": "N" 
			},
			{
				"x": -0.4286124372,
				"y": -1.3472451572,
				"z": 1.243271384,
				"element": "N" 
			},
			{
				"x": -0.54534453,
				"y": -0.1877171375,
				"z": 0.5162686517,
				"element": "C" 
			},
			{
				"x": 0.0578685925,
				"y": -0.4559304863,
				"z": -0.7351973296,
				"element": "C" 
			},
			{
				"x": 0.1090840445,
				"y": 0.5366682848,
				"z": -1.7299116231,
				"element": "C" 
			},
			{
				"x": -0.4515816381,
				"y": 1.7622037242,
				"z": -1.4208927422,
				"element": "C" 
			},
			{
				"x": -0.4221710731,
				"y": 3.1636525848,
				"z": -2.7198939074,
				"element": "Br" 
			},
			{
				"x": -1.0548447462,
				"y": 2.0299702891,
				"z": -0.1688334952,
				"element": "C" 
			},
			{
				"x": -1.1111987214,
				"y": 1.0602790841,
				"z": 0.8184756937,
				"element": "C" 
			},
			{
				"x": 1.1633229257,
				"y": -4.0174430447,
				"z": -0.3462341308,
				"element": "H" 
			},
			{
				"x": -0.7443529481,
				"y": -1.5318605339,
				"z": 2.1828621922,
				"element": "H" 
			},
			{
				"x": 0.5703470768,
				"y": 0.3323934787,
				"z": -2.6876857965,
				"element": "H" 
			},
			{
				"x": -1.4768217408,
				"y": 3.0117696495,
				"z": 0.0117640812,
				"element": "H" 
			},
			{
				"x": -1.5740545154,
				"y": 1.2671163018,
				"z": 1.7779038548,
				"element": "H" 
			}
		],
		 "valence_orbital": [ 
			{
				"type": "occ",
				"energy": -0.30432,
				"method": "rhf"
			},
			{
				"type": "occ",
				"energy": -0.29216,
				"method": "rhf"
			},
			{
				"type": "occ",
				"energy": -0.27711,
				"method": "rhf"
			},
			{
				"type": "occ",
				"energy": -0.26385,
				"method": "rhf"
			},
			{
				"type": "occ",
				"energy": -0.24171,
				"method": "rhf"
			},
			{
				"type": "unocc",
				"energy": -0.06772,
				"method": "rhf"
			},
			{
				"type": "unocc",
				"energy": -0.01947,
				"method": "rhf"
			},
			{
				"type": "unocc",
				"energy": -0.00919,
				"method": "rhf"
			},
			{
				"type": "unocc",
				"energy": 0.00072,
				"method": "rhf"
			},
			{
				"type": "unocc",
				"energy": 0.05767,
				"method": "rhf"
			}
		],
		"cosmo_sigma_profile": { 
			"-0.025": 0.0,
			"-0.024": 0.0,
			"-0.023": 0.0,
			"-0.022": 0.0,
			"-0.021": 0.0,
			"-0.02": 0.0,
			"-0.019": 0.0,
			"-0.018": 1.02374447743,
			"-0.017": 2.04126284994,
			"-0.016": 1.31407794478,
			"-0.015": 1.65821306006,
			"-0.014": 1.40776279078,
			"-0.013": 1.82846404459,
			"-0.012": 2.1809159933,
			"-0.011": 1.54240785468,
			"-0.01": 1.4922809401,
			"-0.009": 2.71594198897,
			"-0.008": 4.12207314407,
			"-0.007": 5.52493797937,
			"-0.006": 6.6493754069,
			"-0.005": 6.25539369711,
			"-0.004": 8.51299223984,
			"-0.003": 10.3460534836,
			"-0.002": 10.0982629721,
			"-0.001": 14.5317843585,
			"0.0": 18.9791754974,
			"0.001": 21.2749477705,
			"0.002": 22.6824053601,
			"0.003": 12.5928776842,
			"0.004": 14.6592528344,
			"0.005": 8.5390526689,
			"0.006": 3.5320005581,
			"0.007": 3.49271158704,
			"0.008": 3.14499706913,
			"0.009": 3.9676436805,
			"0.01": 5.13805824168,
			"0.011": 4.28194004631,
			"0.012": 3.07499385687,
			"0.013": 1.26440649657,
			"0.014": 0.0261393812203,
			"0.015": 0.0,
			"0.016": 0.0,
			"0.017": 0.0,
			"0.018": 0.0,
			"0.019": 0.0,
			"0.02": 0.0,
			"0.021": 0.0,
			"0.022": 0.0,
			"0.023": 0.0,
			"0.024": 0.0,
			"0.025": 0.0
		}
	}
}
