{
	 "smiles": "NC1=NC2=C(C=N1)N=CN2", 
	 "Tm": 555.15, 
	 "num_atms": 15, 
	 "gaussian": { 
		 "optdone": 1, 
		 "sigma_profile": "yes", 
		 "theory": "DFT", 
		 "functional": "B3LYP", 
		 "basiset": "6-31G**", 
		 "properties": { 
			 "R2extent": 1313.2974, 
			 "electric_dipole_moment_norm": 3.24726450108, 
			 "electric_quadrupole_moment_norm": 10.7576295632, 
			 "total_energy": -467.318097727, 
			 "HOMO_LUMO_gap": 0.17999, 
			 "cosmo_polarized_energy": -15.94, 
			 "cosmo_cavitation_energy": 19.61, 
			 "cosmo_dispersion_energy": -15.38, 
			 "cosmo_repulsion_energy": 1.25, 
			 "cosmo_total_nonelectrostatic_energy": 5.48, 
			 "SMD_solvation_energy": -1.4 
		},
		"coords": [
			{
				"x": 1.4610166551,
				"y": 0.0777239123,
				"z": 2.2825207364,
				"element": "N" 
			},
			{
				"x": 0.6988859309,
				"y": -0.1097978854,
				"z": 1.1606827675,
				"element": "C" 
			},
			{
				"x": -0.4652397835,
				"y": 0.5658739256,
				"z": 1.0968916017,
				"element": "N" 
			},
			{
				"x": -1.1024463916,
				"y": 0.3552356943,
				"z": -0.0495818923,
				"element": "C" 
			},
			{
				"x": -0.6746764754,
				"y": -0.4684528428,
				"z": -1.1128825378,
				"element": "C" 
			},
			{
				"x": 0.5417419904,
				"y": -1.1195293865,
				"z": -0.906338881,
				"element": "C" 
			},
			{
				"x": 1.2245442817,
				"y": -0.9415092133,
				"z": 0.2241461234,
				"element": "N" 
			},
			{
				"x": -1.5964819953,
				"y": -0.4537316069,
				"z": -2.1529066137,
				"element": "N" 
			},
			{
				"x": -2.539338484,
				"y": 0.3458513684,
				"z": -1.7327618178,
				"element": "C" 
			},
			{
				"x": -2.3064647816,
				"y": 0.8697877716,
				"z": -0.4681256504,
				"element": "N" 
			},
			{
				"x": 2.1967697207,
				"y": -0.592049997,
				"z": 2.4407644951,
				"element": "H" 
			},
			{
				"x": 1.0031412316,
				"y": 0.4804445057,
				"z": 3.0845015935,
				"element": "H" 
			},
			{
				"x": 0.9696741043,
				"y": -1.7900796647,
				"z": -1.6494589644,
				"element": "H" 
			},
			{
				"x": -3.4333046985,
				"y": 0.6021609162,
				"z": -2.2863801184,
				"element": "H" 
			},
			{
				"x": -2.8919213046,
				"y": 1.5076725025,
				"z": 0.049429158,
				"element": "H" 
			}
		],
		 "valence_orbital": [ 
			{
				"type": "occ",
				"energy": -0.30071,
				"method": "rhf"
			},
			{
				"type": "occ",
				"energy": -0.28269,
				"method": "rhf"
			},
			{
				"type": "occ",
				"energy": -0.26981,
				"method": "rhf"
			},
			{
				"type": "occ",
				"energy": -0.24299,
				"method": "rhf"
			},
			{
				"type": "occ",
				"energy": -0.21121,
				"method": "rhf"
			},
			{
				"type": "unocc",
				"energy": -0.03122,
				"method": "rhf"
			},
			{
				"type": "unocc",
				"energy": 0.01617,
				"method": "rhf"
			},
			{
				"type": "unocc",
				"energy": 0.04578,
				"method": "rhf"
			},
			{
				"type": "unocc",
				"energy": 0.07766,
				"method": "rhf"
			},
			{
				"type": "unocc",
				"energy": 0.09693,
				"method": "rhf"
			}
		],
		"cosmo_sigma_profile": { 
			"-0.025": 0.0,
			"-0.024": 0.0,
			"-0.023": 0.0,
			"-0.022": 0.0,
			"-0.021": 0.0,
			"-0.02": 0.0,
			"-0.019": 0.0,
			"-0.018": 0.0,
			"-0.017": 0.970012087569,
			"-0.016": 1.87427176118,
			"-0.015": 1.2865546298,
			"-0.014": 1.77631670597,
			"-0.013": 2.91182206873,
			"-0.012": 2.62965945367,
			"-0.011": 3.5950196661,
			"-0.01": 4.63194518731,
			"-0.009": 4.64220056172,
			"-0.008": 5.47261390287,
			"-0.007": 5.24138853552,
			"-0.006": 4.17737354667,
			"-0.005": 4.87158025105,
			"-0.004": 5.17583021076,
			"-0.003": 3.7797200638,
			"-0.002": 5.15355468527,
			"-0.001": 9.86401254967,
			"0.0": 14.8856840969,
			"0.001": 12.7478680667,
			"0.002": 7.61350919887,
			"0.003": 6.32126564241,
			"0.004": 5.18178387774,
			"0.005": 5.72571638541,
			"0.006": 4.69350333942,
			"0.007": 5.22310870462,
			"0.008": 4.33277536602,
			"0.009": 5.04700317357,
			"0.01": 2.84912222875,
			"0.011": 3.17286356998,
			"0.012": 2.61674359671,
			"0.013": 2.81530203975,
			"0.014": 2.86339082751,
			"0.015": 1.74885391328,
			"0.016": 1.21753157921,
			"0.017": 0.477463556557,
			"0.018": 0.0,
			"0.019": 0.0,
			"0.02": 0.0,
			"0.021": 0.0,
			"0.022": 0.0,
			"0.023": 0.0,
			"0.024": 0.0,
			"0.025": 0.0
		}
	}
}
