{
	 "smiles": "[O-][N+](=O)C1=C(C=CC=O)C=CC=C1", 
	 "Tm": 400.15, 
	 "num_atms": 20, 
	 "gaussian": { 
		 "optdone": 1, 
		 "sigma_profile": "yes", 
		 "theory": "DFT", 
		 "functional": "B3LYP", 
		 "basiset": "6-31G**", 
		 "properties": { 
			 "R2extent": 3250.4341, 
			 "electric_dipole_moment_norm": 4.81963860678, 
			 "electric_quadrupole_moment_norm": 21.4468224329, 
			 "total_energy": -627.460995481, 
			 "HOMO_LUMO_gap": 0.14764, 
			 "cosmo_polarized_energy": -12.94, 
			 "cosmo_cavitation_energy": 25.62, 
			 "cosmo_dispersion_energy": -18.33, 
			 "cosmo_repulsion_energy": 1.46, 
			 "cosmo_total_nonelectrostatic_energy": 8.75, 
			 "SMD_solvation_energy": 7.62 
		},
		"coords": [
			{
				"x": 1.7744404517,
				"y": 0.2043421462,
				"z": -2.341927097,
				"element": "O" 
			},
			{
				"x": 0.8275540562,
				"y": 0.9757545937,
				"z": -2.5038957887,
				"element": "N" 
			},
			{
				"x": 0.2660575244,
				"y": 1.1652406461,
				"z": -3.5814495903,
				"element": "O" 
			},
			{
				"x": 0.3299049528,
				"y": 1.718822141,
				"z": -1.3317796446,
				"element": "C" 
			},
			{
				"x": 1.0041970252,
				"y": 1.6622292832,
				"z": -0.0930476648,
				"element": "C" 
			},
			{
				"x": 2.2932720614,
				"y": 0.9718326803,
				"z": 0.1270161228,
				"element": "C" 
			},
			{
				"x": 2.5941325476,
				"y": 0.165223628,
				"z": 1.1653082647,
				"element": "C" 
			},
			{
				"x": 1.6401181961,
				"y": -0.3492753459,
				"z": 2.1625135887,
				"element": "C" 
			},
			{
				"x": 1.981653642,
				"y": -1.0170468916,
				"z": 3.1230052495,
				"element": "O" 
			},
			{
				"x": 0.4302466479,
				"y": 2.3953208726,
				"z": 0.9621860988,
				"element": "C" 
			},
			{
				"x": -0.7506417157,
				"y": 3.1170867294,
				"z": 0.8009641446,
				"element": "C" 
			},
			{
				"x": -1.3944349858,
				"y": 3.1439863766,
				"z": -0.437133083,
				"element": "C" 
			},
			{
				"x": -0.8483099084,
				"y": 2.4440439108,
				"z": -1.5080558112,
				"element": "C" 
			},
			{
				"x": 3.0715984555,
				"y": 1.1755891034,
				"z": -0.6016788455,
				"element": "H" 
			},
			{
				"x": 3.6091755324,
				"y": -0.2085353922,
				"z": 1.2730302018,
				"element": "H" 
			},
			{
				"x": 0.5701677282,
				"y": -0.1184900801,
				"z": 1.982009411,
				"element": "H" 
			},
			{
				"x": 0.9483552013,
				"y": 2.4148374985,
				"z": 1.9147245287,
				"element": "H" 
			},
			{
				"x": -1.1609685748,
				"y": 3.6663924247,
				"z": 1.6427542747,
				"element": "H" 
			},
			{
				"x": -2.3126593134,
				"y": 3.7063910464,
				"z": -0.5707418476,
				"element": "H" 
			},
			{
				"x": -1.3174595248,
				"y": 2.4377546288,
				"z": -2.4835025127,
				"element": "H" 
			}
		],
		 "valence_orbital": [ 
			{
				"type": "occ",
				"energy": -0.31237,
				"method": "rhf"
			},
			{
				"type": "occ",
				"energy": -0.29759,
				"method": "rhf"
			},
			{
				"type": "occ",
				"energy": -0.29452,
				"method": "rhf"
			},
			{
				"type": "occ",
				"energy": -0.27132,
				"method": "rhf"
			},
			{
				"type": "occ",
				"energy": -0.25291,
				"method": "rhf"
			},
			{
				"type": "unocc",
				"energy": -0.10527,
				"method": "rhf"
			},
			{
				"type": "unocc",
				"energy": -0.07217,
				"method": "rhf"
			},
			{
				"type": "unocc",
				"energy": -0.0358,
				"method": "rhf"
			},
			{
				"type": "unocc",
				"energy": -0.0123,
				"method": "rhf"
			},
			{
				"type": "unocc",
				"energy": 0.05682,
				"method": "rhf"
			}
		],
		"cosmo_sigma_profile": { 
			"-0.025": 0.0,
			"-0.024": 0.0,
			"-0.023": 0.0,
			"-0.022": 0.0,
			"-0.021": 0.0,
			"-0.02": 0.0,
			"-0.019": 0.0,
			"-0.018": 0.0,
			"-0.017": 0.0,
			"-0.016": 0.0,
			"-0.015": 0.0,
			"-0.014": 0.0,
			"-0.013": 0.0,
			"-0.012": 0.0,
			"-0.011": 0.0,
			"-0.01": 0.0,
			"-0.009": 0.0407825459186,
			"-0.008": 5.78783996285,
			"-0.007": 15.2151865548,
			"-0.006": 16.1588277309,
			"-0.005": 15.1950075257,
			"-0.004": 13.6571275568,
			"-0.003": 13.3848468336,
			"-0.002": 13.7129581192,
			"-0.001": 15.9397054334,
			"0.0": 16.271015832,
			"0.001": 15.1495540669,
			"0.002": 9.38720444269,
			"0.003": 4.33524857663,
			"0.004": 3.72254419723,
			"0.005": 5.80388917557,
			"0.006": 5.12184818186,
			"0.007": 9.06490071725,
			"0.008": 7.97653949198,
			"0.009": 5.99563111188,
			"0.01": 4.24521803251,
			"0.011": 3.94900476352,
			"0.012": 4.29762961235,
			"0.013": 1.73647666361,
			"0.014": 0.0635624648313,
			"0.015": 0.0,
			"0.016": 0.0,
			"0.017": 0.0,
			"0.018": 0.0,
			"0.019": 0.0,
			"0.02": 0.0,
			"0.021": 0.0,
			"0.022": 0.0,
			"0.023": 0.0,
			"0.024": 0.0,
			"0.025": 0.0
		}
	}
}
