{
	 "smiles": "C1=CC2=C(C=C1)C1=C(C=CC=C1)N=C2", 
	 "Tm": 380.15, 
	 "num_atms": 23, 
	 "gaussian": { 
		 "optdone": 1, 
		 "sigma_profile": "yes", 
		 "theory": "DFT", 
		 "functional": "B3LYP", 
		 "basiset": "6-31G**", 
		 "properties": { 
			 "R2extent": 2932.7288, 
			 "electric_dipole_moment_norm": 2.28755400811, 
			 "electric_quadrupole_moment_norm": 11.2287582911, 
			 "total_energy": -555.579674446, 
			 "HOMO_LUMO_gap": 0.17566, 
			 "cosmo_polarized_energy": -7.84, 
			 "cosmo_cavitation_energy": 26.37, 
			 "cosmo_dispersion_energy": -20.02, 
			 "cosmo_repulsion_energy": 1.51, 
			 "cosmo_total_nonelectrostatic_energy": 7.85, 
			 "SMD_solvation_energy": 2.58 
		},
		"coords": [
			{
				"x": 1.6539839649,
				"y": -1.9008609229,
				"z": -3.6951720252,
				"element": "C" 
			},
			{
				"x": 1.4233816007,
				"y": -2.3505441968,
				"z": -2.4098149854,
				"element": "C" 
			},
			{
				"x": 0.850372837,
				"y": -1.4941723715,
				"z": -1.4442254313,
				"element": "C" 
			},
			{
				"x": 0.5043361085,
				"y": -0.1586337913,
				"z": -1.7854396991,
				"element": "C" 
			},
			{
				"x": 0.7510739524,
				"y": 0.2760509671,
				"z": -3.1081209551,
				"element": "C" 
			},
			{
				"x": 1.3134508737,
				"y": -0.5775472515,
				"z": -4.040662937,
				"element": "C" 
			},
			{
				"x": -0.0809995574,
				"y": 0.6675898786,
				"z": -0.7449082535,
				"element": "C" 
			},
			{
				"x": -0.2679459261,
				"y": 0.0857738958,
				"z": 0.5431405798,
				"element": "C" 
			},
			{
				"x": -0.8345187573,
				"y": 0.8558888639,
				"z": 1.583761294,
				"element": "C" 
			},
			{
				"x": -1.2099704686,
				"y": 2.1673545462,
				"z": 1.3676064403,
				"element": "C" 
			},
			{
				"x": -1.0277004537,
				"y": 2.7473879478,
				"z": 0.0970342129,
				"element": "C" 
			},
			{
				"x": -0.4748893034,
				"y": 2.0116848511,
				"z": -0.9358413008,
				"element": "C" 
			},
			{
				"x": 0.0800205603,
				"y": -1.2191244598,
				"z": 0.8440017052,
				"element": "N" 
			},
			{
				"x": 0.6026946698,
				"y": -1.9434610845,
				"z": -0.1009363082,
				"element": "C" 
			},
			{
				"x": 2.094579564,
				"y": -2.5591570937,
				"z": -4.4377604963,
				"element": "H" 
			},
			{
				"x": 1.6791528633,
				"y": -3.3677720987,
				"z": -2.1238358959,
				"element": "H" 
			},
			{
				"x": 0.4994558733,
				"y": 1.2889128527,
				"z": -3.4031684855,
				"element": "H" 
			},
			{
				"x": 1.494622989,
				"y": -0.2232473021,
				"z": -5.051432384,
				"element": "H" 
			},
			{
				"x": -0.9593087207,
				"y": 0.3748159205,
				"z": 2.5483899488,
				"element": "H" 
			},
			{
				"x": -1.6446944093,
				"y": 2.7518754847,
				"z": 2.1731218179,
				"element": "H" 
			},
			{
				"x": -1.3226033454,
				"y": 3.7786167899,
				"z": -0.0741461025,
				"element": "H" 
			},
			{
				"x": -0.3445784243,
				"y": 2.4804839432,
				"z": -1.9056794233,
				"element": "H" 
			},
			{
				"x": 0.8711835093,
				"y": -2.9707153686,
				"z": 0.1539886841,
				"element": "H" 
			}
		],
		 "valence_orbital": [ 
			{
				"type": "occ",
				"energy": -0.28996,
				"method": "rhf"
			},
			{
				"type": "occ",
				"energy": -0.27061,
				"method": "rhf"
			},
			{
				"type": "occ",
				"energy": -0.25203,
				"method": "rhf"
			},
			{
				"type": "occ",
				"energy": -0.23067,
				"method": "rhf"
			},
			{
				"type": "occ",
				"energy": -0.22745,
				"method": "rhf"
			},
			{
				"type": "unocc",
				"energy": -0.05179,
				"method": "rhf"
			},
			{
				"type": "unocc",
				"energy": -0.03833,
				"method": "rhf"
			},
			{
				"type": "unocc",
				"energy": 4e-05,
				"method": "rhf"
			},
			{
				"type": "unocc",
				"energy": 0.0305,
				"method": "rhf"
			},
			{
				"type": "unocc",
				"energy": 0.0687,
				"method": "rhf"
			}
		],
		"cosmo_sigma_profile": { 
			"-0.025": 0.0,
			"-0.024": 0.0,
			"-0.023": 0.0,
			"-0.022": 0.0,
			"-0.021": 0.0,
			"-0.02": 0.0,
			"-0.019": 0.0,
			"-0.018": 0.0,
			"-0.017": 0.0,
			"-0.016": 0.0,
			"-0.015": 0.0,
			"-0.014": 0.0,
			"-0.013": 0.0,
			"-0.012": 0.0,
			"-0.011": 0.0,
			"-0.01": 0.0,
			"-0.009": 0.433199982377,
			"-0.008": 1.61342779365,
			"-0.007": 6.30169396359,
			"-0.006": 15.5866079355,
			"-0.005": 16.4221598151,
			"-0.004": 17.8817574451,
			"-0.003": 13.0546681353,
			"-0.002": 12.3587336364,
			"-0.001": 9.95396162732,
			"0.0": 14.913719571,
			"0.001": 17.2380228541,
			"0.002": 20.8397232245,
			"0.003": 23.9621992214,
			"0.004": 22.5288886584,
			"0.005": 8.37528254374,
			"0.006": 1.38409866608,
			"0.007": 1.43807276141,
			"0.008": 1.23963399782,
			"0.009": 1.43093799217,
			"0.01": 0.907330893182,
			"0.011": 0.887714781086,
			"0.012": 1.01436788352,
			"0.013": 0.927078972934,
			"0.014": 1.09245368151,
			"0.015": 0.510534322803,
			"0.016": 0.592975987319,
			"0.017": 0.068884170515,
			"0.018": 0.0,
			"0.019": 0.0,
			"0.02": 0.0,
			"0.021": 0.0,
			"0.022": 0.0,
			"0.023": 0.0,
			"0.024": 0.0,
			"0.025": 0.0
		}
	}
}
