{
	 "smiles": "CC1=NN(C(C)=C1CC(O)=O)C1=CC=C(Cl)C=C1", 
	 "Tm": 452.15, 
	 "num_atms": 31, 
	 "gaussian": { 
		 "optdone": 1, 
		 "sigma_profile": "yes", 
		 "theory": "DFT", 
		 "functional": "B3LYP", 
		 "basiset": "6-31G**", 
		 "properties": { 
			 "R2extent": 7667.4512, 
			 "electric_dipole_moment_norm": 3.73598951952, 
			 "electric_quadrupole_moment_norm": 1.32794690782, 
			 "total_energy": -1223.37441862, 
			 "HOMO_LUMO_gap": 0.19422, 
			 "cosmo_polarized_energy": -15.61, 
			 "cosmo_cavitation_energy": 37.11, 
			 "cosmo_dispersion_energy": -26.32, 
			 "cosmo_repulsion_energy": 2.06, 
			 "cosmo_total_nonelectrostatic_energy": 12.84, 
			 "SMD_solvation_energy": 6.35 
		},
		"coords": [
			{
				"x": -3.6754033846,
				"y": -1.4434961411,
				"z": 1.4354283426,
				"element": "C" 
			},
			{
				"x": -2.3540446544,
				"y": -0.9304130597,
				"z": 0.9545833395,
				"element": "C" 
			},
			{
				"x": -1.6587220462,
				"y": -1.6010684867,
				"z": 0.0460994842,
				"element": "N" 
			},
			{
				"x": -0.5235347504,
				"y": -0.8689020803,
				"z": -0.1576728147,
				"element": "N" 
			},
			{
				"x": -0.5065948171,
				"y": 0.2766293276,
				"z": 0.6064401267,
				"element": "C" 
			},
			{
				"x": 0.567062538,
				"y": 1.3189241174,
				"z": 0.5460932216,
				"element": "C" 
			},
			{
				"x": -1.6773180161,
				"y": 0.2591985804,
				"z": 1.3460714889,
				"element": "C" 
			},
			{
				"x": -2.1305873781,
				"y": 1.2760293375,
				"z": 2.3472249297,
				"element": "C" 
			},
			{
				"x": -3.3088056124,
				"y": 2.1289440393,
				"z": 1.8971821057,
				"element": "C" 
			},
			{
				"x": -3.4439882089,
				"y": 3.2190988661,
				"z": 2.69311409,
				"element": "O" 
			},
			{
				"x": -4.0658678357,
				"y": 1.8928001773,
				"z": 0.9834297309,
				"element": "O" 
			},
			{
				"x": 0.4023393552,
				"y": -1.3240830786,
				"z": -1.130007786,
				"element": "C" 
			},
			{
				"x": 1.7829916038,
				"y": -1.1947252755,
				"z": -0.9421075375,
				"element": "C" 
			},
			{
				"x": 2.6702341908,
				"y": -1.6488549671,
				"z": -1.9178483475,
				"element": "C" 
			},
			{
				"x": 2.1715988191,
				"y": -2.254015335,
				"z": -3.0691674243,
				"element": "C" 
			},
			{
				"x": 3.287516805,
				"y": -2.8329710916,
				"z": -4.2972078873,
				"element": "Cl" 
			},
			{
				"x": 0.7976080928,
				"y": -2.4138065289,
				"z": -3.2558082026,
				"element": "C" 
			},
			{
				"x": -0.084979488,
				"y": -1.9443735596,
				"z": -2.2881954473,
				"element": "C" 
			},
			{
				"x": -4.4728796001,
				"y": -0.7329682291,
				"z": 1.1969768828,
				"element": "H" 
			},
			{
				"x": -3.8968426789,
				"y": -2.4007950183,
				"z": 0.9590434275,
				"element": "H" 
			},
			{
				"x": -3.677133327,
				"y": -1.5924477784,
				"z": 2.52224915,
				"element": "H" 
			},
			{
				"x": 0.1687293207,
				"y": 2.2796175372,
				"z": 0.8817064818,
				"element": "H" 
			},
			{
				"x": 0.9413456464,
				"y": 1.4521164449,
				"z": -0.4728025839,
				"element": "H" 
			},
			{
				"x": 1.4258897744,
				"y": 1.0811284372,
				"z": 1.1854551103,
				"element": "H" 
			},
			{
				"x": -1.3196313129,
				"y": 1.9493819678,
				"z": 2.6403666844,
				"element": "H" 
			},
			{
				"x": -2.4509620239,
				"y": 0.7906858962,
				"z": 3.2805298237,
				"element": "H" 
			},
			{
				"x": -4.2310551282,
				"y": 3.6910671413,
				"z": 2.372488271,
				"element": "H" 
			},
			{
				"x": 2.1738064764,
				"y": -0.7667870105,
				"z": -0.0270217014,
				"element": "H" 
			},
			{
				"x": 3.7402791799,
				"y": -1.5497933689,
				"z": -1.7739494021,
				"element": "H" 
			},
			{
				"x": 0.4230883201,
				"y": -2.8927729432,
				"z": -4.1535832161,
				"element": "H" 
			},
			{
				"x": -1.1551398596,
				"y": -2.0589479177,
				"z": -2.4097103407,
				"element": "H" 
			}
		],
		 "valence_orbital": [ 
			{
				"type": "occ",
				"energy": -0.28215,
				"method": "rhf"
			},
			{
				"type": "occ",
				"energy": -0.26937,
				"method": "rhf"
			},
			{
				"type": "occ",
				"energy": -0.2677,
				"method": "rhf"
			},
			{
				"type": "occ",
				"energy": -0.23658,
				"method": "rhf"
			},
			{
				"type": "occ",
				"energy": -0.2205,
				"method": "rhf"
			},
			{
				"type": "unocc",
				"energy": -0.02628,
				"method": "rhf"
			},
			{
				"type": "unocc",
				"energy": -0.01866,
				"method": "rhf"
			},
			{
				"type": "unocc",
				"energy": 0.00424,
				"method": "rhf"
			},
			{
				"type": "unocc",
				"energy": 0.0268,
				"method": "rhf"
			},
			{
				"type": "unocc",
				"energy": 0.03223,
				"method": "rhf"
			}
		],
		"cosmo_sigma_profile": { 
			"-0.025": 0.0,
			"-0.024": 0.0,
			"-0.023": 0.0,
			"-0.022": 0.0,
			"-0.021": 0.0,
			"-0.02": 0.0,
			"-0.019": 0.0283089058056,
			"-0.018": 0.622486862806,
			"-0.017": 1.03651366189,
			"-0.016": 0.82205573536,
			"-0.015": 0.706141498184,
			"-0.014": 0.915239263576,
			"-0.013": 0.468294654371,
			"-0.012": 0.606653586862,
			"-0.011": 0.65677026698,
			"-0.01": 0.979630694244,
			"-0.009": 0.449279828051,
			"-0.008": 2.81368779086,
			"-0.007": 12.1379739743,
			"-0.006": 16.1295057494,
			"-0.005": 17.6326247344,
			"-0.004": 18.0545930127,
			"-0.003": 21.8891052724,
			"-0.002": 22.6611480722,
			"-0.001": 23.8998085484,
			"0.0": 21.5072031316,
			"0.001": 21.6581000282,
			"0.002": 21.5725917732,
			"0.003": 24.4460281328,
			"0.004": 18.3276691305,
			"0.005": 12.185168414,
			"0.006": 5.68559763715,
			"0.007": 4.44744297421,
			"0.008": 5.1166295114,
			"0.009": 4.70672773431,
			"0.01": 4.36756107981,
			"0.011": 4.83965608447,
			"0.012": 4.10354794541,
			"0.013": 0.983234260194,
			"0.014": 0.738112766801,
			"0.015": 0.383995811365,
			"0.016": 0.0,
			"0.017": 0.0,
			"0.018": 0.0,
			"0.019": 0.0,
			"0.02": 0.0,
			"0.021": 0.0,
			"0.022": 0.0,
			"0.023": 0.0,
			"0.024": 0.0,
			"0.025": 0.0
		}
	}
}
