{
	 "smiles": "NC1=C(Cl)C(=O)NN=C1", 
	 "Tm": 573.15, 
	 "num_atms": 13, 
	 "gaussian": { 
		 "optdone": 1, 
		 "sigma_profile": "yes", 
		 "theory": "DFT", 
		 "functional": "B3LYP", 
		 "basiset": "6-31G**", 
		 "properties": { 
			 "R2extent": 1530.5809, 
			 "electric_dipole_moment_norm": 5.24733189535, 
			 "electric_quadrupole_moment_norm": 11.6620929056, 
			 "total_energy": -854.485854655, 
			 "HOMO_LUMO_gap": 0.17437, 
			 "cosmo_polarized_energy": -17.93, 
			 "cosmo_cavitation_energy": 19.35, 
			 "cosmo_dispersion_energy": -14.98, 
			 "cosmo_repulsion_energy": 1.24, 
			 "cosmo_total_nonelectrostatic_energy": 5.61, 
			 "SMD_solvation_energy": 3.3 
		},
		"coords": [
			{
				"x": 1.5379652791,
				"y": -0.2919582753,
				"z": -1.2211585254,
				"element": "N" 
			},
			{
				"x": 0.5647719652,
				"y": -0.1333652626,
				"z": -0.2746743335,
				"element": "C" 
			},
			{
				"x": 0.7883393572,
				"y": -0.2427528567,
				"z": 1.081814489,
				"element": "C" 
			},
			{
				"x": 2.3626229273,
				"y": -0.6636942189,
				"z": 1.6932615419,
				"element": "Cl" 
			},
			{
				"x": -0.2661341175,
				"y": -0.0190922885,
				"z": 2.0519070571,
				"element": "C" 
			},
			{
				"x": -0.1927847019,
				"y": -0.0868443986,
				"z": 3.2706366582,
				"element": "O" 
			},
			{
				"x": -1.4904327223,
				"y": 0.3048888498,
				"z": 1.4316352842,
				"element": "N" 
			},
			{
				"x": -1.7591991873,
				"y": 0.4183965368,
				"z": 0.1290726585,
				"element": "N" 
			},
			{
				"x": -0.7736643791,
				"y": 0.2095574549,
				"z": -0.6934950876,
				"element": "C" 
			},
			{
				"x": 1.2582198581,
				"y": -0.4612464919,
				"z": -2.1743353789,
				"element": "H" 
			},
			{
				"x": 2.4111478416,
				"y": -0.7071182468,
				"z": -0.9318036375,
				"element": "H" 
			},
			{
				"x": -2.2684647258,
				"y": 0.4713604138,
				"z": 2.0585662358,
				"element": "H" 
			},
			{
				"x": -1.0026873946,
				"y": 0.3125687843,
				"z": -1.7505269617,
				"element": "H" 
			}
		],
		 "valence_orbital": [ 
			{
				"type": "occ",
				"energy": -0.32341,
				"method": "rhf"
			},
			{
				"type": "occ",
				"energy": -0.32162,
				"method": "rhf"
			},
			{
				"type": "occ",
				"energy": -0.26217,
				"method": "rhf"
			},
			{
				"type": "occ",
				"energy": -0.2551,
				"method": "rhf"
			},
			{
				"type": "occ",
				"energy": -0.22894,
				"method": "rhf"
			},
			{
				"type": "unocc",
				"energy": -0.05457,
				"method": "rhf"
			},
			{
				"type": "unocc",
				"energy": 0.00316,
				"method": "rhf"
			},
			{
				"type": "unocc",
				"energy": 0.02768,
				"method": "rhf"
			},
			{
				"type": "unocc",
				"energy": 0.05914,
				"method": "rhf"
			},
			{
				"type": "unocc",
				"energy": 0.09724,
				"method": "rhf"
			}
		],
		"cosmo_sigma_profile": { 
			"-0.025": 0.0,
			"-0.024": 0.0,
			"-0.023": 0.0,
			"-0.022": 0.0,
			"-0.021": 0.0,
			"-0.02": 0.0,
			"-0.019": 0.0,
			"-0.018": 0.0,
			"-0.017": 0.00678856200999,
			"-0.016": 0.790415133209,
			"-0.015": 2.66981611333,
			"-0.014": 3.34747723762,
			"-0.013": 3.70039817038,
			"-0.012": 3.36249824811,
			"-0.011": 3.1558282252,
			"-0.01": 3.70803608213,
			"-0.009": 3.79258665419,
			"-0.008": 3.80823080671,
			"-0.007": 3.20773096076,
			"-0.006": 3.44532507346,
			"-0.005": 3.80802031699,
			"-0.004": 3.12217136802,
			"-0.003": 6.04649835125,
			"-0.002": 10.62380196,
			"-0.001": 13.4713717465,
			"0.0": 11.9219253367,
			"0.001": 10.33389565,
			"0.002": 8.14982490734,
			"0.003": 8.14104711864,
			"0.004": 8.15360622371,
			"0.005": 6.58941612528,
			"0.006": 3.78976952722,
			"0.007": 2.43199715303,
			"0.008": 4.01972427517,
			"0.009": 2.75771853842,
			"0.01": 1.76788483479,
			"0.011": 2.4020726544,
			"0.012": 3.22920151207,
			"0.013": 5.06301705052,
			"0.014": 5.48866029324,
			"0.015": 0.646637225728,
			"0.016": 0.0,
			"0.017": 0.0,
			"0.018": 0.0,
			"0.019": 0.0,
			"0.02": 0.0,
			"0.021": 0.0,
			"0.022": 0.0,
			"0.023": 0.0,
			"0.024": 0.0,
			"0.025": 0.0
		}
	}
}
