{
	 "smiles": "CC1=C(C=C2C(=C1N(=O)=O)C(C)(C)CC2(C)C)N(=O)=O", 
	 "Tm": 405.15, 
	 "num_atms": 38, 
	 "gaussian": { 
		 "optdone": 1, 
		 "sigma_profile": "yes", 
		 "theory": "DFT", 
		 "functional": "B3LYP", 
		 "basiset": "6-31G**", 
		 "properties": { 
			 "R2extent": 5333.0037, 
			 "electric_dipole_moment_norm": 4.42170942284, 
			 "electric_quadrupole_moment_norm": 14.8115606615, 
			 "total_energy": -954.553909226, 
			 "HOMO_LUMO_gap": 0.17482, 
			 "cosmo_polarized_energy": -10.33, 
			 "cosmo_cavitation_energy": 38.85, 
			 "cosmo_dispersion_energy": -26.4, 
			 "cosmo_repulsion_energy": 1.98, 
			 "cosmo_total_nonelectrostatic_energy": 14.43, 
			 "SMD_solvation_energy": 10.92 
		},
		"coords": [
			{
				"x": 0.5543801199,
				"y": 1.5893431042,
				"z": 2.9239131176,
				"element": "C" 
			},
			{
				"x": 0.063496564,
				"y": 0.8510306779,
				"z": 1.7000919002,
				"element": "C" 
			},
			{
				"x": -1.2911846008,
				"y": 0.6126423324,
				"z": 1.3996007512,
				"element": "C" 
			},
			{
				"x": -1.7071839437,
				"y": -0.1064600224,
				"z": 0.2772154492,
				"element": "C" 
			},
			{
				"x": -0.759656619,
				"y": -0.6030777151,
				"z": -0.6049980064,
				"element": "C" 
			},
			{
				"x": 0.6084147975,
				"y": -0.4180566624,
				"z": -0.3574608322,
				"element": "C" 
			},
			{
				"x": 0.9741868951,
				"y": 0.3054831496,
				"z": 0.7783053033,
				"element": "C" 
			},
			{
				"x": 2.4102579179,
				"y": 0.5617598592,
				"z": 1.0302872391,
				"element": "N" 
			},
			{
				"x": 3.104430055,
				"y": -0.3810923966,
				"z": 1.4044316829,
				"element": "O" 
			},
			{
				"x": 2.8070216247,
				"y": 1.7084809202,
				"z": 0.8500970775,
				"element": "O" 
			},
			{
				"x": 1.4668110147,
				"y": -1.081832268,
				"z": -1.439915935,
				"element": "C" 
			},
			{
				"x": 2.0797088195,
				"y": -2.4030455352,
				"z": -0.913502341,
				"element": "C" 
			},
			{
				"x": 2.5926085031,
				"y": -0.182475893,
				"z": -1.9893364608,
				"element": "C" 
			},
			{
				"x": 0.4004006633,
				"y": -1.3557081555,
				"z": -2.5492906377,
				"element": "C" 
			},
			{
				"x": -1.0142461205,
				"y": -1.3718508802,
				"z": -1.8956940576,
				"element": "C" 
			},
			{
				"x": -1.5096989666,
				"y": -2.8033433046,
				"z": -1.5880724217,
				"element": "C" 
			},
			{
				"x": -2.0505490048,
				"y": -0.6665752454,
				"z": -2.7914056781,
				"element": "C" 
			},
			{
				"x": -2.3699490752,
				"y": 1.1391070455,
				"z": 2.2559734811,
				"element": "N" 
			},
			{
				"x": -2.1360766799,
				"y": 2.1304482766,
				"z": 2.9470387123,
				"element": "O" 
			},
			{
				"x": -3.4574694509,
				"y": 0.5643233449,
				"z": 2.2096754763,
				"element": "O" 
			},
			{
				"x": 0.5181972186,
				"y": 2.6705364272,
				"z": 2.765047387,
				"element": "H" 
			},
			{
				"x": 1.5818890953,
				"y": 1.3117718492,
				"z": 3.1628689828,
				"element": "H" 
			},
			{
				"x": -0.0725455373,
				"y": 1.3763296839,
				"z": 3.7890218842,
				"element": "H" 
			},
			{
				"x": -2.7696122912,
				"y": -0.2467068076,
				"z": 0.1193832721,
				"element": "H" 
			},
			{
				"x": 2.6182052322,
				"y": -2.9045070473,
				"z": -1.7249792645,
				"element": "H" 
			},
			{
				"x": 1.3122874259,
				"y": -3.0887823169,
				"z": -0.5444429368,
				"element": "H" 
			},
			{
				"x": 2.779735968,
				"y": -2.2120835858,
				"z": -0.0980657673,
				"element": "H" 
			},
			{
				"x": 3.4072212727,
				"y": -0.0494969863,
				"z": -1.272971547,
				"element": "H" 
			},
			{
				"x": 2.2155792013,
				"y": 0.8053247337,
				"z": -2.2719205817,
				"element": "H" 
			},
			{
				"x": 3.0215272672,
				"y": -0.6476322337,
				"z": -2.8833479575,
				"element": "H" 
			},
			{
				"x": 0.4399525218,
				"y": -0.5416382873,
				"z": -3.2819411337,
				"element": "H" 
			},
			{
				"x": 0.6162662363,
				"y": -2.2824172548,
				"z": -3.0903657357,
				"element": "H" 
			},
			{
				"x": -0.8080177247,
				"y": -3.355377838,
				"z": -0.9574480237,
				"element": "H" 
			},
			{
				"x": -2.4736915567,
				"y": -2.7781223332,
				"z": -1.0687802945,
				"element": "H" 
			},
			{
				"x": -1.6445158859,
				"y": -3.3658715117,
				"z": -2.5183519093,
				"element": "H" 
			},
			{
				"x": -1.7626678158,
				"y": 0.3699635157,
				"z": -2.9932104786,
				"element": "H" 
			},
			{
				"x": -2.1396920231,
				"y": -1.1874545646,
				"z": -3.7509953279,
				"element": "H" 
			},
			{
				"x": -3.0432211175,
				"y": -0.6589360745,
				"z": -2.3284543879,
				"element": "H" 
			}
		],
		 "valence_orbital": [ 
			{
				"type": "occ",
				"energy": -0.31481,
				"method": "rhf"
			},
			{
				"type": "occ",
				"energy": -0.30984,
				"method": "rhf"
			},
			{
				"type": "occ",
				"energy": -0.29775,
				"method": "rhf"
			},
			{
				"type": "occ",
				"energy": -0.27514,
				"method": "rhf"
			},
			{
				"type": "occ",
				"energy": -0.26834,
				"method": "rhf"
			},
			{
				"type": "unocc",
				"energy": -0.09352,
				"method": "rhf"
			},
			{
				"type": "unocc",
				"energy": -0.0882,
				"method": "rhf"
			},
			{
				"type": "unocc",
				"energy": -0.03718,
				"method": "rhf"
			},
			{
				"type": "unocc",
				"energy": -0.01451,
				"method": "rhf"
			},
			{
				"type": "unocc",
				"energy": 0.06526,
				"method": "rhf"
			}
		],
		"cosmo_sigma_profile": { 
			"-0.025": 0.0,
			"-0.024": 0.0,
			"-0.023": 0.0,
			"-0.022": 0.0,
			"-0.021": 0.0,
			"-0.02": 0.0,
			"-0.019": 0.0,
			"-0.018": 0.0,
			"-0.017": 0.0,
			"-0.016": 0.0,
			"-0.015": 0.0,
			"-0.014": 0.0,
			"-0.013": 0.0,
			"-0.012": 0.0,
			"-0.011": 0.0,
			"-0.01": 0.0,
			"-0.009": 0.271444979051,
			"-0.008": 0.753894063123,
			"-0.007": 3.68292015603,
			"-0.006": 7.53804412175,
			"-0.005": 10.4340690107,
			"-0.004": 22.0703793203,
			"-0.003": 39.842052177,
			"-0.002": 39.4153031042,
			"-0.001": 42.091576538,
			"0.0": 41.1622328052,
			"0.001": 24.0420055418,
			"0.002": 8.29153389565,
			"0.003": 6.56872195658,
			"0.004": 5.4895062224,
			"0.005": 7.57794695471,
			"0.006": 10.2975262467,
			"0.007": 15.4268109516,
			"0.008": 11.3385211614,
			"0.009": 6.41712934252,
			"0.01": 2.07189700879,
			"0.011": 0.0369266333723,
			"0.012": 0.0,
			"0.013": 0.0,
			"0.014": 0.0,
			"0.015": 0.0,
			"0.016": 0.0,
			"0.017": 0.0,
			"0.018": 0.0,
			"0.019": 0.0,
			"0.02": 0.0,
			"0.021": 0.0,
			"0.022": 0.0,
			"0.023": 0.0,
			"0.024": 0.0,
			"0.025": 0.0
		}
	}
}
