{
	 "smiles": "CCCOC(=O)C1=CC(O)=C(O)C(O)=C1", 
	 "Tm": 421.15, 
	 "num_atms": 27, 
	 "gaussian": { 
		 "optdone": 1, 
		 "sigma_profile": "yes", 
		 "theory": "DFT", 
		 "functional": "B3LYP", 
		 "basiset": "6-31G**", 
		 "properties": { 
			 "R2extent": 4881.3793, 
			 "electric_dipole_moment_norm": 1.7782242547, 
			 "electric_quadrupole_moment_norm": 18.0529082424, 
			 "total_energy": -764.429621403, 
			 "HOMO_LUMO_gap": 0.18229, 
			 "cosmo_polarized_energy": -14.91, 
			 "cosmo_cavitation_energy": 31.36, 
			 "cosmo_dispersion_energy": -22.85, 
			 "cosmo_repulsion_energy": 1.82, 
			 "cosmo_total_nonelectrostatic_energy": 10.32, 
			 "SMD_solvation_energy": 7.18 
		},
		"coords": [
			{
				"x": 1.962506427,
				"y": 2.2103527469,
				"z": -2.2669152358,
				"element": "C" 
			},
			{
				"x": 0.5233983985,
				"y": 1.7924821794,
				"z": -2.5829895621,
				"element": "C" 
			},
			{
				"x": -0.4504791486,
				"y": 2.0256906986,
				"z": -1.4311462989,
				"element": "C" 
			},
			{
				"x": -0.0637621638,
				"y": 1.2960311209,
				"z": -0.2432684372,
				"element": "O" 
			},
			{
				"x": -0.4992269649,
				"y": 0.0177199007,
				"z": -0.1491452453,
				"element": "C" 
			},
			{
				"x": -1.1891291952,
				"y": -0.5213512509,
				"z": -0.9966549257,
				"element": "O" 
			},
			{
				"x": -0.0459211622,
				"y": -0.646495937,
				"z": 1.1017671178,
				"element": "C" 
			},
			{
				"x": 0.744960778,
				"y": 0.01093995,
				"z": 2.0525474768,
				"element": "C" 
			},
			{
				"x": 1.1387473776,
				"y": -0.6651323523,
				"z": 3.2060747643,
				"element": "C" 
			},
			{
				"x": 1.9078785257,
				"y": -0.0380184432,
				"z": 4.1383725277,
				"element": "O" 
			},
			{
				"x": 0.7408104582,
				"y": -1.9931599971,
				"z": 3.4046392453,
				"element": "C" 
			},
			{
				"x": 1.1519073251,
				"y": -2.6144636539,
				"z": 4.5517931742,
				"element": "O" 
			},
			{
				"x": -0.0496063508,
				"y": -2.6422129037,
				"z": 2.4498378157,
				"element": "C" 
			},
			{
				"x": -0.3722830214,
				"y": -3.9422760808,
				"z": 2.7626925856,
				"element": "O" 
			},
			{
				"x": -0.4460525178,
				"y": -1.9772639973,
				"z": 1.2976572875,
				"element": "C" 
			},
			{
				"x": 2.0234277875,
				"y": 3.2791760628,
				"z": -2.0311389288,
				"element": "H" 
			},
			{
				"x": 2.6231498096,
				"y": 2.0184883674,
				"z": -3.1180807414,
				"element": "H" 
			},
			{
				"x": 2.3517891302,
				"y": 1.6577403283,
				"z": -1.4068838486,
				"element": "H" 
			},
			{
				"x": 0.1474677524,
				"y": 2.3576175753,
				"z": -3.4462314245,
				"element": "H" 
			},
			{
				"x": 0.4823384947,
				"y": 0.7342595723,
				"z": -2.8628585238,
				"element": "H" 
			},
			{
				"x": -0.4479304081,
				"y": 3.0736275066,
				"z": -1.1172376389,
				"element": "H" 
			},
			{
				"x": -1.4637871714,
				"y": 1.7292870064,
				"z": -1.7116588448,
				"element": "H" 
			},
			{
				"x": 1.0553405299,
				"y": 1.0374367318,
				"z": 1.9067608506,
				"element": "H" 
			},
			{
				"x": 2.0724006015,
				"y": -0.6665273376,
				"z": 4.857207253,
				"element": "H" 
			},
			{
				"x": 0.7998079497,
				"y": -3.5169043668,
				"z": 4.5448342509,
				"element": "H" 
			},
			{
				"x": -0.9166015494,
				"y": -4.3193708321,
				"z": 2.0605217706,
				"element": "H" 
			},
			{
				"x": -1.059251692,
				"y": -2.4593725946,
				"z": 0.5427035358,
				"element": "H" 
			}
		],
		 "valence_orbital": [ 
			{
				"type": "occ",
				"energy": -0.31382,
				"method": "rhf"
			},
			{
				"type": "occ",
				"energy": -0.29024,
				"method": "rhf"
			},
			{
				"type": "occ",
				"energy": -0.26774,
				"method": "rhf"
			},
			{
				"type": "occ",
				"energy": -0.22629,
				"method": "rhf"
			},
			{
				"type": "occ",
				"energy": -0.21638,
				"method": "rhf"
			},
			{
				"type": "unocc",
				"energy": -0.03409,
				"method": "rhf"
			},
			{
				"type": "unocc",
				"energy": 0.01314,
				"method": "rhf"
			},
			{
				"type": "unocc",
				"energy": 0.04241,
				"method": "rhf"
			},
			{
				"type": "unocc",
				"energy": 0.07571,
				"method": "rhf"
			},
			{
				"type": "unocc",
				"energy": 0.08071,
				"method": "rhf"
			}
		],
		"cosmo_sigma_profile": { 
			"-0.025": 0.0,
			"-0.024": 0.0,
			"-0.023": 0.0,
			"-0.022": 0.0,
			"-0.021": 0.0,
			"-0.02": 0.0,
			"-0.019": 0.117324068137,
			"-0.018": 1.15958362451,
			"-0.017": 1.2496535166,
			"-0.016": 1.41559566283,
			"-0.015": 2.30185247184,
			"-0.014": 1.43837908935,
			"-0.013": 1.82173399671,
			"-0.012": 2.35388535599,
			"-0.011": 2.74440555073,
			"-0.01": 2.6095894073,
			"-0.009": 2.01601294371,
			"-0.008": 1.76218290921,
			"-0.007": 2.15963704208,
			"-0.006": 4.77781823759,
			"-0.005": 7.64074093146,
			"-0.004": 11.9820255321,
			"-0.003": 18.3486174382,
			"-0.002": 19.8455025119,
			"-0.001": 21.5766683673,
			"0.0": 21.6043426619,
			"0.001": 22.8820003437,
			"0.002": 20.8699769278,
			"0.003": 19.6547483301,
			"0.004": 14.8715992005,
			"0.005": 7.52477021024,
			"0.006": 8.15127859132,
			"0.007": 5.40468637258,
			"0.008": 3.369628456,
			"0.009": 3.14255685599,
			"0.01": 3.30439850732,
			"0.011": 4.07192175089,
			"0.012": 4.44363277896,
			"0.013": 0.889614815169,
			"0.014": 0.0,
			"0.015": 0.0,
			"0.016": 0.0,
			"0.017": 0.0,
			"0.018": 0.0,
			"0.019": 0.0,
			"0.02": 0.0,
			"0.021": 0.0,
			"0.022": 0.0,
			"0.023": 0.0,
			"0.024": 0.0,
			"0.025": 0.0
		}
	}
}
