{
	 "smiles": "CN1C=CN=C1SC1=CC(C)=C(N)C=C1", 
	 "Tm": 375.15, 
	 "num_atms": 28, 
	 "gaussian": { 
		 "optdone": 1, 
		 "sigma_profile": "yes", 
		 "theory": "DFT", 
		 "functional": "B3LYP", 
		 "basiset": "6-31G**", 
		 "properties": { 
			 "R2extent": 4252.7072, 
			 "electric_dipole_moment_norm": 5.19136890906, 
			 "electric_quadrupole_moment_norm": 10.9466681397, 
			 "total_energy": -989.444816455, 
			 "HOMO_LUMO_gap": 0.19707, 
			 "cosmo_polarized_energy": -16.49, 
			 "cosmo_cavitation_energy": 33.13, 
			 "cosmo_dispersion_energy": -23.77, 
			 "cosmo_repulsion_energy": 1.83, 
			 "cosmo_total_nonelectrostatic_energy": 11.19, 
			 "SMD_solvation_energy": 4.35 
		},
		"coords": [
			{
				"x": -1.3439827767,
				"y": 1.3296467799,
				"z": -3.3184354311,
				"element": "C" 
			},
			{
				"x": -1.5274276327,
				"y": -0.0854704768,
				"z": -3.0369112166,
				"element": "N" 
			},
			{
				"x": -1.3942379015,
				"y": -1.1050338047,
				"z": -3.9515487558,
				"element": "C" 
			},
			{
				"x": -1.6208745344,
				"y": -2.2689331206,
				"z": -3.2566784678,
				"element": "C" 
			},
			{
				"x": -1.8964408063,
				"y": -1.9980384345,
				"z": -1.9420360048,
				"element": "N" 
			},
			{
				"x": -1.8292157437,
				"y": -0.6814065016,
				"z": -1.8283744119,
				"element": "C" 
			},
			{
				"x": -2.1179377026,
				"y": 0.2218039405,
				"z": -0.3340599398,
				"element": "S" 
			},
			{
				"x": -0.5039321194,
				"y": 0.1573308473,
				"z": 0.4677581858,
				"element": "C" 
			},
			{
				"x": 0.1435322754,
				"y": -1.063185002,
				"z": 0.6941174689,
				"element": "C" 
			},
			{
				"x": 1.364767792,
				"y": -1.1275670566,
				"z": 1.3639793018,
				"element": "C" 
			},
			{
				"x": 2.0501259355,
				"y": -2.4505297187,
				"z": 1.6015023102,
				"element": "C" 
			},
			{
				"x": 1.9465388969,
				"y": 0.0713548643,
				"z": 1.8434563581,
				"element": "C" 
			},
			{
				"x": 3.134925495,
				"y": 0.0306312314,
				"z": 2.5765143934,
				"element": "N" 
			},
			{
				"x": 1.2866255047,
				"y": 1.2902443217,
				"z": 1.6267118714,
				"element": "C" 
			},
			{
				"x": 0.0756874905,
				"y": 1.3369291627,
				"z": 0.9398345988,
				"element": "C" 
			},
			{
				"x": -0.2989092606,
				"y": 1.54267745,
				"z": -3.5641548497,
				"element": "H" 
			},
			{
				"x": -1.9781095252,
				"y": 1.6325314527,
				"z": -4.156454269,
				"element": "H" 
			},
			{
				"x": -1.6245116263,
				"y": 1.8988655839,
				"z": -2.432568741,
				"element": "H" 
			},
			{
				"x": -1.1635642807,
				"y": -0.9098177288,
				"z": -4.9884581461,
				"element": "H" 
			},
			{
				"x": -1.6097011167,
				"y": -3.2822908294,
				"z": -3.6342228409,
				"element": "H" 
			},
			{
				"x": -0.3130959408,
				"y": -1.9779594033,
				"z": 0.3269782505,
				"element": "H" 
			},
			{
				"x": 3.0275714495,
				"y": -2.504324887,
				"z": 1.1002951989,
				"element": "H" 
			},
			{
				"x": 1.4469720748,
				"y": -3.2777218898,
				"z": 1.2203461128,
				"element": "H" 
			},
			{
				"x": 2.2272794136,
				"y": -2.6241574161,
				"z": 2.6702798885,
				"element": "H" 
			},
			{
				"x": 3.6209722809,
				"y": 0.9138248871,
				"z": 2.648683675,
				"element": "H" 
			},
			{
				"x": 3.7635354103,
				"y": -0.727303229,
				"z": 2.350373783,
				"element": "H" 
			},
			{
				"x": 1.7339654328,
				"y": 2.2110481325,
				"z": 1.9942345274,
				"element": "H" 
			},
			{
				"x": -0.4127584844,
				"y": 2.291750845,
				"z": 0.76973715,
				"element": "H" 
			}
		],
		 "valence_orbital": [ 
			{
				"type": "occ",
				"energy": -0.26367,
				"method": "rhf"
			},
			{
				"type": "occ",
				"energy": -0.2445,
				"method": "rhf"
			},
			{
				"type": "occ",
				"energy": -0.23882,
				"method": "rhf"
			},
			{
				"type": "occ",
				"energy": -0.22135,
				"method": "rhf"
			},
			{
				"type": "occ",
				"energy": -0.19432,
				"method": "rhf"
			},
			{
				"type": "unocc",
				"energy": 0.00275,
				"method": "rhf"
			},
			{
				"type": "unocc",
				"energy": 0.00722,
				"method": "rhf"
			},
			{
				"type": "unocc",
				"energy": 0.01152,
				"method": "rhf"
			},
			{
				"type": "unocc",
				"energy": 0.05761,
				"method": "rhf"
			},
			{
				"type": "unocc",
				"energy": 0.07389,
				"method": "rhf"
			}
		],
		"cosmo_sigma_profile": { 
			"-0.025": 0.0,
			"-0.024": 0.0,
			"-0.023": 0.0,
			"-0.022": 0.0,
			"-0.021": 0.0,
			"-0.02": 0.0,
			"-0.019": 0.0,
			"-0.018": 0.0,
			"-0.017": 0.0,
			"-0.016": 0.0,
			"-0.015": 0.0,
			"-0.014": 0.0,
			"-0.013": 0.22325435865,
			"-0.012": 1.6835483733,
			"-0.011": 2.69028280892,
			"-0.01": 3.40285059006,
			"-0.009": 3.65859332371,
			"-0.008": 4.71756360597,
			"-0.007": 6.88445551683,
			"-0.006": 14.2325482382,
			"-0.005": 17.0675285773,
			"-0.004": 19.6804747509,
			"-0.003": 21.8655706002,
			"-0.002": 17.6633398031,
			"-0.001": 17.520754378,
			"0.0": 20.0781463734,
			"0.001": 13.3517001302,
			"0.002": 14.4133816526,
			"0.003": 12.8387564562,
			"0.004": 17.2827659668,
			"0.005": 18.3243167539,
			"0.006": 14.3167392739,
			"0.007": 4.88023277899,
			"0.008": 3.48630033798,
			"0.009": 2.9926669366,
			"0.01": 2.38906055015,
			"0.011": 2.28875776279,
			"0.012": 1.44626699203,
			"0.013": 1.55453134341,
			"0.014": 1.89923065039,
			"0.015": 0.822804940951,
			"0.016": 0.413770999722,
			"0.017": 1.20076492966,
			"0.018": 0.0584557352979,
			"0.019": 0.0,
			"0.02": 0.0,
			"0.021": 0.0,
			"0.022": 0.0,
			"0.023": 0.0,
			"0.024": 0.0,
			"0.025": 0.0
		}
	}
}
