{
	 "smiles": "CC1(C)SC2C(N)C(=O)N2C1C(O)=O", 
	 "Tm": 472.15, 
	 "num_atms": 26, 
	 "gaussian": { 
		 "optdone": 1, 
		 "sigma_profile": "yes", 
		 "theory": "DFT", 
		 "functional": "B3LYP", 
		 "basiset": "6-31G**", 
		 "properties": { 
			 "R2extent": 3032.5738, 
			 "electric_dipole_moment_norm": 1.43546361152, 
			 "electric_quadrupole_moment_norm": 15.848258174, 
			 "total_energy": -1045.43388515, 
			 "HOMO_LUMO_gap": 0.21209, 
			 "cosmo_polarized_energy": -18.0, 
			 "cosmo_cavitation_energy": 30.06, 
			 "cosmo_dispersion_energy": -21.3, 
			 "cosmo_repulsion_energy": 1.65, 
			 "cosmo_total_nonelectrostatic_energy": 10.41, 
			 "SMD_solvation_energy": 3.95 
		},
		"coords": [
			{
				"x": 0.7585670868,
				"y": 0.7469352042,
				"z": 2.2848191111,
				"element": "C" 
			},
			{
				"x": 0.3517140074,
				"y": 0.1246770707,
				"z": 0.9427247156,
				"element": "C" 
			},
			{
				"x": 0.6605115237,
				"y": -1.3821576702,
				"z": 0.9428893946,
				"element": "C" 
			},
			{
				"x": -1.4895043943,
				"y": 0.4073268125,
				"z": 0.6752149971,
				"element": "S" 
			},
			{
				"x": -1.3069513166,
				"y": 0.8027694956,
				"z": -1.1225193949,
				"element": "C" 
			},
			{
				"x": -1.5857887163,
				"y": -0.2852118569,
				"z": -2.2109161882,
				"element": "C" 
			},
			{
				"x": -2.403562656,
				"y": 0.1097156531,
				"z": -3.3337739118,
				"element": "N" 
			},
			{
				"x": -0.0299793465,
				"y": -0.3706168315,
				"z": -2.317520453,
				"element": "C" 
			},
			{
				"x": 0.7846195784,
				"y": -1.0491451309,
				"z": -2.895146199,
				"element": "O" 
			},
			{
				"x": 0.124280985,
				"y": 0.6890864825,
				"z": -1.4121616061,
				"element": "N" 
			},
			{
				"x": 1.0546391225,
				"y": 0.7912503086,
				"z": -0.3105232663,
				"element": "C" 
			},
			{
				"x": 1.5212380884,
				"y": 2.2201728007,
				"z": -0.0514431506,
				"element": "C" 
			},
			{
				"x": 0.5834851036,
				"y": 3.144617235,
				"z": -0.347808234,
				"element": "O" 
			},
			{
				"x": 2.6106285617,
				"y": 2.4986402663,
				"z": 0.3964901475,
				"element": "O" 
			},
			{
				"x": 0.2620224648,
				"y": 0.2242598224,
				"z": 3.1074670305,
				"element": "H" 
			},
			{
				"x": 0.484823008,
				"y": 1.8026411134,
				"z": 2.343590791,
				"element": "H" 
			},
			{
				"x": 1.8400655836,
				"y": 0.6597472699,
				"z": 2.4301237484,
				"element": "H" 
			},
			{
				"x": 0.4434470294,
				"y": -1.8442102774,
				"z": -0.0235884407,
				"element": "H" 
			},
			{
				"x": 0.0636648296,
				"y": -1.8937484031,
				"z": 1.7025635218,
				"element": "H" 
			},
			{
				"x": 1.7207005084,
				"y": -1.5494859025,
				"z": 1.1691202998,
				"element": "H" 
			},
			{
				"x": -1.7430347015,
				"y": 1.7832286351,
				"z": -1.3219570914,
				"element": "H" 
			},
			{
				"x": -1.9886719708,
				"y": -1.2018227016,
				"z": -1.7717571777,
				"element": "H" 
			},
			{
				"x": -2.5912849281,
				"y": -0.6860846707,
				"z": -3.9360094644,
				"element": "H" 
			},
			{
				"x": -1.933828125,
				"y": 0.8102799807,
				"z": -3.9016111886,
				"element": "H" 
			},
			{
				"x": 1.9547563792,
				"y": 0.222732079,
				"z": -0.5579770166,
				"element": "H" 
			},
			{
				"x": 0.9730422946,
				"y": 4.0087032153,
				"z": -0.1300909743,
				"element": "H" 
			}
		],
		 "valence_orbital": [ 
			{
				"type": "occ",
				"energy": -0.30019,
				"method": "rhf"
			},
			{
				"type": "occ",
				"energy": -0.29281,
				"method": "rhf"
			},
			{
				"type": "occ",
				"energy": -0.26373,
				"method": "rhf"
			},
			{
				"type": "occ",
				"energy": -0.24531,
				"method": "rhf"
			},
			{
				"type": "occ",
				"energy": -0.22519,
				"method": "rhf"
			},
			{
				"type": "unocc",
				"energy": -0.0131,
				"method": "rhf"
			},
			{
				"type": "unocc",
				"energy": -0.00537,
				"method": "rhf"
			},
			{
				"type": "unocc",
				"energy": 0.01482,
				"method": "rhf"
			},
			{
				"type": "unocc",
				"energy": 0.04387,
				"method": "rhf"
			},
			{
				"type": "unocc",
				"energy": 0.06169,
				"method": "rhf"
			}
		],
		"cosmo_sigma_profile": { 
			"-0.025": 0.0,
			"-0.024": 0.0,
			"-0.023": 0.0,
			"-0.022": 0.0,
			"-0.021": 0.0,
			"-0.02": 0.0,
			"-0.019": 0.570212156716,
			"-0.018": 0.80452228559,
			"-0.017": 0.840684719461,
			"-0.016": 1.10237999088,
			"-0.015": 0.911955398463,
			"-0.014": 0.30980353889,
			"-0.013": 0.382658918282,
			"-0.012": 1.80513255611,
			"-0.011": 4.32174544143,
			"-0.01": 3.80351564054,
			"-0.009": 4.02325891707,
			"-0.008": 6.39801162978,
			"-0.007": 6.88697770445,
			"-0.006": 10.5681016343,
			"-0.005": 14.531832711,
			"-0.004": 19.0731455834,
			"-0.003": 14.3998234049,
			"-0.002": 14.6216799764,
			"-0.001": 20.0199462377,
			"0.0": 16.2128585482,
			"0.001": 9.0693909878,
			"0.002": 7.56677059792,
			"0.003": 8.62725613954,
			"0.004": 8.80252740392,
			"0.005": 8.06258756229,
			"0.006": 8.53679950158,
			"0.007": 7.32006229515,
			"0.008": 6.08568595756,
			"0.009": 4.72520949426,
			"0.01": 5.4031681393,
			"0.011": 9.1271882956,
			"0.012": 7.6249840162,
			"0.013": 2.14792185771,
			"0.014": 0.359523991321,
			"0.015": 0.686343499223,
			"0.016": 0.505356193216,
			"0.017": 0.558144612433,
			"0.018": 0.0835467174546,
			"0.019": 0.0,
			"0.02": 0.0,
			"0.021": 0.0,
			"0.022": 0.0,
			"0.023": 0.0,
			"0.024": 0.0,
			"0.025": 0.0
		}
	}
}
