{
	 "smiles": "CC(=O)NC(CC(O)=O)C1=C(F)C=C(F)C=C1", 
	 "Tm": 423.15, 
	 "num_atms": 28, 
	 "gaussian": { 
		 "optdone": 1, 
		 "sigma_profile": "yes", 
		 "theory": "DFT", 
		 "functional": "B3LYP", 
		 "basiset": "6-31G**", 
		 "properties": { 
			 "R2extent": 4730.4192, 
			 "electric_dipole_moment_norm": 3.50897358212, 
			 "electric_quadrupole_moment_norm": 16.8808943685, 
			 "total_energy": -905.913467314, 
			 "HOMO_LUMO_gap": 0.21447, 
			 "cosmo_polarized_energy": -17.62, 
			 "cosmo_cavitation_energy": 32.46, 
			 "cosmo_dispersion_energy": -22.06, 
			 "cosmo_repulsion_energy": 1.67, 
			 "cosmo_total_nonelectrostatic_energy": 12.07, 
			 "SMD_solvation_energy": 8.23 
		},
		"coords": [
			{
				"x": 0.1814459982,
				"y": -1.7451081776,
				"z": -1.8313817496,
				"element": "C" 
			},
			{
				"x": -1.1549000822,
				"y": -1.3703390911,
				"z": -2.4459687789,
				"element": "C" 
			},
			{
				"x": -1.7247117516,
				"y": -2.1100138977,
				"z": -3.2377197892,
				"element": "O" 
			},
			{
				"x": -1.7279123529,
				"y": -0.1475878997,
				"z": -2.1456249515,
				"element": "N" 
			},
			{
				"x": -1.42574502,
				"y": 0.9012565787,
				"z": -1.1659260902,
				"element": "C" 
			},
			{
				"x": -2.12982592,
				"y": 0.664107795,
				"z": 0.2087898639,
				"element": "C" 
			},
			{
				"x": -1.932025992,
				"y": -0.7083770941,
				"z": 0.8181394473,
				"element": "C" 
			},
			{
				"x": -2.9828172106,
				"y": -1.5167292983,
				"z": 0.5751164235,
				"element": "O" 
			},
			{
				"x": -0.9606724458,
				"y": -1.0765807732,
				"z": 1.4498703611,
				"element": "O" 
			},
			{
				"x": 0.0447909132,
				"y": 1.2945377733,
				"z": -1.0975962431,
				"element": "C" 
			},
			{
				"x": 0.5879802629,
				"y": 1.9882719456,
				"z": -2.1865186074,
				"element": "C" 
			},
			{
				"x": -0.2101518511,
				"y": 2.2610712167,
				"z": -3.2408379937,
				"element": "F" 
			},
			{
				"x": 1.9025416133,
				"y": 2.4303041599,
				"z": -2.2346377868,
				"element": "C" 
			},
			{
				"x": 2.7042995554,
				"y": 2.169418798,
				"z": -1.1284412797,
				"element": "C" 
			},
			{
				"x": 3.9832184288,
				"y": 2.5879573508,
				"z": -1.1471446684,
				"element": "F" 
			},
			{
				"x": 2.2218758686,
				"y": 1.4981663168,
				"z": -0.012008978,
				"element": "C" 
			},
			{
				"x": 0.8937430049,
				"y": 1.0673378787,
				"z": -0.0067886659,
				"element": "C" 
			},
			{
				"x": 0.3802029989,
				"y": -2.7803409787,
				"z": -2.1088710172,
				"element": "H" 
			},
			{
				"x": 0.1956872904,
				"y": -1.6463959129,
				"z": -0.7442850348,
				"element": "H" 
			},
			{
				"x": 0.9779004098,
				"y": -1.1103411371,
				"z": -2.230554812,
				"element": "H" 
			},
			{
				"x": -2.6080817109,
				"y": -0.042931875,
				"z": -2.6349683536,
				"element": "H" 
			},
			{
				"x": -1.9296491064,
				"y": 1.7854190015,
				"z": -1.5713331002,
				"element": "H" 
			},
			{
				"x": -3.2018687157,
				"y": 0.8087193991,
				"z": 0.0567882987,
				"element": "H" 
			},
			{
				"x": -1.7802569184,
				"y": 1.4113045851,
				"z": 0.9265130427,
				"element": "H" 
			},
			{
				"x": -2.7705102964,
				"y": -2.3807984577,
				"z": 0.968617417,
				"element": "H" 
			},
			{
				"x": 2.281059797,
				"y": 2.965497484,
				"z": -3.0967605234,
				"element": "H" 
			},
			{
				"x": 2.8782987593,
				"y": 1.3152978525,
				"z": 0.8309581177,
				"element": "H" 
			},
			{
				"x": 0.5196844732,
				"y": 0.5230764574,
				"z": 0.8534754517,
				"element": "H" 
			}
		],
		 "valence_orbital": [ 
			{
				"type": "occ",
				"energy": -0.29331,
				"method": "rhf"
			},
			{
				"type": "occ",
				"energy": -0.26888,
				"method": "rhf"
			},
			{
				"type": "occ",
				"energy": -0.2602,
				"method": "rhf"
			},
			{
				"type": "occ",
				"energy": -0.24903,
				"method": "rhf"
			},
			{
				"type": "occ",
				"energy": -0.24063,
				"method": "rhf"
			},
			{
				"type": "unocc",
				"energy": -0.02616,
				"method": "rhf"
			},
			{
				"type": "unocc",
				"energy": -0.01659,
				"method": "rhf"
			},
			{
				"type": "unocc",
				"energy": -0.0139,
				"method": "rhf"
			},
			{
				"type": "unocc",
				"energy": 0.03016,
				"method": "rhf"
			},
			{
				"type": "unocc",
				"energy": 0.06247,
				"method": "rhf"
			}
		],
		"cosmo_sigma_profile": { 
			"-0.025": 0.0,
			"-0.024": 0.0,
			"-0.023": 0.0,
			"-0.022": 0.0,
			"-0.021": 0.0,
			"-0.02": 0.0,
			"-0.019": 0.360370980617,
			"-0.018": 0.950502346703,
			"-0.017": 0.724194766886,
			"-0.016": 1.14914877195,
			"-0.015": 0.586892100991,
			"-0.014": 0.825955686772,
			"-0.013": 1.73376514859,
			"-0.012": 2.09002454068,
			"-0.011": 1.92893314554,
			"-0.01": 1.92265366352,
			"-0.009": 2.68416901882,
			"-0.008": 5.74653291427,
			"-0.007": 10.3521463401,
			"-0.006": 9.56889218208,
			"-0.005": 13.5781435746,
			"-0.004": 15.6317424314,
			"-0.003": 16.2003763877,
			"-0.002": 13.6196928736,
			"-0.001": 19.3153064697,
			"0.0": 23.4766671576,
			"0.001": 19.1017759136,
			"0.002": 16.3597590209,
			"0.003": 16.092113669,
			"0.004": 21.1428168986,
			"0.005": 6.17795375647,
			"0.006": 4.25027873498,
			"0.007": 3.51839846562,
			"0.008": 4.24548169329,
			"0.009": 4.20094265672,
			"0.01": 2.73256976146,
			"0.011": 3.85526077352,
			"0.012": 2.94288290429,
			"0.013": 3.7349161605,
			"0.014": 5.29115503548,
			"0.015": 1.49614591456,
			"0.016": 0.0380165098698,
			"0.017": 0.0,
			"0.018": 0.0,
			"0.019": 0.0,
			"0.02": 0.0,
			"0.021": 0.0,
			"0.022": 0.0,
			"0.023": 0.0,
			"0.024": 0.0,
			"0.025": 0.0
		}
	}
}
