{
	 "smiles": "CC(C)C(NC(=O)C1=CC=C(Br)C=C1)C(O)=O", 
	 "Tm": 463.15, 
	 "num_atms": 31, 
	 "gaussian": { 
		 "optdone": 1, 
		 "sigma_profile": "yes", 
		 "theory": "DFT", 
		 "functional": "B3LYP", 
		 "basiset": "6-31G**", 
		 "properties": { 
			 "R2extent": 8027.3799, 
			 "electric_dipole_moment_norm": 5.21039514624, 
			 "electric_quadrupole_moment_norm": 18.1552160852, 
			 "total_energy": -3317.56835629, 
			 "HOMO_LUMO_gap": 0.19848, 
			 "cosmo_polarized_energy": -21.17, 
			 "cosmo_cavitation_energy": 36.8, 
			 "cosmo_dispersion_energy": -25.58, 
			 "cosmo_repulsion_energy": 2.0, 
			 "cosmo_total_nonelectrostatic_energy": 13.22, 
			 "SMD_solvation_energy": 6.46 
		},
		"coords": [
			{
				"x": -1.8411395967,
				"y": -2.4507623071,
				"z": -2.1642045348,
				"element": "C" 
			},
			{
				"x": -0.917939849,
				"y": -2.2121614694,
				"z": -0.961662393,
				"element": "C" 
			},
			{
				"x": -0.9253566897,
				"y": -3.4089155368,
				"z": 0.001748401,
				"element": "C" 
			},
			{
				"x": -1.2181406284,
				"y": -0.861459165,
				"z": -0.2348792194,
				"element": "C" 
			},
			{
				"x": -1.0400906822,
				"y": 0.2856230452,
				"z": -1.1179197936,
				"element": "N" 
			},
			{
				"x": -0.3028942691,
				"y": 1.4272224266,
				"z": -0.8499152098,
				"element": "C" 
			},
			{
				"x": -0.6274283456,
				"y": 2.5060750461,
				"z": -1.3295300344,
				"element": "O" 
			},
			{
				"x": 0.9322629938,
				"y": 1.3137101703,
				"z": 0.0004331393,
				"element": "C" 
			},
			{
				"x": 1.2552336397,
				"y": 2.4116515153,
				"z": 0.8105296553,
				"element": "C" 
			},
			{
				"x": 2.4070194283,
				"y": 2.4082735072,
				"z": 1.592009661,
				"element": "C" 
			},
			{
				"x": 3.2597607831,
				"y": 1.3044715881,
				"z": 1.5397574804,
				"element": "C" 
			},
			{
				"x": 4.8453820014,
				"y": 1.2916241956,
				"z": 2.6025437107,
				"element": "Br" 
			},
			{
				"x": 2.979181703,
				"y": 0.2146931303,
				"z": 0.7175107163,
				"element": "C" 
			},
			{
				"x": 1.8117553439,
				"y": 0.223739214,
				"z": -0.0466364319,
				"element": "C" 
			},
			{
				"x": -2.662028255,
				"y": -0.8323692365,
				"z": 0.3029052737,
				"element": "C" 
			},
			{
				"x": -2.8799407808,
				"y": -1.4441360195,
				"z": 1.4919907294,
				"element": "O" 
			},
			{
				"x": -3.5767707785,
				"y": -0.3324663233,
				"z": -0.3039555729,
				"element": "O" 
			},
			{
				"x": -1.5439445072,
				"y": -3.3633415848,
				"z": -2.6901594267,
				"element": "H" 
			},
			{
				"x": -1.7860762533,
				"y": -1.6239606347,
				"z": -2.8776943344,
				"element": "H" 
			},
			{
				"x": -2.8858059669,
				"y": -2.5647409745,
				"z": -1.8572418556,
				"element": "H" 
			},
			{
				"x": 0.1038455646,
				"y": -2.0960371438,
				"z": -1.3447765742,
				"element": "H" 
			},
			{
				"x": -1.9306709714,
				"y": -3.6237942387,
				"z": 0.3789985747,
				"element": "H" 
			},
			{
				"x": -0.2591489785,
				"y": -3.2468344178,
				"z": 0.8592516001,
				"element": "H" 
			},
			{
				"x": -0.5741255434,
				"y": -4.3090765889,
				"z": -0.5112216901,
				"element": "H" 
			},
			{
				"x": -0.5213971363,
				"y": -0.7639082138,
				"z": 0.6038875619,
				"element": "H" 
			},
			{
				"x": -1.8908417608,
				"y": 0.5248066498,
				"z": -1.6210879165,
				"element": "H" 
			},
			{
				"x": 0.5922699642,
				"y": 3.2703047469,
				"z": 0.8116996031,
				"element": "H" 
			},
			{
				"x": 2.6470952747,
				"y": 3.2529398634,
				"z": 2.2275214447,
				"element": "H" 
			},
			{
				"x": 3.6654769574,
				"y": -0.6229581496,
				"z": 0.6684442115,
				"element": "H" 
			},
			{
				"x": 1.6092009913,
				"y": -0.6116104678,
				"z": -0.7088604558,
				"element": "H" 
			},
			{
				"x": -2.0490436527,
				"y": -1.7727026267,
				"z": 1.8635136798,
				"element": "H" 
			}
		],
		 "valence_orbital": [ 
			{
				"type": "occ",
				"energy": -0.29365,
				"method": "rhf"
			},
			{
				"type": "occ",
				"energy": -0.27868,
				"method": "rhf"
			},
			{
				"type": "occ",
				"energy": -0.27203,
				"method": "rhf"
			},
			{
				"type": "occ",
				"energy": -0.2596,
				"method": "rhf"
			},
			{
				"type": "occ",
				"energy": -0.24858,
				"method": "rhf"
			},
			{
				"type": "unocc",
				"energy": -0.0501,
				"method": "rhf"
			},
			{
				"type": "unocc",
				"energy": -0.02944,
				"method": "rhf"
			},
			{
				"type": "unocc",
				"energy": -0.01086,
				"method": "rhf"
			},
			{
				"type": "unocc",
				"energy": -0.0033,
				"method": "rhf"
			},
			{
				"type": "unocc",
				"energy": 0.03244,
				"method": "rhf"
			}
		],
		"cosmo_sigma_profile": { 
			"-0.025": 0.0,
			"-0.024": 0.0,
			"-0.023": 0.0,
			"-0.022": 0.0,
			"-0.021": 0.0,
			"-0.02": 0.0,
			"-0.019": 0.176273487835,
			"-0.018": 1.29642281039,
			"-0.017": 1.22763630963,
			"-0.016": 1.44986670891,
			"-0.015": 0.766058168865,
			"-0.014": 0.673618013034,
			"-0.013": 1.1041308774,
			"-0.012": 1.31231351382,
			"-0.011": 1.38123221349,
			"-0.01": 1.5602476324,
			"-0.009": 2.04583585815,
			"-0.008": 4.20733978209,
			"-0.007": 9.75665001054,
			"-0.006": 13.2240188672,
			"-0.005": 12.4684026239,
			"-0.004": 17.3504548227,
			"-0.003": 24.8635786843,
			"-0.002": 23.2785896471,
			"-0.001": 21.8347441159,
			"0.0": 26.7441552598,
			"0.001": 24.6982968372,
			"0.002": 23.6107679043,
			"0.003": 16.5665584859,
			"0.004": 16.2936342437,
			"0.005": 5.5203798557,
			"0.006": 2.9358556117,
			"0.007": 4.63791438065,
			"0.008": 4.51185870179,
			"0.009": 5.29863378659,
			"0.01": 6.08077235255,
			"0.011": 5.79451623559,
			"0.012": 5.04995271566,
			"0.013": 5.52856981111,
			"0.014": 1.28603568522,
			"0.015": 0.0,
			"0.016": 0.0,
			"0.017": 0.0,
			"0.018": 0.0,
			"0.019": 0.0,
			"0.02": 0.0,
			"0.021": 0.0,
			"0.022": 0.0,
			"0.023": 0.0,
			"0.024": 0.0,
			"0.025": 0.0
		}
	}
}
