{
	 "smiles": "CC1=CC=CC(C(=O)NN)=C1O", 
	 "Tm": 464.15, 
	 "num_atms": 22, 
	 "gaussian": { 
		 "optdone": 1, 
		 "sigma_profile": "yes", 
		 "theory": "DFT", 
		 "functional": "B3LYP", 
		 "basiset": "6-31G**", 
		 "properties": { 
			 "R2extent": 2106.9168, 
			 "electric_dipole_moment_norm": 5.20520608718, 
			 "electric_quadrupole_moment_norm": 12.9083867811, 
			 "total_energy": -570.80766805, 
			 "HOMO_LUMO_gap": 0.20502, 
			 "cosmo_polarized_energy": -17.48, 
			 "cosmo_cavitation_energy": 25.45, 
			 "cosmo_dispersion_energy": -18.75, 
			 "cosmo_repulsion_energy": 1.51, 
			 "cosmo_total_nonelectrostatic_energy": 8.21, 
			 "SMD_solvation_energy": 5.65 
		},
		"coords": [
			{
				"x": -2.2684359963,
				"y": -1.3736001108,
				"z": 1.298376048,
				"element": "C" 
			},
			{
				"x": -1.0595291674,
				"y": -1.263713069,
				"z": 0.3977794103,
				"element": "C" 
			},
			{
				"x": -0.309041672,
				"y": -2.3875831972,
				"z": 0.0447683795,
				"element": "C" 
			},
			{
				"x": 0.79260526,
				"y": -2.2864295153,
				"z": -0.8060995864,
				"element": "C" 
			},
			{
				"x": 1.1520876309,
				"y": -1.0425449279,
				"z": -1.3122903981,
				"element": "C" 
			},
			{
				"x": 0.4487085192,
				"y": 0.1169938706,
				"z": -0.956181364,
				"element": "C" 
			},
			{
				"x": 0.888471099,
				"y": 1.395500515,
				"z": -1.6270825559,
				"element": "C" 
			},
			{
				"x": 1.1619215383,
				"y": 1.4121498254,
				"z": -2.8234231767,
				"element": "O" 
			},
			{
				"x": 1.0202209413,
				"y": 2.5261808506,
				"z": -0.8639552594,
				"element": "N" 
			},
			{
				"x": 1.034798965,
				"y": 2.626408815,
				"z": 0.5383455523,
				"element": "N" 
			},
			{
				"x": -0.6692428312,
				"y": -0.0115512503,
				"z": -0.1149830035,
				"element": "C" 
			},
			{
				"x": -1.3874188029,
				"y": 1.1217635651,
				"z": 0.1841194245,
				"element": "O" 
			},
			{
				"x": -2.171304853,
				"y": -0.7549851796,
				"z": 2.2008833474,
				"element": "H" 
			},
			{
				"x": -2.4105386282,
				"y": -2.4044197728,
				"z": 1.6304058136,
				"element": "H" 
			},
			{
				"x": -3.1959896423,
				"y": -1.0751322558,
				"z": 0.7892718477,
				"element": "H" 
			},
			{
				"x": -0.6027952965,
				"y": -3.3569131645,
				"z": 0.4395253749,
				"element": "H" 
			},
			{
				"x": 1.3559680294,
				"y": -3.1730501038,
				"z": -1.0788138059,
				"element": "H" 
			},
			{
				"x": 1.9819213833,
				"y": -0.939350337,
				"z": -2.003394987,
				"element": "H" 
			},
			{
				"x": 1.3825553024,
				"y": 3.329944069,
				"z": -1.3601366273,
				"element": "H" 
			},
			{
				"x": 1.6644295797,
				"y": 1.9260561527,
				"z": 0.9251020988,
				"element": "H" 
			},
			{
				"x": 0.096091744,
				"y": 2.4331865666,
				"z": 0.8786216558,
				"element": "H" 
			},
			{
				"x": -2.1902831028,
				"y": 0.876488654,
				"z": 0.6609618115,
				"element": "H" 
			}
		],
		 "valence_orbital": [ 
			{
				"type": "occ",
				"energy": -0.27661,
				"method": "rhf"
			},
			{
				"type": "occ",
				"energy": -0.26024,
				"method": "rhf"
			},
			{
				"type": "occ",
				"energy": -0.24623,
				"method": "rhf"
			},
			{
				"type": "occ",
				"energy": -0.23557,
				"method": "rhf"
			},
			{
				"type": "occ",
				"energy": -0.23023,
				"method": "rhf"
			},
			{
				"type": "unocc",
				"energy": -0.02521,
				"method": "rhf"
			},
			{
				"type": "unocc",
				"energy": -0.00127,
				"method": "rhf"
			},
			{
				"type": "unocc",
				"energy": 0.04588,
				"method": "rhf"
			},
			{
				"type": "unocc",
				"energy": 0.05331,
				"method": "rhf"
			},
			{
				"type": "unocc",
				"energy": 0.09448,
				"method": "rhf"
			}
		],
		"cosmo_sigma_profile": { 
			"-0.025": 0.0,
			"-0.024": 0.0,
			"-0.023": 0.0,
			"-0.022": 0.0,
			"-0.021": 0.0,
			"-0.02": 0.0,
			"-0.019": 0.0,
			"-0.018": 0.0,
			"-0.017": 0.0923329720343,
			"-0.016": 0.724615655999,
			"-0.015": 0.985746780729,
			"-0.014": 1.1833890804,
			"-0.013": 1.97549664513,
			"-0.012": 1.92783175609,
			"-0.011": 2.83040544944,
			"-0.01": 3.41771430899,
			"-0.009": 2.72230232366,
			"-0.008": 4.31597067747,
			"-0.007": 4.48486728732,
			"-0.006": 10.244563355,
			"-0.005": 13.8979826904,
			"-0.004": 13.8009279826,
			"-0.003": 14.5876085461,
			"-0.002": 13.7940717534,
			"-0.001": 13.4851903135,
			"0.0": 11.2614675465,
			"0.001": 8.6015769776,
			"0.002": 10.4904803926,
			"0.003": 10.9706095569,
			"0.004": 10.90590526,
			"0.005": 10.5302020584,
			"0.006": 4.53577930015,
			"0.007": 3.76159804925,
			"0.008": 2.89718724539,
			"0.009": 2.52187194432,
			"0.01": 2.77098608907,
			"0.011": 2.79444363675,
			"0.012": 1.89245758191,
			"0.013": 4.88709352438,
			"0.014": 5.30641569802,
			"0.015": 1.69179897204,
			"0.016": 0.779794357005,
			"0.017": 0.0777661806579,
			"0.018": 0.0,
			"0.019": 0.0,
			"0.02": 0.0,
			"0.021": 0.0,
			"0.022": 0.0,
			"0.023": 0.0,
			"0.024": 0.0,
			"0.025": 0.0
		}
	}
}
