{
	 "smiles": "CC(SC1=CC=C(C=C1)C#N)C(O)=O", 
	 "Tm": 388.15, 
	 "num_atms": 23, 
	 "gaussian": { 
		 "optdone": 1, 
		 "sigma_profile": "yes", 
		 "theory": "DFT", 
		 "functional": "B3LYP", 
		 "basiset": "6-31G**", 
		 "properties": { 
			 "R2extent": 4457.1717, 
			 "electric_dipole_moment_norm": 5.44596911578, 
			 "electric_quadrupole_moment_norm": 18.9988247776, 
			 "total_energy": -989.872276964, 
			 "HOMO_LUMO_gap": 0.17794, 
			 "cosmo_polarized_energy": -14.61, 
			 "cosmo_cavitation_energy": 29.96, 
			 "cosmo_dispersion_energy": -21.19, 
			 "cosmo_repulsion_energy": 1.64, 
			 "cosmo_total_nonelectrostatic_energy": 10.41, 
			 "SMD_solvation_energy": 7.27 
		},
		"coords": [
			{
				"x": 0.6697970659,
				"y": 1.1195140673,
				"z": -1.5825835702,
				"element": "C" 
			},
			{
				"x": -0.7761767969,
				"y": 0.7863312892,
				"z": -1.9371616303,
				"element": "C" 
			},
			{
				"x": -1.1280652646,
				"y": -1.0316859015,
				"z": -2.1512353884,
				"element": "S" 
			},
			{
				"x": -0.2756471014,
				"y": -1.8706879528,
				"z": -0.8199594936,
				"element": "C" 
			},
			{
				"x": -0.305669996,
				"y": -1.4527363423,
				"z": 0.5202900818,
				"element": "C" 
			},
			{
				"x": 0.3318747833,
				"y": -2.2095170873,
				"z": 1.4983311102,
				"element": "C" 
			},
			{
				"x": 0.9800537994,
				"y": -3.4096161389,
				"z": 1.1603372018,
				"element": "C" 
			},
			{
				"x": 0.9946591916,
				"y": -3.8359170267,
				"z": -0.1779821727,
				"element": "C" 
			},
			{
				"x": 0.3827422758,
				"y": -3.0637661667,
				"z": -1.1591129728,
				"element": "C" 
			},
			{
				"x": 1.6242437361,
				"y": -4.1925124124,
				"z": 2.1734026997,
				"element": "C" 
			},
			{
				"x": 2.1479278673,
				"y": -4.8282731066,
				"z": 2.995177543,
				"element": "N" 
			},
			{
				"x": -1.7737620486,
				"y": 1.3938648463,
				"z": -0.9624524972,
				"element": "C" 
			},
			{
				"x": -2.9086721803,
				"y": 1.7701137208,
				"z": -1.5860047909,
				"element": "O" 
			},
			{
				"x": -1.600825966,
				"y": 1.5325372512,
				"z": 0.2308519721,
				"element": "O" 
			},
			{
				"x": 0.8098819441,
				"y": 2.2054693014,
				"z": -1.5867232086,
				"element": "H" 
			},
			{
				"x": 1.3497076839,
				"y": 0.6778634891,
				"z": -2.3144869632,
				"element": "H" 
			},
			{
				"x": 0.9315135181,
				"y": 0.7535480967,
				"z": -0.5888983199,
				"element": "H" 
			},
			{
				"x": -1.0223571413,
				"y": 1.1588355462,
				"z": -2.9354546649,
				"element": "H" 
			},
			{
				"x": -0.8153854822,
				"y": -0.5376837589,
				"z": 0.7987764919,
				"element": "H" 
			},
			{
				"x": 0.3172471913,
				"y": -1.8813061543,
				"z": 2.5323814605,
				"element": "H" 
			},
			{
				"x": 1.4993719169,
				"y": -4.7587154173,
				"z": -0.4436900003,
				"element": "H" 
			},
			{
				"x": 0.4190037294,
				"y": -3.3817654108,
				"z": -2.1961504705,
				"element": "H" 
			},
			{
				"x": -3.507262726,
				"y": 2.1054052682,
				"z": -0.8967524176,
				"element": "H" 
			}
		],
		 "valence_orbital": [ 
			{
				"type": "occ",
				"energy": -0.32899,
				"method": "rhf"
			},
			{
				"type": "occ",
				"energy": -0.30364,
				"method": "rhf"
			},
			{
				"type": "occ",
				"energy": -0.28318,
				"method": "rhf"
			},
			{
				"type": "occ",
				"energy": -0.27847,
				"method": "rhf"
			},
			{
				"type": "occ",
				"energy": -0.23787,
				"method": "rhf"
			},
			{
				"type": "unocc",
				"energy": -0.05993,
				"method": "rhf"
			},
			{
				"type": "unocc",
				"energy": -0.03137,
				"method": "rhf"
			},
			{
				"type": "unocc",
				"energy": -0.02407,
				"method": "rhf"
			},
			{
				"type": "unocc",
				"energy": 0.02986,
				"method": "rhf"
			},
			{
				"type": "unocc",
				"energy": 0.03748,
				"method": "rhf"
			}
		],
		"cosmo_sigma_profile": { 
			"-0.025": 0.0,
			"-0.024": 0.0,
			"-0.023": 0.0,
			"-0.022": 0.0,
			"-0.021": 0.0,
			"-0.02": 0.0,
			"-0.019": 0.198878069588,
			"-0.018": 1.06004995014,
			"-0.017": 0.971126216905,
			"-0.016": 0.816167457907,
			"-0.015": 0.893970183325,
			"-0.014": 0.923090637396,
			"-0.013": 0.318957701577,
			"-0.012": 0.596699075526,
			"-0.011": 0.898958934514,
			"-0.01": 0.87005089529,
			"-0.009": 1.12754799603,
			"-0.008": 6.9900544646,
			"-0.007": 11.3594977427,
			"-0.006": 11.6996449818,
			"-0.005": 11.1687475509,
			"-0.004": 13.5152076973,
			"-0.003": 13.9933001109,
			"-0.002": 18.4689852236,
			"-0.001": 22.9982132265,
			"0.0": 17.7300935504,
			"0.001": 19.7851205548,
			"0.002": 16.5228788783,
			"0.003": 9.18289556895,
			"0.004": 8.93336410992,
			"0.005": 8.12001488746,
			"0.006": 7.3188818536,
			"0.007": 7.98908992537,
			"0.008": 5.43181561667,
			"0.009": 6.36363187854,
			"0.01": 5.18909537448,
			"0.011": 6.33049928179,
			"0.012": 2.67561316024,
			"0.013": 1.56116001264,
			"0.014": 0.0518362784552,
			"0.015": 0.0,
			"0.016": 0.0,
			"0.017": 0.0,
			"0.018": 0.0,
			"0.019": 0.0,
			"0.02": 0.0,
			"0.021": 0.0,
			"0.022": 0.0,
			"0.023": 0.0,
			"0.024": 0.0,
			"0.025": 0.0
		}
	}
}
