{
	 "smiles": "ClC1=NC=NC2=C1C=NN2C1=CC=CC=C1", 
	 "Tm": 400.15, 
	 "num_atms": 23, 
	 "gaussian": { 
		 "optdone": 1, 
		 "sigma_profile": "yes", 
		 "theory": "DFT", 
		 "functional": "B3LYP", 
		 "basiset": "6-31G**", 
		 "properties": { 
			 "R2extent": 5817.7581, 
			 "electric_dipole_moment_norm": 1.77114323249, 
			 "electric_quadrupole_moment_norm": 9.26894102042, 
			 "total_energy": -1102.56947585, 
			 "HOMO_LUMO_gap": 0.16092, 
			 "cosmo_polarized_energy": -7.1, 
			 "cosmo_cavitation_energy": 29.61, 
			 "cosmo_dispersion_energy": -22.43, 
			 "cosmo_repulsion_energy": 1.7, 
			 "cosmo_total_nonelectrostatic_energy": 8.88, 
			 "SMD_solvation_energy": 1.95 
		},
		"coords": [
			{
				"x": -2.9643543527,
				"y": -4.5040850686,
				"z": -2.1694866152,
				"element": "Cl" 
			},
			{
				"x": -2.7480681688,
				"y": -3.2939490995,
				"z": -0.9230905772,
				"element": "C" 
			},
			{
				"x": -3.3390986533,
				"y": -3.4875903328,
				"z": 0.2357304501,
				"element": "N" 
			},
			{
				"x": -3.1600300006,
				"y": -2.5411387761,
				"z": 1.1865079058,
				"element": "C" 
			},
			{
				"x": -2.4514937117,
				"y": -1.4213341699,
				"z": 1.0990742171,
				"element": "N" 
			},
			{
				"x": -1.8620241079,
				"y": -1.2537025241,
				"z": -0.094141259,
				"element": "C" 
			},
			{
				"x": -1.9652377563,
				"y": -2.1640450461,
				"z": -1.1772326041,
				"element": "C" 
			},
			{
				"x": -1.1895718314,
				"y": -1.5814715281,
				"z": -2.2166021954,
				"element": "C" 
			},
			{
				"x": -0.6662167272,
				"y": -0.4408772802,
				"z": -1.8215744681,
				"element": "N" 
			},
			{
				"x": -1.0658111703,
				"y": -0.2230016777,
				"z": -0.5264420394,
				"element": "N" 
			},
			{
				"x": -0.6302417118,
				"y": 0.9605215919,
				"z": 0.1457320553,
				"element": "C" 
			},
			{
				"x": 0.1924362136,
				"y": 1.8605103241,
				"z": -0.5438817692,
				"element": "C" 
			},
			{
				"x": 0.6265067305,
				"y": 3.0191194337,
				"z": 0.0954179314,
				"element": "C" 
			},
			{
				"x": 0.2500880458,
				"y": 3.289937024,
				"z": 1.4123999718,
				"element": "C" 
			},
			{
				"x": -0.5693015297,
				"y": 2.3861067164,
				"z": 2.0883103326,
				"element": "C" 
			},
			{
				"x": -1.0155857122,
				"y": 1.2194190748,
				"z": 1.4670203428,
				"element": "C" 
			},
			{
				"x": -3.6601899985,
				"y": -2.7282959422,
				"z": 2.1329599214,
				"element": "H" 
			},
			{
				"x": -1.0027624002,
				"y": -1.9512905251,
				"z": -3.2150314805,
				"element": "H" 
			},
			{
				"x": 0.4797070072,
				"y": 1.6433955162,
				"z": -1.5643153848,
				"element": "H" 
			},
			{
				"x": 1.2641521173,
				"y": 3.7133262095,
				"z": -0.4440015033,
				"element": "H" 
			},
			{
				"x": 0.5919083215,
				"y": 4.1950194572,
				"z": 1.9051382498,
				"element": "H" 
			},
			{
				"x": -0.8701138428,
				"y": 2.583621206,
				"z": 3.1130123268,
				"element": "H" 
			},
			{
				"x": -1.6509967605,
				"y": 0.5200054167,
				"z": 1.9932961912,
				"element": "H" 
			}
		],
		 "valence_orbital": [ 
			{
				"type": "occ",
				"energy": -0.30643,
				"method": "rhf"
			},
			{
				"type": "occ",
				"energy": -0.2819,
				"method": "rhf"
			},
			{
				"type": "occ",
				"energy": -0.2769,
				"method": "rhf"
			},
			{
				"type": "occ",
				"energy": -0.25852,
				"method": "rhf"
			},
			{
				"type": "occ",
				"energy": -0.23412,
				"method": "rhf"
			},
			{
				"type": "unocc",
				"energy": -0.0732,
				"method": "rhf"
			},
			{
				"type": "unocc",
				"energy": -0.04144,
				"method": "rhf"
			},
			{
				"type": "unocc",
				"energy": -0.01099,
				"method": "rhf"
			},
			{
				"type": "unocc",
				"energy": 0.00089,
				"method": "rhf"
			},
			{
				"type": "unocc",
				"energy": 0.02162,
				"method": "rhf"
			}
		],
		"cosmo_sigma_profile": { 
			"-0.025": 0.0,
			"-0.024": 0.0,
			"-0.023": 0.0,
			"-0.022": 0.0,
			"-0.021": 0.0,
			"-0.02": 0.0,
			"-0.019": 0.0,
			"-0.018": 0.0,
			"-0.017": 0.0,
			"-0.016": 0.0,
			"-0.015": 0.0,
			"-0.014": 0.0,
			"-0.013": 0.0,
			"-0.012": 0.0,
			"-0.011": 0.0,
			"-0.01": 0.609593833363,
			"-0.009": 2.73816352552,
			"-0.008": 2.99557809198,
			"-0.007": 3.7842794346,
			"-0.006": 8.88678593827,
			"-0.005": 11.9815611354,
			"-0.004": 18.4988154411,
			"-0.003": 24.2870007323,
			"-0.002": 22.4964376898,
			"-0.001": 18.7579770105,
			"0.0": 16.9555892643,
			"0.001": 19.1279568912,
			"0.002": 22.4273995961,
			"0.003": 21.429562003,
			"0.004": 16.8491422762,
			"0.005": 12.9813530224,
			"0.006": 5.9441181099,
			"0.007": 3.2463531447,
			"0.008": 2.68116892612,
			"0.009": 2.33128360804,
			"0.01": 1.24737987348,
			"0.011": 0.961366825022,
			"0.012": 0.862269821232,
			"0.013": 0.610212781283,
			"0.014": 0.190750526211,
			"0.015": 0.0,
			"0.016": 0.0,
			"0.017": 0.0,
			"0.018": 0.0,
			"0.019": 0.0,
			"0.02": 0.0,
			"0.021": 0.0,
			"0.022": 0.0,
			"0.023": 0.0,
			"0.024": 0.0,
			"0.025": 0.0
		}
	}
}
