{
	 "smiles": "CCC(C)NC(=O)C1CC(C)NC2=C1C=CC=C2", 
	 "Tm": 395.15, 
	 "num_atms": 40, 
	 "gaussian": { 
		 "optdone": 1, 
		 "sigma_profile": "yes", 
		 "theory": "DFT", 
		 "functional": "B3LYP", 
		 "basiset": "6-31G**", 
		 "properties": { 
			 "R2extent": 5047.1387, 
			 "electric_dipole_moment_norm": 3.53526071174, 
			 "electric_quadrupole_moment_norm": 17.1262250628, 
			 "total_energy": -769.612220626, 
			 "HOMO_LUMO_gap": 0.19257, 
			 "cosmo_polarized_energy": -15.8, 
			 "cosmo_cavitation_energy": 39.25, 
			 "cosmo_dispersion_energy": -27.16, 
			 "cosmo_repulsion_energy": 2.1, 
			 "cosmo_total_nonelectrostatic_energy": 14.19, 
			 "SMD_solvation_energy": 5.31 
		},
		"coords": [
			{
				"x": -2.390937308,
				"y": 1.8616851974,
				"z": 3.6945780729,
				"element": "C" 
			},
			{
				"x": -1.3233840655,
				"y": 1.0620705313,
				"z": 2.9383206894,
				"element": "C" 
			},
			{
				"x": -0.0662989402,
				"y": 1.8838174803,
				"z": 2.574050101,
				"element": "C" 
			},
			{
				"x": -0.343347697,
				"y": 3.0630792811,
				"z": 1.628196809,
				"element": "C" 
			},
			{
				"x": 1.0614351707,
				"y": 1.0370995348,
				"z": 2.1386939262,
				"element": "N" 
			},
			{
				"x": 1.2679876813,
				"y": 0.1922746732,
				"z": 1.0710124305,
				"element": "C" 
			},
			{
				"x": 2.254554876,
				"y": -0.5375949547,
				"z": 1.0737689538,
				"element": "O" 
			},
			{
				"x": 0.2851121839,
				"y": 0.2377991135,
				"z": -0.1120016354,
				"element": "C" 
			},
			{
				"x": 0.79318648,
				"y": 1.183501094,
				"z": -1.2390724769,
				"element": "C" 
			},
			{
				"x": 1.6355713262,
				"y": 0.4998187522,
				"z": -2.3297943117,
				"element": "C" 
			},
			{
				"x": 3.0616833662,
				"y": 0.117656138,
				"z": -1.902788501,
				"element": "C" 
			},
			{
				"x": 0.8657884895,
				"y": -0.6346993481,
				"z": -2.8432485496,
				"element": "N" 
			},
			{
				"x": 0.2815053771,
				"y": -1.5351931216,
				"z": -1.953001065,
				"element": "C" 
			},
			{
				"x": -0.0312985999,
				"y": -1.1580922322,
				"z": -0.6305245319,
				"element": "C" 
			},
			{
				"x": -0.6780656952,
				"y": -2.0812928879,
				"z": 0.1981962558,
				"element": "C" 
			},
			{
				"x": -1.0162379248,
				"y": -3.3590745027,
				"z": -0.239867375,
				"element": "C" 
			},
			{
				"x": -0.7025357033,
				"y": -3.7266758739,
				"z": -1.5515528782,
				"element": "C" 
			},
			{
				"x": -0.062507437,
				"y": -2.8279016087,
				"z": -2.3951723554,
				"element": "C" 
			},
			{
				"x": -2.8231521442,
				"y": 2.6568445073,
				"z": 3.0793027536,
				"element": "H" 
			},
			{
				"x": -3.2113349325,
				"y": 1.2085870315,
				"z": 4.0073802359,
				"element": "H" 
			},
			{
				"x": -1.9760534208,
				"y": 2.3256882892,
				"z": 4.597191661,
				"element": "H" 
			},
			{
				"x": -1.7657439363,
				"y": 0.6314348223,
				"z": 2.0320463521,
				"element": "H" 
			},
			{
				"x": -0.9978063518,
				"y": 0.2154939218,
				"z": 3.5544255496,
				"element": "H" 
			},
			{
				"x": 0.297702061,
				"y": 2.3218081927,
				"z": 3.5120039293,
				"element": "H" 
			},
			{
				"x": -1.0156118864,
				"y": 3.7819095285,
				"z": 2.1053646097,
				"element": "H" 
			},
			{
				"x": 0.5887820857,
				"y": 3.5816391216,
				"z": 1.3872714443,
				"element": "H" 
			},
			{
				"x": -0.8107156924,
				"y": 2.7469701765,
				"z": 0.6915703559,
				"element": "H" 
			},
			{
				"x": 1.7911165513,
				"y": 0.8994825668,
				"z": 2.8269329531,
				"element": "H" 
			},
			{
				"x": -0.6513305139,
				"y": 0.6684118037,
				"z": 0.25172807,
				"element": "H" 
			},
			{
				"x": 1.3579445836,
				"y": 2.0173670485,
				"z": -0.8107218756,
				"element": "H" 
			},
			{
				"x": -0.0858808997,
				"y": 1.6119667011,
				"z": -1.7327999024,
				"element": "H" 
			},
			{
				"x": 1.712190426,
				"y": 1.2184212796,
				"z": -3.1570599097,
				"element": "H" 
			},
			{
				"x": 3.6183002326,
				"y": 1.0047590079,
				"z": -1.5787823401,
				"element": "H" 
			},
			{
				"x": 3.600599943,
				"y": -0.3195022595,
				"z": -2.7516153628,
				"element": "H" 
			},
			{
				"x": 3.0525797612,
				"y": -0.5949365284,
				"z": -1.076344802,
				"element": "H" 
			},
			{
				"x": 1.284811427,
				"y": -1.0804162332,
				"z": -3.6493126013,
				"element": "H" 
			},
			{
				"x": -0.913001735,
				"y": -1.788094451,
				"z": 1.2193346878,
				"element": "H" 
			},
			{
				"x": -1.5128221683,
				"y": -4.0559321926,
				"z": 0.4279538475,
				"element": "H" 
			},
			{
				"x": -0.9542500154,
				"y": -4.7181027304,
				"z": -1.9182689288,
				"element": "H" 
			},
			{
				"x": 0.1787650453,
				"y": -3.1149768702,
				"z": -3.4164942854,
				"element": "H" 
			}
		],
		 "valence_orbital": [ 
			{
				"type": "occ",
				"energy": -0.28022,
				"method": "rhf"
			},
			{
				"type": "occ",
				"energy": -0.24507,
				"method": "rhf"
			},
			{
				"type": "occ",
				"energy": -0.24107,
				"method": "rhf"
			},
			{
				"type": "occ",
				"energy": -0.22734,
				"method": "rhf"
			},
			{
				"type": "occ",
				"energy": -0.18339,
				"method": "rhf"
			},
			{
				"type": "unocc",
				"energy": 0.00918,
				"method": "rhf"
			},
			{
				"type": "unocc",
				"energy": 0.02189,
				"method": "rhf"
			},
			{
				"type": "unocc",
				"energy": 0.03655,
				"method": "rhf"
			},
			{
				"type": "unocc",
				"energy": 0.06403,
				"method": "rhf"
			},
			{
				"type": "unocc",
				"energy": 0.07846,
				"method": "rhf"
			}
		],
		"cosmo_sigma_profile": { 
			"-0.025": 0.0,
			"-0.024": 0.0,
			"-0.023": 0.0,
			"-0.022": 0.0,
			"-0.021": 0.0,
			"-0.02": 0.0,
			"-0.019": 0.0,
			"-0.018": 0.0,
			"-0.017": 0.0,
			"-0.016": 0.0,
			"-0.015": 0.0,
			"-0.014": 0.0,
			"-0.013": 0.292131165464,
			"-0.012": 1.63295774061,
			"-0.011": 2.53147648319,
			"-0.01": 2.13544450493,
			"-0.009": 2.79989197964,
			"-0.008": 2.87538384718,
			"-0.007": 2.76588560581,
			"-0.006": 5.09288724016,
			"-0.005": 11.2764216683,
			"-0.004": 21.3459058606,
			"-0.003": 42.3673947368,
			"-0.002": 40.7504760942,
			"-0.001": 33.97290895,
			"0.0": 28.7766243268,
			"0.001": 22.3647851382,
			"0.002": 15.6088141878,
			"0.003": 8.45547366602,
			"0.004": 8.50198874274,
			"0.005": 9.16715391889,
			"0.006": 9.32325913604,
			"0.007": 8.75917184463,
			"0.008": 5.67388591226,
			"0.009": 2.73851545844,
			"0.01": 2.71103795347,
			"0.011": 3.33213072961,
			"0.012": 2.17882596364,
			"0.013": 2.47356145198,
			"0.014": 4.49825209055,
			"0.015": 1.45346439711,
			"0.016": 0.0,
			"0.017": 0.0,
			"0.018": 0.0,
			"0.019": 0.0,
			"0.02": 0.0,
			"0.021": 0.0,
			"0.022": 0.0,
			"0.023": 0.0,
			"0.024": 0.0,
			"0.025": 0.0
		}
	}
}
