{
	 "smiles": "COC1=CC(C)=CC=C1O", 
	 "Tm": 278.9, 
	 "num_atms": 20, 
	 "gaussian": { 
		 "optdone": 1, 
		 "sigma_profile": "yes", 
		 "theory": "DFT", 
		 "functional": "B3LYP", 
		 "basiset": "6-31G**", 
		 "properties": { 
			 "R2extent": 1761.2813, 
			 "electric_dipole_moment_norm": 2.82157730357, 
			 "electric_quadrupole_moment_norm": 8.68296456459, 
			 "total_energy": -461.316543294, 
			 "HOMO_LUMO_gap": 0.20864, 
			 "cosmo_polarized_energy": -7.26, 
			 "cosmo_cavitation_energy": 23.19, 
			 "cosmo_dispersion_energy": -17.36, 
			 "cosmo_repulsion_energy": 1.41, 
			 "cosmo_total_nonelectrostatic_energy": 7.25, 
			 "SMD_solvation_energy": 5.13 
		},
		"coords": [
			{
				"x": 1.4176279032,
				"y": 2.4343782601,
				"z": -2.1446625041,
				"element": "C" 
			},
			{
				"x": 1.5840434831,
				"y": 2.1621340452,
				"z": -0.762860357,
				"element": "O" 
			},
			{
				"x": 0.7181651535,
				"y": 1.2744253859,
				"z": -0.1651684873,
				"element": "C" 
			},
			{
				"x": -0.3242349373,
				"y": 0.6015360643,
				"z": -0.7919866339,
				"element": "C" 
			},
			{
				"x": -1.1420759165,
				"y": -0.2846280156,
				"z": -0.0656023479,
				"element": "C" 
			},
			{
				"x": -2.2732181655,
				"y": -1.0097294446,
				"z": -0.7576358,
				"element": "C" 
			},
			{
				"x": -0.8803050439,
				"y": -0.4689493722,
				"z": 1.2923239828,
				"element": "C" 
			},
			{
				"x": 0.1679826634,
				"y": 0.2059176236,
				"z": 1.9287779869,
				"element": "C" 
			},
			{
				"x": 0.9720350241,
				"y": 1.0790688217,
				"z": 1.2087150096,
				"element": "C" 
			},
			{
				"x": 1.9961690362,
				"y": 1.7418944333,
				"z": 1.8179780418,
				"element": "O" 
			},
			{
				"x": 1.5404461662,
				"y": 1.5267720023,
				"z": -2.7491320703,
				"element": "H" 
			},
			{
				"x": 0.4325545276,
				"y": 2.8718778218,
				"z": -2.3506623564,
				"element": "H" 
			},
			{
				"x": 2.1944247327,
				"y": 3.1529339947,
				"z": -2.410787169,
				"element": "H" 
			},
			{
				"x": -0.515125076,
				"y": 0.7552890369,
				"z": -1.8491853496,
				"element": "H" 
			},
			{
				"x": -3.0041279059,
				"y": -0.3097833362,
				"z": -1.1805733179,
				"element": "H" 
			},
			{
				"x": -2.8066877273,
				"y": -1.663654656,
				"z": -0.0622704815,
				"element": "H" 
			},
			{
				"x": -1.9096626869,
				"y": -1.6316082899,
				"z": -1.5846343513,
				"element": "H" 
			},
			{
				"x": -1.5004581281,
				"y": -1.1490140395,
				"z": 1.8698288153,
				"element": "H" 
			},
			{
				"x": 0.3723351916,
				"y": 0.0630022739,
				"z": 2.9849197822,
				"element": "H" 
			},
			{
				"x": 2.4191117059,
				"y": 2.2898373902,
				"z": 1.1394176075,
				"element": "H" 
			}
		],
		 "valence_orbital": [ 
			{
				"type": "occ",
				"energy": -0.3373,
				"method": "rhf"
			},
			{
				"type": "occ",
				"energy": -0.33189,
				"method": "rhf"
			},
			{
				"type": "occ",
				"energy": -0.30637,
				"method": "rhf"
			},
			{
				"type": "occ",
				"energy": -0.231,
				"method": "rhf"
			},
			{
				"type": "occ",
				"energy": -0.19783,
				"method": "rhf"
			},
			{
				"type": "unocc",
				"energy": 0.01081,
				"method": "rhf"
			},
			{
				"type": "unocc",
				"energy": 0.0246,
				"method": "rhf"
			},
			{
				"type": "unocc",
				"energy": 0.08116,
				"method": "rhf"
			},
			{
				"type": "unocc",
				"energy": 0.09527,
				"method": "rhf"
			},
			{
				"type": "unocc",
				"energy": 0.11871,
				"method": "rhf"
			}
		],
		"cosmo_sigma_profile": { 
			"-0.025": 0.0,
			"-0.024": 0.0,
			"-0.023": 0.0,
			"-0.022": 0.0,
			"-0.021": 0.0,
			"-0.02": 0.0,
			"-0.019": 0.0,
			"-0.018": 0.0,
			"-0.017": 0.0,
			"-0.016": 0.0,
			"-0.015": 0.0,
			"-0.014": 0.13420959837,
			"-0.013": 1.01197620018,
			"-0.012": 0.295858718155,
			"-0.011": 0.568725326055,
			"-0.01": 0.449238931244,
			"-0.009": 0.437181085069,
			"-0.008": 0.568756205986,
			"-0.007": 0.876990369318,
			"-0.006": 6.07646454958,
			"-0.005": 14.3600525518,
			"-0.004": 18.5494772823,
			"-0.003": 20.9828866818,
			"-0.002": 15.7535537859,
			"-0.001": 12.9903398476,
			"0.0": 13.5161354991,
			"0.001": 12.4140665707,
			"0.002": 10.2575453827,
			"0.003": 10.1779169195,
			"0.004": 11.0410968505,
			"0.005": 10.9371034441,
			"0.006": 9.60990872716,
			"0.007": 4.02601428565,
			"0.008": 1.5702903794,
			"0.009": 1.5490449757,
			"0.01": 1.62822339237,
			"0.011": 1.78933285651,
			"0.012": 1.74781192917,
			"0.013": 0.0305876291383,
			"0.014": 0.0,
			"0.015": 0.0,
			"0.016": 0.0,
			"0.017": 0.0,
			"0.018": 0.0,
			"0.019": 0.0,
			"0.02": 0.0,
			"0.021": 0.0,
			"0.022": 0.0,
			"0.023": 0.0,
			"0.024": 0.0,
			"0.025": 0.0
		}
	}
}
