{
	 "smiles": "OC(=O)CC(O)(C1=CC=CC=C1)C1=CC=CC=C1", 
	 "Tm": 483.15, 
	 "num_atms": 32, 
	 "gaussian": { 
		 "optdone": 1, 
		 "sigma_profile": "yes", 
		 "theory": "DFT", 
		 "functional": "B3LYP", 
		 "basiset": "6-31G**", 
		 "properties": { 
			 "R2extent": 4918.7114, 
			 "electric_dipole_moment_norm": 2.55441190492, 
			 "electric_quadrupole_moment_norm": 11.2964529738, 
			 "total_energy": -805.708617853, 
			 "HOMO_LUMO_gap": 0.22665, 
			 "cosmo_polarized_energy": -15.1, 
			 "cosmo_cavitation_energy": 34.95, 
			 "cosmo_dispersion_energy": -24.05, 
			 "cosmo_repulsion_energy": 1.87, 
			 "cosmo_total_nonelectrostatic_energy": 12.78, 
			 "SMD_solvation_energy": 7.12 
		},
		"coords": [
			{
				"x": -1.8991817429,
				"y": 1.6391740916,
				"z": 2.7335806945,
				"element": "O" 
			},
			{
				"x": -1.7167883624,
				"y": 2.3035254656,
				"z": 1.5620473467,
				"element": "C" 
			},
			{
				"x": -2.6500725519,
				"y": 2.6736289448,
				"z": 0.8871483138,
				"element": "O" 
			},
			{
				"x": -0.2590754203,
				"y": 2.5487536273,
				"z": 1.2283976361,
				"element": "C" 
			},
			{
				"x": 0.6427239042,
				"y": 1.3190403753,
				"z": 0.860920223,
				"element": "C" 
			},
			{
				"x": 1.6997384297,
				"y": 1.8456600206,
				"z": 0.0364839682,
				"element": "O" 
			},
			{
				"x": -0.1446908673,
				"y": 0.3467551208,
				"z": -0.0270652357,
				"element": "C" 
			},
			{
				"x": -0.9216681817,
				"y": -0.6735005439,
				"z": 0.5380419967,
				"element": "C" 
			},
			{
				"x": -1.6732131412,
				"y": -1.524331467,
				"z": -0.273105815,
				"element": "C" 
			},
			{
				"x": -1.6549889876,
				"y": -1.3706633402,
				"z": -1.6600969046,
				"element": "C" 
			},
			{
				"x": -0.8808115586,
				"y": -0.3587278922,
				"z": -2.2290347026,
				"element": "C" 
			},
			{
				"x": -0.1316385984,
				"y": 0.4962754779,
				"z": -1.4193974293,
				"element": "C" 
			},
			{
				"x": 1.3019363553,
				"y": 0.6051213273,
				"z": 2.0513110039,
				"element": "C" 
			},
			{
				"x": 1.031473372,
				"y": 0.8857363586,
				"z": 3.3947995761,
				"element": "C" 
			},
			{
				"x": 1.7249669495,
				"y": 0.2237801493,
				"z": 4.4141471257,
				"element": "C" 
			},
			{
				"x": 2.6985650529,
				"y": -0.7233235057,
				"z": 4.10630957,
				"element": "C" 
			},
			{
				"x": 2.9773942409,
				"y": -1.0111012408,
				"z": 2.7666995778,
				"element": "C" 
			},
			{
				"x": 2.2874424916,
				"y": -0.3531055768,
				"z": 1.7528644445,
				"element": "C" 
			},
			{
				"x": -2.8611815431,
				"y": 1.5375680678,
				"z": 2.8322938219,
				"element": "H" 
			},
			{
				"x": -0.2655830166,
				"y": 3.1805520442,
				"z": 0.3402547791,
				"element": "H" 
			},
			{
				"x": 0.2056542454,
				"y": 3.1126114191,
				"z": 2.0457728304,
				"element": "H" 
			},
			{
				"x": 2.3240170539,
				"y": 2.2922261934,
				"z": 0.6240529014,
				"element": "H" 
			},
			{
				"x": -0.9333258535,
				"y": -0.8064613465,
				"z": 1.61500874,
				"element": "H" 
			},
			{
				"x": -2.266974925,
				"y": -2.3129534793,
				"z": 0.1807111642,
				"element": "H" 
			},
			{
				"x": -2.2367928584,
				"y": -2.0358158509,
				"z": -2.291860674,
				"element": "H" 
			},
			{
				"x": -0.85700451,
				"y": -0.2325730544,
				"z": -3.3078924379,
				"element": "H" 
			},
			{
				"x": 0.4751892112,
				"y": 1.2763680882,
				"z": -1.863658736,
				"element": "H" 
			},
			{
				"x": 0.2633231597,
				"y": 1.5995411438,
				"z": 3.6639892637,
				"element": "H" 
			},
			{
				"x": 1.4972921075,
				"y": 0.4548973622,
				"z": 5.4509945103,
				"element": "H" 
			},
			{
				"x": 3.2359897587,
				"y": -1.2349374188,
				"z": 4.89967918,
				"element": "H" 
			},
			{
				"x": 3.7342216492,
				"y": -1.7480686276,
				"z": 2.5129859449,
				"element": "H" 
			},
			{
				"x": 2.5097641373,
				"y": -0.5707519339,
				"z": 0.7131173224,
				"element": "H" 
			}
		],
		 "valence_orbital": [ 
			{
				"type": "occ",
				"energy": -0.27077,
				"method": "rhf"
			},
			{
				"type": "occ",
				"energy": -0.25278,
				"method": "rhf"
			},
			{
				"type": "occ",
				"energy": -0.24918,
				"method": "rhf"
			},
			{
				"type": "occ",
				"energy": -0.24346,
				"method": "rhf"
			},
			{
				"type": "occ",
				"energy": -0.23763,
				"method": "rhf"
			},
			{
				"type": "unocc",
				"energy": -0.01098,
				"method": "rhf"
			},
			{
				"type": "unocc",
				"energy": -0.00657,
				"method": "rhf"
			},
			{
				"type": "unocc",
				"energy": -0.00041,
				"method": "rhf"
			},
			{
				"type": "unocc",
				"energy": 0.00172,
				"method": "rhf"
			},
			{
				"type": "unocc",
				"energy": 0.01276,
				"method": "rhf"
			}
		],
		"cosmo_sigma_profile": { 
			"-0.025": 0.0,
			"-0.024": 0.0,
			"-0.023": 0.0,
			"-0.022": 0.0,
			"-0.021": 0.0,
			"-0.02": 0.0,
			"-0.019": 0.00660136365222,
			"-0.018": 0.725675532065,
			"-0.017": 0.813232330469,
			"-0.016": 1.17399819851,
			"-0.015": 1.39409137286,
			"-0.014": 1.8370492159,
			"-0.013": 1.55891335278,
			"-0.012": 1.24818169374,
			"-0.011": 1.77599040563,
			"-0.01": 1.67901060437,
			"-0.009": 1.19718202242,
			"-0.008": 1.53105158546,
			"-0.007": 4.42864758375,
			"-0.006": 10.6585440868,
			"-0.005": 19.6120615136,
			"-0.004": 23.2805176983,
			"-0.003": 24.8473114772,
			"-0.002": 17.4865709043,
			"-0.001": 15.9777846308,
			"0.0": 15.9297222047,
			"0.001": 16.2986548218,
			"0.002": 17.4220583402,
			"0.003": 17.7937742116,
			"0.004": 20.0911048833,
			"0.005": 23.2394172146,
			"0.006": 13.6149579481,
			"0.007": 2.43896668621,
			"0.008": 2.72727820501,
			"0.009": 3.61022190866,
			"0.01": 3.22761391186,
			"0.011": 4.94129304066,
			"0.012": 4.27416788023,
			"0.013": 0.637646674453,
			"0.014": 0.0,
			"0.015": 0.0,
			"0.016": 0.0,
			"0.017": 0.0,
			"0.018": 0.0,
			"0.019": 0.0,
			"0.02": 0.0,
			"0.021": 0.0,
			"0.022": 0.0,
			"0.023": 0.0,
			"0.024": 0.0,
			"0.025": 0.0
		}
	}
}
