{
	 "smiles": "OC(=O)C1=CC(=C(F)C=C1)S(=O)(=O)N1CCCC1", 
	 "Tm": 497.15, 
	 "num_atms": 30, 
	 "gaussian": { 
		 "optdone": 1, 
		 "sigma_profile": "yes", 
		 "theory": "DFT", 
		 "functional": "B3LYP", 
		 "basiset": "6-31G**", 
		 "properties": { 
			 "R2extent": 6845.0869, 
			 "electric_dipole_moment_norm": 7.53418906917, 
			 "electric_quadrupole_moment_norm": 31.2938960967, 
			 "total_energy": -1280.00157489, 
			 "HOMO_LUMO_gap": 0.18572, 
			 "cosmo_polarized_energy": -23.06, 
			 "cosmo_cavitation_energy": 34.88, 
			 "cosmo_dispersion_energy": -25.45, 
			 "cosmo_repulsion_energy": 1.91, 
			 "cosmo_total_nonelectrostatic_energy": 11.34, 
			 "SMD_solvation_energy": 5.91 
		},
		"coords": [
			{
				"x": 4.6622946297,
				"y": 2.3465007027,
				"z": -0.8857677097,
				"element": "O" 
			},
			{
				"x": 3.6515559735,
				"y": 2.6161233521,
				"z": -0.0160274231,
				"element": "C" 
			},
			{
				"x": 3.3232919285,
				"y": 3.7579904858,
				"z": 0.1961744841,
				"element": "O" 
			},
			{
				"x": 2.9943546888,
				"y": 1.4383887834,
				"z": 0.6420004981,
				"element": "C" 
			},
			{
				"x": 1.722721907,
				"y": 1.6365161267,
				"z": 1.1982839503,
				"element": "C" 
			},
			{
				"x": 1.0561200461,
				"y": 0.5892052841,
				"z": 1.8256242551,
				"element": "C" 
			},
			{
				"x": 1.6833664909,
				"y": -0.6572755187,
				"z": 1.9157720375,
				"element": "C" 
			},
			{
				"x": 1.0533097905,
				"y": -1.6811481236,
				"z": 2.5113615471,
				"element": "F" 
			},
			{
				"x": 2.9530858905,
				"y": -0.8708179005,
				"z": 1.3958743427,
				"element": "C" 
			},
			{
				"x": 3.6064028245,
				"y": 0.1829518259,
				"z": 0.7591345568,
				"element": "C" 
			},
			{
				"x": -0.5695831822,
				"y": 0.878243096,
				"z": 2.5582477135,
				"element": "S" 
			},
			{
				"x": -0.9332201933,
				"y": 2.2429085826,
				"z": 2.1645154816,
				"element": "O" 
			},
			{
				"x": -0.496254529,
				"y": 0.4783863911,
				"z": 3.9635709222,
				"element": "O" 
			},
			{
				"x": -1.5603429342,
				"y": -0.2013528448,
				"z": 1.7789392181,
				"element": "N" 
			},
			{
				"x": -2.1799459345,
				"y": -1.3235828568,
				"z": 2.5299091132,
				"element": "C" 
			},
			{
				"x": -3.2253347473,
				"y": -1.8451894232,
				"z": 1.5353297777,
				"element": "C" 
			},
			{
				"x": -3.6793294856,
				"y": -0.5770515749,
				"z": 0.7938100309,
				"element": "C" 
			},
			{
				"x": -2.375755142,
				"y": 0.2147284621,
				"z": 0.6107194723,
				"element": "C" 
			},
			{
				"x": 4.6895557251,
				"y": 1.4026805058,
				"z": -1.0936133382,
				"element": "H" 
			},
			{
				"x": 1.2552754858,
				"y": 2.6128442694,
				"z": 1.1378977539,
				"element": "H" 
			},
			{
				"x": 3.411621259,
				"y": -1.8473491392,
				"z": 1.504245596,
				"element": "H" 
			},
			{
				"x": 4.6146858577,
				"y": 0.0171699425,
				"z": 0.3889596226,
				"element": "H" 
			},
			{
				"x": -2.6455855071,
				"y": -0.9647164722,
				"z": 3.4537705081,
				"element": "H" 
			},
			{
				"x": -1.4259335369,
				"y": -2.0674655841,
				"z": 2.7937540289,
				"element": "H" 
			},
			{
				"x": -4.0426021645,
				"y": -2.3667000212,
				"z": 2.0407235625,
				"element": "H" 
			},
			{
				"x": -2.7600339645,
				"y": -2.5469932642,
				"z": 0.833898946,
				"element": "H" 
			},
			{
				"x": -4.173830583,
				"y": -0.7862638266,
				"z": -0.1585683286,
				"element": "H" 
			},
			{
				"x": -4.3755042073,
				"y": -0.0060746751,
				"z": 1.4180339459,
				"element": "H" 
			},
			{
				"x": -2.5238889811,
				"y": 1.2958227588,
				"z": 0.6101100042,
				"element": "H" 
			},
			{
				"x": -1.8645974051,
				"y": -0.066679344,
				"z": -0.3189845698,
				"element": "H" 
			}
		],
		 "valence_orbital": [ 
			{
				"type": "occ",
				"energy": -0.30524,
				"method": "rhf"
			},
			{
				"type": "occ",
				"energy": -0.29372,
				"method": "rhf"
			},
			{
				"type": "occ",
				"energy": -0.28814,
				"method": "rhf"
			},
			{
				"type": "occ",
				"energy": -0.27523,
				"method": "rhf"
			},
			{
				"type": "occ",
				"energy": -0.25231,
				"method": "rhf"
			},
			{
				"type": "unocc",
				"energy": -0.06659,
				"method": "rhf"
			},
			{
				"type": "unocc",
				"energy": -0.05059,
				"method": "rhf"
			},
			{
				"type": "unocc",
				"energy": 0.02609,
				"method": "rhf"
			},
			{
				"type": "unocc",
				"energy": 0.03916,
				"method": "rhf"
			},
			{
				"type": "unocc",
				"energy": 0.05921,
				"method": "rhf"
			}
		],
		"cosmo_sigma_profile": { 
			"-0.025": 0.0,
			"-0.024": 0.0,
			"-0.023": 0.0,
			"-0.022": 0.0,
			"-0.021": 0.0,
			"-0.02": 0.0678138507467,
			"-0.019": 0.944972867164,
			"-0.018": 1.11060782981,
			"-0.017": 1.08142490748,
			"-0.016": 1.0472635015,
			"-0.015": 0.510822561334,
			"-0.014": 1.46533988381,
			"-0.013": 0.925608533681,
			"-0.012": 1.31880231836,
			"-0.011": 1.47838346997,
			"-0.01": 1.45416528049,
			"-0.009": 3.84862368713,
			"-0.008": 4.88499200905,
			"-0.007": 3.65262552617,
			"-0.006": 3.50814012048,
			"-0.005": 7.77260340607,
			"-0.004": 28.5078219571,
			"-0.003": 36.1437334593,
			"-0.002": 32.3663954924,
			"-0.001": 26.8676572776,
			"0.0": 21.7384595541,
			"0.001": 10.1848915858,
			"0.002": 10.088820186,
			"0.003": 9.18041572152,
			"0.004": 5.68156133944,
			"0.005": 6.09094537181,
			"0.006": 4.90026600064,
			"0.007": 5.89438517915,
			"0.008": 6.08429547108,
			"0.009": 8.5557198228,
			"0.01": 12.1860175754,
			"0.011": 12.9816373104,
			"0.012": 4.25949594526,
			"0.013": 0.712162345903,
			"0.014": 0.0,
			"0.015": 0.0,
			"0.016": 0.0,
			"0.017": 0.0,
			"0.018": 0.0,
			"0.019": 0.0,
			"0.02": 0.0,
			"0.021": 0.0,
			"0.022": 0.0,
			"0.023": 0.0,
			"0.024": 0.0,
			"0.025": 0.0
		}
	}
}
