{
	 "smiles": "OC(=O)C1=C2C(ON=C2C2=CC=CC=C2)=NC(=C1)C1CC1", 
	 "Tm": 487.15, 
	 "num_atms": 33, 
	 "gaussian": { 
		 "optdone": 1, 
		 "sigma_profile": "yes", 
		 "theory": "DFT", 
		 "functional": "B3LYP", 
		 "basiset": "6-31G**", 
		 "properties": { 
			 "R2extent": 7251.9909, 
			 "electric_dipole_moment_norm": 3.03201148745, 
			 "electric_quadrupole_moment_norm": 23.7956626691, 
			 "total_energy": -952.054750439, 
			 "HOMO_LUMO_gap": 0.16192, 
			 "cosmo_polarized_energy": -15.55, 
			 "cosmo_cavitation_energy": 38.02, 
			 "cosmo_dispersion_energy": -27.04, 
			 "cosmo_repulsion_energy": 2.05, 
			 "cosmo_total_nonelectrostatic_energy": 13.03, 
			 "SMD_solvation_energy": 5.9 
		},
		"coords": [
			{
				"x": -1.586379996,
				"y": -0.8880753691,
				"z": 1.0652509935,
				"element": "O" 
			},
			{
				"x": -0.9058012618,
				"y": 0.2751100894,
				"z": 1.0571410545,
				"element": "C" 
			},
			{
				"x": -0.8630742275,
				"y": 1.02880823,
				"z": 2.0064376294,
				"element": "O" 
			},
			{
				"x": -0.2724110916,
				"y": 0.5532555668,
				"z": -0.2691291359,
				"element": "C" 
			},
			{
				"x": 0.201930175,
				"y": -0.4125059826,
				"z": -1.1822071087,
				"element": "C" 
			},
			{
				"x": 0.6245210507,
				"y": 0.085504536,
				"z": -2.4279826733,
				"element": "C" 
			},
			{
				"x": 0.9994540306,
				"y": -0.934484633,
				"z": -3.2299914336,
				"element": "O" 
			},
			{
				"x": 0.8731221647,
				"y": -2.1293005648,
				"z": -2.5059268197,
				"element": "N" 
			},
			{
				"x": 0.4140985352,
				"y": -1.8376553405,
				"z": -1.3074821554,
				"element": "C" 
			},
			{
				"x": 0.2669568328,
				"y": -2.9448734623,
				"z": -0.3387556077,
				"element": "C" 
			},
			{
				"x": -0.2932985124,
				"y": -4.1622247644,
				"z": -0.7507751615,
				"element": "C" 
			},
			{
				"x": -0.3820642675,
				"y": -5.2321474638,
				"z": 0.1388853687,
				"element": "C" 
			},
			{
				"x": 0.0938107488,
				"y": -5.1008303261,
				"z": 1.4447884573,
				"element": "C" 
			},
			{
				"x": 0.6642609519,
				"y": -3.8942990423,
				"z": 1.8577555659,
				"element": "C" 
			},
			{
				"x": 0.7508767657,
				"y": -2.8218316009,
				"z": 0.9720733708,
				"element": "C" 
			},
			{
				"x": 0.6768081985,
				"y": 1.3393695803,
				"z": -2.8407948289,
				"element": "N" 
			},
			{
				"x": 0.2820885061,
				"y": 2.2522577023,
				"z": -1.9393706459,
				"element": "C" 
			},
			{
				"x": -0.1939069193,
				"y": 1.8873659911,
				"z": -0.6580473923,
				"element": "C" 
			},
			{
				"x": 0.3426976124,
				"y": 3.6788598483,
				"z": -2.3358311173,
				"element": "C" 
			},
			{
				"x": 1.4588530888,
				"y": 4.1559135491,
				"z": -3.2542284814,
				"element": "C" 
			},
			{
				"x": 0.0635299698,
				"y": 4.070568141,
				"z": -3.7800898343,
				"element": "C" 
			},
			{
				"x": -1.9546641722,
				"y": -0.9916414401,
				"z": 1.9590379433,
				"element": "H" 
			},
			{
				"x": -0.6566088608,
				"y": -4.2587775397,
				"z": -1.7684332579,
				"element": "H" 
			},
			{
				"x": -0.8230122971,
				"y": -6.1689459756,
				"z": -0.1889801804,
				"element": "H" 
			},
			{
				"x": 0.02518396,
				"y": -5.9353533236,
				"z": 2.136627057,
				"element": "H" 
			},
			{
				"x": 1.0494796336,
				"y": -3.790632606,
				"z": 2.8680395369,
				"element": "H" 
			},
			{
				"x": 1.2142121088,
				"y": -1.8930346703,
				"z": 1.2915568722,
				"element": "H" 
			},
			{
				"x": -0.5311509346,
				"y": 2.6512892557,
				"z": 0.0329309501,
				"element": "H" 
			},
			{
				"x": 0.011787147,
				"y": 4.3728528299,
				"z": -1.5692320103,
				"element": "H" 
			},
			{
				"x": 2.1633071307,
				"y": 3.3976001663,
				"z": -3.579904837,
				"element": "H" 
			},
			{
				"x": 1.8857531891,
				"y": 5.1323644597,
				"z": -3.0473723563,
				"element": "H" 
			},
			{
				"x": -0.4949822853,
				"y": 4.9867810612,
				"z": -3.9448524913,
				"element": "H" 
			},
			{
				"x": -0.1665769743,
				"y": 3.254813098,
				"z": -4.4575372705,
				"element": "H" 
			}
		],
		 "valence_orbital": [ 
			{
				"type": "occ",
				"energy": -0.28775,
				"method": "rhf"
			},
			{
				"type": "occ",
				"energy": -0.27739,
				"method": "rhf"
			},
			{
				"type": "occ",
				"energy": -0.25855,
				"method": "rhf"
			},
			{
				"type": "occ",
				"energy": -0.25239,
				"method": "rhf"
			},
			{
				"type": "occ",
				"energy": -0.24495,
				"method": "rhf"
			},
			{
				"type": "unocc",
				"energy": -0.08303,
				"method": "rhf"
			},
			{
				"type": "unocc",
				"energy": -0.03133,
				"method": "rhf"
			},
			{
				"type": "unocc",
				"energy": -0.016,
				"method": "rhf"
			},
			{
				"type": "unocc",
				"energy": -0.00928,
				"method": "rhf"
			},
			{
				"type": "unocc",
				"energy": 0.02431,
				"method": "rhf"
			}
		],
		"cosmo_sigma_profile": { 
			"-0.025": 0.0,
			"-0.024": 0.0,
			"-0.023": 0.0,
			"-0.022": 0.0,
			"-0.021": 0.0,
			"-0.02": 0.0,
			"-0.019": 0.42673980113,
			"-0.018": 1.18472825358,
			"-0.017": 0.871021977926,
			"-0.016": 0.356512713256,
			"-0.015": 0.648188865111,
			"-0.014": 0.857947472959,
			"-0.013": 0.419888977759,
			"-0.012": 0.96982679866,
			"-0.011": 0.967309692736,
			"-0.01": 0.63814287426,
			"-0.009": 0.822566047614,
			"-0.008": 3.56940149029,
			"-0.007": 5.72550766198,
			"-0.006": 14.1983469474,
			"-0.005": 20.8544381745,
			"-0.004": 24.9067294513,
			"-0.003": 23.593775854,
			"-0.002": 24.4852698505,
			"-0.001": 23.7697616067,
			"0.0": 24.4981963656,
			"0.001": 20.0005185435,
			"0.002": 18.9069877666,
			"0.003": 18.6193107546,
			"0.004": 16.8511773862,
			"0.005": 13.5846094547,
			"0.006": 7.93876355222,
			"0.007": 10.6764095848,
			"0.008": 6.59698912107,
			"0.009": 3.95299307929,
			"0.01": 4.84791857024,
			"0.011": 6.79932760299,
			"0.012": 1.71129632787,
			"0.013": 0.65065874582,
			"0.014": 0.106604922955,
			"0.015": 0.0,
			"0.016": 0.0,
			"0.017": 0.0,
			"0.018": 0.0,
			"0.019": 0.0,
			"0.02": 0.0,
			"0.021": 0.0,
			"0.022": 0.0,
			"0.023": 0.0,
			"0.024": 0.0,
			"0.025": 0.0
		}
	}
}
