{
	 "smiles": "SC1=C(Cl)C(Cl)=CC(Cl)=C1Cl", 
	 "Tm": 379.15, 
	 "num_atms": 13, 
	 "gaussian": { 
		 "optdone": 1, 
		 "sigma_profile": "yes", 
		 "theory": "DFT", 
		 "functional": "B3LYP", 
		 "basiset": "6-31G**", 
		 "properties": { 
			 "R2extent": 4391.7134, 
			 "electric_dipole_moment_norm": 0.82468109594, 
			 "electric_quadrupole_moment_norm": 6.68527372214, 
			 "total_energy": -2468.7811052, 
			 "HOMO_LUMO_gap": 0.19955, 
			 "cosmo_polarized_energy": -4.21, 
			 "cosmo_cavitation_energy": 25.7, 
			 "cosmo_dispersion_energy": -20.3, 
			 "cosmo_repulsion_energy": 1.57, 
			 "cosmo_total_nonelectrostatic_energy": 6.97, 
			 "SMD_solvation_energy": 2.89 
		},
		"coords": [
			{
				"x": -2.4700906756,
				"y": 1.5793730387,
				"z": -1.72840054,
				"element": "S" 
			},
			{
				"x": -1.758551833,
				"y": 0.7714365152,
				"z": -0.3159877506,
				"element": "C" 
			},
			{
				"x": -1.7537114594,
				"y": -0.6262541495,
				"z": -0.1160919809,
				"element": "C" 
			},
			{
				"x": -2.4757125177,
				"y": -1.6983070882,
				"z": -1.2907787451,
				"element": "Cl" 
			},
			{
				"x": -1.1657971188,
				"y": -1.1714333796,
				"z": 1.0343024243,
				"element": "C" 
			},
			{
				"x": -1.1415362534,
				"y": -2.892449301,
				"z": 1.3139038373,
				"element": "Cl" 
			},
			{
				"x": -0.5811350067,
				"y": -0.3492693427,
				"z": 1.9918127439,
				"element": "C" 
			},
			{
				"x": -0.5793442662,
				"y": 1.0299123778,
				"z": 1.8065119024,
				"element": "C" 
			},
			{
				"x": 0.1633414871,
				"y": 2.0234784182,
				"z": 3.0296643617,
				"element": "Cl" 
			},
			{
				"x": -1.1611398395,
				"y": 1.5918390068,
				"z": 0.6650525598,
				"element": "C" 
			},
			{
				"x": -1.1563196055,
				"y": 3.3180261417,
				"z": 0.437828824,
				"element": "Cl" 
			},
			{
				"x": -2.8807664514,
				"y": 0.4476236994,
				"z": -2.3291624313,
				"element": "H" 
			},
			{
				"x": -0.1301364598,
				"y": -0.7803759368,
				"z": 2.8760447945,
				"element": "H" 
			}
		],
		 "valence_orbital": [ 
			{
				"type": "occ",
				"energy": -0.33078,
				"method": "rhf"
			},
			{
				"type": "occ",
				"energy": -0.3183,
				"method": "rhf"
			},
			{
				"type": "occ",
				"energy": -0.30713,
				"method": "rhf"
			},
			{
				"type": "occ",
				"energy": -0.26019,
				"method": "rhf"
			},
			{
				"type": "occ",
				"energy": -0.24737,
				"method": "rhf"
			},
			{
				"type": "unocc",
				"energy": -0.04782,
				"method": "rhf"
			},
			{
				"type": "unocc",
				"energy": -0.04618,
				"method": "rhf"
			},
			{
				"type": "unocc",
				"energy": -0.04379,
				"method": "rhf"
			},
			{
				"type": "unocc",
				"energy": 0.00781,
				"method": "rhf"
			},
			{
				"type": "unocc",
				"energy": 0.02121,
				"method": "rhf"
			}
		],
		"cosmo_sigma_profile": { 
			"-0.025": 0.0,
			"-0.024": 0.0,
			"-0.023": 0.0,
			"-0.022": 0.0,
			"-0.021": 0.0,
			"-0.02": 0.0,
			"-0.019": 0.0,
			"-0.018": 0.0,
			"-0.017": 0.0,
			"-0.016": 0.0,
			"-0.015": 0.0,
			"-0.014": 0.0,
			"-0.013": 0.0,
			"-0.012": 0.0663989532233,
			"-0.011": 0.686746798219,
			"-0.01": 1.33861500871,
			"-0.009": 2.47975661856,
			"-0.008": 2.53512207041,
			"-0.007": 3.13529659903,
			"-0.006": 2.91527670342,
			"-0.005": 4.11112887297,
			"-0.004": 8.17068856194,
			"-0.003": 12.1113356033,
			"-0.002": 22.8762948045,
			"-0.001": 34.2356027507,
			"0.0": 22.4860536839,
			"0.001": 20.1653451192,
			"0.002": 24.9191946963,
			"0.003": 34.6917154689,
			"0.004": 15.1643289284,
			"0.005": 2.96840778329,
			"0.006": 2.59249422636,
			"0.007": 1.03827157972,
			"0.008": 0.0,
			"0.009": 0.0,
			"0.01": 0.0,
			"0.011": 0.0,
			"0.012": 0.0,
			"0.013": 0.0,
			"0.014": 0.0,
			"0.015": 0.0,
			"0.016": 0.0,
			"0.017": 0.0,
			"0.018": 0.0,
			"0.019": 0.0,
			"0.02": 0.0,
			"0.021": 0.0,
			"0.022": 0.0,
			"0.023": 0.0,
			"0.024": 0.0,
			"0.025": 0.0
		}
	}
}
