{
	 "smiles": "ON=CC1=CC=CC=C1", 
	 "Tm": 308.95, 
	 "num_atms": 16, 
	 "gaussian": { 
		 "optdone": 1, 
		 "sigma_profile": "yes", 
		 "theory": "DFT", 
		 "functional": "B3LYP", 
		 "basiset": "6-31G**", 
		 "properties": { 
			 "R2extent": 1631.0089, 
			 "electric_dipole_moment_norm": 0.73435208177, 
			 "electric_quadrupole_moment_norm": 8.96291310624, 
			 "total_energy": -400.875498013, 
			 "HOMO_LUMO_gap": 0.18927, 
			 "cosmo_polarized_energy": -7.76, 
			 "cosmo_cavitation_energy": 20.12, 
			 "cosmo_dispersion_energy": -15.16, 
			 "cosmo_repulsion_energy": 1.24, 
			 "cosmo_total_nonelectrostatic_energy": 6.21, 
			 "SMD_solvation_energy": 3.66 
		},
		"coords": [
			{
				"x": -3.6642018954,
				"y": 0.667778341,
				"z": -0.7130560575,
				"element": "O" 
			},
			{
				"x": -3.2368076655,
				"y": 1.9991870103,
				"z": -0.8057290705,
				"element": "N" 
			},
			{
				"x": -1.9649738718,
				"y": 2.1490934478,
				"z": -0.6922305875,
				"element": "C" 
			},
			{
				"x": -0.8479040153,
				"y": 1.2181264484,
				"z": -0.4842690957,
				"element": "C" 
			},
			{
				"x": 0.4382085664,
				"y": 1.7895891422,
				"z": -0.4128590059,
				"element": "C" 
			},
			{
				"x": 1.5683322279,
				"y": 1.0013899032,
				"z": -0.2181845189,
				"element": "C" 
			},
			{
				"x": 1.4364331049,
				"y": -0.383023635,
				"z": -0.0898801078,
				"element": "C" 
			},
			{
				"x": 0.1688424005,
				"y": -0.9649340592,
				"z": -0.1582370382,
				"element": "C" 
			},
			{
				"x": -0.9668050524,
				"y": -0.1805379937,
				"z": -0.3531070094,
				"element": "C" 
			},
			{
				"x": -4.6203261933,
				"y": 0.7563984233,
				"z": -0.8188489493,
				"element": "H" 
			},
			{
				"x": -1.6844461908,
				"y": 3.1995681392,
				"z": -0.7708719555,
				"element": "H" 
			},
			{
				"x": 0.5450024161,
				"y": 2.8669188498,
				"z": -0.5123560433,
				"element": "H" 
			},
			{
				"x": 2.5492344471,
				"y": 1.4649512767,
				"z": -0.1664560628,
				"element": "H" 
			},
			{
				"x": 2.3150345057,
				"y": -1.0034060221,
				"z": 0.0623134248,
				"element": "H" 
			},
			{
				"x": 0.0612399083,
				"y": -2.0413878421,
				"z": -0.0590282083,
				"element": "H" 
			},
			{
				"x": -1.9430626924,
				"y": -0.6400114298,
				"z": -0.4044997143,
				"element": "H" 
			}
		],
		 "valence_orbital": [ 
			{
				"type": "occ",
				"energy": -0.34261,
				"method": "rhf"
			},
			{
				"type": "occ",
				"energy": -0.28969,
				"method": "rhf"
			},
			{
				"type": "occ",
				"energy": -0.26922,
				"method": "rhf"
			},
			{
				"type": "occ",
				"energy": -0.25341,
				"method": "rhf"
			},
			{
				"type": "occ",
				"energy": -0.23033,
				"method": "rhf"
			},
			{
				"type": "unocc",
				"energy": -0.04106,
				"method": "rhf"
			},
			{
				"type": "unocc",
				"energy": -0.00257,
				"method": "rhf"
			},
			{
				"type": "unocc",
				"energy": 0.05741,
				"method": "rhf"
			},
			{
				"type": "unocc",
				"energy": 0.06874,
				"method": "rhf"
			},
			{
				"type": "unocc",
				"energy": 0.09969,
				"method": "rhf"
			}
		],
		"cosmo_sigma_profile": { 
			"-0.025": 0.0,
			"-0.024": 0.0,
			"-0.023": 0.0,
			"-0.022": 0.0,
			"-0.021": 0.0,
			"-0.02": 0.0,
			"-0.019": 0.0,
			"-0.018": 0.16412405563,
			"-0.017": 1.11706854397,
			"-0.016": 0.838791540403,
			"-0.015": 0.701067022073,
			"-0.014": 0.68112851562,
			"-0.013": 0.835708379219,
			"-0.012": 1.39612049365,
			"-0.011": 0.371217101046,
			"-0.01": 0.124394481697,
			"-0.009": 0.757691649055,
			"-0.008": 1.680535436,
			"-0.007": 4.57604484001,
			"-0.006": 9.00994973631,
			"-0.005": 10.1098450238,
			"-0.004": 12.5866056791,
			"-0.003": 9.24614837494,
			"-0.002": 8.19859691402,
			"-0.001": 8.98175034617,
			"0.0": 7.71952531889,
			"0.001": 9.11970390779,
			"0.002": 12.1686463944,
			"0.003": 14.3100193448,
			"0.004": 15.4932385692,
			"0.005": 14.3663371086,
			"0.006": 4.11907449426,
			"0.007": 3.74877418323,
			"0.008": 2.07193985462,
			"0.009": 2.4746723511,
			"0.01": 0.852219605444,
			"0.011": 0.977177736478,
			"0.012": 1.04494743972,
			"0.013": 0.861221281693,
			"0.014": 0.323521902966,
			"0.015": 0.0,
			"0.016": 0.0,
			"0.017": 0.0,
			"0.018": 0.0,
			"0.019": 0.0,
			"0.02": 0.0,
			"0.021": 0.0,
			"0.022": 0.0,
			"0.023": 0.0,
			"0.024": 0.0,
			"0.025": 0.0
		}
	}
}
