{
	 "smiles": "NC(=NO)C1=CC(F)=CC=C1", 
	 "Tm": 347.15, 
	 "num_atms": 18, 
	 "gaussian": { 
		 "optdone": 1, 
		 "sigma_profile": "yes", 
		 "theory": "DFT", 
		 "functional": "B3LYP", 
		 "basiset": "6-31G**", 
		 "properties": { 
			 "R2extent": 3405.4126, 
			 "electric_dipole_moment_norm": 2.29329360528, 
			 "electric_quadrupole_moment_norm": 12.2162554926, 
			 "total_energy": -555.475745216, 
			 "HOMO_LUMO_gap": 0.18107, 
			 "cosmo_polarized_energy": -11.11, 
			 "cosmo_cavitation_energy": 22.97, 
			 "cosmo_dispersion_energy": -17.09, 
			 "cosmo_repulsion_energy": 1.36, 
			 "cosmo_total_nonelectrostatic_energy": 7.24, 
			 "SMD_solvation_energy": 4.62 
		},
		"coords": [
			{
				"x": -0.2377790449,
				"y": -0.459408343,
				"z": 1.5864094585,
				"element": "N" 
			},
			{
				"x": -0.3695893997,
				"y": 0.9162098003,
				"z": 1.5412304158,
				"element": "C" 
			},
			{
				"x": 0.1471269685,
				"y": 1.7228997156,
				"z": 2.4111672612,
				"element": "N" 
			},
			{
				"x": 0.7592077344,
				"y": 0.973786366,
				"z": 3.4522476603,
				"element": "O" 
			},
			{
				"x": -1.0937528512,
				"y": 1.5142456973,
				"z": 0.3936150957,
				"element": "C" 
			},
			{
				"x": -1.6423517443,
				"y": 2.8005012562,
				"z": 0.5082620662,
				"element": "C" 
			},
			{
				"x": -2.314837318,
				"y": 3.3417691652,
				"z": -0.575965518,
				"element": "C" 
			},
			{
				"x": -2.8448827496,
				"y": 4.5778665002,
				"z": -0.4606454062,
				"element": "F" 
			},
			{
				"x": -2.4761133488,
				"y": 2.6544312539,
				"z": -1.7761096885,
				"element": "C" 
			},
			{
				"x": -1.9262320957,
				"y": 1.3776430934,
				"z": -1.8828319721,
				"element": "C" 
			},
			{
				"x": -1.2376078105,
				"y": 0.8077283192,
				"z": -0.8107024374,
				"element": "C" 
			},
			{
				"x": 0.1278180509,
				"y": -0.7964124537,
				"z": 2.4671383289,
				"element": "H" 
			},
			{
				"x": -1.0245146274,
				"y": -0.9857783081,
				"z": 1.2342935168,
				"element": "H" 
			},
			{
				"x": 1.1109133872,
				"y": 1.6702993918,
				"z": 4.0194591658,
				"element": "H" 
			},
			{
				"x": -1.5428430449,
				"y": 3.3610159345,
				"z": 1.429532439,
				"element": "H" 
			},
			{
				"x": -3.0170658602,
				"y": 3.1189920781,
				"z": -2.5932255029,
				"element": "H" 
			},
			{
				"x": -2.0282200977,
				"y": 0.8258926537,
				"z": -2.8124577434,
				"element": "H" 
			},
			{
				"x": -0.7833761484,
				"y": -0.1713821203,
				"z": -0.9186171397,
				"element": "H" 
			}
		],
		 "valence_orbital": [ 
			{
				"type": "occ",
				"energy": -0.32296,
				"method": "rhf"
			},
			{
				"type": "occ",
				"energy": -0.27675,
				"method": "rhf"
			},
			{
				"type": "occ",
				"energy": -0.26443,
				"method": "rhf"
			},
			{
				"type": "occ",
				"energy": -0.24726,
				"method": "rhf"
			},
			{
				"type": "occ",
				"energy": -0.2134,
				"method": "rhf"
			},
			{
				"type": "unocc",
				"energy": -0.03233,
				"method": "rhf"
			},
			{
				"type": "unocc",
				"energy": -0.00348,
				"method": "rhf"
			},
			{
				"type": "unocc",
				"energy": 0.05745,
				"method": "rhf"
			},
			{
				"type": "unocc",
				"energy": 0.07493,
				"method": "rhf"
			},
			{
				"type": "unocc",
				"energy": 0.08853,
				"method": "rhf"
			}
		],
		"cosmo_sigma_profile": { 
			"-0.025": 0.0,
			"-0.024": 0.0,
			"-0.023": 0.0,
			"-0.022": 0.0,
			"-0.021": 0.0,
			"-0.02": 0.0,
			"-0.019": 0.0,
			"-0.018": 0.0,
			"-0.017": 0.490206736544,
			"-0.016": 1.10930365774,
			"-0.015": 0.861672059936,
			"-0.014": 1.12224736408,
			"-0.013": 1.50241465427,
			"-0.012": 1.93040028593,
			"-0.011": 2.32592732233,
			"-0.01": 3.36652648522,
			"-0.009": 3.03757228764,
			"-0.008": 3.19370782861,
			"-0.007": 6.08617491845,
			"-0.006": 8.58076350933,
			"-0.005": 9.31425860823,
			"-0.004": 8.34939586371,
			"-0.003": 6.51362911967,
			"-0.002": 6.70589759578,
			"-0.001": 8.05302585523,
			"0.0": 10.5061561223,
			"0.001": 15.4195252049,
			"0.002": 15.4173372479,
			"0.003": 17.0583404298,
			"0.004": 19.9302248932,
			"0.005": 7.88164054458,
			"0.006": 4.10996665677,
			"0.007": 5.29996159407,
			"0.008": 5.21767359867,
			"0.009": 3.54012280759,
			"0.01": 2.52544807726,
			"0.011": 1.73188598012,
			"0.012": 1.19079873903,
			"0.013": 0.702575323202,
			"0.014": 0.167585576821,
			"0.015": 0.0,
			"0.016": 0.0,
			"0.017": 0.0,
			"0.018": 0.0,
			"0.019": 0.0,
			"0.02": 0.0,
			"0.021": 0.0,
			"0.022": 0.0,
			"0.023": 0.0,
			"0.024": 0.0,
			"0.025": 0.0
		}
	}
}
