{
	 "smiles": "COC(=O)C1=NNC(C)=C1", 
	 "Tm": 355.15, 
	 "num_atms": 18, 
	 "gaussian": { 
		 "optdone": 1, 
		 "sigma_profile": "yes", 
		 "theory": "DFT", 
		 "functional": "B3LYP", 
		 "basiset": "6-31G**", 
		 "properties": { 
			 "R2extent": 2434.0156, 
			 "electric_dipole_moment_norm": 4.47567519152, 
			 "electric_quadrupole_moment_norm": 15.2326794547, 
			 "total_energy": -493.400148319, 
			 "HOMO_LUMO_gap": 0.22547, 
			 "cosmo_polarized_energy": -16.03, 
			 "cosmo_cavitation_energy": 22.86, 
			 "cosmo_dispersion_energy": -16.89, 
			 "cosmo_repulsion_energy": 1.4, 
			 "cosmo_total_nonelectrostatic_energy": 7.37, 
			 "SMD_solvation_energy": 4.91 
		},
		"coords": [
			{
				"x": -4.5421934642,
				"y": -1.8186404466,
				"z": -1.361705075,
				"element": "C" 
			},
			{
				"x": -3.4838325595,
				"y": -1.0220342267,
				"z": -0.8123895168,
				"element": "O" 
			},
			{
				"x": -2.2724177791,
				"y": -1.6359302334,
				"z": -0.7663653432,
				"element": "C" 
			},
			{
				"x": -2.080461167,
				"y": -2.7676144247,
				"z": -1.1540857763,
				"element": "O" 
			},
			{
				"x": -1.258186909,
				"y": -0.7286804718,
				"z": -0.1847303355,
				"element": "C" 
			},
			{
				"x": 0.0057183632,
				"y": -1.1443009429,
				"z": -0.0505395346,
				"element": "N" 
			},
			{
				"x": 0.6318256476,
				"y": -0.0921599039,
				"z": 0.4964732521,
				"element": "N" 
			},
			{
				"x": -0.1764253749,
				"y": 0.9892491984,
				"z": 0.7223149906,
				"element": "C" 
			},
			{
				"x": 0.3252478412,
				"y": 2.2625776742,
				"z": 1.3250498615,
				"element": "C" 
			},
			{
				"x": -1.4261060126,
				"y": 0.5999731873,
				"z": 0.2839750241,
				"element": "C" 
			},
			{
				"x": -4.3153892145,
				"y": -2.1071179212,
				"z": -2.3915588136,
				"element": "H" 
			},
			{
				"x": -4.6908253189,
				"y": -2.7261700672,
				"z": -0.7704679961,
				"element": "H" 
			},
			{
				"x": -5.4327066081,
				"y": -1.1906613434,
				"z": -1.3281264482,
				"element": "H" 
			},
			{
				"x": 1.6183777004,
				"y": -0.1690326214,
				"z": 0.6957307496,
				"element": "H" 
			},
			{
				"x": 0.735927939,
				"y": 2.1038032998,
				"z": 2.328984125,
				"element": "H" 
			},
			{
				"x": -0.4924425458,
				"y": 2.9810699376,
				"z": 1.410033565,
				"element": "H" 
			},
			{
				"x": 1.1104966744,
				"y": 2.7212370736,
				"z": 0.7128671391,
				"element": "H" 
			},
			{
				"x": -2.3349072122,
				"y": 1.1808322322,
				"z": 0.2952401324,
				"element": "H" 
			}
		],
		 "valence_orbital": [ 
			{
				"type": "occ",
				"energy": -0.29368,
				"method": "rhf"
			},
			{
				"type": "occ",
				"energy": -0.29173,
				"method": "rhf"
			},
			{
				"type": "occ",
				"energy": -0.26239,
				"method": "rhf"
			},
			{
				"type": "occ",
				"energy": -0.26201,
				"method": "rhf"
			},
			{
				"type": "occ",
				"energy": -0.24619,
				"method": "rhf"
			},
			{
				"type": "unocc",
				"energy": -0.02072,
				"method": "rhf"
			},
			{
				"type": "unocc",
				"energy": 0.02743,
				"method": "rhf"
			},
			{
				"type": "unocc",
				"energy": 0.07143,
				"method": "rhf"
			},
			{
				"type": "unocc",
				"energy": 0.10858,
				"method": "rhf"
			},
			{
				"type": "unocc",
				"energy": 0.12079,
				"method": "rhf"
			}
		],
		"cosmo_sigma_profile": { 
			"-0.025": 0.0,
			"-0.024": 0.0,
			"-0.023": 0.0,
			"-0.022": 0.0,
			"-0.021": 0.0,
			"-0.02": 0.0,
			"-0.019": 0.0,
			"-0.018": 0.0238303049604,
			"-0.017": 1.16792025032,
			"-0.016": 1.2512014914,
			"-0.015": 1.07149280446,
			"-0.014": 0.961597741499,
			"-0.013": 0.59605998536,
			"-0.012": 1.45951827246,
			"-0.011": 1.3989333542,
			"-0.01": 1.20507676905,
			"-0.009": 0.451171626702,
			"-0.008": 1.46175962555,
			"-0.007": 2.62267175144,
			"-0.006": 9.76988635669,
			"-0.005": 16.2694147601,
			"-0.004": 15.2705936716,
			"-0.003": 17.2139322077,
			"-0.002": 15.7788586747,
			"-0.001": 12.2534399411,
			"0.0": 8.76016961126,
			"0.001": 6.69657570502,
			"0.002": 9.0981887532,
			"0.003": 11.2754200849,
			"0.004": 8.96965940781,
			"0.005": 3.80000566416,
			"0.006": 3.88821513169,
			"0.007": 4.46496535427,
			"0.008": 1.55352190365,
			"0.009": 2.73535090961,
			"0.01": 2.44287788084,
			"0.011": 3.86740356996,
			"0.012": 6.01758121854,
			"0.013": 2.92649283714,
			"0.014": 2.37750646842,
			"0.015": 1.85406085235,
			"0.016": 0.588815716842,
			"0.017": 0.0,
			"0.018": 0.0,
			"0.019": 0.0,
			"0.02": 0.0,
			"0.021": 0.0,
			"0.022": 0.0,
			"0.023": 0.0,
			"0.024": 0.0,
			"0.025": 0.0
		}
	}
}
