{
	 "smiles": "FC(F)(F)C(F)(F)C(F)(F)C(F)(F)C(F)(F)C(F)(F)I", 
	 "Tm": 228.15, 
	 "num_atms": 20, 
	 "gaussian": { 
		 "optdone": 1, 
		 "sigma_profile": "no", 
		 "theory": "DFT", 
		 "functional": "B3LYP", 
		 "basiset": "6-31G**", 
		 "properties": { 
			 "R2extent": 4908.6392, 
			 "electric_dipole_moment_norm": 0.463375150391, 
			 "electric_quadrupole_moment_norm": 4.27624793364, 
			 "total_energy": -1537.88388981, 
			 "HOMO_LUMO_gap": 0.20521, 
			 "cosmo_polarized_energy": -98717.31, 
			 "cosmo_cavitation_energy": 31.71, 
			 "cosmo_dispersion_energy": -22.6, 
			 "cosmo_repulsion_energy": 1.48, 
			 "cosmo_total_nonelectrostatic_energy": 10.6, 
			 "SMD_solvation_energy": 8.54 
		},
		"coords": [
			{
				"x": -0.6875418198,
				"y": 0.3059555368,
				"z": 3.7695796985,
				"element": "F" 
			},
			{
				"x": -0.9476506136,
				"y": -0.9152593446,
				"z": 3.2920415063,
				"element": "C" 
			},
			{
				"x": -0.5311763985,
				"y": -1.8249949601,
				"z": 4.1799945607,
				"element": "F" 
			},
			{
				"x": -2.2688058475,
				"y": -1.0493146151,
				"z": 3.1196767016,
				"element": "F" 
			},
			{
				"x": -0.1970015823,
				"y": -1.1443784306,
				"z": 1.9529668978,
				"element": "C" 
			},
			{
				"x": 1.1041397267,
				"y": -0.8346079511,
				"z": 2.1631800392,
				"element": "F" 
			},
			{
				"x": -0.2956166968,
				"y": -2.4537942416,
				"z": 1.6399633119,
				"element": "F" 
			},
			{
				"x": -0.7574728386,
				"y": -0.3178538683,
				"z": 0.7609023912,
				"element": "C" 
			},
			{
				"x": -1.9289587218,
				"y": -0.8868793968,
				"z": 0.4074961982,
				"element": "F" 
			},
			{
				"x": -1.0071324557,
				"y": 0.9494026173,
				"z": 1.1720879566,
				"element": "F" 
			},
			{
				"x": 0.1649505509,
				"y": -0.2875659788,
				"z": -0.5148697016,
				"element": "C" 
			},
			{
				"x": 0.9874105723,
				"y": -1.3624392595,
				"z": -0.4976854849,
				"element": "F" 
			},
			{
				"x": -0.6466156308,
				"y": -0.3884518248,
				"z": -1.5905145514,
				"element": "F" 
			},
			{
				"x": 1.0252734622,
				"y": 0.9949277217,
				"z": -0.7881981943,
				"element": "C" 
			},
			{
				"x": 1.6469312913,
				"y": 0.7535486485,
				"z": -1.9654398733,
				"element": "F" 
			},
			{
				"x": 0.1817181821,
				"y": 2.0372521843,
				"z": -0.9374232482,
				"element": "F" 
			},
			{
				"x": 2.1144408321,
				"y": 1.3682955712,
				"z": 0.2502488155,
				"element": "C" 
			},
			{
				"x": 2.927941321,
				"y": 0.3156460381,
				"z": 0.4283563516,
				"element": "F" 
			},
			{
				"x": 1.534042257,
				"y": 1.6747248742,
				"z": 1.4228546571,
				"element": "F" 
			},
			{
				"x": 3.2969244097,
				"y": 3.0885866791,
				"z": -0.4172180326,
				"element": "I" 
			}
		],
		 "valence_orbital": [ 
			{
				"type": "occ",
				"energy": -0.39683,
				"method": "rhf"
			},
			{
				"type": "occ",
				"energy": -0.36557,
				"method": "rhf"
			},
			{
				"type": "occ",
				"energy": -0.34709,
				"method": "rhf"
			},
			{
				"type": "occ",
				"energy": -0.29385,
				"method": "rhf"
			},
			{
				"type": "occ",
				"energy": -0.29209,
				"method": "rhf"
			},
			{
				"type": "unocc",
				"energy": -0.08688,
				"method": "rhf"
			},
			{
				"type": "unocc",
				"energy": 0.00897,
				"method": "rhf"
			},
			{
				"type": "unocc",
				"energy": 0.01734,
				"method": "rhf"
			},
			{
				"type": "unocc",
				"energy": 0.04437,
				"method": "rhf"
			},
			{
				"type": "unocc",
				"energy": 0.04553,
				"method": "rhf"
			}
		],
		"cosmo_sigma_profile": { 
			"0.0": 0.0,
			"0.0": 0.0,
			"0.0": 0.0,
			"0.0": 0.0,
			"0.0": 0.0,
			"0.0": 0.0,
			"0.0": 0.0,
			"0.0": 0.0,
			"0.0": 0.0,
			"0.0": 0.0,
			"0.0": 0.0,
			"0.0": 0.0,
			"0.0": 0.0,
			"0.0": 0.0,
			"0.0": 0.0,
			"0.0": 0.0,
			"0.0": 0.0,
			"0.0": 0.0,
			"0.0": 0.0,
			"0.0": 0.0,
			"0.0": 0.0,
			"0.0": 0.0,
			"0.0": 0.0,
			"0.0": 0.0,
			"0.0": 0.0,
			"0.0": 0.0,
			"0.0": 0.0,
			"0.0": 0.0,
			"0.0": 0.0,
			"0.0": 0.0,
			"0.0": 0.0,
			"0.0": 0.0,
			"0.0": 0.0,
			"0.0": 0.0,
			"0.0": 0.0,
			"0.0": 0.0,
			"0.0": 0.0,
			"0.0": 0.0,
			"0.0": 0.0,
			"0.0": 0.0,
			"0.0": 0.0,
			"0.0": 0.0,
			"0.0": 0.0,
			"0.0": 0.0,
			"0.0": 0.0,
			"0.0": 0.0,
			"0.0": 0.0,
			"0.0": 0.0,
			"0.0": 0.0,
			"0.0": 0.0,
			"0.0": 0.0
		}
	}
}
