{
	 "smiles": "CS(=O)(=O)C1=CC(=CC(N)=C1)C(O)=O", 
	 "Tm": 531.15, 
	 "num_atms": 23, 
	 "gaussian": { 
		 "optdone": 1, 
		 "sigma_profile": "yes", 
		 "theory": "DFT", 
		 "functional": "B3LYP", 
		 "basiset": "6-31G**", 
		 "properties": { 
			 "R2extent": 3720.7352, 
			 "electric_dipole_moment_norm": 8.52986658278, 
			 "electric_quadrupole_moment_norm": 28.6532044423, 
			 "total_energy": -1064.05438664, 
			 "HOMO_LUMO_gap": 0.17103, 
			 "cosmo_polarized_energy": -30.45, 
			 "cosmo_cavitation_energy": 29.31, 
			 "cosmo_dispersion_energy": -21.59, 
			 "cosmo_repulsion_energy": 1.67, 
			 "cosmo_total_nonelectrostatic_energy": 9.39, 
			 "SMD_solvation_energy": 5.93 
		},
		"coords": [
			{
				"x": 1.4928659656,
				"y": 1.5270975822,
				"z": 1.5266942399,
				"element": "C" 
			},
			{
				"x": -0.0219975939,
				"y": 2.0950145687,
				"z": 0.7178242064,
				"element": "S" 
			},
			{
				"x": -1.0517688821,
				"y": 2.2383644053,
				"z": 1.7555359636,
				"element": "O" 
			},
			{
				"x": 0.3376611151,
				"y": 3.2189761191,
				"z": -0.1619888483,
				"element": "O" 
			},
			{
				"x": -0.4763369517,
				"y": 0.700832516,
				"z": -0.3390356455,
				"element": "C" 
			},
			{
				"x": -1.0851668047,
				"y": -0.4165551208,
				"z": 0.2266287418,
				"element": "C" 
			},
			{
				"x": -1.397489601,
				"y": -1.4900180465,
				"z": -0.6148761665,
				"element": "C" 
			},
			{
				"x": -1.1442400823,
				"y": -1.4095899542,
				"z": -1.9892270719,
				"element": "C" 
			},
			{
				"x": -0.5589070199,
				"y": -0.2622033877,
				"z": -2.5557164087,
				"element": "C" 
			},
			{
				"x": -0.3853376916,
				"y": -0.1520569968,
				"z": -3.9240161124,
				"element": "N" 
			},
			{
				"x": -0.2076634031,
				"y": 0.7983258511,
				"z": -1.7001707535,
				"element": "C" 
			},
			{
				"x": -2.0389783307,
				"y": -2.6948990176,
				"z": 0.0149486377,
				"element": "C" 
			},
			{
				"x": -1.9355484894,
				"y": -3.8675774943,
				"z": -0.6669678483,
				"element": "O" 
			},
			{
				"x": -2.6177502504,
				"y": -2.6580456623,
				"z": 1.0732734584,
				"element": "O" 
			},
			{
				"x": 1.8090376297,
				"y": 2.340769827,
				"z": 2.1827387769,
				"element": "H" 
			},
			{
				"x": 2.2531480204,
				"y": 1.3319164904,
				"z": 0.7691790532,
				"element": "H" 
			},
			{
				"x": 1.2756625279,
				"y": 0.6318509696,
				"z": 2.1106044779,
				"element": "H" 
			},
			{
				"x": -1.3355100638,
				"y": -0.4659601091,
				"z": 1.2796555083,
				"element": "H" 
			},
			{
				"x": -1.4543496107,
				"y": -2.2122084293,
				"z": -2.6549902669,
				"element": "H" 
			},
			{
				"x": 0.2530900577,
				"y": 0.5575916115,
				"z": -4.2505991188,
				"element": "H" 
			},
			{
				"x": -0.3563490086,
				"y": -1.0057637353,
				"z": -4.4606141625,
				"element": "H" 
			},
			{
				"x": 0.2408926738,
				"y": 1.706867034,
				"z": -2.0898957325,
				"element": "H" 
			},
			{
				"x": -1.3029642062,
				"y": -3.776429021,
				"z": -1.3926849283,
				"element": "H" 
			}
		],
		 "valence_orbital": [ 
			{
				"type": "occ",
				"energy": -0.30001,
				"method": "rhf"
			},
			{
				"type": "occ",
				"energy": -0.29398,
				"method": "rhf"
			},
			{
				"type": "occ",
				"energy": -0.28979,
				"method": "rhf"
			},
			{
				"type": "occ",
				"energy": -0.27868,
				"method": "rhf"
			},
			{
				"type": "occ",
				"energy": -0.23693,
				"method": "rhf"
			},
			{
				"type": "unocc",
				"energy": -0.0659,
				"method": "rhf"
			},
			{
				"type": "unocc",
				"energy": -0.03689,
				"method": "rhf"
			},
			{
				"type": "unocc",
				"energy": 0.03121,
				"method": "rhf"
			},
			{
				"type": "unocc",
				"energy": 0.05294,
				"method": "rhf"
			},
			{
				"type": "unocc",
				"energy": 0.0564,
				"method": "rhf"
			}
		],
		"cosmo_sigma_profile": { 
			"-0.025": 0.0,
			"-0.024": 0.0,
			"-0.023": 0.0,
			"-0.022": 0.0,
			"-0.021": 0.0,
			"-0.02": 0.0,
			"-0.019": 0.145399797303,
			"-0.018": 1.03290343591,
			"-0.017": 1.00221136446,
			"-0.016": 1.20459278935,
			"-0.015": 0.671537269685,
			"-0.014": 1.75342458203,
			"-0.013": 5.16786200461,
			"-0.012": 4.92857848851,
			"-0.011": 5.1018247751,
			"-0.01": 4.13227550228,
			"-0.009": 6.18786258778,
			"-0.008": 11.3884630803,
			"-0.007": 8.76075162085,
			"-0.006": 11.2613702551,
			"-0.005": 9.79105975027,
			"-0.004": 12.0593782719,
			"-0.003": 11.1439959847,
			"-0.002": 8.38013210872,
			"-0.001": 8.32388178937,
			"0.0": 9.91846927387,
			"0.001": 15.199149861,
			"0.002": 14.0539015991,
			"0.003": 6.15517940628,
			"0.004": 5.57139515965,
			"0.005": 5.73093632962,
			"0.006": 4.732421095,
			"0.007": 6.61397867595,
			"0.008": 5.98730999077,
			"0.009": 7.52755809448,
			"0.01": 10.1201455369,
			"0.011": 16.3850496797,
			"0.012": 11.760183955,
			"0.013": 1.17345832642,
			"0.014": 0.0,
			"0.015": 0.0,
			"0.016": 0.0,
			"0.017": 0.0,
			"0.018": 0.0,
			"0.019": 0.0,
			"0.02": 0.0,
			"0.021": 0.0,
			"0.022": 0.0,
			"0.023": 0.0,
			"0.024": 0.0,
			"0.025": 0.0
		}
	}
}
