{
	 "smiles": "NC1=C(SC=C1S(=O)(=O)C1=CC=CC=C1)C(O)=O", 
	 "Tm": 448.15, 
	 "num_atms": 27, 
	 "gaussian": { 
		 "optdone": 1, 
		 "sigma_profile": "yes", 
		 "theory": "DFT", 
		 "functional": "B3LYP", 
		 "basiset": "6-31G**", 
		 "properties": { 
			 "R2extent": 7538.1291, 
			 "electric_dipole_moment_norm": 4.01192906966, 
			 "electric_quadrupole_moment_norm": 21.0377824673, 
			 "total_energy": -1576.56305889, 
			 "HOMO_LUMO_gap": 0.16089, 
			 "cosmo_polarized_energy": -16.4, 
			 "cosmo_cavitation_energy": 34.51, 
			 "cosmo_dispersion_energy": -25.89, 
			 "cosmo_repulsion_energy": 1.91, 
			 "cosmo_total_nonelectrostatic_energy": 10.53, 
			 "SMD_solvation_energy": 6.2 
		},
		"coords": [
			{
				"x": -0.4089539347,
				"y": 2.9174996242,
				"z": -0.6555413717,
				"element": "N" 
			},
			{
				"x": -0.2653036313,
				"y": 2.263013865,
				"z": -1.8396352191,
				"element": "C" 
			},
			{
				"x": 0.778274674,
				"y": 2.4689785261,
				"z": -2.7463538846,
				"element": "C" 
			},
			{
				"x": 0.644725726,
				"y": 1.4264605173,
				"z": -4.1529732957,
				"element": "S" 
			},
			{
				"x": -0.7921115855,
				"y": 0.7193506818,
				"z": -3.5393709066,
				"element": "C" 
			},
			{
				"x": -1.155631417,
				"y": 1.2338638178,
				"z": -2.3222490355,
				"element": "C" 
			},
			{
				"x": -2.5973620554,
				"y": 0.6505003263,
				"z": -1.4529361432,
				"element": "S" 
			},
			{
				"x": -3.0564836732,
				"y": 1.7690113232,
				"z": -0.6042945638,
				"element": "O" 
			},
			{
				"x": -3.4885481013,
				"y": 0.0246822174,
				"z": -2.4400650196,
				"element": "O" 
			},
			{
				"x": -1.9936445813,
				"y": -0.6518835806,
				"z": -0.3677340236,
				"element": "C" 
			},
			{
				"x": -2.2804768952,
				"y": -1.978833738,
				"z": -0.6915679219,
				"element": "C" 
			},
			{
				"x": -1.8254591578,
				"y": -2.9923319281,
				"z": 0.1529423875,
				"element": "C" 
			},
			{
				"x": -1.091163261,
				"y": -2.6738067198,
				"z": 1.2971662232,
				"element": "C" 
			},
			{
				"x": -0.8119759585,
				"y": -1.3401667416,
				"z": 1.6084085836,
				"element": "C" 
			},
			{
				"x": -1.2667578023,
				"y": -0.3166284214,
				"z": 0.7781331642,
				"element": "C" 
			},
			{
				"x": 1.8056974306,
				"y": 3.4717015943,
				"z": -2.5866845114,
				"element": "C" 
			},
			{
				"x": 2.692020913,
				"y": 3.5079015314,
				"z": -3.6129306239,
				"element": "O" 
			},
			{
				"x": 1.8907755882,
				"y": 4.2340578763,
				"z": -1.6282890026,
				"element": "O" 
			},
			{
				"x": -1.3494759814,
				"y": 2.9656861728,
				"z": -0.2824506547,
				"element": "H" 
			},
			{
				"x": 0.2177650137,
				"y": 3.7045475539,
				"z": -0.5277333722,
				"element": "H" 
			},
			{
				"x": -1.3243138989,
				"y": -0.0425400367,
				"z": -4.092188482,
				"element": "H" 
			},
			{
				"x": -2.8620529176,
				"y": -2.1991927922,
				"z": -1.5798658393,
				"element": "H" 
			},
			{
				"x": -2.0473685704,
				"y": -4.02883362,
				"z": -0.0821660345,
				"element": "H" 
			},
			{
				"x": -0.7379250324,
				"y": -3.4659557528,
				"z": 1.9507626654,
				"element": "H" 
			},
			{
				"x": -0.2445740342,
				"y": -1.0957983314,
				"z": 2.5011858077,
				"element": "H" 
			},
			{
				"x": -1.0590848878,
				"y": 0.7214673831,
				"z": 1.0128551686,
				"element": "H" 
			},
			{
				"x": 3.3217080319,
				"y": 4.2159486517,
				"z": -3.4008240943,
				"element": "H" 
			}
		],
		 "valence_orbital": [ 
			{
				"type": "occ",
				"energy": -0.28678,
				"method": "rhf"
			},
			{
				"type": "occ",
				"energy": -0.28575,
				"method": "rhf"
			},
			{
				"type": "occ",
				"energy": -0.27409,
				"method": "rhf"
			},
			{
				"type": "occ",
				"energy": -0.26359,
				"method": "rhf"
			},
			{
				"type": "occ",
				"energy": -0.22413,
				"method": "rhf"
			},
			{
				"type": "unocc",
				"energy": -0.06324,
				"method": "rhf"
			},
			{
				"type": "unocc",
				"energy": -0.04406,
				"method": "rhf"
			},
			{
				"type": "unocc",
				"energy": -0.02429,
				"method": "rhf"
			},
			{
				"type": "unocc",
				"energy": 0.00512,
				"method": "rhf"
			},
			{
				"type": "unocc",
				"energy": 0.00957,
				"method": "rhf"
			}
		],
		"cosmo_sigma_profile": { 
			"-0.025": 0.0,
			"-0.024": 0.0,
			"-0.023": 0.0,
			"-0.022": 0.0,
			"-0.021": 0.0,
			"-0.02": 0.0,
			"-0.019": 0.0267022242342,
			"-0.018": 1.03294478269,
			"-0.017": 0.653635890413,
			"-0.016": 0.711262810346,
			"-0.015": 1.03536706438,
			"-0.014": 1.2300553001,
			"-0.013": 0.110881687844,
			"-0.012": 0.322302690988,
			"-0.011": 2.28029048424,
			"-0.01": 3.80388658688,
			"-0.009": 4.01861108623,
			"-0.008": 3.95811144675,
			"-0.007": 10.466340392,
			"-0.006": 14.8993395082,
			"-0.005": 15.9141324675,
			"-0.004": 11.2131337376,
			"-0.003": 11.5257683384,
			"-0.002": 15.4475863757,
			"-0.001": 22.3967241299,
			"0.0": 30.1973915857,
			"0.001": 27.8700566167,
			"0.002": 24.8075559505,
			"0.003": 19.4785365039,
			"0.004": 6.46793785356,
			"0.005": 6.33770802747,
			"0.006": 6.72774586288,
			"0.007": 6.21085562516,
			"0.008": 5.24995628423,
			"0.009": 4.67608993656,
			"0.01": 8.15268462294,
			"0.011": 8.46584773148,
			"0.012": 3.9383373935,
			"0.013": 0.171693840981,
			"0.014": 0.0,
			"0.015": 0.0,
			"0.016": 0.0,
			"0.017": 0.0,
			"0.018": 0.0,
			"0.019": 0.0,
			"0.02": 0.0,
			"0.021": 0.0,
			"0.022": 0.0,
			"0.023": 0.0,
			"0.024": 0.0,
			"0.025": 0.0
		}
	}
}
