{
	 "smiles": "OC(=O)C1=C(Cl)C=C(F)C(=C1)[N+]([O-])=O", 
	 "Tm": 425.15, 
	 "num_atms": 17, 
	 "gaussian": { 
		 "optdone": 1, 
		 "sigma_profile": "yes", 
		 "theory": "DFT", 
		 "functional": "B3LYP", 
		 "basiset": "6-31G**", 
		 "properties": { 
			 "R2extent": 3673.9666, 
			 "electric_dipole_moment_norm": 5.52298160598, 
			 "electric_quadrupole_moment_norm": 16.650057132, 
			 "total_energy": -1184.11302558, 
			 "HOMO_LUMO_gap": 0.18458, 
			 "cosmo_polarized_energy": -15.41, 
			 "cosmo_cavitation_energy": 25.28, 
			 "cosmo_dispersion_energy": -18.8, 
			 "cosmo_repulsion_energy": 1.44, 
			 "cosmo_total_nonelectrostatic_energy": 7.92, 
			 "SMD_solvation_energy": 8.03 
		},
		"coords": [
			{
				"x": -1.3683637719,
				"y": 1.7274510185,
				"z": 3.6740107338,
				"element": "O" 
			},
			{
				"x": -0.4940491094,
				"y": 0.9131211293,
				"z": 3.0635299702,
				"element": "C" 
			},
			{
				"x": 0.5222484978,
				"y": 0.5799444408,
				"z": 3.6266386237,
				"element": "O" 
			},
			{
				"x": -0.7961602441,
				"y": 0.3978745185,
				"z": 1.6640271386,
				"element": "C" 
			},
			{
				"x": -1.839234969,
				"y": 0.7457456266,
				"z": 0.7839706914,
				"element": "C" 
			},
			{
				"x": -3.0771052991,
				"y": 1.9349133871,
				"z": 1.1853928101,
				"element": "Cl" 
			},
			{
				"x": -1.9590649446,
				"y": 0.1706352921,
				"z": -0.4786477796,
				"element": "C" 
			},
			{
				"x": -1.030190604,
				"y": -0.7713917279,
				"z": -0.903872617,
				"element": "C" 
			},
			{
				"x": -1.1984198977,
				"y": -1.3004239206,
				"z": -2.1092766815,
				"element": "F" 
			},
			{
				"x": 0.022452063,
				"y": -1.1396220705,
				"z": -0.0538491519,
				"element": "C" 
			},
			{
				"x": 0.1188399191,
				"y": -0.5571519124,
				"z": 1.2021109266,
				"element": "C" 
			},
			{
				"x": 1.0450867167,
				"y": -2.1235359082,
				"z": -0.4471118623,
				"element": "N" 
			},
			{
				"x": 1.0927336561,
				"y": -2.4516498584,
				"z": -1.6283369936,
				"element": "O" 
			},
			{
				"x": 1.7859357662,
				"y": -2.5398495114,
				"z": 0.4400034225,
				"element": "O" 
			},
			{
				"x": -2.1407462097,
				"y": 1.9211341207,
				"z": 3.119254356,
				"element": "H" 
			},
			{
				"x": -2.7685300504,
				"y": 0.4430676318,
				"z": -1.1446216213,
				"element": "H" 
			},
			{
				"x": 0.9326684808,
				"y": -0.8437622559,
				"z": 1.8569780343,
				"element": "H" 
			}
		],
		 "valence_orbital": [ 
			{
				"type": "occ",
				"energy": -0.32481,
				"method": "rhf"
			},
			{
				"type": "occ",
				"energy": -0.31414,
				"method": "rhf"
			},
			{
				"type": "occ",
				"energy": -0.30574,
				"method": "rhf"
			},
			{
				"type": "occ",
				"energy": -0.30189,
				"method": "rhf"
			},
			{
				"type": "occ",
				"energy": -0.29702,
				"method": "rhf"
			},
			{
				"type": "unocc",
				"energy": -0.11244,
				"method": "rhf"
			},
			{
				"type": "unocc",
				"energy": -0.08195,
				"method": "rhf"
			},
			{
				"type": "unocc",
				"energy": -0.04306,
				"method": "rhf"
			},
			{
				"type": "unocc",
				"energy": -0.02883,
				"method": "rhf"
			},
			{
				"type": "unocc",
				"energy": 0.02897,
				"method": "rhf"
			}
		],
		"cosmo_sigma_profile": { 
			"-0.025": 0.0,
			"-0.024": 0.0,
			"-0.023": 0.0,
			"-0.022": 0.0,
			"-0.021": 0.0,
			"-0.02": 0.0,
			"-0.019": 0.0,
			"-0.018": 0.0,
			"-0.017": 0.0,
			"-0.016": 0.0,
			"-0.015": 0.0,
			"-0.014": 0.00351594763121,
			"-0.013": 0.647691308805,
			"-0.012": 1.35830258043,
			"-0.011": 2.04672056762,
			"-0.01": 3.35383201866,
			"-0.009": 4.07142434353,
			"-0.008": 5.56305588318,
			"-0.007": 5.75717802152,
			"-0.006": 8.65732998929,
			"-0.005": 14.1328298807,
			"-0.004": 18.7430892582,
			"-0.003": 21.2288507558,
			"-0.002": 14.8202022812,
			"-0.001": 7.75876060674,
			"0.0": 10.6881410701,
			"0.001": 11.2806363535,
			"0.002": 11.1836149354,
			"0.003": 5.42235156434,
			"0.004": 6.6846054157,
			"0.005": 5.59343615896,
			"0.006": 8.53690273284,
			"0.007": 12.4617176371,
			"0.008": 8.57733472371,
			"0.009": 6.87332221389,
			"0.01": 5.37779849574,
			"0.011": 4.14031507334,
			"0.012": 1.92855582304,
			"0.013": 0.166657302035,
			"0.014": 0.0,
			"0.015": 0.0,
			"0.016": 0.0,
			"0.017": 0.0,
			"0.018": 0.0,
			"0.019": 0.0,
			"0.02": 0.0,
			"0.021": 0.0,
			"0.022": 0.0,
			"0.023": 0.0,
			"0.024": 0.0,
			"0.025": 0.0
		}
	}
}
