{
	 "smiles": "CSC1=CC=C(C=C1)C1=CSC(N)=N1", 
	 "Tm": 493.15, 
	 "num_atms": 24, 
	 "gaussian": { 
		 "optdone": 1, 
		 "sigma_profile": "yes", 
		 "theory": "DFT", 
		 "functional": "B3LYP", 
		 "basiset": "6-31G**", 
		 "properties": { 
			 "R2extent": 5674.4142, 
			 "electric_dipole_moment_norm": 2.59186535337, 
			 "electric_quadrupole_moment_norm": 17.7589065198, 
			 "total_energy": -1292.97110629, 
			 "HOMO_LUMO_gap": 0.1625, 
			 "cosmo_polarized_energy": -13.62, 
			 "cosmo_cavitation_energy": 31.23, 
			 "cosmo_dispersion_energy": -24.27, 
			 "cosmo_repulsion_energy": 1.8, 
			 "cosmo_total_nonelectrostatic_energy": 8.76, 
			 "SMD_solvation_energy": 3.86 
		},
		"coords": [
			{
				"x": 4.2128185455,
				"y": -1.7906147191,
				"z": -1.4082788735,
				"element": "C" 
			},
			{
				"x": 4.0999757449,
				"y": 0.0216532366,
				"z": -1.544754233,
				"element": "S" 
			},
			{
				"x": 2.5059486452,
				"y": 0.3950288068,
				"z": -0.8423575841,
				"element": "C" 
			},
			{
				"x": 1.6136916199,
				"y": -0.5572111672,
				"z": -0.3356974713,
				"element": "C" 
			},
			{
				"x": 0.3860352812,
				"y": -0.1621584076,
				"z": 0.1945107113,
				"element": "C" 
			},
			{
				"x": 0.0085557671,
				"y": 1.187268202,
				"z": 0.2374517748,
				"element": "C" 
			},
			{
				"x": 0.9128079525,
				"y": 2.135823868,
				"z": -0.2742866182,
				"element": "C" 
			},
			{
				"x": 2.1361961107,
				"y": 1.7512948598,
				"z": -0.8035661064,
				"element": "C" 
			},
			{
				"x": -1.2959424276,
				"y": 1.5711228097,
				"z": 0.8053526053,
				"element": "C" 
			},
			{
				"x": -1.7946930976,
				"y": 2.8417741889,
				"z": 0.9131554587,
				"element": "C" 
			},
			{
				"x": -3.3734705598,
				"y": 2.8229593974,
				"z": 1.6561782867,
				"element": "S" 
			},
			{
				"x": -3.2433569609,
				"y": 1.0602463225,
				"z": 1.7479893889,
				"element": "C" 
			},
			{
				"x": -4.2287166315,
				"y": 0.306773372,
				"z": 2.3469188795,
				"element": "N" 
			},
			{
				"x": -2.136078862,
				"y": 0.5702733147,
				"z": 1.2803645517,
				"element": "N" 
			},
			{
				"x": 3.4294813345,
				"y": -2.2865186336,
				"z": -1.986294941,
				"element": "H" 
			},
			{
				"x": 4.1766500973,
				"y": -2.1174934612,
				"z": -0.366425513,
				"element": "H" 
			},
			{
				"x": 5.1847160162,
				"y": -2.0568524537,
				"z": -1.8288688836,
				"element": "H" 
			},
			{
				"x": 1.8617320966,
				"y": -1.6124739917,
				"z": -0.3470859377,
				"element": "H" 
			},
			{
				"x": -0.299725205,
				"y": -0.9051888144,
				"z": 0.5855997825,
				"element": "H" 
			},
			{
				"x": 0.6619539863,
				"y": 3.1922209458,
				"z": -0.2602985101,
				"element": "H" 
			},
			{
				"x": 2.8144181746,
				"y": 2.5065765028,
				"z": -1.1910910905,
				"element": "H" 
			},
			{
				"x": -1.3537112003,
				"y": 3.7782773915,
				"z": 0.6079702456,
				"element": "H" 
			},
			{
				"x": -4.1276022459,
				"y": -0.683650659,
				"z": 2.1663548742,
				"element": "H" 
			},
			{
				"x": -5.1768841818,
				"y": 0.642769089,
				"z": 2.2557592034,
				"element": "H" 
			}
		],
		 "valence_orbital": [ 
			{
				"type": "occ",
				"energy": -0.27218,
				"method": "rhf"
			},
			{
				"type": "occ",
				"energy": -0.26598,
				"method": "rhf"
			},
			{
				"type": "occ",
				"energy": -0.24867,
				"method": "rhf"
			},
			{
				"type": "occ",
				"energy": -0.222,
				"method": "rhf"
			},
			{
				"type": "occ",
				"energy": -0.18933,
				"method": "rhf"
			},
			{
				"type": "unocc",
				"energy": -0.02683,
				"method": "rhf"
			},
			{
				"type": "unocc",
				"energy": 0.0008,
				"method": "rhf"
			},
			{
				"type": "unocc",
				"energy": 0.01031,
				"method": "rhf"
			},
			{
				"type": "unocc",
				"energy": 0.01903,
				"method": "rhf"
			},
			{
				"type": "unocc",
				"energy": 0.0395,
				"method": "rhf"
			}
		],
		"cosmo_sigma_profile": { 
			"-0.025": 0.0,
			"-0.024": 0.0,
			"-0.023": 0.0,
			"-0.022": 0.0,
			"-0.021": 0.0,
			"-0.02": 0.0,
			"-0.019": 0.0,
			"-0.018": 0.0,
			"-0.017": 0.0,
			"-0.016": 0.0,
			"-0.015": 0.350187037457,
			"-0.014": 1.79304497611,
			"-0.013": 2.9308563607,
			"-0.012": 2.14019001531,
			"-0.011": 2.64280268018,
			"-0.01": 2.30465307635,
			"-0.009": 3.8509309339,
			"-0.008": 4.61446774873,
			"-0.007": 5.40056695652,
			"-0.006": 13.5576505583,
			"-0.005": 16.1655467388,
			"-0.004": 15.4617606159,
			"-0.003": 14.1233538958,
			"-0.002": 15.653571776,
			"-0.001": 12.0489806696,
			"0.0": 10.0366924717,
			"0.001": 13.4170628071,
			"0.002": 17.5104058135,
			"0.003": 19.8336947526,
			"0.004": 27.4120913693,
			"0.005": 24.6934662886,
			"0.006": 8.4443246861,
			"0.007": 5.62609469096,
			"0.008": 5.18591493096,
			"0.009": 3.89032702609,
			"0.01": 1.99038880608,
			"0.011": 2.29942340458,
			"0.012": 0.512982073733,
			"0.013": 0.0,
			"0.014": 0.0,
			"0.015": 0.0,
			"0.016": 0.0,
			"0.017": 0.0,
			"0.018": 0.0,
			"0.019": 0.0,
			"0.02": 0.0,
			"0.021": 0.0,
			"0.022": 0.0,
			"0.023": 0.0,
			"0.024": 0.0,
			"0.025": 0.0
		}
	}
}
