{
	 "smiles": "NC1=C(F)C=CC(NC(=O)CN2C=CC=NC2=O)=C1", 
	 "Tm": 525.15, 
	 "num_atms": 30, 
	 "gaussian": { 
		 "optdone": 1, 
		 "sigma_profile": "yes", 
		 "theory": "DFT", 
		 "functional": "B3LYP", 
		 "basiset": "6-31G**", 
		 "properties": { 
			 "R2extent": 7075.2912, 
			 "electric_dipole_moment_norm": 4.23361810512, 
			 "electric_quadrupole_moment_norm": 22.3867801289, 
			 "total_energy": -933.216199081, 
			 "HOMO_LUMO_gap": 0.12429, 
			 "cosmo_polarized_energy": -22.31, 
			 "cosmo_cavitation_energy": 35.35, 
			 "cosmo_dispersion_energy": -25.36, 
			 "cosmo_repulsion_energy": 1.9, 
			 "cosmo_total_nonelectrostatic_energy": 11.88, 
			 "SMD_solvation_energy": 6.0 
		},
		"coords": [
			{
				"x": -3.5668612907,
				"y": 2.0945048506,
				"z": 2.2576436418,
				"element": "N" 
			},
			{
				"x": -2.6084361222,
				"y": 1.1646216321,
				"z": 1.8686057804,
				"element": "C" 
			},
			{
				"x": -1.9330032686,
				"y": 0.4151883713,
				"z": 2.842103249,
				"element": "C" 
			},
			{
				"x": -2.3092808153,
				"y": 0.587728471,
				"z": 4.1393060056,
				"element": "F" 
			},
			{
				"x": -0.9308081109,
				"y": -0.4819284487,
				"z": 2.5221323882,
				"element": "C" 
			},
			{
				"x": -0.5696472245,
				"y": -0.6584108269,
				"z": 1.1871085893,
				"element": "C" 
			},
			{
				"x": -1.2323649532,
				"y": 0.0732856475,
				"z": 0.189773957,
				"element": "C" 
			},
			{
				"x": -0.8289712164,
				"y": -0.1574204599,
				"z": -1.1450378096,
				"element": "N" 
			},
			{
				"x": -1.2606754375,
				"y": 0.4556787725,
				"z": -2.281371457,
				"element": "C" 
			},
			{
				"x": -2.1280692516,
				"y": 1.3186741825,
				"z": -2.3664523368,
				"element": "O" 
			},
			{
				"x": -0.5396984821,
				"y": -0.037965528,
				"z": -3.5549585632,
				"element": "C" 
			},
			{
				"x": 0.8591725616,
				"y": 0.4103976981,
				"z": -3.6351423522,
				"element": "N" 
			},
			{
				"x": 1.1813210255,
				"y": 1.5649528053,
				"z": -4.273276779,
				"element": "C" 
			},
			{
				"x": 2.4877039211,
				"y": 1.957767978,
				"z": -4.3695730996,
				"element": "C" 
			},
			{
				"x": 3.4485646763,
				"y": 1.0853513436,
				"z": -3.799656498,
				"element": "C" 
			},
			{
				"x": 3.1654486893,
				"y": -0.0249974258,
				"z": -3.1600624445,
				"element": "N" 
			},
			{
				"x": 1.8508573517,
				"y": -0.3906294602,
				"z": -2.9917525566,
				"element": "C" 
			},
			{
				"x": 1.4852318952,
				"y": -1.3615446807,
				"z": -2.3287170409,
				"element": "O" 
			},
			{
				"x": -2.2459028351,
				"y": 0.9800910252,
				"z": 0.5270280478,
				"element": "C" 
			},
			{
				"x": -4.2666742254,
				"y": 2.3096020426,
				"z": 1.5619548553,
				"element": "H" 
			},
			{
				"x": -3.9550449438,
				"y": 1.9329236994,
				"z": 3.1762611312,
				"element": "H" 
			},
			{
				"x": -0.4435609681,
				"y": -1.0365475404,
				"z": 3.3168147979,
				"element": "H" 
			},
			{
				"x": 0.2181232313,
				"y": -1.3564255311,
				"z": 0.9212621302,
				"element": "H" 
			},
			{
				"x": -0.0658696206,
				"y": -0.8214340856,
				"z": -1.2821278452,
				"element": "H" 
			},
			{
				"x": -1.086469515,
				"y": 0.3696093756,
				"z": -4.4049632212,
				"element": "H" 
			},
			{
				"x": -0.5302174278,
				"y": -1.1288730717,
				"z": -3.6022972113,
				"element": "H" 
			},
			{
				"x": 0.3526992954,
				"y": 2.1287271549,
				"z": -4.6891032099,
				"element": "H" 
			},
			{
				"x": 2.7668301028,
				"y": 2.8723258581,
				"z": -4.8756936011,
				"element": "H" 
			},
			{
				"x": 4.5083152264,
				"y": 1.3273174182,
				"z": -3.8895754871,
				"element": "H" 
			},
			{
				"x": -2.7408122676,
				"y": 1.5413287324,
				"z": -0.2541330604,
				"element": "H" 
			}
		],
		 "valence_orbital": [ 
			{
				"type": "occ",
				"energy": -0.27763,
				"method": "rhf"
			},
			{
				"type": "occ",
				"energy": -0.26521,
				"method": "rhf"
			},
			{
				"type": "occ",
				"energy": -0.24859,
				"method": "rhf"
			},
			{
				"type": "occ",
				"energy": -0.22428,
				"method": "rhf"
			},
			{
				"type": "occ",
				"energy": -0.19655,
				"method": "rhf"
			},
			{
				"type": "unocc",
				"energy": -0.07226,
				"method": "rhf"
			},
			{
				"type": "unocc",
				"energy": -0.015,
				"method": "rhf"
			},
			{
				"type": "unocc",
				"energy": -0.01243,
				"method": "rhf"
			},
			{
				"type": "unocc",
				"energy": 0.00956,
				"method": "rhf"
			},
			{
				"type": "unocc",
				"energy": 0.0436,
				"method": "rhf"
			}
		],
		"cosmo_sigma_profile": { 
			"-0.025": 0.0,
			"-0.024": 0.0,
			"-0.023": 0.0,
			"-0.022": 0.0,
			"-0.021": 0.0,
			"-0.02": 0.0,
			"-0.019": 0.0,
			"-0.018": 0.0,
			"-0.017": 0.0,
			"-0.016": 0.0,
			"-0.015": 0.0,
			"-0.014": 0.00262046516621,
			"-0.013": 0.693069268587,
			"-0.012": 2.66059690161,
			"-0.011": 4.35625905239,
			"-0.01": 5.57249335597,
			"-0.009": 6.08582420972,
			"-0.008": 11.298350072,
			"-0.007": 15.7949297282,
			"-0.006": 16.3354686666,
			"-0.005": 19.5659954456,
			"-0.004": 17.8403834848,
			"-0.003": 13.0837976771,
			"-0.002": 12.192381841,
			"-0.001": 14.5415915454,
			"0.0": 14.3197459581,
			"0.001": 13.6471074477,
			"0.002": 16.178392338,
			"0.003": 16.7649694689,
			"0.004": 19.9795838102,
			"0.005": 16.8588057014,
			"0.006": 5.1358327538,
			"0.007": 4.76966628839,
			"0.008": 4.24170667221,
			"0.009": 3.56547283286,
			"0.01": 4.14202869029,
			"0.011": 4.80256500071,
			"0.012": 6.88882855461,
			"0.013": 5.27356369221,
			"0.014": 3.83869277707,
			"0.015": 2.26702465488,
			"0.016": 0.946671946448,
			"0.017": 0.0,
			"0.018": 0.0,
			"0.019": 0.0,
			"0.02": 0.0,
			"0.021": 0.0,
			"0.022": 0.0,
			"0.023": 0.0,
			"0.024": 0.0,
			"0.025": 0.0
		}
	}
}
