{
	 "smiles": "CC1(C)C(CCC1(C)C(=N/NC1=CC=C(C=C1[N+]([O-])=O)[N+]([O-])=O)C(O)=O)C(O)=O", 
	 "Tm": 464.15, 
	 "num_atms": 49, 
	 "gaussian": { 
		 "optdone": 1, 
		 "sigma_profile": "yes", 
		 "theory": "DFT", 
		 "functional": "B3LYP", 
		 "basiset": "6-31G**", 
		 "properties": { 
			 "R2extent": 14844.0791, 
			 "electric_dipole_moment_norm": 6.39569371452, 
			 "electric_quadrupole_moment_norm": 34.6982407701, 
			 "total_energy": -1480.44980921, 
			 "HOMO_LUMO_gap": 0.13437, 
			 "cosmo_polarized_energy": -23.98, 
			 "cosmo_cavitation_energy": 50.61, 
			 "cosmo_dispersion_energy": -34.33, 
			 "cosmo_repulsion_energy": 2.52, 
			 "cosmo_total_nonelectrostatic_energy": 18.8, 
			 "SMD_solvation_energy": 14.03 
		},
		"coords": [
			{
				"x": 0.0790753696,
				"y": -1.1080860934,
				"z": -1.9803143156,
				"element": "C" 
			},
			{
				"x": -1.1415794859,
				"y": -0.2303399835,
				"z": -1.6548403142,
				"element": "C" 
			},
			{
				"x": -0.7631444991,
				"y": 1.2319711489,
				"z": -1.986080745,
				"element": "C" 
			},
			{
				"x": -2.4082497431,
				"y": -0.6064670465,
				"z": -2.5457786752,
				"element": "C" 
			},
			{
				"x": -3.6518474675,
				"y": -0.4783466861,
				"z": -1.6330034425,
				"element": "C" 
			},
			{
				"x": -3.1558993131,
				"y": 0.1765652286,
				"z": -0.3391690046,
				"element": "C" 
			},
			{
				"x": -1.6995792396,
				"y": -0.3409370783,
				"z": -0.1566745247,
				"element": "C" 
			},
			{
				"x": -1.7900583222,
				"y": -1.801415794,
				"z": 0.360812247,
				"element": "C" 
			},
			{
				"x": -0.905413909,
				"y": 0.5268535812,
				"z": 0.8386546129,
				"element": "C" 
			},
			{
				"x": 0.268056563,
				"y": 0.386491197,
				"z": 1.3559116062,
				"element": "N" 
			},
			{
				"x": 1.0777718591,
				"y": -0.6660283692,
				"z": 1.10985912,
				"element": "N" 
			},
			{
				"x": 2.295699318,
				"y": -0.7208281906,
				"z": 1.7377681452,
				"element": "C" 
			},
			{
				"x": 2.7258617401,
				"y": 0.3581568337,
				"z": 2.5526321447,
				"element": "C" 
			},
			{
				"x": 3.948337167,
				"y": 0.3355457429,
				"z": 3.1872919547,
				"element": "C" 
			},
			{
				"x": 4.7935602873,
				"y": -0.7737026684,
				"z": 3.0306974632,
				"element": "C" 
			},
			{
				"x": 4.4200560412,
				"y": -1.8500601319,
				"z": 2.250535646,
				"element": "C" 
			},
			{
				"x": 3.1813602655,
				"y": -1.8321459433,
				"z": 1.6061227923,
				"element": "C" 
			},
			{
				"x": 2.8542756357,
				"y": -3.0076062589,
				"z": 0.8116733553,
				"element": "N" 
			},
			{
				"x": 3.6645691986,
				"y": -3.9264460119,
				"z": 0.7612234516,
				"element": "O" 
			},
			{
				"x": 1.7615202028,
				"y": -3.0337164202,
				"z": 0.2131622741,
				"element": "O" 
			},
			{
				"x": 6.0925264136,
				"y": -0.7945490722,
				"z": 3.7031253228,
				"element": "N" 
			},
			{
				"x": 6.3875451989,
				"y": 0.1836108995,
				"z": 4.3915244395,
				"element": "O" 
			},
			{
				"x": 6.8069406463,
				"y": -1.7832965961,
				"z": 3.5398654492,
				"element": "O" 
			},
			{
				"x": -1.5690573875,
				"y": 1.7366269372,
				"z": 1.4658945358,
				"element": "C" 
			},
			{
				"x": -0.8254004773,
				"y": 2.8577305527,
				"z": 1.3548861175,
				"element": "O" 
			},
			{
				"x": -2.6358351741,
				"y": 1.7075226455,
				"z": 2.0406182184,
				"element": "O" 
			},
			{
				"x": -2.3246171995,
				"y": -1.9832454403,
				"z": -3.1821795716,
				"element": "C" 
			},
			{
				"x": -1.8074736252,
				"y": -1.9285782151,
				"z": -4.4333924803,
				"element": "O" 
			},
			{
				"x": -2.6627042899,
				"y": -3.0330927247,
				"z": -2.6748497324,
				"element": "O" 
			},
			{
				"x": 0.9804113201,
				"y": -0.7340886744,
				"z": -1.489269728,
				"element": "H" 
			},
			{
				"x": 0.2739827395,
				"y": -1.0801130104,
				"z": -3.0566268202,
				"element": "H" 
			},
			{
				"x": -0.0583247133,
				"y": -2.1551387461,
				"z": -1.700037779,
				"element": "H" 
			},
			{
				"x": -0.4448203969,
				"y": 1.3022453444,
				"z": -3.0312937034,
				"element": "H" 
			},
			{
				"x": 0.0641884522,
				"y": 1.5832203264,
				"z": -1.3625197072,
				"element": "H" 
			},
			{
				"x": -1.6000690284,
				"y": 1.923449843,
				"z": -1.8517012042,
				"element": "H" 
			},
			{
				"x": -2.4476307971,
				"y": 0.1066206177,
				"z": -3.3728013788,
				"element": "H" 
			},
			{
				"x": -4.0619681457,
				"y": -1.4715882677,
				"z": -1.436900208,
				"element": "H" 
			},
			{
				"x": -4.443166728,
				"y": 0.1087027251,
				"z": -2.1076336336,
				"element": "H" 
			},
			{
				"x": -3.1675385223,
				"y": 1.2640055384,
				"z": -0.4480960197,
				"element": "H" 
			},
			{
				"x": -3.7819335294,
				"y": -0.0510517467,
				"z": 0.5251932107,
				"element": "H" 
			},
			{
				"x": -2.3513703761,
				"y": -2.4241612586,
				"z": -0.3383897922,
				"element": "H" 
			},
			{
				"x": -2.3081915791,
				"y": -1.8093719064,
				"z": 1.3245433936,
				"element": "H" 
			},
			{
				"x": -0.8294655577,
				"y": -2.2973468835,
				"z": 0.5064943879,
				"element": "H" 
			},
			{
				"x": 0.8285798736,
				"y": -1.4621324654,
				"z": 0.5300120397,
				"element": "H" 
			},
			{
				"x": 2.0590634619,
				"y": 1.2032600935,
				"z": 2.6551304279,
				"element": "H" 
			},
			{
				"x": 4.2730548046,
				"y": 1.1627298812,
				"z": 3.8063738132,
				"element": "H" 
			},
			{
				"x": 5.0727521918,
				"y": -2.7043417792,
				"z": 2.1355472861,
				"element": "H" 
			},
			{
				"x": -1.3090795577,
				"y": 3.5482158105,
				"z": 1.8408468145,
				"element": "H" 
			},
			{
				"x": -1.7669696857,
				"y": -2.8469014846,
				"z": -4.7518474895,
				"element": "H" 
			}
		],
		 "valence_orbital": [ 
			{
				"type": "occ",
				"energy": -0.30238,
				"method": "rhf"
			},
			{
				"type": "occ",
				"energy": -0.29623,
				"method": "rhf"
			},
			{
				"type": "occ",
				"energy": -0.28591,
				"method": "rhf"
			},
			{
				"type": "occ",
				"energy": -0.28083,
				"method": "rhf"
			},
			{
				"type": "occ",
				"energy": -0.24532,
				"method": "rhf"
			},
			{
				"type": "unocc",
				"energy": -0.11095,
				"method": "rhf"
			},
			{
				"type": "unocc",
				"energy": -0.09673,
				"method": "rhf"
			},
			{
				"type": "unocc",
				"energy": -0.05271,
				"method": "rhf"
			},
			{
				"type": "unocc",
				"energy": -0.02166,
				"method": "rhf"
			},
			{
				"type": "unocc",
				"energy": -0.00947,
				"method": "rhf"
			}
		],
		"cosmo_sigma_profile": { 
			"-0.025": 0.0,
			"-0.024": 0.0,
			"-0.023": 0.0,
			"-0.022": 0.0,
			"-0.021": 0.0,
			"-0.02": 0.0,
			"-0.019": 0.291231334315,
			"-0.018": 1.58063196092,
			"-0.017": 2.53802748979,
			"-0.016": 1.1192236345,
			"-0.015": 0.641373084072,
			"-0.014": 2.02773006776,
			"-0.013": 1.4350700614,
			"-0.012": 1.27595697698,
			"-0.011": 1.91789030501,
			"-0.01": 1.21673650163,
			"-0.009": 1.64209720974,
			"-0.008": 4.23190844262,
			"-0.007": 9.85742957509,
			"-0.006": 11.4203767217,
			"-0.005": 16.3723505664,
			"-0.004": 30.6674208535,
			"-0.003": 45.2606769339,
			"-0.002": 42.0751875617,
			"-0.001": 37.6391017761,
			"0.0": 36.7558713135,
			"0.001": 20.3108644358,
			"0.002": 13.8761086599,
			"0.003": 13.2735679759,
			"0.004": 10.5906928698,
			"0.005": 11.1555715044,
			"0.006": 13.0967353931,
			"0.007": 19.508113122,
			"0.008": 15.7679259135,
			"0.009": 13.3395901387,
			"0.01": 8.35908056636,
			"0.011": 7.7115453711,
			"0.012": 3.2780889735,
			"0.013": 0.0377546363371,
			"0.014": 0.0,
			"0.015": 0.0,
			"0.016": 0.0,
			"0.017": 0.0,
			"0.018": 0.0,
			"0.019": 0.0,
			"0.02": 0.0,
			"0.021": 0.0,
			"0.022": 0.0,
			"0.023": 0.0,
			"0.024": 0.0,
			"0.025": 0.0
		}
	}
}
