{
	 "smiles": "O=C(C=CC(=O)C1=CC=CC=C1)C1=CC=CC=C1", 
	 "Tm": 384.15, 
	 "num_atms": 30, 
	 "gaussian": { 
		 "optdone": 1, 
		 "sigma_profile": "yes", 
		 "theory": "DFT", 
		 "functional": "B3LYP", 
		 "basiset": "6-31G**", 
		 "properties": { 
			 "R2extent": 6360.7772, 
			 "electric_dipole_moment_norm": 5.40745094199, 
			 "electric_quadrupole_moment_norm": 12.3186457336, 
			 "total_energy": -767.359924882, 
			 "HOMO_LUMO_gap": 0.15621, 
			 "cosmo_polarized_energy": -13.46, 
			 "cosmo_cavitation_energy": 35.61, 
			 "cosmo_dispersion_energy": -25.24, 
			 "cosmo_repulsion_energy": 1.94, 
			 "cosmo_total_nonelectrostatic_energy": 12.31, 
			 "SMD_solvation_energy": 7.14 
		},
		"coords": [
			{
				"x": -2.4617469107,
				"y": 1.2085660655,
				"z": 2.2947297771,
				"element": "O" 
			},
			{
				"x": -1.8895820955,
				"y": 0.9254056856,
				"z": 1.2478329958,
				"element": "C" 
			},
			{
				"x": -1.4809548342,
				"y": -0.495141657,
				"z": 1.0393725479,
				"element": "C" 
			},
			{
				"x": -0.3432473072,
				"y": -0.9017022619,
				"z": 0.4530183756,
				"element": "C" 
			},
			{
				"x": 0.0156241985,
				"y": -2.3546812132,
				"z": 0.4225946597,
				"element": "C" 
			},
			{
				"x": -0.789109879,
				"y": -3.1964250196,
				"z": 0.8078867449,
				"element": "O" 
			},
			{
				"x": 1.3550400368,
				"y": -2.7676998057,
				"z": -0.1053254179,
				"element": "C" 
			},
			{
				"x": 1.5719290139,
				"y": -4.1397188607,
				"z": -0.3196893454,
				"element": "C" 
			},
			{
				"x": 2.7939958994,
				"y": -4.5962462904,
				"z": -0.8010843456,
				"element": "C" 
			},
			{
				"x": 3.8241168342,
				"y": -3.6881927522,
				"z": -1.0669538154,
				"element": "C" 
			},
			{
				"x": 3.6247135174,
				"y": -2.324387749,
				"z": -0.8475815101,
				"element": "C" 
			},
			{
				"x": 2.3963618447,
				"y": -1.8643774129,
				"z": -0.3726883617,
				"element": "C" 
			},
			{
				"x": -1.585067329,
				"y": 1.9796527741,
				"z": 0.229081585,
				"element": "C" 
			},
			{
				"x": -1.5640800767,
				"y": 3.3165692927,
				"z": 0.659798826,
				"element": "C" 
			},
			{
				"x": -1.3166240495,
				"y": 4.3440784145,
				"z": -0.2447301686,
				"element": "C" 
			},
			{
				"x": -1.1089895453,
				"y": 4.0509803239,
				"z": -1.5966972445,
				"element": "C" 
			},
			{
				"x": -1.1518025673,
				"y": 2.7277562989,
				"z": -2.0387372089,
				"element": "C" 
			},
			{
				"x": -1.3847868543,
				"y": 1.6940672079,
				"z": -1.1307378058,
				"element": "C" 
			},
			{
				"x": -2.1100014,
				"y": -1.2347754415,
				"z": 1.5293662571,
				"element": "H" 
			},
			{
				"x": 0.3254274842,
				"y": -0.1805679934,
				"z": -0.0032441891,
				"element": "H" 
			},
			{
				"x": 0.7608425586,
				"y": -4.8249952751,
				"z": -0.0982821603,
				"element": "H" 
			},
			{
				"x": 2.9483358097,
				"y": -5.6581666209,
				"z": -0.9684834631,
				"element": "H" 
			},
			{
				"x": 4.7798571846,
				"y": -4.0437257013,
				"z": -1.4413514705,
				"element": "H" 
			},
			{
				"x": 4.4254994236,
				"y": -1.6178305949,
				"z": -1.044545735,
				"element": "H" 
			},
			{
				"x": 2.2689630481,
				"y": -0.8019335829,
				"z": -0.1957524032,
				"element": "H" 
			},
			{
				"x": -1.7451910533,
				"y": 3.5216811999,
				"z": 1.7096262873,
				"element": "H" 
			},
			{
				"x": -1.2899715264,
				"y": 5.3741376529,
				"z": 0.0985743022,
				"element": "H" 
			},
			{
				"x": -0.9216183895,
				"y": 4.853823035,
				"z": -2.3041070105,
				"element": "H" 
			},
			{
				"x": -1.0091563379,
				"y": 2.4997545057,
				"z": -3.0909512746,
				"element": "H" 
			},
			{
				"x": -1.4383766979,
				"y": 0.6695957763,
				"z": -1.4827394281,
				"element": "H" 
			}
		],
		 "valence_orbital": [ 
			{
				"type": "occ",
				"energy": -0.2669,
				"method": "rhf"
			},
			{
				"type": "occ",
				"energy": -0.26629,
				"method": "rhf"
			},
			{
				"type": "occ",
				"energy": -0.2638,
				"method": "rhf"
			},
			{
				"type": "occ",
				"energy": -0.25998,
				"method": "rhf"
			},
			{
				"type": "occ",
				"energy": -0.2514,
				"method": "rhf"
			},
			{
				"type": "unocc",
				"energy": -0.09519,
				"method": "rhf"
			},
			{
				"type": "unocc",
				"energy": -0.05191,
				"method": "rhf"
			},
			{
				"type": "unocc",
				"energy": -0.02016,
				"method": "rhf"
			},
			{
				"type": "unocc",
				"energy": -0.01444,
				"method": "rhf"
			},
			{
				"type": "unocc",
				"energy": -0.01016,
				"method": "rhf"
			}
		],
		"cosmo_sigma_profile": { 
			"-0.025": 0.0,
			"-0.024": 0.0,
			"-0.023": 0.0,
			"-0.022": 0.0,
			"-0.021": 0.0,
			"-0.02": 0.0,
			"-0.019": 0.0,
			"-0.018": 0.0,
			"-0.017": 0.0,
			"-0.016": 0.0,
			"-0.015": 0.0,
			"-0.014": 0.0,
			"-0.013": 0.0,
			"-0.012": 0.0,
			"-0.011": 0.0,
			"-0.01": 0.589712271584,
			"-0.009": 1.32442468496,
			"-0.008": 2.03539979898,
			"-0.007": 5.98841026148,
			"-0.006": 20.5425590868,
			"-0.005": 25.1606905367,
			"-0.004": 28.4185307278,
			"-0.003": 19.3852110565,
			"-0.002": 19.7638750411,
			"-0.001": 18.5665353767,
			"0.0": 19.9864363451,
			"0.001": 19.4195907317,
			"0.002": 20.7670750681,
			"0.003": 24.7153136668,
			"0.004": 24.6457004183,
			"0.005": 3.53122260259,
			"0.006": 3.9966446851,
			"0.007": 3.1896187207,
			"0.008": 3.42844036974,
			"0.009": 3.84385988732,
			"0.01": 4.49856545337,
			"0.011": 7.23356099915,
			"0.012": 5.40061515651,
			"0.013": 0.476842189031,
			"0.014": 0.0,
			"0.015": 0.0,
			"0.016": 0.0,
			"0.017": 0.0,
			"0.018": 0.0,
			"0.019": 0.0,
			"0.02": 0.0,
			"0.021": 0.0,
			"0.022": 0.0,
			"0.023": 0.0,
			"0.024": 0.0,
			"0.025": 0.0
		}
	}
}
