{
	 "smiles": "[O-][N+](=O)C1=CC=CC2=C1C(Br)=CS2", 
	 "Tm": 394.15, 
	 "num_atms": 17, 
	 "gaussian": { 
		 "optdone": 1, 
		 "sigma_profile": "yes", 
		 "theory": "DFT", 
		 "functional": "B3LYP", 
		 "basiset": "6-31G**", 
		 "properties": { 
			 "R2extent": 4144.922, 
			 "electric_dipole_moment_norm": 4.38291216544, 
			 "electric_quadrupole_moment_norm": 14.1633974406, 
			 "total_energy": -3481.93077662, 
			 "HOMO_LUMO_gap": 0.16314, 
			 "cosmo_polarized_energy": -9.82, 
			 "cosmo_cavitation_energy": 26.16, 
			 "cosmo_dispersion_energy": -19.77, 
			 "cosmo_repulsion_energy": 1.49, 
			 "cosmo_total_nonelectrostatic_energy": 7.88, 
			 "SMD_solvation_energy": 5.7 
		},
		"coords": [
			{
				"x": -2.000383576,
				"y": 2.7830118798,
				"z": -0.5749506498,
				"element": "O" 
			},
			{
				"x": -1.5147348861,
				"y": 1.9493542352,
				"z": -1.3312470769,
				"element": "N" 
			},
			{
				"x": -1.5094664901,
				"y": 1.9973011106,
				"z": -2.5561935549,
				"element": "O" 
			},
			{
				"x": -0.9162530365,
				"y": 0.7494532587,
				"z": -0.7071236941,
				"element": "C" 
			},
			{
				"x": -1.7622166729,
				"y": -0.3239021465,
				"z": -0.4902433945,
				"element": "C" 
			},
			{
				"x": -1.2695120162,
				"y": -1.4991046726,
				"z": 0.0977999871,
				"element": "C" 
			},
			{
				"x": 0.0651065102,
				"y": -1.5961619654,
				"z": 0.4660963793,
				"element": "C" 
			},
			{
				"x": 0.9045217866,
				"y": -0.5011059645,
				"z": 0.2390268218,
				"element": "C" 
			},
			{
				"x": 0.4446731604,
				"y": 0.7055238907,
				"z": -0.3533866302,
				"element": "C" 
			},
			{
				"x": 1.5220585653,
				"y": 1.6637771242,
				"z": -0.4673724046,
				"element": "C" 
			},
			{
				"x": 1.3639292871,
				"y": 3.4035678443,
				"z": -1.1968203161,
				"element": "Br" 
			},
			{
				"x": 2.7080554792,
				"y": 1.2041385893,
				"z": 0.008090749,
				"element": "C" 
			},
			{
				"x": 2.6120359373,
				"y": -0.420740189,
				"z": 0.6291004944,
				"element": "S" 
			},
			{
				"x": -2.8050023978,
				"y": -0.2469614597,
				"z": -0.7784314347,
				"element": "H" 
			},
			{
				"x": -1.9413942431,
				"y": -2.3346970383,
				"z": 0.2633158804,
				"element": "H" 
			},
			{
				"x": 0.4523577592,
				"y": -2.5020667601,
				"z": 0.9212288991,
				"element": "H" 
			},
			{
				"x": 3.6476248336,
				"y": 1.7370122632,
				"z": 0.0288099447,
				"element": "H" 
			}
		],
		 "valence_orbital": [ 
			{
				"type": "occ",
				"energy": -0.30511,
				"method": "rhf"
			},
			{
				"type": "occ",
				"energy": -0.29886,
				"method": "rhf"
			},
			{
				"type": "occ",
				"energy": -0.2825,
				"method": "rhf"
			},
			{
				"type": "occ",
				"energy": -0.26666,
				"method": "rhf"
			},
			{
				"type": "occ",
				"energy": -0.23617,
				"method": "rhf"
			},
			{
				"type": "unocc",
				"energy": -0.07303,
				"method": "rhf"
			},
			{
				"type": "unocc",
				"energy": -0.0572,
				"method": "rhf"
			},
			{
				"type": "unocc",
				"energy": -0.03276,
				"method": "rhf"
			},
			{
				"type": "unocc",
				"energy": -0.01695,
				"method": "rhf"
			},
			{
				"type": "unocc",
				"energy": 0.01096,
				"method": "rhf"
			}
		],
		"cosmo_sigma_profile": { 
			"-0.025": 0.0,
			"-0.024": 0.0,
			"-0.023": 0.0,
			"-0.022": 0.0,
			"-0.021": 0.0,
			"-0.02": 0.0,
			"-0.019": 0.0,
			"-0.018": 0.0,
			"-0.017": 0.0,
			"-0.016": 0.0,
			"-0.015": 0.0,
			"-0.014": 0.0,
			"-0.013": 0.0,
			"-0.012": 0.0,
			"-0.011": 0.437049186534,
			"-0.01": 3.29121808259,
			"-0.009": 4.96099555591,
			"-0.008": 7.38178227492,
			"-0.007": 8.88533531618,
			"-0.006": 9.14682432374,
			"-0.005": 7.81006859381,
			"-0.004": 8.51059957379,
			"-0.003": 9.12222856037,
			"-0.002": 9.10195234589,
			"-0.001": 14.5712385682,
			"0.0": 23.7337888638,
			"0.001": 27.3004919705,
			"0.002": 23.2537097048,
			"0.003": 16.3450013799,
			"0.004": 10.0841097583,
			"0.005": 4.73291830901,
			"0.006": 6.82088543104,
			"0.007": 11.2059951161,
			"0.008": 6.93239217009,
			"0.009": 3.04027104891,
			"0.01": 0.190193763564,
			"0.011": 0.0,
			"0.012": 0.0,
			"0.013": 0.0,
			"0.014": 0.0,
			"0.015": 0.0,
			"0.016": 0.0,
			"0.017": 0.0,
			"0.018": 0.0,
			"0.019": 0.0,
			"0.02": 0.0,
			"0.021": 0.0,
			"0.022": 0.0,
			"0.023": 0.0,
			"0.024": 0.0,
			"0.025": 0.0
		}
	}
}
