{
	 "smiles": "COC(=O)C1=C(C)NC(C)=C1", 
	 "Tm": 393.15, 
	 "num_atms": 22, 
	 "gaussian": { 
		 "optdone": 1, 
		 "sigma_profile": "yes", 
		 "theory": "DFT", 
		 "functional": "B3LYP", 
		 "basiset": "6-31G**", 
		 "properties": { 
			 "R2extent": 2307.9887, 
			 "electric_dipole_moment_norm": 3.09044810505, 
			 "electric_quadrupole_moment_norm": 10.8926468432, 
			 "total_energy": -516.700349151, 
			 "HOMO_LUMO_gap": 0.20128, 
			 "cosmo_polarized_energy": -12.4, 
			 "cosmo_cavitation_energy": 25.95, 
			 "cosmo_dispersion_energy": -18.88, 
			 "cosmo_repulsion_energy": 1.54, 
			 "cosmo_total_nonelectrostatic_energy": 8.61, 
			 "SMD_solvation_energy": 6.04 
		},
		"coords": [
			{
				"x": 3.4946046921,
				"y": 1.2311782957,
				"z": 1.9862457972,
				"element": "C" 
			},
			{
				"x": 2.3426186525,
				"y": 1.013050087,
				"z": 1.1645427297,
				"element": "O" 
			},
			{
				"x": 1.9310915112,
				"y": -0.2818914619,
				"z": 1.082691479,
				"element": "C" 
			},
			{
				"x": 2.5027146534,
				"y": -1.1897577684,
				"z": 1.6671000052,
				"element": "O" 
			},
			{
				"x": 0.7555020581,
				"y": -0.4288744422,
				"z": 0.2312430986,
				"element": "C" 
			},
			{
				"x": 0.1327676125,
				"y": -1.6487813879,
				"z": -0.0211109485,
				"element": "C" 
			},
			{
				"x": 0.4449987188,
				"y": -3.0316050129,
				"z": 0.4522525288,
				"element": "C" 
			},
			{
				"x": -0.9199236144,
				"y": -1.3806566978,
				"z": -0.8528674597,
				"element": "N" 
			},
			{
				"x": -0.9993676969,
				"y": -0.0251076963,
				"z": -1.1478160721,
				"element": "C" 
			},
			{
				"x": -2.0657569239,
				"y": 0.525093094,
				"z": -2.0387943144,
				"element": "C" 
			},
			{
				"x": 0.0349677729,
				"y": 0.5840873171,
				"z": -0.4822984751,
				"element": "C" 
			},
			{
				"x": 4.3555771296,
				"y": 0.6727595841,
				"z": 1.6082885551,
				"element": "H" 
			},
			{
				"x": 3.6890733338,
				"y": 2.3035123017,
				"z": 1.9446805938,
				"element": "H" 
			},
			{
				"x": 3.3045690567,
				"y": 0.9179734983,
				"z": 3.016659345,
				"element": "H" 
			},
			{
				"x": 1.4541152593,
				"y": -3.3313711999,
				"z": 0.1547677647,
				"element": "H" 
			},
			{
				"x": 0.4184632514,
				"y": -3.0894573701,
				"z": 1.5443178951,
				"element": "H" 
			},
			{
				"x": -0.2686214677,
				"y": -3.7566071789,
				"z": 0.0465536686,
				"element": "H" 
			},
			{
				"x": -1.553886505,
				"y": -2.0827097463,
				"z": -1.2036084403,
				"element": "H" 
			},
			{
				"x": -1.9434919171,
				"y": 1.6063366509,
				"z": -2.1354352625,
				"element": "H" 
			},
			{
				"x": -2.0255973261,
				"y": 0.0965680096,
				"z": -3.0486216828,
				"element": "H" 
			},
			{
				"x": -3.0732674239,
				"y": 0.3405899058,
				"z": -1.6439795561,
				"element": "H" 
			},
			{
				"x": 0.2667491731,
				"y": 1.6388712185,
				"z": -0.492811249,
				"element": "H" 
			}
		],
		 "valence_orbital": [ 
			{
				"type": "occ",
				"energy": -0.33812,
				"method": "rhf"
			},
			{
				"type": "occ",
				"energy": -0.28101,
				"method": "rhf"
			},
			{
				"type": "occ",
				"energy": -0.25226,
				"method": "rhf"
			},
			{
				"type": "occ",
				"energy": -0.24342,
				"method": "rhf"
			},
			{
				"type": "occ",
				"energy": -0.20121,
				"method": "rhf"
			},
			{
				"type": "unocc",
				"energy": 7e-05,
				"method": "rhf"
			},
			{
				"type": "unocc",
				"energy": 0.04728,
				"method": "rhf"
			},
			{
				"type": "unocc",
				"energy": 0.07365,
				"method": "rhf"
			},
			{
				"type": "unocc",
				"energy": 0.11269,
				"method": "rhf"
			},
			{
				"type": "unocc",
				"energy": 0.12733,
				"method": "rhf"
			}
		],
		"cosmo_sigma_profile": { 
			"-0.025": 0.0,
			"-0.024": 0.0,
			"-0.023": 0.0,
			"-0.022": 0.0,
			"-0.021": 0.0,
			"-0.02": 0.0,
			"-0.019": 0.0,
			"-0.018": 0.0,
			"-0.017": 0.0,
			"-0.016": 0.12039434686,
			"-0.015": 1.30949281439,
			"-0.014": 1.21039516497,
			"-0.013": 1.12339692185,
			"-0.012": 0.944936939729,
			"-0.011": 2.0261802048,
			"-0.01": 1.54421126527,
			"-0.009": 1.09221587938,
			"-0.008": 1.26324135903,
			"-0.007": 1.85340940848,
			"-0.006": 4.08913862047,
			"-0.005": 12.1268410288,
			"-0.004": 18.7517427023,
			"-0.003": 21.9934758622,
			"-0.002": 18.8051128843,
			"-0.001": 19.1314167122,
			"0.0": 17.5815306115,
			"0.001": 9.96130762775,
			"0.002": 9.18119283882,
			"0.003": 9.15104497502,
			"0.004": 9.66226953385,
			"0.005": 9.37395854092,
			"0.006": 8.0407265218,
			"0.007": 7.75275386926,
			"0.008": 4.28819640403,
			"0.009": 2.04523943918,
			"0.01": 1.58039632231,
			"0.011": 1.50928485039,
			"0.012": 2.51026640022,
			"0.013": 3.58276787691,
			"0.014": 0.95681832804,
			"0.015": 0.0,
			"0.016": 0.0,
			"0.017": 0.0,
			"0.018": 0.0,
			"0.019": 0.0,
			"0.02": 0.0,
			"0.021": 0.0,
			"0.022": 0.0,
			"0.023": 0.0,
			"0.024": 0.0,
			"0.025": 0.0
		}
	}
}
