{
	 "smiles": "CC(C)C1=NN(C)C(N)=N1", 
	 "Tm": 382.15, 
	 "num_atms": 22, 
	 "gaussian": { 
		 "optdone": 1, 
		 "sigma_profile": "yes", 
		 "theory": "DFT", 
		 "functional": "B3LYP", 
		 "basiset": "6-31G**", 
		 "properties": { 
			 "R2extent": 1936.2132, 
			 "electric_dipole_moment_norm": 3.4162978866, 
			 "electric_quadrupole_moment_norm": 6.11930685781, 
			 "total_energy": -454.884534788, 
			 "HOMO_LUMO_gap": 0.24934, 
			 "cosmo_polarized_energy": -13.37, 
			 "cosmo_cavitation_energy": 25.08, 
			 "cosmo_dispersion_energy": -18.19, 
			 "cosmo_repulsion_energy": 1.52, 
			 "cosmo_total_nonelectrostatic_energy": 8.41, 
			 "SMD_solvation_energy": 2.06 
		},
		"coords": [
			{
				"x": 3.8892442082,
				"y": -0.127268368,
				"z": 0.0882083627,
				"element": "C" 
			},
			{
				"x": 2.8423727102,
				"y": 0.0887852665,
				"z": -1.019713975,
				"element": "C" 
			},
			{
				"x": 2.9096636715,
				"y": -1.03209076,
				"z": -2.0730890708,
				"element": "C" 
			},
			{
				"x": 1.4591259664,
				"y": 0.1924943168,
				"z": -0.4383428511,
				"element": "C" 
			},
			{
				"x": 0.7170082667,
				"y": 1.2812089216,
				"z": -0.5649793262,
				"element": "N" 
			},
			{
				"x": -0.4419968833,
				"y": 0.929461143,
				"z": 0.0866457907,
				"element": "N" 
			},
			{
				"x": -1.5656659915,
				"y": 1.8361924602,
				"z": 0.1671175544,
				"element": "C" 
			},
			{
				"x": -0.3106211432,
				"y": -0.3252722714,
				"z": 0.5798313975,
				"element": "C" 
			},
			{
				"x": -1.330544597,
				"y": -0.990737762,
				"z": 1.2472221506,
				"element": "N" 
			},
			{
				"x": 0.8729540326,
				"y": -0.8279944315,
				"z": 0.2663730262,
				"element": "N" 
			},
			{
				"x": 3.6853783421,
				"y": -1.0553885426,
				"z": 0.6312312116,
				"element": "H" 
			},
			{
				"x": 4.8958470748,
				"y": -0.1921303302,
				"z": -0.3389610639,
				"element": "H" 
			},
			{
				"x": 3.8779395103,
				"y": 0.6960053745,
				"z": 0.8096772856,
				"element": "H" 
			},
			{
				"x": 3.0407921077,
				"y": 1.0483603897,
				"z": -1.5112902041,
				"element": "H" 
			},
			{
				"x": 2.202051969,
				"y": -0.8519475201,
				"z": -2.8885753382,
				"element": "H" 
			},
			{
				"x": 2.6642235651,
				"y": -1.9977688522,
				"z": -1.6202225502,
				"element": "H" 
			},
			{
				"x": 3.9152635304,
				"y": -1.0985271843,
				"z": -2.5024106107,
				"element": "H" 
			},
			{
				"x": -2.4891968973,
				"y": 1.2554053482,
				"z": 0.2365543396,
				"element": "H" 
			},
			{
				"x": -1.5868886713,
				"y": 2.4385016164,
				"z": -0.7420546332,
				"element": "H" 
			},
			{
				"x": -1.4902918392,
				"y": 2.505989544,
				"z": 1.0320192853,
				"element": "H" 
			},
			{
				"x": -1.0079999732,
				"y": -1.8969655523,
				"z": 1.5638712711,
				"element": "H" 
			},
			{
				"x": -1.7477589589,
				"y": -0.4694128061,
				"z": 2.0092879481,
				"element": "H" 
			}
		],
		 "valence_orbital": [ 
			{
				"type": "occ",
				"energy": -0.31764,
				"method": "rhf"
			},
			{
				"type": "occ",
				"energy": -0.30811,
				"method": "rhf"
			},
			{
				"type": "occ",
				"energy": -0.26106,
				"method": "rhf"
			},
			{
				"type": "occ",
				"energy": -0.25879,
				"method": "rhf"
			},
			{
				"type": "occ",
				"energy": -0.21792,
				"method": "rhf"
			},
			{
				"type": "unocc",
				"energy": 0.03142,
				"method": "rhf"
			},
			{
				"type": "unocc",
				"energy": 0.06642,
				"method": "rhf"
			},
			{
				"type": "unocc",
				"energy": 0.07593,
				"method": "rhf"
			},
			{
				"type": "unocc",
				"energy": 0.11117,
				"method": "rhf"
			},
			{
				"type": "unocc",
				"energy": 0.11875,
				"method": "rhf"
			}
		],
		"cosmo_sigma_profile": { 
			"-0.025": 0.0,
			"-0.024": 0.0,
			"-0.023": 0.0,
			"-0.022": 0.0,
			"-0.021": 0.0,
			"-0.02": 0.0,
			"-0.019": 0.0,
			"-0.018": 0.0,
			"-0.017": 0.0,
			"-0.016": 0.0,
			"-0.015": 0.0,
			"-0.014": 0.895894336334,
			"-0.013": 2.40393246658,
			"-0.012": 2.55546324301,
			"-0.011": 2.6760790933,
			"-0.01": 3.33769210968,
			"-0.009": 2.57258365932,
			"-0.008": 1.33752757351,
			"-0.007": 2.13373394426,
			"-0.006": 8.45744444196,
			"-0.005": 8.11405403173,
			"-0.004": 8.40107967805,
			"-0.003": 17.9877004056,
			"-0.002": 19.1986646345,
			"-0.001": 17.920097115,
			"0.0": 17.4362844615,
			"0.001": 20.4391578094,
			"0.002": 11.8637065097,
			"0.003": 7.12615114345,
			"0.004": 5.62032823367,
			"0.005": 5.06202314963,
			"0.006": 3.83713092774,
			"0.007": 4.87197265086,
			"0.008": 3.46676755084,
			"0.009": 2.7174229335,
			"0.01": 2.71931239009,
			"0.011": 2.80399387038,
			"0.012": 2.63510001913,
			"0.013": 2.26285756934,
			"0.014": 2.32019892267,
			"0.015": 1.35542220635,
			"0.016": 1.366242368,
			"0.017": 0.154566674899,
			"0.018": 0.0,
			"0.019": 0.0,
			"0.02": 0.0,
			"0.021": 0.0,
			"0.022": 0.0,
			"0.023": 0.0,
			"0.024": 0.0,
			"0.025": 0.0
		}
	}
}
