{
	 "smiles": "CN1N=C(CO)C=C1C1=CC=CO1", 
	 "Tm": 318.65, 
	 "num_atms": 23, 
	 "gaussian": { 
		 "optdone": 1, 
		 "sigma_profile": "yes", 
		 "theory": "DFT", 
		 "functional": "B3LYP", 
		 "basiset": "6-31G**", 
		 "properties": { 
			 "R2extent": 2932.3401, 
			 "electric_dipole_moment_norm": 4.6536664051, 
			 "electric_quadrupole_moment_norm": 9.97664393722, 
			 "total_energy": -608.880193405, 
			 "HOMO_LUMO_gap": 0.1802, 
			 "cosmo_polarized_energy": -9.89, 
			 "cosmo_cavitation_energy": 27.14, 
			 "cosmo_dispersion_energy": -20.09, 
			 "cosmo_repulsion_energy": 1.59, 
			 "cosmo_total_nonelectrostatic_energy": 8.64, 
			 "SMD_solvation_energy": 4.78 
		},
		"coords": [
			{
				"x": 0.7964687478,
				"y": -1.3676624576,
				"z": -1.9283546217,
				"element": "C" 
			},
			{
				"x": 0.1553489778,
				"y": -0.3980686333,
				"z": -1.0530631458,
				"element": "N" 
			},
			{
				"x": -0.6906424817,
				"y": 0.5063841744,
				"z": -1.5987510667,
				"element": "N" 
			},
			{
				"x": -1.1394633546,
				"y": 1.2466782845,
				"z": -0.5856540997,
				"element": "C" 
			},
			{
				"x": -2.0884743738,
				"y": 2.3776061825,
				"z": -0.8887507376,
				"element": "C" 
			},
			{
				"x": -2.5971357009,
				"y": 2.3144506832,
				"z": -2.2052505534,
				"element": "O" 
			},
			{
				"x": -0.5812744263,
				"y": 0.8256551823,
				"z": 0.6346330125,
				"element": "C" 
			},
			{
				"x": 0.2520544931,
				"y": -0.241371886,
				"z": 0.3043554109,
				"element": "C" 
			},
			{
				"x": 1.0662884266,
				"y": -1.0482969603,
				"z": 1.1872087146,
				"element": "C" 
			},
			{
				"x": 1.252648781,
				"y": -1.0092478044,
				"z": 2.5457085159,
				"element": "C" 
			},
			{
				"x": 2.1749416292,
				"y": -2.0536884807,
				"z": 2.862466774,
				"element": "C" 
			},
			{
				"x": 2.4885544701,
				"y": -2.6574055841,
				"z": 1.6833601949,
				"element": "C" 
			},
			{
				"x": 1.823463967,
				"y": -2.0592430469,
				"z": 0.6522145609,
				"element": "O" 
			},
			{
				"x": 0.5176022628,
				"y": -2.3876929761,
				"z": -1.6535265273,
				"element": "H" 
			},
			{
				"x": 0.4498340087,
				"y": -1.1489378766,
				"z": -2.9373592341,
				"element": "H" 
			},
			{
				"x": 1.8841032297,
				"y": -1.2772840939,
				"z": -1.881413576,
				"element": "H" 
			},
			{
				"x": -2.9312629734,
				"y": 2.3523035134,
				"z": -0.1841148372,
				"element": "H" 
			},
			{
				"x": -1.5682942602,
				"y": 3.3363675813,
				"z": -0.7190243596,
				"element": "H" 
			},
			{
				"x": -2.0112370088,
				"y": 1.7178194076,
				"z": -2.6952571942,
				"element": "H" 
			},
			{
				"x": -0.7533843948,
				"y": 1.2283579583,
				"z": 1.6218261098,
				"element": "H" 
			},
			{
				"x": 0.7873320252,
				"y": -0.3191085543,
				"z": 3.2338628756,
				"element": "H" 
			},
			{
				"x": 2.552157316,
				"y": -2.3173277487,
				"z": 3.8398878166,
				"element": "H" 
			},
			{
				"x": 3.1309706396,
				"y": -3.4800868648,
				"z": 1.4116959677,
				"element": "H" 
			}
		],
		 "valence_orbital": [ 
			{
				"type": "occ",
				"energy": -0.29506,
				"method": "rhf"
			},
			{
				"type": "occ",
				"energy": -0.28261,
				"method": "rhf"
			},
			{
				"type": "occ",
				"energy": -0.26056,
				"method": "rhf"
			},
			{
				"type": "occ",
				"energy": -0.23669,
				"method": "rhf"
			},
			{
				"type": "occ",
				"energy": -0.21003,
				"method": "rhf"
			},
			{
				"type": "unocc",
				"energy": -0.02983,
				"method": "rhf"
			},
			{
				"type": "unocc",
				"energy": 0.03928,
				"method": "rhf"
			},
			{
				"type": "unocc",
				"energy": 0.0543,
				"method": "rhf"
			},
			{
				"type": "unocc",
				"energy": 0.09448,
				"method": "rhf"
			},
			{
				"type": "unocc",
				"energy": 0.11132,
				"method": "rhf"
			}
		],
		"cosmo_sigma_profile": { 
			"-0.025": 0.0,
			"-0.024": 0.0,
			"-0.023": 0.0,
			"-0.022": 0.0,
			"-0.021": 0.0,
			"-0.02": 0.0,
			"-0.019": 0.0,
			"-0.018": 0.0,
			"-0.017": 0.0,
			"-0.016": 0.0,
			"-0.015": 0.0,
			"-0.014": 0.0,
			"-0.013": 0.0,
			"-0.012": 0.0,
			"-0.011": 0.00688240020687,
			"-0.01": 0.401541960801,
			"-0.009": 2.35219919656,
			"-0.008": 2.15837938951,
			"-0.007": 8.44687306679,
			"-0.006": 11.0426276328,
			"-0.005": 13.4816450877,
			"-0.004": 20.4551343243,
			"-0.003": 20.8681883124,
			"-0.002": 16.469385642,
			"-0.001": 12.4719683175,
			"0.0": 13.0207225275,
			"0.001": 11.4035291504,
			"0.002": 16.7398407701,
			"0.003": 18.3819219818,
			"0.004": 16.2459405739,
			"0.005": 11.5803173252,
			"0.006": 3.70076259322,
			"0.007": 2.64396447281,
			"0.008": 2.90168696208,
			"0.009": 2.72625614767,
			"0.01": 0.799814573572,
			"0.011": 1.72187748166,
			"0.012": 1.64240392138,
			"0.013": 1.37742434986,
			"0.014": 2.73347141135,
			"0.015": 0.746237598002,
			"0.016": 0.0,
			"0.017": 0.0,
			"0.018": 0.0,
			"0.019": 0.0,
			"0.02": 0.0,
			"0.021": 0.0,
			"0.022": 0.0,
			"0.023": 0.0,
			"0.024": 0.0,
			"0.025": 0.0
		}
	}
}
