{
	 "smiles": "CCOC1=CC=C(C=C1)C1=NN=C2SC(NN12)C1=CC=C(C=C1)N(C)C", 
	 "Tm": 410.15, 
	 "num_atms": 47, 
	 "gaussian": { 
		 "optdone": 1, 
		 "sigma_profile": "yes", 
		 "theory": "DFT", 
		 "functional": "B3LYP", 
		 "basiset": "6-31G**", 
		 "properties": { 
			 "R2extent": 17500.3942, 
			 "electric_dipole_moment_norm": 10.6551751093, 
			 "electric_quadrupole_moment_norm": 42.410106502, 
			 "total_energy": -1483.76495119, 
			 "HOMO_LUMO_gap": 0.17549, 
			 "cosmo_polarized_energy": -25.17, 
			 "cosmo_cavitation_energy": 51.71, 
			 "cosmo_dispersion_energy": -37.59, 
			 "cosmo_repulsion_energy": 2.78, 
			 "cosmo_total_nonelectrostatic_energy": 16.9, 
			 "SMD_solvation_energy": 5.38 
		},
		"coords": [
			{
				"x": -0.6532820319,
				"y": 5.9256412879,
				"z": 5.1423371837,
				"element": "C" 
			},
			{
				"x": -0.6079063137,
				"y": 4.8974864022,
				"z": 4.0256426509,
				"element": "C" 
			},
			{
				"x": -1.8715895872,
				"y": 4.9270496685,
				"z": 3.3621438546,
				"element": "O" 
			},
			{
				"x": -2.0830415498,
				"y": 4.0868370348,
				"z": 2.3116558208,
				"element": "C" 
			},
			{
				"x": -3.3453701439,
				"y": 4.180537924,
				"z": 1.6995713934,
				"element": "C" 
			},
			{
				"x": -3.6678050224,
				"y": 3.3649540376,
				"z": 0.6286574785,
				"element": "C" 
			},
			{
				"x": -2.7389012406,
				"y": 2.4295113886,
				"z": 0.1309058402,
				"element": "C" 
			},
			{
				"x": -1.477286193,
				"y": 2.3550067222,
				"z": 0.7355306341,
				"element": "C" 
			},
			{
				"x": -1.1461631698,
				"y": 3.1697434897,
				"z": 1.8211763555,
				"element": "C" 
			},
			{
				"x": -3.1125784247,
				"y": 1.5958966439,
				"z": -1.0106459544,
				"element": "C" 
			},
			{
				"x": -4.0637202848,
				"y": 1.8664300581,
				"z": -1.8957817698,
				"element": "N" 
			},
			{
				"x": -4.1350402696,
				"y": 0.836603961,
				"z": -2.8166786016,
				"element": "N" 
			},
			{
				"x": -3.2265520496,
				"y": -0.0362432911,
				"z": -2.4540280642,
				"element": "C" 
			},
			{
				"x": -2.5545351498,
				"y": -1.5396053646,
				"z": -3.0832946218,
				"element": "S" 
			},
			{
				"x": -1.7628062454,
				"y": -1.7999027564,
				"z": -1.3896905324,
				"element": "C" 
			},
			{
				"x": -1.4721583999,
				"y": -0.4165567187,
				"z": -0.9054654839,
				"element": "N" 
			},
			{
				"x": -2.5798798264,
				"y": 0.3682576185,
				"z": -1.3262747797,
				"element": "N" 
			},
			{
				"x": -0.5335991029,
				"y": -2.6523367007,
				"z": -1.4153897917,
				"element": "C" 
			},
			{
				"x": -0.5700671051,
				"y": -3.9597798477,
				"z": -0.9178368394,
				"element": "C" 
			},
			{
				"x": 0.5502872377,
				"y": -4.7819747804,
				"z": -0.9468399201,
				"element": "C" 
			},
			{
				"x": 1.7773603941,
				"y": -4.3157986392,
				"z": -1.475062394,
				"element": "C" 
			},
			{
				"x": 1.8058051202,
				"y": -2.9923924599,
				"z": -1.9826326221,
				"element": "C" 
			},
			{
				"x": 0.6762572846,
				"y": -2.1879048243,
				"z": -1.9515223339,
				"element": "C" 
			},
			{
				"x": 2.9059643552,
				"y": -5.1151218457,
				"z": -1.4886207558,
				"element": "N" 
			},
			{
				"x": 4.1043350423,
				"y": -4.6620664494,
				"z": -2.1757958946,
				"element": "C" 
			},
			{
				"x": 2.8032539592,
				"y": -6.5127703994,
				"z": -1.1034810744,
				"element": "C" 
			},
			{
				"x": 0.2992659466,
				"y": 5.938137725,
				"z": 5.6808439941,
				"element": "H" 
			},
			{
				"x": -1.4507544587,
				"y": 5.6888477686,
				"z": 5.8520850461,
				"element": "H" 
			},
			{
				"x": -0.8372146179,
				"y": 6.9249702423,
				"z": 4.7383837241,
				"element": "H" 
			},
			{
				"x": -0.4199671803,
				"y": 3.8911790684,
				"z": 4.4264209883,
				"element": "H" 
			},
			{
				"x": 0.1944451251,
				"y": 5.1298201285,
				"z": 3.3111669215,
				"element": "H" 
			},
			{
				"x": -4.0558544002,
				"y": 4.9013473483,
				"z": 2.0907385842,
				"element": "H" 
			},
			{
				"x": -4.6402767006,
				"y": 3.4353662742,
				"z": 0.1536524191,
				"element": "H" 
			},
			{
				"x": -0.7216714001,
				"y": 1.6839040056,
				"z": 0.33786599,
				"element": "H" 
			},
			{
				"x": -0.1593125761,
				"y": 3.0895307154,
				"z": 2.2606358622,
				"element": "H" 
			},
			{
				"x": -2.5421812879,
				"y": -2.2722059806,
				"z": -0.7774138336,
				"element": "H" 
			},
			{
				"x": -1.4844673513,
				"y": -0.4358975047,
				"z": 0.1153473501,
				"element": "H" 
			},
			{
				"x": -1.4958344661,
				"y": -4.3507305047,
				"z": -0.501432342,
				"element": "H" 
			},
			{
				"x": 0.4674759093,
				"y": -5.7877498694,
				"z": -0.5548939221,
				"element": "H" 
			},
			{
				"x": 2.7162999352,
				"y": -2.590505336,
				"z": -2.4091011882,
				"element": "H" 
			},
			{
				"x": 0.7272822833,
				"y": -1.1779596035,
				"z": -2.3453835159,
				"element": "H" 
			},
			{
				"x": 3.9406710011,
				"y": -4.4995983739,
				"z": -3.2515951098,
				"element": "H" 
			},
			{
				"x": 4.479225809,
				"y": -3.7257323431,
				"z": -1.7456663556,
				"element": "H" 
			},
			{
				"x": 4.8873739649,
				"y": -5.4126268402,
				"z": -2.0612362421,
				"element": "H" 
			},
			{
				"x": 2.4508078243,
				"y": -6.615380428,
				"z": -0.0700738318,
				"element": "H" 
			},
			{
				"x": 3.7900509366,
				"y": -6.9736815419,
				"z": -1.1613033801,
				"element": "H" 
			},
			{
				"x": 2.1209544211,
				"y": -7.0821371095,
				"z": -1.7524209367,
				"element": "H" 
			}
		],
		 "valence_orbital": [ 
			{
				"type": "occ",
				"energy": -0.25168,
				"method": "rhf"
			},
			{
				"type": "occ",
				"energy": -0.2405,
				"method": "rhf"
			},
			{
				"type": "occ",
				"energy": -0.22759,
				"method": "rhf"
			},
			{
				"type": "occ",
				"energy": -0.20256,
				"method": "rhf"
			},
			{
				"type": "occ",
				"energy": -0.19986,
				"method": "rhf"
			},
			{
				"type": "unocc",
				"energy": -0.02437,
				"method": "rhf"
			},
			{
				"type": "unocc",
				"energy": -0.01522,
				"method": "rhf"
			},
			{
				"type": "unocc",
				"energy": -0.00798,
				"method": "rhf"
			},
			{
				"type": "unocc",
				"energy": -0.00616,
				"method": "rhf"
			},
			{
				"type": "unocc",
				"energy": 0.01437,
				"method": "rhf"
			}
		],
		"cosmo_sigma_profile": { 
			"-0.025": 0.0,
			"-0.024": 0.0,
			"-0.023": 0.0,
			"-0.022": 0.0,
			"-0.021": 0.0,
			"-0.02": 0.0,
			"-0.019": 0.0,
			"-0.018": 0.0,
			"-0.017": 0.0,
			"-0.016": 0.0672752844744,
			"-0.015": 1.04176388251,
			"-0.014": 1.15170420428,
			"-0.013": 1.65076380312,
			"-0.012": 1.32880667024,
			"-0.011": 1.56838573064,
			"-0.01": 1.72394250997,
			"-0.009": 1.87566090156,
			"-0.008": 3.46640262337,
			"-0.007": 7.61880569516,
			"-0.006": 16.2987560255,
			"-0.005": 28.2686707708,
			"-0.004": 36.9158231105,
			"-0.003": 38.2767978818,
			"-0.002": 39.9663644314,
			"-0.001": 32.6356425845,
			"0.0": 27.9354604212,
			"0.001": 24.8314292919,
			"0.002": 25.4342987608,
			"0.003": 26.3454418811,
			"0.004": 29.2605543108,
			"0.005": 18.955072695,
			"0.006": 14.3136927093,
			"0.007": 4.46416658115,
			"0.008": 4.77812007836,
			"0.009": 3.30851235839,
			"0.01": 2.37097770295,
			"0.011": 2.41051067513,
			"0.012": 3.15467004599,
			"0.013": 3.49210970071,
			"0.014": 2.95268388502,
			"0.015": 2.75754566179,
			"0.016": 2.20074973374,
			"0.017": 0.572458679811,
			"0.018": 0.0,
			"0.019": 0.0,
			"0.02": 0.0,
			"0.021": 0.0,
			"0.022": 0.0,
			"0.023": 0.0,
			"0.024": 0.0,
			"0.025": 0.0
		}
	}
}
