{
	 "smiles": "COC(=O)NCC(O)=O", 
	 "Tm": 367.15, 
	 "num_atms": 16, 
	 "gaussian": { 
		 "optdone": 1, 
		 "sigma_profile": "yes", 
		 "theory": "DFT", 
		 "functional": "B3LYP", 
		 "basiset": "6-31G**", 
		 "properties": { 
			 "R2extent": 1573.976, 
			 "electric_dipole_moment_norm": 3.02657156697, 
			 "electric_quadrupole_moment_norm": 21.153411128, 
			 "total_energy": -512.312643716, 
			 "HOMO_LUMO_gap": 0.27071, 
			 "cosmo_polarized_energy": -18.28, 
			 "cosmo_cavitation_energy": 20.9, 
			 "cosmo_dispersion_energy": -15.13, 
			 "cosmo_repulsion_energy": 1.29, 
			 "cosmo_total_nonelectrostatic_energy": 7.07, 
			 "SMD_solvation_energy": 6.8 
		},
		"coords": [
			{
				"x": -0.3913943185,
				"y": 2.22617658,
				"z": -0.036301943,
				"element": "C" 
			},
			{
				"x": -0.2160507981,
				"y": 0.8159354697,
				"z": 0.1857744102,
				"element": "O" 
			},
			{
				"x": -1.3358345439,
				"y": 0.1531165663,
				"z": 0.5445895643,
				"element": "C" 
			},
			{
				"x": -2.4336102533,
				"y": 0.6505518556,
				"z": 0.6851185836,
				"element": "O" 
			},
			{
				"x": -1.0562215868,
				"y": -1.1855784497,
				"z": 0.7800678834,
				"element": "N" 
			},
			{
				"x": 0.1417267445,
				"y": -1.8546238186,
				"z": 0.2772165645,
				"element": "C" 
			},
			{
				"x": 1.3211535561,
				"y": -1.8534602768,
				"z": 1.2636936802,
				"element": "C" 
			},
			{
				"x": 1.032790264,
				"y": -1.4304961631,
				"z": 2.5071420217,
				"element": "O" 
			},
			{
				"x": 2.4171068153,
				"y": -2.2376484752,
				"z": 0.9409798819,
				"element": "O" 
			},
			{
				"x": -0.751451175,
				"y": 2.7142874337,
				"z": 0.8720601213,
				"element": "H" 
			},
			{
				"x": -1.1068813826,
				"y": 2.4011034894,
				"z": -0.8429661289,
				"element": "H" 
			},
			{
				"x": 0.5946200134,
				"y": 2.6011358271,
				"z": -0.3084689115,
				"element": "H" 
			},
			{
				"x": -1.901800698,
				"y": -1.7326628737,
				"z": 0.8650218651,
				"element": "H" 
			},
			{
				"x": -0.1012997355,
				"y": -2.9002966359,
				"z": 0.0678482067,
				"element": "H" 
			},
			{
				"x": 0.4957004578,
				"y": -1.4061332467,
				"z": -0.6532196991,
				"element": "H" 
			},
			{
				"x": 0.0953466406,
				"y": -1.1627072821,
				"z": 2.5121438997,
				"element": "H" 
			}
		],
		 "valence_orbital": [ 
			{
				"type": "occ",
				"energy": -0.32011,
				"method": "rhf"
			},
			{
				"type": "occ",
				"energy": -0.31354,
				"method": "rhf"
			},
			{
				"type": "occ",
				"energy": -0.30637,
				"method": "rhf"
			},
			{
				"type": "occ",
				"energy": -0.29491,
				"method": "rhf"
			},
			{
				"type": "occ",
				"energy": -0.26285,
				"method": "rhf"
			},
			{
				"type": "unocc",
				"energy": 0.00786,
				"method": "rhf"
			},
			{
				"type": "unocc",
				"energy": 0.02541,
				"method": "rhf"
			},
			{
				"type": "unocc",
				"energy": 0.05454,
				"method": "rhf"
			},
			{
				"type": "unocc",
				"energy": 0.09594,
				"method": "rhf"
			},
			{
				"type": "unocc",
				"energy": 0.10881,
				"method": "rhf"
			}
		],
		"cosmo_sigma_profile": { 
			"-0.025": 0.0,
			"-0.024": 0.0,
			"-0.023": 0.0,
			"-0.022": 0.0,
			"-0.021": 0.0,
			"-0.02": 0.0,
			"-0.019": 0.0,
			"-0.018": 0.0,
			"-0.017": 0.0,
			"-0.016": 0.0775460454569,
			"-0.015": 1.54649822324,
			"-0.014": 1.83062803486,
			"-0.013": 2.86099883193,
			"-0.012": 2.01404203265,
			"-0.011": 2.12176763253,
			"-0.01": 4.18298704119,
			"-0.009": 5.26445490796,
			"-0.008": 3.53178444868,
			"-0.007": 5.9543219073,
			"-0.006": 10.1182240673,
			"-0.005": 11.9141503601,
			"-0.004": 15.0385930193,
			"-0.003": 11.0697701152,
			"-0.002": 6.90701404542,
			"-0.001": 5.90938878329,
			"0.0": 5.27019478758,
			"0.001": 4.82321292693,
			"0.002": 6.2429165477,
			"0.003": 5.49061398471,
			"0.004": 4.14022695888,
			"0.005": 3.33689439157,
			"0.006": 3.80319004578,
			"0.007": 4.24461515539,
			"0.008": 3.09959397171,
			"0.009": 4.73118885214,
			"0.01": 6.89492611299,
			"0.011": 6.45391973019,
			"0.012": 10.7724519116,
			"0.013": 5.31957187492,
			"0.014": 0.0760427394282,
			"0.015": 0.0,
			"0.016": 0.0,
			"0.017": 0.0,
			"0.018": 0.0,
			"0.019": 0.0,
			"0.02": 0.0,
			"0.021": 0.0,
			"0.022": 0.0,
			"0.023": 0.0,
			"0.024": 0.0,
			"0.025": 0.0
		}
	}
}
