{
	 "smiles": "CN1C=C(C=N1)C(=O)CC(C)=O", 
	 "Tm": 362.15, 
	 "num_atms": 22, 
	 "gaussian": { 
		 "optdone": 1, 
		 "sigma_profile": "yes", 
		 "theory": "DFT", 
		 "functional": "B3LYP", 
		 "basiset": "6-31G**", 
		 "properties": { 
			 "R2extent": 2369.133, 
			 "electric_dipole_moment_norm": 2.80321211648, 
			 "electric_quadrupole_moment_norm": 13.2344014292, 
			 "total_energy": -570.80774904, 
			 "HOMO_LUMO_gap": 0.19414, 
			 "cosmo_polarized_energy": -13.85, 
			 "cosmo_cavitation_energy": 26.76, 
			 "cosmo_dispersion_energy": -18.81, 
			 "cosmo_repulsion_energy": 1.51, 
			 "cosmo_total_nonelectrostatic_energy": 9.47, 
			 "SMD_solvation_energy": 5.46 
		},
		"coords": [
			{
				"x": -0.6174570048,
				"y": 1.1761891639,
				"z": -3.435533541,
				"element": "C" 
			},
			{
				"x": -0.5879511074,
				"y": 1.3072646157,
				"z": -1.9897887858,
				"element": "N" 
			},
			{
				"x": 0.0355259012,
				"y": 0.5155567497,
				"z": -1.0944165229,
				"element": "C" 
			},
			{
				"x": -0.2492159091,
				"y": 1.0370031304,
				"z": 0.1677814051,
				"element": "C" 
			},
			{
				"x": -1.0697695375,
				"y": 2.1657426095,
				"z": -0.103549922,
				"element": "C" 
			},
			{
				"x": -1.2687235031,
				"y": 2.3312517471,
				"z": -1.4026125394,
				"element": "N" 
			},
			{
				"x": 0.1611464378,
				"y": 0.5530650049,
				"z": 1.4856407701,
				"element": "C" 
			},
			{
				"x": -0.2730631744,
				"y": 1.034344207,
				"z": 2.5231768427,
				"element": "O" 
			},
			{
				"x": 1.1675131787,
				"y": -0.6148693089,
				"z": 1.537040388,
				"element": "C" 
			},
			{
				"x": 0.4789995205,
				"y": -1.9434740717,
				"z": 1.214090943,
				"element": "C" 
			},
			{
				"x": -0.2361915233,
				"y": -2.6191609487,
				"z": 2.3632392615,
				"element": "C" 
			},
			{
				"x": 0.494617546,
				"y": -2.4043890061,
				"z": 0.0869151297,
				"element": "O" 
			},
			{
				"x": -0.2012483896,
				"y": 2.0740848902,
				"z": -3.8988974087,
				"element": "H" 
			},
			{
				"x": -1.6473823323,
				"y": 1.0453214127,
				"z": -3.776396275,
				"element": "H" 
			},
			{
				"x": -0.0246768877,
				"y": 0.3072365375,
				"z": -3.7242362601,
				"element": "H" 
			},
			{
				"x": 0.5848010759,
				"y": -0.3691614203,
				"z": -1.3826620506,
				"element": "H" 
			},
			{
				"x": -1.5023546872,
				"y": 2.8496419838,
				"z": 0.6132248552,
				"element": "H" 
			},
			{
				"x": 1.9684651888,
				"y": -0.4601669335,
				"z": 0.8099803475,
				"element": "H" 
			},
			{
				"x": 1.5753075537,
				"y": -0.6288068365,
				"z": 2.5503757442,
				"element": "H" 
			},
			{
				"x": 0.5013457394,
				"y": -3.0066047454,
				"z": 3.0768126815,
				"element": "H" 
			},
			{
				"x": -0.8499067961,
				"y": -1.8931015765,
				"z": 2.9077383016,
				"element": "H" 
			},
			{
				"x": -0.8490812895,
				"y": -3.4426672049,
				"z": 1.9946766354,
				"element": "H" 
			}
		],
		 "valence_orbital": [ 
			{
				"type": "occ",
				"energy": -0.29761,
				"method": "rhf"
			},
			{
				"type": "occ",
				"energy": -0.26645,
				"method": "rhf"
			},
			{
				"type": "occ",
				"energy": -0.26415,
				"method": "rhf"
			},
			{
				"type": "occ",
				"energy": -0.25441,
				"method": "rhf"
			},
			{
				"type": "occ",
				"energy": -0.24594,
				"method": "rhf"
			},
			{
				"type": "unocc",
				"energy": -0.0518,
				"method": "rhf"
			},
			{
				"type": "unocc",
				"energy": -0.01215,
				"method": "rhf"
			},
			{
				"type": "unocc",
				"energy": 0.01099,
				"method": "rhf"
			},
			{
				"type": "unocc",
				"energy": 0.09058,
				"method": "rhf"
			},
			{
				"type": "unocc",
				"energy": 0.09615,
				"method": "rhf"
			}
		],
		"cosmo_sigma_profile": { 
			"-0.025": 0.0,
			"-0.024": 0.0,
			"-0.023": 0.0,
			"-0.022": 0.0,
			"-0.021": 0.0,
			"-0.02": 0.0,
			"-0.019": 0.0,
			"-0.018": 0.0,
			"-0.017": 0.0,
			"-0.016": 0.0,
			"-0.015": 0.0,
			"-0.014": 0.0,
			"-0.013": 0.0,
			"-0.012": 0.0,
			"-0.011": 0.0,
			"-0.01": 0.603159267486,
			"-0.009": 1.84156702447,
			"-0.008": 3.33870298242,
			"-0.007": 10.833065523,
			"-0.006": 17.2429126141,
			"-0.005": 18.1942943206,
			"-0.004": 21.842349311,
			"-0.003": 21.3122679194,
			"-0.002": 14.5064653547,
			"-0.001": 12.333133431,
			"0.0": 9.27596809835,
			"0.001": 10.319103912,
			"0.002": 11.4530561403,
			"0.003": 8.06058644226,
			"0.004": 4.77992355059,
			"0.005": 5.49207101247,
			"0.006": 4.06695553283,
			"0.007": 4.93220479932,
			"0.008": 3.24071268634,
			"0.009": 4.86361892225,
			"0.01": 5.59464685458,
			"0.011": 6.42799448052,
			"0.012": 7.44922306337,
			"0.013": 2.87963962307,
			"0.014": 1.0223613183,
			"0.015": 0.608165513079,
			"0.016": 0.0341786631873,
			"0.017": 0.0,
			"0.018": 0.0,
			"0.019": 0.0,
			"0.02": 0.0,
			"0.021": 0.0,
			"0.022": 0.0,
			"0.023": 0.0,
			"0.024": 0.0,
			"0.025": 0.0
		}
	}
}
