{
	 "smiles": "CC1=NN=C2SC(SCC3=CC=CC=C3)=NN2C1=O", 
	 "Tm": 445.15, 
	 "num_atms": 29, 
	 "gaussian": { 
		 "optdone": 1, 
		 "sigma_profile": "yes", 
		 "theory": "DFT", 
		 "functional": "B3LYP", 
		 "basiset": "6-31G**", 
		 "properties": { 
			 "R2extent": 6928.9218, 
			 "electric_dipole_moment_norm": 3.75629542235, 
			 "electric_quadrupole_moment_norm": 18.1022468931, 
			 "total_energy": -1553.84485621, 
			 "HOMO_LUMO_gap": 0.16822, 
			 "cosmo_polarized_energy": -14.97, 
			 "cosmo_cavitation_energy": 37.48, 
			 "cosmo_dispersion_energy": -27.26, 
			 "cosmo_repulsion_energy": 1.99, 
			 "cosmo_total_nonelectrostatic_energy": 12.21, 
			 "SMD_solvation_energy": 4.12 
		},
		"coords": [
			{
				"x": -4.6239312274,
				"y": -1.4680678041,
				"z": 1.1327052058,
				"element": "C" 
			},
			{
				"x": -3.3814825079,
				"y": -1.9516880992,
				"z": 0.4472597457,
				"element": "C" 
			},
			{
				"x": -3.2593407103,
				"y": -3.2304697277,
				"z": 0.19969074,
				"element": "N" 
			},
			{
				"x": -2.1396416981,
				"y": -3.7350710381,
				"z": -0.4191878983,
				"element": "N" 
			},
			{
				"x": -1.2242314731,
				"y": -2.8816692999,
				"z": -0.7561294035,
				"element": "C" 
			},
			{
				"x": 0.3048064105,
				"y": -3.2788363459,
				"z": -1.5496330047,
				"element": "S" 
			},
			{
				"x": 0.6856300816,
				"y": -1.5396900359,
				"z": -1.5182640236,
				"element": "C" 
			},
			{
				"x": 2.1928868256,
				"y": -0.9702383012,
				"z": -2.2002081812,
				"element": "S" 
			},
			{
				"x": 2.0930906125,
				"y": 0.8510736702,
				"z": -1.7986862984,
				"element": "C" 
			},
			{
				"x": 2.4759558165,
				"y": 1.2195051198,
				"z": -0.3899503322,
				"element": "C" 
			},
			{
				"x": 1.492758042,
				"y": 1.5174686507,
				"z": 0.5641521209,
				"element": "C" 
			},
			{
				"x": 1.8616001681,
				"y": 1.8859200547,
				"z": 1.8593829193,
				"element": "C" 
			},
			{
				"x": 3.2088397371,
				"y": 1.9583523235,
				"z": 2.2155767739,
				"element": "C" 
			},
			{
				"x": 4.1934325875,
				"y": 1.6626743793,
				"z": 1.2693302932,
				"element": "C" 
			},
			{
				"x": 3.8278014255,
				"y": 1.2974464442,
				"z": -0.0247516995,
				"element": "C" 
			},
			{
				"x": -0.2080763928,
				"y": -0.7717515875,
				"z": -0.9850354197,
				"element": "N" 
			},
			{
				"x": -1.2740129463,
				"y": -1.519927309,
				"z": -0.5509410606,
				"element": "N" 
			},
			{
				"x": -2.3769005483,
				"y": -0.9268820095,
				"z": 0.1067984258,
				"element": "C" 
			},
			{
				"x": -2.4432614174,
				"y": 0.2667018647,
				"z": 0.3373043441,
				"element": "O" 
			},
			{
				"x": -4.3732484698,
				"y": -0.9691018808,
				"z": 2.0749919147,
				"element": "H" 
			},
			{
				"x": -5.2860037541,
				"y": -2.3123166792,
				"z": 1.3269349119,
				"element": "H" 
			},
			{
				"x": -5.1400711515,
				"y": -0.7257262669,
				"z": 0.5144946585,
				"element": "H" 
			},
			{
				"x": 1.0806495032,
				"y": 1.1690937673,
				"z": -2.0502314719,
				"element": "H" 
			},
			{
				"x": 2.7851547545,
				"y": 1.2784178804,
				"z": -2.5295141323,
				"element": "H" 
			},
			{
				"x": 0.4429538731,
				"y": 1.4480285185,
				"z": 0.2968795955,
				"element": "H" 
			},
			{
				"x": 1.0915012116,
				"y": 2.1167311896,
				"z": 2.5896465621,
				"element": "H" 
			},
			{
				"x": 3.4920860093,
				"y": 2.2461051578,
				"z": 3.2239493634,
				"element": "H" 
			},
			{
				"x": 5.2442109899,
				"y": 1.7217635415,
				"z": 1.5379297872,
				"element": "H" 
			},
			{
				"x": 4.5975442483,
				"y": 1.0720538226,
				"z": -0.7593944361,
				"element": "H" 
			}
		],
		 "valence_orbital": [ 
			{
				"type": "occ",
				"energy": -0.26995,
				"method": "rhf"
			},
			{
				"type": "occ",
				"energy": -0.25681,
				"method": "rhf"
			},
			{
				"type": "occ",
				"energy": -0.25187,
				"method": "rhf"
			},
			{
				"type": "occ",
				"energy": -0.25109,
				"method": "rhf"
			},
			{
				"type": "occ",
				"energy": -0.24131,
				"method": "rhf"
			},
			{
				"type": "unocc",
				"energy": -0.07309,
				"method": "rhf"
			},
			{
				"type": "unocc",
				"energy": -0.03898,
				"method": "rhf"
			},
			{
				"type": "unocc",
				"energy": -0.02952,
				"method": "rhf"
			},
			{
				"type": "unocc",
				"energy": -0.02586,
				"method": "rhf"
			},
			{
				"type": "unocc",
				"energy": -0.02236,
				"method": "rhf"
			}
		],
		"cosmo_sigma_profile": { 
			"-0.025": 0.0,
			"-0.024": 0.0,
			"-0.023": 0.0,
			"-0.022": 0.0,
			"-0.021": 0.0,
			"-0.02": 0.0,
			"-0.019": 0.0,
			"-0.018": 0.0,
			"-0.017": 0.0,
			"-0.016": 0.0,
			"-0.015": 0.0,
			"-0.014": 0.0,
			"-0.013": 0.0,
			"-0.012": 0.0,
			"-0.011": 0.0,
			"-0.01": 0.0116040194786,
			"-0.009": 2.3826316937,
			"-0.008": 6.07168333518,
			"-0.007": 9.31840676191,
			"-0.006": 16.2905239179,
			"-0.005": 24.0068131155,
			"-0.004": 26.697656351,
			"-0.003": 28.5390925837,
			"-0.002": 25.5291966001,
			"-0.001": 26.6757260796,
			"0.0": 18.7845949679,
			"0.001": 16.7565569532,
			"0.002": 15.9676079053,
			"0.003": 16.02208358,
			"0.004": 16.0862102679,
			"0.005": 15.7028662776,
			"0.006": 8.84590580833,
			"0.007": 3.49577814763,
			"0.008": 3.53605046194,
			"0.009": 4.33946271632,
			"0.01": 4.94938097118,
			"0.011": 6.75204323277,
			"0.012": 5.15848843522,
			"0.013": 2.20428232437,
			"0.014": 1.38632929878,
			"0.015": 0.194175332257,
			"0.016": 0.0,
			"0.017": 0.0,
			"0.018": 0.0,
			"0.019": 0.0,
			"0.02": 0.0,
			"0.021": 0.0,
			"0.022": 0.0,
			"0.023": 0.0,
			"0.024": 0.0,
			"0.025": 0.0
		}
	}
}
