{
	 "smiles": "CSC1=CC=CC=C1N=CC1=CC(=CC(=C1O)C(C)(C)C)C(C)(C)C", 
	 "Tm": 408.5, 
	 "num_atms": 54, 
	 "gaussian": { 
		 "optdone": 1, 
		 "sigma_profile": "yes", 
		 "theory": "DFT", 
		 "functional": "B3LYP", 
		 "basiset": "6-31G**", 
		 "properties": { 
			 "R2extent": 11361.1324, 
			 "electric_dipole_moment_norm": 1.80111251453, 
			 "electric_quadrupole_moment_norm": 8.89412412439, 
			 "total_energy": -1383.98765194, 
			 "HOMO_LUMO_gap": 0.15143, 
			 "cosmo_polarized_energy": -11.39, 
			 "cosmo_cavitation_energy": 54.47, 
			 "cosmo_dispersion_energy": -35.05, 
			 "cosmo_repulsion_energy": 2.66, 
			 "cosmo_total_nonelectrostatic_energy": 22.08, 
			 "SMD_solvation_energy": 8.99 
		},
		"coords": [
			{
				"x": 5.7437103275,
				"y": -2.4345208788,
				"z": -0.0845380247,
				"element": "C" 
			},
			{
				"x": 5.0099637485,
				"y": -0.7645864025,
				"z": 0.1109082594,
				"element": "S" 
			},
			{
				"x": 4.114509776,
				"y": -0.5783241378,
				"z": -1.4306122572,
				"element": "C" 
			},
			{
				"x": 4.4789933962,
				"y": 0.4591316016,
				"z": -2.298102316,
				"element": "C" 
			},
			{
				"x": 3.7750289711,
				"y": 0.696242391,
				"z": -3.4793928333,
				"element": "C" 
			},
			{
				"x": 2.694087727,
				"y": -0.1223384831,
				"z": -3.8095922037,
				"element": "C" 
			},
			{
				"x": 2.3086391291,
				"y": -1.1515430389,
				"z": -2.9540102393,
				"element": "C" 
			},
			{
				"x": 2.993496039,
				"y": -1.3819499607,
				"z": -1.7490131552,
				"element": "C" 
			},
			{
				"x": 2.6554695915,
				"y": -2.4824277347,
				"z": -0.9407955946,
				"element": "N" 
			},
			{
				"x": 1.5245113871,
				"y": -2.6241249925,
				"z": -0.3574887463,
				"element": "C" 
			},
			{
				"x": 0.3862651924,
				"y": -1.6942282563,
				"z": -0.2008266146,
				"element": "C" 
			},
			{
				"x": 0.5877893239,
				"y": -0.3092804837,
				"z": -0.0541357493,
				"element": "C" 
			},
			{
				"x": -0.468777234,
				"y": 0.5484635726,
				"z": 0.2231578418,
				"element": "C" 
			},
			{
				"x": -1.7481529091,
				"y": -0.0267351054,
				"z": 0.35249902,
				"element": "C" 
			},
			{
				"x": -2.01968718,
				"y": -1.3902595962,
				"z": 0.2156782519,
				"element": "C" 
			},
			{
				"x": -0.9141888174,
				"y": -2.2221198746,
				"z": -0.0757728976,
				"element": "C" 
			},
			{
				"x": -1.1422074454,
				"y": -3.5664264412,
				"z": -0.2411299429,
				"element": "O" 
			},
			{
				"x": -3.4501801257,
				"y": -1.9540447364,
				"z": 0.3629678142,
				"element": "C" 
			},
			{
				"x": -3.496792835,
				"y": -2.992222047,
				"z": 1.5117013106,
				"element": "C" 
			},
			{
				"x": -4.4719933698,
				"y": -0.8492150059,
				"z": 0.70103087,
				"element": "C" 
			},
			{
				"x": -3.9024404551,
				"y": -2.6116037108,
				"z": -0.9647097259,
				"element": "C" 
			},
			{
				"x": -0.2903692997,
				"y": 2.068311137,
				"z": 0.3952729826,
				"element": "C" 
			},
			{
				"x": 1.1786234015,
				"y": 2.5014334782,
				"z": 0.2281732937,
				"element": "C" 
			},
			{
				"x": -1.1353960738,
				"y": 2.8085070597,
				"z": -0.6690202117,
				"element": "C" 
			},
			{
				"x": -0.7605123921,
				"y": 2.4908526738,
				"z": 1.807465021,
				"element": "C" 
			},
			{
				"x": 6.4560493532,
				"y": -2.4479345738,
				"z": -0.9118326278,
				"element": "H" 
			},
			{
				"x": 4.956057777,
				"y": -3.1716216717,
				"z": -0.2439772659,
				"element": "H" 
			},
			{
				"x": 6.2693081923,
				"y": -2.6472843598,
				"z": 0.8493892795,
				"element": "H" 
			},
			{
				"x": 5.3330458835,
				"y": 1.0758511432,
				"z": -2.0361581129,
				"element": "H" 
			},
			{
				"x": 4.08016549,
				"y": 1.5008046336,
				"z": -4.1415013541,
				"element": "H" 
			},
			{
				"x": 2.1462384186,
				"y": 0.0389990066,
				"z": -4.7336747357,
				"element": "H" 
			},
			{
				"x": 1.4689423286,
				"y": -1.7915742045,
				"z": -3.2063048133,
				"element": "H" 
			},
			{
				"x": 1.4039023994,
				"y": -3.5870711576,
				"z": 0.1559178346,
				"element": "H" 
			},
			{
				"x": 1.5983602054,
				"y": 0.0662768932,
				"z": -0.1352632726,
				"element": "H" 
			},
			{
				"x": -2.5771925596,
				"y": 0.6346665445,
				"z": 0.5689684891,
				"element": "H" 
			},
			{
				"x": -0.3690470232,
				"y": -3.9823556086,
				"z": -0.6412051831,
				"element": "H" 
			},
			{
				"x": -4.5158002885,
				"y": -3.3806689066,
				"z": 1.6211988508,
				"element": "H" 
			},
			{
				"x": -2.8295447557,
				"y": -3.8346108908,
				"z": 1.326109668,
				"element": "H" 
			},
			{
				"x": -3.2106456984,
				"y": -2.5293480603,
				"z": 2.4624100094,
				"element": "H" 
			},
			{
				"x": -5.4643660338,
				"y": -1.2992822007,
				"z": 0.8044944919,
				"element": "H" 
			},
			{
				"x": -4.5376792251,
				"y": -0.0908509814,
				"z": -0.0863077911,
				"element": "H" 
			},
			{
				"x": -4.2398774834,
				"y": -0.3470433354,
				"z": 1.6461475543,
				"element": "H" 
			},
			{
				"x": -4.9227421606,
				"y": -2.9980802027,
				"z": -0.8604877241,
				"element": "H" 
			},
			{
				"x": -3.2517645565,
				"y": -3.4394847186,
				"z": -1.2481711066,
				"element": "H" 
			},
			{
				"x": -3.9033332232,
				"y": -1.8782483515,
				"z": -1.7785161174,
				"element": "H" 
			},
			{
				"x": 1.2581911336,
				"y": 3.586617575,
				"z": 0.3499035759,
				"element": "H" 
			},
			{
				"x": 1.8279688145,
				"y": 2.0378839312,
				"z": 0.978057731,
				"element": "H" 
			},
			{
				"x": 1.5692842193,
				"y": 2.2502545883,
				"z": -0.763220226,
				"element": "H" 
			},
			{
				"x": -0.8151258511,
				"y": 2.5366278967,
				"z": -1.6801476535,
				"element": "H" 
			},
			{
				"x": -1.0245270843,
				"y": 3.8930690087,
				"z": -0.5573248685,
				"element": "H" 
			},
			{
				"x": -2.2007529167,
				"y": 2.5738445422,
				"z": -0.5813093649,
				"element": "H" 
			},
			{
				"x": -0.6420708712,
				"y": 3.5720925741,
				"z": 1.9411926074,
				"element": "H" 
			},
			{
				"x": -0.17331284,
				"y": 1.9867987146,
				"z": 2.5820352869,
				"element": "H" 
			},
			{
				"x": -1.8144215178,
				"y": 2.2499811447,
				"z": 1.9774626859,
				"element": "H" 
			}
		],
		 "valence_orbital": [ 
			{
				"type": "occ",
				"energy": -0.25607,
				"method": "rhf"
			},
			{
				"type": "occ",
				"energy": -0.24556,
				"method": "rhf"
			},
			{
				"type": "occ",
				"energy": -0.22492,
				"method": "rhf"
			},
			{
				"type": "occ",
				"energy": -0.22031,
				"method": "rhf"
			},
			{
				"type": "occ",
				"energy": -0.20819,
				"method": "rhf"
			},
			{
				"type": "unocc",
				"energy": -0.05676,
				"method": "rhf"
			},
			{
				"type": "unocc",
				"energy": -0.01146,
				"method": "rhf"
			},
			{
				"type": "unocc",
				"energy": 7e-05,
				"method": "rhf"
			},
			{
				"type": "unocc",
				"energy": 0.00821,
				"method": "rhf"
			},
			{
				"type": "unocc",
				"energy": 0.02967,
				"method": "rhf"
			}
		],
		"cosmo_sigma_profile": { 
			"-0.025": 0.0,
			"-0.024": 0.0,
			"-0.023": 0.0,
			"-0.022": 0.0,
			"-0.021": 0.0,
			"-0.02": 0.0,
			"-0.019": 0.0,
			"-0.018": 0.0225329015692,
			"-0.017": 0.979174718361,
			"-0.016": 0.644356503263,
			"-0.015": 1.4627747015,
			"-0.014": 0.694095066126,
			"-0.013": 0.500250019844,
			"-0.012": 0.854291332655,
			"-0.011": 1.41854979158,
			"-0.01": 1.00136543125,
			"-0.009": 1.09848565183,
			"-0.008": 1.57974995422,
			"-0.007": 1.57420266127,
			"-0.006": 8.6144646133,
			"-0.005": 15.6511557841,
			"-0.004": 18.0392618046,
			"-0.003": 31.6701972503,
			"-0.002": 52.3610877127,
			"-0.001": 48.8433017852,
			"0.0": 48.2264201823,
			"0.001": 58.6729208525,
			"0.002": 43.1964128667,
			"0.003": 25.4811824287,
			"0.004": 23.21061813,
			"0.005": 19.8535251843,
			"0.006": 9.05748092893,
			"0.007": 5.06073261187,
			"0.008": 3.62808359269,
			"0.009": 2.66979671789,
			"0.01": 1.9903048415,
			"0.011": 0.779511337887,
			"0.012": 0.0,
			"0.013": 0.0,
			"0.014": 0.0,
			"0.015": 0.0,
			"0.016": 0.0,
			"0.017": 0.0,
			"0.018": 0.0,
			"0.019": 0.0,
			"0.02": 0.0,
			"0.021": 0.0,
			"0.022": 0.0,
			"0.023": 0.0,
			"0.024": 0.0,
			"0.025": 0.0
		}
	}
}
