{
	 "smiles": "CC1=CN2C(=O)C=C(CCl)N=C2C=C1", 
	 "Tm": 410.15, 
	 "num_atms": 23, 
	 "gaussian": { 
		 "optdone": 1, 
		 "sigma_profile": "yes", 
		 "theory": "DFT", 
		 "functional": "B3LYP", 
		 "basiset": "6-31G**", 
		 "properties": { 
			 "R2extent": 3979.5604, 
			 "electric_dipole_moment_norm": 4.72559648722, 
			 "electric_quadrupole_moment_norm": 12.4967777839, 
			 "total_energy": -1031.42469105, 
			 "HOMO_LUMO_gap": 0.15475, 
			 "cosmo_polarized_energy": -13.3, 
			 "cosmo_cavitation_energy": 29.08, 
			 "cosmo_dispersion_energy": -21.46, 
			 "cosmo_repulsion_energy": 1.69, 
			 "cosmo_total_nonelectrostatic_energy": 9.3, 
			 "SMD_solvation_energy": 4.18 
		},
		"coords": [
			{
				"x": -0.2393965619,
				"y": -4.4435329364,
				"z": -0.5931297747,
				"element": "C" 
			},
			{
				"x": -0.5500621366,
				"y": -2.9874897832,
				"z": -0.3626427653,
				"element": "C" 
			},
			{
				"x": -0.1132217821,
				"y": -2.3331397639,
				"z": 0.7534593206,
				"element": "C" 
			},
			{
				"x": -0.3888127927,
				"y": -1.0010085987,
				"z": 0.9760768527,
				"element": "N" 
			},
			{
				"x": 0.1356381441,
				"y": -0.4182157001,
				"z": 2.2147537177,
				"element": "C" 
			},
			{
				"x": 0.7742123193,
				"y": -1.1292484804,
				"z": 2.9788709651,
				"element": "O" 
			},
			{
				"x": -0.1963534967,
				"y": 0.9624062173,
				"z": 2.3492911066,
				"element": "C" 
			},
			{
				"x": -0.9347611262,
				"y": 1.620033121,
				"z": 1.3871221242,
				"element": "C" 
			},
			{
				"x": -1.2694699306,
				"y": 3.0788537423,
				"z": 1.5463247688,
				"element": "C" 
			},
			{
				"x": -0.0759650935,
				"y": 4.1351379214,
				"z": 0.6579294892,
				"element": "Cl" 
			},
			{
				"x": -1.4097244363,
				"y": 1.039570456,
				"z": 0.2630119508,
				"element": "N" 
			},
			{
				"x": -1.1299457374,
				"y": -0.2430808074,
				"z": 0.0732493024,
				"element": "C" 
			},
			{
				"x": -1.5936712924,
				"y": -0.9178567484,
				"z": -1.0961307802,
				"element": "C" 
			},
			{
				"x": -1.3155033607,
				"y": -2.2379916489,
				"z": -1.3089385983,
				"element": "C" 
			},
			{
				"x": 0.3508727108,
				"y": -4.8599948815,
				"z": 0.2265354192,
				"element": "H" 
			},
			{
				"x": 0.325787619,
				"y": -4.5837892487,
				"z": -1.5216185366,
				"element": "H" 
			},
			{
				"x": -1.158579855,
				"y": -5.0338591692,
				"z": -0.6816621518,
				"element": "H" 
			},
			{
				"x": 0.4725702801,
				"y": -2.7851828793,
				"z": 1.5439037809,
				"element": "H" 
			},
			{
				"x": 0.1663033287,
				"y": 1.4669538678,
				"z": 3.2364704125,
				"element": "H" 
			},
			{
				"x": -1.2379732908,
				"y": 3.3935987557,
				"z": 2.5888665003,
				"element": "H" 
			},
			{
				"x": -2.244249371,
				"y": 3.291588197,
				"z": 1.1093303643,
				"element": "H" 
			},
			{
				"x": -2.1688449893,
				"y": -0.3213698365,
				"z": -1.7939650016,
				"element": "H" 
			},
			{
				"x": -1.6771491489,
				"y": -2.730181796,
				"z": -2.2078084668,
				"element": "H" 
			}
		],
		 "valence_orbital": [ 
			{
				"type": "occ",
				"energy": -0.29316,
				"method": "rhf"
			},
			{
				"type": "occ",
				"energy": -0.28149,
				"method": "rhf"
			},
			{
				"type": "occ",
				"energy": -0.27521,
				"method": "rhf"
			},
			{
				"type": "occ",
				"energy": -0.26753,
				"method": "rhf"
			},
			{
				"type": "occ",
				"energy": -0.2207,
				"method": "rhf"
			},
			{
				"type": "unocc",
				"energy": -0.06595,
				"method": "rhf"
			},
			{
				"type": "unocc",
				"energy": -0.05643,
				"method": "rhf"
			},
			{
				"type": "unocc",
				"energy": 0.00282,
				"method": "rhf"
			},
			{
				"type": "unocc",
				"energy": 0.03871,
				"method": "rhf"
			},
			{
				"type": "unocc",
				"energy": 0.07723,
				"method": "rhf"
			}
		],
		"cosmo_sigma_profile": { 
			"-0.025": 0.0,
			"-0.024": 0.0,
			"-0.023": 0.0,
			"-0.022": 0.0,
			"-0.021": 0.0,
			"-0.02": 0.0,
			"-0.019": 0.0,
			"-0.018": 0.0,
			"-0.017": 0.0,
			"-0.016": 0.0,
			"-0.015": 0.0,
			"-0.014": 0.0,
			"-0.013": 0.0,
			"-0.012": 0.0,
			"-0.011": 0.0,
			"-0.01": 0.0,
			"-0.009": 0.551958108949,
			"-0.008": 7.29315694817,
			"-0.007": 11.9830301228,
			"-0.006": 11.4311918951,
			"-0.005": 17.3747322341,
			"-0.004": 18.462297242,
			"-0.003": 17.460204265,
			"-0.002": 18.677677091,
			"-0.001": 22.2765175774,
			"0.0": 19.5185717389,
			"0.001": 15.2039297321,
			"0.002": 11.135121754,
			"0.003": 7.75478189444,
			"0.004": 7.4667384475,
			"0.005": 8.69478512624,
			"0.006": 12.9828675491,
			"0.007": 6.02574410666,
			"0.008": 2.07605965483,
			"0.009": 2.68010323407,
			"0.01": 2.49185754904,
			"0.011": 3.28083624406,
			"0.012": 3.78633969694,
			"0.013": 4.39879188032,
			"0.014": 1.9838910278,
			"0.015": 0.0295676256042,
			"0.016": 0.0,
			"0.017": 0.0,
			"0.018": 0.0,
			"0.019": 0.0,
			"0.02": 0.0,
			"0.021": 0.0,
			"0.022": 0.0,
			"0.023": 0.0,
			"0.024": 0.0,
			"0.025": 0.0
		}
	}
}
