{
	 "smiles": "O=C1OC(=O)C=C1", 
	 "Tm": 326.55, 
	 "num_atms": 9, 
	 "gaussian": { 
		 "optdone": 1, 
		 "sigma_profile": "yes", 
		 "theory": "DFT", 
		 "functional": "B3LYP", 
		 "basiset": "6-31G**", 
		 "properties": { 
			 "R2extent": 2240.2198, 
			 "electric_dipole_moment_norm": 4.06436699376, 
			 "electric_quadrupole_moment_norm": 13.4621534069, 
			 "total_energy": -379.285869872, 
			 "HOMO_LUMO_gap": 0.1817, 
			 "cosmo_polarized_energy": -10.48, 
			 "cosmo_cavitation_energy": 14.56, 
			 "cosmo_dispersion_energy": -10.87, 
			 "cosmo_repulsion_energy": 0.93, 
			 "cosmo_total_nonelectrostatic_energy": 4.62, 
			 "SMD_solvation_energy": 5.06 
		},
		"coords": [
			{
				"x": 0.4750332808,
				"y": -3.6420137659,
				"z": -0.6189020198,
				"element": "O" 
			},
			{
				"x": 0.7991043065,
				"y": -2.9178434712,
				"z": 0.2788692022,
				"element": "C" 
			},
			{
				"x": 1.6010501735,
				"y": -3.3419028529,
				"z": 1.3361073632,
				"element": "O" 
			},
			{
				"x": 1.7939945648,
				"y": -2.2714382098,
				"z": 2.2065317999,
				"element": "C" 
			},
			{
				"x": 2.4484043231,
				"y": -2.3596865344,
				"z": 3.2062266502,
				"element": "O" 
			},
			{
				"x": 1.0574367609,
				"y": -1.1001182795,
				"z": 1.6490892295,
				"element": "C" 
			},
			{
				"x": 0.4706655255,
				"y": -1.4814436677,
				"z": 0.5115240171,
				"element": "C" 
			},
			{
				"x": 1.0493518894,
				"y": -0.1380421413,
				"z": 2.143606044,
				"element": "H" 
			},
			{
				"x": -0.1457408246,
				"y": -0.9147110772,
				"z": -0.1733522863,
				"element": "H" 
			}
		],
		 "valence_orbital": [ 
			{
				"type": "occ",
				"energy": -0.41963,
				"method": "rhf"
			},
			{
				"type": "occ",
				"energy": -0.34682,
				"method": "rhf"
			},
			{
				"type": "occ",
				"energy": -0.33118,
				"method": "rhf"
			},
			{
				"type": "occ",
				"energy": -0.32629,
				"method": "rhf"
			},
			{
				"type": "occ",
				"energy": -0.2988,
				"method": "rhf"
			},
			{
				"type": "unocc",
				"energy": -0.1171,
				"method": "rhf"
			},
			{
				"type": "unocc",
				"energy": 0.02379,
				"method": "rhf"
			},
			{
				"type": "unocc",
				"energy": 0.05022,
				"method": "rhf"
			},
			{
				"type": "unocc",
				"energy": 0.09038,
				"method": "rhf"
			},
			{
				"type": "unocc",
				"energy": 0.12281,
				"method": "rhf"
			}
		],
		"cosmo_sigma_profile": { 
			"-0.025": 0.0,
			"-0.024": 0.0,
			"-0.023": 0.0,
			"-0.022": 0.0,
			"-0.021": 0.0,
			"-0.02": 0.0,
			"-0.019": 0.0,
			"-0.018": 0.0,
			"-0.017": 0.0,
			"-0.016": 0.0,
			"-0.015": 0.0,
			"-0.014": 0.0,
			"-0.013": 0.0,
			"-0.012": 0.0229303109498,
			"-0.011": 3.07797477995,
			"-0.01": 4.34438867935,
			"-0.009": 4.72732230028,
			"-0.008": 4.79855061915,
			"-0.007": 7.17350610428,
			"-0.006": 7.01196498658,
			"-0.005": 7.19145694085,
			"-0.004": 7.72961175819,
			"-0.003": 6.34818474794,
			"-0.002": 5.22276200162,
			"-0.001": 4.47329422018,
			"0.0": 2.2414401716,
			"0.001": 2.67323489123,
			"0.002": 3.79673867911,
			"0.003": 3.33670513641,
			"0.004": 3.19487367034,
			"0.005": 5.01669581824,
			"0.006": 6.24495925776,
			"0.007": 6.38686452834,
			"0.008": 6.97027560476,
			"0.009": 10.4988284101,
			"0.01": 5.76066074404,
			"0.011": 0.167347789796,
			"0.012": 0.0,
			"0.013": 0.0,
			"0.014": 0.0,
			"0.015": 0.0,
			"0.016": 0.0,
			"0.017": 0.0,
			"0.018": 0.0,
			"0.019": 0.0,
			"0.02": 0.0,
			"0.021": 0.0,
			"0.022": 0.0,
			"0.023": 0.0,
			"0.024": 0.0,
			"0.025": 0.0
		}
	}
}
