{
	 "smiles": "CC1=C(C(NC(=S)N1)C1=CC=CC=C1)C(=O)OCC1=CC=CC=C1", 
	 "Tm": 448.15, 
	 "num_atms": 42, 
	 "gaussian": { 
		 "optdone": 1, 
		 "sigma_profile": "yes", 
		 "theory": "DFT", 
		 "functional": "B3LYP", 
		 "basiset": "6-31G**", 
		 "properties": { 
			 "R2extent": 9709.3001, 
			 "electric_dipole_moment_norm": 4.75530652745, 
			 "electric_quadrupole_moment_norm": 22.4562256826, 
			 "total_energy": -1393.03826919, 
			 "HOMO_LUMO_gap": 0.15546, 
			 "cosmo_polarized_energy": -19.31, 
			 "cosmo_cavitation_energy": 47.06, 
			 "cosmo_dispersion_energy": -32.08, 
			 "cosmo_repulsion_energy": 2.42, 
			 "cosmo_total_nonelectrostatic_energy": 17.41, 
			 "SMD_solvation_energy": 6.75 
		},
		"coords": [
			{
				"x": -1.3333149557,
				"y": 2.7308866569,
				"z": -0.766638182,
				"element": "C" 
			},
			{
				"x": -0.4054718473,
				"y": 2.2040965548,
				"z": 0.2981813779,
				"element": "C" 
			},
			{
				"x": 0.631277829,
				"y": 1.3333945514,
				"z": 0.1454840498,
				"element": "C" 
			},
			{
				"x": 1.3823737541,
				"y": 0.8320698648,
				"z": 1.3757382849,
				"element": "C" 
			},
			{
				"x": 1.2588423145,
				"y": 1.8290925503,
				"z": 2.4489095974,
				"element": "N" 
			},
			{
				"x": 0.1965799728,
				"y": 2.6338563231,
				"z": 2.6420856944,
				"element": "C" 
			},
			{
				"x": -0.0900384829,
				"y": 3.5158595074,
				"z": 4.037610609,
				"element": "S" 
			},
			{
				"x": -0.6647013823,
				"y": 2.7116536502,
				"z": 1.5636685653,
				"element": "N" 
			},
			{
				"x": 0.935024469,
				"y": -0.5619673553,
				"z": 1.8306835514,
				"element": "C" 
			},
			{
				"x": -0.1783883695,
				"y": -0.738125741,
				"z": 2.6634886181,
				"element": "C" 
			},
			{
				"x": -0.5726971787,
				"y": -2.0174981593,
				"z": 3.0566718467,
				"element": "C" 
			},
			{
				"x": 0.1404373952,
				"y": -3.137218502,
				"z": 2.6243342734,
				"element": "C" 
			},
			{
				"x": 1.2519203979,
				"y": -2.9692495602,
				"z": 1.7970352326,
				"element": "C" 
			},
			{
				"x": 1.6481325892,
				"y": -1.690072915,
				"z": 1.404527961,
				"element": "C" 
			},
			{
				"x": 1.1418465516,
				"y": 0.8124381352,
				"z": -1.12848829,
				"element": "C" 
			},
			{
				"x": 2.111793578,
				"y": 0.0690089603,
				"z": -1.199070927,
				"element": "O" 
			},
			{
				"x": 0.4698859659,
				"y": 1.249671974,
				"z": -2.2229347172,
				"element": "O" 
			},
			{
				"x": 0.93532261,
				"y": 0.7680294404,
				"z": -3.515969003,
				"element": "C" 
			},
			{
				"x": 0.1675578248,
				"y": -0.4492358823,
				"z": -3.9679830768,
				"element": "C" 
			},
			{
				"x": -0.917021741,
				"y": -0.3170478627,
				"z": -4.843530355,
				"element": "C" 
			},
			{
				"x": -1.6365713086,
				"y": -1.4383701904,
				"z": -5.2595579463,
				"element": "C" 
			},
			{
				"x": -1.2773192314,
				"y": -2.7061093441,
				"z": -4.7993236481,
				"element": "C" 
			},
			{
				"x": -0.1968696634,
				"y": -2.8475528879,
				"z": -3.9248142187,
				"element": "C" 
			},
			{
				"x": 0.523309779,
				"y": -1.7269999857,
				"z": -3.5119920027,
				"element": "C" 
			},
			{
				"x": -0.8214277763,
				"y": 3.4630542157,
				"z": -1.3981621811,
				"element": "H" 
			},
			{
				"x": -1.6786882559,
				"y": 1.9305815804,
				"z": -1.4193020376,
				"element": "H" 
			},
			{
				"x": -2.1992637215,
				"y": 3.2183403457,
				"z": -0.3089654072,
				"element": "H" 
			},
			{
				"x": 2.4413858839,
				"y": 0.769782101,
				"z": 1.1114857922,
				"element": "H" 
			},
			{
				"x": 1.8659512468,
				"y": 1.7351050891,
				"z": 3.2516267116,
				"element": "H" 
			},
			{
				"x": -1.4305764587,
				"y": 3.3569996891,
				"z": 1.6931082494,
				"element": "H" 
			},
			{
				"x": -0.7355439352,
				"y": 0.1217593244,
				"z": 3.0224736903,
				"element": "H" 
			},
			{
				"x": -1.434860237,
				"y": -2.1376713977,
				"z": 3.7065534177,
				"element": "H" 
			},
			{
				"x": -0.165299403,
				"y": -4.1323499758,
				"z": 2.9345531316,
				"element": "H" 
			},
			{
				"x": 1.8163928316,
				"y": -3.8342447375,
				"z": 1.4600568969,
				"element": "H" 
			},
			{
				"x": 2.5028359421,
				"y": -1.5589691632,
				"z": 0.7489040004,
				"element": "H" 
			},
			{
				"x": 2.0041077227,
				"y": 0.5627793126,
				"z": -3.4404508443,
				"element": "H" 
			},
			{
				"x": 0.7676481368,
				"y": 1.6084115142,
				"z": -4.1930778921,
				"element": "H" 
			},
			{
				"x": -1.1963718688,
				"y": 0.6697495336,
				"z": -5.2054844252,
				"element": "H" 
			},
			{
				"x": -2.4734530388,
				"y": -1.3224841158,
				"z": -5.9423708545,
				"element": "H" 
			},
			{
				"x": -1.8346328723,
				"y": -3.580743257,
				"z": -5.1225878906,
				"element": "H" 
			},
			{
				"x": 0.0870679823,
				"y": -3.8330326821,
				"z": -3.5667122873,
				"element": "H" 
			},
			{
				"x": 1.3602169509,
				"y": -1.8300771597,
				"z": -2.8282653653,
				"element": "H" 
			}
		],
		 "valence_orbital": [ 
			{
				"type": "occ",
				"energy": -0.25005,
				"method": "rhf"
			},
			{
				"type": "occ",
				"energy": -0.24763,
				"method": "rhf"
			},
			{
				"type": "occ",
				"energy": -0.24078,
				"method": "rhf"
			},
			{
				"type": "occ",
				"energy": -0.21858,
				"method": "rhf"
			},
			{
				"type": "occ",
				"energy": -0.21388,
				"method": "rhf"
			},
			{
				"type": "unocc",
				"energy": -0.05842,
				"method": "rhf"
			},
			{
				"type": "unocc",
				"energy": -0.01537,
				"method": "rhf"
			},
			{
				"type": "unocc",
				"energy": -0.00647,
				"method": "rhf"
			},
			{
				"type": "unocc",
				"energy": -0.00364,
				"method": "rhf"
			},
			{
				"type": "unocc",
				"energy": -0.00113,
				"method": "rhf"
			}
		],
		"cosmo_sigma_profile": { 
			"-0.025": 0.0,
			"-0.024": 0.0,
			"-0.023": 0.0,
			"-0.022": 0.0,
			"-0.021": 0.0,
			"-0.02": 0.0,
			"-0.019": 0.0,
			"-0.018": 0.0,
			"-0.017": 0.0,
			"-0.016": 0.279831202326,
			"-0.015": 1.61177072423,
			"-0.014": 2.22006555922,
			"-0.013": 2.49427810321,
			"-0.012": 1.7061391888,
			"-0.011": 1.81950382562,
			"-0.01": 1.74031240802,
			"-0.009": 2.20503229133,
			"-0.008": 2.68874290936,
			"-0.007": 4.45463792288,
			"-0.006": 14.9765870944,
			"-0.005": 27.4653767541,
			"-0.004": 32.9869328403,
			"-0.003": 35.1185020348,
			"-0.002": 28.0585184511,
			"-0.001": 29.6356095972,
			"0.0": 22.7003747089,
			"0.001": 21.9046791752,
			"0.002": 22.7236096376,
			"0.003": 23.6507651896,
			"0.004": 23.2847842844,
			"0.005": 24.7748606363,
			"0.006": 15.344785115,
			"0.007": 4.96324180432,
			"0.008": 4.85373935249,
			"0.009": 6.73905189039,
			"0.01": 8.45262582832,
			"0.011": 6.95969612887,
			"0.012": 2.4079035293,
			"0.013": 0.0337806752938,
			"0.014": 0.0,
			"0.015": 0.0,
			"0.016": 0.0,
			"0.017": 0.0,
			"0.018": 0.0,
			"0.019": 0.0,
			"0.02": 0.0,
			"0.021": 0.0,
			"0.022": 0.0,
			"0.023": 0.0,
			"0.024": 0.0,
			"0.025": 0.0
		}
	}
}
