{
	 "smiles": "CNCCNS(=O)(=O)C1=CC=C(C)C=C1", 
	 "Tm": 358.15, 
	 "num_atms": 31, 
	 "gaussian": { 
		 "optdone": 1, 
		 "sigma_profile": "yes", 
		 "theory": "DFT", 
		 "functional": "B3LYP", 
		 "basiset": "6-31G**", 
		 "properties": { 
			 "R2extent": 4425.7649, 
			 "electric_dipole_moment_norm": 7.1276212224, 
			 "electric_quadrupole_moment_norm": 27.5015179463, 
			 "total_energy": -1048.77667152, 
			 "HOMO_LUMO_gap": 0.20927, 
			 "cosmo_polarized_energy": -16.98, 
			 "cosmo_cavitation_energy": 34.99, 
			 "cosmo_dispersion_energy": -24.37, 
			 "cosmo_repulsion_energy": 1.91, 
			 "cosmo_total_nonelectrostatic_energy": 12.53, 
			 "SMD_solvation_energy": 3.54 
		},
		"coords": [
			{
				"x": -0.4606032521,
				"y": 3.0806619486,
				"z": -1.9874614419,
				"element": "C" 
			},
			{
				"x": -0.3841761287,
				"y": 3.164216352,
				"z": -0.5314235873,
				"element": "N" 
			},
			{
				"x": 0.6115764703,
				"y": 2.2713072449,
				"z": 0.0605895295,
				"element": "C" 
			},
			{
				"x": 0.4482243271,
				"y": 2.2546275488,
				"z": 1.5844461149,
				"element": "C" 
			},
			{
				"x": -0.9221429874,
				"y": 1.9386194349,
				"z": 1.9976433849,
				"element": "N" 
			},
			{
				"x": -1.3374072176,
				"y": 0.4035200717,
				"z": 2.5187757998,
				"element": "S" 
			},
			{
				"x": -2.7511097734,
				"y": 0.4952141043,
				"z": 2.8864817633,
				"element": "O" 
			},
			{
				"x": -0.2954829257,
				"y": -0.008043667,
				"z": 3.4634898041,
				"element": "O" 
			},
			{
				"x": -1.2338115228,
				"y": -0.7145864903,
				"z": 1.1115908249,
				"element": "C" 
			},
			{
				"x": -0.0863647528,
				"y": -1.4863503405,
				"z": 0.9219378343,
				"element": "C" 
			},
			{
				"x": -0.0032600638,
				"y": -2.3231888358,
				"z": -0.1911260245,
				"element": "C" 
			},
			{
				"x": -1.0521771388,
				"y": -2.4059594125,
				"z": -1.1168714229,
				"element": "C" 
			},
			{
				"x": -0.9701629851,
				"y": -3.3390826876,
				"z": -2.3010495729,
				"element": "C" 
			},
			{
				"x": -2.1983020842,
				"y": -1.6257829112,
				"z": -0.8976450963,
				"element": "C" 
			},
			{
				"x": -2.2981150168,
				"y": -0.785726113,
				"z": 0.208544102,
				"element": "C" 
			},
			{
				"x": -0.8059533513,
				"y": 2.0816495874,
				"z": -2.2747294298,
				"element": "H" 
			},
			{
				"x": -1.1916865205,
				"y": 3.8055234665,
				"z": -2.3574742758,
				"element": "H" 
			},
			{
				"x": 0.4980954941,
				"y": 3.2645994442,
				"z": -2.5032321136,
				"element": "H" 
			},
			{
				"x": -0.1745077001,
				"y": 4.1230420976,
				"z": -0.260995417,
				"element": "H" 
			},
			{
				"x": 1.6533689385,
				"y": 2.5400607035,
				"z": -0.1941659424,
				"element": "H" 
			},
			{
				"x": 0.4365752411,
				"y": 1.265321481,
				"z": -0.3374245296,
				"element": "H" 
			},
			{
				"x": 0.699514661,
				"y": 3.2422417107,
				"z": 1.9945820336,
				"element": "H" 
			},
			{
				"x": 1.1306476706,
				"y": 1.5413836168,
				"z": 2.0529641007,
				"element": "H" 
			},
			{
				"x": -1.614223958,
				"y": 2.3249590608,
				"z": 1.3571698638,
				"element": "H" 
			},
			{
				"x": 0.7159257542,
				"y": -1.441110874,
				"z": 1.6503490213,
				"element": "H" 
			},
			{
				"x": 0.8881370104,
				"y": -2.9276457433,
				"z": -0.3380317256,
				"element": "H" 
			},
			{
				"x": 0.0675218588,
				"y": -3.5488738804,
				"z": -2.5754066442,
				"element": "H" 
			},
			{
				"x": -1.4498174565,
				"y": -4.2997980161,
				"z": -2.0763301519,
				"element": "H" 
			},
			{
				"x": -1.477248013,
				"y": -2.9215818216,
				"z": -3.1762081931,
				"element": "H" 
			},
			{
				"x": -3.0267611526,
				"y": -1.6845316444,
				"z": -1.5990130261,
				"element": "H" 
			},
			{
				"x": -3.196873425,
				"y": -0.2041854359,
				"z": 0.3855244178,
				"element": "H" 
			}
		],
		 "valence_orbital": [ 
			{
				"type": "occ",
				"energy": -0.29143,
				"method": "rhf"
			},
			{
				"type": "occ",
				"energy": -0.27724,
				"method": "rhf"
			},
			{
				"type": "occ",
				"energy": -0.26704,
				"method": "rhf"
			},
			{
				"type": "occ",
				"energy": -0.24829,
				"method": "rhf"
			},
			{
				"type": "occ",
				"energy": -0.24094,
				"method": "rhf"
			},
			{
				"type": "unocc",
				"energy": -0.03167,
				"method": "rhf"
			},
			{
				"type": "unocc",
				"energy": -0.01878,
				"method": "rhf"
			},
			{
				"type": "unocc",
				"energy": 0.06486,
				"method": "rhf"
			},
			{
				"type": "unocc",
				"energy": 0.06999,
				"method": "rhf"
			},
			{
				"type": "unocc",
				"energy": 0.09563,
				"method": "rhf"
			}
		],
		"cosmo_sigma_profile": { 
			"-0.025": 0.0,
			"-0.024": 0.0,
			"-0.023": 0.0,
			"-0.022": 0.0,
			"-0.021": 0.0,
			"-0.02": 0.0,
			"-0.019": 0.0,
			"-0.018": 0.0,
			"-0.017": 0.0,
			"-0.016": 0.0,
			"-0.015": 0.0,
			"-0.014": 0.0,
			"-0.013": 0.0,
			"-0.012": 0.0,
			"-0.011": 0.201990459402,
			"-0.01": 2.38803652233,
			"-0.009": 2.02083857037,
			"-0.008": 2.8750046815,
			"-0.007": 4.37013863268,
			"-0.006": 11.7627486394,
			"-0.005": 19.4790081763,
			"-0.004": 23.8198777138,
			"-0.003": 28.9535141394,
			"-0.002": 30.2100049469,
			"-0.001": 28.8548782481,
			"0.0": 25.6896982226,
			"0.001": 13.3643927496,
			"0.002": 13.2919737222,
			"0.003": 13.9325740359,
			"0.004": 7.19677960237,
			"0.005": 3.92289145032,
			"0.006": 3.80643537016,
			"0.007": 5.44543730029,
			"0.008": 5.15449982172,
			"0.009": 5.31938458074,
			"0.01": 6.06494868314,
			"0.011": 9.14425601196,
			"0.012": 7.5335781685,
			"0.013": 0.466679655284,
			"0.014": 0.0,
			"0.015": 0.0,
			"0.016": 0.0,
			"0.017": 0.0,
			"0.018": 0.0,
			"0.019": 0.0,
			"0.02": 0.0,
			"0.021": 0.0,
			"0.022": 0.0,
			"0.023": 0.0,
			"0.024": 0.0,
			"0.025": 0.0
		}
	}
}
