{
	 "smiles": "CC(C)(C)OC(=O)NC1(CCCCC1)C(O)=O", 
	 "Tm": 450.15, 
	 "num_atms": 38, 
	 "gaussian": { 
		 "optdone": 1, 
		 "sigma_profile": "yes", 
		 "theory": "DFT", 
		 "functional": "B3LYP", 
		 "basiset": "6-31G**", 
		 "properties": { 
			 "R2extent": 4511.7104, 
			 "electric_dipole_moment_norm": 4.41208189521, 
			 "electric_quadrupole_moment_norm": 10.0714700114, 
			 "total_energy": -825.629715679, 
			 "HOMO_LUMO_gap": 0.26497, 
			 "cosmo_polarized_energy": -14.67, 
			 "cosmo_cavitation_energy": 37.58, 
			 "cosmo_dispersion_energy": -25.33, 
			 "cosmo_repulsion_energy": 1.95, 
			 "cosmo_total_nonelectrostatic_energy": 14.2, 
			 "SMD_solvation_energy": 7.67 
		},
		"coords": [
			{
				"x": 3.4577083894,
				"y": 0.8141555847,
				"z": 0.9542483892,
				"element": "C" 
			},
			{
				"x": 2.4414490879,
				"y": -0.3163568228,
				"z": 1.1409732647,
				"element": "C" 
			},
			{
				"x": 2.3477418851,
				"y": -0.7843176575,
				"z": 2.596285922,
				"element": "C" 
			},
			{
				"x": 2.7561798545,
				"y": -1.490249587,
				"z": 0.2114706069,
				"element": "C" 
			},
			{
				"x": 1.1086928376,
				"y": 0.1230112042,
				"z": 0.6660389773,
				"element": "O" 
			},
			{
				"x": 0.4857407712,
				"y": 1.1674234672,
				"z": 1.2428727993,
				"element": "C" 
			},
			{
				"x": 0.8944343543,
				"y": 1.8197265504,
				"z": 2.1868704621,
				"element": "O" 
			},
			{
				"x": -0.7188823831,
				"y": 1.4841266075,
				"z": 0.6177675169,
				"element": "N" 
			},
			{
				"x": -1.5595872291,
				"y": 0.6030916056,
				"z": -0.2384259669,
				"element": "C" 
			},
			{
				"x": -0.7995034653,
				"y": 0.2050968478,
				"z": -1.5594372926,
				"element": "C" 
			},
			{
				"x": -0.9003718317,
				"y": -1.292508245,
				"z": -1.8858236355,
				"element": "C" 
			},
			{
				"x": -2.3458912233,
				"y": -1.7833630611,
				"z": -1.7446255745,
				"element": "C" 
			},
			{
				"x": -2.8391156873,
				"y": -1.6736317701,
				"z": -0.2826093284,
				"element": "C" 
			},
			{
				"x": -2.0493238111,
				"y": -0.6339979857,
				"z": 0.5450199072,
				"element": "C" 
			},
			{
				"x": -2.7497505003,
				"y": 1.4915497963,
				"z": -0.6686809282,
				"element": "C" 
			},
			{
				"x": -2.418445956,
				"y": 2.7670989021,
				"z": -0.9831396727,
				"element": "O" 
			},
			{
				"x": -3.8879370715,
				"y": 1.1054014816,
				"z": -0.7731428293,
				"element": "O" 
			},
			{
				"x": 3.4660076085,
				"y": 1.1518096272,
				"z": -0.086992171,
				"element": "H" 
			},
			{
				"x": 3.2275440651,
				"y": 1.6608200958,
				"z": 1.6010350573,
				"element": "H" 
			},
			{
				"x": 4.4593864311,
				"y": 0.4460469985,
				"z": 1.1980201092,
				"element": "H" 
			},
			{
				"x": 1.582478647,
				"y": -1.5602353843,
				"z": 2.6991840415,
				"element": "H" 
			},
			{
				"x": 2.1051682981,
				"y": 0.0444105089,
				"z": 3.2612375354,
				"element": "H" 
			},
			{
				"x": 3.3072025534,
				"y": -1.2138167099,
				"z": 2.9018603667,
				"element": "H" 
			},
			{
				"x": 3.7339149012,
				"y": -1.9113847086,
				"z": 0.4630824678,
				"element": "H" 
			},
			{
				"x": 2.0054584935,
				"y": -2.2793006474,
				"z": 0.3131679828,
				"element": "H" 
			},
			{
				"x": 2.7792916598,
				"y": -1.1656717374,
				"z": -0.8328021454,
				"element": "H" 
			},
			{
				"x": -1.2488409734,
				"y": 2.0629081264,
				"z": 1.2610835378,
				"element": "H" 
			},
			{
				"x": 0.2443585364,
				"y": 0.5055505002,
				"z": -1.4690076182,
				"element": "H" 
			},
			{
				"x": -1.2203293245,
				"y": 0.7746285901,
				"z": -2.3965937675,
				"element": "H" 
			},
			{
				"x": -0.2412838827,
				"y": -1.8635145944,
				"z": -1.220332488,
				"element": "H" 
			},
			{
				"x": -0.5317776884,
				"y": -1.4570441847,
				"z": -2.904877349,
				"element": "H" 
			},
			{
				"x": -2.438418602,
				"y": -2.8155217054,
				"z": -2.0993525468,
				"element": "H" 
			},
			{
				"x": -2.9865554407,
				"y": -1.1725478884,
				"z": -2.392449264,
				"element": "H" 
			},
			{
				"x": -3.9002458438,
				"y": -1.4197761516,
				"z": -0.2731663703,
				"element": "H" 
			},
			{
				"x": -2.733890614,
				"y": -2.6430733683,
				"z": 0.2186963693,
				"element": "H" 
			},
			{
				"x": -2.6502267543,
				"y": -0.2981228193,
				"z": 1.3969598557,
				"element": "H" 
			},
			{
				"x": -1.1507520093,
				"y": -1.1033874753,
				"z": 0.9568373012,
				"element": "H" 
			},
			{
				"x": -1.4714280825,
				"y": 2.8919660098,
				"z": -0.7950535219,
				"element": "H" 
			}
		],
		 "valence_orbital": [ 
			{
				"type": "occ",
				"energy": -0.31494,
				"method": "rhf"
			},
			{
				"type": "occ",
				"energy": -0.30321,
				"method": "rhf"
			},
			{
				"type": "occ",
				"energy": -0.28223,
				"method": "rhf"
			},
			{
				"type": "occ",
				"energy": -0.27353,
				"method": "rhf"
			},
			{
				"type": "occ",
				"energy": -0.26379,
				"method": "rhf"
			},
			{
				"type": "unocc",
				"energy": 0.00118,
				"method": "rhf"
			},
			{
				"type": "unocc",
				"energy": 0.03016,
				"method": "rhf"
			},
			{
				"type": "unocc",
				"energy": 0.05684,
				"method": "rhf"
			},
			{
				"type": "unocc",
				"energy": 0.06781,
				"method": "rhf"
			},
			{
				"type": "unocc",
				"energy": 0.09013,
				"method": "rhf"
			}
		],
		"cosmo_sigma_profile": { 
			"-0.025": 0.0,
			"-0.024": 0.0,
			"-0.023": 0.0,
			"-0.022": 0.0,
			"-0.021": 0.0,
			"-0.02": 0.0,
			"-0.019": 0.0,
			"-0.018": 0.0,
			"-0.017": 0.0,
			"-0.016": 0.0819380405639,
			"-0.015": 0.647056813986,
			"-0.014": 2.16960880241,
			"-0.013": 1.64808191167,
			"-0.012": 2.60634928796,
			"-0.011": 2.04781059168,
			"-0.01": 2.12209610073,
			"-0.009": 1.39207949525,
			"-0.008": 1.82344445968,
			"-0.007": 2.17004884633,
			"-0.006": 2.30205407022,
			"-0.005": 4.65559979783,
			"-0.004": 17.531893065,
			"-0.003": 27.1370622031,
			"-0.002": 40.787054227,
			"-0.001": 41.9622226969,
			"0.0": 46.1186354858,
			"0.001": 30.0302246692,
			"0.002": 9.13227680138,
			"0.003": 5.79785154595,
			"0.004": 4.53298397141,
			"0.005": 4.30798525768,
			"0.006": 4.32437482404,
			"0.007": 4.21985909375,
			"0.008": 3.85353836264,
			"0.009": 5.25776923633,
			"0.01": 6.88115547524,
			"0.011": 5.36758437055,
			"0.012": 5.97206748773,
			"0.013": 3.74683005727,
			"0.014": 0.179220965685,
			"0.015": 0.0,
			"0.016": 0.0,
			"0.017": 0.0,
			"0.018": 0.0,
			"0.019": 0.0,
			"0.02": 0.0,
			"0.021": 0.0,
			"0.022": 0.0,
			"0.023": 0.0,
			"0.024": 0.0,
			"0.025": 0.0
		}
	}
}
