{
	 "smiles": "CC1NC(=O)C(C)NC1=O", 
	 "Tm": 549.15, 
	 "num_atms": 20, 
	 "gaussian": { 
		 "optdone": 1, 
		 "sigma_profile": "yes", 
		 "theory": "DFT", 
		 "functional": "B3LYP", 
		 "basiset": "6-31G**", 
		 "properties": { 
			 "R2extent": 1616.1016, 
			 "electric_dipole_moment_norm": 1.02091469771, 
			 "electric_quadrupole_moment_norm": 17.0486646677, 
			 "total_energy": -494.651372999, 
			 "HOMO_LUMO_gap": 0.26066, 
			 "cosmo_polarized_energy": -16.43, 
			 "cosmo_cavitation_energy": 22.89, 
			 "cosmo_dispersion_energy": -16.99, 
			 "cosmo_repulsion_energy": 1.4, 
			 "cosmo_total_nonelectrostatic_energy": 7.3, 
			 "SMD_solvation_energy": 4.26 
		},
		"coords": [
			{
				"x": 0.963865676,
				"y": -3.0042302961,
				"z": 1.49022977,
				"element": "C" 
			},
			{
				"x": 0.9227376844,
				"y": -1.9475548607,
				"z": 0.3868534432,
				"element": "C" 
			},
			{
				"x": 1.5412500692,
				"y": -0.7037687832,
				"z": 0.8426734822,
				"element": "N" 
			},
			{
				"x": 1.3035415572,
				"y": 0.5456893574,
				"z": 0.3563656359,
				"element": "C" 
			},
			{
				"x": 1.9737731513,
				"y": 1.5208537994,
				"z": 0.6678146501,
				"element": "O" 
			},
			{
				"x": 0.1374171177,
				"y": 0.6573347395,
				"z": -0.6356370282,
				"element": "C" 
			},
			{
				"x": -0.5687761654,
				"y": 2.0046751813,
				"z": -0.4887585505,
				"element": "C" 
			},
			{
				"x": -0.8120442826,
				"y": -0.4418292911,
				"z": -0.4689480776,
				"element": "N" 
			},
			{
				"x": -0.5185292912,
				"y": -1.7157261191,
				"z": -0.0878463389,
				"element": "C" 
			},
			{
				"x": -1.3328781487,
				"y": -2.6280489518,
				"z": -0.1285202,
				"element": "O" 
			},
			{
				"x": 1.9982299527,
				"y": -3.2554969355,
				"z": 1.7465326236,
				"element": "H" 
			},
			{
				"x": 0.4535526624,
				"y": -3.9042859374,
				"z": 1.1457368409,
				"element": "H" 
			},
			{
				"x": 0.456464588,
				"y": -2.6405224557,
				"z": 2.3882348993,
				"element": "H" 
			},
			{
				"x": 1.4659895526,
				"y": -2.3395839954,
				"z": -0.489968122,
				"element": "H" 
			},
			{
				"x": 2.3561015042,
				"y": -0.7709494342,
				"z": 1.4402021746,
				"element": "H" 
			},
			{
				"x": 0.5942158575,
				"y": 0.6121135827,
				"z": -1.639093265,
				"element": "H" 
			},
			{
				"x": -1.3227434105,
				"y": 2.1334052956,
				"z": -1.2721496997,
				"element": "H" 
			},
			{
				"x": -1.0580222658,
				"y": 2.0766000867,
				"z": 0.4867464593,
				"element": "H" 
			},
			{
				"x": 0.1661672656,
				"y": 2.806552674,
				"z": -0.5665061425,
				"element": "H" 
			},
			{
				"x": -1.7449130743,
				"y": -0.3232276563,
				"z": -0.8447625547,
				"element": "H" 
			}
		],
		 "valence_orbital": [ 
			{
				"type": "occ",
				"energy": -0.35527,
				"method": "rhf"
			},
			{
				"type": "occ",
				"energy": -0.27342,
				"method": "rhf"
			},
			{
				"type": "occ",
				"energy": -0.27116,
				"method": "rhf"
			},
			{
				"type": "occ",
				"energy": -0.25536,
				"method": "rhf"
			},
			{
				"type": "occ",
				"energy": -0.24706,
				"method": "rhf"
			},
			{
				"type": "unocc",
				"energy": 0.0136,
				"method": "rhf"
			},
			{
				"type": "unocc",
				"energy": 0.01455,
				"method": "rhf"
			},
			{
				"type": "unocc",
				"energy": 0.07649,
				"method": "rhf"
			},
			{
				"type": "unocc",
				"energy": 0.09044,
				"method": "rhf"
			},
			{
				"type": "unocc",
				"energy": 0.11045,
				"method": "rhf"
			}
		],
		"cosmo_sigma_profile": { 
			"-0.025": 0.0,
			"-0.024": 0.0,
			"-0.023": 0.0,
			"-0.022": 0.0,
			"-0.021": 0.0,
			"-0.02": 0.0,
			"-0.019": 0.0,
			"-0.018": 0.0,
			"-0.017": 0.0,
			"-0.016": 0.0,
			"-0.015": 0.0,
			"-0.014": 1.18482966418,
			"-0.013": 2.2993516161,
			"-0.012": 2.05501836507,
			"-0.011": 1.93898258101,
			"-0.01": 1.99194049568,
			"-0.009": 2.26405696673,
			"-0.008": 3.57409596743,
			"-0.007": 7.59073399791,
			"-0.006": 10.645671424,
			"-0.005": 10.6136586865,
			"-0.004": 13.8646744203,
			"-0.003": 14.5470472462,
			"-0.002": 16.8070781035,
			"-0.001": 15.4095562114,
			"0.0": 14.732189985,
			"0.001": 6.65243556233,
			"0.002": 5.44854710743,
			"0.003": 3.50972185764,
			"0.004": 2.63201971479,
			"0.005": 2.91150167996,
			"0.006": 3.10406086203,
			"0.007": 3.14882130959,
			"0.008": 2.4553149596,
			"0.009": 1.59703059235,
			"0.01": 3.05556061267,
			"0.011": 3.77897766089,
			"0.012": 3.71395748275,
			"0.013": 9.42317071454,
			"0.014": 7.6135588408,
			"0.015": 0.336007014541,
			"0.016": 0.0,
			"0.017": 0.0,
			"0.018": 0.0,
			"0.019": 0.0,
			"0.02": 0.0,
			"0.021": 0.0,
			"0.022": 0.0,
			"0.023": 0.0,
			"0.024": 0.0,
			"0.025": 0.0
		}
	}
}
