{
	 "smiles": "OC(=O)C1=CC=CC2=C1N=CC=C2", 
	 "Tm": 460.15, 
	 "num_atms": 20, 
	 "gaussian": { 
		 "optdone": 1, 
		 "sigma_profile": "yes", 
		 "theory": "DFT", 
		 "functional": "B3LYP", 
		 "basiset": "6-31G**", 
		 "properties": { 
			 "R2extent": 2528.8535, 
			 "electric_dipole_moment_norm": 7.45358258088, 
			 "electric_quadrupole_moment_norm": 14.3654591796, 
			 "total_energy": -590.509578304, 
			 "HOMO_LUMO_gap": 0.1689, 
			 "cosmo_polarized_energy": -14.18, 
			 "cosmo_cavitation_energy": 24.15, 
			 "cosmo_dispersion_energy": -18.39, 
			 "cosmo_repulsion_energy": 1.41, 
			 "cosmo_total_nonelectrostatic_energy": 7.17, 
			 "SMD_solvation_energy": 4.74 
		},
		"coords": [
			{
				"x": 2.1133199871,
				"y": -1.3633569702,
				"z": 1.9534440259,
				"element": "O" 
			},
			{
				"x": 1.0612904277,
				"y": -1.9018209363,
				"z": 1.3330677707,
				"element": "C" 
			},
			{
				"x": 0.5222114555,
				"y": -2.9116432819,
				"z": 1.7385790722,
				"element": "O" 
			},
			{
				"x": 0.557132933,
				"y": -1.1961310602,
				"z": 0.0878937985,
				"element": "C" 
			},
			{
				"x": -0.5331670922,
				"y": -1.7564439301,
				"z": -0.5518682291,
				"element": "C" 
			},
			{
				"x": -1.085554294,
				"y": -1.1840467589,
				"z": -1.7187079626,
				"element": "C" 
			},
			{
				"x": -0.5430157656,
				"y": -0.0376445853,
				"z": -2.254249349,
				"element": "C" 
			},
			{
				"x": 0.5762732484,
				"y": 0.5772858307,
				"z": -1.6364102386,
				"element": "C" 
			},
			{
				"x": 1.1350884986,
				"y": -0.0042672655,
				"z": -0.4534170738,
				"element": "C" 
			},
			{
				"x": 2.2132337579,
				"y": 0.5602513444,
				"z": 0.169400054,
				"element": "N" 
			},
			{
				"x": 2.7480849414,
				"y": 1.6590373138,
				"z": -0.3274474006,
				"element": "C" 
			},
			{
				"x": 2.264478407,
				"y": 2.3022821674,
				"z": -1.4890939099,
				"element": "C" 
			},
			{
				"x": 1.1803875937,
				"y": 1.7577983552,
				"z": -2.1380345877,
				"element": "C" 
			},
			{
				"x": 2.3954624972,
				"y": -0.546718811,
				"z": 1.4575304244,
				"element": "H" 
			},
			{
				"x": -0.9534131661,
				"y": -2.6595670691,
				"z": -0.1222805026,
				"element": "H" 
			},
			{
				"x": -1.9420643,
				"y": -1.6553261848,
				"z": -2.1907558719,
				"element": "H" 
			},
			{
				"x": -0.9606283974,
				"y": 0.4106924096,
				"z": -3.1518403496,
				"element": "H" 
			},
			{
				"x": 3.6037040484,
				"y": 2.0653777239,
				"z": 0.2078573262,
				"element": "H" 
			},
			{
				"x": 2.7480307191,
				"y": 3.2042701896,
				"z": -1.8483100324,
				"element": "H" 
			},
			{
				"x": 0.7761445003,
				"y": 2.2201715188,
				"z": -3.0348569641,
				"element": "H" 
			}
		],
		 "valence_orbital": [ 
			{
				"type": "occ",
				"energy": -0.29057,
				"method": "rhf"
			},
			{
				"type": "occ",
				"energy": -0.28612,
				"method": "rhf"
			},
			{
				"type": "occ",
				"energy": -0.27453,
				"method": "rhf"
			},
			{
				"type": "occ",
				"energy": -0.25608,
				"method": "rhf"
			},
			{
				"type": "occ",
				"energy": -0.25354,
				"method": "rhf"
			},
			{
				"type": "unocc",
				"energy": -0.08464,
				"method": "rhf"
			},
			{
				"type": "unocc",
				"energy": -0.03876,
				"method": "rhf"
			},
			{
				"type": "unocc",
				"energy": -0.02396,
				"method": "rhf"
			},
			{
				"type": "unocc",
				"energy": 0.04919,
				"method": "rhf"
			},
			{
				"type": "unocc",
				"energy": 0.07621,
				"method": "rhf"
			}
		],
		"cosmo_sigma_profile": { 
			"-0.025": 0.0,
			"-0.024": 0.0,
			"-0.023": 0.0,
			"-0.022": 0.0,
			"-0.021": 0.0,
			"-0.02": 0.0,
			"-0.019": 0.0,
			"-0.018": 0.0,
			"-0.017": 0.0,
			"-0.016": 0.0,
			"-0.015": 0.0,
			"-0.014": 0.0,
			"-0.013": 0.0,
			"-0.012": 0.0,
			"-0.011": 0.0,
			"-0.01": 0.0,
			"-0.009": 0.350387436547,
			"-0.008": 7.58438079441,
			"-0.007": 11.7127651606,
			"-0.006": 13.2675388284,
			"-0.005": 10.8532938306,
			"-0.004": 10.0575893479,
			"-0.003": 11.8441950657,
			"-0.002": 11.7302163213,
			"-0.001": 16.6781368642,
			"0.0": 24.5273298534,
			"0.001": 22.060249052,
			"0.002": 14.9866958527,
			"0.003": 5.52187292649,
			"0.004": 2.366550569,
			"0.005": 2.32040847802,
			"0.006": 1.9506457641,
			"0.007": 2.30538364623,
			"0.008": 2.79018538583,
			"0.009": 2.55093440687,
			"0.01": 3.47523499999,
			"0.011": 4.25103619712,
			"0.012": 6.82354115454,
			"0.013": 3.65729000727,
			"0.014": 1.47690696849,
			"0.015": 0.0624961631601,
			"0.016": 0.0,
			"0.017": 0.0,
			"0.018": 0.0,
			"0.019": 0.0,
			"0.02": 0.0,
			"0.021": 0.0,
			"0.022": 0.0,
			"0.023": 0.0,
			"0.024": 0.0,
			"0.025": 0.0
		}
	}
}
