{
	 "smiles": "C[C@]1(O)CC[C@H]2[C@@H]3CCC4=CC(=O)CC[C@]4(C)[C@H]3CC[C@]12C", 
	 "Tm": 437.15, 
	 "num_atms": 52, 
	 "gaussian": { 
		 "optdone": 1, 
		 "sigma_profile": "yes", 
		 "theory": "DFT", 
		 "functional": "B3LYP", 
		 "basiset": "6-31G**", 
		 "properties": { 
			 "R2extent": 8041.9663, 
			 "electric_dipole_moment_norm": 4.28287582239, 
			 "electric_quadrupole_moment_norm": 27.0491290507, 
			 "total_energy": -930.670189365, 
			 "HOMO_LUMO_gap": 0.18583, 
			 "cosmo_polarized_energy": -14.36, 
			 "cosmo_cavitation_energy": 44.64, 
			 "cosmo_dispersion_energy": -31.42, 
			 "cosmo_repulsion_energy": 2.29, 
			 "cosmo_total_nonelectrostatic_energy": 15.51, 
			 "SMD_solvation_energy": 6.7 
		},
		"coords": [
			{
				"x": -0.8896074933,
				"y": 4.1454080458,
				"z": -1.2516869549,
				"element": "C" 
			},
			{
				"x": -1.8428766504,
				"y": 3.1029731795,
				"z": -1.8462825881,
				"element": "C" 
			},
			{
				"x": -2.0245685173,
				"y": 3.5535443554,
				"z": -3.1902723904,
				"element": "O" 
			},
			{
				"x": -3.1910134588,
				"y": 3.0468457448,
				"z": -1.0452592928,
				"element": "C" 
			},
			{
				"x": -3.1483787369,
				"y": 1.7836246783,
				"z": -0.1401495565,
				"element": "C" 
			},
			{
				"x": -1.706757334,
				"y": 1.257980145,
				"z": -0.2914087456,
				"element": "C" 
			},
			{
				"x": -1.3914899581,
				"y": -0.1937079305,
				"z": 0.0993362434,
				"element": "C" 
			},
			{
				"x": -1.7804677147,
				"y": -0.4865873594,
				"z": 1.5549492491,
				"element": "C" 
			},
			{
				"x": -1.4010696271,
				"y": -1.9176536244,
				"z": 1.9599801889,
				"element": "C" 
			},
			{
				"x": 0.0531513152,
				"y": -2.2241922515,
				"z": 1.6978445806,
				"element": "C" 
			},
			{
				"x": 0.8134988566,
				"y": -2.7786550436,
				"z": 2.665722612,
				"element": "C" 
			},
			{
				"x": 2.1987107474,
				"y": -3.2409989616,
				"z": 2.4738433141,
				"element": "C" 
			},
			{
				"x": 2.856012807,
				"y": -3.7139426387,
				"z": 3.3915557923,
				"element": "O" 
			},
			{
				"x": 2.7295824406,
				"y": -3.152208666,
				"z": 1.0528702452,
				"element": "C" 
			},
			{
				"x": 2.1377455131,
				"y": -1.9551840647,
				"z": 0.3015607159,
				"element": "C" 
			},
			{
				"x": 0.585665738,
				"y": -1.910951161,
				"z": 0.2947253272,
				"element": "C" 
			},
			{
				"x": 0.0372262857,
				"y": -2.9860997065,
				"z": -0.6814545547,
				"element": "C" 
			},
			{
				"x": 0.1268663404,
				"y": -0.4579181324,
				"z": -0.113314667,
				"element": "C" 
			},
			{
				"x": 0.5961535861,
				"y": -0.0450035546,
				"z": -1.5298447949,
				"element": "C" 
			},
			{
				"x": 0.1935898241,
				"y": 1.3958981427,
				"z": -1.9085443173,
				"element": "C" 
			},
			{
				"x": -1.318780282,
				"y": 1.6195500007,
				"z": -1.7454653506,
				"element": "C" 
			},
			{
				"x": -2.0814516748,
				"y": 0.769879527,
				"z": -2.7897616074,
				"element": "C" 
			},
			{
				"x": -0.6300791435,
				"y": 3.9289650838,
				"z": -0.2120804965,
				"element": "H" 
			},
			{
				"x": 0.0301420177,
				"y": 4.2074463834,
				"z": -1.8388403919,
				"element": "H" 
			},
			{
				"x": -1.3736689806,
				"y": 5.1256349439,
				"z": -1.2853247571,
				"element": "H" 
			},
			{
				"x": -2.7318940169,
				"y": 3.0333382539,
				"z": -3.5909048961,
				"element": "H" 
			},
			{
				"x": -3.3294664317,
				"y": 3.9637811428,
				"z": -0.4645477003,
				"element": "H" 
			},
			{
				"x": -4.0313150473,
				"y": 3.0039780182,
				"z": -1.7472614542,
				"element": "H" 
			},
			{
				"x": -3.3998903769,
				"y": 2.0108884129,
				"z": 0.8998735334,
				"element": "H" 
			},
			{
				"x": -3.8716375236,
				"y": 1.0331882824,
				"z": -0.4807417135,
				"element": "H" 
			},
			{
				"x": -1.0735231307,
				"y": 1.8818855705,
				"z": 0.3581144816,
				"element": "H" 
			},
			{
				"x": -1.9729680031,
				"y": -0.8687158273,
				"z": -0.5453529074,
				"element": "H" 
			},
			{
				"x": -2.856051838,
				"y": -0.3372181159,
				"z": 1.7019876361,
				"element": "H" 
			},
			{
				"x": -1.2689729937,
				"y": 0.2266611089,
				"z": 2.2166067735,
				"element": "H" 
			},
			{
				"x": -1.6353246466,
				"y": -2.1020050716,
				"z": 3.0133776974,
				"element": "H" 
			},
			{
				"x": -2.0181275779,
				"y": -2.6187452271,
				"z": 1.378102132,
				"element": "H" 
			},
			{
				"x": 0.3996191722,
				"y": -2.9601771564,
				"z": 3.6554469003,
				"element": "H" 
			},
			{
				"x": 3.8217777077,
				"y": -3.1061670837,
				"z": 1.0905056377,
				"element": "H" 
			},
			{
				"x": 2.4733990712,
				"y": -4.0944273121,
				"z": 0.5484052664,
				"element": "H" 
			},
			{
				"x": 2.5075284414,
				"y": -1.0354623305,
				"z": 0.7735976322,
				"element": "H" 
			},
			{
				"x": 2.5122120841,
				"y": -1.9498092756,
				"z": -0.7267912991,
				"element": "H" 
			},
			{
				"x": 0.4466714874,
				"y": -2.8499020707,
				"z": -1.6863542832,
				"element": "H" 
			},
			{
				"x": 0.3114212489,
				"y": -3.9902588295,
				"z": -0.3449140498,
				"element": "H" 
			},
			{
				"x": -1.0529942529,
				"y": -2.9569403866,
				"z": -0.7587007073,
				"element": "H" 
			},
			{
				"x": 0.6394927251,
				"y": 0.2140951674,
				"z": 0.5946085751,
				"element": "H" 
			},
			{
				"x": 0.1966407736,
				"y": -0.7427434656,
				"z": -2.2737353955,
				"element": "H" 
			},
			{
				"x": 1.6857152446,
				"y": -0.1267362772,
				"z": -1.5960443012,
				"element": "H" 
			},
			{
				"x": 0.5126075432,
				"y": 1.6127937505,
				"z": -2.9356199408,
				"element": "H" 
			},
			{
				"x": 0.7390294923,
				"y": 2.0897023789,
				"z": -1.258287583,
				"element": "H" 
			},
			{
				"x": -1.7709412108,
				"y": 1.0569917173,
				"z": -3.7993306534,
				"element": "H" 
			},
			{
				"x": -3.1676739117,
				"y": 0.8946335292,
				"z": -2.7216378813,
				"element": "H" 
			},
			{
				"x": -1.8837699301,
				"y": -0.2981760385,
				"z": -2.6835993025,
				"element": "H" 
			}
		],
		 "valence_orbital": [ 
			{
				"type": "occ",
				"energy": -0.2948,
				"method": "rhf"
			},
			{
				"type": "occ",
				"energy": -0.28411,
				"method": "rhf"
			},
			{
				"type": "occ",
				"energy": -0.25638,
				"method": "rhf"
			},
			{
				"type": "occ",
				"energy": -0.25036,
				"method": "rhf"
			},
			{
				"type": "occ",
				"energy": -0.22904,
				"method": "rhf"
			},
			{
				"type": "unocc",
				"energy": -0.04321,
				"method": "rhf"
			},
			{
				"type": "unocc",
				"energy": 0.05812,
				"method": "rhf"
			},
			{
				"type": "unocc",
				"energy": 0.06438,
				"method": "rhf"
			},
			{
				"type": "unocc",
				"energy": 0.07323,
				"method": "rhf"
			},
			{
				"type": "unocc",
				"energy": 0.08165,
				"method": "rhf"
			}
		],
		"cosmo_sigma_profile": { 
			"-0.025": 0.0,
			"-0.024": 0.0,
			"-0.023": 0.0,
			"-0.022": 0.0,
			"-0.021": 0.0,
			"-0.02": 0.0,
			"-0.019": 0.0,
			"-0.018": 0.0,
			"-0.017": 0.0,
			"-0.016": 0.0,
			"-0.015": 0.0,
			"-0.014": 0.0685003487715,
			"-0.013": 0.538230101928,
			"-0.012": 0.716754175845,
			"-0.011": 1.48770718065,
			"-0.01": 0.843160060043,
			"-0.009": 0.957800796535,
			"-0.008": 0.718932326176,
			"-0.007": 1.31039264199,
			"-0.006": 1.93510405391,
			"-0.005": 7.16245352214,
			"-0.004": 17.7281017199,
			"-0.003": 41.1896169455,
			"-0.002": 63.0693840166,
			"-0.001": 63.3686410229,
			"0.0": 46.0508575679,
			"0.001": 30.7360148791,
			"0.002": 16.0071128655,
			"0.003": 5.10909283339,
			"0.004": 5.13833920349,
			"0.005": 3.50242933003,
			"0.006": 2.33143164202,
			"0.007": 3.53231355779,
			"0.008": 2.58133439406,
			"0.009": 2.87415911867,
			"0.01": 2.844401095,
			"0.011": 2.79587088485,
			"0.012": 4.55651616085,
			"0.013": 6.49572451437,
			"0.014": 4.87025283898,
			"0.015": 1.82464826117,
			"0.016": 0.0,
			"0.017": 0.0,
			"0.018": 0.0,
			"0.019": 0.0,
			"0.02": 0.0,
			"0.021": 0.0,
			"0.022": 0.0,
			"0.023": 0.0,
			"0.024": 0.0,
			"0.025": 0.0
		}
	}
}
