{
	 "smiles": "NNC1=C(N=C(O1)C1=CC=CC=C1)C#N", 
	 "Tm": 483.15, 
	 "num_atms": 23, 
	 "gaussian": { 
		 "optdone": 1, 
		 "sigma_profile": "yes", 
		 "theory": "DFT", 
		 "functional": "B3LYP", 
		 "basiset": "6-31G**", 
		 "properties": { 
			 "R2extent": 4293.769, 
			 "electric_dipole_moment_norm": 5.1427796764, 
			 "electric_quadrupole_moment_norm": 10.1076390908, 
			 "total_energy": -680.053370278, 
			 "HOMO_LUMO_gap": 0.16334, 
			 "cosmo_polarized_energy": -16.42, 
			 "cosmo_cavitation_energy": 29.44, 
			 "cosmo_dispersion_energy": -21.12, 
			 "cosmo_repulsion_energy": 1.65, 
			 "cosmo_total_nonelectrostatic_energy": 9.97, 
			 "SMD_solvation_energy": 5.45 
		},
		"coords": [
			{
				"x": 3.8250358227,
				"y": -0.3656320147,
				"z": 0.0733909895,
				"element": "N" 
			},
			{
				"x": 2.7412594574,
				"y": -0.7827327626,
				"z": 0.8673773709,
				"element": "N" 
			},
			{
				"x": 1.4571543962,
				"y": -0.5197317722,
				"z": 0.5019259264,
				"element": "C" 
			},
			{
				"x": 0.8567320453,
				"y": 0.3570942342,
				"z": -0.383512444,
				"element": "C" 
			},
			{
				"x": -0.5270271194,
				"y": 0.1999405331,
				"z": -0.2872363319,
				"element": "N" 
			},
			{
				"x": -0.7140950551,
				"y": -0.7167901847,
				"z": 0.6041328858,
				"element": "C" 
			},
			{
				"x": 0.4801883215,
				"y": -1.2093617812,
				"z": 1.1339937431,
				"element": "O" 
			},
			{
				"x": -1.9618611537,
				"y": -1.2781296689,
				"z": 1.1034120224,
				"element": "C" 
			},
			{
				"x": -3.1779889045,
				"y": -0.8058936269,
				"z": 0.5796276463,
				"element": "C" 
			},
			{
				"x": -4.3823515997,
				"y": -1.3267840481,
				"z": 1.0411611204,
				"element": "C" 
			},
			{
				"x": -4.3911214863,
				"y": -2.3200572619,
				"z": 2.0254835617,
				"element": "C" 
			},
			{
				"x": -3.1846930151,
				"y": -2.7906955899,
				"z": 2.5474320605,
				"element": "C" 
			},
			{
				"x": -1.9728004405,
				"y": -2.2752598529,
				"z": 2.0918131263,
				"element": "C" 
			},
			{
				"x": 1.4844400338,
				"y": 1.2870924915,
				"z": -1.2475484918,
				"element": "C" 
			},
			{
				"x": 2.0266308875,
				"y": 2.0445898964,
				"z": -1.9482215539,
				"element": "N" 
			},
			{
				"x": 3.9691751603,
				"y": 0.6315997174,
				"z": 0.2087536166,
				"element": "H" 
			},
			{
				"x": 3.6256225068,
				"y": -0.5210171735,
				"z": -0.91439844,
				"element": "H" 
			},
			{
				"x": 2.900361667,
				"y": -1.6455105577,
				"z": 1.3700533236,
				"element": "H" 
			},
			{
				"x": -3.1574997438,
				"y": -0.0351550853,
				"z": -0.1833683871,
				"element": "H" 
			},
			{
				"x": -5.3182162064,
				"y": -0.9574830092,
				"z": 0.6324273007,
				"element": "H" 
			},
			{
				"x": -5.3335289491,
				"y": -2.7241184304,
				"z": 2.3831356634,
				"element": "H" 
			},
			{
				"x": -3.1858862997,
				"y": -3.5615696304,
				"z": 3.3123634843,
				"element": "H" 
			},
			{
				"x": -1.0362303254,
				"y": -2.6408944224,
				"z": 2.4988018066,
				"element": "H" 
			}
		],
		 "valence_orbital": [ 
			{
				"type": "occ",
				"energy": -0.30799,
				"method": "rhf"
			},
			{
				"type": "occ",
				"energy": -0.29482,
				"method": "rhf"
			},
			{
				"type": "occ",
				"energy": -0.27516,
				"method": "rhf"
			},
			{
				"type": "occ",
				"energy": -0.26364,
				"method": "rhf"
			},
			{
				"type": "occ",
				"energy": -0.2139,
				"method": "rhf"
			},
			{
				"type": "unocc",
				"energy": -0.05056,
				"method": "rhf"
			},
			{
				"type": "unocc",
				"energy": -0.01625,
				"method": "rhf"
			},
			{
				"type": "unocc",
				"energy": -0.01,
				"method": "rhf"
			},
			{
				"type": "unocc",
				"energy": 0.02188,
				"method": "rhf"
			},
			{
				"type": "unocc",
				"energy": 0.04907,
				"method": "rhf"
			}
		],
		"cosmo_sigma_profile": { 
			"-0.025": 0.0,
			"-0.024": 0.0,
			"-0.023": 0.0,
			"-0.022": 0.0,
			"-0.021": 0.0,
			"-0.02": 0.0,
			"-0.019": 0.0,
			"-0.018": 0.0,
			"-0.017": 0.0,
			"-0.016": 0.467684462211,
			"-0.015": 1.31940942305,
			"-0.014": 1.09319163206,
			"-0.013": 1.09224260633,
			"-0.012": 2.9121015503,
			"-0.011": 3.22605398293,
			"-0.01": 3.88506157524,
			"-0.009": 4.41844691395,
			"-0.008": 4.07301479258,
			"-0.007": 4.60282144608,
			"-0.006": 10.9926722618,
			"-0.005": 14.6740760281,
			"-0.004": 16.8214806088,
			"-0.003": 12.1922858153,
			"-0.002": 11.4883399758,
			"-0.001": 15.7483966326,
			"0.0": 16.5915002155,
			"0.001": 17.2308368887,
			"0.002": 17.787394186,
			"0.003": 14.8848190696,
			"0.004": 18.7996086081,
			"0.005": 7.88006591815,
			"0.006": 3.16097511861,
			"0.007": 5.34777898114,
			"0.008": 4.1455057906,
			"0.009": 5.55981991812,
			"0.01": 4.34080504993,
			"0.011": 4.33453999898,
			"0.012": 3.65836813242,
			"0.013": 3.32610731876,
			"0.014": 0.842289495001,
			"0.015": 0.456343757374,
			"0.016": 0.0140546288856,
			"0.017": 0.0,
			"0.018": 0.0,
			"0.019": 0.0,
			"0.02": 0.0,
			"0.021": 0.0,
			"0.022": 0.0,
			"0.023": 0.0,
			"0.024": 0.0,
			"0.025": 0.0
		}
	}
}
