{
	 "smiles": "N#CCN1CCCC2CCCCC12", 
	 "Tm": 316.15, 
	 "num_atms": 31, 
	 "gaussian": { 
		 "optdone": 1, 
		 "sigma_profile": "yes", 
		 "theory": "DFT", 
		 "functional": "B3LYP", 
		 "basiset": "6-31G**", 
		 "properties": { 
			 "R2extent": 2661.551, 
			 "electric_dipole_moment_norm": 4.29884290711, 
			 "electric_quadrupole_moment_norm": 18.4206681651, 
			 "total_energy": -539.500810443, 
			 "HOMO_LUMO_gap": 0.24255, 
			 "cosmo_polarized_energy": -9.32, 
			 "cosmo_cavitation_energy": 30.24, 
			 "cosmo_dispersion_energy": -21.43, 
			 "cosmo_repulsion_energy": 1.69, 
			 "cosmo_total_nonelectrostatic_energy": 10.51, 
			 "SMD_solvation_energy": 3.4 
		},
		"coords": [
			{
				"x": -1.2073632958,
				"y": -0.3486520447,
				"z": 4.1869384206,
				"element": "N" 
			},
			{
				"x": -0.4735040354,
				"y": -0.0090289902,
				"z": 3.3546627012,
				"element": "C" 
			},
			{
				"x": 0.4466034189,
				"y": 0.4464286847,
				"z": 2.2966353406,
				"element": "C" 
			},
			{
				"x": 0.5613898627,
				"y": -0.5352023136,
				"z": 1.2210339119,
				"element": "N" 
			},
			{
				"x": 1.7690791349,
				"y": -0.3399403873,
				"z": 0.4093107952,
				"element": "C" 
			},
			{
				"x": 1.666345263,
				"y": 0.8397677068,
				"z": -0.5682856611,
				"element": "C" 
			},
			{
				"x": 0.4527421132,
				"y": 0.6308655468,
				"z": -1.4816969742,
				"element": "C" 
			},
			{
				"x": -0.8520770276,
				"y": 0.3922277525,
				"z": -0.6935952635,
				"element": "C" 
			},
			{
				"x": -2.0095940995,
				"y": 0.0027470577,
				"z": -1.6571723113,
				"element": "C" 
			},
			{
				"x": -2.9935098017,
				"y": -0.9922032122,
				"z": -1.0278376779,
				"element": "C" 
			},
			{
				"x": -2.2878202124,
				"y": -2.3162659766,
				"z": -0.6521774807,
				"element": "C" 
			},
			{
				"x": -0.8324318635,
				"y": -2.0963322135,
				"z": -0.1592546141,
				"element": "C" 
			},
			{
				"x": -0.6766130775,
				"y": -0.6831689753,
				"z": 0.4239831681,
				"element": "C" 
			},
			{
				"x": 1.4332139741,
				"y": 0.5788953672,
				"z": 2.7555754798,
				"element": "H" 
			},
			{
				"x": 0.1113265978,
				"y": 1.4520055609,
				"z": 1.9834580021,
				"element": "H" 
			},
			{
				"x": 2.624103982,
				"y": -0.2277128525,
				"z": 1.0856776951,
				"element": "H" 
			},
			{
				"x": 1.9416133089,
				"y": -1.2627922438,
				"z": -0.1588221437,
				"element": "H" 
			},
			{
				"x": 1.5710733637,
				"y": 1.7838706637,
				"z": -0.0145129358,
				"element": "H" 
			},
			{
				"x": 2.5867186812,
				"y": 0.9173960698,
				"z": -1.1599462699,
				"element": "H" 
			},
			{
				"x": 0.317250736,
				"y": 1.4838750763,
				"z": -2.1581138488,
				"element": "H" 
			},
			{
				"x": 0.6477666473,
				"y": -0.2388471454,
				"z": -2.125332598,
				"element": "H" 
			},
			{
				"x": -1.1160962535,
				"y": 1.3371211326,
				"z": -0.1969637598,
				"element": "H" 
			},
			{
				"x": -1.5842545765,
				"y": -0.4567090041,
				"z": -2.5601924008,
				"element": "H" 
			},
			{
				"x": -2.5331870662,
				"y": 0.903937234,
				"z": -1.996267232,
				"element": "H" 
			},
			{
				"x": -3.8220302771,
				"y": -1.1926501126,
				"z": -1.7163469421,
				"element": "H" 
			},
			{
				"x": -3.4467838738,
				"y": -0.5414685449,
				"z": -0.1358425139,
				"element": "H" 
			},
			{
				"x": -2.278328048,
				"y": -2.9861437636,
				"z": -1.5198003845,
				"element": "H" 
			},
			{
				"x": -2.8697244807,
				"y": -2.8269658213,
				"z": 0.1233543558,
				"element": "H" 
			},
			{
				"x": -0.5626385128,
				"y": -2.8312510019,
				"z": 0.6047063514,
				"element": "H" 
			},
			{
				"x": -0.1308551031,
				"y": -2.237840029,
				"z": -0.9903936242,
				"element": "H" 
			},
			{
				"x": -1.4961154785,
				"y": -0.5572632203,
				"z": 1.1408184145,
				"element": "H" 
			}
		],
		 "valence_orbital": [ 
			{
				"type": "occ",
				"energy": -0.31999,
				"method": "rhf"
			},
			{
				"type": "occ",
				"energy": -0.30557,
				"method": "rhf"
			},
			{
				"type": "occ",
				"energy": -0.3021,
				"method": "rhf"
			},
			{
				"type": "occ",
				"energy": -0.29648,
				"method": "rhf"
			},
			{
				"type": "occ",
				"energy": -0.21808,
				"method": "rhf"
			},
			{
				"type": "unocc",
				"energy": 0.02447,
				"method": "rhf"
			},
			{
				"type": "unocc",
				"energy": 0.04289,
				"method": "rhf"
			},
			{
				"type": "unocc",
				"energy": 0.06816,
				"method": "rhf"
			},
			{
				"type": "unocc",
				"energy": 0.08101,
				"method": "rhf"
			},
			{
				"type": "unocc",
				"energy": 0.09143,
				"method": "rhf"
			}
		],
		"cosmo_sigma_profile": { 
			"-0.025": 0.0,
			"-0.024": 0.0,
			"-0.023": 0.0,
			"-0.022": 0.0,
			"-0.021": 0.0,
			"-0.02": 0.0,
			"-0.019": 0.0,
			"-0.018": 0.0,
			"-0.017": 0.0,
			"-0.016": 0.0,
			"-0.015": 0.0,
			"-0.014": 0.0,
			"-0.013": 0.0,
			"-0.012": 0.0,
			"-0.011": 0.0,
			"-0.01": 0.0,
			"-0.009": 0.568506403956,
			"-0.008": 3.02970457769,
			"-0.007": 4.18093910397,
			"-0.006": 6.67628468808,
			"-0.005": 8.77102499559,
			"-0.004": 8.9156567023,
			"-0.003": 18.757817545,
			"-0.002": 35.5614592361,
			"-0.001": 40.5723972448,
			"0.0": 33.8119827212,
			"0.001": 26.6012488181,
			"0.002": 8.04560580008,
			"0.003": 3.23008174633,
			"0.004": 4.13572714371,
			"0.005": 2.93036274571,
			"0.006": 3.86730838656,
			"0.007": 3.44345195591,
			"0.008": 4.07460214473,
			"0.009": 4.11364747479,
			"0.01": 4.02308469698,
			"0.011": 3.10031150508,
			"0.012": 3.08318243503,
			"0.013": 2.28344705296,
			"0.014": 0.275859503391,
			"0.015": 0.0,
			"0.016": 0.0,
			"0.017": 0.0,
			"0.018": 0.0,
			"0.019": 0.0,
			"0.02": 0.0,
			"0.021": 0.0,
			"0.022": 0.0,
			"0.023": 0.0,
			"0.024": 0.0,
			"0.025": 0.0
		}
	}
}
