{
	 "smiles": "COC1=CC=C(C=C1)C(C)C(O)=O", 
	 "Tm": 326.15, 
	 "num_atms": 25, 
	 "gaussian": { 
		 "optdone": 1, 
		 "sigma_profile": "yes", 
		 "theory": "DFT", 
		 "functional": "B3LYP", 
		 "basiset": "6-31G**", 
		 "properties": { 
			 "R2extent": 3479.2662, 
			 "electric_dipole_moment_norm": 2.73784315475, 
			 "electric_quadrupole_moment_norm": 6.92809513358, 
			 "total_energy": -613.977635859, 
			 "HOMO_LUMO_gap": 0.21022, 
			 "cosmo_polarized_energy": -11.45, 
			 "cosmo_cavitation_energy": 28.88, 
			 "cosmo_dispersion_energy": -20.6, 
			 "cosmo_repulsion_energy": 1.66, 
			 "cosmo_total_nonelectrostatic_energy": 9.93, 
			 "SMD_solvation_energy": 6.89 
		},
		"coords": [
			{
				"x": 1.4272679317,
				"y": -3.7747485399,
				"z": -2.1113722054,
				"element": "C" 
			},
			{
				"x": 1.4845565599,
				"y": -3.4327644268,
				"z": -0.7363476926,
				"element": "O" 
			},
			{
				"x": 1.1556249309,
				"y": -2.1581682896,
				"z": -0.3743154023,
				"element": "C" 
			},
			{
				"x": 0.7599996082,
				"y": -1.1532650912,
				"z": -1.2631964854,
				"element": "C" 
			},
			{
				"x": 0.4487704513,
				"y": 0.1182259063,
				"z": -0.7710147529,
				"element": "C" 
			},
			{
				"x": 0.5165508513,
				"y": 0.4126794739,
				"z": 0.5913446734,
				"element": "C" 
			},
			{
				"x": 0.920044801,
				"y": -0.6076345026,
				"z": 1.4697882404,
				"element": "C" 
			},
			{
				"x": 1.2355764117,
				"y": -1.8742905989,
				"z": 0.9978621593,
				"element": "C" 
			},
			{
				"x": 0.1337685383,
				"y": 1.7967697315,
				"z": 1.1114805542,
				"element": "C" 
			},
			{
				"x": -1.161834488,
				"y": 1.7754557592,
				"z": 1.9402873515,
				"element": "C" 
			},
			{
				"x": 1.2814575969,
				"y": 2.3575844486,
				"z": 1.9403822534,
				"element": "C" 
			},
			{
				"x": 2.1603406161,
				"y": 3.0572276888,
				"z": 1.1846024979,
				"element": "O" 
			},
			{
				"x": 1.4360451058,
				"y": 2.1933715738,
				"z": 3.1323653806,
				"element": "O" 
			},
			{
				"x": 0.412485431,
				"y": -3.6640081261,
				"z": -2.515467304,
				"element": "H" 
			},
			{
				"x": 2.1182474721,
				"y": -3.1669857165,
				"z": -2.7100823011,
				"element": "H" 
			},
			{
				"x": 1.7252487122,
				"y": -4.8225074052,
				"z": -2.1747547639,
				"element": "H" 
			},
			{
				"x": 0.6929281083,
				"y": -1.3416419751,
				"z": -2.3281524197,
				"element": "H" 
			},
			{
				"x": 0.1453199873,
				"y": 0.8917249768,
				"z": -1.4722642606,
				"element": "H" 
			},
			{
				"x": 0.9986573225,
				"y": -0.3989053156,
				"z": 2.532831413,
				"element": "H" 
			},
			{
				"x": 1.5505685709,
				"y": -2.6641438867,
				"z": 1.6720707123,
				"element": "H" 
			},
			{
				"x": 0.0074369571,
				"y": 2.4562113302,
				"z": 0.2470809504,
				"element": "H" 
			},
			{
				"x": -1.977137334,
				"y": 1.3501014642,
				"z": 1.3489534595,
				"element": "H" 
			},
			{
				"x": -1.4467096066,
				"y": 2.7858614617,
				"z": 2.2507154729,
				"element": "H" 
			},
			{
				"x": -1.031314465,
				"y": 1.1723751882,
				"z": 2.8415766632,
				"element": "H" 
			},
			{
				"x": 2.873399929,
				"y": 3.3316748711,
				"z": 1.7861258057,
				"element": "H" 
			}
		],
		 "valence_orbital": [ 
			{
				"type": "occ",
				"energy": -0.31557,
				"method": "rhf"
			},
			{
				"type": "occ",
				"energy": -0.31422,
				"method": "rhf"
			},
			{
				"type": "occ",
				"energy": -0.27179,
				"method": "rhf"
			},
			{
				"type": "occ",
				"energy": -0.25058,
				"method": "rhf"
			},
			{
				"type": "occ",
				"energy": -0.2159,
				"method": "rhf"
			},
			{
				"type": "unocc",
				"energy": -0.00568,
				"method": "rhf"
			},
			{
				"type": "unocc",
				"energy": 0.00194,
				"method": "rhf"
			},
			{
				"type": "unocc",
				"energy": 0.02654,
				"method": "rhf"
			},
			{
				"type": "unocc",
				"energy": 0.08191,
				"method": "rhf"
			},
			{
				"type": "unocc",
				"energy": 0.09223,
				"method": "rhf"
			}
		],
		"cosmo_sigma_profile": { 
			"-0.025": 0.0,
			"-0.024": 0.0,
			"-0.023": 0.0,
			"-0.022": 0.0,
			"-0.021": 0.0,
			"-0.02": 0.0,
			"-0.019": 0.0,
			"-0.018": 0.632751382844,
			"-0.017": 1.08961226197,
			"-0.016": 0.529301910561,
			"-0.015": 0.810652684758,
			"-0.014": 0.795660987621,
			"-0.013": 0.775876818408,
			"-0.012": 0.954005778704,
			"-0.011": 0.615338054815,
			"-0.01": 0.750956223163,
			"-0.009": 0.726657949671,
			"-0.008": 0.382731271807,
			"-0.007": 1.14656659772,
			"-0.006": 10.1634296442,
			"-0.005": 19.4863308041,
			"-0.004": 21.2802030617,
			"-0.003": 22.3721090251,
			"-0.002": 18.6626835756,
			"-0.001": 15.1893951782,
			"0.0": 14.3395209022,
			"0.001": 13.9945605798,
			"0.002": 11.2928601535,
			"0.003": 12.0588495586,
			"0.004": 13.3485065004,
			"0.005": 14.5911962176,
			"0.006": 7.35398038294,
			"0.007": 4.03283125648,
			"0.008": 4.71537743775,
			"0.009": 3.5517997572,
			"0.01": 4.43417885855,
			"0.011": 3.5005511912,
			"0.012": 3.99678122936,
			"0.013": 0.293772319434,
			"0.014": 0.0,
			"0.015": 0.0,
			"0.016": 0.0,
			"0.017": 0.0,
			"0.018": 0.0,
			"0.019": 0.0,
			"0.02": 0.0,
			"0.021": 0.0,
			"0.022": 0.0,
			"0.023": 0.0,
			"0.024": 0.0,
			"0.025": 0.0
		}
	}
}
