{
	 "smiles": "ClC1=CC=CC2=C1NC(=O)C2=O", 
	 "Tm": 463.0, 
	 "num_atms": 16, 
	 "gaussian": { 
		 "optdone": 1, 
		 "sigma_profile": "yes", 
		 "theory": "DFT", 
		 "functional": "B3LYP", 
		 "basiset": "6-31G**", 
		 "properties": { 
			 "R2extent": 3063.1021, 
			 "electric_dipole_moment_norm": 4.87632018432, 
			 "electric_quadrupole_moment_norm": 11.002248756, 
			 "total_energy": -972.652201692, 
			 "HOMO_LUMO_gap": 0.14158, 
			 "cosmo_polarized_energy": -13.03, 
			 "cosmo_cavitation_energy": 23.35, 
			 "cosmo_dispersion_energy": -17.39, 
			 "cosmo_repulsion_energy": 1.38, 
			 "cosmo_total_nonelectrostatic_energy": 7.34, 
			 "SMD_solvation_energy": 5.06 
		},
		"coords": [
			{
				"x": -1.9955248766,
				"y": 0.8259339599,
				"z": 3.5246146399,
				"element": "Cl" 
			},
			{
				"x": -1.5892853345,
				"y": -0.3598836352,
				"z": 2.2988871876,
				"element": "C" 
			},
			{
				"x": -1.3809033311,
				"y": -1.7024090486,
				"z": 2.6345124092,
				"element": "C" 
			},
			{
				"x": -1.0568034376,
				"y": -2.6477239042,
				"z": 1.6551556855,
				"element": "C" 
			},
			{
				"x": -0.9350865236,
				"y": -2.2642607168,
				"z": 0.3168961939,
				"element": "C" 
			},
			{
				"x": -1.1428541379,
				"y": -0.929221803,
				"z": -0.0129909365,
				"element": "C" 
			},
			{
				"x": -1.4694959961,
				"y": 0.0270815575,
				"z": 0.9696500757,
				"element": "C" 
			},
			{
				"x": -1.6296587955,
				"y": 1.2923581677,
				"z": 0.404347186,
				"element": "N" 
			},
			{
				"x": -1.4256371808,
				"y": 1.2738751243,
				"z": -0.9700050068,
				"element": "C" 
			},
			{
				"x": -1.4943709641,
				"y": 2.2095095701,
				"z": -1.7314353507,
				"element": "O" 
			},
			{
				"x": -1.0896443881,
				"y": -0.2233899556,
				"z": -1.3072646059,
				"element": "C" 
			},
			{
				"x": -0.847860058,
				"y": -0.6408472035,
				"z": -2.4172347262,
				"element": "O" 
			},
			{
				"x": -1.4752996173,
				"y": -2.0005957411,
				"z": 3.6733138963,
				"element": "H" 
			},
			{
				"x": -0.9012884882,
				"y": -3.6809039415,
				"z": 1.9467773129,
				"element": "H" 
			},
			{
				"x": -0.684681701,
				"y": -2.9795016373,
				"z": -0.4600403763,
				"element": "H" 
			},
			{
				"x": -1.8653051696,
				"y": 2.1246792073,
				"z": 0.9258164153,
				"element": "H" 
			}
		],
		 "valence_orbital": [ 
			{
				"type": "occ",
				"energy": -0.33985,
				"method": "rhf"
			},
			{
				"type": "occ",
				"energy": -0.31873,
				"method": "rhf"
			},
			{
				"type": "occ",
				"energy": -0.27915,
				"method": "rhf"
			},
			{
				"type": "occ",
				"energy": -0.25543,
				"method": "rhf"
			},
			{
				"type": "occ",
				"energy": -0.24843,
				"method": "rhf"
			},
			{
				"type": "unocc",
				"energy": -0.10685,
				"method": "rhf"
			},
			{
				"type": "unocc",
				"energy": -0.03396,
				"method": "rhf"
			},
			{
				"type": "unocc",
				"energy": -0.00486,
				"method": "rhf"
			},
			{
				"type": "unocc",
				"energy": 0.00657,
				"method": "rhf"
			},
			{
				"type": "unocc",
				"energy": 0.07733,
				"method": "rhf"
			}
		],
		"cosmo_sigma_profile": { 
			"-0.025": 0.0,
			"-0.024": 0.0,
			"-0.023": 0.0,
			"-0.022": 0.0,
			"-0.021": 0.0,
			"-0.02": 0.0,
			"-0.019": 0.0,
			"-0.018": 0.0,
			"-0.017": 0.0630222181892,
			"-0.016": 0.950988960065,
			"-0.015": 0.650841712779,
			"-0.014": 0.524102631286,
			"-0.013": 1.348832017,
			"-0.012": 0.510639310332,
			"-0.011": 0.965930274258,
			"-0.01": 0.9073543437,
			"-0.009": 1.78389022634,
			"-0.008": 6.52549753146,
			"-0.007": 9.56669710321,
			"-0.006": 9.08797652805,
			"-0.005": 9.6678102557,
			"-0.004": 8.31379731356,
			"-0.003": 11.8265568367,
			"-0.002": 14.6543567849,
			"-0.001": 14.6376494093,
			"0.0": 17.4800262701,
			"0.001": 15.2336691382,
			"0.002": 13.1028961985,
			"0.003": 10.2001405381,
			"0.004": 7.6349045252,
			"0.005": 1.7682464463,
			"0.006": 2.62727668333,
			"0.007": 3.66884094807,
			"0.008": 3.51518022628,
			"0.009": 5.83005176032,
			"0.01": 9.16494443473,
			"0.011": 7.27649612499,
			"0.012": 1.67659437886,
			"0.013": 0.00387602925731,
			"0.014": 0.0,
			"0.015": 0.0,
			"0.016": 0.0,
			"0.017": 0.0,
			"0.018": 0.0,
			"0.019": 0.0,
			"0.02": 0.0,
			"0.021": 0.0,
			"0.022": 0.0,
			"0.023": 0.0,
			"0.024": 0.0,
			"0.025": 0.0
		}
	}
}
