{
	 "smiles": "BrC1=CC=C(CN2CCCS2(=O)=O)C=C1", 
	 "Tm": 332.15, 
	 "num_atms": 27, 
	 "gaussian": { 
		 "optdone": 1, 
		 "sigma_profile": "yes", 
		 "theory": "DFT", 
		 "functional": "B3LYP", 
		 "basiset": "6-31G**", 
		 "properties": { 
			 "R2extent": 7082.9266, 
			 "electric_dipole_moment_norm": 6.3953511827, 
			 "electric_quadrupole_moment_norm": 7.37991653679, 
			 "total_energy": -3563.01558028, 
			 "HOMO_LUMO_gap": 0.21881, 
			 "cosmo_polarized_energy": -18.43, 
			 "cosmo_cavitation_energy": 33.47, 
			 "cosmo_dispersion_energy": -24.57, 
			 "cosmo_repulsion_energy": 1.88, 
			 "cosmo_total_nonelectrostatic_energy": 10.79, 
			 "SMD_solvation_energy": 2.15 
		},
		"coords": [
			{
				"x": 3.0544453782,
				"y": 3.4463526435,
				"z": -3.007562874,
				"element": "Br" 
			},
			{
				"x": 2.3042471889,
				"y": 1.956055559,
				"z": -2.0725327606,
				"element": "C" 
			},
			{
				"x": 1.9375879624,
				"y": 0.8162567733,
				"z": -2.7819187763,
				"element": "C" 
			},
			{
				"x": 1.3946197464,
				"y": -0.2673851642,
				"z": -2.0886050693,
				"element": "C" 
			},
			{
				"x": 1.223146457,
				"y": -0.2209321063,
				"z": -0.7022575633,
				"element": "C" 
			},
			{
				"x": 0.6732508789,
				"y": -1.416138382,
				"z": 0.0470270797,
				"element": "C" 
			},
			{
				"x": -0.6006129007,
				"y": -1.1321279471,
				"z": 0.7361841059,
				"element": "N" 
			},
			{
				"x": -1.0117878649,
				"y": -2.1341836804,
				"z": 1.7310300832,
				"element": "C" 
			},
			{
				"x": -2.4521808335,
				"y": -1.769648659,
				"z": 2.1121531916,
				"element": "C" 
			},
			{
				"x": -3.1875604293,
				"y": -1.5402888398,
				"z": 0.7891127156,
				"element": "C" 
			},
			{
				"x": -1.9262255241,
				"y": -0.8514557504,
				"z": -0.3466073887,
				"element": "S" 
			},
			{
				"x": -2.1141229068,
				"y": 0.5889968044,
				"z": -0.5227189544,
				"element": "O" 
			},
			{
				"x": -1.7957212857,
				"y": -1.7184765951,
				"z": -1.5300793466,
				"element": "O" 
			},
			{
				"x": 1.5928454826,
				"y": 0.9420214366,
				"z": -0.0140980235,
				"element": "C" 
			},
			{
				"x": 2.1329711297,
				"y": 2.0329476464,
				"z": -0.6897934558,
				"element": "C" 
			},
			{
				"x": 2.0665138383,
				"y": 0.7754422934,
				"z": -3.8573209437,
				"element": "H" 
			},
			{
				"x": 1.0882688135,
				"y": -1.1526212261,
				"z": -2.6380452567,
				"element": "H" 
			},
			{
				"x": 1.3731042985,
				"y": -1.7073555099,
				"z": 0.8391220639,
				"element": "H" 
			},
			{
				"x": 0.5701673101,
				"y": -2.2730240986,
				"z": -0.6334027671,
				"element": "H" 
			},
			{
				"x": -0.9628951131,
				"y": -3.1619855192,
				"z": 1.3323992769,
				"element": "H" 
			},
			{
				"x": -0.3362783634,
				"y": -2.071636222,
				"z": 2.5896971993,
				"element": "H" 
			},
			{
				"x": -2.4503196084,
				"y": -0.8522953467,
				"z": 2.7071439184,
				"element": "H" 
			},
			{
				"x": -2.9257345396,
				"y": -2.561310208,
				"z": 2.6986591809,
				"element": "H" 
			},
			{
				"x": -3.5243821791,
				"y": -2.4706261912,
				"z": 0.3266493581,
				"element": "H" 
			},
			{
				"x": -4.0093970117,
				"y": -0.825133431,
				"z": 0.8373182903,
				"element": "H" 
			},
			{
				"x": 1.4465920055,
				"y": 0.9984230964,
				"z": 1.060828007,
				"element": "H" 
			},
			{
				"x": 2.4180580702,
				"y": 2.9311286238,
				"z": -0.1540812909,
				"element": "H" 
			}
		],
		 "valence_orbital": [ 
			{
				"type": "occ",
				"energy": -0.29399,
				"method": "rhf"
			},
			{
				"type": "occ",
				"energy": -0.28127,
				"method": "rhf"
			},
			{
				"type": "occ",
				"energy": -0.25939,
				"method": "rhf"
			},
			{
				"type": "occ",
				"energy": -0.25434,
				"method": "rhf"
			},
			{
				"type": "occ",
				"energy": -0.23502,
				"method": "rhf"
			},
			{
				"type": "unocc",
				"energy": -0.01621,
				"method": "rhf"
			},
			{
				"type": "unocc",
				"energy": -0.00799,
				"method": "rhf"
			},
			{
				"type": "unocc",
				"energy": 0.01271,
				"method": "rhf"
			},
			{
				"type": "unocc",
				"energy": 0.05088,
				"method": "rhf"
			},
			{
				"type": "unocc",
				"energy": 0.06106,
				"method": "rhf"
			}
		],
		"cosmo_sigma_profile": { 
			"-0.025": 0.0,
			"-0.024": 0.0,
			"-0.023": 0.0,
			"-0.022": 0.0,
			"-0.021": 0.0,
			"-0.02": 0.0,
			"-0.019": 0.0,
			"-0.018": 0.0,
			"-0.017": 0.0,
			"-0.016": 0.0,
			"-0.015": 0.0,
			"-0.014": 0.0,
			"-0.013": 0.0,
			"-0.012": 0.0,
			"-0.011": 0.0,
			"-0.01": 0.0,
			"-0.009": 0.21569572721,
			"-0.008": 4.04366961789,
			"-0.007": 12.7112804827,
			"-0.006": 23.765855275,
			"-0.005": 30.340907385,
			"-0.004": 27.592017065,
			"-0.003": 18.8860470869,
			"-0.002": 12.7439552,
			"-0.001": 9.11004321647,
			"0.0": 10.7292756363,
			"0.001": 12.9088879716,
			"0.002": 16.2635664059,
			"0.003": 18.5185234191,
			"0.004": 18.3428689403,
			"0.005": 11.2393539455,
			"0.006": 4.00459037554,
			"0.007": 4.31396053342,
			"0.008": 4.96603281216,
			"0.009": 4.38969096757,
			"0.01": 7.0639242257,
			"0.011": 11.3953119896,
			"0.012": 4.77416126894,
			"0.013": 0.184528341207,
			"0.014": 0.0,
			"0.015": 0.0,
			"0.016": 0.0,
			"0.017": 0.0,
			"0.018": 0.0,
			"0.019": 0.0,
			"0.02": 0.0,
			"0.021": 0.0,
			"0.022": 0.0,
			"0.023": 0.0,
			"0.024": 0.0,
			"0.025": 0.0
		}
	}
}
