{
	 "smiles": "OCC1=CC(=CC=C1)C1=CSC=C1", 
	 "Tm": 362.15, 
	 "num_atms": 23, 
	 "gaussian": { 
		 "optdone": 1, 
		 "sigma_profile": "yes", 
		 "theory": "DFT", 
		 "functional": "B3LYP", 
		 "basiset": "6-31G**", 
		 "properties": { 
			 "R2extent": 3543.1747, 
			 "electric_dipole_moment_norm": 2.25509185844, 
			 "electric_quadrupole_moment_norm": 13.8818192637, 
			 "total_energy": -898.586644509, 
			 "HOMO_LUMO_gap": 0.18917, 
			 "cosmo_polarized_energy": -10.09, 
			 "cosmo_cavitation_energy": 28.4, 
			 "cosmo_dispersion_energy": -21.49, 
			 "cosmo_repulsion_energy": 1.65, 
			 "cosmo_total_nonelectrostatic_energy": 8.56, 
			 "SMD_solvation_energy": 4.88 
		},
		"coords": [
			{
				"x": -0.6994495356,
				"y": 0.1771383248,
				"z": -4.0372107277,
				"element": "O" 
			},
			{
				"x": -0.2164585593,
				"y": -1.0964636338,
				"z": -3.634515856,
				"element": "C" 
			},
			{
				"x": -0.0841617742,
				"y": -1.1452950507,
				"z": -2.1278420816,
				"element": "C" 
			},
			{
				"x": 0.0253754498,
				"y": 0.0288952463,
				"z": -1.3812337742,
				"element": "C" 
			},
			{
				"x": 0.1893957107,
				"y": -0.006413425,
				"z": 0.0137809465,
				"element": "C" 
			},
			{
				"x": 0.2451051213,
				"y": -1.2569038575,
				"z": 0.6507830851,
				"element": "C" 
			},
			{
				"x": 0.1431821029,
				"y": -2.4327555514,
				"z": -0.0902739782,
				"element": "C" 
			},
			{
				"x": -0.0266856703,
				"y": -2.3812952437,
				"z": -1.4734143716,
				"element": "C" 
			},
			{
				"x": 0.3033782427,
				"y": 1.2494880172,
				"z": 0.7858439851,
				"element": "C" 
			},
			{
				"x": 1.031841641,
				"y": 1.3901809363,
				"z": 1.9448326688,
				"element": "C" 
			},
			{
				"x": 0.9506364963,
				"y": 2.9963913729,
				"z": 2.585022447,
				"element": "S" 
			},
			{
				"x": -0.0807517716,
				"y": 3.5070938709,
				"z": 1.2863437134,
				"element": "C" 
			},
			{
				"x": -0.3336221156,
				"y": 2.4862855283,
				"z": 0.4171715616,
				"element": "C" 
			},
			{
				"x": -0.6186870291,
				"y": 0.2363897249,
				"z": -4.9964043033,
				"element": "H" 
			},
			{
				"x": -0.890984701,
				"y": -1.9034882214,
				"z": -3.9640265803,
				"element": "H" 
			},
			{
				"x": 0.7683576932,
				"y": -1.3020640304,
				"z": -4.0876880753,
				"element": "H" 
			},
			{
				"x": -0.0092322346,
				"y": 0.978067386,
				"z": -1.9033234272,
				"element": "H" 
			},
			{
				"x": 0.3383900675,
				"y": -1.3052937377,
				"z": 1.7316076364,
				"element": "H" 
			},
			{
				"x": 0.1764884603,
				"y": -3.3936889438,
				"z": 0.4155691706,
				"element": "H" 
			},
			{
				"x": -0.1217428767,
				"y": -3.3026108671,
				"z": -2.0437359389,
				"element": "H" 
			},
			{
				"x": 1.6424797115,
				"y": 0.646382544,
				"z": 2.4369341023,
				"element": "H" 
			},
			{
				"x": -0.4486506206,
				"y": 4.5230387652,
				"z": 1.252310048,
				"element": "H" 
			},
			{
				"x": -0.9764038087,
				"y": 2.5899208456,
				"z": -0.4492302505,
				"element": "H" 
			}
		],
		 "valence_orbital": [ 
			{
				"type": "occ",
				"energy": -0.28084,
				"method": "rhf"
			},
			{
				"type": "occ",
				"energy": -0.26742,
				"method": "rhf"
			},
			{
				"type": "occ",
				"energy": -0.2395,
				"method": "rhf"
			},
			{
				"type": "occ",
				"energy": -0.23799,
				"method": "rhf"
			},
			{
				"type": "occ",
				"energy": -0.21238,
				"method": "rhf"
			},
			{
				"type": "unocc",
				"energy": -0.02321,
				"method": "rhf"
			},
			{
				"type": "unocc",
				"energy": 0.00249,
				"method": "rhf"
			},
			{
				"type": "unocc",
				"energy": 0.00947,
				"method": "rhf"
			},
			{
				"type": "unocc",
				"energy": 0.03719,
				"method": "rhf"
			},
			{
				"type": "unocc",
				"energy": 0.07197,
				"method": "rhf"
			}
		],
		"cosmo_sigma_profile": { 
			"-0.025": 0.0,
			"-0.024": 0.0,
			"-0.023": 0.0,
			"-0.022": 0.0,
			"-0.021": 0.0,
			"-0.02": 0.0,
			"-0.019": 0.0,
			"-0.018": 0.0,
			"-0.017": 0.0529918581244,
			"-0.016": 0.922255831682,
			"-0.015": 0.995954359633,
			"-0.014": 0.71741710964,
			"-0.013": 1.08419405157,
			"-0.012": 0.997389440341,
			"-0.011": 1.24774422256,
			"-0.01": 0.558179165124,
			"-0.009": 0.638053026163,
			"-0.008": 3.6310531005,
			"-0.007": 5.88462988807,
			"-0.006": 10.0191670397,
			"-0.005": 16.05423686,
			"-0.004": 19.7554226308,
			"-0.003": 17.2643989191,
			"-0.002": 13.0729482843,
			"-0.001": 11.8873903857,
			"0.0": 11.7480625257,
			"0.001": 12.0056021626,
			"0.002": 15.2415047369,
			"0.003": 18.6885016158,
			"0.004": 24.0913550095,
			"0.005": 21.2470230631,
			"0.006": 10.5501556621,
			"0.007": 1.52009998383,
			"0.008": 1.81724908785,
			"0.009": 1.85023078087,
			"0.01": 1.71036375595,
			"0.011": 0.917464577181,
			"0.012": 0.99410824757,
			"0.013": 1.06326042087,
			"0.014": 0.579253194061,
			"0.015": 0.0578319162677,
			"0.016": 0.0,
			"0.017": 0.0,
			"0.018": 0.0,
			"0.019": 0.0,
			"0.02": 0.0,
			"0.021": 0.0,
			"0.022": 0.0,
			"0.023": 0.0,
			"0.024": 0.0,
			"0.025": 0.0
		}
	}
}
