{
	 "smiles": "CCCCC(=O)OCC(=O)C1C(C)CC2C3CC(F)C4=CC(=O)C=CC4(C)C3(F)C(O)CC12C", 
	 "Tm": 468.15, 
	 "num_atms": 70, 
	 "gaussian": { 
		 "optdone": 1, 
		 "sigma_profile": "yes", 
		 "theory": "DFT", 
		 "functional": "B3LYP", 
		 "basiset": "6-31G**", 
		 "properties": { 
			 "R2extent": 19825.0316, 
			 "electric_dipole_moment_norm": 4.03956222133, 
			 "electric_quadrupole_moment_norm": 51.632193676, 
			 "total_energy": -1626.34698154, 
			 "HOMO_LUMO_gap": 0.17361, 
			 "cosmo_polarized_energy": -26.73, 
			 "cosmo_cavitation_energy": 64.38, 
			 "cosmo_dispersion_energy": -42.08, 
			 "cosmo_repulsion_energy": 3.11, 
			 "cosmo_total_nonelectrostatic_energy": 25.4, 
			 "SMD_solvation_energy": 12.11 
		},
		"coords": [
			{
				"x": 1.2777938126,
				"y": -6.5630791717,
				"z": -3.7936767103,
				"element": "C" 
			},
			{
				"x": 2.0724542344,
				"y": -5.365542521,
				"z": -4.3242514624,
				"element": "C" 
			},
			{
				"x": 2.6289182425,
				"y": -4.4793052425,
				"z": -3.204003058,
				"element": "C" 
			},
			{
				"x": 3.4408435916,
				"y": -3.2813419273,
				"z": -3.7424562364,
				"element": "C" 
			},
			{
				"x": 3.9347167781,
				"y": -2.4272046689,
				"z": -2.600720039,
				"element": "C" 
			},
			{
				"x": 4.9347494962,
				"y": -2.6296029936,
				"z": -1.9494609153,
				"element": "O" 
			},
			{
				"x": 3.0796269507,
				"y": -1.3892150463,
				"z": -2.3624136464,
				"element": "O" 
			},
			{
				"x": 3.3096133496,
				"y": -0.6585150347,
				"z": -1.1630947284,
				"element": "C" 
			},
			{
				"x": 2.4789232744,
				"y": -1.2592286628,
				"z": -0.0213992365,
				"element": "C" 
			},
			{
				"x": 2.104090312,
				"y": -2.4132410584,
				"z": -0.118314161,
				"element": "O" 
			},
			{
				"x": 2.0806441031,
				"y": -0.4621277129,
				"z": 1.2282809398,
				"element": "C" 
			},
			{
				"x": 3.0158091207,
				"y": 0.6549643509,
				"z": 1.823436829,
				"element": "C" 
			},
			{
				"x": 4.5224163712,
				"y": 0.5419972804,
				"z": 1.5584222397,
				"element": "C" 
			},
			{
				"x": 2.3986178552,
				"y": 2.0311036411,
				"z": 1.4050663589,
				"element": "C" 
			},
			{
				"x": 1.1965686818,
				"y": 1.661711594,
				"z": 0.5235306371,
				"element": "C" 
			},
			{
				"x": 0.1136585834,
				"y": 2.7107426486,
				"z": 0.2093829147,
				"element": "C" 
			},
			{
				"x": -0.5785089264,
				"y": 3.3492991121,
				"z": 1.4285100775,
				"element": "C" 
			},
			{
				"x": -1.6161915148,
				"y": 4.383619894,
				"z": 1.0197624668,
				"element": "C" 
			},
			{
				"x": -0.9386784439,
				"y": 5.4945783366,
				"z": 0.475053918,
				"element": "F" 
			},
			{
				"x": -2.5871332741,
				"y": 3.8174285703,
				"z": 0.013633571,
				"element": "C" 
			},
			{
				"x": -3.9099276482,
				"y": 3.8996682031,
				"z": 0.2371270396,
				"element": "C" 
			},
			{
				"x": -4.9287099679,
				"y": 3.3431210606,
				"z": -0.6837116188,
				"element": "C" 
			},
			{
				"x": -6.1292025375,
				"y": 3.4598792697,
				"z": -0.4508388209,
				"element": "O" 
			},
			{
				"x": -4.4030316443,
				"y": 2.665006831,
				"z": -1.8768640706,
				"element": "C" 
			},
			{
				"x": -3.0847309568,
				"y": 2.5364961125,
				"z": -2.0917404035,
				"element": "C" 
			},
			{
				"x": -2.0092126929,
				"y": 3.1501421907,
				"z": -1.2253588487,
				"element": "C" 
			},
			{
				"x": -1.3498525773,
				"y": 4.2425111711,
				"z": -2.1377426892,
				"element": "C" 
			},
			{
				"x": -0.9040832998,
				"y": 2.0997742617,
				"z": -0.7963271304,
				"element": "C" 
			},
			{
				"x": -0.1776557757,
				"y": 1.7962305058,
				"z": -1.9830021097,
				"element": "F" 
			},
			{
				"x": -1.4354334388,
				"y": 0.7140145845,
				"z": -0.3314214728,
				"element": "C" 
			},
			{
				"x": -2.2447265616,
				"y": 0.1070635986,
				"z": -1.3268642741,
				"element": "O" 
			},
			{
				"x": -0.2931764273,
				"y": -0.2699666585,
				"z": 0.0271249979,
				"element": "C" 
			},
			{
				"x": 0.7001053437,
				"y": 0.2923531811,
				"z": 1.0554955075,
				"element": "C" 
			},
			{
				"x": 0.0322544723,
				"y": 0.3035799641,
				"z": 2.4535694491,
				"element": "C" 
			},
			{
				"x": 1.9028423275,
				"y": -7.2041458843,
				"z": -3.162045498,
				"element": "H" 
			},
			{
				"x": 0.4248569307,
				"y": -6.235367512,
				"z": -3.188935292,
				"element": "H" 
			},
			{
				"x": 0.8898458265,
				"y": -7.178154645,
				"z": -4.6120869069,
				"element": "H" 
			},
			{
				"x": 1.4318894347,
				"y": -4.7614718753,
				"z": -4.9812187488,
				"element": "H" 
			},
			{
				"x": 2.9009642725,
				"y": -5.7225860258,
				"z": -4.9510337168,
				"element": "H" 
			},
			{
				"x": 1.8116063444,
				"y": -4.1028207063,
				"z": -2.5776286676,
				"element": "H" 
			},
			{
				"x": 3.2745286315,
				"y": -5.0722955362,
				"z": -2.5448822371,
				"element": "H" 
			},
			{
				"x": 4.314285185,
				"y": -3.6395385407,
				"z": -4.2957182513,
				"element": "H" 
			},
			{
				"x": 2.8216166473,
				"y": -2.6770911186,
				"z": -4.4123608973,
				"element": "H" 
			},
			{
				"x": 4.3683218957,
				"y": -0.7207397865,
				"z": -0.8920570688,
				"element": "H" 
			},
			{
				"x": 3.0512148936,
				"y": 0.3827366572,
				"z": -1.364869012,
				"element": "H" 
			},
			{
				"x": 1.9550567923,
				"y": -1.2579278978,
				"z": 1.967318124,
				"element": "H" 
			},
			{
				"x": 2.8958865078,
				"y": 0.5559034284,
				"z": 2.9076651568,
				"element": "H" 
			},
			{
				"x": 4.7891007188,
				"y": 0.8069876396,
				"z": 0.5312808917,
				"element": "H" 
			},
			{
				"x": 5.0676389929,
				"y": 1.2293838679,
				"z": 2.2136644226,
				"element": "H" 
			},
			{
				"x": 4.8969015974,
				"y": -0.4677871499,
				"z": 1.7587820288,
				"element": "H" 
			},
			{
				"x": 3.1181495278,
				"y": 2.653053506,
				"z": 0.8610836697,
				"element": "H" 
			},
			{
				"x": 2.1017558871,
				"y": 2.6014623611,
				"z": 2.2914114463,
				"element": "H" 
			},
			{
				"x": 1.6090885591,
				"y": 1.4326211585,
				"z": -0.4652310334,
				"element": "H" 
			},
			{
				"x": 0.6120574589,
				"y": 3.5272550604,
				"z": -0.3254891746,
				"element": "H" 
			},
			{
				"x": -1.085868473,
				"y": 2.6054961809,
				"z": 2.0453979043,
				"element": "H" 
			},
			{
				"x": 0.1668518238,
				"y": 3.8357208167,
				"z": 2.0659440059,
				"element": "H" 
			},
			{
				"x": -2.1610903988,
				"y": 4.7527784955,
				"z": 1.8952287109,
				"element": "H" 
			},
			{
				"x": -4.3016250629,
				"y": 4.400898347,
				"z": 1.1192793588,
				"element": "H" 
			},
			{
				"x": -5.1360740498,
				"y": 2.2591755043,
				"z": -2.5672078718,
				"element": "H" 
			},
			{
				"x": -2.7293383453,
				"y": 2.046672488,
				"z": -2.9926572252,
				"element": "H" 
			},
			{
				"x": -0.9533929364,
				"y": 3.7788892571,
				"z": -3.0421948471,
				"element": "H" 
			},
			{
				"x": -0.5511583676,
				"y": 4.777131006,
				"z": -1.6273602425,
				"element": "H" 
			},
			{
				"x": -2.1131556748,
				"y": 4.9716983971,
				"z": -2.4187616004,
				"element": "H" 
			},
			{
				"x": -2.1010481637,
				"y": 0.8685429158,
				"z": 0.5237405545,
				"element": "H" 
			},
			{
				"x": -1.6706378704,
				"y": -0.0410285112,
				"z": -2.0922774916,
				"element": "H" 
			},
			{
				"x": -0.7499774677,
				"y": -1.2048493824,
				"z": 0.36676264,
				"element": "H" 
			},
			{
				"x": 0.2262573218,
				"y": -0.5014255961,
				"z": -0.9099011245,
				"element": "H" 
			},
			{
				"x": 0.5929203036,
				"y": 0.8868476376,
				"z": 3.1893024518,
				"element": "H" 
			},
			{
				"x": -0.0359190879,
				"y": -0.7232494342,
				"z": 2.8267493635,
				"element": "H" 
			},
			{
				"x": -0.9873008683,
				"y": 0.6927092135,
				"z": 2.4321708638,
				"element": "H" 
			}
		],
		 "valence_orbital": [ 
			{
				"type": "occ",
				"energy": -0.27775,
				"method": "rhf"
			},
			{
				"type": "occ",
				"energy": -0.27238,
				"method": "rhf"
			},
			{
				"type": "occ",
				"energy": -0.25601,
				"method": "rhf"
			},
			{
				"type": "occ",
				"energy": -0.25442,
				"method": "rhf"
			},
			{
				"type": "occ",
				"energy": -0.23934,
				"method": "rhf"
			},
			{
				"type": "unocc",
				"energy": -0.06573,
				"method": "rhf"
			},
			{
				"type": "unocc",
				"energy": -0.03397,
				"method": "rhf"
			},
			{
				"type": "unocc",
				"energy": -0.00972,
				"method": "rhf"
			},
			{
				"type": "unocc",
				"energy": 0.01025,
				"method": "rhf"
			},
			{
				"type": "unocc",
				"energy": 0.05,
				"method": "rhf"
			}
		],
		"cosmo_sigma_profile": { 
			"-0.025": 0.0,
			"-0.024": 0.0,
			"-0.023": 0.0,
			"-0.022": 0.0,
			"-0.021": 0.0,
			"-0.02": 0.0,
			"-0.019": 0.0,
			"-0.018": 0.0,
			"-0.017": 0.0,
			"-0.016": 0.0,
			"-0.015": 0.0,
			"-0.014": 0.701455975846,
			"-0.013": 0.806550217304,
			"-0.012": 0.437575544025,
			"-0.011": 0.567671317077,
			"-0.01": 1.51992302007,
			"-0.009": 1.75638800682,
			"-0.008": 3.99963826756,
			"-0.007": 12.1134796912,
			"-0.006": 15.7376722156,
			"-0.005": 24.6511010443,
			"-0.004": 42.3021589234,
			"-0.003": 58.9962243571,
			"-0.002": 63.2855130826,
			"-0.001": 52.2894044362,
			"0.0": 49.340609968,
			"0.001": 37.086230768,
			"0.002": 20.9410822579,
			"0.003": 12.8100835365,
			"0.004": 12.9856431648,
			"0.005": 14.0375502824,
			"0.006": 14.6313744839,
			"0.007": 10.4215546202,
			"0.008": 6.5578666156,
			"0.009": 6.21186511284,
			"0.01": 5.94712668236,
			"0.011": 8.9769889643,
			"0.012": 9.4732404113,
			"0.013": 7.86123070559,
			"0.014": 3.1081986054,
			"0.015": 0.438260924847,
			"0.016": 0.0,
			"0.017": 0.0,
			"0.018": 0.0,
			"0.019": 0.0,
			"0.02": 0.0,
			"0.021": 0.0,
			"0.022": 0.0,
			"0.023": 0.0,
			"0.024": 0.0,
			"0.025": 0.0
		}
	}
}
