{
	 "smiles": "CCC(=O)C1=CC=C(O)C=C1O", 
	 "Tm": 372.65, 
	 "num_atms": 22, 
	 "gaussian": { 
		 "optdone": 1, 
		 "sigma_profile": "yes", 
		 "theory": "DFT", 
		 "functional": "B3LYP", 
		 "basiset": "6-31G**", 
		 "properties": { 
			 "R2extent": 2463.8226, 
			 "electric_dipole_moment_norm": 3.95634314235, 
			 "electric_quadrupole_moment_norm": 15.8196380237, 
			 "total_energy": -574.653678645, 
			 "HOMO_LUMO_gap": 0.18767, 
			 "cosmo_polarized_energy": -16.16, 
			 "cosmo_cavitation_energy": 25.63, 
			 "cosmo_dispersion_energy": -18.95, 
			 "cosmo_repulsion_energy": 1.51, 
			 "cosmo_total_nonelectrostatic_energy": 8.2, 
			 "SMD_solvation_energy": 5.72 
		},
		"coords": [
			{
				"x": 1.5573478857,
				"y": 3.0749394014,
				"z": -2.3091525811,
				"element": "C" 
			},
			{
				"x": 0.0772051089,
				"y": 2.778636184,
				"z": -2.0020574091,
				"element": "C" 
			},
			{
				"x": -0.1872613328,
				"y": 1.2821113629,
				"z": -1.9078018048,
				"element": "C" 
			},
			{
				"x": -0.6119266008,
				"y": 0.6940030708,
				"z": -2.8967468813,
				"element": "O" 
			},
			{
				"x": 0.0795562312,
				"y": 0.5013068734,
				"z": -0.6533632755,
				"element": "C" 
			},
			{
				"x": -0.2040607165,
				"y": -0.8759240037,
				"z": -0.7117542529,
				"element": "C" 
			},
			{
				"x": -0.0252937786,
				"y": -1.7302627991,
				"z": 0.3634914198,
				"element": "C" 
			},
			{
				"x": 0.4606373485,
				"y": -1.207253195,
				"z": 1.5703143721,
				"element": "C" 
			},
			{
				"x": 0.6658996194,
				"y": -1.9718612151,
				"z": 2.6762284863,
				"element": "O" 
			},
			{
				"x": 0.7565606699,
				"y": 0.1519067455,
				"z": 1.6714666151,
				"element": "C" 
			},
			{
				"x": 0.5709496062,
				"y": 0.9996270281,
				"z": 0.5762684683,
				"element": "C" 
			},
			{
				"x": 0.8739957896,
				"y": 2.3252558217,
				"z": 0.6939548831,
				"element": "O" 
			},
			{
				"x": 1.7087134149,
				"y": 4.1509092876,
				"z": -2.4406572176,
				"element": "H" 
			},
			{
				"x": 1.8676305111,
				"y": 2.5740801907,
				"z": -3.2314577621,
				"element": "H" 
			},
			{
				"x": 2.2069660801,
				"y": 2.7418872794,
				"z": -1.4956684371,
				"element": "H" 
			},
			{
				"x": -0.5466054551,
				"y": 3.1373584277,
				"z": -2.8255833906,
				"element": "H" 
			},
			{
				"x": -0.2179990089,
				"y": 3.2887374318,
				"z": -1.0829611527,
				"element": "H" 
			},
			{
				"x": -0.5801705287,
				"y": -1.2496073065,
				"z": -1.6580067987,
				"element": "H" 
			},
			{
				"x": -0.2579317277,
				"y": -2.788837164,
				"z": 0.2767802697,
				"element": "H" 
			},
			{
				"x": 0.4264996813,
				"y": -2.886789214,
				"z": 2.4776881129,
				"element": "H" 
			},
			{
				"x": 1.1344962847,
				"y": 0.5365745394,
				"z": 2.615027807,
				"element": "H" 
			},
			{
				"x": 1.1947909176,
				"y": 2.495701253,
				"z": 1.589290529,
				"element": "H" 
			}
		],
		 "valence_orbital": [ 
			{
				"type": "occ",
				"energy": -0.33232,
				"method": "rhf"
			},
			{
				"type": "occ",
				"energy": -0.3139,
				"method": "rhf"
			},
			{
				"type": "occ",
				"energy": -0.24518,
				"method": "rhf"
			},
			{
				"type": "occ",
				"energy": -0.23355,
				"method": "rhf"
			},
			{
				"type": "occ",
				"energy": -0.22796,
				"method": "rhf"
			},
			{
				"type": "unocc",
				"energy": -0.04029,
				"method": "rhf"
			},
			{
				"type": "unocc",
				"energy": -1e-05,
				"method": "rhf"
			},
			{
				"type": "unocc",
				"energy": 0.05078,
				"method": "rhf"
			},
			{
				"type": "unocc",
				"energy": 0.05713,
				"method": "rhf"
			},
			{
				"type": "unocc",
				"energy": 0.06123,
				"method": "rhf"
			}
		],
		"cosmo_sigma_profile": { 
			"-0.025": 0.0,
			"-0.024": 0.0,
			"-0.023": 0.0,
			"-0.022": 0.0,
			"-0.021": 0.0,
			"-0.02": 0.0,
			"-0.019": 0.321951275501,
			"-0.018": 2.06107618342,
			"-0.017": 2.0099810027,
			"-0.016": 2.20517240976,
			"-0.015": 2.39996257405,
			"-0.014": 1.80095023186,
			"-0.013": 1.5303909757,
			"-0.012": 1.29144212498,
			"-0.011": 2.62604379331,
			"-0.01": 2.38327821295,
			"-0.009": 1.81581556232,
			"-0.008": 2.41589332544,
			"-0.007": 3.18424291309,
			"-0.006": 3.76811977411,
			"-0.005": 4.31770126481,
			"-0.004": 6.73480529265,
			"-0.003": 9.61421550069,
			"-0.002": 14.2638573793,
			"-0.001": 19.1255709709,
			"0.0": 19.3508375617,
			"0.001": 16.1969653355,
			"0.002": 14.5244279671,
			"0.003": 19.0353831917,
			"0.004": 14.3026820099,
			"0.005": 6.84713473794,
			"0.006": 5.20243552473,
			"0.007": 3.06497385804,
			"0.008": 2.60898887912,
			"0.009": 3.38494685763,
			"0.01": 3.29337081894,
			"0.011": 3.16047153984,
			"0.012": 3.18187770856,
			"0.013": 3.29372866139,
			"0.014": 1.39320632717,
			"0.015": 0.0460775912213,
			"0.016": 0.0,
			"0.017": 0.0,
			"0.018": 0.0,
			"0.019": 0.0,
			"0.02": 0.0,
			"0.021": 0.0,
			"0.022": 0.0,
			"0.023": 0.0,
			"0.024": 0.0,
			"0.025": 0.0
		}
	}
}
