{
	 "smiles": "CC1=NNC(SCC#N)=N1", 
	 "Tm": 432.15, 
	 "num_atms": 16, 
	 "gaussian": { 
		 "optdone": 1, 
		 "sigma_profile": "yes", 
		 "theory": "DFT", 
		 "functional": "B3LYP", 
		 "basiset": "6-31G**", 
		 "properties": { 
			 "R2extent": 1957.0508, 
			 "electric_dipole_moment_norm": 2.97754386198, 
			 "electric_quadrupole_moment_norm": 13.6106850864, 
			 "total_energy": -811.305788926, 
			 "HOMO_LUMO_gap": 0.21155, 
			 "cosmo_polarized_energy": -15.58, 
			 "cosmo_cavitation_energy": 23.52, 
			 "cosmo_dispersion_energy": -17.11, 
			 "cosmo_repulsion_energy": 1.39, 
			 "cosmo_total_nonelectrostatic_energy": 7.8, 
			 "SMD_solvation_energy": 3.04 
		},
		"coords": [
			{
				"x": 1.7938230111,
				"y": -2.8602070001,
				"z": -2.0800529093,
				"element": "C" 
			},
			{
				"x": 0.6366491087,
				"y": -2.0321233822,
				"z": -1.62825996,
				"element": "C" 
			},
			{
				"x": -0.3795009695,
				"y": -1.729380687,
				"z": -2.4254542266,
				"element": "N" 
			},
			{
				"x": -1.1683688275,
				"y": -0.9690471446,
				"z": -1.6163126781,
				"element": "N" 
			},
			{
				"x": -0.6092720536,
				"y": -0.8636080459,
				"z": -0.3903210543,
				"element": "C" 
			},
			{
				"x": -1.3774798501,
				"y": -0.0010600356,
				"z": 0.9473073798,
				"element": "S" 
			},
			{
				"x": 0.156367631,
				"y": 0.5176659467,
				"z": 1.8342034981,
				"element": "C" 
			},
			{
				"x": 0.7535321349,
				"y": 1.7376877781,
				"z": 1.3002161388,
				"element": "C" 
			},
			{
				"x": 1.2267735029,
				"y": 2.70930837,
				"z": 0.8768626374,
				"element": "N" 
			},
			{
				"x": 0.5327646499,
				"y": -1.5249406814,
				"z": -0.3571041534,
				"element": "N" 
			},
			{
				"x": 1.6541359394,
				"y": -3.159551792,
				"z": -3.1200880822,
				"element": "H" 
			},
			{
				"x": 2.7277302936,
				"y": -2.295935439,
				"z": -1.993949125,
				"element": "H" 
			},
			{
				"x": 1.8932900492,
				"y": -3.7567497981,
				"z": -1.4602783699,
				"element": "H" 
			},
			{
				"x": -2.0144590657,
				"y": -0.5503364759,
				"z": -1.9728807599,
				"element": "H" 
			},
			{
				"x": -0.1309323866,
				"y": 0.6622979596,
				"z": 2.8786362756,
				"element": "H" 
			},
			{
				"x": 0.8620468324,
				"y": -0.3143195726,
				"z": 1.764275389,
				"element": "H" 
			}
		],
		 "valence_orbital": [ 
			{
				"type": "occ",
				"energy": -0.33239,
				"method": "rhf"
			},
			{
				"type": "occ",
				"energy": -0.31955,
				"method": "rhf"
			},
			{
				"type": "occ",
				"energy": -0.29381,
				"method": "rhf"
			},
			{
				"type": "occ",
				"energy": -0.2892,
				"method": "rhf"
			},
			{
				"type": "occ",
				"energy": -0.24796,
				"method": "rhf"
			},
			{
				"type": "unocc",
				"energy": -0.03641,
				"method": "rhf"
			},
			{
				"type": "unocc",
				"energy": 0.00069,
				"method": "rhf"
			},
			{
				"type": "unocc",
				"energy": 0.02573,
				"method": "rhf"
			},
			{
				"type": "unocc",
				"energy": 0.02983,
				"method": "rhf"
			},
			{
				"type": "unocc",
				"energy": 0.04099,
				"method": "rhf"
			}
		],
		"cosmo_sigma_profile": { 
			"-0.025": 0.0,
			"-0.024": 0.0,
			"-0.023": 0.0,
			"-0.022": 0.0,
			"-0.021": 0.0,
			"-0.02": 0.0,
			"-0.019": 0.0,
			"-0.018": 0.859774862539,
			"-0.017": 1.31200976493,
			"-0.016": 1.58761154149,
			"-0.015": 1.37323176517,
			"-0.014": 1.08759764978,
			"-0.013": 0.843953873747,
			"-0.012": 1.82765958928,
			"-0.011": 4.0413395938,
			"-0.01": 3.42578774637,
			"-0.009": 3.76424088149,
			"-0.008": 4.86776975188,
			"-0.007": 4.9812532196,
			"-0.006": 5.62932197475,
			"-0.005": 8.07127836125,
			"-0.004": 8.44256540638,
			"-0.003": 9.75673515545,
			"-0.002": 12.9788029945,
			"-0.001": 16.6938128525,
			"0.0": 12.5046698665,
			"0.001": 12.5275053447,
			"0.002": 10.9662511801,
			"0.003": 9.1152288357,
			"0.004": 6.53491620873,
			"0.005": 9.40000149136,
			"0.006": 5.16060266121,
			"0.007": 4.33684972147,
			"0.008": 6.9538455488,
			"0.009": 5.09110067703,
			"0.01": 4.87986559788,
			"0.011": 4.07667026616,
			"0.012": 4.41952057842,
			"0.013": 1.99498929715,
			"0.014": 1.23451070412,
			"0.015": 0.38505144971,
			"0.016": 0.0,
			"0.017": 0.0,
			"0.018": 0.0,
			"0.019": 0.0,
			"0.02": 0.0,
			"0.021": 0.0,
			"0.022": 0.0,
			"0.023": 0.0,
			"0.024": 0.0,
			"0.025": 0.0
		}
	}
}
