{
	 "smiles": "O=C(OCCOCCOC(=O)C1=CC=CC=C1)C1=CC=CC=C1", 
	 "Tm": 306.65, 
	 "num_atms": 41, 
	 "gaussian": { 
		 "optdone": 1, 
		 "sigma_profile": "yes", 
		 "theory": "DFT", 
		 "functional": "B3LYP", 
		 "basiset": "6-31G**", 
		 "properties": { 
			 "R2extent": 11616.5349, 
			 "electric_dipole_moment_norm": 4.11988317674, 
			 "electric_quadrupole_moment_norm": 12.168375244, 
			 "total_energy": -1072.89542281, 
			 "HOMO_LUMO_gap": 0.20995, 
			 "cosmo_polarized_energy": -15.63, 
			 "cosmo_cavitation_energy": 46.93, 
			 "cosmo_dispersion_energy": -32.15, 
			 "cosmo_repulsion_energy": 2.49, 
			 "cosmo_total_nonelectrostatic_energy": 17.27, 
			 "SMD_solvation_energy": 9.57 
		},
		"coords": [
			{
				"x": 1.6751085697,
				"y": -2.511205474,
				"z": -4.4840054948,
				"element": "O" 
			},
			{
				"x": 0.9538017092,
				"y": -2.2753042055,
				"z": -3.5343970613,
				"element": "C" 
			},
			{
				"x": 0.6587419612,
				"y": -1.0143889931,
				"z": -3.1317323717,
				"element": "O" 
			},
			{
				"x": 1.2647109186,
				"y": 0.0394375757,
				"z": -3.9079453085,
				"element": "C" 
			},
			{
				"x": 0.8739950964,
				"y": 1.3762891962,
				"z": -3.3030511087,
				"element": "C" 
			},
			{
				"x": 1.533108567,
				"y": 1.6323831962,
				"z": -2.07293337,
				"element": "O" 
			},
			{
				"x": 0.8076143605,
				"y": 1.3007020366,
				"z": -0.8957861154,
				"element": "C" 
			},
			{
				"x": 0.0153877678,
				"y": 2.5186832964,
				"z": -0.4139877299,
				"element": "C" 
			},
			{
				"x": -0.8177773804,
				"y": 2.1769174923,
				"z": 0.7123097401,
				"element": "O" 
			},
			{
				"x": -0.2318577848,
				"y": 2.2248662317,
				"z": 1.9354012168,
				"element": "C" 
			},
			{
				"x": 0.9355322353,
				"y": 2.5186738793,
				"z": 2.1060186066,
				"element": "O" 
			},
			{
				"x": -1.1811610597,
				"y": 1.8815045738,
				"z": 3.0316083969,
				"element": "C" 
			},
			{
				"x": -0.6892744306,
				"y": 1.8851213585,
				"z": 4.3443091902,
				"element": "C" 
			},
			{
				"x": -1.5334570619,
				"y": 1.5730133248,
				"z": 5.4068889341,
				"element": "C" 
			},
			{
				"x": -2.8728036095,
				"y": 1.2555233584,
				"z": 5.1645312313,
				"element": "C" 
			},
			{
				"x": -3.3664772414,
				"y": 1.2509208156,
				"z": 3.8574924597,
				"element": "C" 
			},
			{
				"x": -2.5251306255,
				"y": 1.5626925511,
				"z": 2.7907123298,
				"element": "C" 
			},
			{
				"x": 0.299379229,
				"y": -3.3184104714,
				"z": -2.6948590692,
				"element": "C" 
			},
			{
				"x": 0.5644346439,
				"y": -4.6599024539,
				"z": -3.0040745981,
				"element": "C" 
			},
			{
				"x": -0.0184620703,
				"y": -5.6781534611,
				"z": -2.2541975522,
				"element": "C" 
			},
			{
				"x": -0.8707896444,
				"y": -5.3631411025,
				"z": -1.1923284182,
				"element": "C" 
			},
			{
				"x": -1.1391897878,
				"y": -4.0276651001,
				"z": -0.882327118,
				"element": "C" 
			},
			{
				"x": -0.5568334141,
				"y": -3.0053987349,
				"z": -1.6299695611,
				"element": "C" 
			},
			{
				"x": 2.3512682439,
				"y": -0.083320469,
				"z": -3.9014731698,
				"element": "H" 
			},
			{
				"x": 0.9189451381,
				"y": -0.032272284,
				"z": -4.9454937144,
				"element": "H" 
			},
			{
				"x": 1.183975826,
				"y": 2.162337786,
				"z": -4.0023711592,
				"element": "H" 
			},
			{
				"x": -0.2189688541,
				"y": 1.4350507542,
				"z": -3.1995282626,
				"element": "H" 
			},
			{
				"x": 0.1344554652,
				"y": 0.4515248617,
				"z": -1.0593599218,
				"element": "H" 
			},
			{
				"x": 1.5396826656,
				"y": 1.018324038,
				"z": -0.134446053,
				"element": "H" 
			},
			{
				"x": -0.6774182188,
				"y": 2.863575926,
				"z": -1.1858097692,
				"element": "H" 
			},
			{
				"x": 0.6965868749,
				"y": 3.3275174939,
				"z": -0.1425975839,
				"element": "H" 
			},
			{
				"x": 0.3536989246,
				"y": 2.1354877034,
				"z": 4.5060077112,
				"element": "H" 
			},
			{
				"x": -1.1498296148,
				"y": 1.5768011385,
				"z": 6.4228334316,
				"element": "H" 
			},
			{
				"x": -3.5314246462,
				"y": 1.0123109514,
				"z": 5.9935620168,
				"element": "H" 
			},
			{
				"x": -4.4076575499,
				"y": 1.0051345417,
				"z": 3.6702175778,
				"element": "H" 
			},
			{
				"x": -2.9001185176,
				"y": 1.5625796682,
				"z": 1.7738029,
				"element": "H" 
			},
			{
				"x": 1.2289096968,
				"y": -4.8781975542,
				"z": -3.8331597085,
				"element": "H" 
			},
			{
				"x": 0.1902319502,
				"y": -6.7161747135,
				"z": -2.495634729,
				"element": "H" 
			},
			{
				"x": -1.3254341038,
				"y": -6.1574330578,
				"z": -0.6070372541,
				"element": "H" 
			},
			{
				"x": -1.8017308628,
				"y": -3.7830335017,
				"z": -0.0573250421,
				"element": "H" 
			},
			{
				"x": -0.7638733656,
				"y": -1.9678721729,
				"z": -1.3949644983,
				"element": "H" 
			}
		],
		 "valence_orbital": [ 
			{
				"type": "occ",
				"energy": -0.26356,
				"method": "rhf"
			},
			{
				"type": "occ",
				"energy": -0.26132,
				"method": "rhf"
			},
			{
				"type": "occ",
				"energy": -0.26063,
				"method": "rhf"
			},
			{
				"type": "occ",
				"energy": -0.25981,
				"method": "rhf"
			},
			{
				"type": "occ",
				"energy": -0.25793,
				"method": "rhf"
			},
			{
				"type": "unocc",
				"energy": -0.04798,
				"method": "rhf"
			},
			{
				"type": "unocc",
				"energy": -0.04693,
				"method": "rhf"
			},
			{
				"type": "unocc",
				"energy": -0.01011,
				"method": "rhf"
			},
			{
				"type": "unocc",
				"energy": -0.00947,
				"method": "rhf"
			},
			{
				"type": "unocc",
				"energy": 0.05575,
				"method": "rhf"
			}
		],
		"cosmo_sigma_profile": { 
			"-0.025": 0.0,
			"-0.024": 0.0,
			"-0.023": 0.0,
			"-0.022": 0.0,
			"-0.021": 0.0,
			"-0.02": 0.0,
			"-0.019": 0.0,
			"-0.018": 0.0,
			"-0.017": 0.0,
			"-0.016": 0.0,
			"-0.015": 0.0,
			"-0.014": 0.0,
			"-0.013": 0.0,
			"-0.012": 0.0,
			"-0.011": 0.0,
			"-0.01": 0.0,
			"-0.009": 0.0,
			"-0.008": 0.0,
			"-0.007": 3.13767367214,
			"-0.006": 29.7070558995,
			"-0.005": 36.4340754676,
			"-0.004": 36.4856021202,
			"-0.003": 29.3361800621,
			"-0.002": 27.7194967266,
			"-0.001": 23.7835703237,
			"0.0": 23.5877431787,
			"0.001": 28.3681896219,
			"0.002": 30.1113573874,
			"0.003": 29.0448731923,
			"0.004": 29.6811475174,
			"0.005": 10.0481334568,
			"0.006": 4.23834057096,
			"0.007": 3.39356829597,
			"0.008": 4.00900851037,
			"0.009": 4.48982162483,
			"0.01": 3.96333534659,
			"0.011": 7.39586625689,
			"0.012": 7.94784345662,
			"0.013": 0.95901442647,
			"0.014": 0.0,
			"0.015": 0.0,
			"0.016": 0.0,
			"0.017": 0.0,
			"0.018": 0.0,
			"0.019": 0.0,
			"0.02": 0.0,
			"0.021": 0.0,
			"0.022": 0.0,
			"0.023": 0.0,
			"0.024": 0.0,
			"0.025": 0.0
		}
	}
}
