{
	 "smiles": "CC1(C)CC(C(N)=O)C(C)(C)N1", 
	 "Tm": 403.15, 
	 "num_atms": 30, 
	 "gaussian": { 
		 "optdone": 1, 
		 "sigma_profile": "yes", 
		 "theory": "DFT", 
		 "functional": "B3LYP", 
		 "basiset": "6-31G**", 
		 "properties": { 
			 "R2extent": 2484.6406, 
			 "electric_dipole_moment_norm": 4.01496087901, 
			 "electric_quadrupole_moment_norm": 13.9420342311, 
			 "total_energy": -538.560757035, 
			 "HOMO_LUMO_gap": 0.24448, 
			 "cosmo_polarized_energy": -14.77, 
			 "cosmo_cavitation_energy": 29.18, 
			 "cosmo_dispersion_energy": -20.64, 
			 "cosmo_repulsion_energy": 1.63, 
			 "cosmo_total_nonelectrostatic_energy": 10.18, 
			 "SMD_solvation_energy": 4.04 
		},
		"coords": [
			{
				"x": 0.6690819839,
				"y": 0.9702094029,
				"z": -0.8674925034,
				"element": "C" 
			},
			{
				"x": -0.3220475925,
				"y": 1.318884027,
				"z": 0.2594855046,
				"element": "C" 
			},
			{
				"x": -0.8026617332,
				"y": 2.7642165975,
				"z": 0.0785076478,
				"element": "C" 
			},
			{
				"x": 0.3179884679,
				"y": 1.0818025257,
				"z": 1.6577502005,
				"element": "C" 
			},
			{
				"x": -0.0734427113,
				"y": -0.3556705309,
				"z": 2.0713748741,
				"element": "C" 
			},
			{
				"x": 1.1209579877,
				"y": -1.3079741193,
				"z": 2.0845148668,
				"element": "C" 
			},
			{
				"x": 1.0573597057,
				"y": -2.3039435056,
				"z": 3.0218577454,
				"element": "N" 
			},
			{
				"x": 2.0648079618,
				"y": -1.222698637,
				"z": 1.3078366333,
				"element": "O" 
			},
			{
				"x": -1.2344310315,
				"y": -0.7852520511,
				"z": 1.0569556911,
				"element": "C" 
			},
			{
				"x": -2.5113371662,
				"y": -1.1494114321,
				"z": 1.8313426142,
				"element": "C" 
			},
			{
				"x": -0.8581504431,
				"y": -1.9748440839,
				"z": 0.1527286142,
				"element": "C" 
			},
			{
				"x": -1.4947164463,
				"y": 0.4122076959,
				"z": 0.2263963393,
				"element": "N" 
			},
			{
				"x": 1.4470327229,
				"y": 1.7392768384,
				"z": -0.9345962203,
				"element": "H" 
			},
			{
				"x": 0.1446210401,
				"y": 0.9195905318,
				"z": -1.8262542592,
				"element": "H" 
			},
			{
				"x": 1.1760657443,
				"y": 0.0219690848,
				"z": -0.6809783011,
				"element": "H" 
			},
			{
				"x": -1.2872283266,
				"y": 2.8925540767,
				"z": -0.8949194319,
				"element": "H" 
			},
			{
				"x": -1.5208736334,
				"y": 3.04537447,
				"z": 0.8591008783,
				"element": "H" 
			},
			{
				"x": 0.0383692641,
				"y": 3.4622932422,
				"z": 0.1327428279,
				"element": "H" 
			},
			{
				"x": -0.1012915029,
				"y": 1.793287239,
				"z": 2.3783528346,
				"element": "H" 
			},
			{
				"x": 1.4023996116,
				"y": 1.2170350957,
				"z": 1.6454482492,
				"element": "H" 
			},
			{
				"x": -0.501039762,
				"y": -0.3425901235,
				"z": 3.0806546381,
				"element": "H" 
			},
			{
				"x": 1.81992979,
				"y": -2.9629270066,
				"z": 3.0667645912,
				"element": "H" 
			},
			{
				"x": 0.3274033094,
				"y": -2.353149732,
				"z": 3.7129091049,
				"element": "H" 
			},
			{
				"x": -2.8087550507,
				"y": -0.3418526586,
				"z": 2.5112498171,
				"element": "H" 
			},
			{
				"x": -3.3383140353,
				"y": -1.3356731487,
				"z": 1.1378894861,
				"element": "H" 
			},
			{
				"x": -2.3663438607,
				"y": -2.0567258106,
				"z": 2.4272330611,
				"element": "H" 
			},
			{
				"x": 0.0402187851,
				"y": -1.7777320659,
				"z": -0.4322328685,
				"element": "H" 
			},
			{
				"x": -0.6833056826,
				"y": -2.8804359917,
				"z": 0.7435040419,
				"element": "H" 
			},
			{
				"x": -1.681249204,
				"y": -2.1660893762,
				"z": -0.5413828761,
				"element": "H" 
			},
			{
				"x": -2.2822481924,
				"y": 0.9133694458,
				"z": 0.6322561989,
				"element": "H" 
			}
		],
		 "valence_orbital": [ 
			{
				"type": "occ",
				"energy": -0.31118,
				"method": "rhf"
			},
			{
				"type": "occ",
				"energy": -0.302,
				"method": "rhf"
			},
			{
				"type": "occ",
				"energy": -0.26568,
				"method": "rhf"
			},
			{
				"type": "occ",
				"energy": -0.24476,
				"method": "rhf"
			},
			{
				"type": "occ",
				"energy": -0.21774,
				"method": "rhf"
			},
			{
				"type": "unocc",
				"energy": 0.02674,
				"method": "rhf"
			},
			{
				"type": "unocc",
				"energy": 0.05814,
				"method": "rhf"
			},
			{
				"type": "unocc",
				"energy": 0.08381,
				"method": "rhf"
			},
			{
				"type": "unocc",
				"energy": 0.1091,
				"method": "rhf"
			},
			{
				"type": "unocc",
				"energy": 0.11737,
				"method": "rhf"
			}
		],
		"cosmo_sigma_profile": { 
			"-0.025": 0.0,
			"-0.024": 0.0,
			"-0.023": 0.0,
			"-0.022": 0.0,
			"-0.021": 0.0,
			"-0.02": 0.0,
			"-0.019": 0.0,
			"-0.018": 0.0,
			"-0.017": 0.0,
			"-0.016": 0.0,
			"-0.015": 0.0,
			"-0.014": 0.61484712477,
			"-0.013": 2.86101871933,
			"-0.012": 1.69576754464,
			"-0.011": 2.30727965009,
			"-0.01": 2.99578373758,
			"-0.009": 2.85287080971,
			"-0.008": 3.15365560833,
			"-0.007": 2.97383909884,
			"-0.006": 4.34361568225,
			"-0.005": 5.86927412988,
			"-0.004": 8.91826729389,
			"-0.003": 18.663698917,
			"-0.002": 27.1050968934,
			"-0.001": 25.753897504,
			"0.0": 26.7668233818,
			"0.001": 27.7967128083,
			"0.002": 16.6545486489,
			"0.003": 7.25994951299,
			"0.004": 4.92334082079,
			"0.005": 3.87166972785,
			"0.006": 2.55901784137,
			"0.007": 1.80411428814,
			"0.008": 2.73960136306,
			"0.009": 2.85299911071,
			"0.01": 2.38351146923,
			"0.011": 1.39742746879,
			"0.012": 2.68898615499,
			"0.013": 2.67438199179,
			"0.014": 4.48102067191,
			"0.015": 2.3615471438,
			"0.016": 0.392171254404,
			"0.017": 0.383186016946,
			"0.018": 0.284528321594,
			"0.019": 0.016231142014,
			"0.02": 0.0,
			"0.021": 0.0,
			"0.022": 0.0,
			"0.023": 0.0,
			"0.024": 0.0,
			"0.025": 0.0
		}
	}
}
