{
	 "smiles": "CC1(C)C2CCC1(C)C=C2C(=O)OC1=CC=CC=C1", 
	 "Tm": 337.15, 
	 "num_atms": 39, 
	 "gaussian": { 
		 "optdone": 1, 
		 "sigma_profile": "yes", 
		 "theory": "DFT", 
		 "functional": "B3LYP", 
		 "basiset": "6-31G**", 
		 "properties": { 
			 "R2extent": 7124.6012, 
			 "electric_dipole_moment_norm": 2.38475342331, 
			 "electric_quadrupole_moment_norm": 9.12639328048, 
			 "total_energy": -810.301835559, 
			 "HOMO_LUMO_gap": 0.18781, 
			 "cosmo_polarized_energy": -8.14, 
			 "cosmo_cavitation_energy": 39.68, 
			 "cosmo_dispersion_energy": -27.72, 
			 "cosmo_repulsion_energy": 2.12, 
			 "cosmo_total_nonelectrostatic_energy": 14.08, 
			 "SMD_solvation_energy": 7.49 
		},
		"coords": [
			{
				"x": -2.0368435329,
				"y": 0.8133169994,
				"z": 1.4033801659,
				"element": "C" 
			},
			{
				"x": -1.2432959823,
				"y": -0.4217911323,
				"z": 1.8657458028,
				"element": "C" 
			},
			{
				"x": -1.9410823199,
				"y": -0.9608179391,
				"z": 3.1261715083,
				"element": "C" 
			},
			{
				"x": -1.0210207913,
				"y": -1.4866865077,
				"z": 0.7403433939,
				"element": "C" 
			},
			{
				"x": -0.0990270821,
				"y": -2.5307377455,
				"z": 1.4523333544,
				"element": "C" 
			},
			{
				"x": 0.824036073,
				"y": -1.6307015172,
				"z": 2.3240940647,
				"element": "C" 
			},
			{
				"x": 0.3122842275,
				"y": -0.1689966646,
				"z": 2.0259431183,
				"element": "C" 
			},
			{
				"x": 0.7819688203,
				"y": 0.8848557964,
				"z": 3.0184780191,
				"element": "C" 
			},
			{
				"x": 0.7030357907,
				"y": 0.0450110428,
				"z": 0.5735824667,
				"element": "C" 
			},
			{
				"x": -0.0902991071,
				"y": -0.7284004951,
				"z": -0.1918405541,
				"element": "C" 
			},
			{
				"x": -0.0226239864,
				"y": -0.9700000689,
				"z": -1.637819177,
				"element": "C" 
			},
			{
				"x": -0.6855303195,
				"y": -1.7962407645,
				"z": -2.2292143362,
				"element": "O" 
			},
			{
				"x": 0.8858491447,
				"y": -0.1309744752,
				"z": -2.2379140434,
				"element": "O" 
			},
			{
				"x": 1.122672306,
				"y": -0.1683382923,
				"z": -3.6102501348,
				"element": "C" 
			},
			{
				"x": 1.3159464076,
				"y": 1.0725119498,
				"z": -4.2183820219,
				"element": "C" 
			},
			{
				"x": 1.6350801005,
				"y": 1.1315121094,
				"z": -5.5744152194,
				"element": "C" 
			},
			{
				"x": 1.7578531004,
				"y": -0.0438014782,
				"z": -6.3182447709,
				"element": "C" 
			},
			{
				"x": 1.563795764,
				"y": -1.2779103663,
				"z": -5.6950202758,
				"element": "C" 
			},
			{
				"x": 1.2478920223,
				"y": -1.3537949362,
				"z": -4.3373109247,
				"element": "C" 
			},
			{
				"x": -2.0649475712,
				"y": 1.5721007196,
				"z": 2.1935053904,
				"element": "H" 
			},
			{
				"x": -3.0742087315,
				"y": 0.5349171006,
				"z": 1.18672136,
				"element": "H" 
			},
			{
				"x": -1.6210120155,
				"y": 1.2759812676,
				"z": 0.5069119513,
				"element": "H" 
			},
			{
				"x": -2.9729011358,
				"y": -1.2432377995,
				"z": 2.8884279494,
				"element": "H" 
			},
			{
				"x": -1.456992755,
				"y": -1.8326188563,
				"z": 3.5685240572,
				"element": "H" 
			},
			{
				"x": -1.9903248463,
				"y": -0.1842150173,
				"z": 3.8974625337,
				"element": "H" 
			},
			{
				"x": -1.9099139344,
				"y": -1.9085691896,
				"z": 0.2683293101,
				"element": "H" 
			},
			{
				"x": -0.684804406,
				"y": -3.2235820461,
				"z": 2.0631243881,
				"element": "H" 
			},
			{
				"x": 0.4537222618,
				"y": -3.1301331053,
				"z": 0.7245897382,
				"element": "H" 
			},
			{
				"x": 0.7261950954,
				"y": -1.8544543699,
				"z": 3.391438677,
				"element": "H" 
			},
			{
				"x": 1.8832942702,
				"y": -1.7336835258,
				"z": 2.0714197592,
				"element": "H" 
			},
			{
				"x": 0.3983185981,
				"y": 1.8784534535,
				"z": 2.7638394453,
				"element": "H" 
			},
			{
				"x": 1.8760300016,
				"y": 0.9472985133,
				"z": 3.0362384803,
				"element": "H" 
			},
			{
				"x": 0.4512923464,
				"y": 0.64597705,
				"z": 4.0347769769,
				"element": "H" 
			},
			{
				"x": 1.5417824061,
				"y": 0.6450117374,
				"z": 0.2366639242,
				"element": "H" 
			},
			{
				"x": 1.2167931345,
				"y": 1.9720480841,
				"z": -3.6196816253,
				"element": "H" 
			},
			{
				"x": 1.7863483906,
				"y": 2.0973662495,
				"z": -6.0475901284,
				"element": "H" 
			},
			{
				"x": 2.0036060588,
				"y": 0.0014460179,
				"z": -7.3749278665,
				"element": "H" 
			},
			{
				"x": 1.6588845952,
				"y": -2.196343222,
				"z": -6.2670895409,
				"element": "H" 
			},
			{
				"x": 1.0885476012,
				"y": -2.3092785764,
				"z": -3.856445216,
				"element": "H" 
			}
		],
		 "valence_orbital": [ 
			{
				"type": "occ",
				"energy": -0.29133,
				"method": "rhf"
			},
			{
				"type": "occ",
				"energy": -0.27168,
				"method": "rhf"
			},
			{
				"type": "occ",
				"energy": -0.251,
				"method": "rhf"
			},
			{
				"type": "occ",
				"energy": -0.24854,
				"method": "rhf"
			},
			{
				"type": "occ",
				"energy": -0.23299,
				"method": "rhf"
			},
			{
				"type": "unocc",
				"energy": -0.04518,
				"method": "rhf"
			},
			{
				"type": "unocc",
				"energy": 7e-05,
				"method": "rhf"
			},
			{
				"type": "unocc",
				"energy": 0.0079,
				"method": "rhf"
			},
			{
				"type": "unocc",
				"energy": 0.07378,
				"method": "rhf"
			},
			{
				"type": "unocc",
				"energy": 0.08351,
				"method": "rhf"
			}
		],
		"cosmo_sigma_profile": { 
			"-0.025": 0.0,
			"-0.024": 0.0,
			"-0.023": 0.0,
			"-0.022": 0.0,
			"-0.021": 0.0,
			"-0.02": 0.0,
			"-0.019": 0.0,
			"-0.018": 0.0,
			"-0.017": 0.0,
			"-0.016": 0.0,
			"-0.015": 0.0,
			"-0.014": 0.0,
			"-0.013": 0.0,
			"-0.012": 0.0,
			"-0.011": 0.0,
			"-0.01": 0.0,
			"-0.009": 0.0,
			"-0.008": 0.0,
			"-0.007": 0.826797324122,
			"-0.006": 8.11251306866,
			"-0.005": 11.8241046739,
			"-0.004": 15.8842506812,
			"-0.003": 31.1218448986,
			"-0.002": 45.8204192104,
			"-0.001": 43.3810387049,
			"0.0": 39.2572347422,
			"0.001": 36.444185719,
			"0.002": 20.5260883418,
			"0.003": 12.7211507416,
			"0.004": 12.6969874639,
			"0.005": 14.165597831,
			"0.006": 3.67700290719,
			"0.007": 2.31285029496,
			"0.008": 1.96431298504,
			"0.009": 1.52648431096,
			"0.01": 2.20667314956,
			"0.011": 3.48717282004,
			"0.012": 3.38689511839,
			"0.013": 0.193812074802,
			"0.014": 0.0,
			"0.015": 0.0,
			"0.016": 0.0,
			"0.017": 0.0,
			"0.018": 0.0,
			"0.019": 0.0,
			"0.02": 0.0,
			"0.021": 0.0,
			"0.022": 0.0,
			"0.023": 0.0,
			"0.024": 0.0,
			"0.025": 0.0
		}
	}
}
