{
	 "smiles": "CCCCCCCCCCCCCCCCCCS(Cl)(=O)=O", 
	 "Tm": 331.15, 
	 "num_atms": 59, 
	 "gaussian": { 
		 "optdone": 1, 
		 "sigma_profile": "yes", 
		 "theory": "DFT", 
		 "functional": "B3LYP", 
		 "basiset": "6-31G**", 
		 "properties": { 
			 "R2extent": 18017.867, 
			 "electric_dipole_moment_norm": 4.28868129033, 
			 "electric_quadrupole_moment_norm": 29.9323439186, 
			 "total_energy": -1717.03116945, 
			 "HOMO_LUMO_gap": 0.21193, 
			 "cosmo_polarized_energy": -10.15, 
			 "cosmo_cavitation_energy": 60.39, 
			 "cosmo_dispersion_energy": -39.61, 
			 "cosmo_repulsion_energy": 3.12, 
			 "cosmo_total_nonelectrostatic_energy": 23.91, 
			 "SMD_solvation_energy": 6.42 
		},
		"coords": [
			{
				"x": 1.6251036078,
				"y": 2.513041309,
				"z": -5.5859380293,
				"element": "C" 
			},
			{
				"x": 0.6052722814,
				"y": 3.6512609791,
				"z": -5.4593840421,
				"element": "C" 
			},
			{
				"x": -0.5197630583,
				"y": 3.389229157,
				"z": -4.4443821475,
				"element": "C" 
			},
			{
				"x": -0.058709396,
				"y": 3.2967649928,
				"z": -2.9827642068,
				"element": "C" 
			},
			{
				"x": -1.2227965482,
				"y": 3.1007270223,
				"z": -2.0003709327,
				"element": "C" 
			},
			{
				"x": -0.8050436073,
				"y": 2.9283412163,
				"z": -0.5299954249,
				"element": "C" 
			},
			{
				"x": -0.1712998993,
				"y": 4.1812299197,
				"z": 0.0971917589,
				"element": "C" 
			},
			{
				"x": 0.0969528872,
				"y": 4.1170481333,
				"z": 1.6156804857,
				"element": "C" 
			},
			{
				"x": 1.4149322602,
				"y": 3.4517086915,
				"z": 2.0623441065,
				"element": "C" 
			},
			{
				"x": 1.5365192806,
				"y": 1.9217743182,
				"z": 1.937420252,
				"element": "C" 
			},
			{
				"x": 0.5321202633,
				"y": 1.1343187722,
				"z": 2.7929656513,
				"element": "C" 
			},
			{
				"x": 0.8208568684,
				"y": -0.375506425,
				"z": 2.8814335608,
				"element": "C" 
			},
			{
				"x": 0.7281943025,
				"y": -1.1609258437,
				"z": 1.5599211543,
				"element": "C" 
			},
			{
				"x": -0.6553116989,
				"y": -1.1667839337,
				"z": 0.8825673494,
				"element": "C" 
			},
			{
				"x": -1.804565668,
				"y": -1.7683897798,
				"z": 1.71418794,
				"element": "C" 
			},
			{
				"x": -1.614170246,
				"y": -3.2292797424,
				"z": 2.1571034651,
				"element": "C" 
			},
			{
				"x": -1.5718903534,
				"y": -4.2242332772,
				"z": 0.9876318562,
				"element": "C" 
			},
			{
				"x": -1.4157176262,
				"y": -5.6868673859,
				"z": 1.4071584924,
				"element": "C" 
			},
			{
				"x": 0.2863831027,
				"y": -6.1923936792,
				"z": 1.8303617607,
				"element": "S" 
			},
			{
				"x": 1.1722972515,
				"y": -6.1635045055,
				"z": -0.1215271153,
				"element": "Cl" 
			},
			{
				"x": 0.2620125985,
				"y": -7.583431408,
				"z": 2.2647918378,
				"element": "O" 
			},
			{
				"x": 0.9645560199,
				"y": -5.1598436881,
				"z": 2.606849814,
				"element": "O" 
			},
			{
				"x": 2.1667217775,
				"y": 2.34263347,
				"z": -4.6498822897,
				"element": "H" 
			},
			{
				"x": 2.369011325,
				"y": 2.7344789255,
				"z": -6.3584000108,
				"element": "H" 
			},
			{
				"x": 1.1332420815,
				"y": 1.5720225735,
				"z": -5.8594206384,
				"element": "H" 
			},
			{
				"x": 1.1261497424,
				"y": 4.580040316,
				"z": -5.1883161907,
				"element": "H" 
			},
			{
				"x": 0.1540071193,
				"y": 3.834527859,
				"z": -6.4430128055,
				"element": "H" 
			},
			{
				"x": -1.0444661361,
				"y": 2.4621818755,
				"z": -4.7182042449,
				"element": "H" 
			},
			{
				"x": -1.2642542519,
				"y": 4.1929620767,
				"z": -4.5277630021,
				"element": "H" 
			},
			{
				"x": 0.4974993321,
				"y": 4.2088608453,
				"z": -2.7279010539,
				"element": "H" 
			},
			{
				"x": 0.6487842009,
				"y": 2.4649183446,
				"z": -2.8645392343,
				"element": "H" 
			},
			{
				"x": -1.7967697922,
				"y": 2.2161727466,
				"z": -2.3091592366,
				"element": "H" 
			},
			{
				"x": -1.9137995563,
				"y": 3.9523910866,
				"z": -2.0825953289,
				"element": "H" 
			},
			{
				"x": -1.6942371804,
				"y": 2.6593279507,
				"z": 0.0571028695,
				"element": "H" 
			},
			{
				"x": -0.1209150304,
				"y": 2.074208954,
				"z": -0.4539454839,
				"element": "H" 
			},
			{
				"x": -0.8495222668,
				"y": 5.0245571459,
				"z": -0.0949987547,
				"element": "H" 
			},
			{
				"x": 0.7657320415,
				"y": 4.4296970951,
				"z": -0.4188096006,
				"element": "H" 
			},
			{
				"x": -0.7572298897,
				"y": 3.6440538313,
				"z": 2.1189742877,
				"element": "H" 
			},
			{
				"x": 0.1223032706,
				"y": 5.1478801613,
				"z": 1.9916983694,
				"element": "H" 
			},
			{
				"x": 1.5827935395,
				"y": 3.7149963457,
				"z": 3.1161855917,
				"element": "H" 
			},
			{
				"x": 2.2400602931,
				"y": 3.9162860532,
				"z": 1.5047824427,
				"element": "H" 
			},
			{
				"x": 1.4568653307,
				"y": 1.6215914851,
				"z": 0.8863255335,
				"element": "H" 
			},
			{
				"x": 2.5525219091,
				"y": 1.6404618697,
				"z": 2.2488666685,
				"element": "H" 
			},
			{
				"x": -0.487169577,
				"y": 1.2982068146,
				"z": 2.4208439301,
				"element": "H" 
			},
			{
				"x": 0.5452758212,
				"y": 1.5448739632,
				"z": 3.8123394197,
				"element": "H" 
			},
			{
				"x": 0.140226064,
				"y": -0.8214503666,
				"z": 3.6183454085,
				"element": "H" 
			},
			{
				"x": 1.8301822531,
				"y": -0.5151265468,
				"z": 3.2914182075,
				"element": "H" 
			},
			{
				"x": 1.4567926313,
				"y": -0.7582037658,
				"z": 0.8452718374,
				"element": "H" 
			},
			{
				"x": 1.0471453128,
				"y": -2.193216414,
				"z": 1.7505984149,
				"element": "H" 
			},
			{
				"x": -0.5707243337,
				"y": -1.7050183955,
				"z": -0.0706773356,
				"element": "H" 
			},
			{
				"x": -0.9361017253,
				"y": -0.1418549552,
				"z": 0.6103842126,
				"element": "H" 
			},
			{
				"x": -2.7349226867,
				"y": -1.6882101272,
				"z": 1.1347441329,
				"element": "H" 
			},
			{
				"x": -1.9614067415,
				"y": -1.1583676214,
				"z": 2.6119402192,
				"element": "H" 
			},
			{
				"x": -0.7014553123,
				"y": -3.3271533199,
				"z": 2.7524520839,
				"element": "H" 
			},
			{
				"x": -2.4460030826,
				"y": -3.5070622498,
				"z": 2.8187825123,
				"element": "H" 
			},
			{
				"x": -0.7823824637,
				"y": -3.9665655344,
				"z": 0.2738541358,
				"element": "H" 
			},
			{
				"x": -2.5128841477,
				"y": -4.1650537319,
				"z": 0.4250305612,
				"element": "H" 
			},
			{
				"x": -1.9698362074,
				"y": -5.9255926075,
				"z": 2.3221889814,
				"element": "H" 
			},
			{
				"x": -1.7098662864,
				"y": -6.3952409963,
				"z": 0.6294478034,
				"element": "H" 
			}
		],
		 "valence_orbital": [ 
			{
				"type": "occ",
				"energy": -0.30931,
				"method": "rhf"
			},
			{
				"type": "occ",
				"energy": -0.30272,
				"method": "rhf"
			},
			{
				"type": "occ",
				"energy": -0.30088,
				"method": "rhf"
			},
			{
				"type": "occ",
				"energy": -0.29808,
				"method": "rhf"
			},
			{
				"type": "occ",
				"energy": -0.29569,
				"method": "rhf"
			},
			{
				"type": "unocc",
				"energy": -0.08376,
				"method": "rhf"
			},
			{
				"type": "unocc",
				"energy": 0.03986,
				"method": "rhf"
			},
			{
				"type": "unocc",
				"energy": 0.05613,
				"method": "rhf"
			},
			{
				"type": "unocc",
				"energy": 0.06263,
				"method": "rhf"
			},
			{
				"type": "unocc",
				"energy": 0.06971,
				"method": "rhf"
			}
		],
		"cosmo_sigma_profile": { 
			"-0.025": 0.0,
			"-0.024": 0.0,
			"-0.023": 0.0,
			"-0.022": 0.0,
			"-0.021": 0.0,
			"-0.02": 0.0,
			"-0.019": 0.0,
			"-0.018": 0.0,
			"-0.017": 0.0,
			"-0.016": 0.0,
			"-0.015": 0.0,
			"-0.014": 0.0,
			"-0.013": 0.0,
			"-0.012": 0.0894244902113,
			"-0.011": 1.04511552059,
			"-0.01": 2.36901914882,
			"-0.009": 4.25963029355,
			"-0.008": 4.30157361413,
			"-0.007": 4.38626670607,
			"-0.006": 6.67448448694,
			"-0.005": 6.57391977396,
			"-0.004": 6.30124099239,
			"-0.003": 13.2251751697,
			"-0.002": 47.1018120225,
			"-0.001": 92.0078423423,
			"0.0": 100.250855649,
			"0.001": 86.7568959474,
			"0.002": 38.6536855618,
			"0.003": 12.8790180224,
			"0.004": 11.8804854836,
			"0.005": 4.55710017796,
			"0.006": 3.08880879044,
			"0.007": 4.00903544561,
			"0.008": 8.71516745932,
			"0.009": 7.28695559368,
			"0.01": 0.550324616485,
			"0.011": 0.0,
			"0.012": 0.0,
			"0.013": 0.0,
			"0.014": 0.0,
			"0.015": 0.0,
			"0.016": 0.0,
			"0.017": 0.0,
			"0.018": 0.0,
			"0.019": 0.0,
			"0.02": 0.0,
			"0.021": 0.0,
			"0.022": 0.0,
			"0.023": 0.0,
			"0.024": 0.0,
			"0.025": 0.0
		}
	}
}
