{
	 "smiles": "COC1=CC2=C(C=C1)C(CC(O)=O)=CO2", 
	 "Tm": 397.15, 
	 "num_atms": 25, 
	 "gaussian": { 
		 "optdone": 1, 
		 "sigma_profile": "yes", 
		 "theory": "DFT", 
		 "functional": "B3LYP", 
		 "basiset": "6-31G**", 
		 "properties": { 
			 "R2extent": 3952.3118, 
			 "electric_dipole_moment_norm": 3.65100830046, 
			 "electric_quadrupole_moment_norm": 28.3009215043, 
			 "total_energy": -726.076994512, 
			 "HOMO_LUMO_gap": 0.1859, 
			 "cosmo_polarized_energy": -15.91, 
			 "cosmo_cavitation_energy": 29.82, 
			 "cosmo_dispersion_energy": -21.51, 
			 "cosmo_repulsion_energy": 1.68, 
			 "cosmo_total_nonelectrostatic_energy": 9.99, 
			 "SMD_solvation_energy": 7.55 
		},
		"coords": [
			{
				"x": 1.3078168854,
				"y": -4.0382186757,
				"z": 1.9449998467,
				"element": "C" 
			},
			{
				"x": 1.8156634845,
				"y": -2.9859594008,
				"z": 1.1390083711,
				"element": "O" 
			},
			{
				"x": 0.9653248086,
				"y": -1.996719509,
				"z": 0.740173063,
				"element": "C" 
			},
			{
				"x": 1.5472958469,
				"y": -0.9950304145,
				"z": -0.0480271948,
				"element": "C" 
			},
			{
				"x": 0.7090505276,
				"y": 0.0230220167,
				"z": -0.46990553,
				"element": "C" 
			},
			{
				"x": -0.6600667928,
				"y": 0.0996642757,
				"z": -0.1534428464,
				"element": "C" 
			},
			{
				"x": -1.2188540541,
				"y": -0.910459536,
				"z": 0.637232728,
				"element": "C" 
			},
			{
				"x": -0.4057014431,
				"y": -1.9523504664,
				"z": 1.078404659,
				"element": "C" 
			},
			{
				"x": -1.1436798638,
				"y": 1.3104952078,
				"z": -0.7928738264,
				"element": "C" 
			},
			{
				"x": -2.5401359843,
				"y": 1.8557441914,
				"z": -0.7660356082,
				"element": "C" 
			},
			{
				"x": -2.9779650554,
				"y": 2.4561870909,
				"z": 0.5799001457,
				"element": "C" 
			},
			{
				"x": -1.9990433312,
				"y": 3.0484462137,
				"z": 1.3011771924,
				"element": "O" 
			},
			{
				"x": -4.1209170041,
				"y": 2.450207626,
				"z": 0.9624920157,
				"element": "O" 
			},
			{
				"x": -0.0579757741,
				"y": 1.8467402427,
				"z": -1.4155103471,
				"element": "C" 
			},
			{
				"x": 1.0774814738,
				"y": 1.0941028492,
				"z": -1.2420765764,
				"element": "O" 
			},
			{
				"x": 2.1528733319,
				"y": -4.7003512428,
				"z": 2.1391052206,
				"element": "H" 
			},
			{
				"x": 0.520495383,
				"y": -4.6016975979,
				"z": 1.4282762876,
				"element": "H" 
			},
			{
				"x": 0.9159656373,
				"y": -3.6653831204,
				"z": 2.8998502648,
				"element": "H" 
			},
			{
				"x": 2.5993382174,
				"y": -1.0343405558,
				"z": -0.3028176749,
				"element": "H" 
			},
			{
				"x": -2.2691595319,
				"y": -0.8907870589,
				"z": 0.9122613871,
				"element": "H" 
			},
			{
				"x": -0.8395635263,
				"y": -2.7329934988,
				"z": 1.6906506927,
				"element": "H" 
			},
			{
				"x": -2.6460574859,
				"y": 2.6532436236,
				"z": -1.5123765142,
				"element": "H" 
			},
			{
				"x": -3.2772147936,
				"y": 1.0894908973,
				"z": -1.0203600488,
				"element": "H" 
			},
			{
				"x": -1.1463810471,
				"y": 2.8985137127,
				"z": 0.8593631498,
				"element": "H" 
			},
			{
				"x": 0.0615100915,
				"y": 2.7273331294,
				"z": -2.0301688572,
				"element": "H" 
			}
		],
		 "valence_orbital": [ 
			{
				"type": "occ",
				"energy": -0.3108,
				"method": "rhf"
			},
			{
				"type": "occ",
				"energy": -0.29479,
				"method": "rhf"
			},
			{
				"type": "occ",
				"energy": -0.26469,
				"method": "rhf"
			},
			{
				"type": "occ",
				"energy": -0.2486,
				"method": "rhf"
			},
			{
				"type": "occ",
				"energy": -0.21565,
				"method": "rhf"
			},
			{
				"type": "unocc",
				"energy": -0.02975,
				"method": "rhf"
			},
			{
				"type": "unocc",
				"energy": 0.00301,
				"method": "rhf"
			},
			{
				"type": "unocc",
				"energy": 0.01555,
				"method": "rhf"
			},
			{
				"type": "unocc",
				"energy": 0.03859,
				"method": "rhf"
			},
			{
				"type": "unocc",
				"energy": 0.07732,
				"method": "rhf"
			}
		],
		"cosmo_sigma_profile": { 
			"-0.025": 0.0,
			"-0.024": 0.0,
			"-0.023": 0.0,
			"-0.022": 0.0,
			"-0.021": 0.0,
			"-0.02": 0.0,
			"-0.019": 0.0,
			"-0.018": 0.0,
			"-0.017": 0.0,
			"-0.016": 0.0,
			"-0.015": 0.291229022957,
			"-0.014": 0.571406398051,
			"-0.013": 0.444067626198,
			"-0.012": 0.919934267857,
			"-0.011": 1.86029946239,
			"-0.01": 2.11310185501,
			"-0.009": 4.49045037222,
			"-0.008": 7.18513588872,
			"-0.007": 7.63133587346,
			"-0.006": 16.8648087514,
			"-0.005": 19.8117341714,
			"-0.004": 18.7290442257,
			"-0.003": 17.1158934662,
			"-0.002": 11.8244641538,
			"-0.001": 10.8819231917,
			"0.0": 9.56771869127,
			"0.001": 11.624714446,
			"0.002": 14.1691892149,
			"0.003": 16.0014551964,
			"0.004": 15.8248737512,
			"0.005": 9.63726765034,
			"0.006": 4.70349320288,
			"0.007": 4.70668634329,
			"0.008": 6.22159522621,
			"0.009": 5.15349499954,
			"0.01": 6.55242435166,
			"0.011": 4.86344814442,
			"0.012": 5.74058274773,
			"0.013": 2.50266832289,
			"0.014": 0.0666464343404,
			"0.015": 0.0,
			"0.016": 0.0,
			"0.017": 0.0,
			"0.018": 0.0,
			"0.019": 0.0,
			"0.02": 0.0,
			"0.021": 0.0,
			"0.022": 0.0,
			"0.023": 0.0,
			"0.024": 0.0,
			"0.025": 0.0
		}
	}
}
