{
	 "smiles": "BrC1=CN=C(SC2CCOCC2)C=C1", 
	 "Tm": 334.15, 
	 "num_atms": 26, 
	 "gaussian": { 
		 "optdone": 1, 
		 "sigma_profile": "yes", 
		 "theory": "DFT", 
		 "functional": "B3LYP", 
		 "basiset": "6-31G**", 
		 "properties": { 
			 "R2extent": 7350.5118, 
			 "electric_dipole_moment_norm": 1.56403142232, 
			 "electric_quadrupole_moment_norm": 3.47371916107, 
			 "total_energy": -3487.85115416, 
			 "HOMO_LUMO_gap": 0.18195, 
			 "cosmo_polarized_energy": -8.08, 
			 "cosmo_cavitation_energy": 31.88, 
			 "cosmo_dispersion_energy": -24.36, 
			 "cosmo_repulsion_energy": 1.88, 
			 "cosmo_total_nonelectrostatic_energy": 9.4, 
			 "SMD_solvation_energy": 3.23 
		},
		"coords": [
			{
				"x": 2.7703756603,
				"y": 1.3313053736,
				"z": -4.837908733,
				"element": "Br" 
			},
			{
				"x": 1.8346923268,
				"y": 0.2916493738,
				"z": -3.5444387741,
				"element": "C" 
			},
			{
				"x": 1.1124661935,
				"y": 0.9173669297,
				"z": -2.5342852039,
				"element": "C" 
			},
			{
				"x": 0.4374291992,
				"y": 0.2340227434,
				"z": -1.6005437499,
				"element": "N" 
			},
			{
				"x": 0.4582977701,
				"y": -1.1002348957,
				"z": -1.6405961203,
				"element": "C" 
			},
			{
				"x": -0.4176517488,
				"y": -2.0701440892,
				"z": -0.4290253465,
				"element": "S" 
			},
			{
				"x": -1.2421004747,
				"y": -0.8793612682,
				"z": 0.7228230412,
				"element": "C" 
			},
			{
				"x": -2.3283161743,
				"y": -0.0097525661,
				"z": 0.0733395124,
				"element": "C" 
			},
			{
				"x": -2.991790925,
				"y": 0.8599996869,
				"z": 1.150408901,
				"element": "C" 
			},
			{
				"x": -2.0451748813,
				"y": 1.6521376184,
				"z": 1.8521755412,
				"element": "O" 
			},
			{
				"x": -1.0836884071,
				"y": 0.8525064375,
				"z": 2.5245953538,
				"element": "C" 
			},
			{
				"x": -0.277217203,
				"y": -0.0180559631,
				"z": 1.5505883723,
				"element": "C" 
			},
			{
				"x": 1.164190025,
				"y": -1.8140819155,
				"z": -2.6288452277,
				"element": "C" 
			},
			{
				"x": 1.8623282168,
				"y": -1.1044077359,
				"z": -3.5944375436,
				"element": "C" 
			},
			{
				"x": 1.073012619,
				"y": 2.0014650366,
				"z": -2.4703944328,
				"element": "H" 
			},
			{
				"x": -1.7320566439,
				"y": -1.595188815,
				"z": 1.3989692061,
				"element": "H" 
			},
			{
				"x": -1.8728644734,
				"y": 0.6345597862,
				"z": -0.6822062937,
				"element": "H" 
			},
			{
				"x": -3.0820402402,
				"y": -0.6362364738,
				"z": -0.4165632896,
				"element": "H" 
			},
			{
				"x": -3.7036392832,
				"y": 1.5577317307,
				"z": 0.6994076254,
				"element": "H" 
			},
			{
				"x": -3.5482206119,
				"y": 0.2214047983,
				"z": 1.8603746651,
				"element": "H" 
			},
			{
				"x": -0.426515523,
				"y": 1.5448002182,
				"z": 3.059197467,
				"element": "H" 
			},
			{
				"x": -1.5840274985,
				"y": 0.2138635904,
				"z": 3.2750938963,
				"element": "H" 
			},
			{
				"x": 0.4228628919,
				"y": -0.6505409018,
				"z": 2.1077628739,
				"element": "H" 
			},
			{
				"x": 0.2985474936,
				"y": 0.6254148448,
				"z": 0.8813679367,
				"element": "H" 
			},
			{
				"x": 1.1614419635,
				"y": -2.8993493716,
				"z": -2.6341025754,
				"element": "H" 
			},
			{
				"x": 2.4174597287,
				"y": -1.6186741727,
				"z": -4.371257102,
				"element": "H" 
			}
		],
		 "valence_orbital": [ 
			{
				"type": "occ",
				"energy": -0.29792,
				"method": "rhf"
			},
			{
				"type": "occ",
				"energy": -0.27869,
				"method": "rhf"
			},
			{
				"type": "occ",
				"energy": -0.26872,
				"method": "rhf"
			},
			{
				"type": "occ",
				"energy": -0.2485,
				"method": "rhf"
			},
			{
				"type": "occ",
				"energy": -0.22185,
				"method": "rhf"
			},
			{
				"type": "unocc",
				"energy": -0.0399,
				"method": "rhf"
			},
			{
				"type": "unocc",
				"energy": -0.02642,
				"method": "rhf"
			},
			{
				"type": "unocc",
				"energy": -2e-05,
				"method": "rhf"
			},
			{
				"type": "unocc",
				"energy": 0.02989,
				"method": "rhf"
			},
			{
				"type": "unocc",
				"energy": 0.06159,
				"method": "rhf"
			}
		],
		"cosmo_sigma_profile": { 
			"-0.025": 0.0,
			"-0.024": 0.0,
			"-0.023": 0.0,
			"-0.022": 0.0,
			"-0.021": 0.0,
			"-0.02": 0.0,
			"-0.019": 0.0,
			"-0.018": 0.0,
			"-0.017": 0.0,
			"-0.016": 0.0,
			"-0.015": 0.0,
			"-0.014": 0.0,
			"-0.013": 0.0,
			"-0.012": 0.0,
			"-0.011": 0.0,
			"-0.01": 0.0,
			"-0.009": 0.379428122114,
			"-0.008": 4.44474248025,
			"-0.007": 5.00716045242,
			"-0.006": 8.55973643369,
			"-0.005": 13.5543678535,
			"-0.004": 21.6571042654,
			"-0.003": 27.0524983572,
			"-0.002": 22.4196985322,
			"-0.001": 18.7786151355,
			"0.0": 23.3276672081,
			"0.001": 25.494759856,
			"0.002": 21.7870156955,
			"0.003": 16.240795362,
			"0.004": 17.3316968038,
			"0.005": 9.32765238842,
			"0.006": 5.24472116494,
			"0.007": 4.98951028797,
			"0.008": 3.93038026051,
			"0.009": 1.42961879038,
			"0.01": 1.29490541563,
			"0.011": 0.869632557464,
			"0.012": 1.57877996436,
			"0.013": 1.78744266696,
			"0.014": 0.989579237734,
			"0.015": 0.0,
			"0.016": 0.0,
			"0.017": 0.0,
			"0.018": 0.0,
			"0.019": 0.0,
			"0.02": 0.0,
			"0.021": 0.0,
			"0.022": 0.0,
			"0.023": 0.0,
			"0.024": 0.0,
			"0.025": 0.0
		}
	}
}
