{
	 "smiles": "CC1=CC(Cl)=C(N=C=S)C(C)=C1", 
	 "Tm": 329.15, 
	 "num_atms": 20, 
	 "gaussian": { 
		 "optdone": 1, 
		 "sigma_profile": "yes", 
		 "theory": "DFT", 
		 "functional": "B3LYP", 
		 "basiset": "6-31G**", 
		 "properties": { 
			 "R2extent": 4183.4306, 
			 "electric_dipole_moment_norm": 4.99848688105, 
			 "electric_quadrupole_moment_norm": 6.71118967173, 
			 "total_energy": -1260.91992145, 
			 "HOMO_LUMO_gap": 0.17668, 
			 "cosmo_polarized_energy": -5.97, 
			 "cosmo_cavitation_energy": 28.78, 
			 "cosmo_dispersion_energy": -20.8, 
			 "cosmo_repulsion_energy": 1.64, 
			 "cosmo_total_nonelectrostatic_energy": 9.62, 
			 "SMD_solvation_energy": 5.27 
		},
		"coords": [
			{
				"x": 3.9153410476,
				"y": 2.1824766308,
				"z": -1.9231673594,
				"element": "C" 
			},
			{
				"x": 2.6710722978,
				"y": 1.867841678,
				"z": -1.1280434969,
				"element": "C" 
			},
			{
				"x": 2.2414486493,
				"y": 2.7213215066,
				"z": -0.1072643749,
				"element": "C" 
			},
			{
				"x": 1.0778948758,
				"y": 2.4411821644,
				"z": 0.6021354027,
				"element": "C" 
			},
			{
				"x": 0.5647061589,
				"y": 3.5235169938,
				"z": 1.8749906054,
				"element": "Cl" 
			},
			{
				"x": 0.3131059164,
				"y": 1.2955439121,
				"z": 0.3094285247,
				"element": "C" 
			},
			{
				"x": -0.8276520644,
				"y": 1.0193939537,
				"z": 1.0093240183,
				"element": "N" 
			},
			{
				"x": -1.8222584635,
				"y": 0.7868309112,
				"z": 1.6148202341,
				"element": "C" 
			},
			{
				"x": -3.1567114397,
				"y": 0.4639885563,
				"z": 2.4220700671,
				"element": "S" 
			},
			{
				"x": 0.7366872471,
				"y": 0.4200511234,
				"z": -0.7182911802,
				"element": "C" 
			},
			{
				"x": -0.0707874634,
				"y": -0.8116255423,
				"z": -1.0366093789,
				"element": "C" 
			},
			{
				"x": 1.9064637242,
				"y": 0.7277945111,
				"z": -1.4110104661,
				"element": "C" 
			},
			{
				"x": 3.6653510887,
				"y": 2.7079583345,
				"z": -2.8531870691,
				"element": "H" 
			},
			{
				"x": 4.5999358376,
				"y": 2.8222296262,
				"z": -1.3595945432,
				"element": "H" 
			},
			{
				"x": 4.452076333,
				"y": 1.2701724685,
				"z": -2.2001942987,
				"element": "H" 
			},
			{
				"x": 2.8098529747,
				"y": 3.6104844285,
				"z": 0.1440746048,
				"element": "H" 
			},
			{
				"x": 0.3901866942,
				"y": -1.3784026117,
				"z": -1.8486028753,
				"element": "H" 
			},
			{
				"x": -1.091852436,
				"y": -0.5520203603,
				"z": -1.3375315585,
				"element": "H" 
			},
			{
				"x": -0.1550091295,
				"y": -1.4697993585,
				"z": -0.1647176694,
				"element": "H" 
			},
			{
				"x": 2.2337481515,
				"y": 0.0536610739,
				"z": -2.1985291867,
				"element": "H" 
			}
		],
		 "valence_orbital": [ 
			{
				"type": "occ",
				"energy": -0.3213,
				"method": "rhf"
			},
			{
				"type": "occ",
				"energy": -0.28874,
				"method": "rhf"
			},
			{
				"type": "occ",
				"energy": -0.25757,
				"method": "rhf"
			},
			{
				"type": "occ",
				"energy": -0.25227,
				"method": "rhf"
			},
			{
				"type": "occ",
				"energy": -0.2271,
				"method": "rhf"
			},
			{
				"type": "unocc",
				"energy": -0.05042,
				"method": "rhf"
			},
			{
				"type": "unocc",
				"energy": -0.02265,
				"method": "rhf"
			},
			{
				"type": "unocc",
				"energy": 0.00301,
				"method": "rhf"
			},
			{
				"type": "unocc",
				"energy": 0.02272,
				"method": "rhf"
			},
			{
				"type": "unocc",
				"energy": 0.04248,
				"method": "rhf"
			}
		],
		"cosmo_sigma_profile": { 
			"-0.025": 0.0,
			"-0.024": 0.0,
			"-0.023": 0.0,
			"-0.022": 0.0,
			"-0.021": 0.0,
			"-0.02": 0.0,
			"-0.019": 0.0,
			"-0.018": 0.0,
			"-0.017": 0.0,
			"-0.016": 0.0,
			"-0.015": 0.0,
			"-0.014": 0.0,
			"-0.013": 0.0,
			"-0.012": 0.0,
			"-0.011": 0.0,
			"-0.01": 0.0,
			"-0.009": 0.0,
			"-0.008": 0.105530440538,
			"-0.007": 1.84665993296,
			"-0.006": 6.27751020792,
			"-0.005": 13.4194729,
			"-0.004": 17.0927712381,
			"-0.003": 17.6946613981,
			"-0.002": 20.5946390964,
			"-0.001": 32.6000590007,
			"0.0": 25.3011001359,
			"0.001": 21.760909448,
			"0.002": 22.0664078381,
			"0.003": 20.4704560168,
			"0.004": 13.608080812,
			"0.005": 9.59502733777,
			"0.006": 12.7251651241,
			"0.007": 0.710960565638,
			"0.008": 0.0,
			"0.009": 0.0,
			"0.01": 0.0,
			"0.011": 0.0,
			"0.012": 0.0,
			"0.013": 0.0,
			"0.014": 0.0,
			"0.015": 0.0,
			"0.016": 0.0,
			"0.017": 0.0,
			"0.018": 0.0,
			"0.019": 0.0,
			"0.02": 0.0,
			"0.021": 0.0,
			"0.022": 0.0,
			"0.023": 0.0,
			"0.024": 0.0,
			"0.025": 0.0
		}
	}
}
