{
	 "smiles": "ClC(Cl)(Cl)C(=O)NC1=CC2=C(OCO2)C=C1", 
	 "Tm": 373.15, 
	 "num_atms": 22, 
	 "gaussian": { 
		 "optdone": 1, 
		 "sigma_profile": "yes", 
		 "theory": "DFT", 
		 "functional": "B3LYP", 
		 "basiset": "6-31G**", 
		 "properties": { 
			 "R2extent": 7151.925, 
			 "electric_dipole_moment_norm": 4.81838106007, 
			 "electric_quadrupole_moment_norm": 13.9319049523, 
			 "total_energy": -2007.52111496, 
			 "HOMO_LUMO_gap": 0.18011, 
			 "cosmo_polarized_energy": -11.93, 
			 "cosmo_cavitation_energy": 31.72, 
			 "cosmo_dispersion_energy": -23.24, 
			 "cosmo_repulsion_energy": 1.82, 
			 "cosmo_total_nonelectrostatic_energy": 10.29, 
			 "SMD_solvation_energy": 5.97 
		},
		"coords": [
			{
				"x": -4.0646134224,
				"y": -0.0319925669,
				"z": -1.3012602293,
				"element": "Cl" 
			},
			{
				"x": -3.6005482824,
				"y": 1.7145627338,
				"z": -1.3167552497,
				"element": "C" 
			},
			{
				"x": -4.9745999885,
				"y": 2.6607017896,
				"z": -1.9456920575,
				"element": "Cl" 
			},
			{
				"x": -2.1881940201,
				"y": 1.9661353147,
				"z": -2.4073900494,
				"element": "Cl" 
			},
			{
				"x": -3.2817955336,
				"y": 2.1804220856,
				"z": 0.1549476946,
				"element": "C" 
			},
			{
				"x": -4.0383776156,
				"y": 2.9532915833,
				"z": 0.7076403325,
				"element": "O" 
			},
			{
				"x": -2.1721859554,
				"y": 1.6921252732,
				"z": 0.7887373107,
				"element": "N" 
			},
			{
				"x": -1.1045500538,
				"y": 0.8056865394,
				"z": 0.4142529596,
				"element": "C" 
			},
			{
				"x": 0.1323869201,
				"y": 1.3695651048,
				"z": 0.0319101308,
				"element": "C" 
			},
			{
				"x": 1.1596904986,
				"y": 0.4897196273,
				"z": -0.2320526655,
				"element": "C" 
			},
			{
				"x": 0.9985568648,
				"y": -0.8917850478,
				"z": -0.1197913598,
				"element": "C" 
			},
			{
				"x": 2.1773744414,
				"y": -1.5199991211,
				"z": -0.424554133,
				"element": "O" 
			},
			{
				"x": 3.0747000039,
				"y": -0.4884577243,
				"z": -0.8573091225,
				"element": "C" 
			},
			{
				"x": 2.4471451885,
				"y": 0.7761192632,
				"z": -0.608964159,
				"element": "O" 
			},
			{
				"x": -0.1991522008,
				"y": -1.4560909776,
				"z": 0.2701684132,
				"element": "C" 
			},
			{
				"x": -1.2590547723,
				"y": -0.5741826987,
				"z": 0.5480663004,
				"element": "C" 
			},
			{
				"x": -2.1127316044,
				"y": 2.095276161,
				"z": 1.717727645,
				"element": "H" 
			},
			{
				"x": 0.256047137,
				"y": 2.4416401593,
				"z": -0.0618395186,
				"element": "H" 
			},
			{
				"x": 3.2670057727,
				"y": -0.5981581421,
				"z": -1.9330871652,
				"element": "H" 
			},
			{
				"x": 4.0057924546,
				"y": -0.5522509801,
				"z": -0.2854268538,
				"element": "H" 
			},
			{
				"x": -0.3134699943,
				"y": -2.5294042085,
				"z": 0.3663105498,
				"element": "H" 
			},
			{
				"x": -2.2152258382,
				"y": -0.9675241682,
				"z": 0.8711612268,
				"element": "H" 
			}
		],
		 "valence_orbital": [ 
			{
				"type": "occ",
				"energy": -0.30649,
				"method": "rhf"
			},
			{
				"type": "occ",
				"energy": -0.28179,
				"method": "rhf"
			},
			{
				"type": "occ",
				"energy": -0.28,
				"method": "rhf"
			},
			{
				"type": "occ",
				"energy": -0.26141,
				"method": "rhf"
			},
			{
				"type": "occ",
				"energy": -0.22312,
				"method": "rhf"
			},
			{
				"type": "unocc",
				"energy": -0.04301,
				"method": "rhf"
			},
			{
				"type": "unocc",
				"energy": -0.03984,
				"method": "rhf"
			},
			{
				"type": "unocc",
				"energy": -0.01944,
				"method": "rhf"
			},
			{
				"type": "unocc",
				"energy": -0.01012,
				"method": "rhf"
			},
			{
				"type": "unocc",
				"energy": 0.0017,
				"method": "rhf"
			}
		],
		"cosmo_sigma_profile": { 
			"-0.025": 0.0,
			"-0.024": 0.0,
			"-0.023": 0.0,
			"-0.022": 0.0,
			"-0.021": 0.0,
			"-0.02": 0.0,
			"-0.019": 0.0,
			"-0.018": 0.0,
			"-0.017": 0.0,
			"-0.016": 0.218241041214,
			"-0.015": 0.96916346006,
			"-0.014": 0.991785463145,
			"-0.013": 0.695927288282,
			"-0.012": 0.940236046888,
			"-0.011": 0.880483275087,
			"-0.01": 0.964621411148,
			"-0.009": 1.10046017006,
			"-0.008": 6.62389892407,
			"-0.007": 11.1632604341,
			"-0.006": 11.5914368241,
			"-0.005": 11.5325326427,
			"-0.004": 14.0518311234,
			"-0.003": 15.6471208367,
			"-0.002": 18.1931908261,
			"-0.001": 18.5137812428,
			"0.0": 18.6736622426,
			"0.001": 20.8576683526,
			"0.002": 31.7519926288,
			"0.003": 32.4524151498,
			"0.004": 9.39318214304,
			"0.005": 4.62214325894,
			"0.006": 3.57429386978,
			"0.007": 4.10129850557,
			"0.008": 4.04345566075,
			"0.009": 5.7485212778,
			"0.01": 2.62668797394,
			"0.011": 5.62248193686,
			"0.012": 2.74159866461,
			"0.013": 0.0568134200424,
			"0.014": 0.0,
			"0.015": 0.0,
			"0.016": 0.0,
			"0.017": 0.0,
			"0.018": 0.0,
			"0.019": 0.0,
			"0.02": 0.0,
			"0.021": 0.0,
			"0.022": 0.0,
			"0.023": 0.0,
			"0.024": 0.0,
			"0.025": 0.0
		}
	}
}
