{
	 "smiles": "ClC1=NN=C(Cl)C=C1", 
	 "Tm": 340.95, 
	 "num_atms": 10, 
	 "gaussian": { 
		 "optdone": 1, 
		 "sigma_profile": "yes", 
		 "theory": "DFT", 
		 "functional": "B3LYP", 
		 "basiset": "6-31G**", 
		 "properties": { 
			 "R2extent": 1947.0153, 
			 "electric_dipole_moment_norm": 4.27915073467, 
			 "electric_quadrupole_moment_norm": 5.43992385884, 
			 "total_energy": -1183.46643905, 
			 "HOMO_LUMO_gap": 0.18652, 
			 "cosmo_polarized_energy": -10.06, 
			 "cosmo_cavitation_energy": 18.64, 
			 "cosmo_dispersion_energy": -14.42, 
			 "cosmo_repulsion_energy": 1.21, 
			 "cosmo_total_nonelectrostatic_energy": 5.43, 
			 "SMD_solvation_energy": 1.07 
		},
		"coords": [
			{
				"x": -2.8196881018,
				"y": -0.206055892,
				"z": 2.8555993591,
				"element": "Cl" 
			},
			{
				"x": -1.8350645779,
				"y": 0.0102213397,
				"z": 1.4289717614,
				"element": "C" 
			},
			{
				"x": -1.9869630125,
				"y": 1.153486344,
				"z": 0.7814538084,
				"element": "N" 
			},
			{
				"x": -1.2611898705,
				"y": 1.3804659328,
				"z": -0.3200581151,
				"element": "N" 
			},
			{
				"x": -0.4104945049,
				"y": 0.4557364291,
				"z": -0.7331424683,
				"element": "C" 
			},
			{
				"x": 0.4969235071,
				"y": 0.8312419527,
				"z": -2.1778140131,
				"element": "Cl" 
			},
			{
				"x": -0.2031549913,
				"y": -0.7757805574,
				"z": -0.0919421278,
				"element": "C" 
			},
			{
				"x": -0.9509712231,
				"y": -1.0096511014,
				"z": 1.0429860226,
				"element": "C" 
			},
			{
				"x": 0.5089247374,
				"y": -1.4962204173,
				"z": -0.4772085085,
				"element": "H" 
			},
			{
				"x": -0.8690219624,
				"y": -1.9271440302,
				"z": 1.6139542814,
				"element": "H" 
			}
		],
		 "valence_orbital": [ 
			{
				"type": "occ",
				"energy": -0.34189,
				"method": "rhf"
			},
			{
				"type": "occ",
				"energy": -0.33171,
				"method": "rhf"
			},
			{
				"type": "occ",
				"energy": -0.32901,
				"method": "rhf"
			},
			{
				"type": "occ",
				"energy": -0.28354,
				"method": "rhf"
			},
			{
				"type": "occ",
				"energy": -0.26716,
				"method": "rhf"
			},
			{
				"type": "unocc",
				"energy": -0.08064,
				"method": "rhf"
			},
			{
				"type": "unocc",
				"energy": -0.055,
				"method": "rhf"
			},
			{
				"type": "unocc",
				"energy": 0.01072,
				"method": "rhf"
			},
			{
				"type": "unocc",
				"energy": 0.01392,
				"method": "rhf"
			},
			{
				"type": "unocc",
				"energy": 0.09286,
				"method": "rhf"
			}
		],
		"cosmo_sigma_profile": { 
			"-0.025": 0.0,
			"-0.024": 0.0,
			"-0.023": 0.0,
			"-0.022": 0.0,
			"-0.021": 0.0,
			"-0.02": 0.0,
			"-0.019": 0.0,
			"-0.018": 0.0,
			"-0.017": 0.0,
			"-0.016": 0.0,
			"-0.015": 0.0,
			"-0.014": 0.0,
			"-0.013": 0.0,
			"-0.012": 0.0,
			"-0.011": 1.22498480423,
			"-0.01": 5.17573147929,
			"-0.009": 4.59181862154,
			"-0.008": 3.10669162417,
			"-0.007": 3.85126999678,
			"-0.006": 3.39369141792,
			"-0.005": 5.90128841574,
			"-0.004": 11.9815925291,
			"-0.003": 15.4531222697,
			"-0.002": 11.2675878182,
			"-0.001": 8.10315726993,
			"0.0": 8.07679361315,
			"0.001": 9.8536931608,
			"0.002": 14.094957162,
			"0.003": 18.7828215664,
			"0.004": 7.18168442649,
			"0.005": 4.09207579564,
			"0.006": 2.56809125579,
			"0.007": 2.44222351217,
			"0.008": 2.5890537742,
			"0.009": 2.54899802042,
			"0.01": 1.87983745693,
			"0.011": 3.28611592314,
			"0.012": 2.43760591028,
			"0.013": 1.60620603882,
			"0.014": 0.407372505169,
			"0.015": 0.0,
			"0.016": 0.0,
			"0.017": 0.0,
			"0.018": 0.0,
			"0.019": 0.0,
			"0.02": 0.0,
			"0.021": 0.0,
			"0.022": 0.0,
			"0.023": 0.0,
			"0.024": 0.0,
			"0.025": 0.0
		}
	}
}
