{
	 "smiles": "NNC(=O)C1=CC=CC=C1OC1=CC=CC=C1", 
	 "Tm": 374.15, 
	 "num_atms": 29, 
	 "gaussian": { 
		 "optdone": 1, 
		 "sigma_profile": "yes", 
		 "theory": "DFT", 
		 "functional": "B3LYP", 
		 "basiset": "6-31G**", 
		 "properties": { 
			 "R2extent": 4236.8772, 
			 "electric_dipole_moment_norm": 4.38025103619, 
			 "electric_quadrupole_moment_norm": 16.1512524849, 
			 "total_energy": -762.526468078, 
			 "HOMO_LUMO_gap": 0.19647, 
			 "cosmo_polarized_energy": -18.38, 
			 "cosmo_cavitation_energy": 33.16, 
			 "cosmo_dispersion_energy": -22.83, 
			 "cosmo_repulsion_energy": 1.79, 
			 "cosmo_total_nonelectrostatic_energy": 12.12, 
			 "SMD_solvation_energy": 6.82 
		},
		"coords": [
			{
				"x": -0.4573543999,
				"y": 1.110960878,
				"z": 1.1716074444,
				"element": "N" 
			},
			{
				"x": 0.8846798246,
				"y": 0.8676948689,
				"z": 1.5038766824,
				"element": "N" 
			},
			{
				"x": 1.5454661939,
				"y": -0.2618954254,
				"z": 1.063155313,
				"element": "C" 
			},
			{
				"x": 2.7670864368,
				"y": -0.2909579549,
				"z": 1.0360837357,
				"element": "O" 
			},
			{
				"x": 0.7046853828,
				"y": -1.4583431868,
				"z": 0.7089241374,
				"element": "C" 
			},
			{
				"x": -0.1541875205,
				"y": -2.0270277071,
				"z": 1.6567395183,
				"element": "C" 
			},
			{
				"x": -0.8133911409,
				"y": -3.2288604452,
				"z": 1.4025412976,
				"element": "C" 
			},
			{
				"x": -0.627885283,
				"y": -3.8741870869,
				"z": 0.1787327932,
				"element": "C" 
			},
			{
				"x": 0.2041019967,
				"y": -3.3106931036,
				"z": -0.7881364872,
				"element": "C" 
			},
			{
				"x": 0.8693182633,
				"y": -2.1139923031,
				"z": -0.5221124556,
				"element": "C" 
			},
			{
				"x": 1.721610008,
				"y": -1.6346472908,
				"z": -1.4986054213,
				"element": "O" 
			},
			{
				"x": 1.5292400996,
				"y": -0.3727598127,
				"z": -2.0208691422,
				"element": "C" 
			},
			{
				"x": 0.2724610494,
				"y": 0.2375740119,
				"z": -2.0919058399,
				"element": "C" 
			},
			{
				"x": 0.159354411,
				"y": 1.496330199,
				"z": -2.6889400083,
				"element": "C" 
			},
			{
				"x": 1.2807680106,
				"y": 2.1405965689,
				"z": -3.2141425143,
				"element": "C" 
			},
			{
				"x": 2.5285236156,
				"y": 1.5143846835,
				"z": -3.1400099281,
				"element": "C" 
			},
			{
				"x": 2.6590723991,
				"y": 0.2622395618,
				"z": -2.5433795728,
				"element": "C" 
			},
			{
				"x": -0.9345150189,
				"y": 1.5186708209,
				"z": 1.9696058764,
				"element": "H" 
			},
			{
				"x": -0.5177485393,
				"y": 1.7472866028,
				"z": 0.3789785372,
				"element": "H" 
			},
			{
				"x": 1.5166741946,
				"y": 1.651889585,
				"z": 1.6479154578,
				"element": "H" 
			},
			{
				"x": -0.2871013168,
				"y": -1.5237483715,
				"z": 2.6091282045,
				"element": "H" 
			},
			{
				"x": -1.464413653,
				"y": -3.6601640509,
				"z": 2.1567403974,
				"element": "H" 
			},
			{
				"x": -1.1369023572,
				"y": -4.8105895246,
				"z": -0.0298860148,
				"element": "H" 
			},
			{
				"x": 0.3562614016,
				"y": -3.7834044068,
				"z": -1.7527579772,
				"element": "H" 
			},
			{
				"x": -0.6001204809,
				"y": -0.2650681618,
				"z": -1.6900632261,
				"element": "H" 
			},
			{
				"x": -0.8192903764,
				"y": 1.9645781789,
				"z": -2.7570059548,
				"element": "H" 
			},
			{
				"x": 1.1841962616,
				"y": 3.1166484049,
				"z": -3.6797492376,
				"element": "H" 
			},
			{
				"x": 3.4092066267,
				"y": 2.0064416571,
				"z": -3.5427759168,
				"element": "H" 
			},
			{
				"x": 3.6199039109,
				"y": -0.2338571894,
				"z": -2.4617896985,
				"element": "H" 
			}
		],
		 "valence_orbital": [ 
			{
				"type": "occ",
				"energy": -0.25608,
				"method": "rhf"
			},
			{
				"type": "occ",
				"energy": -0.25184,
				"method": "rhf"
			},
			{
				"type": "occ",
				"energy": -0.24753,
				"method": "rhf"
			},
			{
				"type": "occ",
				"energy": -0.23884,
				"method": "rhf"
			},
			{
				"type": "occ",
				"energy": -0.21929,
				"method": "rhf"
			},
			{
				"type": "unocc",
				"energy": -0.02282,
				"method": "rhf"
			},
			{
				"type": "unocc",
				"energy": -0.00585,
				"method": "rhf"
			},
			{
				"type": "unocc",
				"energy": 0.0009,
				"method": "rhf"
			},
			{
				"type": "unocc",
				"energy": 0.01074,
				"method": "rhf"
			},
			{
				"type": "unocc",
				"energy": 0.03944,
				"method": "rhf"
			}
		],
		"cosmo_sigma_profile": { 
			"-0.025": 0.0,
			"-0.024": 0.0,
			"-0.023": 0.0,
			"-0.022": 0.0,
			"-0.021": 0.0,
			"-0.02": 0.0,
			"-0.019": 0.0,
			"-0.018": 0.0,
			"-0.017": 0.0,
			"-0.016": 0.0,
			"-0.015": 0.0,
			"-0.014": 0.17821451936,
			"-0.013": 1.19756330188,
			"-0.012": 2.86136818874,
			"-0.011": 2.71993195371,
			"-0.01": 4.23414871873,
			"-0.009": 4.55070635405,
			"-0.008": 3.81315616011,
			"-0.007": 5.2249434256,
			"-0.006": 15.5552084505,
			"-0.005": 20.9937055863,
			"-0.004": 21.4161902462,
			"-0.003": 17.4634264339,
			"-0.002": 14.4408880056,
			"-0.001": 14.4995182735,
			"0.0": 14.098655843,
			"0.001": 14.2416700709,
			"0.002": 14.9442883717,
			"0.003": 19.9597142654,
			"0.004": 19.9771588623,
			"0.005": 14.69367456,
			"0.006": 6.55213512081,
			"0.007": 4.07915367326,
			"0.008": 3.86277511621,
			"0.009": 4.51880846826,
			"0.01": 2.81775443008,
			"0.011": 3.01224777329,
			"0.012": 3.28417104896,
			"0.013": 5.57400516004,
			"0.014": 2.963427138,
			"0.015": 0.251696639572,
			"0.016": 0.0,
			"0.017": 0.0,
			"0.018": 0.0,
			"0.019": 0.0,
			"0.02": 0.0,
			"0.021": 0.0,
			"0.022": 0.0,
			"0.023": 0.0,
			"0.024": 0.0,
			"0.025": 0.0
		}
	}
}
