{
	 "smiles": "CN(C)C1=CC=C(C=C2C(=O)NC(=O)NC2=O)C=C1", 
	 "Tm": 518.15, 
	 "num_atms": 32, 
	 "gaussian": { 
		 "optdone": 1, 
		 "sigma_profile": "yes", 
		 "theory": "DFT", 
		 "functional": "B3LYP", 
		 "basiset": "6-31G**", 
		 "properties": { 
			 "R2extent": 8636.1263, 
			 "electric_dipole_moment_norm": 8.61414977813, 
			 "electric_quadrupole_moment_norm": 7.62504289037, 
			 "total_energy": -893.190330751, 
			 "HOMO_LUMO_gap": 0.12546, 
			 "cosmo_polarized_energy": -19.86, 
			 "cosmo_cavitation_energy": 36.21, 
			 "cosmo_dispersion_energy": -26.82, 
			 "cosmo_repulsion_energy": 2.01, 
			 "cosmo_total_nonelectrostatic_energy": 11.4, 
			 "SMD_solvation_energy": 8.14 
		},
		"coords": [
			{
				"x": 1.005935179,
				"y": 4.8234389879,
				"z": -0.9400821805,
				"element": "C" 
			},
			{
				"x": 0.8990639735,
				"y": 3.4449966451,
				"z": -1.3974576559,
				"element": "N" 
			},
			{
				"x": 1.0174834138,
				"y": 3.1524492758,
				"z": -2.8196877263,
				"element": "C" 
			},
			{
				"x": 0.6882629815,
				"y": 2.4324576852,
				"z": -0.4978234593,
				"element": "C" 
			},
			{
				"x": 0.5689357764,
				"y": 2.6938782666,
				"z": 0.8935722027,
				"element": "C" 
			},
			{
				"x": 0.3571582621,
				"y": 1.6616365107,
				"z": 1.7832063818,
				"element": "C" 
			},
			{
				"x": 0.2477552645,
				"y": 0.3056991718,
				"z": 1.3736966993,
				"element": "C" 
			},
			{
				"x": 0.0277906278,
				"y": -0.6486895987,
				"z": 2.4233398585,
				"element": "C" 
			},
			{
				"x": -0.1401887912,
				"y": -2.011555372,
				"z": 2.5550270842,
				"element": "C" 
			},
			{
				"x": -0.3408169872,
				"y": -2.4555113226,
				"z": 3.9636810992,
				"element": "C" 
			},
			{
				"x": -0.3606932525,
				"y": -1.7120234923,
				"z": 4.9361406776,
				"element": "O" 
			},
			{
				"x": -0.5164047565,
				"y": -3.8261902133,
				"z": 4.1570976226,
				"element": "N" 
			},
			{
				"x": -0.5259259199,
				"y": -4.8213654836,
				"z": 3.194856663,
				"element": "C" 
			},
			{
				"x": -0.6864396018,
				"y": -6.0001360363,
				"z": 3.4513151426,
				"element": "O" 
			},
			{
				"x": -0.334451598,
				"y": -4.3432397901,
				"z": 1.9088502686,
				"element": "N" 
			},
			{
				"x": -0.1401801585,
				"y": -3.0224478419,
				"z": 1.4865166993,
				"element": "C" 
			},
			{
				"x": 0.0103385107,
				"y": -2.8268247759,
				"z": 0.2844720198,
				"element": "O" 
			},
			{
				"x": 0.3681601436,
				"y": 0.0547807578,
				"z": -0.0175510373,
				"element": "C" 
			},
			{
				"x": 0.5802394693,
				"y": 1.0791042576,
				"z": -0.9184013804,
				"element": "C" 
			},
			{
				"x": 0.089735875,
				"y": 5.1561834922,
				"z": -0.4357126785,
				"element": "H" 
			},
			{
				"x": 1.8456325724,
				"y": 4.9569719005,
				"z": -0.24614707,
				"element": "H" 
			},
			{
				"x": 1.1724704847,
				"y": 5.4739547197,
				"z": -1.7986018965,
				"element": "H" 
			},
			{
				"x": 1.1805875852,
				"y": 4.0827070431,
				"z": -3.3638042138,
				"element": "H" 
			},
			{
				"x": 1.8633023061,
				"y": 2.485087605,
				"z": -3.0275515697,
				"element": "H" 
			},
			{
				"x": 0.1074413083,
				"y": 2.6835703672,
				"z": -3.214611281,
				"element": "H" 
			},
			{
				"x": 0.6427884719,
				"y": 3.7057381775,
				"z": 1.271320643,
				"element": "H" 
			},
			{
				"x": 0.2705259722,
				"y": 1.8962988976,
				"z": 2.8409810949,
				"element": "H" 
			},
			{
				"x": -0.0237190581,
				"y": -0.1762819485,
				"z": 3.4044834197,
				"element": "H" 
			},
			{
				"x": -0.6526904014,
				"y": -4.129298015,
				"z": 5.1129071399,
				"element": "H" 
			},
			{
				"x": -0.3349188864,
				"y": -5.0409456759,
				"z": 1.1756664824,
				"element": "H" 
			},
			{
				"x": 0.2904104727,
				"y": -0.9651571075,
				"z": -0.3680427388,
				"element": "H" 
			},
			{
				"x": 0.6644107607,
				"y": 0.8299129125,
				"z": -1.9688563112,
				"element": "H" 
			}
		],
		 "valence_orbital": [ 
			{
				"type": "occ",
				"energy": -0.27922,
				"method": "rhf"
			},
			{
				"type": "occ",
				"energy": -0.27021,
				"method": "rhf"
			},
			{
				"type": "occ",
				"energy": -0.26305,
				"method": "rhf"
			},
			{
				"type": "occ",
				"energy": -0.24869,
				"method": "rhf"
			},
			{
				"type": "occ",
				"energy": -0.20763,
				"method": "rhf"
			},
			{
				"type": "unocc",
				"energy": -0.08217,
				"method": "rhf"
			},
			{
				"type": "unocc",
				"energy": -0.00822,
				"method": "rhf"
			},
			{
				"type": "unocc",
				"energy": 0.00788,
				"method": "rhf"
			},
			{
				"type": "unocc",
				"energy": 0.01316,
				"method": "rhf"
			},
			{
				"type": "unocc",
				"energy": 0.05196,
				"method": "rhf"
			}
		],
		"cosmo_sigma_profile": { 
			"-0.025": 0.0,
			"-0.024": 0.0,
			"-0.023": 0.0,
			"-0.022": 0.0,
			"-0.021": 0.0,
			"-0.02": 0.0,
			"-0.019": 0.0,
			"-0.018": 0.0,
			"-0.017": 0.0,
			"-0.016": 0.73935627703,
			"-0.015": 1.62833907733,
			"-0.014": 1.97707445431,
			"-0.013": 1.48781685611,
			"-0.012": 1.27683616087,
			"-0.011": 0.745850012376,
			"-0.01": 2.10770283305,
			"-0.009": 1.98211460729,
			"-0.008": 2.82659857462,
			"-0.007": 7.67301165908,
			"-0.006": 13.9923977612,
			"-0.005": 26.2040476868,
			"-0.004": 23.6894381541,
			"-0.003": 24.5692272554,
			"-0.002": 25.6384283627,
			"-0.001": 18.2195301377,
			"0.0": 14.6066491818,
			"0.001": 16.9777080716,
			"0.002": 16.4278223515,
			"0.003": 16.9897811269,
			"0.004": 16.4389697608,
			"0.005": 6.62677087965,
			"0.006": 4.96887182529,
			"0.007": 3.29013065632,
			"0.008": 3.76363526603,
			"0.009": 4.6138751817,
			"0.01": 4.80806052597,
			"0.011": 6.37779337457,
			"0.012": 12.8279045699,
			"0.013": 5.57721973652,
			"0.014": 0.0265081224186,
			"0.015": 0.0,
			"0.016": 0.0,
			"0.017": 0.0,
			"0.018": 0.0,
			"0.019": 0.0,
			"0.02": 0.0,
			"0.021": 0.0,
			"0.022": 0.0,
			"0.023": 0.0,
			"0.024": 0.0,
			"0.025": 0.0
		}
	}
}
