{
	 "smiles": "NC(=O)N1CC(O)CC1C(O)=O", 
	 "Tm": 440.15, 
	 "num_atms": 22, 
	 "gaussian": { 
		 "optdone": 1, 
		 "sigma_profile": "yes", 
		 "theory": "DFT", 
		 "functional": "B3LYP", 
		 "basiset": "6-31G**", 
		 "properties": { 
			 "R2extent": 2138.2257, 
			 "electric_dipole_moment_norm": 6.12331258307, 
			 "electric_quadrupole_moment_norm": 12.2500340583, 
			 "total_energy": -645.084406277, 
			 "HOMO_LUMO_gap": 0.23895, 
			 "cosmo_polarized_energy": -28.09, 
			 "cosmo_cavitation_energy": 25.3, 
			 "cosmo_dispersion_energy": -18.29, 
			 "cosmo_repulsion_energy": 1.5, 
			 "cosmo_total_nonelectrostatic_energy": 8.51, 
			 "SMD_solvation_energy": 5.4 
		},
		"coords": [
			{
				"x": 2.6594119385,
				"y": 1.9746754057,
				"z": 1.1125813,
				"element": "N" 
			},
			{
				"x": 1.852240128,
				"y": 1.0887892558,
				"z": 1.814894053,
				"element": "C" 
			},
			{
				"x": 2.2696941122,
				"y": 0.4295408041,
				"z": 2.7589702455,
				"element": "O" 
			},
			{
				"x": 0.5428030212,
				"y": 0.9952677106,
				"z": 1.3860363053,
				"element": "N" 
			},
			{
				"x": -0.3460699166,
				"y": 0.0182316899,
				"z": 2.0320332197,
				"element": "C" 
			},
			{
				"x": -1.6145054301,
				"y": 0.0150000611,
				"z": 1.1647160024,
				"element": "C" 
			},
			{
				"x": -1.5422596841,
				"y": -1.1221767524,
				"z": 0.309070008,
				"element": "O" 
			},
			{
				"x": -1.5216855887,
				"y": 1.3259095942,
				"z": 0.3636583361,
				"element": "C" 
			},
			{
				"x": -0.0029780929,
				"y": 1.4830701766,
				"z": 0.1357355665,
				"element": "C" 
			},
			{
				"x": 0.5056062124,
				"y": 0.6948784285,
				"z": -1.081867238,
				"element": "C" 
			},
			{
				"x": -0.0761493497,
				"y": 1.1590183179,
				"z": -2.2204815534,
				"element": "O" 
			},
			{
				"x": 1.3266938451,
				"y": -0.1861259109,
				"z": -1.0717141168,
				"element": "O" 
			},
			{
				"x": 2.2447604905,
				"y": 2.7880241484,
				"z": 0.6821383846,
				"element": "H" 
			},
			{
				"x": 3.5326128432,
				"y": 2.1489507521,
				"z": 1.5885840746,
				"element": "H" 
			},
			{
				"x": 0.1016121254,
				"y": -0.9784989094,
				"z": 2.053475718,
				"element": "H" 
			},
			{
				"x": -0.5526055626,
				"y": 0.3225537561,
				"z": 3.0632967688,
				"element": "H" 
			},
			{
				"x": -2.5220520168,
				"y": -0.0218552743,
				"z": 1.7829300822,
				"element": "H" 
			},
			{
				"x": -2.3363880099,
				"y": -1.1344209501,
				"z": -0.241348505,
				"element": "H" 
			},
			{
				"x": -1.8778443298,
				"y": 2.1663128655,
				"z": 0.9686026711,
				"element": "H" 
			},
			{
				"x": -2.0929942039,
				"y": 1.3023336701,
				"z": -0.5673620383,
				"element": "H" 
			},
			{
				"x": 0.2415241851,
				"y": 2.5375045262,
				"z": -0.0450335618,
				"element": "H" 
			},
			{
				"x": 0.3018732835,
				"y": 0.6348166345,
				"z": -2.9465157224,
				"element": "H" 
			}
		],
		 "valence_orbital": [ 
			{
				"type": "occ",
				"energy": -0.28072,
				"method": "rhf"
			},
			{
				"type": "occ",
				"energy": -0.27905,
				"method": "rhf"
			},
			{
				"type": "occ",
				"energy": -0.26209,
				"method": "rhf"
			},
			{
				"type": "occ",
				"energy": -0.24366,
				"method": "rhf"
			},
			{
				"type": "occ",
				"energy": -0.23476,
				"method": "rhf"
			},
			{
				"type": "unocc",
				"energy": 0.00419,
				"method": "rhf"
			},
			{
				"type": "unocc",
				"energy": 0.05635,
				"method": "rhf"
			},
			{
				"type": "unocc",
				"energy": 0.05957,
				"method": "rhf"
			},
			{
				"type": "unocc",
				"energy": 0.07149,
				"method": "rhf"
			},
			{
				"type": "unocc",
				"energy": 0.07989,
				"method": "rhf"
			}
		],
		"cosmo_sigma_profile": { 
			"-0.025": 0.0,
			"-0.024": 0.0,
			"-0.023": 0.0,
			"-0.022": 0.0,
			"-0.021": 0.0,
			"-0.02": 0.0,
			"-0.019": 0.0408300875767,
			"-0.018": 0.820488061924,
			"-0.017": 0.878348476679,
			"-0.016": 1.6723526404,
			"-0.015": 1.93343344935,
			"-0.014": 3.78306899428,
			"-0.013": 3.95793050119,
			"-0.012": 4.11258483189,
			"-0.011": 4.01182577916,
			"-0.01": 5.09036680421,
			"-0.009": 4.6930637297,
			"-0.008": 4.44794335642,
			"-0.007": 4.62729124788,
			"-0.006": 6.55466414167,
			"-0.005": 16.6551088326,
			"-0.004": 13.5903063043,
			"-0.003": 10.2364448585,
			"-0.002": 11.140767982,
			"-0.001": 7.04720721564,
			"0.0": 6.23755244168,
			"0.001": 6.01644243903,
			"0.002": 6.51475349059,
			"0.003": 5.65493332463,
			"0.004": 4.42671308835,
			"0.005": 3.88080412731,
			"0.006": 5.59080271038,
			"0.007": 6.30298962984,
			"0.008": 5.96359736654,
			"0.009": 5.4853009818,
			"0.01": 6.27238558959,
			"0.011": 9.36742107317,
			"0.012": 7.08506481867,
			"0.013": 3.65685967436,
			"0.014": 5.53831075119,
			"0.015": 3.81691731251,
			"0.016": 0.038592033892,
			"0.017": 0.0,
			"0.018": 0.0,
			"0.019": 0.0,
			"0.02": 0.0,
			"0.021": 0.0,
			"0.022": 0.0,
			"0.023": 0.0,
			"0.024": 0.0,
			"0.025": 0.0
		}
	}
}
