{
	 "smiles": "COC1=CC2=C(C=C1)C(=CC(S)=N2)C1=CN=CC=C1", 
	 "Tm": 543.15, 
	 "num_atms": 31, 
	 "gaussian": { 
		 "optdone": 1, 
		 "sigma_profile": "yes", 
		 "theory": "DFT", 
		 "functional": "B3LYP", 
		 "basiset": "6-31G**", 
		 "properties": { 
			 "R2extent": 6751.5245, 
			 "electric_dipole_moment_norm": 1.7905365397, 
			 "electric_quadrupole_moment_norm": 28.6288495623, 
			 "total_energy": -1161.73616775, 
			 "HOMO_LUMO_gap": 0.16313, 
			 "cosmo_polarized_energy": -14.44, 
			 "cosmo_cavitation_energy": 37.04, 
			 "cosmo_dispersion_energy": -27.34, 
			 "cosmo_repulsion_energy": 2.04, 
			 "cosmo_total_nonelectrostatic_energy": 11.75, 
			 "SMD_solvation_energy": 3.21 
		},
		"coords": [
			{
				"x": 0.8321804414,
				"y": 0.8775116154,
				"z": 5.3964929778,
				"element": "C" 
			},
			{
				"x": 0.3049409144,
				"y": -0.2261610422,
				"z": 4.6722151751,
				"element": "O" 
			},
			{
				"x": 0.0487136307,
				"y": -0.0574517023,
				"z": 3.3481928383,
				"element": "C" 
			},
			{
				"x": 0.2637371352,
				"y": 1.1086952483,
				"z": 2.6390393885,
				"element": "C" 
			},
			{
				"x": -0.0417087853,
				"y": 1.1666857283,
				"z": 1.254608987,
				"element": "C" 
			},
			{
				"x": -0.5926164955,
				"y": 0.0212498569,
				"z": 0.593286678,
				"element": "C" 
			},
			{
				"x": -0.7770233442,
				"y": -1.166258305,
				"z": 1.3551282402,
				"element": "C" 
			},
			{
				"x": -0.4690789011,
				"y": -1.2074945353,
				"z": 2.6914668277,
				"element": "C" 
			},
			{
				"x": -0.8880903556,
				"y": 0.1432165712,
				"z": -0.8010084328,
				"element": "C" 
			},
			{
				"x": -0.596753874,
				"y": 1.3383403123,
				"z": -1.4335239028,
				"element": "C" 
			},
			{
				"x": -0.0405348028,
				"y": 2.4039320659,
				"z": -0.6800370546,
				"element": "C" 
			},
			{
				"x": 0.3534280999,
				"y": 3.9825874639,
				"z": -1.4247674117,
				"element": "S" 
			},
			{
				"x": 0.2201709823,
				"y": 2.3371596541,
				"z": 0.6057532376,
				"element": "N" 
			},
			{
				"x": -1.4970113766,
				"y": -0.9603050111,
				"z": -1.5893572661,
				"element": "C" 
			},
			{
				"x": -2.7122844448,
				"y": -1.5569707712,
				"z": -1.2094340171,
				"element": "C" 
			},
			{
				"x": -3.323895708,
				"y": -2.5228723852,
				"z": -1.9007852687,
				"element": "N" 
			},
			{
				"x": -2.7361049661,
				"y": -2.944642878,
				"z": -3.0275266825,
				"element": "C" 
			},
			{
				"x": -1.5357589617,
				"y": -2.4205481575,
				"z": -3.508655912,
				"element": "C" 
			},
			{
				"x": -0.909726704,
				"y": -1.4132479187,
				"z": -2.7788130147,
				"element": "C" 
			},
			{
				"x": 0.9578340456,
				"y": 0.5311816942,
				"z": 6.4231273167,
				"element": "H" 
			},
			{
				"x": 1.8038792725,
				"y": 1.1920566387,
				"z": 4.9962191819,
				"element": "H" 
			},
			{
				"x": 0.1444357346,
				"y": 1.7319648458,
				"z": 5.381260748,
				"element": "H" 
			},
			{
				"x": 0.6712784551,
				"y": 2.0044278847,
				"z": 3.0893086575,
				"element": "H" 
			},
			{
				"x": -1.1560034886,
				"y": -2.0583286175,
				"z": 0.8693470233,
				"element": "H" 
			},
			{
				"x": -0.6049362647,
				"y": -2.111511543,
				"z": 3.2755447146,
				"element": "H" 
			},
			{
				"x": -0.8242765219,
				"y": 1.4650251784,
				"z": -2.4862478556,
				"element": "H" 
			},
			{
				"x": -0.0412329621,
				"y": 3.674200353,
				"z": -2.6757769257,
				"element": "H" 
			},
			{
				"x": -3.2189531391,
				"y": -1.2188801617,
				"z": -0.3075061423,
				"element": "H" 
			},
			{
				"x": -3.2495725509,
				"y": -3.7366329562,
				"z": -3.5696309582,
				"element": "H" 
			},
			{
				"x": -1.1011264293,
				"y": -2.797273999,
				"z": -4.4292541705,
				"element": "H" 
			},
			{
				"x": 0.0318913646,
				"y": -0.9869551272,
				"z": -3.113066977,
				"element": "H" 
			}
		],
		 "valence_orbital": [ 
			{
				"type": "occ",
				"energy": -0.26649,
				"method": "rhf"
			},
			{
				"type": "occ",
				"energy": -0.25928,
				"method": "rhf"
			},
			{
				"type": "occ",
				"energy": -0.25817,
				"method": "rhf"
			},
			{
				"type": "occ",
				"energy": -0.22421,
				"method": "rhf"
			},
			{
				"type": "occ",
				"energy": -0.22212,
				"method": "rhf"
			},
			{
				"type": "unocc",
				"energy": -0.05899,
				"method": "rhf"
			},
			{
				"type": "unocc",
				"energy": -0.03196,
				"method": "rhf"
			},
			{
				"type": "unocc",
				"energy": -0.02131,
				"method": "rhf"
			},
			{
				"type": "unocc",
				"energy": -0.01436,
				"method": "rhf"
			},
			{
				"type": "unocc",
				"energy": 0.01836,
				"method": "rhf"
			}
		],
		"cosmo_sigma_profile": { 
			"-0.025": 0.0,
			"-0.024": 0.0,
			"-0.023": 0.0,
			"-0.022": 0.0,
			"-0.021": 0.0,
			"-0.02": 0.0,
			"-0.019": 0.0,
			"-0.018": 0.0,
			"-0.017": 0.0,
			"-0.016": 0.0,
			"-0.015": 0.0,
			"-0.014": 0.0,
			"-0.013": 0.0,
			"-0.012": 0.000871344350549,
			"-0.011": 2.34402877735,
			"-0.01": 2.78062867509,
			"-0.009": 2.27613258607,
			"-0.008": 2.66978873938,
			"-0.007": 8.1873686033,
			"-0.006": 19.558173,
			"-0.005": 25.9647563433,
			"-0.004": 23.7943446416,
			"-0.003": 20.0615613619,
			"-0.002": 16.1631389732,
			"-0.001": 15.2554744127,
			"0.0": 20.13404091,
			"0.001": 26.4204473089,
			"0.002": 27.4937970655,
			"0.003": 22.9155884052,
			"0.004": 16.0194133671,
			"0.005": 9.94383102362,
			"0.006": 7.90647613453,
			"0.007": 8.16619230497,
			"0.008": 6.510247949,
			"0.009": 3.78693567525,
			"0.01": 3.22414238689,
			"0.011": 1.75791694103,
			"0.012": 1.95943435765,
			"0.013": 1.6543647193,
			"0.014": 1.4351557974,
			"0.015": 0.779557291804,
			"0.016": 0.88942981401,
			"0.017": 0.0407597145468,
			"0.018": 0.0,
			"0.019": 0.0,
			"0.02": 0.0,
			"0.021": 0.0,
			"0.022": 0.0,
			"0.023": 0.0,
			"0.024": 0.0,
			"0.025": 0.0
		}
	}
}
