{
	 "smiles": "FC=O", 
	 "Tm": 131.15, 
	 "num_atms": 4, 
	 "gaussian": { 
		 "optdone": 1, 
		 "sigma_profile": "yes", 
		 "theory": "DFT", 
		 "functional": "B3LYP", 
		 "basiset": "6-31G**", 
		 "properties": { 
			 "R2extent": 611.8989, 
			 "electric_dipole_moment_norm": 1.9932510454, 
			 "electric_quadrupole_moment_norm": 8.13636218159, 
			 "total_energy": -213.760994501, 
			 "HOMO_LUMO_gap": 0.29435, 
			 "cosmo_polarized_energy": -4.9, 
			 "cosmo_cavitation_energy": 8.63, 
			 "cosmo_dispersion_energy": -6.04, 
			 "cosmo_repulsion_energy": 0.59, 
			 "cosmo_total_nonelectrostatic_energy": 3.18, 
			 "SMD_solvation_energy": 4.42 
		},
		"coords": [
			{
				"x": 1.5704506068,
				"y": -0.3568376406,
				"z": 0.4573649649,
				"element": "F" 
			},
			{
				"x": 2.6811334473,
				"y": -0.4336509356,
				"z": -0.2989876501,
				"element": "C" 
			},
			{
				"x": 2.6854417919,
				"y": -0.8685939941,
				"z": -1.4027920908,
				"element": "O" 
			},
			{
				"x": 3.5352741541,
				"y": -0.0394174297,
				"z": 0.267414776,
				"element": "H" 
			}
		],
		 "valence_orbital": [ 
			{
				"type": "occ",
				"energy": -0.5,
				"method": "rhf"
			},
			{
				"type": "occ",
				"energy": -0.49578,
				"method": "rhf"
			},
			{
				"type": "occ",
				"energy": -0.41224,
				"method": "rhf"
			},
			{
				"type": "occ",
				"energy": -0.38626,
				"method": "rhf"
			},
			{
				"type": "occ",
				"energy": -0.32411,
				"method": "rhf"
			},
			{
				"type": "unocc",
				"energy": -0.02976,
				"method": "rhf"
			},
			{
				"type": "unocc",
				"energy": 0.10217,
				"method": "rhf"
			},
			{
				"type": "unocc",
				"energy": 0.19172,
				"method": "rhf"
			},
			{
				"type": "unocc",
				"energy": 0.26008,
				"method": "rhf"
			},
			{
				"type": "unocc",
				"energy": 0.48241,
				"method": "rhf"
			}
		],
		"cosmo_sigma_profile": { 
			"-0.025": 0.0,
			"-0.024": 0.0,
			"-0.023": 0.0,
			"-0.022": 0.0,
			"-0.021": 0.0,
			"-0.02": 0.0,
			"-0.019": 0.0,
			"-0.018": 0.0,
			"-0.017": 0.0,
			"-0.016": 0.0,
			"-0.015": 0.0,
			"-0.014": 0.0,
			"-0.013": 0.0,
			"-0.012": 2.31971811743,
			"-0.011": 3.23704068365,
			"-0.01": 2.18550513975,
			"-0.009": 1.55982687594,
			"-0.008": 2.2036671284,
			"-0.007": 2.5842051735,
			"-0.006": 2.4826212132,
			"-0.005": 2.55201041062,
			"-0.004": 1.89887831127,
			"-0.003": 2.50313617191,
			"-0.002": 1.81601622832,
			"-0.001": 2.59614671989,
			"0.0": 2.85470702454,
			"0.001": 3.23035899213,
			"0.002": 7.21260682021,
			"0.003": 9.26354623871,
			"0.004": 2.70101580325,
			"0.005": 1.98466106712,
			"0.006": 1.85405452565,
			"0.007": 2.47112901814,
			"0.008": 3.85107039202,
			"0.009": 5.28038410392,
			"0.01": 1.07608082641,
			"0.011": 0.0,
			"0.012": 0.0,
			"0.013": 0.0,
			"0.014": 0.0,
			"0.015": 0.0,
			"0.016": 0.0,
			"0.017": 0.0,
			"0.018": 0.0,
			"0.019": 0.0,
			"0.02": 0.0,
			"0.021": 0.0,
			"0.022": 0.0,
			"0.023": 0.0,
			"0.024": 0.0,
			"0.025": 0.0
		}
	}
}
