{
	 "smiles": "[O-][N+](=O)C1=CC=C(C=C1)C1NN2C(S1)=NN=C2C1=CC=C(C=C1)[N+]([O-])=O", 
	 "Tm": 502.15, 
	 "num_atms": 36, 
	 "gaussian": { 
		 "optdone": 1, 
		 "sigma_profile": "yes", 
		 "theory": "DFT", 
		 "functional": "B3LYP", 
		 "basiset": "6-31G**", 
		 "properties": { 
			 "R2extent": 15342.5211, 
			 "electric_dipole_moment_norm": 3.99262098126, 
			 "electric_quadrupole_moment_norm": 43.5441112897, 
			 "total_energy": -1604.94212223, 
			 "HOMO_LUMO_gap": 0.12736, 
			 "cosmo_polarized_energy": -28.42, 
			 "cosmo_cavitation_energy": 44.94, 
			 "cosmo_dispersion_energy": -32.68, 
			 "cosmo_repulsion_energy": 2.36, 
			 "cosmo_total_nonelectrostatic_energy": 14.63, 
			 "SMD_solvation_energy": 8.95 
		},
		"coords": [
			{
				"x": -6.8773277245,
				"y": -0.8686981645,
				"z": -0.5076040364,
				"element": "O" 
			},
			{
				"x": -6.1507990901,
				"y": -0.494506373,
				"z": -1.425338788,
				"element": "N" 
			},
			{
				"x": -6.4238150229,
				"y": -0.5702475141,
				"z": -2.621130971,
				"element": "O" 
			},
			{
				"x": -4.8450283179,
				"y": 0.0913097761,
				"z": -1.0625672282,
				"element": "C" 
			},
			{
				"x": -4.502336125,
				"y": 0.1882512803,
				"z": 0.2829762514,
				"element": "C" 
			},
			{
				"x": -3.2687227758,
				"y": 0.7418066837,
				"z": 0.6160882749,
				"element": "C" 
			},
			{
				"x": -2.3944089912,
				"y": 1.1916027304,
				"z": -0.3825416809,
				"element": "C" 
			},
			{
				"x": -2.7721668817,
				"y": 1.0869391715,
				"z": -1.7301374224,
				"element": "C" 
			},
			{
				"x": -4.0003251258,
				"y": 0.5324065941,
				"z": -2.0784504882,
				"element": "C" 
			},
			{
				"x": -1.0495119242,
				"y": 1.742691985,
				"z": 0.0134810132,
				"element": "C" 
			},
			{
				"x": 0.0433675076,
				"y": 0.8149636769,
				"z": -0.3084572424,
				"element": "N" 
			},
			{
				"x": 1.2025301335,
				"y": 1.6156651059,
				"z": -0.336321421,
				"element": "N" 
			},
			{
				"x": 1.0620030665,
				"y": 2.9486549496,
				"z": -0.6242041303,
				"element": "C" 
			},
			{
				"x": -0.6241615488,
				"y": 3.4096404006,
				"z": -0.8236861117,
				"element": "S" 
			},
			{
				"x": 2.2257196746,
				"y": 3.5454435508,
				"z": -0.6589559432,
				"element": "N" 
			},
			{
				"x": 3.1671336557,
				"y": 2.5651708224,
				"z": -0.4017963147,
				"element": "N" 
			},
			{
				"x": 2.5590070774,
				"y": 1.4078337494,
				"z": -0.1953509352,
				"element": "C" 
			},
			{
				"x": 3.2361108551,
				"y": 0.1530321374,
				"z": 0.1296054108,
				"element": "C" 
			},
			{
				"x": 4.6440652685,
				"y": 0.1335780695,
				"z": 0.1016398384,
				"element": "C" 
			},
			{
				"x": 5.3369555281,
				"y": -1.0288118232,
				"z": 0.4084087692,
				"element": "C" 
			},
			{
				"x": 4.6149946164,
				"y": -2.1751742026,
				"z": 0.74373704,
				"element": "C" 
			},
			{
				"x": 3.2229352491,
				"y": -2.1833388556,
				"z": 0.7830129669,
				"element": "C" 
			},
			{
				"x": 2.5335786206,
				"y": -1.0150689123,
				"z": 0.4746504951,
				"element": "C" 
			},
			{
				"x": 5.3437036403,
				"y": -3.4108808527,
				"z": 1.0660409,
				"element": "N" 
			},
			{
				"x": 4.6791027366,
				"y": -4.4059399545,
				"z": 1.355706832,
				"element": "O" 
			},
			{
				"x": 6.5729818089,
				"y": -3.3744453928,
				"z": 1.0262174734,
				"element": "O" 
			},
			{
				"x": -5.1937755857,
				"y": -0.1647059828,
				"z": 1.0376350278,
				"element": "H" 
			},
			{
				"x": -2.9825254382,
				"y": 0.8218050804,
				"z": 1.6604006151,
				"element": "H" 
			},
			{
				"x": -2.1146745955,
				"y": 1.4617497865,
				"z": -2.5086139508,
				"element": "H" 
			},
			{
				"x": -4.3152181123,
				"y": 0.4441035006,
				"z": -3.1105724614,
				"element": "H" 
			},
			{
				"x": -1.009346009,
				"y": 1.9424607052,
				"z": 1.0859612751,
				"element": "H" 
			},
			{
				"x": -0.0958802708,
				"y": 0.4418632581,
				"z": -1.2516650286,
				"element": "H" 
			},
			{
				"x": 5.1734951758,
				"y": 1.0420606737,
				"z": -0.1614377182,
				"element": "H" 
			},
			{
				"x": 6.4188632423,
				"y": -1.066579798,
				"z": 0.3918672892,
				"element": "H" 
			},
			{
				"x": 2.704143834,
				"y": -3.0942582011,
				"z": 1.053711702,
				"element": "H" 
			},
			{
				"x": 1.4502318484,
				"y": -1.0060776607,
				"z": 0.5123906982,
				"element": "H" 
			}
		],
		 "valence_orbital": [ 
			{
				"type": "occ",
				"energy": -0.29485,
				"method": "rhf"
			},
			{
				"type": "occ",
				"energy": -0.28983,
				"method": "rhf"
			},
			{
				"type": "occ",
				"energy": -0.2867,
				"method": "rhf"
			},
			{
				"type": "occ",
				"energy": -0.27547,
				"method": "rhf"
			},
			{
				"type": "occ",
				"energy": -0.24392,
				"method": "rhf"
			},
			{
				"type": "unocc",
				"energy": -0.11656,
				"method": "rhf"
			},
			{
				"type": "unocc",
				"energy": -0.10086,
				"method": "rhf"
			},
			{
				"type": "unocc",
				"energy": -0.06262,
				"method": "rhf"
			},
			{
				"type": "unocc",
				"energy": -0.04816,
				"method": "rhf"
			},
			{
				"type": "unocc",
				"energy": -0.03581,
				"method": "rhf"
			}
		],
		"cosmo_sigma_profile": { 
			"-0.025": 0.0,
			"-0.024": 0.0,
			"-0.023": 0.0,
			"-0.022": 0.0,
			"-0.021": 0.0,
			"-0.02": 0.0,
			"-0.019": 0.0,
			"-0.018": 0.0,
			"-0.017": 0.0,
			"-0.016": 0.260536263068,
			"-0.015": 1.35629368367,
			"-0.014": 1.68409049852,
			"-0.013": 1.9715844901,
			"-0.012": 1.49413074709,
			"-0.011": 1.69085501969,
			"-0.01": 4.35344079198,
			"-0.009": 6.25853039678,
			"-0.008": 10.7426644101,
			"-0.007": 16.2240530926,
			"-0.006": 18.1995588279,
			"-0.005": 16.1412840905,
			"-0.004": 18.9941684712,
			"-0.003": 20.118553545,
			"-0.002": 27.9226164351,
			"-0.001": 32.964352683,
			"0.0": 36.6450611463,
			"0.001": 29.409729955,
			"0.002": 13.0845048046,
			"0.003": 10.8512843642,
			"0.004": 9.93345060343,
			"0.005": 10.6764603641,
			"0.006": 10.2718584548,
			"0.007": 19.5365918739,
			"0.008": 14.7141398785,
			"0.009": 9.90408769402,
			"0.01": 6.26296901353,
			"0.011": 2.97503401376,
			"0.012": 3.35649485585,
			"0.013": 3.18978159497,
			"0.014": 2.11702713585,
			"0.015": 1.63587428655,
			"0.016": 0.319333949423,
			"0.017": 0.0,
			"0.018": 0.0,
			"0.019": 0.0,
			"0.02": 0.0,
			"0.021": 0.0,
			"0.022": 0.0,
			"0.023": 0.0,
			"0.024": 0.0,
			"0.025": 0.0
		}
	}
}
