{
	 "smiles": "CSC1=C(NN)C=C(C=C1)C(F)(F)F", 
	 "Tm": 360.15, 
	 "num_atms": 23, 
	 "gaussian": { 
		 "optdone": 1, 
		 "sigma_profile": "yes", 
		 "theory": "DFT", 
		 "functional": "B3LYP", 
		 "basiset": "6-31G**", 
		 "properties": { 
			 "R2extent": 5237.1248, 
			 "electric_dipole_moment_norm": 4.59033977936, 
			 "electric_quadrupole_moment_norm": 19.6409282288, 
			 "total_energy": -1117.46009396, 
			 "HOMO_LUMO_gap": 0.17979, 
			 "cosmo_polarized_energy": -10.26, 
			 "cosmo_cavitation_energy": 29.83, 
			 "cosmo_dispersion_energy": -21.48, 
			 "cosmo_repulsion_energy": 1.63, 
			 "cosmo_total_nonelectrostatic_energy": 9.99, 
			 "SMD_solvation_energy": 6.9 
		},
		"coords": [
			{
				"x": -0.0537269989,
				"y": 1.317011265,
				"z": -1.8702366629,
				"element": "C" 
			},
			{
				"x": 1.0795988862,
				"y": 1.3116052696,
				"z": -0.4253757149,
				"element": "S" 
			},
			{
				"x": 0.1975404517,
				"y": 0.2220717096,
				"z": 0.6984419722,
				"element": "C" 
			},
			{
				"x": -0.4040468735,
				"y": 0.7429260994,
				"z": 1.8718964754,
				"element": "C" 
			},
			{
				"x": -0.267457706,
				"y": 2.0847778867,
				"z": 2.191475478,
				"element": "N" 
			},
			{
				"x": -1.1503116102,
				"y": 2.6455008736,
				"z": 3.130769544,
				"element": "N" 
			},
			{
				"x": -1.0984637655,
				"y": -0.1386846766,
				"z": 2.7204040383,
				"element": "C" 
			},
			{
				"x": -1.1761288581,
				"y": -1.4929202996,
				"z": 2.4163044071,
				"element": "C" 
			},
			{
				"x": -0.5644603433,
				"y": -2.0165562952,
				"z": 1.2716605143,
				"element": "C" 
			},
			{
				"x": 0.1251573706,
				"y": -1.1496014238,
				"z": 0.4310692981,
				"element": "C" 
			},
			{
				"x": -1.9817393665,
				"y": -2.4026098009,
				"z": 3.305301586,
				"element": "C" 
			},
			{
				"x": -3.2614023999,
				"y": -2.5134582898,
				"z": 2.8725734055,
				"element": "F" 
			},
			{
				"x": -1.473494582,
				"y": -3.6556698057,
				"z": 3.3361734436,
				"element": "F" 
			},
			{
				"x": -2.0380787335,
				"y": -1.9578214329,
				"z": 4.5796205024,
				"element": "F" 
			},
			{
				"x": -0.1638207268,
				"y": 0.3109508832,
				"z": -2.2789882683,
				"element": "H" 
			},
			{
				"x": 0.407209732,
				"y": 1.9607072004,
				"z": -2.6232625874,
				"element": "H" 
			},
			{
				"x": -1.0330712909,
				"y": 1.7171347514,
				"z": -1.6010133557,
				"element": "H" 
			},
			{
				"x": 0.0617534705,
				"y": 2.6665347913,
				"z": 1.4265724654,
				"element": "H" 
			},
			{
				"x": -0.6329011472,
				"y": 3.2777366027,
				"z": 3.7332491794,
				"element": "H" 
			},
			{
				"x": -1.8968222111,
				"y": 3.1658813201,
				"z": 2.671853043,
				"element": "H" 
			},
			{
				"x": -1.5647681794,
				"y": 0.2632341135,
				"z": 3.6103007805,
				"element": "H" 
			},
			{
				"x": -0.6141578287,
				"y": -3.0774595228,
				"z": 1.0564121478,
				"element": "H" 
			},
			{
				"x": 0.6221927105,
				"y": -1.5346912193,
				"z": -0.4543016916,
				"element": "H" 
			}
		],
		 "valence_orbital": [ 
			{
				"type": "occ",
				"energy": -0.31194,
				"method": "rhf"
			},
			{
				"type": "occ",
				"energy": -0.27905,
				"method": "rhf"
			},
			{
				"type": "occ",
				"energy": -0.26283,
				"method": "rhf"
			},
			{
				"type": "occ",
				"energy": -0.2346,
				"method": "rhf"
			},
			{
				"type": "occ",
				"energy": -0.20815,
				"method": "rhf"
			},
			{
				"type": "unocc",
				"energy": -0.02836,
				"method": "rhf"
			},
			{
				"type": "unocc",
				"energy": 0.00433,
				"method": "rhf"
			},
			{
				"type": "unocc",
				"energy": 0.04319,
				"method": "rhf"
			},
			{
				"type": "unocc",
				"energy": 0.06457,
				"method": "rhf"
			},
			{
				"type": "unocc",
				"energy": 0.07098,
				"method": "rhf"
			}
		],
		"cosmo_sigma_profile": { 
			"-0.025": 0.0,
			"-0.024": 0.0,
			"-0.023": 0.0,
			"-0.022": 0.0,
			"-0.021": 0.0,
			"-0.02": 0.0,
			"-0.019": 0.0,
			"-0.018": 0.0,
			"-0.017": 0.0,
			"-0.016": 0.0,
			"-0.015": 0.0,
			"-0.014": 0.0,
			"-0.013": 0.0,
			"-0.012": 0.810163031529,
			"-0.011": 3.58604193413,
			"-0.01": 4.59314221134,
			"-0.009": 5.0355361954,
			"-0.008": 3.34633839847,
			"-0.007": 3.87504420178,
			"-0.006": 8.39538274513,
			"-0.005": 12.2749684125,
			"-0.004": 12.693635938,
			"-0.003": 13.1466826207,
			"-0.002": 15.0107990062,
			"-0.001": 13.4621694041,
			"0.0": 12.9836232597,
			"0.001": 16.3058092262,
			"0.002": 24.7828071975,
			"0.003": 44.0275792829,
			"0.004": 21.5466444348,
			"0.005": 8.48764125758,
			"0.006": 4.35781566595,
			"0.007": 3.59180596221,
			"0.008": 1.88787538157,
			"0.009": 2.172497537,
			"0.01": 1.73561542422,
			"0.011": 0.544455554085,
			"0.012": 0.179135000179,
			"0.013": 0.0,
			"0.014": 0.0,
			"0.015": 0.0,
			"0.016": 0.0,
			"0.017": 0.0,
			"0.018": 0.0,
			"0.019": 0.0,
			"0.02": 0.0,
			"0.021": 0.0,
			"0.022": 0.0,
			"0.023": 0.0,
			"0.024": 0.0,
			"0.025": 0.0
		}
	}
}
