{
	 "smiles": "CC1CCC2(CC1)NC(=O)N(CC(O)=O)C2=O", 
	 "Tm": 497.15, 
	 "num_atms": 33, 
	 "gaussian": { 
		 "optdone": 1, 
		 "sigma_profile": "yes", 
		 "theory": "DFT", 
		 "functional": "B3LYP", 
		 "basiset": "6-31G**", 
		 "properties": { 
			 "R2extent": 5390.9306, 
			 "electric_dipole_moment_norm": 7.36113246315, 
			 "electric_quadrupole_moment_norm": 26.7038109374, 
			 "total_energy": -839.290502501, 
			 "HOMO_LUMO_gap": 0.22666, 
			 "cosmo_polarized_energy": -19.84, 
			 "cosmo_cavitation_energy": 34.22, 
			 "cosmo_dispersion_energy": -24.52, 
			 "cosmo_repulsion_energy": 1.9, 
			 "cosmo_total_nonelectrostatic_energy": 11.6, 
			 "SMD_solvation_energy": 7.09 
		},
		"coords": [
			{
				"x": -1.7191133303,
				"y": 1.931138661,
				"z": 2.962160917,
				"element": "C" 
			},
			{
				"x": -1.6817329841,
				"y": 1.2265982477,
				"z": 1.6016479902,
				"element": "C" 
			},
			{
				"x": -1.0695673421,
				"y": -0.1812475274,
				"z": 1.7106185966,
				"element": "C" 
			},
			{
				"x": -1.0104653322,
				"y": -0.8976013863,
				"z": 0.353414511,
				"element": "C" 
			},
			{
				"x": -0.2803760492,
				"y": -0.0758331939,
				"z": -0.733877237,
				"element": "C" 
			},
			{
				"x": -0.8605105869,
				"y": 1.3580588672,
				"z": -0.8101237548,
				"element": "C" 
			},
			{
				"x": -0.909436687,
				"y": 2.0531394255,
				"z": 0.5580835498,
				"element": "C" 
			},
			{
				"x": -0.340471618,
				"y": -0.745473654,
				"z": -2.0376561793,
				"element": "N" 
			},
			{
				"x": 0.8775021273,
				"y": -0.9650961343,
				"z": -2.5920258585,
				"element": "C" 
			},
			{
				"x": 1.1364171812,
				"y": -1.4265662066,
				"z": -3.702022566,
				"element": "O" 
			},
			{
				"x": 1.8369437958,
				"y": -0.5602948914,
				"z": -1.6541677461,
				"element": "N" 
			},
			{
				"x": 3.2722147915,
				"y": -0.786975761,
				"z": -1.8016771817,
				"element": "C" 
			},
			{
				"x": 3.9559282623,
				"y": 0.0480246154,
				"z": -2.9036473041,
				"element": "C" 
			},
			{
				"x": 3.4151109945,
				"y": -0.0262899553,
				"z": -4.1259545397,
				"element": "O" 
			},
			{
				"x": 4.9508806251,
				"y": 0.6919114077,
				"z": -2.6733743375,
				"element": "O" 
			},
			{
				"x": 1.2437908077,
				"y": -0.0488158977,
				"z": -0.5042297089,
				"element": "C" 
			},
			{
				"x": 1.8380128169,
				"y": 0.3305795619,
				"z": 0.4842225712,
				"element": "O" 
			},
			{
				"x": -0.7068544303,
				"y": 2.0646419185,
				"z": 3.3609781766,
				"element": "H" 
			},
			{
				"x": -2.2921287637,
				"y": 1.3517395781,
				"z": 3.6941085248,
				"element": "H" 
			},
			{
				"x": -2.1802933874,
				"y": 2.9216401762,
				"z": 2.8846111562,
				"element": "H" 
			},
			{
				"x": -2.7184358467,
				"y": 1.1171839137,
				"z": 1.2435225689,
				"element": "H" 
			},
			{
				"x": -1.6540936114,
				"y": -0.7928479136,
				"z": 2.4084168185,
				"element": "H" 
			},
			{
				"x": -0.0576897458,
				"y": -0.1021580369,
				"z": 2.1233880235,
				"element": "H" 
			},
			{
				"x": -2.0305031887,
				"y": -1.0758004099,
				"z": -0.0144952399,
				"element": "H" 
			},
			{
				"x": -0.5354919875,
				"y": -1.8805400682,
				"z": 0.4465466206,
				"element": "H" 
			},
			{
				"x": -1.8794439506,
				"y": 1.2706594937,
				"z": -1.2133935451,
				"element": "H" 
			},
			{
				"x": -0.2844141114,
				"y": 1.947827207,
				"z": -1.5322391151,
				"element": "H" 
			},
			{
				"x": 0.1120668632,
				"y": 2.2233693798,
				"z": 0.9174435001,
				"element": "H" 
			},
			{
				"x": -1.3739157051,
				"y": 3.039138362,
				"z": 0.4379134466,
				"element": "H" 
			},
			{
				"x": -1.1728990085,
				"y": -0.8015831811,
				"z": -2.6052372226,
				"element": "H" 
			},
			{
				"x": 3.7315781368,
				"y": -0.52413264,
				"z": -0.8498212297,
				"element": "H" 
			},
			{
				"x": 3.444409332,
				"y": -1.850201232,
				"z": -2.0079259931,
				"element": "H" 
			},
			{
				"x": 2.6311819325,
				"y": -0.6262927259,
				"z": -4.1358082124,
				"element": "H" 
			}
		],
		 "valence_orbital": [ 
			{
				"type": "occ",
				"energy": -0.30519,
				"method": "rhf"
			},
			{
				"type": "occ",
				"energy": -0.3033,
				"method": "rhf"
			},
			{
				"type": "occ",
				"energy": -0.28742,
				"method": "rhf"
			},
			{
				"type": "occ",
				"energy": -0.28175,
				"method": "rhf"
			},
			{
				"type": "occ",
				"energy": -0.25777,
				"method": "rhf"
			},
			{
				"type": "unocc",
				"energy": -0.03111,
				"method": "rhf"
			},
			{
				"type": "unocc",
				"energy": 0.00882,
				"method": "rhf"
			},
			{
				"type": "unocc",
				"energy": 0.03075,
				"method": "rhf"
			},
			{
				"type": "unocc",
				"energy": 0.05691,
				"method": "rhf"
			},
			{
				"type": "unocc",
				"energy": 0.06832,
				"method": "rhf"
			}
		],
		"cosmo_sigma_profile": { 
			"-0.025": 0.0,
			"-0.024": 0.0,
			"-0.023": 0.0,
			"-0.022": 0.0,
			"-0.021": 0.0,
			"-0.02": 0.0,
			"-0.019": 0.0,
			"-0.018": 0.0,
			"-0.017": 0.0,
			"-0.016": 0.69983083057,
			"-0.015": 1.21736853915,
			"-0.014": 1.31760665316,
			"-0.013": 1.10142581682,
			"-0.012": 1.34534965957,
			"-0.011": 0.612006778414,
			"-0.01": 2.48892469891,
			"-0.009": 4.2681133554,
			"-0.008": 4.12419011529,
			"-0.007": 6.94783507976,
			"-0.006": 11.88940513,
			"-0.005": 14.0765360176,
			"-0.004": 14.8993825026,
			"-0.003": 22.0020673129,
			"-0.002": 29.7116258278,
			"-0.001": 32.987233224,
			"0.0": 23.2667549189,
			"0.001": 19.082803352,
			"0.002": 9.301210923,
			"0.003": 5.33359583067,
			"0.004": 5.22253166441,
			"0.005": 4.56286526332,
			"0.006": 5.60001557157,
			"0.007": 3.71666462004,
			"0.008": 5.62501068905,
			"0.009": 6.30416439208,
			"0.01": 8.38825645064,
			"0.011": 11.5679394177,
			"0.012": 7.61925435036,
			"0.013": 1.92983564609,
			"0.014": 0.0234115832069,
			"0.015": 0.0,
			"0.016": 0.0,
			"0.017": 0.0,
			"0.018": 0.0,
			"0.019": 0.0,
			"0.02": 0.0,
			"0.021": 0.0,
			"0.022": 0.0,
			"0.023": 0.0,
			"0.024": 0.0,
			"0.025": 0.0
		}
	}
}
