{
	 "smiles": "N#CCC1=CNC2=C1C=CC=N2", 
	 "Tm": 413.15, 
	 "num_atms": 19, 
	 "gaussian": { 
		 "optdone": 1, 
		 "sigma_profile": "yes", 
		 "theory": "DFT", 
		 "functional": "B3LYP", 
		 "basiset": "6-31G**", 
		 "properties": { 
			 "R2extent": 2420.589, 
			 "electric_dipole_moment_norm": 4.04871117518, 
			 "electric_quadrupole_moment_norm": 13.8797893979, 
			 "total_energy": -511.41575894, 
			 "HOMO_LUMO_gap": 0.19196, 
			 "cosmo_polarized_energy": -15.68, 
			 "cosmo_cavitation_energy": 24.45, 
			 "cosmo_dispersion_energy": -17.42, 
			 "cosmo_repulsion_energy": 1.39, 
			 "cosmo_total_nonelectrostatic_energy": 8.41, 
			 "SMD_solvation_energy": 3.86 
		},
		"coords": [
			{
				"x": 1.882845006,
				"y": -0.8045512281,
				"z": -1.6804206528,
				"element": "N" 
			},
			{
				"x": 1.3580216639,
				"y": 0.13013512,
				"z": -1.2355455076,
				"element": "C" 
			},
			{
				"x": 0.6767812213,
				"y": 1.310866638,
				"z": -0.6806303122,
				"element": "C" 
			},
			{
				"x": -0.3064508593,
				"y": 0.9794969138,
				"z": 0.4116351914,
				"element": "C" 
			},
			{
				"x": -0.2526788364,
				"y": 1.4304718701,
				"z": 1.7082492506,
				"element": "C" 
			},
			{
				"x": -1.3340971875,
				"y": 0.9536926075,
				"z": 2.4196959377,
				"element": "N" 
			},
			{
				"x": -2.109874059,
				"y": 0.1758438982,
				"z": 1.5889001582,
				"element": "C" 
			},
			{
				"x": -1.4894826897,
				"y": 0.1662874975,
				"z": 0.3081106611,
				"element": "C" 
			},
			{
				"x": -2.1244608553,
				"y": -0.5845257042,
				"z": -0.6906096907,
				"element": "C" 
			},
			{
				"x": -3.300998346,
				"y": -1.2431491964,
				"z": -0.3468900731,
				"element": "C" 
			},
			{
				"x": -3.8095565301,
				"y": -1.1446117723,
				"z": 0.9623224054,
				"element": "C" 
			},
			{
				"x": -3.2326324647,
				"y": -0.4442922907,
				"z": 1.9444823472,
				"element": "N" 
			},
			{
				"x": 0.1805414816,
				"y": 1.8265403059,
				"z": -1.5140785028,
				"element": "H" 
			},
			{
				"x": 1.4416299465,
				"y": 1.9988813246,
				"z": -0.3032098853,
				"element": "H" 
			},
			{
				"x": 0.4835945685,
				"y": 2.0648405574,
				"z": 2.1817704689,
				"element": "H" 
			},
			{
				"x": -1.5415494068,
				"y": 1.1287922605,
				"z": 3.3901752437,
				"element": "H" 
			},
			{
				"x": -1.7125136016,
				"y": -0.6610310262,
				"z": -1.6927105987,
				"element": "H" 
			},
			{
				"x": -3.8335449329,
				"y": -1.8404520594,
				"z": -1.0796400664,
				"element": "H" 
			},
			{
				"x": -4.7295741184,
				"y": -1.6627357162,
				"z": 1.2246936253,
				"element": "H" 
			}
		],
		 "valence_orbital": [ 
			{
				"type": "occ",
				"energy": -0.32339,
				"method": "rhf"
			},
			{
				"type": "occ",
				"energy": -0.30577,
				"method": "rhf"
			},
			{
				"type": "occ",
				"energy": -0.26574,
				"method": "rhf"
			},
			{
				"type": "occ",
				"energy": -0.24148,
				"method": "rhf"
			},
			{
				"type": "occ",
				"energy": -0.2272,
				"method": "rhf"
			},
			{
				"type": "unocc",
				"energy": -0.03524,
				"method": "rhf"
			},
			{
				"type": "unocc",
				"energy": 0.01142,
				"method": "rhf"
			},
			{
				"type": "unocc",
				"energy": 0.02849,
				"method": "rhf"
			},
			{
				"type": "unocc",
				"energy": 0.03844,
				"method": "rhf"
			},
			{
				"type": "unocc",
				"energy": 0.058,
				"method": "rhf"
			}
		],
		"cosmo_sigma_profile": { 
			"-0.025": 0.0,
			"-0.024": 0.0,
			"-0.023": 0.0,
			"-0.022": 0.0,
			"-0.021": 0.0,
			"-0.02": 0.0,
			"-0.019": 0.0,
			"-0.018": 0.0,
			"-0.017": 0.0,
			"-0.016": 1.01703347887,
			"-0.015": 1.472108123,
			"-0.014": 1.29352530555,
			"-0.013": 0.784236912515,
			"-0.012": 0.932184525761,
			"-0.011": 1.24150208043,
			"-0.01": 1.42411025637,
			"-0.009": 5.49932341982,
			"-0.008": 9.13108770898,
			"-0.007": 8.7010909594,
			"-0.006": 12.6193096545,
			"-0.005": 12.2527109245,
			"-0.004": 10.4236195959,
			"-0.003": 8.61234800383,
			"-0.002": 8.39760667393,
			"-0.001": 6.43696964892,
			"0.0": 7.71815311612,
			"0.001": 9.76434602909,
			"0.002": 17.6038506016,
			"0.003": 19.9241712312,
			"0.004": 13.1745175412,
			"0.005": 4.50356308271,
			"0.006": 4.10215001,
			"0.007": 3.92081066905,
			"0.008": 4.46604957253,
			"0.009": 4.81105415925,
			"0.01": 4.11455128287,
			"0.011": 4.09541697678,
			"0.012": 2.77364011694,
			"0.013": 3.46897931625,
			"0.014": 1.3202188196,
			"0.015": 0.614716781788,
			"0.016": 0.639198323695,
			"0.017": 0.0246085869511,
			"0.018": 0.0,
			"0.019": 0.0,
			"0.02": 0.0,
			"0.021": 0.0,
			"0.022": 0.0,
			"0.023": 0.0,
			"0.024": 0.0,
			"0.025": 0.0
		}
	}
}
