{
	 "smiles": "CC(C)CN1C=NN=C1C1CCCN1", 
	 "Tm": 328.15, 
	 "num_atms": 32, 
	 "gaussian": { 
		 "optdone": 1, 
		 "sigma_profile": "yes", 
		 "theory": "DFT", 
		 "functional": "B3LYP", 
		 "basiset": "6-31G**", 
		 "properties": { 
			 "R2extent": 3901.3537, 
			 "electric_dipole_moment_norm": 5.72001431904, 
			 "electric_quadrupole_moment_norm": 16.647332726, 
			 "total_energy": -610.901788713, 
			 "HOMO_LUMO_gap": 0.22948, 
			 "cosmo_polarized_energy": -16.86, 
			 "cosmo_cavitation_energy": 32.51, 
			 "cosmo_dispersion_energy": -22.89, 
			 "cosmo_repulsion_energy": 1.8, 
			 "cosmo_total_nonelectrostatic_energy": 11.42, 
			 "SMD_solvation_energy": 0.65 
		},
		"coords": [
			{
				"x": 1.4852313406,
				"y": -2.9408206891,
				"z": -1.5548032872,
				"element": "C" 
			},
			{
				"x": 0.0176697292,
				"y": -2.5820416358,
				"z": -1.2888232922,
				"element": "C" 
			},
			{
				"x": -0.8537400858,
				"y": -3.8419658218,
				"z": -1.1793149717,
				"element": "C" 
			},
			{
				"x": -0.5666498261,
				"y": -1.6579450777,
				"z": -2.3769407984,
				"element": "C" 
			},
			{
				"x": 0.0828016914,
				"y": -0.3535262248,
				"z": -2.4928507396,
				"element": "N" 
			},
			{
				"x": 1.1508966644,
				"y": -0.0330154506,
				"z": -3.2947261213,
				"element": "C" 
			},
			{
				"x": 1.4773037189,
				"y": 1.2276253536,
				"z": -3.1700496579,
				"element": "N" 
			},
			{
				"x": 0.599964432,
				"y": 1.7766562652,
				"z": -2.2561431185,
				"element": "N" 
			},
			{
				"x": -0.2220941236,
				"y": 0.829801861,
				"z": -1.8577010367,
				"element": "C" 
			},
			{
				"x": -1.3515592966,
				"y": 1.0468656324,
				"z": -0.8863280754,
				"element": "C" 
			},
			{
				"x": -1.0298154598,
				"y": 0.6137958995,
				"z": 0.5742732445,
				"element": "C" 
			},
			{
				"x": -1.7587387929,
				"y": 1.6694976858,
				"z": 1.4181548635,
				"element": "C" 
			},
			{
				"x": -1.5544537463,
				"y": 2.9392247581,
				"z": 0.5861986059,
				"element": "C" 
			},
			{
				"x": -1.7147597104,
				"y": 2.4750827151,
				"z": -0.8014718423,
				"element": "N" 
			},
			{
				"x": 1.5914292915,
				"y": -3.4862232558,
				"z": -2.5010483237,
				"element": "H" 
			},
			{
				"x": 2.1206389865,
				"y": -2.0518403388,
				"z": -1.6018186946,
				"element": "H" 
			},
			{
				"x": 1.8737797641,
				"y": -3.5838586511,
				"z": -0.7588179689,
				"element": "H" 
			},
			{
				"x": -0.0357821117,
				"y": -2.0416667157,
				"z": -0.3348153967,
				"element": "H" 
			},
			{
				"x": -0.4825999522,
				"y": -4.5029386579,
				"z": -0.3902811119,
				"element": "H" 
			},
			{
				"x": -0.8449064951,
				"y": -4.4105226182,
				"z": -2.1171596372,
				"element": "H" 
			},
			{
				"x": -1.8956638247,
				"y": -3.5958374982,
				"z": -0.9468843265,
				"element": "H" 
			},
			{
				"x": -1.6298338636,
				"y": -1.4839547704,
				"z": -2.185281673,
				"element": "H" 
			},
			{
				"x": -0.4949033358,
				"y": -2.1479511785,
				"z": -3.3547507545,
				"element": "H" 
			},
			{
				"x": 1.6322874799,
				"y": -0.7504103098,
				"z": -3.9444983809,
				"element": "H" 
			},
			{
				"x": -2.2213140868,
				"y": 0.47072057,
				"z": -1.244009563,
				"element": "H" 
			},
			{
				"x": 0.0501163749,
				"y": 0.6775969186,
				"z": 0.7474737309,
				"element": "H" 
			},
			{
				"x": -1.3475527194,
				"y": -0.4109727326,
				"z": 0.7888720083,
				"element": "H" 
			},
			{
				"x": -1.3624054923,
				"y": 1.7548368633,
				"z": 2.4339089399,
				"element": "H" 
			},
			{
				"x": -2.8266022806,
				"y": 1.4326235232,
				"z": 1.4883530277,
				"element": "H" 
			},
			{
				"x": -0.5540483065,
				"y": 3.3580307312,
				"z": 0.7831894767,
				"element": "H" 
			},
			{
				"x": -2.2912061718,
				"y": 3.7164733695,
				"z": 0.8201405605,
				"element": "H" 
			},
			{
				"x": -1.1373897915,
				"y": 3.0112594803,
				"z": -1.4418456858,
				"element": "H" 
			}
		],
		 "valence_orbital": [ 
			{
				"type": "occ",
				"energy": -0.3005,
				"method": "rhf"
			},
			{
				"type": "occ",
				"energy": -0.28146,
				"method": "rhf"
			},
			{
				"type": "occ",
				"energy": -0.25154,
				"method": "rhf"
			},
			{
				"type": "occ",
				"energy": -0.24683,
				"method": "rhf"
			},
			{
				"type": "occ",
				"energy": -0.2098,
				"method": "rhf"
			},
			{
				"type": "unocc",
				"energy": 0.01968,
				"method": "rhf"
			},
			{
				"type": "unocc",
				"energy": 0.04589,
				"method": "rhf"
			},
			{
				"type": "unocc",
				"energy": 0.05635,
				"method": "rhf"
			},
			{
				"type": "unocc",
				"energy": 0.08876,
				"method": "rhf"
			},
			{
				"type": "unocc",
				"energy": 0.09635,
				"method": "rhf"
			}
		],
		"cosmo_sigma_profile": { 
			"-0.025": 0.0,
			"-0.024": 0.0,
			"-0.023": 0.0,
			"-0.022": 0.0,
			"-0.021": 0.0,
			"-0.02": 0.0,
			"-0.019": 0.0,
			"-0.018": 0.0,
			"-0.017": 0.0,
			"-0.016": 0.0,
			"-0.015": 0.0,
			"-0.014": 0.0,
			"-0.013": 0.0,
			"-0.012": 0.0,
			"-0.011": 0.0,
			"-0.01": 0.483764169531,
			"-0.009": 2.50461723414,
			"-0.008": 2.61193483313,
			"-0.007": 5.54343655548,
			"-0.006": 8.74446898365,
			"-0.005": 10.0798615662,
			"-0.004": 16.7345619549,
			"-0.003": 34.7134002078,
			"-0.002": 39.5294189686,
			"-0.001": 32.8246928699,
			"0.0": 30.2405651488,
			"0.001": 19.6166808823,
			"0.002": 5.19570707696,
			"0.003": 3.943930964,
			"0.004": 2.97013836021,
			"0.005": 3.04236528773,
			"0.006": 2.5077089845,
			"0.007": 2.70575370115,
			"0.008": 2.77554780912,
			"0.009": 2.22049775532,
			"0.01": 2.62386635571,
			"0.011": 2.47108319121,
			"0.012": 3.54417930985,
			"0.013": 3.07784414516,
			"0.014": 3.83595501656,
			"0.015": 3.84623092294,
			"0.016": 2.64142571563,
			"0.017": 1.44819141166,
			"0.018": 0.682030833684,
			"0.019": 0.0404705071333,
			"0.02": 0.0,
			"0.021": 0.0,
			"0.022": 0.0,
			"0.023": 0.0,
			"0.024": 0.0,
			"0.025": 0.0
		}
	}
}
