{
	 "smiles": "COC1=CC2=C(C=C1OC)C1CC(=O)C(CC(C)C)CN1CC2", 
	 "Tm": 401.15, 
	 "num_atms": 50, 
	 "gaussian": { 
		 "optdone": 1, 
		 "sigma_profile": "yes", 
		 "theory": "DFT", 
		 "functional": "B3LYP", 
		 "basiset": "6-31G**", 
		 "properties": { 
			 "R2extent": 10651.7211, 
			 "electric_dipole_moment_norm": 3.30556346936, 
			 "electric_quadrupole_moment_norm": 18.4686196474, 
			 "total_energy": -1020.68987197, 
			 "HOMO_LUMO_gap": 0.2014, 
			 "cosmo_polarized_energy": -12.62, 
			 "cosmo_cavitation_energy": 48.26, 
			 "cosmo_dispersion_energy": -33.17, 
			 "cosmo_repulsion_energy": 2.53, 
			 "cosmo_total_nonelectrostatic_energy": 17.62, 
			 "SMD_solvation_energy": 7.5 
		},
		"coords": [
			{
				"x": 2.799540769,
				"y": 4.6535241701,
				"z": 3.3302093033,
				"element": "C" 
			},
			{
				"x": 3.1075308625,
				"y": 3.5373618566,
				"z": 2.4865765885,
				"element": "O" 
			},
			{
				"x": 2.0110026334,
				"y": 2.9087494698,
				"z": 1.9375204699,
				"element": "C" 
			},
			{
				"x": 1.8046413133,
				"y": 2.9845096401,
				"z": 0.5635389003,
				"element": "C" 
			},
			{
				"x": 0.7229052788,
				"y": 2.3458633287,
				"z": -0.0573898688,
				"element": "C" 
			},
			{
				"x": -0.1810813717,
				"y": 1.6105791192,
				"z": 0.7288924932,
				"element": "C" 
			},
			{
				"x": 0.0305511172,
				"y": 1.5364648785,
				"z": 2.1133343121,
				"element": "C" 
			},
			{
				"x": 1.1133509549,
				"y": 2.1620949852,
				"z": 2.7245621411,
				"element": "C" 
			},
			{
				"x": 1.2537703812,
				"y": 2.0695181592,
				"z": 4.0928102005,
				"element": "O" 
			},
			{
				"x": 2.3821878368,
				"y": 1.302488352,
				"z": 4.5286524565,
				"element": "C" 
			},
			{
				"x": -1.4132567749,
				"y": 0.9388749116,
				"z": 0.1068315519,
				"element": "C" 
			},
			{
				"x": -1.6491196424,
				"y": -0.4926360463,
				"z": 0.660779701,
				"element": "C" 
			},
			{
				"x": -2.4241295379,
				"y": -1.3493668791,
				"z": -0.3265158625,
				"element": "C" 
			},
			{
				"x": -3.4708039421,
				"y": -1.8940427273,
				"z": -0.0332944608,
				"element": "O" 
			},
			{
				"x": -1.753772515,
				"y": -1.5069179636,
				"z": -1.6990153911,
				"element": "C" 
			},
			{
				"x": -2.8062097113,
				"y": -1.6575102419,
				"z": -2.8182830726,
				"element": "C" 
			},
			{
				"x": -2.4453550557,
				"y": -2.5903200467,
				"z": -3.9974752279,
				"element": "C" 
			},
			{
				"x": -2.3432379953,
				"y": -4.061454883,
				"z": -3.5635072936,
				"element": "C" 
			},
			{
				"x": -1.1914086036,
				"y": -2.162145231,
				"z": -4.7753058552,
				"element": "C" 
			},
			{
				"x": -0.7773091915,
				"y": -0.3248294,
				"z": -1.9007366009,
				"element": "C" 
			},
			{
				"x": -1.3985228829,
				"y": 0.8884565334,
				"z": -1.3641151116,
				"element": "N" 
			},
			{
				"x": -0.9232165525,
				"y": 2.1412432954,
				"z": -1.9431483683,
				"element": "C" 
			},
			{
				"x": 0.5264790431,
				"y": 2.4646644046,
				"z": -1.5552354155,
				"element": "C" 
			},
			{
				"x": 2.1764577862,
				"y": 4.3535038399,
				"z": 4.1783592022,
				"element": "H" 
			},
			{
				"x": 2.286545735,
				"y": 5.4392893454,
				"z": 2.7612668692,
				"element": "H" 
			},
			{
				"x": 3.7560365454,
				"y": 5.0371429716,
				"z": 3.6913812805,
				"element": "H" 
			},
			{
				"x": 2.5095131675,
				"y": 3.5668500191,
				"z": -0.0240974886,
				"element": "H" 
			},
			{
				"x": -0.6492272354,
				"y": 0.9834766966,
				"z": 2.7547866192,
				"element": "H" 
			},
			{
				"x": 2.3646649063,
				"y": 1.325037151,
				"z": 5.6202871758,
				"element": "H" 
			},
			{
				"x": 2.2994365689,
				"y": 0.2626880733,
				"z": 4.1874784103,
				"element": "H" 
			},
			{
				"x": 3.3211860798,
				"y": 1.7307289332,
				"z": 4.1642952429,
				"element": "H" 
			},
			{
				"x": -2.289578497,
				"y": 1.5428055367,
				"z": 0.3861762768,
				"element": "H" 
			},
			{
				"x": -0.6783848472,
				"y": -0.9764714753,
				"z": 0.8317321632,
				"element": "H" 
			},
			{
				"x": -2.1868567626,
				"y": -0.4728632973,
				"z": 1.6098770762,
				"element": "H" 
			},
			{
				"x": -1.1708406881,
				"y": -2.438047199,
				"z": -1.6181635935,
				"element": "H" 
			},
			{
				"x": -3.7236306102,
				"y": -2.0381064818,
				"z": -2.3578999437,
				"element": "H" 
			},
			{
				"x": -3.0404640926,
				"y": -0.6543642505,
				"z": -3.1973499366,
				"element": "H" 
			},
			{
				"x": -3.2940580023,
				"y": -2.5208235314,
				"z": -4.6934153737,
				"element": "H" 
			},
			{
				"x": -1.4912193186,
				"y": -4.2314378281,
				"z": -2.8944199176,
				"element": "H" 
			},
			{
				"x": -3.2471861161,
				"y": -4.3845522193,
				"z": -3.0367604923,
				"element": "H" 
			},
			{
				"x": -2.2053759852,
				"y": -4.7155631434,
				"z": -4.4314672687,
				"element": "H" 
			},
			{
				"x": -0.2855817741,
				"y": -2.2471521738,
				"z": -4.1630341176,
				"element": "H" 
			},
			{
				"x": -1.0448360101,
				"y": -2.7978919535,
				"z": -5.6555128982,
				"element": "H" 
			},
			{
				"x": -1.2662404527,
				"y": -1.1260607719,
				"z": -5.1247379059,
				"element": "H" 
			},
			{
				"x": -0.595615531,
				"y": -0.1695326497,
				"z": -2.9667309878,
				"element": "H" 
			},
			{
				"x": 0.204928972,
				"y": -0.5469964672,
				"z": -1.4458910221,
				"element": "H" 
			},
			{
				"x": -1.0325893773,
				"y": 2.0896967269,
				"z": -3.0319510959,
				"element": "H" 
			},
			{
				"x": -1.5846565801,
				"y": 2.9436749535,
				"z": -1.5908998371,
				"element": "H" 
			},
			{
				"x": 1.2072044351,
				"y": 1.7776784856,
				"z": -2.0779250485,
				"element": "H" 
			},
			{
				"x": 0.7962312713,
				"y": 3.4730210235,
				"z": -1.8923689778,
				"element": "H" 
			}
		],
		 "valence_orbital": [ 
			{
				"type": "occ",
				"energy": -0.26407,
				"method": "rhf"
			},
			{
				"type": "occ",
				"energy": -0.24434,
				"method": "rhf"
			},
			{
				"type": "occ",
				"energy": -0.23405,
				"method": "rhf"
			},
			{
				"type": "occ",
				"energy": -0.22248,
				"method": "rhf"
			},
			{
				"type": "occ",
				"energy": -0.21295,
				"method": "rhf"
			},
			{
				"type": "unocc",
				"energy": -0.01155,
				"method": "rhf"
			},
			{
				"type": "unocc",
				"energy": -0.00268,
				"method": "rhf"
			},
			{
				"type": "unocc",
				"energy": 0.00291,
				"method": "rhf"
			},
			{
				"type": "unocc",
				"energy": 0.07416,
				"method": "rhf"
			},
			{
				"type": "unocc",
				"energy": 0.08787,
				"method": "rhf"
			}
		],
		"cosmo_sigma_profile": { 
			"-0.025": 0.0,
			"-0.024": 0.0,
			"-0.023": 0.0,
			"-0.022": 0.0,
			"-0.021": 0.0,
			"-0.02": 0.0,
			"-0.019": 0.0,
			"-0.018": 0.0,
			"-0.017": 0.0,
			"-0.016": 0.0,
			"-0.015": 0.0,
			"-0.014": 0.0,
			"-0.013": 0.0,
			"-0.012": 0.0,
			"-0.011": 0.0,
			"-0.01": 0.0,
			"-0.009": 0.0,
			"-0.008": 0.0,
			"-0.007": 0.441707077251,
			"-0.006": 8.01083457062,
			"-0.005": 16.6322440224,
			"-0.004": 34.4785884993,
			"-0.003": 48.6543726637,
			"-0.002": 56.9360231026,
			"-0.001": 45.0096475443,
			"0.0": 37.3877027218,
			"0.001": 30.4333301131,
			"0.002": 20.7973984976,
			"0.003": 13.6131265967,
			"0.004": 13.1090682406,
			"0.005": 11.8015890114,
			"0.006": 6.50572391343,
			"0.007": 5.09186088966,
			"0.008": 3.87792860974,
			"0.009": 3.42574766768,
			"0.01": 5.13096501765,
			"0.011": 4.93697285477,
			"0.012": 6.50092186956,
			"0.013": 2.35116256962,
			"0.014": 0.199472725454,
			"0.015": 0.0,
			"0.016": 0.0,
			"0.017": 0.0,
			"0.018": 0.0,
			"0.019": 0.0,
			"0.02": 0.0,
			"0.021": 0.0,
			"0.022": 0.0,
			"0.023": 0.0,
			"0.024": 0.0,
			"0.025": 0.0
		}
	}
}
