{
	 "smiles": "COC1=CC=C(Br)C(C)=C1C(=O)C1=C(C)C=C(OC)C(OC)=C1OC", 
	 "Tm": 373.15, 
	 "num_atms": 46, 
	 "gaussian": { 
		 "optdone": 1, 
		 "sigma_profile": "yes", 
		 "theory": "DFT", 
		 "functional": "B3LYP", 
		 "basiset": "6-31G**", 
		 "properties": { 
			 "R2extent": 11036.4054, 
			 "electric_dipole_moment_norm": 4.4892862083, 
			 "electric_quadrupole_moment_norm": 17.1751886726, 
			 "total_energy": -3684.13784482, 
			 "HOMO_LUMO_gap": 0.16677, 
			 "cosmo_polarized_energy": -14.76, 
			 "cosmo_cavitation_energy": 49.94, 
			 "cosmo_dispersion_energy": -32.71, 
			 "cosmo_repulsion_energy": 2.5, 
			 "cosmo_total_nonelectrostatic_energy": 19.73, 
			 "SMD_solvation_energy": 10.56 
		},
		"coords": [
			{
				"x": 3.7837174089,
				"y": 0.10450991,
				"z": 2.004363195,
				"element": "C" 
			},
			{
				"x": 2.4815791646,
				"y": -0.345221166,
				"z": 1.6704069996,
				"element": "O" 
			},
			{
				"x": 1.4349175657,
				"y": 0.5072360953,
				"z": 1.8433389023,
				"element": "C" 
			},
			{
				"x": 1.555189923,
				"y": 1.8178695515,
				"z": 2.3048390442,
				"element": "C" 
			},
			{
				"x": 0.4093259353,
				"y": 2.6054974969,
				"z": 2.4389189007,
				"element": "C" 
			},
			{
				"x": -0.832334353,
				"y": 2.0829572951,
				"z": 2.1115211092,
				"element": "C" 
			},
			{
				"x": -2.3673245712,
				"y": 3.216367805,
				"z": 2.3343671777,
				"element": "Br" 
			},
			{
				"x": -0.9881199008,
				"y": 0.7653962518,
				"z": 1.6368905373,
				"element": "C" 
			},
			{
				"x": -2.3582893848,
				"y": 0.2126401166,
				"z": 1.322198478,
				"element": "C" 
			},
			{
				"x": 0.1699227051,
				"y": -0.012633043,
				"z": 1.49920744,
				"element": "C" 
			},
			{
				"x": 0.084682076,
				"y": -1.4842159207,
				"z": 1.1259374082,
				"element": "C" 
			},
			{
				"x": 0.1465641857,
				"y": -2.2967599635,
				"z": 2.038631383,
				"element": "O" 
			},
			{
				"x": -0.1370442503,
				"y": -1.9172007385,
				"z": -0.2872875784,
				"element": "C" 
			},
			{
				"x": -0.7815533785,
				"y": -3.1594505627,
				"z": -0.5583273896,
				"element": "C" 
			},
			{
				"x": -1.2727420946,
				"y": -4.0954766219,
				"z": 0.5228619355,
				"element": "C" 
			},
			{
				"x": -1.0121818074,
				"y": -3.5227269002,
				"z": -1.8813442958,
				"element": "C" 
			},
			{
				"x": -0.5735344216,
				"y": -2.7479494869,
				"z": -2.9625016563,
				"element": "C" 
			},
			{
				"x": -0.8148236881,
				"y": -3.2601261427,
				"z": -4.1988845307,
				"element": "O" 
			},
			{
				"x": -1.0945065073,
				"y": -2.3882760299,
				"z": -5.2989998287,
				"element": "C" 
			},
			{
				"x": 0.1229729135,
				"y": -1.5567333684,
				"z": -2.708476571,
				"element": "C" 
			},
			{
				"x": 0.6573468679,
				"y": -0.818844623,
				"z": -3.7478029663,
				"element": "O" 
			},
			{
				"x": 2.0656326322,
				"y": -1.0242446672,
				"z": -3.9299314774,
				"element": "C" 
			},
			{
				"x": 0.3009214715,
				"y": -1.1343061265,
				"z": -1.3788049644,
				"element": "C" 
			},
			{
				"x": 1.0271491397,
				"y": 0.0053491165,
				"z": -1.1422415482,
				"element": "O" 
			},
			{
				"x": 0.4595635653,
				"y": 1.2387713968,
				"z": -1.6102051749,
				"element": "C" 
			},
			{
				"x": 3.8572564634,
				"y": 0.3792035826,
				"z": 3.0643784073,
				"element": "H" 
			},
			{
				"x": 4.086457362,
				"y": 0.9612557564,
				"z": 1.3882797783,
				"element": "H" 
			},
			{
				"x": 4.4511883749,
				"y": -0.7348604657,
				"z": 1.8046977082,
				"element": "H" 
			},
			{
				"x": 2.5196933682,
				"y": 2.2364042771,
				"z": 2.5648819236,
				"element": "H" 
			},
			{
				"x": 0.489743905,
				"y": 3.6235275,
				"z": 2.8024533231,
				"element": "H" 
			},
			{
				"x": -2.9743104938,
				"y": 0.1757216119,
				"z": 2.2271322532,
				"element": "H" 
			},
			{
				"x": -2.3079778684,
				"y": -0.7927487851,
				"z": 0.9038366556,
				"element": "H" 
			},
			{
				"x": -2.8866072349,
				"y": 0.8531405596,
				"z": 0.6089611461,
				"element": "H" 
			},
			{
				"x": -0.4370392219,
				"y": -4.5608501792,
				"z": 1.0510291082,
				"element": "H" 
			},
			{
				"x": -1.8935881726,
				"y": -4.8796382129,
				"z": 0.0806807557,
				"element": "H" 
			},
			{
				"x": -1.8555960698,
				"y": -3.5760387358,
				"z": 1.288144621,
				"element": "H" 
			},
			{
				"x": -1.5374674275,
				"y": -4.4435677164,
				"z": -2.1129243903,
				"element": "H" 
			},
			{
				"x": -1.7282911534,
				"y": -1.5512678464,
				"z": -4.9892579106,
				"element": "H" 
			},
			{
				"x": -0.1823007023,
				"y": -1.9920586325,
				"z": -5.7495752691,
				"element": "H" 
			},
			{
				"x": -1.630924118,
				"y": -3.0020328933,
				"z": -6.0262405704,
				"element": "H" 
			},
			{
				"x": 2.3620343435,
				"y": -0.3926441598,
				"z": -4.7703541478,
				"element": "H" 
			},
			{
				"x": 2.2796697456,
				"y": -2.0731948279,
				"z": -4.168161063,
				"element": "H" 
			},
			{
				"x": 2.6215174656,
				"y": -0.7304268703,
				"z": -3.0340765692,
				"element": "H" 
			},
			{
				"x": 0.356144613,
				"y": 1.2399067324,
				"z": -2.6975406907,
				"element": "H" 
			},
			{
				"x": 1.1529738503,
				"y": 2.0207406451,
				"z": -1.296561779,
				"element": "H" 
			},
			{
				"x": -0.5128082258,
				"y": 1.4163989854,
				"z": -1.1391578192,
				"element": "H" 
			}
		],
		 "valence_orbital": [ 
			{
				"type": "occ",
				"energy": -0.2491,
				"method": "rhf"
			},
			{
				"type": "occ",
				"energy": -0.23736,
				"method": "rhf"
			},
			{
				"type": "occ",
				"energy": -0.23141,
				"method": "rhf"
			},
			{
				"type": "occ",
				"energy": -0.22458,
				"method": "rhf"
			},
			{
				"type": "occ",
				"energy": -0.21181,
				"method": "rhf"
			},
			{
				"type": "unocc",
				"energy": -0.04504,
				"method": "rhf"
			},
			{
				"type": "unocc",
				"energy": -0.00796,
				"method": "rhf"
			},
			{
				"type": "unocc",
				"energy": -0.00196,
				"method": "rhf"
			},
			{
				"type": "unocc",
				"energy": 0.00416,
				"method": "rhf"
			},
			{
				"type": "unocc",
				"energy": 0.01428,
				"method": "rhf"
			}
		],
		"cosmo_sigma_profile": { 
			"-0.025": 0.0,
			"-0.024": 0.0,
			"-0.023": 0.0,
			"-0.022": 0.0,
			"-0.021": 0.0,
			"-0.02": 0.0,
			"-0.019": 0.0,
			"-0.018": 0.0,
			"-0.017": 0.0,
			"-0.016": 0.0,
			"-0.015": 0.0,
			"-0.014": 0.0,
			"-0.013": 0.0,
			"-0.012": 0.0,
			"-0.011": 0.0,
			"-0.01": 0.0,
			"-0.009": 0.0,
			"-0.008": 0.0443516409133,
			"-0.007": 3.49874267159,
			"-0.006": 13.4237653955,
			"-0.005": 26.6942614501,
			"-0.004": 37.3852969809,
			"-0.003": 52.0183053932,
			"-0.002": 41.4323751623,
			"-0.001": 33.2653230027,
			"0.0": 32.0407929601,
			"0.001": 27.7411562812,
			"0.002": 28.5886888549,
			"0.003": 28.7081820231,
			"0.004": 21.1161279533,
			"0.005": 14.5976132191,
			"0.006": 5.92928109007,
			"0.007": 5.57003168279,
			"0.008": 5.93922529543,
			"0.009": 5.99040376578,
			"0.01": 5.87788176276,
			"0.011": 4.34472848315,
			"0.012": 2.91307742857,
			"0.013": 1.23076508837,
			"0.014": 0.0398283611085,
			"0.015": 0.0,
			"0.016": 0.0,
			"0.017": 0.0,
			"0.018": 0.0,
			"0.019": 0.0,
			"0.02": 0.0,
			"0.021": 0.0,
			"0.022": 0.0,
			"0.023": 0.0,
			"0.024": 0.0,
			"0.025": 0.0
		}
	}
}
