{
	 "smiles": "NC(=O)C1=CC(F)=NC=C1", 
	 "Tm": 449.15, 
	 "num_atms": 15, 
	 "gaussian": { 
		 "optdone": 1, 
		 "sigma_profile": "yes", 
		 "theory": "DFT", 
		 "functional": "B3LYP", 
		 "basiset": "6-31G**", 
		 "properties": { 
			 "R2extent": 1544.5464, 
			 "electric_dipole_moment_norm": 3.03677599767, 
			 "electric_quadrupole_moment_norm": 16.8001263754, 
			 "total_energy": -516.22760953, 
			 "HOMO_LUMO_gap": 0.19983, 
			 "cosmo_polarized_energy": -14.33, 
			 "cosmo_cavitation_energy": 20.44, 
			 "cosmo_dispersion_energy": -15.11, 
			 "cosmo_repulsion_energy": 1.21, 
			 "cosmo_total_nonelectrostatic_energy": 6.53, 
			 "SMD_solvation_energy": 3.45 
		},
		"coords": [
			{
				"x": -1.7094696115,
				"y": 1.0668668264,
				"z": 1.9885475984,
				"element": "N" 
			},
			{
				"x": -1.4776945863,
				"y": 1.3793793566,
				"z": 0.6753167379,
				"element": "C" 
			},
			{
				"x": -1.9252055995,
				"y": 2.3888580443,
				"z": 0.1496850985,
				"element": "O" 
			},
			{
				"x": -0.650478707,
				"y": 0.3890269872,
				"z": -0.1067128325,
				"element": "C" 
			},
			{
				"x": -0.4691331161,
				"y": -0.9396570217,
				"z": 0.2793580537,
				"element": "C" 
			},
			{
				"x": 0.3151984286,
				"y": -1.7406291487,
				"z": -0.5519898339,
				"element": "C" 
			},
			{
				"x": 0.4956973323,
				"y": -3.0225483155,
				"z": -0.1977071173,
				"element": "F" 
			},
			{
				"x": 0.8987039909,
				"y": -1.3547484048,
				"z": -1.664425412,
				"element": "N" 
			},
			{
				"x": 0.7077539125,
				"y": -0.0751760962,
				"z": -2.0296688064,
				"element": "C" 
			},
			{
				"x": -0.0551709198,
				"y": 0.8269462094,
				"z": -1.2973014247,
				"element": "C" 
			},
			{
				"x": -1.1219990713,
				"y": 0.4128566097,
				"z": 2.4811092731,
				"element": "H" 
			},
			{
				"x": -2.1782027922,
				"y": 1.774302751,
				"z": 2.5357681177,
				"element": "H" 
			},
			{
				"x": -0.9326001658,
				"y": -1.3711737493,
				"z": 1.1589228733,
				"element": "H" 
			},
			{
				"x": 1.1914659514,
				"y": 0.2304767575,
				"z": -2.9543405972,
				"element": "H" 
			},
			{
				"x": -0.202865046,
				"y": 1.8494191942,
				"z": -1.6234617287,
				"element": "H" 
			}
		],
		 "valence_orbital": [ 
			{
				"type": "occ",
				"energy": -0.30429,
				"method": "rhf"
			},
			{
				"type": "occ",
				"energy": -0.28963,
				"method": "rhf"
			},
			{
				"type": "occ",
				"energy": -0.28634,
				"method": "rhf"
			},
			{
				"type": "occ",
				"energy": -0.27149,
				"method": "rhf"
			},
			{
				"type": "occ",
				"energy": -0.26518,
				"method": "rhf"
			},
			{
				"type": "unocc",
				"energy": -0.06535,
				"method": "rhf"
			},
			{
				"type": "unocc",
				"energy": -0.02145,
				"method": "rhf"
			},
			{
				"type": "unocc",
				"energy": 0.04113,
				"method": "rhf"
			},
			{
				"type": "unocc",
				"energy": 0.06486,
				"method": "rhf"
			},
			{
				"type": "unocc",
				"energy": 0.11199,
				"method": "rhf"
			}
		],
		"cosmo_sigma_profile": { 
			"-0.025": 0.0,
			"-0.024": 0.0,
			"-0.023": 0.0,
			"-0.022": 0.0,
			"-0.021": 0.0,
			"-0.02": 0.0,
			"-0.019": 0.0,
			"-0.018": 0.0,
			"-0.017": 0.0,
			"-0.016": 0.0,
			"-0.015": 0.971256467928,
			"-0.014": 2.64926506786,
			"-0.013": 3.09764082194,
			"-0.012": 2.23196046411,
			"-0.011": 2.73692337326,
			"-0.01": 3.14622319569,
			"-0.009": 2.78532196145,
			"-0.008": 3.71551534277,
			"-0.007": 5.64908376351,
			"-0.006": 6.30727162462,
			"-0.005": 5.68575276072,
			"-0.004": 5.62347813285,
			"-0.003": 6.16984700564,
			"-0.002": 12.6397900221,
			"-0.001": 14.406372893,
			"0.0": 13.5508394978,
			"0.001": 11.4100779071,
			"0.002": 6.90718521725,
			"0.003": 10.4285764645,
			"0.004": 9.43032016746,
			"0.005": 4.51082144233,
			"0.006": 4.24509912999,
			"0.007": 3.06898667648,
			"0.008": 2.18578093206,
			"0.009": 3.38813835058,
			"0.01": 2.45320106207,
			"0.011": 3.02389254901,
			"0.012": 4.0919534364,
			"0.013": 5.97338701662,
			"0.014": 1.59298700834,
			"0.015": 0.0704105595739,
			"0.016": 0.0,
			"0.017": 0.0,
			"0.018": 0.0,
			"0.019": 0.0,
			"0.02": 0.0,
			"0.021": 0.0,
			"0.022": 0.0,
			"0.023": 0.0,
			"0.024": 0.0,
			"0.025": 0.0
		}
	}
}
