{
	 "smiles": "COC1=CC2=C(C=C1)C=C(CO2)C(O)=O", 
	 "Tm": 475.15, 
	 "num_atms": 25, 
	 "gaussian": { 
		 "optdone": 1, 
		 "sigma_profile": "yes", 
		 "theory": "DFT", 
		 "functional": "B3LYP", 
		 "basiset": "6-31G**", 
		 "properties": { 
			 "R2extent": 4230.3698, 
			 "electric_dipole_moment_norm": 5.20145560204, 
			 "electric_quadrupole_moment_norm": 20.5201532872, 
			 "total_energy": -726.070584159, 
			 "HOMO_LUMO_gap": 0.146, 
			 "cosmo_polarized_energy": -16.83, 
			 "cosmo_cavitation_energy": 29.28, 
			 "cosmo_dispersion_energy": -21.87, 
			 "cosmo_repulsion_energy": 1.69, 
			 "cosmo_total_nonelectrostatic_energy": 9.1, 
			 "SMD_solvation_energy": 6.97 
		},
		"coords": [
			{
				"x": -4.9214841209,
				"y": 2.1908311299,
				"z": 0.1364644175,
				"element": "C" 
			},
			{
				"x": -4.4817999387,
				"y": 0.9897228685,
				"z": -0.4847826081,
				"element": "O" 
			},
			{
				"x": -3.1687068609,
				"y": 0.6563114073,
				"z": -0.4000228266,
				"element": "C" 
			},
			{
				"x": -2.203324731,
				"y": 1.4339807905,
				"z": 0.2503017965,
				"element": "C" 
			},
			{
				"x": -0.8772858914,
				"y": 0.9998199297,
				"z": 0.2633589414,
				"element": "C" 
			},
			{
				"x": -0.4966773625,
				"y": -0.2164450082,
				"z": -0.3437938149,
				"element": "C" 
			},
			{
				"x": -1.4919845442,
				"y": -0.9756709415,
				"z": -0.9868062408,
				"element": "C" 
			},
			{
				"x": -2.8082970543,
				"y": -0.5520727062,
				"z": -1.02841218,
				"element": "C" 
			},
			{
				"x": 0.875657607,
				"y": -0.6459070029,
				"z": -0.1874489416,
				"element": "C" 
			},
			{
				"x": 1.8070461938,
				"y": 0.1962029873,
				"z": 0.3134170351,
				"element": "C" 
			},
			{
				"x": 1.4063187182,
				"y": 1.6312980672,
				"z": 0.5650570986,
				"element": "C" 
			},
			{
				"x": 0.0227963148,
				"y": 1.7550091147,
				"z": 0.9472970363,
				"element": "O" 
			},
			{
				"x": 3.2420119176,
				"y": -0.1164960687,
				"z": 0.4878433841,
				"element": "C" 
			},
			{
				"x": 3.6127848909,
				"y": -1.4272644109,
				"z": 0.4900161897,
				"element": "O" 
			},
			{
				"x": 4.0815614369,
				"y": 0.7505120628,
				"z": 0.611630746,
				"element": "O" 
			},
			{
				"x": -5.9942270985,
				"y": 2.2491649316,
				"z": -0.0514117173,
				"element": "H" 
			},
			{
				"x": -4.4291298257,
				"y": 3.0703785913,
				"z": -0.2960788907,
				"element": "H" 
			},
			{
				"x": -4.7427985947,
				"y": 2.1724165306,
				"z": 1.218469473,
				"element": "H" 
			},
			{
				"x": -2.4419604864,
				"y": 2.3677145988,
				"z": 0.7424770851,
				"element": "H" 
			},
			{
				"x": -1.2143497397,
				"y": -1.9160844392,
				"z": -1.4561322669,
				"element": "H" 
			},
			{
				"x": -3.579321401,
				"y": -1.1294200416,
				"z": -1.5255775156,
				"element": "H" 
			},
			{
				"x": 1.1218233218,
				"y": -1.6639740261,
				"z": -0.4861548179,
				"element": "H" 
			},
			{
				"x": 1.5844790681,
				"y": 2.2434046162,
				"z": -0.3329819177,
				"element": "H" 
			},
			{
				"x": 1.98349917,
				"y": 2.0654760072,
				"z": 1.381605646,
				"element": "H" 
			},
			{
				"x": 2.8307690109,
				"y": -1.9905089882,
				"z": 0.5694648887,
				"element": "H" 
			}
		],
		 "valence_orbital": [ 
			{
				"type": "occ",
				"energy": -0.31179,
				"method": "rhf"
			},
			{
				"type": "occ",
				"energy": -0.28754,
				"method": "rhf"
			},
			{
				"type": "occ",
				"energy": -0.27084,
				"method": "rhf"
			},
			{
				"type": "occ",
				"energy": -0.24741,
				"method": "rhf"
			},
			{
				"type": "occ",
				"energy": -0.21252,
				"method": "rhf"
			},
			{
				"type": "unocc",
				"energy": -0.06652,
				"method": "rhf"
			},
			{
				"type": "unocc",
				"energy": -0.00759,
				"method": "rhf"
			},
			{
				"type": "unocc",
				"energy": 0.02137,
				"method": "rhf"
			},
			{
				"type": "unocc",
				"energy": 0.05901,
				"method": "rhf"
			},
			{
				"type": "unocc",
				"energy": 0.07451,
				"method": "rhf"
			}
		],
		"cosmo_sigma_profile": { 
			"-0.025": 0.0,
			"-0.024": 0.0,
			"-0.023": 0.0,
			"-0.022": 0.0,
			"-0.021": 0.0,
			"-0.02": 0.0,
			"-0.019": 0.293343262707,
			"-0.018": 0.910592938517,
			"-0.017": 0.875287858964,
			"-0.016": 1.3079455904,
			"-0.015": 0.584316597096,
			"-0.014": 1.02036162044,
			"-0.013": 1.20780622757,
			"-0.012": 0.845351961473,
			"-0.011": 1.23185668767,
			"-0.01": 1.26708462979,
			"-0.009": 1.71425026765,
			"-0.008": 2.48199051551,
			"-0.007": 6.26377479456,
			"-0.006": 15.5521546481,
			"-0.005": 19.5807447417,
			"-0.004": 19.3977301899,
			"-0.003": 15.964381338,
			"-0.002": 13.3764156074,
			"-0.001": 11.1133877621,
			"0.0": 10.1776834319,
			"0.001": 14.273414204,
			"0.002": 16.3011644567,
			"0.003": 19.2997981835,
			"0.004": 11.2496867927,
			"0.005": 7.12169342776,
			"0.006": 4.17290460725,
			"0.007": 5.25639701524,
			"0.008": 6.20836132351,
			"0.009": 4.96826955723,
			"0.01": 5.76249361075,
			"0.011": 5.56393078395,
			"0.012": 5.20267192008,
			"0.013": 2.52282435196,
			"0.014": 0.475638961956,
			"0.015": 0.0,
			"0.016": 0.0,
			"0.017": 0.0,
			"0.018": 0.0,
			"0.019": 0.0,
			"0.02": 0.0,
			"0.021": 0.0,
			"0.022": 0.0,
			"0.023": 0.0,
			"0.024": 0.0,
			"0.025": 0.0
		}
	}
}
