{
	 "smiles": "CC(C)(C)OC(=O)CC(C)(C#N)C(O)=O", 
	 "Tm": 363.15, 
	 "num_atms": 30, 
	 "gaussian": { 
		 "optdone": 1, 
		 "sigma_profile": "yes", 
		 "theory": "DFT", 
		 "functional": "B3LYP", 
		 "basiset": "6-31G**", 
		 "properties": { 
			 "R2extent": 5056.0328, 
			 "electric_dipole_moment_norm": 3.6616647976, 
			 "electric_quadrupole_moment_norm": 11.9013311327, 
			 "total_energy": -745.768062825, 
			 "HOMO_LUMO_gap": 0.26654, 
			 "cosmo_polarized_energy": -15.56, 
			 "cosmo_cavitation_energy": 33.58, 
			 "cosmo_dispersion_energy": -22.57, 
			 "cosmo_repulsion_energy": 1.81, 
			 "cosmo_total_nonelectrostatic_energy": 12.82, 
			 "SMD_solvation_energy": 9.0 
		},
		"coords": [
			{
				"x": 2.5188291152,
				"y": 1.4241535611,
				"z": -1.1853380237,
				"element": "C" 
			},
			{
				"x": 1.6802223657,
				"y": 0.2869231417,
				"z": -0.5991884676,
				"element": "C" 
			},
			{
				"x": 1.8616296502,
				"y": -1.0016618246,
				"z": -1.4065372377,
				"element": "C" 
			},
			{
				"x": 1.9809969273,
				"y": 0.0926156099,
				"z": 0.8896663525,
				"element": "C" 
			},
			{
				"x": 0.2956899066,
				"y": 0.7920806665,
				"z": -0.7674577668,
				"element": "O" 
			},
			{
				"x": -0.7700650329,
				"y": 0.085606577,
				"z": -0.3711920839,
				"element": "C" 
			},
			{
				"x": -0.7515849146,
				"y": -1.0150125677,
				"z": 0.1440011593,
				"element": "O" 
			},
			{
				"x": -2.0341668303,
				"y": 0.8864836562,
				"z": -0.6535873224,
				"element": "C" 
			},
			{
				"x": -3.3533255065,
				"y": 0.1558703063,
				"z": -0.3019850321,
				"element": "C" 
			},
			{
				"x": -3.5551211971,
				"y": -1.1297540714,
				"z": -1.1487492517,
				"element": "C" 
			},
			{
				"x": -3.4092966465,
				"y": -0.1689014832,
				"z": 1.1325231983,
				"element": "C" 
			},
			{
				"x": -3.5711435055,
				"y": -0.3639815356,
				"z": 2.26687546,
				"element": "N" 
			},
			{
				"x": -4.5213595615,
				"y": 1.1287072839,
				"z": -0.6710433655,
				"element": "C" 
			},
			{
				"x": -5.4811813029,
				"y": 1.3424923786,
				"z": 0.2426553237,
				"element": "O" 
			},
			{
				"x": -4.5639171338,
				"y": 1.6381978515,
				"z": -1.762853874,
				"element": "O" 
			},
			{
				"x": 2.3477519555,
				"y": 2.3542856545,
				"z": -0.6360454015,
				"element": "H" 
			},
			{
				"x": 2.2642010511,
				"y": 1.5918716285,
				"z": -2.2357020486,
				"element": "H" 
			},
			{
				"x": 3.5820839485,
				"y": 1.1749332456,
				"z": -1.1219600904,
				"element": "H" 
			},
			{
				"x": 2.9142279983,
				"y": -1.3009368283,
				"z": -1.3801523747,
				"element": "H" 
			},
			{
				"x": 1.2583313518,
				"y": -1.8132161721,
				"z": -0.9987429362,
				"element": "H" 
			},
			{
				"x": 1.5825196126,
				"y": -0.8396816796,
				"z": -2.4523668273,
				"element": "H" 
			},
			{
				"x": 1.3752853037,
				"y": -0.7072863074,
				"z": 1.3165118096,
				"element": "H" 
			},
			{
				"x": 1.7892139654,
				"y": 1.0177280645,
				"z": 1.4420102034,
				"element": "H" 
			},
			{
				"x": 3.0378616359,
				"y": -0.1632592188,
				"z": 1.0155040052,
				"element": "H" 
			},
			{
				"x": -1.9617870689,
				"y": 1.829866801,
				"z": -0.1010380665,
				"element": "H" 
			},
			{
				"x": -2.0699294028,
				"y": 1.1596015263,
				"z": -1.7115577091,
				"element": "H" 
			},
			{
				"x": -4.5095420245,
				"y": -1.6046847382,
				"z": -0.9065258959,
				"element": "H" 
			},
			{
				"x": -2.7466383585,
				"y": -1.8327205876,
				"z": -0.9516219039,
				"element": "H" 
			},
			{
				"x": -3.5632199897,
				"y": -0.8506212053,
				"z": -2.2047463311,
				"element": "H" 
			},
			{
				"x": -5.2787663119,
				"y": 0.8875002672,
				"z": 1.0782444985,
				"element": "H" 
			}
		],
		 "valence_orbital": [ 
			{
				"type": "occ",
				"energy": -0.34269,
				"method": "rhf"
			},
			{
				"type": "occ",
				"energy": -0.32965,
				"method": "rhf"
			},
			{
				"type": "occ",
				"energy": -0.3105,
				"method": "rhf"
			},
			{
				"type": "occ",
				"energy": -0.28838,
				"method": "rhf"
			},
			{
				"type": "occ",
				"energy": -0.28219,
				"method": "rhf"
			},
			{
				"type": "unocc",
				"energy": -0.01565,
				"method": "rhf"
			},
			{
				"type": "unocc",
				"energy": -0.00193,
				"method": "rhf"
			},
			{
				"type": "unocc",
				"energy": 0.01141,
				"method": "rhf"
			},
			{
				"type": "unocc",
				"energy": 0.01795,
				"method": "rhf"
			},
			{
				"type": "unocc",
				"energy": 0.06027,
				"method": "rhf"
			}
		],
		"cosmo_sigma_profile": { 
			"-0.025": 0.0,
			"-0.024": 0.0,
			"-0.023": 0.0,
			"-0.022": 0.0,
			"-0.021": 0.0,
			"-0.02": 0.0,
			"-0.019": 0.0,
			"-0.018": 0.0,
			"-0.017": 0.0,
			"-0.016": 0.100690297626,
			"-0.015": 0.785718672871,
			"-0.014": 0.648995703005,
			"-0.013": 1.22476071249,
			"-0.012": 1.5681760727,
			"-0.011": 2.5486127324,
			"-0.01": 2.84999404731,
			"-0.009": 3.91570245187,
			"-0.008": 4.22811677548,
			"-0.007": 6.19281127113,
			"-0.006": 6.35142028086,
			"-0.005": 11.2992736817,
			"-0.004": 22.7555471817,
			"-0.003": 24.4352537175,
			"-0.002": 27.7196026204,
			"-0.001": 23.7347807376,
			"0.0": 28.3464268134,
			"0.001": 14.7750402451,
			"0.002": 7.17364151617,
			"0.003": 6.84830190385,
			"0.004": 7.59800581956,
			"0.005": 6.19253207289,
			"0.006": 7.33993739493,
			"0.007": 9.83488324132,
			"0.008": 7.98927354662,
			"0.009": 8.8308681564,
			"0.01": 7.98254830074,
			"0.011": 7.93452545979,
			"0.012": 2.393822024,
			"0.013": 0.00711762360973,
			"0.014": 0.0,
			"0.015": 0.0,
			"0.016": 0.0,
			"0.017": 0.0,
			"0.018": 0.0,
			"0.019": 0.0,
			"0.02": 0.0,
			"0.021": 0.0,
			"0.022": 0.0,
			"0.023": 0.0,
			"0.024": 0.0,
			"0.025": 0.0
		}
	}
}
