{
	 "smiles": "CC(C)C1=CCC2C(CCC3C2(C)CCCC3(C)C(O)=O)=C1", 
	 "Tm": 423.15, 
	 "num_atms": 52, 
	 "gaussian": { 
		 "optdone": 1, 
		 "sigma_profile": "yes", 
		 "theory": "DFT", 
		 "functional": "B3LYP", 
		 "basiset": "6-31G**", 
		 "properties": { 
			 "R2extent": 8584.998, 
			 "electric_dipole_moment_norm": 3.91248294182, 
			 "electric_quadrupole_moment_norm": 28.4479792792, 
			 "total_energy": -930.652151976, 
			 "HOMO_LUMO_gap": 0.18212, 
			 "cosmo_polarized_energy": -13.73, 
			 "cosmo_cavitation_energy": 45.77, 
			 "cosmo_dispersion_energy": -32.11, 
			 "cosmo_repulsion_energy": 2.4, 
			 "cosmo_total_nonelectrostatic_energy": 16.05, 
			 "SMD_solvation_energy": 7.63 
		},
		"coords": [
			{
				"x": -4.566611059,
				"y": -0.0815048565,
				"z": 3.1071935624,
				"element": "C" 
			},
			{
				"x": -4.4068371586,
				"y": 0.6324936277,
				"z": 1.7506173883,
				"element": "C" 
			},
			{
				"x": -5.1673022742,
				"y": -0.1176225078,
				"z": 0.6406099316,
				"element": "C" 
			},
			{
				"x": -2.9455124792,
				"y": 0.8449498262,
				"z": 1.3899666163,
				"element": "C" 
			},
			{
				"x": -2.4031672405,
				"y": 2.0736632323,
				"z": 1.2920773925,
				"element": "C" 
			},
			{
				"x": -0.9338615401,
				"y": 2.2561857958,
				"z": 0.9894388631,
				"element": "C" 
			},
			{
				"x": -0.419779497,
				"y": 1.1455629631,
				"z": 0.0556938526,
				"element": "C" 
			},
			{
				"x": -0.8696271373,
				"y": -0.2157612169,
				"z": 0.5777606723,
				"element": "C" 
			},
			{
				"x": 0.0264945744,
				"y": -1.3991145185,
				"z": 0.3262925124,
				"element": "C" 
			},
			{
				"x": 0.7477658414,
				"y": -1.3091819563,
				"z": -1.0299577037,
				"element": "C" 
			},
			{
				"x": 1.3559188471,
				"y": 0.0917117599,
				"z": -1.3671099768,
				"element": "C" 
			},
			{
				"x": 1.1009075496,
				"y": 1.2192377407,
				"z": -0.3073679065,
				"element": "C" 
			},
			{
				"x": 1.970704111,
				"y": 1.1292441103,
				"z": 0.9697213748,
				"element": "C" 
			},
			{
				"x": 1.3846664898,
				"y": 2.5931397903,
				"z": -1.0110016065,
				"element": "C" 
			},
			{
				"x": 2.3736377521,
				"y": 2.5215034057,
				"z": -2.1963559492,
				"element": "C" 
			},
			{
				"x": 3.4449655679,
				"y": 1.452849206,
				"z": -1.9835206154,
				"element": "C" 
			},
			{
				"x": 2.8249268304,
				"y": 0.015759001,
				"z": -1.9055927837,
				"element": "C" 
			},
			{
				"x": 3.7690185963,
				"y": -0.8917526716,
				"z": -1.076571332,
				"element": "C" 
			},
			{
				"x": 2.7512693865,
				"y": -0.5025799534,
				"z": -3.3653760063,
				"element": "C" 
			},
			{
				"x": 3.9150405914,
				"y": -0.960235929,
				"z": -3.9030900225,
				"element": "O" 
			},
			{
				"x": 1.7611318318,
				"y": -0.4806285433,
				"z": -4.0568978085,
				"element": "O" 
			},
			{
				"x": -2.0785654634,
				"y": -0.3214986364,
				"z": 1.1622568098,
				"element": "C" 
			},
			{
				"x": -4.0597066917,
				"y": 0.4698519478,
				"z": 3.9053285588,
				"element": "H" 
			},
			{
				"x": -5.6257217624,
				"y": -0.1710970634,
				"z": 3.373277553,
				"element": "H" 
			},
			{
				"x": -4.1484280305,
				"y": -1.0939695499,
				"z": 3.0822767042,
				"element": "H" 
			},
			{
				"x": -4.8590186301,
				"y": 1.6283777692,
				"z": 1.8487341269,
				"element": "H" 
			},
			{
				"x": -4.7645519857,
				"y": -1.1256414944,
				"z": 0.4917232881,
				"element": "H" 
			},
			{
				"x": -6.227921312,
				"y": -0.2187023256,
				"z": 0.8964847968,
				"element": "H" 
			},
			{
				"x": -5.0954756557,
				"y": 0.4134398696,
				"z": -0.3136846391,
				"element": "H" 
			},
			{
				"x": -3.0040489818,
				"y": 2.9579730832,
				"z": 1.495162882,
				"element": "H" 
			},
			{
				"x": -0.7574388361,
				"y": 3.2394297342,
				"z": 0.5417865071,
				"element": "H" 
			},
			{
				"x": -0.3780097604,
				"y": 2.2476450707,
				"z": 1.9414565247,
				"element": "H" 
			},
			{
				"x": -0.9521998197,
				"y": 1.2840053911,
				"z": -0.9037795513,
				"element": "H" 
			},
			{
				"x": -0.5521778349,
				"y": -2.3284061162,
				"z": 0.3789222346,
				"element": "H" 
			},
			{
				"x": 0.774695938,
				"y": -1.4729606833,
				"z": 1.1279183116,
				"element": "H" 
			},
			{
				"x": 1.511073336,
				"y": -2.091612729,
				"z": -1.061885483,
				"element": "H" 
			},
			{
				"x": 0.0370099851,
				"y": -1.5645054793,
				"z": -1.8220837038,
				"element": "H" 
			},
			{
				"x": 0.7875158022,
				"y": 0.4352518439,
				"z": -2.2349056976,
				"element": "H" 
			},
			{
				"x": 1.8655696184,
				"y": 0.1782914841,
				"z": 1.4969175803,
				"element": "H" 
			},
			{
				"x": 1.6944378816,
				"y": 1.9205638748,
				"z": 1.6728288078,
				"element": "H" 
			},
			{
				"x": 3.0311458396,
				"y": 1.2716935542,
				"z": 0.7511941269,
				"element": "H" 
			},
			{
				"x": 0.4441269884,
				"y": 3.0174987065,
				"z": -1.3800983969,
				"element": "H" 
			},
			{
				"x": 1.7641487583,
				"y": 3.301816183,
				"z": -0.265511176,
				"element": "H" 
			},
			{
				"x": 1.8365733938,
				"y": 2.2998755763,
				"z": -3.1257584153,
				"element": "H" 
			},
			{
				"x": 2.8444205632,
				"y": 3.4999304172,
				"z": -2.3433069721,
				"element": "H" 
			},
			{
				"x": 3.9923949848,
				"y": 1.6556657601,
				"z": -1.0559407427,
				"element": "H" 
			},
			{
				"x": 4.1923116184,
				"y": 1.4891648485,
				"z": -2.7858457358,
				"element": "H" 
			},
			{
				"x": 4.8238576685,
				"y": -0.6875674616,
				"z": -1.3068013427,
				"element": "H" 
			},
			{
				"x": 3.6533803425,
				"y": -0.69732906,
				"z": -0.0093849387,
				"element": "H" 
			},
			{
				"x": 3.5936186125,
				"y": -1.9579788324,
				"z": -1.2414949112,
				"element": "H" 
			},
			{
				"x": 4.6212561034,
				"y": -0.9414782771,
				"z": -3.2426751644,
				"element": "H" 
			},
			{
				"x": -2.439522254,
				"y": -1.3028457118,
				"z": 1.4644576029,
				"element": "H" 
			}
		],
		 "valence_orbital": [ 
			{
				"type": "occ",
				"energy": -0.28642,
				"method": "rhf"
			},
			{
				"type": "occ",
				"energy": -0.28409,
				"method": "rhf"
			},
			{
				"type": "occ",
				"energy": -0.27488,
				"method": "rhf"
			},
			{
				"type": "occ",
				"energy": -0.26093,
				"method": "rhf"
			},
			{
				"type": "occ",
				"energy": -0.1957,
				"method": "rhf"
			},
			{
				"type": "unocc",
				"energy": -0.01358,
				"method": "rhf"
			},
			{
				"type": "unocc",
				"energy": 0.0123,
				"method": "rhf"
			},
			{
				"type": "unocc",
				"energy": 0.04813,
				"method": "rhf"
			},
			{
				"type": "unocc",
				"energy": 0.07407,
				"method": "rhf"
			},
			{
				"type": "unocc",
				"energy": 0.09006,
				"method": "rhf"
			}
		],
		"cosmo_sigma_profile": { 
			"-0.025": 0.0,
			"-0.024": 0.0,
			"-0.023": 0.0,
			"-0.022": 0.0,
			"-0.021": 0.0,
			"-0.02": 0.0,
			"-0.019": 0.0,
			"-0.018": 0.0132173858217,
			"-0.017": 0.263067359747,
			"-0.016": 1.11931435049,
			"-0.015": 0.553175157358,
			"-0.014": 1.07419057298,
			"-0.013": 0.432259879384,
			"-0.012": 1.07187192867,
			"-0.011": 1.31394654114,
			"-0.01": 1.56096986033,
			"-0.009": 0.966879218772,
			"-0.008": 0.689163615327,
			"-0.007": 1.29055420091,
			"-0.006": 2.97369417889,
			"-0.005": 6.96657198636,
			"-0.004": 13.2902383684,
			"-0.003": 36.1459706631,
			"-0.002": 56.164618132,
			"-0.001": 58.1699326287,
			"0.0": 47.5195121026,
			"0.001": 40.7964320844,
			"0.002": 19.9998723246,
			"0.003": 9.36776538985,
			"0.004": 8.05462647352,
			"0.005": 7.92370435133,
			"0.006": 8.03974849261,
			"0.007": 5.48116185297,
			"0.008": 2.47149094494,
			"0.009": 3.18762019286,
			"0.01": 3.33856791543,
			"0.011": 5.1221499693,
			"0.012": 5.06673970611,
			"0.013": 2.22275856778,
			"0.014": 0.311419424328,
			"0.015": 0.0,
			"0.016": 0.0,
			"0.017": 0.0,
			"0.018": 0.0,
			"0.019": 0.0,
			"0.02": 0.0,
			"0.021": 0.0,
			"0.022": 0.0,
			"0.023": 0.0,
			"0.024": 0.0,
			"0.025": 0.0
		}
	}
}
