{
	 "smiles": "NC1=NC(=NO1)C1=CC=C(Cl)C=C1", 
	 "Tm": 522.15, 
	 "num_atms": 19, 
	 "gaussian": { 
		 "optdone": 1, 
		 "sigma_profile": "yes", 
		 "theory": "DFT", 
		 "functional": "B3LYP", 
		 "basiset": "6-31G**", 
		 "properties": { 
			 "R2extent": 4024.3741, 
			 "electric_dipole_moment_norm": 4.20748943433, 
			 "electric_quadrupole_moment_norm": 15.4452712961, 
			 "total_energy": -1008.11131868, 
			 "HOMO_LUMO_gap": 0.18965, 
			 "cosmo_polarized_energy": -13.0, 
			 "cosmo_cavitation_energy": 26.25, 
			 "cosmo_dispersion_energy": -19.94, 
			 "cosmo_repulsion_energy": 1.58, 
			 "cosmo_total_nonelectrostatic_energy": 7.89, 
			 "SMD_solvation_energy": 2.78 
		},
		"coords": [
			{
				"x": 3.8874992551,
				"y": 0.3015077307,
				"z": -2.6991735043,
				"element": "N" 
			},
			{
				"x": 3.0527665366,
				"y": 0.4938641591,
				"z": -1.647531078,
				"element": "C" 
			},
			{
				"x": 2.0703762088,
				"y": -0.2726721708,
				"z": -1.2531432338,
				"element": "N" 
			},
			{
				"x": 1.6360899622,
				"y": 0.3919031828,
				"z": -0.1258881295,
				"element": "C" 
			},
			{
				"x": 2.2906018748,
				"y": 1.4944858188,
				"z": 0.1651463515,
				"element": "N" 
			},
			{
				"x": 3.2616649935,
				"y": 1.5695096545,
				"z": -0.8726675346,
				"element": "O" 
			},
			{
				"x": 0.5179260074,
				"y": -0.0921299754,
				"z": 0.6956568968,
				"element": "C" 
			},
			{
				"x": 0.0988769761,
				"y": 0.6174974179,
				"z": 1.8317910953,
				"element": "C" 
			},
			{
				"x": -0.9606105869,
				"y": 0.1519331974,
				"z": 2.6035749718,
				"element": "C" 
			},
			{
				"x": -1.6040387844,
				"y": -1.031468406,
				"z": 2.23463657,
				"element": "C" 
			},
			{
				"x": -2.9428135961,
				"y": -1.6225749475,
				"z": 3.2065416748,
				"element": "Cl" 
			},
			{
				"x": -1.2033454617,
				"y": -1.7516706292,
				"z": 1.1098838372,
				"element": "C" 
			},
			{
				"x": -0.141033757,
				"y": -1.2773425607,
				"z": 0.3433106725,
				"element": "C" 
			},
			{
				"x": 4.4039155727,
				"y": 1.0998687416,
				"z": -3.0351795433,
				"element": "H" 
			},
			{
				"x": 3.5784685645,
				"y": -0.3654565337,
				"z": -3.3891602853,
				"element": "H" 
			},
			{
				"x": 0.6084812815,
				"y": 1.5350697138,
				"z": 2.1059108225,
				"element": "H" 
			},
			{
				"x": -1.2874289533,
				"y": 0.69693288,
				"z": 3.4820332167,
				"element": "H" 
			},
			{
				"x": -1.7153769598,
				"y": -2.6685835112,
				"z": 0.8402571977,
				"element": "H" 
			},
			{
				"x": 0.1873808662,
				"y": -1.821873762,
				"z": -0.5349999978,
				"element": "H" 
			}
		],
		 "valence_orbital": [ 
			{
				"type": "occ",
				"energy": -0.31353,
				"method": "rhf"
			},
			{
				"type": "occ",
				"energy": -0.29327,
				"method": "rhf"
			},
			{
				"type": "occ",
				"energy": -0.2665,
				"method": "rhf"
			},
			{
				"type": "occ",
				"energy": -0.25894,
				"method": "rhf"
			},
			{
				"type": "occ",
				"energy": -0.23448,
				"method": "rhf"
			},
			{
				"type": "unocc",
				"energy": -0.04483,
				"method": "rhf"
			},
			{
				"type": "unocc",
				"energy": -0.01481,
				"method": "rhf"
			},
			{
				"type": "unocc",
				"energy": 0.01976,
				"method": "rhf"
			},
			{
				"type": "unocc",
				"energy": 0.02961,
				"method": "rhf"
			},
			{
				"type": "unocc",
				"energy": 0.05124,
				"method": "rhf"
			}
		],
		"cosmo_sigma_profile": { 
			"-0.025": 0.0,
			"-0.024": 0.0,
			"-0.023": 0.0,
			"-0.022": 0.0,
			"-0.021": 0.0,
			"-0.02": 0.0,
			"-0.019": 0.0,
			"-0.018": 0.0,
			"-0.017": 0.0,
			"-0.016": 1.03277321011,
			"-0.015": 2.81262026476,
			"-0.014": 2.65413371602,
			"-0.013": 1.83899297293,
			"-0.012": 2.58381186688,
			"-0.011": 2.60497507226,
			"-0.01": 1.4046849891,
			"-0.009": 2.02100033072,
			"-0.008": 3.0365176181,
			"-0.007": 6.29953638987,
			"-0.006": 8.21570505672,
			"-0.005": 7.8831288664,
			"-0.004": 7.42665326776,
			"-0.003": 8.47253198437,
			"-0.002": 11.458665714,
			"-0.001": 11.4434011185,
			"0.0": 15.7448790081,
			"0.001": 24.0842239869,
			"0.002": 23.9897369791,
			"0.003": 18.892164281,
			"0.004": 16.1253439117,
			"0.005": 6.70539215945,
			"0.006": 4.96128111002,
			"0.007": 7.39017165418,
			"0.008": 3.33730556089,
			"0.009": 2.48950570537,
			"0.01": 3.01501660101,
			"0.011": 2.77371229863,
			"0.012": 1.87268755966,
			"0.013": 1.04832139955,
			"0.014": 0.0,
			"0.015": 0.0,
			"0.016": 0.0,
			"0.017": 0.0,
			"0.018": 0.0,
			"0.019": 0.0,
			"0.02": 0.0,
			"0.021": 0.0,
			"0.022": 0.0,
			"0.023": 0.0,
			"0.024": 0.0,
			"0.025": 0.0
		}
	}
}
