{
	 "smiles": "CCNC(=O)C1=C(Br)C=C(F)C=C1", 
	 "Tm": 377.15, 
	 "num_atms": 22, 
	 "gaussian": { 
		 "optdone": 1, 
		 "sigma_profile": "yes", 
		 "theory": "DFT", 
		 "functional": "B3LYP", 
		 "basiset": "6-31G**", 
		 "properties": { 
			 "R2extent": 4003.6949, 
			 "electric_dipole_moment_norm": 3.96024480304, 
			 "electric_quadrupole_moment_norm": 13.3880055479, 
			 "total_energy": -3149.6063888, 
			 "HOMO_LUMO_gap": 0.21205, 
			 "cosmo_polarized_energy": -12.42, 
			 "cosmo_cavitation_energy": 29.04, 
			 "cosmo_dispersion_energy": -20.32, 
			 "cosmo_repulsion_energy": 1.61, 
			 "cosmo_total_nonelectrostatic_energy": 10.33, 
			 "SMD_solvation_energy": 4.63 
		},
		"coords": [
			{
				"x": 2.1701016868,
				"y": 0.03945813,
				"z": -0.8063673817,
				"element": "C" 
			},
			{
				"x": 1.0956375833,
				"y": -1.0527458017,
				"z": -0.804116072,
				"element": "C" 
			},
			{
				"x": 0.8677275502,
				"y": -1.6341660309,
				"z": 0.5157439648,
				"element": "N" 
			},
			{
				"x": -0.0928375639,
				"y": -1.3024398745,
				"z": 1.4322898539,
				"element": "C" 
			},
			{
				"x": -0.0423077277,
				"y": -1.6769005527,
				"z": 2.5956322373,
				"element": "O" 
			},
			{
				"x": -1.2848023168,
				"y": -0.5179004443,
				"z": 0.924068318,
				"element": "C" 
			},
			{
				"x": -1.4900852944,
				"y": 0.8298670071,
				"z": 1.2402799279,
				"element": "C" 
			},
			{
				"x": -0.1583867202,
				"y": 1.8151703021,
				"z": 2.1924794298,
				"element": "Br" 
			},
			{
				"x": -2.6489856297,
				"y": 1.5029257564,
				"z": 0.8582590667,
				"element": "C" 
			},
			{
				"x": -3.6178438924,
				"y": 0.7981820897,
				"z": 0.1535193393,
				"element": "C" 
			},
			{
				"x": -4.7414376482,
				"y": 1.4414578051,
				"z": -0.2147305089,
				"element": "F" 
			},
			{
				"x": -3.4597306804,
				"y": -0.540745195,
				"z": -0.1838970005,
				"element": "C" 
			},
			{
				"x": -2.2877815253,
				"y": -1.1852409112,
				"z": 0.2063387444,
				"element": "C" 
			},
			{
				"x": 3.1305356269,
				"y": -0.3517624627,
				"z": -0.4535860373,
				"element": "H" 
			},
			{
				"x": 1.8804503065,
				"y": 0.8680819483,
				"z": -0.1539943357,
				"element": "H" 
			},
			{
				"x": 2.3177505582,
				"y": 0.4277041608,
				"z": -1.8197087659,
				"element": "H" 
			},
			{
				"x": 1.3752827771,
				"y": -1.8605612171,
				"z": -1.4912160999,
				"element": "H" 
			},
			{
				"x": 0.1457850504,
				"y": -0.6501148919,
				"z": -1.1620604145,
				"element": "H" 
			},
			{
				"x": 1.6354918375,
				"y": -2.1465943644,
				"z": 0.9348469799,
				"element": "H" 
			},
			{
				"x": -2.803156923,
				"y": 2.5474097993,
				"z": 1.0986195929,
				"element": "H" 
			},
			{
				"x": -4.2397234152,
				"y": -1.0554722343,
				"z": -0.7333194165,
				"element": "H" 
			},
			{
				"x": -2.1455836398,
				"y": -2.2329130182,
				"z": -0.0412814217,
				"element": "H" 
			}
		],
		 "valence_orbital": [ 
			{
				"type": "occ",
				"energy": -0.29358,
				"method": "rhf"
			},
			{
				"type": "occ",
				"energy": -0.27181,
				"method": "rhf"
			},
			{
				"type": "occ",
				"energy": -0.25892,
				"method": "rhf"
			},
			{
				"type": "occ",
				"energy": -0.25512,
				"method": "rhf"
			},
			{
				"type": "occ",
				"energy": -0.24221,
				"method": "rhf"
			},
			{
				"type": "unocc",
				"energy": -0.03016,
				"method": "rhf"
			},
			{
				"type": "unocc",
				"energy": -0.02186,
				"method": "rhf"
			},
			{
				"type": "unocc",
				"energy": -0.00326,
				"method": "rhf"
			},
			{
				"type": "unocc",
				"energy": 0.02359,
				"method": "rhf"
			},
			{
				"type": "unocc",
				"energy": 0.08402,
				"method": "rhf"
			}
		],
		"cosmo_sigma_profile": { 
			"-0.025": 0.0,
			"-0.024": 0.0,
			"-0.023": 0.0,
			"-0.022": 0.0,
			"-0.021": 0.0,
			"-0.02": 0.0,
			"-0.019": 0.0,
			"-0.018": 0.0,
			"-0.017": 0.0,
			"-0.016": 0.0,
			"-0.015": 0.0,
			"-0.014": 0.348448001338,
			"-0.013": 0.98737448877,
			"-0.012": 1.25319118929,
			"-0.011": 0.803899702364,
			"-0.01": 0.92047129208,
			"-0.009": 1.51057913468,
			"-0.008": 5.65166327675,
			"-0.007": 6.51554755506,
			"-0.006": 7.16051858971,
			"-0.005": 10.0564777123,
			"-0.004": 15.1711652243,
			"-0.003": 18.2201111404,
			"-0.002": 19.7138061365,
			"-0.001": 21.4812458447,
			"0.0": 26.781954616,
			"0.001": 26.1042672319,
			"0.002": 15.411474651,
			"0.003": 15.2392828091,
			"0.004": 15.8815758179,
			"0.005": 2.19101774063,
			"0.006": 2.18210981322,
			"0.007": 2.05326591029,
			"0.008": 1.95558570393,
			"0.009": 1.58672423804,
			"0.01": 1.88853273081,
			"0.011": 1.51336094525,
			"0.012": 2.34362100304,
			"0.013": 5.48433561464,
			"0.014": 3.52859102833,
			"0.015": 0.386281173791,
			"0.016": 0.0,
			"0.017": 0.0,
			"0.018": 0.0,
			"0.019": 0.0,
			"0.02": 0.0,
			"0.021": 0.0,
			"0.022": 0.0,
			"0.023": 0.0,
			"0.024": 0.0,
			"0.025": 0.0
		}
	}
}
