{
	 "smiles": "N#CC1=NC=CN=C1", 
	 "Tm": 292.15, 
	 "num_atms": 11, 
	 "gaussian": { 
		 "optdone": 1, 
		 "sigma_profile": "yes", 
		 "theory": "DFT", 
		 "functional": "B3LYP", 
		 "basiset": "6-31G**", 
		 "properties": { 
			 "R2extent": 2387.5709, 
			 "electric_dipole_moment_norm": 4.00425269058, 
			 "electric_quadrupole_moment_norm": 18.7540423408, 
			 "total_energy": -356.549417428, 
			 "HOMO_LUMO_gap": 0.1901, 
			 "cosmo_polarized_energy": -9.88, 
			 "cosmo_cavitation_energy": 17.04, 
			 "cosmo_dispersion_energy": -12.19, 
			 "cosmo_repulsion_energy": 1.01, 
			 "cosmo_total_nonelectrostatic_energy": 5.86, 
			 "SMD_solvation_energy": 1.78 
		},
		"coords": [
			{
				"x": -2.4390512736,
				"y": 3.6674858182,
				"z": -3.9990814535,
				"element": "N" 
			},
			{
				"x": -2.0597310989,
				"y": 2.9471506209,
				"z": -3.169990979,
				"element": "C" 
			},
			{
				"x": -1.5403219665,
				"y": 2.0732751035,
				"z": -2.1484248307,
				"element": "C" 
			},
			{
				"x": -2.403659856,
				"y": 1.2530899993,
				"z": -1.5264006082,
				"element": "N" 
			},
			{
				"x": -1.8797964334,
				"y": 0.4628180493,
				"z": -0.5891613019,
				"element": "C" 
			},
			{
				"x": -0.5163173281,
				"y": 0.4862620359,
				"z": -0.2732337135,
				"element": "C" 
			},
			{
				"x": 0.3417647448,
				"y": 1.3028302256,
				"z": -0.8928743541,
				"element": "N" 
			},
			{
				"x": -0.1722424624,
				"y": 2.0984231044,
				"z": -1.8331034505,
				"element": "C" 
			},
			{
				"x": -2.5623131392,
				"y": -0.208787378,
				"z": -0.0737122596,
				"element": "H" 
			},
			{
				"x": -0.1108892945,
				"y": -0.167720456,
				"z": 0.4953865599,
				"element": "H" 
			},
			{
				"x": 0.5056581077,
				"y": 2.7718728769,
				"z": -2.351603609,
				"element": "H" 
			}
		],
		 "valence_orbital": [ 
			{
				"type": "occ",
				"energy": -0.35489,
				"method": "rhf"
			},
			{
				"type": "occ",
				"energy": -0.3508,
				"method": "rhf"
			},
			{
				"type": "occ",
				"energy": -0.33632,
				"method": "rhf"
			},
			{
				"type": "occ",
				"energy": -0.29599,
				"method": "rhf"
			},
			{
				"type": "occ",
				"energy": -0.27974,
				"method": "rhf"
			},
			{
				"type": "unocc",
				"energy": -0.08964,
				"method": "rhf"
			},
			{
				"type": "unocc",
				"energy": -0.06587,
				"method": "rhf"
			},
			{
				"type": "unocc",
				"energy": 0.01643,
				"method": "rhf"
			},
			{
				"type": "unocc",
				"energy": 0.0495,
				"method": "rhf"
			},
			{
				"type": "unocc",
				"energy": 0.09638,
				"method": "rhf"
			}
		],
		"cosmo_sigma_profile": { 
			"-0.025": 0.0,
			"-0.024": 0.0,
			"-0.023": 0.0,
			"-0.022": 0.0,
			"-0.021": 0.0,
			"-0.02": 0.0,
			"-0.019": 0.0,
			"-0.018": 0.0,
			"-0.017": 0.0,
			"-0.016": 0.0,
			"-0.015": 0.0,
			"-0.014": 0.0,
			"-0.013": 0.0,
			"-0.012": 0.0,
			"-0.011": 0.0,
			"-0.01": 0.804060676989,
			"-0.009": 7.41228102226,
			"-0.008": 8.00009806299,
			"-0.007": 5.59517632072,
			"-0.006": 6.03524541517,
			"-0.005": 8.56479036089,
			"-0.004": 10.6691419751,
			"-0.003": 11.7635151984,
			"-0.002": 10.2724057083,
			"-0.001": 6.25773166256,
			"0.0": 6.00611391932,
			"0.001": 6.21929811342,
			"0.002": 4.89337374966,
			"0.003": 4.55301123909,
			"0.004": 6.44883683796,
			"0.005": 4.26598407476,
			"0.006": 4.42280766524,
			"0.007": 5.4631490109,
			"0.008": 4.96420485098,
			"0.009": 4.98869227452,
			"0.01": 3.91357586134,
			"0.011": 4.12539575704,
			"0.012": 2.56337603837,
			"0.013": 1.18444731792,
			"0.014": 0.193322835135,
			"0.015": 0.0,
			"0.016": 0.0,
			"0.017": 0.0,
			"0.018": 0.0,
			"0.019": 0.0,
			"0.02": 0.0,
			"0.021": 0.0,
			"0.022": 0.0,
			"0.023": 0.0,
			"0.024": 0.0,
			"0.025": 0.0
		}
	}
}
