{
	 "smiles": "COC1=C(CSC2=NN=NN2C)C=C(C=C1)C(C)=O", 
	 "Tm": 338.15, 
	 "num_atms": 33, 
	 "gaussian": { 
		 "optdone": 1, 
		 "sigma_profile": "yes", 
		 "theory": "DFT", 
		 "functional": "B3LYP", 
		 "basiset": "6-31G**", 
		 "properties": { 
			 "R2extent": 7307.9434, 
			 "electric_dipole_moment_norm": 8.93649719577, 
			 "electric_quadrupole_moment_norm": 24.1286309746, 
			 "total_energy": -1233.29433486, 
			 "HOMO_LUMO_gap": 0.18517, 
			 "cosmo_polarized_energy": -22.71, 
			 "cosmo_cavitation_energy": 39.32, 
			 "cosmo_dispersion_energy": -27.55, 
			 "cosmo_repulsion_energy": 2.09, 
			 "cosmo_total_nonelectrostatic_energy": 13.86, 
			 "SMD_solvation_energy": 6.37 
		},
		"coords": [
			{
				"x": 2.2390382092,
				"y": -3.6362404019,
				"z": -0.2149100768,
				"element": "C" 
			},
			{
				"x": 1.275592219,
				"y": -2.6134982917,
				"z": -0.4342044745,
				"element": "O" 
			},
			{
				"x": 1.4618528482,
				"y": -1.3994983762,
				"z": 0.1531957877,
				"element": "C" 
			},
			{
				"x": 0.461649495,
				"y": -0.436013652,
				"z": -0.1196560341,
				"element": "C" 
			},
			{
				"x": -0.7062448148,
				"y": -0.8037819249,
				"z": -0.9876350727,
				"element": "C" 
			},
			{
				"x": -0.3065507199,
				"y": -0.8601894226,
				"z": -2.8079692318,
				"element": "S" 
			},
			{
				"x": -0.636657924,
				"y": 0.8110328408,
				"z": -3.2249036084,
				"element": "C" 
			},
			{
				"x": -1.1797306519,
				"y": 1.7538475601,
				"z": -2.4693704522,
				"element": "N" 
			},
			{
				"x": -1.2431578141,
				"y": 2.8650555403,
				"z": -3.2534233022,
				"element": "N" 
			},
			{
				"x": -0.7720716948,
				"y": 2.6385986125,
				"z": -4.430467759,
				"element": "N" 
			},
			{
				"x": -0.3711718981,
				"y": 1.3362408228,
				"z": -4.4430706204,
				"element": "N" 
			},
			{
				"x": 0.2139497612,
				"y": 0.7327376527,
				"z": -5.6260920042,
				"element": "C" 
			},
			{
				"x": 0.5809095846,
				"y": 0.829619577,
				"z": 0.4417819915,
				"element": "C" 
			},
			{
				"x": 1.664308449,
				"y": 1.1669260063,
				"z": 1.2732030618,
				"element": "C" 
			},
			{
				"x": 2.6410276012,
				"y": 0.1974394814,
				"z": 1.5263848634,
				"element": "C" 
			},
			{
				"x": 2.547507728,
				"y": -1.0804500841,
				"z": 0.9745833363,
				"element": "C" 
			},
			{
				"x": 1.7132548555,
				"y": 2.5439082561,
				"z": 1.8543207534,
				"element": "C" 
			},
			{
				"x": 2.9042890946,
				"y": 2.9337759297,
				"z": 2.7173121741,
				"element": "C" 
			},
			{
				"x": 0.8139521671,
				"y": 3.3438957436,
				"z": 1.6442776835,
				"element": "O" 
			},
			{
				"x": 3.2278571539,
				"y": -3.3403075482,
				"z": -0.5851635036,
				"element": "H" 
			},
			{
				"x": 1.8881767023,
				"y": -4.5034158847,
				"z": -0.7755514295,
				"element": "H" 
			},
			{
				"x": 2.3124166141,
				"y": -3.8964039174,
				"z": 0.8479515516,
				"element": "H" 
			},
			{
				"x": -1.0599525821,
				"y": -1.8146261589,
				"z": -0.7792980338,
				"element": "H" 
			},
			{
				"x": -1.5272474851,
				"y": -0.0960030371,
				"z": -0.8774707439,
				"element": "H" 
			},
			{
				"x": 0.3382079609,
				"y": 1.5248690723,
				"z": -6.3638211338,
				"element": "H" 
			},
			{
				"x": -0.4426485621,
				"y": -0.0439077905,
				"z": -6.0287000194,
				"element": "H" 
			},
			{
				"x": 1.1868402556,
				"y": 0.2960974877,
				"z": -5.3848546851,
				"element": "H" 
			},
			{
				"x": -0.1675010932,
				"y": 1.5880192707,
				"z": 0.2348196802,
				"element": "H" 
			},
			{
				"x": 3.4897527349,
				"y": 0.4258211029,
				"z": 2.1628948534,
				"element": "H" 
			},
			{
				"x": 3.3159063213,
				"y": -1.8131293773,
				"z": 1.1892574775,
				"element": "H" 
			},
			{
				"x": 2.9791742483,
				"y": 2.2898459329,
				"z": 3.6007927462,
				"element": "H" 
			},
			{
				"x": 2.7761719216,
				"y": 3.9683065514,
				"z": 3.0367073951,
				"element": "H" 
			},
			{
				"x": 3.8437993147,
				"y": 2.8385284263,
				"z": 2.1617788294,
				"element": "H" 
			}
		],
		 "valence_orbital": [ 
			{
				"type": "occ",
				"energy": -0.27774,
				"method": "rhf"
			},
			{
				"type": "occ",
				"energy": -0.25991,
				"method": "rhf"
			},
			{
				"type": "occ",
				"energy": -0.24272,
				"method": "rhf"
			},
			{
				"type": "occ",
				"energy": -0.2395,
				"method": "rhf"
			},
			{
				"type": "occ",
				"energy": -0.23277,
				"method": "rhf"
			},
			{
				"type": "unocc",
				"energy": -0.0476,
				"method": "rhf"
			},
			{
				"type": "unocc",
				"energy": -0.02391,
				"method": "rhf"
			},
			{
				"type": "unocc",
				"energy": -0.00424,
				"method": "rhf"
			},
			{
				"type": "unocc",
				"energy": 0.01399,
				"method": "rhf"
			},
			{
				"type": "unocc",
				"energy": 0.03048,
				"method": "rhf"
			}
		],
		"cosmo_sigma_profile": { 
			"-0.025": 0.0,
			"-0.024": 0.0,
			"-0.023": 0.0,
			"-0.022": 0.0,
			"-0.021": 0.0,
			"-0.02": 0.0,
			"-0.019": 0.0,
			"-0.018": 0.0,
			"-0.017": 0.0,
			"-0.016": 0.0,
			"-0.015": 0.0,
			"-0.014": 0.0,
			"-0.013": 0.0,
			"-0.012": 0.0,
			"-0.011": 0.0,
			"-0.01": 0.0,
			"-0.009": 0.0535777729895,
			"-0.008": 4.30286737951,
			"-0.007": 13.7982088069,
			"-0.006": 28.0623687222,
			"-0.005": 31.1302016228,
			"-0.004": 30.2662614126,
			"-0.003": 24.0957628338,
			"-0.002": 17.4384447437,
			"-0.001": 17.7651478646,
			"0.0": 17.1776324227,
			"0.001": 15.9802987781,
			"0.002": 17.8626081707,
			"0.003": 22.9938355799,
			"0.004": 15.2307524599,
			"0.005": 8.40038961823,
			"0.006": 8.05318039067,
			"0.007": 4.84330631033,
			"0.008": 6.7295858473,
			"0.009": 6.48723762283,
			"0.01": 6.53604101024,
			"0.011": 6.08295444963,
			"0.012": 7.30765750024,
			"0.013": 3.42289477546,
			"0.014": 1.20110888958,
			"0.015": 0.0,
			"0.016": 0.0,
			"0.017": 0.0,
			"0.018": 0.0,
			"0.019": 0.0,
			"0.02": 0.0,
			"0.021": 0.0,
			"0.022": 0.0,
			"0.023": 0.0,
			"0.024": 0.0,
			"0.025": 0.0
		}
	}
}
