{
	 "smiles": "COC1=CC(=CC=C1)C1=NNC=C1C=O", 
	 "Tm": 365.15, 
	 "num_atms": 25, 
	 "gaussian": { 
		 "optdone": 1, 
		 "sigma_profile": "yes", 
		 "theory": "DFT", 
		 "functional": "B3LYP", 
		 "basiset": "6-31G**", 
		 "properties": { 
			 "R2extent": 4496.2303, 
			 "electric_dipole_moment_norm": 3.64758184418, 
			 "electric_quadrupole_moment_norm": 23.085956526, 
			 "total_energy": -685.108930404, 
			 "HOMO_LUMO_gap": 0.17238, 
			 "cosmo_polarized_energy": -16.05, 
			 "cosmo_cavitation_energy": 29.9, 
			 "cosmo_dispersion_energy": -21.73, 
			 "cosmo_repulsion_energy": 1.7, 
			 "cosmo_total_nonelectrostatic_energy": 9.87, 
			 "SMD_solvation_energy": 6.24 
		},
		"coords": [
			{
				"x": 1.0234793593,
				"y": -1.6445461464,
				"z": 2.2295247188,
				"element": "C" 
			},
			{
				"x": -0.3043465534,
				"y": -1.1511829738,
				"z": 2.3184107495,
				"element": "O" 
			},
			{
				"x": -0.6841845297,
				"y": -0.1606798208,
				"z": 1.4605594308,
				"element": "C" 
			},
			{
				"x": 0.1407928314,
				"y": 0.3934163485,
				"z": 0.4797977503,
				"element": "C" 
			},
			{
				"x": -0.3475346986,
				"y": 1.411331784,
				"z": -0.3592995422,
				"element": "C" 
			},
			{
				"x": -1.6597369012,
				"y": 1.873441723,
				"z": -0.1978954894,
				"element": "C" 
			},
			{
				"x": -2.4789304434,
				"y": 1.3069699793,
				"z": 0.7832474451,
				"element": "C" 
			},
			{
				"x": -2.0045301808,
				"y": 0.2948368334,
				"z": 1.6073024157,
				"element": "C" 
			},
			{
				"x": 0.5500819818,
				"y": 1.9874499872,
				"z": -1.3787859241,
				"element": "C" 
			},
			{
				"x": 1.8564070238,
				"y": 2.1030754552,
				"z": -1.1252040587,
				"element": "N" 
			},
			{
				"x": 2.3781683327,
				"y": 2.657627951,
				"z": -2.2470228047,
				"element": "N" 
			},
			{
				"x": 1.464337612,
				"y": 2.9045728734,
				"z": -3.2022087265,
				"element": "C" 
			},
			{
				"x": 0.2429403016,
				"y": 2.4775927383,
				"z": -2.6928182321,
				"element": "C" 
			},
			{
				"x": -1.0037466319,
				"y": 2.4664661352,
				"z": -3.4584399743,
				"element": "C" 
			},
			{
				"x": -1.1149723,
				"y": 2.9540196065,
				"z": -4.5727170158,
				"element": "O" 
			},
			{
				"x": 1.2222172134,
				"y": -2.0989871321,
				"z": 1.2503821785,
				"element": "H" 
			},
			{
				"x": 1.7622462863,
				"y": -0.8541668009,
				"z": 2.4132710761,
				"element": "H" 
			},
			{
				"x": 1.1130322925,
				"y": -2.4080075932,
				"z": 3.0039102149,
				"element": "H" 
			},
			{
				"x": 1.160953963,
				"y": 0.0593216107,
				"z": 0.3424661497,
				"element": "H" 
			},
			{
				"x": -2.0294279908,
				"y": 2.6925195941,
				"z": -0.8048001127,
				"element": "H" 
			},
			{
				"x": -3.4952368676,
				"y": 1.6683503481,
				"z": 0.9099188405,
				"element": "H" 
			},
			{
				"x": -2.6273022206,
				"y": -0.1555361191,
				"z": 2.3731089505,
				"element": "H" 
			},
			{
				"x": 3.3676444388,
				"y": 2.8526763839,
				"z": -2.2735490231,
				"element": "H" 
			},
			{
				"x": 1.7080095191,
				"y": 3.333000091,
				"z": -4.1628627161,
				"element": "H" 
			},
			{
				"x": -1.8612618379,
				"y": 1.9609371434,
				"z": -2.9718963006,
				"element": "H" 
			}
		],
		 "valence_orbital": [ 
			{
				"type": "occ",
				"energy": -0.28713,
				"method": "rhf"
			},
			{
				"type": "occ",
				"energy": -0.26114,
				"method": "rhf"
			},
			{
				"type": "occ",
				"energy": -0.24763,
				"method": "rhf"
			},
			{
				"type": "occ",
				"energy": -0.24053,
				"method": "rhf"
			},
			{
				"type": "occ",
				"energy": -0.2193,
				"method": "rhf"
			},
			{
				"type": "unocc",
				"energy": -0.04692,
				"method": "rhf"
			},
			{
				"type": "unocc",
				"energy": -0.02274,
				"method": "rhf"
			},
			{
				"type": "unocc",
				"energy": 0.00726,
				"method": "rhf"
			},
			{
				"type": "unocc",
				"energy": 0.03094,
				"method": "rhf"
			},
			{
				"type": "unocc",
				"energy": 0.06592,
				"method": "rhf"
			}
		],
		"cosmo_sigma_profile": { 
			"-0.025": 0.0,
			"-0.024": 0.0,
			"-0.023": 0.0,
			"-0.022": 0.0,
			"-0.021": 0.0,
			"-0.02": 0.0,
			"-0.019": 0.0,
			"-0.018": 0.822992732991,
			"-0.017": 1.73834513877,
			"-0.016": 1.33394343943,
			"-0.015": 1.28908585369,
			"-0.014": 0.744838168573,
			"-0.013": 1.1626213678,
			"-0.012": 1.41088104664,
			"-0.011": 1.33470873963,
			"-0.01": 2.50184181952,
			"-0.009": 2.7746327933,
			"-0.008": 2.32987866956,
			"-0.007": 2.99301603938,
			"-0.006": 11.814770648,
			"-0.005": 20.029317509,
			"-0.004": 18.2000302806,
			"-0.003": 19.9309399642,
			"-0.002": 12.6323713593,
			"-0.001": 11.0277570818,
			"0.0": 13.6397174233,
			"0.001": 16.8413492579,
			"0.002": 14.9369877599,
			"0.003": 14.2974272281,
			"0.004": 15.4451177503,
			"0.005": 12.9038671811,
			"0.006": 6.59703764835,
			"0.007": 3.42901996446,
			"0.008": 4.52543885795,
			"0.009": 4.83330364142,
			"0.01": 4.21145456141,
			"0.011": 4.52162022727,
			"0.012": 5.42479854667,
			"0.013": 2.72513335565,
			"0.014": 1.10879577018,
			"0.015": 0.111834275909,
			"0.016": 0.0,
			"0.017": 0.0,
			"0.018": 0.0,
			"0.019": 0.0,
			"0.02": 0.0,
			"0.021": 0.0,
			"0.022": 0.0,
			"0.023": 0.0,
			"0.024": 0.0,
			"0.025": 0.0
		}
	}
}
