{
	 "smiles": "CC(=O)C1=CC=C2C=CC3=C4C(C=CC1=C24)=CC=C3", 
	 "Tm": 361.15, 
	 "num_atms": 31, 
	 "gaussian": { 
		 "optdone": 1, 
		 "sigma_profile": "yes", 
		 "theory": "DFT", 
		 "functional": "B3LYP", 
		 "basiset": "6-31G**", 
		 "properties": { 
			 "R2extent": 5021.3982, 
			 "electric_dipole_moment_norm": 3.50964460451, 
			 "electric_quadrupole_moment_norm": 17.7440191451, 
			 "total_energy": -768.413307305, 
			 "HOMO_LUMO_gap": 0.12993, 
			 "cosmo_polarized_energy": -10.31, 
			 "cosmo_cavitation_energy": 33.6, 
			 "cosmo_dispersion_energy": -25.0, 
			 "cosmo_repulsion_energy": 1.82, 
			 "cosmo_total_nonelectrostatic_energy": 10.43, 
			 "SMD_solvation_energy": 5.37 
		},
		"coords": [
			{
				"x": 0.4549147815,
				"y": 3.9577611757,
				"z": -1.7879940546,
				"element": "C" 
			},
			{
				"x": -0.5429498986,
				"y": 3.7757165072,
				"z": -0.6503687289,
				"element": "C" 
			},
			{
				"x": -1.3704769916,
				"y": 4.6532775164,
				"z": -0.4475700218,
				"element": "O" 
			},
			{
				"x": -0.460541993,
				"y": 2.6012591692,
				"z": 0.2880660746,
				"element": "C" 
			},
			{
				"x": -0.8663226895,
				"y": 2.8831125494,
				"z": 1.6036310129,
				"element": "C" 
			},
			{
				"x": -0.7727874312,
				"y": 1.9427137133,
				"z": 2.6159287596,
				"element": "C" 
			},
			{
				"x": -0.2837148873,
				"y": 0.6537899041,
				"z": 2.3501983106,
				"element": "C" 
			},
			{
				"x": -0.1579006017,
				"y": -0.3339303494,
				"z": 3.3848116608,
				"element": "C" 
			},
			{
				"x": 0.3020871696,
				"y": -1.5862499978,
				"z": 3.1156349212,
				"element": "C" 
			},
			{
				"x": 0.6715792672,
				"y": -1.9688201202,
				"z": 1.7819719729,
				"element": "C" 
			},
			{
				"x": 0.5545559629,
				"y": -1.0056304206,
				"z": 0.7319890208,
				"element": "C" 
			},
			{
				"x": 0.9040690489,
				"y": -1.3785126391,
				"z": -0.5998965931,
				"element": "C" 
			},
			{
				"x": 0.7507535366,
				"y": -0.4016816431,
				"z": -1.6367194659,
				"element": "C" 
			},
			{
				"x": 0.3150592065,
				"y": 0.861632279,
				"z": -1.3717142641,
				"element": "C" 
			},
			{
				"x": -0.0065013603,
				"y": 1.2939856809,
				"z": -0.0357765894,
				"element": "C" 
			},
			{
				"x": 0.0891183531,
				"y": 0.3169823567,
				"z": 1.0122331038,
				"element": "C" 
			},
			{
				"x": 1.3645279857,
				"y": -2.6807103791,
				"z": -0.8557667671,
				"element": "C" 
			},
			{
				"x": 1.4839433856,
				"y": -3.6085588255,
				"z": 0.1764116756,
				"element": "C" 
			},
			{
				"x": 1.1406565951,
				"y": -3.2579823494,
				"z": 1.4810296726,
				"element": "C" 
			},
			{
				"x": 1.3901873621,
				"y": 3.4150776805,
				"z": -1.6373437947,
				"element": "H" 
			},
			{
				"x": 0.011277261,
				"y": 3.6318746844,
				"z": -2.7361180898,
				"element": "H" 
			},
			{
				"x": 0.6526649671,
				"y": 5.0281267174,
				"z": -1.8796084879,
				"element": "H" 
			},
			{
				"x": -1.241950222,
				"y": 3.879406237,
				"z": 1.8091463828,
				"element": "H" 
			},
			{
				"x": -1.0720008951,
				"y": 2.1995280818,
				"z": 3.6285231692,
				"element": "H" 
			},
			{
				"x": -0.4420590915,
				"y": -0.0560244137,
				"z": 4.396191633,
				"element": "H" 
			},
			{
				"x": 0.3929007259,
				"y": -2.3231128474,
				"z": 3.9093663056,
				"element": "H" 
			},
			{
				"x": 0.9796090784,
				"y": -0.6924093738,
				"z": -2.658806102,
				"element": "H" 
			},
			{
				"x": 0.1849756959,
				"y": 1.5476781603,
				"z": -2.1970121547,
				"element": "H" 
			},
			{
				"x": 1.626468302,
				"y": -2.9581092701,
				"z": -1.8733719076,
				"element": "H" 
			},
			{
				"x": 1.8433024712,
				"y": -4.6110123549,
				"z": -0.0365800014,
				"element": "H" 
			},
			{
				"x": 1.2323549056,
				"y": -3.9857774292,
				"z": 2.2829133471,
				"element": "H" 
			}
		],
		 "valence_orbital": [ 
			{
				"type": "occ",
				"energy": -0.27887,
				"method": "rhf"
			},
			{
				"type": "occ",
				"energy": -0.26123,
				"method": "rhf"
			},
			{
				"type": "occ",
				"energy": -0.24567,
				"method": "rhf"
			},
			{
				"type": "occ",
				"energy": -0.23532,
				"method": "rhf"
			},
			{
				"type": "occ",
				"energy": -0.20568,
				"method": "rhf"
			},
			{
				"type": "unocc",
				"energy": -0.07575,
				"method": "rhf"
			},
			{
				"type": "unocc",
				"energy": -0.03315,
				"method": "rhf"
			},
			{
				"type": "unocc",
				"energy": -0.01758,
				"method": "rhf"
			},
			{
				"type": "unocc",
				"energy": -0.00926,
				"method": "rhf"
			},
			{
				"type": "unocc",
				"energy": 0.0261,
				"method": "rhf"
			}
		],
		"cosmo_sigma_profile": { 
			"-0.025": 0.0,
			"-0.024": 0.0,
			"-0.023": 0.0,
			"-0.022": 0.0,
			"-0.021": 0.0,
			"-0.02": 0.0,
			"-0.019": 0.0,
			"-0.018": 0.0,
			"-0.017": 0.0,
			"-0.016": 0.0,
			"-0.015": 0.0,
			"-0.014": 0.0,
			"-0.013": 0.0,
			"-0.012": 0.0,
			"-0.011": 0.0,
			"-0.01": 0.0,
			"-0.009": 0.0,
			"-0.008": 1.32783407713,
			"-0.007": 6.99217176148,
			"-0.006": 20.5521717136,
			"-0.005": 20.4855713401,
			"-0.004": 22.0407723813,
			"-0.003": 18.7705284251,
			"-0.002": 19.4349570093,
			"-0.001": 17.5726650197,
			"0.0": 15.2672970458,
			"0.001": 12.8948625816,
			"0.002": 32.9299336663,
			"0.003": 38.0215497319,
			"0.004": 21.5276959047,
			"0.005": 4.3735654926,
			"0.006": 1.48257367112,
			"0.007": 1.77964006822,
			"0.008": 2.0884468648,
			"0.009": 1.53416000949,
			"0.01": 1.76694211636,
			"0.011": 2.61761512754,
			"0.012": 4.3416551056,
			"0.013": 2.26502827197,
			"0.014": 0.283147167233,
			"0.015": 0.0,
			"0.016": 0.0,
			"0.017": 0.0,
			"0.018": 0.0,
			"0.019": 0.0,
			"0.02": 0.0,
			"0.021": 0.0,
			"0.022": 0.0,
			"0.023": 0.0,
			"0.024": 0.0,
			"0.025": 0.0
		}
	}
}
