{
	 "smiles": "[O-][N+](=O)C1=CC(=CC=C1Cl)C(Cl)=O", 
	 "Tm": 326.65, 
	 "num_atms": 16, 
	 "gaussian": { 
		 "optdone": 1, 
		 "sigma_profile": "yes", 
		 "theory": "DFT", 
		 "functional": "B3LYP", 
		 "basiset": "6-31G**", 
		 "properties": { 
			 "R2extent": 4121.0429, 
			 "electric_dipole_moment_norm": 3.94590399022, 
			 "electric_quadrupole_moment_norm": 14.9943348125, 
			 "total_energy": -1469.24982401, 
			 "HOMO_LUMO_gap": 0.18274, 
			 "cosmo_polarized_energy": -10.12, 
			 "cosmo_cavitation_energy": 25.85, 
			 "cosmo_dispersion_energy": -19.09, 
			 "cosmo_repulsion_energy": 1.51, 
			 "cosmo_total_nonelectrostatic_energy": 8.27, 
			 "SMD_solvation_energy": 7.08 
		},
		"coords": [
			{
				"x": 1.6200097176,
				"y": -1.9222599476,
				"z": -0.9545987696,
				"element": "O" 
			},
			{
				"x": 1.1254223988,
				"y": -1.8976481371,
				"z": 0.1705865721,
				"element": "N" 
			},
			{
				"x": 0.7546345932,
				"y": -2.8752102314,
				"z": 0.8097504786,
				"element": "O" 
			},
			{
				"x": 0.9332214551,
				"y": -0.5645608834,
				"z": 0.7750883897,
				"element": "C" 
			},
			{
				"x": 0.6474643771,
				"y": 0.4734170107,
				"z": -0.1041790115,
				"element": "C" 
			},
			{
				"x": 0.4094751455,
				"y": 1.7644330736,
				"z": 0.3792747306,
				"element": "C" 
			},
			{
				"x": 0.4879443099,
				"y": 2.005876232,
				"z": 1.7576042746,
				"element": "C" 
			},
			{
				"x": 0.8006543704,
				"y": 0.9714350852,
				"z": 2.6309071084,
				"element": "C" 
			},
			{
				"x": 1.0200260812,
				"y": -0.3274471514,
				"z": 2.1581131235,
				"element": "C" 
			},
			{
				"x": 1.452883298,
				"y": -1.5438547946,
				"z": 3.3156825462,
				"element": "Cl" 
			},
			{
				"x": 0.090044599,
				"y": 2.799055067,
				"z": -0.6389141733,
				"element": "C" 
			},
			{
				"x": -0.1943036033,
				"y": 4.4699279879,
				"z": 0.0216119343,
				"element": "Cl" 
			},
			{
				"x": 0.0119246252,
				"y": 2.6113842229,
				"z": -1.8150524267,
				"element": "O" 
			},
			{
				"x": 0.6092150234,
				"y": 0.2703380956,
				"z": -1.1672781194,
				"element": "H" 
			},
			{
				"x": 0.3121099746,
				"y": 3.0014701388,
				"z": 2.1458631745,
				"element": "H" 
			},
			{
				"x": 0.8814736343,
				"y": 1.1585442318,
				"z": 3.695340168,
				"element": "H" 
			}
		],
		 "valence_orbital": [ 
			{
				"type": "occ",
				"energy": -0.32712,
				"method": "rhf"
			},
			{
				"type": "occ",
				"energy": -0.31931,
				"method": "rhf"
			},
			{
				"type": "occ",
				"energy": -0.31365,
				"method": "rhf"
			},
			{
				"type": "occ",
				"energy": -0.3004,
				"method": "rhf"
			},
			{
				"type": "occ",
				"energy": -0.29493,
				"method": "rhf"
			},
			{
				"type": "unocc",
				"energy": -0.11219,
				"method": "rhf"
			},
			{
				"type": "unocc",
				"energy": -0.09827,
				"method": "rhf"
			},
			{
				"type": "unocc",
				"energy": -0.04377,
				"method": "rhf"
			},
			{
				"type": "unocc",
				"energy": -0.00877,
				"method": "rhf"
			},
			{
				"type": "unocc",
				"energy": 0.00084,
				"method": "rhf"
			}
		],
		"cosmo_sigma_profile": { 
			"-0.025": 0.0,
			"-0.024": 0.0,
			"-0.023": 0.0,
			"-0.022": 0.0,
			"-0.021": 0.0,
			"-0.02": 0.0,
			"-0.019": 0.0,
			"-0.018": 0.0,
			"-0.017": 0.0,
			"-0.016": 0.0,
			"-0.015": 0.0,
			"-0.014": 0.0,
			"-0.013": 0.0,
			"-0.012": 0.0,
			"-0.011": 0.0,
			"-0.01": 0.712313079276,
			"-0.009": 4.84050269105,
			"-0.008": 5.78841413601,
			"-0.007": 5.53320944068,
			"-0.006": 8.03056536068,
			"-0.005": 10.9477303107,
			"-0.004": 15.2081317735,
			"-0.003": 22.0371672555,
			"-0.002": 18.8580771215,
			"-0.001": 14.6035573256,
			"0.0": 11.6217281454,
			"0.001": 14.2060897271,
			"0.002": 14.6788422494,
			"0.003": 13.7310191066,
			"0.004": 10.200697764,
			"0.005": 7.3543180212,
			"0.006": 9.23766976209,
			"0.007": 14.1337013786,
			"0.008": 8.20610574142,
			"0.009": 3.68041928702,
			"0.01": 0.0962440526969,
			"0.011": 0.0,
			"0.012": 0.0,
			"0.013": 0.0,
			"0.014": 0.0,
			"0.015": 0.0,
			"0.016": 0.0,
			"0.017": 0.0,
			"0.018": 0.0,
			"0.019": 0.0,
			"0.02": 0.0,
			"0.021": 0.0,
			"0.022": 0.0,
			"0.023": 0.0,
			"0.024": 0.0,
			"0.025": 0.0
		}
	}
}
