{
	 "smiles": "CC1CNC(=O)N1C1=CC(N)=CC=C1", 
	 "Tm": 443.15, 
	 "num_atms": 27, 
	 "gaussian": { 
		 "optdone": 1, 
		 "sigma_profile": "yes", 
		 "theory": "DFT", 
		 "functional": "B3LYP", 
		 "basiset": "6-31G**", 
		 "properties": { 
			 "R2extent": 3338.5622, 
			 "electric_dipole_moment_norm": 2.76865917187, 
			 "electric_quadrupole_moment_norm": 14.5160369571, 
			 "total_energy": -628.409448278, 
			 "HOMO_LUMO_gap": 0.20016, 
			 "cosmo_polarized_energy": -16.31, 
			 "cosmo_cavitation_energy": 29.13, 
			 "cosmo_dispersion_energy": -21.66, 
			 "cosmo_repulsion_energy": 1.7, 
			 "cosmo_total_nonelectrostatic_energy": 9.17, 
			 "SMD_solvation_energy": 4.39 
		},
		"coords": [
			{
				"x": 1.117086975,
				"y": 0.0263783486,
				"z": 2.5151406295,
				"element": "C" 
			},
			{
				"x": 0.1256784523,
				"y": 0.596313316,
				"z": 1.4923822711,
				"element": "C" 
			},
			{
				"x": -1.1827109133,
				"y": 1.0885761961,
				"z": 2.1495238386,
				"element": "C" 
			},
			{
				"x": -2.0099359881,
				"y": -0.1028417543,
				"z": 2.0586364656,
				"element": "N" 
			},
			{
				"x": -1.6414448267,
				"y": -0.873900981,
				"z": 0.9614133431,
				"element": "C" 
			},
			{
				"x": -2.3214814794,
				"y": -1.765928236,
				"z": 0.4789049187,
				"element": "O" 
			},
			{
				"x": -0.3755982123,
				"y": -0.4339404795,
				"z": 0.5636388541,
				"element": "N" 
			},
			{
				"x": 0.4089523729,
				"y": -0.9713874128,
				"z": -0.4847173538,
				"element": "C" 
			},
			{
				"x": -0.0404194649,
				"y": -2.0638413012,
				"z": -1.2414129011,
				"element": "C" 
			},
			{
				"x": 0.7380479425,
				"y": -2.5746238703,
				"z": -2.2900096425,
				"element": "C" 
			},
			{
				"x": 0.2455516848,
				"y": -3.6233902649,
				"z": -3.0691690969,
				"element": "N" 
			},
			{
				"x": 1.9839479735,
				"y": -1.9939486676,
				"z": -2.58322169,
				"element": "C" 
			},
			{
				"x": 2.4224461849,
				"y": -0.9133056625,
				"z": -1.8275803602,
				"element": "C" 
			},
			{
				"x": 1.6569519598,
				"y": -0.3919998267,
				"z": -0.7850620234,
				"element": "C" 
			},
			{
				"x": 0.6221584993,
				"y": -0.7190065897,
				"z": 3.1450231293,
				"element": "H" 
			},
			{
				"x": 1.9644005205,
				"y": -0.4514945387,
				"z": 2.0181300709,
				"element": "H" 
			},
			{
				"x": 1.5008926483,
				"y": 0.8258027607,
				"z": 3.1581236696,
				"element": "H" 
			},
			{
				"x": 0.58836888,
				"y": 1.4102437331,
				"z": 0.9275869121,
				"element": "H" 
			},
			{
				"x": -1.0203671608,
				"y": 1.3968546369,
				"z": 3.1866546438,
				"element": "H" 
			},
			{
				"x": -1.6092340502,
				"y": 1.9375317917,
				"z": 1.5949745903,
				"element": "H" 
			},
			{
				"x": -3.0022769534,
				"y": -0.065999923,
				"z": 2.242236367,
				"element": "H" 
			},
			{
				"x": -1.0012954055,
				"y": -2.5040364405,
				"z": -1.0132021215,
				"element": "H" 
			},
			{
				"x": 0.9490436085,
				"y": -4.1905649203,
				"z": -3.5213195156,
				"element": "H" 
			},
			{
				"x": -0.4693623703,
				"y": -4.1845234978,
				"z": -2.6270666896,
				"element": "H" 
			},
			{
				"x": 2.5896667148,
				"y": -2.3843336555,
				"z": -3.3966106456,
				"element": "H" 
			},
			{
				"x": 3.3850248475,
				"y": -0.461110762,
				"z": -2.0507201204,
				"element": "H" 
			},
			{
				"x": 2.0364075605,
				"y": 0.4525780013,
				"z": -0.2247775434,
				"element": "H" 
			}
		],
		 "valence_orbital": [ 
			{
				"type": "occ",
				"energy": -0.2734,
				"method": "rhf"
			},
			{
				"type": "occ",
				"energy": -0.26128,
				"method": "rhf"
			},
			{
				"type": "occ",
				"energy": -0.24955,
				"method": "rhf"
			},
			{
				"type": "occ",
				"energy": -0.20741,
				"method": "rhf"
			},
			{
				"type": "occ",
				"energy": -0.19031,
				"method": "rhf"
			},
			{
				"type": "unocc",
				"energy": 0.00985,
				"method": "rhf"
			},
			{
				"type": "unocc",
				"energy": 0.02432,
				"method": "rhf"
			},
			{
				"type": "unocc",
				"energy": 0.06669,
				"method": "rhf"
			},
			{
				"type": "unocc",
				"energy": 0.07962,
				"method": "rhf"
			},
			{
				"type": "unocc",
				"energy": 0.09186,
				"method": "rhf"
			}
		],
		"cosmo_sigma_profile": { 
			"-0.025": 0.0,
			"-0.024": 0.0,
			"-0.023": 0.0,
			"-0.022": 0.0,
			"-0.021": 0.0,
			"-0.02": 0.0,
			"-0.019": 0.0,
			"-0.018": 0.0,
			"-0.017": 0.0,
			"-0.016": 0.0,
			"-0.015": 0.0,
			"-0.014": 0.885232170489,
			"-0.013": 1.05174540066,
			"-0.012": 2.93993876216,
			"-0.011": 3.87049354897,
			"-0.01": 3.67047153384,
			"-0.009": 3.86775414518,
			"-0.008": 3.37808117014,
			"-0.007": 4.42883054729,
			"-0.006": 8.99307028589,
			"-0.005": 18.1198495396,
			"-0.004": 20.9386748766,
			"-0.003": 19.3803972649,
			"-0.002": 15.643702429,
			"-0.001": 13.1879569553,
			"0.0": 13.1200523402,
			"0.001": 12.0461944826,
			"0.002": 8.17291141646,
			"0.003": 8.43486563755,
			"0.004": 9.24416433113,
			"0.005": 11.1566775378,
			"0.006": 12.369924565,
			"0.007": 11.4361855575,
			"0.008": 4.15145560332,
			"0.009": 3.81531710968,
			"0.01": 2.08759790548,
			"0.011": 1.96476354806,
			"0.012": 2.98550578668,
			"0.013": 4.53691796395,
			"0.014": 3.34181018451,
			"0.015": 0.540683648955,
			"0.016": 0.0,
			"0.017": 0.0,
			"0.018": 0.0,
			"0.019": 0.0,
			"0.02": 0.0,
			"0.021": 0.0,
			"0.022": 0.0,
			"0.023": 0.0,
			"0.024": 0.0,
			"0.025": 0.0
		}
	}
}
