{
	 "smiles": "CCC=CCC", 
	 "Tm": 159.15, 
	 "num_atms": 18, 
	 "gaussian": { 
		 "optdone": 1, 
		 "sigma_profile": "yes", 
		 "theory": "DFT", 
		 "functional": "B3LYP", 
		 "basiset": "6-31G**", 
		 "properties": { 
			 "R2extent": 956.6122, 
			 "electric_dipole_moment_norm": 0.0, 
			 "electric_quadrupole_moment_norm": 1.44747512932, 
			 "total_energy": -235.864494779, 
			 "HOMO_LUMO_gap": 0.27305, 
			 "cosmo_polarized_energy": -1.34, 
			 "cosmo_cavitation_energy": 19.95, 
			 "cosmo_dispersion_energy": -14.74, 
			 "cosmo_repulsion_energy": 1.3, 
			 "cosmo_total_nonelectrostatic_energy": 6.5, 
			 "SMD_solvation_energy": 3.57 
		},
		"coords": [
			{
				"x": 1.1175143959,
				"y": -1.8285964071,
				"z": -1.7024484055,
				"element": "C" 
			},
			{
				"x": 0.9192649375,
				"y": -1.9516059367,
				"z": -0.1898455483,
				"element": "C" 
			},
			{
				"x": 0.0890962502,
				"y": -0.8724180123,
				"z": 0.462575119,
				"element": "C" 
			},
			{
				"x": -0.483528948,
				"y": 0.1694528447,
				"z": -0.1464939578,
				"element": "C" 
			},
			{
				"x": -1.3136888508,
				"y": 1.2486342322,
				"z": 0.505933236,
				"element": "C" 
			},
			{
				"x": -1.5119298469,
				"y": 1.1256064221,
				"z": 2.0185385596,
				"element": "C" 
			},
			{
				"x": 0.1604659094,
				"y": -1.8529114423,
				"z": -2.2340927969,
				"element": "H" 
			},
			{
				"x": 1.6211084745,
				"y": -0.892186259,
				"z": -1.9645928459,
				"element": "H" 
			},
			{
				"x": 1.7297952519,
				"y": -2.6536610754,
				"z": -2.0796705323,
				"element": "H" 
			},
			{
				"x": 1.9021983192,
				"y": -1.9804785149,
				"z": 0.3038354128,
				"element": "H" 
			},
			{
				"x": 0.4633977788,
				"y": -2.9267289535,
				"z": 0.038267521,
				"element": "H" 
			},
			{
				"x": -0.0346896,
				"y": -0.9866776776,
				"z": 1.5394838279,
				"element": "H" 
			},
			{
				"x": -0.3597418398,
				"y": 0.2837131498,
				"z": -1.2234015779,
				"element": "H" 
			},
			{
				"x": -2.2966273284,
				"y": 1.2775183062,
				"z": 0.0122604813,
				"element": "H" 
			},
			{
				"x": -0.8578255933,
				"y": 2.2237632814,
				"z": 0.2778311997,
				"element": "H" 
			},
			{
				"x": -2.0155206525,
				"y": 0.1891920397,
				"z": 2.2806757176,
				"element": "H" 
			},
			{
				"x": -0.5548785089,
				"y": 1.1499154102,
				"z": 2.5501784269,
				"element": "H" 
			},
			{
				"x": -2.1242101486,
				"y": 1.9506685926,
				"z": 2.3957661627,
				"element": "H" 
			}
		],
		 "valence_orbital": [ 
			{
				"type": "occ",
				"energy": -0.34952,
				"method": "rhf"
			},
			{
				"type": "occ",
				"energy": -0.34467,
				"method": "rhf"
			},
			{
				"type": "occ",
				"energy": -0.32922,
				"method": "rhf"
			},
			{
				"type": "occ",
				"energy": -0.31988,
				"method": "rhf"
			},
			{
				"type": "occ",
				"energy": -0.23331,
				"method": "rhf"
			},
			{
				"type": "unocc",
				"energy": 0.03974,
				"method": "rhf"
			},
			{
				"type": "unocc",
				"energy": 0.10301,
				"method": "rhf"
			},
			{
				"type": "unocc",
				"energy": 0.11255,
				"method": "rhf"
			},
			{
				"type": "unocc",
				"energy": 0.12005,
				"method": "rhf"
			},
			{
				"type": "unocc",
				"energy": 0.15624,
				"method": "rhf"
			}
		],
		"cosmo_sigma_profile": { 
			"-0.025": 0.0,
			"-0.024": 0.0,
			"-0.023": 0.0,
			"-0.022": 0.0,
			"-0.021": 0.0,
			"-0.02": 0.0,
			"-0.019": 0.0,
			"-0.018": 0.0,
			"-0.017": 0.0,
			"-0.016": 0.0,
			"-0.015": 0.0,
			"-0.014": 0.0,
			"-0.013": 0.0,
			"-0.012": 0.0,
			"-0.011": 0.0,
			"-0.01": 0.0,
			"-0.009": 0.0,
			"-0.008": 0.0,
			"-0.007": 0.0,
			"-0.006": 0.0,
			"-0.005": 0.0,
			"-0.004": 0.405787198954,
			"-0.003": 13.3455317888,
			"-0.002": 26.3269919313,
			"-0.001": 30.701866352,
			"0.0": 32.1800031138,
			"0.001": 24.6876326415,
			"0.002": 10.9562991284,
			"0.003": 4.06755448951,
			"0.004": 3.4093440573,
			"0.005": 2.83274575251,
			"0.006": 2.30334045389,
			"0.007": 2.13394814865,
			"0.008": 1.19953419964,
			"0.009": 0.00616113374904,
			"0.01": 0.0,
			"0.011": 0.0,
			"0.012": 0.0,
			"0.013": 0.0,
			"0.014": 0.0,
			"0.015": 0.0,
			"0.016": 0.0,
			"0.017": 0.0,
			"0.018": 0.0,
			"0.019": 0.0,
			"0.02": 0.0,
			"0.021": 0.0,
			"0.022": 0.0,
			"0.023": 0.0,
			"0.024": 0.0,
			"0.025": 0.0
		}
	}
}
