{
	 "smiles": "CC(=O)C1=CC(O)=CC=C1", 
	 "Tm": 369.15, 
	 "num_atms": 18, 
	 "gaussian": { 
		 "optdone": 1, 
		 "sigma_profile": "yes", 
		 "theory": "DFT", 
		 "functional": "B3LYP", 
		 "basiset": "6-31G**", 
		 "properties": { 
			 "R2extent": 1805.7609, 
			 "electric_dipole_moment_norm": 3.061420404, 
			 "electric_quadrupole_moment_norm": 10.449396218, 
			 "total_energy": -460.118938465, 
			 "HOMO_LUMO_gap": 0.17551, 
			 "cosmo_polarized_energy": -12.64, 
			 "cosmo_cavitation_energy": 22.2, 
			 "cosmo_dispersion_energy": -16.36, 
			 "cosmo_repulsion_energy": 1.32, 
			 "cosmo_total_nonelectrostatic_energy": 7.16, 
			 "SMD_solvation_energy": 4.92 
		},
		"coords": [
			{
				"x": 0.485769916,
				"y": 2.5590978318,
				"z": 0.0415577418,
				"element": "C" 
			},
			{
				"x": -0.5466315449,
				"y": 1.8429797461,
				"z": -0.8145414591,
				"element": "C" 
			},
			{
				"x": -1.4675517854,
				"y": 2.4651242986,
				"z": -1.3213538223,
				"element": "O" 
			},
			{
				"x": -0.4158758827,
				"y": 0.3628040818,
				"z": -1.0262421715,
				"element": "C" 
			},
			{
				"x": 0.6279348882,
				"y": -0.3850634248,
				"z": -0.4599247565,
				"element": "C" 
			},
			{
				"x": 0.7083670068,
				"y": -1.7615984144,
				"z": -0.6852129222,
				"element": "C" 
			},
			{
				"x": 1.7013205769,
				"y": -2.5392031976,
				"z": -0.1600528319,
				"element": "O" 
			},
			{
				"x": -0.2537581723,
				"y": -2.3987553418,
				"z": -1.4776435095,
				"element": "C" 
			},
			{
				"x": -1.2890855191,
				"y": -1.6526240552,
				"z": -2.0384379003,
				"element": "C" 
			},
			{
				"x": -1.3767894777,
				"y": -0.2794621844,
				"z": -1.8188718248,
				"element": "C" 
			},
			{
				"x": 0.5051618503,
				"y": 2.1518765564,
				"z": 1.0586073002,
				"element": "H" 
			},
			{
				"x": 0.2296006094,
				"y": 3.6180254049,
				"z": 0.0817328589,
				"element": "H" 
			},
			{
				"x": 1.4920096162,
				"y": 2.4451306537,
				"z": -0.3769014151,
				"element": "H" 
			},
			{
				"x": 1.3814053739,
				"y": 0.0974774014,
				"z": 0.1573358229,
				"element": "H" 
			},
			{
				"x": 2.297214297,
				"y": -1.987247573,
				"z": 0.3626851457,
				"element": "H" 
			},
			{
				"x": -0.171918424,
				"y": -3.4685594513,
				"z": -1.6394202469,
				"element": "H" 
			},
			{
				"x": -2.0328902225,
				"y": -2.1520603247,
				"z": -2.6524163729,
				"element": "H" 
			},
			{
				"x": -2.1745831063,
				"y": 0.3166579926,
				"z": -2.2466996365,
				"element": "H" 
			}
		],
		 "valence_orbital": [ 
			{
				"type": "occ",
				"energy": -0.35598,
				"method": "rhf"
			},
			{
				"type": "occ",
				"energy": -0.33349,
				"method": "rhf"
			},
			{
				"type": "occ",
				"energy": -0.26283,
				"method": "rhf"
			},
			{
				"type": "occ",
				"energy": -0.24832,
				"method": "rhf"
			},
			{
				"type": "occ",
				"energy": -0.23091,
				"method": "rhf"
			},
			{
				"type": "unocc",
				"energy": -0.0554,
				"method": "rhf"
			},
			{
				"type": "unocc",
				"energy": 0.00057,
				"method": "rhf"
			},
			{
				"type": "unocc",
				"energy": 0.04385,
				"method": "rhf"
			},
			{
				"type": "unocc",
				"energy": 0.06069,
				"method": "rhf"
			},
			{
				"type": "unocc",
				"energy": 0.0888,
				"method": "rhf"
			}
		],
		"cosmo_sigma_profile": { 
			"-0.025": 0.0,
			"-0.024": 0.0,
			"-0.023": 0.0,
			"-0.022": 0.0,
			"-0.021": 0.0,
			"-0.02": 0.0,
			"-0.019": 0.0312758479468,
			"-0.018": 0.754777344307,
			"-0.017": 1.15852081836,
			"-0.016": 0.891881485755,
			"-0.015": 1.56098563154,
			"-0.014": 0.659313425431,
			"-0.013": 0.597220778818,
			"-0.012": 0.613784216424,
			"-0.011": 1.50875477978,
			"-0.01": 1.78848847982,
			"-0.009": 1.09120017396,
			"-0.008": 0.998293930307,
			"-0.007": 2.82467508002,
			"-0.006": 12.172313224,
			"-0.005": 12.5092078873,
			"-0.004": 12.6375011317,
			"-0.003": 10.5231155542,
			"-0.002": 10.7917329494,
			"-0.001": 13.1706487907,
			"0.0": 8.64847890299,
			"0.001": 8.98850875626,
			"0.002": 10.7564956613,
			"0.003": 15.3720229714,
			"0.004": 14.0993235361,
			"0.005": 5.16003905919,
			"0.006": 3.31268292597,
			"0.007": 3.59043365786,
			"0.008": 3.17197822509,
			"0.009": 2.42947017726,
			"0.01": 3.85607969111,
			"0.011": 5.00690400713,
			"0.012": 4.32922924104,
			"0.013": 1.49974618298,
			"0.014": 0.183457241626,
			"0.015": 0.0,
			"0.016": 0.0,
			"0.017": 0.0,
			"0.018": 0.0,
			"0.019": 0.0,
			"0.02": 0.0,
			"0.021": 0.0,
			"0.022": 0.0,
			"0.023": 0.0,
			"0.024": 0.0,
			"0.025": 0.0
		}
	}
}
