{
	 "smiles": "CCOC(=O)C1=CC2=C(S1)C=CC(N)=C2", 
	 "Tm": 363.15, 
	 "num_atms": 26, 
	 "gaussian": { 
		 "optdone": 1, 
		 "sigma_profile": "yes", 
		 "theory": "DFT", 
		 "functional": "B3LYP", 
		 "basiset": "6-31G**", 
		 "properties": { 
			 "R2extent": 5088.3662, 
			 "electric_dipole_moment_norm": 4.28464973364, 
			 "electric_quadrupole_moment_norm": 22.6235044922, 
			 "total_energy": -1029.20906989, 
			 "HOMO_LUMO_gap": 0.14483, 
			 "cosmo_polarized_energy": -13.89, 
			 "cosmo_cavitation_energy": 32.15, 
			 "cosmo_dispersion_energy": -24.04, 
			 "cosmo_repulsion_energy": 1.85, 
			 "cosmo_total_nonelectrostatic_energy": 9.97, 
			 "SMD_solvation_energy": 5.97 
		},
		"coords": [
			{
				"x": 4.9033566826,
				"y": -0.6429059511,
				"z": 1.1656087896,
				"element": "C" 
			},
			{
				"x": 3.7145850876,
				"y": -1.0325595799,
				"z": 2.0233040098,
				"element": "C" 
			},
			{
				"x": 2.52329307,
				"y": -0.833034583,
				"z": 1.2288473761,
				"element": "O" 
			},
			{
				"x": 1.3565160593,
				"y": -1.1332130035,
				"z": 1.8430076732,
				"element": "C" 
			},
			{
				"x": 1.2771848818,
				"y": -1.5465556206,
				"z": 2.9851113345,
				"element": "O" 
			},
			{
				"x": 0.198641031,
				"y": -0.9000433106,
				"z": 0.9646128279,
				"element": "C" 
			},
			{
				"x": 0.1814505255,
				"y": -0.4413099282,
				"z": -0.3234545552,
				"element": "C" 
			},
			{
				"x": -1.1420562594,
				"y": -0.3383045697,
				"z": -0.8651875916,
				"element": "C" 
			},
			{
				"x": -2.1217103021,
				"y": -0.7422063048,
				"z": 0.0779335707,
				"element": "C" 
			},
			{
				"x": -1.4037298484,
				"y": -1.2367597772,
				"z": 1.599621397,
				"element": "S" 
			},
			{
				"x": -3.4804586514,
				"y": -0.717092951,
				"z": -0.2569449057,
				"element": "C" 
			},
			{
				"x": -3.852912981,
				"y": -0.2917096206,
				"z": -1.522288191,
				"element": "C" 
			},
			{
				"x": -2.8917252057,
				"y": 0.1144221146,
				"z": -2.483467075,
				"element": "C" 
			},
			{
				"x": -3.3197388044,
				"y": 0.5899272981,
				"z": -3.7270438467,
				"element": "N" 
			},
			{
				"x": -1.5388033231,
				"y": 0.086680055,
				"z": -2.1469015959,
				"element": "C" 
			},
			{
				"x": 5.8297417665,
				"y": -0.7796565278,
				"z": 1.7320912158,
				"element": "H" 
			},
			{
				"x": 4.9562875531,
				"y": -1.2620072765,
				"z": 0.2653576973,
				"element": "H" 
			},
			{
				"x": 4.8387497787,
				"y": 0.4054118852,
				"z": 0.8600521398,
				"element": "H" 
			},
			{
				"x": 3.6419106994,
				"y": -0.4217108704,
				"z": 2.9287028072,
				"element": "H" 
			},
			{
				"x": 3.7586900108,
				"y": -2.0802940974,
				"z": 2.3371642212,
				"element": "H" 
			},
			{
				"x": 1.0851350902,
				"y": -0.1857538608,
				"z": -0.8634351015,
				"element": "H" 
			},
			{
				"x": -4.2375407756,
				"y": -1.0247182741,
				"z": 0.4578051702,
				"element": "H" 
			},
			{
				"x": -4.9066684284,
				"y": -0.2608005042,
				"z": -1.7875671495,
				"element": "H" 
			},
			{
				"x": -4.2092051822,
				"y": 0.2253259571,
				"z": -4.0396901008,
				"element": "H" 
			},
			{
				"x": -2.6245394488,
				"y": 0.5504086167,
				"z": -4.4598450132,
				"element": "H" 
			},
			{
				"x": -0.7889530262,
				"y": 0.3970606847,
				"z": -2.8702951042,
				"element": "H" 
			}
		],
		 "valence_orbital": [ 
			{
				"type": "occ",
				"energy": -0.29467,
				"method": "rhf"
			},
			{
				"type": "occ",
				"energy": -0.275,
				"method": "rhf"
			},
			{
				"type": "occ",
				"energy": -0.27177,
				"method": "rhf"
			},
			{
				"type": "occ",
				"energy": -0.22403,
				"method": "rhf"
			},
			{
				"type": "occ",
				"energy": -0.19982,
				"method": "rhf"
			},
			{
				"type": "unocc",
				"energy": -0.05499,
				"method": "rhf"
			},
			{
				"type": "unocc",
				"energy": 0.00677,
				"method": "rhf"
			},
			{
				"type": "unocc",
				"energy": 0.02733,
				"method": "rhf"
			},
			{
				"type": "unocc",
				"energy": 0.02812,
				"method": "rhf"
			},
			{
				"type": "unocc",
				"energy": 0.07552,
				"method": "rhf"
			}
		],
		"cosmo_sigma_profile": { 
			"-0.025": 0.0,
			"-0.024": 0.0,
			"-0.023": 0.0,
			"-0.022": 0.0,
			"-0.021": 0.0,
			"-0.02": 0.0,
			"-0.019": 0.0,
			"-0.018": 0.0,
			"-0.017": 0.0,
			"-0.016": 0.0,
			"-0.015": 0.0,
			"-0.014": 0.0,
			"-0.013": 0.254607545202,
			"-0.012": 2.71711451394,
			"-0.011": 2.81047904095,
			"-0.01": 3.53962397825,
			"-0.009": 3.75409190818,
			"-0.008": 2.73492912101,
			"-0.007": 7.87546877296,
			"-0.006": 10.229357163,
			"-0.005": 14.2760213481,
			"-0.004": 19.8876093431,
			"-0.003": 18.7272640247,
			"-0.002": 17.6626051405,
			"-0.001": 16.8727082412,
			"0.0": 16.5648797234,
			"0.001": 13.9260609683,
			"0.002": 21.4326849568,
			"0.003": 20.1647196162,
			"0.004": 21.2677324053,
			"0.005": 17.2002141585,
			"0.006": 5.1733036633,
			"0.007": 2.55179469841,
			"0.008": 2.42770029915,
			"0.009": 2.63456664003,
			"0.01": 2.56551971362,
			"0.011": 3.94978793112,
			"0.012": 4.86831918813,
			"0.013": 0.964266214574,
			"0.014": 0.583327778989,
			"0.015": 0.191992750192,
			"0.016": 0.0,
			"0.017": 0.0,
			"0.018": 0.0,
			"0.019": 0.0,
			"0.02": 0.0,
			"0.021": 0.0,
			"0.022": 0.0,
			"0.023": 0.0,
			"0.024": 0.0,
			"0.025": 0.0
		}
	}
}
