{
	 "smiles": "CNC(=O)ON=CC(C)(C)SC", 
	 "Tm": 372.15, 
	 "num_atms": 26, 
	 "gaussian": { 
		 "optdone": 1, 
		 "sigma_profile": "yes", 
		 "theory": "DFT", 
		 "functional": "B3LYP", 
		 "basiset": "6-31G**", 
		 "properties": { 
			 "R2extent": 3796.0489, 
			 "electric_dipole_moment_norm": 3.43703280316, 
			 "electric_quadrupole_moment_norm": 22.7271699384, 
			 "total_energy": -933.279752079, 
			 "HOMO_LUMO_gap": 0.20417, 
			 "cosmo_polarized_energy": -16.67, 
			 "cosmo_cavitation_energy": 31.23, 
			 "cosmo_dispersion_energy": -22.29, 
			 "cosmo_repulsion_energy": 1.79, 
			 "cosmo_total_nonelectrostatic_energy": 10.73, 
			 "SMD_solvation_energy": 6.42 
		},
		"coords": [
			{
				"x": -3.8926929036,
				"y": 2.0817625995,
				"z": 1.1652229059,
				"element": "C" 
			},
			{
				"x": -2.7902018509,
				"y": 2.4828099927,
				"z": 2.0249317513,
				"element": "N" 
			},
			{
				"x": -1.4665035615,
				"y": 2.2174869361,
				"z": 1.8250012973,
				"element": "C" 
			},
			{
				"x": -0.5566382156,
				"y": 2.6317942883,
				"z": 2.5028819003,
				"element": "O" 
			},
			{
				"x": -1.342545443,
				"y": 1.3924223588,
				"z": 0.7147833003,
				"element": "O" 
			},
			{
				"x": -0.0115342105,
				"y": 0.9657985467,
				"z": 0.510911335,
				"element": "N" 
			},
			{
				"x": 0.060423484,
				"y": 0.30214589,
				"z": -0.5747798435,
				"element": "C" 
			},
			{
				"x": 1.3816312236,
				"y": -0.270432908,
				"z": -1.0311422362,
				"element": "C" 
			},
			{
				"x": 1.6515370088,
				"y": 0.230799608,
				"z": -2.4626985885,
				"element": "C" 
			},
			{
				"x": 2.5351080199,
				"y": 0.0879461791,
				"z": -0.0880722456,
				"element": "C" 
			},
			{
				"x": 1.0467875511,
				"y": -2.1214471171,
				"z": -1.0196755635,
				"element": "S" 
			},
			{
				"x": 2.4946728766,
				"y": -2.808188038,
				"z": -1.8964932709,
				"element": "C" 
			},
			{
				"x": -3.9042563324,
				"y": 2.6244799121,
				"z": 0.2115961826,
				"element": "H" 
			},
			{
				"x": -3.8409932634,
				"y": 1.0121477836,
				"z": 0.9509884204,
				"element": "H" 
			},
			{
				"x": -4.8296547306,
				"y": 2.2822898163,
				"z": 1.6894902424,
				"element": "H" 
			},
			{
				"x": -2.951504757,
				"y": 3.1634653725,
				"z": 2.7506166337,
				"element": "H" 
			},
			{
				"x": -0.8159662585,
				"y": 0.1337826432,
				"z": -1.2056578731,
				"element": "H" 
			},
			{
				"x": 0.8341120906,
				"y": -0.0299196731,
				"z": -3.1411445805,
				"element": "H" 
			},
			{
				"x": 2.5770839939,
				"y": -0.1954080949,
				"z": -2.8589904559,
				"element": "H" 
			},
			{
				"x": 1.7655366609,
				"y": 1.3205380707,
				"z": -2.4564341671,
				"element": "H" 
			},
			{
				"x": 2.3277614273,
				"y": -0.240346512,
				"z": 0.9310186427,
				"element": "H" 
			},
			{
				"x": 3.4640653254,
				"y": -0.3776025272,
				"z": -0.4298545644,
				"element": "H" 
			},
			{
				"x": 2.6845619376,
				"y": 1.1722767622,
				"z": -0.0688023762,
				"element": "H" 
			},
			{
				"x": 2.3867368455,
				"y": -3.8933713768,
				"z": -1.8284566217,
				"element": "H" 
			},
			{
				"x": 3.4332751405,
				"y": -2.524678869,
				"z": -1.4146208207,
				"element": "H" 
			},
			{
				"x": 2.513097941,
				"y": -2.5257516435,
				"z": -2.951219404,
				"element": "H" 
			}
		],
		 "valence_orbital": [ 
			{
				"type": "occ",
				"energy": -0.28748,
				"method": "rhf"
			},
			{
				"type": "occ",
				"energy": -0.27047,
				"method": "rhf"
			},
			{
				"type": "occ",
				"energy": -0.26574,
				"method": "rhf"
			},
			{
				"type": "occ",
				"energy": -0.25168,
				"method": "rhf"
			},
			{
				"type": "occ",
				"energy": -0.2247,
				"method": "rhf"
			},
			{
				"type": "unocc",
				"energy": -0.02053,
				"method": "rhf"
			},
			{
				"type": "unocc",
				"energy": 0.03436,
				"method": "rhf"
			},
			{
				"type": "unocc",
				"energy": 0.06007,
				"method": "rhf"
			},
			{
				"type": "unocc",
				"energy": 0.06611,
				"method": "rhf"
			},
			{
				"type": "unocc",
				"energy": 0.08266,
				"method": "rhf"
			}
		],
		"cosmo_sigma_profile": { 
			"-0.025": 0.0,
			"-0.024": 0.0,
			"-0.023": 0.0,
			"-0.022": 0.0,
			"-0.021": 0.0,
			"-0.02": 0.0,
			"-0.019": 0.0,
			"-0.018": 0.0,
			"-0.017": 0.0,
			"-0.016": 0.0,
			"-0.015": 0.152567450645,
			"-0.014": 1.30943181678,
			"-0.013": 1.17023204902,
			"-0.012": 0.977801170599,
			"-0.011": 1.05390188295,
			"-0.01": 0.775885527949,
			"-0.009": 0.867958287564,
			"-0.008": 2.81358787521,
			"-0.007": 3.54741321073,
			"-0.006": 8.76505206776,
			"-0.005": 16.9923868708,
			"-0.004": 24.9695962176,
			"-0.003": 25.0398576758,
			"-0.002": 28.34121106,
			"-0.001": 25.1611685608,
			"0.0": 19.6124036654,
			"0.001": 12.3614784343,
			"0.002": 11.0693183001,
			"0.003": 9.41917252707,
			"0.004": 7.75854084525,
			"0.005": 5.77908663343,
			"0.006": 5.18994974843,
			"0.007": 5.20714715346,
			"0.008": 3.46950929179,
			"0.009": 3.3328897042,
			"0.01": 3.17377028962,
			"0.011": 3.19686458435,
			"0.012": 3.27591177792,
			"0.013": 6.18085115251,
			"0.014": 2.16574627341,
			"0.015": 1.16782322575,
			"0.016": 1.24274215348,
			"0.017": 0.83017135977,
			"0.018": 0.0685533986477,
			"0.019": 0.0,
			"0.02": 0.0,
			"0.021": 0.0,
			"0.022": 0.0,
			"0.023": 0.0,
			"0.024": 0.0,
			"0.025": 0.0
		}
	}
}
