{
	 "smiles": "CN1C(=O)N2CCC3=C(C=CC=C3)C2(C1=O)C1=CC=C(Cl)C=C1", 
	 "Tm": 395.15, 
	 "num_atms": 38, 
	 "gaussian": { 
		 "optdone": 1, 
		 "sigma_profile": "yes", 
		 "theory": "DFT", 
		 "functional": "B3LYP", 
		 "basiset": "6-31G**", 
		 "properties": { 
			 "R2extent": 8038.785, 
			 "electric_dipole_moment_norm": 2.58654423121, 
			 "electric_quadrupole_moment_norm": 14.6607457051, 
			 "total_energy": -1415.14968254, 
			 "HOMO_LUMO_gap": 0.21479, 
			 "cosmo_polarized_energy": -13.79, 
			 "cosmo_cavitation_energy": 42.11, 
			 "cosmo_dispersion_energy": -29.06, 
			 "cosmo_repulsion_energy": 2.2, 
			 "cosmo_total_nonelectrostatic_energy": 15.26, 
			 "SMD_solvation_energy": 7.51 
		},
		"coords": [
			{
				"x": -1.049119614,
				"y": 4.0729244738,
				"z": 0.2419629308,
				"element": "C" 
			},
			{
				"x": -0.7003921306,
				"y": 2.6668885401,
				"z": 0.1325333976,
				"element": "N" 
			},
			{
				"x": -0.286723203,
				"y": 1.8832280781,
				"z": 1.2334787714,
				"element": "C" 
			},
			{
				"x": -0.1220493605,
				"y": 2.2933672714,
				"z": 2.3673450694,
				"element": "O" 
			},
			{
				"x": -0.1325842339,
				"y": 0.5993627217,
				"z": 0.7686829176,
				"element": "N" 
			},
			{
				"x": 0.6749501701,
				"y": -0.3823702189,
				"z": 1.474002864,
				"element": "C" 
			},
			{
				"x": 2.131013395,
				"y": -0.2804615309,
				"z": 1.0091960292,
				"element": "C" 
			},
			{
				"x": 2.2531365692,
				"y": -0.1305603499,
				"z": -0.49770279,
				"element": "C" 
			},
			{
				"x": 1.1732054468,
				"y": 0.2776084823,
				"z": -1.3032861804,
				"element": "C" 
			},
			{
				"x": 1.3600445741,
				"y": 0.4574089749,
				"z": -2.6828515789,
				"element": "C" 
			},
			{
				"x": 2.601838642,
				"y": 0.2292982819,
				"z": -3.2688382278,
				"element": "C" 
			},
			{
				"x": 3.6744093073,
				"y": -0.189105053,
				"z": -2.4776509446,
				"element": "C" 
			},
			{
				"x": 3.4942834915,
				"y": -0.3633795806,
				"z": -1.1087425614,
				"element": "C" 
			},
			{
				"x": -0.2149898722,
				"y": 0.5202120057,
				"z": -0.6949532798,
				"element": "C" 
			},
			{
				"x": -0.6966495681,
				"y": 1.9571788584,
				"z": -1.0447265165,
				"element": "C" 
			},
			{
				"x": -1.0106092483,
				"y": 2.3824891127,
				"z": -2.1385355598,
				"element": "O" 
			},
			{
				"x": -1.2750014845,
				"y": -0.5171832988,
				"z": -1.1079117117,
				"element": "C" 
			},
			{
				"x": -0.9762160578,
				"y": -1.6453076566,
				"z": -1.8761408252,
				"element": "C" 
			},
			{
				"x": -1.9637839307,
				"y": -2.5809784639,
				"z": -2.1954942944,
				"element": "C" 
			},
			{
				"x": -3.2633125274,
				"y": -2.3824568511,
				"z": -1.740284946,
				"element": "C" 
			},
			{
				"x": -4.5127627091,
				"y": -3.5516476896,
				"z": -2.1388207082,
				"element": "Cl" 
			},
			{
				"x": -3.5885602304,
				"y": -1.2662474871,
				"z": -0.9674365047,
				"element": "C" 
			},
			{
				"x": -2.5921706465,
				"y": -0.3471179823,
				"z": -0.6553100542,
				"element": "C" 
			},
			{
				"x": -2.1035253083,
				"y": 4.2282069814,
				"z": -0.0030649821,
				"element": "H" 
			},
			{
				"x": -0.8578677658,
				"y": 4.3760455221,
				"z": 1.2716387146,
				"element": "H" 
			},
			{
				"x": -0.4393084724,
				"y": 4.6645008423,
				"z": -0.445160833,
				"element": "H" 
			},
			{
				"x": 0.57923131,
				"y": -0.1890886616,
				"z": 2.5436844703,
				"element": "H" 
			},
			{
				"x": 0.2612503662,
				"y": -1.374413708,
				"z": 1.2629875923,
				"element": "H" 
			},
			{
				"x": 2.5912792917,
				"y": 0.5922882953,
				"z": 1.4918053478,
				"element": "H" 
			},
			{
				"x": 2.6983179018,
				"y": -1.1555595485,
				"z": 1.346832523,
				"element": "H" 
			},
			{
				"x": 0.5236850386,
				"y": 0.7955461238,
				"z": -3.2854287151,
				"element": "H" 
			},
			{
				"x": 2.7314755087,
				"y": 0.3789269664,
				"z": -4.3365387816,
				"element": "H" 
			},
			{
				"x": 4.6461312257,
				"y": -0.3765767303,
				"z": -2.9253133401,
				"element": "H" 
			},
			{
				"x": 4.3302312729,
				"y": -0.6829388334,
				"z": -0.4909440329,
				"element": "H" 
			},
			{
				"x": 0.0327654293,
				"y": -1.805738924,
				"z": -2.2372711436,
				"element": "H" 
			},
			{
				"x": -1.7221448124,
				"y": -3.4543201059,
				"z": -2.7910407316,
				"element": "H" 
			},
			{
				"x": -4.604625493,
				"y": -1.1230665748,
				"z": -0.617052571,
				"element": "H" 
			},
			{
				"x": -2.8465522719,
				"y": 0.512637717,
				"z": -0.0424488136,
				"element": "H" 
			}
		],
		 "valence_orbital": [ 
			{
				"type": "occ",
				"energy": -0.26943,
				"method": "rhf"
			},
			{
				"type": "occ",
				"energy": -0.26036,
				"method": "rhf"
			},
			{
				"type": "occ",
				"energy": -0.25369,
				"method": "rhf"
			},
			{
				"type": "occ",
				"energy": -0.25059,
				"method": "rhf"
			},
			{
				"type": "occ",
				"energy": -0.24387,
				"method": "rhf"
			},
			{
				"type": "unocc",
				"energy": -0.02908,
				"method": "rhf"
			},
			{
				"type": "unocc",
				"energy": -0.02668,
				"method": "rhf"
			},
			{
				"type": "unocc",
				"energy": -0.01737,
				"method": "rhf"
			},
			{
				"type": "unocc",
				"energy": -0.00907,
				"method": "rhf"
			},
			{
				"type": "unocc",
				"energy": -0.00164,
				"method": "rhf"
			}
		],
		"cosmo_sigma_profile": { 
			"-0.025": 0.0,
			"-0.024": 0.0,
			"-0.023": 0.0,
			"-0.022": 0.0,
			"-0.021": 0.0,
			"-0.02": 0.0,
			"-0.019": 0.0,
			"-0.018": 0.0,
			"-0.017": 0.0,
			"-0.016": 0.0,
			"-0.015": 0.0,
			"-0.014": 0.0,
			"-0.013": 0.0,
			"-0.012": 0.0,
			"-0.011": 0.0,
			"-0.01": 0.0,
			"-0.009": 0.0,
			"-0.008": 0.889127237814,
			"-0.007": 7.19125418275,
			"-0.006": 17.6014438854,
			"-0.005": 30.5331368851,
			"-0.004": 35.8606667325,
			"-0.003": 34.2839560816,
			"-0.002": 26.9809787287,
			"-0.001": 19.8547953211,
			"0.0": 19.8074654084,
			"0.001": 23.4090341877,
			"0.002": 24.5367642694,
			"0.003": 27.9314927508,
			"0.004": 22.0914996438,
			"0.005": 15.674575774,
			"0.006": 3.95514472131,
			"0.007": 2.03012197978,
			"0.008": 2.67038027121,
			"0.009": 4.08305925988,
			"0.01": 3.08000622919,
			"0.011": 5.59079141761,
			"0.012": 8.23172560181,
			"0.013": 2.01982272607,
			"0.014": 0.0,
			"0.015": 0.0,
			"0.016": 0.0,
			"0.017": 0.0,
			"0.018": 0.0,
			"0.019": 0.0,
			"0.02": 0.0,
			"0.021": 0.0,
			"0.022": 0.0,
			"0.023": 0.0,
			"0.024": 0.0,
			"0.025": 0.0
		}
	}
}
