{
	 "smiles": "NC1=CC=C2C(=C1)C(=O)C1=C2C=CC=C1", 
	 "Tm": 427.15, 
	 "num_atms": 24, 
	 "gaussian": { 
		 "optdone": 1, 
		 "sigma_profile": "yes", 
		 "theory": "DFT", 
		 "functional": "B3LYP", 
		 "basiset": "6-31G**", 
		 "properties": { 
			 "R2extent": 3794.132, 
			 "electric_dipole_moment_norm": 3.71942247802, 
			 "electric_quadrupole_moment_norm": 19.2019284854, 
			 "total_energy": -630.795624096, 
			 "HOMO_LUMO_gap": 0.12315, 
			 "cosmo_polarized_energy": -13.39, 
			 "cosmo_cavitation_energy": 28.57, 
			 "cosmo_dispersion_energy": -21.03, 
			 "cosmo_repulsion_energy": 1.6, 
			 "cosmo_total_nonelectrostatic_energy": 9.15, 
			 "SMD_solvation_energy": 4.87 
		},
		"coords": [
			{
				"x": -1.2087324316,
				"y": -1.476358555,
				"z": 4.6118243401,
				"element": "N" 
			},
			{
				"x": -0.8333922459,
				"y": -1.612559457,
				"z": 3.2783441072,
				"element": "C" 
			},
			{
				"x": -0.647980041,
				"y": -2.8883785632,
				"z": 2.7106559917,
				"element": "C" 
			},
			{
				"x": -0.2167317648,
				"y": -3.0502626954,
				"z": 1.3898339857,
				"element": "C" 
			},
			{
				"x": 0.0350610348,
				"y": -1.9235665022,
				"z": 0.6143285775,
				"element": "C" 
			},
			{
				"x": -0.151973087,
				"y": -0.64876522,
				"z": 1.184416833,
				"element": "C" 
			},
			{
				"x": -0.5759079252,
				"y": -0.471443889,
				"z": 2.4876163293,
				"element": "C" 
			},
			{
				"x": 0.1755763446,
				"y": 0.3966015038,
				"z": 0.1567823775,
				"element": "C" 
			},
			{
				"x": 0.1248607847,
				"y": 1.6071387753,
				"z": 0.2919397746,
				"element": "O" 
			},
			{
				"x": 0.5739245558,
				"y": -0.3726321869,
				"z": -1.0648070413,
				"element": "C" 
			},
			{
				"x": 0.4872707046,
				"y": -1.7539248791,
				"z": -0.7850174135,
				"element": "C" 
			},
			{
				"x": 0.8101164586,
				"y": -2.6778139115,
				"z": -1.7735549245,
				"element": "C" 
			},
			{
				"x": 1.2157557896,
				"y": -2.2024855354,
				"z": -3.0304339305,
				"element": "C" 
			},
			{
				"x": 1.2988478974,
				"y": -0.8333429709,
				"z": -3.2997226981,
				"element": "C" 
			},
			{
				"x": 0.9741385833,
				"y": 0.0997853458,
				"z": -2.3055039798,
				"element": "C" 
			},
			{
				"x": -1.6335670739,
				"y": -0.5938084235,
				"z": 4.8590432547,
				"element": "H" 
			},
			{
				"x": -1.69226455,
				"y": -2.2651608724,
				"z": 5.017262246,
				"element": "H" 
			},
			{
				"x": -0.8423093708,
				"y": -3.7673513654,
				"z": 3.320508478,
				"element": "H" 
			},
			{
				"x": -0.0878498502,
				"y": -4.0522050668,
				"z": 0.9896775624,
				"element": "H" 
			},
			{
				"x": -0.7039338951,
				"y": 0.5306169298,
				"z": 2.8891959379,
				"element": "H" 
			},
			{
				"x": 0.7533422404,
				"y": -3.7466142393,
				"z": -1.5873711635,
				"element": "H" 
			},
			{
				"x": 1.4704499307,
				"y": -2.9154968642,
				"z": -3.8098214885,
				"element": "H" 
			},
			{
				"x": 1.6159526575,
				"y": -0.4949992253,
				"z": -4.2815333368,
				"element": "H" 
			},
			{
				"x": 1.0303452536,
				"y": 1.1689278678,
				"z": -2.488663819,
				"element": "H" 
			}
		],
		 "valence_orbital": [ 
			{
				"type": "occ",
				"energy": -0.26261,
				"method": "rhf"
			},
			{
				"type": "occ",
				"energy": -0.25907,
				"method": "rhf"
			},
			{
				"type": "occ",
				"energy": -0.25393,
				"method": "rhf"
			},
			{
				"type": "occ",
				"energy": -0.24379,
				"method": "rhf"
			},
			{
				"type": "occ",
				"energy": -0.1984,
				"method": "rhf"
			},
			{
				"type": "unocc",
				"energy": -0.07525,
				"method": "rhf"
			},
			{
				"type": "unocc",
				"energy": -0.02699,
				"method": "rhf"
			},
			{
				"type": "unocc",
				"energy": 0.00337,
				"method": "rhf"
			},
			{
				"type": "unocc",
				"energy": 0.04069,
				"method": "rhf"
			},
			{
				"type": "unocc",
				"energy": 0.06628,
				"method": "rhf"
			}
		],
		"cosmo_sigma_profile": { 
			"-0.025": 0.0,
			"-0.024": 0.0,
			"-0.023": 0.0,
			"-0.022": 0.0,
			"-0.021": 0.0,
			"-0.02": 0.0,
			"-0.019": 0.0,
			"-0.018": 0.0,
			"-0.017": 0.0,
			"-0.016": 0.0,
			"-0.015": 0.0,
			"-0.014": 0.0,
			"-0.013": 1.68577059518,
			"-0.012": 2.75525064717,
			"-0.011": 3.05400063393,
			"-0.01": 3.38422850598,
			"-0.009": 3.43106618044,
			"-0.008": 2.60198025933,
			"-0.007": 6.08189389761,
			"-0.006": 14.7808797331,
			"-0.005": 13.5332609676,
			"-0.004": 15.6971755176,
			"-0.003": 10.0736666365,
			"-0.002": 11.6958190839,
			"-0.001": 12.446474092,
			"0.0": 12.2997367978,
			"0.001": 17.0450180067,
			"0.002": 19.8446782464,
			"0.003": 20.007687838,
			"0.004": 25.021261018,
			"0.005": 9.97642588756,
			"0.006": 2.71780822578,
			"0.007": 2.55256721414,
			"0.008": 2.87881692625,
			"0.009": 2.1391140938,
			"0.01": 3.58999100646,
			"0.011": 4.1548111339,
			"0.012": 4.51478385187,
			"0.013": 1.47102596648,
			"0.014": 0.05500259774,
			"0.015": 0.0,
			"0.016": 0.0,
			"0.017": 0.0,
			"0.018": 0.0,
			"0.019": 0.0,
			"0.02": 0.0,
			"0.021": 0.0,
			"0.022": 0.0,
			"0.023": 0.0,
			"0.024": 0.0,
			"0.025": 0.0
		}
	}
}
