{
	 "smiles": "COC1=CC=CC=C1N", 
	 "Tm": 278.75, 
	 "num_atms": 18, 
	 "gaussian": { 
		 "optdone": 1, 
		 "sigma_profile": "yes", 
		 "theory": "DFT", 
		 "functional": "B3LYP", 
		 "basiset": "6-31G**", 
		 "properties": { 
			 "R2extent": 1620.4035, 
			 "electric_dipole_moment_norm": 1.09303734611, 
			 "electric_quadrupole_moment_norm": 7.37719284484, 
			 "total_energy": -402.130864257, 
			 "HOMO_LUMO_gap": 0.20632, 
			 "cosmo_polarized_energy": -7.75, 
			 "cosmo_cavitation_energy": 21.3, 
			 "cosmo_dispersion_energy": -15.8, 
			 "cosmo_repulsion_energy": 1.3, 
			 "cosmo_total_nonelectrostatic_energy": 6.81, 
			 "SMD_solvation_energy": 4.36 
		},
		"coords": [
			{
				"x": 2.4596716081,
				"y": 0.8095802108,
				"z": -0.3218138382,
				"element": "C" 
			},
			{
				"x": 2.0505810097,
				"y": -0.5595581923,
				"z": -0.2634836983,
				"element": "O" 
			},
			{
				"x": 1.1958646513,
				"y": -0.8441149436,
				"z": 0.7922857639,
				"element": "C" 
			},
			{
				"x": 1.6952148698,
				"y": -1.2079025596,
				"z": 2.0384196489,
				"element": "C" 
			},
			{
				"x": 0.8219102187,
				"y": -1.531400423,
				"z": 3.0804068455,
				"element": "C" 
			},
			{
				"x": -0.5547503468,
				"y": -1.4857889096,
				"z": 2.8545186463,
				"element": "C" 
			},
			{
				"x": -1.0590325916,
				"y": -1.1286988517,
				"z": 1.6037367844,
				"element": "C" 
			},
			{
				"x": -0.1928602462,
				"y": -0.7992098627,
				"z": 0.5506862276,
				"element": "C" 
			},
			{
				"x": -0.6505669363,
				"y": -0.3933994313,
				"z": -0.7041727442,
				"element": "N" 
			},
			{
				"x": 1.5981071295,
				"y": 1.4790715015,
				"z": -0.4366470656,
				"element": "H" 
			},
			{
				"x": 3.0151594029,
				"y": 1.0952787574,
				"z": 0.5802711754,
				"element": "H" 
			},
			{
				"x": 3.1134909185,
				"y": 0.9045277577,
				"z": -1.1920680494,
				"element": "H" 
			},
			{
				"x": 2.7723394969,
				"y": -1.2470732483,
				"z": 2.1728633583,
				"element": "H" 
			},
			{
				"x": 1.213253831,
				"y": -1.8179442126,
				"z": 4.0514162419,
				"element": "H" 
			},
			{
				"x": -1.2460842353,
				"y": -1.7374234107,
				"z": 3.6538228583,
				"element": "H" 
			},
			{
				"x": -2.1330097627,
				"y": -1.0992102913,
				"z": 1.4354293957,
				"element": "H" 
			},
			{
				"x": 0.0288143013,
				"y": -0.5570880501,
				"z": -1.4368061151,
				"element": "H" 
			},
			{
				"x": -1.570803319,
				"y": -0.7333458406,
				"z": -0.9483654354,
				"element": "H" 
			}
		],
		 "valence_orbital": [ 
			{
				"type": "occ",
				"energy": -0.33294,
				"method": "rhf"
			},
			{
				"type": "occ",
				"energy": -0.30336,
				"method": "rhf"
			},
			{
				"type": "occ",
				"energy": -0.26908,
				"method": "rhf"
			},
			{
				"type": "occ",
				"energy": -0.23535,
				"method": "rhf"
			},
			{
				"type": "occ",
				"energy": -0.19701,
				"method": "rhf"
			},
			{
				"type": "unocc",
				"energy": 0.00931,
				"method": "rhf"
			},
			{
				"type": "unocc",
				"energy": 0.0224,
				"method": "rhf"
			},
			{
				"type": "unocc",
				"energy": 0.08499,
				"method": "rhf"
			},
			{
				"type": "unocc",
				"energy": 0.10139,
				"method": "rhf"
			},
			{
				"type": "unocc",
				"energy": 0.1201,
				"method": "rhf"
			}
		],
		"cosmo_sigma_profile": { 
			"-0.025": 0.0,
			"-0.024": 0.0,
			"-0.023": 0.0,
			"-0.022": 0.0,
			"-0.021": 0.0,
			"-0.02": 0.0,
			"-0.019": 0.0,
			"-0.018": 0.0,
			"-0.017": 0.0,
			"-0.016": 0.0,
			"-0.015": 0.0,
			"-0.014": 0.0,
			"-0.013": 0.088848526174,
			"-0.012": 1.28122196305,
			"-0.011": 1.34347011496,
			"-0.01": 2.38684225521,
			"-0.009": 2.54741165797,
			"-0.008": 2.29080081506,
			"-0.007": 2.27131844754,
			"-0.006": 4.83611754391,
			"-0.005": 11.2218083752,
			"-0.004": 13.4281620593,
			"-0.003": 19.5863319305,
			"-0.002": 16.5863353104,
			"-0.001": 11.3423585051,
			"0.0": 8.92691471586,
			"0.001": 7.53373209111,
			"0.002": 7.94215402708,
			"0.003": 8.752092234,
			"0.004": 8.5142719583,
			"0.005": 10.2440684058,
			"0.006": 9.47642433992,
			"0.007": 7.16675479744,
			"0.008": 2.28875655905,
			"0.009": 2.21703518675,
			"0.01": 1.45352127812,
			"0.011": 1.98073105921,
			"0.012": 1.41619899295,
			"0.013": 0.55136348863,
			"0.014": 0.815925761672,
			"0.015": 0.032406873674,
			"0.016": 0.0,
			"0.017": 0.0,
			"0.018": 0.0,
			"0.019": 0.0,
			"0.02": 0.0,
			"0.021": 0.0,
			"0.022": 0.0,
			"0.023": 0.0,
			"0.024": 0.0,
			"0.025": 0.0
		}
	}
}
