{
	 "smiles": "OC(=O)C1=CC2=CC(OC(F)(F)F)=CC=C2N1", 
	 "Tm": 479.15, 
	 "num_atms": 23, 
	 "gaussian": { 
		 "optdone": 1, 
		 "sigma_profile": "yes", 
		 "theory": "DFT", 
		 "functional": "B3LYP", 
		 "basiset": "6-31G**", 
		 "properties": { 
			 "R2extent": 6430.5854, 
			 "electric_dipole_moment_norm": 4.44416530521, 
			 "electric_quadrupole_moment_norm": 17.7374466319, 
			 "total_energy": -964.63334779, 
			 "HOMO_LUMO_gap": 0.17293, 
			 "cosmo_polarized_energy": -18.56, 
			 "cosmo_cavitation_energy": 30.17, 
			 "cosmo_dispersion_energy": -21.82, 
			 "cosmo_repulsion_energy": 1.62, 
			 "cosmo_total_nonelectrostatic_energy": 9.97, 
			 "SMD_solvation_energy": 7.56 
		},
		"coords": [
			{
				"x": -1.3763437096,
				"y": -1.2542474948,
				"z": -3.5631588979,
				"element": "O" 
			},
			{
				"x": -2.0533462734,
				"y": -1.3000867762,
				"z": -2.374809879,
				"element": "C" 
			},
			{
				"x": -3.1503279106,
				"y": -1.7984819068,
				"z": -2.307544323,
				"element": "O" 
			},
			{
				"x": -1.3406722381,
				"y": -0.7193624364,
				"z": -1.2202130674,
				"element": "C" 
			},
			{
				"x": -1.8811735048,
				"y": -0.2393776366,
				"z": -0.0522643039,
				"element": "C" 
			},
			{
				"x": -0.8017565273,
				"y": 0.2603706883,
				"z": 0.7440363282,
				"element": "C" 
			},
			{
				"x": -0.7435334768,
				"y": 0.863483421,
				"z": 2.0158973341,
				"element": "C" 
			},
			{
				"x": 0.5073481766,
				"y": 1.1996553075,
				"z": 2.5050968718,
				"element": "C" 
			},
			{
				"x": 0.7450672983,
				"y": 1.7974416582,
				"z": 3.7482229082,
				"element": "O" 
			},
			{
				"x": -0.2720728555,
				"y": 2.1162220041,
				"z": 4.5828150965,
				"element": "C" 
			},
			{
				"x": 0.2637548127,
				"y": 2.6696335787,
				"z": 5.669457308,
				"element": "F" 
			},
			{
				"x": -1.1351191896,
				"y": 2.9958354873,
				"z": 4.0361811774,
				"element": "F" 
			},
			{
				"x": -0.9895286652,
				"y": 1.0393419583,
				"z": 4.9614295244,
				"element": "F" 
			},
			{
				"x": 1.6920291121,
				"y": 0.961716873,
				"z": 1.776977835,
				"element": "C" 
			},
			{
				"x": 1.6488012222,
				"y": 0.3816240939,
				"z": 0.5193976451,
				"element": "C" 
			},
			{
				"x": 0.3924028174,
				"y": 0.0421645733,
				"z": 0.0060973012,
				"element": "C" 
			},
			{
				"x": 0.0427638191,
				"y": -0.5132570818,
				"z": -1.2135454256,
				"element": "N" 
			},
			{
				"x": -0.6732068478,
				"y": -0.5897801333,
				"z": -3.5135946661,
				"element": "H" 
			},
			{
				"x": -2.9365019674,
				"y": -0.2237072522,
				"z": 0.1774970604,
				"element": "H" 
			},
			{
				"x": -1.6487431436,
				"y": 1.0419110142,
				"z": 2.5804294816,
				"element": "H" 
			},
			{
				"x": 2.6353933151,
				"y": 1.2502132151,
				"z": 2.2268285137,
				"element": "H" 
			},
			{
				"x": 2.561964815,
				"y": 0.2066902627,
				"z": -0.040851507,
				"element": "H" 
			},
			{
				"x": 0.6818009212,
				"y": -1.0689034175,
				"z": -1.7643823158,
				"element": "H" 
			}
		],
		 "valence_orbital": [ 
			{
				"type": "occ",
				"energy": -0.32544,
				"method": "rhf"
			},
			{
				"type": "occ",
				"energy": -0.30658,
				"method": "rhf"
			},
			{
				"type": "occ",
				"energy": -0.28396,
				"method": "rhf"
			},
			{
				"type": "occ",
				"energy": -0.24098,
				"method": "rhf"
			},
			{
				"type": "occ",
				"energy": -0.23622,
				"method": "rhf"
			},
			{
				"type": "unocc",
				"energy": -0.06329,
				"method": "rhf"
			},
			{
				"type": "unocc",
				"energy": -0.00658,
				"method": "rhf"
			},
			{
				"type": "unocc",
				"energy": 0.00923,
				"method": "rhf"
			},
			{
				"type": "unocc",
				"energy": 0.03671,
				"method": "rhf"
			},
			{
				"type": "unocc",
				"energy": 0.07797,
				"method": "rhf"
			}
		],
		"cosmo_sigma_profile": { 
			"-0.025": 0.0,
			"-0.024": 0.0,
			"-0.023": 0.0,
			"-0.022": 0.0,
			"-0.021": 0.0,
			"-0.02": 0.0,
			"-0.019": 0.164717123509,
			"-0.018": 1.52190007274,
			"-0.017": 2.25172027407,
			"-0.016": 2.90091068985,
			"-0.015": 2.3328441732,
			"-0.014": 1.43533758549,
			"-0.013": 2.28965860098,
			"-0.012": 1.73874388565,
			"-0.011": 1.72883142524,
			"-0.01": 1.49098793418,
			"-0.009": 1.5512511596,
			"-0.008": 3.98643528787,
			"-0.007": 8.36630434833,
			"-0.006": 7.0395678824,
			"-0.005": 9.19860365372,
			"-0.004": 7.4703298331,
			"-0.003": 7.25252102901,
			"-0.002": 10.8366060034,
			"-0.001": 11.0715435949,
			"0.0": 16.2551639245,
			"0.001": 30.918957722,
			"0.002": 45.0399708419,
			"0.003": 23.9212582845,
			"0.004": 8.87156348804,
			"0.005": 4.85471425551,
			"0.006": 2.67552335497,
			"0.007": 2.36864673956,
			"0.008": 2.81127878453,
			"0.009": 3.8450101245,
			"0.01": 4.76275802797,
			"0.011": 6.12351104427,
			"0.012": 4.74887682071,
			"0.013": 1.03801079781,
			"0.014": 0.0,
			"0.015": 0.0,
			"0.016": 0.0,
			"0.017": 0.0,
			"0.018": 0.0,
			"0.019": 0.0,
			"0.02": 0.0,
			"0.021": 0.0,
			"0.022": 0.0,
			"0.023": 0.0,
			"0.024": 0.0,
			"0.025": 0.0
		}
	}
}
