{
	 "smiles": "CCOC(=O)C1=C(C#N)C(Cl)=NC(C)=C1", 
	 "Tm": 332.15, 
	 "num_atms": 24, 
	 "gaussian": { 
		 "optdone": 1, 
		 "sigma_profile": "yes", 
		 "theory": "DFT", 
		 "functional": "B3LYP", 
		 "basiset": "6-31G**", 
		 "properties": { 
			 "R2extent": 5112.3609, 
			 "electric_dipole_moment_norm": 7.18795790194, 
			 "electric_quadrupole_moment_norm": 19.3645581432, 
			 "total_energy": -1106.62571178, 
			 "HOMO_LUMO_gap": 0.17566, 
			 "cosmo_polarized_energy": -14.9, 
			 "cosmo_cavitation_energy": 31.68, 
			 "cosmo_dispersion_energy": -22.38, 
			 "cosmo_repulsion_energy": 1.79, 
			 "cosmo_total_nonelectrostatic_energy": 11.09, 
			 "SMD_solvation_energy": 6.12 
		},
		"coords": [
			{
				"x": -1.5787820524,
				"y": -0.3891490993,
				"z": 3.1708095309,
				"element": "C" 
			},
			{
				"x": -1.4248119396,
				"y": 0.6860784138,
				"z": 2.1069683721,
				"element": "C" 
			},
			{
				"x": -0.8557625296,
				"y": 0.1418685542,
				"z": 0.8853387397,
				"element": "O" 
			},
			{
				"x": 0.4877675654,
				"y": 0.0622388265,
				"z": 0.8351217964,
				"element": "C" 
			},
			{
				"x": 1.2292863458,
				"y": 0.4156068635,
				"z": 1.7255652162,
				"element": "O" 
			},
			{
				"x": 0.9564811597,
				"y": -0.5167535883,
				"z": -0.4711655159,
				"element": "C" 
			},
			{
				"x": 2.3348754344,
				"y": -0.6837797226,
				"z": -0.7237134735,
				"element": "C" 
			},
			{
				"x": 3.3680636996,
				"y": -0.3334886445,
				"z": 0.2023547022,
				"element": "C" 
			},
			{
				"x": 4.2761289152,
				"y": -0.0833294897,
				"z": 0.8840925418,
				"element": "N" 
			},
			{
				"x": 2.6756854878,
				"y": -1.23615076,
				"z": -1.9827490898,
				"element": "C" 
			},
			{
				"x": 4.3614286919,
				"y": -1.4797017198,
				"z": -2.3841958906,
				"element": "Cl" 
			},
			{
				"x": 1.8058416408,
				"y": -1.592317047,
				"z": -2.9030573175,
				"element": "N" 
			},
			{
				"x": 0.4928444269,
				"y": -1.4326476435,
				"z": -2.6594141754,
				"element": "C" 
			},
			{
				"x": -0.44726102,
				"y": -1.8599201114,
				"z": -3.752945967,
				"element": "C" 
			},
			{
				"x": 0.0390812863,
				"y": -0.8973716582,
				"z": -1.4516113687,
				"element": "C" 
			},
			{
				"x": -2.0786125416,
				"y": 0.033264718,
				"z": 4.0485399494,
				"element": "H" 
			},
			{
				"x": -0.6024220819,
				"y": -0.7669402767,
				"z": 3.483186744,
				"element": "H" 
			},
			{
				"x": -2.182599852,
				"y": -1.2226212971,
				"z": 2.8003286573,
				"element": "H" 
			},
			{
				"x": -2.3911078569,
				"y": 1.0865357321,
				"z": 1.793169585,
				"element": "H" 
			},
			{
				"x": -0.7862030272,
				"y": 1.50120226,
				"z": 2.4541130497,
				"element": "H" 
			},
			{
				"x": -0.3012228527,
				"y": -2.9203390891,
				"z": -3.98217788,
				"element": "H" 
			},
			{
				"x": -1.4908866225,
				"y": -1.698475476,
				"z": -3.4745646563,
				"element": "H" 
			},
			{
				"x": -0.2348978614,
				"y": -1.3029028222,
				"z": -4.6711068829,
				"element": "H" 
			},
			{
				"x": -1.0198144161,
				"y": -0.7738069228,
				"z": -1.2666866671,
				"element": "H" 
			}
		],
		 "valence_orbital": [ 
			{
				"type": "occ",
				"energy": -0.32075,
				"method": "rhf"
			},
			{
				"type": "occ",
				"energy": -0.30715,
				"method": "rhf"
			},
			{
				"type": "occ",
				"energy": -0.30223,
				"method": "rhf"
			},
			{
				"type": "occ",
				"energy": -0.28476,
				"method": "rhf"
			},
			{
				"type": "occ",
				"energy": -0.27078,
				"method": "rhf"
			},
			{
				"type": "unocc",
				"energy": -0.09512,
				"method": "rhf"
			},
			{
				"type": "unocc",
				"energy": -0.05818,
				"method": "rhf"
			},
			{
				"type": "unocc",
				"energy": 0.01968,
				"method": "rhf"
			},
			{
				"type": "unocc",
				"energy": 0.02158,
				"method": "rhf"
			},
			{
				"type": "unocc",
				"energy": 0.03645,
				"method": "rhf"
			}
		],
		"cosmo_sigma_profile": { 
			"-0.025": 0.0,
			"-0.024": 0.0,
			"-0.023": 0.0,
			"-0.022": 0.0,
			"-0.021": 0.0,
			"-0.02": 0.0,
			"-0.019": 0.0,
			"-0.018": 0.0,
			"-0.017": 0.0,
			"-0.016": 0.0,
			"-0.015": 0.0,
			"-0.014": 0.0,
			"-0.013": 0.0,
			"-0.012": 0.0,
			"-0.011": 0.0,
			"-0.01": 0.0,
			"-0.009": 0.407746330189,
			"-0.008": 1.93054677483,
			"-0.007": 2.83271537027,
			"-0.006": 10.3734439163,
			"-0.005": 18.7535875062,
			"-0.004": 33.5124659832,
			"-0.003": 31.3600533725,
			"-0.002": 28.3892486145,
			"-0.001": 22.1994405831,
			"0.0": 15.6463466562,
			"0.001": 9.96409079702,
			"0.002": 11.6072022115,
			"0.003": 14.3607048299,
			"0.004": 8.22749551695,
			"0.005": 5.50346928525,
			"0.006": 5.50468969899,
			"0.007": 5.89740020514,
			"0.008": 5.7761172664,
			"0.009": 6.79946939853,
			"0.01": 8.00196057216,
			"0.011": 5.7765186759,
			"0.012": 2.96289342761,
			"0.013": 0.435160326363,
			"0.014": 0.0,
			"0.015": 0.0,
			"0.016": 0.0,
			"0.017": 0.0,
			"0.018": 0.0,
			"0.019": 0.0,
			"0.02": 0.0,
			"0.021": 0.0,
			"0.022": 0.0,
			"0.023": 0.0,
			"0.024": 0.0,
			"0.025": 0.0
		}
	}
}
