{
	 "smiles": "NC(=S)CS(=O)(=O)C1=CC=CS1", 
	 "Tm": 435.15, 
	 "num_atms": 19, 
	 "gaussian": { 
		 "optdone": 1, 
		 "sigma_profile": "yes", 
		 "theory": "DFT", 
		 "functional": "B3LYP", 
		 "basiset": "6-31G**", 
		 "properties": { 
			 "R2extent": 3122.994, 
			 "electric_dipole_moment_norm": 3.31272105225, 
			 "electric_quadrupole_moment_norm": 26.4389167976, 
			 "total_energy": -1632.5375863, 
			 "HOMO_LUMO_gap": 0.15897, 
			 "cosmo_polarized_energy": -19.1, 
			 "cosmo_cavitation_energy": 28.11, 
			 "cosmo_dispersion_energy": -21.06, 
			 "cosmo_repulsion_energy": 1.56, 
			 "cosmo_total_nonelectrostatic_energy": 8.61, 
			 "SMD_solvation_energy": 3.04 
		},
		"coords": [
			{
				"x": -0.0387758006,
				"y": 1.907874169,
				"z": 1.2313262436,
				"element": "N" 
			},
			{
				"x": 0.7319338653,
				"y": 0.9006832551,
				"z": 1.6722100469,
				"element": "C" 
			},
			{
				"x": 0.5682334325,
				"y": 0.1805255998,
				"z": 3.1606385277,
				"element": "S" 
			},
			{
				"x": 1.853527093,
				"y": 0.4887486121,
				"z": 0.7326135942,
				"element": "C" 
			},
			{
				"x": 1.4026999902,
				"y": 0.1871050977,
				"z": -1.0211085304,
				"element": "S" 
			},
			{
				"x": 2.6411222332,
				"y": -0.2058095117,
				"z": -1.7029510607,
				"element": "O" 
			},
			{
				"x": 0.6185056841,
				"y": 1.3557492779,
				"z": -1.4754103442,
				"element": "O" 
			},
			{
				"x": 0.3139644142,
				"y": -1.2058184157,
				"z": -0.9973925717,
				"element": "C" 
			},
			{
				"x": -1.0569703253,
				"y": -1.1557464383,
				"z": -0.9285708807,
				"element": "C" 
			},
			{
				"x": -1.6374836166,
				"y": -2.453640439,
				"z": -0.9078264467,
				"element": "C" 
			},
			{
				"x": -0.6969886539,
				"y": -3.4505369407,
				"z": -0.960135095,
				"element": "C" 
			},
			{
				"x": 0.9158867427,
				"y": -2.8378487426,
				"z": -1.047487627,
				"element": "S" 
			},
			{
				"x": 0.0274261523,
				"y": 2.2259792247,
				"z": 0.2685014794,
				"element": "H" 
			},
			{
				"x": -0.7963803778,
				"y": 2.2238213612,
				"z": 1.8194145842,
				"element": "H" 
			},
			{
				"x": 2.5990411251,
				"y": 1.2891829591,
				"z": 0.6523228104,
				"element": "H" 
			},
			{
				"x": 2.3403480771,
				"y": -0.4152471179,
				"z": 1.094631748,
				"element": "H" 
			},
			{
				"x": -1.6121422861,
				"y": -0.2264589824,
				"z": -0.9057835392,
				"element": "H" 
			},
			{
				"x": -2.7039311635,
				"y": -2.638851735,
				"z": -0.8609547588,
				"element": "H" 
			},
			{
				"x": -0.860716586,
				"y": -4.5199112331,
				"z": -0.9661381801,
				"element": "H" 
			}
		],
		 "valence_orbital": [ 
			{
				"type": "occ",
				"energy": -0.31007,
				"method": "rhf"
			},
			{
				"type": "occ",
				"energy": -0.28214,
				"method": "rhf"
			},
			{
				"type": "occ",
				"energy": -0.27169,
				"method": "rhf"
			},
			{
				"type": "occ",
				"energy": -0.24432,
				"method": "rhf"
			},
			{
				"type": "occ",
				"energy": -0.22118,
				"method": "rhf"
			},
			{
				"type": "unocc",
				"energy": -0.06221,
				"method": "rhf"
			},
			{
				"type": "unocc",
				"energy": -0.05236,
				"method": "rhf"
			},
			{
				"type": "unocc",
				"energy": 0.00262,
				"method": "rhf"
			},
			{
				"type": "unocc",
				"energy": 0.02571,
				"method": "rhf"
			},
			{
				"type": "unocc",
				"energy": 0.03723,
				"method": "rhf"
			}
		],
		"cosmo_sigma_profile": { 
			"-0.025": 0.0,
			"-0.024": 0.0,
			"-0.023": 0.0,
			"-0.022": 0.0,
			"-0.021": 0.0,
			"-0.02": 0.0,
			"-0.019": 0.0,
			"-0.018": 0.0,
			"-0.017": 0.0,
			"-0.016": 0.212080867366,
			"-0.015": 1.26219897468,
			"-0.014": 1.47362684876,
			"-0.013": 0.961638844178,
			"-0.012": 1.95781448012,
			"-0.011": 3.60168182094,
			"-0.01": 6.58495087148,
			"-0.009": 7.96279979341,
			"-0.008": 9.98665797403,
			"-0.007": 9.48278305329,
			"-0.006": 10.7180919599,
			"-0.005": 10.1176493394,
			"-0.004": 9.89369971875,
			"-0.003": 8.45292439383,
			"-0.002": 8.76860587333,
			"-0.001": 12.1020293327,
			"0.0": 13.1343645719,
			"0.001": 18.6289273216,
			"0.002": 16.9794104672,
			"0.003": 11.09088217,
			"0.004": 6.2162752389,
			"0.005": 6.66017867959,
			"0.006": 6.45357437728,
			"0.007": 8.40186593252,
			"0.008": 10.3384852819,
			"0.009": 8.28804722517,
			"0.01": 11.779743425,
			"0.011": 8.14323045794,
			"0.012": 0.445758832831,
			"0.013": 0.0,
			"0.014": 0.0,
			"0.015": 0.0,
			"0.016": 0.0,
			"0.017": 0.0,
			"0.018": 0.0,
			"0.019": 0.0,
			"0.02": 0.0,
			"0.021": 0.0,
			"0.022": 0.0,
			"0.023": 0.0,
			"0.024": 0.0,
			"0.025": 0.0
		}
	}
}
