{
	 "smiles": "NNC1=CN=C(Cl)C=C1", 
	 "Tm": 405.15, 
	 "num_atms": 15, 
	 "gaussian": { 
		 "optdone": 1, 
		 "sigma_profile": "yes", 
		 "theory": "DFT", 
		 "functional": "B3LYP", 
		 "basiset": "6-31G**", 
		 "properties": { 
			 "R2extent": 2100.3414, 
			 "electric_dipole_moment_norm": 4.15203985169, 
			 "electric_quadrupole_moment_norm": 10.1969002849, 
			 "total_energy": -818.553046271, 
			 "HOMO_LUMO_gap": 0.18415, 
			 "cosmo_polarized_energy": -13.29, 
			 "cosmo_cavitation_energy": 21.09, 
			 "cosmo_dispersion_energy": -16.02, 
			 "cosmo_repulsion_energy": 1.32, 
			 "cosmo_total_nonelectrostatic_energy": 6.4, 
			 "SMD_solvation_energy": 2.41 
		},
		"coords": [
			{
				"x": 0.3921056513,
				"y": -2.6973294779,
				"z": -2.7671983377,
				"element": "N" 
			},
			{
				"x": 0.7112769234,
				"y": -1.5653228631,
				"z": -1.994773681,
				"element": "N" 
			},
			{
				"x": -0.1562591723,
				"y": -1.0680649282,
				"z": -1.0283051259,
				"element": "C" 
			},
			{
				"x": -0.0217704948,
				"y": 0.2581619725,
				"z": -0.5725472551,
				"element": "C" 
			},
			{
				"x": -0.7844899221,
				"y": 0.7952732886,
				"z": 0.3787027477,
				"element": "N" 
			},
			{
				"x": -1.7228761157,
				"y": 0.039680945,
				"z": 0.9229720539,
				"element": "C" 
			},
			{
				"x": -2.7213914243,
				"y": 0.7781682866,
				"z": 2.1774861631,
				"element": "Cl" 
			},
			{
				"x": -1.961641062,
				"y": -1.2854775473,
				"z": 0.5595344478,
				"element": "C" 
			},
			{
				"x": -1.1634323495,
				"y": -1.8454084696,
				"z": -0.4332752552,
				"element": "C" 
			},
			{
				"x": 0.5861046058,
				"y": -3.5361484466,
				"z": -2.2264349323,
				"element": "H" 
			},
			{
				"x": -0.597321013,
				"y": -2.7013237663,
				"z": -3.0202597145,
				"element": "H" 
			},
			{
				"x": 1.1953813694,
				"y": -0.8671162517,
				"z": -2.5427628858,
				"element": "H" 
			},
			{
				"x": 0.741594103,
				"y": 0.9062432312,
				"z": -1.0024320332,
				"element": "H" 
			},
			{
				"x": -2.7463921182,
				"y": -1.859241411,
				"z": 1.038328148,
				"element": "H" 
			},
			{
				"x": -1.316588981,
				"y": -2.8753945622,
				"z": -0.7371343399,
				"element": "H" 
			}
		],
		 "valence_orbital": [ 
			{
				"type": "occ",
				"energy": -0.30678,
				"method": "rhf"
			},
			{
				"type": "occ",
				"energy": -0.29022,
				"method": "rhf"
			},
			{
				"type": "occ",
				"energy": -0.28531,
				"method": "rhf"
			},
			{
				"type": "occ",
				"energy": -0.26874,
				"method": "rhf"
			},
			{
				"type": "occ",
				"energy": -0.21788,
				"method": "rhf"
			},
			{
				"type": "unocc",
				"energy": -0.03373,
				"method": "rhf"
			},
			{
				"type": "unocc",
				"energy": -0.00874,
				"method": "rhf"
			},
			{
				"type": "unocc",
				"energy": 0.03988,
				"method": "rhf"
			},
			{
				"type": "unocc",
				"energy": 0.06358,
				"method": "rhf"
			},
			{
				"type": "unocc",
				"energy": 0.08641,
				"method": "rhf"
			}
		],
		"cosmo_sigma_profile": { 
			"-0.025": 0.0,
			"-0.024": 0.0,
			"-0.023": 0.0,
			"-0.022": 0.0,
			"-0.021": 0.0,
			"-0.02": 0.0,
			"-0.019": 0.0,
			"-0.018": 0.0,
			"-0.017": 0.0,
			"-0.016": 0.0,
			"-0.015": 0.0,
			"-0.014": 0.0526730598613,
			"-0.013": 1.29972682554,
			"-0.012": 1.91426867413,
			"-0.011": 3.93160841274,
			"-0.01": 5.55330361366,
			"-0.009": 5.87233321482,
			"-0.008": 5.92756562241,
			"-0.007": 8.28068983425,
			"-0.006": 7.44583334981,
			"-0.005": 5.62292532537,
			"-0.004": 6.31573780702,
			"-0.003": 5.86898297898,
			"-0.002": 4.96279253681,
			"-0.001": 7.58513147401,
			"0.0": 8.18045012697,
			"0.001": 15.1519290897,
			"0.002": 16.0552573357,
			"0.003": 11.4245185194,
			"0.004": 10.4374935674,
			"0.005": 11.885403764,
			"0.006": 6.1480304177,
			"0.007": 4.72074728849,
			"0.008": 2.44668795338,
			"0.009": 2.6064394813,
			"0.01": 2.07962646038,
			"0.011": 2.15300354382,
			"0.012": 1.33939393498,
			"0.013": 1.47765529182,
			"0.014": 1.92188308149,
			"0.015": 0.8251415823,
			"0.016": 0.653003848685,
			"0.017": 0.112590685083,
			"0.018": 0.0,
			"0.019": 0.0,
			"0.02": 0.0,
			"0.021": 0.0,
			"0.022": 0.0,
			"0.023": 0.0,
			"0.024": 0.0,
			"0.025": 0.0
		}
	}
}
