{
	 "smiles": "ClCC(=O)NCCC(C1=CC=CC=C1)C1=CC=CC=C1", 
	 "Tm": 379.15, 
	 "num_atms": 38, 
	 "gaussian": { 
		 "optdone": 1, 
		 "sigma_profile": "yes", 
		 "theory": "DFT", 
		 "functional": "B3LYP", 
		 "basiset": "6-31G**", 
		 "properties": { 
			 "R2extent": 7675.7954, 
			 "electric_dipole_moment_norm": 2.04173401794, 
			 "electric_quadrupole_moment_norm": 9.63993960043, 
			 "total_energy": -1248.85250585, 
			 "HOMO_LUMO_gap": 0.22449, 
			 "cosmo_polarized_energy": -13.76, 
			 "cosmo_cavitation_energy": 42.98, 
			 "cosmo_dispersion_energy": -28.55, 
			 "cosmo_repulsion_energy": 2.25, 
			 "cosmo_total_nonelectrostatic_energy": 16.68, 
			 "SMD_solvation_energy": 6.96 
		},
		"coords": [
			{
				"x": -0.1288679073,
				"y": -3.735076412,
				"z": -3.6635817911,
				"element": "Cl" 
			},
			{
				"x": -1.5177097258,
				"y": -3.9749772532,
				"z": -2.5138863114,
				"element": "C" 
			},
			{
				"x": -1.3533674456,
				"y": -3.4069543137,
				"z": -1.1011216462,
				"element": "C" 
			},
			{
				"x": -2.3085982068,
				"y": -3.5231358601,
				"z": -0.3415719563,
				"element": "O" 
			},
			{
				"x": -0.1733016399,
				"y": -2.8337666655,
				"z": -0.7737474899,
				"element": "N" 
			},
			{
				"x": 0.0674823356,
				"y": -2.2780669153,
				"z": 0.5549007204,
				"element": "C" 
			},
			{
				"x": -0.3759128456,
				"y": -0.8135728051,
				"z": 0.6995232926,
				"element": "C" 
			},
			{
				"x": 0.2925964604,
				"y": 0.170288123,
				"z": -0.2929793851,
				"element": "C" 
			},
			{
				"x": 1.8174898556,
				"y": 0.1851270995,
				"z": -0.2278306796,
				"element": "C" 
			},
			{
				"x": 2.5526109997,
				"y": 0.3262149414,
				"z": -1.4143894321,
				"element": "C" 
			},
			{
				"x": 3.9468851509,
				"y": 0.3661774826,
				"z": -1.4022901748,
				"element": "C" 
			},
			{
				"x": 4.6399463474,
				"y": 0.2628952376,
				"z": -0.1947314785,
				"element": "C" 
			},
			{
				"x": 3.9250832674,
				"y": 0.1190425346,
				"z": 0.9946547219,
				"element": "C" 
			},
			{
				"x": 2.5288455412,
				"y": 0.0791046882,
				"z": 0.9770816696,
				"element": "C" 
			},
			{
				"x": -0.3346012465,
				"y": 1.5606925739,
				"z": -0.153122624,
				"element": "C" 
			},
			{
				"x": 0.1515391241,
				"y": 2.5192502719,
				"z": 0.7454109217,
				"element": "C" 
			},
			{
				"x": -0.4793168688,
				"y": 3.7573149849,
				"z": 0.8803714442,
				"element": "C" 
			},
			{
				"x": -1.6076310576,
				"y": 4.0612147958,
				"z": 0.117403451,
				"element": "C" 
			},
			{
				"x": -2.100196021,
				"y": 3.1161658925,
				"z": -0.7840445015,
				"element": "C" 
			},
			{
				"x": -1.4669628045,
				"y": 1.8801040084,
				"z": -0.9159427052,
				"element": "C" 
			},
			{
				"x": -2.3936400743,
				"y": -3.5134533653,
				"z": -2.9692779892,
				"element": "H" 
			},
			{
				"x": -1.6860438527,
				"y": -5.0494410504,
				"z": -2.4361760226,
				"element": "H" 
			},
			{
				"x": 0.5496171836,
				"y": -2.7765382878,
				"z": -1.4765026462,
				"element": "H" 
			},
			{
				"x": -0.4882251125,
				"y": -2.8918282917,
				"z": 1.2686837008,
				"element": "H" 
			},
			{
				"x": 1.1345417497,
				"y": -2.3833094374,
				"z": 0.7686837769,
				"element": "H" 
			},
			{
				"x": -0.1922724343,
				"y": -0.4942840768,
				"z": 1.7325905875,
				"element": "H" 
			},
			{
				"x": -1.4600057689,
				"y": -0.7636934501,
				"z": 0.5547913699,
				"element": "H" 
			},
			{
				"x": 0.0286194609,
				"y": -0.181893235,
				"z": -1.2980765569,
				"element": "H" 
			},
			{
				"x": 2.0214578269,
				"y": 0.4115672808,
				"z": -2.3595865741,
				"element": "H" 
			},
			{
				"x": 4.4913061707,
				"y": 0.4752589329,
				"z": -2.3361206646,
				"element": "H" 
			},
			{
				"x": 5.7256155669,
				"y": 0.2906840399,
				"z": -0.1814527741,
				"element": "H" 
			},
			{
				"x": 4.4529028472,
				"y": 0.0341431754,
				"z": 1.9405388854,
				"element": "H" 
			},
			{
				"x": 1.9936464485,
				"y": -0.0397330238,
				"z": 1.9148218188,
				"element": "H" 
			},
			{
				"x": 1.0385417057,
				"y": 2.3055441129,
				"z": 1.3336062083,
				"element": "H" 
			},
			{
				"x": -0.0833125174,
				"y": 4.4876064064,
				"z": 1.5807555596,
				"element": "H" 
			},
			{
				"x": -2.0953357188,
				"y": 5.0262795923,
				"z": 0.2205663454,
				"element": "H" 
			},
			{
				"x": -2.974274886,
				"y": 3.3417245112,
				"z": -1.3887017663,
				"element": "H" 
			},
			{
				"x": -1.8569519079,
				"y": 1.1501237573,
				"z": -1.6219493043,
				"element": "H" 
			}
		],
		 "valence_orbital": [ 
			{
				"type": "occ",
				"energy": -0.25758,
				"method": "rhf"
			},
			{
				"type": "occ",
				"energy": -0.25488,
				"method": "rhf"
			},
			{
				"type": "occ",
				"energy": -0.25053,
				"method": "rhf"
			},
			{
				"type": "occ",
				"energy": -0.24629,
				"method": "rhf"
			},
			{
				"type": "occ",
				"energy": -0.23681,
				"method": "rhf"
			},
			{
				"type": "unocc",
				"energy": -0.01232,
				"method": "rhf"
			},
			{
				"type": "unocc",
				"energy": -0.00725,
				"method": "rhf"
			},
			{
				"type": "unocc",
				"energy": 0.00086,
				"method": "rhf"
			},
			{
				"type": "unocc",
				"energy": 0.00583,
				"method": "rhf"
			},
			{
				"type": "unocc",
				"energy": 0.01268,
				"method": "rhf"
			}
		],
		"cosmo_sigma_profile": { 
			"-0.025": 0.0,
			"-0.024": 0.0,
			"-0.023": 0.0,
			"-0.022": 0.0,
			"-0.021": 0.0,
			"-0.02": 0.0,
			"-0.019": 0.0,
			"-0.018": 0.0,
			"-0.017": 0.0,
			"-0.016": 0.0,
			"-0.015": 0.0,
			"-0.014": 0.0,
			"-0.013": 0.0,
			"-0.012": 0.0194770214422,
			"-0.011": 0.212679574573,
			"-0.01": 1.05787470559,
			"-0.009": 3.24274508389,
			"-0.008": 4.47101787299,
			"-0.007": 5.71174215062,
			"-0.006": 10.8601672171,
			"-0.005": 27.5432292911,
			"-0.004": 35.8470882477,
			"-0.003": 35.8118488468,
			"-0.002": 28.8544678987,
			"-0.001": 26.4881641677,
			"0.0": 19.9753564404,
			"0.001": 19.6113166659,
			"0.002": 19.7849606986,
			"0.003": 18.9806911192,
			"0.004": 20.694629696,
			"0.005": 23.682088211,
			"0.006": 20.6263480874,
			"0.007": 4.8044902001,
			"0.008": 1.06844215888,
			"0.009": 1.33274223522,
			"0.01": 0.977614215231,
			"0.011": 1.43204948934,
			"0.012": 2.11172489594,
			"0.013": 4.74682406287,
			"0.014": 3.09352378719,
			"0.015": 0.0998146725396,
			"0.016": 0.0,
			"0.017": 0.0,
			"0.018": 0.0,
			"0.019": 0.0,
			"0.02": 0.0,
			"0.021": 0.0,
			"0.022": 0.0,
			"0.023": 0.0,
			"0.024": 0.0,
			"0.025": 0.0
		}
	}
}
