{
	 "smiles": "CC(=O)NC1=C(Br)C=C(C(C)=C1)S(Cl)(=O)=O", 
	 "Tm": 383.15, 
	 "num_atms": 25, 
	 "gaussian": { 
		 "optdone": 1, 
		 "sigma_profile": "yes", 
		 "theory": "DFT", 
		 "functional": "B3LYP", 
		 "basiset": "6-31G**", 
		 "properties": { 
			 "R2extent": 7090.2805, 
			 "electric_dipole_moment_norm": 3.27222127766, 
			 "electric_quadrupole_moment_norm": 27.0182498889, 
			 "total_energy": -4058.54004954, 
			 "HOMO_LUMO_gap": 0.15987, 
			 "cosmo_polarized_energy": -14.88, 
			 "cosmo_cavitation_energy": 34.42, 
			 "cosmo_dispersion_energy": -25.48, 
			 "cosmo_repulsion_energy": 1.94, 
			 "cosmo_total_nonelectrostatic_energy": 10.89, 
			 "SMD_solvation_energy": 4.41 
		},
		"coords": [
			{
				"x": -0.8070672231,
				"y": 1.3528384451,
				"z": -3.8624215078,
				"element": "C" 
			},
			{
				"x": -1.3196309617,
				"y": -0.0702143538,
				"z": -3.9269787429,
				"element": "C" 
			},
			{
				"x": -1.8618198654,
				"y": -0.5191610536,
				"z": -4.9209142241,
				"element": "O" 
			},
			{
				"x": -1.1433626091,
				"y": -0.9258022822,
				"z": -2.8327631489,
				"element": "N" 
			},
			{
				"x": -0.5835060017,
				"y": -0.7632107512,
				"z": -1.5711048562,
				"element": "C" 
			},
			{
				"x": -0.0208377633,
				"y": -1.8783734134,
				"z": -0.9101850436,
				"element": "C" 
			},
			{
				"x": -0.0055449665,
				"y": -3.5936122188,
				"z": -1.7469674389,
				"element": "Br" 
			},
			{
				"x": 0.5299821071,
				"y": -1.7551872425,
				"z": 0.3544051915,
				"element": "C" 
			},
			{
				"x": 0.5233420969,
				"y": -0.5129386612,
				"z": 0.9928081739,
				"element": "C" 
			},
			{
				"x": -0.039651241,
				"y": 0.6305753681,
				"z": 0.3927852958,
				"element": "C" 
			},
			{
				"x": -0.0919249035,
				"y": 1.9892193645,
				"z": 1.0470416327,
				"element": "C" 
			},
			{
				"x": -0.5924995799,
				"y": 0.4612912108,
				"z": -0.8775684801,
				"element": "C" 
			},
			{
				"x": 1.2493307687,
				"y": -0.4833580652,
				"z": 2.6245688677,
				"element": "S" 
			},
			{
				"x": 3.1063198883,
				"y": 0.5178088335,
				"z": 2.2521836447,
				"element": "Cl" 
			},
			{
				"x": 0.4927240381,
				"y": 0.3960629897,
				"z": 3.5073810632,
				"element": "O" 
			},
			{
				"x": 1.5992451115,
				"y": -1.8430268101,
				"z": 3.0154832055,
				"element": "O" 
			},
			{
				"x": -1.5424637151,
				"y": 2.0049352615,
				"z": -3.3788984588,
				"element": "H" 
			},
			{
				"x": -0.6843594237,
				"y": 1.6934583069,
				"z": -4.890723266,
				"element": "H" 
			},
			{
				"x": 0.1395673685,
				"y": 1.4406501191,
				"z": -3.3243086925,
				"element": "H" 
			},
			{
				"x": -1.3715386805,
				"y": -1.8814703829,
				"z": -3.0882014685,
				"element": "H" 
			},
			{
				"x": 0.9674541051,
				"y": -2.6138023108,
				"z": 0.8477812218,
				"element": "H" 
			},
			{
				"x": 0.9045258853,
				"y": 2.3263321219,
				"z": 1.3479999183,
				"element": "H" 
			},
			{
				"x": -0.7038902621,
				"y": 1.968263312,
				"z": 1.9521126073,
				"element": "H" 
			},
			{
				"x": -0.5077072284,
				"y": 2.7252643306,
				"z": 0.3557949009,
				"element": "H" 
			},
			{
				"x": -1.0764869445,
				"y": 1.3149578818,
				"z": -1.332010395,
				"element": "H" 
			}
		],
		 "valence_orbital": [ 
			{
				"type": "occ",
				"energy": -0.31977,
				"method": "rhf"
			},
			{
				"type": "occ",
				"energy": -0.31871,
				"method": "rhf"
			},
			{
				"type": "occ",
				"energy": -0.28144,
				"method": "rhf"
			},
			{
				"type": "occ",
				"energy": -0.27972,
				"method": "rhf"
			},
			{
				"type": "occ",
				"energy": -0.2568,
				"method": "rhf"
			},
			{
				"type": "unocc",
				"energy": -0.09693,
				"method": "rhf"
			},
			{
				"type": "unocc",
				"energy": -0.05812,
				"method": "rhf"
			},
			{
				"type": "unocc",
				"energy": -0.04884,
				"method": "rhf"
			},
			{
				"type": "unocc",
				"energy": -0.02326,
				"method": "rhf"
			},
			{
				"type": "unocc",
				"energy": 0.00071,
				"method": "rhf"
			}
		],
		"cosmo_sigma_profile": { 
			"-0.025": 0.0,
			"-0.024": 0.0,
			"-0.023": 0.0,
			"-0.022": 0.0,
			"-0.021": 0.0,
			"-0.02": 0.0,
			"-0.019": 0.0,
			"-0.018": 0.0,
			"-0.017": 0.0,
			"-0.016": 0.0,
			"-0.015": 0.0,
			"-0.014": 0.0,
			"-0.013": 0.0,
			"-0.012": 0.0192463074106,
			"-0.011": 0.445113532406,
			"-0.01": 1.96803272622,
			"-0.009": 3.73216594056,
			"-0.008": 5.29636168096,
			"-0.007": 6.52771990001,
			"-0.006": 11.8919213659,
			"-0.005": 16.2149385846,
			"-0.004": 17.421679731,
			"-0.003": 23.5471783329,
			"-0.002": 30.7147734435,
			"-0.001": 32.5713771992,
			"0.0": 23.3363770871,
			"0.001": 14.7168207581,
			"0.002": 17.1785254727,
			"0.003": 20.4389597568,
			"0.004": 11.6390900939,
			"0.005": 4.98690742365,
			"0.006": 3.82035134422,
			"0.007": 6.75663682197,
			"0.008": 9.68070976881,
			"0.009": 6.16588266916,
			"0.01": 0.936743334861,
			"0.011": 2.90933751506,
			"0.012": 4.99931508146,
			"0.013": 2.93054666695,
			"0.014": 0.251652781691,
			"0.015": 0.0,
			"0.016": 0.0,
			"0.017": 0.0,
			"0.018": 0.0,
			"0.019": 0.0,
			"0.02": 0.0,
			"0.021": 0.0,
			"0.022": 0.0,
			"0.023": 0.0,
			"0.024": 0.0,
			"0.025": 0.0
		}
	}
}
