{
	 "smiles": "BrC1=CN=C(Br)C=C1", 
	 "Tm": 367.15, 
	 "num_atms": 11, 
	 "gaussian": { 
		 "optdone": 1, 
		 "sigma_profile": "yes", 
		 "theory": "DFT", 
		 "functional": "B3LYP", 
		 "basiset": "6-31G**", 
		 "properties": { 
			 "R2extent": 4424.4728, 
			 "electric_dipole_moment_norm": 2.22374037378, 
			 "electric_quadrupole_moment_norm": 4.35126747856, 
			 "total_energy": -5389.88922884, 
			 "HOMO_LUMO_gap": 0.2031, 
			 "cosmo_polarized_energy": -5.81, 
			 "cosmo_cavitation_energy": 20.32, 
			 "cosmo_dispersion_energy": -16.13, 
			 "cosmo_repulsion_energy": 1.34, 
			 "cosmo_total_nonelectrostatic_energy": 5.52, 
			 "SMD_solvation_energy": -0.13 
		},
		"coords": [
			{
				"x": -1.0960675782,
				"y": 4.0021843678,
				"z": -1.2131907064,
				"element": "Br" 
			},
			{
				"x": -0.2485330766,
				"y": 2.3010818115,
				"z": -1.2986543655,
				"element": "C" 
			},
			{
				"x": 1.1409690914,
				"y": 2.218807532,
				"z": -1.3783630965,
				"element": "C" 
			},
			{
				"x": 1.783447575,
				"y": 1.0459131165,
				"z": -1.4402949591,
				"element": "N" 
			},
			{
				"x": 1.060610684,
				"y": -0.0580741245,
				"z": -1.4242111999,
				"element": "C" 
			},
			{
				"x": 2.0109063296,
				"y": -1.7217880318,
				"z": -1.5142083589,
				"element": "Br" 
			},
			{
				"x": -0.3345771181,
				"y": -0.0909150674,
				"z": -1.3469571141,
				"element": "C" 
			},
			{
				"x": -1.0032541279,
				"y": 1.1278134738,
				"z": -1.2824593109,
				"element": "C" 
			},
			{
				"x": 1.7525721476,
				"y": 3.1163542753,
				"z": -1.392699196,
				"element": "H" 
			},
			{
				"x": -0.8713668461,
				"y": -1.0316144312,
				"z": -1.3378302083,
				"element": "H" 
			},
			{
				"x": -2.0852070806,
				"y": 1.1654370781,
				"z": -1.2210314843,
				"element": "H" 
			}
		],
		 "valence_orbital": [ 
			{
				"type": "occ",
				"energy": -0.30916,
				"method": "rhf"
			},
			{
				"type": "occ",
				"energy": -0.30115,
				"method": "rhf"
			},
			{
				"type": "occ",
				"energy": -0.29524,
				"method": "rhf"
			},
			{
				"type": "occ",
				"energy": -0.28225,
				"method": "rhf"
			},
			{
				"type": "occ",
				"energy": -0.25474,
				"method": "rhf"
			},
			{
				"type": "unocc",
				"energy": -0.05164,
				"method": "rhf"
			},
			{
				"type": "unocc",
				"energy": -0.04005,
				"method": "rhf"
			},
			{
				"type": "unocc",
				"energy": -0.00922,
				"method": "rhf"
			},
			{
				"type": "unocc",
				"energy": 0.00225,
				"method": "rhf"
			},
			{
				"type": "unocc",
				"energy": 0.11245,
				"method": "rhf"
			}
		],
		"cosmo_sigma_profile": { 
			"-0.025": 0.0,
			"-0.024": 0.0,
			"-0.023": 0.0,
			"-0.022": 0.0,
			"-0.021": 0.0,
			"-0.02": 0.0,
			"-0.019": 0.0,
			"-0.018": 0.0,
			"-0.017": 0.0,
			"-0.016": 0.0,
			"-0.015": 0.0,
			"-0.014": 0.0,
			"-0.013": 0.0,
			"-0.012": 0.0,
			"-0.011": 0.0,
			"-0.01": 0.188667979696,
			"-0.009": 2.81061963357,
			"-0.008": 5.90441283686,
			"-0.007": 5.52981503661,
			"-0.006": 4.9353211518,
			"-0.005": 6.62294901752,
			"-0.004": 7.44297261328,
			"-0.003": 8.9646582349,
			"-0.002": 12.4370339799,
			"-0.001": 21.6592447225,
			"0.0": 19.2446794035,
			"0.001": 11.3461454931,
			"0.002": 13.4986793477,
			"0.003": 16.9088765175,
			"0.004": 18.7485249521,
			"0.005": 4.36468307461,
			"0.006": 2.84997642613,
			"0.007": 1.48214523986,
			"0.008": 0.869876048333,
			"0.009": 1.24259438122,
			"0.01": 1.36936153034,
			"0.011": 0.412429358208,
			"0.012": 1.18523830456,
			"0.013": 0.729903635992,
			"0.014": 0.203817909267,
			"0.015": 0.0,
			"0.016": 0.0,
			"0.017": 0.0,
			"0.018": 0.0,
			"0.019": 0.0,
			"0.02": 0.0,
			"0.021": 0.0,
			"0.022": 0.0,
			"0.023": 0.0,
			"0.024": 0.0,
			"0.025": 0.0
		}
	}
}
