{
	 "smiles": "NC1(CCCCC1)C(O)=O", 
	 "Tm": 574.15, 
	 "num_atms": 23, 
	 "gaussian": { 
		 "optdone": 1, 
		 "sigma_profile": "yes", 
		 "theory": "DFT", 
		 "functional": "B3LYP", 
		 "basiset": "6-31G**", 
		 "properties": { 
			 "R2extent": 1589.7736, 
			 "electric_dipole_moment_norm": 3.67203210498, 
			 "electric_quadrupole_moment_norm": 10.7419929748, 
			 "total_energy": -479.790897905, 
			 "HOMO_LUMO_gap": 0.25773, 
			 "cosmo_polarized_energy": -13.14, 
			 "cosmo_cavitation_energy": 23.47, 
			 "cosmo_dispersion_energy": -17.63, 
			 "cosmo_repulsion_energy": 1.42, 
			 "cosmo_total_nonelectrostatic_energy": 7.27, 
			 "SMD_solvation_energy": 3.7 
		},
		"coords": [
			{
				"x": -2.0336883167,
				"y": 0.5729933052,
				"z": -1.7153573246,
				"element": "N" 
			},
			{
				"x": -0.797341155,
				"y": 0.2497948323,
				"z": -1.0010692592,
				"element": "C" 
			},
			{
				"x": -1.0899806153,
				"y": -0.934857157,
				"z": -0.0234655109,
				"element": "C" 
			},
			{
				"x": -0.4330424156,
				"y": -0.7739024346,
				"z": 1.356277552,
				"element": "C" 
			},
			{
				"x": -0.9114583095,
				"y": 0.5105028466,
				"z": 2.0692483935,
				"element": "C" 
			},
			{
				"x": -1.187145108,
				"y": 1.6641633942,
				"z": 1.07315003,
				"element": "C" 
			},
			{
				"x": -0.3560284184,
				"y": 1.5155235795,
				"z": -0.2047768423,
				"element": "C" 
			},
			{
				"x": 0.3288663633,
				"y": -0.1050696553,
				"z": -2.0022679442,
				"element": "C" 
			},
			{
				"x": 1.467050956,
				"y": -0.6441193243,
				"z": -1.4884054655,
				"element": "O" 
			},
			{
				"x": 0.251217394,
				"y": 0.1020677423,
				"z": -3.1893859567,
				"element": "O" 
			},
			{
				"x": -2.4163172465,
				"y": -0.2809223097,
				"z": -2.1188952765,
				"element": "H" 
			},
			{
				"x": -1.7891791052,
				"y": 1.1482574115,
				"z": -2.5206758881,
				"element": "H" 
			},
			{
				"x": -2.1759726132,
				"y": -0.9635947199,
				"z": 0.1171343477,
				"element": "H" 
			},
			{
				"x": -0.8087498318,
				"y": -1.8909866914,
				"z": -0.4807844485,
				"element": "H" 
			},
			{
				"x": -0.6449313283,
				"y": -1.655148165,
				"z": 1.970977992,
				"element": "H" 
			},
			{
				"x": 0.6642785277,
				"y": -0.7504478233,
				"z": 1.2634238215,
				"element": "H" 
			},
			{
				"x": -0.1586395864,
				"y": 0.8128783688,
				"z": 2.8062487041,
				"element": "H" 
			},
			{
				"x": -1.8243621979,
				"y": 0.2932010098,
				"z": 2.6355180653,
				"element": "H" 
			},
			{
				"x": -0.9865169247,
				"y": 2.6308395658,
				"z": 1.5468025023,
				"element": "H" 
			},
			{
				"x": -2.2419478007,
				"y": 1.6682702204,
				"z": 0.7800714947,
				"element": "H" 
			},
			{
				"x": 0.712399974,
				"y": 1.4598847561,
				"z": 0.0406140885,
				"element": "H" 
			},
			{
				"x": -0.4781456827,
				"y": 2.3872246927,
				"z": -0.8564662947,
				"element": "H" 
			},
			{
				"x": 1.3820334408,
				"y": -0.7604534445,
				"z": -0.5313167803,
				"element": "H" 
			}
		],
		 "valence_orbital": [ 
			{
				"type": "occ",
				"energy": -0.32411,
				"method": "rhf"
			},
			{
				"type": "occ",
				"energy": -0.31768,
				"method": "rhf"
			},
			{
				"type": "occ",
				"energy": -0.30966,
				"method": "rhf"
			},
			{
				"type": "occ",
				"energy": -0.26966,
				"method": "rhf"
			},
			{
				"type": "occ",
				"energy": -0.24696,
				"method": "rhf"
			},
			{
				"type": "unocc",
				"energy": 0.01077,
				"method": "rhf"
			},
			{
				"type": "unocc",
				"energy": 0.04206,
				"method": "rhf"
			},
			{
				"type": "unocc",
				"energy": 0.08533,
				"method": "rhf"
			},
			{
				"type": "unocc",
				"energy": 0.09889,
				"method": "rhf"
			},
			{
				"type": "unocc",
				"energy": 0.10831,
				"method": "rhf"
			}
		],
		"cosmo_sigma_profile": { 
			"-0.025": 0.0,
			"-0.024": 0.0,
			"-0.023": 0.0,
			"-0.022": 0.0,
			"-0.021": 0.0,
			"-0.02": 0.0,
			"-0.019": 0.0,
			"-0.018": 0.0,
			"-0.017": 0.0,
			"-0.016": 0.0346108516553,
			"-0.015": 0.825462695745,
			"-0.014": 0.914773291985,
			"-0.013": 1.29469592572,
			"-0.012": 1.16895466138,
			"-0.011": 0.928094124146,
			"-0.01": 2.48190700739,
			"-0.009": 2.32090687969,
			"-0.008": 3.12860580503,
			"-0.007": 5.17789466964,
			"-0.006": 5.55114336821,
			"-0.005": 7.48779373711,
			"-0.004": 8.2970206942,
			"-0.003": 17.1811361811,
			"-0.002": 24.1896843572,
			"-0.001": 25.7445395011,
			"0.0": 16.2364181973,
			"0.001": 10.5313437615,
			"0.002": 5.02223756339,
			"0.003": 2.55317374002,
			"0.004": 2.67453082277,
			"0.005": 2.86911035012,
			"0.006": 2.85355412833,
			"0.007": 3.20358368282,
			"0.008": 2.92978887208,
			"0.009": 4.40583902806,
			"0.01": 5.59222331267,
			"0.011": 5.82263348301,
			"0.012": 5.32928830514,
			"0.013": 2.43894878319,
			"0.014": 0.39916461528,
			"0.015": 0.551517228124,
			"0.016": 0.836915031313,
			"0.017": 0.194689588471,
			"0.018": 0.0,
			"0.019": 0.0,
			"0.02": 0.0,
			"0.021": 0.0,
			"0.022": 0.0,
			"0.023": 0.0,
			"0.024": 0.0,
			"0.025": 0.0
		}
	}
}
