{
	 "smiles": "CC1(C)C2CCC1(C)C(N=C1/C(=O)NC3=C1C=CC=C3)C2N=C1/C(=O)NC2=C1C=CC=C2", 
	 "Tm": 507.15, 
	 "num_atms": 58, 
	 "gaussian": { 
		 "optdone": 1, 
		 "sigma_profile": "yes", 
		 "theory": "DFT", 
		 "functional": "B3LYP", 
		 "basiset": "6-31G**", 
		 "properties": { 
			 "R2extent": 13111.8003, 
			 "electric_dipole_moment_norm": 4.73261117038, 
			 "electric_quadrupole_moment_norm": 16.4935279358, 
			 "total_energy": -1375.89783465, 
			 "HOMO_LUMO_gap": 0.14233, 
			 "cosmo_polarized_energy": -21.07, 
			 "cosmo_cavitation_energy": 57.42, 
			 "cosmo_dispersion_energy": -37.21, 
			 "cosmo_repulsion_energy": 2.75, 
			 "cosmo_total_nonelectrostatic_energy": 22.96, 
			 "SMD_solvation_energy": 8.26 
		},
		"coords": [
			{
				"x": 0.4602424009,
				"y": 5.2650617661,
				"z": -1.1576792643,
				"element": "C" 
			},
			{
				"x": 0.2399744869,
				"y": 3.7468991733,
				"z": -0.995000251,
				"element": "C" 
			},
			{
				"x": 0.0337380875,
				"y": 3.4961117699,
				"z": 0.5100150614,
				"element": "C" 
			},
			{
				"x": 1.3685064509,
				"y": 2.8871036673,
				"z": -1.637772709,
				"element": "C" 
			},
			{
				"x": 1.2793028162,
				"y": 3.2602642472,
				"z": -3.1342484688,
				"element": "C" 
			},
			{
				"x": -0.2567497478,
				"y": 3.4184843368,
				"z": -3.3509248795,
				"element": "C" 
			},
			{
				"x": -0.8706309803,
				"y": 3.1567828464,
				"z": -1.9431225216,
				"element": "C" 
			},
			{
				"x": -2.2919856025,
				"y": 3.6825376278,
				"z": -1.790447336,
				"element": "C" 
			},
			{
				"x": -0.7302520028,
				"y": 1.615158246,
				"z": -1.7263242125,
				"element": "C" 
			},
			{
				"x": -1.5449990414,
				"y": 1.1442720433,
				"z": -0.6198325173,
				"element": "N" 
			},
			{
				"x": -1.7482925625,
				"y": -0.0975833168,
				"z": -0.419301921,
				"element": "C" 
			},
			{
				"x": -1.2576089502,
				"y": -1.3040870591,
				"z": -1.2349920693,
				"element": "C" 
			},
			{
				"x": -0.5531464681,
				"y": -1.3223393397,
				"z": -2.2296165195,
				"element": "O" 
			},
			{
				"x": -1.8061593096,
				"y": -2.4119875912,
				"z": -0.6107812976,
				"element": "N" 
			},
			{
				"x": -2.5693283309,
				"y": -2.0653941222,
				"z": 0.5147669367,
				"element": "C" 
			},
			{
				"x": -2.5631016219,
				"y": -0.6653165439,
				"z": 0.6656880063,
				"element": "C" 
			},
			{
				"x": -3.2541378315,
				"y": -0.070218372,
				"z": 1.7149722768,
				"element": "C" 
			},
			{
				"x": -3.9521061134,
				"y": -0.8872784948,
				"z": 2.6112233859,
				"element": "C" 
			},
			{
				"x": -3.949433157,
				"y": -2.276748479,
				"z": 2.4488632983,
				"element": "C" 
			},
			{
				"x": -3.2560109425,
				"y": -2.8902236838,
				"z": 1.3962034259,
				"element": "C" 
			},
			{
				"x": 0.838772607,
				"y": 1.4176365588,
				"z": -1.5420334987,
				"element": "C" 
			},
			{
				"x": 1.1835551757,
				"y": 0.7391799363,
				"z": -0.3071187385,
				"element": "N" 
			},
			{
				"x": 2.3339216053,
				"y": 0.2137712857,
				"z": -0.138660965,
				"element": "C" 
			},
			{
				"x": 3.5301416844,
				"y": 0.163150036,
				"z": -1.1045790548,
				"element": "C" 
			},
			{
				"x": 3.6414204653,
				"y": 0.6523498538,
				"z": -2.2151623109,
				"element": "O" 
			},
			{
				"x": 4.4979527395,
				"y": -0.5742266452,
				"z": -0.4429261473,
				"element": "N" 
			},
			{
				"x": 4.0810940255,
				"y": -0.9755689228,
				"z": 0.8354980104,
				"element": "C" 
			},
			{
				"x": 2.769625885,
				"y": -0.5151397671,
				"z": 1.061411666,
				"element": "C" 
			},
			{
				"x": 2.1266218619,
				"y": -0.7888596054,
				"z": 2.2635592432,
				"element": "C" 
			},
			{
				"x": 2.80857779,
				"y": -1.5246725473,
				"z": 3.2386815144,
				"element": "C" 
			},
			{
				"x": 4.1119971311,
				"y": -1.9742623006,
				"z": 3.0012920379,
				"element": "C" 
			},
			{
				"x": 4.7711535103,
				"y": -1.707143818,
				"z": 1.7932970755,
				"element": "C" 
			},
			{
				"x": 0.5655040022,
				"y": 5.5946807258,
				"z": -2.192848069,
				"element": "H" 
			},
			{
				"x": 1.3641207221,
				"y": 5.5735622599,
				"z": -0.6196598579,
				"element": "H" 
			},
			{
				"x": -0.3781704157,
				"y": 5.8187325452,
				"z": -0.7208820431,
				"element": "H" 
			},
			{
				"x": -0.0667166875,
				"y": 2.4426185809,
				"z": 0.7667051224,
				"element": "H" 
			},
			{
				"x": 0.8870471786,
				"y": 3.8992111647,
				"z": 1.069388362,
				"element": "H" 
			},
			{
				"x": -0.8632427743,
				"y": 4.0158348691,
				"z": 0.8651956988,
				"element": "H" 
			},
			{
				"x": 2.366248457,
				"y": 3.0001894572,
				"z": -1.20697338,
				"element": "H" 
			},
			{
				"x": 1.7291431963,
				"y": 2.4904726661,
				"z": -3.766338828,
				"element": "H" 
			},
			{
				"x": 1.8142284432,
				"y": 4.1920764282,
				"z": -3.3384834224,
				"element": "H" 
			},
			{
				"x": -0.6523691474,
				"y": 2.7136335153,
				"z": -4.0903440522,
				"element": "H" 
			},
			{
				"x": -0.515549843,
				"y": 4.4206711659,
				"z": -3.7062957121,
				"element": "H" 
			},
			{
				"x": -2.9559272192,
				"y": 3.2341953743,
				"z": -2.5396650451,
				"element": "H" 
			},
			{
				"x": -2.7010748941,
				"y": 3.4446358582,
				"z": -0.8055910788,
				"element": "H" 
			},
			{
				"x": -2.3259594809,
				"y": 4.7684338308,
				"z": -1.9317111906,
				"element": "H" 
			},
			{
				"x": -1.0229306614,
				"y": 1.07718185,
				"z": -2.6353735815,
				"element": "H" 
			},
			{
				"x": -1.640857756,
				"y": -3.3509624513,
				"z": -0.9416267835,
				"element": "H" 
			},
			{
				"x": -3.2415840054,
				"y": 1.0098514063,
				"z": 1.8221665064,
				"element": "H" 
			},
			{
				"x": -4.4990728548,
				"y": -0.4428492236,
				"z": 3.4367962789,
				"element": "H" 
			},
			{
				"x": -4.4958934474,
				"y": -2.8990303849,
				"z": 3.1517343264,
				"element": "H" 
			},
			{
				"x": -3.2596158757,
				"y": -3.9695347658,
				"z": 1.2778672884,
				"element": "H" 
			},
			{
				"x": 1.2225794499,
				"y": 0.8420415674,
				"z": -2.3859891724,
				"element": "H" 
			},
			{
				"x": 5.401896448,
				"y": -0.7602409274,
				"z": -0.8513516771,
				"element": "H" 
			},
			{
				"x": 1.114583791,
				"y": -0.4314749101,
				"z": 2.426035622,
				"element": "H" 
			},
			{
				"x": 2.3258584242,
				"y": -1.7484987676,
				"z": 4.1847518313,
				"element": "H" 
			},
			{
				"x": 4.6294479136,
				"y": -2.5444563847,
				"z": 3.767427493,
				"element": "H" 
			},
			{
				"x": 5.7823509753,
				"y": -2.0612882358,
				"z": 1.6175181077,
				"element": "H" 
			}
		],
		 "valence_orbital": [ 
			{
				"type": "occ",
				"energy": -0.24777,
				"method": "rhf"
			},
			{
				"type": "occ",
				"energy": -0.23519,
				"method": "rhf"
			},
			{
				"type": "occ",
				"energy": -0.22297,
				"method": "rhf"
			},
			{
				"type": "occ",
				"energy": -0.22144,
				"method": "rhf"
			},
			{
				"type": "occ",
				"energy": -0.22062,
				"method": "rhf"
			},
			{
				"type": "unocc",
				"energy": -0.07829,
				"method": "rhf"
			},
			{
				"type": "unocc",
				"energy": -0.06854,
				"method": "rhf"
			},
			{
				"type": "unocc",
				"energy": -0.00842,
				"method": "rhf"
			},
			{
				"type": "unocc",
				"energy": -0.00657,
				"method": "rhf"
			},
			{
				"type": "unocc",
				"energy": 0.01903,
				"method": "rhf"
			}
		],
		"cosmo_sigma_profile": { 
			"-0.025": 0.0,
			"-0.024": 0.0,
			"-0.023": 0.0,
			"-0.022": 0.0,
			"-0.021": 0.0,
			"-0.02": 0.0,
			"-0.019": 0.0,
			"-0.018": 0.0,
			"-0.017": 0.0475811017851,
			"-0.016": 1.84374400311,
			"-0.015": 3.04784949166,
			"-0.014": 2.15788193112,
			"-0.013": 2.85623663614,
			"-0.012": 1.35934560769,
			"-0.011": 2.5249904866,
			"-0.01": 2.15274072053,
			"-0.009": 1.98507668837,
			"-0.008": 3.86691204596,
			"-0.007": 6.44816978242,
			"-0.006": 13.5659641029,
			"-0.005": 17.1603324126,
			"-0.004": 22.704630277,
			"-0.003": 31.2868928622,
			"-0.002": 41.977963583,
			"-0.001": 48.6348281496,
			"0.0": 46.2564524032,
			"0.001": 43.5230748919,
			"0.002": 41.4103851706,
			"0.003": 30.8905853473,
			"0.004": 29.9649226499,
			"0.005": 17.7298907208,
			"0.006": 7.72197366862,
			"0.007": 6.42068710374,
			"0.008": 5.85894164232,
			"0.009": 4.04961127274,
			"0.01": 4.12457578512,
			"0.011": 4.71258734185,
			"0.012": 5.64799056281,
			"0.013": 1.98107915123,
			"0.014": 0.0,
			"0.015": 0.0,
			"0.016": 0.0,
			"0.017": 0.0,
			"0.018": 0.0,
			"0.019": 0.0,
			"0.02": 0.0,
			"0.021": 0.0,
			"0.022": 0.0,
			"0.023": 0.0,
			"0.024": 0.0,
			"0.025": 0.0
		}
	}
}
