{
	 "smiles": "OC(=O)C1=CC(=O)N(N1)C1=CC=CC=C1", 
	 "Tm": 530.15, 
	 "num_atms": 23, 
	 "gaussian": { 
		 "optdone": 1, 
		 "sigma_profile": "yes", 
		 "theory": "DFT", 
		 "functional": "B3LYP", 
		 "basiset": "6-31G**", 
		 "properties": { 
			 "R2extent": 3995.4511, 
			 "electric_dipole_moment_norm": 4.62772414908, 
			 "electric_quadrupole_moment_norm": 10.6380374177, 
			 "total_energy": -721.030430582, 
			 "HOMO_LUMO_gap": 0.14836, 
			 "cosmo_polarized_energy": -22.1, 
			 "cosmo_cavitation_energy": 28.39, 
			 "cosmo_dispersion_energy": -20.77, 
			 "cosmo_repulsion_energy": 1.6, 
			 "cosmo_total_nonelectrostatic_energy": 9.22, 
			 "SMD_solvation_energy": 7.1 
		},
		"coords": [
			{
				"x": 3.2484818158,
				"y": -1.0855548386,
				"z": -1.7981641162,
				"element": "O" 
			},
			{
				"x": 3.3625228112,
				"y": -0.8436104228,
				"z": -0.4669698547,
				"element": "C" 
			},
			{
				"x": 4.4222619971,
				"y": -0.5962992892,
				"z": 0.0495838194,
				"element": "O" 
			},
			{
				"x": 2.0785506951,
				"y": -0.9026613163,
				"z": 0.283787568,
				"element": "C" 
			},
			{
				"x": 1.8676655673,
				"y": -1.1251130261,
				"z": 1.5969851059,
				"element": "C" 
			},
			{
				"x": 0.4202114336,
				"y": -1.1119592721,
				"z": 1.8409351606,
				"element": "C" 
			},
			{
				"x": -0.2088680793,
				"y": -1.2862744261,
				"z": 2.872566649,
				"element": "O" 
			},
			{
				"x": -0.1436825516,
				"y": -0.8662058201,
				"z": 0.5652904145,
				"element": "N" 
			},
			{
				"x": 0.8606324935,
				"y": -0.8051665095,
				"z": -0.4164674262,
				"element": "N" 
			},
			{
				"x": -1.5002454357,
				"y": -0.8954580812,
				"z": 0.1694651102,
				"element": "C" 
			},
			{
				"x": -1.8330986195,
				"y": -1.0902136183,
				"z": -1.1795072393,
				"element": "C" 
			},
			{
				"x": -3.1712234003,
				"y": -1.0814801793,
				"z": -1.5705661571,
				"element": "C" 
			},
			{
				"x": -4.1835415253,
				"y": -0.8911429752,
				"z": -0.6300728206,
				"element": "C" 
			},
			{
				"x": -3.8437700576,
				"y": -0.7094966004,
				"z": 0.7122336396,
				"element": "C" 
			},
			{
				"x": -2.5128003642,
				"y": -0.7032636213,
				"z": 1.1236824576,
				"element": "C" 
			},
			{
				"x": 2.3669032519,
				"y": -1.4463475922,
				"z": -1.9881433532,
				"element": "H" 
			},
			{
				"x": 2.6122663182,
				"y": -1.3237151677,
				"z": 2.3521629954,
				"element": "H" 
			},
			{
				"x": 0.7675960293,
				"y": 0.0474993998,
				"z": -0.9726392448,
				"element": "H" 
			},
			{
				"x": -1.0553543798,
				"y": -1.2726551971,
				"z": -1.9122931839,
				"element": "H" 
			},
			{
				"x": -3.4182044486,
				"y": -1.2347862663,
				"z": -2.6169992699,
				"element": "H" 
			},
			{
				"x": -5.2243851455,
				"y": -0.8884067339,
				"z": -0.9382186634,
				"element": "H" 
			},
			{
				"x": -4.6226811737,
				"y": -0.5643935636,
				"z": 1.4549987285,
				"element": "H" 
			},
			{
				"x": -2.2470372319,
				"y": -0.5705948826,
				"z": 2.1632496804,
				"element": "H" 
			}
		],
		 "valence_orbital": [ 
			{
				"type": "occ",
				"energy": -0.29918,
				"method": "rhf"
			},
			{
				"type": "occ",
				"energy": -0.27421,
				"method": "rhf"
			},
			{
				"type": "occ",
				"energy": -0.2676,
				"method": "rhf"
			},
			{
				"type": "occ",
				"energy": -0.26357,
				"method": "rhf"
			},
			{
				"type": "occ",
				"energy": -0.23033,
				"method": "rhf"
			},
			{
				"type": "unocc",
				"energy": -0.08197,
				"method": "rhf"
			},
			{
				"type": "unocc",
				"energy": -0.01594,
				"method": "rhf"
			},
			{
				"type": "unocc",
				"energy": -0.01122,
				"method": "rhf"
			},
			{
				"type": "unocc",
				"energy": 0.0224,
				"method": "rhf"
			},
			{
				"type": "unocc",
				"energy": 0.04133,
				"method": "rhf"
			}
		],
		"cosmo_sigma_profile": { 
			"-0.025": 0.0,
			"-0.024": 0.0,
			"-0.023": 0.0,
			"-0.022": 0.0,
			"-0.021": 0.0,
			"-0.02": 0.0,
			"-0.019": 0.0,
			"-0.018": 0.274508584423,
			"-0.017": 2.6755313283,
			"-0.016": 3.52907840873,
			"-0.015": 2.4703450867,
			"-0.014": 2.03216119445,
			"-0.013": 1.78769458365,
			"-0.012": 2.7699932905,
			"-0.011": 1.65422313266,
			"-0.01": 2.38601813998,
			"-0.009": 3.2816553613,
			"-0.008": 2.80696051517,
			"-0.007": 4.31655533706,
			"-0.006": 11.1230243008,
			"-0.005": 11.4950731129,
			"-0.004": 13.6674854992,
			"-0.003": 13.6036523405,
			"-0.002": 12.6331014143,
			"-0.001": 14.901029128,
			"0.0": 14.43172011,
			"0.001": 13.0485906133,
			"0.002": 11.3248098294,
			"0.003": 11.737376115,
			"0.004": 13.818194689,
			"0.005": 12.7485361895,
			"0.006": 4.30796653138,
			"0.007": 4.70645348656,
			"0.008": 5.9321101897,
			"0.009": 5.34329056646,
			"0.01": 6.85335395947,
			"0.011": 7.20730374653,
			"0.012": 4.05567649216,
			"0.013": 3.99630560796,
			"0.014": 1.36835857801,
			"0.015": 0.0014304639788,
			"0.016": 0.0,
			"0.017": 0.0,
			"0.018": 0.0,
			"0.019": 0.0,
			"0.02": 0.0,
			"0.021": 0.0,
			"0.022": 0.0,
			"0.023": 0.0,
			"0.024": 0.0,
			"0.025": 0.0
		}
	}
}
