{
	 "smiles": "CSC1=C(N)N(N=C1)C1=CC=CC=C1", 
	 "Tm": 351.15, 
	 "num_atms": 25, 
	 "gaussian": { 
		 "optdone": 1, 
		 "sigma_profile": "yes", 
		 "theory": "DFT", 
		 "functional": "B3LYP", 
		 "basiset": "6-31G**", 
		 "properties": { 
			 "R2extent": 4166.9541, 
			 "electric_dipole_moment_norm": 2.82819026411, 
			 "electric_quadrupole_moment_norm": 10.2388568522, 
			 "total_energy": -950.115929888, 
			 "HOMO_LUMO_gap": 0.19211, 
			 "cosmo_polarized_energy": -11.49, 
			 "cosmo_cavitation_energy": 30.38, 
			 "cosmo_dispersion_energy": -22.52, 
			 "cosmo_repulsion_energy": 1.73, 
			 "cosmo_total_nonelectrostatic_energy": 9.59, 
			 "SMD_solvation_energy": 4.77 
		},
		"coords": [
			{
				"x": 0.6685619354,
				"y": 3.4378881986,
				"z": 2.3967526967,
				"element": "C" 
			},
			{
				"x": 1.6658030359,
				"y": 1.9828289269,
				"z": 2.9195769603,
				"element": "S" 
			},
			{
				"x": 0.8455691972,
				"y": 0.6536822118,
				"z": 2.1082886578,
				"element": "C" 
			},
			{
				"x": 1.163938094,
				"y": 0.1536909015,
				"z": 0.8452324876,
				"element": "C" 
			},
			{
				"x": 2.0965715843,
				"y": 0.6276911356,
				"z": -0.0618395963,
				"element": "N" 
			},
			{
				"x": 0.3370596212,
				"y": -0.9127353615,
				"z": 0.6222351587,
				"element": "N" 
			},
			{
				"x": -0.4882491183,
				"y": -1.1515420098,
				"z": 1.7046157479,
				"element": "N" 
			},
			{
				"x": -0.1804067954,
				"y": -0.2086320422,
				"z": 2.5758972281,
				"element": "C" 
			},
			{
				"x": 0.2835132764,
				"y": -1.7882742724,
				"z": -0.4945767046,
				"element": "C" 
			},
			{
				"x": 0.5138198059,
				"y": -1.3148543786,
				"z": -1.7928729677,
				"element": "C" 
			},
			{
				"x": 0.4583449833,
				"y": -2.2032297338,
				"z": -2.8684600619,
				"element": "C" 
			},
			{
				"x": 0.1564654789,
				"y": -3.5492081738,
				"z": -2.6620121417,
				"element": "C" 
			},
			{
				"x": -0.0949224206,
				"y": -4.0073372249,
				"z": -1.3657325881,
				"element": "C" 
			},
			{
				"x": -0.0286347669,
				"y": -3.1369415095,
				"z": -0.2808367726,
				"element": "C" 
			},
			{
				"x": -0.3567763913,
				"y": 3.351109406,
				"z": 2.7609279051,
				"element": "H" 
			},
			{
				"x": 1.1378501949,
				"y": 4.3169148307,
				"z": 2.8459768289,
				"element": "H" 
			},
			{
				"x": 0.670005557,
				"y": 3.5425459238,
				"z": 1.3101162869,
				"element": "H" 
			},
			{
				"x": 2.7517878424,
				"y": 1.253345158,
				"z": 0.3968971151,
				"element": "H" 
			},
			{
				"x": 2.5718355172,
				"y": -0.0921326915,
				"z": -0.5941215631,
				"element": "H" 
			},
			{
				"x": -0.6956139196,
				"y": -0.1623850479,
				"z": 3.5267034896,
				"element": "H" 
			},
			{
				"x": 0.7084142106,
				"y": -0.2616304621,
				"z": -1.9607399728,
				"element": "H" 
			},
			{
				"x": 0.6365230663,
				"y": -1.8316882003,
				"z": -3.8734121342,
				"element": "H" 
			},
			{
				"x": 0.1098560332,
				"y": -4.2344165481,
				"z": -3.5029750144,
				"element": "H" 
			},
			{
				"x": -0.3384574498,
				"y": -5.0520353604,
				"z": -1.1955748278,
				"element": "H" 
			},
			{
				"x": -0.2252585722,
				"y": -3.4742536761,
				"z": 0.7295337824,
				"element": "H" 
			}
		],
		 "valence_orbital": [ 
			{
				"type": "occ",
				"energy": -0.28317,
				"method": "rhf"
			},
			{
				"type": "occ",
				"energy": -0.25845,
				"method": "rhf"
			},
			{
				"type": "occ",
				"energy": -0.22939,
				"method": "rhf"
			},
			{
				"type": "occ",
				"energy": -0.22641,
				"method": "rhf"
			},
			{
				"type": "occ",
				"energy": -0.21104,
				"method": "rhf"
			},
			{
				"type": "unocc",
				"energy": -0.01893,
				"method": "rhf"
			},
			{
				"type": "unocc",
				"energy": -0.01031,
				"method": "rhf"
			},
			{
				"type": "unocc",
				"energy": 0.03215,
				"method": "rhf"
			},
			{
				"type": "unocc",
				"energy": 0.04195,
				"method": "rhf"
			},
			{
				"type": "unocc",
				"energy": 0.07527,
				"method": "rhf"
			}
		],
		"cosmo_sigma_profile": { 
			"-0.025": 0.0,
			"-0.024": 0.0,
			"-0.023": 0.0,
			"-0.022": 0.0,
			"-0.021": 0.0,
			"-0.02": 0.0,
			"-0.019": 0.0,
			"-0.018": 0.0,
			"-0.017": 0.0,
			"-0.016": 0.0,
			"-0.015": 0.0,
			"-0.014": 0.0,
			"-0.013": 0.950964734312,
			"-0.012": 1.75308128549,
			"-0.011": 2.0970582715,
			"-0.01": 2.39642428644,
			"-0.009": 2.91736413098,
			"-0.008": 1.53466188065,
			"-0.007": 3.63559447567,
			"-0.006": 11.6404454251,
			"-0.005": 17.4096663778,
			"-0.004": 20.6828841369,
			"-0.003": 16.6851301311,
			"-0.002": 17.7436419565,
			"-0.001": 18.7611130401,
			"0.0": 15.6798358289,
			"0.001": 15.2488468419,
			"0.002": 16.0527254406,
			"0.003": 17.5511545355,
			"0.004": 19.2758532125,
			"0.005": 15.3572084668,
			"0.006": 6.5524635592,
			"0.007": 4.47028150967,
			"0.008": 5.01220502808,
			"0.009": 3.39270627961,
			"0.01": 2.10884395524,
			"0.011": 2.06002497556,
			"0.012": 1.23683561563,
			"0.013": 1.1639471981,
			"0.014": 0.809482687213,
			"0.015": 0.442132940948,
			"0.016": 0.0,
			"0.017": 0.0,
			"0.018": 0.0,
			"0.019": 0.0,
			"0.02": 0.0,
			"0.021": 0.0,
			"0.022": 0.0,
			"0.023": 0.0,
			"0.024": 0.0,
			"0.025": 0.0
		}
	}
}
