{
	 "smiles": "COC1=CC=C(OC(F)(F)F)C=C1C(C)=O", 
	 "Tm": 319.15, 
	 "num_atms": 25, 
	 "gaussian": { 
		 "optdone": 1, 
		 "sigma_profile": "yes", 
		 "theory": "DFT", 
		 "functional": "B3LYP", 
		 "basiset": "6-31G**", 
		 "properties": { 
			 "R2extent": 4558.1739, 
			 "electric_dipole_moment_norm": 5.95840563322, 
			 "electric_quadrupole_moment_norm": 7.72696006396, 
			 "total_energy": -911.670113362, 
			 "HOMO_LUMO_gap": 0.18114, 
			 "cosmo_polarized_energy": -9.94, 
			 "cosmo_cavitation_energy": 31.01, 
			 "cosmo_dispersion_energy": -21.71, 
			 "cosmo_repulsion_energy": 1.63, 
			 "cosmo_total_nonelectrostatic_energy": 10.93, 
			 "SMD_solvation_energy": 8.31 
		},
		"coords": [
			{
				"x": 0.8192144122,
				"y": 1.1666442321,
				"z": -3.3147592231,
				"element": "C" 
			},
			{
				"x": 1.4536167409,
				"y": 0.4375822805,
				"z": -2.2713125452,
				"element": "O" 
			},
			{
				"x": 0.7424248011,
				"y": 0.1179473913,
				"z": -1.1562376822,
				"element": "C" 
			},
			{
				"x": -0.6048819775,
				"y": 0.4785657135,
				"z": -0.994521212,
				"element": "C" 
			},
			{
				"x": -1.2985332223,
				"y": 0.1304759274,
				"z": 0.1609561875,
				"element": "C" 
			},
			{
				"x": -0.6424849284,
				"y": -0.5814325872,
				"z": 1.1601008841,
				"element": "C" 
			},
			{
				"x": -1.3575973357,
				"y": -0.9982069629,
				"z": 2.2959135039,
				"element": "O" 
			},
			{
				"x": -1.4005896641,
				"y": -0.1350929855,
				"z": 3.341645988,
				"element": "C" 
			},
			{
				"x": -0.1759524344,
				"y": 0.163229303,
				"z": 3.813298597,
				"element": "F" 
			},
			{
				"x": -1.9938950708,
				"y": 1.033203769,
				"z": 3.015924719,
				"element": "F" 
			},
			{
				"x": -2.1060494606,
				"y": -0.7108985843,
				"z": 4.3142096514,
				"element": "F" 
			},
			{
				"x": 0.6851812198,
				"y": -0.9463668701,
				"z": 1.0168339982,
				"element": "C" 
			},
			{
				"x": 1.40706612,
				"y": -0.6097765061,
				"z": -0.1372212735,
				"element": "C" 
			},
			{
				"x": 2.8443538033,
				"y": -1.0750105132,
				"z": -0.1610148348,
				"element": "C" 
			},
			{
				"x": 3.7544307468,
				"y": -0.7695447901,
				"z": -1.3318304932,
				"element": "C" 
			},
			{
				"x": 3.2739842428,
				"y": -1.7106379959,
				"z": 0.7913308825,
				"element": "O" 
			},
			{
				"x": 1.5792142578,
				"y": 1.3017350928,
				"z": -4.0852192732,
				"element": "H" 
			},
			{
				"x": 0.4760676843,
				"y": 2.1489382832,
				"z": -2.9685621961,
				"element": "H" 
			},
			{
				"x": -0.028252432,
				"y": 0.6123315405,
				"z": -3.7355615479,
				"element": "H" 
			},
			{
				"x": -1.1221376157,
				"y": 1.0312227285,
				"z": -1.7682375181,
				"element": "H" 
			},
			{
				"x": -2.3400596511,
				"y": 0.4044557202,
				"z": 0.2870336542,
				"element": "H" 
			},
			{
				"x": 1.1969877054,
				"y": -1.5053587255,
				"z": 1.7913599204,
				"element": "H" 
			},
			{
				"x": 3.8357054549,
				"y": 0.3089530638,
				"z": -1.4947429675,
				"element": "H" 
			},
			{
				"x": 3.3547451144,
				"y": -1.1915829957,
				"z": -2.2583953085,
				"element": "H" 
			},
			{
				"x": 4.7351414889,
				"y": -1.1948755295,
				"z": -1.1149919112,
				"element": "H" 
			}
		],
		 "valence_orbital": [ 
			{
				"type": "occ",
				"energy": -0.3352,
				"method": "rhf"
			},
			{
				"type": "occ",
				"energy": -0.33168,
				"method": "rhf"
			},
			{
				"type": "occ",
				"energy": -0.2711,
				"method": "rhf"
			},
			{
				"type": "occ",
				"energy": -0.25026,
				"method": "rhf"
			},
			{
				"type": "occ",
				"energy": -0.24117,
				"method": "rhf"
			},
			{
				"type": "unocc",
				"energy": -0.06003,
				"method": "rhf"
			},
			{
				"type": "unocc",
				"energy": -0.00941,
				"method": "rhf"
			},
			{
				"type": "unocc",
				"energy": 0.03089,
				"method": "rhf"
			},
			{
				"type": "unocc",
				"energy": 0.07501,
				"method": "rhf"
			},
			{
				"type": "unocc",
				"energy": 0.08695,
				"method": "rhf"
			}
		],
		"cosmo_sigma_profile": { 
			"-0.025": 0.0,
			"-0.024": 0.0,
			"-0.023": 0.0,
			"-0.022": 0.0,
			"-0.021": 0.0,
			"-0.02": 0.0,
			"-0.019": 0.0,
			"-0.018": 0.0,
			"-0.017": 0.0,
			"-0.016": 0.0,
			"-0.015": 0.0,
			"-0.014": 0.0,
			"-0.013": 0.0,
			"-0.012": 0.0,
			"-0.011": 0.0,
			"-0.01": 0.0,
			"-0.009": 0.0806356355677,
			"-0.008": 2.11194353358,
			"-0.007": 6.70772734051,
			"-0.006": 12.039225962,
			"-0.005": 14.7294186215,
			"-0.004": 17.959467677,
			"-0.003": 16.1500028559,
			"-0.002": 15.3144059196,
			"-0.001": 20.6529495237,
			"0.0": 21.5966573821,
			"0.001": 33.0750091699,
			"0.002": 45.598023296,
			"0.003": 15.800897226,
			"0.004": 3.04015084275,
			"0.005": 3.18030866661,
			"0.006": 3.91515356681,
			"0.007": 2.33342947181,
			"0.008": 1.477131295,
			"0.009": 1.77667869216,
			"0.01": 2.14866196488,
			"0.011": 2.81263308056,
			"0.012": 3.60190426483,
			"0.013": 1.36569390018,
			"0.014": 0.121849319283,
			"0.015": 0.0,
			"0.016": 0.0,
			"0.017": 0.0,
			"0.018": 0.0,
			"0.019": 0.0,
			"0.02": 0.0,
			"0.021": 0.0,
			"0.022": 0.0,
			"0.023": 0.0,
			"0.024": 0.0,
			"0.025": 0.0
		}
	}
}
