{
	 "smiles": "NC1=CC(=CC=C1)S(=O)(=O)NC1=NCCC1", 
	 "Tm": 440.15, 
	 "num_atms": 29, 
	 "gaussian": { 
		 "optdone": 1, 
		 "sigma_profile": "yes", 
		 "theory": "DFT", 
		 "functional": "B3LYP", 
		 "basiset": "6-31G**", 
		 "properties": { 
			 "R2extent": 4533.3228, 
			 "electric_dipole_moment_norm": 5.4390756108, 
			 "electric_quadrupole_moment_norm": 25.2548093507, 
			 "total_energy": -1101.7177977, 
			 "HOMO_LUMO_gap": 0.18504, 
			 "cosmo_polarized_energy": -19.28, 
			 "cosmo_cavitation_energy": 33.47, 
			 "cosmo_dispersion_energy": -24.66, 
			 "cosmo_repulsion_energy": 1.91, 
			 "cosmo_total_nonelectrostatic_energy": 10.72, 
			 "SMD_solvation_energy": 1.27 
		},
		"coords": [
			{
				"x": 0.6173742191,
				"y": -2.2003181107,
				"z": -3.8485573461,
				"element": "N" 
			},
			{
				"x": 0.6736416098,
				"y": -2.243204734,
				"z": -2.461039286,
				"element": "C" 
			},
			{
				"x": -0.4364582946,
				"y": -1.8673032918,
				"z": -1.6868981461,
				"element": "C" 
			},
			{
				"x": -0.3370821046,
				"y": -1.871401014,
				"z": -0.2968776353,
				"element": "C" 
			},
			{
				"x": 0.8283846164,
				"y": -2.2522998321,
				"z": 0.3687712477,
				"element": "C" 
			},
			{
				"x": 1.9277772223,
				"y": -2.6249581383,
				"z": -0.4086888386,
				"element": "C" 
			},
			{
				"x": 1.8594293023,
				"y": -2.6167725382,
				"z": -1.7980522787,
				"element": "C" 
			},
			{
				"x": -1.772757881,
				"y": -1.3682647369,
				"z": 0.6596319407,
				"element": "S" 
			},
			{
				"x": -1.5542215533,
				"y": -1.7854571656,
				"z": 2.0431837154,
				"element": "O" 
			},
			{
				"x": -2.9716807555,
				"y": -1.7330805965,
				"z": -0.0939323667,
				"element": "O" 
			},
			{
				"x": -1.7949013572,
				"y": 0.3222770912,
				"z": 0.6352398131,
				"element": "N" 
			},
			{
				"x": -0.9044763801,
				"y": 1.2069989813,
				"z": 1.2507773752,
				"element": "C" 
			},
			{
				"x": -0.814082626,
				"y": 2.4060114449,
				"z": 0.8172886447,
				"element": "N" 
			},
			{
				"x": 0.143719271,
				"y": 3.1278772722,
				"z": 1.6656730475,
				"element": "C" 
			},
			{
				"x": 0.412448959,
				"y": 2.2339845005,
				"z": 2.9064083861,
				"element": "C" 
			},
			{
				"x": -0.0484466728,
				"y": 0.8350083262,
				"z": 2.4457085138,
				"element": "C" 
			},
			{
				"x": -0.3060487746,
				"y": -2.2380216491,
				"z": -4.2561625184,
				"element": "H" 
			},
			{
				"x": 1.2821820945,
				"y": -2.7829421648,
				"z": -4.3370079127,
				"element": "H" 
			},
			{
				"x": -1.3736776505,
				"y": -1.5976386261,
				"z": -2.1636043085,
				"element": "H" 
			},
			{
				"x": 0.8557537546,
				"y": -2.2830410358,
				"z": 1.4509677126,
				"element": "H" 
			},
			{
				"x": 2.8485398513,
				"y": -2.9346261067,
				"z": 0.0768031956,
				"element": "H" 
			},
			{
				"x": 2.7267112731,
				"y": -2.9077436342,
				"z": -2.3851325016,
				"element": "H" 
			},
			{
				"x": -2.2696272488,
				"y": 0.7033670177,
				"z": -0.1773307537,
				"element": "H" 
			},
			{
				"x": 1.0581057559,
				"y": 3.3112087223,
				"z": 1.0841960974,
				"element": "H" 
			},
			{
				"x": -0.259958607,
				"y": 4.1103794229,
				"z": 1.932941461,
				"element": "H" 
			},
			{
				"x": 1.4564460709,
				"y": 2.2540438275,
				"z": 3.2295724066,
				"element": "H" 
			},
			{
				"x": -0.2000577023,
				"y": 2.567215495,
				"z": 3.7501734257,
				"element": "H" 
			},
			{
				"x": 0.7880143312,
				"y": 0.2043860928,
				"z": 2.1190607162,
				"element": "H" 
			},
			{
				"x": -0.6017507231,
				"y": 0.2670151806,
				"z": 3.1956861931,
				"element": "H" 
			}
		],
		 "valence_orbital": [ 
			{
				"type": "occ",
				"energy": -0.30709,
				"method": "rhf"
			},
			{
				"type": "occ",
				"energy": -0.27505,
				"method": "rhf"
			},
			{
				"type": "occ",
				"energy": -0.26008,
				"method": "rhf"
			},
			{
				"type": "occ",
				"energy": -0.24161,
				"method": "rhf"
			},
			{
				"type": "occ",
				"energy": -0.22444,
				"method": "rhf"
			},
			{
				"type": "unocc",
				"energy": -0.0394,
				"method": "rhf"
			},
			{
				"type": "unocc",
				"energy": -0.00899,
				"method": "rhf"
			},
			{
				"type": "unocc",
				"energy": 0.01674,
				"method": "rhf"
			},
			{
				"type": "unocc",
				"energy": 0.05776,
				"method": "rhf"
			},
			{
				"type": "unocc",
				"energy": 0.06691,
				"method": "rhf"
			}
		],
		"cosmo_sigma_profile": { 
			"-0.025": 0.0,
			"-0.024": 0.0,
			"-0.023": 0.0,
			"-0.022": 0.0,
			"-0.021": 0.0,
			"-0.02": 0.0,
			"-0.019": 0.0,
			"-0.018": 0.0,
			"-0.017": 0.0,
			"-0.016": 0.00557138344729,
			"-0.015": 0.891025139049,
			"-0.014": 0.57851506675,
			"-0.013": 2.97660572707,
			"-0.012": 4.42391329527,
			"-0.011": 4.01667239457,
			"-0.01": 3.7890632794,
			"-0.009": 3.78005619369,
			"-0.008": 4.42194081667,
			"-0.007": 6.54213586769,
			"-0.006": 7.85059172239,
			"-0.005": 11.0677586624,
			"-0.004": 19.2991685252,
			"-0.003": 25.3672012799,
			"-0.002": 23.1215242649,
			"-0.001": 19.3560837128,
			"0.0": 16.646894023,
			"0.001": 11.4755756321,
			"0.002": 13.8014010753,
			"0.003": 16.6797196615,
			"0.004": 15.671099048,
			"0.005": 6.64307365565,
			"0.006": 5.70128564454,
			"0.007": 5.6230230719,
			"0.008": 3.73384466377,
			"0.009": 7.10566615253,
			"0.01": 10.1628343291,
			"0.011": 7.41869149816,
			"0.012": 2.32037898503,
			"0.013": 1.33144509053,
			"0.014": 1.24579910533,
			"0.015": 0.838907206541,
			"0.016": 0.580243181177,
			"0.017": 0.571888897769,
			"0.018": 0.0,
			"0.019": 0.0,
			"0.02": 0.0,
			"0.021": 0.0,
			"0.022": 0.0,
			"0.023": 0.0,
			"0.024": 0.0,
			"0.025": 0.0
		}
	}
}
