{
	 "smiles": "CC(=O)N1C(=O)C(=O)C2=CC=CC=C12", 
	 "Tm": 415.15, 
	 "num_atms": 21, 
	 "gaussian": { 
		 "optdone": 1, 
		 "sigma_profile": "yes", 
		 "theory": "DFT", 
		 "functional": "B3LYP", 
		 "basiset": "6-31G**", 
		 "properties": { 
			 "R2extent": 3070.3263, 
			 "electric_dipole_moment_norm": 7.53267244343, 
			 "electric_quadrupole_moment_norm": 12.4687937841, 
			 "total_energy": -665.699992724, 
			 "HOMO_LUMO_gap": 0.14163, 
			 "cosmo_polarized_energy": -18.97, 
			 "cosmo_cavitation_energy": 26.21, 
			 "cosmo_dispersion_energy": -19.02, 
			 "cosmo_repulsion_energy": 1.47, 
			 "cosmo_total_nonelectrostatic_energy": 8.66, 
			 "SMD_solvation_energy": 6.8 
		},
		"coords": [
			{
				"x": 1.362375727,
				"y": 1.269829523,
				"z": -0.621038313,
				"element": "C" 
			},
			{
				"x": 0.0708032149,
				"y": 1.7098677549,
				"z": 0.0429169498,
				"element": "C" 
			},
			{
				"x": -0.2062812964,
				"y": 2.8763018531,
				"z": 0.1944895003,
				"element": "O" 
			},
			{
				"x": -0.7969439067,
				"y": 0.6932393269,
				"z": 0.5458767737,
				"element": "N" 
			},
			{
				"x": -1.6585180405,
				"y": 0.930426427,
				"z": 1.6642267967,
				"element": "C" 
			},
			{
				"x": -1.804755009,
				"y": 1.9540032632,
				"z": 2.2742907467,
				"element": "O" 
			},
			{
				"x": -2.3251357293,
				"y": -0.4406427114,
				"z": 1.9826853291,
				"element": "C" 
			},
			{
				"x": -3.1086032045,
				"y": -0.6209306801,
				"z": 2.8892664725,
				"element": "O" 
			},
			{
				"x": -1.7988636538,
				"y": -1.3684672865,
				"z": 0.9807263223,
				"element": "C" 
			},
			{
				"x": -2.1011877863,
				"y": -2.7122210492,
				"z": 0.7761265526,
				"element": "C" 
			},
			{
				"x": -1.507000914,
				"y": -3.3767916229,
				"z": -0.2954567561,
				"element": "C" 
			},
			{
				"x": -0.6446507858,
				"y": -2.6761974617,
				"z": -1.1454561722,
				"element": "C" 
			},
			{
				"x": -0.3398083099,
				"y": -1.3222697766,
				"z": -0.9519992438,
				"element": "C" 
			},
			{
				"x": -0.9106837925,
				"y": -0.6680757288,
				"z": 0.1388392695,
				"element": "C" 
			},
			{
				"x": 2.0853858934,
				"y": 2.0713485822,
				"z": -0.4630892443,
				"element": "H" 
			},
			{
				"x": 1.2191255045,
				"y": 1.1666405614,
				"z": -1.7020051801,
				"element": "H" 
			},
			{
				"x": 1.75284965,
				"y": 0.3296895005,
				"z": -0.2265688466,
				"element": "H" 
			},
			{
				"x": -2.7933211008,
				"y": -3.2097524006,
				"z": 1.4485110671,
				"element": "H" 
			},
			{
				"x": -1.7184543016,
				"y": -4.424773793,
				"z": -0.4800330799,
				"element": "H" 
			},
			{
				"x": -0.1978242334,
				"y": -3.1894690877,
				"z": -1.9920005105,
				"element": "H" 
			},
			{
				"x": 0.3121920746,
				"y": -0.8204551936,
				"z": -1.6527084337,
				"element": "H" 
			}
		],
		 "valence_orbital": [ 
			{
				"type": "occ",
				"energy": -0.32026,
				"method": "rhf"
			},
			{
				"type": "occ",
				"energy": -0.2881,
				"method": "rhf"
			},
			{
				"type": "occ",
				"energy": -0.28454,
				"method": "rhf"
			},
			{
				"type": "occ",
				"energy": -0.25429,
				"method": "rhf"
			},
			{
				"type": "occ",
				"energy": -0.24902,
				"method": "rhf"
			},
			{
				"type": "unocc",
				"energy": -0.10739,
				"method": "rhf"
			},
			{
				"type": "unocc",
				"energy": -0.04213,
				"method": "rhf"
			},
			{
				"type": "unocc",
				"energy": -0.03067,
				"method": "rhf"
			},
			{
				"type": "unocc",
				"energy": 0.01178,
				"method": "rhf"
			},
			{
				"type": "unocc",
				"energy": 0.06739,
				"method": "rhf"
			}
		],
		"cosmo_sigma_profile": { 
			"-0.025": 0.0,
			"-0.024": 0.0,
			"-0.023": 0.0,
			"-0.022": 0.0,
			"-0.021": 0.0,
			"-0.02": 0.0,
			"-0.019": 0.0,
			"-0.018": 0.0,
			"-0.017": 0.0,
			"-0.016": 0.0,
			"-0.015": 0.0,
			"-0.014": 0.0,
			"-0.013": 0.0,
			"-0.012": 0.0,
			"-0.011": 0.00563085187579,
			"-0.01": 1.34470520138,
			"-0.009": 3.73519049574,
			"-0.008": 7.90046261964,
			"-0.007": 14.0159542514,
			"-0.006": 19.2498798678,
			"-0.005": 15.7718912589,
			"-0.004": 14.1685284875,
			"-0.003": 14.0041216165,
			"-0.002": 13.7731734205,
			"-0.001": 10.7430630665,
			"0.0": 11.7363359338,
			"0.001": 13.2165908647,
			"0.002": 12.2089486243,
			"0.003": 4.65648826376,
			"0.004": 3.69340517951,
			"0.005": 3.62742450768,
			"0.006": 3.15626246739,
			"0.007": 4.01338025614,
			"0.008": 5.53155602418,
			"0.009": 8.17327985907,
			"0.01": 11.6207378117,
			"0.011": 8.69457860712,
			"0.012": 3.16359424308,
			"0.013": 1.88758803594,
			"0.014": 0.977030426728,
			"0.015": 0.212969910259,
			"0.016": 0.0,
			"0.017": 0.0,
			"0.018": 0.0,
			"0.019": 0.0,
			"0.02": 0.0,
			"0.021": 0.0,
			"0.022": 0.0,
			"0.023": 0.0,
			"0.024": 0.0,
			"0.025": 0.0
		}
	}
}
