{
	 "smiles": "O=C1CC2=CC3=C(C=C12)C(=O)C3", 
	 "Tm": 480.15, 
	 "num_atms": 18, 
	 "gaussian": { 
		 "optdone": 1, 
		 "sigma_profile": "yes", 
		 "theory": "DFT", 
		 "functional": "B3LYP", 
		 "basiset": "6-31G**", 
		 "properties": { 
			 "R2extent": 2173.143, 
			 "electric_dipole_moment_norm": 4.10799161148, 
			 "electric_quadrupole_moment_norm": 14.6680128235, 
			 "total_energy": -535.045290139, 
			 "HOMO_LUMO_gap": 0.17232, 
			 "cosmo_polarized_energy": -11.47, 
			 "cosmo_cavitation_energy": 23.37, 
			 "cosmo_dispersion_energy": -17.19, 
			 "cosmo_repulsion_energy": 1.4, 
			 "cosmo_total_nonelectrostatic_energy": 7.57, 
			 "SMD_solvation_energy": 4.83 
		},
		"coords": [
			{
				"x": 2.9076636309,
				"y": -0.4349233597,
				"z": 1.878543601,
				"element": "O" 
			},
			{
				"x": 2.2842405565,
				"y": -0.5291002629,
				"z": 0.8533964482,
				"element": "C" 
			},
			{
				"x": 2.6032985481,
				"y": -1.1220872742,
				"z": -0.5694575456,
				"element": "C" 
			},
			{
				"x": 1.1829081595,
				"y": -0.6788806703,
				"z": -0.9075531577,
				"element": "C" 
			},
			{
				"x": 0.2636235785,
				"y": -0.6649791464,
				"z": -1.9555262765,
				"element": "C" 
			},
			{
				"x": -0.9470756655,
				"y": -0.0741752139,
				"z": -1.5967932056,
				"element": "C" 
			},
			{
				"x": -1.209836423,
				"y": 0.4517105411,
				"z": -0.3111532177,
				"element": "C" 
			},
			{
				"x": -0.2954993528,
				"y": 0.4419379928,
				"z": 0.743520923,
				"element": "C" 
			},
			{
				"x": 0.9134671942,
				"y": -0.1511291478,
				"z": 0.37593824,
				"element": "C" 
			},
			{
				"x": -2.5937687799,
				"y": 0.8557673739,
				"z": -0.7250617041,
				"element": "C" 
			},
			{
				"x": -3.5368962733,
				"y": 1.3946219868,
				"z": -0.2067977665,
				"element": "O" 
			},
			{
				"x": -2.3203018665,
				"y": 0.2755916149,
				"z": -2.1626192431,
				"element": "C" 
			},
			{
				"x": 3.413292338,
				"y": -0.6128421868,
				"z": -1.103012637,
				"element": "H" 
			},
			{
				"x": 2.7933097903,
				"y": -2.200920196,
				"z": -0.5801798803,
				"element": "H" 
			},
			{
				"x": 0.4679663659,
				"y": -1.0695095165,
				"z": -2.9419107562,
				"element": "H" 
			},
			{
				"x": -0.499720635,
				"y": 0.8462467176,
				"z": 1.7293598293,
				"element": "H" 
			},
			{
				"x": -2.9618040398,
				"y": -0.5672352664,
				"z": -2.442296751,
				"element": "H" 
			},
			{
				"x": -2.3418671261,
				"y": 1.0208060138,
				"z": -2.9652969001,
				"element": "H" 
			}
		],
		 "valence_orbital": [ 
			{
				"type": "occ",
				"energy": -0.35131,
				"method": "rhf"
			},
			{
				"type": "occ",
				"energy": -0.285,
				"method": "rhf"
			},
			{
				"type": "occ",
				"energy": -0.26967,
				"method": "rhf"
			},
			{
				"type": "occ",
				"energy": -0.26742,
				"method": "rhf"
			},
			{
				"type": "occ",
				"energy": -0.25248,
				"method": "rhf"
			},
			{
				"type": "unocc",
				"energy": -0.08016,
				"method": "rhf"
			},
			{
				"type": "unocc",
				"energy": -0.06315,
				"method": "rhf"
			},
			{
				"type": "unocc",
				"energy": 0.02218,
				"method": "rhf"
			},
			{
				"type": "unocc",
				"energy": 0.04039,
				"method": "rhf"
			},
			{
				"type": "unocc",
				"energy": 0.09702,
				"method": "rhf"
			}
		],
		"cosmo_sigma_profile": { 
			"-0.025": 0.0,
			"-0.024": 0.0,
			"-0.023": 0.0,
			"-0.022": 0.0,
			"-0.021": 0.0,
			"-0.02": 0.0,
			"-0.019": 0.0,
			"-0.018": 0.0,
			"-0.017": 0.0,
			"-0.016": 0.0,
			"-0.015": 0.0,
			"-0.014": 0.0,
			"-0.013": 0.0,
			"-0.012": 0.0,
			"-0.011": 0.0,
			"-0.01": 0.0,
			"-0.009": 1.03973381104,
			"-0.008": 2.91805619369,
			"-0.007": 8.10477416536,
			"-0.006": 15.4022238304,
			"-0.005": 15.1569010565,
			"-0.004": 15.0470762747,
			"-0.003": 18.1194943014,
			"-0.002": 17.6579988668,
			"-0.001": 14.1659667059,
			"0.0": 14.1701098879,
			"0.001": 15.5492468782,
			"0.002": 5.51845021386,
			"0.003": 2.82267964938,
			"0.004": 2.82051097636,
			"0.005": 2.50700318321,
			"0.006": 3.28509575179,
			"0.007": 3.46224436214,
			"0.008": 4.17539274737,
			"0.009": 4.47638139758,
			"0.01": 6.90024903368,
			"0.011": 10.6933045852,
			"0.012": 4.69886369378,
			"0.013": 0.093540798733,
			"0.014": 0.0,
			"0.015": 0.0,
			"0.016": 0.0,
			"0.017": 0.0,
			"0.018": 0.0,
			"0.019": 0.0,
			"0.02": 0.0,
			"0.021": 0.0,
			"0.022": 0.0,
			"0.023": 0.0,
			"0.024": 0.0,
			"0.025": 0.0
		}
	}
}
