{
	 "smiles": "CC(NC(=O)C1=CC(F)=C(C)C(N)=C1)C1=CC=CC=C1", 
	 "Tm": 370.15, 
	 "num_atms": 37, 
	 "gaussian": { 
		 "optdone": 1, 
		 "sigma_profile": "yes", 
		 "theory": "DFT", 
		 "functional": "B3LYP", 
		 "basiset": "6-31G**", 
		 "properties": { 
			 "R2extent": 6879.8858, 
			 "electric_dipole_moment_norm": 5.75780446872, 
			 "electric_quadrupole_moment_norm": 24.5343677259, 
			 "total_energy": -904.539089654, 
			 "HOMO_LUMO_gap": 0.18302, 
			 "cosmo_polarized_energy": -18.75, 
			 "cosmo_cavitation_energy": 41.06, 
			 "cosmo_dispersion_energy": -27.57, 
			 "cosmo_repulsion_energy": 2.13, 
			 "cosmo_total_nonelectrostatic_energy": 15.61, 
			 "SMD_solvation_energy": 7.45 
		},
		"coords": [
			{
				"x": -0.0624319265,
				"y": -1.5669027565,
				"z": -2.800730165,
				"element": "C" 
			},
			{
				"x": -0.4285648432,
				"y": -0.6632627491,
				"z": -1.6154256069,
				"element": "C" 
			},
			{
				"x": -0.3352969057,
				"y": 0.7531686932,
				"z": -2.0202193336,
				"element": "N" 
			},
			{
				"x": 0.0750270894,
				"y": 1.8119120078,
				"z": -1.2301935863,
				"element": "C" 
			},
			{
				"x": -0.4077352675,
				"y": 2.9291370468,
				"z": -1.3779242254,
				"element": "O" 
			},
			{
				"x": 1.1799203967,
				"y": 1.5760681249,
				"z": -0.2376437674,
				"element": "C" 
			},
			{
				"x": 1.1157594183,
				"y": 2.2656968809,
				"z": 0.9767078593,
				"element": "C" 
			},
			{
				"x": 2.1585356829,
				"y": 2.1015320009,
				"z": 1.8759885775,
				"element": "C" 
			},
			{
				"x": 2.0844435833,
				"y": 2.7561951213,
				"z": 3.0600292265,
				"element": "F" 
			},
			{
				"x": 3.2826158417,
				"y": 1.3114982302,
				"z": 1.634950341,
				"element": "C" 
			},
			{
				"x": 4.3976867939,
				"y": 1.2013935248,
				"z": 2.6411109223,
				"element": "C" 
			},
			{
				"x": 3.3413030099,
				"y": 0.6413897926,
				"z": 0.3920130559,
				"element": "C" 
			},
			{
				"x": 4.4761088411,
				"y": -0.0978068027,
				"z": 0.059612711,
				"element": "N" 
			},
			{
				"x": 2.287203644,
				"y": 0.7725573765,
				"z": -0.527118385,
				"element": "C" 
			},
			{
				"x": -1.7980391608,
				"y": -0.9860034881,
				"z": -1.0212290728,
				"element": "C" 
			},
			{
				"x": -1.9279819338,
				"y": -1.2228244656,
				"z": 0.3524900792,
				"element": "C" 
			},
			{
				"x": -3.1746360832,
				"y": -1.4972487841,
				"z": 0.918205759,
				"element": "C" 
			},
			{
				"x": -4.3141123231,
				"y": -1.535157135,
				"z": 0.1142738614,
				"element": "C" 
			},
			{
				"x": -4.19834142,
				"y": -1.2976659704,
				"z": -1.2572052342,
				"element": "C" 
			},
			{
				"x": -2.9506318676,
				"y": -1.0276325704,
				"z": -1.8188970262,
				"element": "C" 
			},
			{
				"x": 0.9512171425,
				"y": -1.3458984706,
				"z": -3.1479932443,
				"element": "H" 
			},
			{
				"x": -0.1170458334,
				"y": -2.6210481291,
				"z": -2.5129368518,
				"element": "H" 
			},
			{
				"x": -0.7419349837,
				"y": -1.4159068605,
				"z": -3.6459196715,
				"element": "H" 
			},
			{
				"x": 0.3136795063,
				"y": -0.8097836852,
				"z": -0.8292335168,
				"element": "H" 
			},
			{
				"x": -1.0812672379,
				"y": 1.060091341,
				"z": -2.6369436363,
				"element": "H" 
			},
			{
				"x": 0.2830577424,
				"y": 2.9190112768,
				"z": 1.2049023948,
				"element": "H" 
			},
			{
				"x": 4.5164514294,
				"y": 0.1719860574,
				"z": 3.007360744,
				"element": "H" 
			},
			{
				"x": 4.2012137834,
				"y": 1.8360107118,
				"z": 3.5052844688,
				"element": "H" 
			},
			{
				"x": 5.3560227515,
				"y": 1.5041476737,
				"z": 2.2021072259,
				"element": "H" 
			},
			{
				"x": 4.9920116948,
				"y": -0.4907664079,
				"z": 0.8336743493,
				"element": "H" 
			},
			{
				"x": 4.3545828946,
				"y": -0.7587298891,
				"z": -0.6945258408,
				"element": "H" 
			},
			{
				"x": 2.3578161218,
				"y": 0.2758084727,
				"z": -1.4906011863,
				"element": "H" 
			},
			{
				"x": -1.0451893393,
				"y": -1.1873509219,
				"z": 0.9862463534,
				"element": "H" 
			},
			{
				"x": -3.2541803256,
				"y": -1.6787830941,
				"z": 1.986314469,
				"element": "H" 
			},
			{
				"x": -5.2855150285,
				"y": -1.7468102022,
				"z": 0.551563885,
				"element": "H" 
			},
			{
				"x": -5.0805001254,
				"y": -1.3244601698,
				"z": -1.8906614314,
				"element": "H" 
			},
			{
				"x": -2.8799527627,
				"y": -0.8490617809,
				"z": -2.8892345007,
				"element": "H" 
			}
		],
		 "valence_orbital": [ 
			{
				"type": "occ",
				"energy": -0.25447,
				"method": "rhf"
			},
			{
				"type": "occ",
				"energy": -0.24609,
				"method": "rhf"
			},
			{
				"type": "occ",
				"energy": -0.24025,
				"method": "rhf"
			},
			{
				"type": "occ",
				"energy": -0.23555,
				"method": "rhf"
			},
			{
				"type": "occ",
				"energy": -0.20978,
				"method": "rhf"
			},
			{
				"type": "unocc",
				"energy": -0.02676,
				"method": "rhf"
			},
			{
				"type": "unocc",
				"energy": -0.0085,
				"method": "rhf"
			},
			{
				"type": "unocc",
				"energy": -0.00456,
				"method": "rhf"
			},
			{
				"type": "unocc",
				"energy": 0.0117,
				"method": "rhf"
			},
			{
				"type": "unocc",
				"energy": 0.05615,
				"method": "rhf"
			}
		],
		"cosmo_sigma_profile": { 
			"-0.025": 0.0,
			"-0.024": 0.0,
			"-0.023": 0.0,
			"-0.022": 0.0,
			"-0.021": 0.0,
			"-0.02": 0.0,
			"-0.019": 0.0,
			"-0.018": 0.0,
			"-0.017": 0.0,
			"-0.016": 0.0,
			"-0.015": 0.0,
			"-0.014": 0.0,
			"-0.013": 0.491705021036,
			"-0.012": 2.68020623445,
			"-0.011": 4.3209628681,
			"-0.01": 4.92038305542,
			"-0.009": 4.56708669971,
			"-0.008": 4.39952378339,
			"-0.007": 4.96334536301,
			"-0.006": 9.07668725218,
			"-0.005": 18.7875003885,
			"-0.004": 26.3583602665,
			"-0.003": 26.318093594,
			"-0.002": 22.542196477,
			"-0.001": 26.4594220415,
			"0.0": 26.2216034367,
			"0.001": 23.912162068,
			"0.002": 21.9197145545,
			"0.003": 21.6431426617,
			"0.004": 23.6906041329,
			"0.005": 17.9011978581,
			"0.006": 9.47049585576,
			"0.007": 2.66625588,
			"0.008": 3.22454598276,
			"0.009": 1.86495500343,
			"0.01": 2.10940146029,
			"0.011": 2.48902510673,
			"0.012": 2.00780843928,
			"0.013": 5.84094377892,
			"0.014": 4.18178001162,
			"0.015": 0.324748949484,
			"0.016": 0.0,
			"0.017": 0.0,
			"0.018": 0.0,
			"0.019": 0.0,
			"0.02": 0.0,
			"0.021": 0.0,
			"0.022": 0.0,
			"0.023": 0.0,
			"0.024": 0.0,
			"0.025": 0.0
		}
	}
}
