{
	 "smiles": "CCCCN1CCOCC1", 
	 "Tm": 216.05, 
	 "num_atms": 27, 
	 "gaussian": { 
		 "optdone": 1, 
		 "sigma_profile": "yes", 
		 "theory": "DFT", 
		 "functional": "B3LYP", 
		 "basiset": "6-31G**", 
		 "properties": { 
			 "R2extent": 2071.4915, 
			 "electric_dipole_moment_norm": 1.2040421961, 
			 "electric_quadrupole_moment_norm": 5.5600285377, 
			 "total_energy": -445.047602026, 
			 "HOMO_LUMO_gap": 0.28135, 
			 "cosmo_polarized_energy": -5.13, 
			 "cosmo_cavitation_energy": 26.87, 
			 "cosmo_dispersion_energy": -19.61, 
			 "cosmo_repulsion_energy": 1.61, 
			 "cosmo_total_nonelectrostatic_energy": 8.87, 
			 "SMD_solvation_energy": 2.64 
		},
		"coords": [
			{
				"x": 0.7786979881,
				"y": -3.1756942616,
				"z": -2.6052250346,
				"element": "C" 
			},
			{
				"x": 1.4904975666,
				"y": -1.8233598652,
				"z": -2.4856762207,
				"element": "C" 
			},
			{
				"x": 2.067180002,
				"y": -1.5352750572,
				"z": -1.0904912526,
				"element": "C" 
			},
			{
				"x": 1.0184879179,
				"y": -1.3999042056,
				"z": 0.0247571357,
				"element": "C" 
			},
			{
				"x": 0.0230712414,
				"y": -0.3635501517,
				"z": -0.246174839,
				"element": "N" 
			},
			{
				"x": -1.1889541686,
				"y": -0.4442387312,
				"z": 0.5896166533,
				"element": "C" 
			},
			{
				"x": -1.193603052,
				"y": 0.578965632,
				"z": 1.7249929237,
				"element": "C" 
			},
			{
				"x": -1.1260444665,
				"y": 1.9170274771,
				"z": 1.2312625182,
				"element": "O" 
			},
			{
				"x": -0.4875399661,
				"y": 2.0347201177,
				"z": -0.0383656495,
				"element": "C" 
			},
			{
				"x": 0.600639816,
				"y": 0.9873906978,
				"z": -0.2439155176,
				"element": "C" 
			},
			{
				"x": 0.4461630683,
				"y": -3.3550550188,
				"z": -3.6330097191,
				"element": "H" 
			},
			{
				"x": -0.1075518633,
				"y": -3.2246429595,
				"z": -1.9643284021,
				"element": "H" 
			},
			{
				"x": 1.4419103004,
				"y": -4.0021370586,
				"z": -2.3225179981,
				"element": "H" 
			},
			{
				"x": 0.7911372538,
				"y": -1.022908077,
				"z": -2.7526980923,
				"element": "H" 
			},
			{
				"x": 2.3096966584,
				"y": -1.7831737848,
				"z": -3.2149294255,
				"element": "H" 
			},
			{
				"x": 2.7567314547,
				"y": -2.3399478342,
				"z": -0.8006131815,
				"element": "H" 
			},
			{
				"x": 2.6758856575,
				"y": -0.623376027,
				"z": -1.1325152721,
				"element": "H" 
			},
			{
				"x": 0.4864090381,
				"y": -2.3515609,
				"z": 0.1312171877,
				"element": "H" 
			},
			{
				"x": 1.5487353899,
				"y": -1.2246593858,
				"z": 0.9833446745,
				"element": "H" 
			},
			{
				"x": -1.2774243173,
				"y": -1.4534094268,
				"z": 1.0047919184,
				"element": "H" 
			},
			{
				"x": -2.0796217166,
				"y": -0.2795504938,
				"z": -0.0326875178,
				"element": "H" 
			},
			{
				"x": -2.1158748953,
				"y": 0.5011438865,
				"z": 2.3125087566,
				"element": "H" 
			},
			{
				"x": -0.3491114454,
				"y": 0.3862652112,
				"z": 2.4061744736,
				"element": "H" 
			},
			{
				"x": -0.0547564583,
				"y": 3.0395152753,
				"z": -0.0800041759,
				"element": "H" 
			},
			{
				"x": -1.227743284,
				"y": 1.956198692,
				"z": -0.8503182303,
				"element": "H" 
			},
			{
				"x": 1.3565829925,
				"y": 1.1077486294,
				"z": 0.5562237368,
				"element": "H" 
			},
			{
				"x": 1.1120992878,
				"y": 1.18136762,
				"z": -1.1951194499,
				"element": "H" 
			}
		],
		 "valence_orbital": [ 
			{
				"type": "occ",
				"energy": -0.32141,
				"method": "rhf"
			},
			{
				"type": "occ",
				"energy": -0.31589,
				"method": "rhf"
			},
			{
				"type": "occ",
				"energy": -0.29631,
				"method": "rhf"
			},
			{
				"type": "occ",
				"energy": -0.24256,
				"method": "rhf"
			},
			{
				"type": "occ",
				"energy": -0.2046,
				"method": "rhf"
			},
			{
				"type": "unocc",
				"energy": 0.07675,
				"method": "rhf"
			},
			{
				"type": "unocc",
				"energy": 0.1,
				"method": "rhf"
			},
			{
				"type": "unocc",
				"energy": 0.10654,
				"method": "rhf"
			},
			{
				"type": "unocc",
				"energy": 0.11777,
				"method": "rhf"
			},
			{
				"type": "unocc",
				"energy": 0.12463,
				"method": "rhf"
			}
		],
		"cosmo_sigma_profile": { 
			"-0.025": 0.0,
			"-0.024": 0.0,
			"-0.023": 0.0,
			"-0.022": 0.0,
			"-0.021": 0.0,
			"-0.02": 0.0,
			"-0.019": 0.0,
			"-0.018": 0.0,
			"-0.017": 0.0,
			"-0.016": 0.0,
			"-0.015": 0.0,
			"-0.014": 0.0,
			"-0.013": 0.0,
			"-0.012": 0.0,
			"-0.011": 0.0,
			"-0.01": 0.0,
			"-0.009": 0.0,
			"-0.008": 0.0,
			"-0.007": 0.0,
			"-0.006": 0.0,
			"-0.005": 3.79130016045,
			"-0.004": 11.3399730768,
			"-0.003": 25.6064617438,
			"-0.002": 38.8070782947,
			"-0.001": 35.4105938527,
			"0.0": 30.0462155073,
			"0.001": 22.4093543225,
			"0.002": 12.5114504785,
			"0.003": 4.23356478492,
			"0.004": 1.69323211588,
			"0.005": 3.12297398708,
			"0.006": 2.32089074871,
			"0.007": 1.81816966613,
			"0.008": 2.05182980704,
			"0.009": 2.1484784184,
			"0.01": 1.62217335262,
			"0.011": 1.94305606312,
			"0.012": 1.81221115913,
			"0.013": 1.7720785086,
			"0.014": 1.74016132224,
			"0.015": 0.150148998293,
			"0.016": 0.0,
			"0.017": 0.0,
			"0.018": 0.0,
			"0.019": 0.0,
			"0.02": 0.0,
			"0.021": 0.0,
			"0.022": 0.0,
			"0.023": 0.0,
			"0.024": 0.0,
			"0.025": 0.0
		}
	}
}
