{
	 "smiles": "S=C1SC2=C(S1)N=C1C=CC=CC1=N2", 
	 "Tm": 453.15, 
	 "num_atms": 18, 
	 "gaussian": { 
		 "optdone": 1, 
		 "sigma_profile": "yes", 
		 "theory": "DFT", 
		 "functional": "B3LYP", 
		 "basiset": "6-31G**", 
		 "properties": { 
			 "R2extent": 5058.7018, 
			 "electric_dipole_moment_norm": 4.9290369536, 
			 "electric_quadrupole_moment_norm": 6.17922653412, 
			 "total_energy": -1649.4288609, 
			 "HOMO_LUMO_gap": 0.14024, 
			 "cosmo_polarized_energy": -7.0, 
			 "cosmo_cavitation_energy": 28.02, 
			 "cosmo_dispersion_energy": -22.65, 
			 "cosmo_repulsion_energy": 1.6, 
			 "cosmo_total_nonelectrostatic_energy": 6.97, 
			 "SMD_solvation_energy": -0.46 
		},
		"coords": [
			{
				"x": 3.7699937942,
				"y": 2.0316099627,
				"z": 3.3165802754,
				"element": "S" 
			},
			{
				"x": 2.4552708799,
				"y": 1.6448769186,
				"z": 2.4171618934,
				"element": "C" 
			},
			{
				"x": 2.0207844827,
				"y": -0.0262531634,
				"z": 2.0207532059,
				"element": "S" 
			},
			{
				"x": 0.5688530612,
				"y": 0.3452269952,
				"z": 1.0793678445,
				"element": "C" 
			},
			{
				"x": 0.2446745296,
				"y": 1.7395446545,
				"z": 0.9537251706,
				"element": "C" 
			},
			{
				"x": 1.3490662819,
				"y": 2.8628899936,
				"z": 1.760404117,
				"element": "S" 
			},
			{
				"x": -0.7965831897,
				"y": 2.1606014496,
				"z": 0.2885361299,
				"element": "N" 
			},
			{
				"x": -1.578036173,
				"y": 1.2010019259,
				"z": -0.2929453169,
				"element": "C" 
			},
			{
				"x": -2.7240452188,
				"y": 1.5860078815,
				"z": -1.0301521456,
				"element": "C" 
			},
			{
				"x": -3.5156816903,
				"y": 0.6234605098,
				"z": -1.6186471509,
				"element": "C" 
			},
			{
				"x": -3.1958839993,
				"y": -0.7520095706,
				"z": -1.4947081247,
				"element": "C" 
			},
			{
				"x": -2.0866532888,
				"y": -1.1554578002,
				"z": -0.7831255107,
				"element": "C" 
			},
			{
				"x": -1.2549172047,
				"y": -0.1887443267,
				"z": -0.167723263,
				"element": "C" 
			},
			{
				"x": -0.1558526002,
				"y": -0.5952386839,
				"z": 0.5368628877,
				"element": "N" 
			},
			{
				"x": -2.9472628937,
				"y": 2.6447058389,
				"z": -1.1103009743,
				"element": "H" 
			},
			{
				"x": -4.3947512997,
				"y": 0.916993913,
				"z": -2.1842714342,
				"element": "H" 
			},
			{
				"x": -3.8346604128,
				"y": -1.4919869646,
				"z": -1.9672044484,
				"element": "H" 
			},
			{
				"x": -1.8205150584,
				"y": -2.2015295338,
				"z": -0.6736131558,
				"element": "H" 
			}
		],
		 "valence_orbital": [ 
			{
				"type": "occ",
				"energy": -0.29606,
				"method": "rhf"
			},
			{
				"type": "occ",
				"energy": -0.27559,
				"method": "rhf"
			},
			{
				"type": "occ",
				"energy": -0.25726,
				"method": "rhf"
			},
			{
				"type": "occ",
				"energy": -0.24087,
				"method": "rhf"
			},
			{
				"type": "occ",
				"energy": -0.24067,
				"method": "rhf"
			},
			{
				"type": "unocc",
				"energy": -0.10043,
				"method": "rhf"
			},
			{
				"type": "unocc",
				"energy": -0.07224,
				"method": "rhf"
			},
			{
				"type": "unocc",
				"energy": -0.04484,
				"method": "rhf"
			},
			{
				"type": "unocc",
				"energy": -0.03467,
				"method": "rhf"
			},
			{
				"type": "unocc",
				"energy": -0.01021,
				"method": "rhf"
			}
		],
		"cosmo_sigma_profile": { 
			"-0.025": 0.0,
			"-0.024": 0.0,
			"-0.023": 0.0,
			"-0.022": 0.0,
			"-0.021": 0.0,
			"-0.02": 0.0,
			"-0.019": 0.0,
			"-0.018": 0.0,
			"-0.017": 0.0,
			"-0.016": 0.0,
			"-0.015": 0.0,
			"-0.014": 0.0,
			"-0.013": 0.0,
			"-0.012": 0.0,
			"-0.011": 0.0,
			"-0.01": 0.0,
			"-0.009": 0.0242147313475,
			"-0.008": 1.33034958333,
			"-0.007": 8.5316380453,
			"-0.006": 10.8259540351,
			"-0.005": 13.7821789353,
			"-0.004": 10.6068823987,
			"-0.003": 12.0532615831,
			"-0.002": 18.1391965179,
			"-0.001": 26.8019113977,
			"0.0": 30.8696049008,
			"0.001": 28.7151050426,
			"0.002": 22.0024751046,
			"0.003": 13.3465171193,
			"0.004": 10.2572658026,
			"0.005": 8.21058063945,
			"0.006": 6.01476041088,
			"0.007": 5.65845697886,
			"0.008": 3.6509514392,
			"0.009": 1.43060924169,
			"0.01": 1.81053252889,
			"0.011": 1.08859739575,
			"0.012": 0.0641452565409,
			"0.013": 0.0,
			"0.014": 0.0,
			"0.015": 0.0,
			"0.016": 0.0,
			"0.017": 0.0,
			"0.018": 0.0,
			"0.019": 0.0,
			"0.02": 0.0,
			"0.021": 0.0,
			"0.022": 0.0,
			"0.023": 0.0,
			"0.024": 0.0,
			"0.025": 0.0
		}
	}
}
