{
	 "smiles": "ClCC(=O)C1=CC=C(C=C1)N1CCOC1=O", 
	 "Tm": 441.15, 
	 "num_atms": 26, 
	 "gaussian": { 
		 "optdone": 1, 
		 "sigma_profile": "yes", 
		 "theory": "DFT", 
		 "functional": "B3LYP", 
		 "basiset": "6-31G**", 
		 "properties": { 
			 "R2extent": 7081.5354, 
			 "electric_dipole_moment_norm": 8.30297301212, 
			 "electric_quadrupole_moment_norm": 16.5486598463, 
			 "total_energy": -1165.82300524, 
			 "HOMO_LUMO_gap": 0.17558, 
			 "cosmo_polarized_energy": -22.18, 
			 "cosmo_cavitation_energy": 31.92, 
			 "cosmo_dispersion_energy": -23.96, 
			 "cosmo_repulsion_energy": 1.85, 
			 "cosmo_total_nonelectrostatic_energy": 9.81, 
			 "SMD_solvation_energy": 6.41 
		},
		"coords": [
			{
				"x": 2.683404025,
				"y": 2.6968483831,
				"z": -5.4053555805,
				"element": "Cl" 
			},
			{
				"x": 2.1451860966,
				"y": 1.6664302008,
				"z": -4.0447606904,
				"element": "C" 
			},
			{
				"x": 0.7945392834,
				"y": 2.0978357473,
				"z": -3.4548216395,
				"element": "C" 
			},
			{
				"x": 0.1795266676,
				"y": 3.0500637876,
				"z": -3.895097352,
				"element": "O" 
			},
			{
				"x": 0.2764125644,
				"y": 1.2872230539,
				"z": -2.3129692012,
				"element": "C" 
			},
			{
				"x": 0.9483461697,
				"y": 0.1842411958,
				"z": -1.76834984,
				"element": "C" 
			},
			{
				"x": 0.408924274,
				"y": -0.5268542413,
				"z": -0.7012349822,
				"element": "C" 
			},
			{
				"x": -0.8275632627,
				"y": -0.1516163336,
				"z": -0.1449789055,
				"element": "C" 
			},
			{
				"x": -1.5107585457,
				"y": 0.9570112677,
				"z": -0.6864124784,
				"element": "C" 
			},
			{
				"x": -0.958507493,
				"y": 1.6527797294,
				"z": -1.7500689069,
				"element": "C" 
			},
			{
				"x": -1.3354696497,
				"y": -0.8767179455,
				"z": 0.9480983091,
				"element": "N" 
			},
			{
				"x": -0.6183311136,
				"y": -1.9920393854,
				"z": 1.55766062,
				"element": "C" 
			},
			{
				"x": -1.5094594708,
				"y": -2.292432437,
				"z": 2.7711467339,
				"element": "C" 
			},
			{
				"x": -2.7819127091,
				"y": -1.7197752004,
				"z": 2.4416740217,
				"element": "O" 
			},
			{
				"x": -2.6433119069,
				"y": -0.8086863566,
				"z": 1.4357789092,
				"element": "C" 
			},
			{
				"x": -3.5452242626,
				"y": -0.0953463522,
				"z": 1.0732935015,
				"element": "O" 
			},
			{
				"x": 2.0814913319,
				"y": 0.6389908289,
				"z": -4.4122829095,
				"element": "H" 
			},
			{
				"x": 2.9194390347,
				"y": 1.7044602879,
				"z": -3.2742109611,
				"element": "H" 
			},
			{
				"x": 1.9035209797,
				"y": -0.1411147435,
				"z": -2.168049822,
				"element": "H" 
			},
			{
				"x": 0.9553157712,
				"y": -1.3773056391,
				"z": -0.3114755253,
				"element": "H" 
			},
			{
				"x": -2.4653256372,
				"y": 1.2488805492,
				"z": -0.273192802,
				"element": "H" 
			},
			{
				"x": -1.4781954004,
				"y": 2.506938173,
				"z": -2.1708785621,
				"element": "H" 
			},
			{
				"x": -0.5511426522,
				"y": -2.8431014793,
				"z": 0.8669941078,
				"element": "H" 
			},
			{
				"x": 0.3942173504,
				"y": -1.70445719,
				"z": 1.8541738608,
				"element": "H" 
			},
			{
				"x": -1.6446712704,
				"y": -3.3596303417,
				"z": 2.9543031374,
				"element": "H" 
			},
			{
				"x": -1.1333501742,
				"y": -1.8140255588,
				"z": 3.6819169571,
				"element": "H" 
			}
		],
		 "valence_orbital": [ 
			{
				"type": "occ",
				"energy": -0.29655,
				"method": "rhf"
			},
			{
				"type": "occ",
				"energy": -0.29314,
				"method": "rhf"
			},
			{
				"type": "occ",
				"energy": -0.27203,
				"method": "rhf"
			},
			{
				"type": "occ",
				"energy": -0.26094,
				"method": "rhf"
			},
			{
				"type": "occ",
				"energy": -0.24007,
				"method": "rhf"
			},
			{
				"type": "unocc",
				"energy": -0.06449,
				"method": "rhf"
			},
			{
				"type": "unocc",
				"energy": -0.02138,
				"method": "rhf"
			},
			{
				"type": "unocc",
				"energy": 0.01383,
				"method": "rhf"
			},
			{
				"type": "unocc",
				"energy": 0.02553,
				"method": "rhf"
			},
			{
				"type": "unocc",
				"energy": 0.04867,
				"method": "rhf"
			}
		],
		"cosmo_sigma_profile": { 
			"-0.025": 0.0,
			"-0.024": 0.0,
			"-0.023": 0.0,
			"-0.022": 0.0,
			"-0.021": 0.0,
			"-0.02": 0.0,
			"-0.019": 0.0,
			"-0.018": 0.0,
			"-0.017": 0.0,
			"-0.016": 0.0,
			"-0.015": 0.0,
			"-0.014": 0.0,
			"-0.013": 0.0,
			"-0.012": 0.0,
			"-0.011": 0.0,
			"-0.01": 0.591513800513,
			"-0.009": 7.82075975416,
			"-0.008": 13.3963995098,
			"-0.007": 23.4995349138,
			"-0.006": 20.4208050315,
			"-0.005": 15.4752914793,
			"-0.004": 12.4543867491,
			"-0.003": 8.95822069638,
			"-0.002": 9.56586967721,
			"-0.001": 11.8896849828,
			"0.0": 13.8245647082,
			"0.001": 13.25255898,
			"0.002": 15.6701172368,
			"0.003": 19.3182246488,
			"0.004": 10.0282150773,
			"0.005": 9.85343335183,
			"0.006": 10.9770102652,
			"0.007": 5.85906577064,
			"0.008": 5.4901435453,
			"0.009": 5.93650691038,
			"0.01": 7.12830755485,
			"0.011": 7.7064662018,
			"0.012": 6.13939178046,
			"0.013": 2.15314999432,
			"0.014": 0.0702209605976,
			"0.015": 0.0,
			"0.016": 0.0,
			"0.017": 0.0,
			"0.018": 0.0,
			"0.019": 0.0,
			"0.02": 0.0,
			"0.021": 0.0,
			"0.022": 0.0,
			"0.023": 0.0,
			"0.024": 0.0,
			"0.025": 0.0
		}
	}
}
