{
	 "smiles": "COC1=CC=C(C=C1)C1=CC(=CN=C1)C(O)=O", 
	 "Tm": 552.15, 
	 "num_atms": 28, 
	 "gaussian": { 
		 "optdone": 1, 
		 "sigma_profile": "yes", 
		 "theory": "DFT", 
		 "functional": "B3LYP", 
		 "basiset": "6-31G**", 
		 "properties": { 
			 "R2extent": 6000.2355, 
			 "electric_dipole_moment_norm": 5.10932479101, 
			 "electric_quadrupole_moment_norm": 6.55734718922, 
			 "total_energy": -782.442088133, 
			 "HOMO_LUMO_gap": 0.16116, 
			 "cosmo_polarized_energy": -14.18, 
			 "cosmo_cavitation_energy": 33.19, 
			 "cosmo_dispersion_energy": -24.22, 
			 "cosmo_repulsion_energy": 1.85, 
			 "cosmo_total_nonelectrostatic_energy": 10.83, 
			 "SMD_solvation_energy": 6.06 
		},
		"coords": [
			{
				"x": 1.8961993883,
				"y": 3.0734058129,
				"z": 4.7266720512,
				"element": "C" 
			},
			{
				"x": 2.7547695874,
				"y": 2.4822923016,
				"z": 3.7630491885,
				"element": "O" 
			},
			{
				"x": 2.1935939218,
				"y": 1.7611406835,
				"z": 2.7527595798,
				"element": "C" 
			},
			{
				"x": 0.8190312188,
				"y": 1.549843989,
				"z": 2.5897031263,
				"element": "C" 
			},
			{
				"x": 0.3603790107,
				"y": 0.7906826179,
				"z": 1.5122759248,
				"element": "C" 
			},
			{
				"x": 1.2410653099,
				"y": 0.2286270747,
				"z": 0.5782189839,
				"element": "C" 
			},
			{
				"x": 2.6193247382,
				"y": 0.4548518319,
				"z": 0.7609108196,
				"element": "C" 
			},
			{
				"x": 3.0908399715,
				"y": 1.2060952009,
				"z": 1.8271574077,
				"element": "C" 
			},
			{
				"x": 0.7405781602,
				"y": -0.5762221221,
				"z": -0.5595097954,
				"element": "C" 
			},
			{
				"x": -0.4462537266,
				"y": -0.2577972917,
				"z": -1.2317290361,
				"element": "C" 
			},
			{
				"x": -0.8703421538,
				"y": -1.057210981,
				"z": -2.2962737493,
				"element": "C" 
			},
			{
				"x": -0.0809946873,
				"y": -2.1540568735,
				"z": -2.6677565296,
				"element": "C" 
			},
			{
				"x": 1.0525801301,
				"y": -2.4802036598,
				"z": -2.0421146698,
				"element": "N" 
			},
			{
				"x": 1.4363817556,
				"y": -1.7110274444,
				"z": -1.0177458049,
				"element": "C" 
			},
			{
				"x": -2.1133283011,
				"y": -0.7865993005,
				"z": -3.0633985611,
				"element": "C" 
			},
			{
				"x": -2.7867059359,
				"y": 0.3013762203,
				"z": -2.6108325821,
				"element": "O" 
			},
			{
				"x": -2.5106480928,
				"y": -1.4510221471,
				"z": -3.9990857968,
				"element": "O" 
			},
			{
				"x": 1.3155320958,
				"y": 2.3167574277,
				"z": 5.2696771915,
				"element": "H" 
			},
			{
				"x": 2.5468067233,
				"y": 3.597375347,
				"z": 5.4282726787,
				"element": "H" 
			},
			{
				"x": 1.2070165046,
				"y": 3.7933412235,
				"z": 4.2670165523,
				"element": "H" 
			},
			{
				"x": 0.1034597454,
				"y": 1.9578971276,
				"z": 3.293500399,
				"element": "H" 
			},
			{
				"x": -0.7071952502,
				"y": 0.6146548563,
				"z": 1.4158228875,
				"element": "H" 
			},
			{
				"x": 3.3290454012,
				"y": 0.057364163,
				"z": 0.041488291,
				"element": "H" 
			},
			{
				"x": 4.1519198904,
				"y": 1.3885379844,
				"z": 1.9615257953,
				"element": "H" 
			},
			{
				"x": -1.0265203892,
				"y": 0.6127690251,
				"z": -0.9466671064,
				"element": "H" 
			},
			{
				"x": -0.3920756936,
				"y": -2.7785343791,
				"z": -3.5008876776,
				"element": "H" 
			},
			{
				"x": 2.348609943,
				"y": -2.0202781242,
				"z": -0.5105434849,
				"element": "H" 
			},
			{
				"x": -3.5697692656,
				"y": 0.3827394361,
				"z": -3.179906083,
				"element": "H" 
			}
		],
		 "valence_orbital": [ 
			{
				"type": "occ",
				"energy": -0.28503,
				"method": "rhf"
			},
			{
				"type": "occ",
				"energy": -0.274,
				"method": "rhf"
			},
			{
				"type": "occ",
				"energy": -0.26109,
				"method": "rhf"
			},
			{
				"type": "occ",
				"energy": -0.25779,
				"method": "rhf"
			},
			{
				"type": "occ",
				"energy": -0.21904,
				"method": "rhf"
			},
			{
				"type": "unocc",
				"energy": -0.05788,
				"method": "rhf"
			},
			{
				"type": "unocc",
				"energy": -0.03854,
				"method": "rhf"
			},
			{
				"type": "unocc",
				"energy": -0.01188,
				"method": "rhf"
			},
			{
				"type": "unocc",
				"energy": 0.01055,
				"method": "rhf"
			},
			{
				"type": "unocc",
				"energy": 0.05537,
				"method": "rhf"
			}
		],
		"cosmo_sigma_profile": { 
			"-0.025": 0.0,
			"-0.024": 0.0,
			"-0.023": 0.0,
			"-0.022": 0.0,
			"-0.021": 0.0,
			"-0.02": 0.0,
			"-0.019": 0.146175887093,
			"-0.018": 1.12420047418,
			"-0.017": 0.622021680579,
			"-0.016": 0.732826520517,
			"-0.015": 0.787834302411,
			"-0.014": 0.778436163965,
			"-0.013": 0.571113605588,
			"-0.012": 0.731699859431,
			"-0.011": 1.14044606578,
			"-0.01": 0.579183919983,
			"-0.009": 0.247558514205,
			"-0.008": 0.704784422611,
			"-0.007": 6.5427168698,
			"-0.006": 17.7667382836,
			"-0.005": 20.5218745294,
			"-0.004": 19.9124684591,
			"-0.003": 20.8807632632,
			"-0.002": 15.656543487,
			"-0.001": 18.2764865942,
			"0.0": 24.8294240014,
			"0.001": 19.2359335532,
			"0.002": 14.0047511612,
			"0.003": 15.6911711242,
			"0.004": 15.6128524742,
			"0.005": 12.8563081108,
			"0.006": 5.83956812724,
			"0.007": 5.510825775,
			"0.008": 4.57870750647,
			"0.009": 3.46749601744,
			"0.01": 4.47043954414,
			"0.011": 5.84209411297,
			"0.012": 3.04965170448,
			"0.013": 1.08211719805,
			"0.014": 0.588612679674,
			"0.015": 0.98407594658,
			"0.016": 0.47168148454,
			"0.017": 0.0456766757525,
			"0.018": 0.0,
			"0.019": 0.0,
			"0.02": 0.0,
			"0.021": 0.0,
			"0.022": 0.0,
			"0.023": 0.0,
			"0.024": 0.0,
			"0.025": 0.0
		}
	}
}
