{
	 "smiles": "OC(=O)C1=CN=C2CCCCN12", 
	 "Tm": 493.15, 
	 "num_atms": 22, 
	 "gaussian": { 
		 "optdone": 1, 
		 "sigma_profile": "yes", 
		 "theory": "DFT", 
		 "functional": "B3LYP", 
		 "basiset": "6-31G**", 
		 "properties": { 
			 "R2extent": 2508.27, 
			 "electric_dipole_moment_norm": 3.16840139503, 
			 "electric_quadrupole_moment_norm": 19.5039368608, 
			 "total_energy": -570.851268107, 
			 "HOMO_LUMO_gap": 0.20516, 
			 "cosmo_polarized_energy": -15.7, 
			 "cosmo_cavitation_energy": 24.57, 
			 "cosmo_dispersion_energy": -18.69, 
			 "cosmo_repulsion_energy": 1.48, 
			 "cosmo_total_nonelectrostatic_energy": 7.36, 
			 "SMD_solvation_energy": 2.57 
		},
		"coords": [
			{
				"x": -2.6419948082,
				"y": 1.3969287179,
				"z": -3.3893974046,
				"element": "O" 
			},
			{
				"x": -1.9845262603,
				"y": 0.3513401914,
				"z": -2.8176778177,
				"element": "C" 
			},
			{
				"x": -1.8891250451,
				"y": -0.6990595949,
				"z": -3.4193419396,
				"element": "O" 
			},
			{
				"x": -1.4418238076,
				"y": 0.5974560708,
				"z": -1.4790944648,
				"element": "C" 
			},
			{
				"x": -1.6068181008,
				"y": 1.6470522959,
				"z": -0.5876723918,
				"element": "C" 
			},
			{
				"x": -0.9319292121,
				"y": 1.4223451044,
				"z": 0.5706205826,
				"element": "N" 
			},
			{
				"x": -0.346550811,
				"y": 0.239255703,
				"z": 0.4077436361,
				"element": "C" 
			},
			{
				"x": 0.5413811212,
				"y": -0.4412165763,
				"z": 1.4056588866,
				"element": "C" 
			},
			{
				"x": 0.7096767318,
				"y": -1.9339664657,
				"z": 1.0822246008,
				"element": "C" 
			},
			{
				"x": 1.0021391855,
				"y": -2.11810018,
				"z": -0.4125832047,
				"element": "C" 
			},
			{
				"x": -0.1623852064,
				"y": -1.6266036754,
				"z": -1.2751836738,
				"element": "C" 
			},
			{
				"x": -0.6182194461,
				"y": -0.3051932386,
				"z": -0.8115174543,
				"element": "N" 
			},
			{
				"x": -2.5580216102,
				"y": 2.1910968393,
				"z": -2.8435860265,
				"element": "H" 
			},
			{
				"x": -2.1991789997,
				"y": 2.54595899,
				"z": -0.7160703015,
				"element": "H" 
			},
			{
				"x": 0.1265741416,
				"y": -0.2833519845,
				"z": 2.4057104346,
				"element": "H" 
			},
			{
				"x": 1.5226862032,
				"y": 0.0532592095,
				"z": 1.3985830141,
				"element": "H" 
			},
			{
				"x": -0.2066269416,
				"y": -2.4780344679,
				"z": 1.345466801,
				"element": "H" 
			},
			{
				"x": 1.5162154725,
				"y": -2.3582907397,
				"z": 1.6881768348,
				"element": "H" 
			},
			{
				"x": 1.1827089579,
				"y": -3.1712094546,
				"z": -0.6512998658,
				"element": "H" 
			},
			{
				"x": 1.9151352997,
				"y": -1.5693541516,
				"z": -0.6774669906,
				"element": "H" 
			},
			{
				"x": -1.009203103,
				"y": -2.3194135953,
				"z": -1.2217202112,
				"element": "H" 
			},
			{
				"x": 0.1108862388,
				"y": -1.5472989979,
				"z": -2.3272730436,
				"element": "H" 
			}
		],
		 "valence_orbital": [ 
			{
				"type": "occ",
				"energy": -0.31412,
				"method": "rhf"
			},
			{
				"type": "occ",
				"energy": -0.28725,
				"method": "rhf"
			},
			{
				"type": "occ",
				"energy": -0.28051,
				"method": "rhf"
			},
			{
				"type": "occ",
				"energy": -0.26672,
				"method": "rhf"
			},
			{
				"type": "occ",
				"energy": -0.23834,
				"method": "rhf"
			},
			{
				"type": "unocc",
				"energy": -0.03318,
				"method": "rhf"
			},
			{
				"type": "unocc",
				"energy": 0.03341,
				"method": "rhf"
			},
			{
				"type": "unocc",
				"energy": 0.06105,
				"method": "rhf"
			},
			{
				"type": "unocc",
				"energy": 0.07786,
				"method": "rhf"
			},
			{
				"type": "unocc",
				"energy": 0.09487,
				"method": "rhf"
			}
		],
		"cosmo_sigma_profile": { 
			"-0.025": 0.0,
			"-0.024": 0.0,
			"-0.023": 0.0,
			"-0.022": 0.0,
			"-0.021": 0.0,
			"-0.02": 0.0,
			"-0.019": 0.197478752455,
			"-0.018": 0.892172582991,
			"-0.017": 1.19780610022,
			"-0.016": 0.806337765894,
			"-0.015": 1.04925724075,
			"-0.014": 1.02234797876,
			"-0.013": 0.66763021877,
			"-0.012": 1.44039067021,
			"-0.011": 1.51191283108,
			"-0.01": 0.95344413081,
			"-0.009": 1.61850042179,
			"-0.008": 1.03117962673,
			"-0.007": 1.57107966125,
			"-0.006": 3.18649762183,
			"-0.005": 12.4912882202,
			"-0.004": 25.5331249674,
			"-0.003": 25.0953212382,
			"-0.002": 20.7204327778,
			"-0.001": 15.705349801,
			"0.0": 11.022850905,
			"0.001": 6.2286579513,
			"0.002": 6.05218200727,
			"0.003": 5.3149810114,
			"0.004": 4.97904216904,
			"0.005": 4.06857815903,
			"0.006": 3.34839064499,
			"0.007": 3.49784825699,
			"0.008": 4.50167197006,
			"0.009": 4.56738219939,
			"0.01": 4.75271310333,
			"0.011": 6.00724281498,
			"0.012": 5.33754333916,
			"0.013": 3.12065237703,
			"0.014": 1.34503522926,
			"0.015": 1.27133465998,
			"0.016": 0.538620941738,
			"0.017": 1.18953645398,
			"0.018": 0.0945546838943,
			"0.019": 0.0,
			"0.02": 0.0,
			"0.021": 0.0,
			"0.022": 0.0,
			"0.023": 0.0,
			"0.024": 0.0,
			"0.025": 0.0
		}
	}
}
