{
	 "smiles": "OC(=O)CNC(=O)C1CCC1", 
	 "Tm": 381.15, 
	 "num_atms": 22, 
	 "gaussian": { 
		 "optdone": 1, 
		 "sigma_profile": "yes", 
		 "theory": "DFT", 
		 "functional": "B3LYP", 
		 "basiset": "6-31G**", 
		 "properties": { 
			 "R2extent": 2884.7002, 
			 "electric_dipole_moment_norm": 3.89192282683, 
			 "electric_quadrupole_moment_norm": 10.6092427765, 
			 "total_energy": -553.801074206, 
			 "HOMO_LUMO_gap": 0.2548, 
			 "cosmo_polarized_energy": -16.12, 
			 "cosmo_cavitation_energy": 25.94, 
			 "cosmo_dispersion_energy": -18.7, 
			 "cosmo_repulsion_energy": 1.57, 
			 "cosmo_total_nonelectrostatic_energy": 8.81, 
			 "SMD_solvation_energy": 5.6 
		},
		"coords": [
			{
				"x": -0.0910533566,
				"y": 0.5531008717,
				"z": -3.4654898934,
				"element": "O" 
			},
			{
				"x": 1.1237559201,
				"y": 1.1485677671,
				"z": -3.4428144312,
				"element": "C" 
			},
			{
				"x": 1.8780413842,
				"y": 1.1522582012,
				"z": -4.3882504167,
				"element": "O" 
			},
			{
				"x": 1.4399644061,
				"y": 1.8211397109,
				"z": -2.114758655,
				"element": "C" 
			},
			{
				"x": 0.3744998776,
				"y": 1.8306505381,
				"z": -1.1415807728,
				"element": "N" 
			},
			{
				"x": 0.4605637693,
				"y": 1.1034903196,
				"z": 0.0209986949,
				"element": "C" 
			},
			{
				"x": 1.4820037594,
				"y": 0.5063174432,
				"z": 0.3449500154,
				"element": "O" 
			},
			{
				"x": -0.7793832583,
				"y": 1.1031298464,
				"z": 0.8928961863,
				"element": "C" 
			},
			{
				"x": -1.3002051029,
				"y": -0.2930830526,
				"z": 1.3529541046,
				"element": "C" 
			},
			{
				"x": -1.5277572381,
				"y": 0.2897846199,
				"z": 2.7713463575,
				"element": "C" 
			},
			{
				"x": -0.5686910411,
				"y": 1.4491305311,
				"z": 2.3981730582,
				"element": "C" 
			},
			{
				"x": -0.1751727606,
				"y": 0.1555246189,
				"z": -4.3488731438,
				"element": "H" 
			},
			{
				"x": 1.7922289027,
				"y": 2.8324827137,
				"z": -2.3490662668,
				"element": "H" 
			},
			{
				"x": 2.2775362197,
				"y": 1.2833379386,
				"z": -1.659063474,
				"element": "H" 
			},
			{
				"x": -0.5238490482,
				"y": 2.1992828695,
				"z": -1.41406602,
				"element": "H" 
			},
			{
				"x": -1.5848247876,
				"y": 1.7042160877,
				"z": 0.455681502,
				"element": "H" 
			},
			{
				"x": -0.4792620838,
				"y": -1.0146159621,
				"z": 1.3391842201,
				"element": "H" 
			},
			{
				"x": -2.1586811001,
				"y": -0.7082892043,
				"z": 0.8175335723,
				"element": "H" 
			},
			{
				"x": -2.5562063388,
				"y": 0.638772103,
				"z": 2.9090948995,
				"element": "H" 
			},
			{
				"x": -1.2556790856,
				"y": -0.3367915225,
				"z": 3.625071213,
				"element": "H" 
			},
			{
				"x": -0.827628745,
				"y": 2.4618089151,
				"z": 2.7199643905,
				"element": "H" 
			},
			{
				"x": 0.4630997079,
				"y": 1.228884646,
				"z": 2.6838148591,
				"element": "H" 
			}
		],
		 "valence_orbital": [ 
			{
				"type": "occ",
				"energy": -0.31515,
				"method": "rhf"
			},
			{
				"type": "occ",
				"energy": -0.30709,
				"method": "rhf"
			},
			{
				"type": "occ",
				"energy": -0.29375,
				"method": "rhf"
			},
			{
				"type": "occ",
				"energy": -0.25526,
				"method": "rhf"
			},
			{
				"type": "occ",
				"energy": -0.25243,
				"method": "rhf"
			},
			{
				"type": "unocc",
				"energy": 0.00237,
				"method": "rhf"
			},
			{
				"type": "unocc",
				"energy": 0.01761,
				"method": "rhf"
			},
			{
				"type": "unocc",
				"energy": 0.06147,
				"method": "rhf"
			},
			{
				"type": "unocc",
				"energy": 0.07659,
				"method": "rhf"
			},
			{
				"type": "unocc",
				"energy": 0.10288,
				"method": "rhf"
			}
		],
		"cosmo_sigma_profile": { 
			"-0.025": 0.0,
			"-0.024": 0.0,
			"-0.023": 0.0,
			"-0.022": 0.0,
			"-0.021": 0.0,
			"-0.02": 0.0,
			"-0.019": 0.0750911288857,
			"-0.018": 0.817795542465,
			"-0.017": 1.25867131845,
			"-0.016": 0.633685325333,
			"-0.015": 0.874675999368,
			"-0.014": 1.57761445754,
			"-0.013": 1.48831278813,
			"-0.012": 2.34084286215,
			"-0.011": 2.62082137876,
			"-0.01": 1.88695397625,
			"-0.009": 1.6559119156,
			"-0.008": 2.9355469818,
			"-0.007": 6.63599379023,
			"-0.006": 5.08957592366,
			"-0.005": 6.57203627031,
			"-0.004": 8.94276214093,
			"-0.003": 16.5251108717,
			"-0.002": 20.078202993,
			"-0.001": 23.2238310517,
			"0.0": 19.3052722147,
			"0.001": 17.0238078968,
			"0.002": 9.30323961179,
			"0.003": 4.98589302956,
			"0.004": 5.65525850134,
			"0.005": 3.96354518663,
			"0.006": 4.0378974211,
			"0.007": 4.87892889276,
			"0.008": 3.03044991848,
			"0.009": 2.85580943784,
			"0.01": 4.0992760722,
			"0.011": 5.88643960151,
			"0.012": 5.50715977857,
			"0.013": 3.72420920244,
			"0.014": 3.46954741231,
			"0.015": 0.240328434685,
			"0.016": 0.0,
			"0.017": 0.0,
			"0.018": 0.0,
			"0.019": 0.0,
			"0.02": 0.0,
			"0.021": 0.0,
			"0.022": 0.0,
			"0.023": 0.0,
			"0.024": 0.0,
			"0.025": 0.0
		}
	}
}
