{
	 "smiles": "CC1=NN(CC(F)(F)F)C(C)=C1CC(O)=O", 
	 "Tm": 431.15, 
	 "num_atms": 27, 
	 "gaussian": { 
		 "optdone": 1, 
		 "sigma_profile": "yes", 
		 "theory": "DFT", 
		 "functional": "B3LYP", 
		 "basiset": "6-31G**", 
		 "properties": { 
			 "R2extent": 4417.7905, 
			 "electric_dipole_moment_norm": 3.58189960077, 
			 "electric_quadrupole_moment_norm": 5.89991647483, 
			 "total_energy": -909.077606985, 
			 "HOMO_LUMO_gap": 0.23346, 
			 "cosmo_polarized_energy": -14.66, 
			 "cosmo_cavitation_energy": 32.6, 
			 "cosmo_dispersion_energy": -21.84, 
			 "cosmo_repulsion_energy": 1.67, 
			 "cosmo_total_nonelectrostatic_energy": 12.44, 
			 "SMD_solvation_energy": 6.8 
		},
		"coords": [
			{
				"x": 0.6064503957,
				"y": -0.2615079586,
				"z": -3.4346442142,
				"element": "C" 
			},
			{
				"x": -0.24596735,
				"y": 0.0040865196,
				"z": -2.231883781,
				"element": "C" 
			},
			{
				"x": -1.4606050788,
				"y": -0.521891083,
				"z": -2.1228508735,
				"element": "N" 
			},
			{
				"x": -1.9349556604,
				"y": -0.0701090469,
				"z": -0.928241665,
				"element": "N" 
			},
			{
				"x": -3.2303290922,
				"y": -0.52096753,
				"z": -0.4886450871,
				"element": "C" 
			},
			{
				"x": -3.1848114519,
				"y": -1.8260463472,
				"z": 0.300576288,
				"element": "C" 
			},
			{
				"x": -2.6841454116,
				"y": -2.8392200127,
				"z": -0.4185491631,
				"element": "F" 
			},
			{
				"x": -2.4336932384,
				"y": -1.7061349294,
				"z": 1.4199845292,
				"element": "F" 
			},
			{
				"x": -4.4372271347,
				"y": -2.1583693162,
				"z": 0.6837216134,
				"element": "F" 
			},
			{
				"x": -1.0354494424,
				"y": 0.725599173,
				"z": -0.2681334031,
				"element": "C" 
			},
			{
				"x": -1.3084308483,
				"y": 1.3457016105,
				"z": 1.0658200129,
				"element": "C" 
			},
			{
				"x": 0.0710642297,
				"y": 0.8060332866,
				"z": -1.0981788963,
				"element": "C" 
			},
			{
				"x": 1.3553300674,
				"y": 1.5572063902,
				"z": -0.859460437,
				"element": "C" 
			},
			{
				"x": 2.405100181,
				"y": 0.6465468432,
				"z": -0.2449416497,
				"element": "C" 
			},
			{
				"x": 2.3171578655,
				"y": 0.6244373837,
				"z": 1.1082273113,
				"element": "O" 
			},
			{
				"x": 3.2094747309,
				"y": -0.0190470827,
				"z": -0.8584003126,
				"element": "O" 
			},
			{
				"x": 1.5939941145,
				"y": -0.6303861602,
				"z": -3.1402709625,
				"element": "H" 
			},
			{
				"x": 0.7617851593,
				"y": 0.650410462,
				"z": -4.02451403,
				"element": "H" 
			},
			{
				"x": 0.1242056925,
				"y": -1.0027615494,
				"z": -4.0751746703,
				"element": "H" 
			},
			{
				"x": -3.7032594378,
				"y": 0.2339002057,
				"z": 0.1436448214,
				"element": "H" 
			},
			{
				"x": -3.851673672,
				"y": -0.685041169,
				"z": -1.3706345564,
				"element": "H" 
			},
			{
				"x": -0.3954399823,
				"y": 1.7956612905,
				"z": 1.4599100953,
				"element": "H" 
			},
			{
				"x": -2.0741560152,
				"y": 2.1296863803,
				"z": 1.0063360607,
				"element": "H" 
			},
			{
				"x": -1.6463723399,
				"y": 0.599708034,
				"z": 1.7903844127,
				"element": "H" 
			},
			{
				"x": 1.7609668948,
				"y": 1.9241205946,
				"z": -1.8057307283,
				"element": "H" 
			},
			{
				"x": 1.1911991823,
				"y": 2.4140783624,
				"z": -0.2003632148,
				"element": "H" 
			},
			{
				"x": 2.9777876427,
				"y": -0.0206943509,
				"z": 1.4129124999,
				"element": "H" 
			}
		],
		 "valence_orbital": [ 
			{
				"type": "occ",
				"energy": -0.32106,
				"method": "rhf"
			},
			{
				"type": "occ",
				"energy": -0.28488,
				"method": "rhf"
			},
			{
				"type": "occ",
				"energy": -0.28296,
				"method": "rhf"
			},
			{
				"type": "occ",
				"energy": -0.2415,
				"method": "rhf"
			},
			{
				"type": "occ",
				"energy": -0.23423,
				"method": "rhf"
			},
			{
				"type": "unocc",
				"energy": -0.00077,
				"method": "rhf"
			},
			{
				"type": "unocc",
				"energy": 0.01755,
				"method": "rhf"
			},
			{
				"type": "unocc",
				"energy": 0.06636,
				"method": "rhf"
			},
			{
				"type": "unocc",
				"energy": 0.06975,
				"method": "rhf"
			},
			{
				"type": "unocc",
				"energy": 0.08659,
				"method": "rhf"
			}
		],
		"cosmo_sigma_profile": { 
			"-0.025": 0.0,
			"-0.024": 0.0,
			"-0.023": 0.0,
			"-0.022": 0.0,
			"-0.021": 0.0,
			"-0.02": 0.0,
			"-0.019": 0.0,
			"-0.018": 0.726145747752,
			"-0.017": 1.00153909069,
			"-0.016": 0.80417684705,
			"-0.015": 0.652615388384,
			"-0.014": 1.4061854946,
			"-0.013": 0.21698575025,
			"-0.012": 0.287256839314,
			"-0.011": 1.03235114185,
			"-0.01": 1.15572344034,
			"-0.009": 4.46951792728,
			"-0.008": 5.43348605673,
			"-0.007": 5.2904966435,
			"-0.006": 10.4849217588,
			"-0.005": 12.8013403082,
			"-0.004": 17.8382985923,
			"-0.003": 16.1756046227,
			"-0.002": 18.0500256725,
			"-0.001": 19.0293518528,
			"0.0": 18.9567281598,
			"0.001": 17.2983325831,
			"0.002": 30.1953207218,
			"0.003": 27.6726906116,
			"0.004": 8.69904764104,
			"0.005": 6.14790430127,
			"0.006": 5.7361222253,
			"0.007": 4.18482720725,
			"0.008": 3.6616904421,
			"0.009": 3.6401951907,
			"0.01": 2.86575472907,
			"0.011": 5.02666103371,
			"0.012": 4.45015352519,
			"0.013": 0.949595188452,
			"0.014": 0.602622518108,
			"0.015": 0.826424651408,
			"0.016": 0.11274584197,
			"0.017": 0.0,
			"0.018": 0.0,
			"0.019": 0.0,
			"0.02": 0.0,
			"0.021": 0.0,
			"0.022": 0.0,
			"0.023": 0.0,
			"0.024": 0.0,
			"0.025": 0.0
		}
	}
}
