{
	 "smiles": "CC(C)N(C(C)C)P(Cl)N(C(C)C)C(C)C", 
	 "Tm": 378.15, 
	 "num_atms": 44, 
	 "gaussian": { 
		 "optdone": 1, 
		 "sigma_profile": "yes", 
		 "theory": "DFT", 
		 "functional": "B3LYP", 
		 "basiset": "6-31G**", 
		 "properties": { 
			 "R2extent": 4815.2662, 
			 "electric_dipole_moment_norm": 3.15762608774, 
			 "electric_quadrupole_moment_norm": 10.1739164091, 
			 "total_energy": -1385.22938208, 
			 "HOMO_LUMO_gap": 0.18164, 
			 "cosmo_polarized_energy": -6.5, 
			 "cosmo_cavitation_energy": 41.57, 
			 "cosmo_dispersion_energy": -27.92, 
			 "cosmo_repulsion_energy": 2.12, 
			 "cosmo_total_nonelectrostatic_energy": 15.76, 
			 "SMD_solvation_energy": 7.1 
		},
		"coords": [
			{
				"x": 3.1906274308,
				"y": 0.1631201665,
				"z": 0.3965055065,
				"element": "C" 
			},
			{
				"x": 2.1494103219,
				"y": 0.6964635148,
				"z": -0.6016768176,
				"element": "C" 
			},
			{
				"x": 2.2604116474,
				"y": 2.215157305,
				"z": -0.7845380381,
				"element": "C" 
			},
			{
				"x": 0.7378466073,
				"y": 0.2536410247,
				"z": -0.3034289475,
				"element": "N" 
			},
			{
				"x": 0.3977219914,
				"y": -1.0134208479,
				"z": -1.0368150548,
				"element": "C" 
			},
			{
				"x": -0.8266984555,
				"y": -1.7739937875,
				"z": -0.52138235,
				"element": "C" 
			},
			{
				"x": 0.240917118,
				"y": -0.7662091796,
				"z": -2.5492802877,
				"element": "C" 
			},
			{
				"x": 0.2001323906,
				"y": 0.822382659,
				"z": 1.2067648904,
				"element": "P" 
			},
			{
				"x": 0.5397974093,
				"y": -0.9207273057,
				"z": 2.5474405623,
				"element": "Cl" 
			},
			{
				"x": -1.5528822212,
				"y": 0.8602164762,
				"z": 1.0941045145,
				"element": "N" 
			},
			{
				"x": -2.3879431526,
				"y": 0.6595157292,
				"z": 2.3334338,
				"element": "C" 
			},
			{
				"x": -2.8578493837,
				"y": -0.7950351585,
				"z": 2.4831152095,
				"element": "C" 
			},
			{
				"x": -1.8276522304,
				"y": 1.2229859536,
				"z": 3.6556646217,
				"element": "C" 
			},
			{
				"x": -2.0833269627,
				"y": 1.9975973759,
				"z": 0.2558101695,
				"element": "C" 
			},
			{
				"x": -1.6305304643,
				"y": 3.4023541877,
				"z": 0.7039600973,
				"element": "C" 
			},
			{
				"x": -1.8907955138,
				"y": 1.8210817289,
				"z": -1.2532520689,
				"element": "C" 
			},
			{
				"x": 3.092766463,
				"y": -0.916939186,
				"z": 0.5367910452,
				"element": "H" 
			},
			{
				"x": 4.2004384278,
				"y": 0.368926169,
				"z": 0.0245547846,
				"element": "H" 
			},
			{
				"x": 3.0889881276,
				"y": 0.6379026896,
				"z": 1.3767075343,
				"element": "H" 
			},
			{
				"x": 2.3806872342,
				"y": 0.2465111938,
				"z": -1.5700473676,
				"element": "H" 
			},
			{
				"x": 1.5514536816,
				"y": 2.5731197684,
				"z": -1.5370169795,
				"element": "H" 
			},
			{
				"x": 3.2710908835,
				"y": 2.4757063953,
				"z": -1.1171530396,
				"element": "H" 
			},
			{
				"x": 2.0700363098,
				"y": 2.7481415832,
				"z": 0.1513921635,
				"element": "H" 
			},
			{
				"x": 1.2649830473,
				"y": -1.6765052982,
				"z": -0.8954672836,
				"element": "H" 
			},
			{
				"x": -0.9298905521,
				"y": -2.6874589709,
				"z": -1.1169468975,
				"element": "H" 
			},
			{
				"x": -1.7418341519,
				"y": -1.1898680618,
				"z": -0.6245629823,
				"element": "H" 
			},
			{
				"x": -0.7214804013,
				"y": -2.0632151066,
				"z": 0.5230933135,
				"element": "H" 
			},
			{
				"x": 1.0689032371,
				"y": -0.198280971,
				"z": -2.9817846926,
				"element": "H" 
			},
			{
				"x": 0.2000809781,
				"y": -1.7293092888,
				"z": -3.0691789136,
				"element": "H" 
			},
			{
				"x": -0.6844322309,
				"y": -0.2278204605,
				"z": -2.7653058311,
				"element": "H" 
			},
			{
				"x": -3.2913148693,
				"y": 1.2438044539,
				"z": 2.1310904248,
				"element": "H" 
			},
			{
				"x": -2.0372768904,
				"y": -1.4668363885,
				"z": 2.7366687667,
				"element": "H" 
			},
			{
				"x": -3.3196444176,
				"y": -1.1439605693,
				"z": 1.5550858275,
				"element": "H" 
			},
			{
				"x": -3.6067496466,
				"y": -0.8563965286,
				"z": 3.2814919001,
				"element": "H" 
			},
			{
				"x": -1.5117966085,
				"y": 2.2648529059,
				"z": 3.5488009241,
				"element": "H" 
			},
			{
				"x": -0.9834798265,
				"y": 0.6442677758,
				"z": 4.0333253943,
				"element": "H" 
			},
			{
				"x": -2.6157773958,
				"y": 1.1919200645,
				"z": 4.4161468032,
				"element": "H" 
			},
			{
				"x": -3.1651996124,
				"y": 1.9456298035,
				"z": 0.4160973175,
				"element": "H" 
			},
			{
				"x": -2.1720589097,
				"y": 4.167097168,
				"z": 0.1363426263,
				"element": "H" 
			},
			{
				"x": -1.8300059776,
				"y": 3.5702157849,
				"z": 1.76559306,
				"element": "H" 
			},
			{
				"x": -0.5611981272,
				"y": 3.5598924054,
				"z": 0.5325407968,
				"element": "H" 
			},
			{
				"x": -2.4524701829,
				"y": 2.6043176782,
				"z": -1.7744852904,
				"element": "H" 
			},
			{
				"x": -2.2770481088,
				"y": 0.8535853886,
				"z": -1.5819554001,
				"element": "H" 
			},
			{
				"x": -0.8450570133,
				"y": 1.8946697598,
				"z": -1.5530438114,
				"element": "H" 
			}
		],
		 "valence_orbital": [ 
			{
				"type": "occ",
				"energy": -0.30349,
				"method": "rhf"
			},
			{
				"type": "occ",
				"energy": -0.2826,
				"method": "rhf"
			},
			{
				"type": "occ",
				"energy": -0.26531,
				"method": "rhf"
			},
			{
				"type": "occ",
				"energy": -0.23489,
				"method": "rhf"
			},
			{
				"type": "occ",
				"energy": -0.19947,
				"method": "rhf"
			},
			{
				"type": "unocc",
				"energy": -0.01783,
				"method": "rhf"
			},
			{
				"type": "unocc",
				"energy": 0.05147,
				"method": "rhf"
			},
			{
				"type": "unocc",
				"energy": 0.06421,
				"method": "rhf"
			},
			{
				"type": "unocc",
				"energy": 0.0797,
				"method": "rhf"
			},
			{
				"type": "unocc",
				"energy": 0.08772,
				"method": "rhf"
			}
		],
		"cosmo_sigma_profile": { 
			"-0.025": 0.0,
			"-0.024": 0.0,
			"-0.023": 0.0,
			"-0.022": 0.0,
			"-0.021": 0.0,
			"-0.02": 0.0,
			"-0.019": 0.0,
			"-0.018": 0.0,
			"-0.017": 0.0,
			"-0.016": 0.0,
			"-0.015": 0.0,
			"-0.014": 0.0,
			"-0.013": 0.0,
			"-0.012": 0.0,
			"-0.011": 0.0,
			"-0.01": 0.0,
			"-0.009": 0.0,
			"-0.008": 0.0,
			"-0.007": 0.0,
			"-0.006": 0.416159197396,
			"-0.005": 3.8874652286,
			"-0.004": 12.0839964463,
			"-0.003": 42.7380622679,
			"-0.002": 47.7567088804,
			"-0.001": 43.9560752104,
			"0.0": 45.4892017105,
			"0.001": 53.8711930315,
			"0.002": 26.965449001,
			"0.003": 8.15120307279,
			"0.004": 6.89878389497,
			"0.005": 7.46658355862,
			"0.006": 8.04685545771,
			"0.007": 6.37096105557,
			"0.008": 3.76873090562,
			"0.009": 1.20749256971,
			"0.01": 0.0,
			"0.011": 0.0,
			"0.012": 0.0,
			"0.013": 0.0,
			"0.014": 0.0,
			"0.015": 0.0,
			"0.016": 0.0,
			"0.017": 0.0,
			"0.018": 0.0,
			"0.019": 0.0,
			"0.02": 0.0,
			"0.021": 0.0,
			"0.022": 0.0,
			"0.023": 0.0,
			"0.024": 0.0,
			"0.025": 0.0
		}
	}
}
