{
	 "smiles": "CN1C=CN=C1C1=NN=C(N)S1", 
	 "Tm": 537.15, 
	 "num_atms": 19, 
	 "gaussian": { 
		 "optdone": 1, 
		 "sigma_profile": "yes", 
		 "theory": "DFT", 
		 "functional": "B3LYP", 
		 "basiset": "6-31G**", 
		 "properties": { 
			 "R2extent": 3968.2728, 
			 "electric_dipole_moment_norm": 1.20108103807, 
			 "electric_quadrupole_moment_norm": 25.7420384894, 
			 "total_energy": -904.772113375, 
			 "HOMO_LUMO_gap": 0.16666, 
			 "cosmo_polarized_energy": -17.02, 
			 "cosmo_cavitation_energy": 25.25, 
			 "cosmo_dispersion_energy": -19.41, 
			 "cosmo_repulsion_energy": 1.49, 
			 "cosmo_total_nonelectrostatic_energy": 7.34, 
			 "SMD_solvation_energy": 1.5 
		},
		"coords": [
			{
				"x": -1.0460328711,
				"y": -1.2149738927,
				"z": 0.9429938538,
				"element": "C" 
			},
			{
				"x": 0.4042454378,
				"y": -1.3594737225,
				"z": 1.0176343875,
				"element": "N" 
			},
			{
				"x": 1.1481603863,
				"y": -1.4302379179,
				"z": 2.1732269906,
				"element": "C" 
			},
			{
				"x": 2.4612067734,
				"y": -1.5625475587,
				"z": 1.7797426871,
				"element": "C" 
			},
			{
				"x": 2.5500363263,
				"y": -1.5750215466,
				"z": 0.4170941499,
				"element": "N" 
			},
			{
				"x": 1.3018912091,
				"y": -1.4522102708,
				"z": -0.0201703102,
				"element": "C" 
			},
			{
				"x": 0.9506746858,
				"y": -1.4218655076,
				"z": -1.423967929,
				"element": "C" 
			},
			{
				"x": -0.2501983801,
				"y": -1.3091192592,
				"z": -1.9183177036,
				"element": "N" 
			},
			{
				"x": -0.2907396583,
				"y": -1.3295002939,
				"z": -3.2846252332,
				"element": "N" 
			},
			{
				"x": 0.9008872599,
				"y": -1.4448054249,
				"z": -3.8155167145,
				"element": "C" 
			},
			{
				"x": 1.1184110347,
				"y": -1.4107577848,
				"z": -5.1711085989,
				"element": "N" 
			},
			{
				"x": 2.2178977216,
				"y": -1.5481716985,
				"z": -2.6525579193,
				"element": "S" 
			},
			{
				"x": -1.4898515607,
				"y": -2.0649336625,
				"z": 0.4215118687,
				"element": "H" 
			},
			{
				"x": -1.3128789303,
				"y": -0.3101291488,
				"z": 0.394392191,
				"element": "H" 
			},
			{
				"x": -1.4361368671,
				"y": -1.1601512653,
				"z": 1.9605478405,
				"element": "H" 
			},
			{
				"x": 0.6823516325,
				"y": -1.3799448269,
				"z": 3.1457601317,
				"element": "H" 
			},
			{
				"x": 3.3375748189,
				"y": -1.6476502758,
				"z": 2.4069770193,
				"element": "H" 
			},
			{
				"x": 1.8946035253,
				"y": -1.9497265249,
				"z": -5.5268068558,
				"element": "H" 
			},
			{
				"x": 0.2657974561,
				"y": -1.5093794176,
				"z": -5.7076098558,
				"element": "H" 
			}
		],
		 "valence_orbital": [ 
			{
				"type": "occ",
				"energy": -0.27323,
				"method": "rhf"
			},
			{
				"type": "occ",
				"energy": -0.27306,
				"method": "rhf"
			},
			{
				"type": "occ",
				"energy": -0.25756,
				"method": "rhf"
			},
			{
				"type": "occ",
				"energy": -0.25474,
				"method": "rhf"
			},
			{
				"type": "occ",
				"energy": -0.20646,
				"method": "rhf"
			},
			{
				"type": "unocc",
				"energy": -0.0398,
				"method": "rhf"
			},
			{
				"type": "unocc",
				"energy": 0.00611,
				"method": "rhf"
			},
			{
				"type": "unocc",
				"energy": 0.02991,
				"method": "rhf"
			},
			{
				"type": "unocc",
				"energy": 0.05753,
				"method": "rhf"
			},
			{
				"type": "unocc",
				"energy": 0.06922,
				"method": "rhf"
			}
		],
		"cosmo_sigma_profile": { 
			"-0.025": 0.0,
			"-0.024": 0.0,
			"-0.023": 0.0,
			"-0.022": 0.0,
			"-0.021": 0.0,
			"-0.02": 0.0,
			"-0.019": 0.0,
			"-0.018": 0.0,
			"-0.017": 0.0,
			"-0.016": 0.0704567028171,
			"-0.015": 1.31964573939,
			"-0.014": 2.69728054443,
			"-0.013": 2.87206523486,
			"-0.012": 2.63370535646,
			"-0.011": 2.41426246047,
			"-0.01": 2.85566427616,
			"-0.009": 4.37750699444,
			"-0.008": 4.62938563373,
			"-0.007": 6.30229368087,
			"-0.006": 8.3961948508,
			"-0.005": 9.86099107505,
			"-0.004": 12.2351896835,
			"-0.003": 13.7135378584,
			"-0.002": 10.5479065286,
			"-0.001": 9.69744041368,
			"0.0": 15.3010929865,
			"0.001": 14.1731213931,
			"0.002": 12.7240291703,
			"0.003": 12.9749729016,
			"0.004": 9.93317472919,
			"0.005": 6.74034793223,
			"0.006": 5.53232523933,
			"0.007": 4.69563955353,
			"0.008": 4.15643421283,
			"0.009": 5.11831140377,
			"0.01": 3.9156544928,
			"0.011": 3.91569664684,
			"0.012": 3.78763428165,
			"0.013": 2.43891007541,
			"0.014": 2.70620999903,
			"0.015": 1.60449746197,
			"0.016": 0.119745623322,
			"0.017": 0.0,
			"0.018": 0.0,
			"0.019": 0.0,
			"0.02": 0.0,
			"0.021": 0.0,
			"0.022": 0.0,
			"0.023": 0.0,
			"0.024": 0.0,
			"0.025": 0.0
		}
	}
}
