{
	 "smiles": "CC1=C(C(C)=NN1)C1=CC=C(C=C1)C1=CC=CC=C1", 
	 "Tm": 495.15, 
	 "num_atms": 35, 
	 "gaussian": { 
		 "optdone": 1, 
		 "sigma_profile": "yes", 
		 "theory": "DFT", 
		 "functional": "B3LYP", 
		 "basiset": "6-31G**", 
		 "properties": { 
			 "R2extent": 7360.0329, 
			 "electric_dipole_moment_norm": 2.22671639416, 
			 "electric_quadrupole_moment_norm": 20.4779894108, 
			 "total_energy": -766.964615474, 
			 "HOMO_LUMO_gap": 0.17639, 
			 "cosmo_polarized_energy": -12.54, 
			 "cosmo_cavitation_energy": 38.31, 
			 "cosmo_dispersion_energy": -27.49, 
			 "cosmo_repulsion_energy": 2.11, 
			 "cosmo_total_nonelectrostatic_energy": 12.92, 
			 "SMD_solvation_energy": 5.15 
		},
		"coords": [
			{
				"x": -0.7053920685,
				"y": -0.234742825,
				"z": -4.2173790223,
				"element": "C" 
			},
			{
				"x": -0.7475677897,
				"y": -1.4273480404,
				"z": -3.3149200551,
				"element": "C" 
			},
			{
				"x": -0.5865881096,
				"y": -1.5674481094,
				"z": -1.9368573335,
				"element": "C" 
			},
			{
				"x": -0.7094747021,
				"y": -2.9741147176,
				"z": -1.6996745507,
				"element": "C" 
			},
			{
				"x": -0.6469850861,
				"y": -3.7182757011,
				"z": -0.3992712693,
				"element": "C" 
			},
			{
				"x": -0.9340189869,
				"y": -3.6396318382,
				"z": -2.8303398126,
				"element": "N" 
			},
			{
				"x": -0.9457838543,
				"y": -2.6850014043,
				"z": -3.7893641325,
				"element": "N" 
			},
			{
				"x": -0.3531567676,
				"y": -0.4951949705,
				"z": -0.9555195709,
				"element": "C" 
			},
			{
				"x": 0.5818811781,
				"y": -0.6459262655,
				"z": 0.0845412401,
				"element": "C" 
			},
			{
				"x": 0.8028410744,
				"y": 0.3679457154,
				"z": 1.0114825174,
				"element": "C" 
			},
			{
				"x": 0.1053552685,
				"y": 1.5860313107,
				"z": 0.9421031769,
				"element": "C" 
			},
			{
				"x": -0.8288991414,
				"y": 1.7390405866,
				"z": -0.095832444,
				"element": "C" 
			},
			{
				"x": -1.0565654601,
				"y": 0.7217343101,
				"z": -1.018215205,
				"element": "C" 
			},
			{
				"x": 0.3445686133,
				"y": 2.6683263332,
				"z": 1.9290359643,
				"element": "C" 
			},
			{
				"x": 0.3271452741,
				"y": 4.0190904448,
				"z": 1.5397678133,
				"element": "C" 
			},
			{
				"x": 0.5504932294,
				"y": 5.036263235,
				"z": 2.4666050742,
				"element": "C" 
			},
			{
				"x": 0.7994499785,
				"y": 4.7266065022,
				"z": 3.8050933831,
				"element": "C" 
			},
			{
				"x": 0.8213426285,
				"y": 3.3897245464,
				"z": 4.2072468233,
				"element": "C" 
			},
			{
				"x": 0.5952496609,
				"y": 2.3730900151,
				"z": 3.2804639503,
				"element": "C" 
			},
			{
				"x": -1.7077583352,
				"y": 0.1470553321,
				"z": -4.4479370222,
				"element": "H" 
			},
			{
				"x": -0.2179204555,
				"y": -0.4758219762,
				"z": -5.1685424431,
				"element": "H" 
			},
			{
				"x": -0.1445176847,
				"y": 0.5758315813,
				"z": -3.7467688441,
				"element": "H" 
			},
			{
				"x": -1.0943662752,
				"y": -4.7070942554,
				"z": -0.5236138543,
				"element": "H" 
			},
			{
				"x": -1.1823246739,
				"y": -3.1836884023,
				"z": 0.3915331934,
				"element": "H" 
			},
			{
				"x": 0.3844968759,
				"y": -3.8603714561,
				"z": -0.0555075146,
				"element": "H" 
			},
			{
				"x": -1.0879537942,
				"y": -2.9592088446,
				"z": -4.749008686,
				"element": "H" 
			},
			{
				"x": 1.1636926568,
				"y": -1.5598732899,
				"z": 0.1491073879,
				"element": "H" 
			},
			{
				"x": 1.5549133411,
				"y": 0.22702455,
				"z": 1.7824114332,
				"element": "H" 
			},
			{
				"x": -1.4129035156,
				"y": 2.6527864441,
				"z": -0.1580984841,
				"element": "H" 
			},
			{
				"x": -1.8175752544,
				"y": 0.8579466104,
				"z": -1.7807612006,
				"element": "H" 
			},
			{
				"x": 0.1623392235,
				"y": 4.270623899,
				"z": 0.4961360069,
				"element": "H" 
			},
			{
				"x": 0.5395746164,
				"y": 6.0725649233,
				"z": 2.1403068354,
				"element": "H" 
			},
			{
				"x": 0.9745415794,
				"y": 5.5188065646,
				"z": 4.5272339142,
				"element": "H" 
			},
			{
				"x": 1.0053496744,
				"y": 3.1369949065,
				"z": 5.2477952963,
				"element": "H" 
			},
			{
				"x": 0.5867170815,
				"y": 1.3383542856,
				"z": 3.6102474349,
				"element": "H" 
			}
		],
		 "valence_orbital": [ 
			{
				"type": "occ",
				"energy": -0.24889,
				"method": "rhf"
			},
			{
				"type": "occ",
				"energy": -0.24809,
				"method": "rhf"
			},
			{
				"type": "occ",
				"energy": -0.24234,
				"method": "rhf"
			},
			{
				"type": "occ",
				"energy": -0.2345,
				"method": "rhf"
			},
			{
				"type": "occ",
				"energy": -0.20529,
				"method": "rhf"
			},
			{
				"type": "unocc",
				"energy": -0.0289,
				"method": "rhf"
			},
			{
				"type": "unocc",
				"energy": -0.00255,
				"method": "rhf"
			},
			{
				"type": "unocc",
				"energy": 0.00205,
				"method": "rhf"
			},
			{
				"type": "unocc",
				"energy": 0.02032,
				"method": "rhf"
			},
			{
				"type": "unocc",
				"energy": 0.03244,
				"method": "rhf"
			}
		],
		"cosmo_sigma_profile": { 
			"-0.025": 0.0,
			"-0.024": 0.0,
			"-0.023": 0.0,
			"-0.022": 0.0,
			"-0.021": 0.0,
			"-0.02": 0.0,
			"-0.019": 0.0,
			"-0.018": 0.0,
			"-0.017": 0.0,
			"-0.016": 0.760877507753,
			"-0.015": 1.26906532425,
			"-0.014": 1.18744323335,
			"-0.013": 0.988752523907,
			"-0.012": 1.26945839051,
			"-0.011": 1.13451548061,
			"-0.01": 0.797662461515,
			"-0.009": 1.02187172908,
			"-0.008": 1.38884814819,
			"-0.007": 0.947127858902,
			"-0.006": 6.383493445,
			"-0.005": 25.8819255678,
			"-0.004": 28.2343470451,
			"-0.003": 30.1936074405,
			"-0.002": 24.5019762123,
			"-0.001": 23.5039887716,
			"0.0": 24.6745698769,
			"0.001": 19.5241779357,
			"0.002": 15.919010945,
			"0.003": 20.43814331,
			"0.004": 23.7995305183,
			"0.005": 23.2282678228,
			"0.006": 14.8985745058,
			"0.007": 1.99120226931,
			"0.008": 1.83041149683,
			"0.009": 0.961765865555,
			"0.01": 1.69541186265,
			"0.011": 0.772406487966,
			"0.012": 1.00953124341,
			"0.013": 1.52237397558,
			"0.014": 1.07996046514,
			"0.015": 0.978983436831,
			"0.016": 0.875464158888,
			"0.017": 0.611218060795,
			"0.018": 0.0,
			"0.019": 0.0,
			"0.02": 0.0,
			"0.021": 0.0,
			"0.022": 0.0,
			"0.023": 0.0,
			"0.024": 0.0,
			"0.025": 0.0
		}
	}
}
