{
	 "smiles": "OC1=C2C=C(Br)C(Cl)=CC2=NC=C1", 
	 "Tm": 643.15, 
	 "num_atms": 18, 
	 "gaussian": { 
		 "optdone": 1, 
		 "sigma_profile": "yes", 
		 "theory": "DFT", 
		 "functional": "B3LYP", 
		 "basiset": "6-31G**", 
		 "properties": { 
			 "R2extent": 4699.2332, 
			 "electric_dipole_moment_norm": 2.64709359487, 
			 "electric_quadrupole_moment_norm": 4.16405077539, 
			 "total_energy": -3507.53926082, 
			 "HOMO_LUMO_gap": 0.17051, 
			 "cosmo_polarized_energy": -11.33, 
			 "cosmo_cavitation_energy": 26.45, 
			 "cosmo_dispersion_energy": -20.5, 
			 "cosmo_repulsion_energy": 1.59, 
			 "cosmo_total_nonelectrostatic_energy": 7.54, 
			 "SMD_solvation_energy": 1.85 
		},
		"coords": [
			{
				"x": -2.9242585598,
				"y": -0.5091603594,
				"z": 1.1209414802,
				"element": "O" 
			},
			{
				"x": -1.9333620636,
				"y": 0.2558799184,
				"z": 0.6045514542,
				"element": "C" 
			},
			{
				"x": -0.6546301227,
				"y": -0.2668014449,
				"z": 0.2361561493,
				"element": "C" 
			},
			{
				"x": -0.2878466243,
				"y": -1.6276476267,
				"z": 0.3692655894,
				"element": "C" 
			},
			{
				"x": 0.9620886529,
				"y": -2.070238664,
				"z": -0.0043955278,
				"element": "C" 
			},
			{
				"x": 1.3792760118,
				"y": -3.912603632,
				"z": 0.2050027575,
				"element": "Br" 
			},
			{
				"x": 1.9085570621,
				"y": -1.1509991885,
				"z": -0.5345921951,
				"element": "C" 
			},
			{
				"x": 3.5007178913,
				"y": -1.678469794,
				"z": -1.017501884,
				"element": "Cl" 
			},
			{
				"x": 1.5758459824,
				"y": 0.1772114728,
				"z": -0.6738106439,
				"element": "C" 
			},
			{
				"x": 0.2964749803,
				"y": 0.6602472816,
				"z": -0.2973831239,
				"element": "C" 
			},
			{
				"x": 0.0438425948,
				"y": 1.9878434442,
				"z": -0.4660823424,
				"element": "N" 
			},
			{
				"x": -1.1538009894,
				"y": 2.4149727661,
				"z": -0.1087897231,
				"element": "C" 
			},
			{
				"x": -2.1747960135,
				"y": 1.6035682523,
				"z": 0.4276826091,
				"element": "C" 
			},
			{
				"x": -2.6419937422,
				"y": -1.4290638575,
				"z": 1.1977798322,
				"element": "H" 
			},
			{
				"x": -0.9787690319,
				"y": -2.3634614556,
				"z": 0.7692178502,
				"element": "H" 
			},
			{
				"x": 2.2863854757,
				"y": 0.8893450324,
				"z": -1.0761536991,
				"element": "H" 
			},
			{
				"x": -1.3464695782,
				"y": 3.4779272824,
				"z": -0.2474329568,
				"element": "H" 
			},
			{
				"x": -3.1377619259,
				"y": 2.0196505725,
				"z": 0.7006443738,
				"element": "H" 
			}
		],
		 "valence_orbital": [ 
			{
				"type": "occ",
				"energy": -0.2954,
				"method": "rhf"
			},
			{
				"type": "occ",
				"energy": -0.28958,
				"method": "rhf"
			},
			{
				"type": "occ",
				"energy": -0.26791,
				"method": "rhf"
			},
			{
				"type": "occ",
				"energy": -0.25583,
				"method": "rhf"
			},
			{
				"type": "occ",
				"energy": -0.23655,
				"method": "rhf"
			},
			{
				"type": "unocc",
				"energy": -0.06604,
				"method": "rhf"
			},
			{
				"type": "unocc",
				"energy": -0.03684,
				"method": "rhf"
			},
			{
				"type": "unocc",
				"energy": -0.02042,
				"method": "rhf"
			},
			{
				"type": "unocc",
				"energy": 0.00804,
				"method": "rhf"
			},
			{
				"type": "unocc",
				"energy": 0.0387,
				"method": "rhf"
			}
		],
		"cosmo_sigma_profile": { 
			"-0.025": 0.0,
			"-0.024": 0.0,
			"-0.023": 0.0,
			"-0.022": 0.0,
			"-0.021": 0.0,
			"-0.02": 0.455359612684,
			"-0.019": 1.01041127139,
			"-0.018": 0.986314826289,
			"-0.017": 0.860319273858,
			"-0.016": 0.652397715307,
			"-0.015": 1.24666351119,
			"-0.014": 1.71469052396,
			"-0.013": 0.811547503578,
			"-0.012": 0.500506322444,
			"-0.011": 0.93090181617,
			"-0.01": 1.31341375194,
			"-0.009": 1.17875122387,
			"-0.008": 1.74990436267,
			"-0.007": 6.78192650004,
			"-0.006": 7.00279484603,
			"-0.005": 7.37201498744,
			"-0.004": 7.92868477169,
			"-0.003": 8.06726621803,
			"-0.002": 11.5287489082,
			"-0.001": 17.1380638742,
			"0.0": 30.4155049942,
			"0.001": 26.2594346021,
			"0.002": 21.318830355,
			"0.003": 19.0844824754,
			"0.004": 18.314458726,
			"0.005": 6.40060015654,
			"0.006": 3.33603361586,
			"0.007": 2.70713220018,
			"0.008": 2.974459028,
			"0.009": 2.27410111941,
			"0.01": 1.91510112666,
			"0.011": 0.834773095795,
			"0.012": 1.14819435314,
			"0.013": 0.876971326963,
			"0.014": 0.617363019181,
			"0.015": 0.796400545218,
			"0.016": 0.529146301468,
			"0.017": 0.0,
			"0.018": 0.0,
			"0.019": 0.0,
			"0.02": 0.0,
			"0.021": 0.0,
			"0.022": 0.0,
			"0.023": 0.0,
			"0.024": 0.0,
			"0.025": 0.0
		}
	}
}
