{
	 "smiles": "C=CN1C2=C(C=CC=C2)C2=C1C=CC=C2", 
	 "Tm": 337.15, 
	 "num_atms": 26, 
	 "gaussian": { 
		 "optdone": 1, 
		 "sigma_profile": "yes", 
		 "theory": "DFT", 
		 "functional": "B3LYP", 
		 "basiset": "6-31G**", 
		 "properties": { 
			 "R2extent": 3407.8318, 
			 "electric_dipole_moment_norm": 0.763409575523, 
			 "electric_quadrupole_moment_norm": 8.87316153578, 
			 "total_energy": -594.868675413, 
			 "HOMO_LUMO_gap": 0.16996, 
			 "cosmo_polarized_energy": -6.4, 
			 "cosmo_cavitation_energy": 29.22, 
			 "cosmo_dispersion_energy": -21.49, 
			 "cosmo_repulsion_energy": 1.61, 
			 "cosmo_total_nonelectrostatic_energy": 9.34, 
			 "SMD_solvation_energy": 5.32 
		},
		"coords": [
			{
				"x": 1.1009561378,
				"y": -2.5232343419,
				"z": 1.5303292523,
				"element": "C" 
			},
			{
				"x": 1.6494933359,
				"y": -1.5720769273,
				"z": 0.767205202,
				"element": "C" 
			},
			{
				"x": 1.0033874207,
				"y": -0.7758185832,
				"z": -0.186762161,
				"element": "N" 
			},
			{
				"x": -0.1088023363,
				"y": -1.0911446654,
				"z": -0.9852830034,
				"element": "C" 
			},
			{
				"x": -0.3980521216,
				"y": 0.0175569193,
				"z": -1.8228665349,
				"element": "C" 
			},
			{
				"x": -1.4585586386,
				"y": -0.0544878475,
				"z": -2.7320047742,
				"element": "C" 
			},
			{
				"x": -2.2072768769,
				"y": -1.2255497525,
				"z": -2.8090964486,
				"element": "C" 
			},
			{
				"x": -1.8928443437,
				"y": -2.3248749123,
				"z": -1.9943180062,
				"element": "C" 
			},
			{
				"x": -0.8452374245,
				"y": -2.2760792357,
				"z": -1.0754564656,
				"element": "C" 
			},
			{
				"x": 0.5809408982,
				"y": 1.043480159,
				"z": -1.5254817361,
				"element": "C" 
			},
			{
				"x": 1.4267386701,
				"y": 0.5200842132,
				"z": -0.5182156356,
				"element": "C" 
			},
			{
				"x": 2.4779731993,
				"y": 1.2685857487,
				"z": 0.0168116525,
				"element": "C" 
			},
			{
				"x": 2.6890319948,
				"y": 2.5481509311,
				"z": -0.4953708467,
				"element": "C" 
			},
			{
				"x": 1.8657573375,
				"y": 3.0779648477,
				"z": -1.5026413296,
				"element": "C" 
			},
			{
				"x": 0.8078031626,
				"y": 2.3330669623,
				"z": -2.0178947757,
				"element": "C" 
			},
			{
				"x": 0.0429704782,
				"y": -2.7517191765,
				"z": 1.5253645292,
				"element": "H" 
			},
			{
				"x": 1.7318327702,
				"y": -3.0903374004,
				"z": 2.2043622365,
				"element": "H" 
			},
			{
				"x": 2.7104079355,
				"y": -1.3510139395,
				"z": 0.8503995526,
				"element": "H" 
			},
			{
				"x": -1.6881277868,
				"y": 0.7910017976,
				"z": -3.3743793852,
				"element": "H" 
			},
			{
				"x": -3.0349196357,
				"y": -1.2940685093,
				"z": -3.5084988137,
				"element": "H" 
			},
			{
				"x": -2.4761355249,
				"y": -3.2372431799,
				"z": -2.0785692279,
				"element": "H" 
			},
			{
				"x": -0.6039493314,
				"y": -3.1413782148,
				"z": -0.471702826,
				"element": "H" 
			},
			{
				"x": 3.1062770711,
				"y": 0.8836995596,
				"z": 0.8129838476,
				"element": "H" 
			},
			{
				"x": 3.5025946341,
				"y": 3.1484515785,
				"z": -0.0987030493,
				"element": "H" 
			},
			{
				"x": 2.0537458688,
				"y": 4.079789222,
				"z": -1.8765637457,
				"element": "H" 
			},
			{
				"x": 0.1663931056,
				"y": 2.7474947471,
				"z": -2.7905475071,
				"element": "H" 
			}
		],
		 "valence_orbital": [ 
			{
				"type": "occ",
				"energy": -0.28314,
				"method": "rhf"
			},
			{
				"type": "occ",
				"energy": -0.26846,
				"method": "rhf"
			},
			{
				"type": "occ",
				"energy": -0.25252,
				"method": "rhf"
			},
			{
				"type": "occ",
				"energy": -0.21426,
				"method": "rhf"
			},
			{
				"type": "occ",
				"energy": -0.19885,
				"method": "rhf"
			},
			{
				"type": "unocc",
				"energy": -0.02889,
				"method": "rhf"
			},
			{
				"type": "unocc",
				"energy": -0.00701,
				"method": "rhf"
			},
			{
				"type": "unocc",
				"energy": 0.0049,
				"method": "rhf"
			},
			{
				"type": "unocc",
				"energy": 0.04133,
				"method": "rhf"
			},
			{
				"type": "unocc",
				"energy": 0.04978,
				"method": "rhf"
			}
		],
		"cosmo_sigma_profile": { 
			"-0.025": 0.0,
			"-0.024": 0.0,
			"-0.023": 0.0,
			"-0.022": 0.0,
			"-0.021": 0.0,
			"-0.02": 0.0,
			"-0.019": 0.0,
			"-0.018": 0.0,
			"-0.017": 0.0,
			"-0.016": 0.0,
			"-0.015": 0.0,
			"-0.014": 0.0,
			"-0.013": 0.0,
			"-0.012": 0.0,
			"-0.011": 0.0,
			"-0.01": 0.0,
			"-0.009": 0.00672559752983,
			"-0.008": 1.56176634065,
			"-0.007": 3.59728508346,
			"-0.006": 11.912221136,
			"-0.005": 21.3009673407,
			"-0.004": 20.6081959737,
			"-0.003": 19.3734934915,
			"-0.002": 15.8615314872,
			"-0.001": 13.2778442097,
			"0.0": 14.0870978375,
			"0.001": 15.9240786372,
			"0.002": 20.7079050236,
			"0.003": 19.6127186955,
			"0.004": 21.4736462444,
			"0.005": 20.9330522434,
			"0.006": 14.2478957306,
			"0.007": 0.905616447334,
			"0.008": 0.0,
			"0.009": 0.0,
			"0.01": 0.0,
			"0.011": 0.0,
			"0.012": 0.0,
			"0.013": 0.0,
			"0.014": 0.0,
			"0.015": 0.0,
			"0.016": 0.0,
			"0.017": 0.0,
			"0.018": 0.0,
			"0.019": 0.0,
			"0.02": 0.0,
			"0.021": 0.0,
			"0.022": 0.0,
			"0.023": 0.0,
			"0.024": 0.0,
			"0.025": 0.0
		}
	}
}
