{
	 "smiles": "OC1=C(C=C(C=C1)S(Cl)(=O)=O)[N+]([O-])=O", 
	 "Tm": 326.15, 
	 "num_atms": 18, 
	 "gaussian": { 
		 "optdone": 1, 
		 "sigma_profile": "yes", 
		 "theory": "DFT", 
		 "functional": "B3LYP", 
		 "basiset": "6-31G**", 
		 "properties": { 
			 "R2extent": 4639.0275, 
			 "electric_dipole_moment_norm": 6.46395655694, 
			 "electric_quadrupole_moment_norm": 15.2395403067, 
			 "total_energy": -1520.11070673, 
			 "HOMO_LUMO_gap": 0.18023, 
			 "cosmo_polarized_energy": -20.55, 
			 "cosmo_cavitation_energy": 27.49, 
			 "cosmo_dispersion_energy": -20.58, 
			 "cosmo_repulsion_energy": 1.58, 
			 "cosmo_total_nonelectrostatic_energy": 8.49, 
			 "SMD_solvation_energy": 6.16 
		},
		"coords": [
			{
				"x": 2.3294958255,
				"y": 1.9836424833,
				"z": 1.3617859057,
				"element": "O" 
			},
			{
				"x": 1.6201577713,
				"y": 0.9476568001,
				"z": 0.8894778073,
				"element": "C" 
			},
			{
				"x": 1.8128629354,
				"y": -0.3542527446,
				"z": 1.407460723,
				"element": "C" 
			},
			{
				"x": 1.0551298305,
				"y": -1.4270455419,
				"z": 0.9460186707,
				"element": "C" 
			},
			{
				"x": 0.11168266,
				"y": -1.2114354989,
				"z": -0.0496636473,
				"element": "C" 
			},
			{
				"x": -0.1042912198,
				"y": 0.0617018721,
				"z": -0.5872835639,
				"element": "C" 
			},
			{
				"x": 0.6441184819,
				"y": 1.1248819248,
				"z": -0.1105466274,
				"element": "C" 
			},
			{
				"x": -0.8608064949,
				"y": -2.5830713284,
				"z": -0.6395179488,
				"element": "S" 
			},
			{
				"x": 0.3261007846,
				"y": -3.27211555,
				"z": -2.2688897396,
				"element": "Cl" 
			},
			{
				"x": -0.8467361576,
				"y": -3.6460816796,
				"z": 0.3553403191,
				"element": "O" 
			},
			{
				"x": -2.091373365,
				"y": -2.0667421867,
				"z": -1.2254124359,
				"element": "O" 
			},
			{
				"x": 2.8094004049,
				"y": -0.6469167261,
				"z": 2.4523474885,
				"element": "N" 
			},
			{
				"x": 2.6746444871,
				"y": -1.7070946893,
				"z": 3.063170373,
				"element": "O" 
			},
			{
				"x": 3.7099982427,
				"y": 0.1646002057,
				"z": 2.6330198424,
				"element": "O" 
			},
			{
				"x": 2.0389179908,
				"y": 2.7981136676,
				"z": 0.9268268314,
				"element": "H" 
			},
			{
				"x": 1.211177683,
				"y": -2.4057659282,
				"z": 1.3829907626,
				"element": "H" 
			},
			{
				"x": -0.856048804,
				"y": 0.2108777109,
				"z": -1.354181364,
				"element": "H" 
			},
			{
				"x": 0.4780689435,
				"y": 2.1229472091,
				"z": -0.5080433967,
				"element": "H" 
			}
		],
		 "valence_orbital": [ 
			{
				"type": "occ",
				"energy": -0.32292,
				"method": "rhf"
			},
			{
				"type": "occ",
				"energy": -0.32199,
				"method": "rhf"
			},
			{
				"type": "occ",
				"energy": -0.31757,
				"method": "rhf"
			},
			{
				"type": "occ",
				"energy": -0.30168,
				"method": "rhf"
			},
			{
				"type": "occ",
				"energy": -0.28728,
				"method": "rhf"
			},
			{
				"type": "unocc",
				"energy": -0.10705,
				"method": "rhf"
			},
			{
				"type": "unocc",
				"energy": -0.09855,
				"method": "rhf"
			},
			{
				"type": "unocc",
				"energy": -0.05603,
				"method": "rhf"
			},
			{
				"type": "unocc",
				"energy": -0.03539,
				"method": "rhf"
			},
			{
				"type": "unocc",
				"energy": 0.02347,
				"method": "rhf"
			}
		],
		"cosmo_sigma_profile": { 
			"-0.025": 0.0,
			"-0.024": 0.0,
			"-0.023": 0.0,
			"-0.022": 0.0,
			"-0.021": 0.172549452806,
			"-0.02": 1.57667686809,
			"-0.019": 1.25313512507,
			"-0.018": 1.31185916027,
			"-0.017": 1.00002559357,
			"-0.016": 1.03077917697,
			"-0.015": 1.02244922237,
			"-0.014": 0.834588972239,
			"-0.013": 1.42324790949,
			"-0.012": 0.814727904074,
			"-0.011": 0.951935930196,
			"-0.01": 2.85137095284,
			"-0.009": 4.59071243745,
			"-0.008": 5.4997972723,
			"-0.007": 7.60378672102,
			"-0.006": 6.56051262713,
			"-0.005": 8.23008728505,
			"-0.004": 10.8726009538,
			"-0.003": 16.5197649524,
			"-0.002": 17.5749902014,
			"-0.001": 12.8896280387,
			"0.0": 11.061683819,
			"0.001": 10.052726441,
			"0.002": 13.0846978262,
			"0.003": 16.4647626034,
			"0.004": 8.60165554719,
			"0.005": 6.46340154256,
			"0.006": 8.50604058806,
			"0.007": 15.3322950045,
			"0.008": 17.3931090596,
			"0.009": 8.48321238388,
			"0.01": 1.97389018439,
			"0.011": 1.80827831065,
			"0.012": 0.217138010289,
			"0.013": 0.0,
			"0.014": 0.0,
			"0.015": 0.0,
			"0.016": 0.0,
			"0.017": 0.0,
			"0.018": 0.0,
			"0.019": 0.0,
			"0.02": 0.0,
			"0.021": 0.0,
			"0.022": 0.0,
			"0.023": 0.0,
			"0.024": 0.0,
			"0.025": 0.0
		}
	}
}
