{
	 "smiles": "CC1C=C(CO)N=N1", 
	 "Tm": 352.15, 
	 "num_atms": 16, 
	 "gaussian": { 
		 "optdone": 1, 
		 "sigma_profile": "yes", 
		 "theory": "DFT", 
		 "functional": "B3LYP", 
		 "basiset": "6-31G**", 
		 "properties": { 
			 "R2extent": 1871.2695, 
			 "electric_dipole_moment_norm": 2.88131944081, 
			 "electric_quadrupole_moment_norm": 12.9675136059, 
			 "total_energy": -380.005783132, 
			 "HOMO_LUMO_gap": 0.17958, 
			 "cosmo_polarized_energy": -12.22, 
			 "cosmo_cavitation_energy": 19.79, 
			 "cosmo_dispersion_energy": -14.61, 
			 "cosmo_repulsion_energy": 1.25, 
			 "cosmo_total_nonelectrostatic_energy": 6.43, 
			 "SMD_solvation_energy": 0.12 
		},
		"coords": [
			{
				"x": -0.5508385042,
				"y": -0.3971038027,
				"z": -1.3534232534,
				"element": "C" 
			},
			{
				"x": 0.6867920254,
				"y": -1.2456630375,
				"z": -1.0226118224,
				"element": "C" 
			},
			{
				"x": 1.7168832727,
				"y": -0.6121172152,
				"z": -0.146118305,
				"element": "C" 
			},
			{
				"x": 1.8343953348,
				"y": -1.4096722619,
				"z": 0.9276501726,
				"element": "C" 
			},
			{
				"x": 2.7036213611,
				"y": -1.3024558053,
				"z": 2.1447348223,
				"element": "C" 
			},
			{
				"x": 3.7005213029,
				"y": -0.3018140176,
				"z": 2.0257002273,
				"element": "O" 
			},
			{
				"x": 0.9407586971,
				"y": -2.5323242026,
				"z": 0.8042695894,
				"element": "N" 
			},
			{
				"x": 0.2888385286,
				"y": -2.461801733,
				"z": -0.271769175,
				"element": "N" 
			},
			{
				"x": -1.0286890045,
				"y": -0.0451152873,
				"z": -0.4353604675,
				"element": "H" 
			},
			{
				"x": -1.2729317336,
				"y": -0.9935538415,
				"z": -1.9159848352,
				"element": "H" 
			},
			{
				"x": -0.2680536869,
				"y": 0.4719105867,
				"z": -1.9538516539,
				"element": "H" 
			},
			{
				"x": 1.1281648837,
				"y": -1.6111170136,
				"z": -1.9633644454,
				"element": "H" 
			},
			{
				"x": 2.2442017201,
				"y": 0.3116095435,
				"z": -0.3394443462,
				"element": "H" 
			},
			{
				"x": 3.1269169503,
				"y": -2.2936775387,
				"z": 2.3715308494,
				"element": "H" 
			},
			{
				"x": 2.0932677332,
				"y": -1.0241761347,
				"z": 3.0122479158,
				"element": "H" 
			},
			{
				"x": 4.3014511192,
				"y": -0.5734282386,
				"z": 1.3193947273,
				"element": "H" 
			}
		],
		 "valence_orbital": [ 
			{
				"type": "occ",
				"energy": -0.34524,
				"method": "rhf"
			},
			{
				"type": "occ",
				"energy": -0.33057,
				"method": "rhf"
			},
			{
				"type": "occ",
				"energy": -0.28819,
				"method": "rhf"
			},
			{
				"type": "occ",
				"energy": -0.26225,
				"method": "rhf"
			},
			{
				"type": "occ",
				"energy": -0.23857,
				"method": "rhf"
			},
			{
				"type": "unocc",
				"energy": -0.05899,
				"method": "rhf"
			},
			{
				"type": "unocc",
				"energy": 0.03843,
				"method": "rhf"
			},
			{
				"type": "unocc",
				"energy": 0.07104,
				"method": "rhf"
			},
			{
				"type": "unocc",
				"energy": 0.10656,
				"method": "rhf"
			},
			{
				"type": "unocc",
				"energy": 0.12275,
				"method": "rhf"
			}
		],
		"cosmo_sigma_profile": { 
			"-0.025": 0.0,
			"-0.024": 0.0,
			"-0.023": 0.0,
			"-0.022": 0.0,
			"-0.021": 0.0,
			"-0.02": 0.0,
			"-0.019": 0.0,
			"-0.018": 0.0,
			"-0.017": 0.0,
			"-0.016": 0.55379633954,
			"-0.015": 0.982139886482,
			"-0.014": 0.94396996397,
			"-0.013": 0.818859758808,
			"-0.012": 0.789917286141,
			"-0.011": 0.696546079401,
			"-0.01": 1.30565444003,
			"-0.009": 1.23268921244,
			"-0.008": 2.36452969306,
			"-0.007": 4.22964383011,
			"-0.006": 7.9619420543,
			"-0.005": 13.9634047649,
			"-0.004": 15.26367248,
			"-0.003": 14.3337835977,
			"-0.002": 12.4687811696,
			"-0.001": 13.0549358329,
			"0.0": 11.0675642405,
			"0.001": 6.96778207846,
			"0.002": 5.22106681953,
			"0.003": 2.80608167186,
			"0.004": 3.15018667826,
			"0.005": 3.30507086973,
			"0.006": 3.81879187562,
			"0.007": 2.22627672454,
			"0.008": 1.88544795725,
			"0.009": 3.31221488855,
			"0.01": 4.09560310616,
			"0.011": 3.72617240264,
			"0.012": 3.75779869568,
			"0.013": 4.61208998382,
			"0.014": 3.46090245042,
			"0.015": 1.31930816724,
			"0.016": 0.124111914474,
			"0.017": 0.0,
			"0.018": 0.0,
			"0.019": 0.0,
			"0.02": 0.0,
			"0.021": 0.0,
			"0.022": 0.0,
			"0.023": 0.0,
			"0.024": 0.0,
			"0.025": 0.0
		}
	}
}
