{
	 "smiles": "NC1=C(F)C=C(F)C=C1F", 
	 "Tm": 308.15, 
	 "num_atms": 14, 
	 "gaussian": { 
		 "optdone": 1, 
		 "sigma_profile": "yes", 
		 "theory": "DFT", 
		 "functional": "B3LYP", 
		 "basiset": "6-31G**", 
		 "properties": { 
			 "R2extent": 1718.2183, 
			 "electric_dipole_moment_norm": 1.74579706438, 
			 "electric_quadrupole_moment_norm": 3.86924863636, 
			 "total_energy": -585.298689902, 
			 "HOMO_LUMO_gap": 0.20336, 
			 "cosmo_polarized_energy": -5.95, 
			 "cosmo_cavitation_energy": 19.77, 
			 "cosmo_dispersion_energy": -14.47, 
			 "cosmo_repulsion_energy": 1.11, 
			 "cosmo_total_nonelectrostatic_energy": 6.4, 
			 "SMD_solvation_energy": 4.82 
		},
		"coords": [
			{
				"x": 0.5050968063,
				"y": 0.4987860069,
				"z": 1.7466921289,
				"element": "N" 
			},
			{
				"x": 0.1757240859,
				"y": 0.7385222591,
				"z": 0.4156504916,
				"element": "C" 
			},
			{
				"x": -0.201887797,
				"y": -0.2891547586,
				"z": -0.4567592571,
				"element": "C" 
			},
			{
				"x": -0.3174853331,
				"y": -1.5301311289,
				"z": 0.0737459299,
				"element": "F" 
			},
			{
				"x": -0.4709716409,
				"y": -0.0928745917,
				"z": -1.8038942453,
				"element": "C" 
			},
			{
				"x": -0.3550250704,
				"y": 1.1994799514,
				"z": -2.3041226937,
				"element": "C" 
			},
			{
				"x": -0.608368896,
				"y": 1.4206041226,
				"z": -3.6106769388,
				"element": "F" 
			},
			{
				"x": 0.0079556503,
				"y": 2.271835812,
				"z": -1.4965702795,
				"element": "C" 
			},
			{
				"x": 0.264273349,
				"y": 2.0126241528,
				"z": -0.1576067323,
				"element": "C" 
			},
			{
				"x": 0.6064145117,
				"y": 3.0316576653,
				"z": 0.6666012747,
				"element": "F" 
			},
			{
				"x": 0.0767202917,
				"y": -0.3318722886,
				"z": 2.1313363152,
				"element": "H" 
			},
			{
				"x": 0.4092171107,
				"y": 1.3080658923,
				"z": 2.3444538957,
				"element": "H" 
			},
			{
				"x": -0.7615345566,
				"y": -0.9212125101,
				"z": -2.4377398652,
				"element": "H" 
			},
			{
				"x": 0.0886714883,
				"y": 3.2764694154,
				"z": -1.8922100242,
				"element": "H" 
			}
		],
		 "valence_orbital": [ 
			{
				"type": "occ",
				"energy": -0.36961,
				"method": "rhf"
			},
			{
				"type": "occ",
				"energy": -0.36648,
				"method": "rhf"
			},
			{
				"type": "occ",
				"energy": -0.31564,
				"method": "rhf"
			},
			{
				"type": "occ",
				"energy": -0.25532,
				"method": "rhf"
			},
			{
				"type": "occ",
				"energy": -0.21097,
				"method": "rhf"
			},
			{
				"type": "unocc",
				"energy": -0.00761,
				"method": "rhf"
			},
			{
				"type": "unocc",
				"energy": 0.00798,
				"method": "rhf"
			},
			{
				"type": "unocc",
				"energy": 0.05593,
				"method": "rhf"
			},
			{
				"type": "unocc",
				"energy": 0.09795,
				"method": "rhf"
			},
			{
				"type": "unocc",
				"energy": 0.13206,
				"method": "rhf"
			}
		],
		"cosmo_sigma_profile": { 
			"-0.025": 0.0,
			"-0.024": 0.0,
			"-0.023": 0.0,
			"-0.022": 0.0,
			"-0.021": 0.0,
			"-0.02": 0.0,
			"-0.019": 0.0,
			"-0.018": 0.0,
			"-0.017": 0.0,
			"-0.016": 0.0,
			"-0.015": 0.0,
			"-0.014": 0.0,
			"-0.013": 0.616469753718,
			"-0.012": 1.84883641897,
			"-0.011": 2.02715365135,
			"-0.01": 2.50114659977,
			"-0.009": 3.24899804361,
			"-0.008": 4.9337767062,
			"-0.007": 4.37152871305,
			"-0.006": 5.19665772255,
			"-0.005": 5.09100924129,
			"-0.004": 4.36698314042,
			"-0.003": 5.43385746972,
			"-0.002": 4.94523403067,
			"-0.001": 7.21617986437,
			"0.0": 12.8033914223,
			"0.001": 24.981877959,
			"0.002": 20.3233471592,
			"0.003": 16.0484028512,
			"0.004": 23.494922332,
			"0.005": 4.06303798658,
			"0.006": 0.62615600471,
			"0.007": 0.606961834349,
			"0.008": 0.664975606395,
			"0.009": 0.758342732632,
			"0.01": 0.891610934249,
			"0.011": 0.377742514073,
			"0.012": 0.601196242952,
			"0.013": 0.71726248484,
			"0.014": 0.214155608737,
			"0.015": 0.0,
			"0.016": 0.0,
			"0.017": 0.0,
			"0.018": 0.0,
			"0.019": 0.0,
			"0.02": 0.0,
			"0.021": 0.0,
			"0.022": 0.0,
			"0.023": 0.0,
			"0.024": 0.0,
			"0.025": 0.0
		}
	}
}
