{
	 "smiles": "NC1=CN(N=C1)C1=NC=CC=N1", 
	 "Tm": 443.15, 
	 "num_atms": 19, 
	 "gaussian": { 
		 "optdone": 1, 
		 "sigma_profile": "yes", 
		 "theory": "DFT", 
		 "functional": "B3LYP", 
		 "basiset": "6-31G**", 
		 "properties": { 
			 "R2extent": 2502.2127, 
			 "electric_dipole_moment_norm": 2.77774799973, 
			 "electric_quadrupole_moment_norm": 21.9232317739, 
			 "total_energy": -544.683312768, 
			 "HOMO_LUMO_gap": 0.15773, 
			 "cosmo_polarized_energy": -16.77, 
			 "cosmo_cavitation_energy": 24.05, 
			 "cosmo_dispersion_energy": -18.18, 
			 "cosmo_repulsion_energy": 1.45, 
			 "cosmo_total_nonelectrostatic_energy": 7.32, 
			 "SMD_solvation_energy": 1.65 
		},
		"coords": [
			{
				"x": -2.0588576744,
				"y": -3.9282269795,
				"z": -1.6161371759,
				"element": "N" 
			},
			{
				"x": -1.2051619806,
				"y": -2.8754671448,
				"z": -1.2676473356,
				"element": "C" 
			},
			{
				"x": -1.5039625758,
				"y": -1.5472660483,
				"z": -1.0681577108,
				"element": "C" 
			},
			{
				"x": -0.2991471539,
				"y": -0.9097971702,
				"z": -0.8269663481,
				"element": "N" 
			},
			{
				"x": 0.7530480821,
				"y": -1.7658842293,
				"z": -0.8565288993,
				"element": "N" 
			},
			{
				"x": 0.2150382295,
				"y": -2.943913164,
				"z": -1.1242875634,
				"element": "C" 
			},
			{
				"x": -0.130006974,
				"y": 0.4574222872,
				"z": -0.569929212,
				"element": "C" 
			},
			{
				"x": -1.2597433772,
				"y": 1.180638656,
				"z": -0.5738267996,
				"element": "N" 
			},
			{
				"x": -1.1132055961,
				"y": 2.4852978482,
				"z": -0.3323379992,
				"element": "C" 
			},
			{
				"x": 0.1278813246,
				"y": 3.0698736616,
				"z": -0.0900488129,
				"element": "C" 
			},
			{
				"x": 1.223113868,
				"y": 2.2056287495,
				"z": -0.1127399268,
				"element": "C" 
			},
			{
				"x": 1.1123020261,
				"y": 0.8977915398,
				"z": -0.3505146526,
				"element": "N" 
			},
			{
				"x": -3.0263265845,
				"y": -3.7633017303,
				"z": -1.3688240064,
				"element": "H" 
			},
			{
				"x": -1.7570106442,
				"y": -4.8230844022,
				"z": -1.2513580805,
				"element": "H" 
			},
			{
				"x": -2.4293796829,
				"y": -0.9967644695,
				"z": -1.0787340137,
				"element": "H" 
			},
			{
				"x": 0.8489654324,
				"y": -3.8175292545,
				"z": -1.2118053322,
				"element": "H" 
			},
			{
				"x": -2.0259675379,
				"y": 3.0787171184,
				"z": -0.3342459296,
				"element": "H" 
			},
			{
				"x": 0.2356513553,
				"y": 4.1304427586,
				"z": 0.1044875385,
				"element": "H" 
			},
			{
				"x": 2.2320694634,
				"y": 2.5737219731,
				"z": 0.0668022603,
				"element": "H" 
			}
		],
		 "valence_orbital": [ 
			{
				"type": "occ",
				"energy": -0.29227,
				"method": "rhf"
			},
			{
				"type": "occ",
				"energy": -0.28316,
				"method": "rhf"
			},
			{
				"type": "occ",
				"energy": -0.25157,
				"method": "rhf"
			},
			{
				"type": "occ",
				"energy": -0.24181,
				"method": "rhf"
			},
			{
				"type": "occ",
				"energy": -0.1994,
				"method": "rhf"
			},
			{
				"type": "unocc",
				"energy": -0.04167,
				"method": "rhf"
			},
			{
				"type": "unocc",
				"energy": -0.0364,
				"method": "rhf"
			},
			{
				"type": "unocc",
				"energy": 0.04048,
				"method": "rhf"
			},
			{
				"type": "unocc",
				"energy": 0.072,
				"method": "rhf"
			},
			{
				"type": "unocc",
				"energy": 0.09938,
				"method": "rhf"
			}
		],
		"cosmo_sigma_profile": { 
			"-0.025": 0.0,
			"-0.024": 0.0,
			"-0.023": 0.0,
			"-0.022": 0.0,
			"-0.021": 0.0,
			"-0.02": 0.0,
			"-0.019": 0.0,
			"-0.018": 0.0,
			"-0.017": 0.0,
			"-0.016": 0.0,
			"-0.015": 0.0,
			"-0.014": 0.0,
			"-0.013": 0.725254164706,
			"-0.012": 2.7807582506,
			"-0.011": 2.72213578244,
			"-0.01": 3.39357220012,
			"-0.009": 2.9948661034,
			"-0.008": 9.49403881723,
			"-0.007": 13.8495189462,
			"-0.006": 10.8989902252,
			"-0.005": 8.65282026642,
			"-0.004": 7.67654602028,
			"-0.003": 7.93674850421,
			"-0.002": 10.785339098,
			"-0.001": 13.1905327277,
			"0.0": 14.7436065534,
			"0.001": 12.1765767916,
			"0.002": 9.6734224947,
			"0.003": 11.9583768281,
			"0.004": 8.20555419238,
			"0.005": 6.12563176963,
			"0.006": 5.56643523266,
			"0.007": 3.95217828886,
			"0.008": 3.73704967438,
			"0.009": 4.11337716311,
			"0.01": 3.1664563046,
			"0.011": 2.44784217367,
			"0.012": 2.27926353274,
			"0.013": 1.77114893596,
			"0.014": 2.20450901313,
			"0.015": 1.67611023988,
			"0.016": 1.45873888808,
			"0.017": 1.02674683359,
			"0.018": 1.10515166639,
			"0.019": 0.754427709157,
			"0.02": 0.298825704557,
			"0.021": 0.0,
			"0.022": 0.0,
			"0.023": 0.0,
			"0.024": 0.0,
			"0.025": 0.0
		}
	}
}
