{
	 "smiles": "OC1NN(C(O)C1=C/C1=CC=C2OCOC2=C1)C1=CC=CC=C1", 
	 "Tm": 563.15, 
	 "num_atms": 39, 
	 "gaussian": { 
		 "optdone": 1, 
		 "sigma_profile": "yes", 
		 "theory": "DFT", 
		 "functional": "B3LYP", 
		 "basiset": "6-31G**", 
		 "properties": { 
			 "R2extent": 9035.4809, 
			 "electric_dipole_moment_norm": 2.73328381439, 
			 "electric_quadrupole_moment_norm": 4.19301815283, 
			 "total_energy": -1067.75734177, 
			 "HOMO_LUMO_gap": 0.16507, 
			 "cosmo_polarized_energy": -17.69, 
			 "cosmo_cavitation_energy": 42.18, 
			 "cosmo_dispersion_energy": -30.11, 
			 "cosmo_repulsion_energy": 2.29, 
			 "cosmo_total_nonelectrostatic_energy": 14.37, 
			 "SMD_solvation_energy": 6.04 
		},
		"coords": [
			{
				"x": 0.0855552189,
				"y": 3.7131212905,
				"z": -1.9436984662,
				"element": "O" 
			},
			{
				"x": 0.9861572918,
				"y": 3.483999222,
				"z": -0.8783998615,
				"element": "C" 
			},
			{
				"x": 2.349916946,
				"y": 3.1367797231,
				"z": -1.3230568076,
				"element": "N" 
			},
			{
				"x": 2.5728407023,
				"y": 1.7482972751,
				"z": -1.0445306725,
				"element": "N" 
			},
			{
				"x": 1.7684301402,
				"y": 1.4086756836,
				"z": 0.1399924807,
				"element": "C" 
			},
			{
				"x": 2.4834827216,
				"y": 1.7124199025,
				"z": 1.3327469073,
				"element": "O" 
			},
			{
				"x": 0.5766673777,
				"y": 2.3248972186,
				"z": 0.023973206,
				"element": "C" 
			},
			{
				"x": -0.6759622976,
				"y": 2.144264032,
				"z": 0.4739101186,
				"element": "C" 
			},
			{
				"x": -1.2031838674,
				"y": 1.0817490287,
				"z": 1.3373433776,
				"element": "C" 
			},
			{
				"x": -2.5804139807,
				"y": 0.8026493195,
				"z": 1.2825435322,
				"element": "C" 
			},
			{
				"x": -3.1734206492,
				"y": -0.2094732428,
				"z": 2.0523367349,
				"element": "C" 
			},
			{
				"x": -2.336903982,
				"y": -0.9248744594,
				"z": 2.8873205994,
				"element": "C" 
			},
			{
				"x": -2.6601415719,
				"y": -1.9307395338,
				"z": 3.7615769242,
				"element": "O" 
			},
			{
				"x": -1.4184327173,
				"y": -2.3732626597,
				"z": 4.3260749885,
				"element": "C" 
			},
			{
				"x": -0.3931893507,
				"y": -1.4666497409,
				"z": 3.9092129539,
				"element": "O" 
			},
			{
				"x": -0.9731670504,
				"y": -0.6454706223,
				"z": 2.9699777462,
				"element": "C" 
			},
			{
				"x": -0.3734740679,
				"y": 0.3459176859,
				"z": 2.2255569496,
				"element": "C" 
			},
			{
				"x": 2.506236528,
				"y": 0.8904704331,
				"z": -2.178923835,
				"element": "C" 
			},
			{
				"x": 2.7317438121,
				"y": -0.4877334881,
				"z": -2.012607824,
				"element": "C" 
			},
			{
				"x": 2.6918030522,
				"y": -1.3470204497,
				"z": -3.1082196806,
				"element": "C" 
			},
			{
				"x": 2.4511366127,
				"y": -0.8533077673,
				"z": -4.3923571879,
				"element": "C" 
			},
			{
				"x": 2.2551355904,
				"y": 0.5172787909,
				"z": -4.5624192573,
				"element": "C" 
			},
			{
				"x": 2.2790214325,
				"y": 1.3877434641,
				"z": -3.4716282551,
				"element": "C" 
			},
			{
				"x": -0.0581495005,
				"y": 2.8652913332,
				"z": -2.3883481331,
				"element": "H" 
			},
			{
				"x": 1.0246533413,
				"y": 4.4399003014,
				"z": -0.3454781924,
				"element": "H" 
			},
			{
				"x": 3.0327763189,
				"y": 3.6523642107,
				"z": -0.7750501263,
				"element": "H" 
			},
			{
				"x": 1.4867806254,
				"y": 0.3512786813,
				"z": 0.1029359452,
				"element": "H" 
			},
			{
				"x": 3.3289153994,
				"y": 1.2426323588,
				"z": 1.277820744,
				"element": "H" 
			},
			{
				"x": -1.4135017909,
				"y": 2.8706615486,
				"z": 0.1322530747,
				"element": "H" 
			},
			{
				"x": -3.2051620364,
				"y": 1.3835932302,
				"z": 0.6105214412,
				"element": "H" 
			},
			{
				"x": -4.2358859689,
				"y": -0.4185352163,
				"z": 2.0022705232,
				"element": "H" 
			},
			{
				"x": -1.1901582724,
				"y": -3.3835735474,
				"z": 3.9584508049,
				"element": "H" 
			},
			{
				"x": -1.4928571119,
				"y": -2.3654850199,
				"z": 5.4184464572,
				"element": "H" 
			},
			{
				"x": 0.6758308626,
				"y": 0.5879797092,
				"z": 2.3480108066,
				"element": "H" 
			},
			{
				"x": 2.9594566039,
				"y": -0.8855617842,
				"z": -1.0280919157,
				"element": "H" 
			},
			{
				"x": 2.8647047469,
				"y": -2.408802031,
				"z": -2.9555846455,
				"element": "H" 
			},
			{
				"x": 2.4285881301,
				"y": -1.5247796323,
				"z": -5.2451176164,
				"element": "H" 
			},
			{
				"x": 2.0772695129,
				"y": 0.9216738002,
				"z": -5.555322504,
				"element": "H" 
			},
			{
				"x": 2.1359012485,
				"y": 2.4531309518,
				"z": -3.6044413353,
				"element": "H" 
			}
		],
		 "valence_orbital": [ 
			{
				"type": "occ",
				"energy": -0.25753,
				"method": "rhf"
			},
			{
				"type": "occ",
				"energy": -0.2467,
				"method": "rhf"
			},
			{
				"type": "occ",
				"energy": -0.24291,
				"method": "rhf"
			},
			{
				"type": "occ",
				"energy": -0.20804,
				"method": "rhf"
			},
			{
				"type": "occ",
				"energy": -0.20304,
				"method": "rhf"
			},
			{
				"type": "unocc",
				"energy": -0.03797,
				"method": "rhf"
			},
			{
				"type": "unocc",
				"energy": -0.00187,
				"method": "rhf"
			},
			{
				"type": "unocc",
				"energy": -0.00056,
				"method": "rhf"
			},
			{
				"type": "unocc",
				"energy": 0.01102,
				"method": "rhf"
			},
			{
				"type": "unocc",
				"energy": 0.04454,
				"method": "rhf"
			}
		],
		"cosmo_sigma_profile": { 
			"-0.025": 0.0,
			"-0.024": 0.0,
			"-0.023": 0.0,
			"-0.022": 0.0,
			"-0.021": 0.0,
			"-0.02": 0.0,
			"-0.019": 0.0,
			"-0.018": 0.0,
			"-0.017": 0.0,
			"-0.016": 0.310980262472,
			"-0.015": 0.991698716719,
			"-0.014": 0.952687891859,
			"-0.013": 1.10543214484,
			"-0.012": 2.37956249191,
			"-0.011": 3.13486222686,
			"-0.01": 2.36122692927,
			"-0.009": 3.47899370301,
			"-0.008": 8.1880215287,
			"-0.007": 13.954514356,
			"-0.006": 18.3467437783,
			"-0.005": 21.2358398311,
			"-0.004": 20.2254533352,
			"-0.003": 22.5234626569,
			"-0.002": 19.4295369211,
			"-0.001": 20.4443719111,
			"0.0": 19.2763857912,
			"0.001": 16.9015692002,
			"0.002": 23.2937628122,
			"0.003": 24.6455869107,
			"0.004": 21.3444504708,
			"0.005": 18.0870542185,
			"0.006": 16.5337269952,
			"0.007": 10.0991995182,
			"0.008": 6.14641972027,
			"0.009": 5.47884948878,
			"0.01": 4.341514169,
			"0.011": 3.39788891984,
			"0.012": 3.20636126794,
			"0.013": 2.68579025857,
			"0.014": 1.07580353934,
			"0.015": 0.0,
			"0.016": 0.0,
			"0.017": 0.0,
			"0.018": 0.0,
			"0.019": 0.0,
			"0.02": 0.0,
			"0.021": 0.0,
			"0.022": 0.0,
			"0.023": 0.0,
			"0.024": 0.0,
			"0.025": 0.0
		}
	}
}
