{
	 "smiles": "CCC1=CC(CC2=CC(CC)=C(N)C(CC)=C2)=CC(CC)=C1N", 
	 "Tm": 362.65, 
	 "num_atms": 53, 
	 "gaussian": { 
		 "optdone": 1, 
		 "sigma_profile": "yes", 
		 "theory": "DFT", 
		 "functional": "B3LYP", 
		 "basiset": "6-31G**", 
		 "properties": { 
			 "R2extent": 10333.0323, 
			 "electric_dipole_moment_norm": 2.69003693283, 
			 "electric_quadrupole_moment_norm": 10.9470685578, 
			 "total_energy": -927.870946514, 
			 "HOMO_LUMO_gap": 0.19371, 
			 "cosmo_polarized_energy": -13.76, 
			 "cosmo_cavitation_energy": 52.39, 
			 "cosmo_dispersion_energy": -35.06, 
			 "cosmo_repulsion_energy": 2.78, 
			 "cosmo_total_nonelectrostatic_energy": 20.11, 
			 "SMD_solvation_energy": 7.78 
		},
		"coords": [
			{
				"x": 1.0538378581,
				"y": 2.7621320435,
				"z": 3.1833461654,
				"element": "C" 
			},
			{
				"x": 1.2522870671,
				"y": 1.3367256302,
				"z": 3.7051081647,
				"element": "C" 
			},
			{
				"x": 0.4888447146,
				"y": 0.2396507954,
				"z": 2.9838209112,
				"element": "C" 
			},
			{
				"x": -0.3130957612,
				"y": 0.4954811109,
				"z": 1.8727489151,
				"element": "C" 
			},
			{
				"x": -1.0336198977,
				"y": -0.5146897246,
				"z": 1.2219069305,
				"element": "C" 
			},
			{
				"x": -1.9222906491,
				"y": -0.1967047344,
				"z": 0.0306270089,
				"element": "C" 
			},
			{
				"x": -1.2133222292,
				"y": 0.4719606917,
				"z": -1.1360181398,
				"element": "C" 
			},
			{
				"x": -1.664247292,
				"y": 1.6825217601,
				"z": -1.6645703354,
				"element": "C" 
			},
			{
				"x": -1.0413889483,
				"y": 2.3078138106,
				"z": -2.7501889672,
				"element": "C" 
			},
			{
				"x": -1.570091421,
				"y": 3.632301757,
				"z": -3.2642217536,
				"element": "C" 
			},
			{
				"x": -0.8143696818,
				"y": 4.8584776021,
				"z": -2.7141811535,
				"element": "C" 
			},
			{
				"x": 0.0840323081,
				"y": 1.6925402312,
				"z": -3.3386143887,
				"element": "C" 
			},
			{
				"x": 0.6937299757,
				"y": 2.2701933108,
				"z": -4.4673282129,
				"element": "N" 
			},
			{
				"x": 0.557179049,
				"y": 0.4592735048,
				"z": -2.8289597124,
				"element": "C" 
			},
			{
				"x": 1.7348251437,
				"y": -0.2531089923,
				"z": -3.4637960795,
				"element": "C" 
			},
			{
				"x": 1.390678043,
				"y": -0.9535879756,
				"z": -4.7922133596,
				"element": "C" 
			},
			{
				"x": -0.0962810544,
				"y": -0.1169159618,
				"z": -1.7388909292,
				"element": "C" 
			},
			{
				"x": -0.9259134222,
				"y": -1.8117313486,
				"z": 1.7223567089,
				"element": "C" 
			},
			{
				"x": -0.1289189054,
				"y": -2.1248860277,
				"z": 2.8295443255,
				"element": "C" 
			},
			{
				"x": -0.0382812856,
				"y": -3.5584422218,
				"z": 3.3143800424,
				"element": "C" 
			},
			{
				"x": 1.20696365,
				"y": -4.3095474535,
				"z": 2.8023727634,
				"element": "C" 
			},
			{
				"x": 0.589271379,
				"y": -1.0906082853,
				"z": 3.4631806327,
				"element": "C" 
			},
			{
				"x": 1.3513873913,
				"y": -1.3547668486,
				"z": 4.6141059398,
				"element": "N" 
			},
			{
				"x": 0.003790825,
				"y": 3.0663751658,
				"z": 3.2392878521,
				"element": "H" 
			},
			{
				"x": 1.6377293447,
				"y": 3.4685797686,
				"z": 3.7814387405,
				"element": "H" 
			},
			{
				"x": 1.376929465,
				"y": 2.8609803635,
				"z": 2.1422063512,
				"element": "H" 
			},
			{
				"x": 2.3306539225,
				"y": 1.1075574862,
				"z": 3.6732302495,
				"element": "H" 
			},
			{
				"x": 0.9831837081,
				"y": 1.3076848267,
				"z": 4.7710930295,
				"element": "H" 
			},
			{
				"x": -0.3846241583,
				"y": 1.5092135534,
				"z": 1.4911092885,
				"element": "H" 
			},
			{
				"x": -2.7490117679,
				"y": 0.4515476613,
				"z": 0.3502202579,
				"element": "H" 
			},
			{
				"x": -2.3908754053,
				"y": -1.1294355112,
				"z": -0.310412274,
				"element": "H" 
			},
			{
				"x": -2.5361609099,
				"y": 2.1626767574,
				"z": -1.222906406,
				"element": "H" 
			},
			{
				"x": -2.6266333179,
				"y": 3.7213255314,
				"z": -2.9880564514,
				"element": "H" 
			},
			{
				"x": -1.5464029716,
				"y": 3.6461715015,
				"z": -4.3618380827,
				"element": "H" 
			},
			{
				"x": -1.2235146159,
				"y": 5.790281938,
				"z": -3.1194111606,
				"element": "H" 
			},
			{
				"x": -0.8898465725,
				"y": 4.89907416,
				"z": -1.6231091468,
				"element": "H" 
			},
			{
				"x": 0.2534362564,
				"y": 4.8274503531,
				"z": -2.9600896706,
				"element": "H" 
			},
			{
				"x": 1.6517157259,
				"y": 1.9848158456,
				"z": -4.6170515929,
				"element": "H" 
			},
			{
				"x": 0.6078117563,
				"y": 3.2748167549,
				"z": -4.5251735962,
				"element": "H" 
			},
			{
				"x": 2.119348902,
				"y": -0.9947454373,
				"z": -2.7551026775,
				"element": "H" 
			},
			{
				"x": 2.5675637946,
				"y": 0.4481804928,
				"z": -3.6285439932,
				"element": "H" 
			},
			{
				"x": 2.2728732024,
				"y": -1.4433746154,
				"z": -5.2189077148,
				"element": "H" 
			},
			{
				"x": 0.6219467641,
				"y": -1.7162672662,
				"z": -4.6336086529,
				"element": "H" 
			},
			{
				"x": 1.0034467009,
				"y": -0.2424606588,
				"z": -5.5278568815,
				"element": "H" 
			},
			{
				"x": 0.2849021624,
				"y": -1.0554343495,
				"z": -1.3415305901,
				"element": "H" 
			},
			{
				"x": -1.4832751214,
				"y": -2.6149514771,
				"z": 1.2428077959,
				"element": "H" 
			},
			{
				"x": -0.0624003293,
				"y": -3.5890718115,
				"z": 4.4119562221,
				"element": "H" 
			},
			{
				"x": -0.9323766394,
				"y": -4.0989001069,
				"z": 2.9843031001,
				"element": "H" 
			},
			{
				"x": 2.1369870347,
				"y": -3.8138495829,
				"z": 3.1034245752,
				"element": "H" 
			},
			{
				"x": 1.2067984073,
				"y": -4.3529212387,
				"z": 1.7088222928,
				"element": "H" 
			},
			{
				"x": 1.235694418,
				"y": -5.3357349644,
				"z": 3.1845284259,
				"element": "H" 
			},
			{
				"x": 2.111626495,
				"y": -0.7097640411,
				"z": 4.7769720696,
				"element": "H" 
			},
			{
				"x": 1.6638668925,
				"y": -2.3101037736,
				"z": 4.7066831639,
				"element": "H" 
			}
		],
		 "valence_orbital": [ 
			{
				"type": "occ",
				"energy": -0.28387,
				"method": "rhf"
			},
			{
				"type": "occ",
				"energy": -0.22404,
				"method": "rhf"
			},
			{
				"type": "occ",
				"energy": -0.22205,
				"method": "rhf"
			},
			{
				"type": "occ",
				"energy": -0.19084,
				"method": "rhf"
			},
			{
				"type": "occ",
				"energy": -0.18119,
				"method": "rhf"
			},
			{
				"type": "unocc",
				"energy": 0.01252,
				"method": "rhf"
			},
			{
				"type": "unocc",
				"energy": 0.01726,
				"method": "rhf"
			},
			{
				"type": "unocc",
				"energy": 0.02314,
				"method": "rhf"
			},
			{
				"type": "unocc",
				"energy": 0.03334,
				"method": "rhf"
			},
			{
				"type": "unocc",
				"energy": 0.07203,
				"method": "rhf"
			}
		],
		"cosmo_sigma_profile": { 
			"-0.025": 0.0,
			"-0.024": 0.0,
			"-0.023": 0.0,
			"-0.022": 0.0,
			"-0.021": 0.0,
			"-0.02": 0.0,
			"-0.019": 0.0,
			"-0.018": 0.0,
			"-0.017": 0.0,
			"-0.016": 0.0,
			"-0.015": 0.0,
			"-0.014": 0.0,
			"-0.013": 0.0,
			"-0.012": 0.105367520291,
			"-0.011": 2.05859706406,
			"-0.01": 5.00227204442,
			"-0.009": 4.91435313654,
			"-0.008": 6.62567757326,
			"-0.007": 5.47901562567,
			"-0.006": 5.75248905899,
			"-0.005": 6.21380584841,
			"-0.004": 14.6419676002,
			"-0.003": 42.1911094682,
			"-0.002": 46.3711716654,
			"-0.001": 55.3912641911,
			"0.0": 56.5630886093,
			"0.001": 48.8469040581,
			"0.002": 23.598488057,
			"0.003": 14.2683920148,
			"0.004": 12.7872985617,
			"0.005": 12.1357942566,
			"0.006": 13.6481163186,
			"0.007": 14.1197747432,
			"0.008": 8.71402634167,
			"0.009": 2.0402473288,
			"0.01": 1.62361872751,
			"0.011": 1.45122428147,
			"0.012": 1.06098786937,
			"0.013": 1.1157059922,
			"0.014": 0.680841104198,
			"0.015": 0.836393369855,
			"0.016": 0.0242750010962,
			"0.017": 0.0,
			"0.018": 0.0,
			"0.019": 0.0,
			"0.02": 0.0,
			"0.021": 0.0,
			"0.022": 0.0,
			"0.023": 0.0,
			"0.024": 0.0,
			"0.025": 0.0
		}
	}
}
