{
	 "smiles": "NC1=C(C=C(C=C1Br)[N+]([O-])=O)[N+]([O-])=O", 
	 "Tm": 426.15, 
	 "num_atms": 18, 
	 "gaussian": { 
		 "optdone": 1, 
		 "sigma_profile": "yes", 
		 "theory": "DFT", 
		 "functional": "B3LYP", 
		 "basiset": "6-31G**", 
		 "properties": { 
			 "R2extent": 4659.4546, 
			 "electric_dipole_moment_norm": 5.31102640268, 
			 "electric_quadrupole_moment_norm": 11.1808581804, 
			 "total_energy": -3267.40790537, 
			 "HOMO_LUMO_gap": 0.14667, 
			 "cosmo_polarized_energy": -13.41, 
			 "cosmo_cavitation_energy": 26.16, 
			 "cosmo_dispersion_energy": -20.04, 
			 "cosmo_repulsion_energy": 1.56, 
			 "cosmo_total_nonelectrostatic_energy": 7.68, 
			 "SMD_solvation_energy": 7.65 
		},
		"coords": [
			{
				"x": 2.3077024042,
				"y": 0.1909551876,
				"z": 1.1647543208,
				"element": "N" 
			},
			{
				"x": 1.5751138588,
				"y": -0.2255408927,
				"z": 0.1205467487,
				"element": "C" 
			},
			{
				"x": 1.7657954927,
				"y": 0.2405891545,
				"z": -1.2194870674,
				"element": "C" 
			},
			{
				"x": 0.9851633068,
				"y": -0.2148147557,
				"z": -2.2804897478,
				"element": "C" 
			},
			{
				"x": -0.0065765359,
				"y": -1.1457235917,
				"z": -2.0407916881,
				"element": "C" 
			},
			{
				"x": -0.242391295,
				"y": -1.6407324623,
				"z": -0.7504163044,
				"element": "C" 
			},
			{
				"x": 0.530298025,
				"y": -1.1883886582,
				"z": 0.2928665665,
				"element": "C" 
			},
			{
				"x": 0.1985967966,
				"y": -1.8705801222,
				"z": 2.045645129,
				"element": "Br" 
			},
			{
				"x": -0.8285583409,
				"y": -1.6272026367,
				"z": -3.1489983317,
				"element": "N" 
			},
			{
				"x": -1.7006535862,
				"y": -2.4570865476,
				"z": -2.8869322595,
				"element": "O" 
			},
			{
				"x": -0.5975879064,
				"y": -1.1742689768,
				"z": -4.2693018695,
				"element": "O" 
			},
			{
				"x": 2.7937129752,
				"y": 1.2230961804,
				"z": -1.5477877085,
				"element": "N" 
			},
			{
				"x": 3.5159500359,
				"y": 1.6602890219,
				"z": -0.6349600049,
				"element": "O" 
			},
			{
				"x": 2.9022859588,
				"y": 1.5782126833,
				"z": -2.7171457731,
				"element": "O" 
			},
			{
				"x": 2.1169775563,
				"y": -0.1819213305,
				"z": 2.0820179395,
				"element": "H" 
			},
			{
				"x": 3.0350161629,
				"y": 0.872655617,
				"z": 0.9939804141,
				"element": "H" 
			},
			{
				"x": 1.1616283829,
				"y": 0.1627108965,
				"z": -3.278139158,
				"element": "H" 
			},
			{
				"x": -1.0272732915,
				"y": -2.3695487668,
				"z": -0.5959612056,
				"element": "H" 
			}
		],
		 "valence_orbital": [ 
			{
				"type": "occ",
				"energy": -0.31652,
				"method": "rhf"
			},
			{
				"type": "occ",
				"energy": -0.31208,
				"method": "rhf"
			},
			{
				"type": "occ",
				"energy": -0.30048,
				"method": "rhf"
			},
			{
				"type": "occ",
				"energy": -0.29586,
				"method": "rhf"
			},
			{
				"type": "occ",
				"energy": -0.25722,
				"method": "rhf"
			},
			{
				"type": "unocc",
				"energy": -0.11055,
				"method": "rhf"
			},
			{
				"type": "unocc",
				"energy": -0.097,
				"method": "rhf"
			},
			{
				"type": "unocc",
				"energy": -0.03556,
				"method": "rhf"
			},
			{
				"type": "unocc",
				"energy": -0.03217,
				"method": "rhf"
			},
			{
				"type": "unocc",
				"energy": -0.0027,
				"method": "rhf"
			}
		],
		"cosmo_sigma_profile": { 
			"-0.025": 0.0,
			"-0.024": 0.0,
			"-0.023": 0.0,
			"-0.022": 0.0,
			"-0.021": 0.0,
			"-0.02": 0.0,
			"-0.019": 0.0,
			"-0.018": 0.0,
			"-0.017": 0.0,
			"-0.016": 0.0,
			"-0.015": 0.213061759628,
			"-0.014": 0.713413744307,
			"-0.013": 1.08457914682,
			"-0.012": 1.97935664307,
			"-0.011": 1.94341199794,
			"-0.01": 1.49833069638,
			"-0.009": 1.93191410839,
			"-0.008": 3.07528674852,
			"-0.007": 5.3646135523,
			"-0.006": 9.03571838021,
			"-0.005": 11.28024984,
			"-0.004": 15.8158170248,
			"-0.003": 23.887747483,
			"-0.002": 21.1704992346,
			"-0.001": 15.7733575001,
			"0.0": 12.1912919397,
			"0.001": 8.98749169182,
			"0.002": 10.3869334938,
			"0.003": 10.7027596779,
			"0.004": 6.10416262935,
			"0.005": 5.56830698841,
			"0.006": 7.20021732429,
			"0.007": 14.4720192284,
			"0.008": 11.6360813107,
			"0.009": 8.21987550486,
			"0.01": 3.97550803364,
			"0.011": 0.0944976402061,
			"0.012": 0.0,
			"0.013": 0.0,
			"0.014": 0.0,
			"0.015": 0.0,
			"0.016": 0.0,
			"0.017": 0.0,
			"0.018": 0.0,
			"0.019": 0.0,
			"0.02": 0.0,
			"0.021": 0.0,
			"0.022": 0.0,
			"0.023": 0.0,
			"0.024": 0.0,
			"0.025": 0.0
		}
	}
}
