{
	 "smiles": "COC1=CC=C(OCC2=CC(C(O)=O)=C(C)O2)C=C1", 
	 "Tm": 401.15, 
	 "num_atms": 33, 
	 "gaussian": { 
		 "optdone": 1, 
		 "sigma_profile": "yes", 
		 "theory": "DFT", 
		 "functional": "B3LYP", 
		 "basiset": "6-31G**", 
		 "properties": { 
			 "R2extent": 8308.4362, 
			 "electric_dipole_moment_norm": 1.36146902278, 
			 "electric_quadrupole_moment_norm": 14.2072075905, 
			 "total_energy": -918.025031153, 
			 "HOMO_LUMO_gap": 0.16447, 
			 "cosmo_polarized_energy": -14.18, 
			 "cosmo_cavitation_energy": 38.06, 
			 "cosmo_dispersion_energy": -27.31, 
			 "cosmo_repulsion_energy": 2.12, 
			 "cosmo_total_nonelectrostatic_energy": 12.87, 
			 "SMD_solvation_energy": 9.13 
		},
		"coords": [
			{
				"x": -2.4696340394,
				"y": -6.4314509811,
				"z": -2.1717565115,
				"element": "C" 
			},
			{
				"x": -1.3833005015,
				"y": -5.5231329384,
				"z": -2.1755397934,
				"element": "O" 
			},
			{
				"x": -1.622338655,
				"y": -4.2339529874,
				"z": -1.7775782757,
				"element": "C" 
			},
			{
				"x": -2.8672092427,
				"y": -3.7411385895,
				"z": -1.3664754583,
				"element": "C" 
			},
			{
				"x": -2.9948263859,
				"y": -2.4048029261,
				"z": -0.9881727988,
				"element": "C" 
			},
			{
				"x": -1.8927743298,
				"y": -1.5457266744,
				"z": -1.0039285869,
				"element": "C" 
			},
			{
				"x": -2.1439788693,
				"y": -0.2534591308,
				"z": -0.603070625,
				"element": "O" 
			},
			{
				"x": -1.2124894568,
				"y": 0.7863512749,
				"z": -0.9172984111,
				"element": "C" 
			},
			{
				"x": -0.2255844491,
				"y": 1.0739212588,
				"z": 0.1624737809,
				"element": "C" 
			},
			{
				"x": -0.198184136,
				"y": 1.9850869476,
				"z": 1.1690698082,
				"element": "C" 
			},
			{
				"x": 1.0198537453,
				"y": 1.7566398634,
				"z": 1.8990028329,
				"element": "C" 
			},
			{
				"x": 1.5132522495,
				"y": 2.4820475143,
				"z": 3.0730907171,
				"element": "C" 
			},
			{
				"x": 0.6634366077,
				"y": 3.4716985109,
				"z": 3.4515599874,
				"element": "O" 
			},
			{
				"x": 2.5519659262,
				"y": 2.2628849884,
				"z": 3.6713701727,
				"element": "O" 
			},
			{
				"x": 1.6592774431,
				"y": 0.7068644737,
				"z": 1.2775731924,
				"element": "C" 
			},
			{
				"x": 2.9360111435,
				"y": -0.0095053196,
				"z": 1.5299828534,
				"element": "C" 
			},
			{
				"x": 0.9123590902,
				"y": 0.2923849567,
				"z": 0.224077787,
				"element": "O" 
			},
			{
				"x": -0.6442010776,
				"y": -2.0414697583,
				"z": -1.4019666718,
				"element": "C" 
			},
			{
				"x": -0.5192014133,
				"y": -3.3739061977,
				"z": -1.7897742413,
				"element": "C" 
			},
			{
				"x": -2.0680220867,
				"y": -7.3866780238,
				"z": -2.5145199191,
				"element": "H" 
			},
			{
				"x": -2.8909634002,
				"y": -6.5598394687,
				"z": -1.1655160767,
				"element": "H" 
			},
			{
				"x": -3.2700068206,
				"y": -6.1136598664,
				"z": -2.8536422241,
				"element": "H" 
			},
			{
				"x": -3.7423623535,
				"y": -4.3797706553,
				"z": -1.3430102092,
				"element": "H" 
			},
			{
				"x": -3.9563078065,
				"y": -2.0091676654,
				"z": -0.6773398137,
				"element": "H" 
			},
			{
				"x": -1.8234419877,
				"y": 1.6824868945,
				"z": -1.0568058008,
				"element": "H" 
			},
			{
				"x": -0.7029122423,
				"y": 0.5709348034,
				"z": -1.8641661459,
				"element": "H" 
			},
			{
				"x": -0.9445568063,
				"y": 2.73468364,
				"z": 1.3849010123,
				"element": "H" 
			},
			{
				"x": 1.0733909804,
				"y": 3.8862116869,
				"z": 4.2285823709,
				"element": "H" 
			},
			{
				"x": 3.4289650352,
				"y": 0.4341259458,
				"z": 2.3946319796,
				"element": "H" 
			},
			{
				"x": 2.7521089771,
				"y": -1.0725028066,
				"z": 1.7227189382,
				"element": "H" 
			},
			{
				"x": 3.5985796798,
				"y": 0.0575169208,
				"z": 0.6595954813,
				"element": "H" 
			},
			{
				"x": 0.2373539258,
				"y": -1.4129820315,
				"z": -1.3857720119,
				"element": "H" 
			},
			{
				"x": 0.4427412561,
				"y": -3.7703936591,
				"z": -2.0983973392,
				"element": "H" 
			}
		],
		 "valence_orbital": [ 
			{
				"type": "occ",
				"energy": -0.28591,
				"method": "rhf"
			},
			{
				"type": "occ",
				"energy": -0.27667,
				"method": "rhf"
			},
			{
				"type": "occ",
				"energy": -0.24758,
				"method": "rhf"
			},
			{
				"type": "occ",
				"energy": -0.23424,
				"method": "rhf"
			},
			{
				"type": "occ",
				"energy": -0.19592,
				"method": "rhf"
			},
			{
				"type": "unocc",
				"energy": -0.03145,
				"method": "rhf"
			},
			{
				"type": "unocc",
				"energy": -0.00011,
				"method": "rhf"
			},
			{
				"type": "unocc",
				"energy": 0.00581,
				"method": "rhf"
			},
			{
				"type": "unocc",
				"energy": 0.02867,
				"method": "rhf"
			},
			{
				"type": "unocc",
				"energy": 0.08104,
				"method": "rhf"
			}
		],
		"cosmo_sigma_profile": { 
			"-0.025": 0.0,
			"-0.024": 0.0,
			"-0.023": 0.0,
			"-0.022": 0.0,
			"-0.021": 0.0,
			"-0.02": 0.0,
			"-0.019": 0.0285235193614,
			"-0.018": 0.624327808848,
			"-0.017": 0.898783682232,
			"-0.016": 0.84097737778,
			"-0.015": 1.09058250425,
			"-0.014": 0.343798725476,
			"-0.013": 0.503694559522,
			"-0.012": 0.7715947813,
			"-0.011": 0.987166496355,
			"-0.01": 0.576190809977,
			"-0.009": 0.372319804998,
			"-0.008": 1.33855427716,
			"-0.007": 7.4483192716,
			"-0.006": 16.1857552782,
			"-0.005": 25.4391290849,
			"-0.004": 23.5046417163,
			"-0.003": 24.7415422618,
			"-0.002": 23.4455251218,
			"-0.001": 20.2189947105,
			"0.0": 19.5675512315,
			"0.001": 18.1090135725,
			"0.002": 19.0591107266,
			"0.003": 19.5423161682,
			"0.004": 18.9850719043,
			"0.005": 18.6619497851,
			"0.006": 11.2251025446,
			"0.007": 5.34612126153,
			"0.008": 5.77148376828,
			"0.009": 4.71171793903,
			"0.01": 4.39591747652,
			"0.011": 5.28221603885,
			"0.012": 2.97990071436,
			"0.013": 0.274901856321,
			"0.014": 0.0,
			"0.015": 0.0,
			"0.016": 0.0,
			"0.017": 0.0,
			"0.018": 0.0,
			"0.019": 0.0,
			"0.02": 0.0,
			"0.021": 0.0,
			"0.022": 0.0,
			"0.023": 0.0,
			"0.024": 0.0,
			"0.025": 0.0
		}
	}
}
