{
	 "smiles": "OC(=O)CCOC1=CC=CC=C1", 
	 "Tm": 370.95, 
	 "num_atms": 22, 
	 "gaussian": { 
		 "optdone": 1, 
		 "sigma_profile": "yes", 
		 "theory": "DFT", 
		 "functional": "B3LYP", 
		 "basiset": "6-31G**", 
		 "properties": { 
			 "R2extent": 3055.2637, 
			 "electric_dipole_moment_norm": 3.39911818418, 
			 "electric_quadrupole_moment_norm": 11.2872168638, 
			 "total_energy": -574.652230627, 
			 "HOMO_LUMO_gap": 0.21591, 
			 "cosmo_polarized_energy": -16.22, 
			 "cosmo_cavitation_energy": 26.29, 
			 "cosmo_dispersion_energy": -19.19, 
			 "cosmo_repulsion_energy": 1.55, 
			 "cosmo_total_nonelectrostatic_energy": 8.66, 
			 "SMD_solvation_energy": 5.86 
		},
		"coords": [
			{
				"x": -1.6255816784,
				"y": 1.2570732461,
				"z": 2.7247496768,
				"element": "O" 
			},
			{
				"x": -0.4297209027,
				"y": 0.7753665313,
				"z": 2.2943750283,
				"element": "C" 
			},
			{
				"x": 0.566066915,
				"y": 0.9483281445,
				"z": 2.9524374949,
				"element": "O" 
			},
			{
				"x": -0.4572483571,
				"y": 0.0358697532,
				"z": 0.965734066,
				"element": "C" 
			},
			{
				"x": 0.9205710806,
				"y": -0.523716175,
				"z": 0.6000491185,
				"element": "C" 
			},
			{
				"x": 0.8803903116,
				"y": -1.2524759996,
				"z": -0.6221007932,
				"element": "O" 
			},
			{
				"x": 0.8891015016,
				"y": -0.5813500665,
				"z": -1.8169635475,
				"element": "C" 
			},
			{
				"x": 1.0302795254,
				"y": 0.8044635606,
				"z": -1.9621275424,
				"element": "C" 
			},
			{
				"x": 1.0392735483,
				"y": 1.3648180523,
				"z": -3.2439957327,
				"element": "C" 
			},
			{
				"x": 0.9075045834,
				"y": 0.5660356531,
				"z": -4.3773634174,
				"element": "C" 
			},
			{
				"x": 0.7665485968,
				"y": -0.8173832811,
				"z": -4.2229155121,
				"element": "C" 
			},
			{
				"x": 0.7558846037,
				"y": -1.3898157223,
				"z": -2.95570311,
				"element": "C" 
			},
			{
				"x": -2.3248532971,
				"y": 1.0377755904,
				"z": 2.0924473414,
				"element": "H" 
			},
			{
				"x": -0.8152738567,
				"y": 0.7176004794,
				"z": 0.1837523341,
				"element": "H" 
			},
			{
				"x": -1.1829651878,
				"y": -0.7859565435,
				"z": 1.0170431938,
				"element": "H" 
			},
			{
				"x": 1.6708859234,
				"y": 0.2725042719,
				"z": 0.5724010297,
				"element": "H" 
			},
			{
				"x": 1.2411314845,
				"y": -1.2419762833,
				"z": 1.3569950066,
				"element": "H" 
			},
			{
				"x": 1.1419940865,
				"y": 1.4522921276,
				"z": -1.1003978261,
				"element": "H" 
			},
			{
				"x": 1.151586486,
				"y": 2.4406345033,
				"z": -3.3462213306,
				"element": "H" 
			},
			{
				"x": 0.9146098043,
				"y": 1.0110827683,
				"z": -5.3673474424,
				"element": "H" 
			},
			{
				"x": 0.6647087111,
				"y": -1.4555622252,
				"z": -5.0961971701,
				"element": "H" 
			},
			{
				"x": 0.6502061175,
				"y": -2.4610083854,
				"z": -2.8178508655,
				"element": "H" 
			}
		],
		 "valence_orbital": [ 
			{
				"type": "occ",
				"energy": -0.32396,
				"method": "rhf"
			},
			{
				"type": "occ",
				"energy": -0.32182,
				"method": "rhf"
			},
			{
				"type": "occ",
				"energy": -0.28113,
				"method": "rhf"
			},
			{
				"type": "occ",
				"energy": -0.25387,
				"method": "rhf"
			},
			{
				"type": "occ",
				"energy": -0.22279,
				"method": "rhf"
			},
			{
				"type": "unocc",
				"energy": -0.00688,
				"method": "rhf"
			},
			{
				"type": "unocc",
				"energy": 0.00311,
				"method": "rhf"
			},
			{
				"type": "unocc",
				"energy": 0.0094,
				"method": "rhf"
			},
			{
				"type": "unocc",
				"energy": 0.04753,
				"method": "rhf"
			},
			{
				"type": "unocc",
				"energy": 0.08209,
				"method": "rhf"
			}
		],
		"cosmo_sigma_profile": { 
			"-0.025": 0.0,
			"-0.024": 0.0,
			"-0.023": 0.0,
			"-0.022": 0.0,
			"-0.021": 0.0,
			"-0.02": 0.0083055302209,
			"-0.019": 0.814221869253,
			"-0.018": 1.31162879057,
			"-0.017": 0.868053922496,
			"-0.016": 1.46316245558,
			"-0.015": 1.19543543327,
			"-0.014": 0.941401044265,
			"-0.013": 1.00405367438,
			"-0.012": 0.803211469591,
			"-0.011": 1.58525787814,
			"-0.01": 1.59021790672,
			"-0.009": 1.62625996987,
			"-0.008": 4.25326874996,
			"-0.007": 6.71788367341,
			"-0.006": 11.6462918867,
			"-0.005": 14.9226114121,
			"-0.004": 15.6748247314,
			"-0.003": 14.8663900037,
			"-0.002": 10.545463384,
			"-0.001": 11.8275290089,
			"0.0": 7.94056477066,
			"0.001": 9.68145091181,
			"0.002": 8.41228526057,
			"0.003": 11.3358475387,
			"0.004": 13.1734509318,
			"0.005": 12.012574026,
			"0.006": 11.8081280307,
			"0.007": 4.594795488,
			"0.008": 3.86866889381,
			"0.009": 4.56783083927,
			"0.01": 6.1975084397,
			"0.011": 5.87292636858,
			"0.012": 4.23236589496,
			"0.013": 1.29784796857,
			"0.014": 0.00379254444765,
			"0.015": 0.0,
			"0.016": 0.0,
			"0.017": 0.0,
			"0.018": 0.0,
			"0.019": 0.0,
			"0.02": 0.0,
			"0.021": 0.0,
			"0.022": 0.0,
			"0.023": 0.0,
			"0.024": 0.0,
			"0.025": 0.0
		}
	}
}
