{
	 "smiles": "COC1=C(C=CC=C1)N1C(S)=NN=C1N1CCCCC1", 
	 "Tm": 290.15, 
	 "num_atms": 38, 
	 "gaussian": { 
		 "optdone": 1, 
		 "sigma_profile": "yes", 
		 "theory": "DFT", 
		 "functional": "B3LYP", 
		 "basiset": "6-31G**", 
		 "properties": { 
			 "R2extent": 6715.3424, 
			 "electric_dipole_moment_norm": 7.98541034951, 
			 "electric_quadrupole_moment_norm": 29.6554981514, 
			 "total_energy": -1236.70722747, 
			 "HOMO_LUMO_gap": 0.17002, 
			 "cosmo_polarized_energy": -19.97, 
			 "cosmo_cavitation_energy": 40.94, 
			 "cosmo_dispersion_energy": -28.19, 
			 "cosmo_repulsion_energy": 2.15, 
			 "cosmo_total_nonelectrostatic_energy": 14.91, 
			 "SMD_solvation_energy": 3.87 
		},
		"coords": [
			{
				"x": -2.3611953277,
				"y": 2.0115283312,
				"z": 2.5808602733,
				"element": "C" 
			},
			{
				"x": -1.0607182877,
				"y": 1.6500624799,
				"z": 2.1291299193,
				"element": "O" 
			},
			{
				"x": -0.7954835107,
				"y": 0.3306655441,
				"z": 1.9057960333,
				"element": "C" 
			},
			{
				"x": 0.4866097071,
				"y": 0.0327792935,
				"z": 1.3985308384,
				"element": "C" 
			},
			{
				"x": 0.836083971,
				"y": -1.287900036,
				"z": 1.1211515782,
				"element": "C" 
			},
			{
				"x": -0.0732363988,
				"y": -2.32375735,
				"z": 1.3392152959,
				"element": "C" 
			},
			{
				"x": -1.3355669585,
				"y": -2.0288232189,
				"z": 1.8496289756,
				"element": "C" 
			},
			{
				"x": -1.7007589252,
				"y": -0.7107886666,
				"z": 2.1350236599,
				"element": "C" 
			},
			{
				"x": 1.4238584899,
				"y": 1.0794596867,
				"z": 1.1567989741,
				"element": "N" 
			},
			{
				"x": 2.1597853516,
				"y": 1.8003730434,
				"z": 2.0987263818,
				"element": "C" 
			},
			{
				"x": 1.9528980916,
				"y": 1.6719525761,
				"z": 3.8462763133,
				"element": "S" 
			},
			{
				"x": 3.0852132342,
				"y": 2.5104726299,
				"z": 1.5130874357,
				"element": "N" 
			},
			{
				"x": 2.983849231,
				"y": 2.2998516897,
				"z": 0.1499137517,
				"element": "N" 
			},
			{
				"x": 1.9913973036,
				"y": 1.4553536932,
				"z": -0.0507117035,
				"element": "C" 
			},
			{
				"x": 1.596889055,
				"y": 0.9587211459,
				"z": -1.2735534528,
				"element": "N" 
			},
			{
				"x": 2.5237668482,
				"y": 1.2493802345,
				"z": -2.3829293929,
				"element": "C" 
			},
			{
				"x": 2.0196813267,
				"y": 0.5704169693,
				"z": -3.6562276693,
				"element": "C" 
			},
			{
				"x": 0.6463577524,
				"y": 1.1332396978,
				"z": -4.0974599481,
				"element": "C" 
			},
			{
				"x": -0.1276829414,
				"y": 1.7203574616,
				"z": -2.8986360902,
				"element": "C" 
			},
			{
				"x": 0.1527178017,
				"y": 0.9420513416,
				"z": -1.608257318,
				"element": "C" 
			},
			{
				"x": -2.3571213891,
				"y": 3.0992594395,
				"z": 2.6583219745,
				"element": "H" 
			},
			{
				"x": -2.5814936292,
				"y": 1.5778333741,
				"z": 3.5639212561,
				"element": "H" 
			},
			{
				"x": -3.1334424475,
				"y": 1.7004532104,
				"z": 1.8670977537,
				"element": "H" 
			},
			{
				"x": 1.8276865297,
				"y": -1.4880343425,
				"z": 0.7293314746,
				"element": "H" 
			},
			{
				"x": 0.2080784896,
				"y": -3.3485981521,
				"z": 1.1207511393,
				"element": "H" 
			},
			{
				"x": -2.0503916382,
				"y": -2.8258241347,
				"z": 2.0317403824,
				"element": "H" 
			},
			{
				"x": -2.6878197407,
				"y": -0.5029016621,
				"z": 2.5298762376,
				"element": "H" 
			},
			{
				"x": 0.6759416077,
				"y": 2.1110891456,
				"z": 3.8788786959,
				"element": "H" 
			},
			{
				"x": 3.5114987584,
				"y": 0.8768610719,
				"z": -2.0985669728,
				"element": "H" 
			},
			{
				"x": 2.6352589916,
				"y": 2.3327157171,
				"z": -2.53742637,
				"element": "H" 
			},
			{
				"x": 2.7633592205,
				"y": 0.6952432271,
				"z": -4.4498508637,
				"element": "H" 
			},
			{
				"x": 1.9427111288,
				"y": -0.5065055447,
				"z": -3.4649243304,
				"element": "H" 
			},
			{
				"x": 0.0595966365,
				"y": 0.3377846637,
				"z": -4.5708879336,
				"element": "H" 
			},
			{
				"x": 0.7794695083,
				"y": 1.9122899156,
				"z": -4.8562157493,
				"element": "H" 
			},
			{
				"x": 0.1583358573,
				"y": 2.7668763427,
				"z": -2.7414378045,
				"element": "H" 
			},
			{
				"x": -1.2059382925,
				"y": 1.7173478943,
				"z": -3.094031373,
				"element": "H" 
			},
			{
				"x": -0.19478291,
				"y": -0.0948098125,
				"z": -1.7125869889,
				"element": "H" 
			},
			{
				"x": -0.4055124952,
				"y": 1.3860230996,
				"z": -0.7802543837,
				"element": "H" 
			}
		],
		 "valence_orbital": [ 
			{
				"type": "occ",
				"energy": -0.26361,
				"method": "rhf"
			},
			{
				"type": "occ",
				"energy": -0.24792,
				"method": "rhf"
			},
			{
				"type": "occ",
				"energy": -0.24511,
				"method": "rhf"
			},
			{
				"type": "occ",
				"energy": -0.23089,
				"method": "rhf"
			},
			{
				"type": "occ",
				"energy": -0.19621,
				"method": "rhf"
			},
			{
				"type": "unocc",
				"energy": -0.02619,
				"method": "rhf"
			},
			{
				"type": "unocc",
				"energy": -0.00826,
				"method": "rhf"
			},
			{
				"type": "unocc",
				"energy": 0.01514,
				"method": "rhf"
			},
			{
				"type": "unocc",
				"energy": 0.05206,
				"method": "rhf"
			},
			{
				"type": "unocc",
				"energy": 0.06434,
				"method": "rhf"
			}
		],
		"cosmo_sigma_profile": { 
			"-0.025": 0.0,
			"-0.024": 0.0,
			"-0.023": 0.0,
			"-0.022": 0.0,
			"-0.021": 0.0,
			"-0.02": 0.0,
			"-0.019": 0.0,
			"-0.018": 0.0,
			"-0.017": 0.0,
			"-0.016": 0.0,
			"-0.015": 0.0,
			"-0.014": 0.0,
			"-0.013": 0.0,
			"-0.012": 0.0,
			"-0.011": 0.0,
			"-0.01": 0.569757901032,
			"-0.009": 1.22227863507,
			"-0.008": 1.35822725221,
			"-0.007": 6.2783413358,
			"-0.006": 16.3141501288,
			"-0.005": 18.7587024205,
			"-0.004": 24.9281057416,
			"-0.003": 41.6732389663,
			"-0.002": 43.0426733993,
			"-0.001": 32.3746694639,
			"0.0": 26.7167173358,
			"0.001": 16.996899291,
			"0.002": 16.9346766161,
			"0.003": 15.6834094545,
			"0.004": 15.0662002601,
			"0.005": 9.30573664338,
			"0.006": 6.01349488953,
			"0.007": 4.75699763601,
			"0.008": 3.52859490443,
			"0.009": 3.0326734575,
			"0.01": 2.45166457486,
			"0.011": 2.3519932772,
			"0.012": 2.50971436826,
			"0.013": 3.71127632912,
			"0.014": 3.20928948892,
			"0.015": 3.06668705132,
			"0.016": 2.40181940242,
			"0.017": 1.22057570497,
			"0.018": 0.0,
			"0.019": 0.0,
			"0.02": 0.0,
			"0.021": 0.0,
			"0.022": 0.0,
			"0.023": 0.0,
			"0.024": 0.0,
			"0.025": 0.0
		}
	}
}
