{
	 "smiles": "NC1=NC(N)=NC(O)=C1", 
	 "Tm": 559.15, 
	 "num_atms": 15, 
	 "gaussian": { 
		 "optdone": 1, 
		 "sigma_profile": "yes", 
		 "theory": "DFT", 
		 "functional": "B3LYP", 
		 "basiset": "6-31G**", 
		 "properties": { 
			 "R2extent": 1275.0146, 
			 "electric_dipole_moment_norm": 3.30090475022, 
			 "electric_quadrupole_moment_norm": 11.1982817878, 
			 "total_energy": -450.299747114, 
			 "HOMO_LUMO_gap": 0.22402, 
			 "cosmo_polarized_energy": -19.53, 
			 "cosmo_cavitation_energy": 19.49, 
			 "cosmo_dispersion_energy": -15.13, 
			 "cosmo_repulsion_energy": 1.27, 
			 "cosmo_total_nonelectrostatic_energy": 5.64, 
			 "SMD_solvation_energy": 0.9 
		},
		"coords": [
			{
				"x": -0.5027260118,
				"y": -1.161352771,
				"z": -1.9412250312,
				"element": "N" 
			},
			{
				"x": 0.0152741784,
				"y": -0.7757706946,
				"z": -0.7292308281,
				"element": "C" 
			},
			{
				"x": -0.7044652218,
				"y": -1.1108826704,
				"z": 0.3520249632,
				"element": "N" 
			},
			{
				"x": -0.2170371886,
				"y": -0.6880637134,
				"z": 1.5304135765,
				"element": "C" 
			},
			{
				"x": -0.9661483407,
				"y": -0.9769033545,
				"z": 2.6363737534,
				"element": "N" 
			},
			{
				"x": 0.9147513132,
				"y": 0.004377111,
				"z": 1.7462551039,
				"element": "N" 
			},
			{
				"x": 1.6038461182,
				"y": 0.3130505685,
				"z": 0.6526335345,
				"element": "C" 
			},
			{
				"x": 2.7415067982,
				"y": 1.0100068727,
				"z": 0.8903323189,
				"element": "O" 
			},
			{
				"x": 1.211223396,
				"y": -0.0429785466,
				"z": -0.6394798628,
				"element": "C" 
			},
			{
				"x": 0.1226786358,
				"y": -1.2314803043,
				"z": -2.7284526315,
				"element": "H" 
			},
			{
				"x": -1.2347236923,
				"y": -1.8545457537,
				"z": -1.8903137464,
				"element": "H" 
			},
			{
				"x": -0.5156408778,
				"y": -0.8723622667,
				"z": 3.5311870592,
				"element": "H" 
			},
			{
				"x": -1.6848734805,
				"y": -1.6748965288,
				"z": 2.5350514242,
				"element": "H" 
			},
			{
				"x": 3.175785174,
				"y": 1.193259364,
				"z": 0.0467685108,
				"element": "H" 
			},
			{
				"x": 1.7843491997,
				"y": 0.2296426878,
				"z": -1.5196381448,
				"element": "H" 
			}
		],
		 "valence_orbital": [ 
			{
				"type": "occ",
				"energy": -0.29796,
				"method": "rhf"
			},
			{
				"type": "occ",
				"energy": -0.26779,
				"method": "rhf"
			},
			{
				"type": "occ",
				"energy": -0.2436,
				"method": "rhf"
			},
			{
				"type": "occ",
				"energy": -0.2406,
				"method": "rhf"
			},
			{
				"type": "occ",
				"energy": -0.20959,
				"method": "rhf"
			},
			{
				"type": "unocc",
				"energy": 0.01443,
				"method": "rhf"
			},
			{
				"type": "unocc",
				"energy": 0.02296,
				"method": "rhf"
			},
			{
				"type": "unocc",
				"energy": 0.07214,
				"method": "rhf"
			},
			{
				"type": "unocc",
				"energy": 0.08422,
				"method": "rhf"
			},
			{
				"type": "unocc",
				"energy": 0.10318,
				"method": "rhf"
			}
		],
		"cosmo_sigma_profile": { 
			"-0.025": 0.0,
			"-0.024": 0.0,
			"-0.023": 0.0,
			"-0.022": 0.0,
			"-0.021": 0.0,
			"-0.02": 0.0,
			"-0.019": 0.0752444747789,
			"-0.018": 0.991587396197,
			"-0.017": 1.26993179819,
			"-0.016": 0.735718230069,
			"-0.015": 1.17847447769,
			"-0.014": 1.452124364,
			"-0.013": 4.19703212684,
			"-0.012": 4.89978388649,
			"-0.011": 5.80609257492,
			"-0.01": 5.48749518099,
			"-0.009": 5.18162006539,
			"-0.008": 5.59842252731,
			"-0.007": 5.4949614451,
			"-0.006": 5.01066373501,
			"-0.005": 3.34318223639,
			"-0.004": 4.01916566831,
			"-0.003": 3.16290747549,
			"-0.002": 3.7328239777,
			"-0.001": 3.80082768696,
			"0.0": 5.14574836183,
			"0.001": 6.90304965997,
			"0.002": 11.291642091,
			"0.003": 9.13963358188,
			"0.004": 7.36818102521,
			"0.005": 7.11028173357,
			"0.006": 4.94500186187,
			"0.007": 6.14749825097,
			"0.008": 4.5145120717,
			"0.009": 5.21252560393,
			"0.01": 4.60580790683,
			"0.011": 4.6622312178,
			"0.012": 4.15031968733,
			"0.013": 3.04072284891,
			"0.014": 2.10863525696,
			"0.015": 1.29411939787,
			"0.016": 0.824344954522,
			"0.017": 0.246276038037,
			"0.018": 0.0,
			"0.019": 0.0,
			"0.02": 0.0,
			"0.021": 0.0,
			"0.022": 0.0,
			"0.023": 0.0,
			"0.024": 0.0,
			"0.025": 0.0
		}
	}
}
