{
	 "smiles": "CCN(CC)S(=O)(=O)C1=CC(N)=C(N)C=C1", 
	 "Tm": 398.15, 
	 "num_atms": 33, 
	 "gaussian": { 
		 "optdone": 1, 
		 "sigma_profile": "yes", 
		 "theory": "DFT", 
		 "functional": "B3LYP", 
		 "basiset": "6-31G**", 
		 "properties": { 
			 "R2extent": 4908.7446, 
			 "electric_dipole_moment_norm": 6.066119271, 
			 "electric_quadrupole_moment_norm": 20.7371604609, 
			 "total_energy": -1104.14222203, 
			 "HOMO_LUMO_gap": 0.19085, 
			 "cosmo_polarized_energy": -20.56, 
			 "cosmo_cavitation_energy": 36.39, 
			 "cosmo_dispersion_energy": -25.4, 
			 "cosmo_repulsion_energy": 1.97, 
			 "cosmo_total_nonelectrostatic_energy": 12.96, 
			 "SMD_solvation_energy": 5.22 
		},
		"coords": [
			{
				"x": -0.0341159194,
				"y": 2.546577377,
				"z": 3.7072864214,
				"element": "C" 
			},
			{
				"x": -0.6667580719,
				"y": 2.7605717014,
				"z": 2.33446226,
				"element": "C" 
			},
			{
				"x": -0.2404832162,
				"y": 1.7304265419,
				"z": 1.35074127,
				"element": "N" 
			},
			{
				"x": 0.3749409457,
				"y": 2.237207431,
				"z": 0.1084960031,
				"element": "C" 
			},
			{
				"x": 1.7830548637,
				"y": 2.7753964228,
				"z": 0.3595874034,
				"element": "C" 
			},
			{
				"x": -1.3781303756,
				"y": 0.4873614381,
				"z": 1.1092588806,
				"element": "S" 
			},
			{
				"x": -2.2433505213,
				"y": 0.7694331387,
				"z": -0.0477572778,
				"element": "O" 
			},
			{
				"x": -1.980876854,
				"y": 0.2512084528,
				"z": 2.4279918426,
				"element": "O" 
			},
			{
				"x": -0.332500705,
				"y": -0.8929678649,
				"z": 0.6736609822,
				"element": "C" 
			},
			{
				"x": 0.546257219,
				"y": -1.4136741983,
				"z": 1.6318423337,
				"element": "C" 
			},
			{
				"x": 1.3343217091,
				"y": -2.5176063574,
				"z": 1.3257514459,
				"element": "C" 
			},
			{
				"x": 2.2666292804,
				"y": -3.0709107558,
				"z": 2.2261106673,
				"element": "N" 
			},
			{
				"x": 1.2463521163,
				"y": -3.1004750353,
				"z": 0.0328218141,
				"element": "C" 
			},
			{
				"x": 2.0480631445,
				"y": -4.2122362105,
				"z": -0.2333363188,
				"element": "N" 
			},
			{
				"x": 0.339442523,
				"y": -2.5813903822,
				"z": -0.8959449806,
				"element": "C" 
			},
			{
				"x": -0.4593671864,
				"y": -1.4811965787,
				"z": -0.5822607752,
				"element": "C" 
			},
			{
				"x": 1.0583108393,
				"y": 2.5423066957,
				"z": 3.6392597375,
				"element": "H" 
			},
			{
				"x": -0.3629881276,
				"y": 1.5931969097,
				"z": 4.127274794,
				"element": "H" 
			},
			{
				"x": -0.3346868571,
				"y": 3.3461662976,
				"z": 4.3937720816,
				"element": "H" 
			},
			{
				"x": -0.3718124233,
				"y": 3.7322383341,
				"z": 1.9251375333,
				"element": "H" 
			},
			{
				"x": -1.757316468,
				"y": 2.7778977214,
				"z": 2.4260926516,
				"element": "H" 
			},
			{
				"x": 0.432678972,
				"y": 1.4060573639,
				"z": -0.5995156097,
				"element": "H" 
			},
			{
				"x": -0.2611532579,
				"y": 3.0043969194,
				"z": -0.3562471017,
				"element": "H" 
			},
			{
				"x": 2.4248697837,
				"y": 1.9923931481,
				"z": 0.7734821924,
				"element": "H" 
			},
			{
				"x": 2.2219020078,
				"y": 3.1264540378,
				"z": -0.5802359259,
				"element": "H" 
			},
			{
				"x": 1.7807858967,
				"y": 3.6183355439,
				"z": 1.0578449678,
				"element": "H" 
			},
			{
				"x": 0.6017555652,
				"y": -0.9617374199,
				"z": 2.6174261192,
				"element": "H" 
			},
			{
				"x": 2.1845648422,
				"y": -4.082031028,
				"z": 2.2897552605,
				"element": "H" 
			},
			{
				"x": 2.2109103003,
				"y": -2.6638127821,
				"z": 3.1520500445,
				"element": "H" 
			},
			{
				"x": 2.9728848432,
				"y": -4.1440189474,
				"z": 0.1785957064,
				"element": "H" 
			},
			{
				"x": 2.092012843,
				"y": -4.4724605421,
				"z": -1.2098970719,
				"element": "H" 
			},
			{
				"x": 0.267160431,
				"y": -3.0393255176,
				"z": -1.8792111092,
				"element": "H" 
			},
			{
				"x": -1.1660581421,
				"y": -1.0763818554,
				"z": -1.2971962424,
				"element": "H" 
			}
		],
		 "valence_orbital": [ 
			{
				"type": "occ",
				"energy": -0.28928,
				"method": "rhf"
			},
			{
				"type": "occ",
				"energy": -0.28195,
				"method": "rhf"
			},
			{
				"type": "occ",
				"energy": -0.24523,
				"method": "rhf"
			},
			{
				"type": "occ",
				"energy": -0.23235,
				"method": "rhf"
			},
			{
				"type": "occ",
				"energy": -0.20745,
				"method": "rhf"
			},
			{
				"type": "unocc",
				"energy": -0.0166,
				"method": "rhf"
			},
			{
				"type": "unocc",
				"energy": 0.00105,
				"method": "rhf"
			},
			{
				"type": "unocc",
				"energy": 0.06207,
				"method": "rhf"
			},
			{
				"type": "unocc",
				"energy": 0.07129,
				"method": "rhf"
			},
			{
				"type": "unocc",
				"energy": 0.08573,
				"method": "rhf"
			}
		],
		"cosmo_sigma_profile": { 
			"-0.025": 0.0,
			"-0.024": 0.0,
			"-0.023": 0.0,
			"-0.022": 0.0,
			"-0.021": 0.0,
			"-0.02": 0.0,
			"-0.019": 0.0,
			"-0.018": 0.0,
			"-0.017": 0.0,
			"-0.016": 0.0,
			"-0.015": 0.0,
			"-0.014": 0.0,
			"-0.013": 1.0166948714,
			"-0.012": 3.94361154441,
			"-0.011": 5.21164715171,
			"-0.01": 5.94577889693,
			"-0.009": 6.00997158961,
			"-0.008": 5.26181295376,
			"-0.007": 4.67647875734,
			"-0.006": 7.1717345854,
			"-0.005": 11.1690499065,
			"-0.004": 19.9913482313,
			"-0.003": 25.7795178117,
			"-0.002": 26.4179260404,
			"-0.001": 23.2908835407,
			"0.0": 22.8841738963,
			"0.001": 19.6641785959,
			"0.002": 11.61107166,
			"0.003": 14.5624861051,
			"0.004": 15.8788451361,
			"0.005": 9.47459397324,
			"0.006": 5.9373699424,
			"0.007": 4.54980669772,
			"0.008": 4.29640508735,
			"0.009": 4.90953120876,
			"0.01": 5.07314547552,
			"0.011": 8.875925955,
			"0.012": 8.6337458198,
			"0.013": 2.71135180512,
			"0.014": 0.355667444477,
			"0.015": 0.0,
			"0.016": 0.0,
			"0.017": 0.0,
			"0.018": 0.0,
			"0.019": 0.0,
			"0.02": 0.0,
			"0.021": 0.0,
			"0.022": 0.0,
			"0.023": 0.0,
			"0.024": 0.0,
			"0.025": 0.0
		}
	}
}
