{
	 "smiles": "OC(=O)CC1=COC(=N1)C1=CC=C(F)C=C1", 
	 "Tm": 440.15, 
	 "num_atms": 24, 
	 "gaussian": { 
		 "optdone": 1, 
		 "sigma_profile": "yes", 
		 "theory": "DFT", 
		 "functional": "B3LYP", 
		 "basiset": "6-31G**", 
		 "properties": { 
			 "R2extent": 5984.3199, 
			 "electric_dipole_moment_norm": 1.73044510459, 
			 "electric_quadrupole_moment_norm": 7.90282505437, 
			 "total_energy": -804.258971407, 
			 "HOMO_LUMO_gap": 0.17849, 
			 "cosmo_polarized_energy": -11.15, 
			 "cosmo_cavitation_energy": 30.39, 
			 "cosmo_dispersion_energy": -22.35, 
			 "cosmo_repulsion_energy": 1.7, 
			 "cosmo_total_nonelectrostatic_energy": 9.74, 
			 "SMD_solvation_energy": 6.03 
		},
		"coords": [
			{
				"x": 0.6412632519,
				"y": -1.8000455151,
				"z": 5.4950281642,
				"element": "O" 
			},
			{
				"x": -0.1922889401,
				"y": -1.4125869949,
				"z": 4.5016991092,
				"element": "C" 
			},
			{
				"x": -1.3397381414,
				"y": -1.0816181854,
				"z": 4.7091886394,
				"element": "O" 
			},
			{
				"x": 0.5134296664,
				"y": -1.4606804932,
				"z": 3.1653616083,
				"element": "C" 
			},
			{
				"x": -0.308837826,
				"y": -1.0518980518,
				"z": 1.9840392704,
				"element": "C" 
			},
			{
				"x": -1.5996847323,
				"y": -0.6368098494,
				"z": 1.8805867936,
				"element": "C" 
			},
			{
				"x": -1.8528274741,
				"y": -0.3864575577,
				"z": 0.5553410604,
				"element": "O" 
			},
			{
				"x": -0.6842408619,
				"y": -0.6670847222,
				"z": -0.0858342778,
				"element": "C" 
			},
			{
				"x": 0.2626251901,
				"y": -1.0657783634,
				"z": 0.7174820181,
				"element": "N" 
			},
			{
				"x": -0.6248017744,
				"y": -0.4978731133,
				"z": -1.5340077464,
				"element": "C" 
			},
			{
				"x": -1.7400156848,
				"y": -0.0555570797,
				"z": -2.2638707747,
				"element": "C" 
			},
			{
				"x": -1.6628712188,
				"y": 0.0996488574,
				"z": -3.6454424925,
				"element": "C" 
			},
			{
				"x": -0.4632002911,
				"y": -0.1911230587,
				"z": -4.2864037018,
				"element": "C" 
			},
			{
				"x": -0.3843379016,
				"y": -0.0421263904,
				"z": -5.6238108484,
				"element": "F" 
			},
			{
				"x": 0.6590298568,
				"y": -0.6313351854,
				"z": -3.5898194281,
				"element": "C" 
			},
			{
				"x": 0.5735455032,
				"y": -0.7836935944,
				"z": -2.2102801986,
				"element": "C" 
			},
			{
				"x": 0.1271079978,
				"y": -1.7454488097,
				"z": 6.3180902024,
				"element": "H" 
			},
			{
				"x": 0.8973541735,
				"y": -2.479171566,
				"z": 3.024305795,
				"element": "H" 
			},
			{
				"x": 1.4109816691,
				"y": -0.8329914098,
				"z": 3.2361490366,
				"element": "H" 
			},
			{
				"x": -2.4006683519,
				"y": -0.4779305311,
				"z": 2.5796899311,
				"element": "H" 
			},
			{
				"x": -2.6664735256,
				"y": 0.166028455,
				"z": -1.7457042754,
				"element": "H" 
			},
			{
				"x": -2.5124154009,
				"y": 0.4399365514,
				"z": -4.2272332683,
				"element": "H" 
			},
			{
				"x": 1.5743198652,
				"y": -0.8465110326,
				"z": -4.1302745912,
				"element": "H" 
			},
			{
				"x": 1.4293449509,
				"y": -1.1246923595,
				"z": -1.6380800256,
				"element": "H" 
			}
		],
		 "valence_orbital": [ 
			{
				"type": "occ",
				"energy": -0.29097,
				"method": "rhf"
			},
			{
				"type": "occ",
				"energy": -0.28743,
				"method": "rhf"
			},
			{
				"type": "occ",
				"energy": -0.27537,
				"method": "rhf"
			},
			{
				"type": "occ",
				"energy": -0.26664,
				"method": "rhf"
			},
			{
				"type": "occ",
				"energy": -0.21897,
				"method": "rhf"
			},
			{
				"type": "unocc",
				"energy": -0.04048,
				"method": "rhf"
			},
			{
				"type": "unocc",
				"energy": -0.01563,
				"method": "rhf"
			},
			{
				"type": "unocc",
				"energy": -0.0012,
				"method": "rhf"
			},
			{
				"type": "unocc",
				"energy": 0.03469,
				"method": "rhf"
			},
			{
				"type": "unocc",
				"energy": 0.06963,
				"method": "rhf"
			}
		],
		"cosmo_sigma_profile": { 
			"-0.025": 0.0,
			"-0.024": 0.0,
			"-0.023": 0.0,
			"-0.022": 0.0,
			"-0.021": 0.0,
			"-0.02": 0.0,
			"-0.019": 0.164857242974,
			"-0.018": 0.702814275065,
			"-0.017": 1.08421652692,
			"-0.016": 0.891707107039,
			"-0.015": 0.74401330129,
			"-0.014": 0.362783519794,
			"-0.013": 0.562441410845,
			"-0.012": 0.975838053476,
			"-0.011": 1.04150549505,
			"-0.01": 0.417473739654,
			"-0.009": 0.776302693994,
			"-0.008": 5.5495388653,
			"-0.007": 11.492747073,
			"-0.006": 11.6909561642,
			"-0.005": 13.1474673875,
			"-0.004": 10.9808188305,
			"-0.003": 11.7889951873,
			"-0.002": 10.7167564575,
			"-0.001": 15.2465567678,
			"0.0": 23.0114740832,
			"0.001": 24.6445612353,
			"0.002": 24.6262276795,
			"0.003": 22.5905630435,
			"0.004": 17.3075146726,
			"0.005": 7.46749198658,
			"0.006": 4.50365385328,
			"0.007": 3.49189063223,
			"0.008": 3.99645249888,
			"0.009": 4.64171953601,
			"0.01": 3.40852335622,
			"0.011": 3.31219154288,
			"0.012": 1.69291613462,
			"0.013": 1.00698992293,
			"0.014": 0.270283848066,
			"0.015": 0.0,
			"0.016": 0.0,
			"0.017": 0.0,
			"0.018": 0.0,
			"0.019": 0.0,
			"0.02": 0.0,
			"0.021": 0.0,
			"0.022": 0.0,
			"0.023": 0.0,
			"0.024": 0.0,
			"0.025": 0.0
		}
	}
}
