{
	 "smiles": "CC(C)C(Br)C(=O)NC1CCS(=O)(=O)C1", 
	 "Tm": 413.15, 
	 "num_atms": 31, 
	 "gaussian": { 
		 "optdone": 1, 
		 "sigma_profile": "yes", 
		 "theory": "DFT", 
		 "functional": "B3LYP", 
		 "basiset": "6-31G**", 
		 "properties": { 
			 "R2extent": 5893.9075, 
			 "electric_dipole_moment_norm": 3.4938987979, 
			 "electric_quadrupole_moment_norm": 25.0525864355, 
			 "total_energy": -3602.58773891, 
			 "HOMO_LUMO_gap": 0.25295, 
			 "cosmo_polarized_energy": -19.17, 
			 "cosmo_cavitation_energy": 35.62, 
			 "cosmo_dispersion_energy": -25.25, 
			 "cosmo_repulsion_energy": 1.92, 
			 "cosmo_total_nonelectrostatic_energy": 12.29, 
			 "SMD_solvation_energy": 4.03 
		},
		"coords": [
			{
				"x": -3.2522711091,
				"y": -3.194700404,
				"z": -0.4028993365,
				"element": "C" 
			},
			{
				"x": -1.9759847455,
				"y": -2.402124324,
				"z": -0.0980799451,
				"element": "C" 
			},
			{
				"x": -2.0546769455,
				"y": -1.6931826646,
				"z": 1.2599528125,
				"element": "C" 
			},
			{
				"x": -1.5886384553,
				"y": -1.4584441095,
				"z": -1.2540141075,
				"element": "C" 
			},
			{
				"x": -2.96387676,
				"y": -0.0342125214,
				"z": -1.5534970869,
				"element": "Br" 
			},
			{
				"x": -0.1598827741,
				"y": -0.9200596596,
				"z": -1.0880211782,
				"element": "C" 
			},
			{
				"x": 0.74747047,
				"y": -1.7468024414,
				"z": -1.0240418072,
				"element": "O" 
			},
			{
				"x": 0.0517877714,
				"y": 0.4176166214,
				"z": -1.0224056375,
				"element": "N" 
			},
			{
				"x": 1.4086484131,
				"y": 0.9342760916,
				"z": -0.8841256951,
				"element": "C" 
			},
			{
				"x": 1.8465767695,
				"y": 1.084155166,
				"z": 0.6001010024,
				"element": "C" 
			},
			{
				"x": 1.1653752077,
				"y": 2.3276752232,
				"z": 1.197370188,
				"element": "C" 
			},
			{
				"x": 0.7626061135,
				"y": 3.4248093972,
				"z": -0.2312727459,
				"element": "S" 
			},
			{
				"x": 1.4641880458,
				"y": 4.7118900741,
				"z": -0.1357088469,
				"element": "O" 
			},
			{
				"x": -0.697518792,
				"y": 3.3737554235,
				"z": -0.4500713695,
				"element": "O" 
			},
			{
				"x": 1.5247044376,
				"y": 2.3348258357,
				"z": -1.4894931574,
				"element": "C" 
			},
			{
				"x": -4.1256998507,
				"y": -2.5374954379,
				"z": -0.4525832726,
				"element": "H" 
			},
			{
				"x": -3.4316469527,
				"y": -3.9364344004,
				"z": 0.3817074772,
				"element": "H" 
			},
			{
				"x": -3.1749293174,
				"y": -3.7277594013,
				"z": -1.3567225993,
				"element": "H" 
			},
			{
				"x": -1.1326074209,
				"y": -3.1046707943,
				"z": -0.0683457196,
				"element": "H" 
			},
			{
				"x": -2.2435525434,
				"y": -2.4220261148,
				"z": 2.0539831106,
				"element": "H" 
			},
			{
				"x": -1.1202030896,
				"y": -1.1760996009,
				"z": 1.5015446683,
				"element": "H" 
			},
			{
				"x": -2.8650768487,
				"y": -0.9580641351,
				"z": 1.2751845906,
				"element": "H" 
			},
			{
				"x": -1.5988511363,
				"y": -2.0118620552,
				"z": -2.194329581,
				"element": "H" 
			},
			{
				"x": -0.7336312005,
				"y": 1.0604482823,
				"z": -1.0443681363,
				"element": "H" 
			},
			{
				"x": 2.0716623795,
				"y": 0.2267383025,
				"z": -1.387040423,
				"element": "H" 
			},
			{
				"x": 1.6006077754,
				"y": 0.1781678645,
				"z": 1.1575818442,
				"element": "H" 
			},
			{
				"x": 2.9347030914,
				"y": 1.2046865132,
				"z": 0.627822407,
				"element": "H" 
			},
			{
				"x": 0.2077930047,
				"y": 2.109704116,
				"z": 1.6735696072,
				"element": "H" 
			},
			{
				"x": 1.7978969987,
				"y": 2.895661274,
				"z": 1.8805696211,
				"element": "H" 
			},
			{
				"x": 0.9857685512,
				"y": 2.4747557756,
				"z": -2.4277247863,
				"element": "H" 
			},
			{
				"x": 2.5693589122,
				"y": 2.6336721034,
				"z": -1.6020418973,
				"element": "H" 
			}
		],
		 "valence_orbital": [ 
			{
				"type": "occ",
				"energy": -0.29713,
				"method": "rhf"
			},
			{
				"type": "occ",
				"energy": -0.29017,
				"method": "rhf"
			},
			{
				"type": "occ",
				"energy": -0.28512,
				"method": "rhf"
			},
			{
				"type": "occ",
				"energy": -0.27142,
				"method": "rhf"
			},
			{
				"type": "occ",
				"energy": -0.26295,
				"method": "rhf"
			},
			{
				"type": "unocc",
				"energy": -0.01,
				"method": "rhf"
			},
			{
				"type": "unocc",
				"energy": 0.0044,
				"method": "rhf"
			},
			{
				"type": "unocc",
				"energy": 0.04112,
				"method": "rhf"
			},
			{
				"type": "unocc",
				"energy": 0.04919,
				"method": "rhf"
			},
			{
				"type": "unocc",
				"energy": 0.06231,
				"method": "rhf"
			}
		],
		"cosmo_sigma_profile": { 
			"-0.025": 0.0,
			"-0.024": 0.0,
			"-0.023": 0.0,
			"-0.022": 0.0,
			"-0.021": 0.0,
			"-0.02": 0.0,
			"-0.019": 0.0,
			"-0.018": 0.0,
			"-0.017": 0.0,
			"-0.016": 0.0,
			"-0.015": 0.0,
			"-0.014": 0.0,
			"-0.013": 0.0,
			"-0.012": 0.0,
			"-0.011": 0.00953392062433,
			"-0.01": 0.897919863052,
			"-0.009": 5.131934036,
			"-0.008": 9.21705168733,
			"-0.007": 15.5517476841,
			"-0.006": 15.6433334052,
			"-0.005": 17.3430238975,
			"-0.004": 20.1687941387,
			"-0.003": 25.2903571495,
			"-0.002": 21.6496290546,
			"-0.001": 20.7556289682,
			"0.0": 23.5657864052,
			"0.001": 20.58614704,
			"0.002": 11.2398913528,
			"0.003": 8.40969957088,
			"0.004": 10.1990955498,
			"0.005": 7.48241985345,
			"0.006": 4.57213737667,
			"0.007": 3.93936238374,
			"0.008": 3.83903715793,
			"0.009": 4.14691108283,
			"0.01": 5.51611545631,
			"0.011": 11.0343907106,
			"0.012": 9.53781623781,
			"0.013": 5.56334127843,
			"0.014": 0.40251127977,
			"0.015": 0.0,
			"0.016": 0.0,
			"0.017": 0.0,
			"0.018": 0.0,
			"0.019": 0.0,
			"0.02": 0.0,
			"0.021": 0.0,
			"0.022": 0.0,
			"0.023": 0.0,
			"0.024": 0.0,
			"0.025": 0.0
		}
	}
}
