{
	 "smiles": "NC1=NN=C(N1)C1=CC(Cl)=CC=C1", 
	 "Tm": 493.15, 
	 "num_atms": 20, 
	 "gaussian": { 
		 "optdone": 1, 
		 "sigma_profile": "yes", 
		 "theory": "DFT", 
		 "functional": "B3LYP", 
		 "basiset": "6-31G**", 
		 "properties": { 
			 "R2extent": 3596.9119, 
			 "electric_dipole_moment_norm": 3.40803237221, 
			 "electric_quadrupole_moment_norm": 22.3685055513, 
			 "total_energy": -988.256193149, 
			 "HOMO_LUMO_gap": 0.17402, 
			 "cosmo_polarized_energy": -22.37, 
			 "cosmo_cavitation_energy": 26.86, 
			 "cosmo_dispersion_energy": -20.22, 
			 "cosmo_repulsion_energy": 1.6, 
			 "cosmo_total_nonelectrostatic_energy": 8.24, 
			 "SMD_solvation_energy": 2.1 
		},
		"coords": [
			{
				"x": -1.2064875809,
				"y": 3.7504438274,
				"z": -2.2333775151,
				"element": "N" 
			},
			{
				"x": -0.2075430585,
				"y": 2.8339546999,
				"z": -1.9424600052,
				"element": "C" 
			},
			{
				"x": 1.0544263133,
				"y": 2.9156734219,
				"z": -2.3032014135,
				"element": "N" 
			},
			{
				"x": 1.7125890143,
				"y": 1.8527046443,
				"z": -1.7182785059,
				"element": "N" 
			},
			{
				"x": 0.8383725331,
				"y": 1.1484970435,
				"z": -1.0345152188,
				"element": "C" 
			},
			{
				"x": -0.4105150476,
				"y": 1.7354696596,
				"z": -1.1513871847,
				"element": "N" 
			},
			{
				"x": 1.1287636622,
				"y": -0.0706445676,
				"z": -0.2806489356,
				"element": "C" 
			},
			{
				"x": 0.1064172579,
				"y": -0.8622914221,
				"z": 0.2644173609,
				"element": "C" 
			},
			{
				"x": 0.4345052222,
				"y": -2.0115097913,
				"z": 0.9798901026,
				"element": "C" 
			},
			{
				"x": -0.861551632,
				"y": -2.9909898675,
				"z": 1.6564924897,
				"element": "Cl" 
			},
			{
				"x": 1.7582996186,
				"y": -2.4025913054,
				"z": 1.1656371631,
				"element": "C" 
			},
			{
				"x": 2.77068402,
				"y": -1.6123029941,
				"z": 0.61308762,
				"element": "C" 
			},
			{
				"x": 2.4680143637,
				"y": -0.4582981954,
				"z": -0.1008983702,
				"element": "C" 
			},
			{
				"x": -0.8373935668,
				"y": 4.4840956516,
				"z": -2.8278486319,
				"element": "H" 
			},
			{
				"x": -2.0381331686,
				"y": 3.3432622349,
				"z": -2.6477534888,
				"element": "H" 
			},
			{
				"x": -1.2461574964,
				"y": 1.5208777424,
				"z": -0.6299256728,
				"element": "H" 
			},
			{
				"x": -0.9398481253,
				"y": -0.6110647253,
				"z": 0.127488889,
				"element": "H" 
			},
			{
				"x": 1.9888541166,
				"y": -3.3013824198,
				"z": 1.7260528129,
				"element": "H" 
			},
			{
				"x": 3.8075066823,
				"y": -1.9051409739,
				"z": 0.7484029164,
				"element": "H" 
			},
			{
				"x": 3.2487968717,
				"y": 0.160037337,
				"z": -0.5287744121,
				"element": "H" 
			}
		],
		 "valence_orbital": [ 
			{
				"type": "occ",
				"energy": -0.30375,
				"method": "rhf"
			},
			{
				"type": "occ",
				"energy": -0.27893,
				"method": "rhf"
			},
			{
				"type": "occ",
				"energy": -0.25639,
				"method": "rhf"
			},
			{
				"type": "occ",
				"energy": -0.25328,
				"method": "rhf"
			},
			{
				"type": "occ",
				"energy": -0.21682,
				"method": "rhf"
			},
			{
				"type": "unocc",
				"energy": -0.0428,
				"method": "rhf"
			},
			{
				"type": "unocc",
				"energy": -0.01853,
				"method": "rhf"
			},
			{
				"type": "unocc",
				"energy": 0.0223,
				"method": "rhf"
			},
			{
				"type": "unocc",
				"energy": 0.04187,
				"method": "rhf"
			},
			{
				"type": "unocc",
				"energy": 0.05159,
				"method": "rhf"
			}
		],
		"cosmo_sigma_profile": { 
			"-0.025": 0.0,
			"-0.024": 0.0,
			"-0.023": 0.0,
			"-0.022": 0.0,
			"-0.021": 0.0,
			"-0.02": 0.0,
			"-0.019": 0.0,
			"-0.018": 0.423001050754,
			"-0.017": 1.50019006136,
			"-0.016": 1.37535118702,
			"-0.015": 1.80584106458,
			"-0.014": 3.59011063081,
			"-0.013": 4.64549664072,
			"-0.012": 3.3550727444,
			"-0.011": 4.17248224924,
			"-0.01": 3.44936519823,
			"-0.009": 2.88776875448,
			"-0.008": 3.69331193121,
			"-0.007": 6.25390375606,
			"-0.006": 7.96073284201,
			"-0.005": 8.65845891639,
			"-0.004": 7.30989326575,
			"-0.003": 8.19538504109,
			"-0.002": 8.76323109361,
			"-0.001": 11.241062017,
			"0.0": 14.7599490741,
			"0.001": 18.5401593338,
			"0.002": 19.4905348382,
			"0.003": 20.9933096291,
			"0.004": 15.3930126874,
			"0.005": 8.18003476576,
			"0.006": 2.60116348198,
			"0.007": 2.22142847728,
			"0.008": 2.0446453843,
			"0.009": 2.59113798433,
			"0.01": 2.4929376232,
			"0.011": 3.20489094362,
			"0.012": 2.44125197742,
			"0.013": 2.9148847017,
			"0.014": 4.15300043705,
			"0.015": 3.03146064053,
			"0.016": 2.26192761764,
			"0.017": 0.938748537784,
			"0.018": 0.224474045052,
			"0.019": 0.0,
			"0.02": 0.0,
			"0.021": 0.0,
			"0.022": 0.0,
			"0.023": 0.0,
			"0.024": 0.0,
			"0.025": 0.0
		}
	}
}
