{
	 "smiles": "CC1=CC=CC=C1C#N", 
	 "Tm": 259.65, 
	 "num_atms": 16, 
	 "gaussian": { 
		 "optdone": 1, 
		 "sigma_profile": "yes", 
		 "theory": "DFT", 
		 "functional": "B3LYP", 
		 "basiset": "6-31G**", 
		 "properties": { 
			 "R2extent": 1202.4478, 
			 "electric_dipole_moment_norm": 4.24259420874, 
			 "electric_quadrupole_moment_norm": 9.00458223684, 
			 "total_energy": -363.813326723, 
			 "HOMO_LUMO_gap": 0.20931, 
			 "cosmo_polarized_energy": -8.03, 
			 "cosmo_cavitation_energy": 20.73, 
			 "cosmo_dispersion_energy": -14.7, 
			 "cosmo_repulsion_energy": 1.2, 
			 "cosmo_total_nonelectrostatic_energy": 7.24, 
			 "SMD_solvation_energy": 4.91 
		},
		"coords": [
			{
				"x": 0.774963946,
				"y": -2.0056437227,
				"z": -0.9147940316,
				"element": "C" 
			},
			{
				"x": 0.2056819238,
				"y": -0.6123041701,
				"z": -1.0052697426,
				"element": "C" 
			},
			{
				"x": -0.473667821,
				"y": -0.1757640316,
				"z": -2.146372618,
				"element": "C" 
			},
			{
				"x": -1.0014854582,
				"y": 1.1138023583,
				"z": -2.2323650874,
				"element": "C" 
			},
			{
				"x": -0.8601867332,
				"y": 2.0052147148,
				"z": -1.1676477499,
				"element": "C" 
			},
			{
				"x": -0.1888816758,
				"y": 1.5998452841,
				"z": -0.018079753,
				"element": "C" 
			},
			{
				"x": 0.3411901417,
				"y": 0.3015868942,
				"z": 0.0655917497,
				"element": "C" 
			},
			{
				"x": 1.0297432043,
				"y": -0.0964089288,
				"z": 1.2595955243,
				"element": "C" 
			},
			{
				"x": 1.5891560737,
				"y": -0.4252966399,
				"z": 2.2256298628,
				"element": "N" 
			},
			{
				"x": 0.3441202758,
				"y": -2.5574640395,
				"z": -0.0722330501,
				"element": "H" 
			},
			{
				"x": 0.5766253616,
				"y": -2.5692547074,
				"z": -1.829472759,
				"element": "H" 
			},
			{
				"x": 1.8584115781,
				"y": -1.9830342711,
				"z": -0.7545515159,
				"element": "H" 
			},
			{
				"x": -0.5898792789,
				"y": -0.8608474955,
				"z": -2.9816188707,
				"element": "H" 
			},
			{
				"x": -1.5239446447,
				"y": 1.421682778,
				"z": -3.1334038632,
				"element": "H" 
			},
			{
				"x": -1.2694131595,
				"y": 3.0084795839,
				"z": -1.2314432445,
				"element": "H" 
			},
			{
				"x": -0.0676337338,
				"y": 2.2766063931,
				"z": 0.821335149,
				"element": "H" 
			}
		],
		 "valence_orbital": [ 
			{
				"type": "occ",
				"energy": -0.35283,
				"method": "rhf"
			},
			{
				"type": "occ",
				"energy": -0.34468,
				"method": "rhf"
			},
			{
				"type": "occ",
				"energy": -0.32684,
				"method": "rhf"
			},
			{
				"type": "occ",
				"energy": -0.26733,
				"method": "rhf"
			},
			{
				"type": "occ",
				"energy": -0.25917,
				"method": "rhf"
			},
			{
				"type": "unocc",
				"energy": -0.04986,
				"method": "rhf"
			},
			{
				"type": "unocc",
				"energy": -0.01849,
				"method": "rhf"
			},
			{
				"type": "unocc",
				"energy": 0.03831,
				"method": "rhf"
			},
			{
				"type": "unocc",
				"energy": 0.07958,
				"method": "rhf"
			},
			{
				"type": "unocc",
				"energy": 0.07969,
				"method": "rhf"
			}
		],
		"cosmo_sigma_profile": { 
			"-0.025": 0.0,
			"-0.024": 0.0,
			"-0.023": 0.0,
			"-0.022": 0.0,
			"-0.021": 0.0,
			"-0.02": 0.0,
			"-0.019": 0.0,
			"-0.018": 0.0,
			"-0.017": 0.0,
			"-0.016": 0.0,
			"-0.015": 0.0,
			"-0.014": 0.0,
			"-0.013": 0.0,
			"-0.012": 0.0,
			"-0.011": 0.0,
			"-0.01": 0.0,
			"-0.009": 0.0,
			"-0.008": 0.729182303585,
			"-0.007": 5.21817386151,
			"-0.006": 11.2247766892,
			"-0.005": 14.991634846,
			"-0.004": 13.3307772378,
			"-0.003": 13.0951067148,
			"-0.002": 12.6300418547,
			"-0.001": 16.646469589,
			"0.0": 13.9461923079,
			"0.001": 9.89898383315,
			"0.002": 11.7704564482,
			"0.003": 12.6603153455,
			"0.004": 6.49663422125,
			"0.005": 1.78797571241,
			"0.006": 2.69689542309,
			"0.007": 2.15603147665,
			"0.008": 3.12031119817,
			"0.009": 3.41781411117,
			"0.01": 3.33548856607,
			"0.011": 2.89489365917,
			"0.012": 2.54623451455,
			"0.013": 1.91493312159,
			"0.014": 0.21792208267,
			"0.015": 0.0,
			"0.016": 0.0,
			"0.017": 0.0,
			"0.018": 0.0,
			"0.019": 0.0,
			"0.02": 0.0,
			"0.021": 0.0,
			"0.022": 0.0,
			"0.023": 0.0,
			"0.024": 0.0,
			"0.025": 0.0
		}
	}
}
