{
	 "smiles": "OCC1=CC(F)=C(C=C1)N1CCN(CC1)C1=NC=CC=N1", 
	 "Tm": 388.15, 
	 "num_atms": 38, 
	 "gaussian": { 
		 "optdone": 1, 
		 "sigma_profile": "yes", 
		 "theory": "DFT", 
		 "functional": "B3LYP", 
		 "basiset": "6-31G**", 
		 "properties": { 
			 "R2extent": 8449.9662, 
			 "electric_dipole_moment_norm": 2.11667741047, 
			 "electric_quadrupole_moment_norm": 10.3793252025, 
			 "total_energy": -975.883686407, 
			 "HOMO_LUMO_gap": 0.1634, 
			 "cosmo_polarized_energy": -13.44, 
			 "cosmo_cavitation_energy": 40.34, 
			 "cosmo_dispersion_energy": -29.39, 
			 "cosmo_repulsion_energy": 2.22, 
			 "cosmo_total_nonelectrostatic_energy": 13.17, 
			 "SMD_solvation_energy": 3.29 
		},
		"coords": [
			{
				"x": -4.8806361792,
				"y": 3.685214367,
				"z": -0.2514597485,
				"element": "O" 
			},
			{
				"x": -4.2531751285,
				"y": 3.332234177,
				"z": -1.4772307083,
				"element": "C" 
			},
			{
				"x": -2.9343848787,
				"y": 2.60856777,
				"z": -1.2950430679,
				"element": "C" 
			},
			{
				"x": -2.5038663536,
				"y": 1.6491858085,
				"z": -2.2182754657,
				"element": "C" 
			},
			{
				"x": -1.2750884872,
				"y": 1.0313353747,
				"z": -2.0610790043,
				"element": "C" 
			},
			{
				"x": -0.883555004,
				"y": 0.1448620342,
				"z": -3.01328276,
				"element": "F" 
			},
			{
				"x": -0.4140788628,
				"y": 1.2843222125,
				"z": -0.9736911253,
				"element": "C" 
			},
			{
				"x": -0.8750970584,
				"y": 2.2451091391,
				"z": -0.0506525271,
				"element": "C" 
			},
			{
				"x": -2.0955427105,
				"y": 2.8981087524,
				"z": -0.2149044106,
				"element": "C" 
			},
			{
				"x": 0.8172686316,
				"y": 0.6282068367,
				"z": -0.8754415027,
				"element": "N" 
			},
			{
				"x": 0.8723451845,
				"y": -0.826258016,
				"z": -1.1355002608,
				"element": "C" 
			},
			{
				"x": 1.9478100255,
				"y": -1.5019932601,
				"z": -0.2756177362,
				"element": "C" 
			},
			{
				"x": 1.8507864998,
				"y": -1.0778641859,
				"z": 1.1158859062,
				"element": "N" 
			},
			{
				"x": 1.8364553714,
				"y": 0.3632080109,
				"z": 1.3844184637,
				"element": "C" 
			},
			{
				"x": 1.8365842974,
				"y": 1.1135344501,
				"z": 0.0465363926,
				"element": "C" 
			},
			{
				"x": 1.8041013385,
				"y": -1.9658353169,
				"z": 2.1529848946,
				"element": "C" 
			},
			{
				"x": 1.8296814096,
				"y": -3.2868840222,
				"z": 1.8597227043,
				"element": "N" 
			},
			{
				"x": 1.7735325091,
				"y": -4.1183502751,
				"z": 2.8974356947,
				"element": "C" 
			},
			{
				"x": 1.6963441972,
				"y": -3.6857013357,
				"z": 4.2218326632,
				"element": "C" 
			},
			{
				"x": 1.6813395189,
				"y": -2.3037001733,
				"z": 4.4028961394,
				"element": "C" 
			},
			{
				"x": 1.7350414949,
				"y": -1.4330709679,
				"z": 3.3953273085,
				"element": "N" 
			},
			{
				"x": -4.9827611385,
				"y": 2.872766143,
				"z": 0.262473694,
				"element": "H" 
			},
			{
				"x": -4.0977214223,
				"y": 4.28478343,
				"z": -1.998704207,
				"element": "H" 
			},
			{
				"x": -4.9195656793,
				"y": 2.7287580847,
				"z": -2.1143386968,
				"element": "H" 
			},
			{
				"x": -3.1035840264,
				"y": 1.382798112,
				"z": -3.0840393256,
				"element": "H" 
			},
			{
				"x": -0.2765128658,
				"y": 2.4768991023,
				"z": 0.8229715748,
				"element": "H" 
			},
			{
				"x": -2.4177557533,
				"y": 3.6287916839,
				"z": 0.520290731,
				"element": "H" 
			},
			{
				"x": 1.076741482,
				"y": -1.034377582,
				"z": -2.1920419673,
				"element": "H" 
			},
			{
				"x": -0.1006940176,
				"y": -1.2709822053,
				"z": -0.8962348303,
				"element": "H" 
			},
			{
				"x": 2.9497207464,
				"y": -1.2835698037,
				"z": -0.671369446,
				"element": "H" 
			},
			{
				"x": 1.817965647,
				"y": -2.5828353557,
				"z": -0.3086224115,
				"element": "H" 
			},
			{
				"x": 0.9476231979,
				"y": 0.6150739065,
				"z": 1.9735298514,
				"element": "H" 
			},
			{
				"x": 2.7073906564,
				"y": 0.6545302845,
				"z": 1.9867208331,
				"element": "H" 
			},
			{
				"x": 2.8187973709,
				"y": 1.0111046963,
				"z": -0.432070519,
				"element": "H" 
			},
			{
				"x": 1.6976756025,
				"y": 2.1817910461,
				"z": 0.2168954453,
				"element": "H" 
			},
			{
				"x": 1.7926208136,
				"y": -5.1812146904,
				"z": 2.657611925,
				"element": "H" 
			},
			{
				"x": 1.6544300266,
				"y": -4.3782316863,
				"z": 5.0537747001,
				"element": "H" 
			},
			{
				"x": 1.6249635446,
				"y": -1.8721165464,
				"z": 5.4019907991,
				"element": "H" 
			}
		],
		 "valence_orbital": [ 
			{
				"type": "occ",
				"energy": -0.26605,
				"method": "rhf"
			},
			{
				"type": "occ",
				"energy": -0.2441,
				"method": "rhf"
			},
			{
				"type": "occ",
				"energy": -0.24179,
				"method": "rhf"
			},
			{
				"type": "occ",
				"energy": -0.21185,
				"method": "rhf"
			},
			{
				"type": "occ",
				"energy": -0.19336,
				"method": "rhf"
			},
			{
				"type": "unocc",
				"energy": -0.02996,
				"method": "rhf"
			},
			{
				"type": "unocc",
				"energy": -0.00261,
				"method": "rhf"
			},
			{
				"type": "unocc",
				"energy": 0.00299,
				"method": "rhf"
			},
			{
				"type": "unocc",
				"energy": 0.00684,
				"method": "rhf"
			},
			{
				"type": "unocc",
				"energy": 0.08085,
				"method": "rhf"
			}
		],
		"cosmo_sigma_profile": { 
			"-0.025": 0.0,
			"-0.024": 0.0,
			"-0.023": 0.0,
			"-0.022": 0.0,
			"-0.021": 0.0,
			"-0.02": 0.0,
			"-0.019": 0.0,
			"-0.018": 0.0,
			"-0.017": 0.0,
			"-0.016": 0.00392974590555,
			"-0.015": 0.68274975509,
			"-0.014": 1.07025319662,
			"-0.013": 0.728392285483,
			"-0.012": 0.717391423263,
			"-0.011": 0.687136353732,
			"-0.01": 0.728546016976,
			"-0.009": 0.803232977194,
			"-0.008": 1.20474496726,
			"-0.007": 7.46864232063,
			"-0.006": 15.0490068493,
			"-0.005": 22.8696718077,
			"-0.004": 33.0703044801,
			"-0.003": 31.492419185,
			"-0.002": 22.1766633995,
			"-0.001": 18.9066609884,
			"0.0": 20.8958029312,
			"0.001": 23.9229976634,
			"0.002": 24.743672826,
			"0.003": 19.3446104767,
			"0.004": 19.1015806807,
			"0.005": 18.4086204617,
			"0.006": 8.24439304571,
			"0.007": 4.49897765249,
			"0.008": 5.0606955911,
			"0.009": 3.69015964139,
			"0.01": 3.0220272441,
			"0.011": 2.74830020237,
			"0.012": 3.64752989019,
			"0.013": 1.9895659149,
			"0.014": 2.39119223876,
			"0.015": 0.184390844254,
			"0.016": 0.0,
			"0.017": 0.0,
			"0.018": 0.0,
			"0.019": 0.0,
			"0.02": 0.0,
			"0.021": 0.0,
			"0.022": 0.0,
			"0.023": 0.0,
			"0.024": 0.0,
			"0.025": 0.0
		}
	}
}
