{
	 "smiles": "ClC1=C2C3=C(CCCC3)SC2=NC(=N1)C1=CN=CC=C1", 
	 "Tm": 411.15, 
	 "num_atms": 32, 
	 "gaussian": { 
		 "optdone": 1, 
		 "sigma_profile": "yes", 
		 "theory": "DFT", 
		 "functional": "B3LYP", 
		 "basiset": "6-31G**", 
		 "properties": { 
			 "R2extent": 8671.9892, 
			 "electric_dipole_moment_norm": 5.08475175992, 
			 "electric_quadrupole_moment_norm": 12.0375863104, 
			 "total_energy": -1601.48442441, 
			 "HOMO_LUMO_gap": 0.15747, 
			 "cosmo_polarized_energy": -9.09, 
			 "cosmo_cavitation_energy": 38.13, 
			 "cosmo_dispersion_energy": -28.96, 
			 "cosmo_repulsion_energy": 2.15, 
			 "cosmo_total_nonelectrostatic_energy": 11.32, 
			 "SMD_solvation_energy": 1.02 
		},
		"coords": [
			{
				"x": -0.9818096184,
				"y": -1.76980463,
				"z": 1.682119331,
				"element": "Cl" 
			},
			{
				"x": -1.1279790254,
				"y": -0.6237444661,
				"z": 0.3510234425,
				"element": "C" 
			},
			{
				"x": -0.0510885235,
				"y": 0.2071918641,
				"z": -0.0117898033,
				"element": "C" 
			},
			{
				"x": 1.2969384392,
				"y": 0.4149488816,
				"z": 0.4711012273,
				"element": "C" 
			},
			{
				"x": 1.961922535,
				"y": 1.3449474428,
				"z": -0.2798543076,
				"element": "C" 
			},
			{
				"x": 3.3831812168,
				"y": 1.7881465255,
				"z": -0.0664990896,
				"element": "C" 
			},
			{
				"x": 4.1242750051,
				"y": 0.7980893867,
				"z": 0.8479964723,
				"element": "C" 
			},
			{
				"x": 3.2622445352,
				"y": 0.4326374532,
				"z": 2.0622727827,
				"element": "C" 
			},
			{
				"x": 1.9588775486,
				"y": -0.2711908654,
				"z": 1.646447412,
				"element": "C" 
			},
			{
				"x": 0.9959448516,
				"y": 2.0313868256,
				"z": -1.5836787347,
				"element": "S" 
			},
			{
				"x": -0.3665008628,
				"y": 1.0306563199,
				"z": -1.1279646749,
				"element": "C" 
			},
			{
				"x": -1.5262674755,
				"y": 1.0607401459,
				"z": -1.7706827747,
				"element": "N" 
			},
			{
				"x": -2.4641324332,
				"y": 0.2257338048,
				"z": -1.3052137734,
				"element": "C" 
			},
			{
				"x": -2.2879013058,
				"y": -0.617483461,
				"z": -0.2628065273,
				"element": "N" 
			},
			{
				"x": -3.7821847154,
				"y": 0.2176213065,
				"z": -1.974033993,
				"element": "C" 
			},
			{
				"x": -4.8122245338,
				"y": -0.6342661088,
				"z": -1.5401684172,
				"element": "C" 
			},
			{
				"x": -6.022742249,
				"y": -0.6853678125,
				"z": -2.1044003227,
				"element": "N" 
			},
			{
				"x": -6.2536892865,
				"y": 0.1283141355,
				"z": -3.1431925763,
				"element": "C" 
			},
			{
				"x": -5.3035845976,
				"y": 1.0141099277,
				"z": -3.6565576935,
				"element": "C" 
			},
			{
				"x": -4.047317484,
				"y": 1.0600377275,
				"z": -3.0627782931,
				"element": "C" 
			},
			{
				"x": 3.9002161561,
				"y": 1.8838208577,
				"z": -1.0288572793,
				"element": "H" 
			},
			{
				"x": 3.3896508854,
				"y": 2.7913104266,
				"z": 0.3837994456,
				"element": "H" 
			},
			{
				"x": 4.3633229751,
				"y": -0.1108237976,
				"z": 0.2811784576,
				"element": "H" 
			},
			{
				"x": 5.0768947774,
				"y": 1.235076148,
				"z": 1.1658222042,
				"element": "H" 
			},
			{
				"x": 3.0193600246,
				"y": 1.3481592043,
				"z": 2.6177553706,
				"element": "H" 
			},
			{
				"x": 3.8202213852,
				"y": -0.2126132432,
				"z": 2.7490449953,
				"element": "H" 
			},
			{
				"x": 2.1636343896,
				"y": -1.3186999036,
				"z": 1.3867894539,
				"element": "H" 
			},
			{
				"x": 1.2698666099,
				"y": -0.3067914487,
				"z": 2.4949827303,
				"element": "H" 
			},
			{
				"x": -4.6348480619,
				"y": -1.2980510768,
				"z": -0.6988454641,
				"element": "H" 
			},
			{
				"x": -7.2464972761,
				"y": 0.0689850077,
				"z": -3.5862843406,
				"element": "H" 
			},
			{
				"x": -5.5470372333,
				"y": 1.6506459269,
				"z": -4.5014836932,
				"element": "H" 
			},
			{
				"x": -3.2718466524,
				"y": 1.7285774951,
				"z": -3.4202415667,
				"element": "H" 
			}
		],
		 "valence_orbital": [ 
			{
				"type": "occ",
				"energy": -0.27651,
				"method": "rhf"
			},
			{
				"type": "occ",
				"energy": -0.2701,
				"method": "rhf"
			},
			{
				"type": "occ",
				"energy": -0.25929,
				"method": "rhf"
			},
			{
				"type": "occ",
				"energy": -0.24998,
				"method": "rhf"
			},
			{
				"type": "occ",
				"energy": -0.22678,
				"method": "rhf"
			},
			{
				"type": "unocc",
				"energy": -0.06931,
				"method": "rhf"
			},
			{
				"type": "unocc",
				"energy": -0.04646,
				"method": "rhf"
			},
			{
				"type": "unocc",
				"energy": -0.0179,
				"method": "rhf"
			},
			{
				"type": "unocc",
				"energy": -0.00369,
				"method": "rhf"
			},
			{
				"type": "unocc",
				"energy": 6e-05,
				"method": "rhf"
			}
		],
		"cosmo_sigma_profile": { 
			"-0.025": 0.0,
			"-0.024": 0.0,
			"-0.023": 0.0,
			"-0.022": 0.0,
			"-0.021": 0.0,
			"-0.02": 0.0,
			"-0.019": 0.0,
			"-0.018": 0.0,
			"-0.017": 0.0,
			"-0.016": 0.0,
			"-0.015": 0.0,
			"-0.014": 0.0,
			"-0.013": 0.0,
			"-0.012": 0.0,
			"-0.011": 0.0,
			"-0.01": 0.0,
			"-0.009": 0.0,
			"-0.008": 0.121468268833,
			"-0.007": 3.31650559634,
			"-0.006": 7.09472812744,
			"-0.005": 11.613869059,
			"-0.004": 18.3717689654,
			"-0.003": 33.3626436387,
			"-0.002": 39.5756358291,
			"-0.001": 37.5630694864,
			"0.0": 36.6838574232,
			"0.001": 36.8716726788,
			"0.002": 27.5891491607,
			"0.003": 17.0166383313,
			"0.004": 12.8230075538,
			"0.005": 6.19299805752,
			"0.006": 4.5024427857,
			"0.007": 4.75935861487,
			"0.008": 3.94994750464,
			"0.009": 1.51095180926,
			"0.01": 1.02940412098,
			"0.011": 1.31181664524,
			"0.012": 0.585039466635,
			"0.013": 1.09916597523,
			"0.014": 0.790934884341,
			"0.015": 0.81783571763,
			"0.016": 0.889368839358,
			"0.017": 0.129702799676,
			"0.018": 0.0,
			"0.019": 0.0,
			"0.02": 0.0,
			"0.021": 0.0,
			"0.022": 0.0,
			"0.023": 0.0,
			"0.024": 0.0,
			"0.025": 0.0
		}
	}
}
