{
	 "smiles": "C(C1=CC=CC=C1)C1=CC=NC=C1", 
	 "Tm": 284.35, 
	 "num_atms": 24, 
	 "gaussian": { 
		 "optdone": 1, 
		 "sigma_profile": "yes", 
		 "theory": "DFT", 
		 "functional": "B3LYP", 
		 "basiset": "6-31G**", 
		 "properties": { 
			 "R2extent": 3142.6822, 
			 "electric_dipole_moment_norm": 2.57882658199, 
			 "electric_quadrupole_moment_norm": 13.4872584731, 
			 "total_energy": -518.65825508, 
			 "HOMO_LUMO_gap": 0.22268, 
			 "cosmo_polarized_energy": -8.09, 
			 "cosmo_cavitation_energy": 27.9, 
			 "cosmo_dispersion_energy": -19.95, 
			 "cosmo_repulsion_energy": 1.58, 
			 "cosmo_total_nonelectrostatic_energy": 9.52, 
			 "SMD_solvation_energy": 3.16 
		},
		"coords": [
			{
				"x": -0.8579645649,
				"y": -0.7795897399,
				"z": -1.3013842701,
				"element": "C" 
			},
			{
				"x": -0.8227139616,
				"y": -0.3640130961,
				"z": 0.1591071195,
				"element": "C" 
			},
			{
				"x": 0.4014193288,
				"y": -0.2228341279,
				"z": 0.8295794873,
				"element": "C" 
			},
			{
				"x": 0.4403196095,
				"y": 0.1483231773,
				"z": 2.172378896,
				"element": "C" 
			},
			{
				"x": -0.7469205674,
				"y": 0.3878409589,
				"z": 2.8700529929,
				"element": "C" 
			},
			{
				"x": -1.9698472449,
				"y": 0.2525706771,
				"z": 2.2139541839,
				"element": "C" 
			},
			{
				"x": -2.004747404,
				"y": -0.120796529,
				"z": 0.8677603233,
				"element": "C" 
			},
			{
				"x": -0.203922155,
				"y": 0.2059337708,
				"z": -2.2553130691,
				"element": "C" 
			},
			{
				"x": 0.7025636322,
				"y": -0.2173703066,
				"z": -3.2318261905,
				"element": "C" 
			},
			{
				"x": 1.2553584934,
				"y": 0.719779248,
				"z": -4.1068462688,
				"element": "C" 
			},
			{
				"x": 0.9720326886,
				"y": 2.0267107392,
				"z": -4.0754270978,
				"element": "N" 
			},
			{
				"x": 0.1040972235,
				"y": 2.4286697666,
				"z": -3.1360506241,
				"element": "C" 
			},
			{
				"x": -0.5002641538,
				"y": 1.5741579917,
				"z": -2.2161018822,
				"element": "C" 
			},
			{
				"x": -1.9028136932,
				"y": -0.9217657176,
				"z": -1.6052936453,
				"element": "H" 
			},
			{
				"x": -0.3725091921,
				"y": -1.7558536127,
				"z": -1.4199436099,
				"element": "H" 
			},
			{
				"x": 1.3291116546,
				"y": -0.4019616203,
				"z": 0.2917111384,
				"element": "H" 
			},
			{
				"x": 1.3974562723,
				"y": 0.2509946517,
				"z": 2.6760421623,
				"element": "H" 
			},
			{
				"x": -0.7165298823,
				"y": 0.677206343,
				"z": 3.9165232568,
				"element": "H" 
			},
			{
				"x": -2.8985958611,
				"y": 0.4361793367,
				"z": 2.7468782689,
				"element": "H" 
			},
			{
				"x": -2.9621299532,
				"y": -0.2288029206,
				"z": 0.3634461907,
				"element": "H" 
			},
			{
				"x": 0.9777394746,
				"y": -1.2655582452,
				"z": -3.3143863627,
				"element": "H" 
			},
			{
				"x": 1.9637098939,
				"y": 0.4002905958,
				"z": -4.8699783453,
				"element": "H" 
			},
			{
				"x": -0.1192217584,
				"y": 3.4942964072,
				"z": -3.1167193261,
				"element": "H" 
			},
			{
				"x": -1.1860278793,
				"y": 1.9701922521,
				"z": -1.4729633281,
				"element": "H" 
			}
		],
		 "valence_orbital": [ 
			{
				"type": "occ",
				"energy": -0.27505,
				"method": "rhf"
			},
			{
				"type": "occ",
				"energy": -0.25875,
				"method": "rhf"
			},
			{
				"type": "occ",
				"energy": -0.25291,
				"method": "rhf"
			},
			{
				"type": "occ",
				"energy": -0.2496,
				"method": "rhf"
			},
			{
				"type": "occ",
				"energy": -0.24435,
				"method": "rhf"
			},
			{
				"type": "unocc",
				"energy": -0.02167,
				"method": "rhf"
			},
			{
				"type": "unocc",
				"energy": -0.01026,
				"method": "rhf"
			},
			{
				"type": "unocc",
				"energy": -0.00741,
				"method": "rhf"
			},
			{
				"type": "unocc",
				"energy": 0.00229,
				"method": "rhf"
			},
			{
				"type": "unocc",
				"energy": 0.08967,
				"method": "rhf"
			}
		],
		"cosmo_sigma_profile": { 
			"-0.025": 0.0,
			"-0.024": 0.0,
			"-0.023": 0.0,
			"-0.022": 0.0,
			"-0.021": 0.0,
			"-0.02": 0.0,
			"-0.019": 0.0,
			"-0.018": 0.0,
			"-0.017": 0.0,
			"-0.016": 0.0,
			"-0.015": 0.0,
			"-0.014": 0.0,
			"-0.013": 0.0,
			"-0.012": 0.0,
			"-0.011": 0.0,
			"-0.01": 0.0,
			"-0.009": 0.0,
			"-0.008": 0.0,
			"-0.007": 0.615358254264,
			"-0.006": 11.788787178,
			"-0.005": 23.677823917,
			"-0.004": 22.6143996132,
			"-0.003": 23.3298923409,
			"-0.002": 17.6019714188,
			"-0.001": 15.3482274853,
			"0.0": 12.6978484082,
			"0.001": 13.144621659,
			"0.002": 15.8732156493,
			"0.003": 21.8696423679,
			"0.004": 12.5807772601,
			"0.005": 10.5240075229,
			"0.006": 8.82280726343,
			"0.007": 2.26166916792,
			"0.008": 1.70817872355,
			"0.009": 1.20925691317,
			"0.01": 1.02704916661,
			"0.011": 1.02481261513,
			"0.012": 1.09305162421,
			"0.013": 0.938380400062,
			"0.014": 0.927057576102,
			"0.015": 0.706890092225,
			"0.016": 0.804808422014,
			"0.017": 0.831512183684,
			"0.018": 0.0,
			"0.019": 0.0,
			"0.02": 0.0,
			"0.021": 0.0,
			"0.022": 0.0,
			"0.023": 0.0,
			"0.024": 0.0,
			"0.025": 0.0
		}
	}
}
