{
	 "smiles": "CC1=CC=C(C=C1)C1=CC(=NN1C1=CC=C(C=C1)S(N)(=O)=O)C(F)(F)F", 
	 "Tm": 431.15, 
	 "num_atms": 40, 
	 "gaussian": { 
		 "optdone": 1, 
		 "sigma_profile": "yes", 
		 "theory": "DFT", 
		 "functional": "B3LYP", 
		 "basiset": "6-31G**", 
		 "properties": { 
			 "R2extent": 15159.4278, 
			 "electric_dipole_moment_norm": 8.27765163014, 
			 "electric_quadrupole_moment_norm": 37.9393582956, 
			 "total_energy": -1668.58155218, 
			 "HOMO_LUMO_gap": 0.18104, 
			 "cosmo_polarized_energy": -23.43, 
			 "cosmo_cavitation_energy": 48.25, 
			 "cosmo_dispersion_energy": -33.16, 
			 "cosmo_repulsion_energy": 2.44, 
			 "cosmo_total_nonelectrostatic_energy": 17.53, 
			 "SMD_solvation_energy": 8.07 
		},
		"coords": [
			{
				"x": 1.6832451192,
				"y": 3.1701383988,
				"z": -2.5752040901,
				"element": "C" 
			},
			{
				"x": 0.6695109356,
				"y": 2.4957818516,
				"z": -1.6824263674,
				"element": "C" 
			},
			{
				"x": 1.0695924695,
				"y": 1.8036458841,
				"z": -0.5300494956,
				"element": "C" 
			},
			{
				"x": 0.1388819964,
				"y": 1.2052331852,
				"z": 0.3144337922,
				"element": "C" 
			},
			{
				"x": -1.2342331828,
				"y": 1.2736297783,
				"z": 0.025920136,
				"element": "C" 
			},
			{
				"x": -1.6403876029,
				"y": 1.9661980691,
				"z": -1.1251315895,
				"element": "C" 
			},
			{
				"x": -0.7012298915,
				"y": 2.5646526064,
				"z": -1.9628788564,
				"element": "C" 
			},
			{
				"x": -2.2498780927,
				"y": 0.7019146813,
				"z": 0.9279196721,
				"element": "C" 
			},
			{
				"x": -3.3717660719,
				"y": 1.3183647157,
				"z": 1.455893037,
				"element": "C" 
			},
			{
				"x": -3.929552265,
				"y": 0.3713099458,
				"z": 2.3368196324,
				"element": "C" 
			},
			{
				"x": -3.2361633633,
				"y": -0.7591462117,
				"z": 2.3651856408,
				"element": "N" 
			},
			{
				"x": -2.2131755057,
				"y": -0.5580545505,
				"z": 1.4985842343,
				"element": "N" 
			},
			{
				"x": -1.331425818,
				"y": -1.6495429351,
				"z": 1.2537628704,
				"element": "C" 
			},
			{
				"x": -0.9926019587,
				"y": -2.4876654235,
				"z": 2.3230091506,
				"element": "C" 
			},
			{
				"x": -0.1575600272,
				"y": -3.5791646598,
				"z": 2.1055118853,
				"element": "C" 
			},
			{
				"x": 0.3427055307,
				"y": -3.8186844468,
				"z": 0.8229741501,
				"element": "C" 
			},
			{
				"x": -0.0115804792,
				"y": -2.9986251599,
				"z": -0.2500525865,
				"element": "C" 
			},
			{
				"x": -0.8577765409,
				"y": -1.9132178585,
				"z": -0.0364947463,
				"element": "C" 
			},
			{
				"x": 1.4532967609,
				"y": -5.2071279834,
				"z": 0.54712229,
				"element": "S" 
			},
			{
				"x": 3.0133670606,
				"y": -4.6434469633,
				"z": 0.8191234905,
				"element": "N" 
			},
			{
				"x": 1.1999290026,
				"y": -6.1835310804,
				"z": 1.6040757666,
				"element": "O" 
			},
			{
				"x": 1.3961141326,
				"y": -5.5314840221,
				"z": -0.8766740734,
				"element": "O" 
			},
			{
				"x": -5.1789033436,
				"y": 0.5123449847,
				"z": 3.150773257,
				"element": "C" 
			},
			{
				"x": -5.0475549134,
				"y": -0.0238431588,
				"z": 4.3769840403,
				"element": "F" 
			},
			{
				"x": -5.4930476491,
				"y": 1.8201054603,
				"z": 3.2960076921,
				"element": "F" 
			},
			{
				"x": -6.2348610115,
				"y": -0.0875516443,
				"z": 2.5600603038,
				"element": "F" 
			},
			{
				"x": 1.3183318001,
				"y": 3.2547720975,
				"z": -3.6028221103,
				"element": "H" 
			},
			{
				"x": 1.9042605304,
				"y": 4.1854402302,
				"z": -2.2228595107,
				"element": "H" 
			},
			{
				"x": 2.6293992677,
				"y": 2.6209797385,
				"z": -2.5942308056,
				"element": "H" 
			},
			{
				"x": 2.1271050888,
				"y": 1.7406266837,
				"z": -0.2858393425,
				"element": "H" 
			},
			{
				"x": 0.4764315467,
				"y": 0.692019124,
				"z": 1.2094937607,
				"element": "H" 
			},
			{
				"x": -2.697299679,
				"y": 2.0211948174,
				"z": -1.3685373405,
				"element": "H" 
			},
			{
				"x": -1.0395178522,
				"y": 3.0891781776,
				"z": -2.852785863,
				"element": "H" 
			},
			{
				"x": -3.7007840378,
				"y": 2.3289305046,
				"z": 1.2713067864,
				"element": "H" 
			},
			{
				"x": -1.4061923584,
				"y": -2.2858928682,
				"z": 3.3037078694,
				"element": "H" 
			},
			{
				"x": 0.0915616113,
				"y": -4.2536174278,
				"z": 2.9176861665,
				"element": "H" 
			},
			{
				"x": 0.3427322557,
				"y": -3.2333080621,
				"z": -1.2478688755,
				"element": "H" 
			},
			{
				"x": -1.1622132333,
				"y": -1.2895299962,
				"z": -0.8677852862,
				"element": "H" 
			},
			{
				"x": 3.1786747202,
				"y": -4.3762944899,
				"z": 1.7840954515,
				"element": "H" 
			},
			{
				"x": 3.3064650489,
				"y": -3.9400319925,
				"z": 0.1489898633,
				"element": "H" 
			}
		],
		 "valence_orbital": [ 
			{
				"type": "occ",
				"energy": -0.28884,
				"method": "rhf"
			},
			{
				"type": "occ",
				"energy": -0.28574,
				"method": "rhf"
			},
			{
				"type": "occ",
				"energy": -0.27166,
				"method": "rhf"
			},
			{
				"type": "occ",
				"energy": -0.25677,
				"method": "rhf"
			},
			{
				"type": "occ",
				"energy": -0.24431,
				"method": "rhf"
			},
			{
				"type": "unocc",
				"energy": -0.06327,
				"method": "rhf"
			},
			{
				"type": "unocc",
				"energy": -0.03779,
				"method": "rhf"
			},
			{
				"type": "unocc",
				"energy": -0.03471,
				"method": "rhf"
			},
			{
				"type": "unocc",
				"energy": -0.02074,
				"method": "rhf"
			},
			{
				"type": "unocc",
				"energy": 0.00289,
				"method": "rhf"
			}
		],
		"cosmo_sigma_profile": { 
			"-0.025": 0.0,
			"-0.024": 0.0,
			"-0.023": 0.0,
			"-0.022": 0.0,
			"-0.021": 0.0,
			"-0.02": 0.0,
			"-0.019": 0.0,
			"-0.018": 0.0,
			"-0.017": 0.0,
			"-0.016": 0.289818900357,
			"-0.015": 2.58990530167,
			"-0.014": 2.57463933724,
			"-0.013": 2.33099269393,
			"-0.012": 3.95855488035,
			"-0.011": 2.00402058193,
			"-0.01": 2.36246703766,
			"-0.009": 1.4027532997,
			"-0.008": 5.28140853872,
			"-0.007": 10.0286715237,
			"-0.006": 15.5848320105,
			"-0.005": 20.9961365011,
			"-0.004": 26.3651315742,
			"-0.003": 22.1259734795,
			"-0.002": 24.7004251578,
			"-0.001": 27.5651483373,
			"0.0": 30.6132374433,
			"0.001": 33.1889185071,
			"0.002": 42.1463831192,
			"0.003": 39.5775848957,
			"0.004": 14.6521027205,
			"0.005": 9.10191776509,
			"0.006": 5.21752317098,
			"0.007": 6.23855668866,
			"0.008": 6.32394811511,
			"0.009": 4.45295846071,
			"0.01": 9.25328264037,
			"0.011": 11.2726858071,
			"0.012": 4.08165653276,
			"0.013": 0.126541024593,
			"0.014": 0.0,
			"0.015": 0.0,
			"0.016": 0.0,
			"0.017": 0.0,
			"0.018": 0.0,
			"0.019": 0.0,
			"0.02": 0.0,
			"0.021": 0.0,
			"0.022": 0.0,
			"0.023": 0.0,
			"0.024": 0.0,
			"0.025": 0.0
		}
	}
}
