{
	 "smiles": "CC1=NC(=CS1)C1=CC(=NO1)C(O)=O", 
	 "Tm": 439.15, 
	 "num_atms": 20, 
	 "gaussian": { 
		 "optdone": 1, 
		 "sigma_profile": "yes", 
		 "theory": "DFT", 
		 "functional": "B3LYP", 
		 "basiset": "6-31G**", 
		 "properties": { 
			 "R2extent": 4548.8625, 
			 "electric_dipole_moment_norm": 3.10375559122, 
			 "electric_quadrupole_moment_norm": 11.1878260663, 
			 "total_energy": -1041.78578232, 
			 "HOMO_LUMO_gap": 0.17327, 
			 "cosmo_polarized_energy": -13.85, 
			 "cosmo_cavitation_energy": 28.27, 
			 "cosmo_dispersion_energy": -21.25, 
			 "cosmo_repulsion_energy": 1.63, 
			 "cosmo_total_nonelectrostatic_energy": 8.65, 
			 "SMD_solvation_energy": 4.65 
		},
		"coords": [
			{
				"x": -2.9087707432,
				"y": 0.195505048,
				"z": 2.9879266198,
				"element": "C" 
			},
			{
				"x": -1.6668966803,
				"y": 0.4063064855,
				"z": 2.1779385598,
				"element": "C" 
			},
			{
				"x": -1.2404333368,
				"y": -0.4091852698,
				"z": 1.2612366527,
				"element": "N" 
			},
			{
				"x": -0.0696660691,
				"y": 0.0462248693,
				"z": 0.6822989501,
				"element": "C" 
			},
			{
				"x": 0.4101466816,
				"y": 1.2358967126,
				"z": 1.1664486377,
				"element": "C" 
			},
			{
				"x": -0.6384454515,
				"y": 1.8279135799,
				"z": 2.4041730351,
				"element": "S" 
			},
			{
				"x": 0.5416786774,
				"y": -0.7516763275,
				"z": -0.3650380029,
				"element": "C" 
			},
			{
				"x": 0.1979845497,
				"y": -1.9358846004,
				"z": -0.9510149254,
				"element": "C" 
			},
			{
				"x": 1.2324004036,
				"y": -2.1440543487,
				"z": -1.9016492656,
				"element": "C" 
			},
			{
				"x": 2.1280486751,
				"y": -1.1741775693,
				"z": -1.897095496,
				"element": "N" 
			},
			{
				"x": 1.6914894161,
				"y": -0.2896542006,
				"z": -0.9227343065,
				"element": "O" 
			},
			{
				"x": 1.3313783882,
				"y": -3.3096229831,
				"z": -2.8171526362,
				"element": "C" 
			},
			{
				"x": 2.4100827926,
				"y": -3.2664382721,
				"z": -3.6204919756,
				"element": "O" 
			},
			{
				"x": 0.514984462,
				"y": -4.2069563281,
				"z": -2.8300999645,
				"element": "O" 
			},
			{
				"x": -3.6250864393,
				"y": 1.010724338,
				"z": 2.8422467974,
				"element": "H" 
			},
			{
				"x": -3.3723869503,
				"y": -0.7410183349,
				"z": 2.6734061552,
				"element": "H" 
			},
			{
				"x": -2.6837992458,
				"y": 0.1364821703,
				"z": 4.057888302,
				"element": "H" 
			},
			{
				"x": 1.2986099727,
				"y": 1.769379698,
				"z": 0.8621786905,
				"element": "H" 
			},
			{
				"x": -0.6520615977,
				"y": -2.564427043,
				"z": -0.7452011992,
				"element": "H" 
			},
			{
				"x": 2.3702424951,
				"y": -4.0693376239,
				"z": -4.1669646283,
				"element": "H" 
			}
		],
		 "valence_orbital": [ 
			{
				"type": "occ",
				"energy": -0.30612,
				"method": "rhf"
			},
			{
				"type": "occ",
				"energy": -0.29132,
				"method": "rhf"
			},
			{
				"type": "occ",
				"energy": -0.29042,
				"method": "rhf"
			},
			{
				"type": "occ",
				"energy": -0.28916,
				"method": "rhf"
			},
			{
				"type": "occ",
				"energy": -0.23733,
				"method": "rhf"
			},
			{
				"type": "unocc",
				"energy": -0.06406,
				"method": "rhf"
			},
			{
				"type": "unocc",
				"energy": -0.03899,
				"method": "rhf"
			},
			{
				"type": "unocc",
				"energy": -0.01218,
				"method": "rhf"
			},
			{
				"type": "unocc",
				"energy": 0.00318,
				"method": "rhf"
			},
			{
				"type": "unocc",
				"energy": 0.07426,
				"method": "rhf"
			}
		],
		"cosmo_sigma_profile": { 
			"-0.025": 0.0,
			"-0.024": 0.0,
			"-0.023": 0.0,
			"-0.022": 0.0,
			"-0.021": 0.0,
			"-0.02": 0.0244546355381,
			"-0.019": 0.69395737035,
			"-0.018": 1.32805692202,
			"-0.017": 0.750280376654,
			"-0.016": 0.771386489519,
			"-0.015": 0.347983334599,
			"-0.014": 0.777265851788,
			"-0.013": 0.963186486483,
			"-0.012": 0.669184896262,
			"-0.011": 1.05660639345,
			"-0.01": 1.91438763781,
			"-0.009": 2.81429029433,
			"-0.008": 3.04939021375,
			"-0.007": 4.03028710134,
			"-0.006": 10.4161574445,
			"-0.005": 12.817305765,
			"-0.004": 13.373843416,
			"-0.003": 14.0945997265,
			"-0.002": 18.8928910458,
			"-0.001": 23.8042088698,
			"0.0": 22.2074271219,
			"0.001": 21.4019564197,
			"0.002": 12.0654817272,
			"0.003": 7.67705097428,
			"0.004": 5.28587990001,
			"0.005": 7.46965152274,
			"0.006": 7.47055744249,
			"0.007": 5.02612267729,
			"0.008": 5.45255539488,
			"0.009": 6.01327029705,
			"0.01": 6.54880794573,
			"0.011": 7.30518889379,
			"0.012": 2.50207001551,
			"0.013": 0.72080596331,
			"0.014": 0.00365998469672,
			"0.015": 0.0,
			"0.016": 0.0,
			"0.017": 0.0,
			"0.018": 0.0,
			"0.019": 0.0,
			"0.02": 0.0,
			"0.021": 0.0,
			"0.022": 0.0,
			"0.023": 0.0,
			"0.024": 0.0,
			"0.025": 0.0
		}
	}
}
