{
	 "smiles": "CC1=NN(C(C)=C1)C1=C(F)C=C(N)C=C1", 
	 "Tm": 398.15, 
	 "num_atms": 27, 
	 "gaussian": { 
		 "optdone": 1, 
		 "sigma_profile": "yes", 
		 "theory": "DFT", 
		 "functional": "B3LYP", 
		 "basiset": "6-31G**", 
		 "properties": { 
			 "R2extent": 3659.5759, 
			 "electric_dipole_moment_norm": 3.07565629744, 
			 "electric_quadrupole_moment_norm": 15.7569476146, 
			 "total_energy": -690.486133884, 
			 "HOMO_LUMO_gap": 0.19537, 
			 "cosmo_polarized_energy": -12.94, 
			 "cosmo_cavitation_energy": 31.06, 
			 "cosmo_dispersion_energy": -22.34, 
			 "cosmo_repulsion_energy": 1.75, 
			 "cosmo_total_nonelectrostatic_energy": 10.47, 
			 "SMD_solvation_energy": 5.06 
		},
		"coords": [
			{
				"x": 4.6071159758,
				"y": 0.6302706759,
				"z": -1.3334638839,
				"element": "C" 
			},
			{
				"x": 3.1933376066,
				"y": 0.8944782424,
				"z": -0.9118493083,
				"element": "C" 
			},
			{
				"x": 2.4479305267,
				"y": -0.0873003316,
				"z": -0.4114759395,
				"element": "N" 
			},
			{
				"x": 1.2343322629,
				"y": 0.4859297203,
				"z": -0.1490656648,
				"element": "N" 
			},
			{
				"x": 1.2131174383,
				"y": 1.8237603907,
				"z": -0.4620212909,
				"element": "C" 
			},
			{
				"x": 0.0367480213,
				"y": 2.7157420563,
				"z": -0.2246176406,
				"element": "C" 
			},
			{
				"x": 2.4665222322,
				"y": 2.1103930407,
				"z": -0.9661868354,
				"element": "C" 
			},
			{
				"x": 0.2278784523,
				"y": -0.2995686326,
				"z": 0.4665404722,
				"element": "C" 
			},
			{
				"x": -1.0565886711,
				"y": -0.4160622138,
				"z": -0.0704400658,
				"element": "C" 
			},
			{
				"x": -1.3624381744,
				"y": 0.2462796447,
				"z": -1.2075672298,
				"element": "F" 
			},
			{
				"x": -2.0424404136,
				"y": -1.1963527815,
				"z": 0.5141358889,
				"element": "C" 
			},
			{
				"x": -1.7488010629,
				"y": -1.9348410729,
				"z": 1.6718385558,
				"element": "C" 
			},
			{
				"x": -2.7361431098,
				"y": -2.6868766534,
				"z": 2.3015706635,
				"element": "N" 
			},
			{
				"x": -0.449838518,
				"y": -1.8535806245,
				"z": 2.2094972996,
				"element": "C" 
			},
			{
				"x": 0.5118745063,
				"y": -1.0470971837,
				"z": 1.6157643274,
				"element": "C" 
			},
			{
				"x": 4.8651916807,
				"y": -0.4120376407,
				"z": -1.1329163883,
				"element": "H" 
			},
			{
				"x": 4.748383216,
				"y": 0.8201868909,
				"z": -2.4036161886,
				"element": "H" 
			},
			{
				"x": 5.3128797201,
				"y": 1.272042661,
				"z": -0.7937349434,
				"element": "H" 
			},
			{
				"x": -0.7680658359,
				"y": 2.5303470987,
				"z": -0.9417179126,
				"element": "H" 
			},
			{
				"x": 0.3450274848,
				"y": 3.7597139571,
				"z": -0.315062166,
				"element": "H" 
			},
			{
				"x": -0.3792904533,
				"y": 2.570148269,
				"z": 0.7785345107,
				"element": "H" 
			},
			{
				"x": 2.810503553,
				"y": 3.0734086219,
				"z": -1.3163433791,
				"element": "H" 
			},
			{
				"x": -3.0229125615,
				"y": -1.2331279237,
				"z": 0.0505074531,
				"element": "H" 
			},
			{
				"x": -2.4011224234,
				"y": -3.4322553518,
				"z": 2.8955103437,
				"element": "H" 
			},
			{
				"x": -3.5051362191,
				"y": -2.9799044574,
				"z": 1.7155375313,
				"element": "H" 
			},
			{
				"x": -0.2023119393,
				"y": -2.420747177,
				"z": 3.1023582905,
				"element": "H" 
			},
			{
				"x": 1.5152467055,
				"y": -0.9922492252,
				"z": 2.0229835003,
				"element": "H" 
			}
		],
		 "valence_orbital": [ 
			{
				"type": "occ",
				"energy": -0.26978,
				"method": "rhf"
			},
			{
				"type": "occ",
				"energy": -0.2504,
				"method": "rhf"
			},
			{
				"type": "occ",
				"energy": -0.24134,
				"method": "rhf"
			},
			{
				"type": "occ",
				"energy": -0.22273,
				"method": "rhf"
			},
			{
				"type": "occ",
				"energy": -0.20175,
				"method": "rhf"
			},
			{
				"type": "unocc",
				"energy": -0.00638,
				"method": "rhf"
			},
			{
				"type": "unocc",
				"energy": 0.0028,
				"method": "rhf"
			},
			{
				"type": "unocc",
				"energy": 0.0416,
				"method": "rhf"
			},
			{
				"type": "unocc",
				"energy": 0.07209,
				"method": "rhf"
			},
			{
				"type": "unocc",
				"energy": 0.08201,
				"method": "rhf"
			}
		],
		"cosmo_sigma_profile": { 
			"-0.025": 0.0,
			"-0.024": 0.0,
			"-0.023": 0.0,
			"-0.022": 0.0,
			"-0.021": 0.0,
			"-0.02": 0.0,
			"-0.019": 0.0,
			"-0.018": 0.0,
			"-0.017": 0.0,
			"-0.016": 0.0,
			"-0.015": 0.0,
			"-0.014": 0.0,
			"-0.013": 1.5253548067,
			"-0.012": 3.2172923279,
			"-0.011": 3.12676876658,
			"-0.01": 2.73025981733,
			"-0.009": 4.06332931999,
			"-0.008": 3.17125922814,
			"-0.007": 4.43893048669,
			"-0.006": 6.88457471402,
			"-0.005": 10.1502940513,
			"-0.004": 16.1971910347,
			"-0.003": 17.9864500481,
			"-0.002": 18.853429579,
			"-0.001": 22.6417482152,
			"0.0": 21.8448403062,
			"0.001": 17.8489222772,
			"0.002": 15.1651946942,
			"0.003": 16.6239127401,
			"0.004": 21.8903096208,
			"0.005": 13.4309296103,
			"0.006": 6.8215965206,
			"0.007": 2.79074463987,
			"0.008": 2.75240152212,
			"0.009": 2.93853049308,
			"0.01": 2.22509868668,
			"0.011": 1.67552448059,
			"0.012": 1.13223543639,
			"0.013": 1.7630406672,
			"0.014": 1.26733027079,
			"0.015": 0.79537303837,
			"0.016": 0.695201761436,
			"0.017": 0.0971424014061,
			"0.018": 0.0,
			"0.019": 0.0,
			"0.02": 0.0,
			"0.021": 0.0,
			"0.022": 0.0,
			"0.023": 0.0,
			"0.024": 0.0,
			"0.025": 0.0
		}
	}
}
