{
	 "smiles": "CC1(C)CC2=C(SC(N)=C2C#N)C(C)(C)N1", 
	 "Tm": 471.15, 
	 "num_atms": 33, 
	 "gaussian": { 
		 "optdone": 1, 
		 "sigma_profile": "yes", 
		 "theory": "DFT", 
		 "functional": "B3LYP", 
		 "basiset": "6-31G**", 
		 "properties": { 
			 "R2extent": 4792.1422, 
			 "electric_dipole_moment_norm": 3.91684708535, 
			 "electric_quadrupole_moment_norm": 23.7406659289, 
			 "total_energy": -1029.95388299, 
			 "HOMO_LUMO_gap": 0.18236, 
			 "cosmo_polarized_energy": -14.62, 
			 "cosmo_cavitation_energy": 35.43, 
			 "cosmo_dispersion_energy": -24.56, 
			 "cosmo_repulsion_energy": 1.86, 
			 "cosmo_total_nonelectrostatic_energy": 12.73, 
			 "SMD_solvation_energy": 5.85 
		},
		"coords": [
			{
				"x": -2.05779945,
				"y": -0.0292855603,
				"z": -1.050624442,
				"element": "C" 
			},
			{
				"x": -0.9303516488,
				"y": -0.6562038248,
				"z": -0.1952959885,
				"element": "C" 
			},
			{
				"x": -1.3674290639,
				"y": -2.0611615162,
				"z": 0.2495357327,
				"element": "C" 
			},
			{
				"x": 0.3691049679,
				"y": -0.7592929473,
				"z": -1.0248726384,
				"element": "C" 
			},
			{
				"x": 1.0369427179,
				"y": 0.5821528818,
				"z": -1.1410609625,
				"element": "C" 
			},
			{
				"x": 0.8165372389,
				"y": 1.566429312,
				"z": -0.2307167708,
				"element": "C" 
			},
			{
				"x": 1.7410465633,
				"y": 3.0224265313,
				"z": -0.6182298816,
				"element": "S" 
			},
			{
				"x": 2.4473816414,
				"y": 2.2613575749,
				"z": -2.0222589159,
				"element": "C" 
			},
			{
				"x": 3.2800161114,
				"y": 2.9562957927,
				"z": -2.8677612316,
				"element": "N" 
			},
			{
				"x": 1.9731025217,
				"y": 0.9674369918,
				"z": -2.1754814809,
				"element": "C" 
			},
			{
				"x": 2.4040448696,
				"y": 0.1417337318,
				"z": -3.245355172,
				"element": "C" 
			},
			{
				"x": 2.7874815989,
				"y": -0.5059259223,
				"z": -4.1369126844,
				"element": "N" 
			},
			{
				"x": -0.0647947821,
				"y": 1.4641935384,
				"z": 0.9943491271,
				"element": "C" 
			},
			{
				"x": 0.7792246223,
				"y": 1.6439885331,
				"z": 2.2788016231,
				"element": "C" 
			},
			{
				"x": -1.172474967,
				"y": 2.5503289108,
				"z": 0.9789101979,
				"element": "C" 
			},
			{
				"x": -0.6000024397,
				"y": 0.0847531061,
				"z": 1.0392502004,
				"element": "N" 
			},
			{
				"x": -2.9518442743,
				"y": 0.1447859782,
				"z": -0.4416435938,
				"element": "H" 
			},
			{
				"x": -2.338814487,
				"y": -0.6997198397,
				"z": -1.8705669915,
				"element": "H" 
			},
			{
				"x": -1.752077203,
				"y": 0.9224481971,
				"z": -1.4922802959,
				"element": "H" 
			},
			{
				"x": -0.6045440437,
				"y": -2.514493716,
				"z": 0.8883848356,
				"element": "H" 
			},
			{
				"x": -2.3058012707,
				"y": -2.0172031136,
				"z": 0.815511714,
				"element": "H" 
			},
			{
				"x": -1.5346362185,
				"y": -2.7092695418,
				"z": -0.6167066477,
				"element": "H" 
			},
			{
				"x": 0.1504053669,
				"y": -1.1644094927,
				"z": -2.0195976707,
				"element": "H" 
			},
			{
				"x": 1.0516621205,
				"y": -1.4679083414,
				"z": -0.5382296397,
				"element": "H" 
			},
			{
				"x": 3.7488919182,
				"y": 2.3863845361,
				"z": -3.561019565,
				"element": "H" 
			},
			{
				"x": 3.8772848237,
				"y": 3.6568730049,
				"z": -2.451949271,
				"element": "H" 
			},
			{
				"x": 1.2189861175,
				"y": 2.645531012,
				"z": 2.3357956885,
				"element": "H" 
			},
			{
				"x": 0.1473009633,
				"y": 1.5042719941,
				"z": 3.1631771445,
				"element": "H" 
			},
			{
				"x": 1.5791695519,
				"y": 0.9012374583,
				"z": 2.3082178215,
				"element": "H" 
			},
			{
				"x": -1.8164525112,
				"y": 2.4381155612,
				"z": 1.8591842326,
				"element": "H" 
			},
			{
				"x": -1.7951171383,
				"y": 2.4841294674,
				"z": 0.0850805684,
				"element": "H" 
			},
			{
				"x": -0.7414396997,
				"y": 3.5569339463,
				"z": 1.0162405245,
				"element": "H" 
			},
			{
				"x": -1.3891045173,
				"y": 0.0598657557,
				"z": 1.679524433,
				"element": "H" 
			}
		],
		 "valence_orbital": [ 
			{
				"type": "occ",
				"energy": -0.31694,
				"method": "rhf"
			},
			{
				"type": "occ",
				"energy": -0.30822,
				"method": "rhf"
			},
			{
				"type": "occ",
				"energy": -0.25013,
				"method": "rhf"
			},
			{
				"type": "occ",
				"energy": -0.21939,
				"method": "rhf"
			},
			{
				"type": "occ",
				"energy": -0.20374,
				"method": "rhf"
			},
			{
				"type": "unocc",
				"energy": -0.02138,
				"method": "rhf"
			},
			{
				"type": "unocc",
				"energy": -0.00242,
				"method": "rhf"
			},
			{
				"type": "unocc",
				"energy": 0.02101,
				"method": "rhf"
			},
			{
				"type": "unocc",
				"energy": 0.04656,
				"method": "rhf"
			},
			{
				"type": "unocc",
				"energy": 0.06275,
				"method": "rhf"
			}
		],
		"cosmo_sigma_profile": { 
			"-0.025": 0.0,
			"-0.024": 0.0,
			"-0.023": 0.0,
			"-0.022": 0.0,
			"-0.021": 0.0,
			"-0.02": 0.0,
			"-0.019": 0.0,
			"-0.018": 0.0,
			"-0.017": 0.0,
			"-0.016": 0.0,
			"-0.015": 0.815491978358,
			"-0.014": 2.12139863241,
			"-0.013": 2.43868819394,
			"-0.012": 2.79611429279,
			"-0.011": 2.33429601535,
			"-0.01": 1.9589288562,
			"-0.009": 3.30046908613,
			"-0.008": 3.4793914107,
			"-0.007": 3.44722031197,
			"-0.006": 4.15644344316,
			"-0.005": 6.00544397889,
			"-0.004": 12.0621987464,
			"-0.003": 27.399990204,
			"-0.002": 28.7343935847,
			"-0.001": 29.5005779626,
			"0.0": 31.3968912183,
			"0.001": 34.4044500185,
			"0.002": 22.21302302,
			"0.003": 13.907837483,
			"0.004": 9.25835730634,
			"0.005": 4.74091676166,
			"0.006": 2.91783940178,
			"0.007": 4.3581191632,
			"0.008": 3.8347380089,
			"0.009": 4.02771332523,
			"0.01": 4.70309837816,
			"0.011": 4.61938655279,
			"0.012": 3.33892274785,
			"0.013": 2.94978200189,
			"0.014": 1.67933011016,
			"0.015": 0.3044781394,
			"0.016": 0.0521974333137,
			"0.017": 0.0,
			"0.018": 0.0,
			"0.019": 0.0,
			"0.02": 0.0,
			"0.021": 0.0,
			"0.022": 0.0,
			"0.023": 0.0,
			"0.024": 0.0,
			"0.025": 0.0
		}
	}
}
