{
	 "smiles": "CCN(C1=CC=CC=C1)S(=O)(=O)C1=CN=C(Cl)C=C1", 
	 "Tm": 355.15, 
	 "num_atms": 32, 
	 "gaussian": { 
		 "optdone": 1, 
		 "sigma_profile": "yes", 
		 "theory": "DFT", 
		 "functional": "B3LYP", 
		 "basiset": "6-31G**", 
		 "properties": { 
			 "R2extent": 7185.442, 
			 "electric_dipole_moment_norm": 4.68106707279, 
			 "electric_quadrupole_moment_norm": 10.1996710378, 
			 "total_energy": -1621.46711635, 
			 "HOMO_LUMO_gap": 0.19416, 
			 "cosmo_polarized_energy": -15.3, 
			 "cosmo_cavitation_energy": 39.34, 
			 "cosmo_dispersion_energy": -27.12, 
			 "cosmo_repulsion_energy": 2.06, 
			 "cosmo_total_nonelectrostatic_energy": 14.29, 
			 "SMD_solvation_energy": 3.91 
		},
		"coords": [
			{
				"x": -3.231945465,
				"y": 0.3539493181,
				"z": 0.8928769359,
				"element": "C" 
			},
			{
				"x": -2.2613677888,
				"y": -0.6126632751,
				"z": 0.2200620081,
				"element": "C" 
			},
			{
				"x": -1.3206257706,
				"y": 0.1085850121,
				"z": -0.6743243729,
				"element": "N" 
			},
			{
				"x": -1.9163568459,
				"y": 0.7406558749,
				"z": -1.8352412361,
				"element": "C" 
			},
			{
				"x": -2.5218960024,
				"y": -0.0155524375,
				"z": -2.845941645,
				"element": "C" 
			},
			{
				"x": -3.1083495025,
				"y": 0.6282433634,
				"z": -3.9353168991,
				"element": "C" 
			},
			{
				"x": -3.0947372272,
				"y": 2.0225096602,
				"z": -4.0172887649,
				"element": "C" 
			},
			{
				"x": -2.4880093327,
				"y": 2.7743910668,
				"z": -3.0094024529,
				"element": "C" 
			},
			{
				"x": -1.8962326453,
				"y": 2.1344140087,
				"z": -1.9199155365,
				"element": "C" 
			},
			{
				"x": 0.1133708662,
				"y": -0.7572819594,
				"z": -1.0251909293,
				"element": "S" 
			},
			{
				"x": 0.8349754158,
				"y": 0.0235020557,
				"z": -2.0296667934,
				"element": "O" 
			},
			{
				"x": -0.1654833258,
				"y": -2.1854375078,
				"z": -1.2318275203,
				"element": "O" 
			},
			{
				"x": 0.9935046278,
				"y": -0.6148505201,
				"z": 0.5318253819,
				"element": "C" 
			},
			{
				"x": 1.1985573212,
				"y": -1.7373918329,
				"z": 1.3313629487,
				"element": "C" 
			},
			{
				"x": 1.882609858,
				"y": -1.6840560339,
				"z": 2.4838443827,
				"element": "N" 
			},
			{
				"x": 2.3766523733,
				"y": -0.5133673405,
				"z": 2.8439619541,
				"element": "C" 
			},
			{
				"x": 3.2628065022,
				"y": -0.4647636576,
				"z": 4.3589872121,
				"element": "Cl" 
			},
			{
				"x": 2.2466864662,
				"y": 0.6744635883,
				"z": 2.1106549081,
				"element": "C" 
			},
			{
				"x": 1.535288704,
				"y": 0.6145942401,
				"z": 0.9206479442,
				"element": "C" 
			},
			{
				"x": -3.8546741338,
				"y": 0.8719772169,
				"z": 0.1588795368,
				"element": "H" 
			},
			{
				"x": -2.691249435,
				"y": 1.104792029,
				"z": 1.4764239369,
				"element": "H" 
			},
			{
				"x": -3.8927188573,
				"y": -0.1999381983,
				"z": 1.5669149226,
				"element": "H" 
			},
			{
				"x": -2.8036087691,
				"y": -1.3915091266,
				"z": -0.3311222267,
				"element": "H" 
			},
			{
				"x": -1.6642106405,
				"y": -1.1192370408,
				"z": 0.9838844408,
				"element": "H" 
			},
			{
				"x": -2.5180898427,
				"y": -1.0996164135,
				"z": -2.7835363646,
				"element": "H" 
			},
			{
				"x": -3.5712965998,
				"y": 0.0403364291,
				"z": -4.7222963783,
				"element": "H" 
			},
			{
				"x": -3.5528532202,
				"y": 2.5211082981,
				"z": -4.8664121014,
				"element": "H" 
			},
			{
				"x": -2.4720443469,
				"y": 3.8584385704,
				"z": -3.0720570179,
				"element": "H" 
			},
			{
				"x": -1.4169219073,
				"y": 2.7016654642,
				"z": -1.1288977343,
				"element": "H" 
			},
			{
				"x": 0.8073476542,
				"y": -2.7050860363,
				"z": 1.0314648404,
				"element": "H" 
			},
			{
				"x": 2.6918996074,
				"y": 1.5960295038,
				"z": 2.4652597059,
				"element": "H" 
			},
			{
				"x": 1.4068722626,
				"y": 1.4938956807,
				"z": 0.2984869145,
				"element": "H" 
			}
		],
		 "valence_orbital": [ 
			{
				"type": "occ",
				"energy": -0.28954,
				"method": "rhf"
			},
			{
				"type": "occ",
				"energy": -0.28374,
				"method": "rhf"
			},
			{
				"type": "occ",
				"energy": -0.26406,
				"method": "rhf"
			},
			{
				"type": "occ",
				"energy": -0.262,
				"method": "rhf"
			},
			{
				"type": "occ",
				"energy": -0.25772,
				"method": "rhf"
			},
			{
				"type": "unocc",
				"energy": -0.06356,
				"method": "rhf"
			},
			{
				"type": "unocc",
				"energy": -0.05197,
				"method": "rhf"
			},
			{
				"type": "unocc",
				"energy": -0.02061,
				"method": "rhf"
			},
			{
				"type": "unocc",
				"energy": -0.01407,
				"method": "rhf"
			},
			{
				"type": "unocc",
				"energy": 0.02115,
				"method": "rhf"
			}
		],
		"cosmo_sigma_profile": { 
			"-0.025": 0.0,
			"-0.024": 0.0,
			"-0.023": 0.0,
			"-0.022": 0.0,
			"-0.021": 0.0,
			"-0.02": 0.0,
			"-0.019": 0.0,
			"-0.018": 0.0,
			"-0.017": 0.0,
			"-0.016": 0.0,
			"-0.015": 0.0,
			"-0.014": 0.0,
			"-0.013": 0.0,
			"-0.012": 0.0,
			"-0.011": 0.0,
			"-0.01": 0.927596635732,
			"-0.009": 4.03171217393,
			"-0.008": 4.7238078441,
			"-0.007": 5.48725582233,
			"-0.006": 15.2133346498,
			"-0.005": 20.9895077468,
			"-0.004": 24.7718816585,
			"-0.003": 29.9099916228,
			"-0.002": 31.3593679793,
			"-0.001": 28.5164435026,
			"0.0": 26.3320033716,
			"0.001": 18.934940688,
			"0.002": 17.256972747,
			"0.003": 19.2252094849,
			"0.004": 17.5416325327,
			"0.005": 11.1019329928,
			"0.006": 5.12088631365,
			"0.007": 4.68168915051,
			"0.008": 5.5616527143,
			"0.009": 6.27537910966,
			"0.01": 10.3487330442,
			"0.011": 6.35187287935,
			"0.012": 1.41450792747,
			"0.013": 0.604991051538,
			"0.014": 0.0572725095851,
			"0.015": 0.0,
			"0.016": 0.0,
			"0.017": 0.0,
			"0.018": 0.0,
			"0.019": 0.0,
			"0.02": 0.0,
			"0.021": 0.0,
			"0.022": 0.0,
			"0.023": 0.0,
			"0.024": 0.0,
			"0.025": 0.0
		}
	}
}
