{
	 "smiles": "NS(=O)(=O)C1=CC=C(NC(=O)CCl)C=C1", 
	 "Tm": 430.15, 
	 "num_atms": 24, 
	 "gaussian": { 
		 "optdone": 1, 
		 "sigma_profile": "yes", 
		 "theory": "DFT", 
		 "functional": "B3LYP", 
		 "basiset": "6-31G**", 
		 "properties": { 
			 "R2extent": 6426.3796, 
			 "electric_dipole_moment_norm": 4.92180552033, 
			 "electric_quadrupole_moment_norm": 39.4999413149, 
			 "total_energy": -1503.76452565, 
			 "HOMO_LUMO_gap": 0.19611, 
			 "cosmo_polarized_energy": -30.08, 
			 "cosmo_cavitation_energy": 32.11, 
			 "cosmo_dispersion_energy": -23.98, 
			 "cosmo_repulsion_energy": 1.85, 
			 "cosmo_total_nonelectrostatic_energy": 9.99, 
			 "SMD_solvation_energy": 5.51 
		},
		"coords": [
			{
				"x": -4.4204992098,
				"y": -0.2119678952,
				"z": 0.7972227331,
				"element": "N" 
			},
			{
				"x": -3.4214724383,
				"y": 1.1073745071,
				"z": 0.5131811037,
				"element": "S" 
			},
			{
				"x": -3.7645337672,
				"y": 1.5777192838,
				"z": -0.8271318261,
				"element": "O" 
			},
			{
				"x": -3.5229744816,
				"y": 1.9407472246,
				"z": 1.7092368668,
				"element": "O" 
			},
			{
				"x": -1.7349726953,
				"y": 0.489885016,
				"z": 0.4408183239,
				"element": "C" 
			},
			{
				"x": -0.9697472424,
				"y": 0.4288222087,
				"z": 1.6058914654,
				"element": "C" 
			},
			{
				"x": 0.3286093931,
				"y": -0.0736217418,
				"z": 1.5577883916,
				"element": "C" 
			},
			{
				"x": 0.883805773,
				"y": -0.4845578872,
				"z": 0.3352666088,
				"element": "C" 
			},
			{
				"x": 2.1840233284,
				"y": -1.0139733568,
				"z": 0.225270013,
				"element": "N" 
			},
			{
				"x": 3.3966361459,
				"y": -0.6810751319,
				"z": 0.8189760007,
				"element": "C" 
			},
			{
				"x": 4.4035342242,
				"y": -1.2849625488,
				"z": 0.5081060883,
				"element": "O" 
			},
			{
				"x": 3.380446529,
				"y": 0.4569184711,
				"z": 1.8431514296,
				"element": "C" 
			},
			{
				"x": 4.9974516829,
				"y": 1.2027334646,
				"z": 2.0293921918,
				"element": "Cl" 
			},
			{
				"x": 0.099921232,
				"y": -0.413619603,
				"z": -0.8305068327,
				"element": "C" 
			},
			{
				"x": -1.2026403739,
				"y": 0.067346189,
				"z": -0.7806870416,
				"element": "C" 
			},
			{
				"x": -4.436092704,
				"y": -0.8781483163,
				"z": 0.0320746077,
				"element": "H" 
			},
			{
				"x": -4.2752819883,
				"y": -0.6392440557,
				"z": 1.7059935735,
				"element": "H" 
			},
			{
				"x": -1.3892146741,
				"y": 0.7743438801,
				"z": 2.544780976,
				"element": "H" 
			},
			{
				"x": 0.8941782061,
				"y": -0.1658761571,
				"z": 2.4769465158,
				"element": "H" 
			},
			{
				"x": 2.3305092835,
				"y": -1.69020967,
				"z": -0.5153984948,
				"element": "H" 
			},
			{
				"x": 3.0948367614,
				"y": 0.0657498649,
				"z": 2.8225965481,
				"element": "H" 
			},
			{
				"x": 2.6778868366,
				"y": 1.2421275667,
				"z": 1.5622902269,
				"element": "H" 
			},
			{
				"x": 0.5298684288,
				"y": -0.716719249,
				"z": -1.7808868537,
				"element": "H" 
			},
			{
				"x": -1.79507825,
				"y": 0.151407936,
				"z": -1.6855726161,
				"element": "H" 
			}
		],
		 "valence_orbital": [ 
			{
				"type": "occ",
				"energy": -0.3088,
				"method": "rhf"
			},
			{
				"type": "occ",
				"energy": -0.30717,
				"method": "rhf"
			},
			{
				"type": "occ",
				"energy": -0.29344,
				"method": "rhf"
			},
			{
				"type": "occ",
				"energy": -0.28463,
				"method": "rhf"
			},
			{
				"type": "occ",
				"energy": -0.25659,
				"method": "rhf"
			},
			{
				"type": "unocc",
				"energy": -0.06048,
				"method": "rhf"
			},
			{
				"type": "unocc",
				"energy": -0.04545,
				"method": "rhf"
			},
			{
				"type": "unocc",
				"energy": -0.00854,
				"method": "rhf"
			},
			{
				"type": "unocc",
				"energy": 0.02036,
				"method": "rhf"
			},
			{
				"type": "unocc",
				"energy": 0.04067,
				"method": "rhf"
			}
		],
		"cosmo_sigma_profile": { 
			"-0.025": 0.0,
			"-0.024": 0.0,
			"-0.023": 0.0,
			"-0.022": 0.0,
			"-0.021": 0.0,
			"-0.02": 0.0,
			"-0.019": 0.0,
			"-0.018": 0.0,
			"-0.017": 0.0,
			"-0.016": 0.204966593214,
			"-0.015": 3.7005438304,
			"-0.014": 3.03999869663,
			"-0.013": 4.53327342635,
			"-0.012": 4.68146282994,
			"-0.011": 6.51134038255,
			"-0.01": 6.20540292085,
			"-0.009": 6.23493422384,
			"-0.008": 9.44362826029,
			"-0.007": 13.7359922952,
			"-0.006": 12.9656491016,
			"-0.005": 8.11221100461,
			"-0.004": 9.15613225657,
			"-0.003": 8.42733387143,
			"-0.002": 11.1415789994,
			"-0.001": 12.3643539887,
			"0.0": 11.4441200314,
			"0.001": 15.9021178138,
			"0.002": 16.7907055375,
			"0.003": 8.59043408292,
			"0.004": 8.08875613998,
			"0.005": 11.8904665375,
			"0.006": 9.58767869192,
			"0.007": 5.32695055097,
			"0.008": 7.05787013654,
			"0.009": 6.26738692626,
			"0.01": 9.80344969685,
			"0.011": 13.0834827614,
			"0.012": 11.0273632711,
			"0.013": 2.56558880473,
			"0.014": 0.472976240484,
			"0.015": 0.0,
			"0.016": 0.0,
			"0.017": 0.0,
			"0.018": 0.0,
			"0.019": 0.0,
			"0.02": 0.0,
			"0.021": 0.0,
			"0.022": 0.0,
			"0.023": 0.0,
			"0.024": 0.0,
			"0.025": 0.0
		}
	}
}
