{
	 "smiles": "BrCC1=CC=C(OCC#N)C=C1", 
	 "Tm": 348.15, 
	 "num_atms": 20, 
	 "gaussian": { 
		 "optdone": 1, 
		 "sigma_profile": "yes", 
		 "theory": "DFT", 
		 "functional": "B3LYP", 
		 "basiset": "6-31G**", 
		 "properties": { 
			 "R2extent": 4508.8999, 
			 "electric_dipole_moment_norm": 4.93003961039, 
			 "electric_quadrupole_moment_norm": 11.0760779651, 
			 "total_energy": -3049.12403736, 
			 "HOMO_LUMO_gap": 0.20039, 
			 "cosmo_polarized_energy": -13.89, 
			 "cosmo_cavitation_energy": 27.78, 
			 "cosmo_dispersion_energy": -19.86, 
			 "cosmo_repulsion_energy": 1.61, 
			 "cosmo_total_nonelectrostatic_energy": 9.53, 
			 "SMD_solvation_energy": 5.18 
		},
		"coords": [
			{
				"x": -2.3277463143,
				"y": 2.3453056053,
				"z": 2.2489801553,
				"element": "Br" 
			},
			{
				"x": -2.2877920327,
				"y": 1.4565270817,
				"z": 0.4441478927,
				"element": "C" 
			},
			{
				"x": -0.9284506461,
				"y": 0.9660693762,
				"z": 0.0762952299,
				"element": "C" 
			},
			{
				"x": -0.5420260832,
				"y": -0.3493086124,
				"z": 0.3497177297,
				"element": "C" 
			},
			{
				"x": 0.7216184888,
				"y": -0.8271192169,
				"z": -0.0035514013,
				"element": "C" 
			},
			{
				"x": 1.6193814451,
				"y": 0.0307129845,
				"z": -0.6442860848,
				"element": "C" 
			},
			{
				"x": 2.885900429,
				"y": -0.3197621872,
				"z": -1.0549465937,
				"element": "O" 
			},
			{
				"x": 3.2876382837,
				"y": -1.6711320092,
				"z": -0.960969755,
				"element": "C" 
			},
			{
				"x": 3.6304816948,
				"y": -2.0897225381,
				"z": 0.4131387914,
				"element": "C" 
			},
			{
				"x": 3.9071472212,
				"y": -2.4302415941,
				"z": 1.4870046602,
				"element": "N" 
			},
			{
				"x": 1.254738308,
				"y": 1.3552586608,
				"z": -0.9191428189,
				"element": "C" 
			},
			{
				"x": -0.0049214294,
				"y": 1.8123411069,
				"z": -0.5597847573,
				"element": "C" 
			},
			{
				"x": -3.0172412177,
				"y": 0.6534008046,
				"z": 0.5291864631,
				"element": "H" 
			},
			{
				"x": -2.6574554071,
				"y": 2.2252807114,
				"z": -0.2319648345,
				"element": "H" 
			},
			{
				"x": -1.2336176371,
				"y": -1.0177235202,
				"z": 0.8553541081,
				"element": "H" 
			},
			{
				"x": 0.9886456594,
				"y": -1.8474014105,
				"z": 0.2449882716,
				"element": "H" 
			},
			{
				"x": 4.1824958059,
				"y": -1.7598949266,
				"z": -1.5830695016,
				"element": "H" 
			},
			{
				"x": 2.5238270617,
				"y": -2.3511218712,
				"z": -1.3609781774,
				"element": "H" 
			},
			{
				"x": 1.970869896,
				"y": 2.0007252473,
				"z": -1.4163127839,
				"element": "H" 
			},
			{
				"x": -0.2792935258,
				"y": 2.8419063076,
				"z": -0.7730065936,
				"element": "H" 
			}
		],
		 "valence_orbital": [ 
			{
				"type": "occ",
				"energy": -0.33577,
				"method": "rhf"
			},
			{
				"type": "occ",
				"energy": -0.27331,
				"method": "rhf"
			},
			{
				"type": "occ",
				"energy": -0.27139,
				"method": "rhf"
			},
			{
				"type": "occ",
				"energy": -0.26578,
				"method": "rhf"
			},
			{
				"type": "occ",
				"energy": -0.23856,
				"method": "rhf"
			},
			{
				"type": "unocc",
				"energy": -0.03817,
				"method": "rhf"
			},
			{
				"type": "unocc",
				"energy": -0.02104,
				"method": "rhf"
			},
			{
				"type": "unocc",
				"energy": -0.00298,
				"method": "rhf"
			},
			{
				"type": "unocc",
				"energy": 0.02153,
				"method": "rhf"
			},
			{
				"type": "unocc",
				"energy": 0.02891,
				"method": "rhf"
			}
		],
		"cosmo_sigma_profile": { 
			"-0.025": 0.0,
			"-0.024": 0.0,
			"-0.023": 0.0,
			"-0.022": 0.0,
			"-0.021": 0.0,
			"-0.02": 0.0,
			"-0.019": 0.0,
			"-0.018": 0.0,
			"-0.017": 0.0,
			"-0.016": 0.0,
			"-0.015": 0.0,
			"-0.014": 0.0,
			"-0.013": 0.0,
			"-0.012": 0.0406075609679,
			"-0.011": 2.37617165151,
			"-0.01": 6.05093800971,
			"-0.009": 5.4589471558,
			"-0.008": 7.56800849719,
			"-0.007": 13.7957380308,
			"-0.006": 13.955422538,
			"-0.005": 11.7427604656,
			"-0.004": 11.6290459628,
			"-0.003": 9.07434509823,
			"-0.002": 7.98015856207,
			"-0.001": 10.6792197223,
			"0.0": 12.8813023307,
			"0.001": 10.7599026785,
			"0.002": 15.7354696982,
			"0.003": 15.9005115417,
			"0.004": 18.1464974424,
			"0.005": 11.7109409349,
			"0.006": 14.8430069594,
			"0.007": 11.2242940765,
			"0.008": 4.41701033341,
			"0.009": 3.11234547028,
			"0.01": 2.67513885087,
			"0.011": 2.46424578681,
			"0.012": 1.91342304653,
			"0.013": 0.233177423989,
			"0.014": 0.0,
			"0.015": 0.0,
			"0.016": 0.0,
			"0.017": 0.0,
			"0.018": 0.0,
			"0.019": 0.0,
			"0.02": 0.0,
			"0.021": 0.0,
			"0.022": 0.0,
			"0.023": 0.0,
			"0.024": 0.0,
			"0.025": 0.0
		}
	}
}
