{
	 "smiles": "CCCCCCCCNC(C)C(O)C1=CC=C(SC(C)C)C=C1", 
	 "Tm": 335.65, 
	 "num_atms": 58, 
	 "gaussian": { 
		 "optdone": 1, 
		 "sigma_profile": "yes", 
		 "theory": "DFT", 
		 "functional": "B3LYP", 
		 "basiset": "6-31G**", 
		 "properties": { 
			 "R2extent": 11291.5234, 
			 "electric_dipole_moment_norm": 2.36695989193, 
			 "electric_quadrupole_moment_norm": 19.0334874043, 
			 "total_energy": -1311.41021298, 
			 "HOMO_LUMO_gap": 0.20065, 
			 "cosmo_polarized_energy": -10.81, 
			 "cosmo_cavitation_energy": 57.33, 
			 "cosmo_dispersion_energy": -36.21, 
			 "cosmo_repulsion_energy": 2.8, 
			 "cosmo_total_nonelectrostatic_energy": 23.92, 
			 "SMD_solvation_energy": 7.78 
		},
		"coords": [
			{
				"x": 2.7896303361,
				"y": -2.8623943279,
				"z": -2.0655500521,
				"element": "C" 
			},
			{
				"x": 1.6447468708,
				"y": -3.595906066,
				"z": -1.3595097828,
				"element": "C" 
			},
			{
				"x": 0.7982320385,
				"y": -2.6795482413,
				"z": -0.4663007962,
				"element": "C" 
			},
			{
				"x": -0.3614690562,
				"y": -3.4130332773,
				"z": 0.226338523,
				"element": "C" 
			},
			{
				"x": -1.3006140254,
				"y": -2.5293647968,
				"z": 1.0779430792,
				"element": "C" 
			},
			{
				"x": -0.9379220318,
				"y": -2.3820261061,
				"z": 2.5680070111,
				"element": "C" 
			},
			{
				"x": 0.3793967637,
				"y": -1.662093773,
				"z": 2.9013351011,
				"element": "C" 
			},
			{
				"x": 0.4524615216,
				"y": -0.1769415451,
				"z": 2.5204519647,
				"element": "C" 
			},
			{
				"x": -0.5434133824,
				"y": 0.6056395939,
				"z": 3.2697247748,
				"element": "N" 
			},
			{
				"x": -0.5422252826,
				"y": 2.0779040806,
				"z": 3.1263563529,
				"element": "C" 
			},
			{
				"x": 0.8355740768,
				"y": 2.7437784797,
				"z": 3.0520450762,
				"element": "C" 
			},
			{
				"x": -1.5521268212,
				"y": 2.4852932986,
				"z": 1.999322554,
				"element": "C" 
			},
			{
				"x": -2.7507088539,
				"y": 1.7773189118,
				"z": 2.2464508699,
				"element": "O" 
			},
			{
				"x": -1.0752984591,
				"y": 2.3126682434,
				"z": 0.5568989319,
				"element": "C" 
			},
			{
				"x": -0.141338188,
				"y": 3.1925052829,
				"z": -0.0121192396,
				"element": "C" 
			},
			{
				"x": 0.290485296,
				"y": 3.033007028,
				"z": -1.3275870547,
				"element": "C" 
			},
			{
				"x": -0.2290746469,
				"y": 2.0037627419,
				"z": -2.126080729,
				"element": "C" 
			},
			{
				"x": 0.348555424,
				"y": 1.7620594455,
				"z": -3.806778767,
				"element": "S" 
			},
			{
				"x": -0.4893125777,
				"y": 3.1636804545,
				"z": -4.7065607527,
				"element": "C" 
			},
			{
				"x": 0.1172970034,
				"y": 3.2204816724,
				"z": -6.1109336728,
				"element": "C" 
			},
			{
				"x": -2.0088758012,
				"y": 3.0060636039,
				"z": -4.7341026241,
				"element": "C" 
			},
			{
				"x": -1.1873736044,
				"y": 1.1433648707,
				"z": -1.5751234867,
				"element": "C" 
			},
			{
				"x": -1.6042645389,
				"y": 1.3006347512,
				"z": -0.251879223,
				"element": "C" 
			},
			{
				"x": 2.4098146476,
				"y": -2.0573127057,
				"z": -2.7046049054,
				"element": "H" 
			},
			{
				"x": 3.3721673105,
				"y": -3.5417061558,
				"z": -2.6967160675,
				"element": "H" 
			},
			{
				"x": 3.4773739019,
				"y": -2.410496413,
				"z": -1.3413497482,
				"element": "H" 
			},
			{
				"x": 2.0528085303,
				"y": -4.4167173041,
				"z": -0.7533880363,
				"element": "H" 
			},
			{
				"x": 0.9950545969,
				"y": -4.0683579759,
				"z": -2.1090929623,
				"element": "H" 
			},
			{
				"x": 1.4524185713,
				"y": -2.2048044153,
				"z": 0.276145404,
				"element": "H" 
			},
			{
				"x": 0.3908802483,
				"y": -1.8593430188,
				"z": -1.0740911907,
				"element": "H" 
			},
			{
				"x": -0.9576579875,
				"y": -3.9021361032,
				"z": -0.5556849555,
				"element": "H" 
			},
			{
				"x": 0.0364124292,
				"y": -4.2295703965,
				"z": 0.846612804,
				"element": "H" 
			},
			{
				"x": -1.3881659242,
				"y": -1.5397918524,
				"z": 0.61185305,
				"element": "H" 
			},
			{
				"x": -2.3092055694,
				"y": -2.9599931397,
				"z": 1.0413387669,
				"element": "H" 
			},
			{
				"x": -1.757820674,
				"y": -1.8570295195,
				"z": 3.0728425691,
				"element": "H" 
			},
			{
				"x": -0.8992978928,
				"y": -3.3852727648,
				"z": 3.0139411463,
				"element": "H" 
			},
			{
				"x": 1.2221620391,
				"y": -2.1774651434,
				"z": 2.4270743937,
				"element": "H" 
			},
			{
				"x": 0.5584577071,
				"y": -1.74691723,
				"z": 3.9839734028,
				"element": "H" 
			},
			{
				"x": 0.2662744082,
				"y": -0.0441312022,
				"z": 1.450899266,
				"element": "H" 
			},
			{
				"x": 1.4806483844,
				"y": 0.1724951655,
				"z": 2.7062362085,
				"element": "H" 
			},
			{
				"x": -0.4552448384,
				"y": 0.3753976095,
				"z": 4.25572748,
				"element": "H" 
			},
			{
				"x": -1.0339142028,
				"y": 2.4405381356,
				"z": 4.037398053,
				"element": "H" 
			},
			{
				"x": 0.7308296115,
				"y": 3.834192682,
				"z": 3.0528205474,
				"element": "H" 
			},
			{
				"x": 1.4369765295,
				"y": 2.4709177746,
				"z": 3.9260773758,
				"element": "H" 
			},
			{
				"x": 1.3924653756,
				"y": 2.4626404379,
				"z": 2.1554117723,
				"element": "H" 
			},
			{
				"x": -1.764307471,
				"y": 3.5539168281,
				"z": 2.1458921156,
				"element": "H" 
			},
			{
				"x": -2.4357678604,
				"y": 0.933405989,
				"z": 2.6288098532,
				"element": "H" 
			},
			{
				"x": 0.2540895502,
				"y": 4.0168450337,
				"z": 0.5751579445,
				"element": "H" 
			},
			{
				"x": 1.0324901563,
				"y": 3.7094615363,
				"z": -1.7415353686,
				"element": "H" 
			},
			{
				"x": -0.2242876478,
				"y": 4.0764731246,
				"z": -4.161823591,
				"element": "H" 
			},
			{
				"x": 1.1997829586,
				"y": 3.3727897713,
				"z": -6.076726466,
				"element": "H" 
			},
			{
				"x": -0.3281800422,
				"y": 4.0470069006,
				"z": -6.6753800535,
				"element": "H" 
			},
			{
				"x": -0.0811543669,
				"y": 2.294905273,
				"z": -6.662348472,
				"element": "H" 
			},
			{
				"x": -2.2960090014,
				"y": 2.1030246089,
				"z": -5.2826005172,
				"element": "H" 
			},
			{
				"x": -2.4677850501,
				"y": 3.8700801587,
				"z": -5.2306887604,
				"element": "H" 
			},
			{
				"x": -2.4229524011,
				"y": 2.9388821668,
				"z": -3.7245146641,
				"element": "H" 
			},
			{
				"x": -1.6136916143,
				"y": 0.3576189357,
				"z": -2.1911634837,
				"element": "H" 
			},
			{
				"x": -2.3748264734,
				"y": 0.6578988827,
				"z": 0.1585490312,
				"element": "H" 
			}
		],
		 "valence_orbital": [ 
			{
				"type": "occ",
				"energy": -0.26345,
				"method": "rhf"
			},
			{
				"type": "occ",
				"energy": -0.25007,
				"method": "rhf"
			},
			{
				"type": "occ",
				"energy": -0.24367,
				"method": "rhf"
			},
			{
				"type": "occ",
				"energy": -0.23499,
				"method": "rhf"
			},
			{
				"type": "occ",
				"energy": -0.21569,
				"method": "rhf"
			},
			{
				"type": "unocc",
				"energy": -0.01504,
				"method": "rhf"
			},
			{
				"type": "unocc",
				"energy": -0.00433,
				"method": "rhf"
			},
			{
				"type": "unocc",
				"energy": 0.05176,
				"method": "rhf"
			},
			{
				"type": "unocc",
				"energy": 0.06196,
				"method": "rhf"
			},
			{
				"type": "unocc",
				"energy": 0.07723,
				"method": "rhf"
			}
		],
		"cosmo_sigma_profile": { 
			"-0.025": 0.0,
			"-0.024": 0.0,
			"-0.023": 0.0,
			"-0.022": 0.0,
			"-0.021": 0.0,
			"-0.02": 0.0,
			"-0.019": 0.0,
			"-0.018": 0.0,
			"-0.017": 0.0,
			"-0.016": 0.0,
			"-0.015": 0.0,
			"-0.014": 0.0,
			"-0.013": 0.0,
			"-0.012": 0.0,
			"-0.011": 0.0647621988823,
			"-0.01": 1.08638742358,
			"-0.009": 1.10506660663,
			"-0.008": 1.3261918863,
			"-0.007": 1.57555293007,
			"-0.006": 4.6901733285,
			"-0.005": 11.7134070869,
			"-0.004": 23.9482910992,
			"-0.003": 36.1797945422,
			"-0.002": 52.1586835012,
			"-0.001": 72.689518679,
			"0.0": 80.768283136,
			"0.001": 65.567020946,
			"0.002": 30.8005339661,
			"0.003": 12.7400047238,
			"0.004": 11.9303775135,
			"0.005": 10.1033542638,
			"0.006": 5.32956521156,
			"0.007": 3.15121019217,
			"0.008": 4.66539907693,
			"0.009": 2.87504478846,
			"0.01": 2.77586537022,
			"0.011": 1.7787876531,
			"0.012": 1.03324891482,
			"0.013": 1.30137777352,
			"0.014": 1.6701170929,
			"0.015": 1.78889904428,
			"0.016": 0.0335041293701,
			"0.017": 0.0,
			"0.018": 0.0,
			"0.019": 0.0,
			"0.02": 0.0,
			"0.021": 0.0,
			"0.022": 0.0,
			"0.023": 0.0,
			"0.024": 0.0,
			"0.025": 0.0
		}
	}
}
