{
	 "smiles": "OC(=O)C(O)(C1=CC=CC=C1Cl)C1=CC=CC=C1Cl", 
	 "Tm": 435.15, 
	 "num_atms": 29, 
	 "gaussian": { 
		 "optdone": 1, 
		 "sigma_profile": "yes", 
		 "theory": "DFT", 
		 "functional": "B3LYP", 
		 "basiset": "6-31G**", 
		 "properties": { 
			 "R2extent": 5394.2497, 
			 "electric_dipole_moment_norm": 4.16819329446, 
			 "electric_quadrupole_moment_norm": 12.0024625236, 
			 "total_energy": -1685.56294884, 
			 "HOMO_LUMO_gap": 0.21612, 
			 "cosmo_polarized_energy": -15.42, 
			 "cosmo_cavitation_energy": 35.66, 
			 "cosmo_dispersion_energy": -25.07, 
			 "cosmo_repulsion_energy": 1.92, 
			 "cosmo_total_nonelectrostatic_energy": 12.5, 
			 "SMD_solvation_energy": 6.59 
		},
		"coords": [
			{
				"x": 2.3104872887,
				"y": 1.243638123,
				"z": 1.4412886825,
				"element": "O" 
			},
			{
				"x": 2.0620215608,
				"y": 1.7095733602,
				"z": 0.2071891863,
				"element": "C" 
			},
			{
				"x": 2.6789167286,
				"y": 2.6215300269,
				"z": -0.2997232389,
				"element": "O" 
			},
			{
				"x": 0.891931912,
				"y": 0.9994733908,
				"z": -0.5291154517,
				"element": "C" 
			},
			{
				"x": 1.1089548255,
				"y": 1.2300490984,
				"z": -1.9061775534,
				"element": "O" 
			},
			{
				"x": 0.9268774742,
				"y": -0.5138996311,
				"z": -0.2522052701,
				"element": "C" 
			},
			{
				"x": -0.1256006771,
				"y": -1.1523632708,
				"z": 0.4161433407,
				"element": "C" 
			},
			{
				"x": -0.1218831767,
				"y": -2.5239452737,
				"z": 0.6632178273,
				"element": "C" 
			},
			{
				"x": 0.954404207,
				"y": -3.3010752453,
				"z": 0.2425888879,
				"element": "C" 
			},
			{
				"x": 2.0276550703,
				"y": -2.6939469085,
				"z": -0.4062737284,
				"element": "C" 
			},
			{
				"x": 2.012883983,
				"y": -1.3193102589,
				"z": -0.6408075693,
				"element": "C" 
			},
			{
				"x": 3.4517111571,
				"y": -0.6394711494,
				"z": -1.396411106,
				"element": "Cl" 
			},
			{
				"x": -0.440223818,
				"y": 1.6715648983,
				"z": -0.1042179299,
				"element": "C" 
			},
			{
				"x": -0.5170774517,
				"y": 2.4908045108,
				"z": 1.0328781735,
				"element": "C" 
			},
			{
				"x": -1.683743623,
				"y": 3.1661303485,
				"z": 1.3884518131,
				"element": "C" 
			},
			{
				"x": -2.8252608583,
				"y": 3.0329767872,
				"z": 0.6030238119,
				"element": "C" 
			},
			{
				"x": -2.7905369734,
				"y": 2.2114324517,
				"z": -0.5212431939,
				"element": "C" 
			},
			{
				"x": -1.6177337814,
				"y": 1.5374998576,
				"z": -0.8691213034,
				"element": "C" 
			},
			{
				"x": -1.7216171863,
				"y": 0.4871813537,
				"z": -2.272593494,
				"element": "Cl" 
			},
			{
				"x": 3.0629292915,
				"y": 1.755422997,
				"z": 1.7860946943,
				"element": "H" 
			},
			{
				"x": 1.6813106896,
				"y": 2.0151152657,
				"z": -1.957258242,
				"element": "H" 
			},
			{
				"x": -0.9700731419,
				"y": -0.5596201185,
				"z": 0.7464211644,
				"element": "H" 
			},
			{
				"x": -0.962028226,
				"y": -2.9789572488,
				"z": 1.1784999496,
				"element": "H" 
			},
			{
				"x": 0.9694901653,
				"y": -4.3719585519,
				"z": 0.4214024031,
				"element": "H" 
			},
			{
				"x": 2.8844199901,
				"y": -3.275282639,
				"z": -0.7283944956,
				"element": "H" 
			},
			{
				"x": 0.352979201,
				"y": 2.5989140362,
				"z": 1.6694332269,
				"element": "H" 
			},
			{
				"x": -1.692568325,
				"y": 3.7930510686,
				"z": 2.2746089391,
				"element": "H" 
			},
			{
				"x": -3.7414406933,
				"y": 3.5553851088,
				"z": 0.8609833919,
				"element": "H" 
			},
			{
				"x": -3.6716856128,
				"y": 2.0807876125,
				"z": -1.1395829159,
				"element": "H" 
			}
		],
		 "valence_orbital": [ 
			{
				"type": "occ",
				"energy": -0.27687,
				"method": "rhf"
			},
			{
				"type": "occ",
				"energy": -0.26604,
				"method": "rhf"
			},
			{
				"type": "occ",
				"energy": -0.25402,
				"method": "rhf"
			},
			{
				"type": "occ",
				"energy": -0.24675,
				"method": "rhf"
			},
			{
				"type": "occ",
				"energy": -0.24374,
				"method": "rhf"
			},
			{
				"type": "unocc",
				"energy": -0.02762,
				"method": "rhf"
			},
			{
				"type": "unocc",
				"energy": -0.02076,
				"method": "rhf"
			},
			{
				"type": "unocc",
				"energy": -0.0161,
				"method": "rhf"
			},
			{
				"type": "unocc",
				"energy": -0.01514,
				"method": "rhf"
			},
			{
				"type": "unocc",
				"energy": -0.00401,
				"method": "rhf"
			}
		],
		"cosmo_sigma_profile": { 
			"-0.025": 0.0,
			"-0.024": 0.0,
			"-0.023": 0.0,
			"-0.022": 0.0,
			"-0.021": 0.0,
			"-0.02": 0.180516954089,
			"-0.019": 1.03587509677,
			"-0.018": 1.05523805958,
			"-0.017": 0.895486419853,
			"-0.016": 0.705169572597,
			"-0.015": 0.953397511815,
			"-0.014": 0.700131106578,
			"-0.013": 0.610879154547,
			"-0.012": 1.14907231122,
			"-0.011": 1.33045294348,
			"-0.01": 1.05341643676,
			"-0.009": 1.13213274164,
			"-0.008": 2.31753414514,
			"-0.007": 10.0068870505,
			"-0.006": 18.1839927968,
			"-0.005": 18.6229850949,
			"-0.004": 15.0870322007,
			"-0.003": 12.8257321768,
			"-0.002": 15.5465478636,
			"-0.001": 16.6527825786,
			"0.0": 18.4943790469,
			"0.001": 22.6413252138,
			"0.002": 26.9745391749,
			"0.003": 31.5198155361,
			"0.004": 27.6837686868,
			"0.005": 12.5665332975,
			"0.006": 6.37214513676,
			"0.007": 5.65375133046,
			"0.008": 3.66144319729,
			"0.009": 4.77053123939,
			"0.01": 4.97474495437,
			"0.011": 2.02245666651,
			"0.012": 1.45266333028,
			"0.013": 0.576168537032,
			"0.014": 0.0,
			"0.015": 0.0,
			"0.016": 0.0,
			"0.017": 0.0,
			"0.018": 0.0,
			"0.019": 0.0,
			"0.02": 0.0,
			"0.021": 0.0,
			"0.022": 0.0,
			"0.023": 0.0,
			"0.024": 0.0,
			"0.025": 0.0
		}
	}
}
