{
	 "smiles": "NC(=O)C1=NC=CC(OC2CCNCC2)=C1", 
	 "Tm": 403.15, 
	 "num_atms": 31, 
	 "gaussian": { 
		 "optdone": 1, 
		 "sigma_profile": "yes", 
		 "theory": "DFT", 
		 "functional": "B3LYP", 
		 "basiset": "6-31G**", 
		 "properties": { 
			 "R2extent": 4932.9457, 
			 "electric_dipole_moment_norm": 6.53057291361, 
			 "electric_quadrupole_moment_norm": 22.0837373141, 
			 "total_energy": -742.897961051, 
			 "HOMO_LUMO_gap": 0.19404, 
			 "cosmo_polarized_energy": -22.12, 
			 "cosmo_cavitation_energy": 33.2, 
			 "cosmo_dispersion_energy": -23.97, 
			 "cosmo_repulsion_energy": 1.91, 
			 "cosmo_total_nonelectrostatic_energy": 11.13, 
			 "SMD_solvation_energy": 2.93 
		},
		"coords": [
			{
				"x": 1.7738410729,
				"y": 2.3276459256,
				"z": 0.9754027967,
				"element": "N" 
			},
			{
				"x": 1.4704599367,
				"y": 2.0819608758,
				"z": 2.3005757072,
				"element": "C" 
			},
			{
				"x": 1.6775153661,
				"y": 2.8964700522,
				"z": 3.1816074475,
				"element": "O" 
			},
			{
				"x": 0.8037948423,
				"y": 0.7439609822,
				"z": 2.5571922583,
				"element": "C" 
			},
			{
				"x": 1.1456586891,
				"y": 0.1380602214,
				"z": 3.6989770053,
				"element": "N" 
			},
			{
				"x": 0.5481339273,
				"y": -1.0341464532,
				"z": 3.95160933,
				"element": "C" 
			},
			{
				"x": -0.3946776938,
				"y": -1.6293577046,
				"z": 3.1230322057,
				"element": "C" 
			},
			{
				"x": -0.7597236229,
				"y": -0.9824550567,
				"z": 1.9315904864,
				"element": "C" 
			},
			{
				"x": -1.6897409655,
				"y": -1.6271033254,
				"z": 1.1895178177,
				"element": "O" 
			},
			{
				"x": -2.279992326,
				"y": -1.1165558506,
				"z": -0.0265281705,
				"element": "C" 
			},
			{
				"x": -1.2996084822,
				"y": -1.0103597744,
				"z": -1.2013679283,
				"element": "C" 
			},
			{
				"x": -2.0862951247,
				"y": -0.7687528489,
				"z": -2.5133121668,
				"element": "C" 
			},
			{
				"x": -3.3646740427,
				"y": -0.1010428377,
				"z": -2.2302178208,
				"element": "N" 
			},
			{
				"x": -3.2615942361,
				"y": 0.9063497421,
				"z": -1.1745221871,
				"element": "C" 
			},
			{
				"x": -3.0903443156,
				"y": 0.1824605025,
				"z": 0.1777178792,
				"element": "C" 
			},
			{
				"x": -0.1298261943,
				"y": 0.237264863,
				"z": 1.6414317573,
				"element": "C" 
			},
			{
				"x": 1.937039682,
				"y": 1.5491210654,
				"z": 0.3541600713,
				"element": "H" 
			},
			{
				"x": 2.3282672909,
				"y": 3.1571702858,
				"z": 0.8125885527,
				"element": "H" 
			},
			{
				"x": 0.8386462183,
				"y": -1.5274847904,
				"z": 4.8775655442,
				"element": "H" 
			},
			{
				"x": -0.8594290897,
				"y": -2.5752523316,
				"z": 3.3785216767,
				"element": "H" 
			},
			{
				"x": -2.9851132997,
				"y": -1.9137054447,
				"z": -0.2733109868,
				"element": "H" 
			},
			{
				"x": -0.5909748083,
				"y": -0.1936270556,
				"z": -1.0419777083,
				"element": "H" 
			},
			{
				"x": -0.7111890136,
				"y": -1.9298282838,
				"z": -1.2748040898,
				"element": "H" 
			},
			{
				"x": -2.3043354047,
				"y": -1.7264305496,
				"z": -3.0015932585,
				"element": "H" 
			},
			{
				"x": -1.4431015158,
				"y": -0.1956444866,
				"z": -3.2037651789,
				"element": "H" 
			},
			{
				"x": -3.7475801289,
				"y": 0.2986670547,
				"z": -3.0803586733,
				"element": "H" 
			},
			{
				"x": -4.1781729799,
				"y": 1.5035566059,
				"z": -1.1660858466,
				"element": "H" 
			},
			{
				"x": -2.4263402425,
				"y": 1.6151056952,
				"z": -1.3331069044,
				"element": "H" 
			},
			{
				"x": -2.6018826471,
				"y": 0.8445542166,
				"z": 0.897538016,
				"element": "H" 
			},
			{
				"x": -4.0671662136,
				"y": -0.0793825056,
				"z": 0.5949199666,
				"element": "H" 
			},
			{
				"x": -0.3640946783,
				"y": 0.8115812108,
				"z": 0.7569024012,
				"element": "H" 
			}
		],
		 "valence_orbital": [ 
			{
				"type": "occ",
				"energy": -0.26607,
				"method": "rhf"
			},
			{
				"type": "occ",
				"energy": -0.25728,
				"method": "rhf"
			},
			{
				"type": "occ",
				"energy": -0.24757,
				"method": "rhf"
			},
			{
				"type": "occ",
				"energy": -0.23893,
				"method": "rhf"
			},
			{
				"type": "occ",
				"energy": -0.22799,
				"method": "rhf"
			},
			{
				"type": "unocc",
				"energy": -0.03395,
				"method": "rhf"
			},
			{
				"type": "unocc",
				"energy": -0.01192,
				"method": "rhf"
			},
			{
				"type": "unocc",
				"energy": 0.04956,
				"method": "rhf"
			},
			{
				"type": "unocc",
				"energy": 0.05373,
				"method": "rhf"
			},
			{
				"type": "unocc",
				"energy": 0.07777,
				"method": "rhf"
			}
		],
		"cosmo_sigma_profile": { 
			"-0.025": 0.0,
			"-0.024": 0.0,
			"-0.023": 0.0,
			"-0.022": 0.0,
			"-0.021": 0.0,
			"-0.02": 0.0,
			"-0.019": 0.0,
			"-0.018": 0.0,
			"-0.017": 0.0,
			"-0.016": 0.0,
			"-0.015": 0.023594968555,
			"-0.014": 1.18830157366,
			"-0.013": 2.80620289982,
			"-0.012": 2.20996401026,
			"-0.011": 1.90680022888,
			"-0.01": 3.83243164122,
			"-0.009": 3.40880887306,
			"-0.008": 4.67285754397,
			"-0.007": 8.29213935656,
			"-0.006": 8.63279965092,
			"-0.005": 11.5410057921,
			"-0.004": 17.1580824327,
			"-0.003": 24.8966198388,
			"-0.002": 31.6380820208,
			"-0.001": 25.9868256459,
			"0.0": 18.9157977481,
			"0.001": 16.9344999766,
			"0.002": 13.0294401956,
			"0.003": 7.03943204185,
			"0.004": 6.71867415296,
			"0.005": 6.51239262642,
			"0.006": 3.21865814718,
			"0.007": 4.42748909922,
			"0.008": 4.89590039773,
			"0.009": 3.89177732338,
			"0.01": 2.28147782791,
			"0.011": 2.62867599315,
			"0.012": 4.19561269457,
			"0.013": 7.10965753763,
			"0.014": 4.51626161873,
			"0.015": 2.00891836556,
			"0.016": 2.03138169451,
			"0.017": 1.87870929325,
			"0.018": 0.339210068293,
			"0.019": 0.0,
			"0.02": 0.0,
			"0.021": 0.0,
			"0.022": 0.0,
			"0.023": 0.0,
			"0.024": 0.0,
			"0.025": 0.0
		}
	}
}
