{
	 "smiles": "COC(=O)C1=CC(=CC(N)=C1)C(=O)OC", 
	 "Tm": 453.15, 
	 "num_atms": 26, 
	 "gaussian": { 
		 "optdone": 1, 
		 "sigma_profile": "yes", 
		 "theory": "DFT", 
		 "functional": "B3LYP", 
		 "basiset": "6-31G**", 
		 "properties": { 
			 "R2extent": 4180.7748, 
			 "electric_dipole_moment_norm": 2.84635351283, 
			 "electric_quadrupole_moment_norm": 14.7810462377, 
			 "total_energy": -743.367154131, 
			 "HOMO_LUMO_gap": 0.16307, 
			 "cosmo_polarized_energy": -15.47, 
			 "cosmo_cavitation_energy": 31.37, 
			 "cosmo_dispersion_energy": -22.75, 
			 "cosmo_repulsion_energy": 1.8, 
			 "cosmo_total_nonelectrostatic_energy": 10.42, 
			 "SMD_solvation_energy": 8.55 
		},
		"coords": [
			{
				"x": -4.3779236659,
				"y": -2.2272935453,
				"z": -0.2608833489,
				"element": "C" 
			},
			{
				"x": -3.1215970385,
				"y": -1.5825425045,
				"z": -0.0033445092,
				"element": "O" 
			},
			{
				"x": -2.4062465147,
				"y": -1.2546530586,
				"z": -1.1009684155,
				"element": "C" 
			},
			{
				"x": -2.7849800391,
				"y": -1.4836031769,
				"z": -2.234109766,
				"element": "O" 
			},
			{
				"x": -1.1140988928,
				"y": -0.5881404658,
				"z": -0.7621574754,
				"element": "C" 
			},
			{
				"x": -0.7147335064,
				"y": -0.3602169305,
				"z": 0.5575407908,
				"element": "C" 
			},
			{
				"x": 0.5140288344,
				"y": 0.2654313006,
				"z": 0.7931596717,
				"element": "C" 
			},
			{
				"x": 1.3309956206,
				"y": 0.6585971769,
				"z": -0.271790667,
				"element": "C" 
			},
			{
				"x": 0.932226523,
				"y": 0.4316521406,
				"z": -1.5995307989,
				"element": "C" 
			},
			{
				"x": 1.7168595176,
				"y": 0.8732587847,
				"z": -2.6630394991,
				"element": "N" 
			},
			{
				"x": -0.3002258827,
				"y": -0.1971082091,
				"z": -1.8297118851,
				"element": "C" 
			},
			{
				"x": 0.9126746725,
				"y": 0.4910250044,
				"z": 2.213400604,
				"element": "C" 
			},
			{
				"x": 0.2431501561,
				"y": 0.1714624118,
				"z": 3.1759712363,
				"element": "O" 
			},
			{
				"x": 2.1179724434,
				"y": 1.0985039504,
				"z": 2.3247500369,
				"element": "O" 
			},
			{
				"x": 2.5535124603,
				"y": 1.3451767224,
				"z": 3.670162689,
				"element": "C" 
			},
			{
				"x": -4.2260105925,
				"y": -3.1641826309,
				"z": -0.8029307733,
				"element": "H" 
			},
			{
				"x": -5.0283110571,
				"y": -1.5798489407,
				"z": -0.8545189833,
				"element": "H" 
			},
			{
				"x": -4.8164194276,
				"y": -2.4174599266,
				"z": 0.7185447558,
				"element": "H" 
			},
			{
				"x": -1.3325327806,
				"y": -0.6582942437,
				"z": 1.3940606156,
				"element": "H" 
			},
			{
				"x": 2.2780050054,
				"y": 1.1458361133,
				"z": -0.0654537135,
				"element": "H" 
			},
			{
				"x": 2.7006102312,
				"y": 0.9853340756,
				"z": -2.4622007099,
				"element": "H" 
			},
			{
				"x": 1.5557124624,
				"y": 0.4069933324,
				"z": -3.5447416421,
				"element": "H" 
			},
			{
				"x": -0.6469259077,
				"y": -0.3901992778,
				"z": -2.8403988353,
				"element": "H" 
			},
			{
				"x": 1.8443875861,
				"y": 1.9926809317,
				"z": 4.1920282539,
				"element": "H" 
			},
			{
				"x": 3.5240463545,
				"y": 1.8333189241,
				"z": 3.5808567278,
				"element": "H" 
			},
			{
				"x": 2.6445234382,
				"y": 0.4072720415,
				"z": 4.2239056408,
				"element": "H" 
			}
		],
		 "valence_orbital": [ 
			{
				"type": "occ",
				"energy": -0.29927,
				"method": "rhf"
			},
			{
				"type": "occ",
				"energy": -0.27494,
				"method": "rhf"
			},
			{
				"type": "occ",
				"energy": -0.26983,
				"method": "rhf"
			},
			{
				"type": "occ",
				"energy": -0.2607,
				"method": "rhf"
			},
			{
				"type": "occ",
				"energy": -0.21498,
				"method": "rhf"
			},
			{
				"type": "unocc",
				"energy": -0.05191,
				"method": "rhf"
			},
			{
				"type": "unocc",
				"energy": -0.02744,
				"method": "rhf"
			},
			{
				"type": "unocc",
				"energy": 0.04455,
				"method": "rhf"
			},
			{
				"type": "unocc",
				"energy": 0.07721,
				"method": "rhf"
			},
			{
				"type": "unocc",
				"energy": 0.08497,
				"method": "rhf"
			}
		],
		"cosmo_sigma_profile": { 
			"-0.025": 0.0,
			"-0.024": 0.0,
			"-0.023": 0.0,
			"-0.022": 0.0,
			"-0.021": 0.0,
			"-0.02": 0.0,
			"-0.019": 0.0,
			"-0.018": 0.0,
			"-0.017": 0.0,
			"-0.016": 0.0,
			"-0.015": 0.0,
			"-0.014": 0.0494754254155,
			"-0.013": 1.74676590764,
			"-0.012": 3.28904316573,
			"-0.011": 3.00147001116,
			"-0.01": 2.99647540904,
			"-0.009": 4.33297269441,
			"-0.008": 2.66748462154,
			"-0.007": 4.21600584575,
			"-0.006": 12.4782800335,
			"-0.005": 15.8543778404,
			"-0.004": 19.4008850367,
			"-0.003": 21.274355011,
			"-0.002": 15.8169988772,
			"-0.001": 14.3223844587,
			"0.0": 14.6840087158,
			"0.001": 17.0163317824,
			"0.002": 20.6634687825,
			"0.003": 19.5805071631,
			"0.004": 8.99133377976,
			"0.005": 9.90541103909,
			"0.006": 5.43978694635,
			"0.007": 3.17764986331,
			"0.008": 3.22158307324,
			"0.009": 4.38213873472,
			"0.01": 4.42367280122,
			"0.011": 6.72852017823,
			"0.012": 8.78327877352,
			"0.013": 0.723081309793,
			"0.014": 0.130089729605,
			"0.015": 0.0,
			"0.016": 0.0,
			"0.017": 0.0,
			"0.018": 0.0,
			"0.019": 0.0,
			"0.02": 0.0,
			"0.021": 0.0,
			"0.022": 0.0,
			"0.023": 0.0,
			"0.024": 0.0,
			"0.025": 0.0
		}
	}
}
