{
	 "smiles": "[O-][N+](=O)C1=CC(=CC=C1)S(Cl)(=O)=O", 
	 "Tm": 334.05, 
	 "num_atms": 17, 
	 "gaussian": { 
		 "optdone": 1, 
		 "sigma_profile": "yes", 
		 "theory": "DFT", 
		 "functional": "B3LYP", 
		 "basiset": "6-31G**", 
		 "properties": { 
			 "R2extent": 3955.6397, 
			 "electric_dipole_moment_norm": 4.55494597553, 
			 "electric_quadrupole_moment_norm": 12.8779953056, 
			 "total_energy": -1444.89865847, 
			 "HOMO_LUMO_gap": 0.19696, 
			 "cosmo_polarized_energy": -12.4, 
			 "cosmo_cavitation_energy": 26.32, 
			 "cosmo_dispersion_energy": -19.64, 
			 "cosmo_repulsion_energy": 1.51, 
			 "cosmo_total_nonelectrostatic_energy": 8.19, 
			 "SMD_solvation_energy": 5.56 
		},
		"coords": [
			{
				"x": -1.48502932,
				"y": 4.0040303964,
				"z": -1.1843946422,
				"element": "O" 
			},
			{
				"x": -0.6951434802,
				"y": 3.3278671264,
				"z": -1.8371468136,
				"element": "N" 
			},
			{
				"x": -0.1186449388,
				"y": 3.6934049318,
				"z": -2.8584849462,
				"element": "O" 
			},
			{
				"x": -0.4147349266,
				"y": 1.9596266957,
				"z": -1.3555153788,
				"element": "C" 
			},
			{
				"x": -1.0555733623,
				"y": 1.5167822026,
				"z": -0.2031958752,
				"element": "C" 
			},
			{
				"x": -0.7644449587,
				"y": 0.2235724443,
				"z": 0.2209974634,
				"element": "C" 
			},
			{
				"x": 0.130323459,
				"y": -0.6077398008,
				"z": -0.4564554752,
				"element": "C" 
			},
			{
				"x": 0.7531534769,
				"y": -0.1245723088,
				"z": -1.6078958702,
				"element": "C" 
			},
			{
				"x": 0.4823657199,
				"y": 1.164486424,
				"z": -2.0663133995,
				"element": "C" 
			},
			{
				"x": -1.548355816,
				"y": -0.3843625461,
				"z": 1.7149809022,
				"element": "S" 
			},
			{
				"x": -3.2998542034,
				"y": -1.2832970415,
				"z": 0.9141127366,
				"element": "Cl" 
			},
			{
				"x": -1.9912750124,
				"y": 0.7484073563,
				"z": 2.5150463771,
				"element": "O" 
			},
			{
				"x": -0.7412530727,
				"y": -1.4673216293,
				"z": 2.2607033354,
				"element": "O" 
			},
			{
				"x": -1.7402647799,
				"y": 2.1617669923,
				"z": 0.3332184989,
				"element": "H" 
			},
			{
				"x": 0.3364034696,
				"y": -1.6035083622,
				"z": -0.0802090665,
				"element": "H" 
			},
			{
				"x": 1.4540808942,
				"y": -0.75312542,
				"z": -2.1466723585,
				"element": "H" 
			},
			{
				"x": 0.9512468512,
				"y": 1.5652825388,
				"z": -2.9563754877,
				"element": "H" 
			}
		],
		 "valence_orbital": [ 
			{
				"type": "occ",
				"energy": -0.33022,
				"method": "rhf"
			},
			{
				"type": "occ",
				"energy": -0.32774,
				"method": "rhf"
			},
			{
				"type": "occ",
				"energy": -0.31814,
				"method": "rhf"
			},
			{
				"type": "occ",
				"energy": -0.31596,
				"method": "rhf"
			},
			{
				"type": "occ",
				"energy": -0.3144,
				"method": "rhf"
			},
			{
				"type": "unocc",
				"energy": -0.11744,
				"method": "rhf"
			},
			{
				"type": "unocc",
				"energy": -0.1039,
				"method": "rhf"
			},
			{
				"type": "unocc",
				"energy": -0.06567,
				"method": "rhf"
			},
			{
				"type": "unocc",
				"energy": -0.0348,
				"method": "rhf"
			},
			{
				"type": "unocc",
				"energy": 0.03468,
				"method": "rhf"
			}
		],
		"cosmo_sigma_profile": { 
			"-0.025": 0.0,
			"-0.024": 0.0,
			"-0.023": 0.0,
			"-0.022": 0.0,
			"-0.021": 0.0,
			"-0.02": 0.0,
			"-0.019": 0.0,
			"-0.018": 0.0,
			"-0.017": 0.0,
			"-0.016": 0.0,
			"-0.015": 0.0,
			"-0.014": 0.0,
			"-0.013": 0.0,
			"-0.012": 0.0,
			"-0.011": 0.0,
			"-0.01": 0.846277530851,
			"-0.009": 5.85023599524,
			"-0.008": 9.26857350048,
			"-0.007": 9.25094429513,
			"-0.006": 9.57093910289,
			"-0.005": 10.9124106539,
			"-0.004": 11.744025743,
			"-0.003": 17.7001366931,
			"-0.002": 19.2240589263,
			"-0.001": 14.7697794616,
			"0.0": 11.2986838815,
			"0.001": 8.88240565914,
			"0.002": 13.0921578895,
			"0.003": 14.8388551199,
			"0.004": 6.70395787617,
			"0.005": 7.04057756782,
			"0.006": 10.4802777573,
			"0.007": 15.90380517,
			"0.008": 13.0126399754,
			"0.009": 4.46839356873,
			"0.01": 0.307977725937,
			"0.011": 0.0,
			"0.012": 0.0,
			"0.013": 0.0,
			"0.014": 0.0,
			"0.015": 0.0,
			"0.016": 0.0,
			"0.017": 0.0,
			"0.018": 0.0,
			"0.019": 0.0,
			"0.02": 0.0,
			"0.021": 0.0,
			"0.022": 0.0,
			"0.023": 0.0,
			"0.024": 0.0,
			"0.025": 0.0
		}
	}
}
