{
	 "smiles": "CC1=CC=C(C=C1)S(=O)(=O)N1CCC(=O)CC1", 
	 "Tm": 399.15, 
	 "num_atms": 32, 
	 "gaussian": { 
		 "optdone": 1, 
		 "sigma_profile": "yes", 
		 "theory": "DFT", 
		 "functional": "B3LYP", 
		 "basiset": "6-31G**", 
		 "properties": { 
			 "R2extent": 5437.1656, 
			 "electric_dipole_moment_norm": 5.31490692769, 
			 "electric_quadrupole_moment_norm": 17.3376789992, 
			 "total_energy": -1144.85627732, 
			 "HOMO_LUMO_gap": 0.20739, 
			 "cosmo_polarized_energy": -17.0, 
			 "cosmo_cavitation_energy": 35.74, 
			 "cosmo_dispersion_energy": -25.75, 
			 "cosmo_repulsion_energy": 1.96, 
			 "cosmo_total_nonelectrostatic_energy": 11.95, 
			 "SMD_solvation_energy": 4.83 
		},
		"coords": [
			{
				"x": -2.2774907919,
				"y": -2.3413074195,
				"z": 3.9621121919,
				"element": "C" 
			},
			{
				"x": -1.5772995936,
				"y": -1.8923787071,
				"z": 2.7023096577,
				"element": "C" 
			},
			{
				"x": -2.3119811999,
				"y": -1.6408291416,
				"z": 1.5308079914,
				"element": "C" 
			},
			{
				"x": -1.6812002279,
				"y": -1.2458198321,
				"z": 0.3564296637,
				"element": "C" 
			},
			{
				"x": -0.2911507219,
				"y": -1.0946236967,
				"z": 0.3486567406,
				"element": "C" 
			},
			{
				"x": 0.4643715357,
				"y": -1.3439931483,
				"z": 1.492832098,
				"element": "C" 
			},
			{
				"x": -0.1866043778,
				"y": -1.7380807288,
				"z": 2.6634885796,
				"element": "C" 
			},
			{
				"x": 0.5295352575,
				"y": -0.6019501645,
				"z": -1.1663334582,
				"element": "S" 
			},
			{
				"x": -0.1394753003,
				"y": -1.2569891111,
				"z": -2.2961435767,
				"element": "O" 
			},
			{
				"x": 1.9745230149,
				"y": -0.7662091704,
				"z": -0.9516146007,
				"element": "O" 
			},
			{
				"x": 0.1375031216,
				"y": 1.0458217645,
				"z": -1.2670819684,
				"element": "N" 
			},
			{
				"x": -0.2537008163,
				"y": 1.5789794097,
				"z": -2.5923411215,
				"element": "C" 
			},
			{
				"x": 0.7559630689,
				"y": 2.6031105978,
				"z": -3.1244989948,
				"element": "C" 
			},
			{
				"x": 0.9421068433,
				"y": 3.7561909935,
				"z": -2.1452003018,
				"element": "C" 
			},
			{
				"x": 1.2821221713,
				"y": 4.8698486326,
				"z": -2.4877175859,
				"element": "O" 
			},
			{
				"x": 0.6537693891,
				"y": 3.3937545138,
				"z": -0.6905372747,
				"element": "C" 
			},
			{
				"x": 0.9533417881,
				"y": 1.9208048232,
				"z": -0.3958265906,
				"element": "C" 
			},
			{
				"x": -1.6162532396,
				"y": -2.2844956612,
				"z": 4.8306679151,
				"element": "H" 
			},
			{
				"x": -2.6187513888,
				"y": -3.3796275618,
				"z": 3.8721728017,
				"element": "H" 
			},
			{
				"x": -3.161745827,
				"y": -1.7288291566,
				"z": 4.1666976892,
				"element": "H" 
			},
			{
				"x": -3.3922235746,
				"y": -1.7611298798,
				"z": 1.5414223637,
				"element": "H" 
			},
			{
				"x": -2.2522566048,
				"y": -1.0662253189,
				"z": -0.5482080313,
				"element": "H" 
			},
			{
				"x": 1.5432630063,
				"y": -1.2412135423,
				"z": 1.456096364,
				"element": "H" 
			},
			{
				"x": 0.3986482968,
				"y": -1.933150753,
				"z": 3.5580376166,
				"element": "H" 
			},
			{
				"x": -0.3651442627,
				"y": 0.7410106935,
				"z": -3.2804138292,
				"element": "H" 
			},
			{
				"x": -1.2407577306,
				"y": 2.0498198149,
				"z": -2.4973610911,
				"element": "H" 
			},
			{
				"x": 0.4465070929,
				"y": 3.005848943,
				"z": -4.0935404266,
				"element": "H" 
			},
			{
				"x": 1.7334992842,
				"y": 2.1231016938,
				"z": -3.2722150513,
				"element": "H" 
			},
			{
				"x": 1.2388053335,
				"y": 4.0482231577,
				"z": -0.0392291037,
				"element": "H" 
			},
			{
				"x": -0.406330621,
				"y": 3.6073945492,
				"z": -0.4953012362,
				"element": "H" 
			},
			{
				"x": 0.7177198653,
				"y": 1.6920272419,
				"z": 0.6491466064,
				"element": "H" 
			},
			{
				"x": 2.0232872092,
				"y": 1.7232161646,
				"z": -0.5389140368,
				"element": "H" 
			}
		],
		 "valence_orbital": [ 
			{
				"type": "occ",
				"energy": -0.30117,
				"method": "rhf"
			},
			{
				"type": "occ",
				"energy": -0.27248,
				"method": "rhf"
			},
			{
				"type": "occ",
				"energy": -0.27069,
				"method": "rhf"
			},
			{
				"type": "occ",
				"energy": -0.24892,
				"method": "rhf"
			},
			{
				"type": "occ",
				"energy": -0.24584,
				"method": "rhf"
			},
			{
				"type": "unocc",
				"energy": -0.03845,
				"method": "rhf"
			},
			{
				"type": "unocc",
				"energy": -0.02341,
				"method": "rhf"
			},
			{
				"type": "unocc",
				"energy": -0.02167,
				"method": "rhf"
			},
			{
				"type": "unocc",
				"energy": 0.05666,
				"method": "rhf"
			},
			{
				"type": "unocc",
				"energy": 0.06555,
				"method": "rhf"
			}
		],
		"cosmo_sigma_profile": { 
			"-0.025": 0.0,
			"-0.024": 0.0,
			"-0.023": 0.0,
			"-0.022": 0.0,
			"-0.021": 0.0,
			"-0.02": 0.0,
			"-0.019": 0.0,
			"-0.018": 0.0,
			"-0.017": 0.0,
			"-0.016": 0.0,
			"-0.015": 0.0,
			"-0.014": 0.0,
			"-0.013": 0.0,
			"-0.012": 0.0,
			"-0.011": 0.0,
			"-0.01": 0.0,
			"-0.009": 0.0459846155594,
			"-0.008": 1.94043537449,
			"-0.007": 9.04274090145,
			"-0.006": 21.2338772492,
			"-0.005": 31.6982338011,
			"-0.004": 30.7401551817,
			"-0.003": 25.4757508158,
			"-0.002": 19.7414382928,
			"-0.001": 19.8204085747,
			"0.0": 16.3222735377,
			"0.001": 13.4583582925,
			"0.002": 13.2505335693,
			"0.003": 17.076815907,
			"0.004": 9.07262482698,
			"0.005": 5.04346420903,
			"0.006": 5.41031789827,
			"0.007": 3.18521437035,
			"0.008": 4.70877925937,
			"0.009": 5.36850316042,
			"0.01": 9.09457720973,
			"0.011": 10.3165513098,
			"0.012": 8.34958553859,
			"0.013": 2.00901111509,
			"0.014": 0.0338948089927,
			"0.015": 0.0,
			"0.016": 0.0,
			"0.017": 0.0,
			"0.018": 0.0,
			"0.019": 0.0,
			"0.02": 0.0,
			"0.021": 0.0,
			"0.022": 0.0,
			"0.023": 0.0,
			"0.024": 0.0,
			"0.025": 0.0
		}
	}
}
