{
	 "smiles": "NC1=CC2=C(C=C1)C1(OC2=O)C2=CC=C(O)C=C2OC2=C1C=CC(O)=C2", 
	 "Tm": 496.15, 
	 "num_atms": 39, 
	 "gaussian": { 
		 "optdone": 1, 
		 "sigma_profile": "yes", 
		 "theory": "DFT", 
		 "functional": "B3LYP", 
		 "basiset": "6-31G**", 
		 "properties": { 
			 "R2extent": 9855.4528, 
			 "electric_dipole_moment_norm": 5.9322645558, 
			 "electric_quadrupole_moment_norm": 48.6489703725, 
			 "total_energy": -1200.84519498, 
			 "HOMO_LUMO_gap": 0.17123, 
			 "cosmo_polarized_energy": -28.1, 
			 "cosmo_cavitation_energy": 43.8, 
			 "cosmo_dispersion_energy": -30.81, 
			 "cosmo_repulsion_energy": 2.32, 
			 "cosmo_total_nonelectrostatic_energy": 15.31, 
			 "SMD_solvation_energy": 9.05 
		},
		"coords": [
			{
				"x": 1.2842765784,
				"y": -4.9843298074,
				"z": 0.064673866,
				"element": "N" 
			},
			{
				"x": 0.9679481591,
				"y": -3.6770651052,
				"z": -0.2929130716,
				"element": "C" 
			},
			{
				"x": 1.0019523296,
				"y": -3.2680657229,
				"z": -1.6360706185,
				"element": "C" 
			},
			{
				"x": 0.6185526545,
				"y": -1.9656100387,
				"z": -1.9338667534,
				"element": "C" 
			},
			{
				"x": 0.2081816119,
				"y": -1.0594704919,
				"z": -0.966371035,
				"element": "C" 
			},
			{
				"x": 0.1708446151,
				"y": -1.45178949,
				"z": 0.3701946937,
				"element": "C" 
			},
			{
				"x": 0.5495055409,
				"y": -2.7524828945,
				"z": 0.6940443774,
				"element": "C" 
			},
			{
				"x": -0.1362416099,
				"y": 0.2673968934,
				"z": -1.6237540345,
				"element": "C" 
			},
			{
				"x": 0.1341684703,
				"y": -0.0149787712,
				"z": -3.0598665863,
				"element": "O" 
			},
			{
				"x": 0.5710644465,
				"y": -1.2967295003,
				"z": -3.2563785537,
				"element": "C" 
			},
			{
				"x": 0.8513625693,
				"y": -1.7362570876,
				"z": -4.3460369489,
				"element": "O" 
			},
			{
				"x": -1.5949857652,
				"y": 0.6487253548,
				"z": -1.4925764352,
				"element": "C" 
			},
			{
				"x": -2.618505071,
				"y": -0.2891900146,
				"z": -1.7127493203,
				"element": "C" 
			},
			{
				"x": -3.9588429149,
				"y": 0.0546013134,
				"z": -1.6547841733,
				"element": "C" 
			},
			{
				"x": -4.3160867624,
				"y": 1.3821690986,
				"z": -1.3680346603,
				"element": "C" 
			},
			{
				"x": -5.6462210267,
				"y": 1.6750304436,
				"z": -1.3176631773,
				"element": "O" 
			},
			{
				"x": -3.3282236422,
				"y": 2.336249466,
				"z": -1.1420527269,
				"element": "C" 
			},
			{
				"x": -1.9823430522,
				"y": 1.9610529544,
				"z": -1.211467907,
				"element": "C" 
			},
			{
				"x": -1.0869102903,
				"y": 2.9700596613,
				"z": -0.9690686713,
				"element": "O" 
			},
			{
				"x": 0.2517623002,
				"y": 2.6797689113,
				"z": -0.9329620805,
				"element": "C" 
			},
			{
				"x": 0.7638138267,
				"y": 1.407460539,
				"z": -1.1984978389,
				"element": "C" 
			},
			{
				"x": 2.1578513241,
				"y": 1.2473217382,
				"z": -1.1178247477,
				"element": "C" 
			},
			{
				"x": 3.0028734809,
				"y": 2.2937599101,
				"z": -0.7876072544,
				"element": "C" 
			},
			{
				"x": 2.45712043,
				"y": 3.5606334753,
				"z": -0.5240081245,
				"element": "C" 
			},
			{
				"x": 3.3249803063,
				"y": 4.5602967522,
				"z": -0.1996157287,
				"element": "O" 
			},
			{
				"x": 1.0805703114,
				"y": 3.7542057468,
				"z": -0.5924965258,
				"element": "C" 
			},
			{
				"x": 1.5798183504,
				"y": -5.1219807058,
				"z": 1.0206288129,
				"element": "H" 
			},
			{
				"x": 1.8566861459,
				"y": -5.4927519176,
				"z": -0.594267828,
				"element": "H" 
			},
			{
				"x": 1.3142120294,
				"y": -3.9424400371,
				"z": -2.4284298611,
				"element": "H" 
			},
			{
				"x": -0.1437568761,
				"y": -0.7657661174,
				"z": 1.1511690035,
				"element": "H" 
			},
			{
				"x": 0.5202518576,
				"y": -3.0749462807,
				"z": 1.7320413905,
				"element": "H" 
			},
			{
				"x": -2.3450363018,
				"y": -1.3151619978,
				"z": -1.9380682887,
				"element": "H" 
			},
			{
				"x": -4.7403011707,
				"y": -0.6763139923,
				"z": -1.829105984,
				"element": "H" 
			},
			{
				"x": -5.7600057801,
				"y": 2.6156157614,
				"z": -1.1289559327,
				"element": "H" 
			},
			{
				"x": -3.5710754978,
				"y": 3.3699128391,
				"z": -0.9132301944,
				"element": "H" 
			},
			{
				"x": 2.5822064838,
				"y": 0.27002632,
				"z": -1.3252954566,
				"element": "H" 
			},
			{
				"x": 4.0772568426,
				"y": 2.1600302755,
				"z": -0.7314324029,
				"element": "H" 
			},
			{
				"x": 2.8319176544,
				"y": 5.3790351845,
				"z": -0.0588069434,
				"element": "H" 
			},
			{
				"x": 0.6266574421,
				"y": 4.7199773342,
				"z": -0.3898922785,
				"element": "H" 
			}
		],
		 "valence_orbital": [ 
			{
				"type": "occ",
				"energy": -0.26001,
				"method": "rhf"
			},
			{
				"type": "occ",
				"energy": -0.23831,
				"method": "rhf"
			},
			{
				"type": "occ",
				"energy": -0.22879,
				"method": "rhf"
			},
			{
				"type": "occ",
				"energy": -0.2175,
				"method": "rhf"
			},
			{
				"type": "occ",
				"energy": -0.21232,
				"method": "rhf"
			},
			{
				"type": "unocc",
				"energy": -0.04109,
				"method": "rhf"
			},
			{
				"type": "unocc",
				"energy": -0.01856,
				"method": "rhf"
			},
			{
				"type": "unocc",
				"energy": -0.01051,
				"method": "rhf"
			},
			{
				"type": "unocc",
				"energy": -0.00216,
				"method": "rhf"
			},
			{
				"type": "unocc",
				"energy": 0.00741,
				"method": "rhf"
			}
		],
		"cosmo_sigma_profile": { 
			"-0.025": 0.0,
			"-0.024": 0.0,
			"-0.023": 0.0,
			"-0.022": 0.0,
			"-0.021": 0.0,
			"-0.02": 0.0,
			"-0.019": 0.0669166188461,
			"-0.018": 1.71873454737,
			"-0.017": 2.07866914191,
			"-0.016": 2.33944581809,
			"-0.015": 1.98971503083,
			"-0.014": 2.60289848286,
			"-0.013": 3.80268194338,
			"-0.012": 4.24418784936,
			"-0.011": 4.80592955133,
			"-0.01": 6.36580011728,
			"-0.009": 5.6845616728,
			"-0.008": 5.64393997927,
			"-0.007": 8.92735526134,
			"-0.006": 16.0603600206,
			"-0.005": 18.8811559953,
			"-0.004": 17.5102634109,
			"-0.003": 13.8617167908,
			"-0.002": 15.0468056412,
			"-0.001": 13.7304936815,
			"0.0": 17.696093127,
			"0.001": 21.8197905471,
			"0.002": 30.969674107,
			"0.003": 40.8777803086,
			"0.004": 26.4985556055,
			"0.005": 11.9382822042,
			"0.006": 9.20894435424,
			"0.007": 5.98336928129,
			"0.008": 6.58376152317,
			"0.009": 6.89133862392,
			"0.01": 9.26933074093,
			"0.011": 7.95994777234,
			"0.012": 6.4957684756,
			"0.013": 3.01701198293,
			"0.014": 0.204324439296,
			"0.015": 0.0,
			"0.016": 0.0,
			"0.017": 0.0,
			"0.018": 0.0,
			"0.019": 0.0,
			"0.02": 0.0,
			"0.021": 0.0,
			"0.022": 0.0,
			"0.023": 0.0,
			"0.024": 0.0,
			"0.025": 0.0
		}
	}
}
