{
	 "smiles": "NC1=NOC(=N1)C1=CC=C(Cl)C=C1", 
	 "Tm": 529.15, 
	 "num_atms": 19, 
	 "gaussian": { 
		 "optdone": 1, 
		 "sigma_profile": "yes", 
		 "theory": "DFT", 
		 "functional": "B3LYP", 
		 "basiset": "6-31G**", 
		 "properties": { 
			 "R2extent": 3923.6874, 
			 "electric_dipole_moment_norm": 2.06012004019, 
			 "electric_quadrupole_moment_norm": 10.6380607584, 
			 "total_energy": -1008.10931297, 
			 "HOMO_LUMO_gap": 0.17224, 
			 "cosmo_polarized_energy": -11.68, 
			 "cosmo_cavitation_energy": 26.33, 
			 "cosmo_dispersion_energy": -19.91, 
			 "cosmo_repulsion_energy": 1.57, 
			 "cosmo_total_nonelectrostatic_energy": 8.0, 
			 "SMD_solvation_energy": 2.31 
		},
		"coords": [
			{
				"x": 1.3501353866,
				"y": 4.0382053714,
				"z": 0.5975168808,
				"element": "N" 
			},
			{
				"x": 0.7486405416,
				"y": 2.9681521389,
				"z": -0.0114845967,
				"element": "C" 
			},
			{
				"x": 0.2802623158,
				"y": 3.0073428053,
				"z": -1.2447152225,
				"element": "N" 
			},
			{
				"x": -0.2954407926,
				"y": 1.719132287,
				"z": -1.3875936998,
				"element": "O" 
			},
			{
				"x": -0.0883817832,
				"y": 1.0700591491,
				"z": -0.2321561877,
				"element": "C" 
			},
			{
				"x": 0.5500134489,
				"y": 1.7829047038,
				"z": 0.6581356299,
				"element": "N" 
			},
			{
				"x": -0.5762526592,
				"y": -0.2996491043,
				"z": -0.0952063248,
				"element": "C" 
			},
			{
				"x": -0.3748813731,
				"y": -0.9826834385,
				"z": 1.1141466936,
				"element": "C" 
			},
			{
				"x": -0.8293769516,
				"y": -2.2879458208,
				"z": 1.2686986022,
				"element": "C" 
			},
			{
				"x": -1.4886909671,
				"y": -2.9097224406,
				"z": 0.2060362778,
				"element": "C" 
			},
			{
				"x": -2.0638834494,
				"y": -4.5555393502,
				"z": 0.3958391734,
				"element": "Cl" 
			},
			{
				"x": -1.6989291483,
				"y": -2.2464300161,
				"z": -1.0041230334,
				"element": "C" 
			},
			{
				"x": -1.2409888126,
				"y": -0.9405203916,
				"z": -1.1518033,
				"element": "C" 
			},
			{
				"x": 1.695025695,
				"y": 4.7550338693,
				"z": -0.0243285323,
				"element": "H" 
			},
			{
				"x": 1.9737039399,
				"y": 3.7937578753,
				"z": 1.3525114958,
				"element": "H" 
			},
			{
				"x": 0.1385941203,
				"y": -0.4787380241,
				"z": 1.9256433749,
				"element": "H" 
			},
			{
				"x": -0.6773136394,
				"y": -2.8210125225,
				"z": 2.2003602862,
				"element": "H" 
			},
			{
				"x": -2.2133921242,
				"y": -2.747314281,
				"z": -1.8162803765,
				"element": "H" 
			},
			{
				"x": -1.3982437473,
				"y": -0.4145328103,
				"z": -2.0870971409,
				"element": "H" 
			}
		],
		 "valence_orbital": [ 
			{
				"type": "occ",
				"energy": -0.30966,
				"method": "rhf"
			},
			{
				"type": "occ",
				"energy": -0.29544,
				"method": "rhf"
			},
			{
				"type": "occ",
				"energy": -0.2774,
				"method": "rhf"
			},
			{
				"type": "occ",
				"energy": -0.26137,
				"method": "rhf"
			},
			{
				"type": "occ",
				"energy": -0.23468,
				"method": "rhf"
			},
			{
				"type": "unocc",
				"energy": -0.06244,
				"method": "rhf"
			},
			{
				"type": "unocc",
				"energy": -0.02582,
				"method": "rhf"
			},
			{
				"type": "unocc",
				"energy": 0.02123,
				"method": "rhf"
			},
			{
				"type": "unocc",
				"energy": 0.02739,
				"method": "rhf"
			},
			{
				"type": "unocc",
				"energy": 0.05918,
				"method": "rhf"
			}
		],
		"cosmo_sigma_profile": { 
			"-0.025": 0.0,
			"-0.024": 0.0,
			"-0.023": 0.0,
			"-0.022": 0.0,
			"-0.021": 0.0,
			"-0.02": 0.0,
			"-0.019": 0.0,
			"-0.018": 0.0,
			"-0.017": 0.0,
			"-0.016": 0.0,
			"-0.015": 0.149352383138,
			"-0.014": 2.22470433045,
			"-0.013": 2.37613725553,
			"-0.012": 2.55216980628,
			"-0.011": 2.42814467099,
			"-0.01": 1.71083547212,
			"-0.009": 1.84460223074,
			"-0.008": 5.00515386218,
			"-0.007": 8.41568051729,
			"-0.006": 9.29039259961,
			"-0.005": 6.31781029015,
			"-0.004": 7.48823142205,
			"-0.003": 11.0675310737,
			"-0.002": 14.663752205,
			"-0.001": 15.7738704083,
			"0.0": 18.9407378352,
			"0.001": 23.3832390265,
			"0.002": 20.1821207985,
			"0.003": 11.4646253667,
			"0.004": 14.5237297479,
			"0.005": 6.02856401589,
			"0.006": 4.22041485276,
			"0.007": 5.14905951093,
			"0.008": 3.92517181455,
			"0.009": 3.866986439,
			"0.01": 3.22765278433,
			"0.011": 2.82858794463,
			"0.012": 2.39402941338,
			"0.013": 1.46592655306,
			"0.014": 1.28461668125,
			"0.015": 0.086474361764,
			"0.016": 0.0,
			"0.017": 0.0,
			"0.018": 0.0,
			"0.019": 0.0,
			"0.02": 0.0,
			"0.021": 0.0,
			"0.022": 0.0,
			"0.023": 0.0,
			"0.024": 0.0,
			"0.025": 0.0
		}
	}
}
