{
	 "smiles": "COC(=O)C1=CC(OC)=C(OC)C(OC)=C1", 
	 "Tm": 357.15, 
	 "num_atms": 30, 
	 "gaussian": { 
		 "optdone": 1, 
		 "sigma_profile": "yes", 
		 "theory": "DFT", 
		 "functional": "B3LYP", 
		 "basiset": "6-31G**", 
		 "properties": { 
			 "R2extent": 4509.9764, 
			 "electric_dipole_moment_norm": 0.756980072393, 
			 "electric_quadrupole_moment_norm": 10.7350930387, 
			 "total_energy": -803.689203348, 
			 "HOMO_LUMO_gap": 0.18347, 
			 "cosmo_polarized_energy": -11.06, 
			 "cosmo_cavitation_energy": 34.16, 
			 "cosmo_dispersion_energy": -24.14, 
			 "cosmo_repulsion_energy": 1.91, 
			 "cosmo_total_nonelectrostatic_energy": 11.93, 
			 "SMD_solvation_energy": 9.89 
		},
		"coords": [
			{
				"x": -5.187425284,
				"y": -1.801367843,
				"z": -0.0585784054,
				"element": "C" 
			},
			{
				"x": -3.8810383294,
				"y": -1.3247325762,
				"z": 0.2937959386,
				"element": "O" 
			},
			{
				"x": -3.0237842672,
				"y": -1.1757991025,
				"z": -0.7426527364,
				"element": "C" 
			},
			{
				"x": -3.3303123438,
				"y": -1.4239882799,
				"z": -1.8942408106,
				"element": "O" 
			},
			{
				"x": -1.686927668,
				"y": -0.681848735,
				"z": -0.3133528674,
				"element": "C" 
			},
			{
				"x": -1.3862570996,
				"y": -0.4041744314,
				"z": 1.0214192291,
				"element": "C" 
			},
			{
				"x": -0.1093353895,
				"y": 0.0486771757,
				"z": 1.3618076132,
				"element": "C" 
			},
			{
				"x": 0.18420918,
				"y": 0.2466461109,
				"z": 2.6878365503,
				"element": "O" 
			},
			{
				"x": 0.437126174,
				"y": 1.601238521,
				"z": 3.0754513858,
				"element": "C" 
			},
			{
				"x": 0.8658500383,
				"y": 0.2344619159,
				"z": 0.3693417159,
				"element": "C" 
			},
			{
				"x": 2.1007495368,
				"y": 0.7158319963,
				"z": 0.7174789477,
				"element": "O" 
			},
			{
				"x": 3.1619044373,
				"y": -0.2462677231,
				"z": 0.6854449431,
				"element": "C" 
			},
			{
				"x": 0.5470766375,
				"y": -0.0345875077,
				"z": -0.9819798107,
				"element": "C" 
			},
			{
				"x": 1.5554863189,
				"y": 0.1809457864,
				"z": -1.8748807637,
				"element": "O" 
			},
			{
				"x": 1.2864050349,
				"y": -0.0558551297,
				"z": -3.2500365813,
				"element": "C" 
			},
			{
				"x": -0.725014812,
				"y": -0.4933489814,
				"z": -1.3170778491,
				"element": "C" 
			},
			{
				"x": -5.1249395181,
				"y": -2.784018439,
				"z": -0.533209599,
				"element": "H" 
			},
			{
				"x": -5.6776949841,
				"y": -1.109924101,
				"z": -0.748759226,
				"element": "H" 
			},
			{
				"x": -5.7407313598,
				"y": -1.863507925,
				"z": 0.8785669063,
				"element": "H" 
			},
			{
				"x": -2.1191536504,
				"y": -0.5488719996,
				"z": 1.8048665438,
				"element": "H" 
			},
			{
				"x": 0.6267987346,
				"y": 1.5772670156,
				"z": 4.1506085418,
				"element": "H" 
			},
			{
				"x": 1.3081231384,
				"y": 2.0090622165,
				"z": 2.5554876433,
				"element": "H" 
			},
			{
				"x": -0.4392682933,
				"y": 2.2323240846,
				"z": 2.8787350154,
				"element": "H" 
			},
			{
				"x": 4.0610158663,
				"y": 0.2832339055,
				"z": 1.0065970138,
				"element": "H" 
			},
			{
				"x": 2.9586255911,
				"y": -1.0715551888,
				"z": 1.3780507709,
				"element": "H" 
			},
			{
				"x": 3.309290591,
				"y": -0.6363472519,
				"z": -0.3260792817,
				"element": "H" 
			},
			{
				"x": 1.0252321896,
				"y": -1.1050562204,
				"z": -3.4365636194,
				"element": "H" 
			},
			{
				"x": 0.4755934499,
				"y": 0.5854140988,
				"z": -3.6167620532,
				"element": "H" 
			},
			{
				"x": 2.2076512359,
				"y": 0.1875748587,
				"z": -3.7811831054,
				"element": "H" 
			},
			{
				"x": -1.0061551552,
				"y": -0.7139262504,
				"z": -2.3385320497,
				"element": "H" 
			}
		],
		 "valence_orbital": [ 
			{
				"type": "occ",
				"energy": -0.28396,
				"method": "rhf"
			},
			{
				"type": "occ",
				"energy": -0.27452,
				"method": "rhf"
			},
			{
				"type": "occ",
				"energy": -0.26541,
				"method": "rhf"
			},
			{
				"type": "occ",
				"energy": -0.2309,
				"method": "rhf"
			},
			{
				"type": "occ",
				"energy": -0.22249,
				"method": "rhf"
			},
			{
				"type": "unocc",
				"energy": -0.03902,
				"method": "rhf"
			},
			{
				"type": "unocc",
				"energy": 0.00975,
				"method": "rhf"
			},
			{
				"type": "unocc",
				"energy": 0.06462,
				"method": "rhf"
			},
			{
				"type": "unocc",
				"energy": 0.07922,
				"method": "rhf"
			},
			{
				"type": "unocc",
				"energy": 0.10073,
				"method": "rhf"
			}
		],
		"cosmo_sigma_profile": { 
			"-0.025": 0.0,
			"-0.024": 0.0,
			"-0.023": 0.0,
			"-0.022": 0.0,
			"-0.021": 0.0,
			"-0.02": 0.0,
			"-0.019": 0.0,
			"-0.018": 0.0,
			"-0.017": 0.0,
			"-0.016": 0.0,
			"-0.015": 0.0,
			"-0.014": 0.0,
			"-0.013": 0.0,
			"-0.012": 0.0,
			"-0.011": 0.0,
			"-0.01": 0.0,
			"-0.009": 0.0,
			"-0.008": 0.0,
			"-0.007": 1.11188256697,
			"-0.006": 14.5193844692,
			"-0.005": 22.8372545665,
			"-0.004": 29.9826457556,
			"-0.003": 36.2854210003,
			"-0.002": 25.2221505098,
			"-0.001": 18.2938112599,
			"0.0": 14.7087556691,
			"0.001": 17.1116950617,
			"0.002": 19.8690525491,
			"0.003": 18.1103289389,
			"0.004": 9.05435738293,
			"0.005": 7.97081866563,
			"0.006": 6.34872099845,
			"0.007": 4.79008059754,
			"0.008": 4.17245623371,
			"0.009": 3.68338162067,
			"0.01": 5.26507614968,
			"0.011": 5.83574979243,
			"0.012": 5.14136012023,
			"0.013": 0.335679441726,
			"0.014": 0.0,
			"0.015": 0.0,
			"0.016": 0.0,
			"0.017": 0.0,
			"0.018": 0.0,
			"0.019": 0.0,
			"0.02": 0.0,
			"0.021": 0.0,
			"0.022": 0.0,
			"0.023": 0.0,
			"0.024": 0.0,
			"0.025": 0.0
		}
	}
}
