{
	 "smiles": "CC1=NC(=NN1)C1=CC=C(Br)C=C1", 
	 "Tm": 464.15, 
	 "num_atms": 21, 
	 "gaussian": { 
		 "optdone": 1, 
		 "sigma_profile": "yes", 
		 "theory": "DFT", 
		 "functional": "B3LYP", 
		 "basiset": "6-31G**", 
		 "properties": { 
			 "R2extent": 6018.2499, 
			 "electric_dipole_moment_norm": 5.21775567462, 
			 "electric_quadrupole_moment_norm": 11.6910781693, 
			 "total_energy": -3083.44412064, 
			 "HOMO_LUMO_gap": 0.19002, 
			 "cosmo_polarized_energy": -12.76, 
			 "cosmo_cavitation_energy": 28.09, 
			 "cosmo_dispersion_energy": -21.42, 
			 "cosmo_repulsion_energy": 1.7, 
			 "cosmo_total_nonelectrostatic_energy": 8.37, 
			 "SMD_solvation_energy": 1.36 
		},
		"coords": [
			{
				"x": -3.0362202391,
				"y": 1.2149743621,
				"z": -3.5994382759,
				"element": "C" 
			},
			{
				"x": -2.4074751517,
				"y": 0.828724352,
				"z": -2.3011550421,
				"element": "C" 
			},
			{
				"x": -1.4559633106,
				"y": -0.0705600267,
				"z": -2.1218038583,
				"element": "N" 
			},
			{
				"x": -1.2349823083,
				"y": -0.0481060687,
				"z": -0.7676215961,
				"element": "C" 
			},
			{
				"x": -1.9979087022,
				"y": 0.8156562498,
				"z": -0.1027413233,
				"element": "N" 
			},
			{
				"x": -2.7379917625,
				"y": 1.3642085991,
				"z": -1.0984228237,
				"element": "N" 
			},
			{
				"x": -0.2409388116,
				"y": -0.9040563586,
				"z": -0.1066639299,
				"element": "C" 
			},
			{
				"x": 0.5325637297,
				"y": -1.7943161135,
				"z": -0.8647377999,
				"element": "C" 
			},
			{
				"x": 1.4795789925,
				"y": -2.6125739506,
				"z": -0.252242409,
				"element": "C" 
			},
			{
				"x": 1.6514995233,
				"y": -2.5371776596,
				"z": 1.1288736078,
				"element": "C" 
			},
			{
				"x": 2.9496057835,
				"y": -3.6567968737,
				"z": 1.9777211231,
				"element": "Br" 
			},
			{
				"x": 0.893382777,
				"y": -1.6590753794,
				"z": 1.9039267459,
				"element": "C" 
			},
			{
				"x": -0.0500989529,
				"y": -0.8458556945,
				"z": 1.2823633233,
				"element": "C" 
			},
			{
				"x": -2.5793483848,
				"y": 0.627424461,
				"z": -4.3963228138,
				"element": "H" 
			},
			{
				"x": -2.885463176,
				"y": 2.2773224785,
				"z": -3.8198334913,
				"element": "H" 
			},
			{
				"x": -4.1143658342,
				"y": 1.0213608898,
				"z": -3.5983498128,
				"element": "H" 
			},
			{
				"x": -3.4227693712,
				"y": 2.0726616504,
				"z": -0.8804096576,
				"element": "H" 
			},
			{
				"x": 0.3832165271,
				"y": -1.837491404,
				"z": -1.9381707007,
				"element": "H" 
			},
			{
				"x": 2.0771413837,
				"y": -3.3005333885,
				"z": -0.8394087335,
				"element": "H" 
			},
			{
				"x": 1.0403584566,
				"y": -1.6136200382,
				"z": 2.9769870386,
				"element": "H" 
			},
			{
				"x": -0.6471211682,
				"y": -0.1579700866,
				"z": 1.8717504294,
				"element": "H" 
			}
		],
		 "valence_orbital": [ 
			{
				"type": "occ",
				"energy": -0.28188,
				"method": "rhf"
			},
			{
				"type": "occ",
				"energy": -0.27737,
				"method": "rhf"
			},
			{
				"type": "occ",
				"energy": -0.27098,
				"method": "rhf"
			},
			{
				"type": "occ",
				"energy": -0.25657,
				"method": "rhf"
			},
			{
				"type": "occ",
				"energy": -0.22173,
				"method": "rhf"
			},
			{
				"type": "unocc",
				"energy": -0.03171,
				"method": "rhf"
			},
			{
				"type": "unocc",
				"energy": -0.0074,
				"method": "rhf"
			},
			{
				"type": "unocc",
				"energy": 0.01295,
				"method": "rhf"
			},
			{
				"type": "unocc",
				"energy": 0.01394,
				"method": "rhf"
			},
			{
				"type": "unocc",
				"energy": 0.0675,
				"method": "rhf"
			}
		],
		"cosmo_sigma_profile": { 
			"-0.025": 0.0,
			"-0.024": 0.0,
			"-0.023": 0.0,
			"-0.022": 0.0,
			"-0.021": 0.0,
			"-0.02": 0.0,
			"-0.019": 0.0,
			"-0.018": 0.0607058652075,
			"-0.017": 1.67513732541,
			"-0.016": 1.21658732691,
			"-0.015": 1.62970141636,
			"-0.014": 0.913585099108,
			"-0.013": 0.51661783861,
			"-0.012": 1.39354402816,
			"-0.011": 1.33528151527,
			"-0.01": 1.08077050403,
			"-0.009": 0.465247547763,
			"-0.008": 1.53856772278,
			"-0.007": 5.53689806886,
			"-0.006": 11.9367818511,
			"-0.005": 13.3793893617,
			"-0.004": 13.5415763448,
			"-0.003": 13.1088629183,
			"-0.002": 14.766331255,
			"-0.001": 13.6100205538,
			"0.0": 12.8285224917,
			"0.001": 16.0812700639,
			"0.002": 25.1951652906,
			"0.003": 27.2742116894,
			"0.004": 19.5359430528,
			"0.005": 10.1540256921,
			"0.006": 3.1746343242,
			"0.007": 3.51978377699,
			"0.008": 1.4548196546,
			"0.009": 2.46242907748,
			"0.01": 2.50453251905,
			"0.011": 2.19457373854,
			"0.012": 1.87293024853,
			"0.013": 1.66794462776,
			"0.014": 0.929234298064,
			"0.015": 0.14268758212,
			"0.016": 0.0,
			"0.017": 0.0,
			"0.018": 0.0,
			"0.019": 0.0,
			"0.02": 0.0,
			"0.021": 0.0,
			"0.022": 0.0,
			"0.023": 0.0,
			"0.024": 0.0,
			"0.025": 0.0
		}
	}
}
