{
	 "smiles": "OC(=O)C1=NN(C=C1)C1=CC(=CC=C1)C(F)(F)F", 
	 "Tm": 429.15, 
	 "num_atms": 25, 
	 "gaussian": { 
		 "optdone": 1, 
		 "sigma_profile": "yes", 
		 "theory": "DFT", 
		 "functional": "B3LYP", 
		 "basiset": "6-31G**", 
		 "properties": { 
			 "R2extent": 6442.4112, 
			 "electric_dipole_moment_norm": 4.65936664473, 
			 "electric_quadrupole_moment_norm": 36.21839001, 
			 "total_energy": -982.85946519, 
			 "HOMO_LUMO_gap": 0.19351, 
			 "cosmo_polarized_energy": -14.5, 
			 "cosmo_cavitation_energy": 32.36, 
			 "cosmo_dispersion_energy": -22.93, 
			 "cosmo_repulsion_energy": 1.69, 
			 "cosmo_total_nonelectrostatic_energy": 11.11, 
			 "SMD_solvation_energy": 7.77 
		},
		"coords": [
			{
				"x": -2.4931898856,
				"y": -1.3461863494,
				"z": -4.2628841711,
				"element": "O" 
			},
			{
				"x": -2.4995823861,
				"y": -0.0506587108,
				"z": -3.8793975562,
				"element": "C" 
			},
			{
				"x": -3.0657198535,
				"y": 0.8082722246,
				"z": -4.5137692444,
				"element": "O" 
			},
			{
				"x": -1.7574239239,
				"y": 0.2252886482,
				"z": -2.6212756992,
				"element": "C" 
			},
			{
				"x": -1.1711844549,
				"y": -0.7730149425,
				"z": -1.9572237646,
				"element": "N" 
			},
			{
				"x": -0.5883747537,
				"y": -0.1919894304,
				"z": -0.8886179959,
				"element": "N" 
			},
			{
				"x": -0.8069526187,
				"y": 1.1638889796,
				"z": -0.8704383243,
				"element": "C" 
			},
			{
				"x": -1.5592415235,
				"y": 1.4688997112,
				"z": -1.9801405516,
				"element": "C" 
			},
			{
				"x": 0.1270218362,
				"y": -0.9755512703,
				"z": 0.0563936603,
				"element": "C" 
			},
			{
				"x": 1.1165318961,
				"y": -0.3854513376,
				"z": 0.8460781318,
				"element": "C" 
			},
			{
				"x": 1.7923743616,
				"y": -1.1616925719,
				"z": 1.7874676031,
				"element": "C" 
			},
			{
				"x": 1.5026607987,
				"y": -2.5200928601,
				"z": 1.9330990851,
				"element": "C" 
			},
			{
				"x": 0.5241718789,
				"y": -3.0997655029,
				"z": 1.1259619607,
				"element": "C" 
			},
			{
				"x": -0.1697851405,
				"y": -2.3358815902,
				"z": 0.1905496143,
				"element": "C" 
			},
			{
				"x": 2.8980764777,
				"y": -0.5428772941,
				"z": 2.6036560738,
				"element": "C" 
			},
			{
				"x": 2.9584217996,
				"y": -1.0757339584,
				"z": 3.8423514429,
				"element": "F" 
			},
			{
				"x": 2.7362598763,
				"y": 0.7919859466,
				"z": 2.7387951441,
				"element": "F" 
			},
			{
				"x": 4.105729065,
				"y": -0.7393321384,
				"z": 2.0295448739,
				"element": "F" 
			},
			{
				"x": -1.974406299,
				"y": -1.8538262854,
				"z": -3.614579202,
				"element": "H" 
			},
			{
				"x": -0.4393053659,
				"y": 1.7836458237,
				"z": -0.0676689635,
				"element": "H" 
			},
			{
				"x": -1.9283338296,
				"y": 2.4319426979,
				"z": -2.2952748249,
				"element": "H" 
			},
			{
				"x": 1.3738082785,
				"y": 0.6602166156,
				"z": 0.729960928,
				"element": "H" 
			},
			{
				"x": 2.0329026236,
				"y": -3.1108323365,
				"z": 2.6715983864,
				"element": "H" 
			},
			{
				"x": 0.2896444142,
				"y": -4.1539737329,
				"z": 1.233132207,
				"element": "H" 
			},
			{
				"x": -0.9393032716,
				"y": -2.7733803355,
				"z": -0.4332188136,
				"element": "H" 
			}
		],
		 "valence_orbital": [ 
			{
				"type": "occ",
				"energy": -0.30962,
				"method": "rhf"
			},
			{
				"type": "occ",
				"energy": -0.29197,
				"method": "rhf"
			},
			{
				"type": "occ",
				"energy": -0.28287,
				"method": "rhf"
			},
			{
				"type": "occ",
				"energy": -0.27469,
				"method": "rhf"
			},
			{
				"type": "occ",
				"energy": -0.25818,
				"method": "rhf"
			},
			{
				"type": "unocc",
				"energy": -0.06467,
				"method": "rhf"
			},
			{
				"type": "unocc",
				"energy": -0.04751,
				"method": "rhf"
			},
			{
				"type": "unocc",
				"energy": -0.02315,
				"method": "rhf"
			},
			{
				"type": "unocc",
				"energy": 0.01187,
				"method": "rhf"
			},
			{
				"type": "unocc",
				"energy": 0.06839,
				"method": "rhf"
			}
		],
		"cosmo_sigma_profile": { 
			"-0.025": 0.0,
			"-0.024": 0.0,
			"-0.023": 0.0,
			"-0.022": 0.0,
			"-0.021": 0.0,
			"-0.02": 0.0,
			"-0.019": 0.0,
			"-0.018": 0.0,
			"-0.017": 0.0,
			"-0.016": 0.0,
			"-0.015": 0.304576776727,
			"-0.014": 0.81872812406,
			"-0.013": 0.381196576212,
			"-0.012": 0.321595524822,
			"-0.011": 3.16666014648,
			"-0.01": 3.3006478232,
			"-0.009": 3.00135435788,
			"-0.008": 5.86317007709,
			"-0.007": 9.60248515873,
			"-0.006": 11.8216937291,
			"-0.005": 11.4277211808,
			"-0.004": 11.5818019453,
			"-0.003": 13.2009209551,
			"-0.002": 15.8066576232,
			"-0.001": 16.9983089349,
			"0.0": 23.0323383386,
			"0.001": 28.9941449149,
			"0.002": 36.3230641077,
			"0.003": 29.9980873612,
			"0.004": 3.96234393674,
			"0.005": 2.93560997262,
			"0.006": 3.43660015993,
			"0.007": 1.70625652365,
			"0.008": 3.11585103483,
			"0.009": 3.95719251878,
			"0.01": 5.06901698911,
			"0.011": 5.57114763295,
			"0.012": 4.24869050704,
			"0.013": 1.30237231391,
			"0.014": 0.0107063023808,
			"0.015": 0.0,
			"0.016": 0.0,
			"0.017": 0.0,
			"0.018": 0.0,
			"0.019": 0.0,
			"0.02": 0.0,
			"0.021": 0.0,
			"0.022": 0.0,
			"0.023": 0.0,
			"0.024": 0.0,
			"0.025": 0.0
		}
	}
}
