{
	 "smiles": "OC(=O)C1=CN=C(C=C1)C1=CC=CC=C1", 
	 "Tm": 517.15, 
	 "num_atms": 24, 
	 "gaussian": { 
		 "optdone": 1, 
		 "sigma_profile": "yes", 
		 "theory": "DFT", 
		 "functional": "B3LYP", 
		 "basiset": "6-31G**", 
		 "properties": { 
			 "R2extent": 4898.9979, 
			 "electric_dipole_moment_norm": 5.45430547549, 
			 "electric_quadrupole_moment_norm": 20.8215358238, 
			 "total_energy": -667.909759664, 
			 "HOMO_LUMO_gap": 0.16795, 
			 "cosmo_polarized_energy": -17.28, 
			 "cosmo_cavitation_energy": 28.91, 
			 "cosmo_dispersion_energy": -21.5, 
			 "cosmo_repulsion_energy": 1.64, 
			 "cosmo_total_nonelectrostatic_energy": 9.06, 
			 "SMD_solvation_energy": 5.01 
		},
		"coords": [
			{
				"x": -0.9685220001,
				"y": 3.5046061155,
				"z": 3.947655909,
				"element": "O" 
			},
			{
				"x": -1.9141806038,
				"y": 2.6528386435,
				"z": 3.4647576386,
				"element": "C" 
			},
			{
				"x": -3.020595089,
				"y": 2.6408032261,
				"z": 3.9503382088,
				"element": "O" 
			},
			{
				"x": -1.5075102028,
				"y": 1.7638718207,
				"z": 2.3343480664,
				"element": "C" 
			},
			{
				"x": -2.5152521385,
				"y": 1.1805318521,
				"z": 1.5504238477,
				"element": "C" 
			},
			{
				"x": -2.2826000332,
				"y": 0.3650326214,
				"z": 0.5271180965,
				"element": "N" 
			},
			{
				"x": -1.0063675393,
				"y": 0.0526696154,
				"z": 0.215675896,
				"element": "C" 
			},
			{
				"x": 0.070618737,
				"y": 0.5886392268,
				"z": 0.9452106751,
				"element": "C" 
			},
			{
				"x": -0.184340302,
				"y": 1.4431297649,
				"z": 2.0098213924,
				"element": "C" 
			},
			{
				"x": -0.8088814644,
				"y": -0.8681337888,
				"z": -0.9324180059,
				"element": "C" 
			},
			{
				"x": -1.8676001491,
				"y": -1.0900327299,
				"z": -1.8301678945,
				"element": "C" 
			},
			{
				"x": -1.7068023343,
				"y": -1.9395485064,
				"z": -2.9215018672,
				"element": "C" 
			},
			{
				"x": -0.4894745838,
				"y": -2.5909319788,
				"z": -3.1340789791,
				"element": "C" 
			},
			{
				"x": 0.5657929317,
				"y": -2.388707785,
				"z": -2.2425182185,
				"element": "C" 
			},
			{
				"x": 0.4083247134,
				"y": -1.5355213755,
				"z": -1.1520401906,
				"element": "C" 
			},
			{
				"x": -0.1987726901,
				"y": 3.5237809191,
				"z": 3.3628543235,
				"element": "H" 
			},
			{
				"x": -3.5540786001,
				"y": 1.4025393133,
				"z": 1.7820225258,
				"element": "H" 
			},
			{
				"x": 1.0937394157,
				"y": 0.3513732644,
				"z": 0.67920483,
				"element": "H" 
			},
			{
				"x": 0.650728079,
				"y": 1.8291255128,
				"z": 2.5905230583,
				"element": "H" 
			},
			{
				"x": -2.8097487804,
				"y": -0.5848882918,
				"z": -1.6519427893,
				"element": "H" 
			},
			{
				"x": -2.5338056345,
				"y": -2.0941445555,
				"z": -3.6085017938,
				"element": "H" 
			},
			{
				"x": -0.3653899845,
				"y": -3.2550883609,
				"z": -3.9845046945,
				"element": "H" 
			},
			{
				"x": 1.5116128285,
				"y": -2.9013832839,
				"z": -2.3915488394,
				"element": "H" 
			},
			{
				"x": 1.2342054249,
				"y": -1.4140612396,
				"z": -0.4584311953,
				"element": "H" 
			}
		],
		 "valence_orbital": [ 
			{
				"type": "occ",
				"energy": -0.29627,
				"method": "rhf"
			},
			{
				"type": "occ",
				"energy": -0.28178,
				"method": "rhf"
			},
			{
				"type": "occ",
				"energy": -0.26606,
				"method": "rhf"
			},
			{
				"type": "occ",
				"energy": -0.25927,
				"method": "rhf"
			},
			{
				"type": "occ",
				"energy": -0.24165,
				"method": "rhf"
			},
			{
				"type": "unocc",
				"energy": -0.0737,
				"method": "rhf"
			},
			{
				"type": "unocc",
				"energy": -0.04106,
				"method": "rhf"
			},
			{
				"type": "unocc",
				"energy": -0.00757,
				"method": "rhf"
			},
			{
				"type": "unocc",
				"energy": -0.00545,
				"method": "rhf"
			},
			{
				"type": "unocc",
				"energy": 0.04728,
				"method": "rhf"
			}
		],
		"cosmo_sigma_profile": { 
			"-0.025": 0.0,
			"-0.024": 0.0,
			"-0.023": 0.0,
			"-0.022": 0.0,
			"-0.021": 0.0,
			"-0.02": 0.0125796481225,
			"-0.019": 0.538611650676,
			"-0.018": 1.23322081212,
			"-0.017": 1.16207142064,
			"-0.016": 0.836242490855,
			"-0.015": 0.944145567819,
			"-0.014": 1.01945796338,
			"-0.013": 1.49491366161,
			"-0.012": 0.934913655484,
			"-0.011": 1.41392833108,
			"-0.01": 1.66699872744,
			"-0.009": 2.51288918967,
			"-0.008": 4.61288273982,
			"-0.007": 6.18271276857,
			"-0.006": 11.1004050825,
			"-0.005": 13.3134391756,
			"-0.004": 15.2282765063,
			"-0.003": 14.2262906913,
			"-0.002": 12.6394775847,
			"-0.001": 14.4262238043,
			"0.0": 20.3466278525,
			"0.001": 17.375470019,
			"0.002": 14.6400464295,
			"0.003": 12.4493635242,
			"0.004": 14.7960730886,
			"0.005": 13.0302404213,
			"0.006": 3.74985133464,
			"0.007": 5.14257645517,
			"0.008": 3.6396439177,
			"0.009": 4.24880403838,
			"0.01": 6.34739556735,
			"0.011": 5.97031776705,
			"0.012": 4.62201326478,
			"0.013": 1.13616634388,
			"0.014": 0.00872295982741,
			"0.015": 0.0,
			"0.016": 0.0,
			"0.017": 0.0,
			"0.018": 0.0,
			"0.019": 0.0,
			"0.02": 0.0,
			"0.021": 0.0,
			"0.022": 0.0,
			"0.023": 0.0,
			"0.024": 0.0,
			"0.025": 0.0
		}
	}
}
