{
	 "smiles": "CC1=CC=C(CNC(=O)C2=CC(=CC(=C2)[N+]([O-])=O)[N+]([O-])=O)C(C)=C1", 
	 "Tm": 453.15, 
	 "num_atms": 39, 
	 "gaussian": { 
		 "optdone": 1, 
		 "sigma_profile": "yes", 
		 "theory": "DFT", 
		 "functional": "B3LYP", 
		 "basiset": "6-31G**", 
		 "properties": { 
			 "R2extent": 8630.5603, 
			 "electric_dipole_moment_norm": 5.40459375902, 
			 "electric_quadrupole_moment_norm": 18.1611675776, 
			 "total_energy": -1158.93490668, 
			 "HOMO_LUMO_gap": 0.12869, 
			 "cosmo_polarized_energy": -19.13, 
			 "cosmo_cavitation_energy": 45.04, 
			 "cosmo_dispersion_energy": -29.2, 
			 "cosmo_repulsion_energy": 2.24, 
			 "cosmo_total_nonelectrostatic_energy": 18.08, 
			 "SMD_solvation_energy": 11.95 
		},
		"coords": [
			{
				"x": -4.7147858577,
				"y": 0.6731894815,
				"z": 0.4359988341,
				"element": "C" 
			},
			{
				"x": -3.2489613364,
				"y": 1.0366432416,
				"z": 0.4617809582,
				"element": "C" 
			},
			{
				"x": -2.7186986178,
				"y": 1.9770931666,
				"z": -0.4267919691,
				"element": "C" 
			},
			{
				"x": -1.3686867001,
				"y": 2.3204755661,
				"z": -0.3744970541,
				"element": "C" 
			},
			{
				"x": -0.5072463815,
				"y": 1.7358756457,
				"z": 0.5589184727,
				"element": "C" 
			},
			{
				"x": 0.960041044,
				"y": 2.1407591711,
				"z": 0.6270243554,
				"element": "C" 
			},
			{
				"x": 1.5422429089,
				"y": 2.6479119578,
				"z": -0.6197066483,
				"element": "N" 
			},
			{
				"x": 1.5843812928,
				"y": 2.0466828225,
				"z": -1.8519189295,
				"element": "C" 
			},
			{
				"x": 1.7287831777,
				"y": 2.7010847125,
				"z": -2.8784751938,
				"element": "O" 
			},
			{
				"x": 1.4722252954,
				"y": 0.5438621192,
				"z": -1.9412577539,
				"element": "C" 
			},
			{
				"x": 0.8093011017,
				"y": 0.0259489166,
				"z": -3.0614728023,
				"element": "C" 
			},
			{
				"x": 0.7199844833,
				"y": -1.3517174033,
				"z": -3.2245180281,
				"element": "C" 
			},
			{
				"x": 1.2874150816,
				"y": -2.2506705423,
				"z": -2.326730799,
				"element": "C" 
			},
			{
				"x": 1.9592716029,
				"y": -1.7082500322,
				"z": -1.2394434005,
				"element": "C" 
			},
			{
				"x": 2.0690594751,
				"y": -0.3338251621,
				"z": -1.0335493657,
				"element": "C" 
			},
			{
				"x": 2.5669395396,
				"y": -2.6209471169,
				"z": -0.2526569223,
				"element": "N" 
			},
			{
				"x": 3.0476472037,
				"y": -2.1149489898,
				"z": 0.7615121394,
				"element": "O" 
			},
			{
				"x": 2.5446884618,
				"y": -3.8223105792,
				"z": -0.5015984916,
				"element": "O" 
			},
			{
				"x": -0.0008506813,
				"y": -1.8893038861,
				"z": -4.3972862133,
				"element": "N" 
			},
			{
				"x": -0.5001202545,
				"y": -1.078871824,
				"z": -5.172674067,
				"element": "O" 
			},
			{
				"x": -0.0519340546,
				"y": -3.1111814404,
				"z": -4.5143469657,
				"element": "O" 
			},
			{
				"x": -1.0217129959,
				"y": 0.7856472125,
				"z": 1.4663453482,
				"element": "C" 
			},
			{
				"x": -0.1473383895,
				"y": 0.1167710475,
				"z": 2.5053086691,
				"element": "C" 
			},
			{
				"x": -2.3801802288,
				"y": 0.4572645714,
				"z": 1.3943153686,
				"element": "C" 
			},
			{
				"x": -4.8772061945,
				"y": -0.3618467144,
				"z": 0.7514910459,
				"element": "H" 
			},
			{
				"x": -5.1390292024,
				"y": 0.7931920402,
				"z": -0.5651855311,
				"element": "H" 
			},
			{
				"x": -5.2931320951,
				"y": 1.3137716321,
				"z": 1.1136350995,
				"element": "H" 
			},
			{
				"x": -3.3624647055,
				"y": 2.4436646785,
				"z": -1.1680485927,
				"element": "H" 
			},
			{
				"x": -0.9801540306,
				"y": 3.0488034703,
				"z": -1.0804422939,
				"element": "H" 
			},
			{
				"x": 1.0916351382,
				"y": 2.9454216815,
				"z": 1.3605225663,
				"element": "H" 
			},
			{
				"x": 1.5585225049,
				"y": 1.3116391959,
				"z": 1.0086797388,
				"element": "H" 
			},
			{
				"x": 1.6101326923,
				"y": 3.6538065891,
				"z": -0.7116328665,
				"element": "H" 
			},
			{
				"x": 0.3774607459,
				"y": 0.6932612482,
				"z": -3.7963187628,
				"element": "H" 
			},
			{
				"x": 1.2096282666,
				"y": -3.319529547,
				"z": -2.4707074976,
				"element": "H" 
			},
			{
				"x": 2.6364098128,
				"y": 0.0168614223,
				"z": -0.182600152,
				"element": "H" 
			},
			{
				"x": 0.6669470483,
				"y": -0.4637047185,
				"z": 2.0530609297,
				"element": "H" 
			},
			{
				"x": 0.3172686639,
				"y": 0.8428318496,
				"z": 3.1830560307,
				"element": "H" 
			},
			{
				"x": -0.7342743842,
				"y": -0.5718373929,
				"z": 3.1180944316,
				"element": "H" 
			},
			{
				"x": -2.7725094313,
				"y": -0.2822180914,
				"z": 2.0895163127,
				"element": "H" 
			}
		],
		 "valence_orbital": [ 
			{
				"type": "occ",
				"energy": -0.30772,
				"method": "rhf"
			},
			{
				"type": "occ",
				"energy": -0.28277,
				"method": "rhf"
			},
			{
				"type": "occ",
				"energy": -0.27014,
				"method": "rhf"
			},
			{
				"type": "occ",
				"energy": -0.2548,
				"method": "rhf"
			},
			{
				"type": "occ",
				"energy": -0.24379,
				"method": "rhf"
			},
			{
				"type": "unocc",
				"energy": -0.1151,
				"method": "rhf"
			},
			{
				"type": "unocc",
				"energy": -0.10577,
				"method": "rhf"
			},
			{
				"type": "unocc",
				"energy": -0.06099,
				"method": "rhf"
			},
			{
				"type": "unocc",
				"energy": -0.01675,
				"method": "rhf"
			},
			{
				"type": "unocc",
				"energy": -0.01185,
				"method": "rhf"
			}
		],
		"cosmo_sigma_profile": { 
			"-0.025": 0.0,
			"-0.024": 0.0,
			"-0.023": 0.0,
			"-0.022": 0.0,
			"-0.021": 0.0,
			"-0.02": 0.0,
			"-0.019": 0.0,
			"-0.018": 0.0,
			"-0.017": 0.0,
			"-0.016": 0.0,
			"-0.015": 0.0772300247341,
			"-0.014": 0.988913322325,
			"-0.013": 1.17102263532,
			"-0.012": 1.34997666669,
			"-0.011": 1.26001065129,
			"-0.01": 1.43619209464,
			"-0.009": 2.63927888543,
			"-0.008": 6.38009695565,
			"-0.007": 10.5991527437,
			"-0.006": 12.6783059032,
			"-0.005": 21.6387664184,
			"-0.004": 36.390304086,
			"-0.003": 39.0819894134,
			"-0.002": 26.8857475194,
			"-0.001": 26.9902821436,
			"0.0": 28.332687515,
			"0.001": 18.1317438843,
			"0.002": 13.6659377388,
			"0.003": 13.4009379046,
			"0.004": 14.1325328956,
			"0.005": 14.9542667166,
			"0.006": 19.7851827792,
			"0.007": 18.1344397997,
			"0.008": 10.1071236841,
			"0.009": 7.01901404364,
			"0.01": 1.18135521786,
			"0.011": 2.07313268281,
			"0.012": 4.09232108308,
			"0.013": 4.08996727835,
			"0.014": 0.299827019533,
			"0.015": 0.0,
			"0.016": 0.0,
			"0.017": 0.0,
			"0.018": 0.0,
			"0.019": 0.0,
			"0.02": 0.0,
			"0.021": 0.0,
			"0.022": 0.0,
			"0.023": 0.0,
			"0.024": 0.0,
			"0.025": 0.0
		}
	}
}
