{
	 "smiles": "C[C@@H](C1=CC2=C(C=CC=C2)[C@@H](C)N=N1)C(C)(C)C", 
	 "Tm": 375.5, 
	 "num_atms": 40, 
	 "gaussian": { 
		 "optdone": 1, 
		 "sigma_profile": "yes", 
		 "theory": "DFT", 
		 "functional": "B3LYP", 
		 "basiset": "6-31G**", 
		 "properties": { 
			 "R2extent": 5831.566, 
			 "electric_dipole_moment_norm": 0.869611855945, 
			 "electric_quadrupole_moment_norm": 8.39785447719, 
			 "total_energy": -732.378514197, 
			 "HOMO_LUMO_gap": 0.1334, 
			 "cosmo_polarized_energy": -7.49, 
			 "cosmo_cavitation_energy": 39.54, 
			 "cosmo_dispersion_energy": -27.19, 
			 "cosmo_repulsion_energy": 2.08, 
			 "cosmo_total_nonelectrostatic_energy": 14.44, 
			 "SMD_solvation_energy": 4.57 
		},
		"coords": [
			{
				"x": 0.3595292152,
				"y": 2.4570215394,
				"z": -0.7509568046,
				"element": "C" 
			},
			{
				"x": 0.4954476539,
				"y": 1.0017215478,
				"z": -1.2483362234,
				"element": "C" 
			},
			{
				"x": 0.70277631,
				"y": 0.0994783933,
				"z": -0.0575776453,
				"element": "C" 
			},
			{
				"x": 1.7598718812,
				"y": -0.7396419063,
				"z": 0.1562203882,
				"element": "C" 
			},
			{
				"x": 1.8664414387,
				"y": -1.8734329037,
				"z": 1.1298882857,
				"element": "C" 
			},
			{
				"x": 1.0584722182,
				"y": -2.18271411,
				"z": 2.2800699063,
				"element": "C" 
			},
			{
				"x": 1.2242041349,
				"y": -3.41379201,
				"z": 2.919738337,
				"element": "C" 
			},
			{
				"x": 2.2003360538,
				"y": -4.3320063539,
				"z": 2.5320865938,
				"element": "C" 
			},
			{
				"x": 3.0367265884,
				"y": -4.0184255325,
				"z": 1.4648667877,
				"element": "C" 
			},
			{
				"x": 2.8563908383,
				"y": -2.8185408857,
				"z": 0.7839507303,
				"element": "C" 
			},
			{
				"x": -0.0230226107,
				"y": -1.2220564803,
				"z": 2.8722888466,
				"element": "C" 
			},
			{
				"x": 0.1596932689,
				"y": -0.9046020035,
				"z": 4.3538693128,
				"element": "C" 
			},
			{
				"x": 0.2648212085,
				"y": -0.0655127846,
				"z": 2.0450491972,
				"element": "N" 
			},
			{
				"x": -0.2889871297,
				"y": -0.1486262379,
				"z": 0.9109360695,
				"element": "N" 
			},
			{
				"x": -0.6587908711,
				"y": 0.5386523592,
				"z": -2.2185536336,
				"element": "C" 
			},
			{
				"x": -0.4862618398,
				"y": -0.9584368139,
				"z": -2.5444299723,
				"element": "C" 
			},
			{
				"x": -2.0592988136,
				"y": 0.7628313705,
				"z": -1.6131108806,
				"element": "C" 
			},
			{
				"x": -0.5480016727,
				"y": 1.3330068809,
				"z": -3.5374761336,
				"element": "C" 
			},
			{
				"x": 0.2414858976,
				"y": 3.1606375552,
				"z": -1.5793422048,
				"element": "H" 
			},
			{
				"x": 1.2531391853,
				"y": 2.7469825244,
				"z": -0.1898834674,
				"element": "H" 
			},
			{
				"x": -0.4975966726,
				"y": 2.5702290871,
				"z": -0.0808020985,
				"element": "H" 
			},
			{
				"x": 1.4202178106,
				"y": 0.9360885936,
				"z": -1.8373465345,
				"element": "H" 
			},
			{
				"x": 2.5409669848,
				"y": -0.751002223,
				"z": -0.6022799481,
				"element": "H" 
			},
			{
				"x": 0.5883231252,
				"y": -3.6504760575,
				"z": 3.7682991679,
				"element": "H" 
			},
			{
				"x": 2.3146311879,
				"y": -5.2659627118,
				"z": 3.0743505816,
				"element": "H" 
			},
			{
				"x": 3.8169539056,
				"y": -4.706026058,
				"z": 1.1516996258,
				"element": "H" 
			},
			{
				"x": 3.4942062379,
				"y": -2.6018196832,
				"z": -0.0690044951,
				"element": "H" 
			},
			{
				"x": -1.0141270438,
				"y": -1.6526719954,
				"z": 2.6612908637,
				"element": "H" 
			},
			{
				"x": 0.0927478887,
				"y": -1.8032654918,
				"z": 4.9719890521,
				"element": "H" 
			},
			{
				"x": 1.1347759587,
				"y": -0.4387337792,
				"z": 4.5203942843,
				"element": "H" 
			},
			{
				"x": -0.618147589,
				"y": -0.2093362738,
				"z": 4.6853202961,
				"element": "H" 
			},
			{
				"x": -1.2215987291,
				"y": -1.2703654314,
				"z": -3.2942609546,
				"element": "H" 
			},
			{
				"x": -0.6237691461,
				"y": -1.5831491888,
				"z": -1.6577726987,
				"element": "H" 
			},
			{
				"x": 0.5107841509,
				"y": -1.1661570165,
				"z": -2.950819267,
				"element": "H" 
			},
			{
				"x": -2.8265516891,
				"y": 0.3985677228,
				"z": -2.3058968673,
				"element": "H" 
			},
			{
				"x": -2.1753736631,
				"y": 0.2288626628,
				"z": -0.6662949038,
				"element": "H" 
			},
			{
				"x": -2.260085435,
				"y": 1.8241268766,
				"z": -1.4347172132,
				"element": "H" 
			},
			{
				"x": -1.3096803083,
				"y": 0.9925830856,
				"z": -4.2475246605,
				"element": "H" 
			},
			{
				"x": 0.4316699532,
				"y": 1.1906937607,
				"z": -4.0086048588,
				"element": "H" 
			},
			{
				"x": -0.6990198829,
				"y": 2.4066699728,
				"z": -3.3903168612,
				"element": "H" 
			}
		],
		 "valence_orbital": [ 
			{
				"type": "occ",
				"energy": -0.29775,
				"method": "rhf"
			},
			{
				"type": "occ",
				"energy": -0.28326,
				"method": "rhf"
			},
			{
				"type": "occ",
				"energy": -0.24772,
				"method": "rhf"
			},
			{
				"type": "occ",
				"energy": -0.22759,
				"method": "rhf"
			},
			{
				"type": "occ",
				"energy": -0.20166,
				"method": "rhf"
			},
			{
				"type": "unocc",
				"energy": -0.06826,
				"method": "rhf"
			},
			{
				"type": "unocc",
				"energy": -0.01987,
				"method": "rhf"
			},
			{
				"type": "unocc",
				"energy": -7e-05,
				"method": "rhf"
			},
			{
				"type": "unocc",
				"energy": 0.05548,
				"method": "rhf"
			},
			{
				"type": "unocc",
				"energy": 0.07873,
				"method": "rhf"
			}
		],
		"cosmo_sigma_profile": { 
			"-0.025": 0.0,
			"-0.024": 0.0,
			"-0.023": 0.0,
			"-0.022": 0.0,
			"-0.021": 0.0,
			"-0.02": 0.0,
			"-0.019": 0.0,
			"-0.018": 0.0,
			"-0.017": 0.0,
			"-0.016": 0.0,
			"-0.015": 0.0,
			"-0.014": 0.0,
			"-0.013": 0.0,
			"-0.012": 0.0,
			"-0.011": 0.0,
			"-0.01": 0.0,
			"-0.009": 0.0,
			"-0.008": 0.0,
			"-0.007": 1.64887749069,
			"-0.006": 9.23641997729,
			"-0.005": 13.3441115427,
			"-0.004": 20.1268377379,
			"-0.003": 27.7762796156,
			"-0.002": 40.1548747355,
			"-0.001": 34.0529176615,
			"0.0": 35.2447186991,
			"0.001": 37.5839404104,
			"0.002": 28.8209558186,
			"0.003": 15.0998683194,
			"0.004": 14.2779269178,
			"0.005": 14.3281218084,
			"0.006": 6.27626974425,
			"0.007": 2.64060948295,
			"0.008": 1.95200065729,
			"0.009": 1.76417804854,
			"0.01": 1.3447523574,
			"0.011": 0.966781099724,
			"0.012": 1.19182978575,
			"0.013": 0.334671207426,
			"0.014": 0.554753291205,
			"0.015": 0.304521249728,
			"0.016": 0.0,
			"0.017": 0.0,
			"0.018": 0.0,
			"0.019": 0.0,
			"0.02": 0.0,
			"0.021": 0.0,
			"0.022": 0.0,
			"0.023": 0.0,
			"0.024": 0.0,
			"0.025": 0.0
		}
	}
}
