{
	 "smiles": "ClCC(=O)NCC#C", 
	 "Tm": 338.15, 
	 "num_atms": 14, 
	 "gaussian": { 
		 "optdone": 1, 
		 "sigma_profile": "yes", 
		 "theory": "DFT", 
		 "functional": "B3LYP", 
		 "basiset": "6-31G**", 
		 "properties": { 
			 "R2extent": 1893.8285, 
			 "electric_dipole_moment_norm": 3.38619597484, 
			 "electric_quadrupole_moment_norm": 7.28221148896, 
			 "total_energy": -784.243359926, 
			 "HOMO_LUMO_gap": 0.23542, 
			 "cosmo_polarized_energy": -12.14, 
			 "cosmo_cavitation_energy": 20.89, 
			 "cosmo_dispersion_energy": -14.58, 
			 "cosmo_repulsion_energy": 1.24, 
			 "cosmo_total_nonelectrostatic_energy": 7.55, 
			 "SMD_solvation_energy": 4.99 
		},
		"coords": [
			{
				"x": 2.8517458747,
				"y": -1.0539409597,
				"z": -1.9142382969,
				"element": "Cl" 
			},
			{
				"x": 1.5671465469,
				"y": -1.0088988949,
				"z": -0.6281809745,
				"element": "C" 
			},
			{
				"x": 1.1260795558,
				"y": 0.4148605155,
				"z": -0.2854433754,
				"element": "C" 
			},
			{
				"x": 1.388900408,
				"y": 0.8978459004,
				"z": 0.8049004136,
				"element": "O" 
			},
			{
				"x": 0.427708282,
				"y": 1.109311866,
				"z": -1.2380844618,
				"element": "N" 
			},
			{
				"x": -0.1624808904,
				"y": 0.5703146468,
				"z": -2.4618399305,
				"element": "C" 
			},
			{
				"x": -1.3958366838,
				"y": -0.2013486322,
				"z": -2.248814202,
				"element": "C" 
			},
			{
				"x": -2.3983935946,
				"y": -0.8480922635,
				"z": -2.0621839282,
				"element": "C" 
			},
			{
				"x": 2.0017552151,
				"y": -1.4378429227,
				"z": 0.2713948698,
				"element": "H" 
			},
			{
				"x": 0.7377175833,
				"y": -1.6237048319,
				"z": -0.9832977361,
				"element": "H" 
			},
			{
				"x": 0.0768268453,
				"y": 1.9965879006,
				"z": -0.9008704338,
				"element": "H" 
			},
			{
				"x": -0.3652969653,
				"y": 1.4154939262,
				"z": -3.1282406102,
				"element": "H" 
			},
			{
				"x": 0.5809063164,
				"y": -0.0468856536,
				"z": -2.9759081625,
				"element": "H" 
			},
			{
				"x": -3.2887784934,
				"y": -1.4102005971,
				"z": -1.8971931716,
				"element": "H" 
			}
		],
		 "valence_orbital": [ 
			{
				"type": "occ",
				"energy": -0.31163,
				"method": "rhf"
			},
			{
				"type": "occ",
				"energy": -0.29631,
				"method": "rhf"
			},
			{
				"type": "occ",
				"energy": -0.2841,
				"method": "rhf"
			},
			{
				"type": "occ",
				"energy": -0.27004,
				"method": "rhf"
			},
			{
				"type": "occ",
				"energy": -0.26075,
				"method": "rhf"
			},
			{
				"type": "unocc",
				"energy": -0.02533,
				"method": "rhf"
			},
			{
				"type": "unocc",
				"energy": 0.02124,
				"method": "rhf"
			},
			{
				"type": "unocc",
				"energy": 0.03536,
				"method": "rhf"
			},
			{
				"type": "unocc",
				"energy": 0.05513,
				"method": "rhf"
			},
			{
				"type": "unocc",
				"energy": 0.08307,
				"method": "rhf"
			}
		],
		"cosmo_sigma_profile": { 
			"-0.025": 0.0,
			"-0.024": 0.0,
			"-0.023": 0.0,
			"-0.022": 0.0,
			"-0.021": 0.0,
			"-0.02": 0.0,
			"-0.019": 0.0,
			"-0.018": 0.0,
			"-0.017": 0.0,
			"-0.016": 0.0,
			"-0.015": 0.497562703172,
			"-0.014": 1.2267732181,
			"-0.013": 1.69770217582,
			"-0.012": 1.44979172624,
			"-0.011": 2.93147829391,
			"-0.01": 1.81999570521,
			"-0.009": 3.60435147,
			"-0.008": 7.40959476534,
			"-0.007": 7.00455955557,
			"-0.006": 10.4720035579,
			"-0.005": 10.2314125963,
			"-0.004": 7.06373353132,
			"-0.003": 5.76249976808,
			"-0.002": 7.14413317045,
			"-0.001": 7.00464817749,
			"0.0": 8.98812092976,
			"0.001": 8.53857937588,
			"0.002": 12.2137472869,
			"0.003": 11.6340630181,
			"0.004": 12.2699913088,
			"0.005": 13.5012334996,
			"0.006": 9.39640401164,
			"0.007": 1.9332035357,
			"0.008": 1.29987428378,
			"0.009": 1.25073768114,
			"0.01": 1.51173079601,
			"0.011": 2.01465782253,
			"0.012": 4.17809333682,
			"0.013": 4.76796275287,
			"0.014": 0.604126375473,
			"0.015": 0.0,
			"0.016": 0.0,
			"0.017": 0.0,
			"0.018": 0.0,
			"0.019": 0.0,
			"0.02": 0.0,
			"0.021": 0.0,
			"0.022": 0.0,
			"0.023": 0.0,
			"0.024": 0.0,
			"0.025": 0.0
		}
	}
}
