{
	 "smiles": "ON=CC1=CC=CO1", 
	 "Tm": 352.15, 
	 "num_atms": 13, 
	 "gaussian": { 
		 "optdone": 1, 
		 "sigma_profile": "yes", 
		 "theory": "DFT", 
		 "functional": "B3LYP", 
		 "basiset": "6-31G**", 
		 "properties": { 
			 "R2extent": 1422.6957, 
			 "electric_dipole_moment_norm": 1.30730182054, 
			 "electric_quadrupole_moment_norm": 6.68724519963, 
			 "total_energy": -398.652607965, 
			 "HOMO_LUMO_gap": 0.17943, 
			 "cosmo_polarized_energy": -7.79, 
			 "cosmo_cavitation_energy": 17.78, 
			 "cosmo_dispersion_energy": -13.41, 
			 "cosmo_repulsion_energy": 1.12, 
			 "cosmo_total_nonelectrostatic_energy": 5.49, 
			 "SMD_solvation_energy": 4.34 
		},
		"coords": [
			{
				"x": -0.3159636639,
				"y": -2.7236049719,
				"z": -0.1073899664,
				"element": "O" 
			},
			{
				"x": 0.1625838043,
				"y": -2.2517257842,
				"z": 1.1236185314,
				"element": "N" 
			},
			{
				"x": 0.9608945513,
				"y": -1.2520814811,
				"z": 0.9778912506,
				"element": "C" 
			},
			{
				"x": 1.3983545135,
				"y": -0.5953195429,
				"z": -0.2298894599,
				"element": "C" 
			},
			{
				"x": 1.1696472051,
				"y": -0.7472872447,
				"z": -1.5775899559,
				"element": "C" 
			},
			{
				"x": 1.9346696333,
				"y": 0.2605435249,
				"z": -2.2356846954,
				"element": "C" 
			},
			{
				"x": 2.5756490907,
				"y": 0.9565283887,
				"z": -1.2518771296,
				"element": "C" 
			},
			{
				"x": 2.265717509,
				"y": 0.4559079794,
				"z": -0.0305006167,
				"element": "O" 
			},
			{
				"x": -0.8870117228,
				"y": -3.4545298077,
				"z": 0.162784273,
				"element": "H" 
			},
			{
				"x": 1.3540776554,
				"y": -0.8569161084,
				"z": 1.9116548427,
				"element": "H" 
			},
			{
				"x": 0.5308078966,
				"y": -1.4929196157,
				"z": -2.0207842846,
				"element": "H" 
			},
			{
				"x": 1.9998213041,
				"y": 0.4437158194,
				"z": -3.2985112471,
				"element": "H" 
			},
			{
				"x": 3.2547522235,
				"y": 1.7952888442,
				"z": -1.2585215421,
				"element": "H" 
			}
		],
		 "valence_orbital": [ 
			{
				"type": "occ",
				"energy": -0.37647,
				"method": "rhf"
			},
			{
				"type": "occ",
				"energy": -0.28872,
				"method": "rhf"
			},
			{
				"type": "occ",
				"energy": -0.28088,
				"method": "rhf"
			},
			{
				"type": "occ",
				"energy": -0.2774,
				"method": "rhf"
			},
			{
				"type": "occ",
				"energy": -0.21638,
				"method": "rhf"
			},
			{
				"type": "unocc",
				"energy": -0.03695,
				"method": "rhf"
			},
			{
				"type": "unocc",
				"energy": 0.04422,
				"method": "rhf"
			},
			{
				"type": "unocc",
				"energy": 0.07235,
				"method": "rhf"
			},
			{
				"type": "unocc",
				"energy": 0.11014,
				"method": "rhf"
			},
			{
				"type": "unocc",
				"energy": 0.11596,
				"method": "rhf"
			}
		],
		"cosmo_sigma_profile": { 
			"-0.025": 0.0,
			"-0.024": 0.0,
			"-0.023": 0.0,
			"-0.022": 0.0,
			"-0.021": 0.0,
			"-0.02": 0.0,
			"-0.019": 0.0,
			"-0.018": 0.305590541931,
			"-0.017": 1.06825761523,
			"-0.016": 0.898372573539,
			"-0.015": 0.927885563379,
			"-0.014": 0.821393153409,
			"-0.013": 0.66373125587,
			"-0.012": 0.276984786467,
			"-0.011": 0.127348760262,
			"-0.01": 0.924497856108,
			"-0.009": 3.46467490021,
			"-0.008": 4.8424339559,
			"-0.007": 5.58734093816,
			"-0.006": 4.84321452569,
			"-0.005": 7.64121054931,
			"-0.004": 6.47432335153,
			"-0.003": 5.60519681193,
			"-0.002": 7.30795771515,
			"-0.001": 6.95218463905,
			"0.0": 7.44143146102,
			"0.001": 9.85904760112,
			"0.002": 13.9248940966,
			"0.003": 11.9172345554,
			"0.004": 13.1249410867,
			"0.005": 7.41768338014,
			"0.006": 5.83050604179,
			"0.007": 5.09614857519,
			"0.008": 3.04251737834,
			"0.009": 2.46411886394,
			"0.01": 0.74230001333,
			"0.011": 0.894881048258,
			"0.012": 0.943427933175,
			"0.013": 1.12189828641,
			"0.014": 0.187605795479,
			"0.015": 0.0,
			"0.016": 0.0,
			"0.017": 0.0,
			"0.018": 0.0,
			"0.019": 0.0,
			"0.02": 0.0,
			"0.021": 0.0,
			"0.022": 0.0,
			"0.023": 0.0,
			"0.024": 0.0,
			"0.025": 0.0
		}
	}
}
