{
	 "smiles": "OS(=O)(=O)C1=NC2=C(N1)C=CC=C2", 
	 "Tm": 391.15, 
	 "num_atms": 19, 
	 "gaussian": { 
		 "optdone": 1, 
		 "sigma_profile": "yes", 
		 "theory": "DFT", 
		 "functional": "B3LYP", 
		 "basiset": "6-31G**", 
		 "properties": { 
			 "R2extent": 3217.8649, 
			 "electric_dipole_moment_norm": 3.92354723815, 
			 "electric_quadrupole_moment_norm": 15.7438946646, 
			 "total_energy": -1003.65289961, 
			 "HOMO_LUMO_gap": 0.19448, 
			 "cosmo_polarized_energy": -17.22, 
			 "cosmo_cavitation_energy": 25.5, 
			 "cosmo_dispersion_energy": -19.89, 
			 "cosmo_repulsion_energy": 1.52, 
			 "cosmo_total_nonelectrostatic_energy": 7.13, 
			 "SMD_solvation_energy": 1.07 
		},
		"coords": [
			{
				"x": -1.058518291,
				"y": -3.3078440372,
				"z": -1.6351296075,
				"element": "O" 
			},
			{
				"x": -0.4330032972,
				"y": -2.0707096007,
				"z": -2.4933860905,
				"element": "S" 
			},
			{
				"x": 0.745882794,
				"y": -2.5530657974,
				"z": -3.1961632117,
				"element": "O" 
			},
			{
				"x": -1.5575469549,
				"y": -1.4406885187,
				"z": -3.1707853586,
				"element": "O" 
			},
			{
				"x": 0.0489430363,
				"y": -0.938701113,
				"z": -1.2060390364,
				"element": "C" 
			},
			{
				"x": 0.9756573078,
				"y": -1.1609100061,
				"z": -0.316002897,
				"element": "N" 
			},
			{
				"x": 0.9791667252,
				"y": -0.008119765,
				"z": 0.4560926005,
				"element": "C" 
			},
			{
				"x": 0.0075767055,
				"y": 0.9103725759,
				"z": -0.0212050466,
				"element": "C" 
			},
			{
				"x": -0.5794703682,
				"y": 0.2746061978,
				"z": -1.0989118241,
				"element": "N" 
			},
			{
				"x": -0.2003010957,
				"y": 2.159163266,
				"z": 0.5728253502,
				"element": "C" 
			},
			{
				"x": 0.5976046643,
				"y": 2.4640597898,
				"z": 1.6692159749,
				"element": "C" 
			},
			{
				"x": 1.5689540468,
				"y": 1.561784963,
				"z": 2.1578081175,
				"element": "C" 
			},
			{
				"x": 1.7728428481,
				"y": 0.3238277176,
				"z": 1.5642632677,
				"element": "C" 
			},
			{
				"x": -0.3261602282,
				"y": -3.9003380614,
				"z": -1.3904548955,
				"element": "H" 
			},
			{
				"x": -1.3253949091,
				"y": 0.5922112948,
				"z": -1.7016053976,
				"element": "H" 
			},
			{
				"x": -0.944645136,
				"y": 2.8558456055,
				"z": 0.2010122757,
				"element": "H" 
			},
			{
				"x": 0.4714304712,
				"y": 3.4222501058,
				"z": 2.1639978452,
				"element": "H" 
			},
			{
				"x": 2.167386272,
				"y": 1.8487992971,
				"z": 3.0168903292,
				"element": "H" 
			},
			{
				"x": 2.5176954091,
				"y": -0.3738439137,
				"z": 1.9317776045,
				"element": "H" 
			}
		],
		 "valence_orbital": [ 
			{
				"type": "occ",
				"energy": -0.32938,
				"method": "rhf"
			},
			{
				"type": "occ",
				"energy": -0.32592,
				"method": "rhf"
			},
			{
				"type": "occ",
				"energy": -0.30373,
				"method": "rhf"
			},
			{
				"type": "occ",
				"energy": -0.25168,
				"method": "rhf"
			},
			{
				"type": "occ",
				"energy": -0.24774,
				"method": "rhf"
			},
			{
				"type": "unocc",
				"energy": -0.05326,
				"method": "rhf"
			},
			{
				"type": "unocc",
				"energy": 1e-05,
				"method": "rhf"
			},
			{
				"type": "unocc",
				"energy": 0.01253,
				"method": "rhf"
			},
			{
				"type": "unocc",
				"energy": 0.03365,
				"method": "rhf"
			},
			{
				"type": "unocc",
				"energy": 0.06332,
				"method": "rhf"
			}
		],
		"cosmo_sigma_profile": { 
			"-0.025": 0.0,
			"-0.024": 0.0,
			"-0.023": 0.0,
			"-0.022": 0.0,
			"-0.021": 0.424940071499,
			"-0.02": 1.06805119559,
			"-0.019": 0.935281537363,
			"-0.018": 0.869526980467,
			"-0.017": 1.26376519439,
			"-0.016": 2.19360771664,
			"-0.015": 1.25833440451,
			"-0.014": 1.78497438368,
			"-0.013": 1.82161307035,
			"-0.012": 1.30686012431,
			"-0.011": 1.90283611402,
			"-0.01": 2.09448274239,
			"-0.009": 1.89620516262,
			"-0.008": 2.66129008903,
			"-0.007": 6.43791677378,
			"-0.006": 11.1677087962,
			"-0.005": 10.5399739272,
			"-0.004": 11.6726670227,
			"-0.003": 8.00752198109,
			"-0.002": 11.0218027569,
			"-0.001": 10.2952350758,
			"0.0": 9.88145235799,
			"0.001": 10.6140119799,
			"0.002": 12.5710193626,
			"0.003": 15.1664111346,
			"0.004": 14.6425986234,
			"0.005": 8.91998728212,
			"0.006": 6.6487073481,
			"0.007": 6.11659850522,
			"0.008": 8.89386316841,
			"0.009": 12.6494187474,
			"0.01": 5.08146204102,
			"0.011": 1.04171775947,
			"0.012": 0.562304784631,
			"0.013": 1.11054878167,
			"0.014": 0.495580541646,
			"0.015": 0.223618597131,
			"0.016": 0.0,
			"0.017": 0.0,
			"0.018": 0.0,
			"0.019": 0.0,
			"0.02": 0.0,
			"0.021": 0.0,
			"0.022": 0.0,
			"0.023": 0.0,
			"0.024": 0.0,
			"0.025": 0.0
		}
	}
}
