{
	 "smiles": "CC1=NN(C=C1)C1=NN=C(Cl)C=C1", 
	 "Tm": 443.15, 
	 "num_atms": 20, 
	 "gaussian": { 
		 "optdone": 1, 
		 "sigma_profile": "yes", 
		 "theory": "DFT", 
		 "functional": "B3LYP", 
		 "basiset": "6-31G**", 
		 "properties": { 
			 "R2extent": 4478.2854, 
			 "electric_dipole_moment_norm": 5.87444068997, 
			 "electric_quadrupole_moment_norm": 13.569925467, 
			 "total_energy": -988.197411253, 
			 "HOMO_LUMO_gap": 0.17497, 
			 "cosmo_polarized_energy": -19.04, 
			 "cosmo_cavitation_energy": 26.94, 
			 "cosmo_dispersion_energy": -20.29, 
			 "cosmo_repulsion_energy": 1.6, 
			 "cosmo_total_nonelectrostatic_energy": 8.26, 
			 "SMD_solvation_energy": 2.38 
		},
		"coords": [
			{
				"x": 1.1963907729,
				"y": -1.5430945878,
				"z": 2.7510214314,
				"element": "C" 
			},
			{
				"x": 0.6327700522,
				"y": -0.4372276098,
				"z": 1.908696274,
				"element": "C" 
			},
			{
				"x": -0.0485943799,
				"y": -0.7090865356,
				"z": 0.8041286959,
				"element": "N" 
			},
			{
				"x": -0.406825926,
				"y": 0.5053290314,
				"z": 0.2963127719,
				"element": "N" 
			},
			{
				"x": 0.0498150561,
				"y": 1.5388404162,
				"z": 1.0822723866,
				"element": "C" 
			},
			{
				"x": 0.7238569502,
				"y": 0.9679681747,
				"z": 2.1298421184,
				"element": "C" 
			},
			{
				"x": -1.1536451234,
				"y": 0.596813786,
				"z": -0.8934896487,
				"element": "C" 
			},
			{
				"x": -1.4810469003,
				"y": -0.5569892115,
				"z": -1.4797046501,
				"element": "N" 
			},
			{
				"x": -2.1875511401,
				"y": -0.5468977973,
				"z": -2.6093744103,
				"element": "N" 
			},
			{
				"x": -2.5581881141,
				"y": 0.6051815464,
				"z": -3.1399272422,
				"element": "C" 
			},
			{
				"x": -3.4825019286,
				"y": 0.5216008758,
				"z": -4.6229204652,
				"element": "Cl" 
			},
			{
				"x": -2.2537507254,
				"y": 1.8559058091,
				"z": -2.585285944,
				"element": "C" 
			},
			{
				"x": -1.5236855802,
				"y": 1.8518904129,
				"z": -1.4176012992,
				"element": "C" 
			},
			{
				"x": 0.4022885034,
				"y": -2.2054744669,
				"z": 3.109276408,
				"element": "H" 
			},
			{
				"x": 1.8973039537,
				"y": -2.1551650445,
				"z": 2.1750135672,
				"element": "H" 
			},
			{
				"x": 1.7246963368,
				"y": -1.1393811682,
				"z": 3.6181519024,
				"element": "H" 
			},
			{
				"x": -0.1322555459,
				"y": 2.5750697618,
				"z": 0.8466048639,
				"element": "H" 
			},
			{
				"x": 1.2157083975,
				"y": 1.47960969,
				"z": 2.944101506,
				"element": "H" 
			},
			{
				"x": -2.5802071287,
				"y": 2.774761921,
				"z": -3.0578386558,
				"element": "H" 
			},
			{
				"x": -1.2532775302,
				"y": 2.7829449961,
				"z": -0.9346796103,
				"element": "H" 
			}
		],
		 "valence_orbital": [ 
			{
				"type": "occ",
				"energy": -0.30006,
				"method": "rhf"
			},
			{
				"type": "occ",
				"energy": -0.29237,
				"method": "rhf"
			},
			{
				"type": "occ",
				"energy": -0.25856,
				"method": "rhf"
			},
			{
				"type": "occ",
				"energy": -0.24628,
				"method": "rhf"
			},
			{
				"type": "occ",
				"energy": -0.24295,
				"method": "rhf"
			},
			{
				"type": "unocc",
				"energy": -0.06798,
				"method": "rhf"
			},
			{
				"type": "unocc",
				"energy": -0.05329,
				"method": "rhf"
			},
			{
				"type": "unocc",
				"energy": 0.01889,
				"method": "rhf"
			},
			{
				"type": "unocc",
				"energy": 0.0212,
				"method": "rhf"
			},
			{
				"type": "unocc",
				"energy": 0.06167,
				"method": "rhf"
			}
		],
		"cosmo_sigma_profile": { 
			"-0.025": 0.0,
			"-0.024": 0.0,
			"-0.023": 0.0,
			"-0.022": 0.0,
			"-0.021": 0.0,
			"-0.02": 0.0,
			"-0.019": 0.0,
			"-0.018": 0.0,
			"-0.017": 0.0,
			"-0.016": 0.0,
			"-0.015": 0.0,
			"-0.014": 0.138507388097,
			"-0.013": 1.12488934966,
			"-0.012": 1.83378455513,
			"-0.011": 2.25785521605,
			"-0.01": 4.09494977628,
			"-0.009": 5.52501845283,
			"-0.008": 4.66139061409,
			"-0.007": 5.40633075702,
			"-0.006": 5.81067668336,
			"-0.005": 12.1681203976,
			"-0.004": 16.1411911904,
			"-0.003": 19.9353699936,
			"-0.002": 19.1805096124,
			"-0.001": 18.6842269494,
			"0.0": 14.5574809635,
			"0.001": 10.74085753,
			"0.002": 12.7274883848,
			"0.003": 16.8448619233,
			"0.004": 12.4571391855,
			"0.005": 4.32949067024,
			"0.006": 2.66618094691,
			"0.007": 3.35304361485,
			"0.008": 2.88299937883,
			"0.009": 3.13668834725,
			"0.01": 2.72052386821,
			"0.011": 2.08076393099,
			"0.012": 3.88502162361,
			"0.013": 3.00389739687,
			"0.014": 1.6783054908,
			"0.015": 1.39091126413,
			"0.016": 1.40873110685,
			"0.017": 0.90172943151,
			"0.018": 0.761702710206,
			"0.019": 0.994054819201,
			"0.02": 0.197868838452,
			"0.021": 0.0,
			"0.022": 0.0,
			"0.023": 0.0,
			"0.024": 0.0,
			"0.025": 0.0
		}
	}
}
