{
	 "smiles": "CC(=O)N1C(=O)N(CC2=CC(=CC=C12)C(F)(C(F)(F)F)C(F)(F)F)NCC1=CN=CC=C1", 
	 "Tm": 411.15, 
	 "num_atms": 47, 
	 "gaussian": { 
		 "optdone": 1, 
		 "sigma_profile": "yes", 
		 "theory": "DFT", 
		 "functional": "B3LYP", 
		 "basiset": "6-31G**", 
		 "properties": { 
			 "R2extent": 13146.7905, 
			 "electric_dipole_moment_norm": 5.66434690851, 
			 "electric_quadrupole_moment_norm": 22.2116868162, 
			 "total_energy": -1801.37788638, 
			 "HOMO_LUMO_gap": 0.20173, 
			 "cosmo_polarized_energy": -22.51, 
			 "cosmo_cavitation_energy": 52.29, 
			 "cosmo_dispersion_energy": -33.31, 
			 "cosmo_repulsion_energy": 2.32, 
			 "cosmo_total_nonelectrostatic_energy": 21.3, 
			 "SMD_solvation_energy": 10.65 
		},
		"coords": [
			{
				"x": -4.8207684906,
				"y": 2.0997109109,
				"z": 1.3420956662,
				"element": "C" 
			},
			{
				"x": -3.3339841948,
				"y": 2.01360639,
				"z": 1.612846039,
				"element": "C" 
			},
			{
				"x": -2.7898295278,
				"y": 2.7832909196,
				"z": 2.3828451446,
				"element": "O" 
			},
			{
				"x": -2.564280058,
				"y": 1.0451873216,
				"z": 0.909820691,
				"element": "N" 
			},
			{
				"x": -3.2015868124,
				"y": 0.0337434431,
				"z": 0.1036026118,
				"element": "C" 
			},
			{
				"x": -4.307194667,
				"y": -0.3993964657,
				"z": 0.3578239111,
				"element": "O" 
			},
			{
				"x": -2.4100626018,
				"y": -0.4069762441,
				"z": -0.9359268303,
				"element": "N" 
			},
			{
				"x": -1.2075515653,
				"y": 0.3365633797,
				"z": -1.3343238166,
				"element": "C" 
			},
			{
				"x": -0.4086830538,
				"y": 0.6568568099,
				"z": -0.1024500753,
				"element": "C" 
			},
			{
				"x": 0.9786244101,
				"y": 0.5610828765,
				"z": -0.0570769071,
				"element": "C" 
			},
			{
				"x": 1.6618479444,
				"y": 0.841520074,
				"z": 1.130649918,
				"element": "C" 
			},
			{
				"x": 0.9323042057,
				"y": 1.2027924403,
				"z": 2.2666685446,
				"element": "C" 
			},
			{
				"x": -0.4580584823,
				"y": 1.2858681148,
				"z": 2.232017905,
				"element": "C" 
			},
			{
				"x": -1.1365668877,
				"y": 1.0204745917,
				"z": 1.037252884,
				"element": "C" 
			},
			{
				"x": 3.1763912472,
				"y": 0.7546014557,
				"z": 1.2163795688,
				"element": "C" 
			},
			{
				"x": 3.5929219304,
				"y": 0.9904866332,
				"z": 2.5159523504,
				"element": "F" 
			},
			{
				"x": 3.7139733666,
				"y": -0.661610682,
				"z": 0.8790022624,
				"element": "C" 
			},
			{
				"x": 3.0647993337,
				"y": -1.5796806708,
				"z": 1.6012014763,
				"element": "F" 
			},
			{
				"x": 3.5468782054,
				"y": -0.9428698092,
				"z": -0.4308203724,
				"element": "F" 
			},
			{
				"x": 5.0224042688,
				"y": -0.7589773575,
				"z": 1.1556674648,
				"element": "F" 
			},
			{
				"x": 3.8668221932,
				"y": 1.8567406609,
				"z": 0.3736435576,
				"element": "C" 
			},
			{
				"x": 5.1996473745,
				"y": 1.821953713,
				"z": 0.5127291664,
				"element": "F" 
			},
			{
				"x": 3.58065463,
				"y": 1.7191609114,
				"z": -0.9357933897,
				"element": "F" 
			},
			{
				"x": 3.4369134265,
				"y": 3.0616370938,
				"z": 0.7750051493,
				"element": "F" 
			},
			{
				"x": -2.9854564859,
				"y": -1.3527781689,
				"z": -1.7989465553,
				"element": "N" 
			},
			{
				"x": -2.5126298363,
				"y": -2.7342583812,
				"z": -1.5978713931,
				"element": "C" 
			},
			{
				"x": -1.0249661791,
				"y": -2.9805792475,
				"z": -1.7555383017,
				"element": "C" 
			},
			{
				"x": -0.1768461932,
				"y": -2.998125086,
				"z": -0.6394640572,
				"element": "C" 
			},
			{
				"x": 1.1512588112,
				"y": -3.1466235392,
				"z": -0.699992546,
				"element": "N" 
			},
			{
				"x": 1.697879849,
				"y": -3.3001621045,
				"z": -1.9116496498,
				"element": "C" 
			},
			{
				"x": 0.9525992314,
				"y": -3.3236515621,
				"z": -3.093348892,
				"element": "C" 
			},
			{
				"x": -0.4285676326,
				"y": -3.1610874243,
				"z": -3.0098984389,
				"element": "C" 
			},
			{
				"x": -5.155616321,
				"y": 3.0464736077,
				"z": 1.7667917211,
				"element": "H" 
			},
			{
				"x": -5.3432260658,
				"y": 1.2678850199,
				"z": 1.8175666497,
				"element": "H" 
			},
			{
				"x": -5.0606127361,
				"y": 2.0520622917,
				"z": 0.2780074628,
				"element": "H" 
			},
			{
				"x": -1.4898041855,
				"y": 1.255377575,
				"z": -1.874817177,
				"element": "H" 
			},
			{
				"x": -0.6331115367,
				"y": -0.2918298241,
				"z": -2.0154268676,
				"element": "H" 
			},
			{
				"x": 1.5168384789,
				"y": 0.2580550605,
				"z": -0.9463926892,
				"element": "H" 
			},
			{
				"x": 1.4526375999,
				"y": 1.4082721265,
				"z": 3.1937186917,
				"element": "H" 
			},
			{
				"x": -1.0057377513,
				"y": 1.5660790579,
				"z": 3.1188420282,
				"element": "H" 
			},
			{
				"x": -2.8720061954,
				"y": -1.0388320581,
				"z": -2.7584869253,
				"element": "H" 
			},
			{
				"x": -3.0763336664,
				"y": -3.3417449886,
				"z": -2.3148255445,
				"element": "H" 
			},
			{
				"x": -2.8398954935,
				"y": -3.0330903637,
				"z": -0.5976713521,
				"element": "H" 
			},
			{
				"x": -0.5989013888,
				"y": -2.88096514,
				"z": 0.3580225165,
				"element": "H" 
			},
			{
				"x": 2.7802998859,
				"y": -3.4086527306,
				"z": -1.9388504067,
				"element": "H" 
			},
			{
				"x": 1.4449591326,
				"y": -3.4695651144,
				"z": -4.0498535699,
				"element": "H" 
			},
			{
				"x": -1.0399775164,
				"y": -3.177825517,
				"z": -3.9102276237,
				"element": "H" 
			}
		],
		 "valence_orbital": [ 
			{
				"type": "occ",
				"energy": -0.27059,
				"method": "rhf"
			},
			{
				"type": "occ",
				"energy": -0.26394,
				"method": "rhf"
			},
			{
				"type": "occ",
				"energy": -0.26038,
				"method": "rhf"
			},
			{
				"type": "occ",
				"energy": -0.24378,
				"method": "rhf"
			},
			{
				"type": "occ",
				"energy": -0.24247,
				"method": "rhf"
			},
			{
				"type": "unocc",
				"energy": -0.04074,
				"method": "rhf"
			},
			{
				"type": "unocc",
				"energy": -0.03479,
				"method": "rhf"
			},
			{
				"type": "unocc",
				"energy": -0.02651,
				"method": "rhf"
			},
			{
				"type": "unocc",
				"energy": -0.02068,
				"method": "rhf"
			},
			{
				"type": "unocc",
				"energy": -0.00786,
				"method": "rhf"
			}
		],
		"cosmo_sigma_profile": { 
			"-0.025": 0.0,
			"-0.024": 0.0,
			"-0.023": 0.0,
			"-0.022": 0.0,
			"-0.021": 0.0,
			"-0.02": 0.0,
			"-0.019": 0.0,
			"-0.018": 0.0,
			"-0.017": 0.0,
			"-0.016": 0.0,
			"-0.015": 0.0,
			"-0.014": 0.0,
			"-0.013": 0.713090572679,
			"-0.012": 1.93172670306,
			"-0.011": 1.552703996,
			"-0.01": 2.55736141695,
			"-0.009": 2.50305965768,
			"-0.008": 3.72772429224,
			"-0.007": 11.9930599566,
			"-0.006": 25.6210602419,
			"-0.005": 26.582149747,
			"-0.004": 25.241738638,
			"-0.003": 25.958227771,
			"-0.002": 26.496959979,
			"-0.001": 31.3029738906,
			"0.0": 36.0563851852,
			"0.001": 55.8794312554,
			"0.002": 61.0526261684,
			"0.003": 17.1325188836,
			"0.004": 7.2204320596,
			"0.005": 7.02854085392,
			"0.006": 5.70450071998,
			"0.007": 5.23580461719,
			"0.008": 4.70915332268,
			"0.009": 5.36489538457,
			"0.01": 4.28286479417,
			"0.011": 6.28684060212,
			"0.012": 7.10816828937,
			"0.013": 3.65846616434,
			"0.014": 1.61918936625,
			"0.015": 0.973244879766,
			"0.016": 0.392360451995,
			"0.017": 1.19457634754,
			"0.018": 0.423259513189,
			"0.019": 0.0193729010542,
			"0.02": 0.0,
			"0.021": 0.0,
			"0.022": 0.0,
			"0.023": 0.0,
			"0.024": 0.0,
			"0.025": 0.0
		}
	}
}
