{
	 "smiles": "NC(CO)(CO)CO", 
	 "Tm": 444.65, 
	 "num_atms": 19, 
	 "gaussian": { 
		 "optdone": 1, 
		 "sigma_profile": "yes", 
		 "theory": "DFT", 
		 "functional": "B3LYP", 
		 "basiset": "6-31G**", 
		 "properties": { 
			 "R2extent": 1655.5664, 
			 "electric_dipole_moment_norm": 1.37386615069, 
			 "electric_quadrupole_moment_norm": 4.73206720366, 
			 "total_energy": -439.441733396, 
			 "HOMO_LUMO_gap": 0.29474, 
			 "cosmo_polarized_energy": -14.73, 
			 "cosmo_cavitation_energy": 20.86, 
			 "cosmo_dispersion_energy": -15.68, 
			 "cosmo_repulsion_energy": 1.35, 
			 "cosmo_total_nonelectrostatic_energy": 6.52, 
			 "SMD_solvation_energy": 3.17 
		},
		"coords": [
			{
				"x": 0.0707585975,
				"y": -0.4400966329,
				"z": -0.2472684966,
				"element": "N" 
			},
			{
				"x": -0.7981423934,
				"y": -0.7394291893,
				"z": 0.8981351783,
				"element": "C" 
			},
			{
				"x": -0.7355229588,
				"y": -2.2599770793,
				"z": 1.1188781123,
				"element": "C" 
			},
			{
				"x": -1.506155757,
				"y": -2.598043773,
				"z": 2.2712618431,
				"element": "O" 
			},
			{
				"x": -0.2300307124,
				"y": -0.0270261633,
				"z": 2.1302179515,
				"element": "C" 
			},
			{
				"x": -0.2362959699,
				"y": 1.3798488522,
				"z": 1.8770831509,
				"element": "O" 
			},
			{
				"x": -2.2559766714,
				"y": -0.2973591302,
				"z": 0.6629429472,
				"element": "C" 
			},
			{
				"x": -2.6809813067,
				"y": -0.8777016879,
				"z": -0.5732423728,
				"element": "O" 
			},
			{
				"x": -0.4525356708,
				"y": -0.6367154437,
				"z": -1.0982159378,
				"element": "H" 
			},
			{
				"x": 0.2560711696,
				"y": 0.5609189057,
				"z": -0.2432393519,
				"element": "H" 
			},
			{
				"x": -1.1252470416,
				"y": -2.7537061703,
				"z": 0.2185227718,
				"element": "H" 
			},
			{
				"x": 0.3193358367,
				"y": -2.5465598954,
				"z": 1.2372287517,
				"element": "H" 
			},
			{
				"x": -1.5698302743,
				"y": -3.5590107864,
				"z": 2.3167926052,
				"element": "H" 
			},
			{
				"x": -0.8318679539,
				"y": -0.2799550332,
				"z": 3.0122760088,
				"element": "H" 
			},
			{
				"x": 0.7950654075,
				"y": -0.3913833169,
				"z": 2.2919181256,
				"element": "H" 
			},
			{
				"x": 0.2211603113,
				"y": 1.8171175694,
				"z": 2.604620847,
				"element": "H" 
			},
			{
				"x": -2.291577742,
				"y": 0.7991130382,
				"z": 0.6205666871,
				"element": "H" 
			},
			{
				"x": -2.8835219606,
				"y": -0.6421927368,
				"z": 1.4961441732,
				"element": "H" 
			},
			{
				"x": -3.5707049098,
				"y": -0.5591413271,
				"z": -0.7634229948,
				"element": "H" 
			}
		],
		 "valence_orbital": [ 
			{
				"type": "occ",
				"energy": -0.31014,
				"method": "rhf"
			},
			{
				"type": "occ",
				"energy": -0.2698,
				"method": "rhf"
			},
			{
				"type": "occ",
				"energy": -0.26707,
				"method": "rhf"
			},
			{
				"type": "occ",
				"energy": -0.25304,
				"method": "rhf"
			},
			{
				"type": "occ",
				"energy": -0.22336,
				"method": "rhf"
			},
			{
				"type": "unocc",
				"energy": 0.07138,
				"method": "rhf"
			},
			{
				"type": "unocc",
				"energy": 0.07855,
				"method": "rhf"
			},
			{
				"type": "unocc",
				"energy": 0.08394,
				"method": "rhf"
			},
			{
				"type": "unocc",
				"energy": 0.13697,
				"method": "rhf"
			},
			{
				"type": "unocc",
				"energy": 0.14606,
				"method": "rhf"
			}
		],
		"cosmo_sigma_profile": { 
			"-0.025": 0.0,
			"-0.024": 0.0,
			"-0.023": 0.0,
			"-0.022": 0.0,
			"-0.021": 0.0,
			"-0.02": 0.0,
			"-0.019": 0.0,
			"-0.018": 0.0,
			"-0.017": 0.0,
			"-0.016": 1.67299590071,
			"-0.015": 3.43715919728,
			"-0.014": 2.38505984297,
			"-0.013": 2.77224529649,
			"-0.012": 3.57067900892,
			"-0.011": 1.73785064953,
			"-0.01": 2.2101838515,
			"-0.009": 2.48945584364,
			"-0.008": 2.12376079312,
			"-0.007": 4.27744235165,
			"-0.006": 4.92703911826,
			"-0.005": 4.4202495606,
			"-0.004": 6.59956787836,
			"-0.003": 13.6898359168,
			"-0.002": 13.6256708498,
			"-0.001": 12.30544976,
			"0.0": 8.38308650967,
			"0.001": 6.54516545569,
			"0.002": 5.57267731954,
			"0.003": 6.24200040849,
			"0.004": 5.20389354858,
			"0.005": 6.60714340574,
			"0.006": 4.90621650117,
			"0.007": 5.03798469851,
			"0.008": 5.93850951029,
			"0.009": 5.58942614493,
			"0.01": 4.29110656132,
			"0.011": 5.7697290051,
			"0.012": 3.24739949033,
			"0.013": 0.685925708093,
			"0.014": 0.646132298701,
			"0.015": 0.757306462632,
			"0.016": 0.30846668051,
			"0.017": 0.763311544812,
			"0.018": 0.49926975819,
			"0.019": 0.363253960873,
			"0.02": 0.0745083612762,
			"0.021": 0.0,
			"0.022": 0.0,
			"0.023": 0.0,
			"0.024": 0.0,
			"0.025": 0.0
		}
	}
}
