{
	 "smiles": "ClC1=CC2=C(C=C1)N1C=NN=C1CN=C2C1=CC=CC=C1", 
	 "Tm": 501.15, 
	 "num_atms": 32, 
	 "gaussian": { 
		 "optdone": 1, 
		 "sigma_profile": "yes", 
		 "theory": "DFT", 
		 "functional": "B3LYP", 
		 "basiset": "6-31G**", 
		 "properties": { 
			 "R2extent": 6849.7967, 
			 "electric_dipole_moment_norm": 5.32321545497, 
			 "electric_quadrupole_moment_norm": 28.9547444751, 
			 "total_energy": -1295.49203121, 
			 "HOMO_LUMO_gap": 0.17619, 
			 "cosmo_polarized_energy": -19.51, 
			 "cosmo_cavitation_energy": 37.85, 
			 "cosmo_dispersion_energy": -27.03, 
			 "cosmo_repulsion_energy": 2.04, 
			 "cosmo_total_nonelectrostatic_energy": 12.85, 
			 "SMD_solvation_energy": 1.8 
		},
		"coords": [
			{
				"x": -2.9237296315,
				"y": -3.5605460547,
				"z": -1.1938683581,
				"element": "Cl" 
			},
			{
				"x": -2.2544023964,
				"y": -2.4747923622,
				"z": 0.0088992996,
				"element": "C" 
			},
			{
				"x": -1.5621113353,
				"y": -1.3411051331,
				"z": -0.4005574988,
				"element": "C" 
			},
			{
				"x": -1.0222042516,
				"y": -0.4451663644,
				"z": 0.5384340253,
				"element": "C" 
			},
			{
				"x": -1.2221528234,
				"y": -0.7250007059,
				"z": 1.9087238408,
				"element": "C" 
			},
			{
				"x": -1.9109917087,
				"y": -1.8778503191,
				"z": 2.3068728257,
				"element": "C" 
			},
			{
				"x": -2.4223281071,
				"y": -2.7615508352,
				"z": 1.3644036126,
				"element": "C" 
			},
			{
				"x": -0.7417961138,
				"y": 0.160280242,
				"z": 2.9010523712,
				"element": "N" 
			},
			{
				"x": -0.2480603138,
				"y": -0.1026575929,
				"z": 4.1608067099,
				"element": "C" 
			},
			{
				"x": -0.013433135,
				"y": 1.0097229776,
				"z": 4.8052770219,
				"element": "N" 
			},
			{
				"x": -0.3642152485,
				"y": 2.0588229624,
				"z": 3.9689671828,
				"element": "N" 
			},
			{
				"x": -0.7954048918,
				"y": 1.5398667562,
				"z": 2.8484059304,
				"element": "C" 
			},
			{
				"x": -1.2638069944,
				"y": 2.2283808472,
				"z": 1.6101970854,
				"element": "C" 
			},
			{
				"x": -0.3574424255,
				"y": 1.9460520125,
				"z": 0.4966303259,
				"element": "N" 
			},
			{
				"x": -0.2574368302,
				"y": 0.7501457814,
				"z": 0.0385498876,
				"element": "C" 
			},
			{
				"x": 0.6864205043,
				"y": 0.5433557874,
				"z": -1.1041052462,
				"element": "C" 
			},
			{
				"x": 1.3629554746,
				"y": -0.6714409854,
				"z": -1.2997042339,
				"element": "C" 
			},
			{
				"x": 2.2783733037,
				"y": -0.8134324633,
				"z": -2.3432364221,
				"element": "C" 
			},
			{
				"x": 2.5235708027,
				"y": 0.2518167651,
				"z": -3.2100035481,
				"element": "C" 
			},
			{
				"x": 1.8564769903,
				"y": 1.4660077328,
				"z": -3.022065348,
				"element": "C" 
			},
			{
				"x": 0.9509320164,
				"y": 1.6132820052,
				"z": -1.975565347,
				"element": "C" 
			},
			{
				"x": -1.4293994396,
				"y": -1.1462943634,
				"z": -1.4578327393,
				"element": "H" 
			},
			{
				"x": -2.0686166452,
				"y": -2.0654247068,
				"z": 3.3635301887,
				"element": "H" 
			},
			{
				"x": -2.9622149861,
				"y": -3.6488103425,
				"z": 1.6747511227,
				"element": "H" 
			},
			{
				"x": -0.0578271051,
				"y": -1.1011167398,
				"z": 4.5266246378,
				"element": "H" 
			},
			{
				"x": -2.2929570898,
				"y": 1.9134617403,
				"z": 1.3745858093,
				"element": "H" 
			},
			{
				"x": -1.2718645333,
				"y": 3.3029165825,
				"z": 1.799154275,
				"element": "H" 
			},
			{
				"x": 1.1898104217,
				"y": -1.5038553714,
				"z": -0.625434322,
				"element": "H" 
			},
			{
				"x": 2.801116418,
				"y": -1.7561967604,
				"z": -2.475078475,
				"element": "H" 
			},
			{
				"x": 3.2307742671,
				"y": 0.1385482973,
				"z": -4.026575283,
				"element": "H" 
			},
			{
				"x": 2.0431935022,
				"y": 2.2988700758,
				"z": -3.693760123,
				"element": "H" 
			},
			{
				"x": 0.437472305,
				"y": 2.5539105348,
				"z": -1.8107792082,
				"element": "H" 
			}
		],
		 "valence_orbital": [ 
			{
				"type": "occ",
				"energy": -0.26498,
				"method": "rhf"
			},
			{
				"type": "occ",
				"energy": -0.26173,
				"method": "rhf"
			},
			{
				"type": "occ",
				"energy": -0.25396,
				"method": "rhf"
			},
			{
				"type": "occ",
				"energy": -0.25282,
				"method": "rhf"
			},
			{
				"type": "occ",
				"energy": -0.24834,
				"method": "rhf"
			},
			{
				"type": "unocc",
				"energy": -0.07215,
				"method": "rhf"
			},
			{
				"type": "unocc",
				"energy": -0.04939,
				"method": "rhf"
			},
			{
				"type": "unocc",
				"energy": -0.03583,
				"method": "rhf"
			},
			{
				"type": "unocc",
				"energy": -0.01012,
				"method": "rhf"
			},
			{
				"type": "unocc",
				"energy": 0.00721,
				"method": "rhf"
			}
		],
		"cosmo_sigma_profile": { 
			"-0.025": 0.0,
			"-0.024": 0.0,
			"-0.023": 0.0,
			"-0.022": 0.0,
			"-0.021": 0.0,
			"-0.02": 0.0,
			"-0.019": 0.0,
			"-0.018": 0.0,
			"-0.017": 0.0,
			"-0.016": 0.0,
			"-0.015": 0.0,
			"-0.014": 0.0,
			"-0.013": 0.0,
			"-0.012": 0.00577132515246,
			"-0.011": 1.65267849052,
			"-0.01": 2.89452911106,
			"-0.009": 4.52454721906,
			"-0.008": 5.91149799581,
			"-0.007": 9.91262900111,
			"-0.006": 18.045087973,
			"-0.005": 20.752927843,
			"-0.004": 26.6381185007,
			"-0.003": 21.6007201849,
			"-0.002": 21.7743056947,
			"-0.001": 21.3434301952,
			"0.0": 23.1966895176,
			"0.001": 22.7292556073,
			"0.002": 18.6354503016,
			"0.003": 17.981691518,
			"0.004": 22.860759494,
			"0.005": 11.7672231822,
			"0.006": 3.62764294015,
			"0.007": 3.07434233325,
			"0.008": 3.01021795021,
			"0.009": 3.34879694956,
			"0.01": 3.1304769514,
			"0.011": 2.41877790065,
			"0.012": 3.94089890953,
			"0.013": 4.31658618004,
			"0.014": 3.33593807952,
			"0.015": 2.76867853572,
			"0.016": 1.98170248799,
			"0.017": 0.430957469844,
			"0.018": 0.0,
			"0.019": 0.0,
			"0.02": 0.0,
			"0.021": 0.0,
			"0.022": 0.0,
			"0.023": 0.0,
			"0.024": 0.0,
			"0.025": 0.0
		}
	}
}
