{
	 "smiles": "OC1=CC=C2CC3C4CCCCC4(CCN3CCC3=CC=CC=C3)C2=C1", 
	 "Tm": 517.15, 
	 "num_atms": 55, 
	 "gaussian": { 
		 "optdone": 1, 
		 "sigma_profile": "yes", 
		 "theory": "DFT", 
		 "functional": "B3LYP", 
		 "basiset": "6-31G**", 
		 "properties": { 
			 "R2extent": 11037.5791, 
			 "electric_dipole_moment_norm": 2.00438813357, 
			 "electric_quadrupole_moment_norm": 9.52062881694, 
			 "total_energy": -1062.02701807, 
			 "HOMO_LUMO_gap": 0.1971, 
			 "cosmo_polarized_energy": -11.34, 
			 "cosmo_cavitation_energy": 50.72, 
			 "cosmo_dispersion_energy": -34.76, 
			 "cosmo_repulsion_energy": 2.6, 
			 "cosmo_total_nonelectrostatic_energy": 18.56, 
			 "SMD_solvation_energy": 6.98 
		},
		"coords": [
			{
				"x": 0.2378099336,
				"y": 1.8622651027,
				"z": -5.8609515993,
				"element": "O" 
			},
			{
				"x": 0.0344526433,
				"y": 0.982956069,
				"z": -4.8309704368,
				"element": "C" 
			},
			{
				"x": -0.9812188678,
				"y": 0.0237069272,
				"z": -4.8432753222,
				"element": "C" 
			},
			{
				"x": -1.1179934677,
				"y": -0.8253979584,
				"z": -3.749243638,
				"element": "C" 
			},
			{
				"x": -0.2677749128,
				"y": -0.7505676062,
				"z": -2.6390781198,
				"element": "C" 
			},
			{
				"x": -0.4733486716,
				"y": -1.7260566034,
				"z": -1.4926328816,
				"element": "C" 
			},
			{
				"x": 0.3693332762,
				"y": -1.4296939311,
				"z": -0.2280333954,
				"element": "C" 
			},
			{
				"x": 1.779452327,
				"y": -0.9753025101,
				"z": -0.6374105764,
				"element": "C" 
			},
			{
				"x": 2.5773612076,
				"y": -2.0325009965,
				"z": -1.4217009069,
				"element": "C" 
			},
			{
				"x": 3.9831356446,
				"y": -1.521808437,
				"z": -1.772331356,
				"element": "C" 
			},
			{
				"x": 3.9153103365,
				"y": -0.1870352108,
				"z": -2.5294272656,
				"element": "C" 
			},
			{
				"x": 3.0997952004,
				"y": 0.8515000354,
				"z": -1.7454097751,
				"element": "C" 
			},
			{
				"x": 1.6688136124,
				"y": 0.3733833271,
				"z": -1.4008124204,
				"element": "C" 
			},
			{
				"x": 1.0026456231,
				"y": 1.3933995119,
				"z": -0.4354908707,
				"element": "C" 
			},
			{
				"x": -0.3392605452,
				"y": 0.904908786,
				"z": 0.116833626,
				"element": "C" 
			},
			{
				"x": -0.201537243,
				"y": -0.4329863797,
				"z": 0.6979904173,
				"element": "N" 
			},
			{
				"x": -1.3748457189,
				"y": -0.8945693571,
				"z": 1.4353084269,
				"element": "C" 
			},
			{
				"x": -1.0150916571,
				"y": -1.7035069336,
				"z": 2.704213361,
				"element": "C" 
			},
			{
				"x": -0.438623065,
				"y": -0.8607015826,
				"z": 3.8208777627,
				"element": "C" 
			},
			{
				"x": -1.2475526694,
				"y": -0.4461996795,
				"z": 4.888171582,
				"element": "C" 
			},
			{
				"x": -0.7380891145,
				"y": 0.3562146652,
				"z": 5.9107170039,
				"element": "C" 
			},
			{
				"x": 0.5976191848,
				"y": 0.7594816387,
				"z": 5.8825568572,
				"element": "C" 
			},
			{
				"x": 1.4156086741,
				"y": 0.3534016485,
				"z": 4.8259389753,
				"element": "C" 
			},
			{
				"x": 0.9022735278,
				"y": -0.448790444,
				"z": 3.8060916111,
				"element": "C" 
			},
			{
				"x": 0.7642549353,
				"y": 0.2125872856,
				"z": -2.6343829874,
				"element": "C" 
			},
			{
				"x": 0.8919147414,
				"y": 1.0717595264,
				"z": -3.7336443991,
				"element": "C" 
			},
			{
				"x": -0.4193110809,
				"y": 1.6960613522,
				"z": -6.5488818932,
				"element": "H" 
			},
			{
				"x": -1.6569843051,
				"y": -0.055607802,
				"z": -5.6924871255,
				"element": "H" 
			},
			{
				"x": -1.9120589014,
				"y": -1.5690642828,
				"z": -3.7552021702,
				"element": "H" 
			},
			{
				"x": -0.2260481135,
				"y": -2.738775582,
				"z": -1.8403584659,
				"element": "H" 
			},
			{
				"x": -1.537871271,
				"y": -1.7654171772,
				"z": -1.2306820464,
				"element": "H" 
			},
			{
				"x": 0.4555331067,
				"y": -2.3637512648,
				"z": 0.340908024,
				"element": "H" 
			},
			{
				"x": 2.327688648,
				"y": -0.7690840234,
				"z": 0.2925639002,
				"element": "H" 
			},
			{
				"x": 2.0543519403,
				"y": -2.2942530596,
				"z": -2.3494744674,
				"element": "H" 
			},
			{
				"x": 2.645227181,
				"y": -2.9536925992,
				"z": -0.8279117867,
				"element": "H" 
			},
			{
				"x": 4.5600498489,
				"y": -1.3835866507,
				"z": -0.8466775732,
				"element": "H" 
			},
			{
				"x": 4.5207902748,
				"y": -2.2709157528,
				"z": -2.3658677913,
				"element": "H" 
			},
			{
				"x": 3.4580912419,
				"y": -0.3473169988,
				"z": -3.5139355993,
				"element": "H" 
			},
			{
				"x": 4.9262580208,
				"y": 0.1968901029,
				"z": -2.7122428918,
				"element": "H" 
			},
			{
				"x": 3.0748141637,
				"y": 1.8080538496,
				"z": -2.2790640058,
				"element": "H" 
			},
			{
				"x": 3.6113747084,
				"y": 1.0569617689,
				"z": -0.7948983793,
				"element": "H" 
			},
			{
				"x": 0.860207326,
				"y": 2.3529262411,
				"z": -0.9469679859,
				"element": "H" 
			},
			{
				"x": 1.6848220753,
				"y": 1.5653339659,
				"z": 0.4065770351,
				"element": "H" 
			},
			{
				"x": -1.1103851903,
				"y": 0.9496790987,
				"z": -0.6731704525,
				"element": "H" 
			},
			{
				"x": -0.6650678277,
				"y": 1.5839942055,
				"z": 0.9126093637,
				"element": "H" 
			},
			{
				"x": -2.0512959237,
				"y": -1.5032984902,
				"z": 0.8094652482,
				"element": "H" 
			},
			{
				"x": -1.9552451173,
				"y": -0.0175930307,
				"z": 1.7410817705,
				"element": "H" 
			},
			{
				"x": -0.3138919136,
				"y": -2.5017331551,
				"z": 2.4323505787,
				"element": "H" 
			},
			{
				"x": -1.9264753918,
				"y": -2.2010340973,
				"z": 3.0578124428,
				"element": "H" 
			},
			{
				"x": -2.2887239079,
				"y": -0.7601258575,
				"z": 4.9203337242,
				"element": "H" 
			},
			{
				"x": -1.3832394347,
				"y": 0.6616004385,
				"z": 6.7301287421,
				"element": "H" 
			},
			{
				"x": 0.9989687579,
				"y": 1.3807137453,
				"z": 6.6783583767,
				"element": "H" 
			},
			{
				"x": 2.4579274415,
				"y": 0.6598485777,
				"z": 4.7972181335,
				"element": "H" 
			},
			{
				"x": 1.5398934802,
				"y": -0.755504985,
				"z": 2.9833236275,
				"element": "H" 
			},
			{
				"x": 1.6615552281,
				"y": 1.8342445693,
				"z": -3.7652120056,
				"element": "H" 
			}
		],
		 "valence_orbital": [ 
			{
				"type": "occ",
				"energy": -0.23979,
				"method": "rhf"
			},
			{
				"type": "occ",
				"energy": -0.23849,
				"method": "rhf"
			},
			{
				"type": "occ",
				"energy": -0.23188,
				"method": "rhf"
			},
			{
				"type": "occ",
				"energy": -0.21129,
				"method": "rhf"
			},
			{
				"type": "occ",
				"energy": -0.19678,
				"method": "rhf"
			},
			{
				"type": "unocc",
				"energy": 0.00032,
				"method": "rhf"
			},
			{
				"type": "unocc",
				"energy": 0.00868,
				"method": "rhf"
			},
			{
				"type": "unocc",
				"energy": 0.00949,
				"method": "rhf"
			},
			{
				"type": "unocc",
				"energy": 0.0173,
				"method": "rhf"
			},
			{
				"type": "unocc",
				"energy": 0.07416,
				"method": "rhf"
			}
		],
		"cosmo_sigma_profile": { 
			"-0.025": 0.0,
			"-0.024": 0.0,
			"-0.023": 0.0,
			"-0.022": 0.0,
			"-0.021": 0.0,
			"-0.02": 0.0,
			"-0.019": 0.0,
			"-0.018": 0.0106384802043,
			"-0.017": 1.04630381189,
			"-0.016": 0.813203550395,
			"-0.015": 1.11691965407,
			"-0.014": 1.24059213118,
			"-0.013": 0.903095463471,
			"-0.012": 0.693341741093,
			"-0.011": 1.33846132511,
			"-0.01": 0.676880032415,
			"-0.009": 0.839415591855,
			"-0.008": 1.12353885239,
			"-0.007": 1.26056391811,
			"-0.006": 2.36097484306,
			"-0.005": 11.9875808807,
			"-0.004": 19.8351418069,
			"-0.003": 36.4339448768,
			"-0.002": 54.8213365769,
			"-0.001": 57.5261442838,
			"0.0": 54.666599398,
			"0.001": 38.5767475255,
			"0.002": 19.9733821932,
			"0.003": 15.522319079,
			"0.004": 16.9614196533,
			"0.005": 16.5813879358,
			"0.006": 17.7736663618,
			"0.007": 10.6722359143,
			"0.008": 2.64189765693,
			"0.009": 2.24887739288,
			"0.01": 1.77781821525,
			"0.011": 1.56548060922,
			"0.012": 1.86986804601,
			"0.013": 0.115237121376,
			"0.014": 0.0,
			"0.015": 0.0,
			"0.016": 0.0,
			"0.017": 0.0,
			"0.018": 0.0,
			"0.019": 0.0,
			"0.02": 0.0,
			"0.021": 0.0,
			"0.022": 0.0,
			"0.023": 0.0,
			"0.024": 0.0,
			"0.025": 0.0
		}
	}
}
