{
	 "smiles": "OC(=O)CSC1=CC=C(Cl)C=C1", 
	 "Tm": 378.65, 
	 "num_atms": 19, 
	 "gaussian": { 
		 "optdone": 1, 
		 "sigma_profile": "yes", 
		 "theory": "DFT", 
		 "functional": "B3LYP", 
		 "basiset": "6-31G**", 
		 "properties": { 
			 "R2extent": 4678.7484, 
			 "electric_dipole_moment_norm": 4.2676710616, 
			 "electric_quadrupole_moment_norm": 23.1617999456, 
			 "total_energy": -1317.89466926, 
			 "HOMO_LUMO_gap": 0.20425, 
			 "cosmo_polarized_energy": -18.9, 
			 "cosmo_cavitation_energy": 27.76, 
			 "cosmo_dispersion_energy": -20.54, 
			 "cosmo_repulsion_energy": 1.62, 
			 "cosmo_total_nonelectrostatic_energy": 8.84, 
			 "SMD_solvation_energy": 5.32 
		},
		"coords": [
			{
				"x": 2.9065436073,
				"y": 0.0725073572,
				"z": 3.6946428011,
				"element": "O" 
			},
			{
				"x": 2.3467174602,
				"y": -1.0347287813,
				"z": 3.1389446352,
				"element": "C" 
			},
			{
				"x": 2.6593827238,
				"y": -2.1332127653,
				"z": 3.5156464269,
				"element": "O" 
			},
			{
				"x": 1.3291731554,
				"y": -0.7504948968,
				"z": 2.0402931201,
				"element": "C" 
			},
			{
				"x": 0.6599842681,
				"y": -2.3312041258,
				"z": 1.3849977002,
				"element": "S" 
			},
			{
				"x": -0.466823266,
				"y": -1.6594505976,
				"z": 0.1555843788,
				"element": "C" 
			},
			{
				"x": -1.801467054,
				"y": -1.3917832658,
				"z": 0.488975422,
				"element": "C" 
			},
			{
				"x": -2.6907577328,
				"y": -0.9064984764,
				"z": -0.4697136381,
				"element": "C" 
			},
			{
				"x": -2.2363178309,
				"y": -0.6943758369,
				"z": -1.771450188,
				"element": "C" 
			},
			{
				"x": -3.3496503761,
				"y": -0.0839411876,
				"z": -2.9840318375,
				"element": "Cl" 
			},
			{
				"x": -0.9150782543,
				"y": -0.9638236565,
				"z": -2.1289211736,
				"element": "C" 
			},
			{
				"x": -0.0355917619,
				"y": -1.4489231815,
				"z": -1.1611480346,
				"element": "C" 
			},
			{
				"x": 2.5550896503,
				"y": 0.8774128401,
				"z": 3.2876559031,
				"element": "H" 
			},
			{
				"x": 1.8093833439,
				"y": -0.1814497962,
				"z": 1.2356155295,
				"element": "H" 
			},
			{
				"x": 0.5167100612,
				"y": -0.1355333268,
				"z": 2.4448227461,
				"element": "H" 
			},
			{
				"x": -2.1471202721,
				"y": -1.5718951711,
				"z": 1.5020779718,
				"element": "H" 
			},
			{
				"x": -3.7241215325,
				"y": -0.7001885708,
				"z": -0.2137709959,
				"element": "H" 
			},
			{
				"x": -0.5833855405,
				"y": -0.8016491945,
				"z": -3.1485281252,
				"element": "H" 
			},
			{
				"x": 0.9915293508,
				"y": -1.6736673665,
				"z": -1.4309926419,
				"element": "H" 
			}
		],
		 "valence_orbital": [ 
			{
				"type": "occ",
				"energy": -0.32298,
				"method": "rhf"
			},
			{
				"type": "occ",
				"energy": -0.28773,
				"method": "rhf"
			},
			{
				"type": "occ",
				"energy": -0.27807,
				"method": "rhf"
			},
			{
				"type": "occ",
				"energy": -0.25744,
				"method": "rhf"
			},
			{
				"type": "occ",
				"energy": -0.24335,
				"method": "rhf"
			},
			{
				"type": "unocc",
				"energy": -0.0391,
				"method": "rhf"
			},
			{
				"type": "unocc",
				"energy": -0.02864,
				"method": "rhf"
			},
			{
				"type": "unocc",
				"energy": -0.00192,
				"method": "rhf"
			},
			{
				"type": "unocc",
				"energy": 0.01628,
				"method": "rhf"
			},
			{
				"type": "unocc",
				"energy": 0.02054,
				"method": "rhf"
			}
		],
		"cosmo_sigma_profile": { 
			"-0.025": 0.0,
			"-0.024": 0.0,
			"-0.023": 0.0,
			"-0.022": 0.0,
			"-0.021": 0.0,
			"-0.02": 0.365587955012,
			"-0.019": 1.23346771922,
			"-0.018": 1.30600748639,
			"-0.017": 1.25572149472,
			"-0.016": 1.12375100888,
			"-0.015": 1.07999602757,
			"-0.014": 1.35858918942,
			"-0.013": 1.19192056957,
			"-0.012": 1.30497725348,
			"-0.011": 1.4414417561,
			"-0.01": 1.91840185924,
			"-0.009": 2.82939208049,
			"-0.008": 5.39473148277,
			"-0.007": 10.2491828455,
			"-0.006": 10.7647663605,
			"-0.005": 11.7599612946,
			"-0.004": 9.32153079063,
			"-0.003": 9.6135194948,
			"-0.002": 10.247450176,
			"-0.001": 10.4275484835,
			"0.0": 13.7462306392,
			"0.001": 19.9763400203,
			"0.002": 18.4289475944,
			"0.003": 19.1623458184,
			"0.004": 14.4180083846,
			"0.005": 7.94728268479,
			"0.006": 4.19173636189,
			"0.007": 5.22989938033,
			"0.008": 7.08347354279,
			"0.009": 6.35900749485,
			"0.01": 6.15348416282,
			"0.011": 6.16940092602,
			"0.012": 2.75211746038,
			"0.013": 0.212703062871,
			"0.014": 0.0,
			"0.015": 0.0,
			"0.016": 0.0,
			"0.017": 0.0,
			"0.018": 0.0,
			"0.019": 0.0,
			"0.02": 0.0,
			"0.021": 0.0,
			"0.022": 0.0,
			"0.023": 0.0,
			"0.024": 0.0,
			"0.025": 0.0
		}
	}
}
