{
	 "smiles": "CC1=C(C(Cl)=CC=C1)S(N)(=O)=O", 
	 "Tm": 393.15, 
	 "num_atms": 20, 
	 "gaussian": { 
		 "optdone": 1, 
		 "sigma_profile": "yes", 
		 "theory": "DFT", 
		 "functional": "B3LYP", 
		 "basiset": "6-31G**", 
		 "properties": { 
			 "R2extent": 3006.205, 
			 "electric_dipole_moment_norm": 5.73363843558, 
			 "electric_quadrupole_moment_norm": 17.0011173321, 
			 "total_energy": -1335.06898404, 
			 "HOMO_LUMO_gap": 0.21493, 
			 "cosmo_polarized_energy": -16.32, 
			 "cosmo_cavitation_energy": 25.92, 
			 "cosmo_dispersion_energy": -20.01, 
			 "cosmo_repulsion_energy": 1.52, 
			 "cosmo_total_nonelectrostatic_energy": 7.43, 
			 "SMD_solvation_energy": 3.88 
		},
		"coords": [
			{
				"x": 2.1224150543,
				"y": -1.2124250209,
				"z": 1.0415275358,
				"element": "C" 
			},
			{
				"x": 1.0123837519,
				"y": -0.2101407301,
				"z": 0.8029252609,
				"element": "C" 
			},
			{
				"x": 0.8199642229,
				"y": 0.5289424874,
				"z": -0.3920821974,
				"element": "C" 
			},
			{
				"x": -0.2314535918,
				"y": 1.4648301163,
				"z": -0.4533563758,
				"element": "C" 
			},
			{
				"x": -0.5344874715,
				"y": 2.4684578974,
				"z": -1.8717653447,
				"element": "Cl" 
			},
			{
				"x": -1.1083533957,
				"y": 1.6577571573,
				"z": 0.6107160676,
				"element": "C" 
			},
			{
				"x": -0.9296293116,
				"y": 0.9187122263,
				"z": 1.7746115197,
				"element": "C" 
			},
			{
				"x": 0.1165938034,
				"y": 0.0083317408,
				"z": 1.8613900579,
				"element": "C" 
			},
			{
				"x": 1.956082494,
				"y": 0.3422895086,
				"z": -1.8145467282,
				"element": "S" 
			},
			{
				"x": 1.0194342077,
				"y": -0.0400616499,
				"z": -3.1455952948,
				"element": "N" 
			},
			{
				"x": 2.7716591437,
				"y": -0.8486788909,
				"z": -1.5877197468,
				"element": "O" 
			},
			{
				"x": 2.5564827867,
				"y": 1.6474265168,
				"z": -2.0642019789,
				"element": "O" 
			},
			{
				"x": 2.0471567882,
				"y": -2.0714946945,
				"z": 0.3719651767,
				"element": "H" 
			},
			{
				"x": 3.1096254179,
				"y": -0.7797916861,
				"z": 0.869723234,
				"element": "H" 
			},
			{
				"x": 2.0701280444,
				"y": -1.5660935761,
				"z": 2.0741073956,
				"element": "H" 
			},
			{
				"x": -1.9080656568,
				"y": 2.3834785954,
				"z": 0.518996258,
				"element": "H" 
			},
			{
				"x": -1.6033631044,
				"y": 1.0604396429,
				"z": 2.614046679,
				"element": "H" 
			},
			{
				"x": 0.2585747191,
				"y": -0.5553760441,
				"z": 2.7782193577,
				"element": "H" 
			},
			{
				"x": 0.356832151,
				"y": 0.6824908409,
				"z": -3.4063769807,
				"element": "H" 
			},
			{
				"x": 0.6199199466,
				"y": -0.9706944377,
				"z": -3.0870838955,
				"element": "H" 
			}
		],
		 "valence_orbital": [ 
			{
				"type": "occ",
				"energy": -0.31295,
				"method": "rhf"
			},
			{
				"type": "occ",
				"energy": -0.30404,
				"method": "rhf"
			},
			{
				"type": "occ",
				"energy": -0.29948,
				"method": "rhf"
			},
			{
				"type": "occ",
				"energy": -0.27344,
				"method": "rhf"
			},
			{
				"type": "occ",
				"energy": -0.26382,
				"method": "rhf"
			},
			{
				"type": "unocc",
				"energy": -0.04889,
				"method": "rhf"
			},
			{
				"type": "unocc",
				"energy": -0.03004,
				"method": "rhf"
			},
			{
				"type": "unocc",
				"energy": 0.00047,
				"method": "rhf"
			},
			{
				"type": "unocc",
				"energy": 0.06261,
				"method": "rhf"
			},
			{
				"type": "unocc",
				"energy": 0.07603,
				"method": "rhf"
			}
		],
		"cosmo_sigma_profile": { 
			"-0.025": 0.0,
			"-0.024": 0.0,
			"-0.023": 0.0,
			"-0.022": 0.0,
			"-0.021": 0.0,
			"-0.02": 0.0,
			"-0.019": 0.0,
			"-0.018": 0.0,
			"-0.017": 0.0,
			"-0.016": 0.322069515387,
			"-0.015": 1.49809642989,
			"-0.014": 1.28846152197,
			"-0.013": 1.64794475049,
			"-0.012": 2.54757186039,
			"-0.011": 2.09820669528,
			"-0.01": 2.02184280135,
			"-0.009": 1.98542569203,
			"-0.008": 3.57156144585,
			"-0.007": 8.81532707374,
			"-0.006": 10.7122280476,
			"-0.005": 9.68121856239,
			"-0.004": 10.7287772732,
			"-0.003": 13.168003071,
			"-0.002": 13.096467209,
			"-0.001": 15.8076252851,
			"0.0": 17.9001930547,
			"0.001": 16.798752582,
			"0.002": 16.3963558753,
			"0.003": 10.2724377154,
			"0.004": 4.7095953226,
			"0.005": 3.8992314055,
			"0.006": 3.90684441618,
			"0.007": 4.87489932602,
			"0.008": 6.23667587946,
			"0.009": 3.73692295649,
			"0.01": 7.95006844236,
			"0.011": 10.5458082568,
			"0.012": 2.4798828895,
			"0.013": 0.0,
			"0.014": 0.0,
			"0.015": 0.0,
			"0.016": 0.0,
			"0.017": 0.0,
			"0.018": 0.0,
			"0.019": 0.0,
			"0.02": 0.0,
			"0.021": 0.0,
			"0.022": 0.0,
			"0.023": 0.0,
			"0.024": 0.0,
			"0.025": 0.0
		}
	}
}
