{
	 "smiles": "OC(=O)C=CC1CCC=CO1", 
	 "Tm": 355.15, 
	 "num_atms": 21, 
	 "gaussian": { 
		 "optdone": 1, 
		 "sigma_profile": "yes", 
		 "theory": "DFT", 
		 "functional": "B3LYP", 
		 "basiset": "6-31G**", 
		 "properties": { 
			 "R2extent": 3294.4482, 
			 "electric_dipole_moment_norm": 2.31607223765, 
			 "electric_quadrupole_moment_norm": 9.28638784189, 
			 "total_energy": -536.518012615, 
			 "HOMO_LUMO_gap": 0.17112, 
			 "cosmo_polarized_energy": -10.81, 
			 "cosmo_cavitation_energy": 24.64, 
			 "cosmo_dispersion_energy": -18.04, 
			 "cosmo_repulsion_energy": 1.48, 
			 "cosmo_total_nonelectrostatic_energy": 8.09, 
			 "SMD_solvation_energy": 5.79 
		},
		"coords": [
			{
				"x": 0.3150119981,
				"y": 1.7844524262,
				"z": -1.8521969194,
				"element": "O" 
			},
			{
				"x": -0.3709532171,
				"y": 0.6723437725,
				"z": -2.2233073322,
				"element": "C" 
			},
			{
				"x": -0.654153837,
				"y": 0.4379806568,
				"z": -3.3814283356,
				"element": "O" 
			},
			{
				"x": -0.7019322894,
				"y": -0.1698467689,
				"z": -1.052079098,
				"element": "C" 
			},
			{
				"x": -1.3733732009,
				"y": -1.3155442661,
				"z": -1.216038369,
				"element": "C" 
			},
			{
				"x": -1.8400542261,
				"y": -2.2446617578,
				"z": -0.1198980396,
				"element": "C" 
			},
			{
				"x": -0.8859833312,
				"y": -2.3774989118,
				"z": 1.0775074445,
				"element": "C" 
			},
			{
				"x": 0.4339664201,
				"y": -3.0375982699,
				"z": 0.6497521291,
				"element": "C" 
			},
			{
				"x": 0.143676546,
				"y": -4.1946320634,
				"z": -0.269073494,
				"element": "C" 
			},
			{
				"x": -1.0585156991,
				"y": -4.3701362715,
				"z": -0.8275275445,
				"element": "C" 
			},
			{
				"x": -2.1339506175,
				"y": -3.5325876094,
				"z": -0.6907830597,
				"element": "O" 
			},
			{
				"x": 0.4909497399,
				"y": 2.2742685942,
				"z": -2.672670099,
				"element": "H" 
			},
			{
				"x": -0.3763115556,
				"y": 0.1933295482,
				"z": -0.0823718161,
				"element": "H" 
			},
			{
				"x": -1.664470489,
				"y": -1.5985388189,
				"z": -2.2259903631,
				"element": "H" 
			},
			{
				"x": -2.8167986716,
				"y": -1.8847988289,
				"z": 0.2291197894,
				"element": "H" 
			},
			{
				"x": -1.3858242306,
				"y": -2.9998867981,
				"z": 1.8273149396,
				"element": "H" 
			},
			{
				"x": -0.7192493171,
				"y": -1.3967032578,
				"z": 1.5338501803,
				"element": "H" 
			},
			{
				"x": 1.0888458522,
				"y": -2.3050818228,
				"z": 0.158175514,
				"element": "H" 
			},
			{
				"x": 0.9780152932,
				"y": -3.3829234473,
				"z": 1.537681177,
				"element": "H" 
			},
			{
				"x": 0.9179869644,
				"y": -4.9269164289,
				"z": -0.4736321073,
				"element": "H" 
			},
			{
				"x": -1.3127821316,
				"y": -5.2213196765,
				"z": -1.4513045964,
				"element": "H" 
			}
		],
		 "valence_orbital": [ 
			{
				"type": "occ",
				"energy": -0.31996,
				"method": "rhf"
			},
			{
				"type": "occ",
				"energy": -0.31505,
				"method": "rhf"
			},
			{
				"type": "occ",
				"energy": -0.27694,
				"method": "rhf"
			},
			{
				"type": "occ",
				"energy": -0.27526,
				"method": "rhf"
			},
			{
				"type": "occ",
				"energy": -0.21969,
				"method": "rhf"
			},
			{
				"type": "unocc",
				"energy": -0.04857,
				"method": "rhf"
			},
			{
				"type": "unocc",
				"energy": 0.03808,
				"method": "rhf"
			},
			{
				"type": "unocc",
				"energy": 0.07905,
				"method": "rhf"
			},
			{
				"type": "unocc",
				"energy": 0.08294,
				"method": "rhf"
			},
			{
				"type": "unocc",
				"energy": 0.0857,
				"method": "rhf"
			}
		],
		"cosmo_sigma_profile": { 
			"-0.025": 0.0,
			"-0.024": 0.0,
			"-0.023": 0.0,
			"-0.022": 0.0,
			"-0.021": 0.0,
			"-0.02": 0.0,
			"-0.019": 0.0,
			"-0.018": 0.389257954972,
			"-0.017": 1.23523698425,
			"-0.016": 0.868900090463,
			"-0.015": 0.417409797086,
			"-0.014": 1.04036869782,
			"-0.013": 0.966756034371,
			"-0.012": 0.388706035912,
			"-0.011": 0.439054782143,
			"-0.01": 0.914113426931,
			"-0.009": 0.774825115757,
			"-0.008": 0.909932036412,
			"-0.007": 5.55819574196,
			"-0.006": 8.30286227811,
			"-0.005": 10.4452381984,
			"-0.004": 13.9465043166,
			"-0.003": 16.9160939567,
			"-0.002": 20.3370564422,
			"-0.001": 18.9972913554,
			"0.0": 14.8538785718,
			"0.001": 11.1727653709,
			"0.002": 10.2451298371,
			"0.003": 8.80777660317,
			"0.004": 6.57676328686,
			"0.005": 7.77041955293,
			"0.006": 5.92547661777,
			"0.007": 3.07536007998,
			"0.008": 4.19242221423,
			"0.009": 4.74480709563,
			"0.01": 3.8818737993,
			"0.011": 3.89537248722,
			"0.012": 5.5292615214,
			"0.013": 0.687709778354,
			"0.014": 0.0,
			"0.015": 0.0,
			"0.016": 0.0,
			"0.017": 0.0,
			"0.018": 0.0,
			"0.019": 0.0,
			"0.02": 0.0,
			"0.021": 0.0,
			"0.022": 0.0,
			"0.023": 0.0,
			"0.024": 0.0,
			"0.025": 0.0
		}
	}
}
