{
	 "smiles": "NC1=CC=C(O)C(=C1)C(O)=O", 
	 "Tm": 556.65, 
	 "num_atms": 18, 
	 "gaussian": { 
		 "optdone": 1, 
		 "sigma_profile": "yes", 
		 "theory": "DFT", 
		 "functional": "B3LYP", 
		 "basiset": "6-31G**", 
		 "properties": { 
			 "R2extent": 2149.0479, 
			 "electric_dipole_moment_norm": 3.46096175073, 
			 "electric_quadrupole_moment_norm": 14.1577693398, 
			 "total_energy": -551.395312281, 
			 "HOMO_LUMO_gap": 0.15658, 
			 "cosmo_polarized_energy": -18.95, 
			 "cosmo_cavitation_energy": 22.66, 
			 "cosmo_dispersion_energy": -17.09, 
			 "cosmo_repulsion_energy": 1.38, 
			 "cosmo_total_nonelectrostatic_energy": 6.95, 
			 "SMD_solvation_energy": 5.48 
		},
		"coords": [
			{
				"x": -3.6413715249,
				"y": -0.3794516332,
				"z": -1.8614502578,
				"element": "N" 
			},
			{
				"x": -2.5574583963,
				"y": -0.4920187818,
				"z": -0.978189844,
				"element": "C" 
			},
			{
				"x": -2.6726921147,
				"y": -0.0879476971,
				"z": 0.3626270426,
				"element": "C" 
			},
			{
				"x": -1.5785570817,
				"y": -0.1445869574,
				"z": 1.2167417671,
				"element": "C" 
			},
			{
				"x": -0.327305571,
				"y": -0.5981288253,
				"z": 0.7780851432,
				"element": "C" 
			},
			{
				"x": 0.7372386197,
				"y": -0.6492358276,
				"z": 1.6288911047,
				"element": "O" 
			},
			{
				"x": -0.1931668065,
				"y": -1.0069922298,
				"z": -0.5657347405,
				"element": "C" 
			},
			{
				"x": -1.3115430363,
				"y": -0.9462587831,
				"z": -1.4128941408,
				"element": "C" 
			},
			{
				"x": 1.052913996,
				"y": -1.5209034614,
				"z": -1.1991729268,
				"element": "C" 
			},
			{
				"x": 2.1344974306,
				"y": -1.5576370016,
				"z": -0.391274836,
				"element": "O" 
			},
			{
				"x": 1.1170619791,
				"y": -1.8863786941,
				"z": -2.3607124277,
				"element": "O" 
			},
			{
				"x": -3.5741914728,
				"y": -0.9750564657,
				"z": -2.6761765266,
				"element": "H" 
			},
			{
				"x": -4.5488777181,
				"y": -0.4670011597,
				"z": -1.4234598936,
				"element": "H" 
			},
			{
				"x": -3.6254091395,
				"y": 0.277935416,
				"z": 0.7373991351,
				"element": "H" 
			},
			{
				"x": -1.6933818241,
				"y": 0.1707801507,
				"z": 2.2521120172,
				"element": "H" 
			},
			{
				"x": 0.4500486252,
				"y": -0.3284225227,
				"z": 2.4937184856,
				"element": "H" 
			},
			{
				"x": -1.1673034604,
				"y": -1.269670558,
				"z": -2.4388645818,
				"element": "H" 
			},
			{
				"x": 2.8486974955,
				"y": -1.9091249679,
				"z": -0.9491445199,
				"element": "H" 
			}
		],
		 "valence_orbital": [ 
			{
				"type": "occ",
				"energy": -0.30716,
				"method": "rhf"
			},
			{
				"type": "occ",
				"energy": -0.28603,
				"method": "rhf"
			},
			{
				"type": "occ",
				"energy": -0.266,
				"method": "rhf"
			},
			{
				"type": "occ",
				"energy": -0.25643,
				"method": "rhf"
			},
			{
				"type": "occ",
				"energy": -0.19507,
				"method": "rhf"
			},
			{
				"type": "unocc",
				"energy": -0.03849,
				"method": "rhf"
			},
			{
				"type": "unocc",
				"energy": 0.01683,
				"method": "rhf"
			},
			{
				"type": "unocc",
				"energy": 0.06556,
				"method": "rhf"
			},
			{
				"type": "unocc",
				"energy": 0.06799,
				"method": "rhf"
			},
			{
				"type": "unocc",
				"energy": 0.08407,
				"method": "rhf"
			}
		],
		"cosmo_sigma_profile": { 
			"-0.025": 0.0,
			"-0.024": 0.0,
			"-0.023": 0.0,
			"-0.022": 0.0,
			"-0.021": 0.0,
			"-0.02": 0.0,
			"-0.019": 0.0,
			"-0.018": 0.857820649702,
			"-0.017": 1.85450705085,
			"-0.016": 1.77729575051,
			"-0.015": 2.12302185959,
			"-0.014": 1.4605932208,
			"-0.013": 2.09748592198,
			"-0.012": 3.94370673445,
			"-0.011": 4.96562128796,
			"-0.01": 4.46387923663,
			"-0.009": 5.4692320032,
			"-0.008": 4.54580426864,
			"-0.007": 6.11275338313,
			"-0.006": 6.54859588203,
			"-0.005": 8.26553533726,
			"-0.004": 5.53027369068,
			"-0.003": 4.52255840535,
			"-0.002": 5.79569433853,
			"-0.001": 7.80172383732,
			"0.0": 8.47599951736,
			"0.001": 6.97877867954,
			"0.002": 11.4691974815,
			"0.003": 11.5412624869,
			"0.004": 14.4932459034,
			"0.005": 9.54072451978,
			"0.006": 5.01348507821,
			"0.007": 3.88275514649,
			"0.008": 3.89396691162,
			"0.009": 3.3298159152,
			"0.01": 4.42683329472,
			"0.011": 4.39519766419,
			"0.012": 7.46139217535,
			"0.013": 2.86707365149,
			"0.014": 2.81645874623,
			"0.015": 1.00759761053,
			"0.016": 0.0562806418797,
			"0.017": 0.0,
			"0.018": 0.0,
			"0.019": 0.0,
			"0.02": 0.0,
			"0.021": 0.0,
			"0.022": 0.0,
			"0.023": 0.0,
			"0.024": 0.0,
			"0.025": 0.0
		}
	}
}
