{
	 "smiles": "CN(C)C(=O)CN1C=NC(N)=N1", 
	 "Tm": 409.15, 
	 "num_atms": 23, 
	 "gaussian": { 
		 "optdone": 1, 
		 "sigma_profile": "yes", 
		 "theory": "DFT", 
		 "functional": "B3LYP", 
		 "basiset": "6-31G**", 
		 "properties": { 
			 "R2extent": 2809.7342, 
			 "electric_dipole_moment_norm": 4.00730713946, 
			 "electric_quadrupole_moment_norm": 12.5681237263, 
			 "total_energy": -584.239430669, 
			 "HOMO_LUMO_gap": 0.22289, 
			 "cosmo_polarized_energy": -20.7, 
			 "cosmo_cavitation_energy": 26.75, 
			 "cosmo_dispersion_energy": -19.06, 
			 "cosmo_repulsion_energy": 1.54, 
			 "cosmo_total_nonelectrostatic_energy": 9.24, 
			 "SMD_solvation_energy": 2.96 
		},
		"coords": [
			{
				"x": 1.6167050622,
				"y": -0.278476182,
				"z": 1.0308820918,
				"element": "C" 
			},
			{
				"x": 0.4830096659,
				"y": 0.6306342781,
				"z": 0.9606339044,
				"element": "N" 
			},
			{
				"x": -0.5069190597,
				"y": 0.4933984195,
				"z": 2.0224522414,
				"element": "C" 
			},
			{
				"x": 0.1977467561,
				"y": 1.4608786214,
				"z": -0.0898264526,
				"element": "C" 
			},
			{
				"x": -0.7732085506,
				"y": 2.2085848924,
				"z": -0.1067319682,
				"element": "O" 
			},
			{
				"x": 1.1706288547,
				"y": 1.5159357126,
				"z": -1.2857300141,
				"element": "C" 
			},
			{
				"x": 1.4514846913,
				"y": 0.2387564251,
				"z": -1.9149819665,
				"element": "N" 
			},
			{
				"x": 2.6092056364,
				"y": -0.2380793946,
				"z": -2.4146950486,
				"element": "C" 
			},
			{
				"x": 2.4276812652,
				"y": -1.4154513672,
				"z": -2.9894661214,
				"element": "N" 
			},
			{
				"x": 1.0857517983,
				"y": -1.6186474176,
				"z": -2.818822519,
				"element": "C" 
			},
			{
				"x": 0.4488477781,
				"y": -2.7286344499,
				"z": -3.3332144237,
				"element": "N" 
			},
			{
				"x": 0.4402226483,
				"y": -0.6509163368,
				"z": -2.1710879644,
				"element": "N" 
			},
			{
				"x": 1.9346805623,
				"y": -0.3642022479,
				"z": 2.074900821,
				"element": "H" 
			},
			{
				"x": 2.4642346471,
				"y": 0.0956922116,
				"z": 0.4580953152,
				"element": "H" 
			},
			{
				"x": 1.3632206056,
				"y": -1.2800742671,
				"z": 0.6602265971,
				"element": "H" 
			},
			{
				"x": -1.3083851303,
				"y": 1.2064920149,
				"z": 1.8391525353,
				"element": "H" 
			},
			{
				"x": -0.0491033104,
				"y": 0.6975118151,
				"z": 2.9975315796,
				"element": "H" 
			},
			{
				"x": -0.9186599079,
				"y": -0.5238622957,
				"z": 2.0375345771,
				"element": "H" 
			},
			{
				"x": 2.1283491311,
				"y": 1.9548871782,
				"z": -0.9852989869,
				"element": "H" 
			},
			{
				"x": 0.6891245891,
				"y": 2.1895576071,
				"z": -1.9980408984,
				"element": "H" 
			},
			{
				"x": 3.5481199389,
				"y": 0.2943890098,
				"z": -2.3378675257,
				"element": "H" 
			},
			{
				"x": 1.0558092729,
				"y": -3.5274344527,
				"z": -3.4484627871,
				"element": "H" 
			},
			{
				"x": -0.4368469447,
				"y": -2.9427397742,
				"z": -2.8975829861,
				"element": "H" 
			}
		],
		 "valence_orbital": [ 
			{
				"type": "occ",
				"energy": -0.28204,
				"method": "rhf"
			},
			{
				"type": "occ",
				"energy": -0.27359,
				"method": "rhf"
			},
			{
				"type": "occ",
				"energy": -0.25265,
				"method": "rhf"
			},
			{
				"type": "occ",
				"energy": -0.24224,
				"method": "rhf"
			},
			{
				"type": "occ",
				"energy": -0.21477,
				"method": "rhf"
			},
			{
				"type": "unocc",
				"energy": 0.00812,
				"method": "rhf"
			},
			{
				"type": "unocc",
				"energy": 0.01556,
				"method": "rhf"
			},
			{
				"type": "unocc",
				"energy": 0.06806,
				"method": "rhf"
			},
			{
				"type": "unocc",
				"energy": 0.07923,
				"method": "rhf"
			},
			{
				"type": "unocc",
				"energy": 0.0971,
				"method": "rhf"
			}
		],
		"cosmo_sigma_profile": { 
			"-0.025": 0.0,
			"-0.024": 0.0,
			"-0.023": 0.0,
			"-0.022": 0.0,
			"-0.021": 0.0,
			"-0.02": 0.0,
			"-0.019": 0.0,
			"-0.018": 0.0,
			"-0.017": 0.0,
			"-0.016": 0.0,
			"-0.015": 0.0,
			"-0.014": 0.0538982024362,
			"-0.013": 1.75588094938,
			"-0.012": 2.08142993321,
			"-0.011": 4.59275336883,
			"-0.01": 6.92952799538,
			"-0.009": 6.82952041572,
			"-0.008": 5.47246015636,
			"-0.007": 5.40574949597,
			"-0.006": 8.66695754857,
			"-0.005": 14.6870659718,
			"-0.004": 16.5193982815,
			"-0.003": 18.1304398166,
			"-0.002": 18.9644810359,
			"-0.001": 11.7140997782,
			"0.0": 8.43780262378,
			"0.001": 8.02473524601,
			"0.002": 6.05509332419,
			"0.003": 6.257617173,
			"0.004": 4.79499971502,
			"0.005": 4.99982465562,
			"0.006": 5.49748460532,
			"0.007": 6.87709622626,
			"0.008": 5.40317392304,
			"0.009": 4.65763960732,
			"0.01": 4.07599665209,
			"0.011": 3.40489779272,
			"0.012": 5.69352459096,
			"0.013": 7.16214655342,
			"0.014": 5.05091627535,
			"0.015": 1.62027294349,
			"0.016": 0.900812320661,
			"0.017": 0.322192989919,
			"0.018": 0.0,
			"0.019": 0.0,
			"0.02": 0.0,
			"0.021": 0.0,
			"0.022": 0.0,
			"0.023": 0.0,
			"0.024": 0.0,
			"0.025": 0.0
		}
	}
}
