{
	 "smiles": "N#CCC1=CC(=CC=C1)C#N", 
	 "Tm": 352.15, 
	 "num_atms": 17, 
	 "gaussian": { 
		 "optdone": 1, 
		 "sigma_profile": "yes", 
		 "theory": "DFT", 
		 "functional": "B3LYP", 
		 "basiset": "6-31G**", 
		 "properties": { 
			 "R2extent": 2222.1571, 
			 "electric_dipole_moment_norm": 0.802105018062, 
			 "electric_quadrupole_moment_norm": 28.8636533266, 
			 "total_energy": -456.041568554, 
			 "HOMO_LUMO_gap": 0.21396, 
			 "cosmo_polarized_energy": -14.86, 
			 "cosmo_cavitation_energy": 23.68, 
			 "cosmo_dispersion_energy": -16.16, 
			 "cosmo_repulsion_energy": 1.3, 
			 "cosmo_total_nonelectrostatic_energy": 8.82, 
			 "SMD_solvation_energy": 6.77 
		},
		"coords": [
			{
				"x": -3.3541923671,
				"y": -2.5509254354,
				"z": -0.1607082593,
				"element": "N" 
			},
			{
				"x": -2.7843490252,
				"y": -1.7837563157,
				"z": 0.4972571208,
				"element": "C" 
			},
			{
				"x": -2.0593498439,
				"y": -0.8129352823,
				"z": 1.3190864878,
				"element": "C" 
			},
			{
				"x": -0.9949380217,
				"y": -0.0164875682,
				"z": 0.5693970217,
				"element": "C" 
			},
			{
				"x": -0.2649612787,
				"y": 0.9394045766,
				"z": 1.2803726301,
				"element": "C" 
			},
			{
				"x": 0.7250296447,
				"y": 1.696411842,
				"z": 0.6372427085,
				"element": "C" 
			},
			{
				"x": 0.9894415709,
				"y": 1.4980266871,
				"z": -0.7288321289,
				"element": "C" 
			},
			{
				"x": 0.2594164225,
				"y": 0.545294199,
				"z": -1.4308858533,
				"element": "C" 
			},
			{
				"x": -0.7269187285,
				"y": -0.2087692873,
				"z": -0.7892186596,
				"element": "C" 
			},
			{
				"x": 1.4668289802,
				"y": 2.674606234,
				"z": 1.3799726117,
				"element": "C" 
			},
			{
				"x": 2.0675145322,
				"y": 3.4671546482,
				"z": 1.9831474622,
				"element": "N" 
			},
			{
				"x": -1.6006487468,
				"y": -1.3543455783,
				"z": 2.1561529212,
				"element": "H" 
			},
			{
				"x": -2.7943092489,
				"y": -0.1294825799,
				"z": 1.7626579754,
				"element": "H" 
			},
			{
				"x": -0.4566671565,
				"y": 1.1054959076,
				"z": 2.3364343953,
				"element": "H" 
			},
			{
				"x": 1.7563895702,
				"y": 2.0872873989,
				"z": -1.2194716122,
				"element": "H" 
			},
			{
				"x": 0.455990168,
				"y": 0.3848099464,
				"z": -2.4861740002,
				"element": "H" 
			},
			{
				"x": -1.2898764716,
				"y": -0.9491893927,
				"z": -1.3489308211,
				"element": "H" 
			}
		],
		 "valence_orbital": [ 
			{
				"type": "occ",
				"energy": -0.34558,
				"method": "rhf"
			},
			{
				"type": "occ",
				"energy": -0.34156,
				"method": "rhf"
			},
			{
				"type": "occ",
				"energy": -0.33734,
				"method": "rhf"
			},
			{
				"type": "occ",
				"energy": -0.2837,
				"method": "rhf"
			},
			{
				"type": "occ",
				"energy": -0.27712,
				"method": "rhf"
			},
			{
				"type": "unocc",
				"energy": -0.06316,
				"method": "rhf"
			},
			{
				"type": "unocc",
				"energy": -0.04097,
				"method": "rhf"
			},
			{
				"type": "unocc",
				"energy": 0.01332,
				"method": "rhf"
			},
			{
				"type": "unocc",
				"energy": 0.0263,
				"method": "rhf"
			},
			{
				"type": "unocc",
				"energy": 0.02961,
				"method": "rhf"
			}
		],
		"cosmo_sigma_profile": { 
			"-0.025": 0.0,
			"-0.024": 0.0,
			"-0.023": 0.0,
			"-0.022": 0.0,
			"-0.021": 0.0,
			"-0.02": 0.0,
			"-0.019": 0.0,
			"-0.018": 0.0,
			"-0.017": 0.0,
			"-0.016": 0.0,
			"-0.015": 0.0,
			"-0.014": 0.0,
			"-0.013": 0.0,
			"-0.012": 0.0,
			"-0.011": 0.0,
			"-0.01": 1.32255136092,
			"-0.009": 8.43998934647,
			"-0.008": 11.5370727777,
			"-0.007": 11.6191374453,
			"-0.006": 12.5540661597,
			"-0.005": 9.55500410669,
			"-0.004": 8.54303289963,
			"-0.003": 12.15430071,
			"-0.002": 11.3426344673,
			"-0.001": 11.4179680947,
			"0.0": 10.6434156316,
			"0.001": 12.8725925429,
			"0.002": 13.7017029191,
			"0.003": 6.50627818754,
			"0.004": 3.4092485476,
			"0.005": 4.88088335747,
			"0.006": 3.95315131314,
			"0.007": 6.30423930893,
			"0.008": 5.90464247167,
			"0.009": 7.14317390889,
			"0.01": 5.96218329849,
			"0.011": 5.27904403697,
			"0.012": 4.68520326608,
			"0.013": 2.67242788219,
			"0.014": 0.0648578899018,
			"0.015": 0.0,
			"0.016": 0.0,
			"0.017": 0.0,
			"0.018": 0.0,
			"0.019": 0.0,
			"0.02": 0.0,
			"0.021": 0.0,
			"0.022": 0.0,
			"0.023": 0.0,
			"0.024": 0.0,
			"0.025": 0.0
		}
	}
}
