{
	 "smiles": "NS(=O)(=O)C1=C(F)C=CC(F)=C1", 
	 "Tm": 414.15, 
	 "num_atms": 17, 
	 "gaussian": { 
		 "optdone": 1, 
		 "sigma_profile": "yes", 
		 "theory": "DFT", 
		 "functional": "B3LYP", 
		 "basiset": "6-31G**", 
		 "properties": { 
			 "R2extent": 2369.3467, 
			 "electric_dipole_moment_norm": 5.70724921306, 
			 "electric_quadrupole_moment_norm": 11.9460995258, 
			 "total_energy": -1034.62894614, 
			 "HOMO_LUMO_gap": 0.21098, 
			 "cosmo_polarized_energy": -16.61, 
			 "cosmo_cavitation_energy": 23.8, 
			 "cosmo_dispersion_energy": -17.97, 
			 "cosmo_repulsion_energy": 1.34, 
			 "cosmo_total_nonelectrostatic_energy": 7.17, 
			 "SMD_solvation_energy": 4.62 
		},
		"coords": [
			{
				"x": -1.5918732392,
				"y": 2.4925774341,
				"z": 0.1484383607,
				"element": "N" 
			},
			{
				"x": -0.8732656983,
				"y": 1.5584435437,
				"z": 1.3334931682,
				"element": "S" 
			},
			{
				"x": -1.9404688468,
				"y": 0.7645608135,
				"z": 1.9378127851,
				"element": "O" 
			},
			{
				"x": -0.0183953033,
				"y": 2.4489698501,
				"z": 2.1089764744,
				"element": "O" 
			},
			{
				"x": 0.1989206691,
				"y": 0.3922084814,
				"z": 0.4687989293,
				"element": "C" 
			},
			{
				"x": 1.1728220447,
				"y": 0.8323528448,
				"z": -0.427945324,
				"element": "C" 
			},
			{
				"x": 1.2644087987,
				"y": 2.1519636367,
				"z": -0.7108844421,
				"element": "F" 
			},
			{
				"x": 2.0341128979,
				"y": -0.0546479762,
				"z": -1.0586034512,
				"element": "C" 
			},
			{
				"x": 1.9260212095,
				"y": -1.4179046438,
				"z": -0.780912934,
				"element": "C" 
			},
			{
				"x": 0.9526148753,
				"y": -1.8525344139,
				"z": 0.1138106922,
				"element": "C" 
			},
			{
				"x": 0.8476024827,
				"y": -3.1679989258,
				"z": 0.3743829213,
				"element": "F" 
			},
			{
				"x": 0.0833650156,
				"y": -0.9703218417,
				"z": 0.7454378665,
				"element": "C" 
			},
			{
				"x": -0.9131506743,
				"y": 3.0152672904,
				"z": -0.3968925675,
				"element": "H" 
			},
			{
				"x": -2.2552979811,
				"y": 1.9703400401,
				"z": -0.4149494583,
				"element": "H" 
			},
			{
				"x": 2.7749951782,
				"y": 0.3257300241,
				"z": -1.7529135455,
				"element": "H" 
			},
			{
				"x": 2.5825010803,
				"y": -2.1414080359,
				"z": -1.2509870585,
				"element": "H" 
			},
			{
				"x": -0.671512509,
				"y": -1.3246981215,
				"z": 1.4376375834,
				"element": "H" 
			}
		],
		 "valence_orbital": [ 
			{
				"type": "occ",
				"energy": -0.32616,
				"method": "rhf"
			},
			{
				"type": "occ",
				"energy": -0.31466,
				"method": "rhf"
			},
			{
				"type": "occ",
				"energy": -0.31023,
				"method": "rhf"
			},
			{
				"type": "occ",
				"energy": -0.28982,
				"method": "rhf"
			},
			{
				"type": "occ",
				"energy": -0.26696,
				"method": "rhf"
			},
			{
				"type": "unocc",
				"energy": -0.05598,
				"method": "rhf"
			},
			{
				"type": "unocc",
				"energy": -0.02741,
				"method": "rhf"
			},
			{
				"type": "unocc",
				"energy": 0.03808,
				"method": "rhf"
			},
			{
				"type": "unocc",
				"energy": 0.05492,
				"method": "rhf"
			},
			{
				"type": "unocc",
				"energy": 0.07749,
				"method": "rhf"
			}
		],
		"cosmo_sigma_profile": { 
			"-0.025": 0.0,
			"-0.024": 0.0,
			"-0.023": 0.0,
			"-0.022": 0.0,
			"-0.021": 0.0,
			"-0.02": 0.0,
			"-0.019": 0.0,
			"-0.018": 0.0,
			"-0.017": 0.0,
			"-0.016": 0.551279466442,
			"-0.015": 1.61520238344,
			"-0.014": 2.20029950017,
			"-0.013": 2.51600544319,
			"-0.012": 2.66329274208,
			"-0.011": 2.04855309163,
			"-0.01": 2.14113517884,
			"-0.009": 4.74785055686,
			"-0.008": 6.9316872443,
			"-0.007": 7.19419003186,
			"-0.006": 6.81634640003,
			"-0.005": 5.41849901056,
			"-0.004": 6.26529501545,
			"-0.003": 7.61745703023,
			"-0.002": 11.7299351548,
			"-0.001": 19.7522392546,
			"0.0": 16.438104853,
			"0.001": 10.3135055916,
			"0.002": 8.80349383722,
			"0.003": 13.6415694736,
			"0.004": 9.75315692354,
			"0.005": 3.70997113855,
			"0.006": 4.17776635466,
			"0.007": 4.72306000534,
			"0.008": 4.23328836339,
			"0.009": 5.66634872523,
			"0.01": 10.1996092456,
			"0.011": 8.8449145023,
			"0.012": 0.701809842334,
			"0.013": 0.0,
			"0.014": 0.0,
			"0.015": 0.0,
			"0.016": 0.0,
			"0.017": 0.0,
			"0.018": 0.0,
			"0.019": 0.0,
			"0.02": 0.0,
			"0.021": 0.0,
			"0.022": 0.0,
			"0.023": 0.0,
			"0.024": 0.0,
			"0.025": 0.0
		}
	}
}
