{
	 "smiles": "ClS(=O)(=O)C1=C2OCCOC2=CC=C1", 
	 "Tm": 348.15, 
	 "num_atms": 21, 
	 "gaussian": { 
		 "optdone": 1, 
		 "sigma_profile": "yes", 
		 "theory": "DFT", 
		 "functional": "B3LYP", 
		 "basiset": "6-31G**", 
		 "properties": { 
			 "R2extent": 3211.8188, 
			 "electric_dipole_moment_norm": 6.11675150713, 
			 "electric_quadrupole_moment_norm": 14.7336433386, 
			 "total_energy": -1468.25129329, 
			 "HOMO_LUMO_gap": 0.15952, 
			 "cosmo_polarized_energy": -12.68, 
			 "cosmo_cavitation_energy": 27.96, 
			 "cosmo_dispersion_energy": -21.31, 
			 "cosmo_repulsion_energy": 1.63, 
			 "cosmo_total_nonelectrostatic_energy": 8.28, 
			 "SMD_solvation_energy": 3.9 
		},
		"coords": [
			{
				"x": -3.0793217543,
				"y": -0.2054479339,
				"z": 0.9580437387,
				"element": "Cl" 
			},
			{
				"x": -2.0746328336,
				"y": -0.0035525847,
				"z": -0.9165452082,
				"element": "S" 
			},
			{
				"x": -2.825844305,
				"y": 0.9990394891,
				"z": -1.6634977939,
				"element": "O" 
			},
			{
				"x": -1.8843122022,
				"y": -1.3516881799,
				"z": -1.4319268646,
				"element": "O" 
			},
			{
				"x": -0.5193963235,
				"y": 0.7174972021,
				"z": -0.4159051579,
				"element": "C" 
			},
			{
				"x": 0.4127985089,
				"y": -0.0315464926,
				"z": 0.3200900337,
				"element": "C" 
			},
			{
				"x": 0.1067645062,
				"y": -1.295628629,
				"z": 0.707279115,
				"element": "O" 
			},
			{
				"x": 0.9676620476,
				"y": -1.8351953983,
				"z": 1.7183153484,
				"element": "C" 
			},
			{
				"x": 2.4145060336,
				"y": -1.520027061,
				"z": 1.3850959359,
				"element": "C" 
			},
			{
				"x": 2.6076530728,
				"y": -0.103039218,
				"z": 1.3401193676,
				"element": "O" 
			},
			{
				"x": 1.6435088292,
				"y": 0.5731940705,
				"z": 0.6429520982,
				"element": "C" 
			},
			{
				"x": 1.9002087839,
				"y": 1.8892373524,
				"z": 0.260846102,
				"element": "C" 
			},
			{
				"x": 0.9508678955,
				"y": 2.6196841897,
				"z": -0.4534753906,
				"element": "C" 
			},
			{
				"x": -0.2645645515,
				"y": 2.0361914879,
				"z": -0.8028703145,
				"element": "C" 
			},
			{
				"x": 0.6970127847,
				"y": -1.4089669026,
				"z": 2.692069732,
				"element": "H" 
			},
			{
				"x": 0.7809200558,
				"y": -2.9107179206,
				"z": 1.7303190251,
				"element": "H" 
			},
			{
				"x": 3.0915371869,
				"y": -1.8991711443,
				"z": 2.153756159,
				"element": "H" 
			},
			{
				"x": 2.6844956241,
				"y": -1.9622220999,
				"z": 0.417265968,
				"element": "H" 
			},
			{
				"x": 2.858395062,
				"y": 2.3196714626,
				"z": 0.533156463,
				"element": "H" 
			},
			{
				"x": 1.1639929212,
				"y": 3.6419140281,
				"z": -0.746775125,
				"element": "H" 
			},
			{
				"x": -1.0157513424,
				"y": 2.5772742825,
				"z": -1.3646132318,
				"element": "H" 
			}
		],
		 "valence_orbital": [ 
			{
				"type": "occ",
				"energy": -0.32235,
				"method": "rhf"
			},
			{
				"type": "occ",
				"energy": -0.31827,
				"method": "rhf"
			},
			{
				"type": "occ",
				"energy": -0.30373,
				"method": "rhf"
			},
			{
				"type": "occ",
				"energy": -0.27021,
				"method": "rhf"
			},
			{
				"type": "occ",
				"energy": -0.23997,
				"method": "rhf"
			},
			{
				"type": "unocc",
				"energy": -0.08045,
				"method": "rhf"
			},
			{
				"type": "unocc",
				"energy": -0.03841,
				"method": "rhf"
			},
			{
				"type": "unocc",
				"energy": -0.01549,
				"method": "rhf"
			},
			{
				"type": "unocc",
				"energy": 0.04238,
				"method": "rhf"
			},
			{
				"type": "unocc",
				"energy": 0.07346,
				"method": "rhf"
			}
		],
		"cosmo_sigma_profile": { 
			"-0.025": 0.0,
			"-0.024": 0.0,
			"-0.023": 0.0,
			"-0.022": 0.0,
			"-0.021": 0.0,
			"-0.02": 0.0,
			"-0.019": 0.0,
			"-0.018": 0.0,
			"-0.017": 0.0,
			"-0.016": 0.0,
			"-0.015": 0.0,
			"-0.014": 0.0,
			"-0.013": 0.0,
			"-0.012": 0.0,
			"-0.011": 0.0,
			"-0.01": 0.0,
			"-0.009": 0.0988765082525,
			"-0.008": 7.38753550249,
			"-0.007": 18.064348098,
			"-0.006": 17.8567476879,
			"-0.005": 13.703502043,
			"-0.004": 11.00388692,
			"-0.003": 10.2173876701,
			"-0.002": 11.426944579,
			"-0.001": 13.8269164538,
			"0.0": 16.589796006,
			"0.001": 16.2095188212,
			"0.002": 17.267538034,
			"0.003": 16.8627659271,
			"0.004": 12.6425926472,
			"0.005": 6.51625847513,
			"0.006": 7.22406167442,
			"0.007": 6.50425586708,
			"0.008": 11.3131668427,
			"0.009": 9.1167301033,
			"0.01": 2.13641187393,
			"0.011": 0.558766730425,
			"0.012": 0.0,
			"0.013": 0.0,
			"0.014": 0.0,
			"0.015": 0.0,
			"0.016": 0.0,
			"0.017": 0.0,
			"0.018": 0.0,
			"0.019": 0.0,
			"0.02": 0.0,
			"0.021": 0.0,
			"0.022": 0.0,
			"0.023": 0.0,
			"0.024": 0.0,
			"0.025": 0.0
		}
	}
}
