{
	 "smiles": "OC(=O)CC(C=C)C1=CC=CC=C1", 
	 "Tm": 313.15, 
	 "num_atms": 25, 
	 "gaussian": { 
		 "optdone": 1, 
		 "sigma_profile": "yes", 
		 "theory": "DFT", 
		 "functional": "B3LYP", 
		 "basiset": "6-31G**", 
		 "properties": { 
			 "R2extent": 2682.2588, 
			 "electric_dipole_moment_norm": 1.27692168906, 
			 "electric_quadrupole_moment_norm": 2.5107287229, 
			 "total_energy": -576.84505235, 
			 "HOMO_LUMO_gap": 0.23526, 
			 "cosmo_polarized_energy": -10.96, 
			 "cosmo_cavitation_energy": 29.27, 
			 "cosmo_dispersion_energy": -20.04, 
			 "cosmo_repulsion_energy": 1.63, 
			 "cosmo_total_nonelectrostatic_energy": 10.86, 
			 "SMD_solvation_energy": 6.72 
		},
		"coords": [
			{
				"x": -0.5449222273,
				"y": 3.3541018114,
				"z": -1.6345681681,
				"element": "O" 
			},
			{
				"x": -0.7910625359,
				"y": 2.413243294,
				"z": -0.6920795517,
				"element": "C" 
			},
			{
				"x": -0.7425268769,
				"y": 2.6523829,
				"z": 0.4949442033,
				"element": "O" 
			},
			{
				"x": -1.167840225,
				"y": 1.0828452915,
				"z": -1.3114132735,
				"element": "C" 
			},
			{
				"x": -0.8625163714,
				"y": -0.1112055499,
				"z": -0.3767999058,
				"element": "C" 
			},
			{
				"x": -1.5453097559,
				"y": -1.3651267624,
				"z": -0.8786644976,
				"element": "C" 
			},
			{
				"x": -2.5148116375,
				"y": -2.0087190632,
				"z": -0.2292157634,
				"element": "C" 
			},
			{
				"x": 0.6417092786,
				"y": -0.3153017676,
				"z": -0.2020702431,
				"element": "C" 
			},
			{
				"x": 1.4549159113,
				"y": -0.7048893071,
				"z": -1.2767550029,
				"element": "C" 
			},
			{
				"x": 2.8269836145,
				"y": -0.890720905,
				"z": -1.1062874834,
				"element": "C" 
			},
			{
				"x": 3.4120807177,
				"y": -0.6881615423,
				"z": 0.1452469873,
				"element": "C" 
			},
			{
				"x": 2.6144642762,
				"y": -0.2962226105,
				"z": 1.2209154923,
				"element": "C" 
			},
			{
				"x": 1.2417170879,
				"y": -0.1118096485,
				"z": 1.046662828,
				"element": "C" 
			},
			{
				"x": -0.3501003929,
				"y": 4.1749683995,
				"z": -1.1509898782,
				"element": "H" 
			},
			{
				"x": -0.6711245772,
				"y": 0.9822938844,
				"z": -2.280672354,
				"element": "H" 
			},
			{
				"x": -2.2460012991,
				"y": 1.1228422125,
				"z": -1.5156730726,
				"element": "H" 
			},
			{
				"x": -1.283106619,
				"y": 0.1400430901,
				"z": 0.6019906808,
				"element": "H" 
			},
			{
				"x": -1.205726291,
				"y": -1.748275125,
				"z": -1.8412805338,
				"element": "H" 
			},
			{
				"x": -2.8813173426,
				"y": -1.6654348825,
				"z": 0.7355291321,
				"element": "H" 
			},
			{
				"x": -2.975153106,
				"y": -2.9050602098,
				"z": -0.6343651015,
				"element": "H" 
			},
			{
				"x": 1.0174324845,
				"y": -0.8674820032,
				"z": -2.2588683186,
				"element": "H" 
			},
			{
				"x": 3.4388370998,
				"y": -1.1943974211,
				"z": -1.9512622172,
				"element": "H" 
			},
			{
				"x": 4.4802982437,
				"y": -0.8327950745,
				"z": 0.2792219362,
				"element": "H" 
			},
			{
				"x": 3.0597362372,
				"y": -0.1309099824,
				"z": 2.1980628827,
				"element": "H" 
			},
			{
				"x": 0.6278443063,
				"y": 0.2061909713,
				"z": 1.8843912226,
				"element": "H" 
			}
		],
		 "valence_orbital": [ 
			{
				"type": "occ",
				"energy": -0.3184,
				"method": "rhf"
			},
			{
				"type": "occ",
				"energy": -0.27642,
				"method": "rhf"
			},
			{
				"type": "occ",
				"energy": -0.26057,
				"method": "rhf"
			},
			{
				"type": "occ",
				"energy": -0.24606,
				"method": "rhf"
			},
			{
				"type": "occ",
				"energy": -0.23921,
				"method": "rhf"
			},
			{
				"type": "unocc",
				"energy": -0.00395,
				"method": "rhf"
			},
			{
				"type": "unocc",
				"energy": 0.0008,
				"method": "rhf"
			},
			{
				"type": "unocc",
				"energy": 0.0094,
				"method": "rhf"
			},
			{
				"type": "unocc",
				"energy": 0.02521,
				"method": "rhf"
			},
			{
				"type": "unocc",
				"energy": 0.08092,
				"method": "rhf"
			}
		],
		"cosmo_sigma_profile": { 
			"-0.025": 0.0,
			"-0.024": 0.0,
			"-0.023": 0.0,
			"-0.022": 0.0,
			"-0.021": 0.0,
			"-0.02": 0.0,
			"-0.019": 0.0,
			"-0.018": 0.603147949039,
			"-0.017": 0.847762581221,
			"-0.016": 0.966246690961,
			"-0.015": 0.959277177217,
			"-0.014": 0.761109946374,
			"-0.013": 0.401741487466,
			"-0.012": 0.755092629844,
			"-0.011": 0.865289125866,
			"-0.01": 0.782929388344,
			"-0.009": 0.529598922928,
			"-0.008": 0.392577965271,
			"-0.007": 3.3200077961,
			"-0.006": 10.1284023252,
			"-0.005": 18.164664001,
			"-0.004": 21.3946702536,
			"-0.003": 22.0812333106,
			"-0.002": 17.4185829932,
			"-0.001": 16.7050210716,
			"0.0": 13.8383744233,
			"0.001": 12.5587889868,
			"0.002": 12.4746344742,
			"0.003": 12.4608687256,
			"0.004": 13.4576556258,
			"0.005": 14.8541092282,
			"0.006": 14.4971467743,
			"0.007": 4.74759531608,
			"0.008": 2.97095480309,
			"0.009": 3.4259743778,
			"0.01": 2.6452300073,
			"0.011": 3.1915695777,
			"0.012": 3.3979835866,
			"0.013": 0.146993485467,
			"0.014": 0.0,
			"0.015": 0.0,
			"0.016": 0.0,
			"0.017": 0.0,
			"0.018": 0.0,
			"0.019": 0.0,
			"0.02": 0.0,
			"0.021": 0.0,
			"0.022": 0.0,
			"0.023": 0.0,
			"0.024": 0.0,
			"0.025": 0.0
		}
	}
}
