{
	 "smiles": "CC(NC(=O)CCN1C=NC=N1)C(O)=O", 
	 "Tm": 528.15, 
	 "num_atms": 27, 
	 "gaussian": { 
		 "optdone": 1, 
		 "sigma_profile": "yes", 
		 "theory": "DFT", 
		 "functional": "B3LYP", 
		 "basiset": "6-31G**", 
		 "properties": { 
			 "R2extent": 4490.6087, 
			 "electric_dipole_moment_norm": 6.49089746491, 
			 "electric_quadrupole_moment_norm": 30.4631239946, 
			 "total_energy": -756.780601724, 
			 "HOMO_LUMO_gap": 0.2301, 
			 "cosmo_polarized_energy": -22.57, 
			 "cosmo_cavitation_energy": 31.0, 
			 "cosmo_dispersion_energy": -21.18, 
			 "cosmo_repulsion_energy": 1.65, 
			 "cosmo_total_nonelectrostatic_energy": 11.48, 
			 "SMD_solvation_energy": 4.64 
		},
		"coords": [
			{
				"x": 2.3799234419,
				"y": 1.7018907011,
				"z": 0.177963917,
				"element": "C" 
			},
			{
				"x": 2.5459885331,
				"y": 0.807481368,
				"z": 1.4190630853,
				"element": "C" 
			},
			{
				"x": 1.2499189363,
				"y": 0.4175643719,
				"z": 2.0099877571,
				"element": "N" 
			},
			{
				"x": 0.3143787654,
				"y": 1.2664942217,
				"z": 2.4890761389,
				"element": "C" 
			},
			{
				"x": 0.5068895595,
				"y": 2.481821084,
				"z": 2.6512807452,
				"element": "O" 
			},
			{
				"x": -1.0390388315,
				"y": 0.6467705102,
				"z": 2.8138578373,
				"element": "C" 
			},
			{
				"x": -2.0176891883,
				"y": 0.7479197917,
				"z": 1.6337943533,
				"element": "C" 
			},
			{
				"x": -1.5274433485,
				"y": 0.0437183231,
				"z": 0.4524000172,
				"element": "N" 
			},
			{
				"x": -1.4892303177,
				"y": 0.449598462,
				"z": -0.8363553146,
				"element": "C" 
			},
			{
				"x": -0.9805306265,
				"y": -0.4975235204,
				"z": -1.6089009346,
				"element": "N" 
			},
			{
				"x": -0.7169808315,
				"y": -1.4911535074,
				"z": -0.7190341057,
				"element": "C" 
			},
			{
				"x": -1.026914944,
				"y": -1.2184320589,
				"z": 0.5437912918,
				"element": "N" 
			},
			{
				"x": 3.5364736225,
				"y": 1.4380038116,
				"z": 2.4284109375,
				"element": "C" 
			},
			{
				"x": 3.1070939771,
				"y": 2.4940800006,
				"z": 3.123371864,
				"element": "O" 
			},
			{
				"x": 4.6661519611,
				"y": 1.0149256616,
				"z": 2.521475694,
				"element": "O" 
			},
			{
				"x": 1.7809188464,
				"y": 1.1889400127,
				"z": -0.5804226503,
				"element": "H" 
			},
			{
				"x": 1.8923983854,
				"y": 2.6447440629,
				"z": 0.4340083972,
				"element": "H" 
			},
			{
				"x": 3.3630636374,
				"y": 1.9217364456,
				"z": -0.2475481673,
				"element": "H" 
			},
			{
				"x": 3.0249866846,
				"y": -0.1273257928,
				"z": 1.1254840486,
				"element": "H" 
			},
			{
				"x": 0.942677371,
				"y": -0.5305968345,
				"z": 1.8299629252,
				"element": "H" 
			},
			{
				"x": -0.9356770601,
				"y": -0.4013801564,
				"z": 3.1048929972,
				"element": "H" 
			},
			{
				"x": -1.4589273187,
				"y": 1.203276398,
				"z": 3.655077965,
				"element": "H" 
			},
			{
				"x": -2.1657351054,
				"y": 1.7925043212,
				"z": 1.3479063842,
				"element": "H" 
			},
			{
				"x": -2.9860998367,
				"y": 0.3290357017,
				"z": 1.925697318,
				"element": "H" 
			},
			{
				"x": -1.8357314414,
				"y": 1.4226419145,
				"z": -1.1570694823,
				"element": "H" 
			},
			{
				"x": -0.2841614346,
				"y": -2.4410413951,
				"z": -1.0021242623,
				"element": "H" 
			},
			{
				"x": 2.1489965633,
				"y": 2.6730061016,
				"z": 2.9364512433,
				"element": "H" 
			}
		],
		 "valence_orbital": [ 
			{
				"type": "occ",
				"energy": -0.29665,
				"method": "rhf"
			},
			{
				"type": "occ",
				"energy": -0.29449,
				"method": "rhf"
			},
			{
				"type": "occ",
				"energy": -0.29267,
				"method": "rhf"
			},
			{
				"type": "occ",
				"energy": -0.28445,
				"method": "rhf"
			},
			{
				"type": "occ",
				"energy": -0.25116,
				"method": "rhf"
			},
			{
				"type": "unocc",
				"energy": -0.02106,
				"method": "rhf"
			},
			{
				"type": "unocc",
				"energy": -0.01715,
				"method": "rhf"
			},
			{
				"type": "unocc",
				"energy": 0.01908,
				"method": "rhf"
			},
			{
				"type": "unocc",
				"energy": 0.02931,
				"method": "rhf"
			},
			{
				"type": "unocc",
				"energy": 0.06079,
				"method": "rhf"
			}
		],
		"cosmo_sigma_profile": { 
			"-0.025": 0.0,
			"-0.024": 0.0,
			"-0.023": 0.0,
			"-0.022": 0.0,
			"-0.021": 0.0,
			"-0.02": 0.0,
			"-0.019": 0.0,
			"-0.018": 0.0,
			"-0.017": 0.0,
			"-0.016": 0.0,
			"-0.015": 0.0,
			"-0.014": 0.0376882341004,
			"-0.013": 0.739000656373,
			"-0.012": 0.997024774569,
			"-0.011": 2.70240649103,
			"-0.01": 4.48642503403,
			"-0.009": 5.09142310435,
			"-0.008": 8.24081964438,
			"-0.007": 12.6192895665,
			"-0.006": 15.2694714015,
			"-0.005": 16.5934654525,
			"-0.004": 18.6464669757,
			"-0.003": 21.0990825279,
			"-0.002": 20.3335033862,
			"-0.001": 17.9193694068,
			"0.0": 12.3695243844,
			"0.001": 8.71783015729,
			"0.002": 6.54411939927,
			"0.003": 5.94212149181,
			"0.004": 5.57547631357,
			"0.005": 5.90781455868,
			"0.006": 4.94641431689,
			"0.007": 5.64603277659,
			"0.008": 5.1499358621,
			"0.009": 4.92153046039,
			"0.01": 7.34989748956,
			"0.011": 9.06505813946,
			"0.012": 8.91192000397,
			"0.013": 5.86423689502,
			"0.014": 1.9381592809,
			"0.015": 0.760908301731,
			"0.016": 1.21690234811,
			"0.017": 0.156153346458,
			"0.018": 0.0,
			"0.019": 0.0,
			"0.02": 0.0,
			"0.021": 0.0,
			"0.022": 0.0,
			"0.023": 0.0,
			"0.024": 0.0,
			"0.025": 0.0
		}
	}
}
