{
	 "smiles": "CC(C)(C)OC(=O)N1CCNCC1", 
	 "Tm": 321.15, 
	 "num_atms": 31, 
	 "gaussian": { 
		 "optdone": 1, 
		 "sigma_profile": "yes", 
		 "theory": "DFT", 
		 "functional": "B3LYP", 
		 "basiset": "6-31G**", 
		 "properties": { 
			 "R2extent": 3801.2101, 
			 "electric_dipole_moment_norm": 2.10800647532, 
			 "electric_quadrupole_moment_norm": 11.1692638423, 
			 "total_energy": -613.787299262, 
			 "HOMO_LUMO_gap": 0.26544, 
			 "cosmo_polarized_energy": -10.0, 
			 "cosmo_cavitation_energy": 31.24, 
			 "cosmo_dispersion_energy": -22.39, 
			 "cosmo_repulsion_energy": 1.79, 
			 "cosmo_total_nonelectrostatic_energy": 10.64, 
			 "SMD_solvation_energy": 3.02 
		},
		"coords": [
			{
				"x": -0.978246324,
				"y": -1.6090486167,
				"z": -1.777302535,
				"element": "C" 
			},
			{
				"x": 0.1478808128,
				"y": -2.034736516,
				"z": -0.8308390401,
				"element": "C" 
			},
			{
				"x": -0.1155772839,
				"y": -3.4376950783,
				"z": -0.2727297768,
				"element": "C" 
			},
			{
				"x": 1.5088752922,
				"y": -1.9327496572,
				"z": -1.5280554984,
				"element": "C" 
			},
			{
				"x": 0.0530947859,
				"y": -1.036645095,
				"z": 0.2448062842,
				"element": "O" 
			},
			{
				"x": 0.9082458664,
				"y": -1.0663912469,
				"z": 1.2978119689,
				"element": "C" 
			},
			{
				"x": 1.7911520145,
				"y": -1.8970095944,
				"z": 1.4668851484,
				"element": "O" 
			},
			{
				"x": 0.6696914335,
				"y": -0.0248645362,
				"z": 2.1595895024,
				"element": "N" 
			},
			{
				"x": -0.447522418,
				"y": 0.9119545959,
				"z": 2.0479321265,
				"element": "C" 
			},
			{
				"x": 0.0365091486,
				"y": 2.3392682006,
				"z": 2.3550931966,
				"element": "C" 
			},
			{
				"x": 0.7730565201,
				"y": 2.4606334734,
				"z": 3.6153203832,
				"element": "N" 
			},
			{
				"x": 1.8638779349,
				"y": 1.4830325357,
				"z": 3.6856468806,
				"element": "C" 
			},
			{
				"x": 1.4180122516,
				"y": 0.0391934896,
				"z": 3.414038967,
				"element": "C" 
			},
			{
				"x": -1.9446894703,
				"y": -1.6373876496,
				"z": -1.2653687567,
				"element": "H" 
			},
			{
				"x": -0.8113655596,
				"y": -0.5920020363,
				"z": -2.1443864665,
				"element": "H" 
			},
			{
				"x": -1.0221924531,
				"y": -2.2841221389,
				"z": -2.6371392995,
				"element": "H" 
			},
			{
				"x": -0.1585000721,
				"y": -4.1585194796,
				"z": -1.0958600871,
				"element": "H" 
			},
			{
				"x": -1.0767651377,
				"y": -3.4630429631,
				"z": 0.2507463138,
				"element": "H" 
			},
			{
				"x": 0.6723622632,
				"y": -3.7358035981,
				"z": 0.4187814603,
				"element": "H" 
			},
			{
				"x": 1.525861919,
				"y": -2.5956348408,
				"z": -2.3994207965,
				"element": "H" 
			},
			{
				"x": 2.3151853528,
				"y": -2.2162136477,
				"z": -0.8516421922,
				"element": "H" 
			},
			{
				"x": 1.6804411839,
				"y": -0.9094077751,
				"z": -1.8771559585,
				"element": "H" 
			},
			{
				"x": -1.2374161256,
				"y": 0.6306931562,
				"z": 2.7651494406,
				"element": "H" 
			},
			{
				"x": -0.8680770141,
				"y": 0.8480878638,
				"z": 1.0455070599,
				"element": "H" 
			},
			{
				"x": 0.7008151452,
				"y": 2.6683678694,
				"z": 1.5454914414,
				"element": "H" 
			},
			{
				"x": -0.8196425618,
				"y": 3.0227660039,
				"z": 2.3755388069,
				"element": "H" 
			},
			{
				"x": 0.133383402,
				"y": 2.3037543578,
				"z": 4.3930880121,
				"element": "H" 
			},
			{
				"x": 2.6187490993,
				"y": 1.7687715165,
				"z": 2.9418366689,
				"element": "H" 
			},
			{
				"x": 2.3351907564,
				"y": 1.5471389421,
				"z": 4.6725282014,
				"element": "H" 
			},
			{
				"x": 0.7786006913,
				"y": -0.3102641232,
				"z": 4.2423096655,
				"element": "H" 
			},
			{
				"x": 2.2666085465,
				"y": -0.6410234116,
				"z": 3.3340988789,
				"element": "H" 
			}
		],
		 "valence_orbital": [ 
			{
				"type": "occ",
				"energy": -0.32735,
				"method": "rhf"
			},
			{
				"type": "occ",
				"energy": -0.28369,
				"method": "rhf"
			},
			{
				"type": "occ",
				"energy": -0.25642,
				"method": "rhf"
			},
			{
				"type": "occ",
				"energy": -0.24945,
				"method": "rhf"
			},
			{
				"type": "occ",
				"energy": -0.21322,
				"method": "rhf"
			},
			{
				"type": "unocc",
				"energy": 0.05222,
				"method": "rhf"
			},
			{
				"type": "unocc",
				"energy": 0.08375,
				"method": "rhf"
			},
			{
				"type": "unocc",
				"energy": 0.09418,
				"method": "rhf"
			},
			{
				"type": "unocc",
				"energy": 0.10502,
				"method": "rhf"
			},
			{
				"type": "unocc",
				"energy": 0.11743,
				"method": "rhf"
			}
		],
		"cosmo_sigma_profile": { 
			"-0.025": 0.0,
			"-0.024": 0.0,
			"-0.023": 0.0,
			"-0.022": 0.0,
			"-0.021": 0.0,
			"-0.02": 0.0,
			"-0.019": 0.0,
			"-0.018": 0.0,
			"-0.017": 0.0,
			"-0.016": 0.0,
			"-0.015": 0.0,
			"-0.014": 0.0,
			"-0.013": 0.0,
			"-0.012": 0.0,
			"-0.011": 0.0,
			"-0.01": 0.773419840279,
			"-0.009": 1.80334444785,
			"-0.008": 1.24992080876,
			"-0.007": 2.2559551786,
			"-0.006": 2.45934050332,
			"-0.005": 4.58283064981,
			"-0.004": 25.1954289887,
			"-0.003": 36.4528597972,
			"-0.002": 30.3984157652,
			"-0.001": 27.1706978653,
			"0.0": 29.7591654213,
			"0.001": 25.0364852133,
			"0.002": 10.6085321224,
			"0.003": 6.38331110058,
			"0.004": 5.67167056681,
			"0.005": 5.97758430794,
			"0.006": 3.71266651664,
			"0.007": 2.7814254493,
			"0.008": 3.49715958582,
			"0.009": 1.89500321648,
			"0.01": 0.897249338444,
			"0.011": 2.82900336824,
			"0.012": 2.47883830895,
			"0.013": 2.71909383059,
			"0.014": 2.48421849693,
			"0.015": 0.962885439675,
			"0.016": 0.644838196425,
			"0.017": 0.52220792073,
			"0.018": 0.451321942916,
			"0.019": 0.0485223795506,
			"0.02": 0.0,
			"0.021": 0.0,
			"0.022": 0.0,
			"0.023": 0.0,
			"0.024": 0.0,
			"0.025": 0.0
		}
	}
}
