{
	 "smiles": "CC(=O)OC1=CC=C2C=CC=CC2=C1", 
	 "Tm": 342.15, 
	 "num_atms": 24, 
	 "gaussian": { 
		 "optdone": 1, 
		 "sigma_profile": "yes", 
		 "theory": "DFT", 
		 "functional": "B3LYP", 
		 "basiset": "6-31G**", 
		 "properties": { 
			 "R2extent": 4211.2468, 
			 "electric_dipole_moment_norm": 1.62114904312, 
			 "electric_quadrupole_moment_norm": 12.9142309066, 
			 "total_energy": -613.772476849, 
			 "HOMO_LUMO_gap": 0.17533, 
			 "cosmo_polarized_energy": -8.86, 
			 "cosmo_cavitation_energy": 28.47, 
			 "cosmo_dispersion_energy": -20.9, 
			 "cosmo_repulsion_energy": 1.63, 
			 "cosmo_total_nonelectrostatic_energy": 9.2, 
			 "SMD_solvation_energy": 5.9 
		},
		"coords": [
			{
				"x": -4.7126799007,
				"y": 1.2967319236,
				"z": -2.9373140524,
				"element": "C" 
			},
			{
				"x": -3.4564629844,
				"y": 1.5470470962,
				"z": -2.1400224308,
				"element": "C" 
			},
			{
				"x": -3.3237459648,
				"y": 2.3622387813,
				"z": -1.2611887063,
				"element": "O" 
			},
			{
				"x": -2.4677255533,
				"y": 0.6959040819,
				"z": -2.562016475,
				"element": "O" 
			},
			{
				"x": -1.2006081816,
				"y": 0.7360228961,
				"z": -1.9746737442,
				"element": "C" 
			},
			{
				"x": -0.4812108793,
				"y": 1.9486795848,
				"z": -1.8463492945,
				"element": "C" 
			},
			{
				"x": 0.796345147,
				"y": 1.9176492658,
				"z": -1.3382424567,
				"element": "C" 
			},
			{
				"x": 1.409508852,
				"y": 0.6972192662,
				"z": -0.9449023454,
				"element": "C" 
			},
			{
				"x": 2.7280049359,
				"y": 0.6433217259,
				"z": -0.4190372526,
				"element": "C" 
			},
			{
				"x": 3.2923923611,
				"y": -0.5576658705,
				"z": -0.0517316142,
				"element": "C" 
			},
			{
				"x": 2.5610886764,
				"y": -1.7627032989,
				"z": -0.1947099754,
				"element": "C" 
			},
			{
				"x": 1.2811068949,
				"y": -1.7452486903,
				"z": -0.7016592438,
				"element": "C" 
			},
			{
				"x": 0.6699235838,
				"y": -0.5219673381,
				"z": -1.0890023925,
				"element": "C" 
			},
			{
				"x": -0.6488758511,
				"y": -0.4685691504,
				"z": -1.6117368335,
				"element": "C" 
			},
			{
				"x": -5.4925779101,
				"y": 1.9816307816,
				"z": -2.6065867281,
				"element": "H" 
			},
			{
				"x": -5.0416567135,
				"y": 0.2621020069,
				"z": -2.802699224,
				"element": "H" 
			},
			{
				"x": -4.514840135,
				"y": 1.4389779998,
				"z": -4.0037661204,
				"element": "H" 
			},
			{
				"x": -0.9433058918,
				"y": 2.8829654156,
				"z": -2.138243432,
				"element": "H" 
			},
			{
				"x": 1.3566876388,
				"y": 2.8427759032,
				"z": -1.2327688473,
				"element": "H" 
			},
			{
				"x": 3.2856629882,
				"y": 1.5701546573,
				"z": -0.3109566938,
				"element": "H" 
			},
			{
				"x": 4.301265654,
				"y": -0.5859219792,
				"z": 0.3494522067,
				"element": "H" 
			},
			{
				"x": 3.0162283942,
				"y": -2.7043146606,
				"z": 0.0986602398,
				"element": "H" 
			},
			{
				"x": 0.7192822233,
				"y": -2.6692351263,
				"z": -0.8112860155,
				"element": "H" 
			},
			{
				"x": -1.226407384,
				"y": -1.3796952721,
				"z": -1.7333185683,
				"element": "H" 
			}
		],
		 "valence_orbital": [ 
			{
				"type": "occ",
				"energy": -0.30943,
				"method": "rhf"
			},
			{
				"type": "occ",
				"energy": -0.28629,
				"method": "rhf"
			},
			{
				"type": "occ",
				"energy": -0.27628,
				"method": "rhf"
			},
			{
				"type": "occ",
				"energy": -0.23954,
				"method": "rhf"
			},
			{
				"type": "occ",
				"energy": -0.21531,
				"method": "rhf"
			},
			{
				"type": "unocc",
				"energy": -0.03998,
				"method": "rhf"
			},
			{
				"type": "unocc",
				"energy": -0.01334,
				"method": "rhf"
			},
			{
				"type": "unocc",
				"energy": 0.00973,
				"method": "rhf"
			},
			{
				"type": "unocc",
				"energy": 0.03156,
				"method": "rhf"
			},
			{
				"type": "unocc",
				"energy": 0.09234,
				"method": "rhf"
			}
		],
		"cosmo_sigma_profile": { 
			"-0.025": 0.0,
			"-0.024": 0.0,
			"-0.023": 0.0,
			"-0.022": 0.0,
			"-0.021": 0.0,
			"-0.02": 0.0,
			"-0.019": 0.0,
			"-0.018": 0.0,
			"-0.017": 0.0,
			"-0.016": 0.0,
			"-0.015": 0.0,
			"-0.014": 0.0,
			"-0.013": 0.0,
			"-0.012": 0.0,
			"-0.011": 0.0,
			"-0.01": 0.0,
			"-0.009": 0.0,
			"-0.008": 0.0,
			"-0.007": 4.47275001613,
			"-0.006": 19.5034150108,
			"-0.005": 21.0343177399,
			"-0.004": 20.4343234951,
			"-0.003": 18.0094910843,
			"-0.002": 18.3933754477,
			"-0.001": 12.3809719494,
			"0.0": 11.5576551611,
			"0.001": 11.3934588736,
			"0.002": 14.3819452714,
			"0.003": 22.477700222,
			"0.004": 21.0202431037,
			"0.005": 12.8957728043,
			"0.006": 3.711022534,
			"0.007": 2.24490447403,
			"0.008": 2.51731383173,
			"0.009": 2.28660934229,
			"0.01": 2.42094942605,
			"0.011": 4.59000240655,
			"0.012": 2.29327720824,
			"0.013": 0.0870364878367,
			"0.014": 0.0,
			"0.015": 0.0,
			"0.016": 0.0,
			"0.017": 0.0,
			"0.018": 0.0,
			"0.019": 0.0,
			"0.02": 0.0,
			"0.021": 0.0,
			"0.022": 0.0,
			"0.023": 0.0,
			"0.024": 0.0,
			"0.025": 0.0
		}
	}
}
