{
	 "smiles": "CCOC(=O)CC(C)=O", 
	 "Tm": 229.15, 
	 "num_atms": 19, 
	 "gaussian": { 
		 "optdone": 1, 
		 "sigma_profile": "yes", 
		 "theory": "DFT", 
		 "functional": "B3LYP", 
		 "basiset": "6-31G**", 
		 "properties": { 
			 "R2extent": 1868.4621, 
			 "electric_dipole_moment_norm": 2.41343087947, 
			 "electric_quadrupole_moment_norm": 11.8883681218, 
			 "total_energy": -460.350097614, 
			 "HOMO_LUMO_gap": 0.22687, 
			 "cosmo_polarized_energy": -9.6, 
			 "cosmo_cavitation_energy": 23.05, 
			 "cosmo_dispersion_energy": -16.42, 
			 "cosmo_repulsion_energy": 1.4, 
			 "cosmo_total_nonelectrostatic_energy": 8.03, 
			 "SMD_solvation_energy": 6.07 
		},
		"coords": [
			{
				"x": 0.5656270509,
				"y": -1.5162225656,
				"z": -2.4064146777,
				"element": "C" 
			},
			{
				"x": 1.0900603865,
				"y": -1.5721053804,
				"z": -0.9801451374,
				"element": "C" 
			},
			{
				"x": 1.4686287653,
				"y": -0.2520449722,
				"z": -0.5082768832,
				"element": "O" 
			},
			{
				"x": 0.4885705591,
				"y": 0.5032319587,
				"z": 0.0199840833,
				"element": "C" 
			},
			{
				"x": -0.6678609727,
				"y": 0.147353254,
				"z": 0.1288486689,
				"element": "O" 
			},
			{
				"x": 1.0270711754,
				"y": 1.85294909,
				"z": 0.4721913504,
				"element": "C" 
			},
			{
				"x": 0.2057103877,
				"y": 3.0252827704,
				"z": -0.0949558541,
				"element": "C" 
			},
			{
				"x": -1.1746524018,
				"y": 3.2352337704,
				"z": 0.4841189489,
				"element": "C" 
			},
			{
				"x": 0.6784113091,
				"y": 3.7358113525,
				"z": -0.9581693756,
				"element": "O" 
			},
			{
				"x": -0.3649832825,
				"y": -0.9455273353,
				"z": -2.4527575667,
				"element": "H" 
			},
			{
				"x": 1.2990087265,
				"y": -1.0542514188,
				"z": -3.0735065484,
				"element": "H" 
			},
			{
				"x": 0.3639752821,
				"y": -2.5307015358,
				"z": -2.765952453,
				"element": "H" 
			},
			{
				"x": 2.0119155547,
				"y": -2.154084029,
				"z": -0.9124692203,
				"element": "H" 
			},
			{
				"x": 0.3444870906,
				"y": -1.9880057972,
				"z": -0.2985935664,
				"element": "H" 
			},
			{
				"x": 2.0647315295,
				"y": 1.9694073138,
				"z": 0.1609279724,
				"element": "H" 
			},
			{
				"x": 0.9679008042,
				"y": 1.8669058221,
				"z": 1.5675649997,
				"element": "H" 
			},
			{
				"x": -1.7379576954,
				"y": 2.2978535612,
				"z": 0.4504163435,
				"element": "H" 
			},
			{
				"x": -1.0901832923,
				"y": 3.5206331285,
				"z": 1.5402263743,
				"element": "H" 
			},
			{
				"x": -1.6907609767,
				"y": 4.0240810127,
				"z": -0.0645374586,
				"element": "H" 
			}
		],
		 "valence_orbital": [ 
			{
				"type": "occ",
				"energy": -0.35776,
				"method": "rhf"
			},
			{
				"type": "occ",
				"energy": -0.346,
				"method": "rhf"
			},
			{
				"type": "occ",
				"energy": -0.30796,
				"method": "rhf"
			},
			{
				"type": "occ",
				"energy": -0.2817,
				"method": "rhf"
			},
			{
				"type": "occ",
				"energy": -0.25064,
				"method": "rhf"
			},
			{
				"type": "unocc",
				"energy": -0.02377,
				"method": "rhf"
			},
			{
				"type": "unocc",
				"energy": 0.0084,
				"method": "rhf"
			},
			{
				"type": "unocc",
				"energy": 0.09704,
				"method": "rhf"
			},
			{
				"type": "unocc",
				"energy": 0.10757,
				"method": "rhf"
			},
			{
				"type": "unocc",
				"energy": 0.12407,
				"method": "rhf"
			}
		],
		"cosmo_sigma_profile": { 
			"-0.025": 0.0,
			"-0.024": 0.0,
			"-0.023": 0.0,
			"-0.022": 0.0,
			"-0.021": 0.0,
			"-0.02": 0.0,
			"-0.019": 0.0,
			"-0.018": 0.0,
			"-0.017": 0.0,
			"-0.016": 0.0,
			"-0.015": 0.0,
			"-0.014": 0.0,
			"-0.013": 0.0,
			"-0.012": 0.0,
			"-0.011": 0.0,
			"-0.01": 0.0,
			"-0.009": 0.935546706586,
			"-0.008": 3.96779209359,
			"-0.007": 4.21708161394,
			"-0.006": 7.77888613474,
			"-0.005": 11.557279909,
			"-0.004": 19.7007255798,
			"-0.003": 21.4743601038,
			"-0.002": 19.0605872475,
			"-0.001": 19.2572859017,
			"0.0": 14.8818258113,
			"0.001": 7.24370797339,
			"0.002": 5.15786325213,
			"0.003": 5.02174288976,
			"0.004": 4.36635768839,
			"0.005": 4.23100677723,
			"0.006": 3.53214643336,
			"0.007": 4.04987140549,
			"0.008": 4.44321975983,
			"0.009": 3.18908909763,
			"0.01": 4.47128439554,
			"0.011": 7.32512400574,
			"0.012": 4.46440767599,
			"0.013": 0.821828046532,
			"0.014": 0.0,
			"0.015": 0.0,
			"0.016": 0.0,
			"0.017": 0.0,
			"0.018": 0.0,
			"0.019": 0.0,
			"0.02": 0.0,
			"0.021": 0.0,
			"0.022": 0.0,
			"0.023": 0.0,
			"0.024": 0.0,
			"0.025": 0.0
		}
	}
}
