{
	 "smiles": "CC(C)(C)C(=O)NC1=C(C=CC=C1)C(O)=O", 
	 "Tm": 431.15, 
	 "num_atms": 31, 
	 "gaussian": { 
		 "optdone": 1, 
		 "sigma_profile": "yes", 
		 "theory": "DFT", 
		 "functional": "B3LYP", 
		 "basiset": "6-31G**", 
		 "properties": { 
			 "R2extent": 4245.6931, 
			 "electric_dipole_moment_norm": 2.2109979896, 
			 "electric_quadrupole_moment_norm": 16.6982236654, 
			 "total_energy": -746.773539449, 
			 "HOMO_LUMO_gap": 0.17431, 
			 "cosmo_polarized_energy": -13.92, 
			 "cosmo_cavitation_energy": 33.22, 
			 "cosmo_dispersion_energy": -23.26, 
			 "cosmo_repulsion_energy": 1.8, 
			 "cosmo_total_nonelectrostatic_energy": 11.76, 
			 "SMD_solvation_energy": 7.6 
		},
		"coords": [
			{
				"x": -1.2994510628,
				"y": 3.3434731842,
				"z": 0.0670354329,
				"element": "C" 
			},
			{
				"x": -0.3734691196,
				"y": 2.1968316074,
				"z": 0.5327253252,
				"element": "C" 
			},
			{
				"x": 0.865100084,
				"y": 2.8276017955,
				"z": 1.2183063791,
				"element": "C" 
			},
			{
				"x": -1.0796049665,
				"y": 1.3024871908,
				"z": 1.5687780646,
				"element": "C" 
			},
			{
				"x": 0.186288092,
				"y": 1.4668369113,
				"z": -0.7205502224,
				"element": "C" 
			},
			{
				"x": 1.0695603321,
				"y": 1.9976171692,
				"z": -1.3814692698,
				"element": "O" 
			},
			{
				"x": -0.1597903573,
				"y": 0.1580168173,
				"z": -1.0650890929,
				"element": "N" 
			},
			{
				"x": -1.3266939237,
				"y": -0.6094166822,
				"z": -0.938664819,
				"element": "C" 
			},
			{
				"x": -1.2742719112,
				"y": -2.0241535797,
				"z": -0.8191687265,
				"element": "C" 
			},
			{
				"x": -2.4723056355,
				"y": -2.7479567858,
				"z": -0.6916458104,
				"element": "C" 
			},
			{
				"x": -3.709312998,
				"y": -2.1188071221,
				"z": -0.7010282778,
				"element": "C" 
			},
			{
				"x": -3.7610885605,
				"y": -0.7315714426,
				"z": -0.8613299202,
				"element": "C" 
			},
			{
				"x": -2.5894771062,
				"y": 0.0054324813,
				"z": -0.9912015966,
				"element": "C" 
			},
			{
				"x": -0.0390591719,
				"y": -2.8550406184,
				"z": -0.8197213629,
				"element": "C" 
			},
			{
				"x": 1.0751657002,
				"y": -2.2146639464,
				"z": -1.2685135332,
				"element": "O" 
			},
			{
				"x": 0.003569677,
				"y": -4.0231885451,
				"z": -0.4886514867,
				"element": "O" 
			},
			{
				"x": -1.5739353456,
				"y": 3.9687179963,
				"z": 0.9233108234,
				"element": "H" 
			},
			{
				"x": -0.7894437823,
				"y": 3.9713529465,
				"z": -0.6687155356,
				"element": "H" 
			},
			{
				"x": -2.2284524741,
				"y": 2.9764923746,
				"z": -0.3806884276,
				"element": "H" 
			},
			{
				"x": 1.5457604029,
				"y": 2.0539560682,
				"z": 1.5890581217,
				"element": "H" 
			},
			{
				"x": 1.4172214348,
				"y": 3.4570187999,
				"z": 0.5199763103,
				"element": "H" 
			},
			{
				"x": 0.5418050441,
				"y": 3.4315907193,
				"z": 2.0723968946,
				"element": "H" 
			},
			{
				"x": -0.4681141787,
				"y": 0.4323679274,
				"z": 1.8281650642,
				"element": "H" 
			},
			{
				"x": -2.055351486,
				"y": 0.94401994,
				"z": 1.2403829944,
				"element": "H" 
			},
			{
				"x": -1.235875334,
				"y": 1.8805666431,
				"z": 2.4856981263,
				"element": "H" 
			},
			{
				"x": 0.5634604305,
				"y": -0.2527881921,
				"z": -1.6438055036,
				"element": "H" 
			},
			{
				"x": -2.3932702635,
				"y": -3.8243279958,
				"z": -0.5864141347,
				"element": "H" 
			},
			{
				"x": -4.6206926906,
				"y": -2.6995634295,
				"z": -0.6041460812,
				"element": "H" 
			},
			{
				"x": -4.7184780382,
				"y": -0.220412369,
				"z": -0.9067398883,
				"element": "H" 
			},
			{
				"x": -2.6390354411,
				"y": 1.0740193044,
				"z": -1.1622185408,
				"element": "H" 
			},
			{
				"x": 1.7910426496,
				"y": -2.8709091681,
				"z": -1.2295713064,
				"element": "H" 
			}
		],
		 "valence_orbital": [ 
			{
				"type": "occ",
				"energy": -0.30268,
				"method": "rhf"
			},
			{
				"type": "occ",
				"energy": -0.2886,
				"method": "rhf"
			},
			{
				"type": "occ",
				"energy": -0.26853,
				"method": "rhf"
			},
			{
				"type": "occ",
				"energy": -0.25192,
				"method": "rhf"
			},
			{
				"type": "occ",
				"energy": -0.23196,
				"method": "rhf"
			},
			{
				"type": "unocc",
				"energy": -0.05765,
				"method": "rhf"
			},
			{
				"type": "unocc",
				"energy": -0.02329,
				"method": "rhf"
			},
			{
				"type": "unocc",
				"energy": 0.01964,
				"method": "rhf"
			},
			{
				"type": "unocc",
				"energy": 0.0444,
				"method": "rhf"
			},
			{
				"type": "unocc",
				"energy": 0.07068,
				"method": "rhf"
			}
		],
		"cosmo_sigma_profile": { 
			"-0.025": 0.0,
			"-0.024": 0.0,
			"-0.023": 0.0,
			"-0.022": 0.0,
			"-0.021": 0.0,
			"-0.02": 0.0,
			"-0.019": 0.211671793921,
			"-0.018": 0.758800637711,
			"-0.017": 1.01179367352,
			"-0.016": 0.987206227764,
			"-0.015": 0.755912562937,
			"-0.014": 0.237962880483,
			"-0.013": 0.34675420053,
			"-0.012": 1.26171989238,
			"-0.011": 1.03464070814,
			"-0.01": 0.600090623824,
			"-0.009": 0.638321029138,
			"-0.008": 1.57850086575,
			"-0.007": 6.06983914884,
			"-0.006": 10.2901436915,
			"-0.005": 10.9415678228,
			"-0.004": 13.7992198074,
			"-0.003": 25.8646526634,
			"-0.002": 23.4920662227,
			"-0.001": 27.778255921,
			"0.0": 31.3647888479,
			"0.001": 28.4658155197,
			"0.002": 15.8726010746,
			"0.003": 14.0272650973,
			"0.004": 8.67080822536,
			"0.005": 3.67058798657,
			"0.006": 2.4022774618,
			"0.007": 2.71988997558,
			"0.008": 2.8673357173,
			"0.009": 3.48111295921,
			"0.01": 3.36726854213,
			"0.011": 5.56452873024,
			"0.012": 5.79505501698,
			"0.013": 5.03696406791,
			"0.014": 0.946339651643,
			"0.015": 0.0,
			"0.016": 0.0,
			"0.017": 0.0,
			"0.018": 0.0,
			"0.019": 0.0,
			"0.02": 0.0,
			"0.021": 0.0,
			"0.022": 0.0,
			"0.023": 0.0,
			"0.024": 0.0,
			"0.025": 0.0
		}
	}
}
