{
	 "smiles": "COC1=C(OCC(F)(F)F)C=CC(C=O)=C1", 
	 "Tm": 340.15, 
	 "num_atms": 25, 
	 "gaussian": { 
		 "optdone": 1, 
		 "sigma_profile": "yes", 
		 "theory": "DFT", 
		 "functional": "B3LYP", 
		 "basiset": "6-31G**", 
		 "properties": { 
			 "R2extent": 4070.4901, 
			 "electric_dipole_moment_norm": 4.77058446839, 
			 "electric_quadrupole_moment_norm": 14.1280467319, 
			 "total_energy": -911.643507671, 
			 "HOMO_LUMO_gap": 0.17357, 
			 "cosmo_polarized_energy": -12.4, 
			 "cosmo_cavitation_energy": 30.86, 
			 "cosmo_dispersion_energy": -21.26, 
			 "cosmo_repulsion_energy": 1.6, 
			 "cosmo_total_nonelectrostatic_energy": 11.2, 
			 "SMD_solvation_energy": 8.34 
		},
		"coords": [
			{
				"x": 0.9970779764,
				"y": 1.4070588507,
				"z": 1.8662743174,
				"element": "C" 
			},
			{
				"x": -0.2246760714,
				"y": 0.7831984015,
				"z": 1.4491307102,
				"element": "O" 
			},
			{
				"x": -0.1887369829,
				"y": -0.4188913203,
				"z": 0.8129001229,
				"element": "C" 
			},
			{
				"x": 0.6942925311,
				"y": -0.7406250635,
				"z": -0.2423301732,
				"element": "C" 
			},
			{
				"x": 1.6520171899,
				"y": 0.1830535141,
				"z": -0.621329467,
				"element": "O" 
			},
			{
				"x": 1.6061148621,
				"y": 0.6656471325,
				"z": -1.9519104541,
				"element": "C" 
			},
			{
				"x": 0.7373711618,
				"y": 1.9122565012,
				"z": -2.0582182852,
				"element": "C" 
			},
			{
				"x": -0.537711066,
				"y": 1.6631752284,
				"z": -1.7134457792,
				"element": "F" 
			},
			{
				"x": 0.7509821047,
				"y": 2.3586820782,
				"z": -3.3328202586,
				"element": "F" 
			},
			{
				"x": 1.1938128266,
				"y": 2.9048379122,
				"z": -1.2676387199,
				"element": "F" 
			},
			{
				"x": 0.641836642,
				"y": -1.9959106838,
				"z": -0.8552563402,
				"element": "C" 
			},
			{
				"x": -0.3130711187,
				"y": -2.9292720093,
				"z": -0.4659180135,
				"element": "C" 
			},
			{
				"x": -1.2141064333,
				"y": -2.6111798552,
				"z": 0.558203993,
				"element": "C" 
			},
			{
				"x": -2.2320006459,
				"y": -3.5990688718,
				"z": 0.9792005654,
				"element": "C" 
			},
			{
				"x": -3.0486228326,
				"y": -3.4210985406,
				"z": 1.8627535498,
				"element": "O" 
			},
			{
				"x": -1.1379083638,
				"y": -1.3668347998,
				"z": 1.1947526644,
				"element": "C" 
			},
			{
				"x": 0.722134682,
				"y": 2.0650605082,
				"z": 2.6935370737,
				"element": "H" 
			},
			{
				"x": 1.7190141235,
				"y": 0.6636075734,
				"z": 2.2211128991,
				"element": "H" 
			},
			{
				"x": 1.4429569258,
				"y": 1.9915888996,
				"z": 1.0608226098,
				"element": "H" 
			},
			{
				"x": 2.624309978,
				"y": 0.9367249962,
				"z": -2.240976415,
				"element": "H" 
			},
			{
				"x": 1.2192399006,
				"y": -0.080146424,
				"z": -2.6533926284,
				"element": "H" 
			},
			{
				"x": 1.3593087183,
				"y": -2.2286938408,
				"z": -1.6365179427,
				"element": "H" 
			},
			{
				"x": -0.356928935,
				"y": -3.9024419441,
				"z": -0.94758694,
				"element": "H" 
			},
			{
				"x": -2.2032837138,
				"y": -4.5573939078,
				"z": 0.4132590501,
				"element": "H" 
			},
			{
				"x": -1.8336234593,
				"y": -1.1279343352,
				"z": 1.9918938611,
				"element": "H" 
			}
		],
		 "valence_orbital": [ 
			{
				"type": "occ",
				"energy": -0.32605,
				"method": "rhf"
			},
			{
				"type": "occ",
				"energy": -0.3001,
				"method": "rhf"
			},
			{
				"type": "occ",
				"energy": -0.25955,
				"method": "rhf"
			},
			{
				"type": "occ",
				"energy": -0.25473,
				"method": "rhf"
			},
			{
				"type": "occ",
				"energy": -0.23634,
				"method": "rhf"
			},
			{
				"type": "unocc",
				"energy": -0.06277,
				"method": "rhf"
			},
			{
				"type": "unocc",
				"energy": -0.01508,
				"method": "rhf"
			},
			{
				"type": "unocc",
				"energy": 0.03686,
				"method": "rhf"
			},
			{
				"type": "unocc",
				"energy": 0.06877,
				"method": "rhf"
			},
			{
				"type": "unocc",
				"energy": 0.08522,
				"method": "rhf"
			}
		],
		"cosmo_sigma_profile": { 
			"-0.025": 0.0,
			"-0.024": 0.0,
			"-0.023": 0.0,
			"-0.022": 0.0,
			"-0.021": 0.0,
			"-0.02": 0.0,
			"-0.019": 0.0,
			"-0.018": 0.0,
			"-0.017": 0.0,
			"-0.016": 0.0,
			"-0.015": 0.0,
			"-0.014": 0.0,
			"-0.013": 0.0,
			"-0.012": 0.0,
			"-0.011": 0.0,
			"-0.01": 0.141193742706,
			"-0.009": 4.28413119689,
			"-0.008": 8.61033684489,
			"-0.007": 10.8108706337,
			"-0.006": 12.8183006182,
			"-0.005": 14.9452805873,
			"-0.004": 12.9805634563,
			"-0.003": 15.9654123153,
			"-0.002": 12.8808778439,
			"-0.001": 13.8282505196,
			"0.0": 15.1321742628,
			"0.001": 21.0933096081,
			"0.002": 36.9445968529,
			"0.003": 27.705612543,
			"0.004": 5.84999252395,
			"0.005": 5.39727127738,
			"0.006": 4.16820977036,
			"0.007": 3.31750092607,
			"0.008": 3.74856241383,
			"0.009": 3.43002900073,
			"0.01": 4.17807546381,
			"0.011": 4.27516087589,
			"0.012": 3.23520846141,
			"0.013": 0.771855843889,
			"0.014": 0.0,
			"0.015": 0.0,
			"0.016": 0.0,
			"0.017": 0.0,
			"0.018": 0.0,
			"0.019": 0.0,
			"0.02": 0.0,
			"0.021": 0.0,
			"0.022": 0.0,
			"0.023": 0.0,
			"0.024": 0.0,
			"0.025": 0.0
		}
	}
}
