{
	 "smiles": "CN1C(C=O)=CC2=C1C=CS2", 
	 "Tm": 336.65, 
	 "num_atms": 18, 
	 "gaussian": { 
		 "optdone": 1, 
		 "sigma_profile": "yes", 
		 "theory": "DFT", 
		 "functional": "B3LYP", 
		 "basiset": "6-31G**", 
		 "properties": { 
			 "R2extent": 2197.6638, 
			 "electric_dipole_moment_norm": 5.00263463887, 
			 "electric_quadrupole_moment_norm": 13.0972493975, 
			 "total_energy": -837.198897642, 
			 "HOMO_LUMO_gap": 0.15629, 
			 "cosmo_polarized_energy": -12.01, 
			 "cosmo_cavitation_energy": 23.89, 
			 "cosmo_dispersion_energy": -18.06, 
			 "cosmo_repulsion_energy": 1.37, 
			 "cosmo_total_nonelectrostatic_energy": 7.2, 
			 "SMD_solvation_energy": 4.96 
		},
		"coords": [
			{
				"x": 0.9017415717,
				"y": 2.3334734878,
				"z": 2.1906629163,
				"element": "C" 
			},
			{
				"x": 0.4092609996,
				"y": 1.2485290705,
				"z": 1.356173662,
				"element": "N" 
			},
			{
				"x": 0.2312535465,
				"y": -0.0852826874,
				"z": 1.7406066417,
				"element": "C" 
			},
			{
				"x": 0.5251848842,
				"y": -0.5824480253,
				"z": 3.0724392997,
				"element": "C" 
			},
			{
				"x": 0.3729924682,
				"y": -1.7456263899,
				"z": 3.4176099614,
				"element": "O" 
			},
			{
				"x": -0.2592018216,
				"y": -0.8157280259,
				"z": 0.6545308989,
				"element": "C" 
			},
			{
				"x": -0.3801894864,
				"y": 0.0933612666,
				"z": -0.4069169284,
				"element": "C" 
			},
			{
				"x": 0.036059125,
				"y": 1.3587711413,
				"z": 0.0444693961,
				"element": "C" 
			},
			{
				"x": -0.0350145729,
				"y": 2.38853709,
				"z": -0.940584612,
				"element": "C" 
			},
			{
				"x": -0.5041536116,
				"y": 1.8861423578,
				"z": -2.1226844761,
				"element": "C" 
			},
			{
				"x": -0.8705724584,
				"y": 0.169770968,
				"z": -2.0809995349,
				"element": "S" 
			},
			{
				"x": 0.2480410731,
				"y": 2.4981982899,
				"z": 3.0526280892,
				"element": "H" 
			},
			{
				"x": 1.9158336319,
				"y": 2.1294804543,
				"z": 2.5476434657,
				"element": "H" 
			},
			{
				"x": 0.9242396974,
				"y": 3.2480961724,
				"z": 1.5971944544,
				"element": "H" 
			},
			{
				"x": 0.9102474877,
				"y": 0.1729551801,
				"z": 3.7926022344,
				"element": "H" 
			},
			{
				"x": -0.4826728477,
				"y": -1.8715499752,
				"z": 0.6862987358,
				"element": "H" 
			},
			{
				"x": 0.2370513767,
				"y": 3.4274741454,
				"z": -0.7998937296,
				"element": "H" 
			},
			{
				"x": -0.6632010634,
				"y": 2.4300454797,
				"z": -3.0438804747,
				"element": "H" 
			}
		],
		 "valence_orbital": [ 
			{
				"type": "occ",
				"energy": -0.33668,
				"method": "rhf"
			},
			{
				"type": "occ",
				"energy": -0.2844,
				"method": "rhf"
			},
			{
				"type": "occ",
				"energy": -0.24623,
				"method": "rhf"
			},
			{
				"type": "occ",
				"energy": -0.22842,
				"method": "rhf"
			},
			{
				"type": "occ",
				"energy": -0.21295,
				"method": "rhf"
			},
			{
				"type": "unocc",
				"energy": -0.05666,
				"method": "rhf"
			},
			{
				"type": "unocc",
				"energy": 0.00618,
				"method": "rhf"
			},
			{
				"type": "unocc",
				"energy": 0.02202,
				"method": "rhf"
			},
			{
				"type": "unocc",
				"energy": 0.07354,
				"method": "rhf"
			},
			{
				"type": "unocc",
				"energy": 0.08387,
				"method": "rhf"
			}
		],
		"cosmo_sigma_profile": { 
			"-0.025": 0.0,
			"-0.024": 0.0,
			"-0.023": 0.0,
			"-0.022": 0.0,
			"-0.021": 0.0,
			"-0.02": 0.0,
			"-0.019": 0.0,
			"-0.018": 0.0,
			"-0.017": 0.0,
			"-0.016": 0.0,
			"-0.015": 0.0,
			"-0.014": 0.0,
			"-0.013": 0.0,
			"-0.012": 0.0,
			"-0.011": 0.0,
			"-0.01": 0.0,
			"-0.009": 1.52053286802,
			"-0.008": 6.264879769,
			"-0.007": 10.4284172876,
			"-0.006": 16.4256951395,
			"-0.005": 14.4088837625,
			"-0.004": 14.2427440887,
			"-0.003": 14.1439721824,
			"-0.002": 9.011181908,
			"-0.001": 8.85665999965,
			"0.0": 8.43502125848,
			"0.001": 9.40230439119,
			"0.002": 13.730734776,
			"0.003": 18.1241749107,
			"0.004": 18.269967826,
			"0.005": 9.89298435977,
			"0.006": 2.35751443342,
			"0.007": 1.65947046057,
			"0.008": 1.95943985555,
			"0.009": 1.1651246856,
			"0.01": 2.09497724609,
			"0.011": 2.72402472684,
			"0.012": 4.48739024313,
			"0.013": 3.7798723418,
			"0.014": 0.834468785518,
			"0.015": 0.0,
			"0.016": 0.0,
			"0.017": 0.0,
			"0.018": 0.0,
			"0.019": 0.0,
			"0.02": 0.0,
			"0.021": 0.0,
			"0.022": 0.0,
			"0.023": 0.0,
			"0.024": 0.0,
			"0.025": 0.0
		}
	}
}
