{
	 "smiles": "OCC1=CC=NC=C1", 
	 "Tm": 326.65, 
	 "num_atms": 15, 
	 "gaussian": { 
		 "optdone": 1, 
		 "sigma_profile": "yes", 
		 "theory": "DFT", 
		 "functional": "B3LYP", 
		 "basiset": "6-31G**", 
		 "properties": { 
			 "R2extent": 1820.8633, 
			 "electric_dipole_moment_norm": 3.86149590055, 
			 "electric_quadrupole_moment_norm": 10.5368664583, 
			 "total_energy": -362.81210927, 
			 "HOMO_LUMO_gap": 0.22981, 
			 "cosmo_polarized_energy": -10.5, 
			 "cosmo_cavitation_energy": 18.67, 
			 "cosmo_dispersion_energy": -14.2, 
			 "cosmo_repulsion_energy": 1.19, 
			 "cosmo_total_nonelectrostatic_energy": 5.66, 
			 "SMD_solvation_energy": 2.04 
		},
		"coords": [
			{
				"x": 2.3319106225,
				"y": 1.9224050579,
				"z": -1.0301379952,
				"element": "O" 
			},
			{
				"x": 0.9558710689,
				"y": 2.1083156914,
				"z": -1.3098446462,
				"element": "C" 
			},
			{
				"x": 0.3574840729,
				"y": 0.8176678543,
				"z": -1.8194525506,
				"element": "C" 
			},
			{
				"x": 1.1159581888,
				"y": -0.3448057407,
				"z": -1.9610805946,
				"element": "C" 
			},
			{
				"x": 0.4919823642,
				"y": -1.4996406731,
				"z": -2.4385401038,
				"element": "C" 
			},
			{
				"x": -0.8009176467,
				"y": -1.571199191,
				"z": -2.7748772574,
				"element": "N" 
			},
			{
				"x": -1.5198310054,
				"y": -0.4485158466,
				"z": -2.6348437367,
				"element": "C" 
			},
			{
				"x": -0.9964668232,
				"y": 0.7549178706,
				"z": -2.1681794501,
				"element": "C" 
			},
			{
				"x": 2.6885188712,
				"y": 2.7570744011,
				"z": -0.70474012,
				"element": "H" 
			},
			{
				"x": 0.80173055,
				"y": 2.8935641452,
				"z": -2.0687851778,
				"element": "H" 
			},
			{
				"x": 0.401338062,
				"y": 2.4243977461,
				"z": -0.4104399957,
				"element": "H" 
			},
			{
				"x": 2.1681705098,
				"y": -0.3438886584,
				"z": -1.7035929027,
				"element": "H" 
			},
			{
				"x": 1.0677686536,
				"y": -2.4166347628,
				"z": -2.5559355349,
				"element": "H" 
			},
			{
				"x": -2.5712114986,
				"y": -0.5149833324,
				"z": -2.9105304295,
				"element": "H" 
			},
			{
				"x": -1.63830599,
				"y": 1.6282254383,
				"z": -2.0793195049,
				"element": "H" 
			}
		],
		 "valence_orbital": [ 
			{
				"type": "occ",
				"energy": -0.34348,
				"method": "rhf"
			},
			{
				"type": "occ",
				"energy": -0.29331,
				"method": "rhf"
			},
			{
				"type": "occ",
				"energy": -0.26515,
				"method": "rhf"
			},
			{
				"type": "occ",
				"energy": -0.25495,
				"method": "rhf"
			},
			{
				"type": "occ",
				"energy": -0.24709,
				"method": "rhf"
			},
			{
				"type": "unocc",
				"energy": -0.01728,
				"method": "rhf"
			},
			{
				"type": "unocc",
				"energy": -0.00377,
				"method": "rhf"
			},
			{
				"type": "unocc",
				"energy": 0.06397,
				"method": "rhf"
			},
			{
				"type": "unocc",
				"energy": 0.11133,
				"method": "rhf"
			},
			{
				"type": "unocc",
				"energy": 0.12209,
				"method": "rhf"
			}
		],
		"cosmo_sigma_profile": { 
			"-0.025": 0.0,
			"-0.024": 0.0,
			"-0.023": 0.0,
			"-0.022": 0.0,
			"-0.021": 0.0,
			"-0.02": 0.0,
			"-0.019": 0.0,
			"-0.018": 0.0,
			"-0.017": 0.122865200559,
			"-0.016": 1.1572844447,
			"-0.015": 0.787642477812,
			"-0.014": 0.948500149049,
			"-0.013": 1.3349491421,
			"-0.012": 0.807652119159,
			"-0.011": 0.756190229117,
			"-0.01": 1.02655210651,
			"-0.009": 0.779814445747,
			"-0.008": 0.547998129504,
			"-0.007": 2.3897374069,
			"-0.006": 9.61386774947,
			"-0.005": 17.6341921714,
			"-0.004": 11.8352778658,
			"-0.003": 9.37472624432,
			"-0.002": 7.88177445359,
			"-0.001": 5.84804519423,
			"0.0": 6.73816607588,
			"0.001": 7.85354623809,
			"0.002": 9.42683881117,
			"0.003": 17.197681922,
			"0.004": 6.14548163253,
			"0.005": 4.31372972389,
			"0.006": 3.60833291519,
			"0.007": 2.27686966103,
			"0.008": 2.55869027875,
			"0.009": 3.20366906448,
			"0.01": 2.99383411493,
			"0.011": 2.91620058615,
			"0.012": 1.8556000909,
			"0.013": 0.952916077886,
			"0.014": 0.91096258639,
			"0.015": 1.02584443844,
			"0.016": 0.657710569679,
			"0.017": 0.88021280027,
			"0.018": 0.00171505840809,
			"0.019": 0.0,
			"0.02": 0.0,
			"0.021": 0.0,
			"0.022": 0.0,
			"0.023": 0.0,
			"0.024": 0.0,
			"0.025": 0.0
		}
	}
}
