{
	 "smiles": "ClC1=CC=C(CNC2=CC(=O)C3=CC=CC=C3C2=O)C=C1Cl", 
	 "Tm": 490.15, 
	 "num_atms": 33, 
	 "gaussian": { 
		 "optdone": 1, 
		 "sigma_profile": "yes", 
		 "theory": "DFT", 
		 "functional": "B3LYP", 
		 "basiset": "6-31G**", 
		 "properties": { 
			 "R2extent": 10625.3609, 
			 "electric_dipole_moment_norm": 3.50216836974, 
			 "electric_quadrupole_moment_norm": 22.3809553793, 
			 "total_energy": -1780.02667467, 
			 "HOMO_LUMO_gap": 0.12574, 
			 "cosmo_polarized_energy": -16.33, 
			 "cosmo_cavitation_energy": 41.79, 
			 "cosmo_dispersion_energy": -29.72, 
			 "cosmo_repulsion_energy": 2.26, 
			 "cosmo_total_nonelectrostatic_energy": 14.32, 
			 "SMD_solvation_energy": 6.93 
		},
		"coords": [
			{
				"x": -3.7663718931,
				"y": -4.2676480863,
				"z": -2.8663421297,
				"element": "Cl" 
			},
			{
				"x": -2.2967546286,
				"y": -3.483611334,
				"z": -2.3440729166,
				"element": "C" 
			},
			{
				"x": -1.4323997914,
				"y": -2.9573562236,
				"z": -3.3065847299,
				"element": "C" 
			},
			{
				"x": -0.2553945604,
				"y": -2.3222592546,
				"z": -2.9209669096,
				"element": "C" 
			},
			{
				"x": 0.0829213099,
				"y": -2.2062862951,
				"z": -1.5685296764,
				"element": "C" 
			},
			{
				"x": 1.4061994097,
				"y": -1.5638919125,
				"z": -1.1658226552,
				"element": "C" 
			},
			{
				"x": 1.4074964962,
				"y": -0.9195597523,
				"z": 0.1288982068,
				"element": "N" 
			},
			{
				"x": 0.8673313583,
				"y": 0.299060504,
				"z": 0.3844170575,
				"element": "C" 
			},
			{
				"x": 0.1362089753,
				"y": 1.061457747,
				"z": -0.4819118013,
				"element": "C" 
			},
			{
				"x": -0.3868805325,
				"y": 2.3692162158,
				"z": -0.1142843923,
				"element": "C" 
			},
			{
				"x": -1.0324547151,
				"y": 3.0576587847,
				"z": -0.9052139074,
				"element": "O" 
			},
			{
				"x": -0.1167741753,
				"y": 2.8665986901,
				"z": 1.2781527705,
				"element": "C" 
			},
			{
				"x": -0.6106838051,
				"y": 4.1104427454,
				"z": 1.6729721891,
				"element": "C" 
			},
			{
				"x": -0.367758606,
				"y": 4.5819006654,
				"z": 2.9636603631,
				"element": "C" 
			},
			{
				"x": 0.3719518674,
				"y": 3.8137023148,
				"z": 3.8695355552,
				"element": "C" 
			},
			{
				"x": 0.8702087264,
				"y": 2.5712957218,
				"z": 3.4842631865,
				"element": "C" 
			},
			{
				"x": 0.6274178334,
				"y": 2.0945323871,
				"z": 2.1899590208,
				"element": "C" 
			},
			{
				"x": 1.1609012135,
				"y": 0.7774562015,
				"z": 1.7848466101,
				"element": "C" 
			},
			{
				"x": 1.8293640332,
				"y": 0.0653580308,
				"z": 2.5300067351,
				"element": "O" 
			},
			{
				"x": -0.7839056145,
				"y": -2.7304194688,
				"z": -0.6088871268,
				"element": "C" 
			},
			{
				"x": -1.9682435411,
				"y": -3.365043299,
				"z": -0.9868563282,
				"element": "C" 
			},
			{
				"x": -3.0133607448,
				"y": -3.998153069,
				"z": 0.2613160682,
				"element": "Cl" 
			},
			{
				"x": -1.6968568024,
				"y": -3.0438088191,
				"z": -4.3546140284,
				"element": "H" 
			},
			{
				"x": 0.4012670401,
				"y": -1.9119006132,
				"z": -3.6835768478,
				"element": "H" 
			},
			{
				"x": 1.7012767398,
				"y": -0.8409883145,
				"z": -1.9390009437,
				"element": "H" 
			},
			{
				"x": 2.1873732615,
				"y": -2.332298583,
				"z": -1.1437327694,
				"element": "H" 
			},
			{
				"x": 1.9599877039,
				"y": -1.2934375612,
				"z": 0.8908407949,
				"element": "H" 
			},
			{
				"x": -0.1015635313,
				"y": 0.7221869695,
				"z": -1.4837963241,
				"element": "H" 
			},
			{
				"x": -1.1809029239,
				"y": 4.6865023347,
				"z": 0.9519560863,
				"element": "H" 
			},
			{
				"x": -0.7553036396,
				"y": 5.5504311127,
				"z": 3.2663820827,
				"element": "H" 
			},
			{
				"x": 0.558225278,
				"y": 4.1850719112,
				"z": 4.8727876886,
				"element": "H" 
			},
			{
				"x": 1.4474473846,
				"y": 1.9557693393,
				"z": 4.1661688551,
				"element": "H" 
			},
			{
				"x": -0.5480691259,
				"y": -2.6390790893,
				"z": 0.4455302164,
				"element": "H" 
			}
		],
		 "valence_orbital": [ 
			{
				"type": "occ",
				"energy": -0.26698,
				"method": "rhf"
			},
			{
				"type": "occ",
				"energy": -0.26668,
				"method": "rhf"
			},
			{
				"type": "occ",
				"energy": -0.25291,
				"method": "rhf"
			},
			{
				"type": "occ",
				"energy": -0.24817,
				"method": "rhf"
			},
			{
				"type": "occ",
				"energy": -0.23101,
				"method": "rhf"
			},
			{
				"type": "unocc",
				"energy": -0.10527,
				"method": "rhf"
			},
			{
				"type": "unocc",
				"energy": -0.0376,
				"method": "rhf"
			},
			{
				"type": "unocc",
				"energy": -0.03065,
				"method": "rhf"
			},
			{
				"type": "unocc",
				"energy": -0.02989,
				"method": "rhf"
			},
			{
				"type": "unocc",
				"energy": -0.00961,
				"method": "rhf"
			}
		],
		"cosmo_sigma_profile": { 
			"-0.025": 0.0,
			"-0.024": 0.0,
			"-0.023": 0.0,
			"-0.022": 0.0,
			"-0.021": 0.0,
			"-0.02": 0.0,
			"-0.019": 0.0,
			"-0.018": 0.0,
			"-0.017": 0.0,
			"-0.016": 0.0,
			"-0.015": 0.0,
			"-0.014": 0.0583901019631,
			"-0.013": 0.876485756661,
			"-0.012": 1.0858064877,
			"-0.011": 0.707715583396,
			"-0.01": 1.3675317372,
			"-0.009": 1.20228933068,
			"-0.008": 4.45716346822,
			"-0.007": 14.5166603866,
			"-0.006": 20.3544164608,
			"-0.005": 21.6293132892,
			"-0.004": 19.5787176786,
			"-0.003": 19.0484069499,
			"-0.002": 20.5928667119,
			"-0.001": 22.0717767311,
			"0.0": 30.0913476747,
			"0.001": 34.6902054121,
			"0.002": 39.3037290533,
			"0.003": 29.339839597,
			"0.004": 20.0741714707,
			"0.005": 9.24764729395,
			"0.006": 3.70726923885,
			"0.007": 3.14644211128,
			"0.008": 2.96539604757,
			"0.009": 3.73607074644,
			"0.01": 5.05123006907,
			"0.011": 2.99397045087,
			"0.012": 3.41680933097,
			"0.013": 3.90497484231,
			"0.014": 1.37023230826,
			"0.015": 0.0272547997504,
			"0.016": 0.0,
			"0.017": 0.0,
			"0.018": 0.0,
			"0.019": 0.0,
			"0.02": 0.0,
			"0.021": 0.0,
			"0.022": 0.0,
			"0.023": 0.0,
			"0.024": 0.0,
			"0.025": 0.0
		}
	}
}
