{
	 "smiles": "COC1=CC2=C(OCC(=C2)C#N)C=C1", 
	 "Tm": 346.15, 
	 "num_atms": 23, 
	 "gaussian": { 
		 "optdone": 1, 
		 "sigma_profile": "yes", 
		 "theory": "DFT", 
		 "functional": "B3LYP", 
		 "basiset": "6-31G**", 
		 "properties": { 
			 "R2extent": 3737.9217, 
			 "electric_dipole_moment_norm": 4.33436014309, 
			 "electric_quadrupole_moment_norm": 29.271262357, 
			 "total_energy": -629.741563041, 
			 "HOMO_LUMO_gap": 0.13823, 
			 "cosmo_polarized_energy": -11.92, 
			 "cosmo_cavitation_energy": 28.13, 
			 "cosmo_dispersion_energy": -20.38, 
			 "cosmo_repulsion_energy": 1.59, 
			 "cosmo_total_nonelectrostatic_energy": 9.34, 
			 "SMD_solvation_energy": 7.02 
		},
		"coords": [
			{
				"x": 0.7042293661,
				"y": 2.0691608701,
				"z": 3.2612951393,
				"element": "C" 
			},
			{
				"x": -0.1987825707,
				"y": 2.0934097128,
				"z": 2.1679247256,
				"element": "O" 
			},
			{
				"x": -0.1101093121,
				"y": 1.0971172681,
				"z": 1.2381613096,
				"element": "C" 
			},
			{
				"x": 0.811482666,
				"y": 0.051631463,
				"z": 1.2732069781,
				"element": "C" 
			},
			{
				"x": 0.82075076,
				"y": -0.9175258194,
				"z": 0.2513398851,
				"element": "C" 
			},
			{
				"x": -0.1051942451,
				"y": -0.8224888981,
				"z": -0.8040412154,
				"element": "C" 
			},
			{
				"x": -0.1679600681,
				"y": -1.7810037253,
				"z": -1.7804935255,
				"element": "O" 
			},
			{
				"x": 1.057856298,
				"y": -2.4503065503,
				"z": -2.0821503393,
				"element": "C" 
			},
			{
				"x": 1.8030007225,
				"y": -2.8588458376,
				"z": -0.8216888783,
				"element": "C" 
			},
			{
				"x": 1.7014065183,
				"y": -2.0701254125,
				"z": 0.2725670041,
				"element": "C" 
			},
			{
				"x": 2.6272599847,
				"y": -4.0180919009,
				"z": -0.8604294031,
				"element": "C" 
			},
			{
				"x": 3.2988919451,
				"y": -4.9678756599,
				"z": -0.9324196193,
				"element": "N" 
			},
			{
				"x": -1.0431070002,
				"y": 0.2113006427,
				"z": -0.8240579324,
				"element": "C" 
			},
			{
				"x": -1.0413597869,
				"y": 1.1644934637,
				"z": 0.1861978932,
				"element": "C" 
			},
			{
				"x": 0.5826185507,
				"y": 1.1618094769,
				"z": 3.8674813275,
				"element": "H" 
			},
			{
				"x": 0.4642987673,
				"y": 2.9414925123,
				"z": 3.8708593685,
				"element": "H" 
			},
			{
				"x": 1.7476732446,
				"y": 2.139358623,
				"z": 2.9267347294,
				"element": "H" 
			},
			{
				"x": 1.5310985879,
				"y": -0.0377584904,
				"z": 2.0789685826,
				"element": "H" 
			},
			{
				"x": 0.7833589924,
				"y": -3.3198519265,
				"z": -2.6822311671,
				"element": "H" 
			},
			{
				"x": 1.6947022772,
				"y": -1.7940913431,
				"z": -2.6984997569,
				"element": "H" 
			},
			{
				"x": 2.2500456144,
				"y": -2.3041126211,
				"z": 1.1802201475,
				"element": "H" 
			},
			{
				"x": -1.762009371,
				"y": 0.2551568394,
				"z": -1.6351294815,
				"element": "H" 
			},
			{
				"x": -1.7546519411,
				"y": 1.9819473132,
				"z": 0.1823842282,
				"element": "H" 
			}
		],
		 "valence_orbital": [ 
			{
				"type": "occ",
				"energy": -0.3288,
				"method": "rhf"
			},
			{
				"type": "occ",
				"energy": -0.31258,
				"method": "rhf"
			},
			{
				"type": "occ",
				"energy": -0.29027,
				"method": "rhf"
			},
			{
				"type": "occ",
				"energy": -0.25017,
				"method": "rhf"
			},
			{
				"type": "occ",
				"energy": -0.21158,
				"method": "rhf"
			},
			{
				"type": "unocc",
				"energy": -0.07335,
				"method": "rhf"
			},
			{
				"type": "unocc",
				"energy": -0.00241,
				"method": "rhf"
			},
			{
				"type": "unocc",
				"energy": 0.02346,
				"method": "rhf"
			},
			{
				"type": "unocc",
				"energy": 0.02786,
				"method": "rhf"
			},
			{
				"type": "unocc",
				"energy": 0.08275,
				"method": "rhf"
			}
		],
		"cosmo_sigma_profile": { 
			"-0.025": 0.0,
			"-0.024": 0.0,
			"-0.023": 0.0,
			"-0.022": 0.0,
			"-0.021": 0.0,
			"-0.02": 0.0,
			"-0.019": 0.0,
			"-0.018": 0.0,
			"-0.017": 0.0,
			"-0.016": 0.0,
			"-0.015": 0.0,
			"-0.014": 0.0,
			"-0.013": 0.0,
			"-0.012": 0.0,
			"-0.011": 0.0,
			"-0.01": 0.0,
			"-0.009": 1.45065304533,
			"-0.008": 5.42870077954,
			"-0.007": 9.76260694585,
			"-0.006": 18.0569763941,
			"-0.005": 20.6015855792,
			"-0.004": 17.2304975773,
			"-0.003": 16.6830175922,
			"-0.002": 10.5853612291,
			"-0.001": 13.6415105211,
			"0.0": 12.8513744366,
			"0.001": 15.0321476473,
			"0.002": 14.4652004109,
			"0.003": 18.6479582435,
			"0.004": 10.3947157416,
			"0.005": 5.11321373867,
			"0.006": 5.57207558127,
			"0.007": 5.54796853715,
			"0.008": 5.19035722064,
			"0.009": 6.44538954055,
			"0.01": 5.72302420063,
			"0.011": 3.08465141825,
			"0.012": 2.64317505076,
			"0.013": 1.72492384034,
			"0.014": 0.169272213147,
			"0.015": 0.0,
			"0.016": 0.0,
			"0.017": 0.0,
			"0.018": 0.0,
			"0.019": 0.0,
			"0.02": 0.0,
			"0.021": 0.0,
			"0.022": 0.0,
			"0.023": 0.0,
			"0.024": 0.0,
			"0.025": 0.0
		}
	}
}
