{
	 "smiles": "OC(=O)CC1=NNC2=C1C=CC=C2", 
	 "Tm": 441.15, 
	 "num_atms": 21, 
	 "gaussian": { 
		 "optdone": 1, 
		 "sigma_profile": "yes", 
		 "theory": "DFT", 
		 "functional": "B3LYP", 
		 "basiset": "6-31G**", 
		 "properties": { 
			 "R2extent": 3051.786, 
			 "electric_dipole_moment_norm": 1.86546414868, 
			 "electric_quadrupole_moment_norm": 7.92622439627, 
			 "total_energy": -607.734328764, 
			 "HOMO_LUMO_gap": 0.18891, 
			 "cosmo_polarized_energy": -14.29, 
			 "cosmo_cavitation_energy": 25.71, 
			 "cosmo_dispersion_energy": -18.92, 
			 "cosmo_repulsion_energy": 1.51, 
			 "cosmo_total_nonelectrostatic_energy": 8.3, 
			 "SMD_solvation_energy": 4.27 
		},
		"coords": [
			{
				"x": 3.0195286772,
				"y": -3.0880224877,
				"z": -1.3799305912,
				"element": "O" 
			},
			{
				"x": 2.7645042808,
				"y": -1.8218201095,
				"z": -0.9833804041,
				"element": "C" 
			},
			{
				"x": 3.0570523158,
				"y": -1.4089339,
				"z": 0.1185082995,
				"element": "O" 
			},
			{
				"x": 2.059847283,
				"y": -1.0150708133,
				"z": -2.0609676799,
				"element": "C" 
			},
			{
				"x": 0.5630512792,
				"y": -1.0858795048,
				"z": -1.9206188404,
				"element": "C" 
			},
			{
				"x": -0.1763872627,
				"y": -1.5564403997,
				"z": -2.9114669611,
				"element": "N" 
			},
			{
				"x": -1.4675625441,
				"y": -1.4627368033,
				"z": -2.4965450377,
				"element": "N" 
			},
			{
				"x": -1.5807193391,
				"y": -0.9327051512,
				"z": -1.2398905242,
				"element": "C" 
			},
			{
				"x": -0.2540200195,
				"y": -0.669940275,
				"z": -0.8162835365,
				"element": "C" 
			},
			{
				"x": -0.0238030866,
				"y": -0.1147513523,
				"z": 0.4570511066,
				"element": "C" 
			},
			{
				"x": -1.1204383448,
				"y": 0.1646710158,
				"z": 1.2571602285,
				"element": "C" 
			},
			{
				"x": -2.4383328307,
				"y": -0.1017499149,
				"z": 0.8154984153,
				"element": "C" 
			},
			{
				"x": -2.6937064983,
				"y": -0.6532705832,
				"z": -0.4309451965,
				"element": "C" 
			},
			{
				"x": 3.4331979264,
				"y": -3.5319091596,
				"z": -0.619945748,
				"element": "H" 
			},
			{
				"x": 2.3320736984,
				"y": -1.3892040447,
				"z": -3.0495421002,
				"element": "H" 
			},
			{
				"x": 2.4021627459,
				"y": 0.019608647,
				"z": -1.956745393,
				"element": "H" 
			},
			{
				"x": -2.199656353,
				"y": -1.7664413516,
				"z": -3.1175437801,
				"element": "H" 
			},
			{
				"x": 0.9891408546,
				"y": 0.0691211382,
				"z": 0.7994909453,
				"element": "H" 
			},
			{
				"x": -0.9715985617,
				"y": 0.5919688371,
				"z": 2.2441248343,
				"element": "H" 
			},
			{
				"x": -3.2718920966,
				"y": 0.1299445419,
				"z": 1.4723715905,
				"element": "H" 
			},
			{
				"x": -3.7069421241,
				"y": -0.8575383293,
				"z": -0.7631996272,
				"element": "H" 
			}
		],
		 "valence_orbital": [ 
			{
				"type": "occ",
				"energy": -0.29446,
				"method": "rhf"
			},
			{
				"type": "occ",
				"energy": -0.29001,
				"method": "rhf"
			},
			{
				"type": "occ",
				"energy": -0.27479,
				"method": "rhf"
			},
			{
				"type": "occ",
				"energy": -0.24105,
				"method": "rhf"
			},
			{
				"type": "occ",
				"energy": -0.21822,
				"method": "rhf"
			},
			{
				"type": "unocc",
				"energy": -0.02931,
				"method": "rhf"
			},
			{
				"type": "unocc",
				"energy": 0.00663,
				"method": "rhf"
			},
			{
				"type": "unocc",
				"energy": 0.01882,
				"method": "rhf"
			},
			{
				"type": "unocc",
				"energy": 0.05905,
				"method": "rhf"
			},
			{
				"type": "unocc",
				"energy": 0.07726,
				"method": "rhf"
			}
		],
		"cosmo_sigma_profile": { 
			"-0.025": 0.0,
			"-0.024": 0.0,
			"-0.023": 0.0,
			"-0.022": 0.0,
			"-0.021": 0.0,
			"-0.02": 0.0,
			"-0.019": 0.052881979691,
			"-0.018": 0.675783490758,
			"-0.017": 1.43729831769,
			"-0.016": 2.14728430931,
			"-0.015": 2.04311578434,
			"-0.014": 1.34218434043,
			"-0.013": 2.33925178054,
			"-0.012": 1.73274477796,
			"-0.011": 1.95150120583,
			"-0.01": 1.88918778459,
			"-0.009": 1.41045010692,
			"-0.008": 1.74718769471,
			"-0.007": 4.62627109456,
			"-0.006": 9.98291210419,
			"-0.005": 12.2298523785,
			"-0.004": 13.2162438783,
			"-0.003": 13.4036695127,
			"-0.002": 11.3343315387,
			"-0.001": 9.02669560645,
			"0.0": 10.2762141922,
			"0.001": 10.1882617757,
			"0.002": 15.5758507208,
			"0.003": 15.2012824757,
			"0.004": 14.2482063617,
			"0.005": 14.4261846041,
			"0.006": 7.02119289815,
			"0.007": 3.56838317753,
			"0.008": 4.13000224609,
			"0.009": 4.21181582775,
			"0.01": 3.56245370601,
			"0.011": 4.32422143712,
			"0.012": 3.70560215735,
			"0.013": 0.854725355093,
			"0.014": 0.708358085348,
			"0.015": 0.727247874428,
			"0.016": 0.0328915829422,
			"0.017": 0.0,
			"0.018": 0.0,
			"0.019": 0.0,
			"0.02": 0.0,
			"0.021": 0.0,
			"0.022": 0.0,
			"0.023": 0.0,
			"0.024": 0.0,
			"0.025": 0.0
		}
	}
}
