{
	 "smiles": "BrC1CCC2=NON=C2C1=O", 
	 "Tm": 339.65, 
	 "num_atms": 16, 
	 "gaussian": { 
		 "optdone": 1, 
		 "sigma_profile": "yes", 
		 "theory": "DFT", 
		 "functional": "B3LYP", 
		 "basiset": "6-31G**", 
		 "properties": { 
			 "R2extent": 3310.7733, 
			 "electric_dipole_moment_norm": 4.74764638426, 
			 "electric_quadrupole_moment_norm": 8.01520296499, 
			 "total_energy": -3062.91246616, 
			 "HOMO_LUMO_gap": 0.17818, 
			 "cosmo_polarized_energy": -11.92, 
			 "cosmo_cavitation_energy": 22.48, 
			 "cosmo_dispersion_energy": -17.1, 
			 "cosmo_repulsion_energy": 1.37, 
			 "cosmo_total_nonelectrostatic_energy": 6.75, 
			 "SMD_solvation_energy": 2.4 
		},
		"coords": [
			{
				"x": 3.1445195488,
				"y": 1.6696731356,
				"z": 1.0327397807,
				"element": "Br" 
			},
			{
				"x": 1.6545292754,
				"y": 1.4579326089,
				"z": -0.2845341066,
				"element": "C" 
			},
			{
				"x": 1.4757101742,
				"y": -0.0154580614,
				"z": -0.6639291216,
				"element": "C" 
			},
			{
				"x": 1.056331681,
				"y": -0.9135883288,
				"z": 0.5175043165,
				"element": "C" 
			},
			{
				"x": -0.0725396194,
				"y": -0.2641286265,
				"z": 1.2542026157,
				"element": "C" 
			},
			{
				"x": -0.957058337,
				"y": -0.8364697088,
				"z": 2.0254275294,
				"element": "N" 
			},
			{
				"x": -1.7748483296,
				"y": 0.1983377539,
				"z": 2.4578252605,
				"element": "O" 
			},
			{
				"x": -1.3992095998,
				"y": 1.3978929016,
				"z": 1.942819164,
				"element": "N" 
			},
			{
				"x": -0.3478808277,
				"y": 1.137033339,
				"z": 1.2016884378,
				"element": "C" 
			},
			{
				"x": 0.4215271391,
				"y": 2.096367967,
				"z": 0.369868177,
				"element": "C" 
			},
			{
				"x": 0.1092166453,
				"y": 3.2518946266,
				"z": 0.1821791665,
				"element": "O" 
			},
			{
				"x": 1.9536178427,
				"y": 2.0737410915,
				"z": -1.1310559896,
				"element": "H" 
			},
			{
				"x": 2.3981498989,
				"y": -0.3911294331,
				"z": -1.113864473,
				"element": "H" 
			},
			{
				"x": 0.7012625898,
				"y": -0.0498396402,
				"z": -1.4433149279,
				"element": "H" 
			},
			{
				"x": 0.7705292968,
				"y": -1.9093433581,
				"z": 0.1689750776,
				"element": "H" 
			},
			{
				"x": 1.9041426217,
				"y": -1.0374162672,
				"z": 1.200969093,
				"element": "H" 
			}
		],
		 "valence_orbital": [ 
			{
				"type": "occ",
				"energy": -0.32834,
				"method": "rhf"
			},
			{
				"type": "occ",
				"energy": -0.32284,
				"method": "rhf"
			},
			{
				"type": "occ",
				"energy": -0.30823,
				"method": "rhf"
			},
			{
				"type": "occ",
				"energy": -0.29995,
				"method": "rhf"
			},
			{
				"type": "occ",
				"energy": -0.28086,
				"method": "rhf"
			},
			{
				"type": "unocc",
				"energy": -0.10268,
				"method": "rhf"
			},
			{
				"type": "unocc",
				"energy": -0.04961,
				"method": "rhf"
			},
			{
				"type": "unocc",
				"energy": -0.01702,
				"method": "rhf"
			},
			{
				"type": "unocc",
				"energy": 0.0658,
				"method": "rhf"
			},
			{
				"type": "unocc",
				"energy": 0.07374,
				"method": "rhf"
			}
		],
		"cosmo_sigma_profile": { 
			"-0.025": 0.0,
			"-0.024": 0.0,
			"-0.023": 0.0,
			"-0.022": 0.0,
			"-0.021": 0.0,
			"-0.02": 0.0,
			"-0.019": 0.0,
			"-0.018": 0.0,
			"-0.017": 0.0,
			"-0.016": 0.0,
			"-0.015": 0.0,
			"-0.014": 0.0,
			"-0.013": 0.0,
			"-0.012": 0.000555912864119,
			"-0.011": 0.559795055708,
			"-0.01": 1.61862955729,
			"-0.009": 3.90732176878,
			"-0.008": 5.34137806519,
			"-0.007": 9.18606273681,
			"-0.006": 13.7828313568,
			"-0.005": 13.4570920631,
			"-0.004": 15.0641936955,
			"-0.003": 10.8200845573,
			"-0.002": 7.56018650544,
			"-0.001": 6.54883784383,
			"0.0": 7.73016481739,
			"0.001": 8.14093749534,
			"0.002": 11.3387771173,
			"0.003": 12.1109415421,
			"0.004": 16.1689545714,
			"0.005": 9.94734684002,
			"0.006": 5.28086027411,
			"0.007": 5.25808624463,
			"0.008": 5.05032256159,
			"0.009": 6.80481251092,
			"0.01": 5.79428910499,
			"0.011": 1.42994156156,
			"0.012": 0.0527906471141,
			"0.013": 0.0,
			"0.014": 0.0,
			"0.015": 0.0,
			"0.016": 0.0,
			"0.017": 0.0,
			"0.018": 0.0,
			"0.019": 0.0,
			"0.02": 0.0,
			"0.021": 0.0,
			"0.022": 0.0,
			"0.023": 0.0,
			"0.024": 0.0,
			"0.025": 0.0
		}
	}
}
