{
	 "smiles": "CC1=CC=C(C=C1)S(=O)(=O)OCCCCCCOS(=O)(=O)C1=CC=C(C)C=C1", 
	 "Tm": 344.95, 
	 "num_atms": 54, 
	 "gaussian": { 
		 "optdone": 1, 
		 "sigma_profile": "yes", 
		 "theory": "DFT", 
		 "functional": "B3LYP", 
		 "basiset": "6-31G**", 
		 "properties": { 
			 "R2extent": 12622.1456, 
			 "electric_dipole_moment_norm": 6.47548492084, 
			 "electric_quadrupole_moment_norm": 25.0631493352, 
			 "total_energy": -2025.40256491, 
			 "HOMO_LUMO_gap": 0.21846, 
			 "cosmo_polarized_energy": -19.63, 
			 "cosmo_cavitation_energy": 58.47, 
			 "cosmo_dispersion_energy": -37.27, 
			 "cosmo_repulsion_energy": 2.76, 
			 "cosmo_total_nonelectrostatic_energy": 23.96, 
			 "SMD_solvation_energy": 7.53 
		},
		"coords": [
			{
				"x": 4.3994794293,
				"y": -2.6149112692,
				"z": 1.81873911,
				"element": "C" 
			},
			{
				"x": 3.1471548991,
				"y": -2.7583164908,
				"z": 0.9881172663,
				"element": "C" 
			},
			{
				"x": 2.3593018576,
				"y": -3.9150928281,
				"z": 1.0698526751,
				"element": "C" 
			},
			{
				"x": 1.2194959672,
				"y": -4.0690564292,
				"z": 0.281833805,
				"element": "C" 
			},
			{
				"x": 0.8676319563,
				"y": -3.0458603095,
				"z": -0.5982256399,
				"element": "C" 
			},
			{
				"x": 1.63227757,
				"y": -1.8817517096,
				"z": -0.704952654,
				"element": "C" 
			},
			{
				"x": 2.7642740459,
				"y": -1.7448505161,
				"z": 0.0943595519,
				"element": "C" 
			},
			{
				"x": -0.5644021886,
				"y": -3.2516839048,
				"z": -1.6334016227,
				"element": "S" 
			},
			{
				"x": -1.0625944209,
				"y": -4.6234864655,
				"z": -1.5279187661,
				"element": "O" 
			},
			{
				"x": -0.3174582584,
				"y": -2.6680241609,
				"z": -2.955175999,
				"element": "O" 
			},
			{
				"x": -1.5848366079,
				"y": -2.2493390176,
				"z": -0.8236374314,
				"element": "O" 
			},
			{
				"x": -2.9147322136,
				"y": -2.1221499102,
				"z": -1.4084948498,
				"element": "C" 
			},
			{
				"x": -3.6327575781,
				"y": -0.9905449758,
				"z": -0.6873789392,
				"element": "C" 
			},
			{
				"x": -2.9930468961,
				"y": 0.405421504,
				"z": -0.7959012479,
				"element": "C" 
			},
			{
				"x": -2.9223867076,
				"y": 0.9959696466,
				"z": -2.2245801002,
				"element": "C" 
			},
			{
				"x": -1.6259908431,
				"y": 0.7289429465,
				"z": -3.0189406941,
				"element": "C" 
			},
			{
				"x": -0.473876267,
				"y": 1.6798824364,
				"z": -2.7245255525,
				"element": "C" 
			},
			{
				"x": -0.0947339377,
				"y": 1.5307585985,
				"z": -1.319939167,
				"element": "O" 
			},
			{
				"x": 1.2443308514,
				"y": 2.3438913182,
				"z": -0.8331260738,
				"element": "S" 
			},
			{
				"x": 2.3914366895,
				"y": 1.4429631803,
				"z": -0.9692472761,
				"element": "O" 
			},
			{
				"x": 1.264758447,
				"y": 3.6558361883,
				"z": -1.4807626965,
				"element": "O" 
			},
			{
				"x": 0.8308987444,
				"y": 2.5267935408,
				"z": 0.8902480556,
				"element": "C" 
			},
			{
				"x": 0.9197001809,
				"y": 1.4254854869,
				"z": 1.7466103452,
				"element": "C" 
			},
			{
				"x": 0.5975959893,
				"y": 1.5933424653,
				"z": 3.0893709039,
				"element": "C" 
			},
			{
				"x": 0.198495232,
				"y": 2.8427766831,
				"z": 3.5925868091,
				"element": "C" 
			},
			{
				"x": -0.1516889722,
				"y": 3.0011866899,
				"z": 5.0523753605,
				"element": "C" 
			},
			{
				"x": 0.130234327,
				"y": 3.9280470781,
				"z": 2.7100873074,
				"element": "C" 
			},
			{
				"x": 0.4411907196,
				"y": 3.780320123,
				"z": 1.3582819396,
				"element": "C" 
			},
			{
				"x": 4.5573185437,
				"y": -1.5773915131,
				"z": 2.1278687271,
				"element": "H" 
			},
			{
				"x": 4.3611311057,
				"y": -3.239619746,
				"z": 2.715616979,
				"element": "H" 
			},
			{
				"x": 5.283620729,
				"y": -2.9185835319,
				"z": 1.2447419489,
				"element": "H" 
			},
			{
				"x": 2.6420501813,
				"y": -4.7081870785,
				"z": 1.7569225442,
				"element": "H" 
			},
			{
				"x": 0.6117852638,
				"y": -4.9653405125,
				"z": 0.3373463053,
				"element": "H" 
			},
			{
				"x": 1.3553521384,
				"y": -1.0928236959,
				"z": -1.3940418502,
				"element": "H" 
			},
			{
				"x": 3.3505187807,
				"y": -0.8343455064,
				"z": 0.0117945728,
				"element": "H" 
			},
			{
				"x": -2.8141958259,
				"y": -1.9243346268,
				"z": -2.4801526093,
				"element": "H" 
			},
			{
				"x": -3.4426544626,
				"y": -3.0718981822,
				"z": -1.2756479538,
				"element": "H" 
			},
			{
				"x": -4.6549197258,
				"y": -0.9615863793,
				"z": -1.0900979243,
				"element": "H" 
			},
			{
				"x": -3.7243285813,
				"y": -1.261909517,
				"z": 0.3713103832,
				"element": "H" 
			},
			{
				"x": -3.5931679116,
				"y": 1.076873497,
				"z": -0.1700345381,
				"element": "H" 
			},
			{
				"x": -1.9958536535,
				"y": 0.3849506532,
				"z": -0.3502657936,
				"element": "H" 
			},
			{
				"x": -3.7729779109,
				"y": 0.6172249907,
				"z": -2.8073113283,
				"element": "H" 
			},
			{
				"x": -3.0697573892,
				"y": 2.082441135,
				"z": -2.1696964349,
				"element": "H" 
			},
			{
				"x": -1.8315768483,
				"y": 0.8518537217,
				"z": -4.0907980091,
				"element": "H" 
			},
			{
				"x": -1.2771915324,
				"y": -0.3000145625,
				"z": -2.8931346988,
				"element": "H" 
			},
			{
				"x": 0.3892771785,
				"y": 1.440448217,
				"z": -3.3540220712,
				"element": "H" 
			},
			{
				"x": -0.7538644392,
				"y": 2.7248927347,
				"z": -2.8901802128,
				"element": "H" 
			},
			{
				"x": 1.2373055356,
				"y": 0.4595462647,
				"z": 1.3691242959,
				"element": "H" 
			},
			{
				"x": 0.6614235121,
				"y": 0.7416055411,
				"z": 3.7615074458,
				"element": "H" 
			},
			{
				"x": -0.32782028,
				"y": 4.0482110133,
				"z": 5.3116026566,
				"element": "H" 
			},
			{
				"x": 0.6497552829,
				"y": 2.6229562968,
				"z": 5.6960504525,
				"element": "H" 
			},
			{
				"x": -1.0580390966,
				"y": 2.4374475743,
				"z": 5.3026129792,
				"element": "H" 
			},
			{
				"x": -0.1681136966,
				"y": 4.9036475138,
				"z": 3.0837505716,
				"element": "H" 
			},
			{
				"x": 0.3934710871,
				"y": 4.6201858003,
				"z": 0.6741791427,
				"element": "H" 
			}
		],
		 "valence_orbital": [ 
			{
				"type": "occ",
				"energy": -0.28133,
				"method": "rhf"
			},
			{
				"type": "occ",
				"energy": -0.27344,
				"method": "rhf"
			},
			{
				"type": "occ",
				"energy": -0.26652,
				"method": "rhf"
			},
			{
				"type": "occ",
				"energy": -0.26493,
				"method": "rhf"
			},
			{
				"type": "occ",
				"energy": -0.26047,
				"method": "rhf"
			},
			{
				"type": "unocc",
				"energy": -0.04201,
				"method": "rhf"
			},
			{
				"type": "unocc",
				"energy": -0.03626,
				"method": "rhf"
			},
			{
				"type": "unocc",
				"energy": -0.0243,
				"method": "rhf"
			},
			{
				"type": "unocc",
				"energy": -0.01556,
				"method": "rhf"
			},
			{
				"type": "unocc",
				"energy": 0.04252,
				"method": "rhf"
			}
		],
		"cosmo_sigma_profile": { 
			"-0.025": 0.0,
			"-0.024": 0.0,
			"-0.023": 0.0,
			"-0.022": 0.0,
			"-0.021": 0.0,
			"-0.02": 0.0,
			"-0.019": 0.0,
			"-0.018": 0.0,
			"-0.017": 0.0,
			"-0.016": 0.0,
			"-0.015": 0.0,
			"-0.014": 0.0,
			"-0.013": 0.0,
			"-0.012": 0.0,
			"-0.011": 0.0,
			"-0.01": 0.0,
			"-0.009": 0.0,
			"-0.008": 0.190299179517,
			"-0.007": 4.82219610629,
			"-0.006": 17.2499952453,
			"-0.005": 34.6483143082,
			"-0.004": 45.8308254043,
			"-0.003": 45.8636969253,
			"-0.002": 47.203566398,
			"-0.001": 49.8120347294,
			"0.0": 43.9300931381,
			"0.001": 30.7922333475,
			"0.002": 33.7736770736,
			"0.003": 32.3502040028,
			"0.004": 12.1535750549,
			"0.005": 9.01824111473,
			"0.006": 5.52865437253,
			"0.007": 7.24177297613,
			"0.008": 8.19342229751,
			"0.009": 9.58004946653,
			"0.01": 14.1465607402,
			"0.011": 9.51589697691,
			"0.012": 0.405131168246,
			"0.013": 0.0,
			"0.014": 0.0,
			"0.015": 0.0,
			"0.016": 0.0,
			"0.017": 0.0,
			"0.018": 0.0,
			"0.019": 0.0,
			"0.02": 0.0,
			"0.021": 0.0,
			"0.022": 0.0,
			"0.023": 0.0,
			"0.024": 0.0,
			"0.025": 0.0
		}
	}
}
