{
	 "smiles": "CC1CCC(CC1)NC(=O)CCl", 
	 "Tm": 427.15, 
	 "num_atms": 28, 
	 "gaussian": { 
		 "optdone": 1, 
		 "sigma_profile": "yes", 
		 "theory": "DFT", 
		 "functional": "B3LYP", 
		 "basiset": "6-31G**", 
		 "properties": { 
			 "R2extent": 4108.803, 
			 "electric_dipole_moment_norm": 4.1532847651, 
			 "electric_quadrupole_moment_norm": 14.9109158776, 
			 "total_energy": -942.792889352, 
			 "HOMO_LUMO_gap": 0.23176, 
			 "cosmo_polarized_energy": -11.07, 
			 "cosmo_cavitation_energy": 30.37, 
			 "cosmo_dispersion_energy": -21.6, 
			 "cosmo_repulsion_energy": 1.75, 
			 "cosmo_total_nonelectrostatic_energy": 10.52, 
			 "SMD_solvation_energy": 4.74 
		},
		"coords": [
			{
				"x": -0.1901660863,
				"y": -0.9061475547,
				"z": -2.6677015281,
				"element": "C" 
			},
			{
				"x": -0.001358147,
				"y": -0.7464115855,
				"z": -1.1553441261,
				"element": "C" 
			},
			{
				"x": 0.9305288835,
				"y": 0.4507664353,
				"z": -0.8204244864,
				"element": "C" 
			},
			{
				"x": 1.731181901,
				"y": 0.2562201437,
				"z": 0.4862619651,
				"element": "C" 
			},
			{
				"x": 0.9341587966,
				"y": -0.5013638785,
				"z": 1.5643146341,
				"element": "C" 
			},
			{
				"x": 0.5439382393,
				"y": -1.9175211261,
				"z": 1.0481727409,
				"element": "C" 
			},
			{
				"x": 0.5265579352,
				"y": -2.0283973113,
				"z": -0.4915534992,
				"element": "C" 
			},
			{
				"x": -0.2596799961,
				"y": 0.2454442231,
				"z": 1.9827343589,
				"element": "N" 
			},
			{
				"x": -0.425975028,
				"y": 1.0997566678,
				"z": 3.032203696,
				"element": "C" 
			},
			{
				"x": -1.4506132585,
				"y": 1.7525259601,
				"z": 3.188158687,
				"element": "O" 
			},
			{
				"x": 0.7218868059,
				"y": 1.243500331,
				"z": 4.0353585761,
				"element": "C" 
			},
			{
				"x": 0.9293879258,
				"y": -0.2324190756,
				"z": 5.0776907638,
				"element": "Cl" 
			},
			{
				"x": 0.7584311434,
				"y": -1.1668913236,
				"z": -3.1524262985,
				"element": "H" 
			},
			{
				"x": -0.9129509113,
				"y": -1.6957827605,
				"z": -2.8999444584,
				"element": "H" 
			},
			{
				"x": -0.5506391198,
				"y": 0.0227264081,
				"z": -3.1232110265,
				"element": "H" 
			},
			{
				"x": -0.9949374709,
				"y": -0.5434140442,
				"z": -0.7251374289,
				"element": "H" 
			},
			{
				"x": 0.3362428947,
				"y": 1.3696171285,
				"z": -0.7640862385,
				"element": "H" 
			},
			{
				"x": 1.6399048243,
				"y": 0.5994635273,
				"z": -1.6438272123,
				"element": "H" 
			},
			{
				"x": 2.6402583957,
				"y": -0.3234933518,
				"z": 0.2822134302,
				"element": "H" 
			},
			{
				"x": 2.0641766053,
				"y": 1.2257152587,
				"z": 0.8740743495,
				"element": "H" 
			},
			{
				"x": 1.554011146,
				"y": -0.6213002361,
				"z": 2.4541232412,
				"element": "H" 
			},
			{
				"x": 1.2437416457,
				"y": -2.6527080962,
				"z": 1.4593985996,
				"element": "H" 
			},
			{
				"x": -0.4394962302,
				"y": -2.1727359244,
				"z": 1.4575802377,
				"element": "H" 
			},
			{
				"x": 1.5395343137,
				"y": -2.2278465046,
				"z": -0.867468178,
				"element": "H" 
			},
			{
				"x": -0.0814186357,
				"y": -2.8906067408,
				"z": -0.7891575212,
				"element": "H" 
			},
			{
				"x": -1.0645172522,
				"y": 0.2302867624,
				"z": 1.3685557748,
				"element": "H" 
			},
			{
				"x": 0.464234099,
				"y": 2.0650918198,
				"z": 4.6993112949,
				"element": "H" 
			},
			{
				"x": 1.6852765808,
				"y": 1.4297248484,
				"z": 3.5574296521,
				"element": "H" 
			}
		],
		 "valence_orbital": [ 
			{
				"type": "occ",
				"energy": -0.31349,
				"method": "rhf"
			},
			{
				"type": "occ",
				"energy": -0.31136,
				"method": "rhf"
			},
			{
				"type": "occ",
				"energy": -0.30086,
				"method": "rhf"
			},
			{
				"type": "occ",
				"energy": -0.25363,
				"method": "rhf"
			},
			{
				"type": "occ",
				"energy": -0.24874,
				"method": "rhf"
			},
			{
				"type": "unocc",
				"energy": -0.01698,
				"method": "rhf"
			},
			{
				"type": "unocc",
				"energy": 0.04884,
				"method": "rhf"
			},
			{
				"type": "unocc",
				"energy": 0.06433,
				"method": "rhf"
			},
			{
				"type": "unocc",
				"energy": 0.08135,
				"method": "rhf"
			},
			{
				"type": "unocc",
				"energy": 0.10086,
				"method": "rhf"
			}
		],
		"cosmo_sigma_profile": { 
			"-0.025": 0.0,
			"-0.024": 0.0,
			"-0.023": 0.0,
			"-0.022": 0.0,
			"-0.021": 0.0,
			"-0.02": 0.0,
			"-0.019": 0.0,
			"-0.018": 0.0,
			"-0.017": 0.0,
			"-0.016": 0.0,
			"-0.015": 0.0,
			"-0.014": 0.0,
			"-0.013": 0.0,
			"-0.012": 0.380030240214,
			"-0.011": 0.774647916012,
			"-0.01": 1.39798708973,
			"-0.009": 1.36860522046,
			"-0.008": 4.42879082237,
			"-0.007": 7.11823990718,
			"-0.006": 6.65782752233,
			"-0.005": 6.81818313807,
			"-0.004": 8.60415037036,
			"-0.003": 21.3133527124,
			"-0.002": 30.4139333149,
			"-0.001": 34.4446085004,
			"0.0": 29.302309898,
			"0.001": 23.9513873499,
			"0.002": 12.9774191074,
			"0.003": 7.75463882052,
			"0.004": 7.54272631801,
			"0.005": 9.22365259298,
			"0.006": 5.17257697052,
			"0.007": 0.965507117863,
			"0.008": 1.5501759513,
			"0.009": 1.14598597088,
			"0.01": 0.932776416541,
			"0.011": 1.74626879538,
			"0.012": 1.78776946099,
			"0.013": 5.14423979881,
			"0.014": 4.24452311037,
			"0.015": 0.334127918121,
			"0.016": 0.0,
			"0.017": 0.0,
			"0.018": 0.0,
			"0.019": 0.0,
			"0.02": 0.0,
			"0.021": 0.0,
			"0.022": 0.0,
			"0.023": 0.0,
			"0.024": 0.0,
			"0.025": 0.0
		}
	}
}
