{
	 "smiles": "COC(=O)C1=CC(=CC=C1SC)[N+]([O-])=O", 
	 "Tm": 404.15, 
	 "num_atms": 24, 
	 "gaussian": { 
		 "optdone": 1, 
		 "sigma_profile": "yes", 
		 "theory": "DFT", 
		 "functional": "B3LYP", 
		 "basiset": "6-31G**", 
		 "properties": { 
			 "R2extent": 4560.2131, 
			 "electric_dipole_moment_norm": 2.77847120554, 
			 "electric_quadrupole_moment_norm": 14.740342704, 
			 "total_energy": -1102.11690004, 
			 "HOMO_LUMO_gap": 0.13471, 
			 "cosmo_polarized_energy": -10.93, 
			 "cosmo_cavitation_energy": 30.79, 
			 "cosmo_dispersion_energy": -22.53, 
			 "cosmo_repulsion_energy": 1.73, 
			 "cosmo_total_nonelectrostatic_energy": 9.99, 
			 "SMD_solvation_energy": 9.21 
		},
		"coords": [
			{
				"x": -4.0321545941,
				"y": 0.9379822596,
				"z": 1.5426000821,
				"element": "C" 
			},
			{
				"x": -2.8723139283,
				"y": 0.436713016,
				"z": 0.8550306467,
				"element": "O" 
			},
			{
				"x": -2.3205945605,
				"y": 1.2846390643,
				"z": -0.0395553956,
				"element": "C" 
			},
			{
				"x": -2.7769739611,
				"y": 2.3846708018,
				"z": -0.2724945323,
				"element": "O" 
			},
			{
				"x": -1.094623337,
				"y": 0.6870012773,
				"z": -0.6632164942,
				"element": "C" 
			},
			{
				"x": -0.3783221356,
				"y": -0.2519098239,
				"z": 0.0899738384,
				"element": "C" 
			},
			{
				"x": 0.7618356778,
				"y": -0.84194346,
				"z": -0.4390735114,
				"element": "C" 
			},
			{
				"x": 1.2133580414,
				"y": -0.5450343461,
				"z": -1.7209797979,
				"element": "C" 
			},
			{
				"x": 0.4998578843,
				"y": 0.3838104567,
				"z": -2.4708009653,
				"element": "C" 
			},
			{
				"x": -0.6439683912,
				"y": 1.0256149241,
				"z": -1.9654159754,
				"element": "C" 
			},
			{
				"x": -1.5013462768,
				"y": 2.1104090918,
				"z": -3.1114968094,
				"element": "S" 
			},
			{
				"x": -1.1390071773,
				"y": 3.779620119,
				"z": -2.4440860314,
				"element": "C" 
			},
			{
				"x": 1.5053226696,
				"y": -1.8159215863,
				"z": 0.3776306365,
				"element": "N" 
			},
			{
				"x": 1.0871299625,
				"y": -2.0480521021,
				"z": 1.5106444024,
				"element": "O" 
			},
			{
				"x": 2.4995150375,
				"y": -2.3356945751,
				"z": -0.1270695539,
				"element": "O" 
			},
			{
				"x": -4.3391895947,
				"y": 0.1385835502,
				"z": 2.2160571496,
				"element": "H" 
			},
			{
				"x": -3.7849035674,
				"y": 1.8425190658,
				"z": 2.1036528058,
				"element": "H" 
			},
			{
				"x": -4.8268499854,
				"y": 1.1693769768,
				"z": 0.8297089548,
				"element": "H" 
			},
			{
				"x": -0.7093868117,
				"y": -0.5291304622,
				"z": 1.081199612,
				"element": "H" 
			},
			{
				"x": 2.1019103686,
				"y": -1.0299417445,
				"z": -2.1056469796,
				"element": "H" 
			},
			{
				"x": 0.8298387812,
				"y": 0.6330379517,
				"z": -3.4730340509,
				"element": "H" 
			},
			{
				"x": -1.6011027757,
				"y": 3.8978334882,
				"z": -1.4659835971,
				"element": "H" 
			},
			{
				"x": -1.5873235495,
				"y": 4.4765307411,
				"z": -3.1563020157,
				"element": "H" 
			},
			{
				"x": -0.0618077764,
				"y": 3.9522853157,
				"z": -2.4050424181,
				"element": "H" 
			}
		],
		 "valence_orbital": [ 
			{
				"type": "occ",
				"energy": -0.29877,
				"method": "rhf"
			},
			{
				"type": "occ",
				"energy": -0.29542,
				"method": "rhf"
			},
			{
				"type": "occ",
				"energy": -0.287,
				"method": "rhf"
			},
			{
				"type": "occ",
				"energy": -0.28507,
				"method": "rhf"
			},
			{
				"type": "occ",
				"energy": -0.2348,
				"method": "rhf"
			},
			{
				"type": "unocc",
				"energy": -0.10009,
				"method": "rhf"
			},
			{
				"type": "unocc",
				"energy": -0.06466,
				"method": "rhf"
			},
			{
				"type": "unocc",
				"energy": -0.02187,
				"method": "rhf"
			},
			{
				"type": "unocc",
				"energy": 0.0269,
				"method": "rhf"
			},
			{
				"type": "unocc",
				"energy": 0.04133,
				"method": "rhf"
			}
		],
		"cosmo_sigma_profile": { 
			"-0.025": 0.0,
			"-0.024": 0.0,
			"-0.023": 0.0,
			"-0.022": 0.0,
			"-0.021": 0.0,
			"-0.02": 0.0,
			"-0.019": 0.0,
			"-0.018": 0.0,
			"-0.017": 0.0,
			"-0.016": 0.0,
			"-0.015": 0.0,
			"-0.014": 0.0,
			"-0.013": 0.0,
			"-0.012": 0.0,
			"-0.011": 0.0,
			"-0.01": 0.0,
			"-0.009": 0.36635876809,
			"-0.008": 2.80304268111,
			"-0.007": 7.59243748493,
			"-0.006": 13.656129647,
			"-0.005": 18.0569405966,
			"-0.004": 20.8648886294,
			"-0.003": 22.518848717,
			"-0.002": 25.0391402344,
			"-0.001": 30.4555025812,
			"0.0": 17.8683221331,
			"0.001": 10.1426537673,
			"0.002": 8.54320654684,
			"0.003": 8.27839007512,
			"0.004": 7.86798780596,
			"0.005": 8.48341845247,
			"0.006": 9.72445092162,
			"0.007": 13.0446392293,
			"0.008": 9.34560788965,
			"0.009": 7.01308759617,
			"0.01": 3.58427791714,
			"0.011": 2.80558294141,
			"0.012": 0.215055560234,
			"0.013": 0.0,
			"0.014": 0.0,
			"0.015": 0.0,
			"0.016": 0.0,
			"0.017": 0.0,
			"0.018": 0.0,
			"0.019": 0.0,
			"0.02": 0.0,
			"0.021": 0.0,
			"0.022": 0.0,
			"0.023": 0.0,
			"0.024": 0.0,
			"0.025": 0.0
		}
	}
}
