{
	 "smiles": "CC(C)[C@@H]1CC[C@H](C)CC1OC(=O)C1=NC(=CC=C1)C(O)=O", 
	 "Tm": 393.15, 
	 "num_atms": 45, 
	 "gaussian": { 
		 "optdone": 1, 
		 "sigma_profile": "yes", 
		 "theory": "DFT", 
		 "functional": "B3LYP", 
		 "basiset": "6-31G**", 
		 "properties": { 
			 "R2extent": 8441.2168, 
			 "electric_dipole_moment_norm": 3.75125064212, 
			 "electric_quadrupole_moment_norm": 33.8604833846, 
			 "total_energy": -1017.36919543, 
			 "HOMO_LUMO_gap": 0.19535, 
			 "cosmo_polarized_energy": -14.05, 
			 "cosmo_cavitation_energy": 46.02, 
			 "cosmo_dispersion_energy": -30.13, 
			 "cosmo_repulsion_energy": 2.3, 
			 "cosmo_total_nonelectrostatic_energy": 18.18, 
			 "SMD_solvation_energy": 8.63 
		},
		"coords": [
			{
				"x": -0.3902634655,
				"y": -2.3374434602,
				"z": 1.2836316145,
				"element": "C" 
			},
			{
				"x": 0.9401055831,
				"y": -1.6791385787,
				"z": 1.6866440361,
				"element": "C" 
			},
			{
				"x": 2.1161519725,
				"y": -2.6135114813,
				"z": 1.3568622763,
				"element": "C" 
			},
			{
				"x": 1.1697523469,
				"y": -0.2483179379,
				"z": 1.1278680953,
				"element": "C" 
			},
			{
				"x": 0.2866549462,
				"y": 0.8213711362,
				"z": 1.820128502,
				"element": "C" 
			},
			{
				"x": 0.2203290613,
				"y": 2.1539349493,
				"z": 1.0377602283,
				"element": "C" 
			},
			{
				"x": 1.5008977185,
				"y": 2.4032652976,
				"z": 0.2231125602,
				"element": "C" 
			},
			{
				"x": 1.5096965229,
				"y": 3.7840346066,
				"z": -0.4416206741,
				"element": "C" 
			},
			{
				"x": 1.6965326181,
				"y": 1.2771739558,
				"z": -0.8237744104,
				"element": "C" 
			},
			{
				"x": 1.113472451,
				"y": -0.0845326756,
				"z": -0.394765384,
				"element": "C" 
			},
			{
				"x": -0.2974168285,
				"y": -0.1557546144,
				"z": -0.7916435935,
				"element": "O" 
			},
			{
				"x": -0.5611110743,
				"y": -0.5620132959,
				"z": -2.0367145577,
				"element": "C" 
			},
			{
				"x": 0.2721426713,
				"y": -0.8891249948,
				"z": -2.8616452486,
				"element": "O" 
			},
			{
				"x": -2.0369112843,
				"y": -0.5870713417,
				"z": -2.338335705,
				"element": "C" 
			},
			{
				"x": -2.9034112578,
				"y": -0.1874403196,
				"z": -1.4000004736,
				"element": "N" 
			},
			{
				"x": -4.2092762033,
				"y": -0.2173511548,
				"z": -1.6896393497,
				"element": "C" 
			},
			{
				"x": -4.7182222241,
				"y": -0.6434053123,
				"z": -2.9182544183,
				"element": "C" 
			},
			{
				"x": -3.8115174744,
				"y": -1.0573045365,
				"z": -3.8917546768,
				"element": "C" 
			},
			{
				"x": -2.4481292041,
				"y": -1.0293727933,
				"z": -3.6011486468,
				"element": "C" 
			},
			{
				"x": -5.1322145248,
				"y": 0.2460767627,
				"z": -0.5875361803,
				"element": "C" 
			},
			{
				"x": -4.489530271,
				"y": 0.6226759941,
				"z": 0.5271384169,
				"element": "O" 
			},
			{
				"x": -6.3362664621,
				"y": 0.2724826795,
				"z": -0.7058178383,
				"element": "O" 
			},
			{
				"x": -1.249441105,
				"y": -1.6813808208,
				"z": 1.4468273843,
				"element": "H" 
			},
			{
				"x": -0.3907367849,
				"y": -2.6258464135,
				"z": 0.2277050301,
				"element": "H" 
			},
			{
				"x": -0.5488649906,
				"y": -3.2482301303,
				"z": 1.8711726571,
				"element": "H" 
			},
			{
				"x": 0.9227222727,
				"y": -1.557911799,
				"z": 2.7800706536,
				"element": "H" 
			},
			{
				"x": 1.9828262954,
				"y": -3.5900952704,
				"z": 1.8342069564,
				"element": "H" 
			},
			{
				"x": 3.0695097791,
				"y": -2.199951813,
				"z": 1.7043766374,
				"element": "H" 
			},
			{
				"x": 2.2015873593,
				"y": -2.7907873039,
				"z": 0.2783196819,
				"element": "H" 
			},
			{
				"x": 2.2141712857,
				"y": -0.0058934466,
				"z": 1.3735625343,
				"element": "H" 
			},
			{
				"x": -0.7267393734,
				"y": 0.4332112244,
				"z": 1.9646616091,
				"element": "H" 
			},
			{
				"x": 0.6936363027,
				"y": 0.994988511,
				"z": 2.8236071681,
				"element": "H" 
			},
			{
				"x": -0.6330173345,
				"y": 2.1369686919,
				"z": 0.3492427356,
				"element": "H" 
			},
			{
				"x": 0.046752268,
				"y": 2.9861511179,
				"z": 1.7299048219,
				"element": "H" 
			},
			{
				"x": 2.3485201615,
				"y": 2.3675479704,
				"z": 0.9234304666,
				"element": "H" 
			},
			{
				"x": 1.4567804172,
				"y": 4.584427793,
				"z": 0.304280706,
				"element": "H" 
			},
			{
				"x": 2.4192451073,
				"y": 3.9376482033,
				"z": -1.0332156279,
				"element": "H" 
			},
			{
				"x": 0.6520899073,
				"y": 3.898431079,
				"z": -1.1155309748,
				"element": "H" 
			},
			{
				"x": 1.2378169694,
				"y": 1.560167529,
				"z": -1.7775968358,
				"element": "H" 
			},
			{
				"x": 2.765293645,
				"y": 1.1459456687,
				"z": -1.0312757908,
				"element": "H" 
			},
			{
				"x": 1.6297751916,
				"y": -0.8910576357,
				"z": -0.9187819712,
				"element": "H" 
			},
			{
				"x": -5.7904953184,
				"y": -0.6390186017,
				"z": -3.0760299951,
				"element": "H" 
			},
			{
				"x": -4.159416764,
				"y": -1.3965453446,
				"z": -4.8626166233,
				"element": "H" 
			},
			{
				"x": -1.6956784093,
				"y": -1.3375663678,
				"z": -4.3173126707,
				"element": "H" 
			},
			{
				"x": -3.5331024995,
				"y": 0.5008642742,
				"z": 0.3474968748,
				"element": "H" 
			}
		],
		 "valence_orbital": [ 
			{
				"type": "occ",
				"energy": -0.29688,
				"method": "rhf"
			},
			{
				"type": "occ",
				"energy": -0.29073,
				"method": "rhf"
			},
			{
				"type": "occ",
				"energy": -0.28738,
				"method": "rhf"
			},
			{
				"type": "occ",
				"energy": -0.28177,
				"method": "rhf"
			},
			{
				"type": "occ",
				"energy": -0.27104,
				"method": "rhf"
			},
			{
				"type": "unocc",
				"energy": -0.07569,
				"method": "rhf"
			},
			{
				"type": "unocc",
				"energy": -0.07077,
				"method": "rhf"
			},
			{
				"type": "unocc",
				"energy": 0.01511,
				"method": "rhf"
			},
			{
				"type": "unocc",
				"energy": 0.05971,
				"method": "rhf"
			},
			{
				"type": "unocc",
				"energy": 0.0692,
				"method": "rhf"
			}
		],
		"cosmo_sigma_profile": { 
			"-0.025": 0.0,
			"-0.024": 0.0,
			"-0.023": 0.0,
			"-0.022": 0.0,
			"-0.021": 0.0,
			"-0.02": 0.0,
			"-0.019": 0.0,
			"-0.018": 0.0,
			"-0.017": 0.0,
			"-0.016": 0.0,
			"-0.015": 0.0,
			"-0.014": 0.0,
			"-0.013": 0.0,
			"-0.012": 0.0,
			"-0.011": 0.0,
			"-0.01": 0.210621118571,
			"-0.009": 1.90699287093,
			"-0.008": 5.89805142856,
			"-0.007": 7.37104105659,
			"-0.006": 6.20352796692,
			"-0.005": 8.96847966826,
			"-0.004": 20.2697449547,
			"-0.003": 33.1442743496,
			"-0.002": 55.4965479032,
			"-0.001": 56.7956557137,
			"0.0": 46.427327353,
			"0.001": 35.6391915374,
			"0.002": 21.085900402,
			"0.003": 6.65084782635,
			"0.004": 6.09280468176,
			"0.005": 4.4478871402,
			"0.006": 6.00284133982,
			"0.007": 5.76140998043,
			"0.008": 3.98436972689,
			"0.009": 5.58612929124,
			"0.01": 7.07814405252,
			"0.011": 9.13054829577,
			"0.012": 5.06592023848,
			"0.013": 0.847527270921,
			"0.014": 0.0,
			"0.015": 0.0,
			"0.016": 0.0,
			"0.017": 0.0,
			"0.018": 0.0,
			"0.019": 0.0,
			"0.02": 0.0,
			"0.021": 0.0,
			"0.022": 0.0,
			"0.023": 0.0,
			"0.024": 0.0,
			"0.025": 0.0
		}
	}
}
