{
	 "smiles": "OC(=O)C1CCCN1C(=O)COC(=O)C1=CC=CC=C1", 
	 "Tm": 389.15, 
	 "num_atms": 35, 
	 "gaussian": { 
		 "optdone": 1, 
		 "sigma_profile": "yes", 
		 "theory": "DFT", 
		 "functional": "B3LYP", 
		 "basiset": "6-31G**", 
		 "properties": { 
			 "R2extent": 7615.3868, 
			 "electric_dipole_moment_norm": 7.37327271298, 
			 "electric_quadrupole_moment_norm": 11.9359178294, 
			 "total_energy": -973.444053303, 
			 "HOMO_LUMO_gap": 0.18652, 
			 "cosmo_polarized_energy": -17.49, 
			 "cosmo_cavitation_energy": 38.3, 
			 "cosmo_dispersion_energy": -27.12, 
			 "cosmo_repulsion_energy": 2.08, 
			 "cosmo_total_nonelectrostatic_energy": 13.25, 
			 "SMD_solvation_energy": 7.92 
		},
		"coords": [
			{
				"x": 0.9827056922,
				"y": 1.2672894726,
				"z": -4.3035835504,
				"element": "O" 
			},
			{
				"x": 1.7027022718,
				"y": 0.4213220293,
				"z": -3.5666360256,
				"element": "C" 
			},
			{
				"x": 2.1949565838,
				"y": -0.5848390925,
				"z": -4.0268691196,
				"element": "O" 
			},
			{
				"x": 1.8947445181,
				"y": 0.8344166516,
				"z": -2.0807915816,
				"element": "C" 
			},
			{
				"x": 2.6889793702,
				"y": -0.2126746592,
				"z": -1.2936278628,
				"element": "C" 
			},
			{
				"x": 1.5965188448,
				"y": -1.1544882089,
				"z": -0.7635663131,
				"element": "C" 
			},
			{
				"x": 0.4738306922,
				"y": -0.1914979436,
				"z": -0.3614487428,
				"element": "C" 
			},
			{
				"x": 0.603649366,
				"y": 0.9067334161,
				"z": -1.3458802847,
				"element": "N" 
			},
			{
				"x": -0.2465517168,
				"y": 1.9364122316,
				"z": -1.5334631932,
				"element": "C" 
			},
			{
				"x": -0.071737654,
				"y": 2.7855760267,
				"z": -2.4269797164,
				"element": "O" 
			},
			{
				"x": -1.4970631275,
				"y": 2.0450287372,
				"z": -0.6696978449,
				"element": "C" 
			},
			{
				"x": -1.1837615199,
				"y": 2.019321468,
				"z": 0.7310055057,
				"element": "O" 
			},
			{
				"x": -1.915277965,
				"y": 1.1775045028,
				"z": 1.5172515031,
				"element": "C" 
			},
			{
				"x": -2.7559710146,
				"y": 0.4192640611,
				"z": 1.0766292523,
				"element": "O" 
			},
			{
				"x": -1.546164333,
				"y": 1.290522541,
				"z": 2.9527639923,
				"element": "C" 
			},
			{
				"x": -0.5888138545,
				"y": 2.2069009243,
				"z": 3.4130495396,
				"element": "C" 
			},
			{
				"x": -0.2847247855,
				"y": 2.2664794079,
				"z": 4.7718551399,
				"element": "C" 
			},
			{
				"x": -0.9317117523,
				"y": 1.4171823679,
				"z": 5.6731034881,
				"element": "C" 
			},
			{
				"x": -1.8875878943,
				"y": 0.5051251754,
				"z": 5.2166394658,
				"element": "C" 
			},
			{
				"x": -2.1956536917,
				"y": 0.4411116768,
				"z": 3.8605618757,
				"element": "C" 
			},
			{
				"x": 0.6312793457,
				"y": 1.9996890651,
				"z": -3.7303545468,
				"element": "H" 
			},
			{
				"x": 2.3554285775,
				"y": 1.829151867,
				"z": -2.0695884196,
				"element": "H" 
			},
			{
				"x": 3.4081817042,
				"y": -0.7177644972,
				"z": -1.9381880351,
				"element": "H" 
			},
			{
				"x": 3.2205959948,
				"y": 0.2680646744,
				"z": -0.4653723846,
				"element": "H" 
			},
			{
				"x": 1.9244211305,
				"y": -1.7709603932,
				"z": 0.0768860759,
				"element": "H" 
			},
			{
				"x": 1.2642297125,
				"y": -1.8170069551,
				"z": -1.5683876629,
				"element": "H" 
			},
			{
				"x": 0.6356134005,
				"y": 0.1959028426,
				"z": 0.6499592935,
				"element": "H" 
			},
			{
				"x": -0.5232742181,
				"y": -0.6377111695,
				"z": -0.4040350095,
				"element": "H" 
			},
			{
				"x": -1.9537228457,
				"y": 3.0080617054,
				"z": -0.9034165809,
				"element": "H" 
			},
			{
				"x": -2.2021435045,
				"y": 1.2402113783,
				"z": -0.9004262611,
				"element": "H" 
			},
			{
				"x": -0.0950783789,
				"y": 2.8660639442,
				"z": 2.7085427748,
				"element": "H" 
			},
			{
				"x": 0.4551384856,
				"y": 2.9766446313,
				"z": 5.1286373757,
				"element": "H" 
			},
			{
				"x": -0.6923299866,
				"y": 1.4672354856,
				"z": 6.7314553021,
				"element": "H" 
			},
			{
				"x": -2.3911065163,
				"y": -0.1531777243,
				"z": 5.9180840851,
				"element": "H" 
			},
			{
				"x": -2.9351009314,
				"y": -0.2566956406,
				"z": 3.482688466,
				"element": "H" 
			}
		],
		 "valence_orbital": [ 
			{
				"type": "occ",
				"energy": -0.28893,
				"method": "rhf"
			},
			{
				"type": "occ",
				"energy": -0.28012,
				"method": "rhf"
			},
			{
				"type": "occ",
				"energy": -0.27458,
				"method": "rhf"
			},
			{
				"type": "occ",
				"energy": -0.27309,
				"method": "rhf"
			},
			{
				"type": "occ",
				"energy": -0.25057,
				"method": "rhf"
			},
			{
				"type": "unocc",
				"energy": -0.06405,
				"method": "rhf"
			},
			{
				"type": "unocc",
				"energy": -0.02269,
				"method": "rhf"
			},
			{
				"type": "unocc",
				"energy": -0.01818,
				"method": "rhf"
			},
			{
				"type": "unocc",
				"energy": 0.01414,
				"method": "rhf"
			},
			{
				"type": "unocc",
				"energy": 0.04038,
				"method": "rhf"
			}
		],
		"cosmo_sigma_profile": { 
			"-0.025": 0.0,
			"-0.024": 0.0,
			"-0.023": 0.0,
			"-0.022": 0.0,
			"-0.021": 0.0,
			"-0.02": 0.0,
			"-0.019": 0.0,
			"-0.018": 0.0,
			"-0.017": 0.0,
			"-0.016": 0.0,
			"-0.015": 0.0,
			"-0.014": 0.0,
			"-0.013": 0.0,
			"-0.012": 0.0,
			"-0.011": 0.0,
			"-0.01": 0.0,
			"-0.009": 0.931602167431,
			"-0.008": 4.87640902501,
			"-0.007": 8.61552898313,
			"-0.006": 17.1685427328,
			"-0.005": 29.6768864525,
			"-0.004": 35.0839336067,
			"-0.003": 26.2483102404,
			"-0.002": 23.2681757847,
			"-0.001": 23.9221590585,
			"0.0": 17.6382713202,
			"0.001": 16.4634949096,
			"0.002": 15.4946031198,
			"0.003": 17.2904163223,
			"0.004": 14.7246936091,
			"0.005": 4.81615968919,
			"0.006": 4.69939546769,
			"0.007": 4.21573893468,
			"0.008": 5.01029080548,
			"0.009": 5.50547961818,
			"0.01": 7.94824935041,
			"0.011": 10.4243389041,
			"0.012": 7.42039189882,
			"0.013": 2.55058588116,
			"0.014": 0.189543473013,
			"0.015": 0.0,
			"0.016": 0.0,
			"0.017": 0.0,
			"0.018": 0.0,
			"0.019": 0.0,
			"0.02": 0.0,
			"0.021": 0.0,
			"0.022": 0.0,
			"0.023": 0.0,
			"0.024": 0.0,
			"0.025": 0.0
		}
	}
}
