{
	 "smiles": "[O-][N+](=O)C1=CC2=C(C=C1)N(CC2)S(=O)(=O)C1=CC=CC=C1", 
	 "Tm": 402.15, 
	 "num_atms": 33, 
	 "gaussian": { 
		 "optdone": 1, 
		 "sigma_profile": "yes", 
		 "theory": "DFT", 
		 "functional": "B3LYP", 
		 "basiset": "6-31G**", 
		 "properties": { 
			 "R2extent": 7105.0255, 
			 "electric_dipole_moment_norm": 6.207197664, 
			 "electric_quadrupole_moment_norm": 34.6674422839, 
			 "total_energy": -1349.14099293, 
			 "HOMO_LUMO_gap": 0.15514, 
			 "cosmo_polarized_energy": -17.51, 
			 "cosmo_cavitation_energy": 38.23, 
			 "cosmo_dispersion_energy": -27.67, 
			 "cosmo_repulsion_energy": 2.06, 
			 "cosmo_total_nonelectrostatic_energy": 12.62, 
			 "SMD_solvation_energy": 7.0 
		},
		"coords": [
			{
				"x": 3.6891725082,
				"y": -1.136302513,
				"z": -4.3237982939,
				"element": "O" 
			},
			{
				"x": 2.4609783215,
				"y": -1.0291264064,
				"z": -4.3516819761,
				"element": "N" 
			},
			{
				"x": 1.801281054,
				"y": -0.8344503513,
				"z": -5.3742665059,
				"element": "O" 
			},
			{
				"x": 1.740969507,
				"y": -1.1385295761,
				"z": -3.0831558056,
				"element": "C" 
			},
			{
				"x": 2.4702430613,
				"y": -1.3593632177,
				"z": -1.908630677,
				"element": "C" 
			},
			{
				"x": 1.7726036357,
				"y": -1.4440068018,
				"z": -0.7183127751,
				"element": "C" 
			},
			{
				"x": 0.3700647906,
				"y": -1.3088267998,
				"z": -0.7005494055,
				"element": "C" 
			},
			{
				"x": -0.3563064282,
				"y": -1.1220988402,
				"z": -1.8824395851,
				"element": "C" 
			},
			{
				"x": 0.3503963936,
				"y": -1.0295414138,
				"z": -3.0798935341,
				"element": "C" 
			},
			{
				"x": -0.0958647619,
				"y": -1.4418526923,
				"z": 0.6231091615,
				"element": "N" 
			},
			{
				"x": 1.0572037487,
				"y": -1.4046509523,
				"z": 1.5668364628,
				"element": "C" 
			},
			{
				"x": 2.272652783,
				"y": -1.7442199336,
				"z": 0.6763416247,
				"element": "C" 
			},
			{
				"x": -1.6045107053,
				"y": -0.8974914434,
				"z": 1.1906791831,
				"element": "S" 
			},
			{
				"x": -2.5777180316,
				"y": -1.1989653014,
				"z": 0.1428020758,
				"element": "O" 
			},
			{
				"x": -1.7080998974,
				"y": -1.4433990736,
				"z": 2.5419052038,
				"element": "O" 
			},
			{
				"x": -1.452196981,
				"y": 0.884907453,
				"z": 1.3280294383,
				"element": "C" 
			},
			{
				"x": -1.7072588076,
				"y": 1.6861825555,
				"z": 0.2108083279,
				"element": "C" 
			},
			{
				"x": -1.5547088866,
				"y": 3.0675432669,
				"z": 0.3232874872,
				"element": "C" 
			},
			{
				"x": -1.1564745703,
				"y": 3.6341958869,
				"z": 1.5370040505,
				"element": "C" 
			},
			{
				"x": -0.9160613347,
				"y": 2.8236580948,
				"z": 2.6485434946,
				"element": "C" 
			},
			{
				"x": -1.0633018652,
				"y": 1.4394611253,
				"z": 2.5511915221,
				"element": "C" 
			},
			{
				"x": 3.5480726578,
				"y": -1.4559358307,
				"z": -1.9588832586,
				"element": "H" 
			},
			{
				"x": -1.4365719209,
				"y": -1.0679401425,
				"z": -1.8691616656,
				"element": "H" 
			},
			{
				"x": -0.1649056123,
				"y": -0.8767957924,
				"z": -4.0198832179,
				"element": "H" 
			},
			{
				"x": 0.8907699583,
				"y": -2.114327527,
				"z": 2.3762605674,
				"element": "H" 
			},
			{
				"x": 1.1554241525,
				"y": -0.3983099814,
				"z": 1.9944160352,
				"element": "H" 
			},
			{
				"x": 2.5342148625,
				"y": -2.8055181852,
				"z": 0.7650613958,
				"element": "H" 
			},
			{
				"x": 3.1564641922,
				"y": -1.1643482584,
				"z": 0.9558317296,
				"element": "H" 
			},
			{
				"x": -2.038435037,
				"y": 1.2364938586,
				"z": -0.7178640812,
				"element": "H" 
			},
			{
				"x": -1.7549199537,
				"y": 3.7015395508,
				"z": -0.5348748944,
				"element": "H" 
			},
			{
				"x": -1.0428402344,
				"y": 4.7110440199,
				"z": 1.618534701,
				"element": "H" 
			},
			{
				"x": -0.6222725783,
				"y": 3.2677478874,
				"z": 3.5946565909,
				"element": "H" 
			},
			{
				"x": -0.9096640206,
				"y": 0.795327335,
				"z": 3.4097966236,
				"element": "H" 
			}
		],
		 "valence_orbital": [ 
			{
				"type": "occ",
				"energy": -0.28843,
				"method": "rhf"
			},
			{
				"type": "occ",
				"energy": -0.28464,
				"method": "rhf"
			},
			{
				"type": "occ",
				"energy": -0.28404,
				"method": "rhf"
			},
			{
				"type": "occ",
				"energy": -0.27583,
				"method": "rhf"
			},
			{
				"type": "occ",
				"energy": -0.23884,
				"method": "rhf"
			},
			{
				"type": "unocc",
				"energy": -0.0837,
				"method": "rhf"
			},
			{
				"type": "unocc",
				"energy": -0.05358,
				"method": "rhf"
			},
			{
				"type": "unocc",
				"energy": -0.03683,
				"method": "rhf"
			},
			{
				"type": "unocc",
				"energy": -0.02975,
				"method": "rhf"
			},
			{
				"type": "unocc",
				"energy": 0.00607,
				"method": "rhf"
			}
		],
		"cosmo_sigma_profile": { 
			"-0.025": 0.0,
			"-0.024": 0.0,
			"-0.023": 0.0,
			"-0.022": 0.0,
			"-0.021": 0.0,
			"-0.02": 0.0,
			"-0.019": 0.0,
			"-0.018": 0.0,
			"-0.017": 0.0,
			"-0.016": 0.0,
			"-0.015": 0.0,
			"-0.014": 0.0,
			"-0.013": 0.0,
			"-0.012": 0.0,
			"-0.011": 0.0,
			"-0.01": 0.0,
			"-0.009": 0.0,
			"-0.008": 1.59249332572,
			"-0.007": 12.2190381792,
			"-0.006": 28.374192326,
			"-0.005": 30.7082067771,
			"-0.004": 22.6604598297,
			"-0.003": 20.8110457648,
			"-0.002": 16.9165284533,
			"-0.001": 19.7411097008,
			"0.0": 22.2115540723,
			"0.001": 26.9720800612,
			"0.002": 23.3840757367,
			"0.003": 15.7991170996,
			"0.004": 5.35941421475,
			"0.005": 6.02904878329,
			"0.006": 6.64719002614,
			"0.007": 8.05962587775,
			"0.008": 12.8720077695,
			"0.009": 10.5343240658,
			"0.01": 11.2888047474,
			"0.011": 4.67431707979,
			"0.012": 0.0,
			"0.013": 0.0,
			"0.014": 0.0,
			"0.015": 0.0,
			"0.016": 0.0,
			"0.017": 0.0,
			"0.018": 0.0,
			"0.019": 0.0,
			"0.02": 0.0,
			"0.021": 0.0,
			"0.022": 0.0,
			"0.023": 0.0,
			"0.024": 0.0,
			"0.025": 0.0
		}
	}
}
