{
	 "smiles": "CC(=O)C1=CC(O)=CC(O)=C1", 
	 "Tm": 418.15, 
	 "num_atms": 19, 
	 "gaussian": { 
		 "optdone": 1, 
		 "sigma_profile": "yes", 
		 "theory": "DFT", 
		 "functional": "B3LYP", 
		 "basiset": "6-31G**", 
		 "properties": { 
			 "R2extent": 2503.7317, 
			 "electric_dipole_moment_norm": 2.22949278088, 
			 "electric_quadrupole_moment_norm": 17.5049280193, 
			 "total_energy": -535.339296801, 
			 "HOMO_LUMO_gap": 0.16979, 
			 "cosmo_polarized_energy": -16.2, 
			 "cosmo_cavitation_energy": 23.57, 
			 "cosmo_dispersion_energy": -17.38, 
			 "cosmo_repulsion_energy": 1.4, 
			 "cosmo_total_nonelectrostatic_energy": 7.59, 
			 "SMD_solvation_energy": 5.51 
		},
		"coords": [
			{
				"x": -1.4321395614,
				"y": 2.2680292204,
				"z": -1.311081376,
				"element": "C" 
			},
			{
				"x": -0.3102443074,
				"y": 1.2563896355,
				"z": -1.1454795395,
				"element": "C" 
			},
			{
				"x": 0.0841489516,
				"y": 0.6076041117,
				"z": -2.1025321351,
				"element": "O" 
			},
			{
				"x": 0.3039310897,
				"y": 1.0665868055,
				"z": 0.2118120995,
				"element": "C" 
			},
			{
				"x": -0.1206570386,
				"y": 1.7904664972,
				"z": 1.3338481127,
				"element": "C" 
			},
			{
				"x": 0.494787264,
				"y": 1.5649911833,
				"z": 2.5710566885,
				"element": "C" 
			},
			{
				"x": 0.1303061784,
				"y": 2.2349988173,
				"z": 3.7032213066,
				"element": "O" 
			},
			{
				"x": 1.5226587022,
				"y": 0.6294786681,
				"z": 2.6944506797,
				"element": "C" 
			},
			{
				"x": 1.9381603001,
				"y": -0.0869713122,
				"z": 1.568562599,
				"element": "C" 
			},
			{
				"x": 2.9461245611,
				"y": -0.9877213953,
				"z": 1.7475109314,
				"element": "O" 
			},
			{
				"x": 1.3342899683,
				"y": 0.1266797609,
				"z": 0.3281937896,
				"element": "C" 
			},
			{
				"x": -1.7500616412,
				"y": 2.2675331347,
				"z": -2.3537864624,
				"element": "H" 
			},
			{
				"x": -2.2847666926,
				"y": 2.0173338747,
				"z": -0.6703021379,
				"element": "H" 
			},
			{
				"x": -1.0982716388,
				"y": 3.2737439356,
				"z": -1.0327058953,
				"element": "H" 
			},
			{
				"x": -0.919061808,
				"y": 2.5223146105,
				"z": 1.2563115797,
				"element": "H" 
			},
			{
				"x": -0.5843881339,
				"y": 2.8496294476,
				"z": 3.4929105001,
				"element": "H" 
			},
			{
				"x": 1.9942011895,
				"y": 0.460534299,
				"z": 3.6555617626,
				"element": "H" 
			},
			{
				"x": 3.139822885,
				"y": -1.4138270087,
				"z": 0.902199308,
				"element": "H" 
			},
			{
				"x": 1.6398597321,
				"y": -0.4175942859,
				"z": -0.5604518112,
				"element": "H" 
			}
		],
		 "valence_orbital": [ 
			{
				"type": "occ",
				"energy": -0.35601,
				"method": "rhf"
			},
			{
				"type": "occ",
				"energy": -0.31532,
				"method": "rhf"
			},
			{
				"type": "occ",
				"energy": -0.25096,
				"method": "rhf"
			},
			{
				"type": "occ",
				"energy": -0.24159,
				"method": "rhf"
			},
			{
				"type": "occ",
				"energy": -0.22555,
				"method": "rhf"
			},
			{
				"type": "unocc",
				"energy": -0.05576,
				"method": "rhf"
			},
			{
				"type": "unocc",
				"energy": 0.0122,
				"method": "rhf"
			},
			{
				"type": "unocc",
				"energy": 0.04611,
				"method": "rhf"
			},
			{
				"type": "unocc",
				"energy": 0.05887,
				"method": "rhf"
			},
			{
				"type": "unocc",
				"energy": 0.07488,
				"method": "rhf"
			}
		],
		"cosmo_sigma_profile": { 
			"-0.025": 0.0,
			"-0.024": 0.0,
			"-0.023": 0.0,
			"-0.022": 0.0,
			"-0.021": 0.0,
			"-0.02": 0.0,
			"-0.019": 0.0,
			"-0.018": 1.00064167806,
			"-0.017": 2.66916175552,
			"-0.016": 1.99619103253,
			"-0.015": 1.79883263024,
			"-0.014": 2.27829296119,
			"-0.013": 2.0550498281,
			"-0.012": 1.64112628928,
			"-0.011": 1.9903632095,
			"-0.01": 2.22250538633,
			"-0.009": 2.24070655233,
			"-0.008": 1.73485271701,
			"-0.007": 3.86942138544,
			"-0.006": 9.93503630747,
			"-0.005": 10.0473640653,
			"-0.004": 10.2959805102,
			"-0.003": 9.0718830967,
			"-0.002": 8.92813579868,
			"-0.001": 11.5565205644,
			"0.0": 8.55387129231,
			"0.001": 7.5043552919,
			"0.002": 9.22380287206,
			"0.003": 19.8126168045,
			"0.004": 15.5739717092,
			"0.005": 5.24204616528,
			"0.006": 3.91389137684,
			"0.007": 4.87060913929,
			"0.008": 4.6059548193,
			"0.009": 4.05816007108,
			"0.01": 5.67197563684,
			"0.011": 6.86981357572,
			"0.012": 4.32477780615,
			"0.013": 1.44569312183,
			"0.014": 0.0834510153832,
			"0.015": 0.0,
			"0.016": 0.0,
			"0.017": 0.0,
			"0.018": 0.0,
			"0.019": 0.0,
			"0.02": 0.0,
			"0.021": 0.0,
			"0.022": 0.0,
			"0.023": 0.0,
			"0.024": 0.0,
			"0.025": 0.0
		}
	}
}
