{
	 "smiles": "CC(C)CNC1=C(N)N(CC2=CC=CC=C2)C(=O)NC1=O", 
	 "Tm": 485.15, 
	 "num_atms": 41, 
	 "gaussian": { 
		 "optdone": 1, 
		 "sigma_profile": "yes", 
		 "theory": "DFT", 
		 "functional": "B3LYP", 
		 "basiset": "6-31G**", 
		 "properties": { 
			 "R2extent": 7639.9983, 
			 "electric_dipole_moment_norm": 4.88187203233, 
			 "electric_quadrupole_moment_norm": 9.6127133724, 
			 "total_energy": -953.157741493, 
			 "HOMO_LUMO_gap": 0.19246, 
			 "cosmo_polarized_energy": -17.7, 
			 "cosmo_cavitation_energy": 42.57, 
			 "cosmo_dispersion_energy": -28.82, 
			 "cosmo_repulsion_energy": 2.22, 
			 "cosmo_total_nonelectrostatic_energy": 15.97, 
			 "SMD_solvation_energy": 7.76 
		},
		"coords": [
			{
				"x": 0.1494750804,
				"y": -2.8024467956,
				"z": -0.1437907176,
				"element": "C" 
			},
			{
				"x": -1.0771888336,
				"y": -2.7829519554,
				"z": 0.7792065731,
				"element": "C" 
			},
			{
				"x": -1.9197195443,
				"y": -4.0527369845,
				"z": 0.5811892426,
				"element": "C" 
			},
			{
				"x": -1.962851882,
				"y": -1.5410205953,
				"z": 0.5763122517,
				"element": "C" 
			},
			{
				"x": -1.3181699475,
				"y": -0.2637933154,
				"z": 0.9689166973,
				"element": "N" 
			},
			{
				"x": -0.7079140356,
				"y": 0.5051107903,
				"z": -0.0702965019,
				"element": "C" 
			},
			{
				"x": 0.6123595165,
				"y": 0.8768037322,
				"z": 0.0826509702,
				"element": "C" 
			},
			{
				"x": 1.3004086341,
				"y": 0.5612758744,
				"z": 1.2273666194,
				"element": "N" 
			},
			{
				"x": 1.2816295824,
				"y": 1.6292308522,
				"z": -0.8737714293,
				"element": "N" 
			},
			{
				"x": 2.6498841469,
				"y": 2.126273371,
				"z": -0.6388434115,
				"element": "C" 
			},
			{
				"x": 3.7326331701,
				"y": 1.0783705287,
				"z": -0.8245235602,
				"element": "C" 
			},
			{
				"x": 3.8474323771,
				"y": 0.3830697554,
				"z": -2.0373579116,
				"element": "C" 
			},
			{
				"x": 4.8535310571,
				"y": -0.5650923288,
				"z": -2.2120728167,
				"element": "C" 
			},
			{
				"x": 5.7618168943,
				"y": -0.8288522445,
				"z": -1.1819421782,
				"element": "C" 
			},
			{
				"x": 5.6612667479,
				"y": -0.1354697689,
				"z": 0.0233276241,
				"element": "C" 
			},
			{
				"x": 4.6497885055,
				"y": 0.8134856331,
				"z": 0.1999336005,
				"element": "C" 
			},
			{
				"x": 0.6581048964,
				"y": 2.0185381669,
				"z": -2.070068436,
				"element": "C" 
			},
			{
				"x": 1.2503022228,
				"y": 2.6328282224,
				"z": -2.9478513914,
				"element": "O" 
			},
			{
				"x": -0.6652692743,
				"y": 1.6620540226,
				"z": -2.1642970959,
				"element": "N" 
			},
			{
				"x": -1.4498028775,
				"y": 0.9520791379,
				"z": -1.2246026108,
				"element": "C" 
			},
			{
				"x": -2.6388785868,
				"y": 0.7547085183,
				"z": -1.4560119255,
				"element": "O" 
			},
			{
				"x": -0.1539692911,
				"y": -2.7860096153,
				"z": -1.1976427235,
				"element": "H" 
			},
			{
				"x": 0.8039573436,
				"y": -1.9440031565,
				"z": 0.0277400788,
				"element": "H" 
			},
			{
				"x": 0.7426769286,
				"y": -3.7098340967,
				"z": 0.0164883019,
				"element": "H" 
			},
			{
				"x": -0.7244006977,
				"y": -2.7623861216,
				"z": 1.8208653557,
				"element": "H" 
			},
			{
				"x": -1.3205181523,
				"y": -4.9538341587,
				"z": 0.7494199184,
				"element": "H" 
			},
			{
				"x": -2.7714609945,
				"y": -4.0834582037,
				"z": 1.2697986105,
				"element": "H" 
			},
			{
				"x": -2.3162293089,
				"y": -4.1053958205,
				"z": -0.4400722789,
				"element": "H" 
			},
			{
				"x": -2.3213363298,
				"y": -1.4965449085,
				"z": -0.4599069499,
				"element": "H" 
			},
			{
				"x": -2.8528564429,
				"y": -1.6515755543,
				"z": 1.2064850016,
				"element": "H" 
			},
			{
				"x": -2.0074175037,
				"y": 0.3102095479,
				"z": 1.4459601753,
				"element": "H" 
			},
			{
				"x": 0.7409934564,
				"y": -0.0643416916,
				"z": 1.8017048443,
				"element": "H" 
			},
			{
				"x": 2.2724495231,
				"y": 0.29896058,
				"z": 1.1223453442,
				"element": "H" 
			},
			{
				"x": 2.7857626773,
				"y": 2.9373249722,
				"z": -1.3561172798,
				"element": "H" 
			},
			{
				"x": 2.6888074809,
				"y": 2.5418700922,
				"z": 0.3717838735,
				"element": "H" 
			},
			{
				"x": 3.1531436532,
				"y": 0.6020741089,
				"z": -2.8434035206,
				"element": "H" 
			},
			{
				"x": 4.9341431241,
				"y": -1.096452122,
				"z": -3.1559956579,
				"element": "H" 
			},
			{
				"x": 6.5448256514,
				"y": -1.5682862204,
				"z": -1.3220950164,
				"element": "H" 
			},
			{
				"x": 6.3661242914,
				"y": -0.3296531034,
				"z": 0.8266175022,
				"element": "H" 
			},
			{
				"x": 4.5815103266,
				"y": 1.361366428,
				"z": 1.137879207,
				"element": "H" 
			},
			{
				"x": -1.1383435858,
				"y": 1.9596044271,
				"z": -3.0085283789,
				"element": "H" 
			}
		],
		 "valence_orbital": [ 
			{
				"type": "occ",
				"energy": -0.26462,
				"method": "rhf"
			},
			{
				"type": "occ",
				"energy": -0.26001,
				"method": "rhf"
			},
			{
				"type": "occ",
				"energy": -0.25566,
				"method": "rhf"
			},
			{
				"type": "occ",
				"energy": -0.23501,
				"method": "rhf"
			},
			{
				"type": "occ",
				"energy": -0.21252,
				"method": "rhf"
			},
			{
				"type": "unocc",
				"energy": -0.02006,
				"method": "rhf"
			},
			{
				"type": "unocc",
				"energy": -0.01741,
				"method": "rhf"
			},
			{
				"type": "unocc",
				"energy": -0.0104,
				"method": "rhf"
			},
			{
				"type": "unocc",
				"energy": 0.01926,
				"method": "rhf"
			},
			{
				"type": "unocc",
				"energy": 0.07092,
				"method": "rhf"
			}
		],
		"cosmo_sigma_profile": { 
			"-0.025": 0.0,
			"-0.024": 0.0,
			"-0.023": 0.0,
			"-0.022": 0.0,
			"-0.021": 0.0,
			"-0.02": 0.0,
			"-0.019": 0.0,
			"-0.018": 0.0,
			"-0.017": 0.0,
			"-0.016": 0.0238111201399,
			"-0.015": 0.846144134629,
			"-0.014": 0.858316387747,
			"-0.013": 0.477782137703,
			"-0.012": 0.668578682074,
			"-0.011": 1.463102679,
			"-0.01": 3.7940243431,
			"-0.009": 3.69831484688,
			"-0.008": 4.9953426176,
			"-0.007": 6.97948554457,
			"-0.006": 13.0896417214,
			"-0.005": 16.6783622724,
			"-0.004": 21.5422702846,
			"-0.003": 26.074711578,
			"-0.002": 31.8785360925,
			"-0.001": 34.5092528494,
			"0.0": 34.8918066176,
			"0.001": 31.557464181,
			"0.002": 23.6670469969,
			"0.003": 13.8250587687,
			"0.004": 12.5134235613,
			"0.005": 12.3325056734,
			"0.006": 4.6588388178,
			"0.007": 3.64620987212,
			"0.008": 3.24021737693,
			"0.009": 3.01622419967,
			"0.01": 2.64307902703,
			"0.011": 3.78980196086,
			"0.012": 4.88321616723,
			"0.013": 6.37119800141,
			"0.014": 5.77614341376,
			"0.015": 0.696366037489,
			"0.016": 0.0,
			"0.017": 0.0,
			"0.018": 0.0,
			"0.019": 0.0,
			"0.02": 0.0,
			"0.021": 0.0,
			"0.022": 0.0,
			"0.023": 0.0,
			"0.024": 0.0,
			"0.025": 0.0
		}
	}
}
