{
	 "smiles": "CC(=O)NC1=NN(C(C)=O)C(C)(S1)C1=CC=CC=C1", 
	 "Tm": 497.15, 
	 "num_atms": 34, 
	 "gaussian": { 
		 "optdone": 1, 
		 "sigma_profile": "yes", 
		 "theory": "DFT", 
		 "functional": "B3LYP", 
		 "basiset": "6-31G**", 
		 "properties": { 
			 "R2extent": 6755.3805, 
			 "electric_dipole_moment_norm": 6.23707486647, 
			 "electric_quadrupole_moment_norm": 21.2989750411, 
			 "total_energy": -1217.29888144, 
			 "HOMO_LUMO_gap": 0.17132, 
			 "cosmo_polarized_energy": -19.77, 
			 "cosmo_cavitation_energy": 38.36, 
			 "cosmo_dispersion_energy": -26.64, 
			 "cosmo_repulsion_energy": 2.01, 
			 "cosmo_total_nonelectrostatic_energy": 13.73, 
			 "SMD_solvation_energy": 7.65 
		},
		"coords": [
			{
				"x": 1.103303577,
				"y": -0.4536289597,
				"z": 5.3274279057,
				"element": "C" 
			},
			{
				"x": 2.378166199,
				"y": 0.2782803411,
				"z": 4.9958669079,
				"element": "C" 
			},
			{
				"x": 3.2745055339,
				"y": 0.4869766815,
				"z": 5.7933412349,
				"element": "O" 
			},
			{
				"x": 2.5592040509,
				"y": 0.7399065726,
				"z": 3.6778938989,
				"element": "N" 
			},
			{
				"x": 1.7035911104,
				"y": 0.717799697,
				"z": 2.5924436066,
				"element": "C" 
			},
			{
				"x": 0.4453641983,
				"y": 0.4950064629,
				"z": 2.6566011581,
				"element": "N" 
			},
			{
				"x": -0.1412781725,
				"y": 0.4507835931,
				"z": 1.3965800716,
				"element": "N" 
			},
			{
				"x": -1.5082004013,
				"y": 0.1181603289,
				"z": 1.395831863,
				"element": "C" 
			},
			{
				"x": -2.2687210408,
				"y": 0.1926639117,
				"z": 0.0827110054,
				"element": "C" 
			},
			{
				"x": -2.0529918654,
				"y": -0.2632226166,
				"z": 2.4149081124,
				"element": "O" 
			},
			{
				"x": 0.6324177798,
				"y": 1.1448757665,
				"z": 0.3188666736,
				"element": "C" 
			},
			{
				"x": 0.2797127624,
				"y": 2.639327504,
				"z": 0.2935050299,
				"element": "C" 
			},
			{
				"x": 2.3961404497,
				"y": 0.9747148312,
				"z": 0.9687668056,
				"element": "S" 
			},
			{
				"x": 0.5681258323,
				"y": 0.4286391084,
				"z": -1.0280237634,
				"element": "C" 
			},
			{
				"x": 0.7006323339,
				"y": -0.9682764454,
				"z": -1.081167233,
				"element": "C" 
			},
			{
				"x": 0.6664801972,
				"y": -1.6397700572,
				"z": -2.3000510325,
				"element": "C" 
			},
			{
				"x": 0.5113217026,
				"y": -0.9267196177,
				"z": -3.4926581955,
				"element": "C" 
			},
			{
				"x": 0.390453892,
				"y": 0.460517273,
				"z": -3.4514560441,
				"element": "C" 
			},
			{
				"x": 0.4186879464,
				"y": 1.1346081705,
				"z": -2.227268598,
				"element": "C" 
			},
			{
				"x": 1.1836514857,
				"y": -0.8065638561,
				"z": 6.3553824581,
				"element": "H" 
			},
			{
				"x": 0.2342202987,
				"y": 0.1982449432,
				"z": 5.2104528358,
				"element": "H" 
			},
			{
				"x": 0.9408402369,
				"y": -1.2933012403,
				"z": 4.6459284122,
				"element": "H" 
			},
			{
				"x": 3.4502431138,
				"y": 1.2048009278,
				"z": 3.5570756907,
				"element": "H" 
			},
			{
				"x": -2.0724715864,
				"y": -0.7001641425,
				"z": -0.5180749612,
				"element": "H" 
			},
			{
				"x": -3.3277172327,
				"y": 0.2115380353,
				"z": 0.3415444183,
				"element": "H" 
			},
			{
				"x": -2.025200838,
				"y": 1.0588992398,
				"z": -0.5334275556,
				"element": "H" 
			},
			{
				"x": -0.7376151219,
				"y": 2.7972493511,
				"z": -0.077659224,
				"element": "H" 
			},
			{
				"x": 0.3387616503,
				"y": 3.0369611034,
				"z": 1.3086910909,
				"element": "H" 
			},
			{
				"x": 0.9756921657,
				"y": 3.2016704971,
				"z": -0.3332279425,
				"element": "H" 
			},
			{
				"x": 0.8276122427,
				"y": -1.5250404504,
				"z": -0.1583802729,
				"element": "H" 
			},
			{
				"x": 0.7650001274,
				"y": -2.721131483,
				"z": -2.3200741331,
				"element": "H" 
			},
			{
				"x": 0.4873261381,
				"y": -1.4504253779,
				"z": -4.4436562316,
				"element": "H" 
			},
			{
				"x": 0.2724044759,
				"y": 1.0264350882,
				"z": -4.3708109963,
				"element": "H" 
			},
			{
				"x": 0.3186367576,
				"y": 2.2140848187,
				"z": -2.2218829961,
				"element": "H" 
			}
		],
		 "valence_orbital": [ 
			{
				"type": "occ",
				"energy": -0.27,
				"method": "rhf"
			},
			{
				"type": "occ",
				"energy": -0.26567,
				"method": "rhf"
			},
			{
				"type": "occ",
				"energy": -0.25663,
				"method": "rhf"
			},
			{
				"type": "occ",
				"energy": -0.24846,
				"method": "rhf"
			},
			{
				"type": "occ",
				"energy": -0.21641,
				"method": "rhf"
			},
			{
				"type": "unocc",
				"energy": -0.04509,
				"method": "rhf"
			},
			{
				"type": "unocc",
				"energy": -0.02568,
				"method": "rhf"
			},
			{
				"type": "unocc",
				"energy": -0.02089,
				"method": "rhf"
			},
			{
				"type": "unocc",
				"energy": -0.01182,
				"method": "rhf"
			},
			{
				"type": "unocc",
				"energy": 0.02207,
				"method": "rhf"
			}
		],
		"cosmo_sigma_profile": { 
			"-0.025": 0.0,
			"-0.024": 0.0,
			"-0.023": 0.0,
			"-0.022": 0.0,
			"-0.021": 0.0,
			"-0.02": 0.0,
			"-0.019": 0.0,
			"-0.018": 0.0,
			"-0.017": 0.0,
			"-0.016": 0.404594964851,
			"-0.015": 1.21016090231,
			"-0.014": 1.0176873539,
			"-0.013": 0.857466383857,
			"-0.012": 0.954540856448,
			"-0.011": 0.840612825337,
			"-0.01": 0.874344328436,
			"-0.009": 1.24305393239,
			"-0.008": 1.16533765663,
			"-0.007": 4.17220366128,
			"-0.006": 17.1964619355,
			"-0.005": 27.3011382525,
			"-0.004": 29.2260533448,
			"-0.003": 26.9951957313,
			"-0.002": 32.1299770112,
			"-0.001": 30.8744953916,
			"0.0": 17.7003522341,
			"0.001": 15.9234326884,
			"0.002": 14.4475371385,
			"0.003": 13.9277470008,
			"0.004": 14.4547496959,
			"0.005": 9.88569440889,
			"0.006": 4.43902970377,
			"0.007": 2.46007364166,
			"0.008": 3.30335256632,
			"0.009": 3.47010656419,
			"0.01": 3.30710964365,
			"0.011": 5.10976961652,
			"0.012": 8.10295507466,
			"0.013": 8.71126396465,
			"0.014": 4.44255264599,
			"0.015": 0.278156099748,
			"0.016": 0.0,
			"0.017": 0.0,
			"0.018": 0.0,
			"0.019": 0.0,
			"0.02": 0.0,
			"0.021": 0.0,
			"0.022": 0.0,
			"0.023": 0.0,
			"0.024": 0.0,
			"0.025": 0.0
		}
	}
}
