{
	 "smiles": "COC(=O)CC(=O)C1=CC=NC=C1", 
	 "Tm": 344.15, 
	 "num_atms": 22, 
	 "gaussian": { 
		 "optdone": 1, 
		 "sigma_profile": "yes", 
		 "theory": "DFT", 
		 "functional": "B3LYP", 
		 "basiset": "6-31G**", 
		 "properties": { 
			 "R2extent": 3137.007, 
			 "electric_dipole_moment_norm": 2.01761539695, 
			 "electric_quadrupole_moment_norm": 9.16846519489, 
			 "total_energy": -628.79917037, 
			 "HOMO_LUMO_gap": 0.17992, 
			 "cosmo_polarized_energy": -11.8, 
			 "cosmo_cavitation_energy": 27.13, 
			 "cosmo_dispersion_energy": -19.26, 
			 "cosmo_repulsion_energy": 1.54, 
			 "cosmo_total_nonelectrostatic_energy": 9.41, 
			 "SMD_solvation_energy": 5.43 
		},
		"coords": [
			{
				"x": -2.0799972011,
				"y": -0.3226697217,
				"z": -1.7958626204,
				"element": "C" 
			},
			{
				"x": -1.4131705193,
				"y": 0.7374621143,
				"z": -1.0848417085,
				"element": "O" 
			},
			{
				"x": -1.109313641,
				"y": 0.4730680081,
				"z": 0.1978227858,
				"element": "C" 
			},
			{
				"x": -1.3713490169,
				"y": -0.5709260736,
				"z": 0.7569695737,
				"element": "O" 
			},
			{
				"x": -0.3878817233,
				"y": 1.6519416759,
				"z": 0.8360162134,
				"element": "C" 
			},
			{
				"x": 1.0539057989,
				"y": 1.8236931665,
				"z": 0.3308905489,
				"element": "C" 
			},
			{
				"x": 1.3427289019,
				"y": 2.7743395111,
				"z": -0.3722537643,
				"element": "O" 
			},
			{
				"x": 2.0966345039,
				"y": 0.8241252681,
				"z": 0.7423827013,
				"element": "C" 
			},
			{
				"x": 1.8241532004,
				"y": -0.3042446701,
				"z": 1.5258283734,
				"element": "C" 
			},
			{
				"x": 2.8818021517,
				"y": -1.1571632262,
				"z": 1.8520403536,
				"element": "C" 
			},
			{
				"x": 4.1468355564,
				"y": -0.9602843146,
				"z": 1.4650656781,
				"element": "N" 
			},
			{
				"x": 4.3960981881,
				"y": 0.1229286005,
				"z": 0.7138612819,
				"element": "C" 
			},
			{
				"x": 3.4185996006,
				"y": 1.0352417708,
				"z": 0.3277447348,
				"element": "C" 
			},
			{
				"x": -3.0385920783,
				"y": -0.5536826731,
				"z": -1.3253308402,
				"element": "H" 
			},
			{
				"x": -1.4625666922,
				"y": -1.2238794096,
				"z": -1.8053676995,
				"element": "H" 
			},
			{
				"x": -2.2287793959,
				"y": 0.0534742853,
				"z": -2.8072835829,
				"element": "H" 
			},
			{
				"x": -0.9103793382,
				"y": 2.5755676187,
				"z": 0.5814326099,
				"element": "H" 
			},
			{
				"x": -0.4008495122,
				"y": 1.500365941,
				"z": 1.9176201449,
				"element": "H" 
			},
			{
				"x": 0.819975602,
				"y": -0.5398042871,
				"z": 1.8605304871,
				"element": "H" 
			},
			{
				"x": 2.6973267937,
				"y": -2.0432925025,
				"z": 2.4563631454,
				"element": "H" 
			},
			{
				"x": 5.4308213679,
				"y": 0.2650494914,
				"z": 0.4080151416,
				"element": "H" 
			},
			{
				"x": 3.6560974529,
				"y": 1.9008894267,
				"z": -0.2804435579,
				"element": "H" 
			}
		],
		 "valence_orbital": [ 
			{
				"type": "occ",
				"energy": -0.29603,
				"method": "rhf"
			},
			{
				"type": "occ",
				"energy": -0.29353,
				"method": "rhf"
			},
			{
				"type": "occ",
				"energy": -0.27215,
				"method": "rhf"
			},
			{
				"type": "occ",
				"energy": -0.26944,
				"method": "rhf"
			},
			{
				"type": "occ",
				"energy": -0.2613,
				"method": "rhf"
			},
			{
				"type": "unocc",
				"energy": -0.08138,
				"method": "rhf"
			},
			{
				"type": "unocc",
				"energy": -0.0209,
				"method": "rhf"
			},
			{
				"type": "unocc",
				"energy": -0.00833,
				"method": "rhf"
			},
			{
				"type": "unocc",
				"energy": 0.02252,
				"method": "rhf"
			},
			{
				"type": "unocc",
				"energy": 0.09431,
				"method": "rhf"
			}
		],
		"cosmo_sigma_profile": { 
			"-0.025": 0.0,
			"-0.024": 0.0,
			"-0.023": 0.0,
			"-0.022": 0.0,
			"-0.021": 0.0,
			"-0.02": 0.0,
			"-0.019": 0.0,
			"-0.018": 0.0,
			"-0.017": 0.0,
			"-0.016": 0.0,
			"-0.015": 0.0,
			"-0.014": 0.0,
			"-0.013": 0.0,
			"-0.012": 0.0,
			"-0.011": 0.0,
			"-0.01": 0.0,
			"-0.009": 0.278548795543,
			"-0.008": 3.70636868463,
			"-0.007": 10.3410508775,
			"-0.006": 19.6511498546,
			"-0.005": 20.1219189192,
			"-0.004": 20.2005736228,
			"-0.003": 15.2544892661,
			"-0.002": 11.9959046783,
			"-0.001": 11.8763532226,
			"0.0": 17.20864381,
			"0.001": 19.0229835113,
			"0.002": 7.35666598338,
			"0.003": 7.38728574896,
			"0.004": 7.24924402696,
			"0.005": 5.34049807024,
			"0.006": 4.70244142437,
			"0.007": 5.2841574204,
			"0.008": 5.87317612997,
			"0.009": 5.35973691985,
			"0.01": 6.34034162926,
			"0.011": 7.08381474129,
			"0.012": 2.01554030939,
			"0.013": 1.00406372021,
			"0.014": 1.00012014826,
			"0.015": 0.67832899456,
			"0.016": 0.607527485365,
			"0.017": 0.0,
			"0.018": 0.0,
			"0.019": 0.0,
			"0.02": 0.0,
			"0.021": 0.0,
			"0.022": 0.0,
			"0.023": 0.0,
			"0.024": 0.0,
			"0.025": 0.0
		}
	}
}
