{
	 "smiles": "CC1(CCC2=CC=CC=C2)NC(=O)N(N)C1=O", 
	 "Tm": 290.15, 
	 "num_atms": 32, 
	 "gaussian": { 
		 "optdone": 1, 
		 "sigma_profile": "yes", 
		 "theory": "DFT", 
		 "functional": "B3LYP", 
		 "basiset": "6-31G**", 
		 "properties": { 
			 "R2extent": 6120.5439, 
			 "electric_dipole_moment_norm": 3.15172776743, 
			 "electric_quadrupole_moment_norm": 24.6292939578, 
			 "total_energy": -781.03476492, 
			 "HOMO_LUMO_gap": 0.23006, 
			 "cosmo_polarized_energy": -20.69, 
			 "cosmo_cavitation_energy": 35.76, 
			 "cosmo_dispersion_energy": -24.65, 
			 "cosmo_repulsion_energy": 1.94, 
			 "cosmo_total_nonelectrostatic_energy": 13.05, 
			 "SMD_solvation_energy": 7.42 
		},
		"coords": [
			{
				"x": -0.1953502606,
				"y": -0.425954799,
				"z": -3.7161042308,
				"element": "C" 
			},
			{
				"x": 0.7534547471,
				"y": -0.8731263511,
				"z": -2.5944706572,
				"element": "C" 
			},
			{
				"x": 0.0036480579,
				"y": -1.2993661863,
				"z": -1.3043535399,
				"element": "C" 
			},
			{
				"x": -0.9546409643,
				"y": -0.2494514908,
				"z": -0.7043961135,
				"element": "C" 
			},
			{
				"x": -1.5559195773,
				"y": -0.7245007387,
				"z": 0.6022880004,
				"element": "C" 
			},
			{
				"x": -2.7451282356,
				"y": -1.4659168912,
				"z": 0.6199356353,
				"element": "C" 
			},
			{
				"x": -3.2821590324,
				"y": -1.9328739824,
				"z": 1.8205252104,
				"element": "C" 
			},
			{
				"x": -2.6351872492,
				"y": -1.6643015649,
				"z": 3.0280857188,
				"element": "C" 
			},
			{
				"x": -1.4509058917,
				"y": -0.9248159881,
				"z": 3.025284247,
				"element": "C" 
			},
			{
				"x": -0.9181795602,
				"y": -0.459945529,
				"z": 1.8221466712,
				"element": "C" 
			},
			{
				"x": 1.6491503582,
				"y": -1.946386077,
				"z": -3.0387421153,
				"element": "N" 
			},
			{
				"x": 2.986036098,
				"y": -1.6683256351,
				"z": -2.8826824601,
				"element": "C" 
			},
			{
				"x": 3.9363913633,
				"y": -2.3936760025,
				"z": -3.060550732,
				"element": "O" 
			},
			{
				"x": 3.0244661221,
				"y": -0.3126050427,
				"z": -2.4448970533,
				"element": "N" 
			},
			{
				"x": 4.2233013773,
				"y": 0.3952045253,
				"z": -2.3174431517,
				"element": "N" 
			},
			{
				"x": 1.7724507223,
				"y": 0.2381458204,
				"z": -2.2870875389,
				"element": "C" 
			},
			{
				"x": 1.5442829786,
				"y": 1.3952357747,
				"z": -1.9797773984,
				"element": "O" 
			},
			{
				"x": 0.3647373257,
				"y": -0.2560731696,
				"z": -4.6392473452,
				"element": "H" 
			},
			{
				"x": -0.9499855862,
				"y": -1.1959441794,
				"z": -3.9083251618,
				"element": "H" 
			},
			{
				"x": -0.7012135011,
				"y": 0.5023667892,
				"z": -3.4418487416,
				"element": "H" 
			},
			{
				"x": 0.7493451519,
				"y": -1.5829595844,
				"z": -0.551972585,
				"element": "H" 
			},
			{
				"x": -0.5609248807,
				"y": -2.2125269951,
				"z": -1.5371098125,
				"element": "H" 
			},
			{
				"x": -0.4104251175,
				"y": 0.6877033044,
				"z": -0.5537419162,
				"element": "H" 
			},
			{
				"x": -1.7580014322,
				"y": -0.0371902628,
				"z": -1.4182246315,
				"element": "H" 
			},
			{
				"x": -3.2591962639,
				"y": -1.6729049765,
				"z": -0.3162550838,
				"element": "H" 
			},
			{
				"x": -4.2078678769,
				"y": -2.5016632545,
				"z": 1.8131814623,
				"element": "H" 
			},
			{
				"x": -3.0531565116,
				"y": -2.0236962773,
				"z": 3.9639934888,
				"element": "H" 
			},
			{
				"x": -0.9441239836,
				"y": -0.7047436827,
				"z": 3.9608006771,
				"element": "H" 
			},
			{
				"x": 0.0005670753,
				"y": 0.1221522715,
				"z": 1.8280401948,
				"element": "H" 
			},
			{
				"x": 1.3579014924,
				"y": -2.9099894199,
				"z": -3.1091774758,
				"element": "H" 
			},
			{
				"x": 4.0692944923,
				"y": 1.3142966874,
				"z": -2.7289204778,
				"element": "H" 
			},
			{
				"x": 4.4044385629,
				"y": 0.5415329083,
				"z": -1.3256530839,
				"element": "H" 
			}
		],
		 "valence_orbital": [ 
			{
				"type": "occ",
				"energy": -0.27497,
				"method": "rhf"
			},
			{
				"type": "occ",
				"energy": -0.26548,
				"method": "rhf"
			},
			{
				"type": "occ",
				"energy": -0.25895,
				"method": "rhf"
			},
			{
				"type": "occ",
				"energy": -0.25174,
				"method": "rhf"
			},
			{
				"type": "occ",
				"energy": -0.24317,
				"method": "rhf"
			},
			{
				"type": "unocc",
				"energy": -0.01311,
				"method": "rhf"
			},
			{
				"type": "unocc",
				"energy": -0.00362,
				"method": "rhf"
			},
			{
				"type": "unocc",
				"energy": -0.00193,
				"method": "rhf"
			},
			{
				"type": "unocc",
				"energy": 0.05731,
				"method": "rhf"
			},
			{
				"type": "unocc",
				"energy": 0.07048,
				"method": "rhf"
			}
		],
		"cosmo_sigma_profile": { 
			"-0.025": 0.0,
			"-0.024": 0.0,
			"-0.023": 0.0,
			"-0.022": 0.0,
			"-0.021": 0.0,
			"-0.02": 0.0,
			"-0.019": 0.0,
			"-0.018": 0.0,
			"-0.017": 0.0,
			"-0.016": 0.0,
			"-0.015": 0.870378614481,
			"-0.014": 1.14960753888,
			"-0.013": 2.43140898879,
			"-0.012": 4.65361827276,
			"-0.011": 3.61621770068,
			"-0.01": 3.44875377068,
			"-0.009": 3.56491268041,
			"-0.008": 3.31261351459,
			"-0.007": 3.27238498396,
			"-0.006": 8.52029561954,
			"-0.005": 22.250272257,
			"-0.004": 27.4895513057,
			"-0.003": 29.1144164399,
			"-0.002": 19.0988597969,
			"-0.001": 20.6331042324,
			"0.0": 16.9411084726,
			"0.001": 12.9514233909,
			"0.002": 11.775664472,
			"0.003": 12.2058766213,
			"0.004": 11.414776729,
			"0.005": 10.7483103931,
			"0.006": 10.8531431194,
			"0.007": 6.31150510214,
			"0.008": 3.18227098749,
			"0.009": 2.56004228675,
			"0.01": 3.94646226266,
			"0.011": 4.84480912711,
			"0.012": 8.8948057806,
			"0.013": 6.07080969685,
			"0.014": 2.12701337341,
			"0.015": 1.44096305043,
			"0.016": 1.26892306452,
			"0.017": 0.699685152028,
			"0.018": 0.0,
			"0.019": 0.0,
			"0.02": 0.0,
			"0.021": 0.0,
			"0.022": 0.0,
			"0.023": 0.0,
			"0.024": 0.0,
			"0.025": 0.0
		}
	}
}
