{
	 "smiles": "NCCCN1C(=O)NC2(CCCC2)C1=O", 
	 "Tm": 403.15, 
	 "num_atms": 32, 
	 "gaussian": { 
		 "optdone": 1, 
		 "sigma_profile": "yes", 
		 "theory": "DFT", 
		 "functional": "B3LYP", 
		 "basiset": "6-31G**", 
		 "properties": { 
			 "R2extent": 3648.2451, 
			 "electric_dipole_moment_norm": 3.24357953656, 
			 "electric_quadrupole_moment_norm": 15.7159627828, 
			 "total_energy": -706.063343908, 
			 "HOMO_LUMO_gap": 0.20686, 
			 "cosmo_polarized_energy": -16.66, 
			 "cosmo_cavitation_energy": 32.9, 
			 "cosmo_dispersion_energy": -23.08, 
			 "cosmo_repulsion_energy": 1.82, 
			 "cosmo_total_nonelectrostatic_energy": 11.63, 
			 "SMD_solvation_energy": 4.04 
		},
		"coords": [
			{
				"x": 3.647241707,
				"y": -0.8078091215,
				"z": -0.8791111221,
				"element": "N" 
			},
			{
				"x": 3.5454092853,
				"y": -2.2068305955,
				"z": -1.2858485297,
				"element": "C" 
			},
			{
				"x": 2.2190243789,
				"y": -2.7037023466,
				"z": -1.8956410936,
				"element": "C" 
			},
			{
				"x": 0.984095787,
				"y": -2.6513937636,
				"z": -0.9762832598,
				"element": "C" 
			},
			{
				"x": 0.2803894795,
				"y": -1.3687407062,
				"z": -0.9650828789,
				"element": "N" 
			},
			{
				"x": -0.6858542447,
				"y": -1.0330512503,
				"z": -1.9474646063,
				"element": "C" 
			},
			{
				"x": -0.9621054308,
				"y": -1.7105784581,
				"z": -2.9178709146,
				"element": "O" 
			},
			{
				"x": -1.2183917652,
				"y": 0.1669892321,
				"z": -1.5601346873,
				"element": "N" 
			},
			{
				"x": -0.5903326611,
				"y": 0.7333091436,
				"z": -0.3747786314,
				"element": "C" 
			},
			{
				"x": 0.1954428327,
				"y": 2.0557694294,
				"z": -0.6398203701,
				"element": "C" 
			},
			{
				"x": 0.077097853,
				"y": 2.848106569,
				"z": 0.6678478483,
				"element": "C" 
			},
			{
				"x": -1.3711177487,
				"y": 2.5727977264,
				"z": 1.1031675704,
				"element": "C" 
			},
			{
				"x": -1.5631297444,
				"y": 1.0713820409,
				"z": 0.8058784866,
				"element": "C" 
			},
			{
				"x": 0.3747963195,
				"y": -0.401815075,
				"z": 0.0040040334,
				"element": "C" 
			},
			{
				"x": 1.1034502276,
				"y": -0.4221892561,
				"z": 0.9844569677,
				"element": "O" 
			},
			{
				"x": 3.0269147338,
				"y": -0.6132497458,
				"z": -0.0966292848,
				"element": "H" 
			},
			{
				"x": 3.3805212173,
				"y": -0.1928229603,
				"z": -1.6442055786,
				"element": "H" 
			},
			{
				"x": 3.7807877022,
				"y": -2.820390152,
				"z": -0.4062041037,
				"element": "H" 
			},
			{
				"x": 4.341385539,
				"y": -2.4089332338,
				"z": -2.0146654343,
				"element": "H" 
			},
			{
				"x": 1.9904940169,
				"y": -2.1598032038,
				"z": -2.8206693509,
				"element": "H" 
			},
			{
				"x": 2.3585870208,
				"y": -3.7523465011,
				"z": -2.1912073289,
				"element": "H" 
			},
			{
				"x": 1.2552327582,
				"y": -2.8678969431,
				"z": 0.0614995313,
				"element": "H" 
			},
			{
				"x": 0.2527582532,
				"y": -3.3925480451,
				"z": -1.3078890912,
				"element": "H" 
			},
			{
				"x": -1.8239837981,
				"y": 0.675875401,
				"z": -2.185208107,
				"element": "H" 
			},
			{
				"x": -0.3083149405,
				"y": 2.5927099441,
				"z": -1.4535598646,
				"element": "H" 
			},
			{
				"x": 1.2257650382,
				"y": 1.8723409948,
				"z": -0.9578422951,
				"element": "H" 
			},
			{
				"x": 0.7755355245,
				"y": 2.4420669859,
				"z": 1.4076072664,
				"element": "H" 
			},
			{
				"x": 0.2991691065,
				"y": 3.9118033939,
				"z": 0.5392678825,
				"element": "H" 
			},
			{
				"x": -2.061244298,
				"y": 3.1740908193,
				"z": 0.497662905,
				"element": "H" 
			},
			{
				"x": -1.5612354955,
				"y": 2.8181709918,
				"z": 2.1519260739,
				"element": "H" 
			},
			{
				"x": -2.589993924,
				"y": 0.8036340532,
				"z": 0.5439811969,
				"element": "H" 
			},
			{
				"x": -1.27659473,
				"y": 0.4789546325,
				"z": 1.6798167703,
				"element": "H" 
			}
		],
		 "valence_orbital": [ 
			{
				"type": "occ",
				"energy": -0.2883,
				"method": "rhf"
			},
			{
				"type": "occ",
				"energy": -0.27678,
				"method": "rhf"
			},
			{
				"type": "occ",
				"energy": -0.26684,
				"method": "rhf"
			},
			{
				"type": "occ",
				"energy": -0.2618,
				"method": "rhf"
			},
			{
				"type": "occ",
				"energy": -0.22017,
				"method": "rhf"
			},
			{
				"type": "unocc",
				"energy": -0.01331,
				"method": "rhf"
			},
			{
				"type": "unocc",
				"energy": 0.05719,
				"method": "rhf"
			},
			{
				"type": "unocc",
				"energy": 0.06574,
				"method": "rhf"
			},
			{
				"type": "unocc",
				"energy": 0.07438,
				"method": "rhf"
			},
			{
				"type": "unocc",
				"energy": 0.08734,
				"method": "rhf"
			}
		],
		"cosmo_sigma_profile": { 
			"-0.025": 0.0,
			"-0.024": 0.0,
			"-0.023": 0.0,
			"-0.022": 0.0,
			"-0.021": 0.0,
			"-0.02": 0.0,
			"-0.019": 0.0,
			"-0.018": 0.0,
			"-0.017": 0.0,
			"-0.016": 0.0,
			"-0.015": 0.759685082726,
			"-0.014": 1.26443285749,
			"-0.013": 1.30590832187,
			"-0.012": 1.2688988321,
			"-0.011": 1.03644905115,
			"-0.01": 0.568266392813,
			"-0.009": 2.04771449268,
			"-0.008": 2.84448871097,
			"-0.007": 2.89045414876,
			"-0.006": 5.02240400795,
			"-0.005": 11.6415867083,
			"-0.004": 23.0171847532,
			"-0.003": 36.288864779,
			"-0.002": 34.4032122784,
			"-0.001": 30.3207626089,
			"0.0": 25.1095596959,
			"0.001": 13.8458404049,
			"0.002": 6.41516462966,
			"0.003": 4.70012064351,
			"0.004": 4.99926052406,
			"0.005": 4.96461094936,
			"0.006": 3.56968288933,
			"0.007": 3.89701969654,
			"0.008": 3.91222496606,
			"0.009": 2.76052536678,
			"0.01": 3.73350101131,
			"0.011": 4.14729497775,
			"0.012": 6.60695464802,
			"0.013": 6.71006060217,
			"0.014": 1.46138494163,
			"0.015": 0.823365797899,
			"0.016": 0.655476095658,
			"0.017": 0.649045138408,
			"0.018": 0.584018643674,
			"0.019": 0.748557245505,
			"0.02": 0.433079110555,
			"0.021": 0.0380667721445,
			"0.022": 0.0,
			"0.023": 0.0,
			"0.024": 0.0,
			"0.025": 0.0
		}
	}
}
