{
	 "smiles": "CC1=C(C=CC(=C1)C(O)=O)S(Cl)(=O)=O", 
	 "Tm": 471.15, 
	 "num_atms": 21, 
	 "gaussian": { 
		 "optdone": 1, 
		 "sigma_profile": "yes", 
		 "theory": "DFT", 
		 "functional": "B3LYP", 
		 "basiset": "6-31G**", 
		 "properties": { 
			 "R2extent": 5619.7461, 
			 "electric_dipole_moment_norm": 1.88512018185, 
			 "electric_quadrupole_moment_norm": 35.9289346557, 
			 "total_energy": -1468.28631601, 
			 "HOMO_LUMO_gap": 0.18555, 
			 "cosmo_polarized_energy": -17.54, 
			 "cosmo_cavitation_energy": 28.76, 
			 "cosmo_dispersion_energy": -21.58, 
			 "cosmo_repulsion_energy": 1.63, 
			 "cosmo_total_nonelectrostatic_energy": 8.82, 
			 "SMD_solvation_energy": 4.96 
		},
		"coords": [
			{
				"x": 0.8400792168,
				"y": -0.764401063,
				"z": -0.154790606,
				"element": "C" 
			},
			{
				"x": -0.4934723307,
				"y": -0.2574594638,
				"z": -0.644843927,
				"element": "C" 
			},
			{
				"x": -1.4274756429,
				"y": -1.0352113036,
				"z": -1.3602846149,
				"element": "C" 
			},
			{
				"x": -2.6463468115,
				"y": -0.5287766578,
				"z": -1.8155945745,
				"element": "C" 
			},
			{
				"x": -2.9819006046,
				"y": 0.7926594313,
				"z": -1.5372190312,
				"element": "C" 
			},
			{
				"x": -2.0914493677,
				"y": 1.5948535728,
				"z": -0.8148577679,
				"element": "C" 
			},
			{
				"x": -0.8641572448,
				"y": 1.0685051387,
				"z": -0.3979134972,
				"element": "C" 
			},
			{
				"x": -2.3679606683,
				"y": 3.0387323756,
				"z": -0.4908012727,
				"element": "C" 
			},
			{
				"x": -3.6678638159,
				"y": 3.4256964761,
				"z": -0.484296455,
				"element": "O" 
			},
			{
				"x": -1.4920355033,
				"y": 3.8327536747,
				"z": -0.2476564783,
				"element": "O" 
			},
			{
				"x": -1.1360095026,
				"y": -2.7724530874,
				"z": -1.727330747,
				"element": "S" 
			},
			{
				"x": 0.3072219136,
				"y": -2.6353899361,
				"z": -3.2934896043,
				"element": "Cl" 
			},
			{
				"x": -0.467910139,
				"y": -3.4221818773,
				"z": -0.607059738,
				"element": "O" 
			},
			{
				"x": -2.3360349375,
				"y": -3.3361817797,
				"z": -2.3322537249,
				"element": "O" 
			},
			{
				"x": 0.7121704451,
				"y": -1.5400731255,
				"z": 0.6046078991,
				"element": "H" 
			},
			{
				"x": 1.4252737341,
				"y": -1.2082320871,
				"z": -0.9654343396,
				"element": "H" 
			},
			{
				"x": 1.4158459926,
				"y": 0.0580405755,
				"z": 0.2739588447,
				"element": "H" 
			},
			{
				"x": -3.3153196839,
				"y": -1.1677605764,
				"z": -2.379421483,
				"element": "H" 
			},
			{
				"x": -3.9165903489,
				"y": 1.1890349389,
				"z": -1.9237722712,
				"element": "H" 
			},
			{
				"x": -0.1842867783,
				"y": 1.7254838406,
				"z": 0.134333109,
				"element": "H" 
			},
			{
				"x": -4.2546779221,
				"y": 2.6581609333,
				"z": -0.5305797202,
				"element": "H" 
			}
		],
		 "valence_orbital": [ 
			{
				"type": "occ",
				"energy": -0.33705,
				"method": "rhf"
			},
			{
				"type": "occ",
				"energy": -0.32401,
				"method": "rhf"
			},
			{
				"type": "occ",
				"energy": -0.30583,
				"method": "rhf"
			},
			{
				"type": "occ",
				"energy": -0.29422,
				"method": "rhf"
			},
			{
				"type": "occ",
				"energy": -0.29132,
				"method": "rhf"
			},
			{
				"type": "unocc",
				"energy": -0.10577,
				"method": "rhf"
			},
			{
				"type": "unocc",
				"energy": -0.07483,
				"method": "rhf"
			},
			{
				"type": "unocc",
				"energy": -0.05053,
				"method": "rhf"
			},
			{
				"type": "unocc",
				"energy": 0.00512,
				"method": "rhf"
			},
			{
				"type": "unocc",
				"energy": 0.03967,
				"method": "rhf"
			}
		],
		"cosmo_sigma_profile": { 
			"-0.025": 0.0,
			"-0.024": 0.0,
			"-0.023": 0.0,
			"-0.022": 0.0,
			"-0.021": 0.0,
			"-0.02": 0.1126189403,
			"-0.019": 0.725474531351,
			"-0.018": 1.18313637396,
			"-0.017": 1.19758999594,
			"-0.016": 1.19229738916,
			"-0.015": 0.711054082607,
			"-0.014": 1.1136887739,
			"-0.013": 1.11437833628,
			"-0.012": 1.38768237936,
			"-0.011": 1.69851499309,
			"-0.01": 1.19305137553,
			"-0.009": 2.4943456428,
			"-0.008": 5.65454713236,
			"-0.007": 6.39425403289,
			"-0.006": 6.92138402335,
			"-0.005": 9.81357024287,
			"-0.004": 12.6223319755,
			"-0.003": 16.9971991808,
			"-0.002": 20.5431679974,
			"-0.001": 23.1531691374,
			"0.0": 19.5685690387,
			"0.001": 11.8028001787,
			"0.002": 11.593183568,
			"0.003": 14.6827101894,
			"0.004": 7.95679980515,
			"0.005": 5.95711525401,
			"0.006": 5.19548021336,
			"0.007": 9.01121399912,
			"0.008": 11.0409801703,
			"0.009": 7.16827133778,
			"0.01": 5.02209781387,
			"0.011": 5.38815547779,
			"0.012": 2.26132008276,
			"0.013": 0.321055628132,
			"0.014": 0.0,
			"0.015": 0.0,
			"0.016": 0.0,
			"0.017": 0.0,
			"0.018": 0.0,
			"0.019": 0.0,
			"0.02": 0.0,
			"0.021": 0.0,
			"0.022": 0.0,
			"0.023": 0.0,
			"0.024": 0.0,
			"0.025": 0.0
		}
	}
}
