{
	 "smiles": "OCC1=CC2=C(S1)C=CC=C2", 
	 "Tm": 373.15, 
	 "num_atms": 19, 
	 "gaussian": { 
		 "optdone": 1, 
		 "sigma_profile": "yes", 
		 "theory": "DFT", 
		 "functional": "B3LYP", 
		 "basiset": "6-31G**", 
		 "properties": { 
			 "R2extent": 2246.5965, 
			 "electric_dipole_moment_norm": 1.11876552056, 
			 "electric_quadrupole_moment_norm": 5.91265111181, 
			 "total_energy": -821.180708815, 
			 "HOMO_LUMO_gap": 0.19072, 
			 "cosmo_polarized_energy": -8.31, 
			 "cosmo_cavitation_energy": 24.26, 
			 "cosmo_dispersion_energy": -18.66, 
			 "cosmo_repulsion_energy": 1.44, 
			 "cosmo_total_nonelectrostatic_energy": 7.05, 
			 "SMD_solvation_energy": 3.55 
		},
		"coords": [
			{
				"x": -2.0842830828,
				"y": 2.6523354946,
				"z": 2.7165761845,
				"element": "O" 
			},
			{
				"x": -1.8504543839,
				"y": 1.2576040399,
				"z": 2.7987185644,
				"element": "C" 
			},
			{
				"x": -0.9680927616,
				"y": 0.7555866996,
				"z": 1.683739232,
				"element": "C" 
			},
			{
				"x": -0.1357586253,
				"y": 1.4923423289,
				"z": 0.9004493472,
				"element": "C" 
			},
			{
				"x": 0.584579314,
				"y": 0.7092918995,
				"z": -0.0711619076,
				"element": "C" 
			},
			{
				"x": 0.2608650888,
				"y": -0.6677503686,
				"z": 0.011630773,
				"element": "C" 
			},
			{
				"x": -0.9280353357,
				"y": -0.9599895071,
				"z": 1.2750531467,
				"element": "S" 
			},
			{
				"x": 0.8458785986,
				"y": -1.6141778667,
				"z": -0.8343380134,
				"element": "C" 
			},
			{
				"x": 1.768255538,
				"y": -1.1739698393,
				"z": -1.7789709835,
				"element": "C" 
			},
			{
				"x": 2.1031813412,
				"y": 0.1881860339,
				"z": -1.8776870643,
				"element": "C" 
			},
			{
				"x": 1.5205292833,
				"y": 1.1262091375,
				"z": -1.0353567118,
				"element": "C" 
			},
			{
				"x": -2.5177020384,
				"y": 2.8223488751,
				"z": 1.869187145,
				"element": "H" 
			},
			{
				"x": -1.3633847358,
				"y": 1.096650202,
				"z": 3.768028734,
				"element": "H" 
			},
			{
				"x": -2.7915064423,
				"y": 0.6843847281,
				"z": 2.8198224634,
				"element": "H" 
			},
			{
				"x": -0.0272084239,
				"y": 2.5645526247,
				"z": 1.0160416175,
				"element": "H" 
			},
			{
				"x": 0.5883274376,
				"y": -2.6661686205,
				"z": -0.7584581029,
				"element": "H" 
			},
			{
				"x": 2.2338829351,
				"y": -1.8928233956,
				"z": -2.446635503,
				"element": "H" 
			},
			{
				"x": 2.8265170352,
				"y": 0.5087299417,
				"z": -2.6216370104,
				"element": "H" 
			},
			{
				"x": 1.783709258,
				"y": 2.1774575923,
				"z": -1.1135019108,
				"element": "H" 
			}
		],
		 "valence_orbital": [ 
			{
				"type": "occ",
				"energy": -0.32226,
				"method": "rhf"
			},
			{
				"type": "occ",
				"energy": -0.28625,
				"method": "rhf"
			},
			{
				"type": "occ",
				"energy": -0.28123,
				"method": "rhf"
			},
			{
				"type": "occ",
				"energy": -0.23214,
				"method": "rhf"
			},
			{
				"type": "occ",
				"energy": -0.21666,
				"method": "rhf"
			},
			{
				"type": "unocc",
				"energy": -0.02594,
				"method": "rhf"
			},
			{
				"type": "unocc",
				"energy": -0.00135,
				"method": "rhf"
			},
			{
				"type": "unocc",
				"energy": 0.0173,
				"method": "rhf"
			},
			{
				"type": "unocc",
				"energy": 0.04805,
				"method": "rhf"
			},
			{
				"type": "unocc",
				"energy": 0.07319,
				"method": "rhf"
			}
		],
		"cosmo_sigma_profile": { 
			"-0.025": 0.0,
			"-0.024": 0.0,
			"-0.023": 0.0,
			"-0.022": 0.0,
			"-0.021": 0.0,
			"-0.02": 0.0,
			"-0.019": 0.0,
			"-0.018": 0.0,
			"-0.017": 0.0,
			"-0.016": 0.349470636664,
			"-0.015": 1.13016986254,
			"-0.014": 1.04920167393,
			"-0.013": 0.176757801043,
			"-0.012": 0.920419101278,
			"-0.011": 1.11462146402,
			"-0.01": 0.532232041009,
			"-0.009": 0.99538757757,
			"-0.008": 0.770923289834,
			"-0.007": 2.63205327193,
			"-0.006": 12.3225298187,
			"-0.005": 17.9827146481,
			"-0.004": 17.3063401414,
			"-0.003": 13.6955505572,
			"-0.002": 11.106172445,
			"-0.001": 9.87923954543,
			"0.0": 8.40938492496,
			"0.001": 9.62666794085,
			"0.002": 13.9194483749,
			"0.003": 18.3276666668,
			"0.004": 20.2941818939,
			"0.005": 16.1387935084,
			"0.006": 7.06269488655,
			"0.007": 0.618950932191,
			"0.008": 1.34103624611,
			"0.009": 1.06553211789,
			"0.01": 1.12341077329,
			"0.011": 1.56854921179,
			"0.012": 1.15082942461,
			"0.013": 2.20425303834,
			"0.014": 0.94159357384,
			"0.015": 0.0,
			"0.016": 0.0,
			"0.017": 0.0,
			"0.018": 0.0,
			"0.019": 0.0,
			"0.02": 0.0,
			"0.021": 0.0,
			"0.022": 0.0,
			"0.023": 0.0,
			"0.024": 0.0,
			"0.025": 0.0
		}
	}
}
