{
	 "smiles": "CC(=O)NC1=CC=C(O)C=C1", 
	 "Tm": 442.15, 
	 "num_atms": 20, 
	 "gaussian": { 
		 "optdone": 1, 
		 "sigma_profile": "yes", 
		 "theory": "DFT", 
		 "functional": "B3LYP", 
		 "basiset": "6-31G**", 
		 "properties": { 
			 "R2extent": 2628.769, 
			 "electric_dipole_moment_norm": 2.0533720827, 
			 "electric_quadrupole_moment_norm": 18.5560930282, 
			 "total_energy": -515.490159243, 
			 "HOMO_LUMO_gap": 0.19834, 
			 "cosmo_polarized_energy": -16.26, 
			 "cosmo_cavitation_energy": 24.17, 
			 "cosmo_dispersion_energy": -18.11, 
			 "cosmo_repulsion_energy": 1.46, 
			 "cosmo_total_nonelectrostatic_energy": 7.51, 
			 "SMD_solvation_energy": 5.3 
		},
		"coords": [
			{
				"x": -3.1715904205,
				"y": -2.4536831287,
				"z": 0.0324959545,
				"element": "C" 
			},
			{
				"x": -2.0512170695,
				"y": -1.4628512115,
				"z": -0.2558379086,
				"element": "C" 
			},
			{
				"x": -2.2916558109,
				"y": -0.3155972964,
				"z": -0.6088677605,
				"element": "O" 
			},
			{
				"x": -0.7838973731,
				"y": -1.9693656809,
				"z": -0.0851359933,
				"element": "N" 
			},
			{
				"x": 0.4611208889,
				"y": -1.3224682099,
				"z": -0.2668799312,
				"element": "C" 
			},
			{
				"x": 1.6240764292,
				"y": -2.0710171665,
				"z": -0.0246445264,
				"element": "C" 
			},
			{
				"x": 2.8854517138,
				"y": -1.5093315668,
				"z": -0.1801583272,
				"element": "C" 
			},
			{
				"x": 3.0078872645,
				"y": -0.176113358,
				"z": -0.5846564105,
				"element": "C" 
			},
			{
				"x": 4.2716488103,
				"y": 0.3306461974,
				"z": -0.7234487663,
				"element": "O" 
			},
			{
				"x": 1.854322438,
				"y": 0.5737029713,
				"z": -0.8271964744,
				"element": "C" 
			},
			{
				"x": 0.5862593409,
				"y": 0.0135557755,
				"z": -0.6721904907,
				"element": "C" 
			},
			{
				"x": -2.8293888028,
				"y": -3.4469265889,
				"z": 0.3368794162,
				"element": "H" 
			},
			{
				"x": -3.7893723645,
				"y": -2.5516681367,
				"z": -0.8643261054,
				"element": "H" 
			},
			{
				"x": -3.8071713563,
				"y": -2.0414643785,
				"z": 0.8209976244,
				"element": "H" 
			},
			{
				"x": -0.7228453987,
				"y": -2.9325871259,
				"z": 0.2094209235,
				"element": "H" 
			},
			{
				"x": 1.5414350839,
				"y": -3.1092043881,
				"z": 0.2904182598,
				"element": "H" 
			},
			{
				"x": 3.7826967044,
				"y": -2.0894174021,
				"z": 0.0074941002,
				"element": "H" 
			},
			{
				"x": 4.2107885252,
				"y": 1.2524905443,
				"z": -1.0049694554,
				"element": "H" 
			},
			{
				"x": 1.9390912621,
				"y": 1.6119357526,
				"z": -1.1423153154,
				"element": "H" 
			},
			{
				"x": -0.3045398649,
				"y": 0.5955643977,
				"z": -0.8604788133,
				"element": "H" 
			}
		],
		 "valence_orbital": [ 
			{
				"type": "occ",
				"energy": -0.33734,
				"method": "rhf"
			},
			{
				"type": "occ",
				"energy": -0.2848,
				"method": "rhf"
			},
			{
				"type": "occ",
				"energy": -0.25246,
				"method": "rhf"
			},
			{
				"type": "occ",
				"energy": -0.2491,
				"method": "rhf"
			},
			{
				"type": "occ",
				"energy": -0.20121,
				"method": "rhf"
			},
			{
				"type": "unocc",
				"energy": -0.00287,
				"method": "rhf"
			},
			{
				"type": "unocc",
				"energy": -0.0017,
				"method": "rhf"
			},
			{
				"type": "unocc",
				"energy": 0.05445,
				"method": "rhf"
			},
			{
				"type": "unocc",
				"energy": 0.06281,
				"method": "rhf"
			},
			{
				"type": "unocc",
				"energy": 0.07528,
				"method": "rhf"
			}
		],
		"cosmo_sigma_profile": { 
			"-0.025": 0.0,
			"-0.024": 0.0,
			"-0.023": 0.0,
			"-0.022": 0.0,
			"-0.021": 0.0,
			"-0.02": 0.0,
			"-0.019": 0.0,
			"-0.018": 0.340937146848,
			"-0.017": 0.93865982822,
			"-0.016": 1.0331411125,
			"-0.015": 2.26207745513,
			"-0.014": 1.64781954154,
			"-0.013": 2.60914892748,
			"-0.012": 2.17298692952,
			"-0.011": 1.81212196389,
			"-0.01": 3.22782665911,
			"-0.009": 3.51780836576,
			"-0.008": 2.83420041711,
			"-0.007": 3.70728813765,
			"-0.006": 7.84358726805,
			"-0.005": 10.6481572606,
			"-0.004": 11.1623410694,
			"-0.003": 13.2821056602,
			"-0.002": 13.5083602926,
			"-0.001": 11.1506750725,
			"0.0": 7.39713900663,
			"0.001": 6.89311469573,
			"0.002": 10.5329024117,
			"0.003": 11.7352057843,
			"0.004": 14.845589069,
			"0.005": 14.4835297094,
			"0.006": 6.8561435025,
			"0.007": 3.79246895419,
			"0.008": 2.40523665785,
			"0.009": 3.12335844117,
			"0.01": 2.94164877668,
			"0.011": 3.70367234016,
			"0.012": 3.38958053056,
			"0.013": 3.13045650959,
			"0.014": 2.58930148041,
			"0.015": 0.586242393041,
			"0.016": 0.0,
			"0.017": 0.0,
			"0.018": 0.0,
			"0.019": 0.0,
			"0.02": 0.0,
			"0.021": 0.0,
			"0.022": 0.0,
			"0.023": 0.0,
			"0.024": 0.0,
			"0.025": 0.0
		}
	}
}
