{
	 "smiles": "[O-][N+](=O)C1=CN(CCCl)N=C1", 
	 "Tm": 329.15, 
	 "num_atms": 17, 
	 "gaussian": { 
		 "optdone": 1, 
		 "sigma_profile": "yes", 
		 "theory": "DFT", 
		 "functional": "B3LYP", 
		 "basiset": "6-31G**", 
		 "properties": { 
			 "R2extent": 3447.1259, 
			 "electric_dipole_moment_norm": 3.15732397134, 
			 "electric_quadrupole_moment_norm": 17.0247405872, 
			 "total_energy": -968.916949844, 
			 "HOMO_LUMO_gap": 0.20408, 
			 "cosmo_polarized_energy": -13.92, 
			 "cosmo_cavitation_energy": 24.46, 
			 "cosmo_dispersion_energy": -17.81, 
			 "cosmo_repulsion_energy": 1.46, 
			 "cosmo_total_nonelectrostatic_energy": 8.11, 
			 "SMD_solvation_energy": 5.75 
		},
		"coords": [
			{
				"x": -3.3004334409,
				"y": -0.1413194104,
				"z": 1.9843311502,
				"element": "O" 
			},
			{
				"x": -2.6616373432,
				"y": 0.7721180737,
				"z": 1.4544383877,
				"element": "N" 
			},
			{
				"x": -2.6926683841,
				"y": 1.9565834365,
				"z": 1.7933332116,
				"element": "O" 
			},
			{
				"x": -1.8122756867,
				"y": 0.4287482781,
				"z": 0.3558010967,
				"element": "C" 
			},
			{
				"x": -1.6395109729,
				"y": -0.8384393566,
				"z": -0.1756464085,
				"element": "C" 
			},
			{
				"x": -0.7659137363,
				"y": -0.6837895306,
				"z": -1.1929353748,
				"element": "N" 
			},
			{
				"x": -0.2087540935,
				"y": -1.7095149271,
				"z": -2.0661084425,
				"element": "C" 
			},
			{
				"x": 1.2674864855,
				"y": -1.9459462436,
				"z": -1.7439076218,
				"element": "C" 
			},
			{
				"x": 1.9381061859,
				"y": -3.2099981107,
				"z": -2.846103884,
				"element": "Cl" 
			},
			{
				"x": -0.3563833026,
				"y": 0.607288174,
				"z": -1.348270998,
				"element": "N" 
			},
			{
				"x": -0.9938717666,
				"y": 1.2897914441,
				"z": -0.4069635365,
				"element": "C" 
			},
			{
				"x": -2.0766678008,
				"y": -1.7854083474,
				"z": 0.1000820033,
				"element": "H" 
			},
			{
				"x": -0.7874404077,
				"y": -2.6249842416,
				"z": -1.9268816203,
				"element": "H" 
			},
			{
				"x": -0.3211494848,
				"y": -1.3791596975,
				"z": -3.1011950091,
				"element": "H" 
			},
			{
				"x": 1.3999908751,
				"y": -2.3006029553,
				"z": -0.7206385292,
				"element": "H" 
			},
			{
				"x": 1.8447453868,
				"y": -1.0338135444,
				"z": -1.8931173759,
				"element": "H" 
			},
			{
				"x": -0.8634225132,
				"y": 2.3561469591,
				"z": -0.2975170488,
				"element": "H" 
			}
		],
		 "valence_orbital": [ 
			{
				"type": "occ",
				"energy": -0.31053,
				"method": "rhf"
			},
			{
				"type": "occ",
				"energy": -0.30616,
				"method": "rhf"
			},
			{
				"type": "occ",
				"energy": -0.2947,
				"method": "rhf"
			},
			{
				"type": "occ",
				"energy": -0.29164,
				"method": "rhf"
			},
			{
				"type": "occ",
				"energy": -0.28838,
				"method": "rhf"
			},
			{
				"type": "unocc",
				"energy": -0.0843,
				"method": "rhf"
			},
			{
				"type": "unocc",
				"energy": -0.02255,
				"method": "rhf"
			},
			{
				"type": "unocc",
				"energy": 0.00681,
				"method": "rhf"
			},
			{
				"type": "unocc",
				"energy": 0.06206,
				"method": "rhf"
			},
			{
				"type": "unocc",
				"energy": 0.07239,
				"method": "rhf"
			}
		],
		"cosmo_sigma_profile": { 
			"-0.025": 0.0,
			"-0.024": 0.0,
			"-0.023": 0.0,
			"-0.022": 0.0,
			"-0.021": 0.0,
			"-0.02": 0.0,
			"-0.019": 0.0,
			"-0.018": 0.0,
			"-0.017": 0.0,
			"-0.016": 0.0,
			"-0.015": 0.0,
			"-0.014": 0.0,
			"-0.013": 0.0,
			"-0.012": 1.84225479484,
			"-0.011": 2.52129245923,
			"-0.01": 3.00654922254,
			"-0.009": 4.56130975346,
			"-0.008": 8.30553675581,
			"-0.007": 10.4996321227,
			"-0.006": 9.79158034392,
			"-0.005": 11.6467037378,
			"-0.004": 11.1313852798,
			"-0.003": 9.04818659247,
			"-0.002": 13.4995730235,
			"-0.001": 12.988823814,
			"0.0": 10.5040925072,
			"0.001": 8.00413576478,
			"0.002": 8.33607781294,
			"0.003": 8.15605964312,
			"0.004": 8.01248051361,
			"0.005": 12.7290062078,
			"0.006": 10.9744997163,
			"0.007": 6.25852656459,
			"0.008": 12.4067869785,
			"0.009": 6.26818899656,
			"0.01": 4.07342078951,
			"0.011": 1.54868166206,
			"0.012": 0.835629306202,
			"0.013": 0.652190562955,
			"0.014": 0.0779053989582,
			"0.015": 0.0,
			"0.016": 0.0,
			"0.017": 0.0,
			"0.018": 0.0,
			"0.019": 0.0,
			"0.02": 0.0,
			"0.021": 0.0,
			"0.022": 0.0,
			"0.023": 0.0,
			"0.024": 0.0,
			"0.025": 0.0
		}
	}
}
