{
	 "smiles": "CC1=CC(C)=C(C=C1)C(=O)CC#N", 
	 "Tm": 352.15, 
	 "num_atms": 24, 
	 "gaussian": { 
		 "optdone": 1, 
		 "sigma_profile": "yes", 
		 "theory": "DFT", 
		 "functional": "B3LYP", 
		 "basiset": "6-31G**", 
		 "properties": { 
			 "R2extent": 2968.4054, 
			 "electric_dipole_moment_norm": 4.33698884712, 
			 "electric_quadrupole_moment_norm": 11.4389983919, 
			 "total_energy": -555.766283703, 
			 "HOMO_LUMO_gap": 0.18622, 
			 "cosmo_polarized_energy": -12.01, 
			 "cosmo_cavitation_energy": 28.48, 
			 "cosmo_dispersion_energy": -19.89, 
			 "cosmo_repulsion_energy": 1.58, 
			 "cosmo_total_nonelectrostatic_energy": 10.16, 
			 "SMD_solvation_energy": 6.75 
		},
		"coords": [
			{
				"x": -2.9725795421,
				"y": 0.7071394004,
				"z": -1.8987396101,
				"element": "C" 
			},
			{
				"x": -1.7100171543,
				"y": 0.7822199263,
				"z": -1.0768926432,
				"element": "C" 
			},
			{
				"x": -1.745051775,
				"y": 0.6203611326,
				"z": 0.3127093745,
				"element": "C" 
			},
			{
				"x": -0.6083033125,
				"y": 0.7079605103,
				"z": 1.1231743494,
				"element": "C" 
			},
			{
				"x": -0.7729951639,
				"y": 0.5132184125,
				"z": 2.6106409623,
				"element": "C" 
			},
			{
				"x": 0.640419202,
				"y": 0.9695136227,
				"z": 0.4938981932,
				"element": "C" 
			},
			{
				"x": 0.6762918429,
				"y": 1.1261659976,
				"z": -0.9052064253,
				"element": "C" 
			},
			{
				"x": -0.471639945,
				"y": 1.0356372989,
				"z": -1.6795662649,
				"element": "C" 
			},
			{
				"x": 1.889535301,
				"y": 1.088898609,
				"z": 1.2856220349,
				"element": "C" 
			},
			{
				"x": 1.9299822074,
				"y": 1.0439802119,
				"z": 2.5039546669,
				"element": "O" 
			},
			{
				"x": 3.2420413867,
				"y": 1.3257397844,
				"z": 0.5485399156,
				"element": "C" 
			},
			{
				"x": 3.6667844784,
				"y": 0.2120892575,
				"z": -0.2980080389,
				"element": "C" 
			},
			{
				"x": 3.9980711414,
				"y": -0.6792556106,
				"z": -0.9641859436,
				"element": "N" 
			},
			{
				"x": -2.7856696867,
				"y": 0.253677636,
				"z": -2.8767848788,
				"element": "H" 
			},
			{
				"x": -3.3804470504,
				"y": 1.7097512518,
				"z": -2.0788022741,
				"element": "H" 
			},
			{
				"x": -3.747347931,
				"y": 0.124845076,
				"z": -1.3925176572,
				"element": "H" 
			},
			{
				"x": -2.7004150617,
				"y": 0.4140989382,
				"z": 0.7895175534,
				"element": "H" 
			},
			{
				"x": -0.1409999411,
				"y": -0.2967771348,
				"z": 2.9846309024,
				"element": "H" 
			},
			{
				"x": -1.8164154489,
				"y": 0.2845762805,
				"z": 2.8447046802,
				"element": "H" 
			},
			{
				"x": -0.472428246,
				"y": 1.404130912,
				"z": 3.1686970374,
				"element": "H" 
			},
			{
				"x": 1.6186295579,
				"y": 1.3095804915,
				"z": -1.4082084719,
				"element": "H" 
			},
			{
				"x": -0.4059498196,
				"y": 1.1561353137,
				"z": -2.7572926677,
				"element": "H" 
			},
			{
				"x": 3.1923655912,
				"y": 2.237546996,
				"z": -0.0579436515,
				"element": "H" 
			},
			{
				"x": 3.9834393693,
				"y": 1.4829656856,
				"z": 1.3357588571,
				"element": "H" 
			}
		],
		 "valence_orbital": [ 
			{
				"type": "occ",
				"energy": -0.33647,
				"method": "rhf"
			},
			{
				"type": "occ",
				"energy": -0.32721,
				"method": "rhf"
			},
			{
				"type": "occ",
				"energy": -0.2628,
				"method": "rhf"
			},
			{
				"type": "occ",
				"energy": -0.26128,
				"method": "rhf"
			},
			{
				"type": "occ",
				"energy": -0.25526,
				"method": "rhf"
			},
			{
				"type": "unocc",
				"energy": -0.06904,
				"method": "rhf"
			},
			{
				"type": "unocc",
				"energy": -0.01484,
				"method": "rhf"
			},
			{
				"type": "unocc",
				"energy": 0.01801,
				"method": "rhf"
			},
			{
				"type": "unocc",
				"energy": 0.03359,
				"method": "rhf"
			},
			{
				"type": "unocc",
				"energy": 0.04321,
				"method": "rhf"
			}
		],
		"cosmo_sigma_profile": { 
			"-0.025": 0.0,
			"-0.024": 0.0,
			"-0.023": 0.0,
			"-0.022": 0.0,
			"-0.021": 0.0,
			"-0.02": 0.0,
			"-0.019": 0.0,
			"-0.018": 0.0,
			"-0.017": 0.0,
			"-0.016": 0.0,
			"-0.015": 0.0,
			"-0.014": 0.0,
			"-0.013": 0.0,
			"-0.012": 0.0,
			"-0.011": 0.777043445336,
			"-0.01": 2.75617654847,
			"-0.009": 4.93138080381,
			"-0.008": 4.4187952581,
			"-0.007": 4.88381546212,
			"-0.006": 8.45246753273,
			"-0.005": 14.698110794,
			"-0.004": 18.6605183848,
			"-0.003": 17.3312367343,
			"-0.002": 17.9756835009,
			"-0.001": 20.7258490128,
			"0.0": 22.8631326762,
			"0.001": 14.4915505818,
			"0.002": 12.1149806051,
			"0.003": 13.1173150759,
			"0.004": 11.7046902275,
			"0.005": 3.92704453997,
			"0.006": 3.03763073149,
			"0.007": 4.48954414471,
			"0.008": 5.22045521205,
			"0.009": 5.02541986959,
			"0.01": 5.04462762498,
			"0.011": 5.35908885097,
			"0.012": 3.58559629417,
			"0.013": 1.52290708543,
			"0.014": 0.0542776478184,
			"0.015": 0.0,
			"0.016": 0.0,
			"0.017": 0.0,
			"0.018": 0.0,
			"0.019": 0.0,
			"0.02": 0.0,
			"0.021": 0.0,
			"0.022": 0.0,
			"0.023": 0.0,
			"0.024": 0.0,
			"0.025": 0.0
		}
	}
}
