{
	 "smiles": "OC(=O)CCCCCCCCCCCCCC(O)=O", 
	 "Tm": 386.65, 
	 "num_atms": 47, 
	 "gaussian": { 
		 "optdone": 1, 
		 "sigma_profile": "yes", 
		 "theory": "DFT", 
		 "functional": "B3LYP", 
		 "basiset": "6-31G**", 
		 "properties": { 
			 "R2extent": 7230.7579, 
			 "electric_dipole_moment_norm": 0.68989357875, 
			 "electric_quadrupole_moment_norm": 21.6357958033, 
			 "total_energy": -889.429863476, 
			 "HOMO_LUMO_gap": 0.27535, 
			 "cosmo_polarized_energy": -14.76, 
			 "cosmo_cavitation_energy": 47.03, 
			 "cosmo_dispersion_energy": -29.27, 
			 "cosmo_repulsion_energy": 2.31, 
			 "cosmo_total_nonelectrostatic_energy": 20.08, 
			 "SMD_solvation_energy": 8.34 
		},
		"coords": [
			{
				"x": -1.8115668417,
				"y": 0.1862321104,
				"z": -2.946297621,
				"element": "O" 
			},
			{
				"x": -0.9069126953,
				"y": 0.705426137,
				"z": -3.8242418902,
				"element": "C" 
			},
			{
				"x": -0.8597706714,
				"y": 0.3428323759,
				"z": -4.9783569373,
				"element": "O" 
			},
			{
				"x": -0.0270699793,
				"y": 1.7476955438,
				"z": -3.172355861,
				"element": "C" 
			},
			{
				"x": 0.7572111952,
				"y": 1.2108495247,
				"z": -1.9593921363,
				"element": "C" 
			},
			{
				"x": 1.8171969369,
				"y": 0.1532888757,
				"z": -2.304482463,
				"element": "C" 
			},
			{
				"x": 2.4655535098,
				"y": -0.4880469021,
				"z": -1.0622375816,
				"element": "C" 
			},
			{
				"x": 1.5780627038,
				"y": -1.5443111523,
				"z": -0.3829769837,
				"element": "C" 
			},
			{
				"x": 2.1313517496,
				"y": -2.1142516389,
				"z": 0.9355030283,
				"element": "C" 
			},
			{
				"x": 2.1347620205,
				"y": -1.1741867825,
				"z": 2.1590622169,
				"element": "C" 
			},
			{
				"x": 0.7423694737,
				"y": -0.641782122,
				"z": 2.5767090012,
				"element": "C" 
			},
			{
				"x": 0.4460466756,
				"y": 0.7764283623,
				"z": 2.0609878571,
				"element": "C" 
			},
			{
				"x": -0.9937908816,
				"y": 1.2771142743,
				"z": 2.2569396803,
				"element": "C" 
			},
			{
				"x": -2.0560013737,
				"y": 0.4413728078,
				"z": 1.5136759235,
				"element": "C" 
			},
			{
				"x": -3.4039562773,
				"y": 1.1525182434,
				"z": 1.2686323149,
				"element": "C" 
			},
			{
				"x": -3.452397162,
				"y": 2.0175705039,
				"z": -0.0029900281,
				"element": "C" 
			},
			{
				"x": -2.795907305,
				"y": 3.3754546197,
				"z": 0.1199631938,
				"element": "C" 
			},
			{
				"x": -2.3570205184,
				"y": 3.8361044616,
				"z": -1.0823890894,
				"element": "O" 
			},
			{
				"x": -2.6920104448,
				"y": 4.0348742534,
				"z": 1.1316481819,
				"element": "O" 
			},
			{
				"x": -2.3257824694,
				"y": -0.4662232374,
				"z": -3.4507403507,
				"element": "H" 
			},
			{
				"x": 0.6437566961,
				"y": 2.1313433662,
				"z": -3.9453127532,
				"element": "H" 
			},
			{
				"x": -0.6792089724,
				"y": 2.5644932572,
				"z": -2.8400744103,
				"element": "H" 
			},
			{
				"x": 1.2463715819,
				"y": 2.0590055803,
				"z": -1.4645564587,
				"element": "H" 
			},
			{
				"x": 0.0385201064,
				"y": 0.8063211437,
				"z": -1.2404530776,
				"element": "H" 
			},
			{
				"x": 2.5913549987,
				"y": 0.6220854229,
				"z": -2.9256753963,
				"element": "H" 
			},
			{
				"x": 1.3709034173,
				"y": -0.6361087789,
				"z": -2.9254986904,
				"element": "H" 
			},
			{
				"x": 2.733484965,
				"y": 0.3033669674,
				"z": -0.3492385716,
				"element": "H" 
			},
			{
				"x": 3.4117236332,
				"y": -0.9637389115,
				"z": -1.3515999533,
				"element": "H" 
			},
			{
				"x": 1.4413198335,
				"y": -2.3753478403,
				"z": -1.0883188404,
				"element": "H" 
			},
			{
				"x": 0.5732776524,
				"y": -1.1399249304,
				"z": -0.2105194902,
				"element": "H" 
			},
			{
				"x": 1.541316544,
				"y": -3.0032981214,
				"z": 1.1969408628,
				"element": "H" 
			},
			{
				"x": 3.1556350823,
				"y": -2.4743815166,
				"z": 0.7650054424,
				"element": "H" 
			},
			{
				"x": 2.8111212878,
				"y": -0.3266191425,
				"z": 1.9844826449,
				"element": "H" 
			},
			{
				"x": 2.5764691534,
				"y": -1.7328453315,
				"z": 2.9932750743,
				"element": "H" 
			},
			{
				"x": -0.0276765095,
				"y": -1.3413165965,
				"z": 2.2259190759,
				"element": "H" 
			},
			{
				"x": 0.6597690331,
				"y": -0.635504329,
				"z": 3.6713824726,
				"element": "H" 
			},
			{
				"x": 0.6851035603,
				"y": 0.8309487825,
				"z": 0.9924583077,
				"element": "H" 
			},
			{
				"x": 1.1366694583,
				"y": 1.4741603527,
				"z": 2.554016052,
				"element": "H" 
			},
			{
				"x": -1.2430184536,
				"y": 1.2992755903,
				"z": 3.3270621684,
				"element": "H" 
			},
			{
				"x": -1.0427032308,
				"y": 2.3186818188,
				"z": 1.9249864597,
				"element": "H" 
			},
			{
				"x": -1.6563162686,
				"y": 0.1135189505,
				"z": 0.5430217199,
				"element": "H" 
			},
			{
				"x": -2.2459222317,
				"y": -0.479001417,
				"z": 2.0785363312,
				"element": "H" 
			},
			{
				"x": -3.6727185581,
				"y": 1.7709340555,
				"z": 2.1326758311,
				"element": "H" 
			},
			{
				"x": -4.1886721622,
				"y": 0.3938201589,
				"z": 1.1700230747,
				"element": "H" 
			},
			{
				"x": -3.0308372694,
				"y": 1.4902545018,
				"z": -0.8647690466,
				"element": "H" 
			},
			{
				"x": -4.4993791403,
				"y": 2.2320134801,
				"z": -0.2609987652,
				"element": "H" 
			},
			{
				"x": -2.0085118525,
				"y": 4.7281032283,
				"z": -0.9130305195,
				"element": "H" 
			}
		],
		 "valence_orbital": [ 
			{
				"type": "occ",
				"energy": -0.30371,
				"method": "rhf"
			},
			{
				"type": "occ",
				"energy": -0.30257,
				"method": "rhf"
			},
			{
				"type": "occ",
				"energy": -0.29606,
				"method": "rhf"
			},
			{
				"type": "occ",
				"energy": -0.27677,
				"method": "rhf"
			},
			{
				"type": "occ",
				"energy": -0.27068,
				"method": "rhf"
			},
			{
				"type": "unocc",
				"energy": 0.00467,
				"method": "rhf"
			},
			{
				"type": "unocc",
				"energy": 0.00877,
				"method": "rhf"
			},
			{
				"type": "unocc",
				"energy": 0.05851,
				"method": "rhf"
			},
			{
				"type": "unocc",
				"energy": 0.0725,
				"method": "rhf"
			},
			{
				"type": "unocc",
				"energy": 0.08108,
				"method": "rhf"
			}
		],
		"cosmo_sigma_profile": { 
			"-0.025": 0.0,
			"-0.024": 0.0,
			"-0.023": 0.0,
			"-0.022": 0.0,
			"-0.021": 0.0,
			"-0.02": 0.0,
			"-0.019": 0.0,
			"-0.018": 0.771330253643,
			"-0.017": 1.87860178752,
			"-0.016": 1.90834080503,
			"-0.015": 1.84357805865,
			"-0.014": 0.73317919195,
			"-0.013": 0.842970168608,
			"-0.012": 1.47470421482,
			"-0.011": 1.87461278983,
			"-0.01": 2.0329119439,
			"-0.009": 1.15519805664,
			"-0.008": 0.711199975317,
			"-0.007": 2.25232694317,
			"-0.006": 4.77531665901,
			"-0.005": 5.18203326734,
			"-0.004": 7.39362600127,
			"-0.003": 19.890749608,
			"-0.002": 48.2887194881,
			"-0.001": 67.9240452099,
			"0.0": 65.230825562,
			"0.001": 46.9099615716,
			"0.002": 23.445671841,
			"0.003": 8.78560029715,
			"0.004": 5.75737934564,
			"0.005": 4.14051921259,
			"0.006": 4.60365347611,
			"0.007": 4.20108605249,
			"0.008": 3.29474723991,
			"0.009": 3.98978946064,
			"0.01": 3.28535643244,
			"0.011": 6.46351323208,
			"0.012": 9.23051179031,
			"0.013": 2.18824260333,
			"0.014": 0.0278785629821,
			"0.015": 0.0,
			"0.016": 0.0,
			"0.017": 0.0,
			"0.018": 0.0,
			"0.019": 0.0,
			"0.02": 0.0,
			"0.021": 0.0,
			"0.022": 0.0,
			"0.023": 0.0,
			"0.024": 0.0,
			"0.025": 0.0
		}
	}
}
