{
	 "smiles": "CC1(CCC2C(C1)=CCC1C2(C)CCCC1(C)C(O)=O)C=C", 
	 "Tm": 433.15, 
	 "num_atms": 52, 
	 "gaussian": { 
		 "optdone": 1, 
		 "sigma_profile": "yes", 
		 "theory": "DFT", 
		 "functional": "B3LYP", 
		 "basiset": "6-31G**", 
		 "properties": { 
			 "R2extent": 8135.7624, 
			 "electric_dipole_moment_norm": 1.64225570786, 
			 "electric_quadrupole_moment_norm": 7.58101846852, 
			 "total_energy": -930.653998716, 
			 "HOMO_LUMO_gap": 0.2365, 
			 "cosmo_polarized_energy": -9.4, 
			 "cosmo_cavitation_energy": 45.34, 
			 "cosmo_dispersion_energy": -31.5, 
			 "cosmo_repulsion_energy": 2.32, 
			 "cosmo_total_nonelectrostatic_energy": 16.15, 
			 "SMD_solvation_energy": 8.1 
		},
		"coords": [
			{
				"x": -0.5917002132,
				"y": 3.914718302,
				"z": -1.6981804763,
				"element": "C" 
			},
			{
				"x": -0.1347296433,
				"y": 2.8563935872,
				"z": -2.7294745665,
				"element": "C" 
			},
			{
				"x": 1.3786777735,
				"y": 2.5802412649,
				"z": -2.6178059663,
				"element": "C" 
			},
			{
				"x": 1.7793400874,
				"y": 1.94494238,
				"z": -1.2789328135,
				"element": "C" 
			},
			{
				"x": 1.0297459867,
				"y": 0.6163601873,
				"z": -0.9932851471,
				"element": "C" 
			},
			{
				"x": -0.46301303,
				"y": 0.8128387202,
				"z": -1.190713582,
				"element": "C" 
			},
			{
				"x": -0.8756693669,
				"y": 1.5134443104,
				"z": -2.467216069,
				"element": "C" 
			},
			{
				"x": -1.3696927692,
				"y": 0.3165853439,
				"z": -0.3425009901,
				"element": "C" 
			},
			{
				"x": -1.0342462643,
				"y": -0.5459523058,
				"z": 0.8405326353,
				"element": "C" 
			},
			{
				"x": 0.3865078046,
				"y": -1.146853792,
				"z": 0.7445910939,
				"element": "C" 
			},
			{
				"x": 1.4318207429,
				"y": -0.0490478994,
				"z": 0.3732946129,
				"element": "C" 
			},
			{
				"x": 2.8278739147,
				"y": -0.6801366683,
				"z": 0.1463460284,
				"element": "C" 
			},
			{
				"x": 1.4926967719,
				"y": 0.994837271,
				"z": 1.5315329398,
				"element": "C" 
			},
			{
				"x": 1.235702784,
				"y": 0.4083154284,
				"z": 2.9434226111,
				"element": "C" 
			},
			{
				"x": 1.5732183902,
				"y": -1.0820628077,
				"z": 3.0653802099,
				"element": "C" 
			},
			{
				"x": 0.8121700413,
				"y": -1.9630123785,
				"z": 2.0229480272,
				"element": "C" 
			},
			{
				"x": -0.4075889395,
				"y": -2.6324301675,
				"z": 2.7185171802,
				"element": "C" 
			},
			{
				"x": 1.6561576425,
				"y": -3.1667528326,
				"z": 1.5806540815,
				"element": "C" 
			},
			{
				"x": 2.5030748429,
				"y": -3.5995413528,
				"z": 2.5503657617,
				"element": "O" 
			},
			{
				"x": 1.5572901343,
				"y": -3.7571521748,
				"z": 0.5250738375,
				"element": "O" 
			},
			{
				"x": -0.5329781443,
				"y": 3.3561432316,
				"z": -4.104959024,
				"element": "C" 
			},
			{
				"x": 0.2604180491,
				"y": 3.6316925786,
				"z": -5.140866439,
				"element": "C" 
			},
			{
				"x": -1.6508658133,
				"y": 4.1574537812,
				"z": -1.8398460019,
				"element": "H" 
			},
			{
				"x": -0.0192196205,
				"y": 4.8415070586,
				"z": -1.8096616387,
				"element": "H" 
			},
			{
				"x": -0.4763880035,
				"y": 3.5559913443,
				"z": -0.6714961929,
				"element": "H" 
			},
			{
				"x": 1.9396452012,
				"y": 3.5120572337,
				"z": -2.7615826269,
				"element": "H" 
			},
			{
				"x": 1.6730174208,
				"y": 1.9087403353,
				"z": -3.4356864347,
				"element": "H" 
			},
			{
				"x": 2.8601795776,
				"y": 1.7679901219,
				"z": -1.2846084239,
				"element": "H" 
			},
			{
				"x": 1.591266967,
				"y": 2.6597165434,
				"z": -0.4719882997,
				"element": "H" 
			},
			{
				"x": 1.3504113339,
				"y": -0.0837030158,
				"z": -1.7841388346,
				"element": "H" 
			},
			{
				"x": -1.960878936,
				"y": 1.6727037301,
				"z": -2.4723044562,
				"element": "H" 
			},
			{
				"x": -0.6546551364,
				"y": 0.8470980987,
				"z": -3.3149180323,
				"element": "H" 
			},
			{
				"x": -2.4279860615,
				"y": 0.4939137016,
				"z": -0.5341002956,
				"element": "H" 
			},
			{
				"x": -1.7684659758,
				"y": -1.3585133063,
				"z": 0.8868759653,
				"element": "H" 
			},
			{
				"x": -1.1792836852,
				"y": 0.022537976,
				"z": 1.7686915759,
				"element": "H" 
			},
			{
				"x": 0.357632098,
				"y": -1.8674034639,
				"z": -0.0797710183,
				"element": "H" 
			},
			{
				"x": 3.266415832,
				"y": -1.0960743378,
				"z": 1.055426568,
				"element": "H" 
			},
			{
				"x": 3.5344341353,
				"y": 0.0714399688,
				"z": -0.2189412436,
				"element": "H" 
			},
			{
				"x": 2.7764348881,
				"y": -1.4835127536,
				"z": -0.594893657,
				"element": "H" 
			},
			{
				"x": 0.7555057678,
				"y": 1.7846524638,
				"z": 1.352755108,
				"element": "H" 
			},
			{
				"x": 2.4723376915,
				"y": 1.4856830625,
				"z": 1.5118502259,
				"element": "H" 
			},
			{
				"x": 1.819083196,
				"y": 0.9661751513,
				"z": 3.6848204667,
				"element": "H" 
			},
			{
				"x": 0.187927307,
				"y": 0.5621223295,
				"z": 3.2244454766,
				"element": "H" 
			},
			{
				"x": 1.3352444718,
				"y": -1.431912841,
				"z": 4.0756892924,
				"element": "H" 
			},
			{
				"x": 2.652402976,
				"y": -1.2153629734,
				"z": 2.9628342096,
				"element": "H" 
			},
			{
				"x": -0.9897905292,
				"y": -3.2360294512,
				"z": 2.0162286501,
				"element": "H" 
			},
			{
				"x": -1.0657684811,
				"y": -1.8792638453,
				"z": 3.1589159275,
				"element": "H" 
			},
			{
				"x": -0.0611753673,
				"y": -3.2856389579,
				"z": 3.5251000843,
				"element": "H" 
			},
			{
				"x": 2.9281968195,
				"y": -4.3955926377,
				"z": 2.1891313602,
				"element": "H" 
			},
			{
				"x": -1.6084749403,
				"y": 3.5037473976,
				"z": -4.2260016106,
				"element": "H" 
			},
			{
				"x": -0.150533811,
				"y": 3.9904274,
				"z": -6.0801606502,
				"element": "H" 
			},
			{
				"x": 1.3392740826,
				"y": 3.5164796597,
				"z": -5.1018894389,
				"element": "H" 
			}
		],
		 "valence_orbital": [ 
			{
				"type": "occ",
				"energy": -0.27935,
				"method": "rhf"
			},
			{
				"type": "occ",
				"energy": -0.27659,
				"method": "rhf"
			},
			{
				"type": "occ",
				"energy": -0.26558,
				"method": "rhf"
			},
			{
				"type": "occ",
				"energy": -0.25112,
				"method": "rhf"
			},
			{
				"type": "occ",
				"energy": -0.22441,
				"method": "rhf"
			},
			{
				"type": "unocc",
				"energy": 0.01209,
				"method": "rhf"
			},
			{
				"type": "unocc",
				"energy": 0.02341,
				"method": "rhf"
			},
			{
				"type": "unocc",
				"energy": 0.03057,
				"method": "rhf"
			},
			{
				"type": "unocc",
				"energy": 0.07066,
				"method": "rhf"
			},
			{
				"type": "unocc",
				"energy": 0.08087,
				"method": "rhf"
			}
		],
		"cosmo_sigma_profile": { 
			"-0.025": 0.0,
			"-0.024": 0.0,
			"-0.023": 0.0,
			"-0.022": 0.0,
			"-0.021": 0.0,
			"-0.02": 0.0,
			"-0.019": 0.0,
			"-0.018": 0.37603355224,
			"-0.017": 0.806236455862,
			"-0.016": 0.898744366041,
			"-0.015": 0.958420232467,
			"-0.014": 0.774618556395,
			"-0.013": 0.88886416641,
			"-0.012": 0.451938172451,
			"-0.011": 0.316156390359,
			"-0.01": 0.731480044675,
			"-0.009": 0.518419260502,
			"-0.008": 0.658381680394,
			"-0.007": 1.05218125673,
			"-0.006": 0.928755322101,
			"-0.005": 1.76195176139,
			"-0.004": 11.5419602724,
			"-0.003": 31.469638172,
			"-0.002": 58.9558754626,
			"-0.001": 61.8613813646,
			"0.0": 53.357568945,
			"0.001": 41.0479070128,
			"0.002": 21.019532668,
			"0.003": 11.4326632141,
			"0.004": 10.3977666279,
			"0.005": 9.18843626533,
			"0.006": 6.39883731071,
			"0.007": 5.76167271453,
			"0.008": 3.17139784385,
			"0.009": 2.17547368516,
			"0.01": 2.02339226762,
			"0.011": 1.97330413591,
			"0.012": 4.75843440769,
			"0.013": 0.976049990645,
			"0.014": 0.0,
			"0.015": 0.0,
			"0.016": 0.0,
			"0.017": 0.0,
			"0.018": 0.0,
			"0.019": 0.0,
			"0.02": 0.0,
			"0.021": 0.0,
			"0.022": 0.0,
			"0.023": 0.0,
			"0.024": 0.0,
			"0.025": 0.0
		}
	}
}
