{
	 "smiles": "ClC1=NC(Br)=NS1", 
	 "Tm": 297.65, 
	 "num_atms": 7, 
	 "gaussian": { 
		 "optdone": 1, 
		 "sigma_profile": "yes", 
		 "theory": "DFT", 
		 "functional": "B3LYP", 
		 "basiset": "6-31G**", 
		 "properties": { 
			 "R2extent": 2195.8085, 
			 "electric_dipole_moment_norm": 1.75378417429, 
			 "electric_quadrupole_moment_norm": 7.02141739252, 
			 "total_energy": -3615.46439693, 
			 "HOMO_LUMO_gap": 0.20265, 
			 "cosmo_polarized_energy": -4.72, 
			 "cosmo_cavitation_energy": 17.99, 
			 "cosmo_dispersion_energy": -14.91, 
			 "cosmo_repulsion_energy": 1.22, 
			 "cosmo_total_nonelectrostatic_energy": 4.3, 
			 "SMD_solvation_energy": -1.63 
		},
		"coords": [
			{
				"x": -1.5467792507,
				"y": 3.5802096589,
				"z": -0.1701662657,
				"element": "Cl" 
			},
			{
				"x": -0.8903055737,
				"y": 1.9957690076,
				"z": -0.0640381131,
				"element": "C" 
			},
			{
				"x": -1.5983228315,
				"y": 0.9340215535,
				"z": 0.1820763586,
				"element": "N" 
			},
			{
				"x": -0.7364400514,
				"y": -0.1320365046,
				"z": 0.1898474996,
				"element": "C" 
			},
			{
				"x": -1.4388546942,
				"y": -1.8516311016,
				"z": 0.5208567644,
				"element": "Br" 
			},
			{
				"x": 0.5440291489,
				"y": 0.0178090166,
				"z": -0.0238985057,
				"element": "N" 
			},
			{
				"x": 0.8069732527,
				"y": 1.6590583697,
				"z": -0.2769777381,
				"element": "S" 
			}
		],
		 "valence_orbital": [ 
			{
				"type": "occ",
				"energy": -0.34059,
				"method": "rhf"
			},
			{
				"type": "occ",
				"energy": -0.322,
				"method": "rhf"
			},
			{
				"type": "occ",
				"energy": -0.32184,
				"method": "rhf"
			},
			{
				"type": "occ",
				"energy": -0.3018,
				"method": "rhf"
			},
			{
				"type": "occ",
				"energy": -0.2769,
				"method": "rhf"
			},
			{
				"type": "unocc",
				"energy": -0.07425,
				"method": "rhf"
			},
			{
				"type": "unocc",
				"energy": -0.04469,
				"method": "rhf"
			},
			{
				"type": "unocc",
				"energy": -0.00761,
				"method": "rhf"
			},
			{
				"type": "unocc",
				"energy": 0.0061,
				"method": "rhf"
			},
			{
				"type": "unocc",
				"energy": 0.00826,
				"method": "rhf"
			}
		],
		"cosmo_sigma_profile": { 
			"-0.025": 0.0,
			"-0.024": 0.0,
			"-0.023": 0.0,
			"-0.022": 0.0,
			"-0.021": 0.0,
			"-0.02": 0.0,
			"-0.019": 0.0,
			"-0.018": 0.0,
			"-0.017": 0.0,
			"-0.016": 0.0,
			"-0.015": 0.0,
			"-0.014": 0.0,
			"-0.013": 0.0,
			"-0.012": 0.0,
			"-0.011": 0.0,
			"-0.01": 0.0,
			"-0.009": 0.0,
			"-0.008": 0.194719609938,
			"-0.007": 2.94665720941,
			"-0.006": 7.03679834357,
			"-0.005": 10.4113553003,
			"-0.004": 11.2821879332,
			"-0.003": 12.4768801627,
			"-0.002": 13.6592760227,
			"-0.001": 15.3719916141,
			"0.0": 14.6729077543,
			"0.001": 15.7066242471,
			"0.002": 15.1295599066,
			"0.003": 13.2641139505,
			"0.004": 5.60552767999,
			"0.005": 2.90919878739,
			"0.006": 3.66515094907,
			"0.007": 1.94724716544,
			"0.008": 1.77430254064,
			"0.009": 2.02813546117,
			"0.01": 2.28141129225,
			"0.011": 1.7527779758,
			"0.012": 0.426978267877,
			"0.013": 0.0,
			"0.014": 0.0,
			"0.015": 0.0,
			"0.016": 0.0,
			"0.017": 0.0,
			"0.018": 0.0,
			"0.019": 0.0,
			"0.02": 0.0,
			"0.021": 0.0,
			"0.022": 0.0,
			"0.023": 0.0,
			"0.024": 0.0,
			"0.025": 0.0
		}
	}
}
