{
	 "smiles": "FC1=C(CBr)C=CC(=C1)C#N", 
	 "Tm": 349.15, 
	 "num_atms": 16, 
	 "gaussian": { 
		 "optdone": 1, 
		 "sigma_profile": "yes", 
		 "theory": "DFT", 
		 "functional": "B3LYP", 
		 "basiset": "6-31G**", 
		 "properties": { 
			 "R2extent": 3606.8195, 
			 "electric_dipole_moment_norm": 3.40132037156, 
			 "electric_quadrupole_moment_norm": 16.231908698, 
			 "total_energy": -3033.840876, 
			 "HOMO_LUMO_gap": 0.19022, 
			 "cosmo_polarized_energy": -10.69, 
			 "cosmo_cavitation_energy": 24.63, 
			 "cosmo_dispersion_energy": -17.43, 
			 "cosmo_repulsion_energy": 1.39, 
			 "cosmo_total_nonelectrostatic_energy": 8.6, 
			 "SMD_solvation_energy": 4.88 
		},
		"coords": [
			{
				"x": 0.8514641242,
				"y": 2.0845503239,
				"z": 0.925201634,
				"element": "F" 
			},
			{
				"x": 0.1765535738,
				"y": 0.9264416745,
				"z": 0.801557392,
				"element": "C" 
			},
			{
				"x": -0.4690424048,
				"y": 0.6542145576,
				"z": -0.4101900408,
				"element": "C" 
			},
			{
				"x": -0.4102852279,
				"y": 1.6307736544,
				"z": -1.5360360412,
				"element": "C" 
			},
			{
				"x": -1.9158901305,
				"y": 2.9441451852,
				"z": -1.4532913913,
				"element": "Br" 
			},
			{
				"x": -1.1609617893,
				"y": -0.5604948303,
				"z": -0.5136750035,
				"element": "C" 
			},
			{
				"x": -1.2011802148,
				"y": -1.4638087535,
				"z": 0.5426596093,
				"element": "C" 
			},
			{
				"x": -0.5382405174,
				"y": -1.1583861941,
				"z": 1.7437867475,
				"element": "C" 
			},
			{
				"x": 0.1614526401,
				"y": 0.0512909292,
				"z": 1.8757512231,
				"element": "C" 
			},
			{
				"x": -0.5702766404,
				"y": -2.0845739905,
				"z": 2.8382565407,
				"element": "C" 
			},
			{
				"x": -0.5974567221,
				"y": -2.8388891425,
				"z": 3.7230408239,
				"element": "N" 
			},
			{
				"x": -0.5166176997,
				"y": 1.1478685023,
				"z": -2.5050161546,
				"element": "H" 
			},
			{
				"x": 0.4883800403,
				"y": 2.241558252,
				"z": -1.5089811633,
				"element": "H" 
			},
			{
				"x": -1.6772789387,
				"y": -0.7934510011,
				"z": -1.4402480761,
				"element": "H" 
			},
			{
				"x": -1.7382295158,
				"y": -2.4007069614,
				"z": 0.4485302919,
				"element": "H" 
			},
			{
				"x": 0.6824094231,
				"y": 0.3081677941,
				"z": 2.7903536085,
				"element": "H" 
			}
		],
		 "valence_orbital": [ 
			{
				"type": "occ",
				"energy": -0.34274,
				"method": "rhf"
			},
			{
				"type": "occ",
				"energy": -0.29117,
				"method": "rhf"
			},
			{
				"type": "occ",
				"energy": -0.28595,
				"method": "rhf"
			},
			{
				"type": "occ",
				"energy": -0.28215,
				"method": "rhf"
			},
			{
				"type": "occ",
				"energy": -0.26983,
				"method": "rhf"
			},
			{
				"type": "unocc",
				"energy": -0.07961,
				"method": "rhf"
			},
			{
				"type": "unocc",
				"energy": -0.03443,
				"method": "rhf"
			},
			{
				"type": "unocc",
				"energy": -0.00818,
				"method": "rhf"
			},
			{
				"type": "unocc",
				"energy": 0.02487,
				"method": "rhf"
			},
			{
				"type": "unocc",
				"energy": 0.0663,
				"method": "rhf"
			}
		],
		"cosmo_sigma_profile": { 
			"-0.025": 0.0,
			"-0.024": 0.0,
			"-0.023": 0.0,
			"-0.022": 0.0,
			"-0.021": 0.0,
			"-0.02": 0.0,
			"-0.019": 0.0,
			"-0.018": 0.0,
			"-0.017": 0.0,
			"-0.016": 0.0,
			"-0.015": 0.0,
			"-0.014": 0.0,
			"-0.013": 0.0,
			"-0.012": 0.0,
			"-0.011": 0.0,
			"-0.01": 0.470174844737,
			"-0.009": 4.90069105524,
			"-0.008": 10.6443630734,
			"-0.007": 10.5763674129,
			"-0.006": 8.87996039461,
			"-0.005": 9.30817663866,
			"-0.004": 9.54734036094,
			"-0.003": 8.92916696248,
			"-0.002": 14.8449797777,
			"-0.001": 16.5197432494,
			"0.0": 17.5438704391,
			"0.001": 14.0193369384,
			"0.002": 11.5686930063,
			"0.003": 14.4119230098,
			"0.004": 9.51063181105,
			"0.005": 11.9709286329,
			"0.006": 10.5029601045,
			"0.007": 3.09448336378,
			"0.008": 3.45076650792,
			"0.009": 3.18111183458,
			"0.01": 3.06326263044,
			"0.011": 2.7138541054,
			"0.012": 2.12309785535,
			"0.013": 0.82019845436,
			"0.014": 0.0,
			"0.015": 0.0,
			"0.016": 0.0,
			"0.017": 0.0,
			"0.018": 0.0,
			"0.019": 0.0,
			"0.02": 0.0,
			"0.021": 0.0,
			"0.022": 0.0,
			"0.023": 0.0,
			"0.024": 0.0,
			"0.025": 0.0
		}
	}
}
