{
	 "smiles": "BrC1=CC=C(Br)S1", 
	 "Tm": 267.15, 
	 "num_atms": 9, 
	 "gaussian": { 
		 "optdone": 1, 
		 "sigma_profile": "yes", 
		 "theory": "DFT", 
		 "functional": "B3LYP", 
		 "basiset": "6-31G**", 
		 "properties": { 
			 "R2extent": 3138.0287, 
			 "electric_dipole_moment_norm": 1.15518837425, 
			 "electric_quadrupole_moment_norm": 2.83933243739, 
			 "total_energy": -5694.59405129, 
			 "HOMO_LUMO_gap": 0.19543, 
			 "cosmo_polarized_energy": -2.8, 
			 "cosmo_cavitation_energy": 19.71, 
			 "cosmo_dispersion_energy": -16.19, 
			 "cosmo_repulsion_energy": 1.31, 
			 "cosmo_total_nonelectrostatic_energy": 4.83, 
			 "SMD_solvation_energy": 0.89 
		},
		"coords": [
			{
				"x": 1.4873877775,
				"y": -2.2566651575,
				"z": 1.6075320244,
				"element": "Br" 
			},
			{
				"x": 0.6802985719,
				"y": -0.9726319514,
				"z": 0.4893947143,
				"element": "C" 
			},
			{
				"x": -0.4538536172,
				"y": -0.2554244176,
				"z": 0.7433846731,
				"element": "C" 
			},
			{
				"x": -0.7856450077,
				"y": 0.6346479954,
				"z": -0.3252147386,
				"element": "C" 
			},
			{
				"x": 0.1072579272,
				"y": 0.5646758592,
				"z": -1.3562498339,
				"element": "C" 
			},
			{
				"x": 0.0690276364,
				"y": 1.5499889498,
				"z": -2.96186185,
				"element": "Br" 
			},
			{
				"x": 1.3824750764,
				"y": -0.5878933958,
				"z": -1.0601719698,
				"element": "S" 
			},
			{
				"x": -1.031005348,
				"y": -0.3555701147,
				"z": 1.6540077949,
				"element": "H" 
			},
			{
				"x": -1.6454430165,
				"y": 1.2927722326,
				"z": -0.3249208143,
				"element": "H" 
			}
		],
		 "valence_orbital": [ 
			{
				"type": "occ",
				"energy": -0.30803,
				"method": "rhf"
			},
			{
				"type": "occ",
				"energy": -0.30331,
				"method": "rhf"
			},
			{
				"type": "occ",
				"energy": -0.29998,
				"method": "rhf"
			},
			{
				"type": "occ",
				"energy": -0.27351,
				"method": "rhf"
			},
			{
				"type": "occ",
				"energy": -0.23102,
				"method": "rhf"
			},
			{
				"type": "unocc",
				"energy": -0.03559,
				"method": "rhf"
			},
			{
				"type": "unocc",
				"energy": -0.02552,
				"method": "rhf"
			},
			{
				"type": "unocc",
				"energy": -0.00348,
				"method": "rhf"
			},
			{
				"type": "unocc",
				"energy": 0.02435,
				"method": "rhf"
			},
			{
				"type": "unocc",
				"energy": 0.04518,
				"method": "rhf"
			}
		],
		"cosmo_sigma_profile": { 
			"-0.025": 0.0,
			"-0.024": 0.0,
			"-0.023": 0.0,
			"-0.022": 0.0,
			"-0.021": 0.0,
			"-0.02": 0.0,
			"-0.019": 0.0,
			"-0.018": 0.0,
			"-0.017": 0.0,
			"-0.016": 0.0,
			"-0.015": 0.0,
			"-0.014": 0.0,
			"-0.013": 0.0,
			"-0.012": 0.0,
			"-0.011": 0.0,
			"-0.01": 0.0,
			"-0.009": 0.421783319435,
			"-0.008": 3.48165609537,
			"-0.007": 4.13535329314,
			"-0.006": 5.43329991696,
			"-0.005": 6.26259432859,
			"-0.004": 5.59682120287,
			"-0.003": 8.48543383078,
			"-0.002": 11.2164404017,
			"-0.001": 14.2668020888,
			"0.0": 16.8157529593,
			"0.001": 24.610844829,
			"0.002": 29.8647793334,
			"0.003": 29.4284954327,
			"0.004": 8.19836418091,
			"0.005": 0.0,
			"0.006": 0.0,
			"0.007": 0.0,
			"0.008": 0.0,
			"0.009": 0.0,
			"0.01": 0.0,
			"0.011": 0.0,
			"0.012": 0.0,
			"0.013": 0.0,
			"0.014": 0.0,
			"0.015": 0.0,
			"0.016": 0.0,
			"0.017": 0.0,
			"0.018": 0.0,
			"0.019": 0.0,
			"0.02": 0.0,
			"0.021": 0.0,
			"0.022": 0.0,
			"0.023": 0.0,
			"0.024": 0.0,
			"0.025": 0.0
		}
	}
}
