{
	 "smiles": "C=C=N", 
	 "Tm": 195.15, 
	 "num_atms": 6, 
	 "gaussian": { 
		 "optdone": 1, 
		 "sigma_profile": "yes", 
		 "theory": "DFT", 
		 "functional": "B3LYP", 
		 "basiset": "6-31G**", 
		 "properties": { 
			 "R2extent": 691.1776, 
			 "electric_dipole_moment_norm": 1.5871442373, 
			 "electric_quadrupole_moment_norm": 9.27995979517, 
			 "total_energy": -132.715030593, 
			 "HOMO_LUMO_gap": 0.23292, 
			 "cosmo_polarized_energy": -5.25, 
			 "cosmo_cavitation_energy": 10.29, 
			 "cosmo_dispersion_energy": -7.19, 
			 "cosmo_repulsion_energy": 0.7, 
			 "cosmo_total_nonelectrostatic_energy": 3.81, 
			 "SMD_solvation_energy": 4.15 
		},
		"coords": [
			{
				"x": -0.6903426444,
				"y": -1.8681040073,
				"z": 1.5280814341,
				"element": "C" 
			},
			{
				"x": -0.4732401877,
				"y": -0.9121432004,
				"z": 2.4019447163,
				"element": "C" 
			},
			{
				"x": -0.2359303886,
				"y": -0.0985016461,
				"z": 3.292413593,
				"element": "N" 
			},
			{
				"x": -1.6589578148,
				"y": -2.3504094524,
				"z": 1.4708985141,
				"element": "H" 
			},
			{
				"x": 0.0938563456,
				"y": -2.1785174712,
				"z": 0.8477834996,
				"element": "H" 
			},
			{
				"x": -0.4186853101,
				"y": 0.8791757774,
				"z": 3.0541782429,
				"element": "H" 
			}
		],
		 "valence_orbital": [ 
			{
				"type": "occ",
				"energy": -0.48389,
				"method": "rhf"
			},
			{
				"type": "occ",
				"energy": -0.45222,
				"method": "rhf"
			},
			{
				"type": "occ",
				"energy": -0.37697,
				"method": "rhf"
			},
			{
				"type": "occ",
				"energy": -0.33184,
				"method": "rhf"
			},
			{
				"type": "occ",
				"energy": -0.23444,
				"method": "rhf"
			},
			{
				"type": "unocc",
				"energy": -0.00152,
				"method": "rhf"
			},
			{
				"type": "unocc",
				"energy": 0.03754,
				"method": "rhf"
			},
			{
				"type": "unocc",
				"energy": 0.10536,
				"method": "rhf"
			},
			{
				"type": "unocc",
				"energy": 0.13561,
				"method": "rhf"
			},
			{
				"type": "unocc",
				"energy": 0.20976,
				"method": "rhf"
			}
		],
		"cosmo_sigma_profile": { 
			"-0.025": 0.0,
			"-0.024": 0.0,
			"-0.023": 0.0,
			"-0.022": 0.0,
			"-0.021": 0.0,
			"-0.02": 0.0,
			"-0.019": 0.0,
			"-0.018": 0.0,
			"-0.017": 0.0,
			"-0.016": 0.0,
			"-0.015": 0.159943690841,
			"-0.014": 1.13690790412,
			"-0.013": 1.51637199392,
			"-0.012": 1.07992332402,
			"-0.011": 0.89585901008,
			"-0.01": 0.932876091463,
			"-0.009": 1.08358343836,
			"-0.008": 1.91222523824,
			"-0.007": 3.86321113295,
			"-0.006": 3.98736638221,
			"-0.005": 2.84933463857,
			"-0.004": 4.86304253244,
			"-0.003": 4.35747047547,
			"-0.002": 4.55900727936,
			"-0.001": 6.69041576617,
			"0.0": 5.09586244839,
			"0.001": 4.32243199806,
			"0.002": 3.74171818463,
			"0.003": 3.9950526607,
			"0.004": 4.53812860378,
			"0.005": 5.01746536753,
			"0.006": 4.93816459186,
			"0.007": 2.50067020338,
			"0.008": 1.66017523095,
			"0.009": 1.21215371665,
			"0.01": 1.1650080084,
			"0.011": 1.60908115395,
			"0.012": 1.30306124909,
			"0.013": 1.24739464962,
			"0.014": 0.600448517771,
			"0.015": 0.0,
			"0.016": 0.0,
			"0.017": 0.0,
			"0.018": 0.0,
			"0.019": 0.0,
			"0.02": 0.0,
			"0.021": 0.0,
			"0.022": 0.0,
			"0.023": 0.0,
			"0.024": 0.0,
			"0.025": 0.0
		}
	}
}
