{
	 "smiles": "CN1C=CC2=C1C(=O)NC(C)=C2", 
	 "Tm": 463.15, 
	 "num_atms": 22, 
	 "gaussian": { 
		 "optdone": 1, 
		 "sigma_profile": "yes", 
		 "theory": "DFT", 
		 "functional": "B3LYP", 
		 "basiset": "6-31G**", 
		 "properties": { 
			 "R2extent": 2210.528, 
			 "electric_dipole_moment_norm": 1.96430994245, 
			 "electric_quadrupole_moment_norm": 14.3073321458, 
			 "total_energy": -533.735480098, 
			 "HOMO_LUMO_gap": 0.18367, 
			 "cosmo_polarized_energy": -12.57, 
			 "cosmo_cavitation_energy": 25.38, 
			 "cosmo_dispersion_energy": -18.85, 
			 "cosmo_repulsion_energy": 1.48, 
			 "cosmo_total_nonelectrostatic_energy": 8.01, 
			 "SMD_solvation_energy": 5.21 
		},
		"coords": [
			{
				"x": 0.0459653332,
				"y": -1.353414915,
				"z": 2.5573154902,
				"element": "C" 
			},
			{
				"x": -0.6779992268,
				"y": -1.5065614202,
				"z": 1.3021979308,
				"element": "N" 
			},
			{
				"x": -1.6826390375,
				"y": -2.4059798676,
				"z": 1.0550384733,
				"element": "C" 
			},
			{
				"x": -2.1350367502,
				"y": -2.2655729996,
				"z": -0.2429187837,
				"element": "C" 
			},
			{
				"x": -1.3688392773,
				"y": -1.221571589,
				"z": -0.8337080898,
				"element": "C" 
			},
			{
				"x": -0.4742833111,
				"y": -0.7729428185,
				"z": 0.1525737685,
				"element": "C" 
			},
			{
				"x": 0.4810573633,
				"y": 0.2826854096,
				"z": -0.0489439746,
				"element": "C" 
			},
			{
				"x": 1.2967281554,
				"y": 0.7324751429,
				"z": 0.7619914673,
				"element": "O" 
			},
			{
				"x": 0.3985359043,
				"y": 0.7981906256,
				"z": -1.3513788992,
				"element": "N" 
			},
			{
				"x": -0.4623262903,
				"y": 0.3952279684,
				"z": -2.3629111735,
				"element": "C" 
			},
			{
				"x": -0.3288126841,
				"y": 1.129196162,
				"z": -3.6666681338,
				"element": "C" 
			},
			{
				"x": -1.3524764525,
				"y": -0.6098428849,
				"z": -2.1288857396,
				"element": "C" 
			},
			{
				"x": -0.0787935654,
				"y": -0.3434223783,
				"z": 2.952811188,
				"element": "H" 
			},
			{
				"x": -0.3476332735,
				"y": -2.0787838885,
				"z": 3.2719871263,
				"element": "H" 
			},
			{
				"x": 1.1138046231,
				"y": -1.5261596938,
				"z": 2.4091974022,
				"element": "H" 
			},
			{
				"x": -2.0037530612,
				"y": -3.0865326998,
				"z": 1.8313990874,
				"element": "H" 
			},
			{
				"x": -2.9208140483,
				"y": -2.8446278751,
				"z": -0.706801394,
				"element": "H" 
			},
			{
				"x": 1.0581551516,
				"y": 1.5450937668,
				"z": -1.5294736161,
				"element": "H" 
			},
			{
				"x": -0.5160113922,
				"y": 2.2031809838,
				"z": -3.5423884398,
				"element": "H" 
			},
			{
				"x": 0.678674057,
				"y": 1.0185379652,
				"z": -4.0869719702,
				"element": "H" 
			},
			{
				"x": -1.0432547154,
				"y": 0.7443589506,
				"z": -4.3968614611,
				"element": "H" 
			},
			{
				"x": -2.0275475022,
				"y": -0.9296339447,
				"z": -2.9139002587,
				"element": "H" 
			}
		],
		 "valence_orbital": [ 
			{
				"type": "occ",
				"energy": -0.31696,
				"method": "rhf"
			},
			{
				"type": "occ",
				"energy": -0.26578,
				"method": "rhf"
			},
			{
				"type": "occ",
				"energy": -0.24122,
				"method": "rhf"
			},
			{
				"type": "occ",
				"energy": -0.22195,
				"method": "rhf"
			},
			{
				"type": "occ",
				"energy": -0.18962,
				"method": "rhf"
			},
			{
				"type": "unocc",
				"energy": -0.00595,
				"method": "rhf"
			},
			{
				"type": "unocc",
				"energy": 0.01801,
				"method": "rhf"
			},
			{
				"type": "unocc",
				"energy": 0.07622,
				"method": "rhf"
			},
			{
				"type": "unocc",
				"energy": 0.08355,
				"method": "rhf"
			},
			{
				"type": "unocc",
				"energy": 0.10489,
				"method": "rhf"
			}
		],
		"cosmo_sigma_profile": { 
			"-0.025": 0.0,
			"-0.024": 0.0,
			"-0.023": 0.0,
			"-0.022": 0.0,
			"-0.021": 0.0,
			"-0.02": 0.0,
			"-0.019": 0.0,
			"-0.018": 0.0,
			"-0.017": 0.0,
			"-0.016": 0.0,
			"-0.015": 0.116085006744,
			"-0.014": 0.77725620146,
			"-0.013": 1.04104674898,
			"-0.012": 1.22363681219,
			"-0.011": 0.539063227489,
			"-0.01": 1.43792543585,
			"-0.009": 1.0736700798,
			"-0.008": 3.9687998795,
			"-0.007": 4.90141614952,
			"-0.006": 8.21274589544,
			"-0.005": 18.0552451542,
			"-0.004": 15.3536599831,
			"-0.003": 18.5114029243,
			"-0.002": 18.6307387906,
			"-0.001": 13.4038326543,
			"0.0": 10.6671545778,
			"0.001": 11.4812061263,
			"0.002": 14.4452710748,
			"0.003": 8.59777395354,
			"0.004": 10.3011360739,
			"0.005": 10.5853318607,
			"0.006": 8.17451921764,
			"0.007": 3.72898097835,
			"0.008": 0.929987999461,
			"0.009": 1.5028919964,
			"0.01": 1.49430388947,
			"0.011": 1.17773877516,
			"0.012": 1.3978544998,
			"0.013": 1.58125893953,
			"0.014": 3.76846885807,
			"0.015": 4.13465507405,
			"0.016": 0.401595450512,
			"0.017": 0.0,
			"0.018": 0.0,
			"0.019": 0.0,
			"0.02": 0.0,
			"0.021": 0.0,
			"0.022": 0.0,
			"0.023": 0.0,
			"0.024": 0.0,
			"0.025": 0.0
		}
	}
}
