{
	 "smiles": "CS(=O)(=O)C1=NN=C(N)N1", 
	 "Tm": 517.15, 
	 "num_atms": 16, 
	 "gaussian": { 
		 "optdone": 1, 
		 "sigma_profile": "yes", 
		 "theory": "DFT", 
		 "functional": "B3LYP", 
		 "basiset": "6-31G**", 
		 "properties": { 
			 "R2extent": 2356.2522, 
			 "electric_dipole_moment_norm": 3.98302279808, 
			 "electric_quadrupole_moment_norm": 19.5104542097, 
			 "total_energy": -885.4802543, 
			 "HOMO_LUMO_gap": 0.22478, 
			 "cosmo_polarized_energy": -25.66, 
			 "cosmo_cavitation_energy": 22.3, 
			 "cosmo_dispersion_energy": -17.18, 
			 "cosmo_repulsion_energy": 1.37, 
			 "cosmo_total_nonelectrostatic_energy": 6.48, 
			 "SMD_solvation_energy": 1.53 
		},
		"coords": [
			{
				"x": -1.5613867597,
				"y": -2.8777245587,
				"z": 1.3595283086,
				"element": "C" 
			},
			{
				"x": -0.9844021775,
				"y": -1.2094569277,
				"z": 1.014268765,
				"element": "S" 
			},
			{
				"x": 0.3929623254,
				"y": -1.0324528795,
				"z": 1.5111921567,
				"element": "O" 
			},
			{
				"x": -2.0396710194,
				"y": -0.2697981331,
				"z": 1.4030813106,
				"element": "O" 
			},
			{
				"x": -0.7996784393,
				"y": -1.236975117,
				"z": -0.7612863784,
				"element": "C" 
			},
			{
				"x": -1.6490545931,
				"y": -1.6764265294,
				"z": -1.64746235,
				"element": "N" 
			},
			{
				"x": -1.0973427699,
				"y": -1.4413211671,
				"z": -2.8913766874,
				"element": "N" 
			},
			{
				"x": 0.0781780939,
				"y": -0.8679123073,
				"z": -2.696142579,
				"element": "C" 
			},
			{
				"x": 0.9868692327,
				"y": -0.5385398497,
				"z": -3.6802760866,
				"element": "N" 
			},
			{
				"x": 0.3194288152,
				"y": -0.7109671564,
				"z": -1.3600707995,
				"element": "N" 
			},
			{
				"x": -1.7992077685,
				"y": -2.9058310681,
				"z": 2.4246497018,
				"element": "H" 
			},
			{
				"x": -0.7702509884,
				"y": -3.5874491445,
				"z": 1.1160494273,
				"element": "H" 
			},
			{
				"x": -2.4526754082,
				"y": -3.056823524,
				"z": 0.7563953673,
				"element": "H" 
			},
			{
				"x": 1.4065308958,
				"y": 0.3788743999,
				"z": -3.5899653225,
				"element": "H" 
			},
			{
				"x": 0.5868665346,
				"y": -0.677092244,
				"z": -4.6005903282,
				"element": "H" 
			},
			{
				"x": 1.1555340263,
				"y": -0.4069037934,
				"z": -0.8803945058,
				"element": "H" 
			}
		],
		 "valence_orbital": [ 
			{
				"type": "occ",
				"energy": -0.32201,
				"method": "rhf"
			},
			{
				"type": "occ",
				"energy": -0.30882,
				"method": "rhf"
			},
			{
				"type": "occ",
				"energy": -0.30139,
				"method": "rhf"
			},
			{
				"type": "occ",
				"energy": -0.27478,
				"method": "rhf"
			},
			{
				"type": "occ",
				"energy": -0.24652,
				"method": "rhf"
			},
			{
				"type": "unocc",
				"energy": -0.02174,
				"method": "rhf"
			},
			{
				"type": "unocc",
				"energy": 0.03128,
				"method": "rhf"
			},
			{
				"type": "unocc",
				"energy": 0.04345,
				"method": "rhf"
			},
			{
				"type": "unocc",
				"energy": 0.06415,
				"method": "rhf"
			},
			{
				"type": "unocc",
				"energy": 0.06707,
				"method": "rhf"
			}
		],
		"cosmo_sigma_profile": { 
			"-0.025": 0.0,
			"-0.024": 0.0,
			"-0.023": 0.0,
			"-0.022": 0.0,
			"-0.021": 0.0,
			"-0.02": 0.0,
			"-0.019": 0.0159437587001,
			"-0.018": 0.757104042686,
			"-0.017": 1.07755170346,
			"-0.016": 1.7379758166,
			"-0.015": 2.97397717872,
			"-0.014": 3.42913874219,
			"-0.013": 3.28626313364,
			"-0.012": 3.97608990067,
			"-0.011": 2.30225005489,
			"-0.01": 4.50328436853,
			"-0.009": 7.48049173568,
			"-0.008": 7.40223689493,
			"-0.007": 7.94598377416,
			"-0.006": 7.95581775327,
			"-0.005": 9.26296347183,
			"-0.004": 8.31874528668,
			"-0.003": 8.75542941749,
			"-0.002": 5.18752754859,
			"-0.001": 4.97691577701,
			"0.0": 4.65077141788,
			"0.001": 3.87317065219,
			"0.002": 4.96293515445,
			"0.003": 5.01251302893,
			"0.004": 4.63122963533,
			"0.005": 5.0777368353,
			"0.006": 4.02210272499,
			"0.007": 4.15733150354,
			"0.008": 5.75792425233,
			"0.009": 6.96570854125,
			"0.01": 12.1734249827,
			"0.011": 12.2301114297,
			"0.012": 5.32762222893,
			"0.013": 2.40155006401,
			"0.014": 2.74855950821,
			"0.015": 1.31835633032,
			"0.016": 0.772307087742,
			"0.017": 0.0960420063919,
			"0.018": 0.0,
			"0.019": 0.0,
			"0.02": 0.0,
			"0.021": 0.0,
			"0.022": 0.0,
			"0.023": 0.0,
			"0.024": 0.0,
			"0.025": 0.0
		}
	}
}
