{
	 "smiles": "CN1N=CC2=C1N=C(Cl)NC2=O", 
	 "Tm": 542.15, 
	 "num_atms": 17, 
	 "gaussian": { 
		 "optdone": 1, 
		 "sigma_profile": "yes", 
		 "theory": "DFT", 
		 "functional": "B3LYP", 
		 "basiset": "6-31G**", 
		 "properties": { 
			 "R2extent": 2747.4706, 
			 "electric_dipole_moment_norm": 2.60231882943, 
			 "electric_quadrupole_moment_norm": 5.0910966353, 
			 "total_energy": -986.074410656, 
			 "HOMO_LUMO_gap": 0.19894, 
			 "cosmo_polarized_energy": -12.44, 
			 "cosmo_cavitation_energy": 23.91, 
			 "cosmo_dispersion_energy": -18.13, 
			 "cosmo_repulsion_energy": 1.45, 
			 "cosmo_total_nonelectrostatic_energy": 7.23, 
			 "SMD_solvation_energy": 2.69 
		},
		"coords": [
			{
				"x": -1.2960934213,
				"y": -3.1852627395,
				"z": -1.04356013,
				"element": "C" 
			},
			{
				"x": -0.5585312645,
				"y": -2.1335718314,
				"z": -0.3686590866,
				"element": "N" 
			},
			{
				"x": -0.2087114152,
				"y": -2.2637068079,
				"z": 0.9435967711,
				"element": "N" 
			},
			{
				"x": 0.445216815,
				"y": -1.1531190608,
				"z": 1.2602157917,
				"element": "C" 
			},
			{
				"x": 0.5305043845,
				"y": -0.2780982428,
				"z": 0.1515247102,
				"element": "C" 
			},
			{
				"x": -0.1331511602,
				"y": -0.9552499242,
				"z": -0.8807960275,
				"element": "C" 
			},
			{
				"x": -0.3280964902,
				"y": -0.5303698477,
				"z": -2.1672609455,
				"element": "N" 
			},
			{
				"x": 0.1822865557,
				"y": 0.632952449,
				"z": -2.3866225759,
				"element": "C" 
			},
			{
				"x": 0.0366980503,
				"y": 1.3483966488,
				"z": -3.9754009214,
				"element": "Cl" 
			},
			{
				"x": 0.8509646773,
				"y": 1.3973729339,
				"z": -1.4761449976,
				"element": "N" 
			},
			{
				"x": 1.0955845095,
				"y": 1.0209857612,
				"z": -0.1078969547,
				"element": "C" 
			},
			{
				"x": 1.7048639084,
				"y": 1.7790890479,
				"z": 0.6237530211,
				"element": "O" 
			},
			{
				"x": -1.4652595226,
				"y": -2.871344768,
				"z": -2.0737865548,
				"element": "H" 
			},
			{
				"x": -0.7194312991,
				"y": -4.1132439087,
				"z": -1.0273813258,
				"element": "H" 
			},
			{
				"x": -2.2533013534,
				"y": -3.348632258,
				"z": -0.5425482724,
				"element": "H" 
			},
			{
				"x": 0.8307064549,
				"y": -1.0142793368,
				"z": 2.2604879306,
				"element": "H" 
			},
			{
				"x": 1.2164505708,
				"y": 2.302281885,
				"z": -1.7467204325,
				"element": "H" 
			}
		],
		 "valence_orbital": [ 
			{
				"type": "occ",
				"energy": -0.3157,
				"method": "rhf"
			},
			{
				"type": "occ",
				"energy": -0.30364,
				"method": "rhf"
			},
			{
				"type": "occ",
				"energy": -0.27703,
				"method": "rhf"
			},
			{
				"type": "occ",
				"energy": -0.26953,
				"method": "rhf"
			},
			{
				"type": "occ",
				"energy": -0.24424,
				"method": "rhf"
			},
			{
				"type": "unocc",
				"energy": -0.0453,
				"method": "rhf"
			},
			{
				"type": "unocc",
				"energy": -0.02149,
				"method": "rhf"
			},
			{
				"type": "unocc",
				"energy": -0.0001,
				"method": "rhf"
			},
			{
				"type": "unocc",
				"energy": 0.02819,
				"method": "rhf"
			},
			{
				"type": "unocc",
				"energy": 0.08399,
				"method": "rhf"
			}
		],
		"cosmo_sigma_profile": { 
			"-0.025": 0.0,
			"-0.024": 0.0,
			"-0.023": 0.0,
			"-0.022": 0.0,
			"-0.021": 0.0,
			"-0.02": 0.0,
			"-0.019": 0.0,
			"-0.018": 0.0382882037404,
			"-0.017": 0.678187248382,
			"-0.016": 1.043382922,
			"-0.015": 0.85634126904,
			"-0.014": 0.677396325448,
			"-0.013": 0.821656642252,
			"-0.012": 1.06932325167,
			"-0.011": 1.11241090485,
			"-0.01": 0.547372527165,
			"-0.009": 2.4088767445,
			"-0.008": 2.70943323366,
			"-0.007": 4.56254317085,
			"-0.006": 9.81814030611,
			"-0.005": 12.1291533235,
			"-0.004": 16.298258542,
			"-0.003": 18.5455748916,
			"-0.002": 13.1650976422,
			"-0.001": 13.4750690424,
			"0.0": 14.2870293706,
			"0.001": 14.6368034526,
			"0.002": 13.224039013,
			"0.003": 8.73498580117,
			"0.004": 5.44900242977,
			"0.005": 4.44927685099,
			"0.006": 4.8841991426,
			"0.007": 3.73853824672,
			"0.008": 2.92317014553,
			"0.009": 3.72908515974,
			"0.01": 3.88155830765,
			"0.011": 3.98780040941,
			"0.012": 6.68300494577,
			"0.013": 3.24393050926,
			"0.014": 0.954251652482,
			"0.015": 0.195346672101,
			"0.016": 0.0,
			"0.017": 0.0,
			"0.018": 0.0,
			"0.019": 0.0,
			"0.02": 0.0,
			"0.021": 0.0,
			"0.022": 0.0,
			"0.023": 0.0,
			"0.024": 0.0,
			"0.025": 0.0
		}
	}
}
