{
	 "smiles": "CCOC(=O)C(C)(C)C(=O)OCC", 
	 "Tm": 242.75, 
	 "num_atms": 29, 
	 "gaussian": { 
		 "optdone": 1, 
		 "sigma_profile": "yes", 
		 "theory": "DFT", 
		 "functional": "B3LYP", 
		 "basiset": "6-31G**", 
		 "properties": { 
			 "R2extent": 3220.769, 
			 "electric_dipole_moment_norm": 3.17855481941, 
			 "electric_quadrupole_moment_norm": 9.17062830345, 
			 "total_energy": -653.533093097, 
			 "HOMO_LUMO_gap": 0.26929, 
			 "cosmo_polarized_energy": -10.31, 
			 "cosmo_cavitation_energy": 32.21, 
			 "cosmo_dispersion_energy": -21.61, 
			 "cosmo_repulsion_energy": 1.79, 
			 "cosmo_total_nonelectrostatic_energy": 12.39, 
			 "SMD_solvation_energy": 7.75 
		},
		"coords": [
			{
				"x": 1.8425276973,
				"y": 2.6870688633,
				"z": 2.3112902995,
				"element": "C" 
			},
			{
				"x": 1.5308045144,
				"y": 1.2303189795,
				"z": 2.6177319402,
				"element": "C" 
			},
			{
				"x": 0.5698315671,
				"y": 0.6876516145,
				"z": 1.6780468091,
				"element": "O" 
			},
			{
				"x": 1.0631597938,
				"y": 0.1952127292,
				"z": 0.5216053713,
				"element": "C" 
			},
			{
				"x": 2.2356008193,
				"y": 0.209297424,
				"z": 0.2204515938,
				"element": "O" 
			},
			{
				"x": -0.0729161017,
				"y": -0.3296277765,
				"z": -0.3743507376,
				"element": "C" 
			},
			{
				"x": -0.8541084501,
				"y": 0.8836455261,
				"z": -0.9203756932,
				"element": "C" 
			},
			{
				"x": 0.5351098513,
				"y": -1.1582034763,
				"z": -1.5213639539,
				"element": "C" 
			},
			{
				"x": -0.9286859291,
				"y": -1.2737067234,
				"z": 0.4853392316,
				"element": "C" 
			},
			{
				"x": -0.4751506168,
				"y": -2.2473981655,
				"z": 1.0492425682,
				"element": "O" 
			},
			{
				"x": -2.2296439773,
				"y": -0.9311901876,
				"z": 0.5182333009,
				"element": "O" 
			},
			{
				"x": -3.0877356378,
				"y": -1.7975848484,
				"z": 1.2993933782,
				"element": "C" 
			},
			{
				"x": -4.498217593,
				"y": -1.2486528336,
				"z": 1.2036204335,
				"element": "C" 
			},
			{
				"x": 0.928519724,
				"y": 3.2883121723,
				"z": 2.300073492,
				"element": "H" 
			},
			{
				"x": 2.3396553499,
				"y": 2.7779325689,
				"z": 1.3424755386,
				"element": "H" 
			},
			{
				"x": 2.5105090835,
				"y": 3.0925853236,
				"z": 3.0785363098,
				"element": "H" 
			},
			{
				"x": 1.0488731982,
				"y": 1.1180724001,
				"z": 3.5916528029,
				"element": "H" 
			},
			{
				"x": 2.4341930419,
				"y": 0.6170152779,
				"z": 2.5865322609,
				"element": "H" 
			},
			{
				"x": -1.287972374,
				"y": 1.4743385333,
				"z": -0.111811751,
				"element": "H" 
			},
			{
				"x": -0.181835492,
				"y": 1.5221542196,
				"z": -1.5021091658,
				"element": "H" 
			},
			{
				"x": -1.6632434462,
				"y": 0.5500188019,
				"z": -1.5742788402,
				"element": "H" 
			},
			{
				"x": 1.064210519,
				"y": -2.0271543036,
				"z": -1.1264442491,
				"element": "H" 
			},
			{
				"x": 1.2436453656,
				"y": -0.5487662923,
				"z": -2.0860453488,
				"element": "H" 
			},
			{
				"x": -0.2546688247,
				"y": -1.5016826161,
				"z": -2.1967778593,
				"element": "H" 
			},
			{
				"x": -3.0115316084,
				"y": -2.8155444259,
				"z": 0.9049175363,
				"element": "H" 
			},
			{
				"x": -2.719731777,
				"y": -1.8162983467,
				"z": 2.3297783712,
				"element": "H" 
			},
			{
				"x": -4.843710089,
				"y": -1.2340421798,
				"z": 0.1658719836,
				"element": "H" 
			},
			{
				"x": -5.1805653239,
				"y": -1.8773344898,
				"z": 1.7841461059,
				"element": "H" 
			},
			{
				"x": -4.5495232843,
				"y": -0.2298377685,
				"z": 1.5982182712,
				"element": "H" 
			}
		],
		 "valence_orbital": [ 
			{
				"type": "occ",
				"energy": -0.33905,
				"method": "rhf"
			},
			{
				"type": "occ",
				"energy": -0.30108,
				"method": "rhf"
			},
			{
				"type": "occ",
				"energy": -0.29839,
				"method": "rhf"
			},
			{
				"type": "occ",
				"energy": -0.27337,
				"method": "rhf"
			},
			{
				"type": "occ",
				"energy": -0.26514,
				"method": "rhf"
			},
			{
				"type": "unocc",
				"energy": 0.00415,
				"method": "rhf"
			},
			{
				"type": "unocc",
				"energy": 0.01878,
				"method": "rhf"
			},
			{
				"type": "unocc",
				"energy": 0.09094,
				"method": "rhf"
			},
			{
				"type": "unocc",
				"energy": 0.10309,
				"method": "rhf"
			},
			{
				"type": "unocc",
				"energy": 0.11477,
				"method": "rhf"
			}
		],
		"cosmo_sigma_profile": { 
			"-0.025": 0.0,
			"-0.024": 0.0,
			"-0.023": 0.0,
			"-0.022": 0.0,
			"-0.021": 0.0,
			"-0.02": 0.0,
			"-0.019": 0.0,
			"-0.018": 0.0,
			"-0.017": 0.0,
			"-0.016": 0.0,
			"-0.015": 0.0,
			"-0.014": 0.0,
			"-0.013": 0.0,
			"-0.012": 0.0,
			"-0.011": 0.0,
			"-0.01": 0.0,
			"-0.009": 0.0,
			"-0.008": 0.0,
			"-0.007": 0.04906704599,
			"-0.006": 2.85544135483,
			"-0.005": 15.7394292215,
			"-0.004": 33.5119660363,
			"-0.003": 33.5763603614,
			"-0.002": 29.5921297232,
			"-0.001": 28.072832854,
			"0.0": 31.0816036161,
			"0.001": 11.9016440974,
			"0.002": 8.40268360695,
			"0.003": 8.14367249382,
			"0.004": 7.91980946671,
			"0.005": 7.65170283771,
			"0.006": 5.68374210253,
			"0.007": 3.42558554654,
			"0.008": 3.62066913026,
			"0.009": 3.40696647594,
			"0.01": 3.22308918265,
			"0.011": 6.75105964768,
			"0.012": 5.99409956156,
			"0.013": 0.232799793962,
			"0.014": 0.0,
			"0.015": 0.0,
			"0.016": 0.0,
			"0.017": 0.0,
			"0.018": 0.0,
			"0.019": 0.0,
			"0.02": 0.0,
			"0.021": 0.0,
			"0.022": 0.0,
			"0.023": 0.0,
			"0.024": 0.0,
			"0.025": 0.0
		}
	}
}
