{
	 "smiles": "O=C(C(=CNC1=CC=CC=N1)C#N)C1=CC=CC=C1", 
	 "Tm": 427.15, 
	 "num_atms": 30, 
	 "gaussian": { 
		 "optdone": 1, 
		 "sigma_profile": "yes", 
		 "theory": "DFT", 
		 "functional": "B3LYP", 
		 "basiset": "6-31G**", 
		 "properties": { 
			 "R2extent": 7373.565, 
			 "electric_dipole_moment_norm": 8.09911125618, 
			 "electric_quadrupole_moment_norm": 30.0693938442, 
			 "total_energy": -817.683716578, 
			 "HOMO_LUMO_gap": 0.15981, 
			 "cosmo_polarized_energy": -20.38, 
			 "cosmo_cavitation_energy": 36.9, 
			 "cosmo_dispersion_energy": -25.42, 
			 "cosmo_repulsion_energy": 1.96, 
			 "cosmo_total_nonelectrostatic_energy": 13.44, 
			 "SMD_solvation_energy": 7.03 
		},
		"coords": [
			{
				"x": -1.4439433865,
				"y": 0.818260433,
				"z": 4.2094657748,
				"element": "O" 
			},
			{
				"x": -1.3203301069,
				"y": 0.574015472,
				"z": 3.014311273,
				"element": "C" 
			},
			{
				"x": -0.5194073737,
				"y": 1.4849733267,
				"z": 2.1577561704,
				"element": "C" 
			},
			{
				"x": -0.6499908876,
				"y": 1.586188691,
				"z": 0.7952483898,
				"element": "C" 
			},
			{
				"x": 0.0124360329,
				"y": 2.4953466425,
				"z": 0.0383631198,
				"element": "N" 
			},
			{
				"x": -0.1169216612,
				"y": 2.6311412621,
				"z": -1.3515605602,
				"element": "C" 
			},
			{
				"x": 0.613366136,
				"y": 3.6295973967,
				"z": -2.0157927681,
				"element": "C" 
			},
			{
				"x": 0.4617982482,
				"y": 3.7348735263,
				"z": -3.3925252922,
				"element": "C" 
			},
			{
				"x": -0.3995374623,
				"y": 2.8567175604,
				"z": -4.0567221726,
				"element": "C" 
			},
			{
				"x": -1.0736519824,
				"y": 1.9043678841,
				"z": -3.2957656904,
				"element": "C" 
			},
			{
				"x": -0.94209163,
				"y": 1.7842652484,
				"z": -1.9691596924,
				"element": "N" 
			},
			{
				"x": 0.3410458777,
				"y": 2.4217648144,
				"z": 2.8106532302,
				"element": "C" 
			},
			{
				"x": 1.0811704315,
				"y": 3.222788831,
				"z": 3.2211651859,
				"element": "N" 
			},
			{
				"x": -1.9940156701,
				"y": -0.6273625689,
				"z": 2.4158034006,
				"element": "C" 
			},
			{
				"x": -3.2201483918,
				"y": -1.0239460928,
				"z": 2.9727292392,
				"element": "C" 
			},
			{
				"x": -3.8773009633,
				"y": -2.1553676296,
				"z": 2.498196431,
				"element": "C" 
			},
			{
				"x": -3.3045243589,
				"y": -2.9219942632,
				"z": 1.4786320339,
				"element": "C" 
			},
			{
				"x": -2.0715787517,
				"y": -2.5530293231,
				"z": 0.939360015,
				"element": "C" 
			},
			{
				"x": -1.419516446,
				"y": -1.4086022839,
				"z": 1.4015338288,
				"element": "C" 
			},
			{
				"x": -1.3195590412,
				"y": 0.9437280841,
				"z": 0.2373329949,
				"element": "H" 
			},
			{
				"x": 0.6412532562,
				"y": 3.1323012245,
				"z": 0.5151753746,
				"element": "H" 
			},
			{
				"x": 1.2724444141,
				"y": 4.2953492724,
				"z": -1.4667206776,
				"element": "H" 
			},
			{
				"x": 1.0096060732,
				"y": 4.4949285842,
				"z": -3.9413588689,
				"element": "H" 
			},
			{
				"x": -0.5443894055,
				"y": 2.9085398041,
				"z": -5.1300437032,
				"element": "H" 
			},
			{
				"x": -1.7548303221,
				"y": 1.199510253,
				"z": -3.7679507235,
				"element": "H" 
			},
			{
				"x": -3.6370829851,
				"y": -0.431275394,
				"z": 3.7802411811,
				"element": "H" 
			},
			{
				"x": -4.8322973144,
				"y": -2.4459176775,
				"z": 2.9262554332,
				"element": "H" 
			},
			{
				"x": -3.8140243707,
				"y": -3.8090520932,
				"z": 1.1132108637,
				"element": "H" 
			},
			{
				"x": -1.6124000968,
				"y": -3.1584025759,
				"z": 0.1633287413,
				"element": "H" 
			},
			{
				"x": -0.4477778618,
				"y": -1.1447084087,
				"z": 0.9967374679,
				"element": "H" 
			}
		],
		 "valence_orbital": [ 
			{
				"type": "occ",
				"energy": -0.28713,
				"method": "rhf"
			},
			{
				"type": "occ",
				"energy": -0.26354,
				"method": "rhf"
			},
			{
				"type": "occ",
				"energy": -0.26106,
				"method": "rhf"
			},
			{
				"type": "occ",
				"energy": -0.2469,
				"method": "rhf"
			},
			{
				"type": "occ",
				"energy": -0.2299,
				"method": "rhf"
			},
			{
				"type": "unocc",
				"energy": -0.07009,
				"method": "rhf"
			},
			{
				"type": "unocc",
				"energy": -0.04367,
				"method": "rhf"
			},
			{
				"type": "unocc",
				"energy": -0.03422,
				"method": "rhf"
			},
			{
				"type": "unocc",
				"energy": -0.0114,
				"method": "rhf"
			},
			{
				"type": "unocc",
				"energy": -0.00268,
				"method": "rhf"
			}
		],
		"cosmo_sigma_profile": { 
			"-0.025": 0.0,
			"-0.024": 0.0,
			"-0.023": 0.0,
			"-0.022": 0.0,
			"-0.021": 0.0,
			"-0.02": 0.0,
			"-0.019": 0.0,
			"-0.018": 0.0,
			"-0.017": 0.0,
			"-0.016": 0.234946834088,
			"-0.015": 0.968480903087,
			"-0.014": 1.00267116236,
			"-0.013": 1.29329590895,
			"-0.012": 0.871789859634,
			"-0.011": 1.23478829366,
			"-0.01": 1.01703196665,
			"-0.009": 2.23200465321,
			"-0.008": 3.70800622157,
			"-0.007": 10.9601893281,
			"-0.006": 20.4510348043,
			"-0.005": 22.9010708757,
			"-0.004": 21.4888994733,
			"-0.003": 20.0698740657,
			"-0.002": 20.8574965961,
			"-0.001": 20.7594275471,
			"0.0": 19.0980039939,
			"0.001": 20.9812675475,
			"0.002": 23.0472492516,
			"0.003": 16.7306829719,
			"0.004": 16.2418591316,
			"0.005": 5.93065934081,
			"0.006": 4.89909194976,
			"0.007": 6.58783497517,
			"0.008": 6.64529126367,
			"0.009": 5.71766111533,
			"0.01": 6.24760065188,
			"0.011": 5.4726864472,
			"0.012": 7.0764378886,
			"0.013": 3.63650727847,
			"0.014": 0.204435587137,
			"0.015": 0.0,
			"0.016": 0.0,
			"0.017": 0.0,
			"0.018": 0.0,
			"0.019": 0.0,
			"0.02": 0.0,
			"0.021": 0.0,
			"0.022": 0.0,
			"0.023": 0.0,
			"0.024": 0.0,
			"0.025": 0.0
		}
	}
}
