{
	 "smiles": "C1CCC2=C(C1)NN=C2", 
	 "Tm": 355.15, 
	 "num_atms": 19, 
	 "gaussian": { 
		 "optdone": 1, 
		 "sigma_profile": "yes", 
		 "theory": "DFT", 
		 "functional": "B3LYP", 
		 "basiset": "6-31G**", 
		 "properties": { 
			 "R2extent": 1236.4512, 
			 "electric_dipole_moment_norm": 2.76549110648, 
			 "electric_quadrupole_moment_norm": 6.9004626642, 
			 "total_energy": -382.266299863, 
			 "HOMO_LUMO_gap": 0.24939, 
			 "cosmo_polarized_energy": -8.7, 
			 "cosmo_cavitation_energy": 20.78, 
			 "cosmo_dispersion_energy": -16.12, 
			 "cosmo_repulsion_energy": 1.33, 
			 "cosmo_total_nonelectrostatic_energy": 6.0, 
			 "SMD_solvation_energy": 2.01 
		},
		"coords": [
			{
				"x": -0.756832263,
				"y": -0.6162806715,
				"z": -2.5048674214,
				"element": "C" 
			},
			{
				"x": -0.5439000375,
				"y": 0.9081362223,
				"z": -2.5443591808,
				"element": "C" 
			},
			{
				"x": 0.7474229246,
				"y": 1.3328290559,
				"z": -1.81318767,
				"element": "C" 
			},
			{
				"x": 0.8470982705,
				"y": 0.6242158854,
				"z": -0.4909101575,
				"element": "C" 
			},
			{
				"x": 0.0862000123,
				"y": -0.4901683383,
				"z": -0.1828238162,
				"element": "C" 
			},
			{
				"x": -0.939867961,
				"y": -1.1360970899,
				"z": -1.0621256071,
				"element": "C" 
			},
			{
				"x": 0.445622154,
				"y": -0.8588140104,
				"z": 1.0770474573,
				"element": "N" 
			},
			{
				"x": 1.3960864608,
				"y": -0.0582748967,
				"z": 1.6163094407,
				"element": "N" 
			},
			{
				"x": 1.639633436,
				"y": 0.8406931789,
				"z": 0.6632278947,
				"element": "C" 
			},
			{
				"x": 0.1120542378,
				"y": -1.112398287,
				"z": -2.95654631,
				"element": "H" 
			},
			{
				"x": -1.6284936468,
				"y": -0.8938203542,
				"z": -3.1075739718,
				"element": "H" 
			},
			{
				"x": -0.5143154175,
				"y": 1.2531741923,
				"z": -3.5839541552,
				"element": "H" 
			},
			{
				"x": -1.4045872327,
				"y": 1.4010777708,
				"z": -2.0726377852,
				"element": "H" 
			},
			{
				"x": 1.6180281167,
				"y": 1.0933577805,
				"z": -2.441132967,
				"element": "H" 
			},
			{
				"x": 0.7616658151,
				"y": 2.4213821984,
				"z": -1.6793812302,
				"element": "H" 
			},
			{
				"x": -0.8566674524,
				"y": -2.2303487085,
				"z": -1.0376397807,
				"element": "H" 
			},
			{
				"x": -1.9523554057,
				"y": -0.8948177079,
				"z": -0.7067549307,
				"element": "H" 
			},
			{
				"x": 0.0918568408,
				"y": -1.6291109252,
				"z": 1.6225087172,
				"element": "H" 
			},
			{
				"x": 2.376151148,
				"y": 1.614564705,
				"z": 0.839601474,
				"element": "H" 
			}
		],
		 "valence_orbital": [ 
			{
				"type": "occ",
				"energy": -0.33049,
				"method": "rhf"
			},
			{
				"type": "occ",
				"energy": -0.32055,
				"method": "rhf"
			},
			{
				"type": "occ",
				"energy": -0.27317,
				"method": "rhf"
			},
			{
				"type": "occ",
				"energy": -0.24107,
				"method": "rhf"
			},
			{
				"type": "occ",
				"energy": -0.22068,
				"method": "rhf"
			},
			{
				"type": "unocc",
				"energy": 0.02871,
				"method": "rhf"
			},
			{
				"type": "unocc",
				"energy": 0.07407,
				"method": "rhf"
			},
			{
				"type": "unocc",
				"energy": 0.08927,
				"method": "rhf"
			},
			{
				"type": "unocc",
				"energy": 0.09331,
				"method": "rhf"
			},
			{
				"type": "unocc",
				"energy": 0.12689,
				"method": "rhf"
			}
		],
		"cosmo_sigma_profile": { 
			"-0.025": 0.0,
			"-0.024": 0.0,
			"-0.023": 0.0,
			"-0.022": 0.0,
			"-0.021": 0.0,
			"-0.02": 0.0,
			"-0.019": 0.0,
			"-0.018": 0.0,
			"-0.017": 0.0,
			"-0.016": 0.455508436631,
			"-0.015": 1.45225941487,
			"-0.014": 1.16099006696,
			"-0.013": 1.17050594047,
			"-0.012": 0.878532108178,
			"-0.011": 0.860614665762,
			"-0.01": 0.811239122138,
			"-0.009": 1.29858065443,
			"-0.008": 1.10136342508,
			"-0.007": 0.964596097903,
			"-0.006": 2.47615439183,
			"-0.005": 3.81610638972,
			"-0.004": 6.71992075621,
			"-0.003": 16.5400348803,
			"-0.002": 24.2520839062,
			"-0.001": 25.966503929,
			"0.0": 20.2296891317,
			"0.001": 10.447962638,
			"0.002": 5.06006546658,
			"0.003": 4.76274506191,
			"0.004": 4.2123913299,
			"0.005": 5.17445525646,
			"0.006": 5.71931941934,
			"0.007": 3.03956324455,
			"0.008": 2.54525814105,
			"0.009": 1.48785488082,
			"0.01": 1.39472202848,
			"0.011": 1.40061276257,
			"0.012": 1.71286848584,
			"0.013": 1.15267618005,
			"0.014": 1.08919442444,
			"0.015": 1.45975751792,
			"0.016": 1.07387533004,
			"0.017": 0.792750603084,
			"0.018": 0.0426473817003,
			"0.019": 0.0,
			"0.02": 0.0,
			"0.021": 0.0,
			"0.022": 0.0,
			"0.023": 0.0,
			"0.024": 0.0,
			"0.025": 0.0
		}
	}
}
