{
	 "smiles": "CC1=CC(COC2=C(C=CC=C2)C(O)=O)=CC=C1", 
	 "Tm": 429.15, 
	 "num_atms": 32, 
	 "gaussian": { 
		 "optdone": 1, 
		 "sigma_profile": "yes", 
		 "theory": "DFT", 
		 "functional": "B3LYP", 
		 "basiset": "6-31G**", 
		 "properties": { 
			 "R2extent": 5819.7071, 
			 "electric_dipole_moment_norm": 7.44101129686, 
			 "electric_quadrupole_moment_norm": 23.3687140264, 
			 "total_energy": -805.720125726, 
			 "HOMO_LUMO_gap": 0.2, 
			 "cosmo_polarized_energy": -15.04, 
			 "cosmo_cavitation_energy": 35.88, 
			 "cosmo_dispersion_energy": -25.37, 
			 "cosmo_repulsion_energy": 1.96, 
			 "cosmo_total_nonelectrostatic_energy": 12.48, 
			 "SMD_solvation_energy": 7.39 
		},
		"coords": [
			{
				"x": 1.6387901691,
				"y": -4.256489633,
				"z": -1.0623981891,
				"element": "C" 
			},
			{
				"x": 1.3179592241,
				"y": -3.1176946391,
				"z": -0.1229297088,
				"element": "C" 
			},
			{
				"x": 0.220976534,
				"y": -2.2791677726,
				"z": -0.3565343088,
				"element": "C" 
			},
			{
				"x": -0.1042122679,
				"y": -1.2385478947,
				"z": 0.5207040156,
				"element": "C" 
			},
			{
				"x": -1.3397722435,
				"y": -0.4021404632,
				"z": 0.2617628575,
				"element": "C" 
			},
			{
				"x": -1.2296422399,
				"y": 0.9566365974,
				"z": 0.7138036823,
				"element": "O" 
			},
			{
				"x": -0.5567862287,
				"y": 1.8968349986,
				"z": -0.0387157524,
				"element": "C" 
			},
			{
				"x": -0.6715623053,
				"y": 3.2446558534,
				"z": 0.3704030417,
				"element": "C" 
			},
			{
				"x": -0.0028497523,
				"y": 4.2219578556,
				"z": -0.3786284344,
				"element": "C" 
			},
			{
				"x": 0.7550472763,
				"y": 3.8941180757,
				"z": -1.4979092033,
				"element": "C" 
			},
			{
				"x": 0.859014213,
				"y": 2.5573745589,
				"z": -1.8818678053,
				"element": "C" 
			},
			{
				"x": 0.2100564435,
				"y": 1.5573829454,
				"z": -1.1573053834,
				"element": "C" 
			},
			{
				"x": -1.4632756289,
				"y": 3.7459353062,
				"z": 1.5547373583,
				"element": "C" 
			},
			{
				"x": -2.1431993112,
				"y": 2.8434832974,
				"z": 2.2870087831,
				"element": "O" 
			},
			{
				"x": -1.4946553093,
				"y": 4.92231084,
				"z": 1.8464432293,
				"element": "O" 
			},
			{
				"x": 0.6868319165,
				"y": -1.0224728881,
				"z": 1.6533101448,
				"element": "C" 
			},
			{
				"x": 1.7904612158,
				"y": -1.8413231268,
				"z": 1.8913405029,
				"element": "C" 
			},
			{
				"x": 2.1022049062,
				"y": -2.8797335179,
				"z": 1.013679552,
				"element": "C" 
			},
			{
				"x": 1.2044168215,
				"y": -4.0946959722,
				"z": -2.0531576703,
				"element": "H" 
			},
			{
				"x": 2.7191191429,
				"y": -4.3835795297,
				"z": -1.1825747403,
				"element": "H" 
			},
			{
				"x": 1.2418478593,
				"y": -5.2059284609,
				"z": -0.6821315111,
				"element": "H" 
			},
			{
				"x": -0.3906621609,
				"y": -2.442575175,
				"z": -1.2424750152,
				"element": "H" 
			},
			{
				"x": -1.6132417767,
				"y": -0.416297361,
				"z": -0.7996730464,
				"element": "H" 
			},
			{
				"x": -2.1915044174,
				"y": -0.7922195547,
				"z": 0.8284675307,
				"element": "H" 
			},
			{
				"x": -0.1071315447,
				"y": 5.2487175222,
				"z": -0.0454553304,
				"element": "H" 
			},
			{
				"x": 1.2619977347,
				"y": 4.6704313454,
				"z": -2.0618167473,
				"element": "H" 
			},
			{
				"x": 1.4539252837,
				"y": 2.2797504285,
				"z": -2.747234481,
				"element": "H" 
			},
			{
				"x": 0.3266824439,
				"y": 0.5217617965,
				"z": -1.4496333997,
				"element": "H" 
			},
			{
				"x": -2.0091926848,
				"y": 1.9537507362,
				"z": 1.9094218534,
				"element": "H" 
			},
			{
				"x": 0.4469110965,
				"y": -0.2109589106,
				"z": 2.3330432177,
				"element": "H" 
			},
			{
				"x": 2.4121665836,
				"y": -1.6673220147,
				"z": 2.7648970803,
				"element": "H" 
			},
			{
				"x": 2.966479007,
				"y": -3.5097552431,
				"z": 1.2086178774,
				"element": "H" 
			}
		],
		 "valence_orbital": [ 
			{
				"type": "occ",
				"energy": -0.26315,
				"method": "rhf"
			},
			{
				"type": "occ",
				"energy": -0.26016,
				"method": "rhf"
			},
			{
				"type": "occ",
				"energy": -0.25813,
				"method": "rhf"
			},
			{
				"type": "occ",
				"energy": -0.25214,
				"method": "rhf"
			},
			{
				"type": "occ",
				"energy": -0.24194,
				"method": "rhf"
			},
			{
				"type": "unocc",
				"energy": -0.04194,
				"method": "rhf"
			},
			{
				"type": "unocc",
				"energy": -0.02001,
				"method": "rhf"
			},
			{
				"type": "unocc",
				"energy": -0.01461,
				"method": "rhf"
			},
			{
				"type": "unocc",
				"energy": -0.00427,
				"method": "rhf"
			},
			{
				"type": "unocc",
				"energy": 0.06325,
				"method": "rhf"
			}
		],
		"cosmo_sigma_profile": { 
			"-0.025": 0.0,
			"-0.024": 0.0,
			"-0.023": 0.0,
			"-0.022": 0.0,
			"-0.021": 0.0,
			"-0.02": 0.0,
			"-0.019": 0.0,
			"-0.018": 0.0,
			"-0.017": 0.0,
			"-0.016": 0.0,
			"-0.015": 0.0,
			"-0.014": 0.0,
			"-0.013": 0.0,
			"-0.012": 0.0,
			"-0.011": 0.0,
			"-0.01": 0.124583665667,
			"-0.009": 1.08190541042,
			"-0.008": 1.35031763076,
			"-0.007": 9.34420647662,
			"-0.006": 15.7327825079,
			"-0.005": 23.6765415609,
			"-0.004": 27.9158323873,
			"-0.003": 24.0062706593,
			"-0.002": 23.23826435,
			"-0.001": 21.020291498,
			"0.0": 22.8255684106,
			"0.001": 18.0617930132,
			"0.002": 18.2306873489,
			"0.003": 20.3013805786,
			"0.004": 16.5818183508,
			"0.005": 9.89551791702,
			"0.006": 6.63023773717,
			"0.007": 2.33610100993,
			"0.008": 2.5996802277,
			"0.009": 3.10190411013,
			"0.01": 2.94590470082,
			"0.011": 5.36355675585,
			"0.012": 6.04882171805,
			"0.013": 3.18328403222,
			"0.014": 0.883938389001,
			"0.015": 0.0,
			"0.016": 0.0,
			"0.017": 0.0,
			"0.018": 0.0,
			"0.019": 0.0,
			"0.02": 0.0,
			"0.021": 0.0,
			"0.022": 0.0,
			"0.023": 0.0,
			"0.024": 0.0,
			"0.025": 0.0
		}
	}
}
