{
	 "smiles": "O=C1CSC(=S)N1", 
	 "Tm": 443.15, 
	 "num_atms": 10, 
	 "gaussian": { 
		 "optdone": 1, 
		 "sigma_profile": "yes", 
		 "theory": "DFT", 
		 "functional": "B3LYP", 
		 "basiset": "6-31G**", 
		 "properties": { 
			 "R2extent": 1501.8807, 
			 "electric_dipole_moment_norm": 2.26521771581, 
			 "electric_quadrupole_moment_norm": 14.0305768324, 
			 "total_energy": -1042.4907855, 
			 "HOMO_LUMO_gap": 0.16365, 
			 "cosmo_polarized_energy": -12.55, 
			 "cosmo_cavitation_energy": 17.9, 
			 "cosmo_dispersion_energy": -14.57, 
			 "cosmo_repulsion_energy": 1.14, 
			 "cosmo_total_nonelectrostatic_energy": 4.47, 
			 "SMD_solvation_energy": 2.59 
		},
		"coords": [
			{
				"x": 0.8007261139,
				"y": -1.3077404149,
				"z": -0.121154965,
				"element": "O" 
			},
			{
				"x": 0.2767546418,
				"y": -0.2225180948,
				"z": -0.2236657953,
				"element": "C" 
			},
			{
				"x": 0.150660165,
				"y": 0.5863286288,
				"z": -1.5131637192,
				"element": "C" 
			},
			{
				"x": -0.7231413457,
				"y": 2.142735247,
				"z": -1.0949430281,
				"element": "S" 
			},
			{
				"x": -0.8769471122,
				"y": 1.7097641346,
				"z": 0.6178206511,
				"element": "C" 
			},
			{
				"x": -1.5939551343,
				"y": 2.6396364421,
				"z": 1.7646879711,
				"element": "S" 
			},
			{
				"x": -0.3032372879,
				"y": 0.47608999,
				"z": 0.8311461082,
				"element": "N" 
			},
			{
				"x": 1.1472022891,
				"y": 0.7901674302,
				"z": -1.9125709126,
				"element": "H" 
			},
			{
				"x": -0.4096578401,
				"y": 0.0071862025,
				"z": -2.2512710039,
				"element": "H" 
			},
			{
				"x": -0.3057044897,
				"y": 0.0783504343,
				"z": 1.7634146938,
				"element": "H" 
			}
		],
		 "valence_orbital": [ 
			{
				"type": "occ",
				"energy": -0.38693,
				"method": "rhf"
			},
			{
				"type": "occ",
				"energy": -0.29943,
				"method": "rhf"
			},
			{
				"type": "occ",
				"energy": -0.29192,
				"method": "rhf"
			},
			{
				"type": "occ",
				"energy": -0.25579,
				"method": "rhf"
			},
			{
				"type": "occ",
				"energy": -0.24011,
				"method": "rhf"
			},
			{
				"type": "unocc",
				"energy": -0.07646,
				"method": "rhf"
			},
			{
				"type": "unocc",
				"energy": -0.01211,
				"method": "rhf"
			},
			{
				"type": "unocc",
				"energy": -0.00347,
				"method": "rhf"
			},
			{
				"type": "unocc",
				"energy": 0.03856,
				"method": "rhf"
			},
			{
				"type": "unocc",
				"energy": 0.06349,
				"method": "rhf"
			}
		],
		"cosmo_sigma_profile": { 
			"-0.025": 0.0,
			"-0.024": 0.0,
			"-0.023": 0.0,
			"-0.022": 0.0,
			"-0.021": 0.0,
			"-0.02": 0.0,
			"-0.019": 0.0,
			"-0.018": 0.114757644259,
			"-0.017": 0.794064251785,
			"-0.016": 1.19838154242,
			"-0.015": 0.848579242241,
			"-0.014": 0.825301496589,
			"-0.013": 0.917724150508,
			"-0.012": 0.5433542066,
			"-0.011": 1.16497149227,
			"-0.01": 3.83334378356,
			"-0.009": 7.80730452673,
			"-0.008": 7.40947497228,
			"-0.007": 7.02391883931,
			"-0.006": 6.32909305192,
			"-0.005": 5.37012482734,
			"-0.004": 5.55443544155,
			"-0.003": 5.49860264276,
			"-0.002": 3.41824782665,
			"-0.001": 4.31859390617,
			"0.0": 6.0113202475,
			"0.001": 9.31131621877,
			"0.002": 9.98725836367,
			"0.003": 8.47064941355,
			"0.004": 9.80487608025,
			"0.005": 7.73322258929,
			"0.006": 7.23838014487,
			"0.007": 6.22720044734,
			"0.008": 5.77633500019,
			"0.009": 5.13639647284,
			"0.01": 4.60335129058,
			"0.011": 4.67782568555,
			"0.012": 0.691778220647,
			"0.013": 0.0,
			"0.014": 0.0,
			"0.015": 0.0,
			"0.016": 0.0,
			"0.017": 0.0,
			"0.018": 0.0,
			"0.019": 0.0,
			"0.02": 0.0,
			"0.021": 0.0,
			"0.022": 0.0,
			"0.023": 0.0,
			"0.024": 0.0,
			"0.025": 0.0
		}
	}
}
