{
	 "smiles": "CC(=O)CN1C(=O)C2=C(C=CC=C2)S1(=O)=O", 
	 "Tm": 418.15, 
	 "num_atms": 25, 
	 "gaussian": { 
		 "optdone": 1, 
		 "sigma_profile": "yes", 
		 "theory": "DFT", 
		 "functional": "B3LYP", 
		 "basiset": "6-31G**", 
		 "properties": { 
			 "R2extent": 4259.0848, 
			 "electric_dipole_moment_norm": 1.78332756666, 
			 "electric_quadrupole_moment_norm": 27.2032456108, 
			 "total_energy": -1140.25395527, 
			 "HOMO_LUMO_gap": 0.18197, 
			 "cosmo_polarized_energy": -20.17, 
			 "cosmo_cavitation_energy": 31.38, 
			 "cosmo_dispersion_energy": -22.41, 
			 "cosmo_repulsion_energy": 1.69, 
			 "cosmo_total_nonelectrostatic_energy": 10.66, 
			 "SMD_solvation_energy": 5.38 
		},
		"coords": [
			{
				"x": -0.7181519382,
				"y": -2.3560741371,
				"z": 2.8041484989,
				"element": "C" 
			},
			{
				"x": -0.304852428,
				"y": -1.470559326,
				"z": 1.6477545058,
				"element": "C" 
			},
			{
				"x": 0.6839094351,
				"y": -0.7726735282,
				"z": 1.6629730879,
				"element": "O" 
			},
			{
				"x": -1.2486657458,
				"y": -1.4914670536,
				"z": 0.4289149174,
				"element": "C" 
			},
			{
				"x": -0.6968941143,
				"y": -0.8067609424,
				"z": -0.7205679494,
				"element": "N" 
			},
			{
				"x": -0.6115242935,
				"y": 0.5856671408,
				"z": -0.7737735831,
				"element": "C" 
			},
			{
				"x": -1.2297933103,
				"y": 1.3342261559,
				"z": -0.0418035736,
				"element": "O" 
			},
			{
				"x": 0.316412126,
				"y": 0.9746445334,
				"z": -1.8729532362,
				"element": "C" 
			},
			{
				"x": 0.9080363841,
				"y": -0.1066984373,
				"z": -2.5225601671,
				"element": "C" 
			},
			{
				"x": 1.800884315,
				"y": 0.0500742456,
				"z": -3.5736006928,
				"element": "C" 
			},
			{
				"x": 2.1060133384,
				"y": 1.3592280872,
				"z": -3.9616231405,
				"element": "C" 
			},
			{
				"x": 1.5232751111,
				"y": 2.4570655723,
				"z": -3.3160392364,
				"element": "C" 
			},
			{
				"x": 0.6205748761,
				"y": 2.2748459113,
				"z": -2.2658185786,
				"element": "C" 
			},
			{
				"x": 0.3239000763,
				"y": -1.6458316378,
				"z": -1.8311933766,
				"element": "S" 
			},
			{
				"x": -0.5067656092,
				"y": -2.3740930125,
				"z": -2.7906181672,
				"element": "O" 
			},
			{
				"x": 1.3607486737,
				"y": -2.3721091554,
				"z": -1.0989477783,
				"element": "O" 
			},
			{
				"x": -0.5688459089,
				"y": -3.4075149407,
				"z": 2.5300063835,
				"element": "H" 
			},
			{
				"x": -1.780484523,
				"y": -2.2310925367,
				"z": 3.0417002701,
				"element": "H" 
			},
			{
				"x": -0.1100913246,
				"y": -2.1252147793,
				"z": 3.6793870634,
				"element": "H" 
			},
			{
				"x": -2.1753177138,
				"y": -0.9759094852,
				"z": 0.7068351529,
				"element": "H" 
			},
			{
				"x": -1.51630826,
				"y": -2.5169298742,
				"z": 0.1552107517,
				"element": "H" 
			},
			{
				"x": 2.2477326961,
				"y": -0.8038265944,
				"z": -4.0712960252,
				"element": "H" 
			},
			{
				"x": 2.8056392986,
				"y": 1.5235130107,
				"z": -4.775241524,
				"element": "H" 
			},
			{
				"x": 1.7779478814,
				"y": 3.4621305248,
				"z": -3.637610048,
				"element": "H" 
			},
			{
				"x": 0.1580209576,
				"y": 3.1115602588,
				"z": -1.7531835545,
				"element": "H" 
			}
		],
		 "valence_orbital": [ 
			{
				"type": "occ",
				"energy": -0.28843,
				"method": "rhf"
			},
			{
				"type": "occ",
				"energy": -0.28675,
				"method": "rhf"
			},
			{
				"type": "occ",
				"energy": -0.28425,
				"method": "rhf"
			},
			{
				"type": "occ",
				"energy": -0.28134,
				"method": "rhf"
			},
			{
				"type": "occ",
				"energy": -0.25496,
				"method": "rhf"
			},
			{
				"type": "unocc",
				"energy": -0.07299,
				"method": "rhf"
			},
			{
				"type": "unocc",
				"energy": -0.04802,
				"method": "rhf"
			},
			{
				"type": "unocc",
				"energy": -0.02324,
				"method": "rhf"
			},
			{
				"type": "unocc",
				"energy": 0.03286,
				"method": "rhf"
			},
			{
				"type": "unocc",
				"energy": 0.03534,
				"method": "rhf"
			}
		],
		"cosmo_sigma_profile": { 
			"-0.025": 0.0,
			"-0.024": 0.0,
			"-0.023": 0.0,
			"-0.022": 0.0,
			"-0.021": 0.0,
			"-0.02": 0.0,
			"-0.019": 0.0,
			"-0.018": 0.0,
			"-0.017": 0.0,
			"-0.016": 0.0,
			"-0.015": 0.0,
			"-0.014": 0.0,
			"-0.013": 0.0,
			"-0.012": 0.0,
			"-0.011": 0.141837758186,
			"-0.01": 3.50942272117,
			"-0.009": 7.58822918007,
			"-0.008": 13.3650833193,
			"-0.007": 17.6453578116,
			"-0.006": 16.3448292627,
			"-0.005": 13.1498373029,
			"-0.004": 13.1434867647,
			"-0.003": 13.6469466401,
			"-0.002": 18.7651280989,
			"-0.001": 18.3042306918,
			"0.0": 17.2495930765,
			"0.001": 14.7628005951,
			"0.002": 6.93421358767,
			"0.003": 5.20375910367,
			"0.004": 4.29140921387,
			"0.005": 5.00747841018,
			"0.006": 4.70568584002,
			"0.007": 7.50518426742,
			"0.008": 8.67402334805,
			"0.009": 14.7572205696,
			"0.01": 16.3014228891,
			"0.011": 8.51466443276,
			"0.012": 1.77283831833,
			"0.013": 0.027666749387,
			"0.014": 0.0,
			"0.015": 0.0,
			"0.016": 0.0,
			"0.017": 0.0,
			"0.018": 0.0,
			"0.019": 0.0,
			"0.02": 0.0,
			"0.021": 0.0,
			"0.022": 0.0,
			"0.023": 0.0,
			"0.024": 0.0,
			"0.025": 0.0
		}
	}
}
