{
	 "smiles": "ClCC(=O)NC1=CC=CC=C1", 
	 "Tm": 360.15, 
	 "num_atms": 19, 
	 "gaussian": { 
		 "optdone": 1, 
		 "sigma_profile": "yes", 
		 "theory": "DFT", 
		 "functional": "B3LYP", 
		 "basiset": "6-31G**", 
		 "properties": { 
			 "R2extent": 3062.6084, 
			 "electric_dipole_moment_norm": 1.52555406656, 
			 "electric_quadrupole_moment_norm": 7.8807077823, 
			 "total_energy": -899.860085482, 
			 "HOMO_LUMO_gap": 0.2066, 
			 "cosmo_polarized_energy": -9.87, 
			 "cosmo_cavitation_energy": 24.78, 
			 "cosmo_dispersion_energy": -18.64, 
			 "cosmo_repulsion_energy": 1.5, 
			 "cosmo_total_nonelectrostatic_energy": 7.64, 
			 "SMD_solvation_energy": 4.51 
		},
		"coords": [
			{
				"x": -0.1649121574,
				"y": -1.2963768948,
				"z": -2.7934760159,
				"element": "Cl" 
			},
			{
				"x": -1.895751274,
				"y": -1.1134994486,
				"z": -2.2696854124,
				"element": "C" 
			},
			{
				"x": -2.1557374142,
				"y": -0.4335196134,
				"z": -0.9192244874,
				"element": "C" 
			},
			{
				"x": -3.3278989531,
				"y": -0.3201256549,
				"z": -0.5862339541,
				"element": "O" 
			},
			{
				"x": -1.0689925547,
				"y": -0.0189492277,
				"z": -0.2145996903,
				"element": "N" 
			},
			{
				"x": -1.0285808855,
				"y": 0.6273963935,
				"z": 1.0425522708,
				"element": "C" 
			},
			{
				"x": -2.1790737323,
				"y": 0.94985217,
				"z": 1.7773661316,
				"element": "C" 
			},
			{
				"x": -2.041588496,
				"y": 1.5884846781,
				"z": 3.0103165003,
				"element": "C" 
			},
			{
				"x": -0.7843535932,
				"y": 1.9106350284,
				"z": 3.5227883538,
				"element": "C" 
			},
			{
				"x": 0.3565468271,
				"y": 1.5866911012,
				"z": 2.7858531539,
				"element": "C" 
			},
			{
				"x": 0.2379266128,
				"y": 0.9494121826,
				"z": 1.5539531233,
				"element": "C" 
			},
			{
				"x": -2.3263513611,
				"y": -2.1143562713,
				"z": -2.2341317274,
				"element": "H" 
			},
			{
				"x": -2.4046114317,
				"y": -0.5378387096,
				"z": -3.0430250194,
				"element": "H" 
			},
			{
				"x": -0.171552342,
				"y": -0.1969325065,
				"z": -0.6473137633,
				"element": "H" 
			},
			{
				"x": -3.1526916486,
				"y": 0.700120346,
				"z": 1.3801866588,
				"element": "H" 
			},
			{
				"x": -2.936299654,
				"y": 1.8355885725,
				"z": 3.5746455484,
				"element": "H" 
			},
			{
				"x": -0.6933956271,
				"y": 2.4076231951,
				"z": 4.4837053733,
				"element": "H" 
			},
			{
				"x": 1.3437275708,
				"y": 1.8293249836,
				"z": 3.1681604092,
				"element": "H" 
			},
			{
				"x": 1.1295901141,
				"y": 0.6989696757,
				"z": 0.983562547,
				"element": "H" 
			}
		],
		 "valence_orbital": [ 
			{
				"type": "occ",
				"energy": -0.32248,
				"method": "rhf"
			},
			{
				"type": "occ",
				"energy": -0.30829,
				"method": "rhf"
			},
			{
				"type": "occ",
				"energy": -0.26626,
				"method": "rhf"
			},
			{
				"type": "occ",
				"energy": -0.25493,
				"method": "rhf"
			},
			{
				"type": "occ",
				"energy": -0.22776,
				"method": "rhf"
			},
			{
				"type": "unocc",
				"energy": -0.02116,
				"method": "rhf"
			},
			{
				"type": "unocc",
				"energy": -0.00521,
				"method": "rhf"
			},
			{
				"type": "unocc",
				"energy": 0.00701,
				"method": "rhf"
			},
			{
				"type": "unocc",
				"energy": 0.03725,
				"method": "rhf"
			},
			{
				"type": "unocc",
				"energy": 0.0838,
				"method": "rhf"
			}
		],
		"cosmo_sigma_profile": { 
			"-0.025": 0.0,
			"-0.024": 0.0,
			"-0.023": 0.0,
			"-0.022": 0.0,
			"-0.021": 0.0,
			"-0.02": 0.0,
			"-0.019": 0.0,
			"-0.018": 0.0,
			"-0.017": 0.0,
			"-0.016": 0.0,
			"-0.015": 0.0,
			"-0.014": 0.00913811970919,
			"-0.013": 0.688523034408,
			"-0.012": 0.812407043552,
			"-0.011": 1.09286577215,
			"-0.01": 1.61200937913,
			"-0.009": 4.95917627246,
			"-0.008": 5.65754978635,
			"-0.007": 5.48830380063,
			"-0.006": 9.59163908074,
			"-0.005": 14.5470434746,
			"-0.004": 13.8981879385,
			"-0.003": 12.376267682,
			"-0.002": 9.10819227558,
			"-0.001": 12.6946460035,
			"0.0": 11.6731757902,
			"0.001": 13.1063566098,
			"0.002": 13.0807771135,
			"0.003": 15.3053772826,
			"0.004": 15.3231106476,
			"0.005": 18.2725718894,
			"0.006": 7.89519151453,
			"0.007": 1.31407342045,
			"0.008": 1.30005652257,
			"0.009": 1.69889161217,
			"0.01": 1.68580151369,
			"0.011": 2.07025482635,
			"0.012": 3.47016403807,
			"0.013": 1.81670743913,
			"0.014": 0.0704271426299,
			"0.015": 0.0,
			"0.016": 0.0,
			"0.017": 0.0,
			"0.018": 0.0,
			"0.019": 0.0,
			"0.02": 0.0,
			"0.021": 0.0,
			"0.022": 0.0,
			"0.023": 0.0,
			"0.024": 0.0,
			"0.025": 0.0
		}
	}
}
