{
	 "smiles": "COC1=C(OC)C(Cl)=C(C=CC(O)=O)C=C1", 
	 "Tm": 491.15, 
	 "num_atms": 27, 
	 "gaussian": { 
		 "optdone": 1, 
		 "sigma_profile": "no", 
		 "theory": "DFT", 
		 "functional": "B3LYP", 
		 "basiset": "6-31G**", 
		 "properties": { 
			 "R2extent": 5806.2711, 
			 "electric_dipole_moment_norm": 3.6209556211, 
			 "electric_quadrupole_moment_norm": 11.1804399408, 
			 "total_energy": -1186.85237338, 
			 "HOMO_LUMO_gap": 0.16299, 
			 "cosmo_polarized_energy": -11.51, 
			 "cosmo_cavitation_energy": 33.64, 
			 "cosmo_dispersion_energy": -23.87, 
			 "cosmo_repulsion_energy": 1.88, 
			 "cosmo_total_nonelectrostatic_energy": 11.65, 
			 "SMD_solvation_energy": 8.46 
		},
		"coords": [
			{
				"x": -3.303352982,
				"y": 2.1663522758,
				"z": 3.4976388799,
				"element": "C" 
			},
			{
				"x": -2.3829002272,
				"y": 1.0646234981,
				"z": 3.5469601952,
				"element": "O" 
			},
			{
				"x": -1.7445467535,
				"y": 0.7681481065,
				"z": 2.3719200425,
				"element": "C" 
			},
			{
				"x": -2.4507090243,
				"y": 0.2482921562,
				"z": 1.2700068466,
				"element": "C" 
			},
			{
				"x": -3.8082472396,
				"y": 0.0846501103,
				"z": 1.3282269778,
				"element": "O" 
			},
			{
				"x": -4.2424014295,
				"y": -1.0509141536,
				"z": 2.0937694547,
				"element": "C" 
			},
			{
				"x": -1.7488265063,
				"y": -0.0666570474,
				"z": 0.0979405438,
				"element": "C" 
			},
			{
				"x": -2.6768310401,
				"y": -0.7213889378,
				"z": -1.2387409293,
				"element": "Cl" 
			},
			{
				"x": -0.3505612671,
				"y": 0.1073493923,
				"z": -0.0070528621,
				"element": "C" 
			},
			{
				"x": 0.3671220303,
				"y": -0.2142976621,
				"z": -1.2421286267,
				"element": "C" 
			},
			{
				"x": 1.6986494805,
				"y": -0.3757812677,
				"z": -1.3640597175,
				"element": "C" 
			},
			{
				"x": 2.3730306023,
				"y": -0.6724482654,
				"z": -2.63894633,
				"element": "C" 
			},
			{
				"x": 1.5299578865,
				"y": -0.7641833602,
				"z": -3.7020626672,
				"element": "O" 
			},
			{
				"x": 3.57484853,
				"y": -0.8255230486,
				"z": -2.7526177035,
				"element": "O" 
			},
			{
				"x": 0.3166362192,
				"y": 0.6129871797,
				"z": 1.125281941,
				"element": "C" 
			},
			{
				"x": -0.3607881192,
				"y": 0.9383647409,
				"z": 2.2912641979,
				"element": "C" 
			},
			{
				"x": -2.7775775823,
				"y": 3.0929415097,
				"z": 3.2376621498,
				"element": "H" 
			},
			{
				"x": -4.1052671892,
				"y": 1.9836140233,
				"z": 2.7776884622,
				"element": "H" 
			},
			{
				"x": -3.7179556402,
				"y": 2.2562162344,
				"z": 4.5031228991,
				"element": "H" 
			},
			{
				"x": -3.9038279365,
				"y": -0.9762977363,
				"z": 3.1318609389,
				"element": "H" 
			},
			{
				"x": -5.3329760798,
				"y": -1.0396027138,
				"z": 2.0578968934,
				"element": "H" 
			},
			{
				"x": -3.8738495687,
				"y": -1.9811829927,
				"z": 1.6472885764,
				"element": "H" 
			},
			{
				"x": -0.2389975924,
				"y": -0.3388121908,
				"z": -2.1331666583,
				"element": "H" 
			},
			{
				"x": 2.3806052941,
				"y": -0.3119379329,
				"z": -0.5229382062,
				"element": "H" 
			},
			{
				"x": 2.0954865434,
				"y": -0.9648056012,
				"z": -4.4651915936,
				"element": "H" 
			},
			{
				"x": 1.3862504155,
				"y": 0.7832633501,
				"z": 1.0709761809,
				"element": "H" 
			},
			{
				"x": 0.1610291762,
				"y": 1.3391303331,
				"z": 3.1537001143,
				"element": "H" 
			}
		],
		 "valence_orbital": [ 
			{
				"type": "occ",
				"energy": -0.29545,
				"method": "rhf"
			},
			{
				"type": "occ",
				"energy": -0.27829,
				"method": "rhf"
			},
			{
				"type": "occ",
				"energy": -0.27004,
				"method": "rhf"
			},
			{
				"type": "occ",
				"energy": -0.25117,
				"method": "rhf"
			},
			{
				"type": "occ",
				"energy": -0.23364,
				"method": "rhf"
			},
			{
				"type": "unocc",
				"energy": -0.07065,
				"method": "rhf"
			},
			{
				"type": "unocc",
				"energy": -0.01988,
				"method": "rhf"
			},
			{
				"type": "unocc",
				"energy": 0.01288,
				"method": "rhf"
			},
			{
				"type": "unocc",
				"energy": 0.02323,
				"method": "rhf"
			},
			{
				"type": "unocc",
				"energy": 0.08127,
				"method": "rhf"
			}
		],
		"cosmo_sigma_profile": { 
			"0.0": 0.0,
			"0.0": 0.0,
			"0.0": 0.0,
			"0.0": 0.0,
			"0.0": 0.0,
			"0.0": 0.0,
			"0.0": 0.0,
			"0.0": 0.0,
			"0.0": 0.0,
			"0.0": 0.0,
			"0.0": 0.0,
			"0.0": 0.0,
			"0.0": 0.0,
			"0.0": 0.0,
			"0.0": 0.0,
			"0.0": 0.0,
			"0.0": 0.0,
			"0.0": 0.0,
			"0.0": 0.0,
			"0.0": 0.0,
			"0.0": 0.0,
			"0.0": 0.0,
			"0.0": 0.0,
			"0.0": 0.0,
			"0.0": 0.0,
			"0.0": 0.0,
			"0.0": 0.0,
			"0.0": 0.0,
			"0.0": 0.0,
			"0.0": 0.0,
			"0.0": 0.0,
			"0.0": 0.0,
			"0.0": 0.0,
			"0.0": 0.0,
			"0.0": 0.0,
			"0.0": 0.0,
			"0.0": 0.0,
			"0.0": 0.0,
			"0.0": 0.0,
			"0.0": 0.0,
			"0.0": 0.0,
			"0.0": 0.0,
			"0.0": 0.0,
			"0.0": 0.0,
			"0.0": 0.0,
			"0.0": 0.0,
			"0.0": 0.0,
			"0.0": 0.0,
			"0.0": 0.0,
			"0.0": 0.0,
			"0.0": 0.0
		}
	}
}
