{
	 "smiles": "FC1=C(F)C(F)=C(OC(=O)C2=CC=CN=C2)C(F)=C1F", 
	 "Tm": 339.35, 
	 "num_atms": 24, 
	 "gaussian": { 
		 "optdone": 1, 
		 "sigma_profile": "yes", 
		 "theory": "DFT", 
		 "functional": "B3LYP", 
		 "basiset": "6-31G**", 
		 "properties": { 
			 "R2extent": 6771.4209, 
			 "electric_dipole_moment_norm": 3.49355308103, 
			 "electric_quadrupole_moment_norm": 12.2638408731, 
			 "total_energy": -1164.0105417, 
			 "HOMO_LUMO_gap": 0.19013, 
			 "cosmo_polarized_energy": -8.69, 
			 "cosmo_cavitation_energy": 33.87, 
			 "cosmo_dispersion_energy": -23.03, 
			 "cosmo_repulsion_energy": 1.65, 
			 "cosmo_total_nonelectrostatic_energy": 12.49, 
			 "SMD_solvation_energy": 7.81 
		},
		"coords": [
			{
				"x": -4.8134251399,
				"y": -0.3793231361,
				"z": -0.6808108125,
				"element": "F" 
			},
			{
				"x": -3.5158830409,
				"y": -0.5187195952,
				"z": -0.3997792434,
				"element": "C" 
			},
			{
				"x": -2.7797922383,
				"y": -1.5384112863,
				"z": -1.0011188095,
				"element": "C" 
			},
			{
				"x": -3.3723371745,
				"y": -2.3711902948,
				"z": -1.8618289144,
				"element": "F" 
			},
			{
				"x": -1.4268112879,
				"y": -1.6818986048,
				"z": -0.7033071073,
				"element": "C" 
			},
			{
				"x": -0.7183090199,
				"y": -2.6519080416,
				"z": -1.2877711979,
				"element": "F" 
			},
			{
				"x": -0.8073928217,
				"y": -0.8212978522,
				"z": 0.2015946471,
				"element": "C" 
			},
			{
				"x": 0.5157718091,
				"y": -1.0071246652,
				"z": 0.5431539398,
				"element": "O" 
			},
			{
				"x": 1.4515807256,
				"y": -0.3337399169,
				"z": -0.228813142,
				"element": "C" 
			},
			{
				"x": 1.1407049182,
				"y": 0.3789266642,
				"z": -1.1502655892,
				"element": "O" 
			},
			{
				"x": 2.8304796114,
				"y": -0.6122491837,
				"z": 0.2326780599,
				"element": "C" 
			},
			{
				"x": 3.1292504774,
				"y": -1.4529729761,
				"z": 1.3118270684,
				"element": "C" 
			},
			{
				"x": 4.4649443144,
				"y": -1.638928972,
				"z": 1.6534171039,
				"element": "C" 
			},
			{
				"x": 5.4436448557,
				"y": -0.9797323526,
				"z": 0.9056309675,
				"element": "C" 
			},
			{
				"x": 5.1749832046,
				"y": -0.171862124,
				"z": -0.1298702261,
				"element": "N" 
			},
			{
				"x": 3.8915071907,
				"y": 0.0014796577,
				"z": -0.4514764116,
				"element": "C" 
			},
			{
				"x": -1.5475166878,
				"y": 0.2035110294,
				"z": 0.7890822167,
				"element": "C" 
			},
			{
				"x": -0.9550923135,
				"y": 1.0462842329,
				"z": 1.6395241184,
				"element": "F" 
			},
			{
				"x": -2.9009300825,
				"y": 0.3538747454,
				"z": 0.4966784934,
				"element": "C" 
			},
			{
				"x": -3.6094239837,
				"y": 1.3315845385,
				"z": 1.0690012721,
				"element": "F" 
			},
			{
				"x": 2.3331693831,
				"y": -1.9423640134,
				"z": 1.8612615324,
				"element": "H" 
			},
			{
				"x": 4.7474945919,
				"y": -2.2806527724,
				"z": 2.4814637598,
				"element": "H" 
			},
			{
				"x": 6.4967690086,
				"y": -1.1064707599,
				"z": 1.1500176872,
				"element": "H" 
			},
			{
				"x": 3.6732137002,
				"y": 0.6564856791,
				"z": -1.2910894126,
				"element": "H" 
			}
		],
		 "valence_orbital": [ 
			{
				"type": "occ",
				"energy": -0.30814,
				"method": "rhf"
			},
			{
				"type": "occ",
				"energy": -0.28473,
				"method": "rhf"
			},
			{
				"type": "occ",
				"energy": -0.27414,
				"method": "rhf"
			},
			{
				"type": "occ",
				"energy": -0.26778,
				"method": "rhf"
			},
			{
				"type": "occ",
				"energy": -0.26492,
				"method": "rhf"
			},
			{
				"type": "unocc",
				"energy": -0.07479,
				"method": "rhf"
			},
			{
				"type": "unocc",
				"energy": -0.04045,
				"method": "rhf"
			},
			{
				"type": "unocc",
				"energy": -0.03228,
				"method": "rhf"
			},
			{
				"type": "unocc",
				"energy": -0.02467,
				"method": "rhf"
			},
			{
				"type": "unocc",
				"energy": -0.00501,
				"method": "rhf"
			}
		],
		"cosmo_sigma_profile": { 
			"-0.025": 0.0,
			"-0.024": 0.0,
			"-0.023": 0.0,
			"-0.022": 0.0,
			"-0.021": 0.0,
			"-0.02": 0.0,
			"-0.019": 0.0,
			"-0.018": 0.0,
			"-0.017": 0.0,
			"-0.016": 0.0,
			"-0.015": 0.0,
			"-0.014": 0.0,
			"-0.013": 0.0,
			"-0.012": 0.0,
			"-0.011": 0.0,
			"-0.01": 0.0,
			"-0.009": 0.0753818076654,
			"-0.008": 3.88770041444,
			"-0.007": 8.16894845772,
			"-0.006": 7.9235060424,
			"-0.005": 9.27285682718,
			"-0.004": 25.9432687746,
			"-0.003": 21.3225218468,
			"-0.002": 21.9983628508,
			"-0.001": 22.2538710011,
			"0.0": 27.9859293299,
			"0.001": 24.7393836617,
			"0.002": 56.1749044704,
			"0.003": 19.2835524237,
			"0.004": 2.51213504442,
			"0.005": 2.38081197516,
			"0.006": 2.96852357162,
			"0.007": 3.53550780146,
			"0.008": 2.84397093009,
			"0.009": 3.67674742086,
			"0.01": 4.07168149502,
			"0.011": 1.16561855466,
			"0.012": 0.729475892271,
			"0.013": 0.602003467172,
			"0.014": 1.09380422992,
			"0.015": 0.786099390299,
			"0.016": 0.341824794752,
			"0.017": 0.0,
			"0.018": 0.0,
			"0.019": 0.0,
			"0.02": 0.0,
			"0.021": 0.0,
			"0.022": 0.0,
			"0.023": 0.0,
			"0.024": 0.0,
			"0.025": 0.0
		}
	}
}
