{
	 "smiles": "CC1=CC=C(C=C1)S(=O)(=O)OCCOCCOCCOS(=O)(=O)C1=CC=C(C)C=C1", 
	 "Tm": 354.15, 
	 "num_atms": 56, 
	 "gaussian": { 
		 "optdone": 1, 
		 "sigma_profile": "yes", 
		 "theory": "DFT", 
		 "functional": "B3LYP", 
		 "basiset": "6-31G**", 
		 "properties": { 
			 "R2extent": 12304.8772, 
			 "electric_dipole_moment_norm": 6.01105238207, 
			 "electric_quadrupole_moment_norm": 28.6529090089, 
			 "total_energy": -2175.80755921, 
			 "HOMO_LUMO_gap": 0.21773, 
			 "cosmo_polarized_energy": -25.55, 
			 "cosmo_cavitation_energy": 60.33, 
			 "cosmo_dispersion_energy": -36.92, 
			 "cosmo_repulsion_energy": 2.69, 
			 "cosmo_total_nonelectrostatic_energy": 26.11, 
			 "SMD_solvation_energy": 8.06 
		},
		"coords": [
			{
				"x": -3.7960879348,
				"y": 1.6022012452,
				"z": 1.6535143891,
				"element": "C" 
			},
			{
				"x": -2.4732966391,
				"y": 0.9588505359,
				"z": 1.9872043617,
				"element": "C" 
			},
			{
				"x": -1.2758721475,
				"y": 1.6600244378,
				"z": 1.7642239958,
				"element": "C" 
			},
			{
				"x": -0.042344796,
				"y": 1.0823361116,
				"z": 2.03949744,
				"element": "C" 
			},
			{
				"x": -0.0048124019,
				"y": -0.2213586681,
				"z": 2.5431272524,
				"element": "C" 
			},
			{
				"x": -1.1738478052,
				"y": -0.9406794885,
				"z": 2.7852631193,
				"element": "C" 
			},
			{
				"x": -2.4017648129,
				"y": -0.3402959104,
				"z": 2.5062788713,
				"element": "C" 
			},
			{
				"x": 1.5685461269,
				"y": -0.9688285409,
				"z": 2.8949266886,
				"element": "S" 
			},
			{
				"x": 2.4891855732,
				"y": 0.025718988,
				"z": 3.4487031952,
				"element": "O" 
			},
			{
				"x": 1.3641300228,
				"y": -2.2456729017,
				"z": 3.5755804482,
				"element": "O" 
			},
			{
				"x": 2.0591093081,
				"y": -1.2894510093,
				"z": 1.3447586388,
				"element": "O" 
			},
			{
				"x": 3.4794460633,
				"y": -1.1757795763,
				"z": 1.0960029212,
				"element": "C" 
			},
			{
				"x": 3.7239397094,
				"y": -1.4070203188,
				"z": -0.3796945253,
				"element": "C" 
			},
			{
				"x": 3.1265561095,
				"y": -0.370560395,
				"z": -1.1335839679,
				"element": "O" 
			},
			{
				"x": 3.6075111224,
				"y": -0.3105385305,
				"z": -2.4660519414,
				"element": "C" 
			},
			{
				"x": 2.8340909882,
				"y": 0.7319994938,
				"z": -3.2532130248,
				"element": "C" 
			},
			{
				"x": 1.615852436,
				"y": 0.1651568168,
				"z": -3.7170635236,
				"element": "O" 
			},
			{
				"x": 0.973740589,
				"y": 0.908428646,
				"z": -4.7349160331,
				"element": "C" 
			},
			{
				"x": 0.1830128639,
				"y": 2.1156397748,
				"z": -4.2446141375,
				"element": "C" 
			},
			{
				"x": -1.0594762903,
				"y": 1.7249321368,
				"z": -3.6161395305,
				"element": "O" 
			},
			{
				"x": -1.1534859238,
				"y": 1.6208527272,
				"z": -1.9720930359,
				"element": "S" 
			},
			{
				"x": 0.1092583866,
				"y": 2.0911997503,
				"z": -1.398940441,
				"element": "O" 
			},
			{
				"x": -2.4153212303,
				"y": 2.2755995844,
				"z": -1.6316660602,
				"element": "O" 
			},
			{
				"x": -1.344277538,
				"y": -0.129862721,
				"z": -1.7110622223,
				"element": "C" 
			},
			{
				"x": -0.2718224628,
				"y": -0.8835842726,
				"z": -1.2362942947,
				"element": "C" 
			},
			{
				"x": -0.4639362642,
				"y": -2.2475821564,
				"z": -1.0181899186,
				"element": "C" 
			},
			{
				"x": -1.6937441387,
				"y": -2.8648234059,
				"z": -1.2806864828,
				"element": "C" 
			},
			{
				"x": -1.8920940083,
				"y": -4.337094641,
				"z": -1.011854764,
				"element": "C" 
			},
			{
				"x": -2.7488904049,
				"y": -2.0774437005,
				"z": -1.7679720573,
				"element": "C" 
			},
			{
				"x": -2.5874175408,
				"y": -0.7115704,
				"z": -1.9773953498,
				"element": "C" 
			},
			{
				"x": -3.9640172302,
				"y": 2.4968730669,
				"z": 2.2642329025,
				"element": "H" 
			},
			{
				"x": -3.8099022975,
				"y": 1.9171849428,
				"z": 0.6047766242,
				"element": "H" 
			},
			{
				"x": -4.6310374441,
				"y": 0.917350683,
				"z": 1.8239373321,
				"element": "H" 
			},
			{
				"x": -1.3124084513,
				"y": 2.662869867,
				"z": 1.3501255161,
				"element": "H" 
			},
			{
				"x": 0.8761340054,
				"y": 1.6286779499,
				"z": 1.8576963864,
				"element": "H" 
			},
			{
				"x": -1.1149994082,
				"y": -1.9464155365,
				"z": 3.1859696364,
				"element": "H" 
			},
			{
				"x": -3.3186078176,
				"y": -0.8938747318,
				"z": 2.6893184174,
				"element": "H" 
			},
			{
				"x": 4.0217396019,
				"y": -1.931142437,
				"z": 1.6764748574,
				"element": "H" 
			},
			{
				"x": 3.8225199052,
				"y": -0.1815199056,
				"z": 1.3918741848,
				"element": "H" 
			},
			{
				"x": 3.3373112945,
				"y": -2.3910520358,
				"z": -0.6881050253,
				"element": "H" 
			},
			{
				"x": 4.8172259554,
				"y": -1.4181017879,
				"z": -0.5281758199,
				"element": "H" 
			},
			{
				"x": 4.6769633168,
				"y": -0.0401153239,
				"z": -2.462279707,
				"element": "H" 
			},
			{
				"x": 3.5066499035,
				"y": -1.2834314763,
				"z": -2.9711298454,
				"element": "H" 
			},
			{
				"x": 3.4479124525,
				"y": 1.046426107,
				"z": -4.1133412658,
				"element": "H" 
			},
			{
				"x": 2.6562912343,
				"y": 1.6075488726,
				"z": -2.6139629402,
				"element": "H" 
			},
			{
				"x": 1.7086258739,
				"y": 1.2593501874,
				"z": -5.4802160382,
				"element": "H" 
			},
			{
				"x": 0.2880094861,
				"y": 0.2174757049,
				"z": -5.2355873781,
				"element": "H" 
			},
			{
				"x": -0.1224788593,
				"y": 2.7268359294,
				"z": -5.0998454876,
				"element": "H" 
			},
			{
				"x": 0.7657499833,
				"y": 2.7351920632,
				"z": -3.5591396031,
				"element": "H" 
			},
			{
				"x": 0.6878715297,
				"y": -0.4234472951,
				"z": -1.0347428536,
				"element": "H" 
			},
			{
				"x": 0.3600368459,
				"y": -2.835432267,
				"z": -0.6244236598,
				"element": "H" 
			},
			{
				"x": -2.6431781672,
				"y": -4.7695965891,
				"z": -1.6794226128,
				"element": "H" 
			},
			{
				"x": -2.2348430908,
				"y": -4.5036923011,
				"z": 0.0169792482,
				"element": "H" 
			},
			{
				"x": -0.9601904186,
				"y": -4.8958514866,
				"z": -1.1366712446,
				"element": "H" 
			},
			{
				"x": -3.7103746673,
				"y": -2.5390060579,
				"z": -1.9772640497,
				"element": "H" 
			},
			{
				"x": -3.4107904961,
				"y": -0.1013997539,
				"z": -2.3322275855,
				"element": "H" 
			}
		],
		 "valence_orbital": [ 
			{
				"type": "occ",
				"energy": -0.26538,
				"method": "rhf"
			},
			{
				"type": "occ",
				"energy": -0.25944,
				"method": "rhf"
			},
			{
				"type": "occ",
				"energy": -0.2589,
				"method": "rhf"
			},
			{
				"type": "occ",
				"energy": -0.25231,
				"method": "rhf"
			},
			{
				"type": "occ",
				"energy": -0.24964,
				"method": "rhf"
			},
			{
				"type": "unocc",
				"energy": -0.03191,
				"method": "rhf"
			},
			{
				"type": "unocc",
				"energy": -0.03028,
				"method": "rhf"
			},
			{
				"type": "unocc",
				"energy": -0.01225,
				"method": "rhf"
			},
			{
				"type": "unocc",
				"energy": -0.00665,
				"method": "rhf"
			},
			{
				"type": "unocc",
				"energy": 0.04242,
				"method": "rhf"
			}
		],
		"cosmo_sigma_profile": { 
			"-0.025": 0.0,
			"-0.024": 0.0,
			"-0.023": 0.0,
			"-0.022": 0.0,
			"-0.021": 0.0,
			"-0.02": 0.0,
			"-0.019": 0.0,
			"-0.018": 0.0,
			"-0.017": 0.0,
			"-0.016": 0.0,
			"-0.015": 0.0,
			"-0.014": 0.0,
			"-0.013": 0.0,
			"-0.012": 0.0,
			"-0.011": 0.0,
			"-0.01": 0.0,
			"-0.009": 0.0,
			"-0.008": 1.12989930117,
			"-0.007": 13.6122089311,
			"-0.006": 32.4538678699,
			"-0.005": 49.7397407933,
			"-0.004": 49.3408238319,
			"-0.003": 37.9140626753,
			"-0.002": 28.7129140343,
			"-0.001": 34.5733512345,
			"0.0": 30.6118677938,
			"0.001": 26.5726799698,
			"0.002": 33.3160482219,
			"0.003": 36.4687450534,
			"0.004": 17.2436093091,
			"0.005": 11.1916548374,
			"0.006": 12.8856465418,
			"0.007": 12.6094293415,
			"0.008": 10.1707786931,
			"0.009": 12.6239417148,
			"0.01": 15.2624452726,
			"0.011": 9.70289550887,
			"0.012": 0.41091166737,
			"0.013": 0.0,
			"0.014": 0.0,
			"0.015": 0.0,
			"0.016": 0.0,
			"0.017": 0.0,
			"0.018": 0.0,
			"0.019": 0.0,
			"0.02": 0.0,
			"0.021": 0.0,
			"0.022": 0.0,
			"0.023": 0.0,
			"0.024": 0.0,
			"0.025": 0.0
		}
	}
}
