{
	 "smiles": "CC1=NC2=C(N=NC3=C(Br)C=C(Br)C=C3Br)C(N)=NN2C(=C1)C(F)(F)F", 
	 "Tm": 372.15, 
	 "num_atms": 34, 
	 "gaussian": { 
		 "optdone": 1, 
		 "sigma_profile": "yes", 
		 "theory": "DFT", 
		 "functional": "B3LYP", 
		 "basiset": "6-31G**", 
		 "properties": { 
			 "R2extent": 20901.1339, 
			 "electric_dipole_moment_norm": 2.77957890516, 
			 "electric_quadrupole_moment_norm": 17.3490169234, 
			 "total_energy": -8880.48953499, 
			 "HOMO_LUMO_gap": 0.13186, 
			 "cosmo_polarized_energy": -14.76, 
			 "cosmo_cavitation_energy": 48.55, 
			 "cosmo_dispersion_energy": -34.67, 
			 "cosmo_repulsion_energy": 2.58, 
			 "cosmo_total_nonelectrostatic_energy": 16.46, 
			 "SMD_solvation_energy": 2.95 
		},
		"coords": [
			{
				"x": 4.3720106904,
				"y": -2.9401510162,
				"z": 0.8514812038,
				"element": "C" 
			},
			{
				"x": 3.9241494875,
				"y": -1.5295779634,
				"z": 1.1212020072,
				"element": "C" 
			},
			{
				"x": 2.6783670708,
				"y": -1.2039313202,
				"z": 0.7921252041,
				"element": "N" 
			},
			{
				"x": 2.2726434051,
				"y": 0.047176786,
				"z": 1.0299629212,
				"element": "C" 
			},
			{
				"x": 1.0501262419,
				"y": 0.7166055036,
				"z": 0.8106043869,
				"element": "C" 
			},
			{
				"x": -0.0597228673,
				"y": 0.1357772874,
				"z": 0.2728853807,
				"element": "N" 
			},
			{
				"x": -1.0661187909,
				"y": 0.9124290345,
				"z": 0.1592426156,
				"element": "N" 
			},
			{
				"x": -2.2117744613,
				"y": 0.3375164461,
				"z": -0.4214823985,
				"element": "C" 
			},
			{
				"x": -2.2480475105,
				"y": -0.557156307,
				"z": -1.5149672709,
				"element": "C" 
			},
			{
				"x": -0.6738546504,
				"y": -1.1535295008,
				"z": -2.4116818936,
				"element": "Br" 
			},
			{
				"x": -3.4541543662,
				"y": -1.0059313062,
				"z": -2.0519842949,
				"element": "C" 
			},
			{
				"x": -4.655651177,
				"y": -0.5693875045,
				"z": -1.5037916425,
				"element": "C" 
			},
			{
				"x": -6.3014883114,
				"y": -1.1900756897,
				"z": -2.2355863202,
				"element": "Br" 
			},
			{
				"x": -4.6741669134,
				"y": 0.3262186537,
				"z": -0.4381373063,
				"element": "C" 
			},
			{
				"x": -3.4612139093,
				"y": 0.7700181679,
				"z": 0.0727540993,
				"element": "C" 
			},
			{
				"x": -3.5244942732,
				"y": 1.9998656383,
				"z": 1.5350044488,
				"element": "Br" 
			},
			{
				"x": 1.2750008993,
				"y": 2.0560496724,
				"z": 1.2931385717,
				"element": "C" 
			},
			{
				"x": 0.3741682163,
				"y": 3.0555639485,
				"z": 1.2764366679,
				"element": "N" 
			},
			{
				"x": 2.5158170182,
				"y": 2.228423855,
				"z": 1.7748940333,
				"element": "N" 
			},
			{
				"x": 3.1099991032,
				"y": 1.0114299131,
				"z": 1.6074161935,
				"element": "N" 
			},
			{
				"x": 4.3827802291,
				"y": 0.693193948,
				"z": 1.9463585543,
				"element": "C" 
			},
			{
				"x": 4.8154517339,
				"y": -0.5908963204,
				"z": 1.707995894,
				"element": "C" 
			},
			{
				"x": 5.255517107,
				"y": 1.7636347854,
				"z": 2.5669299265,
				"element": "C" 
			},
			{
				"x": 5.4128333821,
				"y": 2.8089532565,
				"z": 1.7407093874,
				"element": "F" 
			},
			{
				"x": 4.7382603153,
				"y": 2.2099009589,
				"z": 3.721929421,
				"element": "F" 
			},
			{
				"x": 6.4786425385,
				"y": 1.258196741,
				"z": 2.8307656565,
				"element": "F" 
			},
			{
				"x": 5.2326543387,
				"y": -2.9548778091,
				"z": 0.1730352225,
				"element": "H" 
			},
			{
				"x": 4.6822601665,
				"y": -3.4365597884,
				"z": 1.7780447841,
				"element": "H" 
			},
			{
				"x": 3.5551154754,
				"y": -3.50530104,
				"z": 0.4018545064,
				"element": "H" 
			},
			{
				"x": -3.4477945651,
				"y": -1.6827682583,
				"z": -2.8962186991,
				"element": "H" 
			},
			{
				"x": -5.6078537147,
				"y": 0.6718166198,
				"z": -0.0146971213,
				"element": "H" 
			},
			{
				"x": 0.5904886758,
				"y": 3.9201360775,
				"z": 1.7467115087,
				"element": "H" 
			},
			{
				"x": -0.5715714388,
				"y": 2.817174574,
				"z": 1.0051719595,
				"element": "H" 
			},
			{
				"x": 5.8278208544,
				"y": -0.8663380433,
				"z": 1.9707923925,
				"element": "H" 
			}
		],
		 "valence_orbital": [ 
			{
				"type": "occ",
				"energy": -0.26606,
				"method": "rhf"
			},
			{
				"type": "occ",
				"energy": -0.25063,
				"method": "rhf"
			},
			{
				"type": "occ",
				"energy": -0.23946,
				"method": "rhf"
			},
			{
				"type": "occ",
				"energy": -0.22925,
				"method": "rhf"
			},
			{
				"type": "occ",
				"energy": -0.21586,
				"method": "rhf"
			},
			{
				"type": "unocc",
				"energy": -0.084,
				"method": "rhf"
			},
			{
				"type": "unocc",
				"energy": -0.07212,
				"method": "rhf"
			},
			{
				"type": "unocc",
				"energy": -0.03368,
				"method": "rhf"
			},
			{
				"type": "unocc",
				"energy": -0.03009,
				"method": "rhf"
			},
			{
				"type": "unocc",
				"energy": -0.02134,
				"method": "rhf"
			}
		],
		"cosmo_sigma_profile": { 
			"-0.025": 0.0,
			"-0.024": 0.0,
			"-0.023": 0.0,
			"-0.022": 0.0,
			"-0.021": 0.0,
			"-0.02": 0.0,
			"-0.019": 0.0,
			"-0.018": 0.0,
			"-0.017": 0.0,
			"-0.016": 0.0,
			"-0.015": 0.409944072236,
			"-0.014": 0.972446541116,
			"-0.013": 1.81883885958,
			"-0.012": 0.537521389405,
			"-0.011": 0.851432902034,
			"-0.01": 1.29049407059,
			"-0.009": 2.36148486336,
			"-0.008": 6.18374882479,
			"-0.007": 5.9933321657,
			"-0.006": 14.4383102966,
			"-0.005": 22.412979159,
			"-0.004": 22.983220201,
			"-0.003": 24.1392556495,
			"-0.002": 27.5808355978,
			"-0.001": 30.9463202747,
			"0.0": 46.102646725,
			"0.001": 49.2935431621,
			"0.002": 45.6942782581,
			"0.003": 34.0585237486,
			"0.004": 29.604572888,
			"0.005": 7.11281614927,
			"0.006": 4.39536698823,
			"0.007": 4.52174021751,
			"0.008": 4.2824312514,
			"0.009": 3.61498741419,
			"0.01": 3.08970623739,
			"0.011": 2.98220728114,
			"0.012": 2.29235316722,
			"0.013": 1.11735778487,
			"0.014": 0.349455328474,
			"0.015": 0.0,
			"0.016": 0.0,
			"0.017": 0.0,
			"0.018": 0.0,
			"0.019": 0.0,
			"0.02": 0.0,
			"0.021": 0.0,
			"0.022": 0.0,
			"0.023": 0.0,
			"0.024": 0.0,
			"0.025": 0.0
		}
	}
}
