{
	 "smiles": "O=CC1=CC=CN1C1=CC=CC(=C1)C#N", 
	 "Tm": 413.15, 
	 "num_atms": 23, 
	 "gaussian": { 
		 "optdone": 1, 
		 "sigma_profile": "yes", 
		 "theory": "DFT", 
		 "functional": "B3LYP", 
		 "basiset": "6-31G**", 
		 "properties": { 
			 "R2extent": 3520.8833, 
			 "electric_dipole_moment_norm": 3.22373007245, 
			 "electric_quadrupole_moment_norm": 25.8924692527, 
			 "total_energy": -646.783544255, 
			 "HOMO_LUMO_gap": 0.16752, 
			 "cosmo_polarized_energy": -16.07, 
			 "cosmo_cavitation_energy": 29.49, 
			 "cosmo_dispersion_energy": -20.26, 
			 "cosmo_repulsion_energy": 1.57, 
			 "cosmo_total_nonelectrostatic_energy": 10.8, 
			 "SMD_solvation_energy": 7.86 
		},
		"coords": [
			{
				"x": -1.0596854534,
				"y": 3.1095124605,
				"z": -2.6929590601,
				"element": "O" 
			},
			{
				"x": -0.7879435659,
				"y": 2.2939302442,
				"z": -1.8251781329,
				"element": "C" 
			},
			{
				"x": 0.0675622423,
				"y": 1.1381475527,
				"z": -2.0541876716,
				"element": "C" 
			},
			{
				"x": 0.5735701929,
				"y": 0.6804998688,
				"z": -3.2651184364,
				"element": "C" 
			},
			{
				"x": 1.2338757435,
				"y": -0.5427202815,
				"z": -3.0299149877,
				"element": "C" 
			},
			{
				"x": 1.1213773011,
				"y": -0.8158306026,
				"z": -1.6781930803,
				"element": "C" 
			},
			{
				"x": 0.4165386133,
				"y": 0.1978270437,
				"z": -1.0758157701,
				"element": "N" 
			},
			{
				"x": 0.1589418438,
				"y": 0.2656437591,
				"z": 0.3218930048,
				"element": "C" 
			},
			{
				"x": 0.5041282239,
				"y": 1.4084150542,
				"z": 1.0555924729,
				"element": "C" 
			},
			{
				"x": 0.2620264998,
				"y": 1.4532710038,
				"z": 2.42823041,
				"element": "C" 
			},
			{
				"x": -0.3000068468,
				"y": 0.3609688936,
				"z": 3.0848406723,
				"element": "C" 
			},
			{
				"x": -0.6317570557,
				"y": -0.7892167344,
				"z": 2.3505055552,
				"element": "C" 
			},
			{
				"x": -0.4116804465,
				"y": -0.8340972476,
				"z": 0.9652219392,
				"element": "C" 
			},
			{
				"x": -1.2114234572,
				"y": -1.9224469422,
				"z": 3.0130437274,
				"element": "C" 
			},
			{
				"x": -1.6779973988,
				"y": -2.841295338,
				"z": 3.551909398,
				"element": "N" 
			},
			{
				"x": -1.2044388046,
				"y": 2.3940287255,
				"z": -0.8011720697,
				"element": "H" 
			},
			{
				"x": 0.4374254328,
				"y": 1.1934596929,
				"z": -4.2061471999,
				"element": "H" 
			},
			{
				"x": 1.743578413,
				"y": -1.1611496873,
				"z": -3.7548773717,
				"element": "H" 
			},
			{
				"x": 1.5199521586,
				"y": -1.6280241446,
				"z": -1.0878660265,
				"element": "H" 
			},
			{
				"x": 0.9751432852,
				"y": 2.2451115044,
				"z": 0.5510430968,
				"element": "H" 
			},
			{
				"x": 0.5290634653,
				"y": 2.3419789098,
				"z": 2.9907595214,
				"element": "H" 
			},
			{
				"x": -0.4816949271,
				"y": 0.3874661206,
				"z": 4.1534886262,
				"element": "H" 
			},
			{
				"x": -0.6956554595,
				"y": -1.7113798557,
				"z": 0.3951013827,
				"element": "H" 
			}
		],
		 "valence_orbital": [ 
			{
				"type": "occ",
				"energy": -0.30487,
				"method": "rhf"
			},
			{
				"type": "occ",
				"energy": -0.28783,
				"method": "rhf"
			},
			{
				"type": "occ",
				"energy": -0.26,
				"method": "rhf"
			},
			{
				"type": "occ",
				"energy": -0.25138,
				"method": "rhf"
			},
			{
				"type": "occ",
				"energy": -0.239,
				"method": "rhf"
			},
			{
				"type": "unocc",
				"energy": -0.07148,
				"method": "rhf"
			},
			{
				"type": "unocc",
				"energy": -0.06094,
				"method": "rhf"
			},
			{
				"type": "unocc",
				"energy": -0.03983,
				"method": "rhf"
			},
			{
				"type": "unocc",
				"energy": 0.02242,
				"method": "rhf"
			},
			{
				"type": "unocc",
				"energy": 0.03458,
				"method": "rhf"
			}
		],
		"cosmo_sigma_profile": { 
			"-0.025": 0.0,
			"-0.024": 0.0,
			"-0.023": 0.0,
			"-0.022": 0.0,
			"-0.021": 0.0,
			"-0.02": 0.0,
			"-0.019": 0.0,
			"-0.018": 0.0,
			"-0.017": 0.0,
			"-0.016": 0.0,
			"-0.015": 0.0,
			"-0.014": 0.0,
			"-0.013": 0.0,
			"-0.012": 0.0,
			"-0.011": 0.0,
			"-0.01": 0.0276411156777,
			"-0.009": 3.71907957181,
			"-0.008": 10.4330227495,
			"-0.007": 15.5900589394,
			"-0.006": 15.7300777555,
			"-0.005": 15.5270017067,
			"-0.004": 15.0896924941,
			"-0.003": 14.3216608387,
			"-0.002": 17.8791266213,
			"-0.001": 16.0838618999,
			"0.0": 18.1587664146,
			"0.001": 14.8511563997,
			"0.002": 11.9078131924,
			"0.003": 10.769470603,
			"0.004": 9.54045272266,
			"0.005": 8.18258768654,
			"0.006": 4.5996023295,
			"0.007": 4.77193801435,
			"0.008": 4.93910261831,
			"0.009": 5.12778740524,
			"0.01": 4.96917878149,
			"0.011": 5.52994943668,
			"0.012": 7.2587623207,
			"0.013": 3.65971310547,
			"0.014": 0.562612426706,
			"0.015": 0.0,
			"0.016": 0.0,
			"0.017": 0.0,
			"0.018": 0.0,
			"0.019": 0.0,
			"0.02": 0.0,
			"0.021": 0.0,
			"0.022": 0.0,
			"0.023": 0.0,
			"0.024": 0.0,
			"0.025": 0.0
		}
	}
}
