{
	 "smiles": "CC1=NC=CC(O)=C1OCC1=CC=C(Cl)C=C1Cl", 
	 "Tm": 493.15, 
	 "num_atms": 29, 
	 "gaussian": { 
		 "optdone": 1, 
		 "sigma_profile": "yes", 
		 "theory": "DFT", 
		 "functional": "B3LYP", 
		 "basiset": "6-31G**", 
		 "properties": { 
			 "R2extent": 7631.8652, 
			 "electric_dipole_moment_norm": 4.26419010599, 
			 "electric_quadrupole_moment_norm": 19.7204147271, 
			 "total_energy": -1627.58066514, 
			 "HOMO_LUMO_gap": 0.20006, 
			 "cosmo_polarized_energy": -14.62, 
			 "cosmo_cavitation_energy": 37.39, 
			 "cosmo_dispersion_energy": -26.38, 
			 "cosmo_repulsion_energy": 2.03, 
			 "cosmo_total_nonelectrostatic_energy": 13.05, 
			 "SMD_solvation_energy": 4.88 
		},
		"coords": [
			{
				"x": -0.7582240281,
				"y": -2.277328806,
				"z": -1.9420804207,
				"element": "C" 
			},
			{
				"x": 0.6382506578,
				"y": -2.5471325416,
				"z": -1.4449894115,
				"element": "C" 
			},
			{
				"x": 1.3092379194,
				"y": -3.5706171461,
				"z": -2.0003948946,
				"element": "N" 
			},
			{
				"x": 2.5558851071,
				"y": -3.8081092429,
				"z": -1.5813870258,
				"element": "C" 
			},
			{
				"x": 3.2082384035,
				"y": -3.0505228386,
				"z": -0.6127192224,
				"element": "C" 
			},
			{
				"x": 2.5211856801,
				"y": -1.978362671,
				"z": -0.039161126,
				"element": "C" 
			},
			{
				"x": 3.0690921886,
				"y": -1.1558935932,
				"z": 0.900248061,
				"element": "O" 
			},
			{
				"x": 1.2032542211,
				"y": -1.7282720857,
				"z": -0.453699714,
				"element": "C" 
			},
			{
				"x": 0.4811231014,
				"y": -0.659292716,
				"z": 0.0233145239,
				"element": "O" 
			},
			{
				"x": 0.1371541324,
				"y": -0.7076322568,
				"z": 1.4259110902,
				"element": "C" 
			},
			{
				"x": -0.6549082332,
				"y": 0.5321907079,
				"z": 1.7439525824,
				"element": "C" 
			},
			{
				"x": 0.0289661323,
				"y": 1.7229232018,
				"z": 2.0257408733,
				"element": "C" 
			},
			{
				"x": -0.635474657,
				"y": 2.9138846073,
				"z": 2.3029943304,
				"element": "C" 
			},
			{
				"x": -2.0297632743,
				"y": 2.9162774689,
				"z": 2.2989612933,
				"element": "C" 
			},
			{
				"x": -2.8970027332,
				"y": 4.3997061721,
				"z": 2.6532689739,
				"element": "Cl" 
			},
			{
				"x": -2.7536246244,
				"y": 1.7597239391,
				"z": 2.019971178,
				"element": "C" 
			},
			{
				"x": -2.0556347419,
				"y": 0.584292645,
				"z": 1.7396626564,
				"element": "C" 
			},
			{
				"x": -3.0120586393,
				"y": -0.8494600546,
				"z": 1.3833488071,
				"element": "Cl" 
			},
			{
				"x": -1.4804842748,
				"y": -2.251004441,
				"z": -1.1202017697,
				"element": "H" 
			},
			{
				"x": -0.8158082849,
				"y": -1.3031135457,
				"z": -2.4398862328,
				"element": "H" 
			},
			{
				"x": -1.0400997527,
				"y": -3.0570800147,
				"z": -2.6508538725,
				"element": "H" 
			},
			{
				"x": 3.0679350765,
				"y": -4.6497814843,
				"z": -2.0443712575,
				"element": "H" 
			},
			{
				"x": 4.2291334491,
				"y": -3.2805630922,
				"z": -0.3161874139,
				"element": "H" 
			},
			{
				"x": 3.9739092491,
				"y": -1.4441307593,
				"z": 1.0801770116,
				"element": "H" 
			},
			{
				"x": 1.0503938053,
				"y": -0.7269058901,
				"z": 2.0277018088,
				"element": "H" 
			},
			{
				"x": -0.4400057808,
				"y": -1.6144089815,
				"z": 1.6312729396,
				"element": "H" 
			},
			{
				"x": 1.1150605816,
				"y": 1.7062504526,
				"z": 2.0213136746,
				"element": "H" 
			},
			{
				"x": -0.0870701865,
				"y": 3.8232127585,
				"z": 2.519900163,
				"element": "H" 
			},
			{
				"x": -3.8363604942,
				"y": 1.7701502082,
				"z": 2.0168923935,
				"element": "H" 
			}
		],
		 "valence_orbital": [ 
			{
				"type": "occ",
				"energy": -0.26665,
				"method": "rhf"
			},
			{
				"type": "occ",
				"energy": -0.25619,
				"method": "rhf"
			},
			{
				"type": "occ",
				"energy": -0.25415,
				"method": "rhf"
			},
			{
				"type": "occ",
				"energy": -0.24696,
				"method": "rhf"
			},
			{
				"type": "occ",
				"energy": -0.23384,
				"method": "rhf"
			},
			{
				"type": "unocc",
				"energy": -0.03378,
				"method": "rhf"
			},
			{
				"type": "unocc",
				"energy": -0.02724,
				"method": "rhf"
			},
			{
				"type": "unocc",
				"energy": -0.00662,
				"method": "rhf"
			},
			{
				"type": "unocc",
				"energy": -0.00511,
				"method": "rhf"
			},
			{
				"type": "unocc",
				"energy": 0.00411,
				"method": "rhf"
			}
		],
		"cosmo_sigma_profile": { 
			"-0.025": 0.0,
			"-0.024": 0.0,
			"-0.023": 0.0,
			"-0.022": 0.0,
			"-0.021": 0.0,
			"-0.02": 0.0,
			"-0.019": 0.292495201016,
			"-0.018": 1.2433917352,
			"-0.017": 1.01581469816,
			"-0.016": 1.19453309818,
			"-0.015": 1.0318131817,
			"-0.014": 1.13471648123,
			"-0.013": 0.805765090009,
			"-0.012": 0.966518475506,
			"-0.011": 1.13961679541,
			"-0.01": 0.964818583555,
			"-0.009": 1.44838226533,
			"-0.008": 4.63283298592,
			"-0.007": 5.94645302462,
			"-0.006": 10.8088753611,
			"-0.005": 13.1139971976,
			"-0.004": 15.8532615804,
			"-0.003": 16.7872250561,
			"-0.002": 20.9845946689,
			"-0.001": 22.5425562124,
			"0.0": 30.5488991737,
			"0.001": 37.2369609785,
			"0.002": 33.4890282969,
			"0.003": 24.2431594291,
			"0.004": 22.7079987714,
			"0.005": 7.67912977916,
			"0.006": 5.74985494749,
			"0.007": 4.08888924749,
			"0.008": 4.02647568352,
			"0.009": 3.31605346194,
			"0.01": 2.21985053739,
			"0.011": 1.72542995919,
			"0.012": 0.762086703545,
			"0.013": 1.20002872684,
			"0.014": 0.496661902477,
			"0.015": 0.77520281573,
			"0.016": 1.02906792349,
			"0.017": 0.278327551775,
			"0.018": 0.0,
			"0.019": 0.0,
			"0.02": 0.0,
			"0.021": 0.0,
			"0.022": 0.0,
			"0.023": 0.0,
			"0.024": 0.0,
			"0.025": 0.0
		}
	}
}
