{
	 "smiles": "FC1=CC=C(C=C1)S(=O)(=O)CC#N", 
	 "Tm": 361.15, 
	 "num_atms": 19, 
	 "gaussian": { 
		 "optdone": 1, 
		 "sigma_profile": "yes", 
		 "theory": "DFT", 
		 "functional": "B3LYP", 
		 "basiset": "6-31G**", 
		 "properties": { 
			 "R2extent": 4318.9572, 
			 "electric_dipole_moment_norm": 3.37682529308, 
			 "electric_quadrupole_moment_norm": 17.3495234629, 
			 "total_energy": -1011.59265202, 
			 "HOMO_LUMO_gap": 0.22658, 
			 "cosmo_polarized_energy": -16.53, 
			 "cosmo_cavitation_energy": 26.74, 
			 "cosmo_dispersion_energy": -18.77, 
			 "cosmo_repulsion_energy": 1.41, 
			 "cosmo_total_nonelectrostatic_energy": 9.38, 
			 "SMD_solvation_energy": 5.79 
		},
		"coords": [
			{
				"x": -3.6225841555,
				"y": -0.309182501,
				"z": -0.1789413808,
				"element": "F" 
			},
			{
				"x": -2.4083970183,
				"y": -0.4004996083,
				"z": 0.3854902595,
				"element": "C" 
			},
			{
				"x": -1.9826976957,
				"y": 0.6242879397,
				"z": 1.2272486966,
				"element": "C" 
			},
			{
				"x": -0.7222430565,
				"y": 0.530374042,
				"z": 1.8110020445,
				"element": "C" 
			},
			{
				"x": 0.0717274607,
				"y": -0.5889864343,
				"z": 1.5398328439,
				"element": "C" 
			},
			{
				"x": -0.3617259077,
				"y": -1.6083141364,
				"z": 0.6865642079,
				"element": "C" 
			},
			{
				"x": -1.6209176427,
				"y": -1.513640774,
				"z": 0.1000716007,
				"element": "C" 
			},
			{
				"x": 1.6928116304,
				"y": -0.7134392119,
				"z": 2.2861532236,
				"element": "S" 
			},
			{
				"x": 2.1884777208,
				"y": 0.636343487,
				"z": 2.570702917,
				"element": "O" 
			},
			{
				"x": 2.4847618278,
				"y": -1.6936205022,
				"z": 1.5322164121,
				"element": "O" 
			},
			{
				"x": 1.3848936139,
				"y": -1.5335344243,
				"z": 3.9231431367,
				"element": "C" 
			},
			{
				"x": 0.5049773036,
				"y": -0.7732735307,
				"z": 4.7929083581,
				"element": "C" 
			},
			{
				"x": -0.2145895579,
				"y": -0.1559276039,
				"z": 5.4624215553,
				"element": "N" 
			},
			{
				"x": -2.631290748,
				"y": 1.4736016832,
				"z": 1.4094160723,
				"element": "H" 
			},
			{
				"x": -0.3518381471,
				"y": 1.3167393481,
				"z": 2.4587208906,
				"element": "H" 
			},
			{
				"x": 0.2898201028,
				"y": -2.4486335287,
				"z": 0.4730251762,
				"element": "H" 
			},
			{
				"x": -1.9948050654,
				"y": -2.2764475866,
				"z": -0.5735535292,
				"element": "H" 
			},
			{
				"x": 2.3834344729,
				"y": -1.6358716782,
				"z": 4.3595310083,
				"element": "H" 
			},
			{
				"x": 0.981084862,
				"y": -2.5279749796,
				"z": 3.7165465065,
				"element": "H" 
			}
		],
		 "valence_orbital": [ 
			{
				"type": "occ",
				"energy": -0.33732,
				"method": "rhf"
			},
			{
				"type": "occ",
				"energy": -0.32133,
				"method": "rhf"
			},
			{
				"type": "occ",
				"energy": -0.30761,
				"method": "rhf"
			},
			{
				"type": "occ",
				"energy": -0.29373,
				"method": "rhf"
			},
			{
				"type": "occ",
				"energy": -0.28305,
				"method": "rhf"
			},
			{
				"type": "unocc",
				"energy": -0.05647,
				"method": "rhf"
			},
			{
				"type": "unocc",
				"energy": -0.04375,
				"method": "rhf"
			},
			{
				"type": "unocc",
				"energy": -0.01865,
				"method": "rhf"
			},
			{
				"type": "unocc",
				"energy": 0.01366,
				"method": "rhf"
			},
			{
				"type": "unocc",
				"energy": 0.04874,
				"method": "rhf"
			}
		],
		"cosmo_sigma_profile": { 
			"-0.025": 0.0,
			"-0.024": 0.0,
			"-0.023": 0.0,
			"-0.022": 0.0,
			"-0.021": 0.0,
			"-0.02": 0.0,
			"-0.019": 0.0,
			"-0.018": 0.0,
			"-0.017": 0.0,
			"-0.016": 0.0,
			"-0.015": 0.0,
			"-0.014": 0.0,
			"-0.013": 0.837808033601,
			"-0.012": 4.881941115,
			"-0.011": 4.21397665529,
			"-0.01": 4.14000702857,
			"-0.009": 5.43021882612,
			"-0.008": 10.6307489897,
			"-0.007": 9.83860587387,
			"-0.006": 8.52895116099,
			"-0.005": 7.57394865962,
			"-0.004": 7.31179979197,
			"-0.003": 9.17322848586,
			"-0.002": 11.0749055767,
			"-0.001": 15.2875873065,
			"0.0": 18.9831968862,
			"0.001": 16.4634472787,
			"0.002": 9.5987472649,
			"0.003": 12.5885864971,
			"0.004": 9.16944706736,
			"0.005": 4.61599866164,
			"0.006": 4.98611160817,
			"0.007": 6.46337376243,
			"0.008": 5.46423465791,
			"0.009": 8.85932906929,
			"0.01": 11.4908085943,
			"0.011": 7.18177471346,
			"0.012": 1.32735251064,
			"0.013": 0.0325119541184,
			"0.014": 0.0,
			"0.015": 0.0,
			"0.016": 0.0,
			"0.017": 0.0,
			"0.018": 0.0,
			"0.019": 0.0,
			"0.02": 0.0,
			"0.021": 0.0,
			"0.022": 0.0,
			"0.023": 0.0,
			"0.024": 0.0,
			"0.025": 0.0
		}
	}
}
