{
	 "smiles": "CCN(CC)S(=O)(=O)C1=CC=C(C=C1)C1=CC=C(O1)C=O", 
	 "Tm": 393.15, 
	 "num_atms": 38, 
	 "gaussian": { 
		 "optdone": 1, 
		 "sigma_profile": "yes", 
		 "theory": "DFT", 
		 "functional": "B3LYP", 
		 "basiset": "6-31G**", 
		 "properties": { 
			 "R2extent": 10596.5087, 
			 "electric_dipole_moment_norm": 5.77511546205, 
			 "electric_quadrupole_moment_norm": 37.8013707248, 
			 "total_energy": -1335.58469119, 
			 "HOMO_LUMO_gap": 0.14842, 
			 "cosmo_polarized_energy": -20.78, 
			 "cosmo_cavitation_energy": 43.5, 
			 "cosmo_dispersion_energy": -30.28, 
			 "cosmo_repulsion_energy": 2.26, 
			 "cosmo_total_nonelectrostatic_energy": 15.48, 
			 "SMD_solvation_energy": 7.76 
		},
		"coords": [
			{
				"x": -2.8810792001,
				"y": -3.0490032149,
				"z": 1.2625250705,
				"element": "C" 
			},
			{
				"x": -1.7268682309,
				"y": -2.2337405601,
				"z": 0.6777957678,
				"element": "C" 
			},
			{
				"x": -1.2944246982,
				"y": -1.1607941892,
				"z": 1.5899881889,
				"element": "N" 
			},
			{
				"x": -2.2163745843,
				"y": -0.0250691421,
				"z": 1.8083927527,
				"element": "C" 
			},
			{
				"x": -2.7427865478,
				"y": 0.0494574731,
				"z": 3.2411270913,
				"element": "C" 
			},
			{
				"x": 0.3471691062,
				"y": -0.8478247535,
				"z": 1.7333181681,
				"element": "S" 
			},
			{
				"x": 1.0340166872,
				"y": -2.1397367954,
				"z": 1.6678998845,
				"element": "O" 
			},
			{
				"x": 0.4938089138,
				"y": 0.0592414851,
				"z": 2.8747245667,
				"element": "O" 
			},
			{
				"x": 0.831899679,
				"y": 0.0842577988,
				"z": 0.2710192379,
				"element": "C" 
			},
			{
				"x": 1.1330305066,
				"y": -0.5923277727,
				"z": -0.9152871463,
				"element": "C" 
			},
			{
				"x": 1.4677783074,
				"y": 0.1318107759,
				"z": -2.0540737918,
				"element": "C" 
			},
			{
				"x": 1.5110126437,
				"y": 1.5385004661,
				"z": -2.0187771005,
				"element": "C" 
			},
			{
				"x": 1.2210431932,
				"y": 2.2007411086,
				"z": -0.8122193103,
				"element": "C" 
			},
			{
				"x": 0.8841467446,
				"y": 1.4804986603,
				"z": 0.3285864339,
				"element": "C" 
			},
			{
				"x": 1.8632362711,
				"y": 2.2970536009,
				"z": -3.21160718,
				"element": "C" 
			},
			{
				"x": 2.0248075169,
				"y": 3.645848359,
				"z": -3.4601870068,
				"element": "C" 
			},
			{
				"x": 2.3747704719,
				"y": 3.7632361878,
				"z": -4.8272287968,
				"element": "C" 
			},
			{
				"x": 2.4072153396,
				"y": 2.4848229571,
				"z": -5.3369030539,
				"element": "C" 
			},
			{
				"x": 2.0950302531,
				"y": 1.5916752429,
				"z": -4.3505156879,
				"element": "O" 
			},
			{
				"x": 2.7010419398,
				"y": 1.9910457623,
				"z": -6.6733205105,
				"element": "C" 
			},
			{
				"x": 2.6918256232,
				"y": 0.8190540608,
				"z": -7.0048592229,
				"element": "O" 
			},
			{
				"x": -3.1607971982,
				"y": -3.8453286145,
				"z": 0.5649963608,
				"element": "H" 
			},
			{
				"x": -3.7701358349,
				"y": -2.4348423418,
				"z": 1.436788582,
				"element": "H" 
			},
			{
				"x": -2.5853269251,
				"y": -3.5041637132,
				"z": 2.211518373,
				"element": "H" 
			},
			{
				"x": -2.0155251798,
				"y": -1.810146477,
				"z": -0.2968164011,
				"element": "H" 
			},
			{
				"x": -0.8703446151,
				"y": -2.8905545946,
				"z": 0.5197159919,
				"element": "H" 
			},
			{
				"x": -3.0424594774,
				"y": -0.1443940543,
				"z": 1.0987577426,
				"element": "H" 
			},
			{
				"x": -1.7210490673,
				"y": 0.9158453571,
				"z": 1.5431689089,
				"element": "H" 
			},
			{
				"x": -1.913855642,
				"y": 0.1893722714,
				"z": 3.9377675337,
				"element": "H" 
			},
			{
				"x": -3.4363575871,
				"y": 0.8914685896,
				"z": 3.3451671335,
				"element": "H" 
			},
			{
				"x": -3.2720083444,
				"y": -0.868501477,
				"z": 3.512566226,
				"element": "H" 
			},
			{
				"x": 1.1316918799,
				"y": -1.676515722,
				"z": -0.9352886105,
				"element": "H" 
			},
			{
				"x": 1.7083619907,
				"y": -0.3853703014,
				"z": -2.9760323264,
				"element": "H" 
			},
			{
				"x": 1.2648930519,
				"y": 3.2840113043,
				"z": -0.7623604475,
				"element": "H" 
			},
			{
				"x": 0.688830399,
				"y": 1.984723587,
				"z": 1.2682527498,
				"element": "H" 
			},
			{
				"x": 1.9102419887,
				"y": 4.4493469668,
				"z": -2.7478983801,
				"element": "H" 
			},
			{
				"x": 2.5800555486,
				"y": 4.6713908072,
				"z": -5.3766988899,
				"element": "H" 
			},
			{
				"x": 2.9424850767,
				"y": 2.8049109018,
				"z": -7.3906029012,
				"element": "H" 
			}
		],
		 "valence_orbital": [ 
			{
				"type": "occ",
				"energy": -0.29464,
				"method": "rhf"
			},
			{
				"type": "occ",
				"energy": -0.27952,
				"method": "rhf"
			},
			{
				"type": "occ",
				"energy": -0.26186,
				"method": "rhf"
			},
			{
				"type": "occ",
				"energy": -0.25769,
				"method": "rhf"
			},
			{
				"type": "occ",
				"energy": -0.2336,
				"method": "rhf"
			},
			{
				"type": "unocc",
				"energy": -0.08518,
				"method": "rhf"
			},
			{
				"type": "unocc",
				"energy": -0.039,
				"method": "rhf"
			},
			{
				"type": "unocc",
				"energy": -0.02865,
				"method": "rhf"
			},
			{
				"type": "unocc",
				"energy": 0.03499,
				"method": "rhf"
			},
			{
				"type": "unocc",
				"energy": 0.05477,
				"method": "rhf"
			}
		],
		"cosmo_sigma_profile": { 
			"-0.025": 0.0,
			"-0.024": 0.0,
			"-0.023": 0.0,
			"-0.022": 0.0,
			"-0.021": 0.0,
			"-0.02": 0.0,
			"-0.019": 0.0,
			"-0.018": 0.0,
			"-0.017": 0.0,
			"-0.016": 0.0,
			"-0.015": 0.0,
			"-0.014": 0.0,
			"-0.013": 0.0,
			"-0.012": 0.0,
			"-0.011": 0.0,
			"-0.01": 0.669069169751,
			"-0.009": 4.7581733219,
			"-0.008": 7.29830753394,
			"-0.007": 11.5182681276,
			"-0.006": 15.3403133079,
			"-0.005": 18.6004782297,
			"-0.004": 25.054841602,
			"-0.003": 33.4455323045,
			"-0.002": 33.5579647411,
			"-0.001": 32.8294483687,
			"0.0": 33.8675089498,
			"0.001": 31.1061553746,
			"0.002": 23.4608003085,
			"0.003": 6.91146755755,
			"0.004": 6.71317562881,
			"0.005": 7.91453148937,
			"0.006": 6.01016430542,
			"0.007": 4.89367837204,
			"0.008": 6.48365347184,
			"0.009": 5.37896308152,
			"0.01": 9.13239507941,
			"0.011": 11.195975421,
			"0.012": 8.33070858792,
			"0.013": 1.81459658449,
			"0.014": 0.0342833107181,
			"0.015": 0.0,
			"0.016": 0.0,
			"0.017": 0.0,
			"0.018": 0.0,
			"0.019": 0.0,
			"0.02": 0.0,
			"0.021": 0.0,
			"0.022": 0.0,
			"0.023": 0.0,
			"0.024": 0.0,
			"0.0": 0.0
		}
	}
}
