{
	 "smiles": "CCN1C=C2C=CC(N)=CC2=N1", 
	 "Tm": 371.15, 
	 "num_atms": 23, 
	 "gaussian": { 
		 "optdone": 1, 
		 "sigma_profile": "yes", 
		 "theory": "DFT", 
		 "functional": "B3LYP", 
		 "basiset": "6-31G**", 
		 "properties": { 
			 "R2extent": 2972.3632, 
			 "electric_dipole_moment_norm": 1.75246061582, 
			 "electric_quadrupole_moment_norm": 15.8529445577, 
			 "total_energy": -513.829847119, 
			 "HOMO_LUMO_gap": 0.16252, 
			 "cosmo_polarized_energy": -13.67, 
			 "cosmo_cavitation_energy": 26.45, 
			 "cosmo_dispersion_energy": -19.65, 
			 "cosmo_repulsion_energy": 1.57, 
			 "cosmo_total_nonelectrostatic_energy": 8.38, 
			 "SMD_solvation_energy": 3.59 
		},
		"coords": [
			{
				"x": -1.2673803984,
				"y": -3.8988805348,
				"z": -1.9653339324,
				"element": "C" 
			},
			{
				"x": -1.5612225239,
				"y": -2.398324512,
				"z": -1.9616853352,
				"element": "C" 
			},
			{
				"x": -1.0309110725,
				"y": -1.73389154,
				"z": -0.7762671475,
				"element": "N" 
			},
			{
				"x": -1.7366734853,
				"y": -1.2300937652,
				"z": 0.2628475694,
				"element": "C" 
			},
			{
				"x": -0.7965258161,
				"y": -0.7394964048,
				"z": 1.1730765219,
				"element": "C" 
			},
			{
				"x": -0.835356424,
				"y": -0.0939067929,
				"z": 2.43391461,
				"element": "C" 
			},
			{
				"x": 0.3516314057,
				"y": 0.2476656535,
				"z": 3.0329534662,
				"element": "C" 
			},
			{
				"x": 1.6215216575,
				"y": -0.0217969923,
				"z": 2.4156491552,
				"element": "C" 
			},
			{
				"x": 2.780720558,
				"y": 0.3121995339,
				"z": 3.1298183087,
				"element": "N" 
			},
			{
				"x": 1.6834556344,
				"y": -0.6456084408,
				"z": 1.1825356325,
				"element": "C" 
			},
			{
				"x": 0.4700332393,
				"y": -1.0166409211,
				"z": 0.552774594,
				"element": "C" 
			},
			{
				"x": 0.311389787,
				"y": -1.6264108728,
				"z": -0.6406015218,
				"element": "N" 
			},
			{
				"x": -1.7420275186,
				"y": -4.3925928662,
				"z": -1.1119863807,
				"element": "H" 
			},
			{
				"x": -0.1899431166,
				"y": -4.0683985144,
				"z": -1.9082556217,
				"element": "H" 
			},
			{
				"x": -1.648065575,
				"y": -4.3540240913,
				"z": -2.885137754,
				"element": "H" 
			},
			{
				"x": -2.6373681113,
				"y": -2.2046641478,
				"z": -1.9873236246,
				"element": "H" 
			},
			{
				"x": -1.1098879817,
				"y": -1.9177849369,
				"z": -2.8348870766,
				"element": "H" 
			},
			{
				"x": -2.8164971951,
				"y": -1.2526624165,
				"z": 0.2781294976,
				"element": "H" 
			},
			{
				"x": -1.7804997727,
				"y": 0.125939324,
				"z": 2.9223965218,
				"element": "H" 
			},
			{
				"x": 0.3473198885,
				"y": 0.7293185574,
				"z": 4.0077321191,
				"element": "H" 
			},
			{
				"x": 3.6159478569,
				"y": 0.3750078557,
				"z": 2.562811439,
				"element": "H" 
			},
			{
				"x": 2.6852178841,
				"y": 1.1210447536,
				"z": 3.729620358,
				"element": "H" 
			},
			{
				"x": 2.6343210799,
				"y": -0.8544979281,
				"z": 0.7011186011,
				"element": "H" 
			}
		],
		 "valence_orbital": [ 
			{
				"type": "occ",
				"energy": -0.28953,
				"method": "rhf"
			},
			{
				"type": "occ",
				"energy": -0.27027,
				"method": "rhf"
			},
			{
				"type": "occ",
				"energy": -0.26452,
				"method": "rhf"
			},
			{
				"type": "occ",
				"energy": -0.20871,
				"method": "rhf"
			},
			{
				"type": "occ",
				"energy": -0.18092,
				"method": "rhf"
			},
			{
				"type": "unocc",
				"energy": -0.0184,
				"method": "rhf"
			},
			{
				"type": "unocc",
				"energy": 0.04881,
				"method": "rhf"
			},
			{
				"type": "unocc",
				"energy": 0.06274,
				"method": "rhf"
			},
			{
				"type": "unocc",
				"energy": 0.09113,
				"method": "rhf"
			},
			{
				"type": "unocc",
				"energy": 0.09618,
				"method": "rhf"
			}
		],
		"cosmo_sigma_profile": { 
			"-0.025": 0.0,
			"-0.024": 0.0,
			"-0.023": 0.0,
			"-0.022": 0.0,
			"-0.021": 0.0,
			"-0.02": 0.0,
			"-0.019": 0.0,
			"-0.018": 0.0,
			"-0.017": 0.0,
			"-0.016": 0.0,
			"-0.015": 0.0,
			"-0.014": 0.0,
			"-0.013": 0.0235283612223,
			"-0.012": 1.71102938655,
			"-0.011": 3.14199906967,
			"-0.01": 2.40769214915,
			"-0.009": 4.60969523615,
			"-0.008": 5.09041282109,
			"-0.007": 6.78104430273,
			"-0.006": 9.52318046507,
			"-0.005": 12.7116057034,
			"-0.004": 16.4001013569,
			"-0.003": 19.0793868409,
			"-0.002": 14.2612890999,
			"-0.001": 12.9807651381,
			"0.0": 12.769750991,
			"0.001": 10.5736873368,
			"0.002": 7.14173660552,
			"0.003": 7.59029626194,
			"0.004": 10.3568440193,
			"0.005": 11.6588224855,
			"0.006": 16.6270468774,
			"0.007": 7.02113249466,
			"0.008": 2.7919466117,
			"0.009": 2.90925000052,
			"0.01": 1.24913625994,
			"0.011": 2.14088426635,
			"0.012": 2.02133110669,
			"0.013": 1.52948130296,
			"0.014": 1.71867464808,
			"0.015": 1.3074906594,
			"0.016": 0.829177040873,
			"0.017": 0.503337751786,
			"0.018": 0.0417236517147,
			"0.019": 0.0,
			"0.02": 0.0,
			"0.021": 0.0,
			"0.022": 0.0,
			"0.023": 0.0,
			"0.024": 0.0,
			"0.025": 0.0
		}
	}
}
