{
	 "smiles": "NNC(=O)CCCO", 
	 "Tm": 366.15, 
	 "num_atms": 18, 
	 "gaussian": { 
		 "optdone": 1, 
		 "sigma_profile": "yes", 
		 "theory": "DFT", 
		 "functional": "B3LYP", 
		 "basiset": "6-31G**", 
		 "properties": { 
			 "R2extent": 1496.4599, 
			 "electric_dipole_moment_norm": 2.7112435265, 
			 "electric_quadrupole_moment_norm": 6.58960147126, 
			 "total_energy": -418.382470372, 
			 "HOMO_LUMO_gap": 0.27092, 
			 "cosmo_polarized_energy": -13.42, 
			 "cosmo_cavitation_energy": 20.79, 
			 "cosmo_dispersion_energy": -15.49, 
			 "cosmo_repulsion_energy": 1.33, 
			 "cosmo_total_nonelectrostatic_energy": 6.64, 
			 "SMD_solvation_energy": 4.29 
		},
		"coords": [
			{
				"x": 1.1438021517,
				"y": -1.2335776184,
				"z": -2.8112420223,
				"element": "N" 
			},
			{
				"x": 0.4369100021,
				"y": -1.1687917162,
				"z": -1.5961484843,
				"element": "N" 
			},
			{
				"x": 0.7692039917,
				"y": -0.3020903522,
				"z": -0.6000794017,
				"element": "C" 
			},
			{
				"x": 1.6773109234,
				"y": 0.5176119707,
				"z": -0.7444295207,
				"element": "O" 
			},
			{
				"x": -0.0975707777,
				"y": -0.3939062768,
				"z": 0.6552495728,
				"element": "C" 
			},
			{
				"x": 0.5483051604,
				"y": 0.2853869499,
				"z": 1.868386271,
				"element": "C" 
			},
			{
				"x": 1.711890394,
				"y": -0.5093023835,
				"z": 2.4729087137,
				"element": "C" 
			},
			{
				"x": 2.671660907,
				"y": -0.9294902474,
				"z": 1.5181226862,
				"element": "O" 
			},
			{
				"x": 1.0484978825,
				"y": -0.3271987719,
				"z": -3.2681148218,
				"element": "H" 
			},
			{
				"x": 2.1346178515,
				"y": -1.316577626,
				"z": -2.5819987229,
				"element": "H" 
			},
			{
				"x": -0.2452842918,
				"y": -1.8985180605,
				"z": -1.4553443289,
				"element": "H" 
			},
			{
				"x": -0.3305627489,
				"y": -1.4446385243,
				"z": 0.8701335371,
				"element": "H" 
			},
			{
				"x": -1.0519953479,
				"y": 0.0963955795,
				"z": 0.4221825184,
				"element": "H" 
			},
			{
				"x": -0.2082781131,
				"y": 0.4446431838,
				"z": 2.6459749241,
				"element": "H" 
			},
			{
				"x": 0.9007310267,
				"y": 1.2750357394,
				"z": 1.5566852259,
				"element": "H" 
			},
			{
				"x": 1.3322520922,
				"y": -1.4255596446,
				"z": 2.9439152259,
				"element": "H" 
			},
			{
				"x": 2.1746113401,
				"y": 0.0925668964,
				"z": 3.2728858442,
				"element": "H" 
			},
			{
				"x": 2.788797556,
				"y": -0.2062890981,
				"z": 0.8823127831,
				"element": "H" 
			}
		],
		 "valence_orbital": [ 
			{
				"type": "occ",
				"energy": -0.31038,
				"method": "rhf"
			},
			{
				"type": "occ",
				"energy": -0.28172,
				"method": "rhf"
			},
			{
				"type": "occ",
				"energy": -0.2682,
				"method": "rhf"
			},
			{
				"type": "occ",
				"energy": -0.26055,
				"method": "rhf"
			},
			{
				"type": "occ",
				"energy": -0.25293,
				"method": "rhf"
			},
			{
				"type": "unocc",
				"energy": 0.01799,
				"method": "rhf"
			},
			{
				"type": "unocc",
				"energy": 0.07777,
				"method": "rhf"
			},
			{
				"type": "unocc",
				"energy": 0.08126,
				"method": "rhf"
			},
			{
				"type": "unocc",
				"energy": 0.10439,
				"method": "rhf"
			},
			{
				"type": "unocc",
				"energy": 0.13205,
				"method": "rhf"
			}
		],
		"cosmo_sigma_profile": { 
			"-0.025": 0.0,
			"-0.024": 0.0,
			"-0.023": 0.0,
			"-0.022": 0.0,
			"-0.021": 0.0,
			"-0.02": 0.0,
			"-0.019": 0.0,
			"-0.018": 0.0,
			"-0.017": 0.0,
			"-0.016": 0.0,
			"-0.015": 0.15187984965,
			"-0.014": 1.19708182292,
			"-0.013": 1.11503811267,
			"-0.012": 1.21153619178,
			"-0.011": 2.89119596221,
			"-0.01": 4.26989527497,
			"-0.009": 3.59173614917,
			"-0.008": 3.0976044842,
			"-0.007": 3.67987591675,
			"-0.006": 4.83249837348,
			"-0.005": 8.38287926861,
			"-0.004": 11.2462373931,
			"-0.003": 18.1724147667,
			"-0.002": 18.3230432349,
			"-0.001": 12.8713766987,
			"0.0": 10.5579344651,
			"0.001": 5.59416704147,
			"0.002": 4.61793591093,
			"0.003": 4.40477072601,
			"0.004": 3.77272803312,
			"0.005": 3.51597665745,
			"0.006": 2.96756618921,
			"0.007": 2.79817661127,
			"0.008": 3.3457088284,
			"0.009": 2.5906208128,
			"0.01": 2.6138650017,
			"0.011": 3.78774170966,
			"0.012": 3.20765032175,
			"0.013": 5.3239656067,
			"0.014": 3.32966529609,
			"0.015": 2.61985808335,
			"0.016": 0.694134942727,
			"0.017": 0.192067395369,
			"0.018": 0.0,
			"0.019": 0.0,
			"0.02": 0.0,
			"0.021": 0.0,
			"0.022": 0.0,
			"0.023": 0.0,
			"0.024": 0.0,
			"0.025": 0.0
		}
	}
}
