{
	 "smiles": "CN(C)C(=O)CCC(O)=O", 
	 "Tm": 357.65, 
	 "num_atms": 21, 
	 "gaussian": { 
		 "optdone": 1, 
		 "sigma_profile": "yes", 
		 "theory": "DFT", 
		 "functional": "B3LYP", 
		 "basiset": "6-31G**", 
		 "properties": { 
			 "R2extent": 2677.3875, 
			 "electric_dipole_moment_norm": 2.30971609078, 
			 "electric_quadrupole_moment_norm": 17.4924979448, 
			 "total_energy": -515.721314638, 
			 "HOMO_LUMO_gap": 0.24951, 
			 "cosmo_polarized_energy": -14.26, 
			 "cosmo_cavitation_energy": 24.7, 
			 "cosmo_dispersion_energy": -17.93, 
			 "cosmo_repulsion_energy": 1.49, 
			 "cosmo_total_nonelectrostatic_energy": 8.25, 
			 "SMD_solvation_energy": 6.15 
		},
		"coords": [
			{
				"x": 3.5394752363,
				"y": -2.2999663944,
				"z": 2.0201041648,
				"element": "C" 
			},
			{
				"x": 3.0362441487,
				"y": -1.0957212101,
				"z": 1.3748072604,
				"element": "N" 
			},
			{
				"x": 3.9161678992,
				"y": 0.05846882,
				"z": 1.436256529,
				"element": "C" 
			},
			{
				"x": 1.8101844165,
				"y": -1.1349790137,
				"z": 0.7539954684,
				"element": "C" 
			},
			{
				"x": 1.130998983,
				"y": -2.1592359224,
				"z": 0.7232404705,
				"element": "O" 
			},
			{
				"x": 1.3121956341,
				"y": 0.1522043453,
				"z": 0.0934978837,
				"element": "C" 
			},
			{
				"x": -0.0844821702,
				"y": -0.0346563468,
				"z": -0.4924411004,
				"element": "C" 
			},
			{
				"x": -0.5203490062,
				"y": 1.1542096866,
				"z": -1.3153861969,
				"element": "C" 
			},
			{
				"x": -1.8186215632,
				"y": 1.0516915788,
				"z": -1.6893949137,
				"element": "O" 
			},
			{
				"x": 0.1739158337,
				"y": 2.0966183205,
				"z": -1.6347691697,
				"element": "O" 
			},
			{
				"x": 3.7284950272,
				"y": -2.1147089842,
				"z": 3.0851932714,
				"element": "H" 
			},
			{
				"x": 4.4802512876,
				"y": -2.6228421047,
				"z": 1.5558526029,
				"element": "H" 
			},
			{
				"x": 2.7932961936,
				"y": -3.0851036011,
				"z": 1.912670065,
				"element": "H" 
			},
			{
				"x": 4.0977585069,
				"y": 0.3531107767,
				"z": 2.4786969867,
				"element": "H" 
			},
			{
				"x": 4.8879243378,
				"y": -0.1750560486,
				"z": 0.9810852196,
				"element": "H" 
			},
			{
				"x": 3.4944311982,
				"y": 0.9120346481,
				"z": 0.9100638773,
				"element": "H" 
			},
			{
				"x": 2.0000479368,
				"y": 0.463882629,
				"z": -0.7003991373,
				"element": "H" 
			},
			{
				"x": 1.3051359902,
				"y": 0.9742577257,
				"z": 0.8181360511,
				"element": "H" 
			},
			{
				"x": -0.1179276635,
				"y": -0.9275256857,
				"z": -1.1259366746,
				"element": "H" 
			},
			{
				"x": -0.8281074326,
				"y": -0.2185975419,
				"z": 0.2888363987,
				"element": "H" 
			},
			{
				"x": -2.0066347939,
				"y": 1.8403143229,
				"z": -2.2255090569,
				"element": "H" 
			}
		],
		 "valence_orbital": [ 
			{
				"type": "occ",
				"energy": -0.34479,
				"method": "rhf"
			},
			{
				"type": "occ",
				"energy": -0.31745,
				"method": "rhf"
			},
			{
				"type": "occ",
				"energy": -0.27626,
				"method": "rhf"
			},
			{
				"type": "occ",
				"energy": -0.24649,
				"method": "rhf"
			},
			{
				"type": "occ",
				"energy": -0.23853,
				"method": "rhf"
			},
			{
				"type": "unocc",
				"energy": 0.01098,
				"method": "rhf"
			},
			{
				"type": "unocc",
				"energy": 0.02988,
				"method": "rhf"
			},
			{
				"type": "unocc",
				"energy": 0.08033,
				"method": "rhf"
			},
			{
				"type": "unocc",
				"energy": 0.08306,
				"method": "rhf"
			},
			{
				"type": "unocc",
				"energy": 0.10936,
				"method": "rhf"
			}
		],
		"cosmo_sigma_profile": { 
			"-0.025": 0.0,
			"-0.024": 0.0,
			"-0.023": 0.0,
			"-0.022": 0.0,
			"-0.021": 0.0,
			"-0.02": 0.0,
			"-0.019": 0.0,
			"-0.018": 0.503205792694,
			"-0.017": 1.17601494065,
			"-0.016": 0.827758120532,
			"-0.015": 0.610259869962,
			"-0.014": 0.717218518298,
			"-0.013": 0.687944266181,
			"-0.012": 0.67970414596,
			"-0.011": 0.651802998589,
			"-0.01": 1.0908573515,
			"-0.009": 0.218787543694,
			"-0.008": 0.315624860009,
			"-0.007": 1.92654493663,
			"-0.006": 10.2028885028,
			"-0.005": 19.0531384735,
			"-0.004": 22.235790505,
			"-0.003": 19.0013613559,
			"-0.002": 23.5539496498,
			"-0.001": 15.2197588247,
			"0.0": 7.6358970397,
			"0.001": 7.2372422654,
			"0.002": 6.38675701694,
			"0.003": 4.40034690939,
			"0.004": 3.58769503396,
			"0.005": 5.18374805214,
			"0.006": 3.65926875089,
			"0.007": 4.95159214238,
			"0.008": 4.24490098611,
			"0.009": 3.48502755101,
			"0.01": 4.94707990275,
			"0.011": 4.75927236017,
			"0.012": 6.29711345014,
			"0.013": 2.6522524236,
			"0.014": 4.74509984234,
			"0.015": 0.382100443662,
			"0.016": 0.0,
			"0.017": 0.0,
			"0.018": 0.0,
			"0.019": 0.0,
			"0.02": 0.0,
			"0.021": 0.0,
			"0.022": 0.0,
			"0.023": 0.0,
			"0.024": 0.0,
			"0.025": 0.0
		}
	}
}
