{
	 "smiles": "OC(=O)CCNC(=O)NC1=CC=C(Br)C=C1", 
	 "Tm": 522.15, 
	 "num_atms": 27, 
	 "gaussian": { 
		 "optdone": 1, 
		 "sigma_profile": "yes", 
		 "theory": "DFT", 
		 "functional": "B3LYP", 
		 "basiset": "6-31G**", 
		 "properties": { 
			 "R2extent": 8511.4248, 
			 "electric_dipole_moment_norm": 3.21931299814, 
			 "electric_quadrupole_moment_norm": 13.2253311259, 
			 "total_energy": -3294.3055972, 
			 "HOMO_LUMO_gap": 0.20138, 
			 "cosmo_polarized_energy": -19.38, 
			 "cosmo_cavitation_energy": 33.88, 
			 "cosmo_dispersion_energy": -23.46, 
			 "cosmo_repulsion_energy": 1.84, 
			 "cosmo_total_nonelectrostatic_energy": 12.26, 
			 "SMD_solvation_energy": 5.98 
		},
		"coords": [
			{
				"x": 3.3626764644,
				"y": -0.4877552939,
				"z": 1.0624722716,
				"element": "O" 
			},
			{
				"x": 2.5172086345,
				"y": 0.5584930546,
				"z": 1.2255182125,
				"element": "C" 
			},
			{
				"x": 2.1602426465,
				"y": 1.2664149621,
				"z": 0.3106325958,
				"element": "O" 
			},
			{
				"x": 2.0760233971,
				"y": 0.6754476869,
				"z": 2.6690157241,
				"element": "C" 
			},
			{
				"x": 0.9511787965,
				"y": -0.3180547153,
				"z": 3.0152026999,
				"element": "C" 
			},
			{
				"x": -0.3121753411,
				"y": 0.068563454,
				"z": 2.3799087416,
				"element": "N" 
			},
			{
				"x": -1.4189688323,
				"y": -0.7699479042,
				"z": 2.3255389094,
				"element": "C" 
			},
			{
				"x": -2.5485961449,
				"y": -0.3817807769,
				"z": 2.5871105903,
				"element": "O" 
			},
			{
				"x": -1.1831368723,
				"y": -2.0994561948,
				"z": 1.9667266326,
				"element": "N" 
			},
			{
				"x": -0.3037285152,
				"y": -2.6074701034,
				"z": 0.9794140493,
				"element": "C" 
			},
			{
				"x": 0.2886883353,
				"y": -1.801349309,
				"z": -0.0040320855,
				"element": "C" 
			},
			{
				"x": 1.1187490656,
				"y": -2.3685724125,
				"z": -0.9702365102,
				"element": "C" 
			},
			{
				"x": 1.3466804831,
				"y": -3.7429605787,
				"z": -0.9721080131,
				"element": "C" 
			},
			{
				"x": 2.4806169357,
				"y": -4.5140491389,
				"z": -2.3037940395,
				"element": "Br" 
			},
			{
				"x": 0.7547323131,
				"y": -4.5604662979,
				"z": -0.0107872998,
				"element": "C" 
			},
			{
				"x": -0.0600704943,
				"y": -3.9895050575,
				"z": 0.9636286157,
				"element": "C" 
			},
			{
				"x": 3.5562654705,
				"y": -0.5460951755,
				"z": 0.111943668,
				"element": "H" 
			},
			{
				"x": 2.9303917107,
				"y": 0.4696238832,
				"z": 3.3205345292,
				"element": "H" 
			},
			{
				"x": 1.7448966081,
				"y": 1.7030509528,
				"z": 2.8421228315,
				"element": "H" 
			},
			{
				"x": 1.2312146044,
				"y": -1.318382149,
				"z": 2.68191423,
				"element": "H" 
			},
			{
				"x": 0.8446376417,
				"y": -0.3550052765,
				"z": 4.1090194304,
				"element": "H" 
			},
			{
				"x": -0.6289356667,
				"y": 0.9954192537,
				"z": 2.6428312188,
				"element": "H" 
			},
			{
				"x": -2.0232903462,
				"y": -2.6453665558,
				"z": 2.1107783923,
				"element": "H" 
			},
			{
				"x": 0.1083880387,
				"y": -0.7331140779,
				"z": -0.0160848064,
				"element": "H" 
			},
			{
				"x": 1.564703412,
				"y": -1.7392782221,
				"z": -1.7328281632,
				"element": "H" 
			},
			{
				"x": 0.9342796936,
				"y": -5.6294920491,
				"z": -0.0156662483,
				"element": "H" 
			},
			{
				"x": -0.5111720383,
				"y": -4.6202119587,
				"z": 1.724623823,
				"element": "H" 
			}
		],
		 "valence_orbital": [ 
			{
				"type": "occ",
				"energy": -0.28744,
				"method": "rhf"
			},
			{
				"type": "occ",
				"energy": -0.27637,
				"method": "rhf"
			},
			{
				"type": "occ",
				"energy": -0.27127,
				"method": "rhf"
			},
			{
				"type": "occ",
				"energy": -0.25477,
				"method": "rhf"
			},
			{
				"type": "occ",
				"energy": -0.22651,
				"method": "rhf"
			},
			{
				"type": "unocc",
				"energy": -0.02513,
				"method": "rhf"
			},
			{
				"type": "unocc",
				"energy": -0.02346,
				"method": "rhf"
			},
			{
				"type": "unocc",
				"energy": -0.00296,
				"method": "rhf"
			},
			{
				"type": "unocc",
				"energy": 0.00322,
				"method": "rhf"
			},
			{
				"type": "unocc",
				"energy": 0.03542,
				"method": "rhf"
			}
		],
		"cosmo_sigma_profile": { 
			"-0.025": 0.0,
			"-0.024": 0.0,
			"-0.023": 0.0,
			"-0.022": 0.0,
			"-0.021": 0.0,
			"-0.02": 0.0,
			"-0.019": 0.0,
			"-0.018": 0.0963105684916,
			"-0.017": 0.572345735536,
			"-0.016": 0.585683537579,
			"-0.015": 0.786963014241,
			"-0.014": 1.76538564962,
			"-0.013": 2.35284805656,
			"-0.012": 2.82182660081,
			"-0.011": 3.52615404039,
			"-0.01": 3.07244567395,
			"-0.009": 3.3322966715,
			"-0.008": 4.66523353625,
			"-0.007": 10.1906955127,
			"-0.006": 13.4056270731,
			"-0.005": 18.0620023432,
			"-0.004": 19.0309502154,
			"-0.003": 17.8094170937,
			"-0.002": 14.4470608085,
			"-0.001": 12.3706768525,
			"0.0": 14.5435768203,
			"0.001": 16.020896821,
			"0.002": 19.1653323257,
			"0.003": 22.0096973827,
			"0.004": 19.8236144296,
			"0.005": 12.2274781858,
			"0.006": 2.63870207695,
			"0.007": 3.79990019913,
			"0.008": 4.24867516614,
			"0.009": 4.26513097125,
			"0.01": 3.06582263677,
			"0.011": 4.886999653,
			"0.012": 6.19778558911,
			"0.013": 6.78127409539,
			"0.014": 3.19323194387,
			"0.015": 0.0432272742179,
			"0.016": 0.0,
			"0.017": 0.0,
			"0.018": 0.0,
			"0.019": 0.0,
			"0.02": 0.0,
			"0.021": 0.0,
			"0.022": 0.0,
			"0.023": 0.0,
			"0.024": 0.0,
			"0.025": 0.0
		}
	}
}
