{
	 "smiles": "ClCC(=O)NCC1=CN(N=C1)C1=CC=CC=C1", 
	 "Tm": 384.15, 
	 "num_atms": 29, 
	 "gaussian": { 
		 "optdone": 1, 
		 "sigma_profile": "yes", 
		 "theory": "DFT", 
		 "functional": "B3LYP", 
		 "basiset": "6-31G**", 
		 "properties": { 
			 "R2extent": 7118.1972, 
			 "electric_dipole_moment_norm": 2.91755360019, 
			 "electric_quadrupole_moment_norm": 18.7368847237, 
			 "total_energy": -1164.16653096, 
			 "HOMO_LUMO_gap": 0.19877, 
			 "cosmo_polarized_energy": -16.75, 
			 "cosmo_cavitation_energy": 35.45, 
			 "cosmo_dispersion_energy": -25.11, 
			 "cosmo_repulsion_energy": 1.97, 
			 "cosmo_total_nonelectrostatic_energy": 12.3, 
			 "SMD_solvation_energy": 5.65 
		},
		"coords": [
			{
				"x": 3.3348403956,
				"y": -4.4640753627,
				"z": 1.3839924423,
				"element": "Cl" 
			},
			{
				"x": 3.0837648744,
				"y": -2.6645101275,
				"z": 1.3388583194,
				"element": "C" 
			},
			{
				"x": 2.9972769946,
				"y": -2.1268342892,
				"z": -0.0909052699,
				"element": "C" 
			},
			{
				"x": 3.9120084013,
				"y": -1.4642019469,
				"z": -0.5594001721,
				"element": "O" 
			},
			{
				"x": 1.8640388965,
				"y": -2.4091092641,
				"z": -0.8021538549,
				"element": "N" 
			},
			{
				"x": 0.6290766728,
				"y": -3.012401262,
				"z": -0.3153541444,
				"element": "C" 
			},
			{
				"x": -0.3086500448,
				"y": -2.0408541486,
				"z": 0.3577595216,
				"element": "C" 
			},
			{
				"x": -0.193456964,
				"y": -0.6677906412,
				"z": 0.4477596181,
				"element": "C" 
			},
			{
				"x": -1.2877102455,
				"y": -0.2135934754,
				"z": 1.1320838905,
				"element": "N" 
			},
			{
				"x": -2.1144944133,
				"y": -1.2280830987,
				"z": 1.4871595592,
				"element": "N" 
			},
			{
				"x": -1.5281068493,
				"y": -2.3260672453,
				"z": 1.024687956,
				"element": "C" 
			},
			{
				"x": -1.616467132,
				"y": 1.1279760187,
				"z": 1.4673258866,
				"element": "C" 
			},
			{
				"x": -0.6246247977,
				"y": 2.1146438244,
				"z": 1.4940775165,
				"element": "C" 
			},
			{
				"x": -0.9696184692,
				"y": 3.4295781531,
				"z": 1.8054653364,
				"element": "C" 
			},
			{
				"x": -2.2907938191,
				"y": 3.7632476308,
				"z": 2.1058026422,
				"element": "C" 
			},
			{
				"x": -3.2706979449,
				"y": 2.7678975295,
				"z": 2.0921524984,
				"element": "C" 
			},
			{
				"x": -2.9434357156,
				"y": 1.4525931955,
				"z": 1.7706179368,
				"element": "C" 
			},
			{
				"x": 3.9557289413,
				"y": -2.2105001901,
				"z": 1.8035294647,
				"element": "H" 
			},
			{
				"x": 2.1851923854,
				"y": -2.4527081848,
				"z": 1.9208780079,
				"element": "H" 
			},
			{
				"x": 1.8623912804,
				"y": -1.9973965885,
				"z": -1.7263686883,
				"element": "H" 
			},
			{
				"x": 0.8781476761,
				"y": -3.8361903695,
				"z": 0.3603229949,
				"element": "H" 
			},
			{
				"x": 0.1370187067,
				"y": -3.479075043,
				"z": -1.1767333136,
				"element": "H" 
			},
			{
				"x": 0.5583641072,
				"y": 0.0006693183,
				"z": 0.0592274724,
				"element": "H" 
			},
			{
				"x": -1.9955792115,
				"y": -3.2889010781,
				"z": 1.1873181589,
				"element": "H" 
			},
			{
				"x": 0.4111794319,
				"y": 1.8616420975,
				"z": 1.2951552222,
				"element": "H" 
			},
			{
				"x": -0.19566266,
				"y": 4.1910451245,
				"z": 1.8243438484,
				"element": "H" 
			},
			{
				"x": -2.5533071586,
				"y": 4.7872984084,
				"z": 2.3526853085,
				"element": "H" 
			},
			{
				"x": -4.3016334957,
				"y": 3.0156232936,
				"z": 2.3272215057,
				"element": "H" 
			},
			{
				"x": -3.6923898432,
				"y": 0.6706777216,
				"z": 1.7527903355,
				"element": "H" 
			}
		],
		 "valence_orbital": [ 
			{
				"type": "occ",
				"energy": -0.26638,
				"method": "rhf"
			},
			{
				"type": "occ",
				"energy": -0.26376,
				"method": "rhf"
			},
			{
				"type": "occ",
				"energy": -0.25962,
				"method": "rhf"
			},
			{
				"type": "occ",
				"energy": -0.25762,
				"method": "rhf"
			},
			{
				"type": "occ",
				"energy": -0.23034,
				"method": "rhf"
			},
			{
				"type": "unocc",
				"energy": -0.03157,
				"method": "rhf"
			},
			{
				"type": "unocc",
				"energy": -0.0234,
				"method": "rhf"
			},
			{
				"type": "unocc",
				"energy": -0.01313,
				"method": "rhf"
			},
			{
				"type": "unocc",
				"energy": 0.03062,
				"method": "rhf"
			},
			{
				"type": "unocc",
				"energy": 0.04702,
				"method": "rhf"
			}
		],
		"cosmo_sigma_profile": { 
			"-0.025": 0.0,
			"-0.024": 0.0,
			"-0.023": 0.0,
			"-0.022": 0.0,
			"-0.021": 0.0,
			"-0.02": 0.0,
			"-0.019": 0.0,
			"-0.018": 0.0,
			"-0.017": 0.0,
			"-0.016": 0.0,
			"-0.015": 0.195292720402,
			"-0.014": 1.04671398824,
			"-0.013": 1.05392266423,
			"-0.012": 1.4923738154,
			"-0.011": 0.863727986166,
			"-0.01": 1.58183072196,
			"-0.009": 3.1192444268,
			"-0.008": 6.17426720211,
			"-0.007": 12.0287626926,
			"-0.006": 19.2682574874,
			"-0.005": 25.1641821253,
			"-0.004": 20.6563135671,
			"-0.003": 15.3187191359,
			"-0.002": 12.6043385293,
			"-0.001": 15.1376501308,
			"0.0": 13.5808165166,
			"0.001": 18.9647182957,
			"0.002": 19.3441542768,
			"0.003": 22.6607436524,
			"0.004": 21.6896164787,
			"0.005": 19.7536206532,
			"0.006": 6.86076356801,
			"0.007": 3.14015996076,
			"0.008": 2.68565420014,
			"0.009": 2.46451698885,
			"0.01": 2.61433554106,
			"0.011": 3.54785126818,
			"0.012": 3.80644029139,
			"0.013": 6.61259584466,
			"0.014": 2.0608489999,
			"0.015": 0.0,
			"0.016": 0.0,
			"0.017": 0.0,
			"0.018": 0.0,
			"0.019": 0.0,
			"0.02": 0.0,
			"0.021": 0.0,
			"0.022": 0.0,
			"0.023": 0.0,
			"0.024": 0.0,
			"0.025": 0.0
		}
	}
}
