{
	 "smiles": "COC1=CC=C(C=O)C(OC)=C1", 
	 "Tm": 343.65, 
	 "num_atms": 22, 
	 "gaussian": { 
		 "optdone": 1, 
		 "sigma_profile": "yes", 
		 "theory": "DFT", 
		 "functional": "B3LYP", 
		 "basiset": "6-31G**", 
		 "properties": { 
			 "R2extent": 2537.7474, 
			 "electric_dipole_moment_norm": 3.87162723154, 
			 "electric_quadrupole_moment_norm": 9.94470906814, 
			 "total_energy": -574.617273317, 
			 "HOMO_LUMO_gap": 0.17992, 
			 "cosmo_polarized_energy": -10.59, 
			 "cosmo_cavitation_energy": 25.89, 
			 "cosmo_dispersion_energy": -18.96, 
			 "cosmo_repulsion_energy": 1.5, 
			 "cosmo_total_nonelectrostatic_energy": 8.44, 
			 "SMD_solvation_energy": 7.09 
		},
		"coords": [
			{
				"x": -0.5700951297,
				"y": 0.7935639957,
				"z": -3.8668114725,
				"element": "C" 
			},
			{
				"x": 0.5050047045,
				"y": 0.3050039491,
				"z": -3.0730517371,
				"element": "O" 
			},
			{
				"x": 0.4064881513,
				"y": 0.3854859735,
				"z": -1.7233785594,
				"element": "C" 
			},
			{
				"x": 1.4948393067,
				"y": -0.131828836,
				"z": -0.9982314892,
				"element": "C" 
			},
			{
				"x": 1.4564575038,
				"y": -0.0956929078,
				"z": 0.3816256004,
				"element": "C" 
			},
			{
				"x": 0.374143369,
				"y": 0.4551407677,
				"z": 1.1018101465,
				"element": "C" 
			},
			{
				"x": 0.4258390589,
				"y": 0.3170106683,
				"z": 2.5651891468,
				"element": "C" 
			},
			{
				"x": -0.3939071602,
				"y": 0.6980073543,
				"z": 3.3842556757,
				"element": "O" 
			},
			{
				"x": -0.7031697712,
				"y": 0.9953063731,
				"z": 0.3539215459,
				"element": "C" 
			},
			{
				"x": -1.8349617319,
				"y": 1.5212788613,
				"z": 0.9013170546,
				"element": "O" 
			},
			{
				"x": -1.7119735618,
				"y": 2.7351859858,
				"z": 1.6559810928,
				"element": "C" 
			},
			{
				"x": -0.6800198487,
				"y": 0.9474988163,
				"z": -1.0442581325,
				"element": "C" 
			},
			{
				"x": -0.7249416879,
				"y": 1.8685677943,
				"z": -3.7147241631,
				"element": "H" 
			},
			{
				"x": -0.2815474265,
				"y": 0.6135943071,
				"z": -4.9030091985,
				"element": "H" 
			},
			{
				"x": -1.5030682014,
				"y": 0.2594676055,
				"z": -3.6508790588,
				"element": "H" 
			},
			{
				"x": 2.3307955661,
				"y": -0.5603605831,
				"z": -1.539504894,
				"element": "H" 
			},
			{
				"x": 2.2845560173,
				"y": -0.5175028627,
				"z": 0.9465010651,
				"element": "H" 
			},
			{
				"x": 1.3385932008,
				"y": -0.2219721263,
				"z": 2.9082346962,
				"element": "H" 
			},
			{
				"x": -1.1663470671,
				"y": 2.5683066225,
				"z": 2.5854965568,
				"element": "H" 
			},
			{
				"x": -1.2264806765,
				"y": 3.5122850653,
				"z": 1.0524898597,
				"element": "H" 
			},
			{
				"x": -2.7344349197,
				"y": 3.0427419038,
				"z": 1.8826226838,
				"element": "H" 
			},
			{
				"x": -1.5326696958,
				"y": 1.3626112721,
				"z": -1.5659964191,
				"element": "H" 
			}
		],
		 "valence_orbital": [ 
			{
				"type": "occ",
				"energy": -0.31736,
				"method": "rhf"
			},
			{
				"type": "occ",
				"energy": -0.28181,
				"method": "rhf"
			},
			{
				"type": "occ",
				"energy": -0.25153,
				"method": "rhf"
			},
			{
				"type": "occ",
				"energy": -0.24423,
				"method": "rhf"
			},
			{
				"type": "occ",
				"energy": -0.23148,
				"method": "rhf"
			},
			{
				"type": "unocc",
				"energy": -0.05156,
				"method": "rhf"
			},
			{
				"type": "unocc",
				"energy": -0.00892,
				"method": "rhf"
			},
			{
				"type": "unocc",
				"energy": 0.04996,
				"method": "rhf"
			},
			{
				"type": "unocc",
				"energy": 0.08896,
				"method": "rhf"
			},
			{
				"type": "unocc",
				"energy": 0.09555,
				"method": "rhf"
			}
		],
		"cosmo_sigma_profile": { 
			"-0.025": 0.0,
			"-0.024": 0.0,
			"-0.023": 0.0,
			"-0.022": 0.0,
			"-0.021": 0.0,
			"-0.02": 0.0,
			"-0.019": 0.0,
			"-0.018": 0.0,
			"-0.017": 0.0,
			"-0.016": 0.0,
			"-0.015": 0.0,
			"-0.014": 0.0,
			"-0.013": 0.0,
			"-0.012": 0.0,
			"-0.011": 0.0,
			"-0.01": 0.0,
			"-0.009": 0.0,
			"-0.008": 0.449836759944,
			"-0.007": 7.18280939055,
			"-0.006": 15.8241464236,
			"-0.005": 18.5533679044,
			"-0.004": 19.7658111313,
			"-0.003": 19.2763530263,
			"-0.002": 16.6745874452,
			"-0.001": 12.9094501644,
			"0.0": 11.4236935988,
			"0.001": 11.842383027,
			"0.002": 16.9976574533,
			"0.003": 13.2128166061,
			"0.004": 7.26458651379,
			"0.005": 3.95695304017,
			"0.006": 3.8844628024,
			"0.007": 4.17033576226,
			"0.008": 3.43420649856,
			"0.009": 4.35097532876,
			"0.01": 4.49889518647,
			"0.011": 4.8623992366,
			"0.012": 3.52670207925,
			"0.013": 1.95481446278,
			"0.014": 0.222492670994,
			"0.015": 0.0,
			"0.016": 0.0,
			"0.017": 0.0,
			"0.018": 0.0,
			"0.019": 0.0,
			"0.02": 0.0,
			"0.021": 0.0,
			"0.022": 0.0,
			"0.023": 0.0,
			"0.024": 0.0,
			"0.025": 0.0
		}
	}
}
