{
	 "smiles": "OC(=O)C=CC1=CC=C(OC(F)F)C=C1", 
	 "Tm": 456.15, 
	 "num_atms": 23, 
	 "gaussian": { 
		 "optdone": 1, 
		 "sigma_profile": "yes", 
		 "theory": "DFT", 
		 "functional": "B3LYP", 
		 "basiset": "6-31G**", 
		 "properties": { 
			 "R2extent": 5842.4261, 
			 "electric_dipole_moment_norm": 1.30297836129, 
			 "electric_quadrupole_moment_norm": 12.1232055988, 
			 "total_energy": -811.233884335, 
			 "HOMO_LUMO_gap": 0.16508, 
			 "cosmo_polarized_energy": -12.86, 
			 "cosmo_cavitation_energy": 29.83, 
			 "cosmo_dispersion_energy": -21.47, 
			 "cosmo_repulsion_energy": 1.64, 
			 "cosmo_total_nonelectrostatic_energy": 10.0, 
			 "SMD_solvation_energy": 7.72 
		},
		"coords": [
			{
				"x": 0.1940583684,
				"y": 4.9920712113,
				"z": -1.8071627257,
				"element": "O" 
			},
			{
				"x": 1.0843624547,
				"y": 3.9798638407,
				"z": -1.6338001207,
				"element": "C" 
			},
			{
				"x": 2.2687554628,
				"y": 4.1071853975,
				"z": -1.8839935803,
				"element": "O" 
			},
			{
				"x": 0.4259171379,
				"y": 2.7646955884,
				"z": -1.1211902954,
				"element": "C" 
			},
			{
				"x": 1.1535902858,
				"y": 1.6560939128,
				"z": -0.8892149821,
				"element": "C" 
			},
			{
				"x": 0.6873541289,
				"y": 0.366988622,
				"z": -0.3850937045,
				"element": "C" 
			},
			{
				"x": -0.6591534034,
				"y": 0.1028394729,
				"z": -0.0574706883,
				"element": "C" 
			},
			{
				"x": -1.0486626179,
				"y": -1.1364684804,
				"z": 0.4251547126,
				"element": "C" 
			},
			{
				"x": -0.0966994242,
				"y": -2.1506845165,
				"z": 0.5860408861,
				"element": "C" 
			},
			{
				"x": -0.5800526039,
				"y": -3.3549265224,
				"z": 1.0615077778,
				"element": "O" 
			},
			{
				"x": 0.2842272937,
				"y": -4.1891463771,
				"z": 1.731646907,
				"element": "C" 
			},
			{
				"x": -0.47387048,
				"y": -5.0891948181,
				"z": 2.3778648734,
				"element": "F" 
			},
			{
				"x": 1.0774167571,
				"y": -4.8695530557,
				"z": 0.8549662723,
				"element": "F" 
			},
			{
				"x": 1.2414316203,
				"y": -1.9287524805,
				"z": 0.2535732484,
				"element": "C" 
			},
			{
				"x": 1.6176497719,
				"y": -0.6724300518,
				"z": -0.2187235126,
				"element": "C" 
			},
			{
				"x": 0.7100081201,
				"y": 5.7432250366,
				"z": -2.1437368026,
				"element": "H" 
			},
			{
				"x": -0.6438679115,
				"y": 2.8233643594,
				"z": -0.9510853511,
				"element": "H" 
			},
			{
				"x": 2.2190429187,
				"y": 1.7293044355,
				"z": -1.1029232663,
				"element": "H" 
			},
			{
				"x": -1.4082765376,
				"y": 0.8790645593,
				"z": -0.1750039876,
				"element": "H" 
			},
			{
				"x": -2.0807300627,
				"y": -1.3421457007,
				"z": 0.6879174983,
				"element": "H" 
			},
			{
				"x": 0.9297343413,
				"y": -3.6529462526,
				"z": 2.4376634457,
				"element": "H" 
			},
			{
				"x": 1.9711042107,
				"y": -2.7254890823,
				"z": 0.329549407,
				"element": "H" 
			},
			{
				"x": 2.6583601689,
				"y": -0.4970590982,
				"z": -0.4767860112,
				"element": "H" 
			}
		],
		 "valence_orbital": [ 
			{
				"type": "occ",
				"energy": -0.31814,
				"method": "rhf"
			},
			{
				"type": "occ",
				"energy": -0.30043,
				"method": "rhf"
			},
			{
				"type": "occ",
				"energy": -0.27582,
				"method": "rhf"
			},
			{
				"type": "occ",
				"energy": -0.27393,
				"method": "rhf"
			},
			{
				"type": "occ",
				"energy": -0.23621,
				"method": "rhf"
			},
			{
				"type": "unocc",
				"energy": -0.07113,
				"method": "rhf"
			},
			{
				"type": "unocc",
				"energy": -0.02495,
				"method": "rhf"
			},
			{
				"type": "unocc",
				"energy": 0.01521,
				"method": "rhf"
			},
			{
				"type": "unocc",
				"energy": 0.07853,
				"method": "rhf"
			},
			{
				"type": "unocc",
				"energy": 0.08542,
				"method": "rhf"
			}
		],
		"cosmo_sigma_profile": { 
			"-0.025": 0.0,
			"-0.024": 0.0,
			"-0.023": 0.0,
			"-0.022": 0.0,
			"-0.021": 0.0,
			"-0.02": 0.0,
			"-0.019": 0.0,
			"-0.018": 0.315934803646,
			"-0.017": 1.13602112338,
			"-0.016": 0.673964866301,
			"-0.015": 0.888137140764,
			"-0.014": 0.586351161553,
			"-0.013": 0.825862552052,
			"-0.012": 0.760388479243,
			"-0.011": 1.35403850926,
			"-0.01": 3.86816551523,
			"-0.009": 3.7775332214,
			"-0.008": 6.15954432677,
			"-0.007": 11.0434157758,
			"-0.006": 12.1136622459,
			"-0.005": 10.4127558532,
			"-0.004": 8.17265687499,
			"-0.003": 8.9091743448,
			"-0.002": 11.1750294878,
			"-0.001": 12.2625824545,
			"0.0": 16.8534843179,
			"0.001": 20.1953785917,
			"0.002": 26.0067360397,
			"0.003": 36.1078233351,
			"0.004": 14.4817150088,
			"0.005": 4.17322382416,
			"0.006": 4.93899334547,
			"0.007": 4.0517484794,
			"0.008": 2.78179993525,
			"0.009": 2.86863744291,
			"0.01": 2.91071453214,
			"0.011": 2.34458760768,
			"0.012": 5.30793271453,
			"0.013": 1.68027212751,
			"0.014": 0.0,
			"0.015": 0.0,
			"0.016": 0.0,
			"0.017": 0.0,
			"0.018": 0.0,
			"0.019": 0.0,
			"0.02": 0.0,
			"0.021": 0.0,
			"0.022": 0.0,
			"0.023": 0.0,
			"0.024": 0.0,
			"0.025": 0.0
		}
	}
}
