{
	 "smiles": "CN1CCN(CC1)C1=CC=CC=C1C(O)=O", 
	 "Tm": 342.65, 
	 "num_atms": 32, 
	 "gaussian": { 
		 "optdone": 1, 
		 "sigma_profile": "yes", 
		 "theory": "DFT", 
		 "functional": "B3LYP", 
		 "basiset": "6-31G**", 
		 "properties": { 
			 "R2extent": 4129.5905, 
			 "electric_dipole_moment_norm": 2.50906095183, 
			 "electric_quadrupole_moment_norm": 13.5244192899, 
			 "total_energy": -726.852004907, 
			 "HOMO_LUMO_gap": 0.15825, 
			 "cosmo_polarized_energy": -12.09, 
			 "cosmo_cavitation_energy": 33.08, 
			 "cosmo_dispersion_energy": -23.88, 
			 "cosmo_repulsion_energy": 1.84, 
			 "cosmo_total_nonelectrostatic_energy": 11.05, 
			 "SMD_solvation_energy": 3.44 
		},
		"coords": [
			{
				"x": 2.7803492764,
				"y": -2.5005313397,
				"z": -1.4632545509,
				"element": "C" 
			},
			{
				"x": 2.393891105,
				"y": -2.1570139765,
				"z": -0.1047539147,
				"element": "N" 
			},
			{
				"x": 2.586995506,
				"y": -0.7287767888,
				"z": 0.1732020432,
				"element": "C" 
			},
			{
				"x": 1.685258734,
				"y": -0.2923015267,
				"z": 1.329081257,
				"element": "C" 
			},
			{
				"x": 0.2601385825,
				"y": -0.4278256247,
				"z": 1.0051697107,
				"element": "N" 
			},
			{
				"x": -0.0534163822,
				"y": -1.6015267031,
				"z": 0.1653940497,
				"element": "C" 
			},
			{
				"x": 1.0642415263,
				"y": -2.642365674,
				"z": 0.2945998327,
				"element": "C" 
			},
			{
				"x": -0.527638107,
				"y": 0.7197027438,
				"z": 0.8156530953,
				"element": "C" 
			},
			{
				"x": 0.0427871505,
				"y": 1.9189673094,
				"z": 0.3358736874,
				"element": "C" 
			},
			{
				"x": -0.7236273054,
				"y": 3.0501638525,
				"z": 0.08027894,
				"element": "C" 
			},
			{
				"x": -2.1073867591,
				"y": 3.0241377757,
				"z": 0.2684843124,
				"element": "C" 
			},
			{
				"x": -2.6924047543,
				"y": 1.8602338589,
				"z": 0.7460670775,
				"element": "C" 
			},
			{
				"x": -1.9318042863,
				"y": 0.7180285258,
				"z": 1.0565559152,
				"element": "C" 
			},
			{
				"x": -2.7215149572,
				"y": -0.3652707913,
				"z": 1.7093994219,
				"element": "C" 
			},
			{
				"x": -2.0014919514,
				"y": -1.2648032152,
				"z": 2.4263050449,
				"element": "O" 
			},
			{
				"x": -3.9378191653,
				"y": -0.4328317399,
				"z": 1.6760978255,
				"element": "O" 
			},
			{
				"x": 2.7207888519,
				"y": -3.5836369063,
				"z": -1.6091034479,
				"element": "H" 
			},
			{
				"x": 3.8210775028,
				"y": -2.2014361728,
				"z": -1.631255399,
				"element": "H" 
			},
			{
				"x": 2.1660360637,
				"y": -2.0115996642,
				"z": -2.2448606313,
				"element": "H" 
			},
			{
				"x": 2.3503996914,
				"y": -0.1069818914,
				"z": -0.7118870948,
				"element": "H" 
			},
			{
				"x": 3.6414541512,
				"y": -0.541505097,
				"z": 0.4204068091,
				"element": "H" 
			},
			{
				"x": 1.9140379171,
				"y": -0.9092654694,
				"z": 2.2089665709,
				"element": "H" 
			},
			{
				"x": 1.8968915075,
				"y": 0.7380630281,
				"z": 1.6166446669,
				"element": "H" 
			},
			{
				"x": -0.1614106926,
				"y": -1.3006874966,
				"z": -0.8895827477,
				"element": "H" 
			},
			{
				"x": -0.9962929424,
				"y": -2.05448593,
				"z": 0.4811051029,
				"element": "H" 
			},
			{
				"x": 1.096835311,
				"y": -2.9890283403,
				"z": 1.3359096994,
				"element": "H" 
			},
			{
				"x": 0.8092432957,
				"y": -3.5140169218,
				"z": -0.3153960592,
				"element": "H" 
			},
			{
				"x": 1.1045527331,
				"y": 1.9497163427,
				"z": 0.1189450734,
				"element": "H" 
			},
			{
				"x": -0.238481429,
				"y": 3.9466818277,
				"z": -0.2965807208,
				"element": "H" 
			},
			{
				"x": -2.7148787021,
				"y": 3.8973013282,
				"z": 0.0534361247,
				"element": "H" 
			},
			{
				"x": -3.760457545,
				"y": 1.8077437761,
				"z": 0.9258850864,
				"element": "H" 
			},
			{
				"x": -2.670653927,
				"y": -1.8478490995,
				"z": 2.8236132193,
				"element": "H" 
			}
		],
		 "valence_orbital": [ 
			{
				"type": "occ",
				"energy": -0.27091,
				"method": "rhf"
			},
			{
				"type": "occ",
				"energy": -0.26922,
				"method": "rhf"
			},
			{
				"type": "occ",
				"energy": -0.25317,
				"method": "rhf"
			},
			{
				"type": "occ",
				"energy": -0.20625,
				"method": "rhf"
			},
			{
				"type": "occ",
				"energy": -0.19798,
				"method": "rhf"
			},
			{
				"type": "unocc",
				"energy": -0.03973,
				"method": "rhf"
			},
			{
				"type": "unocc",
				"energy": -0.00081,
				"method": "rhf"
			},
			{
				"type": "unocc",
				"energy": 0.05561,
				"method": "rhf"
			},
			{
				"type": "unocc",
				"energy": 0.07483,
				"method": "rhf"
			},
			{
				"type": "unocc",
				"energy": 0.08773,
				"method": "rhf"
			}
		],
		"cosmo_sigma_profile": { 
			"-0.025": 0.0,
			"-0.024": 0.0,
			"-0.023": 0.0,
			"-0.022": 0.0,
			"-0.021": 0.0,
			"-0.02": 0.0,
			"-0.019": 0.0,
			"-0.018": 0.132350794811,
			"-0.017": 0.961163378015,
			"-0.016": 1.0103189234,
			"-0.015": 0.60636303685,
			"-0.014": 0.501531574458,
			"-0.013": 0.669015427269,
			"-0.012": 0.495996575242,
			"-0.011": 0.917690940873,
			"-0.01": 1.30483334837,
			"-0.009": 0.518023269261,
			"-0.008": 0.612933621311,
			"-0.007": 1.12037636957,
			"-0.006": 7.52439707809,
			"-0.005": 11.1380283579,
			"-0.004": 21.3388556836,
			"-0.003": 29.4263217959,
			"-0.002": 36.6063512789,
			"-0.001": 31.8288935031,
			"0.0": 21.4322419065,
			"0.001": 12.5379744771,
			"0.002": 11.2137720516,
			"0.003": 13.0620232637,
			"0.004": 13.0657756764,
			"0.005": 11.1225892447,
			"0.006": 4.02627200312,
			"0.007": 2.77370568822,
			"0.008": 3.02379590997,
			"0.009": 3.42779673718,
			"0.01": 2.95558107207,
			"0.011": 3.91738429923,
			"0.012": 6.62907472028,
			"0.013": 2.32258261835,
			"0.014": 0.513140415032,
			"0.015": 0.484769499103,
			"0.016": 0.338947893221,
			"0.017": 0.177094424295,
			"0.018": 0.0,
			"0.019": 0.0,
			"0.02": 0.0,
			"0.021": 0.0,
			"0.022": 0.0,
			"0.023": 0.0,
			"0.024": 0.0,
			"0.025": 0.0
		}
	}
}
