{
	 "smiles": "ClCC1=CC=CC=C1Cl", 
	 "Tm": 258.15, 
	 "num_atms": 15, 
	 "gaussian": { 
		 "optdone": 1, 
		 "sigma_profile": "yes", 
		 "theory": "DFT", 
		 "functional": "B3LYP", 
		 "basiset": "6-31G**", 
		 "properties": { 
			 "R2extent": 2104.2035, 
			 "electric_dipole_moment_norm": 3.18622481944, 
			 "electric_quadrupole_moment_norm": 7.19862356982, 
			 "total_energy": -1190.75047716, 
			 "HOMO_LUMO_gap": 0.21525, 
			 "cosmo_polarized_energy": -6.51, 
			 "cosmo_cavitation_energy": 22.27, 
			 "cosmo_dispersion_energy": -16.55, 
			 "cosmo_repulsion_energy": 1.36, 
			 "cosmo_total_nonelectrostatic_energy": 7.08, 
			 "SMD_solvation_energy": 3.21 
		},
		"coords": [
			{
				"x": 2.315272552,
				"y": -0.2939536718,
				"z": -1.5328095605,
				"element": "Cl" 
			},
			{
				"x": 0.7695086021,
				"y": 0.5846385811,
				"z": -1.0816120386,
				"element": "C" 
			},
			{
				"x": -0.2161068378,
				"y": -0.3138623232,
				"z": -0.3989636579,
				"element": "C" 
			},
			{
				"x": -0.2198390925,
				"y": -0.4040802692,
				"z": 1.0010805501,
				"element": "C" 
			},
			{
				"x": -1.1207823705,
				"y": -1.2220782288,
				"z": 1.6776921632,
				"element": "C" 
			},
			{
				"x": -2.0474996673,
				"y": -1.9745746033,
				"z": 0.9547064613,
				"element": "C" 
			},
			{
				"x": -2.0689321878,
				"y": -1.9058353663,
				"z": -0.4376121179,
				"element": "C" 
			},
			{
				"x": -1.1578288439,
				"y": -1.0837154659,
				"z": -1.1002179821,
				"element": "C" 
			},
			{
				"x": -1.2230564479,
				"y": -1.0306224038,
				"z": -2.8577418975,
				"element": "Cl" 
			},
			{
				"x": 0.3832310648,
				"y": 0.991926046,
				"z": -2.0140196255,
				"element": "H" 
			},
			{
				"x": 1.0790809267,
				"y": 1.3969518601,
				"z": -0.4247597969,
				"element": "H" 
			},
			{
				"x": 0.5055698552,
				"y": 0.180909018,
				"z": 1.5600877415,
				"element": "H" 
			},
			{
				"x": -1.1007450773,
				"y": -1.271143444,
				"z": 2.7618513021,
				"element": "H" 
			},
			{
				"x": -2.7568285973,
				"y": -2.6154707372,
				"z": 1.4695374192,
				"element": "H" 
			},
			{
				"x": -2.7840438786,
				"y": -2.4831889917,
				"z": -1.0128189608,
				"element": "H" 
			}
		],
		 "valence_orbital": [ 
			{
				"type": "occ",
				"energy": -0.3201,
				"method": "rhf"
			},
			{
				"type": "occ",
				"energy": -0.29685,
				"method": "rhf"
			},
			{
				"type": "occ",
				"energy": -0.29303,
				"method": "rhf"
			},
			{
				"type": "occ",
				"energy": -0.26718,
				"method": "rhf"
			},
			{
				"type": "occ",
				"energy": -0.25423,
				"method": "rhf"
			},
			{
				"type": "unocc",
				"energy": -0.03898,
				"method": "rhf"
			},
			{
				"type": "unocc",
				"energy": -0.02126,
				"method": "rhf"
			},
			{
				"type": "unocc",
				"energy": 0.02366,
				"method": "rhf"
			},
			{
				"type": "unocc",
				"energy": 0.03937,
				"method": "rhf"
			},
			{
				"type": "unocc",
				"energy": 0.09366,
				"method": "rhf"
			}
		],
		"cosmo_sigma_profile": { 
			"-0.025": 0.0,
			"-0.024": 0.0,
			"-0.023": 0.0,
			"-0.022": 0.0,
			"-0.021": 0.0,
			"-0.02": 0.0,
			"-0.019": 0.0,
			"-0.018": 0.0,
			"-0.017": 0.0,
			"-0.016": 0.0,
			"-0.015": 0.0,
			"-0.014": 0.0,
			"-0.013": 0.0,
			"-0.012": 0.0,
			"-0.011": 0.0,
			"-0.01": 0.0,
			"-0.009": 0.272993811832,
			"-0.008": 3.67401184027,
			"-0.007": 9.54043772851,
			"-0.006": 11.8652067759,
			"-0.005": 13.0764758454,
			"-0.004": 10.8017383108,
			"-0.003": 8.56290896858,
			"-0.002": 8.67562000414,
			"-0.001": 9.03148022929,
			"0.0": 10.4891493107,
			"0.001": 15.4605238434,
			"0.002": 17.2955232905,
			"0.003": 21.5983260172,
			"0.004": 18.3879115891,
			"0.005": 8.91246759483,
			"0.006": 10.3195242956,
			"0.007": 4.80076558808,
			"0.008": 0.0,
			"0.009": 0.0,
			"0.01": 0.0,
			"0.011": 0.0,
			"0.012": 0.0,
			"0.013": 0.0,
			"0.014": 0.0,
			"0.015": 0.0,
			"0.016": 0.0,
			"0.017": 0.0,
			"0.018": 0.0,
			"0.019": 0.0,
			"0.02": 0.0,
			"0.021": 0.0,
			"0.022": 0.0,
			"0.023": 0.0,
			"0.024": 0.0,
			"0.025": 0.0
		}
	}
}
