{
	 "smiles": "O=C1CNC(=O)N1", 
	 "Tm": 494.15, 
	 "num_atms": 11, 
	 "gaussian": { 
		 "optdone": 1, 
		 "sigma_profile": "yes", 
		 "theory": "DFT", 
		 "functional": "B3LYP", 
		 "basiset": "6-31G**", 
		 "properties": { 
			 "R2extent": 933.7253, 
			 "electric_dipole_moment_norm": 2.47391311286, 
			 "electric_quadrupole_moment_norm": 12.1140059452, 
			 "total_energy": -376.71311269, 
			 "HOMO_LUMO_gap": 0.25501, 
			 "cosmo_polarized_energy": -15.63, 
			 "cosmo_cavitation_energy": 15.46, 
			 "cosmo_dispersion_energy": -12.01, 
			 "cosmo_repulsion_energy": 1.06, 
			 "cosmo_total_nonelectrostatic_energy": 4.51, 
			 "SMD_solvation_energy": 3.76 
		},
		"coords": [
			{
				"x": -1.6336263103,
				"y": -2.1477875993,
				"z": -1.7316015097,
				"element": "O" 
			},
			{
				"x": -1.0027804404,
				"y": -1.1565282626,
				"z": -1.4387392804,
				"element": "C" 
			},
			{
				"x": -1.5494429767,
				"y": 0.2649099049,
				"z": -1.2283914143,
				"element": "C" 
			},
			{
				"x": -0.3542486777,
				"y": 1.0152733753,
				"z": -0.9030624425,
				"element": "N" 
			},
			{
				"x": 0.7853146411,
				"y": 0.2507807915,
				"z": -0.8941173044,
				"element": "C" 
			},
			{
				"x": 1.9248255147,
				"y": 0.5920389881,
				"z": -0.6601228504,
				"element": "O" 
			},
			{
				"x": 0.3566660815,
				"y": -1.0557637762,
				"z": -1.221891003,
				"element": "N" 
			},
			{
				"x": -2.2919266245,
				"y": 0.2565502795,
				"z": -0.4212543207,
				"element": "H" 
			},
			{
				"x": -2.0428257618,
				"y": 0.6075695805,
				"z": -2.1459840851,
				"element": "H" 
			},
			{
				"x": -0.3133201261,
				"y": 1.9998369802,
				"z": -0.6967716612,
				"element": "H" 
			},
			{
				"x": 1.0002646801,
				"y": -1.8308802618,
				"z": -1.2867641284,
				"element": "H" 
			}
		],
		 "valence_orbital": [ 
			{
				"type": "occ",
				"energy": -0.39864,
				"method": "rhf"
			},
			{
				"type": "occ",
				"energy": -0.29514,
				"method": "rhf"
			},
			{
				"type": "occ",
				"energy": -0.2922,
				"method": "rhf"
			},
			{
				"type": "occ",
				"energy": -0.2725,
				"method": "rhf"
			},
			{
				"type": "occ",
				"energy": -0.26768,
				"method": "rhf"
			},
			{
				"type": "unocc",
				"energy": -0.01267,
				"method": "rhf"
			},
			{
				"type": "unocc",
				"energy": 0.06193,
				"method": "rhf"
			},
			{
				"type": "unocc",
				"energy": 0.0679,
				"method": "rhf"
			},
			{
				"type": "unocc",
				"energy": 0.10173,
				"method": "rhf"
			},
			{
				"type": "unocc",
				"energy": 0.10633,
				"method": "rhf"
			}
		],
		"cosmo_sigma_profile": { 
			"-0.025": 0.0,
			"-0.024": 0.0,
			"-0.023": 0.0,
			"-0.022": 0.0,
			"-0.021": 0.0,
			"-0.02": 0.0,
			"-0.019": 0.0,
			"-0.018": 0.0,
			"-0.017": 0.282047199171,
			"-0.016": 1.74305821817,
			"-0.015": 2.21413596824,
			"-0.014": 2.71978855574,
			"-0.013": 1.61398803489,
			"-0.012": 1.26969025595,
			"-0.011": 1.87011396003,
			"-0.01": 1.76505155519,
			"-0.009": 1.90919840986,
			"-0.008": 6.22551853227,
			"-0.007": 7.87578866417,
			"-0.006": 9.12363221976,
			"-0.005": 6.73592797867,
			"-0.004": 5.29936989285,
			"-0.003": 4.45975151014,
			"-0.002": 6.34030606562,
			"-0.001": 6.19188903049,
			"0.0": 3.72515510113,
			"0.001": 4.82842617962,
			"0.002": 2.96556429495,
			"0.003": 1.67348004129,
			"0.004": 2.48906543671,
			"0.005": 2.86120175512,
			"0.006": 1.8249573706,
			"0.007": 1.90458762355,
			"0.008": 2.26317347839,
			"0.009": 3.01283909445,
			"0.01": 3.64461920192,
			"0.011": 4.75257784528,
			"0.012": 9.76676293877,
			"0.013": 8.51966476212,
			"0.014": 1.0075350209,
			"0.015": 0.0,
			"0.016": 0.0,
			"0.017": 0.0,
			"0.018": 0.0,
			"0.019": 0.0,
			"0.02": 0.0,
			"0.021": 0.0,
			"0.022": 0.0,
			"0.023": 0.0,
			"0.024": 0.0,
			"0.025": 0.0
		}
	}
}
