{
	 "smiles": "ClC1=CC=CC(Cl)=C1C=C(C#N)C1=NC(=CS1)C1=CC=CC=C1", 
	 "Tm": 369.15, 
	 "num_atms": 33, 
	 "gaussian": { 
		 "optdone": 1, 
		 "sigma_profile": "yes", 
		 "theory": "DFT", 
		 "functional": "B3LYP", 
		 "basiset": "6-31G**", 
		 "properties": { 
			 "R2extent": 10006.7254, 
			 "electric_dipole_moment_norm": 5.24181587906, 
			 "electric_quadrupole_moment_norm": 23.645498741, 
			 "total_energy": -2119.97547702, 
			 "HOMO_LUMO_gap": 0.13578, 
			 "cosmo_polarized_energy": -12.87, 
			 "cosmo_cavitation_energy": 44.51, 
			 "cosmo_dispersion_energy": -29.41, 
			 "cosmo_repulsion_energy": 2.2, 
			 "cosmo_total_nonelectrostatic_energy": 17.3, 
			 "SMD_solvation_energy": 7.38 
		},
		"coords": [
			{
				"x": 0.1267907943,
				"y": -3.4222567775,
				"z": -0.3889532408,
				"element": "Cl" 
			},
			{
				"x": 1.4861633719,
				"y": -2.7664567152,
				"z": 0.5009138993,
				"element": "C" 
			},
			{
				"x": 1.3965302314,
				"y": -2.7370243632,
				"z": 1.8906967225,
				"element": "C" 
			},
			{
				"x": 2.472460523,
				"y": -2.2655841684,
				"z": 2.6407493579,
				"element": "C" 
			},
			{
				"x": 3.63771961,
				"y": -1.8382591636,
				"z": 2.0083974663,
				"element": "C" 
			},
			{
				"x": 3.7063488546,
				"y": -1.881701044,
				"z": 0.618218377,
				"element": "C" 
			},
			{
				"x": 5.1861556249,
				"y": -1.3429434369,
				"z": -0.1600051757,
				"element": "Cl" 
			},
			{
				"x": 2.6350339976,
				"y": -2.3212496328,
				"z": -0.181561896,
				"element": "C" 
			},
			{
				"x": 2.8001729845,
				"y": -2.3989222486,
				"z": -1.6469486045,
				"element": "C" 
			},
			{
				"x": 2.1162031859,
				"y": -1.7306706417,
				"z": -2.6093257025,
				"element": "C" 
			},
			{
				"x": 2.4423435927,
				"y": -2.0319999093,
				"z": -3.9784252028,
				"element": "C" 
			},
			{
				"x": 2.6925265623,
				"y": -2.2725930618,
				"z": -5.08855916,
				"element": "N" 
			},
			{
				"x": 1.093707176,
				"y": -0.6969063946,
				"z": -2.3994526117,
				"element": "C" 
			},
			{
				"x": 0.8123206853,
				"y": -0.14622411,
				"z": -1.2521142429,
				"element": "N" 
			},
			{
				"x": -0.1859456186,
				"y": 0.7956248808,
				"z": -1.3536637753,
				"element": "C" 
			},
			{
				"x": -0.6694302157,
				"y": 0.9631570218,
				"z": -2.6347840647,
				"element": "C" 
			},
			{
				"x": 0.1337752636,
				"y": -0.0789419097,
				"z": -3.7434041104,
				"element": "S" 
			},
			{
				"x": -0.6243558871,
				"y": 1.522158438,
				"z": -0.1451263311,
				"element": "C" 
			},
			{
				"x": -1.7312092141,
				"y": 2.3870172442,
				"z": -0.166546731,
				"element": "C" 
			},
			{
				"x": -2.1223256431,
				"y": 3.0702362337,
				"z": 0.9823457684,
				"element": "C" 
			},
			{
				"x": -1.4171261428,
				"y": 2.9010197643,
				"z": 2.1762229746,
				"element": "C" 
			},
			{
				"x": -0.3189246755,
				"y": 2.0398359469,
				"z": 2.2092414088,
				"element": "C" 
			},
			{
				"x": 0.0752511363,
				"y": 1.3550064008,
				"z": 1.0612951436,
				"element": "C" 
			},
			{
				"x": 0.4918064465,
				"y": -3.0882515262,
				"z": 2.3729568526,
				"element": "H" 
			},
			{
				"x": 2.404844244,
				"y": -2.2400853753,
				"z": 3.7237690821,
				"element": "H" 
			},
			{
				"x": 4.4861956835,
				"y": -1.4761284459,
				"z": 2.5771812826,
				"element": "H" 
			},
			{
				"x": 3.5931583388,
				"y": -3.0600772958,
				"z": -1.9892530014,
				"element": "H" 
			},
			{
				"x": -1.4306261363,
				"y": 1.6453238573,
				"z": -2.9831812537,
				"element": "H" 
			},
			{
				"x": -2.2998938401,
				"y": 2.5231242447,
				"z": -1.0815571066,
				"element": "H" 
			},
			{
				"x": -2.9818252182,
				"y": 3.7333912454,
				"z": 0.9460891961,
				"element": "H" 
			},
			{
				"x": -1.7231822434,
				"y": 3.4340090689,
				"z": 3.0716847895,
				"element": "H" 
			},
			{
				"x": 0.2355178341,
				"y": 1.900793177,
				"z": 3.1331003243,
				"element": "H" 
			},
			{
				"x": 0.9272186938,
				"y": 0.6851786968,
				"z": 1.0828995655,
				"element": "H" 
			}
		],
		 "valence_orbital": [ 
			{
				"type": "occ",
				"energy": -0.27551,
				"method": "rhf"
			},
			{
				"type": "occ",
				"energy": -0.25969,
				"method": "rhf"
			},
			{
				"type": "occ",
				"energy": -0.25769,
				"method": "rhf"
			},
			{
				"type": "occ",
				"energy": -0.25496,
				"method": "rhf"
			},
			{
				"type": "occ",
				"energy": -0.22436,
				"method": "rhf"
			},
			{
				"type": "unocc",
				"energy": -0.08858,
				"method": "rhf"
			},
			{
				"type": "unocc",
				"energy": -0.04222,
				"method": "rhf"
			},
			{
				"type": "unocc",
				"energy": -0.03158,
				"method": "rhf"
			},
			{
				"type": "unocc",
				"energy": -0.0275,
				"method": "rhf"
			},
			{
				"type": "unocc",
				"energy": -0.00678,
				"method": "rhf"
			}
		],
		"cosmo_sigma_profile": { 
			"-0.025": 0.0,
			"-0.024": 0.0,
			"-0.023": 0.0,
			"-0.022": 0.0,
			"-0.021": 0.0,
			"-0.02": 0.0,
			"-0.019": 0.0,
			"-0.018": 0.0,
			"-0.017": 0.0,
			"-0.016": 0.0,
			"-0.015": 0.0,
			"-0.014": 0.0,
			"-0.013": 0.0,
			"-0.012": 0.0,
			"-0.011": 0.106590256954,
			"-0.01": 2.68621872889,
			"-0.009": 4.31606842028,
			"-0.008": 8.87693906253,
			"-0.007": 10.8528216602,
			"-0.006": 14.0248270743,
			"-0.005": 18.1642805701,
			"-0.004": 18.2809180233,
			"-0.003": 22.8027667532,
			"-0.002": 22.1936176361,
			"-0.001": 26.4319281486,
			"0.0": 37.4212474827,
			"0.001": 45.0648975764,
			"0.002": 39.9997229732,
			"0.003": 28.1248163035,
			"0.004": 26.8612961446,
			"0.005": 17.5952838033,
			"0.006": 6.88662392754,
			"0.007": 3.04498169589,
			"0.008": 3.35990230947,
			"0.009": 2.69375679207,
			"0.01": 2.91822913889,
			"0.011": 2.29359206611,
			"0.012": 1.76427015284,
			"0.013": 0.105622242955,
			"0.014": 0.0,
			"0.015": 0.0,
			"0.016": 0.0,
			"0.017": 0.0,
			"0.018": 0.0,
			"0.019": 0.0,
			"0.02": 0.0,
			"0.021": 0.0,
			"0.022": 0.0,
			"0.023": 0.0,
			"0.024": 0.0,
			"0.025": 0.0
		}
	}
}
