{
	 "smiles": "ClC1=NN2C(C=C1)=NN=C2C1CC1", 
	 "Tm": 391.15, 
	 "num_atms": 20, 
	 "gaussian": { 
		 "optdone": 1, 
		 "sigma_profile": "yes", 
		 "theory": "DFT", 
		 "functional": "B3LYP", 
		 "basiset": "6-31G**", 
		 "properties": { 
			 "R2extent": 3302.8542, 
			 "electric_dipole_moment_norm": 2.58802902804, 
			 "electric_quadrupole_moment_norm": 15.6383164577, 
			 "total_energy": -988.180518973, 
			 "HOMO_LUMO_gap": 0.15377, 
			 "cosmo_polarized_energy": -12.47, 
			 "cosmo_cavitation_energy": 26.49, 
			 "cosmo_dispersion_energy": -19.83, 
			 "cosmo_repulsion_energy": 1.57, 
			 "cosmo_total_nonelectrostatic_energy": 8.23, 
			 "SMD_solvation_energy": 1.16 
		},
		"coords": [
			{
				"x": -0.0948280266,
				"y": 0.3286041405,
				"z": 4.3420609944,
				"element": "Cl" 
			},
			{
				"x": -0.8777281608,
				"y": 0.1286266077,
				"z": 2.7930844258,
				"element": "C" 
			},
			{
				"x": -0.1623773973,
				"y": 0.438090128,
				"z": 1.7514905674,
				"element": "N" 
			},
			{
				"x": -0.8104552246,
				"y": 0.267150886,
				"z": 0.5740048541,
				"element": "N" 
			},
			{
				"x": -2.1211152957,
				"y": -0.1923476142,
				"z": 0.399494931,
				"element": "C" 
			},
			{
				"x": -2.8501474329,
				"y": -0.5132389971,
				"z": 1.568867558,
				"element": "C" 
			},
			{
				"x": -2.229061543,
				"y": -0.3535799038,
				"z": 2.7770725219,
				"element": "C" 
			},
			{
				"x": -2.4078302836,
				"y": -0.2282886131,
				"z": -0.8904610008,
				"element": "N" 
			},
			{
				"x": -1.2959101731,
				"y": 0.2036881979,
				"z": -1.5582362184,
				"element": "N" 
			},
			{
				"x": -0.338322525,
				"y": 0.5011875936,
				"z": -0.6894000801,
				"element": "C" 
			},
			{
				"x": 1.0103036366,
				"y": 0.9988055857,
				"z": -0.9888767029,
				"element": "C" 
			},
			{
				"x": 1.7112565785,
				"y": 0.5173830291,
				"z": -2.2489937192,
				"element": "C" 
			},
			{
				"x": 1.2074966499,
				"y": 1.9256285049,
				"z": -2.1775636271,
				"element": "C" 
			},
			{
				"x": -3.8687814135,
				"y": -0.8726982352,
				"z": 1.4783513836,
				"element": "H" 
			},
			{
				"x": -2.7216605827,
				"y": -0.5780094532,
				"z": 3.7142594954,
				"element": "H" 
			},
			{
				"x": 1.6186763853,
				"y": 1.1717123545,
				"z": -0.1076179766,
				"element": "H" 
			},
			{
				"x": 1.1604193881,
				"y": -0.1829229827,
				"z": -2.8681641649,
				"element": "H" 
			},
			{
				"x": 2.7797511663,
				"y": 0.3374363432,
				"z": -2.1826705782,
				"element": "H" 
			},
			{
				"x": 0.3183964431,
				"y": 2.1713759709,
				"z": -2.7488111856,
				"element": "H" 
			},
			{
				"x": 1.9225178111,
				"y": 2.7340964573,
				"z": -2.0609914778,
				"element": "H" 
			}
		],
		 "valence_orbital": [ 
			{
				"type": "occ",
				"energy": -0.31696,
				"method": "rhf"
			},
			{
				"type": "occ",
				"energy": -0.31295,
				"method": "rhf"
			},
			{
				"type": "occ",
				"energy": -0.28099,
				"method": "rhf"
			},
			{
				"type": "occ",
				"energy": -0.25936,
				"method": "rhf"
			},
			{
				"type": "occ",
				"energy": -0.23591,
				"method": "rhf"
			},
			{
				"type": "unocc",
				"energy": -0.08214,
				"method": "rhf"
			},
			{
				"type": "unocc",
				"energy": -0.02226,
				"method": "rhf"
			},
			{
				"type": "unocc",
				"energy": 0.00895,
				"method": "rhf"
			},
			{
				"type": "unocc",
				"energy": 0.02853,
				"method": "rhf"
			},
			{
				"type": "unocc",
				"energy": 0.0914,
				"method": "rhf"
			}
		],
		"cosmo_sigma_profile": { 
			"-0.025": 0.0,
			"-0.024": 0.0,
			"-0.023": 0.0,
			"-0.022": 0.0,
			"-0.021": 0.0,
			"-0.02": 0.0,
			"-0.019": 0.0,
			"-0.018": 0.0,
			"-0.017": 0.0,
			"-0.016": 0.0,
			"-0.015": 0.0,
			"-0.014": 0.0,
			"-0.013": 0.0,
			"-0.012": 0.0,
			"-0.011": 0.0839701014763,
			"-0.01": 2.5483703505,
			"-0.009": 4.73032585463,
			"-0.008": 3.58673755935,
			"-0.007": 4.19101014248,
			"-0.006": 8.11457401451,
			"-0.005": 14.2953450926,
			"-0.004": 16.0934548021,
			"-0.003": 20.6645951174,
			"-0.002": 19.1003199123,
			"-0.001": 20.7571252506,
			"0.0": 16.5644995416,
			"0.001": 15.2145767303,
			"0.002": 16.0882362827,
			"0.003": 14.5744524643,
			"0.004": 7.64040332547,
			"0.005": 4.4163365979,
			"0.006": 3.49744591765,
			"0.007": 2.65049469768,
			"0.008": 2.36218779146,
			"0.009": 2.50132013004,
			"0.01": 1.72958968711,
			"0.011": 1.89823490746,
			"0.012": 2.65358184712,
			"0.013": 4.17043033553,
			"0.014": 2.11442452525,
			"0.015": 2.23345661162,
			"0.016": 1.06333379582,
			"0.017": 0.0701686923247,
			"0.018": 0.0,
			"0.019": 0.0,
			"0.02": 0.0,
			"0.021": 0.0,
			"0.022": 0.0,
			"0.023": 0.0,
			"0.024": 0.0,
			"0.025": 0.0
		}
	}
}
