{
	 "smiles": "CCC1(C)NC(=O)N(CCCN)C1=O", 
	 "Tm": 337.15, 
	 "num_atms": 31, 
	 "gaussian": { 
		 "optdone": 1, 
		 "sigma_profile": "yes", 
		 "theory": "DFT", 
		 "functional": "B3LYP", 
		 "basiset": "6-31G**", 
		 "properties": { 
			 "R2extent": 4018.9475, 
			 "electric_dipole_moment_norm": 3.49873331507, 
			 "electric_quadrupole_moment_norm": 11.8580349789, 
			 "total_energy": -667.96339205, 
			 "HOMO_LUMO_gap": 0.22458, 
			 "cosmo_polarized_energy": -17.48, 
			 "cosmo_cavitation_energy": 33.57, 
			 "cosmo_dispersion_energy": -22.74, 
			 "cosmo_repulsion_energy": 1.85, 
			 "cosmo_total_nonelectrostatic_energy": 12.68, 
			 "SMD_solvation_energy": 5.29 
		},
		"coords": [
			{
				"x": -0.2079546576,
				"y": 2.0539077124,
				"z": 2.5667018193,
				"element": "C" 
			},
			{
				"x": -0.7219746809,
				"y": 0.6968981181,
				"z": 3.0528027981,
				"element": "C" 
			},
			{
				"x": -1.3779183389,
				"y": -0.1815259289,
				"z": 1.9644774383,
				"element": "C" 
			},
			{
				"x": -1.8399247006,
				"y": -1.5263676745,
				"z": 2.5523434707,
				"element": "C" 
			},
			{
				"x": -2.4543620732,
				"y": 0.5064815646,
				"z": 1.2504198458,
				"element": "N" 
			},
			{
				"x": -2.2751316905,
				"y": 0.5354343312,
				"z": -0.1092262711,
				"element": "C" 
			},
			{
				"x": -3.0370515938,
				"y": 0.9405859339,
				"z": -0.9661184905,
				"element": "O" 
			},
			{
				"x": -0.9885391464,
				"y": 0.0007078483,
				"z": -0.3483218565,
				"element": "N" 
			},
			{
				"x": -0.4029274044,
				"y": -0.0921460548,
				"z": -1.6805591201,
				"element": "C" 
			},
			{
				"x": -0.8492659798,
				"y": -1.3450257587,
				"z": -2.4440930511,
				"element": "C" 
			},
			{
				"x": -0.2261570821,
				"y": -1.4266234949,
				"z": -3.8479116915,
				"element": "C" 
			},
			{
				"x": -0.6073709047,
				"y": -2.5914484781,
				"z": -4.6485366498,
				"element": "N" 
			},
			{
				"x": -0.3888961148,
				"y": -0.4436991687,
				"z": 0.8097010777,
				"element": "C" 
			},
			{
				"x": 0.7126739445,
				"y": -0.9515287848,
				"z": 0.9083492606,
				"element": "O" 
			},
			{
				"x": 0.1975704826,
				"y": 2.6293866553,
				"z": 3.4041920149,
				"element": "H" 
			},
			{
				"x": -1.0081724943,
				"y": 2.642447972,
				"z": 2.1085175228,
				"element": "H" 
			},
			{
				"x": 0.5940289218,
				"y": 1.9350180054,
				"z": 1.8310806874,
				"element": "H" 
			},
			{
				"x": -1.4563361871,
				"y": 0.8385157589,
				"z": 3.8564968635,
				"element": "H" 
			},
			{
				"x": 0.103974297,
				"y": 0.116048357,
				"z": 3.4775293965,
				"element": "H" 
			},
			{
				"x": -2.5479067629,
				"y": -1.3624931879,
				"z": 3.3717635945,
				"element": "H" 
			},
			{
				"x": -0.9793275699,
				"y": -2.0764287527,
				"z": 2.9416136975,
				"element": "H" 
			},
			{
				"x": -2.3286178555,
				"y": -2.1401035226,
				"z": 1.7898893404,
				"element": "H" 
			},
			{
				"x": -3.3784225832,
				"y": 0.648462015,
				"z": 1.6292645837,
				"element": "H" 
			},
			{
				"x": 0.6823416731,
				"y": -0.0872172286,
				"z": -1.5447314537,
				"element": "H" 
			},
			{
				"x": -0.6948310871,
				"y": 0.8096888788,
				"z": -2.2263478184,
				"element": "H" 
			},
			{
				"x": -0.5701959975,
				"y": -2.2355240095,
				"z": -1.8656258134,
				"element": "H" 
			},
			{
				"x": -1.9432162446,
				"y": -1.3364291002,
				"z": -2.5266228709,
				"element": "H" 
			},
			{
				"x": -0.4925736576,
				"y": -0.5269509322,
				"z": -4.4175987891,
				"element": "H" 
			},
			{
				"x": 0.8683670538,
				"y": -1.4213010961,
				"z": -3.763407216,
				"element": "H" 
			},
			{
				"x": -1.61873999,
				"y": -2.6149973422,
				"z": -4.7614075603,
				"element": "H" 
			},
			{
				"x": -0.3588415754,
				"y": -3.4457726354,
				"z": -4.1540347591,
				"element": "H" 
			}
		],
		 "valence_orbital": [ 
			{
				"type": "occ",
				"energy": -0.28681,
				"method": "rhf"
			},
			{
				"type": "occ",
				"energy": -0.27569,
				"method": "rhf"
			},
			{
				"type": "occ",
				"energy": -0.26475,
				"method": "rhf"
			},
			{
				"type": "occ",
				"energy": -0.25956,
				"method": "rhf"
			},
			{
				"type": "occ",
				"energy": -0.23114,
				"method": "rhf"
			},
			{
				"type": "unocc",
				"energy": -0.00656,
				"method": "rhf"
			},
			{
				"type": "unocc",
				"energy": 0.05725,
				"method": "rhf"
			},
			{
				"type": "unocc",
				"energy": 0.07203,
				"method": "rhf"
			},
			{
				"type": "unocc",
				"energy": 0.0826,
				"method": "rhf"
			},
			{
				"type": "unocc",
				"energy": 0.10019,
				"method": "rhf"
			}
		],
		"cosmo_sigma_profile": { 
			"-0.025": 0.0,
			"-0.024": 0.0,
			"-0.023": 0.0,
			"-0.022": 0.0,
			"-0.021": 0.0,
			"-0.02": 0.0,
			"-0.019": 0.0,
			"-0.018": 0.0,
			"-0.017": 0.0,
			"-0.016": 0.0,
			"-0.015": 0.68573978551,
			"-0.014": 1.5082019189,
			"-0.013": 0.790009189805,
			"-0.012": 0.912644935104,
			"-0.011": 1.56348312534,
			"-0.01": 1.30134163383,
			"-0.009": 3.52293519702,
			"-0.008": 3.79281800805,
			"-0.007": 4.49310165208,
			"-0.006": 6.07168138158,
			"-0.005": 13.311191954,
			"-0.004": 24.2219522722,
			"-0.003": 32.0725781061,
			"-0.002": 33.5038934327,
			"-0.001": 30.4003183392,
			"0.0": 24.074636173,
			"0.001": 13.5327958751,
			"0.002": 5.73540640164,
			"0.003": 4.76337133544,
			"0.004": 5.93616698687,
			"0.005": 3.67037423984,
			"0.006": 3.24016385733,
			"0.007": 4.04322745088,
			"0.008": 3.00573490869,
			"0.009": 3.62058215499,
			"0.01": 3.44740217249,
			"0.011": 4.10032653755,
			"0.012": 8.1614930269,
			"0.013": 9.53661865724,
			"0.014": 1.40019196884,
			"0.015": 0.785017269583,
			"0.016": 0.732519256176,
			"0.017": 0.15296683407,
			"0.018": 0.923326384552,
			"0.019": 0.747744065096,
			"0.02": 0.332267050324,
			"0.021": 0.0,
			"0.022": 0.0,
			"0.023": 0.0,
			"0.024": 0.0,
			"0.025": 0.0
		}
	}
}
