{
	 "smiles": "CC1=CC(C(=O)CCl)=C(C)N1C1=CC(Cl)=C(F)C=C1", 
	 "Tm": 389.15, 
	 "num_atms": 31, 
	 "gaussian": { 
		 "optdone": 1, 
		 "sigma_profile": "yes", 
		 "theory": "DFT", 
		 "functional": "B3LYP", 
		 "basiset": "6-31G**", 
		 "properties": { 
			 "R2extent": 9147.5967, 
			 "electric_dipole_moment_norm": 4.8256819487, 
			 "electric_quadrupole_moment_norm": 14.9967731042, 
			 "total_energy": -1690.91359567, 
			 "HOMO_LUMO_gap": 0.16664, 
			 "cosmo_polarized_energy": -14.03, 
			 "cosmo_cavitation_energy": 39.19, 
			 "cosmo_dispersion_energy": -26.74, 
			 "cosmo_repulsion_energy": 2.07, 
			 "cosmo_total_nonelectrostatic_energy": 14.52, 
			 "SMD_solvation_energy": 7.31 
		},
		"coords": [
			{
				"x": 1.4377707376,
				"y": -2.2480701422,
				"z": 1.2940759961,
				"element": "C" 
			},
			{
				"x": 0.8169127215,
				"y": -1.1116160678,
				"z": 0.5476797646,
				"element": "C" 
			},
			{
				"x": 1.254928851,
				"y": -0.4142425845,
				"z": -0.541630617,
				"element": "C" 
			},
			{
				"x": 0.2800190753,
				"y": 0.5859270595,
				"z": -0.8648219532,
				"element": "C" 
			},
			{
				"x": 0.4869100347,
				"y": 1.5169043206,
				"z": -1.9765516067,
				"element": "C" 
			},
			{
				"x": 1.5243531654,
				"y": 1.5121444743,
				"z": -2.6290916596,
				"element": "O" 
			},
			{
				"x": -0.5787407151,
				"y": 2.5519417455,
				"z": -2.354708797,
				"element": "C" 
			},
			{
				"x": -1.9376995593,
				"y": 1.7898257737,
				"z": -3.2974761943,
				"element": "Cl" 
			},
			{
				"x": -0.7585752622,
				"y": 0.4744858812,
				"z": 0.0648638914,
				"element": "C" 
			},
			{
				"x": -2.0329845585,
				"y": 1.2407334311,
				"z": 0.2518850423,
				"element": "C" 
			},
			{
				"x": -0.4188774007,
				"y": -0.5591717493,
				"z": 0.9184870961,
				"element": "N" 
			},
			{
				"x": -1.1947719132,
				"y": -1.0127594219,
				"z": 2.0312839525,
				"element": "C" 
			},
			{
				"x": -2.0438131975,
				"y": -2.113282422,
				"z": 1.8767389256,
				"element": "C" 
			},
			{
				"x": -2.7877021241,
				"y": -2.5729438837,
				"z": 2.9623533846,
				"element": "C" 
			},
			{
				"x": -3.8531016867,
				"y": -3.9415161839,
				"z": 2.7965447797,
				"element": "Cl" 
			},
			{
				"x": -2.6778412201,
				"y": -1.9246741681,
				"z": 4.1956381009,
				"element": "C" 
			},
			{
				"x": -3.3911437435,
				"y": -2.3616303439,
				"z": 5.2407342974,
				"element": "F" 
			},
			{
				"x": -1.8366779838,
				"y": -0.8290758401,
				"z": 4.3544414926,
				"element": "C" 
			},
			{
				"x": -1.0901847414,
				"y": -0.3724585789,
				"z": 3.2700488549,
				"element": "C" 
			},
			{
				"x": 2.406580195,
				"y": -2.4818449839,
				"z": 0.84730342,
				"element": "H" 
			},
			{
				"x": 1.6037770793,
				"y": -2.0100280028,
				"z": 2.3515727857,
				"element": "H" 
			},
			{
				"x": 0.8259114487,
				"y": -3.1573510685,
				"z": 1.2602577696,
				"element": "H" 
			},
			{
				"x": 2.1752786476,
				"y": -0.5729109007,
				"z": -1.0836255515,
				"element": "H" 
			},
			{
				"x": -1.0310933236,
				"y": 3.0422661354,
				"z": -1.492106247,
				"element": "H" 
			},
			{
				"x": -0.1154039233,
				"y": 3.2833382891,
				"z": -3.014135499,
				"element": "H" 
			},
			{
				"x": -2.5497765605,
				"y": 1.3828348904,
				"z": -0.6997594183,
				"element": "H" 
			},
			{
				"x": -2.7131533065,
				"y": 0.7100893267,
				"z": 0.9213749816,
				"element": "H" 
			},
			{
				"x": -1.8556589471,
				"y": 2.2309236085,
				"z": 0.6910777535,
				"element": "H" 
			},
			{
				"x": -2.127400598,
				"y": -2.6057709569,
				"z": 0.914659426,
				"element": "H" 
			},
			{
				"x": -1.7777481641,
				"y": -0.3533341459,
				"z": 5.3271382161,
				"element": "H" 
			},
			{
				"x": -0.4247930267,
				"y": 0.4772665092,
				"z": 3.3784476125,
				"element": "H" 
			}
		],
		 "valence_orbital": [ 
			{
				"type": "occ",
				"energy": -0.28622,
				"method": "rhf"
			},
			{
				"type": "occ",
				"energy": -0.26997,
				"method": "rhf"
			},
			{
				"type": "occ",
				"energy": -0.25109,
				"method": "rhf"
			},
			{
				"type": "occ",
				"energy": -0.24459,
				"method": "rhf"
			},
			{
				"type": "occ",
				"energy": -0.21612,
				"method": "rhf"
			},
			{
				"type": "unocc",
				"energy": -0.04948,
				"method": "rhf"
			},
			{
				"type": "unocc",
				"energy": -0.04365,
				"method": "rhf"
			},
			{
				"type": "unocc",
				"energy": -0.03727,
				"method": "rhf"
			},
			{
				"type": "unocc",
				"energy": 0.00427,
				"method": "rhf"
			},
			{
				"type": "unocc",
				"energy": 0.02046,
				"method": "rhf"
			}
		],
		"cosmo_sigma_profile": { 
			"-0.025": 0.0,
			"-0.024": 0.0,
			"-0.023": 0.0,
			"-0.022": 0.0,
			"-0.021": 0.0,
			"-0.02": 0.0,
			"-0.019": 0.0,
			"-0.018": 0.0,
			"-0.017": 0.0,
			"-0.016": 0.0,
			"-0.015": 0.0,
			"-0.014": 0.0,
			"-0.013": 0.0,
			"-0.012": 0.0,
			"-0.011": 0.0,
			"-0.01": 0.0,
			"-0.009": 1.24334493979,
			"-0.008": 8.27451176233,
			"-0.007": 10.7085933603,
			"-0.006": 11.5471376522,
			"-0.005": 16.8065995502,
			"-0.004": 21.0165174135,
			"-0.003": 24.2814249429,
			"-0.002": 27.8563446272,
			"-0.001": 34.8335807673,
			"0.0": 28.4938055275,
			"0.001": 19.194867191,
			"0.002": 19.8543117789,
			"0.003": 26.0812135502,
			"0.004": 25.2703233387,
			"0.005": 14.8212106262,
			"0.006": 9.72791530921,
			"0.007": 2.68247135484,
			"0.008": 1.65769583023,
			"0.009": 1.83123208306,
			"0.01": 1.78733166027,
			"0.011": 2.31414851158,
			"0.012": 4.75516612056,
			"0.013": 2.50326958624,
			"0.014": 0.0864061837753,
			"0.015": 0.0,
			"0.016": 0.0,
			"0.017": 0.0,
			"0.018": 0.0,
			"0.019": 0.0,
			"0.02": 0.0,
			"0.021": 0.0,
			"0.022": 0.0,
			"0.023": 0.0,
			"0.024": 0.0,
			"0.025": 0.0
		}
	}
}
