{
	 "smiles": "OC(=O)C1=C2CCCCC2=CC=C1", 
	 "Tm": 421.15, 
	 "num_atms": 25, 
	 "gaussian": { 
		 "optdone": 1, 
		 "sigma_profile": "yes", 
		 "theory": "DFT", 
		 "functional": "B3LYP", 
		 "basiset": "6-31G**", 
		 "properties": { 
			 "R2extent": 2541.705, 
			 "electric_dipole_moment_norm": 4.39457454824, 
			 "electric_quadrupole_moment_norm": 12.3404783534, 
			 "total_energy": -576.876666848, 
			 "HOMO_LUMO_gap": 0.20589, 
			 "cosmo_polarized_energy": -12.08, 
			 "cosmo_cavitation_energy": 26.86, 
			 "cosmo_dispersion_energy": -20.2, 
			 "cosmo_repulsion_energy": 1.59, 
			 "cosmo_total_nonelectrostatic_energy": 8.26, 
			 "SMD_solvation_energy": 4.67 
		},
		"coords": [
			{
				"x": 2.7377800963,
				"y": -1.5311620048,
				"z": 2.3536750789,
				"element": "O" 
			},
			{
				"x": 2.0082716976,
				"y": -1.3786562177,
				"z": 1.2111321876,
				"element": "C" 
			},
			{
				"x": 1.9264885761,
				"y": -2.2992919395,
				"z": 0.4317694157,
				"element": "O" 
			},
			{
				"x": 1.378173463,
				"y": -0.0294040665,
				"z": 1.0192439849,
				"element": "C" 
			},
			{
				"x": 0.1239991444,
				"y": 0.1042198034,
				"z": 0.3742790816,
				"element": "C" 
			},
			{
				"x": -0.6402114652,
				"y": -1.1157369342,
				"z": -0.1183251431,
				"element": "C" 
			},
			{
				"x": -2.1149889037,
				"y": -0.8375893648,
				"z": -0.4315924205,
				"element": "C" 
			},
			{
				"x": -2.2606666444,
				"y": 0.4367610804,
				"z": -1.2654664558,
				"element": "C" 
			},
			{
				"x": -1.7506557521,
				"y": 1.6361876815,
				"z": -0.461928247,
				"element": "C" 
			},
			{
				"x": -0.3969061903,
				"y": 1.4008199985,
				"z": 0.189560013,
				"element": "C" 
			},
			{
				"x": 0.333196994,
				"y": 2.5153263279,
				"z": 0.6267134955,
				"element": "C" 
			},
			{
				"x": 1.5688778823,
				"y": 2.3781687111,
				"z": 1.2486080307,
				"element": "C" 
			},
			{
				"x": 2.0870435069,
				"y": 1.1018682586,
				"z": 1.4488464343,
				"element": "C" 
			},
			{
				"x": 2.5882583933,
				"y": -0.7726088498,
				"z": 2.9354286904,
				"element": "H" 
			},
			{
				"x": -0.553331401,
				"y": -1.9292711221,
				"z": 0.6073258489,
				"element": "H" 
			},
			{
				"x": -0.1358388471,
				"y": -1.4930944748,
				"z": -1.0164202032,
				"element": "H" 
			},
			{
				"x": -2.6821376173,
				"y": -0.7240520942,
				"z": 0.5026832984,
				"element": "H" 
			},
			{
				"x": -2.54204348,
				"y": -1.7003255173,
				"z": -0.9544155392,
				"element": "H" 
			},
			{
				"x": -1.6811270062,
				"y": 0.3349221012,
				"z": -2.1927131717,
				"element": "H" 
			},
			{
				"x": -3.3033483858,
				"y": 0.601123917,
				"z": -1.5590802421,
				"element": "H" 
			},
			{
				"x": -1.6943621749,
				"y": 2.5309626391,
				"z": -1.0932709381,
				"element": "H" 
			},
			{
				"x": -2.4800628054,
				"y": 1.8721462095,
				"z": 0.3271205866,
				"element": "H" 
			},
			{
				"x": -0.0805888137,
				"y": 3.5081096934,
				"z": 0.4648641091,
				"element": "H" 
			},
			{
				"x": 2.127816075,
				"y": 3.2535494317,
				"z": 1.5650335607,
				"element": "H" 
			},
			{
				"x": 3.0697636582,
				"y": 0.9870267322,
				"z": 1.8988285446,
				"element": "H" 
			}
		],
		 "valence_orbital": [ 
			{
				"type": "occ",
				"energy": -0.31606,
				"method": "rhf"
			},
			{
				"type": "occ",
				"energy": -0.30897,
				"method": "rhf"
			},
			{
				"type": "occ",
				"energy": -0.26924,
				"method": "rhf"
			},
			{
				"type": "occ",
				"energy": -0.25473,
				"method": "rhf"
			},
			{
				"type": "occ",
				"energy": -0.24839,
				"method": "rhf"
			},
			{
				"type": "unocc",
				"energy": -0.0425,
				"method": "rhf"
			},
			{
				"type": "unocc",
				"energy": -0.01303,
				"method": "rhf"
			},
			{
				"type": "unocc",
				"energy": 0.04287,
				"method": "rhf"
			},
			{
				"type": "unocc",
				"energy": 0.07471,
				"method": "rhf"
			},
			{
				"type": "unocc",
				"energy": 0.09243,
				"method": "rhf"
			}
		],
		"cosmo_sigma_profile": { 
			"-0.025": 0.0,
			"-0.024": 0.0,
			"-0.023": 0.0,
			"-0.022": 0.0,
			"-0.021": 0.0,
			"-0.02": 0.0,
			"-0.019": 0.0,
			"-0.018": 0.37021612823,
			"-0.017": 0.672014730143,
			"-0.016": 0.905717010456,
			"-0.015": 1.16999482318,
			"-0.014": 1.02432304038,
			"-0.013": 0.340454710241,
			"-0.012": 1.04891577411,
			"-0.011": 1.32207257456,
			"-0.01": 0.901315377292,
			"-0.009": 0.993870389496,
			"-0.008": 1.79555319155,
			"-0.007": 1.87152866026,
			"-0.006": 5.71949685621,
			"-0.005": 8.08726798484,
			"-0.004": 12.1348908425,
			"-0.003": 18.3888599773,
			"-0.002": 28.2513657084,
			"-0.001": 28.1254682766,
			"0.0": 20.7885306726,
			"0.001": 14.6907433467,
			"0.002": 8.97262341521,
			"0.003": 9.29498718557,
			"0.004": 11.4020189476,
			"0.005": 5.88815351015,
			"0.006": 2.38929948364,
			"0.007": 2.78616944844,
			"0.008": 2.54742731691,
			"0.009": 3.27829837303,
			"0.01": 4.58712280623,
			"0.011": 5.18737737472,
			"0.012": 4.61074401089,
			"0.013": 1.82820006383,
			"0.014": 0.0940072066934,
			"0.015": 0.0,
			"0.016": 0.0,
			"0.017": 0.0,
			"0.018": 0.0,
			"0.019": 0.0,
			"0.02": 0.0,
			"0.021": 0.0,
			"0.022": 0.0,
			"0.023": 0.0,
			"0.024": 0.0,
			"0.025": 0.0
		}
	}
}
