{
	 "smiles": "COC(=O)C1=CSC(=C1)S(Cl)(=O)=O", 
	 "Tm": 328.15, 
	 "num_atms": 18, 
	 "gaussian": { 
		 "optdone": 1, 
		 "sigma_profile": "yes", 
		 "theory": "DFT", 
		 "functional": "B3LYP", 
		 "basiset": "6-31G**", 
		 "properties": { 
			 "R2extent": 4263.354, 
			 "electric_dipole_moment_norm": 4.15062760796, 
			 "electric_quadrupole_moment_norm": 18.9664459132, 
			 "total_energy": -1789.02982729, 
			 "HOMO_LUMO_gap": 0.18414, 
			 "cosmo_polarized_energy": -11.26, 
			 "cosmo_cavitation_energy": 28.86, 
			 "cosmo_dispersion_energy": -21.8, 
			 "cosmo_repulsion_energy": 1.65, 
			 "cosmo_total_nonelectrostatic_energy": 8.71, 
			 "SMD_solvation_energy": 5.21 
		},
		"coords": [
			{
				"x": -0.8772841942,
				"y": -4.8770408925,
				"z": 0.2547211696,
				"element": "C" 
			},
			{
				"x": -0.3782868729,
				"y": -3.527248403,
				"z": 0.2211563083,
				"element": "O" 
			},
			{
				"x": -1.2306522179,
				"y": -2.5863343813,
				"z": 0.6736212086,
				"element": "C" 
			},
			{
				"x": -2.3482630796,
				"y": -2.8158671724,
				"z": 1.0879798639,
				"element": "O" 
			},
			{
				"x": -0.6311626045,
				"y": -1.2302605477,
				"z": 0.6008913058,
				"element": "C" 
			},
			{
				"x": -1.3292267235,
				"y": -0.1182701301,
				"z": 1.0197360839,
				"element": "C" 
			},
			{
				"x": -0.4298604196,
				"y": 1.3343935393,
				"z": 0.8568889891,
				"element": "S" 
			},
			{
				"x": 0.9162767171,
				"y": 0.4369737024,
				"z": 0.2049699054,
				"element": "C" 
			},
			{
				"x": 0.6726588086,
				"y": -0.9089836075,
				"z": 0.1234895348,
				"element": "C" 
			},
			{
				"x": 2.4091994583,
				"y": 1.2278415504,
				"z": -0.2829344205,
				"element": "S" 
			},
			{
				"x": 1.9946379094,
				"y": 1.7518467604,
				"z": -2.3036803867,
				"element": "Cl" 
			},
			{
				"x": 2.5310398344,
				"y": 2.4856466972,
				"z": 0.4412488133,
				"element": "O" 
			},
			{
				"x": 3.468972134,
				"y": 0.2313663565,
				"z": -0.3338911769,
				"element": "O" 
			},
			{
				"x": -0.0720945868,
				"y": -5.4959752361,
				"z": -0.1392358074,
				"element": "H" 
			},
			{
				"x": -1.7728769906,
				"y": -4.9679150889,
				"z": -0.3642940113,
				"element": "H" 
			},
			{
				"x": -1.1222399227,
				"y": -5.1675844905,
				"z": 1.2789770742,
				"element": "H" 
			},
			{
				"x": -2.3298720178,
				"y": -0.1112215691,
				"z": 1.4306768659,
				"element": "H" 
			},
			{
				"x": 1.385834768,
				"y": -1.6311670869,
				"z": -0.2512213201,
				"element": "H" 
			}
		],
		 "valence_orbital": [ 
			{
				"type": "occ",
				"energy": -0.32246,
				"method": "rhf"
			},
			{
				"type": "occ",
				"energy": -0.31998,
				"method": "rhf"
			},
			{
				"type": "occ",
				"energy": -0.29972,
				"method": "rhf"
			},
			{
				"type": "occ",
				"energy": -0.29729,
				"method": "rhf"
			},
			{
				"type": "occ",
				"energy": -0.28531,
				"method": "rhf"
			},
			{
				"type": "unocc",
				"energy": -0.10117,
				"method": "rhf"
			},
			{
				"type": "unocc",
				"energy": -0.06886,
				"method": "rhf"
			},
			{
				"type": "unocc",
				"energy": -0.03772,
				"method": "rhf"
			},
			{
				"type": "unocc",
				"energy": -0.0137,
				"method": "rhf"
			},
			{
				"type": "unocc",
				"energy": 0.03101,
				"method": "rhf"
			}
		],
		"cosmo_sigma_profile": { 
			"-0.025": 0.0,
			"-0.024": 0.0,
			"-0.023": 0.0,
			"-0.022": 0.0,
			"-0.021": 0.0,
			"-0.02": 0.0,
			"-0.019": 0.0,
			"-0.018": 0.0,
			"-0.017": 0.0,
			"-0.016": 0.0,
			"-0.015": 0.0,
			"-0.014": 0.0,
			"-0.013": 0.0,
			"-0.012": 0.266040888704,
			"-0.011": 1.9093850637,
			"-0.01": 2.0145473577,
			"-0.009": 2.24595980046,
			"-0.008": 2.483448066,
			"-0.007": 5.4241005651,
			"-0.006": 10.6135030498,
			"-0.005": 12.7419538139,
			"-0.004": 17.2161532647,
			"-0.003": 19.9248521516,
			"-0.002": 26.2045873907,
			"-0.001": 26.2279099553,
			"0.0": 15.1676717047,
			"0.001": 12.3740732406,
			"0.002": 13.8129311681,
			"0.003": 17.5389640991,
			"0.004": 8.05476514606,
			"0.005": 6.43647729943,
			"0.006": 4.0327569113,
			"0.007": 10.6394234724,
			"0.008": 10.3110668743,
			"0.009": 2.87112821823,
			"0.01": 2.32074583686,
			"0.011": 4.36805862046,
			"0.012": 1.66260512574,
			"0.013": 0.0,
			"0.014": 0.0,
			"0.015": 0.0,
			"0.016": 0.0,
			"0.017": 0.0,
			"0.018": 0.0,
			"0.019": 0.0,
			"0.02": 0.0,
			"0.021": 0.0,
			"0.022": 0.0,
			"0.023": 0.0,
			"0.024": 0.0,
			"0.025": 0.0
		}
	}
}
