{
	 "smiles": "NC1=CN(N=C1)C1=CC=CC=C1", 
	 "Tm": 369.15, 
	 "num_atms": 21, 
	 "gaussian": { 
		 "optdone": 1, 
		 "sigma_profile": "yes", 
		 "theory": "DFT", 
		 "functional": "B3LYP", 
		 "basiset": "6-31G**", 
		 "properties": { 
			 "R2extent": 2592.9064, 
			 "electric_dipole_moment_norm": 2.61189421876, 
			 "electric_quadrupole_moment_norm": 15.1631251937, 
			 "total_energy": -512.606767184, 
			 "HOMO_LUMO_gap": 0.17632, 
			 "cosmo_polarized_energy": -12.14, 
			 "cosmo_cavitation_energy": 25.09, 
			 "cosmo_dispersion_energy": -18.85, 
			 "cosmo_repulsion_energy": 1.49, 
			 "cosmo_total_nonelectrostatic_energy": 7.73, 
			 "SMD_solvation_energy": 4.04 
		},
		"coords": [
			{
				"x": -1.0154347119,
				"y": 0.8506419781,
				"z": -3.9257813555,
				"element": "N" 
			},
			{
				"x": -0.7308886659,
				"y": 0.0846834521,
				"z": -2.7862556581,
				"element": "C" 
			},
			{
				"x": -0.8453191151,
				"y": 0.4409336725,
				"z": -1.4561359925,
				"element": "C" 
			},
			{
				"x": -0.5229909553,
				"y": -0.6748447394,
				"z": -0.7154145193,
				"element": "N" 
			},
			{
				"x": -0.2010139778,
				"y": -1.7237430708,
				"z": -1.5032504186,
				"element": "N" 
			},
			{
				"x": -0.3279766224,
				"y": -1.2766964833,
				"z": -2.7485043006,
				"element": "C" 
			},
			{
				"x": -0.4886807634,
				"y": -0.8040629741,
				"z": 0.6940261125,
				"element": "C" 
			},
			{
				"x": -1.1471762035,
				"y": 0.1241542407,
				"z": 1.510165116,
				"element": "C" 
			},
			{
				"x": -1.0877756486,
				"y": -0.0094459099,
				"z": 2.8971916828,
				"element": "C" 
			},
			{
				"x": -0.3903648274,
				"y": -1.0681904794,
				"z": 3.4794564505,
				"element": "C" 
			},
			{
				"x": 0.2513332013,
				"y": -1.9983994614,
				"z": 2.6576144163,
				"element": "C" 
			},
			{
				"x": 0.2109483868,
				"y": -1.8717568549,
				"z": 1.2716069264,
				"element": "C" 
			},
			{
				"x": -0.4526088763,
				"y": 0.5879691309,
				"z": -4.7256136415,
				"element": "H" 
			},
			{
				"x": -0.9364733688,
				"y": 1.847834805,
				"z": -3.7692143216,
				"element": "H" 
			},
			{
				"x": -1.0961050935,
				"y": 1.3837619284,
				"z": -0.9974809065,
				"element": "H" 
			},
			{
				"x": -0.1337706486,
				"y": -1.938519985,
				"z": -3.5827096649,
				"element": "H" 
			},
			{
				"x": -1.7211350586,
				"y": 0.9328563976,
				"z": 1.071321341,
				"element": "H" 
			},
			{
				"x": -1.6019506293,
				"y": 0.7151356531,
				"z": 3.5220167158,
				"element": "H" 
			},
			{
				"x": -0.3507517389,
				"y": -1.1702095519,
				"z": 4.5596048808,
				"element": "H" 
			},
			{
				"x": 0.7954570006,
				"y": -2.8290734779,
				"z": 3.0979167823,
				"element": "H" 
			},
			{
				"x": 0.7065783166,
				"y": -2.5832282703,
				"z": 0.6230403545,
				"element": "H" 
			}
		],
		 "valence_orbital": [ 
			{
				"type": "occ",
				"energy": -0.28394,
				"method": "rhf"
			},
			{
				"type": "occ",
				"energy": -0.27347,
				"method": "rhf"
			},
			{
				"type": "occ",
				"energy": -0.25149,
				"method": "rhf"
			},
			{
				"type": "occ",
				"energy": -0.2298,
				"method": "rhf"
			},
			{
				"type": "occ",
				"energy": -0.1936,
				"method": "rhf"
			},
			{
				"type": "unocc",
				"energy": -0.01728,
				"method": "rhf"
			},
			{
				"type": "unocc",
				"energy": -0.0018,
				"method": "rhf"
			},
			{
				"type": "unocc",
				"energy": 0.04579,
				"method": "rhf"
			},
			{
				"type": "unocc",
				"energy": 0.07111,
				"method": "rhf"
			},
			{
				"type": "unocc",
				"energy": 0.08955,
				"method": "rhf"
			}
		],
		"cosmo_sigma_profile": { 
			"-0.025": 0.0,
			"-0.024": 0.0,
			"-0.023": 0.0,
			"-0.022": 0.0,
			"-0.021": 0.0,
			"-0.02": 0.0,
			"-0.019": 0.0,
			"-0.018": 0.0,
			"-0.017": 0.0,
			"-0.016": 0.0,
			"-0.015": 0.0,
			"-0.014": 0.0,
			"-0.013": 0.266720936557,
			"-0.012": 2.3509888111,
			"-0.011": 3.00921591293,
			"-0.01": 2.76207905603,
			"-0.009": 4.91451641498,
			"-0.008": 5.74572250097,
			"-0.007": 6.81817701096,
			"-0.006": 10.69706069,
			"-0.005": 13.0164143101,
			"-0.004": 12.7280584094,
			"-0.003": 12.1695747806,
			"-0.002": 8.46954352355,
			"-0.001": 9.78345527972,
			"0.0": 9.8759863702,
			"0.001": 9.89395915728,
			"0.002": 13.349950424,
			"0.003": 14.0125219938,
			"0.004": 17.4418309764,
			"0.005": 18.1466337127,
			"0.006": 6.47370119781,
			"0.007": 3.46440299304,
			"0.008": 3.03143173261,
			"0.009": 2.0229993313,
			"0.01": 2.61430664897,
			"0.011": 2.16194771905,
			"0.012": 1.72035478899,
			"0.013": 1.61706720585,
			"0.014": 1.29416413206,
			"0.015": 0.595399760812,
			"0.016": 0.467973330722,
			"0.017": 0.034349158436,
			"0.018": 0.0,
			"0.019": 0.0,
			"0.02": 0.0,
			"0.021": 0.0,
			"0.022": 0.0,
			"0.023": 0.0,
			"0.024": 0.0,
			"0.025": 0.0
		}
	}
}
