{
	 "smiles": "O=C1OC(=O)C2=CC=CC=C2C2=CC=CC=C12", 
	 "Tm": 498.15, 
	 "num_atms": 25, 
	 "gaussian": { 
		 "optdone": 1, 
		 "sigma_profile": "yes", 
		 "theory": "DFT", 
		 "functional": "B3LYP", 
		 "basiset": "6-31G**", 
		 "properties": { 
			 "R2extent": 3967.7257, 
			 "electric_dipole_moment_norm": 5.75315476152, 
			 "electric_quadrupole_moment_norm": 22.8696148428, 
			 "total_energy": -763.991198332, 
			 "HOMO_LUMO_gap": 0.18651, 
			 "cosmo_polarized_energy": -12.83, 
			 "cosmo_cavitation_energy": 29.65, 
			 "cosmo_dispersion_energy": -21.84, 
			 "cosmo_repulsion_energy": 1.66, 
			 "cosmo_total_nonelectrostatic_energy": 9.47, 
			 "SMD_solvation_energy": 6.56 
		},
		"coords": [
			{
				"x": 2.3897402805,
				"y": -2.4334363907,
				"z": 0.5191011323,
				"element": "O" 
			},
			{
				"x": 2.0882311501,
				"y": -1.2789858703,
				"z": 0.3605046213,
				"element": "C" 
			},
			{
				"x": 2.9439468631,
				"y": -0.3172949264,
				"z": 0.8672082672,
				"element": "O" 
			},
			{
				"x": 2.6901433078,
				"y": 0.9967627328,
				"z": 1.217417074,
				"element": "C" 
			},
			{
				"x": 3.6209114694,
				"y": 1.759820875,
				"z": 1.2328088743,
				"element": "O" 
			},
			{
				"x": 1.3332649808,
				"y": 1.333896049,
				"z": 1.733498313,
				"element": "C" 
			},
			{
				"x": 1.3153844379,
				"y": 2.1261303187,
				"z": 2.8910679151,
				"element": "C" 
			},
			{
				"x": 0.1124743886,
				"y": 2.4948191223,
				"z": 3.4823772989,
				"element": "C" 
			},
			{
				"x": -1.0892276136,
				"y": 2.0882442282,
				"z": 2.8990594967,
				"element": "C" 
			},
			{
				"x": -1.0777147025,
				"y": 1.3380179886,
				"z": 1.7270692745,
				"element": "C" 
			},
			{
				"x": 0.1266910073,
				"y": 0.9504039297,
				"z": 1.1118446154,
				"element": "C" 
			},
			{
				"x": 0.0771429429,
				"y": 0.220491276,
				"z": -0.1796483778,
				"element": "C" 
			},
			{
				"x": -0.9323254142,
				"y": 0.5360901016,
				"z": -1.1073874197,
				"element": "C" 
			},
			{
				"x": -1.0714796113,
				"y": -0.1664057343,
				"z": -2.3005636245,
				"element": "C" 
			},
			{
				"x": -0.2124544447,
				"y": -1.227659122,
				"z": -2.5929278873,
				"element": "C" 
			},
			{
				"x": 0.7911725214,
				"y": -1.5598218652,
				"z": -1.6901727494,
				"element": "C" 
			},
			{
				"x": 0.9627477032,
				"y": -0.8276576138,
				"z": -0.5059397569,
				"element": "C" 
			},
			{
				"x": 2.2633614031,
				"y": 2.4390828667,
				"z": 3.3148108179,
				"element": "H" 
			},
			{
				"x": 0.1118347139,
				"y": 3.0909235686,
				"z": 4.3894562505,
				"element": "H" 
			},
			{
				"x": -2.0375050516,
				"y": 2.3560078562,
				"z": 3.3554971438,
				"element": "H" 
			},
			{
				"x": -2.0179438737,
				"y": 1.0256798062,
				"z": 1.2853164685,
				"element": "H" 
			},
			{
				"x": -1.6040239639,
				"y": 1.3605205073,
				"z": -0.8932190159,
				"element": "H" 
			},
			{
				"x": -1.8521089669,
				"y": 0.1150072578,
				"z": -3.0010530698,
				"element": "H" 
			},
			{
				"x": -0.3224256757,
				"y": -1.7887286522,
				"z": -3.5155536341,
				"element": "H" 
			},
			{
				"x": 1.4640621481,
				"y": -2.3877083097,
				"z": -1.8850720279,
				"element": "H" 
			}
		],
		 "valence_orbital": [ 
			{
				"type": "occ",
				"energy": -0.30178,
				"method": "rhf"
			},
			{
				"type": "occ",
				"energy": -0.28756,
				"method": "rhf"
			},
			{
				"type": "occ",
				"energy": -0.27244,
				"method": "rhf"
			},
			{
				"type": "occ",
				"energy": -0.26761,
				"method": "rhf"
			},
			{
				"type": "occ",
				"energy": -0.2517,
				"method": "rhf"
			},
			{
				"type": "unocc",
				"energy": -0.06519,
				"method": "rhf"
			},
			{
				"type": "unocc",
				"energy": -0.05822,
				"method": "rhf"
			},
			{
				"type": "unocc",
				"energy": -0.04079,
				"method": "rhf"
			},
			{
				"type": "unocc",
				"energy": -0.01067,
				"method": "rhf"
			},
			{
				"type": "unocc",
				"energy": 0.01596,
				"method": "rhf"
			}
		],
		"cosmo_sigma_profile": { 
			"-0.025": 0.0,
			"-0.024": 0.0,
			"-0.023": 0.0,
			"-0.022": 0.0,
			"-0.021": 0.0,
			"-0.02": 0.0,
			"-0.019": 0.0,
			"-0.018": 0.0,
			"-0.017": 0.0,
			"-0.016": 0.0,
			"-0.015": 0.0,
			"-0.014": 0.0,
			"-0.013": 0.0,
			"-0.012": 0.0,
			"-0.011": 0.0,
			"-0.01": 0.0,
			"-0.009": 0.0,
			"-0.008": 0.443857943558,
			"-0.007": 13.9131532281,
			"-0.006": 20.5367942874,
			"-0.005": 22.730097602,
			"-0.004": 16.9861445575,
			"-0.003": 15.1396756791,
			"-0.002": 12.2370190775,
			"-0.001": 15.4221341402,
			"0.0": 16.3636277839,
			"0.001": 17.3651109624,
			"0.002": 24.0729339567,
			"0.003": 18.7211497683,
			"0.004": 5.0250537111,
			"0.005": 3.50685627545,
			"0.006": 4.10414739018,
			"0.007": 4.50436949825,
			"0.008": 6.5336333986,
			"0.009": 6.28255107582,
			"0.01": 10.7233362784,
			"0.011": 4.97953719347,
			"0.012": 0.28272117217,
			"0.013": 0.0,
			"0.014": 0.0,
			"0.015": 0.0,
			"0.016": 0.0,
			"0.017": 0.0,
			"0.018": 0.0,
			"0.019": 0.0,
			"0.02": 0.0,
			"0.021": 0.0,
			"0.022": 0.0,
			"0.023": 0.0,
			"0.024": 0.0,
			"0.025": 0.0
		}
	}
}
