{
	 "smiles": "CC(O)C1=C(F)C(F)=C(F)C(F)=C1F", 
	 "Tm": 308.65, 
	 "num_atms": 19, 
	 "gaussian": { 
		 "optdone": 1, 
		 "sigma_profile": "yes", 
		 "theory": "DFT", 
		 "functional": "B3LYP", 
		 "basiset": "6-31G**", 
		 "properties": { 
			 "R2extent": 4444.9832, 
			 "electric_dipole_moment_norm": 1.62264320169, 
			 "electric_quadrupole_moment_norm": 5.50414019716, 
			 "total_energy": -882.221966046, 
			 "HOMO_LUMO_gap": 0.22998, 
			 "cosmo_polarized_energy": -5.92, 
			 "cosmo_cavitation_energy": 25.65, 
			 "cosmo_dispersion_energy": -17.98, 
			 "cosmo_repulsion_energy": 1.32, 
			 "cosmo_total_nonelectrostatic_energy": 8.98, 
			 "SMD_solvation_energy": 6.71 
		},
		"coords": [
			{
				"x": -1.6683429359,
				"y": -1.4607440763,
				"z": -0.6010639474,
				"element": "C" 
			},
			{
				"x": -0.611068683,
				"y": -0.4483756118,
				"z": -0.1432219312,
				"element": "C" 
			},
			{
				"x": -1.0583092939,
				"y": 0.3274544729,
				"z": 0.9591445502,
				"element": "O" 
			},
			{
				"x": 0.7285355463,
				"y": -1.1230493751,
				"z": 0.1498433302,
				"element": "C" 
			},
			{
				"x": 0.9194800485,
				"y": -1.9003478415,
				"z": 1.2921358438,
				"element": "C" 
			},
			{
				"x": -0.108491754,
				"y": -2.0781681686,
				"z": 2.1548825966,
				"element": "F" 
			},
			{
				"x": 2.1320079372,
				"y": -2.5115854994,
				"z": 1.5915691104,
				"element": "C" 
			},
			{
				"x": 2.2720942377,
				"y": -3.248242927,
				"z": 2.6987734135,
				"element": "F" 
			},
			{
				"x": 3.2075883077,
				"y": -2.3505168091,
				"z": 0.7190954066,
				"element": "C" 
			},
			{
				"x": 4.3792775202,
				"y": -2.9317642123,
				"z": 0.9881368013,
				"element": "F" 
			},
			{
				"x": 3.0543700813,
				"y": -1.5844521921,
				"z": -0.433352224,
				"element": "C" 
			},
			{
				"x": 4.0836181226,
				"y": -1.428509066,
				"z": -1.2725642213,
				"element": "F" 
			},
			{
				"x": 1.8249484835,
				"y": -0.9833316585,
				"z": -0.7000788434,
				"element": "C" 
			},
			{
				"x": 1.7146633842,
				"y": -0.2528716692,
				"z": -1.8233309838,
				"element": "F" 
			},
			{
				"x": -1.3483459468,
				"y": -1.9838413411,
				"z": -1.5077592961,
				"element": "H" 
			},
			{
				"x": -2.6054335571,
				"y": -0.9374546925,
				"z": -0.810329797,
				"element": "H" 
			},
			{
				"x": -1.8527781091,
				"y": -2.2088887352,
				"z": 0.1768475582,
				"element": "H" 
			},
			{
				"x": -0.44076567,
				"y": 0.2733639655,
				"z": -0.9455777771,
				"element": "H" 
			},
			{
				"x": -1.2523477195,
				"y": -0.2804745627,
				"z": 1.6855504106,
				"element": "H" 
			}
		],
		 "valence_orbital": [ 
			{
				"type": "occ",
				"energy": -0.35663,
				"method": "rhf"
			},
			{
				"type": "occ",
				"energy": -0.33703,
				"method": "rhf"
			},
			{
				"type": "occ",
				"energy": -0.28565,
				"method": "rhf"
			},
			{
				"type": "occ",
				"energy": -0.2668,
				"method": "rhf"
			},
			{
				"type": "occ",
				"energy": -0.26162,
				"method": "rhf"
			},
			{
				"type": "unocc",
				"energy": -0.03164,
				"method": "rhf"
			},
			{
				"type": "unocc",
				"energy": -0.02092,
				"method": "rhf"
			},
			{
				"type": "unocc",
				"energy": 0.00598,
				"method": "rhf"
			},
			{
				"type": "unocc",
				"energy": 0.07705,
				"method": "rhf"
			},
			{
				"type": "unocc",
				"energy": 0.10554,
				"method": "rhf"
			}
		],
		"cosmo_sigma_profile": { 
			"-0.025": 0.0,
			"-0.024": 0.0,
			"-0.023": 0.0,
			"-0.022": 0.0,
			"-0.021": 0.0,
			"-0.02": 0.0,
			"-0.019": 0.0,
			"-0.018": 0.0,
			"-0.017": 0.0,
			"-0.016": 0.0,
			"-0.015": 0.0,
			"-0.014": 0.0427843445822,
			"-0.013": 0.515542277985,
			"-0.012": 0.528519947742,
			"-0.011": 0.606892961918,
			"-0.01": 0.841961025192,
			"-0.009": 0.886059490987,
			"-0.008": 1.5000867299,
			"-0.007": 0.992713841214,
			"-0.006": 1.36593526278,
			"-0.005": 4.61550835176,
			"-0.004": 16.1652502135,
			"-0.003": 31.2267575197,
			"-0.002": 22.3450439553,
			"-0.001": 17.2995161783,
			"0.0": 14.0419680477,
			"0.001": 13.4947817601,
			"0.002": 33.6841865922,
			"0.003": 31.5846268214,
			"0.004": 1.68691728771,
			"0.005": 1.10962297222,
			"0.006": 1.06177956125,
			"0.007": 1.06150822404,
			"0.008": 0.802986438504,
			"0.009": 1.30814666724,
			"0.01": 1.2215605913,
			"0.011": 1.45326053933,
			"0.012": 1.19806620963,
			"0.013": 2.4231336658,
			"0.014": 0.837325020794,
			"0.015": 0.0,
			"0.016": 0.0,
			"0.017": 0.0,
			"0.018": 0.0,
			"0.019": 0.0,
			"0.02": 0.0,
			"0.021": 0.0,
			"0.022": 0.0,
			"0.023": 0.0,
			"0.024": 0.0,
			"0.025": 0.0
		}
	}
}
