{
	 "smiles": "CC(=O)C1=CC=C(OC2CCCCC2)C=C1", 
	 "Tm": 348.15, 
	 "num_atms": 34, 
	 "gaussian": { 
		 "optdone": 1, 
		 "sigma_profile": "yes", 
		 "theory": "DFT", 
		 "functional": "B3LYP", 
		 "basiset": "6-31G**", 
		 "properties": { 
			 "R2extent": 5417.0791, 
			 "electric_dipole_moment_norm": 3.65182634855, 
			 "electric_quadrupole_moment_norm": 15.2443347323, 
			 "total_energy": -694.796696052, 
			 "HOMO_LUMO_gap": 0.18236, 
			 "cosmo_polarized_energy": -9.66, 
			 "cosmo_cavitation_energy": 35.08, 
			 "cosmo_dispersion_energy": -25.39, 
			 "cosmo_repulsion_energy": 1.98, 
			 "cosmo_total_nonelectrostatic_energy": 11.67, 
			 "SMD_solvation_energy": 5.92 
		},
		"coords": [
			{
				"x": -0.5901088556,
				"y": 3.2276202202,
				"z": 4.4536791477,
				"element": "C" 
			},
			{
				"x": 0.5204427631,
				"y": 2.5481000621,
				"z": 3.6662150523,
				"element": "C" 
			},
			{
				"x": 1.6932204746,
				"y": 2.7757142813,
				"z": 3.9329670505,
				"element": "O" 
			},
			{
				"x": 0.1512076107,
				"y": 1.605537243,
				"z": 2.5708813242,
				"element": "C" 
			},
			{
				"x": 1.1798965826,
				"y": 0.9820454972,
				"z": 1.850432181,
				"element": "C" 
			},
			{
				"x": 0.910553699,
				"y": 0.0931903322,
				"z": 0.8153680781,
				"element": "C" 
			},
			{
				"x": -0.4233892069,
				"y": -0.196670798,
				"z": 0.4793124723,
				"element": "C" 
			},
			{
				"x": -0.8163478749,
				"y": -1.0558106581,
				"z": -0.4949165639,
				"element": "O" 
			},
			{
				"x": 0.1627950549,
				"y": -1.7731199131,
				"z": -1.2814223299,
				"element": "C" 
			},
			{
				"x": -0.584887258,
				"y": -2.957975087,
				"z": -1.8906365252,
				"element": "C" 
			},
			{
				"x": -1.7514558698,
				"y": -2.5159269933,
				"z": -2.8052939576,
				"element": "C" 
			},
			{
				"x": -1.4664292845,
				"y": -1.1747118448,
				"z": -3.5222867915,
				"element": "C" 
			},
			{
				"x": 0.0399521125,
				"y": -0.9689185545,
				"z": -3.7298046721,
				"element": "C" 
			},
			{
				"x": 0.7801518197,
				"y": -0.8700681864,
				"z": -2.3775840683,
				"element": "C" 
			},
			{
				"x": -1.4645986755,
				"y": 0.4247589033,
				"z": 1.191361498,
				"element": "C" 
			},
			{
				"x": -1.1787607504,
				"y": 1.3097351486,
				"z": 2.2199190256,
				"element": "C" 
			},
			{
				"x": -1.2319947209,
				"y": 2.4897115349,
				"z": 4.9476513295,
				"element": "H" 
			},
			{
				"x": -0.1374131451,
				"y": 3.873825915,
				"z": 5.2062428317,
				"element": "H" 
			},
			{
				"x": -1.2291756553,
				"y": 3.8281535704,
				"z": 3.7967967408,
				"element": "H" 
			},
			{
				"x": 2.2040621997,
				"y": 1.2161023029,
				"z": 2.1221698097,
				"element": "H" 
			},
			{
				"x": 1.7334320945,
				"y": -0.3606168775,
				"z": 0.2767751683,
				"element": "H" 
			},
			{
				"x": 0.9418304475,
				"y": -2.1415791741,
				"z": -0.6036706192,
				"element": "H" 
			},
			{
				"x": -0.9466459622,
				"y": -3.6153004647,
				"z": -1.0936961959,
				"element": "H" 
			},
			{
				"x": 0.1492283839,
				"y": -3.5356066242,
				"z": -2.4657553064,
				"element": "H" 
			},
			{
				"x": -1.9329358776,
				"y": -3.3060405376,
				"z": -3.5431825254,
				"element": "H" 
			},
			{
				"x": -2.6677425,
				"y": -2.4262091618,
				"z": -2.214385523,
				"element": "H" 
			},
			{
				"x": -1.8533221526,
				"y": -0.3473167413,
				"z": -2.9163796437,
				"element": "H" 
			},
			{
				"x": -1.9956760144,
				"y": -1.1379047715,
				"z": -4.4807494564,
				"element": "H" 
			},
			{
				"x": 0.2320112076,
				"y": -0.0663056634,
				"z": -4.3200092409,
				"element": "H" 
			},
			{
				"x": 0.4417104935,
				"y": -1.8071709536,
				"z": -4.3145062056,
				"element": "H" 
			},
			{
				"x": 0.7678498542,
				"y": 0.1641808684,
				"z": -2.018640075,
				"element": "H" 
			},
			{
				"x": 1.8352722853,
				"y": -1.1386679952,
				"z": -2.50956856,
				"element": "H" 
			},
			{
				"x": -2.487412509,
				"y": 0.1884532036,
				"z": 0.9171166119,
				"element": "H" 
			},
			{
				"x": -2.0025207704,
				"y": 1.7725919164,
				"z": 2.7540999384,
				"element": "H" 
			}
		],
		 "valence_orbital": [ 
			{
				"type": "occ",
				"energy": -0.30248,
				"method": "rhf"
			},
			{
				"type": "occ",
				"energy": -0.3016,
				"method": "rhf"
			},
			{
				"type": "occ",
				"energy": -0.25812,
				"method": "rhf"
			},
			{
				"type": "occ",
				"energy": -0.23822,
				"method": "rhf"
			},
			{
				"type": "occ",
				"energy": -0.22387,
				"method": "rhf"
			},
			{
				"type": "unocc",
				"energy": -0.04151,
				"method": "rhf"
			},
			{
				"type": "unocc",
				"energy": -0.00694,
				"method": "rhf"
			},
			{
				"type": "unocc",
				"energy": 0.05364,
				"method": "rhf"
			},
			{
				"type": "unocc",
				"energy": 0.07112,
				"method": "rhf"
			},
			{
				"type": "unocc",
				"energy": 0.0907,
				"method": "rhf"
			}
		],
		"cosmo_sigma_profile": { 
			"-0.025": 0.0,
			"-0.024": 0.0,
			"-0.023": 0.0,
			"-0.022": 0.0,
			"-0.021": 0.0,
			"-0.02": 0.0,
			"-0.019": 0.0,
			"-0.018": 0.0,
			"-0.017": 0.0,
			"-0.016": 0.0,
			"-0.015": 0.0,
			"-0.014": 0.0,
			"-0.013": 0.0,
			"-0.012": 0.0,
			"-0.011": 0.0,
			"-0.01": 0.0,
			"-0.009": 0.0,
			"-0.008": 0.00397702118437,
			"-0.007": 1.95475479949,
			"-0.006": 10.8332119214,
			"-0.005": 15.46886503,
			"-0.004": 18.0008022667,
			"-0.003": 27.1130127764,
			"-0.002": 33.6198883996,
			"-0.001": 35.1736028726,
			"0.0": 33.9231242474,
			"0.001": 24.199322597,
			"0.002": 14.5203102743,
			"0.003": 14.8171801449,
			"0.004": 16.5280608206,
			"0.005": 5.44249350651,
			"0.006": 3.36711375157,
			"0.007": 3.89606464836,
			"0.008": 2.36009391269,
			"0.009": 1.81819279686,
			"0.01": 1.66849989554,
			"0.011": 2.25349470356,
			"0.012": 4.09892870751,
			"0.013": 3.02644501308,
			"0.014": 0.73337550208,
			"0.015": 0.00238604962561,
			"0.016": 0.0,
			"0.017": 0.0,
			"0.018": 0.0,
			"0.019": 0.0,
			"0.02": 0.0,
			"0.021": 0.0,
			"0.022": 0.0,
			"0.023": 0.0,
			"0.024": 0.0,
			"0.025": 0.0
		}
	}
}
