{
	 "smiles": "CCNC1=C(N)C=C(C=C1)S(=O)(=O)C(F)(F)F", 
	 "Tm": 423.15, 
	 "num_atms": 28, 
	 "gaussian": { 
		 "optdone": 1, 
		 "sigma_profile": "yes", 
		 "theory": "DFT", 
		 "functional": "B3LYP", 
		 "basiset": "6-31G**", 
		 "properties": { 
			 "R2extent": 6522.2037, 
			 "electric_dipole_moment_norm": 7.17625781031, 
			 "electric_quadrupole_moment_norm": 17.2883125125, 
			 "total_energy": -1307.17067506, 
			 "HOMO_LUMO_gap": 0.17573, 
			 "cosmo_polarized_energy": -15.07, 
			 "cosmo_cavitation_energy": 34.6, 
			 "cosmo_dispersion_energy": -24.5, 
			 "cosmo_repulsion_energy": 1.82, 
			 "cosmo_total_nonelectrostatic_energy": 11.93, 
			 "SMD_solvation_energy": 5.69 
		},
		"coords": [
			{
				"x": 2.05217727,
				"y": 1.998842424,
				"z": -3.7496049685,
				"element": "C" 
			},
			{
				"x": 1.8523619703,
				"y": 0.9574632609,
				"z": -2.6531103947,
				"element": "C" 
			},
			{
				"x": 0.9422129559,
				"y": 1.4750518465,
				"z": -1.6065308607,
				"element": "N" 
			},
			{
				"x": 0.5781984636,
				"y": 0.5788143946,
				"z": -0.5746300349,
				"element": "C" 
			},
			{
				"x": -0.3506514293,
				"y": -0.455362027,
				"z": -0.8766501407,
				"element": "C" 
			},
			{
				"x": -0.8397095171,
				"y": -0.5669317604,
				"z": -2.1760334152,
				"element": "N" 
			},
			{
				"x": -0.7296369399,
				"y": -1.3420204511,
				"z": 0.1344748667,
				"element": "C" 
			},
			{
				"x": -0.2156692813,
				"y": -1.1825287067,
				"z": 1.4242379496,
				"element": "C" 
			},
			{
				"x": 0.6647825912,
				"y": -0.1512251586,
				"z": 1.7505162141,
				"element": "C" 
			},
			{
				"x": 1.0576477262,
				"y": 0.7158154819,
				"z": 0.7325860884,
				"element": "C" 
			},
			{
				"x": -0.7359140406,
				"y": -2.3141416524,
				"z": 2.6951791085,
				"element": "S" 
			},
			{
				"x": -1.2509710333,
				"y": -3.5419096207,
				"z": 2.0802935983,
				"element": "O" 
			},
			{
				"x": 0.2546185968,
				"y": -2.332036988,
				"z": 3.7756449177,
				"element": "O" 
			},
			{
				"x": -2.240002823,
				"y": -1.4499653726,
				"z": 3.4123017721,
				"element": "C" 
			},
			{
				"x": -1.8907341932,
				"y": -0.2590610734,
				"z": 3.9100341045,
				"element": "F" 
			},
			{
				"x": -3.1614939998,
				"y": -1.2717606671,
				"z": 2.4585419114,
				"element": "F" 
			},
			{
				"x": -2.7499018741,
				"y": -2.2044202227,
				"z": 4.3844738453,
				"element": "F" 
			},
			{
				"x": 1.098913949,
				"y": 2.2648393074,
				"z": -4.2164061592,
				"element": "H" 
			},
			{
				"x": 2.7228347308,
				"y": 1.614903426,
				"z": -4.5241238502,
				"element": "H" 
			},
			{
				"x": 2.4992831358,
				"y": 2.9172712705,
				"z": -3.3509840557,
				"element": "H" 
			},
			{
				"x": 1.4056028633,
				"y": 0.0495266106,
				"z": -3.0672154268,
				"element": "H" 
			},
			{
				"x": 2.824049394,
				"y": 0.6670153141,
				"z": -2.2233480936,
				"element": "H" 
			},
			{
				"x": 1.3324861491,
				"y": 2.3258069242,
				"z": -1.2112462055,
				"element": "H" 
			},
			{
				"x": -0.8896037971,
				"y": 0.3285799697,
				"z": -2.6500419535,
				"element": "H" 
			},
			{
				"x": -1.6950692675,
				"y": -1.0995358848,
				"z": -2.2617182073,
				"element": "H" 
			},
			{
				"x": -1.4233656252,
				"y": -2.150284674,
				"z": -0.0733063083,
				"element": "H" 
			},
			{
				"x": 1.0547634842,
				"y": -0.0564666396,
				"z": 2.7568473668,
				"element": "H" 
			},
			{
				"x": 1.7651905412,
				"y": 1.5124206688,
				"z": 0.9488183313,
				"element": "H" 
			}
		],
		 "valence_orbital": [ 
			{
				"type": "occ",
				"energy": -0.31057,
				"method": "rhf"
			},
			{
				"type": "occ",
				"energy": -0.29746,
				"method": "rhf"
			},
			{
				"type": "occ",
				"energy": -0.29567,
				"method": "rhf"
			},
			{
				"type": "occ",
				"energy": -0.25009,
				"method": "rhf"
			},
			{
				"type": "occ",
				"energy": -0.2183,
				"method": "rhf"
			},
			{
				"type": "unocc",
				"energy": -0.04257,
				"method": "rhf"
			},
			{
				"type": "unocc",
				"energy": -0.01115,
				"method": "rhf"
			},
			{
				"type": "unocc",
				"energy": 0.05416,
				"method": "rhf"
			},
			{
				"type": "unocc",
				"energy": 0.06257,
				"method": "rhf"
			},
			{
				"type": "unocc",
				"energy": 0.06944,
				"method": "rhf"
			}
		],
		"cosmo_sigma_profile": { 
			"-0.025": 0.0,
			"-0.024": 0.0,
			"-0.023": 0.0,
			"-0.022": 0.0,
			"-0.021": 0.0,
			"-0.02": 0.0,
			"-0.019": 0.0,
			"-0.018": 0.0,
			"-0.017": 0.0,
			"-0.016": 0.0,
			"-0.015": 0.0,
			"-0.014": 0.126372098416,
			"-0.013": 1.0951224563,
			"-0.012": 2.42732130156,
			"-0.011": 3.33710174687,
			"-0.01": 4.4046590239,
			"-0.009": 4.81704842116,
			"-0.008": 4.4911786729,
			"-0.007": 6.58280818079,
			"-0.006": 7.16042106107,
			"-0.005": 7.38691447231,
			"-0.004": 9.61004092647,
			"-0.003": 16.9702688733,
			"-0.002": 22.07771339,
			"-0.001": 25.1874790465,
			"0.0": 32.4702567019,
			"0.001": 46.1959971223,
			"0.002": 19.5563261701,
			"0.003": 12.3551412941,
			"0.004": 8.01471040205,
			"0.005": 4.73174167685,
			"0.006": 4.68184869315,
			"0.007": 3.89811227697,
			"0.008": 4.30700041437,
			"0.009": 9.47683146142,
			"0.01": 9.82496903405,
			"0.011": 2.83564927531,
			"0.012": 0.417557094085,
			"0.013": 0.0319822037913,
			"0.014": 0.0,
			"0.015": 0.0,
			"0.016": 0.0,
			"0.017": 0.0,
			"0.018": 0.0,
			"0.019": 0.0,
			"0.02": 0.0,
			"0.021": 0.0,
			"0.022": 0.0,
			"0.023": 0.0,
			"0.024": 0.0,
			"0.025": 0.0
		}
	}
}
