{
	 "smiles": "CC(C)C1=C(OC(C)=O)C(=O)C2=C([C@@H](C[C@H]3C(C)(C)CCC[C@]23C)OC(C)=O)C1=O", 
	 "Tm": 394.15, 
	 "num_atms": 62, 
	 "gaussian": { 
		 "optdone": 1, 
		 "sigma_profile": "yes", 
		 "theory": "DFT", 
		 "functional": "B3LYP", 
		 "basiset": "6-31G**", 
		 "properties": { 
			 "R2extent": 12738.2298, 
			 "electric_dipole_moment_norm": 3.59018905491, 
			 "electric_quadrupole_moment_norm": 17.7827843658, 
			 "total_energy": -1385.20679179, 
			 "HOMO_LUMO_gap": 0.13629, 
			 "cosmo_polarized_energy": -15.72, 
			 "cosmo_cavitation_energy": 58.54, 
			 "cosmo_dispersion_energy": -37.68, 
			 "cosmo_repulsion_energy": 2.84, 
			 "cosmo_total_nonelectrostatic_energy": 23.7, 
			 "SMD_solvation_energy": 12.39 
		},
		"coords": [
			{
				"x": 2.7665316898,
				"y": 0.9760854837,
				"z": -3.967367865,
				"element": "C" 
			},
			{
				"x": 2.0395381196,
				"y": 2.1152507389,
				"z": -3.2249421958,
				"element": "C" 
			},
			{
				"x": 3.0276934139,
				"y": 3.1743450193,
				"z": -2.6916409841,
				"element": "C" 
			},
			{
				"x": 1.1337915501,
				"y": 1.6029451135,
				"z": -2.1214228292,
				"element": "C" 
			},
			{
				"x": -0.1818774889,
				"y": 1.8853266731,
				"z": -2.0620754303,
				"element": "C" 
			},
			{
				"x": -0.8191030892,
				"y": 2.5963221785,
				"z": -3.0582060683,
				"element": "O" 
			},
			{
				"x": -1.2551988736,
				"y": 3.8722512826,
				"z": -2.7383045502,
				"element": "C" 
			},
			{
				"x": -2.2185911982,
				"y": 4.3625217739,
				"z": -3.7827172284,
				"element": "C" 
			},
			{
				"x": -0.8748425441,
				"y": 4.46326015,
				"z": -1.7621523853,
				"element": "O" 
			},
			{
				"x": -1.0981952234,
				"y": 1.4098563552,
				"z": -0.979419628,
				"element": "C" 
			},
			{
				"x": -2.2669094557,
				"y": 1.7757511601,
				"z": -0.9989768193,
				"element": "O" 
			},
			{
				"x": -0.5492954558,
				"y": 0.5000507302,
				"z": 0.0784993144,
				"element": "C" 
			},
			{
				"x": 0.7836868927,
				"y": 0.2596432558,
				"z": 0.0671962428,
				"element": "C" 
			},
			{
				"x": 1.4800947248,
				"y": -0.5575002718,
				"z": 1.1263763114,
				"element": "C" 
			},
			{
				"x": 0.6035163499,
				"y": -0.7941352652,
				"z": 2.3486604482,
				"element": "C" 
			},
			{
				"x": -0.8082484874,
				"y": -1.2059104772,
				"z": 1.9177092483,
				"element": "C" 
			},
			{
				"x": -1.659083504,
				"y": -1.8780587274,
				"z": 3.0558720406,
				"element": "C" 
			},
			{
				"x": -1.4837111983,
				"y": -1.2170300401,
				"z": 4.4390841987,
				"element": "C" 
			},
			{
				"x": -1.1987756499,
				"y": -3.3490413369,
				"z": 3.1776807876,
				"element": "C" 
			},
			{
				"x": -3.1638512673,
				"y": -1.864587462,
				"z": 2.6601151671,
				"element": "C" 
			},
			{
				"x": -3.3523139319,
				"y": -1.9128416837,
				"z": 1.1421362011,
				"element": "C" 
			},
			{
				"x": -2.7935095494,
				"y": -0.6563387617,
				"z": 0.4397162488,
				"element": "C" 
			},
			{
				"x": -1.5178903525,
				"y": -0.0522964454,
				"z": 1.1361855558,
				"element": "C" 
			},
			{
				"x": -1.9229081806,
				"y": 1.1490544972,
				"z": 2.0360938339,
				"element": "C" 
			},
			{
				"x": 1.8179904233,
				"y": -1.8248108513,
				"z": 0.4865139238,
				"element": "O" 
			},
			{
				"x": 2.9483662833,
				"y": -2.4347305867,
				"z": 0.926386251,
				"element": "C" 
			},
			{
				"x": 3.2459224703,
				"y": -3.6618541883,
				"z": 0.0983257162,
				"element": "C" 
			},
			{
				"x": 3.6183207248,
				"y": -2.0313923851,
				"z": 1.8507202675,
				"element": "O" 
			},
			{
				"x": 1.6922463815,
				"y": 0.7996654008,
				"z": -0.9965109551,
				"element": "C" 
			},
			{
				"x": 2.8991944588,
				"y": 0.5877960838,
				"z": -0.9165759832,
				"element": "O" 
			},
			{
				"x": 3.4682031682,
				"y": 0.4605454491,
				"z": -3.3092478621,
				"element": "H" 
			},
			{
				"x": 3.3253584275,
				"y": 1.3893086607,
				"z": -4.8136240557,
				"element": "H" 
			},
			{
				"x": 2.055830884,
				"y": 0.2427142313,
				"z": -4.3627629803,
				"element": "H" 
			},
			{
				"x": 1.3832049667,
				"y": 2.6105797505,
				"z": -3.9471191748,
				"element": "H" 
			},
			{
				"x": 3.7256982895,
				"y": 2.7337722374,
				"z": -1.9765897364,
				"element": "H" 
			},
			{
				"x": 2.4943630526,
				"y": 3.994514606,
				"z": -2.2008581742,
				"element": "H" 
			},
			{
				"x": 3.6037229897,
				"y": 3.5935036087,
				"z": -3.5235280607,
				"element": "H" 
			},
			{
				"x": -3.1604928235,
				"y": 3.8158159495,
				"z": -3.6729736424,
				"element": "H" 
			},
			{
				"x": -1.835254072,
				"y": 4.1645184074,
				"z": -4.7868534219,
				"element": "H" 
			},
			{
				"x": -2.3953048859,
				"y": 5.4283785816,
				"z": -3.6429746543,
				"element": "H" 
			},
			{
				"x": 2.4206728633,
				"y": -0.0788229215,
				"z": 1.4044425843,
				"element": "H" 
			},
			{
				"x": 0.5873626333,
				"y": 0.1234727315,
				"z": 2.947791251,
				"element": "H" 
			},
			{
				"x": 1.0828856971,
				"y": -1.5577859665,
				"z": 2.9664724265,
				"element": "H" 
			},
			{
				"x": -0.6616715386,
				"y": -1.9933751794,
				"z": 1.1657018949,
				"element": "H" 
			},
			{
				"x": -2.1444837313,
				"y": -1.704407789,
				"z": 5.1651714662,
				"element": "H" 
			},
			{
				"x": -1.7326655537,
				"y": -0.1531706409,
				"z": 4.4329408538,
				"element": "H" 
			},
			{
				"x": -0.4604949358,
				"y": -1.3199876841,
				"z": 4.8141240667,
				"element": "H" 
			},
			{
				"x": -1.4216458039,
				"y": -3.9158608615,
				"z": 2.2669186709,
				"element": "H" 
			},
			{
				"x": -0.1213359195,
				"y": -3.4248529093,
				"z": 3.3589842085,
				"element": "H" 
			},
			{
				"x": -1.7084556663,
				"y": -3.8433979495,
				"z": 4.0119915866,
				"element": "H" 
			},
			{
				"x": -3.6547347454,
				"y": -0.967568814,
				"z": 3.0565095242,
				"element": "H" 
			},
			{
				"x": -3.6679510228,
				"y": -2.7145576369,
				"z": 3.1364109814,
				"element": "H" 
			},
			{
				"x": -4.4141618714,
				"y": -2.0177653481,
				"z": 0.8918847013,
				"element": "H" 
			},
			{
				"x": -2.863580227,
				"y": -2.8131074642,
				"z": 0.7486617953,
				"element": "H" 
			},
			{
				"x": -3.5616458991,
				"y": 0.1182115532,
				"z": 0.3912407572,
				"element": "H" 
			},
			{
				"x": -2.5647224462,
				"y": -0.9128646256,
				"z": -0.600081738,
				"element": "H" 
			},
			{
				"x": -2.3276624464,
				"y": 1.9537939046,
				"z": 1.4200127979,
				"element": "H" 
			},
			{
				"x": -2.6954357376,
				"y": 0.8645098208,
				"z": 2.7517170505,
				"element": "H" 
			},
			{
				"x": -1.0708532427,
				"y": 1.5466193292,
				"z": 2.5956771925,
				"element": "H" 
			},
			{
				"x": 4.0406615487,
				"y": -4.2364829882,
				"z": 0.5731913549,
				"element": "H" 
			},
			{
				"x": 3.5675088057,
				"y": -3.3523109106,
				"z": -0.901305969,
				"element": "H" 
			},
			{
				"x": 2.3488912103,
				"y": -4.2750365463,
				"z": -0.0196845301,
				"element": "H" 
			}
		],
		 "valence_orbital": [ 
			{
				"type": "occ",
				"energy": -0.28683,
				"method": "rhf"
			},
			{
				"type": "occ",
				"energy": -0.27348,
				"method": "rhf"
			},
			{
				"type": "occ",
				"energy": -0.27188,
				"method": "rhf"
			},
			{
				"type": "occ",
				"energy": -0.26344,
				"method": "rhf"
			},
			{
				"type": "occ",
				"energy": -0.25829,
				"method": "rhf"
			},
			{
				"type": "unocc",
				"energy": -0.122,
				"method": "rhf"
			},
			{
				"type": "unocc",
				"energy": -0.01797,
				"method": "rhf"
			},
			{
				"type": "unocc",
				"energy": 3e-05,
				"method": "rhf"
			},
			{
				"type": "unocc",
				"energy": 0.00732,
				"method": "rhf"
			},
			{
				"type": "unocc",
				"energy": 0.01523,
				"method": "rhf"
			}
		],
		"cosmo_sigma_profile": { 
			"-0.025": 0.0,
			"-0.024": 0.0,
			"-0.023": 0.0,
			"-0.022": 0.0,
			"-0.021": 0.0,
			"-0.02": 0.0,
			"-0.019": 0.0,
			"-0.018": 0.0,
			"-0.017": 0.0,
			"-0.016": 0.0,
			"-0.015": 0.0,
			"-0.014": 0.0,
			"-0.013": 0.0,
			"-0.012": 0.0,
			"-0.011": 0.0,
			"-0.01": 0.0,
			"-0.009": 0.0,
			"-0.008": 0.114114251828,
			"-0.007": 3.87482177159,
			"-0.006": 12.7991974457,
			"-0.005": 21.0149289188,
			"-0.004": 30.9337529462,
			"-0.003": 52.6743033607,
			"-0.002": 67.1199082217,
			"-0.001": 60.6788003428,
			"0.0": 50.936962059,
			"0.001": 48.0730047648,
			"0.002": 21.6890369259,
			"0.003": 10.7619463884,
			"0.004": 10.4481827383,
			"0.005": 11.6427444434,
			"0.006": 11.6819216763,
			"0.007": 7.41681401663,
			"0.008": 6.1736958747,
			"0.009": 8.01309542385,
			"0.01": 7.35672070342,
			"0.011": 7.2456640565,
			"0.012": 4.86613667556,
			"0.013": 0.928314749869,
			"0.014": 0.0,
			"0.015": 0.0,
			"0.016": 0.0,
			"0.017": 0.0,
			"0.018": 0.0,
			"0.019": 0.0,
			"0.02": 0.0,
			"0.021": 0.0,
			"0.022": 0.0,
			"0.023": 0.0,
			"0.024": 0.0,
			"0.025": 0.0
		}
	}
}
