{
	 "smiles": "NS(=O)(=O)C1=CC(Cl)=C(C=C1)C#N", 
	 "Tm": 431.15, 
	 "num_atms": 18, 
	 "gaussian": { 
		 "optdone": 1, 
		 "sigma_profile": "yes", 
		 "theory": "DFT", 
		 "functional": "B3LYP", 
		 "basiset": "6-31G**", 
		 "properties": { 
			 "R2extent": 3889.371, 
			 "electric_dipole_moment_norm": 3.90571666407, 
			 "electric_quadrupole_moment_norm": 30.1253683048, 
			 "total_energy": -1387.99217604, 
			 "HOMO_LUMO_gap": 0.19266, 
			 "cosmo_polarized_energy": -22.13, 
			 "cosmo_cavitation_energy": 27.42, 
			 "cosmo_dispersion_energy": -20.03, 
			 "cosmo_repulsion_energy": 1.55, 
			 "cosmo_total_nonelectrostatic_energy": 8.94, 
			 "SMD_solvation_energy": 5.46 
		},
		"coords": [
			{
				"x": 0.7440142878,
				"y": 3.7273140081,
				"z": -0.8568583184,
				"element": "N" 
			},
			{
				"x": -0.2341231789,
				"y": 2.8483580899,
				"z": 0.1748672469,
				"element": "S" 
			},
			{
				"x": -1.5982806456,
				"y": 3.2979148365,
				"z": -0.0855648272,
				"element": "O" 
			},
			{
				"x": 0.4043162922,
				"y": 2.913455889,
				"z": 1.4860712453,
				"element": "O" 
			},
			{
				"x": -0.1384874007,
				"y": 1.1249744681,
				"z": -0.3637479568,
				"element": "C" 
			},
			{
				"x": -1.0561398166,
				"y": 0.6626862751,
				"z": -1.3065084672,
				"element": "C" 
			},
			{
				"x": -0.9692369202,
				"y": -0.657442761,
				"z": -1.7427404151,
				"element": "C" 
			},
			{
				"x": -2.1115521283,
				"y": -1.2392276712,
				"z": -2.9214125834,
				"element": "Cl" 
			},
			{
				"x": 0.0267324926,
				"y": -1.514400112,
				"z": -1.2326024609,
				"element": "C" 
			},
			{
				"x": 0.9266102707,
				"y": -1.0240586084,
				"z": -0.2689213039,
				"element": "C" 
			},
			{
				"x": 0.8476056257,
				"y": 0.2924529129,
				"z": 0.1699480481,
				"element": "C" 
			},
			{
				"x": 0.1399057942,
				"y": -2.874364428,
				"z": -1.6671267987,
				"element": "C" 
			},
			{
				"x": 0.2670394143,
				"y": -3.9817965051,
				"z": -1.9973254957,
				"element": "N" 
			},
			{
				"x": 1.7334605137,
				"y": 3.5228066188,
				"z": -0.770551553,
				"element": "H" 
			},
			{
				"x": 0.4050224362,
				"y": 3.7789244212,
				"z": -1.8112286227,
				"element": "H" 
			},
			{
				"x": -1.8395500449,
				"y": 1.3140727436,
				"z": -1.676288388,
				"element": "H" 
			},
			{
				"x": 1.6798289883,
				"y": -1.6938725837,
				"z": 0.1313495656,
				"element": "H" 
			},
			{
				"x": 1.5213340197,
				"y": 0.6682024061,
				"z": 0.931741085,
				"element": "H" 
			}
		],
		 "valence_orbital": [ 
			{
				"type": "occ",
				"energy": -0.33227,
				"method": "rhf"
			},
			{
				"type": "occ",
				"energy": -0.32567,
				"method": "rhf"
			},
			{
				"type": "occ",
				"energy": -0.32388,
				"method": "rhf"
			},
			{
				"type": "occ",
				"energy": -0.29771,
				"method": "rhf"
			},
			{
				"type": "occ",
				"energy": -0.28522,
				"method": "rhf"
			},
			{
				"type": "unocc",
				"energy": -0.09256,
				"method": "rhf"
			},
			{
				"type": "unocc",
				"energy": -0.05799,
				"method": "rhf"
			},
			{
				"type": "unocc",
				"energy": -0.00532,
				"method": "rhf"
			},
			{
				"type": "unocc",
				"energy": 0.01445,
				"method": "rhf"
			},
			{
				"type": "unocc",
				"energy": 0.02862,
				"method": "rhf"
			}
		],
		"cosmo_sigma_profile": { 
			"-0.025": 0.0,
			"-0.024": 0.0,
			"-0.023": 0.0,
			"-0.022": 0.0,
			"-0.021": 0.0,
			"-0.02": 0.0,
			"-0.019": 0.0,
			"-0.018": 0.0,
			"-0.017": 0.0,
			"-0.016": 1.5046700591,
			"-0.015": 2.85476571164,
			"-0.014": 2.58837223024,
			"-0.013": 3.50526525809,
			"-0.012": 2.96411118094,
			"-0.011": 1.8868671163,
			"-0.01": 2.88454656485,
			"-0.009": 7.0354626253,
			"-0.008": 8.12079951346,
			"-0.007": 6.42122876295,
			"-0.006": 6.46080378777,
			"-0.005": 5.79370919035,
			"-0.004": 10.8746593514,
			"-0.003": 13.7371072061,
			"-0.002": 20.355760723,
			"-0.001": 16.3548813691,
			"0.0": 10.9242814389,
			"0.001": 7.4389578132,
			"0.002": 13.9249462263,
			"0.003": 11.3673700393,
			"0.004": 6.09881531354,
			"0.005": 5.78416345436,
			"0.006": 6.62294412278,
			"0.007": 7.08513501672,
			"0.008": 7.85901485906,
			"0.009": 8.37668125868,
			"0.01": 11.790861294,
			"0.011": 11.002761506,
			"0.012": 1.9687652073,
			"0.013": 0.0687591542252,
			"0.014": 0.0,
			"0.015": 0.0,
			"0.016": 0.0,
			"0.017": 0.0,
			"0.018": 0.0,
			"0.019": 0.0,
			"0.02": 0.0,
			"0.021": 0.0,
			"0.022": 0.0,
			"0.023": 0.0,
			"0.024": 0.0,
			"0.025": 0.0
		}
	}
}
