{
	 "smiles": "OC(=O)C1=CC2=C(N1)C=CC(Br)=C2", 
	 "Tm": 557.15, 
	 "num_atms": 19, 
	 "gaussian": { 
		 "optdone": 1, 
		 "sigma_profile": "yes", 
		 "theory": "DFT", 
		 "functional": "B3LYP", 
		 "basiset": "6-31G**", 
		 "properties": { 
			 "R2extent": 5421.381, 
			 "electric_dipole_moment_norm": 1.21075243547, 
			 "electric_quadrupole_moment_norm": 26.2045684916, 
			 "total_energy": -3123.19377803, 
			 "HOMO_LUMO_gap": 0.16636, 
			 "cosmo_polarized_energy": -15.72, 
			 "cosmo_cavitation_energy": 26.45, 
			 "cosmo_dispersion_energy": -20.21, 
			 "cosmo_repulsion_energy": 1.58, 
			 "cosmo_total_nonelectrostatic_energy": 7.83, 
			 "SMD_solvation_energy": 4.18 
		},
		"coords": [
			{
				"x": 3.6495892892,
				"y": -2.3529199997,
				"z": 1.319448432,
				"element": "O" 
			},
			{
				"x": 3.8044101319,
				"y": -1.0156989027,
				"z": 1.1795913262,
				"element": "C" 
			},
			{
				"x": 4.8869576326,
				"y": -0.494077303,
				"z": 1.3449844772,
				"element": "O" 
			},
			{
				"x": 2.6085528936,
				"y": -0.2315154271,
				"z": 0.820101489,
				"element": "C" 
			},
			{
				"x": 1.28826195,
				"y": -0.5601881624,
				"z": 0.5780187643,
				"element": "C" 
			},
			{
				"x": 0.6052740266,
				"y": 0.6576555522,
				"z": 0.2729726404,
				"element": "C" 
			},
			{
				"x": 1.5720555659,
				"y": 1.704481277,
				"z": 0.3457454974,
				"element": "C" 
			},
			{
				"x": 2.7712751608,
				"y": 1.1315040611,
				"z": 0.6785265205,
				"element": "N" 
			},
			{
				"x": 1.2341474822,
				"y": 3.0424535669,
				"z": 0.0995152283,
				"element": "C" 
			},
			{
				"x": -0.0837894323,
				"y": 3.3272423088,
				"z": -0.2214785171,
				"element": "C" 
			},
			{
				"x": -1.0440242337,
				"y": 2.2940133713,
				"z": -0.2945811859,
				"element": "C" 
			},
			{
				"x": -2.8453993258,
				"y": 2.7625676367,
				"z": -0.7435647116,
				"element": "Br" 
			},
			{
				"x": -0.7289729231,
				"y": 0.9693031246,
				"z": -0.0550208705,
				"element": "C" 
			},
			{
				"x": 2.7311842623,
				"y": -2.6091458811,
				"z": 1.1549597624,
				"element": "H" 
			},
			{
				"x": 0.8434487249,
				"y": -1.5461886186,
				"z": 0.6099026439,
				"element": "H" 
			},
			{
				"x": 3.6671168209,
				"y": 1.5774206662,
				"z": 0.8139097245,
				"element": "H" 
			},
			{
				"x": 1.9745415334,
				"y": 3.8341959604,
				"z": 0.1564926015,
				"element": "H" 
			},
			{
				"x": -0.3878998834,
				"y": 4.3483060817,
				"z": -0.4193511563,
				"element": "H" 
			},
			{
				"x": -1.487429676,
				"y": 0.1973906875,
				"z": -0.1184726663,
				"element": "H" 
			}
		],
		 "valence_orbital": [ 
			{
				"type": "occ",
				"energy": -0.29956,
				"method": "rhf"
			},
			{
				"type": "occ",
				"energy": -0.29087,
				"method": "rhf"
			},
			{
				"type": "occ",
				"energy": -0.28772,
				"method": "rhf"
			},
			{
				"type": "occ",
				"energy": -0.23921,
				"method": "rhf"
			},
			{
				"type": "occ",
				"energy": -0.23069,
				"method": "rhf"
			},
			{
				"type": "unocc",
				"energy": -0.06433,
				"method": "rhf"
			},
			{
				"type": "unocc",
				"energy": -0.00396,
				"method": "rhf"
			},
			{
				"type": "unocc",
				"energy": 0.00407,
				"method": "rhf"
			},
			{
				"type": "unocc",
				"energy": 0.00798,
				"method": "rhf"
			},
			{
				"type": "unocc",
				"energy": 0.04496,
				"method": "rhf"
			}
		],
		"cosmo_sigma_profile": { 
			"-0.025": 0.0,
			"-0.024": 0.0,
			"-0.023": 0.0,
			"-0.022": 0.0,
			"-0.021": 0.0,
			"-0.02": 0.0,
			"-0.019": 0.465139536248,
			"-0.018": 1.02113176532,
			"-0.017": 1.46996969494,
			"-0.016": 1.35568857757,
			"-0.015": 1.64976891254,
			"-0.014": 1.47878130249,
			"-0.013": 2.34920601003,
			"-0.012": 2.5306175297,
			"-0.011": 1.62616429071,
			"-0.01": 1.83442352559,
			"-0.009": 2.5959431271,
			"-0.008": 4.84319981255,
			"-0.007": 7.08635602059,
			"-0.006": 8.0615945289,
			"-0.005": 8.5901163478,
			"-0.004": 8.58390331905,
			"-0.003": 9.63936312297,
			"-0.002": 11.7155135759,
			"-0.001": 9.26603961117,
			"0.0": 12.6628617593,
			"0.001": 14.6360371009,
			"0.002": 20.6415649108,
			"0.003": 25.7931156555,
			"0.004": 19.5584005836,
			"0.005": 11.5113376161,
			"0.006": 2.25286640452,
			"0.007": 2.23285130931,
			"0.008": 3.15548854015,
			"0.009": 3.35661260765,
			"0.01": 4.97305225591,
			"0.011": 4.40281501353,
			"0.012": 3.47191038943,
			"0.013": 1.26742100017,
			"0.014": 0.0320696979836,
			"0.015": 0.0,
			"0.016": 0.0,
			"0.017": 0.0,
			"0.018": 0.0,
			"0.019": 0.0,
			"0.02": 0.0,
			"0.021": 0.0,
			"0.022": 0.0,
			"0.023": 0.0,
			"0.024": 0.0,
			"0.025": 0.0
		}
	}
}
