{
	 "smiles": "CC(=O)N[C@@H](CS)C(O)=O", 
	 "Tm": 383.15, 
	 "num_atms": 19, 
	 "gaussian": { 
		 "optdone": 1, 
		 "sigma_profile": "yes", 
		 "theory": "DFT", 
		 "functional": "B3LYP", 
		 "basiset": "6-31G**", 
		 "properties": { 
			 "R2extent": 2165.2026, 
			 "electric_dipole_moment_norm": 2.14278249713, 
			 "electric_quadrupole_moment_norm": 16.9509220997, 
			 "total_energy": -874.591291627, 
			 "HOMO_LUMO_gap": 0.22381, 
			 "cosmo_polarized_energy": -17.4, 
			 "cosmo_cavitation_energy": 24.9, 
			 "cosmo_dispersion_energy": -17.99, 
			 "cosmo_repulsion_energy": 1.45, 
			 "cosmo_total_nonelectrostatic_energy": 8.37, 
			 "SMD_solvation_energy": 5.48 
		},
		"coords": [
			{
				"x": -0.2598331391,
				"y": -2.4512880938,
				"z": 0.6928569111,
				"element": "C" 
			},
			{
				"x": 1.1293457959,
				"y": -2.140733926,
				"z": 0.1646117119,
				"element": "C" 
			},
			{
				"x": 1.9854257199,
				"y": -2.9981108649,
				"z": 0.0132438278,
				"element": "O" 
			},
			{
				"x": 1.4165403289,
				"y": -0.8190041544,
				"z": -0.130132834,
				"element": "N" 
			},
			{
				"x": 0.5049626951,
				"y": 0.3165187633,
				"z": -0.1899778207,
				"element": "C" 
			},
			{
				"x": 1.1698891246,
				"y": 1.5660968292,
				"z": 0.3979559911,
				"element": "C" 
			},
			{
				"x": 0.05021634,
				"y": 3.016714539,
				"z": 0.5359323574,
				"element": "S" 
			},
			{
				"x": 0.088696157,
				"y": 0.5424240573,
				"z": -1.6498368078,
				"element": "C" 
			},
			{
				"x": -0.8546443881,
				"y": -0.3419494414,
				"z": -2.0362841425,
				"element": "O" 
			},
			{
				"x": 0.5740100721,
				"y": 1.3650336117,
				"z": -2.3956029838,
				"element": "O" 
			},
			{
				"x": -0.2947454595,
				"y": -3.5153109564,
				"z": 0.9239302507,
				"element": "H" 
			},
			{
				"x": -1.0247091972,
				"y": -2.2155559428,
				"z": -0.0534528067,
				"element": "H" 
			},
			{
				"x": -0.4842943919,
				"y": -1.8802022767,
				"z": 1.600194285,
				"element": "H" 
			},
			{
				"x": 2.3337492557,
				"y": -0.6990192063,
				"z": -0.5447454955,
				"element": "H" 
			},
			{
				"x": -0.390040774,
				"y": 0.0750889024,
				"z": 0.3850264796,
				"element": "H" 
			},
			{
				"x": 1.4982341641,
				"y": 1.3432522775,
				"z": 1.4153195927,
				"element": "H" 
			},
			{
				"x": 2.0451413789,
				"y": 1.8457447713,
				"z": -0.1928231439,
				"element": "H" 
			},
			{
				"x": 0.0460610509,
				"y": 3.3199395599,
				"z": -0.7766799199,
				"element": "H" 
			},
			{
				"x": -1.0161047333,
				"y": -0.188638449,
				"z": -2.9831354525,
				"element": "H" 
			}
		],
		 "valence_orbital": [ 
			{
				"type": "occ",
				"energy": -0.33701,
				"method": "rhf"
			},
			{
				"type": "occ",
				"energy": -0.30938,
				"method": "rhf"
			},
			{
				"type": "occ",
				"energy": -0.26463,
				"method": "rhf"
			},
			{
				"type": "occ",
				"energy": -0.25716,
				"method": "rhf"
			},
			{
				"type": "occ",
				"energy": -0.24689,
				"method": "rhf"
			},
			{
				"type": "unocc",
				"energy": -0.02308,
				"method": "rhf"
			},
			{
				"type": "unocc",
				"energy": 0.01336,
				"method": "rhf"
			},
			{
				"type": "unocc",
				"energy": 0.0289,
				"method": "rhf"
			},
			{
				"type": "unocc",
				"energy": 0.05812,
				"method": "rhf"
			},
			{
				"type": "unocc",
				"energy": 0.06422,
				"method": "rhf"
			}
		],
		"cosmo_sigma_profile": { 
			"-0.025": 0.0,
			"-0.024": 0.0,
			"-0.023": 0.0,
			"-0.022": 0.0,
			"-0.021": 0.0,
			"-0.02": 0.0,
			"-0.019": 0.514493878142,
			"-0.018": 0.919505015934,
			"-0.017": 0.906823599232,
			"-0.016": 0.985287641083,
			"-0.015": 0.839402905215,
			"-0.014": 1.31070976808,
			"-0.013": 1.71871592495,
			"-0.012": 2.26135998361,
			"-0.011": 1.47757417834,
			"-0.01": 1.73421953341,
			"-0.009": 2.6934575446,
			"-0.008": 5.15615883005,
			"-0.007": 8.94508080905,
			"-0.006": 9.50183319531,
			"-0.005": 10.7060803576,
			"-0.004": 12.4098485606,
			"-0.003": 15.0042922149,
			"-0.002": 14.2615410173,
			"-0.001": 12.9177175762,
			"0.0": 10.547248756,
			"0.001": 9.0779491987,
			"0.002": 7.66265699006,
			"0.003": 7.6781138676,
			"0.004": 7.62984606992,
			"0.005": 7.64859146934,
			"0.006": 4.7361664836,
			"0.007": 5.93892980704,
			"0.008": 5.02844160681,
			"0.009": 4.76850825687,
			"0.01": 5.31691607234,
			"0.011": 5.34588863081,
			"0.012": 2.74175912974,
			"0.013": 4.92432363964,
			"0.014": 4.15076634679,
			"0.015": 0.550584856214,
			"0.016": 0.0,
			"0.017": 0.0,
			"0.018": 0.0,
			"0.019": 0.0,
			"0.02": 0.0,
			"0.021": 0.0,
			"0.022": 0.0,
			"0.023": 0.0,
			"0.024": 0.0,
			"0.025": 0.0
		}
	}
}
