{
	 "smiles": "CCN(CC)S(=O)(=O)C1=CC(=CC=C1)C1=NN=C(S)O1", 
	 "Tm": 371.15, 
	 "num_atms": 35, 
	 "gaussian": { 
		 "optdone": 1, 
		 "sigma_profile": "yes", 
		 "theory": "DFT", 
		 "functional": "B3LYP", 
		 "basiset": "6-31G**", 
		 "properties": { 
			 "R2extent": 8387.6454, 
			 "electric_dipole_moment_norm": 3.97590258683, 
			 "electric_quadrupole_moment_norm": 28.9413614058, 
			 "total_energy": -1652.51326251, 
			 "HOMO_LUMO_gap": 0.17516, 
			 "cosmo_polarized_energy": -19.69, 
			 "cosmo_cavitation_energy": 42.13, 
			 "cosmo_dispersion_energy": -29.72, 
			 "cosmo_repulsion_energy": 2.22, 
			 "cosmo_total_nonelectrostatic_energy": 14.63, 
			 "SMD_solvation_energy": 4.46 
		},
		"coords": [
			{
				"x": -4.1752717927,
				"y": -0.2777424317,
				"z": 3.1467238847,
				"element": "C" 
			},
			{
				"x": -3.4342259591,
				"y": 0.1813759361,
				"z": 1.8893835884,
				"element": "C" 
			},
			{
				"x": -1.9698895204,
				"y": 0.0991541636,
				"z": 2.0161875044,
				"element": "N" 
			},
			{
				"x": -1.2384771761,
				"y": 1.2218796435,
				"z": 2.6205481787,
				"element": "C" 
			},
			{
				"x": -1.0356148608,
				"y": 2.4159290336,
				"z": 1.6826758874,
				"element": "C" 
			},
			{
				"x": -1.1737515169,
				"y": -1.2596861175,
				"z": 1.479317647,
				"element": "S" 
			},
			{
				"x": -2.1318512225,
				"y": -2.3675916182,
				"z": 1.5361596304,
				"element": "O" 
			},
			{
				"x": 0.1207612602,
				"y": -1.3055184921,
				"z": 2.1662461318,
				"element": "O" 
			},
			{
				"x": -0.8160006353,
				"y": -0.9966239556,
				"z": -0.2701760215,
				"element": "C" 
			},
			{
				"x": 0.391501042,
				"y": -0.4008396672,
				"z": -0.6316761811,
				"element": "C" 
			},
			{
				"x": 0.6604534844,
				"y": -0.1689242267,
				"z": -1.9871154107,
				"element": "C" 
			},
			{
				"x": -0.2820803655,
				"y": -0.5395153723,
				"z": -2.962124419,
				"element": "C" 
			},
			{
				"x": -1.4736088373,
				"y": -1.1487425495,
				"z": -2.5817345436,
				"element": "C" 
			},
			{
				"x": -1.7490977275,
				"y": -1.387511861,
				"z": -1.2326538057,
				"element": "C" 
			},
			{
				"x": 1.9131977575,
				"y": 0.4458576951,
				"z": -2.4087772374,
				"element": "C" 
			},
			{
				"x": 2.3067352196,
				"y": 0.7465008073,
				"z": -3.6092958461,
				"element": "N" 
			},
			{
				"x": 3.5826618023,
				"y": 1.296354395,
				"z": -3.4950112666,
				"element": "N" 
			},
			{
				"x": 3.8562277419,
				"y": 1.293191454,
				"z": -2.228078126,
				"element": "C" 
			},
			{
				"x": 5.3098507796,
				"y": 1.9177092855,
				"z": -1.4698213641,
				"element": "S" 
			},
			{
				"x": 2.8550371877,
				"y": 0.7750341897,
				"z": -1.4630118541,
				"element": "O" 
			},
			{
				"x": -3.8719011324,
				"y": 0.3038764087,
				"z": 4.0232174063,
				"element": "H" 
			},
			{
				"x": -5.2556215567,
				"y": -0.1505668597,
				"z": 3.0169451269,
				"element": "H" 
			},
			{
				"x": -3.9670424957,
				"y": -1.3322544673,
				"z": 3.3403391527,
				"element": "H" 
			},
			{
				"x": -3.7503541564,
				"y": -0.418325224,
				"z": 1.0325280015,
				"element": "H" 
			},
			{
				"x": -3.6821322415,
				"y": 1.2219305916,
				"z": 1.6502027006,
				"element": "H" 
			},
			{
				"x": -1.7991743377,
				"y": 1.53172062,
				"z": 3.5107953179,
				"element": "H" 
			},
			{
				"x": -0.2797862015,
				"y": 0.8398478331,
				"z": 2.9746943847,
				"element": "H" 
			},
			{
				"x": -0.5219844571,
				"y": 3.2250667299,
				"z": 2.2127529464,
				"element": "H" 
			},
			{
				"x": -0.4306104898,
				"y": 2.1392944843,
				"z": 0.8145709273,
				"element": "H" 
			},
			{
				"x": -1.9886321911,
				"y": 2.8116141583,
				"z": 1.3169179996,
				"element": "H" 
			},
			{
				"x": 1.1178109098,
				"y": -0.1467032722,
				"z": 0.13137043,
				"element": "H" 
			},
			{
				"x": -0.0571663378,
				"y": -0.3548972933,
				"z": -4.0069299104,
				"element": "H" 
			},
			{
				"x": -2.1896934635,
				"y": -1.4510174143,
				"z": -3.3394673902,
				"element": "H" 
			},
			{
				"x": -2.6575488743,
				"y": -1.8944647135,
				"z": -0.9274500278,
				"element": "H" 
			},
			{
				"x": 5.0690803644,
				"y": 1.3374881069,
				"z": -0.2780534424,
				"element": "H" 
			}
		],
		 "valence_orbital": [ 
			{
				"type": "occ",
				"energy": -0.29349,
				"method": "rhf"
			},
			{
				"type": "occ",
				"energy": -0.29051,
				"method": "rhf"
			},
			{
				"type": "occ",
				"energy": -0.28696,
				"method": "rhf"
			},
			{
				"type": "occ",
				"energy": -0.25088,
				"method": "rhf"
			},
			{
				"type": "occ",
				"energy": -0.24358,
				"method": "rhf"
			},
			{
				"type": "unocc",
				"energy": -0.06842,
				"method": "rhf"
			},
			{
				"type": "unocc",
				"energy": -0.04428,
				"method": "rhf"
			},
			{
				"type": "unocc",
				"energy": -0.01208,
				"method": "rhf"
			},
			{
				"type": "unocc",
				"energy": 0.00314,
				"method": "rhf"
			},
			{
				"type": "unocc",
				"energy": 0.03486,
				"method": "rhf"
			}
		],
		"cosmo_sigma_profile": { 
			"-0.025": 0.0,
			"-0.024": 0.0,
			"-0.023": 0.0,
			"-0.022": 0.0,
			"-0.021": 0.0,
			"-0.02": 0.0,
			"-0.019": 0.0,
			"-0.018": 0.0,
			"-0.017": 0.0,
			"-0.016": 0.0,
			"-0.015": 0.0,
			"-0.014": 0.454224456158,
			"-0.013": 1.94620716467,
			"-0.012": 1.57029352384,
			"-0.011": 1.65357644216,
			"-0.01": 1.54752017537,
			"-0.009": 1.53296571722,
			"-0.008": 2.9659424504,
			"-0.007": 7.91729045982,
			"-0.006": 11.209365872,
			"-0.005": 20.9004103064,
			"-0.004": 25.9582545448,
			"-0.003": 33.5443320352,
			"-0.002": 32.8105119397,
			"-0.001": 30.4584513692,
			"0.0": 36.1600256219,
			"0.001": 33.6241000732,
			"0.002": 19.5750595682,
			"0.003": 9.40424177146,
			"0.004": 7.50915498276,
			"0.005": 6.93058921711,
			"0.006": 5.93950969944,
			"0.007": 5.79637691688,
			"0.008": 4.82639348917,
			"0.009": 5.85353850306,
			"0.01": 9.39193868031,
			"0.011": 10.0862414427,
			"0.012": 5.46054506866,
			"0.013": 2.2101661543,
			"0.014": 1.0257036735,
			"0.015": 0.131794648245,
			"0.016": 0.0,
			"0.017": 0.0,
			"0.018": 0.0,
			"0.019": 0.0,
			"0.02": 0.0,
			"0.021": 0.0,
			"0.022": 0.0,
			"0.023": 0.0,
			"0.024": 0.0,
			"0.025": 0.0
		}
	}
}
