{
	 "smiles": "CC(C)C1=CC(C(C)C)=C(C(=C1)C(C)C)S(=O)(=O)N=[N+]=[N-]", 
	 "Tm": 315.15, 
	 "num_atms": 44, 
	 "gaussian": { 
		 "optdone": 1, 
		 "sigma_profile": "yes", 
		 "theory": "DFT", 
		 "functional": "B3LYP", 
		 "basiset": "6-31G**", 
		 "properties": { 
			 "R2extent": 7180.2515, 
			 "electric_dipole_moment_norm": 4.95670296266, 
			 "electric_quadrupole_moment_norm": 9.37823160409, 
			 "total_energy": -1298.23036296, 
			 "HOMO_LUMO_gap": 0.18196, 
			 "cosmo_polarized_energy": -9.57, 
			 "cosmo_cavitation_energy": 46.34, 
			 "cosmo_dispersion_energy": -30.17, 
			 "cosmo_repulsion_energy": 2.35, 
			 "cosmo_total_nonelectrostatic_energy": 18.52, 
			 "SMD_solvation_energy": 6.3 
		},
		"coords": [
			{
				"x": 1.1470687026,
				"y": 0.9230919554,
				"z": 4.0536862483,
				"element": "C" 
			},
			{
				"x": 0.6397379463,
				"y": 1.871856335,
				"z": 2.9508071986,
				"element": "C" 
			},
			{
				"x": 1.7132825056,
				"y": 2.9101335487,
				"z": 2.5730369773,
				"element": "C" 
			},
			{
				"x": 0.1450597857,
				"y": 1.1049156161,
				"z": 1.732964284,
				"element": "C" 
			},
			{
				"x": 1.0035047086,
				"y": 0.3070230036,
				"z": 0.9760185282,
				"element": "C" 
			},
			{
				"x": 0.5815202299,
				"y": -0.3963729592,
				"z": -0.1546996601,
				"element": "C" 
			},
			{
				"x": 1.6415150144,
				"y": -1.2394508981,
				"z": -0.8761151291,
				"element": "C" 
			},
			{
				"x": 2.6769865421,
				"y": -0.3335735045,
				"z": -1.5704678896,
				"element": "C" 
			},
			{
				"x": 2.3131552832,
				"y": -2.2439968569,
				"z": 0.0802971129,
				"element": "C" 
			},
			{
				"x": -0.7830465458,
				"y": -0.2686876049,
				"z": -0.5310128591,
				"element": "C" 
			},
			{
				"x": -1.7073119995,
				"y": 0.4957238481,
				"z": 0.2307896347,
				"element": "C" 
			},
			{
				"x": -1.1918071989,
				"y": 1.1704363171,
				"z": 1.3456478548,
				"element": "C" 
			},
			{
				"x": -3.1983203215,
				"y": 0.6849296,
				"z": -0.0778716204,
				"element": "C" 
			},
			{
				"x": -3.4053517971,
				"y": 1.8937318161,
				"z": -1.0146053635,
				"element": "C" 
			},
			{
				"x": -4.0711842505,
				"y": 0.8276097951,
				"z": 1.1831707309,
				"element": "C" 
			},
			{
				"x": -1.2752333761,
				"y": -1.071208515,
				"z": -2.0775843339,
				"element": "S" 
			},
			{
				"x": -2.7007957705,
				"y": -0.9272180033,
				"z": -2.3779512016,
				"element": "O" 
			},
			{
				"x": -0.2908905046,
				"y": -0.7680894801,
				"z": -3.1115314651,
				"element": "O" 
			},
			{
				"x": -1.0142798057,
				"y": -2.788076344,
				"z": -1.65818237,
				"element": "N" 
			},
			{
				"x": -2.0626218108,
				"y": -3.4538258324,
				"z": -1.7002091937,
				"element": "N" 
			},
			{
				"x": -2.968682333,
				"y": -4.1410291548,
				"z": -1.7148089859,
				"element": "N" 
			},
			{
				"x": 1.4406790924,
				"y": 1.4915809116,
				"z": 4.9424733886,
				"element": "H" 
			},
			{
				"x": 0.374700981,
				"y": 0.2057863915,
				"z": 4.3477381867,
				"element": "H" 
			},
			{
				"x": 2.021719309,
				"y": 0.3546667262,
				"z": 3.7193479377,
				"element": "H" 
			},
			{
				"x": -0.2209404958,
				"y": 2.4191902719,
				"z": 3.3563784408,
				"element": "H" 
			},
			{
				"x": 1.3443397408,
				"y": 3.6053486546,
				"z": 1.8127905195,
				"element": "H" 
			},
			{
				"x": 2.6131799331,
				"y": 2.4276632617,
				"z": 2.1764848393,
				"element": "H" 
			},
			{
				"x": 2.0090965211,
				"y": 3.4917354189,
				"z": 3.4525387977,
				"element": "H" 
			},
			{
				"x": 2.0452040285,
				"y": 0.226216538,
				"z": 1.2688867438,
				"element": "H" 
			},
			{
				"x": 1.1747832571,
				"y": -1.8313938101,
				"z": -1.6587964356,
				"element": "H" 
			},
			{
				"x": 3.4169891119,
				"y": -0.945477166,
				"z": -2.0969951676,
				"element": "H" 
			},
			{
				"x": 2.192186352,
				"y": 0.316844038,
				"z": -2.3029782414,
				"element": "H" 
			},
			{
				"x": 3.2128556111,
				"y": 0.2951649912,
				"z": -0.8508647511,
				"element": "H" 
			},
			{
				"x": 3.0021507015,
				"y": -2.8814660541,
				"z": -0.4834683502,
				"element": "H" 
			},
			{
				"x": 2.8934713054,
				"y": -1.7523021371,
				"z": 0.8677567542,
				"element": "H" 
			},
			{
				"x": 1.5709464809,
				"y": -2.8900514585,
				"z": 0.5586391444,
				"element": "H" 
			},
			{
				"x": -1.868143016,
				"y": 1.7753104489,
				"z": 1.9390950846,
				"element": "H" 
			},
			{
				"x": -3.5559322626,
				"y": -0.1969702735,
				"z": -0.6042028697,
				"element": "H" 
			},
			{
				"x": -2.8714770084,
				"y": 1.7652336988,
				"z": -1.9591008755,
				"element": "H" 
			},
			{
				"x": -3.0538955131,
				"y": 2.8181640814,
				"z": -0.5422770492,
				"element": "H" 
			},
			{
				"x": -4.4689722911,
				"y": 2.0137035055,
				"z": -1.2458895828,
				"element": "H" 
			},
			{
				"x": -3.9345877246,
				"y": 1.7883127653,
				"z": 1.6907102295,
				"element": "H" 
			},
			{
				"x": -5.1252211465,
				"y": 0.769564166,
				"z": 0.8937498579,
				"element": "H" 
			},
			{
				"x": -3.877037972,
				"y": 0.0293523479,
				"z": 1.9065049008,
				"element": "H" 
			}
		],
		 "valence_orbital": [ 
			{
				"type": "occ",
				"energy": -0.31105,
				"method": "rhf"
			},
			{
				"type": "occ",
				"energy": -0.30149,
				"method": "rhf"
			},
			{
				"type": "occ",
				"energy": -0.29392,
				"method": "rhf"
			},
			{
				"type": "occ",
				"energy": -0.26014,
				"method": "rhf"
			},
			{
				"type": "occ",
				"energy": -0.25394,
				"method": "rhf"
			},
			{
				"type": "unocc",
				"energy": -0.07198,
				"method": "rhf"
			},
			{
				"type": "unocc",
				"energy": -0.04011,
				"method": "rhf"
			},
			{
				"type": "unocc",
				"energy": -0.02012,
				"method": "rhf"
			},
			{
				"type": "unocc",
				"energy": -0.00688,
				"method": "rhf"
			},
			{
				"type": "unocc",
				"energy": 0.05295,
				"method": "rhf"
			}
		],
		"cosmo_sigma_profile": { 
			"-0.025": 0.0,
			"-0.024": 0.0,
			"-0.023": 0.0,
			"-0.022": 0.0,
			"-0.021": 0.0,
			"-0.02": 0.0,
			"-0.019": 0.0,
			"-0.018": 0.0,
			"-0.017": 0.0,
			"-0.016": 0.0,
			"-0.015": 0.0,
			"-0.014": 0.0,
			"-0.013": 0.0,
			"-0.012": 0.0,
			"-0.011": 0.0,
			"-0.01": 0.0384736810094,
			"-0.009": 0.410850108154,
			"-0.008": 1.08303435149,
			"-0.007": 2.18627619765,
			"-0.006": 7.9850806935,
			"-0.005": 13.2515749598,
			"-0.004": 16.9834311595,
			"-0.003": 38.4200390865,
			"-0.002": 44.4000187566,
			"-0.001": 48.473007641,
			"0.0": 45.876056802,
			"0.001": 54.3755622895,
			"0.002": 24.7373518105,
			"0.003": 18.8329149757,
			"0.004": 10.9382054972,
			"0.005": 9.4025797322,
			"0.006": 6.79318752356,
			"0.007": 4.30228230921,
			"0.008": 4.09866437199,
			"0.009": 5.85574130993,
			"0.01": 5.0601973414,
			"0.011": 0.317618561794,
			"0.012": 0.0,
			"0.013": 0.0,
			"0.014": 0.0,
			"0.015": 0.0,
			"0.016": 0.0,
			"0.017": 0.0,
			"0.018": 0.0,
			"0.019": 0.0,
			"0.02": 0.0,
			"0.021": 0.0,
			"0.022": 0.0,
			"0.023": 0.0,
			"0.024": 0.0,
			"0.025": 0.0
		}
	}
}
