{
	 "smiles": "CCNC(=O)C=C/C(O)=O", 
	 "Tm": 398.15, 
	 "num_atms": 19, 
	 "gaussian": { 
		 "optdone": 1, 
		 "sigma_profile": "yes", 
		 "theory": "DFT", 
		 "functional": "B3LYP", 
		 "basiset": "6-31G**", 
		 "properties": { 
			 "R2extent": 2723.6107, 
			 "electric_dipole_moment_norm": 8.4624684868, 
			 "electric_quadrupole_moment_norm": 23.663333872, 
			 "total_energy": -514.500945842, 
			 "HOMO_LUMO_gap": 0.17384, 
			 "cosmo_polarized_energy": -19.48, 
			 "cosmo_cavitation_energy": 23.43, 
			 "cosmo_dispersion_energy": -17.24, 
			 "cosmo_repulsion_energy": 1.42, 
			 "cosmo_total_nonelectrostatic_energy": 7.62, 
			 "SMD_solvation_energy": 5.69 
		},
		"coords": [
			{
				"x": -0.5939939495,
				"y": -1.8149876938,
				"z": 1.7878051101,
				"element": "C" 
			},
			{
				"x": -0.9344682529,
				"y": -0.4222700403,
				"z": 1.2504085613,
				"element": "C" 
			},
			{
				"x": 0.2469568521,
				"y": 0.4078950753,
				"z": 1.0243769332,
				"element": "N" 
			},
			{
				"x": 0.8827451704,
				"y": 0.4671317124,
				"z": -0.1721267136,
				"element": "C" 
			},
			{
				"x": 0.4522244275,
				"y": -0.1584458616,
				"z": -1.1571014795,
				"element": "O" 
			},
			{
				"x": 2.0914183982,
				"y": 1.3319249071,
				"z": -0.1895984431,
				"element": "C" 
			},
			{
				"x": 2.9207660157,
				"y": 1.5917592688,
				"z": -1.2166691479,
				"element": "C" 
			},
			{
				"x": 2.9609941202,
				"y": 1.1453692369,
				"z": -2.6595615422,
				"element": "C" 
			},
			{
				"x": 2.0252980561,
				"y": 0.3319978983,
				"z": -3.1300002422,
				"element": "O" 
			},
			{
				"x": 3.873379634,
				"y": 1.5616167567,
				"z": -3.3486736655,
				"element": "O" 
			},
			{
				"x": -0.0616578952,
				"y": -1.7566092972,
				"z": 2.7430098192,
				"element": "H" 
			},
			{
				"x": -1.5109682747,
				"y": -2.3912990528,
				"z": 1.9465299654,
				"element": "H" 
			},
			{
				"x": 0.0325471438,
				"y": -2.3572747208,
				"z": 1.0746161351,
				"element": "H" 
			},
			{
				"x": -1.4512469334,
				"y": -0.500931152,
				"z": 0.2919369925,
				"element": "H" 
			},
			{
				"x": -1.5900941521,
				"y": 0.1131527521,
				"z": 1.944983341,
				"element": "H" 
			},
			{
				"x": 0.6595717953,
				"y": 0.8815433072,
				"z": 1.8143119753,
				"element": "H" 
			},
			{
				"x": 2.3268900238,
				"y": 1.814083722,
				"z": 0.7581171384,
				"element": "H" 
			},
			{
				"x": 3.75590353,
				"y": 2.2573604443,
				"z": -1.0173267002,
				"element": "H" 
			},
			{
				"x": 1.358534291,
				"y": 0.0909827375,
				"z": -2.4236380374,
				"element": "H" 
			}
		],
		 "valence_orbital": [ 
			{
				"type": "occ",
				"energy": -0.30834,
				"method": "rhf"
			},
			{
				"type": "occ",
				"energy": -0.28922,
				"method": "rhf"
			},
			{
				"type": "occ",
				"energy": -0.28483,
				"method": "rhf"
			},
			{
				"type": "occ",
				"energy": -0.2842,
				"method": "rhf"
			},
			{
				"type": "occ",
				"energy": -0.25649,
				"method": "rhf"
			},
			{
				"type": "unocc",
				"energy": -0.08265,
				"method": "rhf"
			},
			{
				"type": "unocc",
				"energy": 0.0312,
				"method": "rhf"
			},
			{
				"type": "unocc",
				"energy": 0.04382,
				"method": "rhf"
			},
			{
				"type": "unocc",
				"energy": 0.09117,
				"method": "rhf"
			},
			{
				"type": "unocc",
				"energy": 0.10547,
				"method": "rhf"
			}
		],
		"cosmo_sigma_profile": { 
			"-0.025": 0.0,
			"-0.024": 0.0,
			"-0.023": 0.0,
			"-0.022": 0.0,
			"-0.021": 0.0,
			"-0.02": 0.0,
			"-0.019": 0.0,
			"-0.018": 0.0,
			"-0.017": 0.0,
			"-0.016": 1.02667976168,
			"-0.015": 1.67183274647,
			"-0.014": 2.02592265042,
			"-0.013": 1.53214300336,
			"-0.012": 0.950806616374,
			"-0.011": 1.7777827171,
			"-0.01": 1.90133451623,
			"-0.009": 2.22827400333,
			"-0.008": 3.71194767961,
			"-0.007": 4.70602912857,
			"-0.006": 4.97071998934,
			"-0.005": 8.09552580654,
			"-0.004": 13.6287365771,
			"-0.003": 17.9210480902,
			"-0.002": 18.9910442123,
			"-0.001": 17.3235799249,
			"0.0": 17.7280702854,
			"0.001": 11.2525734355,
			"0.002": 4.73708446085,
			"0.003": 3.79866725051,
			"0.004": 3.33227352815,
			"0.005": 3.70576079201,
			"0.006": 3.3779507114,
			"0.007": 3.8817373349,
			"0.008": 3.54484360929,
			"0.009": 3.68749976473,
			"0.01": 5.25596263281,
			"0.011": 5.4182605546,
			"0.012": 7.43388352966,
			"0.013": 4.39791535337,
			"0.014": 1.55990622198,
			"0.015": 0.0402382112222,
			"0.016": 0.0,
			"0.017": 0.0,
			"0.018": 0.0,
			"0.019": 0.0,
			"0.02": 0.0,
			"0.021": 0.0,
			"0.022": 0.0,
			"0.023": 0.0,
			"0.024": 0.0,
			"0.025": 0.0
		}
	}
}
