{
	 "smiles": "CC1=C(Br)C(Br)=C(Br)C(Br)=C1Br", 
	 "Tm": 561.15, 
	 "num_atms": 15, 
	 "gaussian": { 
		 "optdone": 1, 
		 "sigma_profile": "yes", 
		 "theory": "DFT", 
		 "functional": "B3LYP", 
		 "basiset": "6-31G**", 
		 "properties": { 
			 "R2extent": 13486.0822, 
			 "electric_dipole_moment_norm": 1.40449035241, 
			 "electric_quadrupole_moment_norm": 2.30491750395, 
			 "total_energy": -13125.5505133, 
			 "HOMO_LUMO_gap": 0.18314, 
			 "cosmo_polarized_energy": -3.49, 
			 "cosmo_cavitation_energy": 29.29, 
			 "cosmo_dispersion_energy": -23.69, 
			 "cosmo_repulsion_energy": 1.84, 
			 "cosmo_total_nonelectrostatic_energy": 7.44, 
			 "SMD_solvation_energy": 0.18 
		},
		"coords": [
			{
				"x": 0.4492291672,
				"y": -0.2945331447,
				"z": -1.0438106678,
				"element": "C" 
			},
			{
				"x": 0.6738942227,
				"y": -0.930916905,
				"z": 0.3051046615,
				"element": "C" 
			},
			{
				"x": 1.8481706491,
				"y": -1.6505105048,
				"z": 0.5901603007,
				"element": "C" 
			},
			{
				"x": 3.1493590545,
				"y": -1.8608180333,
				"z": -0.788605081,
				"element": "Br" 
			},
			{
				"x": 2.0777877615,
				"y": -2.2311819753,
				"z": 1.8465405402,
				"element": "C" 
			},
			{
				"x": 3.6828912521,
				"y": -3.1791692679,
				"z": 2.1861652714,
				"element": "Br" 
			},
			{
				"x": 1.1091242293,
				"y": -2.1058828897,
				"z": 2.8550022205,
				"element": "C" 
			},
			{
				"x": 1.4079108813,
				"y": -2.8728535252,
				"z": 4.5620939636,
				"element": "Br" 
			},
			{
				"x": -0.0842791101,
				"y": -1.4148935458,
				"z": 2.5916909559,
				"element": "C" 
			},
			{
				"x": -1.4063631664,
				"y": -1.2580926765,
				"z": 3.940111632,
				"element": "Br" 
			},
			{
				"x": -0.2887295674,
				"y": -0.8434977716,
				"z": 1.3267403371,
				"element": "C" 
			},
			{
				"x": -1.929743754,
				"y": 0.0578374864,
				"z": 0.9624545523,
				"element": "Br" 
			},
			{
				"x": -0.1847374042,
				"y": 0.586850223,
				"z": -0.9577097913,
				"element": "H" 
			},
			{
				"x": -0.0500698687,
				"y": -0.9965781601,
				"z": -1.7226117856,
				"element": "H" 
			},
			{
				"x": 1.3951556532,
				"y": -0.0099593095,
				"z": -1.5025271094,
				"element": "H" 
			}
		],
		 "valence_orbital": [ 
			{
				"type": "occ",
				"energy": -0.29838,
				"method": "rhf"
			},
			{
				"type": "occ",
				"energy": -0.28785,
				"method": "rhf"
			},
			{
				"type": "occ",
				"energy": -0.26314,
				"method": "rhf"
			},
			{
				"type": "occ",
				"energy": -0.25483,
				"method": "rhf"
			},
			{
				"type": "occ",
				"energy": -0.25157,
				"method": "rhf"
			},
			{
				"type": "unocc",
				"energy": -0.06843,
				"method": "rhf"
			},
			{
				"type": "unocc",
				"energy": -0.04955,
				"method": "rhf"
			},
			{
				"type": "unocc",
				"energy": -0.04689,
				"method": "rhf"
			},
			{
				"type": "unocc",
				"energy": -0.01536,
				"method": "rhf"
			},
			{
				"type": "unocc",
				"energy": 0.0017,
				"method": "rhf"
			}
		],
		"cosmo_sigma_profile": { 
			"-0.025": 0.0,
			"-0.024": 0.0,
			"-0.023": 0.0,
			"-0.022": 0.0,
			"-0.021": 0.0,
			"-0.02": 0.0,
			"-0.019": 0.0,
			"-0.018": 0.0,
			"-0.017": 0.0,
			"-0.016": 0.0,
			"-0.015": 0.0,
			"-0.014": 0.0,
			"-0.013": 0.0,
			"-0.012": 0.0,
			"-0.011": 0.0,
			"-0.01": 0.0,
			"-0.009": 0.0,
			"-0.008": 0.0,
			"-0.007": 0.36212867673,
			"-0.006": 5.36095357627,
			"-0.005": 10.2144256325,
			"-0.004": 13.2728507671,
			"-0.003": 15.7853930156,
			"-0.002": 32.1544329235,
			"-0.001": 39.028587879,
			"0.0": 22.2477825836,
			"0.001": 22.2924416301,
			"0.002": 25.8839606919,
			"0.003": 38.6702072468,
			"0.004": 24.249557179,
			"0.005": 1.31404435585,
			"0.006": 0.0,
			"0.007": 0.0,
			"0.008": 0.0,
			"0.009": 0.0,
			"0.01": 0.0,
			"0.011": 0.0,
			"0.012": 0.0,
			"0.013": 0.0,
			"0.014": 0.0,
			"0.015": 0.0,
			"0.016": 0.0,
			"0.017": 0.0,
			"0.018": 0.0,
			"0.019": 0.0,
			"0.02": 0.0,
			"0.021": 0.0,
			"0.022": 0.0,
			"0.023": 0.0,
			"0.024": 0.0,
			"0.025": 0.0
		}
	}
}
