{
	 "smiles": "CC1(C)OC(=O)NC1=O", 
	 "Tm": 350.95, 
	 "num_atms": 16, 
	 "gaussian": { 
		 "optdone": 1, 
		 "sigma_profile": "yes", 
		 "theory": "DFT", 
		 "functional": "B3LYP", 
		 "basiset": "6-31G**", 
		 "properties": { 
			 "R2extent": 1765.6878, 
			 "electric_dipole_moment_norm": 1.96572160033, 
			 "electric_quadrupole_moment_norm": 14.7824708949, 
			 "total_energy": -475.216051835, 
			 "HOMO_LUMO_gap": 0.25293, 
			 "cosmo_polarized_energy": -13.27, 
			 "cosmo_cavitation_energy": 20.19, 
			 "cosmo_dispersion_energy": -14.66, 
			 "cosmo_repulsion_energy": 1.22, 
			 "cosmo_total_nonelectrostatic_energy": 6.76, 
			 "SMD_solvation_energy": 5.77 
		},
		"coords": [
			{
				"x": -0.6690974365,
				"y": -0.871406104,
				"z": -0.4563784214,
				"element": "C" 
			},
			{
				"x": -0.0617373954,
				"y": -0.5262139631,
				"z": 0.9018339637,
				"element": "C" 
			},
			{
				"x": 1.4656177196,
				"y": -0.5405960881,
				"z": 0.895230469,
				"element": "C" 
			},
			{
				"x": -0.5397369389,
				"y": -1.4855777996,
				"z": 1.8913449691,
				"element": "O" 
			},
			{
				"x": -1.2526434053,
				"y": -0.867830214,
				"z": 2.8669345103,
				"element": "C" 
			},
			{
				"x": -1.7620568827,
				"y": -1.4162926221,
				"z": 3.8064358619,
				"element": "O" 
			},
			{
				"x": -1.2797195159,
				"y": 0.5010454702,
				"z": 2.5739548793,
				"element": "N" 
			},
			{
				"x": -0.5967341776,
				"y": 0.8177406733,
				"z": 1.4184705477,
				"element": "C" 
			},
			{
				"x": -0.4484419296,
				"y": 1.9106965942,
				"z": 0.9178664953,
				"element": "O" 
			},
			{
				"x": -1.7603042577,
				"y": -0.9073471739,
				"z": -0.3968042383,
				"element": "H" 
			},
			{
				"x": -0.384179917,
				"y": -0.1108475982,
				"z": -1.1877702489,
				"element": "H" 
			},
			{
				"x": -0.306101388,
				"y": -1.8463211921,
				"z": -0.7920506032,
				"element": "H" 
			},
			{
				"x": 1.829559063,
				"y": -1.5152967454,
				"z": 0.5599760163,
				"element": "H" 
			},
			{
				"x": 1.8349571906,
				"y": 0.2332512067,
				"z": 0.2175270621,
				"element": "H" 
			},
			{
				"x": 1.8609040924,
				"y": -0.3462436894,
				"z": 1.8960000502,
				"element": "H" 
			},
			{
				"x": -1.756484821,
				"y": 1.1671392454,
				"z": 3.165428687,
				"element": "H" 
			}
		],
		 "valence_orbital": [ 
			{
				"type": "occ",
				"energy": -0.3846,
				"method": "rhf"
			},
			{
				"type": "occ",
				"energy": -0.31317,
				"method": "rhf"
			},
			{
				"type": "occ",
				"energy": -0.30831,
				"method": "rhf"
			},
			{
				"type": "occ",
				"energy": -0.30498,
				"method": "rhf"
			},
			{
				"type": "occ",
				"energy": -0.27508,
				"method": "rhf"
			},
			{
				"type": "unocc",
				"energy": -0.02215,
				"method": "rhf"
			},
			{
				"type": "unocc",
				"energy": 0.04485,
				"method": "rhf"
			},
			{
				"type": "unocc",
				"energy": 0.06876,
				"method": "rhf"
			},
			{
				"type": "unocc",
				"energy": 0.08429,
				"method": "rhf"
			},
			{
				"type": "unocc",
				"energy": 0.10267,
				"method": "rhf"
			}
		],
		"cosmo_sigma_profile": { 
			"-0.025": 0.0,
			"-0.024": 0.0,
			"-0.023": 0.0,
			"-0.022": 0.0,
			"-0.021": 0.0,
			"-0.02": 0.0,
			"-0.019": 0.0,
			"-0.018": 0.19415461225,
			"-0.017": 1.52729515865,
			"-0.016": 1.31997456693,
			"-0.015": 1.15972167492,
			"-0.014": 0.547454593062,
			"-0.013": 1.14716264299,
			"-0.012": 0.970975417019,
			"-0.011": 0.597703247092,
			"-0.01": 0.846058093494,
			"-0.009": 1.2636948578,
			"-0.008": 2.83017986702,
			"-0.007": 3.59053700215,
			"-0.006": 7.19689660475,
			"-0.005": 15.3423987093,
			"-0.004": 13.5205334708,
			"-0.003": 15.6879411906,
			"-0.002": 14.2254585532,
			"-0.001": 13.190285834,
			"0.0": 5.59959842838,
			"0.001": 4.70154502389,
			"0.002": 3.64770862813,
			"0.003": 2.81981816792,
			"0.004": 4.17518698487,
			"0.005": 3.47959063743,
			"0.006": 2.97844867915,
			"0.007": 3.84951783226,
			"0.008": 4.71021240495,
			"0.009": 4.90753184926,
			"0.01": 5.9751506444,
			"0.011": 11.2425079934,
			"0.012": 5.87214886409,
			"0.013": 0.167583032799,
			"0.014": 0.0,
			"0.015": 0.0,
			"0.016": 0.0,
			"0.017": 0.0,
			"0.018": 0.0,
			"0.019": 0.0,
			"0.02": 0.0,
			"0.021": 0.0,
			"0.022": 0.0,
			"0.023": 0.0,
			"0.024": 0.0,
			"0.025": 0.0
		}
	}
}
