{
	 "smiles": "OC(C(O)=O)C1=C(F)C=C(F)C=C1", 
	 "Tm": 396.15, 
	 "num_atms": 19, 
	 "gaussian": { 
		 "optdone": 1, 
		 "sigma_profile": "yes", 
		 "theory": "DFT", 
		 "functional": "B3LYP", 
		 "basiset": "6-31G**", 
		 "properties": { 
			 "R2extent": 2798.8603, 
			 "electric_dipole_moment_norm": 2.81605683359, 
			 "electric_quadrupole_moment_norm": 13.3504408961, 
			 "total_energy": -733.806120644, 
			 "HOMO_LUMO_gap": 0.22856, 
			 "cosmo_polarized_energy": -12.28, 
			 "cosmo_cavitation_energy": 24.87, 
			 "cosmo_dispersion_energy": -17.93, 
			 "cosmo_repulsion_energy": 1.39, 
			 "cosmo_total_nonelectrostatic_energy": 8.33, 
			 "SMD_solvation_energy": 6.45 
		},
		"coords": [
			{
				"x": -1.5898700494,
				"y": -2.1191508576,
				"z": -0.6656110705,
				"element": "O" 
			},
			{
				"x": -0.4229158935,
				"y": -1.8750900766,
				"z": 0.0923284687,
				"element": "C" 
			},
			{
				"x": -0.3753467209,
				"y": -2.7137267753,
				"z": 1.3820205068,
				"element": "C" 
			},
			{
				"x": -1.0964994772,
				"y": -3.8567141857,
				"z": 1.2364866418,
				"element": "O" 
			},
			{
				"x": 0.2512383962,
				"y": -2.4520813709,
				"z": 2.3783655122,
				"element": "O" 
			},
			{
				"x": -0.3208212065,
				"y": -0.3973312297,
				"z": 0.4012421814,
				"element": "C" 
			},
			{
				"x": 0.9183972441,
				"y": 0.1800308756,
				"z": 0.6786155002,
				"element": "C" 
			},
			{
				"x": 2.0200183941,
				"y": -0.598358232,
				"z": 0.6370360432,
				"element": "F" 
			},
			{
				"x": 1.07217596,
				"y": 1.5270930782,
				"z": 0.9774220963,
				"element": "C" 
			},
			{
				"x": -0.0751889966,
				"y": 2.3125142402,
				"z": 0.9940595177,
				"element": "C" 
			},
			{
				"x": 0.0467392958,
				"y": 3.6230082741,
				"z": 1.2815322058,
				"element": "F" 
			},
			{
				"x": -1.3347515535,
				"y": 1.7917743457,
				"z": 0.7190205387,
				"element": "C" 
			},
			{
				"x": -1.4447207515,
				"y": 0.4329660808,
				"z": 0.423624681,
				"element": "C" 
			},
			{
				"x": -1.8008903731,
				"y": -3.0587538581,
				"z": -0.5827302511,
				"element": "H" 
			},
			{
				"x": 0.48212053,
				"y": -2.1769509807,
				"z": -0.4629403423,
				"element": "H" 
			},
			{
				"x": -0.997671165,
				"y": -4.359462248,
				"z": 2.0623064146,
				"element": "H" 
			},
			{
				"x": 2.0484605973,
				"y": 1.9458547117,
				"z": 1.1876960858,
				"element": "H" 
			},
			{
				"x": -2.2008424741,
				"y": 2.4433473211,
				"z": 0.7356754626,
				"element": "H" 
			},
			{
				"x": -2.4099317562,
				"y": -0.0007691127,
				"z": 0.1894498071,
				"element": "H" 
			}
		],
		 "valence_orbital": [ 
			{
				"type": "occ",
				"energy": -0.33921,
				"method": "rhf"
			},
			{
				"type": "occ",
				"energy": -0.30855,
				"method": "rhf"
			},
			{
				"type": "occ",
				"energy": -0.27705,
				"method": "rhf"
			},
			{
				"type": "occ",
				"energy": -0.25923,
				"method": "rhf"
			},
			{
				"type": "occ",
				"energy": -0.24359,
				"method": "rhf"
			},
			{
				"type": "unocc",
				"energy": -0.01503,
				"method": "rhf"
			},
			{
				"type": "unocc",
				"energy": -0.00948,
				"method": "rhf"
			},
			{
				"type": "unocc",
				"energy": 0.00023,
				"method": "rhf"
			},
			{
				"type": "unocc",
				"energy": 0.05433,
				"method": "rhf"
			},
			{
				"type": "unocc",
				"energy": 0.08346,
				"method": "rhf"
			}
		],
		"cosmo_sigma_profile": { 
			"-0.025": 0.0,
			"-0.024": 0.0,
			"-0.023": 0.0,
			"-0.022": 0.0,
			"-0.021": 0.0,
			"-0.02": 0.0,
			"-0.019": 0.703088451124,
			"-0.018": 1.07385670762,
			"-0.017": 0.935701294382,
			"-0.016": 0.712474697403,
			"-0.015": 0.734079381873,
			"-0.014": 1.09373990749,
			"-0.013": 1.34379117228,
			"-0.012": 1.11777904692,
			"-0.011": 1.71090103142,
			"-0.01": 1.02022317215,
			"-0.009": 2.4659016605,
			"-0.008": 5.75638498988,
			"-0.007": 6.987237056,
			"-0.006": 8.20274922922,
			"-0.005": 8.46245197325,
			"-0.004": 8.19072429004,
			"-0.003": 9.04094511442,
			"-0.002": 8.90106631309,
			"-0.001": 10.1881070926,
			"0.0": 16.0750026601,
			"0.001": 18.0095288434,
			"0.002": 16.2576910978,
			"0.003": 18.6413010438,
			"0.004": 20.8021121045,
			"0.005": 4.92066296516,
			"0.006": 3.50467006232,
			"0.007": 3.78561479958,
			"0.008": 3.21981848555,
			"0.009": 3.90383071888,
			"0.01": 4.66276859101,
			"0.011": 5.19150084976,
			"0.012": 0.886505537901,
			"0.013": 0.35689674143,
			"0.014": 0.0,
			"0.015": 0.0,
			"0.016": 0.0,
			"0.017": 0.0,
			"0.018": 0.0,
			"0.019": 0.0,
			"0.02": 0.0,
			"0.021": 0.0,
			"0.022": 0.0,
			"0.023": 0.0,
			"0.024": 0.0,
			"0.025": 0.0
		}
	}
}
