{
	 "smiles": "COC(=O)NC1CCC(O)CC1", 
	 "Tm": 413.15, 
	 "num_atms": 27, 
	 "gaussian": { 
		 "optdone": 1, 
		 "sigma_profile": "yes", 
		 "theory": "DFT", 
		 "functional": "B3LYP", 
		 "basiset": "6-31G**", 
		 "properties": { 
			 "R2extent": 2974.3725, 
			 "electric_dipole_moment_norm": 3.66556439856, 
			 "electric_quadrupole_moment_norm": 9.86139943112, 
			 "total_energy": -594.338107446, 
			 "HOMO_LUMO_gap": 0.28647, 
			 "cosmo_polarized_energy": -12.24, 
			 "cosmo_cavitation_energy": 28.0, 
			 "cosmo_dispersion_energy": -20.63, 
			 "cosmo_repulsion_energy": 1.67, 
			 "cosmo_total_nonelectrostatic_energy": 9.04, 
			 "SMD_solvation_energy": 5.46 
		},
		"coords": [
			{
				"x": -1.0768016857,
				"y": 0.2073096173,
				"z": 4.6830036264,
				"element": "C" 
			},
			{
				"x": -1.2132946648,
				"y": -0.2559647628,
				"z": 3.3367555678,
				"element": "O" 
			},
			{
				"x": -0.0399772019,
				"y": -0.6287966814,
				"z": 2.7449548493,
				"element": "C" 
			},
			{
				"x": 1.0470488129,
				"y": -0.5724806981,
				"z": 3.2988013812,
				"element": "O" 
			},
			{
				"x": -0.2770863883,
				"y": -1.0795789719,
				"z": 1.4852622811,
				"element": "N" 
			},
			{
				"x": 0.8163760714,
				"y": -1.4144763114,
				"z": 0.5763376381,
				"element": "C" 
			},
			{
				"x": 0.4489024932,
				"y": -2.6411870507,
				"z": -0.3030479246,
				"element": "C" 
			},
			{
				"x": -0.0528149294,
				"y": -2.2607035723,
				"z": -1.7165552487,
				"element": "C" 
			},
			{
				"x": -0.8348471914,
				"y": -0.9431326373,
				"z": -1.7247390482,
				"element": "C" 
			},
			{
				"x": -1.9742121751,
				"y": -1.0099276974,
				"z": -0.8430978091,
				"element": "O" 
			},
			{
				"x": 0.0461409416,
				"y": 0.2256693017,
				"z": -1.2372452615,
				"element": "C" 
			},
			{
				"x": 1.2037595796,
				"y": -0.2208963401,
				"z": -0.3166153597,
				"element": "C" 
			},
			{
				"x": -0.414134773,
				"y": 1.0755773943,
				"z": 4.7350762148,
				"element": "H" 
			},
			{
				"x": -2.0833782117,
				"y": 0.4797389238,
				"z": 5.0035560069,
				"element": "H" 
			},
			{
				"x": -0.6732354292,
				"y": -0.5768746344,
				"z": 5.3297502488,
				"element": "H" 
			},
			{
				"x": -1.1991742644,
				"y": -0.9598118936,
				"z": 1.0815265838,
				"element": "H" 
			},
			{
				"x": 1.661097567,
				"y": -1.6634464393,
				"z": 1.2221817736,
				"element": "H" 
			},
			{
				"x": 1.3268860111,
				"y": -3.2878211064,
				"z": -0.405655706,
				"element": "H" 
			},
			{
				"x": -0.3063317405,
				"y": -3.2295679528,
				"z": 0.2262195909,
				"element": "H" 
			},
			{
				"x": -0.6661885579,
				"y": -3.0712499497,
				"z": -2.1317717125,
				"element": "H" 
			},
			{
				"x": 0.7958385928,
				"y": -2.1471391763,
				"z": -2.4032348457,
				"element": "H" 
			},
			{
				"x": -1.1943607976,
				"y": -0.7313843264,
				"z": -2.7422011697,
				"element": "H" 
			},
			{
				"x": -2.5076242587,
				"y": -1.7741938981,
				"z": -1.0996136337,
				"element": "H" 
			},
			{
				"x": -0.6094460998,
				"y": 0.9350610773,
				"z": -0.7226627784,
				"element": "H" 
			},
			{
				"x": 0.4560179262,
				"y": 0.753347315,
				"z": -2.1050914804,
				"element": "H" 
			},
			{
				"x": 1.5361845514,
				"y": 0.6133377655,
				"z": 0.3088713431,
				"element": "H" 
			},
			{
				"x": 2.0678558224,
				"y": -0.5195072945,
				"z": -0.9248651277,
				"element": "H" 
			}
		],
		 "valence_orbital": [ 
			{
				"type": "occ",
				"energy": -0.30933,
				"method": "rhf"
			},
			{
				"type": "occ",
				"energy": -0.28029,
				"method": "rhf"
			},
			{
				"type": "occ",
				"energy": -0.27752,
				"method": "rhf"
			},
			{
				"type": "occ",
				"energy": -0.25428,
				"method": "rhf"
			},
			{
				"type": "occ",
				"energy": -0.23295,
				"method": "rhf"
			},
			{
				"type": "unocc",
				"energy": 0.05352,
				"method": "rhf"
			},
			{
				"type": "unocc",
				"energy": 0.07152,
				"method": "rhf"
			},
			{
				"type": "unocc",
				"energy": 0.09404,
				"method": "rhf"
			},
			{
				"type": "unocc",
				"energy": 0.10962,
				"method": "rhf"
			},
			{
				"type": "unocc",
				"energy": 0.12486,
				"method": "rhf"
			}
		],
		"cosmo_sigma_profile": { 
			"-0.025": 0.0,
			"-0.024": 0.0,
			"-0.023": 0.0,
			"-0.022": 0.0,
			"-0.021": 0.0,
			"-0.02": 0.0,
			"-0.019": 0.0,
			"-0.018": 0.0,
			"-0.017": 0.0,
			"-0.016": 0.0563835450952,
			"-0.015": 0.813746648021,
			"-0.014": 1.27781172698,
			"-0.013": 0.609684335914,
			"-0.012": 0.950752363698,
			"-0.011": 1.01783586102,
			"-0.01": 1.07428900634,
			"-0.009": 1.1326348917,
			"-0.008": 1.18563435631,
			"-0.007": 0.662652885853,
			"-0.006": 3.1643104341,
			"-0.005": 6.92824366353,
			"-0.004": 12.5232007616,
			"-0.003": 37.8770351763,
			"-0.002": 30.6381481245,
			"-0.001": 25.0188686899,
			"0.0": 25.6882956796,
			"0.001": 12.8830182464,
			"0.002": 5.75864251985,
			"0.003": 5.65881789413,
			"0.004": 6.00256573873,
			"0.005": 5.52095459476,
			"0.006": 3.32156986155,
			"0.007": 3.66908173629,
			"0.008": 3.45677959629,
			"0.009": 3.69188625207,
			"0.01": 3.20213020283,
			"0.011": 1.29345019395,
			"0.012": 2.33230309127,
			"0.013": 4.23308175966,
			"0.014": 4.97421733932,
			"0.015": 0.0597249193834,
			"0.016": 0.0,
			"0.017": 0.0,
			"0.018": 0.0,
			"0.019": 0.0,
			"0.02": 0.0,
			"0.021": 0.0,
			"0.022": 0.0,
			"0.023": 0.0,
			"0.024": 0.0,
			"0.025": 0.0
		}
	}
}
