{
	 "smiles": "CC(C)C1=NC(=CN1)S(Cl)(=O)=O", 
	 "Tm": 436.15, 
	 "num_atms": 21, 
	 "gaussian": { 
		 "optdone": 1, 
		 "sigma_profile": "yes", 
		 "theory": "DFT", 
		 "functional": "B3LYP", 
		 "basiset": "6-31G**", 
		 "properties": { 
			 "R2extent": 5741.9751, 
			 "electric_dipole_moment_norm": 8.23223753484, 
			 "electric_quadrupole_moment_norm": 26.7170736272, 
			 "total_energy": -1352.3305732, 
			 "HOMO_LUMO_gap": 0.18924, 
			 "cosmo_polarized_energy": -19.66, 
			 "cosmo_cavitation_energy": 28.68, 
			 "cosmo_dispersion_energy": -20.86, 
			 "cosmo_repulsion_energy": 1.67, 
			 "cosmo_total_nonelectrostatic_energy": 9.49, 
			 "SMD_solvation_energy": 2.28 
		},
		"coords": [
			{
				"x": -2.2409024848,
				"y": 0.8067562122,
				"z": -0.2645580024,
				"element": "C" 
			},
			{
				"x": -0.8984683645,
				"y": 0.1904570284,
				"z": 0.1785905093,
				"element": "C" 
			},
			{
				"x": -0.8299426881,
				"y": -1.3082152723,
				"z": -0.1620875828,
				"element": "C" 
			},
			{
				"x": 0.2532297478,
				"y": 0.9300230505,
				"z": -0.448017356,
				"element": "C" 
			},
			{
				"x": 0.6121043398,
				"y": 0.8731325743,
				"z": -1.71400682,
				"element": "N" 
			},
			{
				"x": 1.6698669177,
				"y": 1.7290995551,
				"z": -1.8192579429,
				"element": "C" 
			},
			{
				"x": 1.9870815634,
				"y": 2.3231706502,
				"z": -0.6204324721,
				"element": "C" 
			},
			{
				"x": 1.063343683,
				"y": 1.8022212933,
				"z": 0.2480062416,
				"element": "N" 
			},
			{
				"x": 2.5096233842,
				"y": 2.0403078466,
				"z": -3.3352743669,
				"element": "S" 
			},
			{
				"x": 3.5640742056,
				"y": 0.2117133124,
				"z": -3.6273750026,
				"element": "Cl" 
			},
			{
				"x": 3.5193297661,
				"y": 3.0608792371,
				"z": -3.0713734112,
				"element": "O" 
			},
			{
				"x": 1.5668616776,
				"y": 2.144436658,
				"z": -4.4379122042,
				"element": "O" 
			},
			{
				"x": -2.3524258273,
				"y": 0.7271139242,
				"z": -1.3497256365,
				"element": "H" 
			},
			{
				"x": -3.0754917627,
				"y": 0.280654674,
				"z": 0.209417374,
				"element": "H" 
			},
			{
				"x": -2.307011302,
				"y": 1.8654302916,
				"z": 0.005716459,
				"element": "H" 
			},
			{
				"x": -0.8081742253,
				"y": 0.3064921835,
				"z": 1.2680160923,
				"element": "H" 
			},
			{
				"x": -0.8661900762,
				"y": -1.4508515292,
				"z": -1.2453570701,
				"element": "H" 
			},
			{
				"x": 0.0960322951,
				"y": -1.7599373752,
				"z": 0.2059665142,
				"element": "H" 
			},
			{
				"x": -1.6745073366,
				"y": -1.8384279988,
				"z": 0.2885682098,
				"element": "H" 
			},
			{
				"x": 2.750026327,
				"y": 3.031299105,
				"z": -0.3416504651,
				"element": "H" 
			},
			{
				"x": 0.9892401601,
				"y": 2.0213445793,
				"z": 1.2313469327,
				"element": "H" 
			}
		],
		 "valence_orbital": [ 
			{
				"type": "occ",
				"energy": -0.3276,
				"method": "rhf"
			},
			{
				"type": "occ",
				"energy": -0.31104,
				"method": "rhf"
			},
			{
				"type": "occ",
				"energy": -0.30524,
				"method": "rhf"
			},
			{
				"type": "occ",
				"energy": -0.30201,
				"method": "rhf"
			},
			{
				"type": "occ",
				"energy": -0.26292,
				"method": "rhf"
			},
			{
				"type": "unocc",
				"energy": -0.07368,
				"method": "rhf"
			},
			{
				"type": "unocc",
				"energy": -0.01102,
				"method": "rhf"
			},
			{
				"type": "unocc",
				"energy": 0.00826,
				"method": "rhf"
			},
			{
				"type": "unocc",
				"energy": 0.0388,
				"method": "rhf"
			},
			{
				"type": "unocc",
				"energy": 0.07808,
				"method": "rhf"
			}
		],
		"cosmo_sigma_profile": { 
			"-0.025": 0.0,
			"-0.024": 0.0,
			"-0.023": 0.0,
			"-0.022": 0.0,
			"-0.021": 0.0,
			"-0.02": 0.0,
			"-0.019": 0.00937167079996,
			"-0.018": 1.22612667617,
			"-0.017": 1.88687931752,
			"-0.016": 1.29262724951,
			"-0.015": 0.883259973577,
			"-0.014": 1.84601621762,
			"-0.013": 1.50067916748,
			"-0.012": 1.81323944004,
			"-0.011": 2.71148095497,
			"-0.01": 3.70433876224,
			"-0.009": 2.66037765541,
			"-0.008": 1.59763286023,
			"-0.007": 2.09166262196,
			"-0.006": 2.96947883708,
			"-0.005": 4.46014855342,
			"-0.004": 12.090661737,
			"-0.003": 19.9765706725,
			"-0.002": 19.873322312,
			"-0.001": 22.0988175118,
			"0.0": 23.9636446194,
			"0.001": 16.1198320567,
			"0.002": 11.3688983475,
			"0.003": 14.6349001312,
			"0.004": 16.4353371689,
			"0.005": 4.72133972879,
			"0.006": 5.07303020188,
			"0.007": 6.67717713827,
			"0.008": 12.3012175534,
			"0.009": 9.65366696489,
			"0.01": 1.31032042351,
			"0.011": 1.09889998616,
			"0.012": 0.655824402939,
			"0.013": 0.487669947997,
			"0.014": 0.531075330156,
			"0.015": 0.0583860560046,
			"0.016": 0.0,
			"0.017": 0.0,
			"0.018": 0.0,
			"0.019": 0.0,
			"0.02": 0.0,
			"0.021": 0.0,
			"0.022": 0.0,
			"0.023": 0.0,
			"0.024": 0.0,
			"0.025": 0.0
		}
	}
}
