{
	 "smiles": "CS(=O)(=O)C1=C(NC(=O)CCl)C=CC=C1", 
	 "Tm": 392.15, 
	 "num_atms": 25, 
	 "gaussian": { 
		 "optdone": 1, 
		 "sigma_profile": "yes", 
		 "theory": "DFT", 
		 "functional": "B3LYP", 
		 "basiset": "6-31G**", 
		 "properties": { 
			 "R2extent": 4038.098, 
			 "electric_dipole_moment_norm": 3.12368509616, 
			 "electric_quadrupole_moment_norm": 16.3187696954, 
			 "total_energy": -1487.74357074, 
			 "HOMO_LUMO_gap": 0.19631, 
			 "cosmo_polarized_energy": -16.54, 
			 "cosmo_cavitation_energy": 31.77, 
			 "cosmo_dispersion_energy": -23.1, 
			 "cosmo_repulsion_energy": 1.75, 
			 "cosmo_total_nonelectrostatic_energy": 10.42, 
			 "SMD_solvation_energy": 5.6 
		},
		"coords": [
			{
				"x": 0.658457464,
				"y": 1.8912473249,
				"z": -1.7568070533,
				"element": "C" 
			},
			{
				"x": -1.0236761924,
				"y": 1.317324232,
				"z": -1.4343055983,
				"element": "S" 
			},
			{
				"x": -1.9442193237,
				"y": 2.416810137,
				"z": -1.7499130166,
				"element": "O" 
			},
			{
				"x": -1.174703614,
				"y": 0.0062273293,
				"z": -2.10442116,
				"element": "O" 
			},
			{
				"x": -1.0566772289,
				"y": 1.0390510348,
				"z": 0.344086999,
				"element": "C" 
			},
			{
				"x": -0.4749228597,
				"y": -0.1020470061,
				"z": 0.9490113116,
				"element": "C" 
			},
			{
				"x": 0.1044053262,
				"y": -1.1041520212,
				"z": 0.1454063648,
				"element": "N" 
			},
			{
				"x": 0.9078811187,
				"y": -2.1312985122,
				"z": 0.5635371719,
				"element": "C" 
			},
			{
				"x": 1.2649434959,
				"y": -2.3436045112,
				"z": 1.7135362491,
				"element": "O" 
			},
			{
				"x": 1.3590089579,
				"y": -3.1337681938,
				"z": -0.5032956963,
				"element": "C" 
			},
			{
				"x": 1.3841388726,
				"y": -2.5474232815,
				"z": -2.2137322614,
				"element": "Cl" 
			},
			{
				"x": -0.5151896226,
				"y": -0.1917776015,
				"z": 2.3510032525,
				"element": "C" 
			},
			{
				"x": -1.128928756,
				"y": 0.8065432556,
				"z": 3.1044017387,
				"element": "C" 
			},
			{
				"x": -1.7228784983,
				"y": 1.9131531851,
				"z": 2.4969775122,
				"element": "C" 
			},
			{
				"x": -1.6820230888,
				"y": 2.0250619441,
				"z": 1.1103370979,
				"element": "C" 
			},
			{
				"x": 0.8186883175,
				"y": 2.8315414984,
				"z": -1.2280423091,
				"element": "H" 
			},
			{
				"x": 1.3668883538,
				"y": 1.1271531296,
				"z": -1.4330677189,
				"element": "H" 
			},
			{
				"x": 0.7282443934,
				"y": 2.0401308932,
				"z": -2.8363634155,
				"element": "H" 
			},
			{
				"x": -0.1630907254,
				"y": -1.0825645769,
				"z": -0.8395737608,
				"element": "H" 
			},
			{
				"x": 2.3674399538,
				"y": -3.449530134,
				"z": -0.2414131069,
				"element": "H" 
			},
			{
				"x": 0.6968675649,
				"y": -4.002192044,
				"z": -0.4731183506,
				"element": "H" 
			},
			{
				"x": -0.0604548306,
				"y": -1.0466196734,
				"z": 2.8295718803,
				"element": "H" 
			},
			{
				"x": -1.1477066168,
				"y": 0.7061965466,
				"z": 4.185697987,
				"element": "H" 
			},
			{
				"x": -2.2097741682,
				"y": 2.6787722707,
				"z": 3.0919701525,
				"element": "H" 
			},
			{
				"x": -2.1351182932,
				"y": 2.8671647743,
				"z": 0.59871573,
				"element": "H" 
			}
		],
		 "valence_orbital": [ 
			{
				"type": "occ",
				"energy": -0.30848,
				"method": "rhf"
			},
			{
				"type": "occ",
				"energy": -0.30131,
				"method": "rhf"
			},
			{
				"type": "occ",
				"energy": -0.27935,
				"method": "rhf"
			},
			{
				"type": "occ",
				"energy": -0.27339,
				"method": "rhf"
			},
			{
				"type": "occ",
				"energy": -0.24702,
				"method": "rhf"
			},
			{
				"type": "unocc",
				"energy": -0.05071,
				"method": "rhf"
			},
			{
				"type": "unocc",
				"energy": -0.03264,
				"method": "rhf"
			},
			{
				"type": "unocc",
				"energy": 0.00388,
				"method": "rhf"
			},
			{
				"type": "unocc",
				"energy": 0.02837,
				"method": "rhf"
			},
			{
				"type": "unocc",
				"energy": 0.05564,
				"method": "rhf"
			}
		],
		"cosmo_sigma_profile": { 
			"-0.025": 0.0,
			"-0.024": 0.0,
			"-0.023": 0.0,
			"-0.022": 0.0,
			"-0.021": 0.0,
			"-0.02": 0.0,
			"-0.019": 0.0,
			"-0.018": 0.0,
			"-0.017": 0.0,
			"-0.016": 0.0,
			"-0.015": 0.0,
			"-0.014": 0.0,
			"-0.013": 0.0,
			"-0.012": 0.0,
			"-0.011": 0.0,
			"-0.01": 1.47020074446,
			"-0.009": 6.94577618476,
			"-0.008": 9.7781805401,
			"-0.007": 14.6844442562,
			"-0.006": 17.1940204319,
			"-0.005": 18.457917924,
			"-0.004": 16.6717727349,
			"-0.003": 14.7892951927,
			"-0.002": 13.1863636896,
			"-0.001": 14.196843022,
			"0.0": 15.5427964852,
			"0.001": 14.4521880185,
			"0.002": 17.6241561886,
			"0.003": 17.0862370175,
			"0.004": 9.39056291711,
			"0.005": 10.4839272326,
			"0.006": 5.74205976984,
			"0.007": 4.86569503237,
			"0.008": 4.5308459913,
			"0.009": 6.10971208307,
			"0.01": 6.89281666494,
			"0.011": 10.3475178172,
			"0.012": 5.73207414455,
			"0.013": 0.424710358584,
			"0.014": 0.0,
			"0.015": 0.0,
			"0.016": 0.0,
			"0.017": 0.0,
			"0.018": 0.0,
			"0.019": 0.0,
			"0.02": 0.0,
			"0.021": 0.0,
			"0.022": 0.0,
			"0.023": 0.0,
			"0.024": 0.0,
			"0.025": 0.0
		}
	}
}
