{
	 "smiles": "ClC1=CC=C(C=C1)S(=O)C1=CC=C(Cl)C=C1", 
	 "Tm": 415.15, 
	 "num_atms": 24, 
	 "gaussian": { 
		 "optdone": 1, 
		 "sigma_profile": "yes", 
		 "theory": "DFT", 
		 "functional": "B3LYP", 
		 "basiset": "6-31G**", 
		 "properties": { 
			 "R2extent": 6913.5048, 
			 "electric_dipole_moment_norm": 2.28581017803, 
			 "electric_quadrupole_moment_norm": 13.6256559174, 
			 "total_energy": -1855.83878241, 
			 "HOMO_LUMO_gap": 0.1925, 
			 "cosmo_polarized_energy": -11.78, 
			 "cosmo_cavitation_energy": 34.09, 
			 "cosmo_dispersion_energy": -24.99, 
			 "cosmo_repulsion_energy": 1.91, 
			 "cosmo_total_nonelectrostatic_energy": 11.01, 
			 "SMD_solvation_energy": 4.59 
		},
		"coords": [
			{
				"x": -2.1745297802,
				"y": 5.1781666057,
				"z": 0.6779753916,
				"element": "Cl" 
			},
			{
				"x": -1.7801740391,
				"y": 3.4698293433,
				"z": 0.597313702,
				"element": "C" 
			},
			{
				"x": -0.8041031248,
				"y": 2.9552073088,
				"z": 1.4529800782,
				"element": "C" 
			},
			{
				"x": -0.4969587719,
				"y": 1.5961990359,
				"z": 1.3919104426,
				"element": "C" 
			},
			{
				"x": -1.1555674459,
				"y": 0.7832487421,
				"z": 0.4693655194,
				"element": "C" 
			},
			{
				"x": -2.1422589937,
				"y": 1.2963177912,
				"z": -0.3688374578,
				"element": "C" 
			},
			{
				"x": -2.4572171883,
				"y": 2.6535675054,
				"z": -0.3101304313,
				"element": "C" 
			},
			{
				"x": -0.8230358394,
				"y": -1.0137279109,
				"z": 0.3952737174,
				"element": "S" 
			},
			{
				"x": -1.9054343951,
				"y": -1.6053573109,
				"z": -0.4823511525,
				"element": "O" 
			},
			{
				"x": 0.6853122596,
				"y": -0.9436296063,
				"z": -0.6368913379,
				"element": "C" 
			},
			{
				"x": 1.9310314682,
				"y": -0.678406673,
				"z": -0.0680114565,
				"element": "C" 
			},
			{
				"x": 3.068446234,
				"y": -0.6743538328,
				"z": -0.874976379,
				"element": "C" 
			},
			{
				"x": 2.935919806,
				"y": -0.9538164142,
				"z": -2.2366209359,
				"element": "C" 
			},
			{
				"x": 4.3669296172,
				"y": -0.9574230661,
				"z": -3.2528262945,
				"element": "Cl" 
			},
			{
				"x": 1.6936283391,
				"y": -1.2427931721,
				"z": -2.8034336263,
				"element": "C" 
			},
			{
				"x": 0.5597442913,
				"y": -1.2411240944,
				"z": -1.991557299,
				"element": "C" 
			},
			{
				"x": -0.3025167513,
				"y": 3.6067431338,
				"z": 2.1597167486,
				"element": "H" 
			},
			{
				"x": 0.248582663,
				"y": 1.1840896887,
				"z": 2.0664985226,
				"element": "H" 
			},
			{
				"x": -2.6587638721,
				"y": 0.6222976921,
				"z": -1.0457607755,
				"element": "H" 
			},
			{
				"x": -3.220228398,
				"y": 3.0753466614,
				"z": -0.9550479522,
				"element": "H" 
			},
			{
				"x": 2.027725818,
				"y": -0.4794018615,
				"z": 0.9958455272,
				"element": "H" 
			},
			{
				"x": 4.0464671444,
				"y": -0.4673724366,
				"z": -0.4552192641,
				"element": "H" 
			},
			{
				"x": 1.6191763542,
				"y": -1.469042719,
				"z": -3.8613914081,
				"element": "H" 
			},
			{
				"x": -0.4226753951,
				"y": -1.4801644104,
				"z": -2.3878238791,
				"element": "H" 
			}
		],
		 "valence_orbital": [ 
			{
				"type": "occ",
				"energy": -0.28218,
				"method": "rhf"
			},
			{
				"type": "occ",
				"energy": -0.27649,
				"method": "rhf"
			},
			{
				"type": "occ",
				"energy": -0.27613,
				"method": "rhf"
			},
			{
				"type": "occ",
				"energy": -0.25547,
				"method": "rhf"
			},
			{
				"type": "occ",
				"energy": -0.23945,
				"method": "rhf"
			},
			{
				"type": "unocc",
				"energy": -0.04695,
				"method": "rhf"
			},
			{
				"type": "unocc",
				"energy": -0.03559,
				"method": "rhf"
			},
			{
				"type": "unocc",
				"energy": -0.03067,
				"method": "rhf"
			},
			{
				"type": "unocc",
				"energy": -0.02483,
				"method": "rhf"
			},
			{
				"type": "unocc",
				"energy": 0.01376,
				"method": "rhf"
			}
		],
		"cosmo_sigma_profile": { 
			"-0.025": 0.0,
			"-0.024": 0.0,
			"-0.023": 0.0,
			"-0.022": 0.0,
			"-0.021": 0.0,
			"-0.02": 0.0,
			"-0.019": 0.0,
			"-0.018": 0.0,
			"-0.017": 0.0,
			"-0.016": 0.0,
			"-0.015": 0.0,
			"-0.014": 0.0,
			"-0.013": 0.0,
			"-0.012": 0.0,
			"-0.011": 0.192719424115,
			"-0.01": 1.22815424207,
			"-0.009": 2.26627630744,
			"-0.008": 9.22160638245,
			"-0.007": 12.4260464945,
			"-0.006": 14.1722567116,
			"-0.005": 10.8845545779,
			"-0.004": 12.2914353723,
			"-0.003": 15.0747556146,
			"-0.002": 15.7328985458,
			"-0.001": 21.3420319338,
			"0.0": 23.4073418016,
			"0.001": 34.6171844863,
			"0.002": 43.2037315899,
			"0.003": 19.857170156,
			"0.004": 21.3319215371,
			"0.005": 6.94651017489,
			"0.006": 1.57014058907,
			"0.007": 1.00159032488,
			"0.008": 1.04163652755,
			"0.009": 1.21092244684,
			"0.01": 1.42007898338,
			"0.011": 1.41609105843,
			"0.012": 2.61352539549,
			"0.013": 2.48729742651,
			"0.014": 2.70281249028,
			"0.015": 0.858027086352,
			"0.016": 0.0,
			"0.017": 0.0,
			"0.018": 0.0,
			"0.019": 0.0,
			"0.02": 0.0,
			"0.021": 0.0,
			"0.022": 0.0,
			"0.023": 0.0,
			"0.024": 0.0,
			"0.025": 0.0
		}
	}
}
