{
	 "smiles": "OC(=O)C1=C(F)C=C(C=C1)C(F)(F)F", 
	 "Tm": 441.15, 
	 "num_atms": 18, 
	 "gaussian": { 
		 "optdone": 1, 
		 "sigma_profile": "yes", 
		 "theory": "DFT", 
		 "functional": "B3LYP", 
		 "basiset": "6-31G**", 
		 "properties": { 
			 "R2extent": 3709.5482, 
			 "electric_dipole_moment_norm": 2.67560161085, 
			 "electric_quadrupole_moment_norm": 19.9031184431, 
			 "total_energy": -857.080804603, 
			 "HOMO_LUMO_gap": 0.20856, 
			 "cosmo_polarized_energy": -10.57, 
			 "cosmo_cavitation_energy": 24.96, 
			 "cosmo_dispersion_energy": -17.98, 
			 "cosmo_repulsion_energy": 1.32, 
			 "cosmo_total_nonelectrostatic_energy": 8.3, 
			 "SMD_solvation_energy": 7.08 
		},
		"coords": [
			{
				"x": -3.7308939354,
				"y": 1.1454777042,
				"z": 1.5928850462,
				"element": "O" 
			},
			{
				"x": -2.8734078661,
				"y": 1.0627765366,
				"z": 0.558393376,
				"element": "C" 
			},
			{
				"x": -3.2148534092,
				"y": 1.3848321247,
				"z": -0.5557357776,
				"element": "O" 
			},
			{
				"x": -1.4775634475,
				"y": 0.5560853605,
				"z": 0.8349655099,
				"element": "C" 
			},
			{
				"x": -0.9790602725,
				"y": 0.1607186401,
				"z": 2.0786378627,
				"element": "C" 
			},
			{
				"x": -1.7828189179,
				"y": 0.2179200079,
				"z": 3.1809651794,
				"element": "F" 
			},
			{
				"x": 0.3160835372,
				"y": -0.2948484049,
				"z": 2.2692692809,
				"element": "C" 
			},
			{
				"x": 1.1632513935,
				"y": -0.3613265077,
				"z": 1.1638761414,
				"element": "C" 
			},
			{
				"x": 0.7082711792,
				"y": 0.025855669,
				"z": -0.1011643618,
				"element": "C" 
			},
			{
				"x": -0.5967712622,
				"y": 0.4773395871,
				"z": -0.2548378619,
				"element": "C" 
			},
			{
				"x": 2.5614198818,
				"y": -0.9051181067,
				"z": 1.3256383652,
				"element": "C" 
			},
			{
				"x": 3.0119080483,
				"y": -0.7596062113,
				"z": 2.5891199062,
				"element": "F" 
			},
			{
				"x": 2.6076517076,
				"y": -2.2227149768,
				"z": 1.032679556,
				"element": "F" 
			},
			{
				"x": 3.4305403178,
				"y": -0.2834612599,
				"z": 0.502922654,
				"element": "F" 
			},
			{
				"x": -3.3088558302,
				"y": 0.8533231904,
				"z": 2.4159146077,
				"element": "H" 
			},
			{
				"x": 0.646538237,
				"y": -0.5801545162,
				"z": 3.2605487008,
				"element": "H" 
			},
			{
				"x": 1.3764709442,
				"y": -0.0198085788,
				"z": -0.9535444225,
				"element": "H" 
			},
			{
				"x": -0.9777103055,
				"y": 0.786709742,
				"z": -1.2217337624,
				"element": "H" 
			}
		],
		 "valence_orbital": [ 
			{
				"type": "occ",
				"energy": -0.37285,
				"method": "rhf"
			},
			{
				"type": "occ",
				"energy": -0.32644,
				"method": "rhf"
			},
			{
				"type": "occ",
				"energy": -0.2963,
				"method": "rhf"
			},
			{
				"type": "occ",
				"energy": -0.28863,
				"method": "rhf"
			},
			{
				"type": "occ",
				"energy": -0.28831,
				"method": "rhf"
			},
			{
				"type": "unocc",
				"energy": -0.07975,
				"method": "rhf"
			},
			{
				"type": "unocc",
				"energy": -0.03999,
				"method": "rhf"
			},
			{
				"type": "unocc",
				"energy": 0.02539,
				"method": "rhf"
			},
			{
				"type": "unocc",
				"energy": 0.0601,
				"method": "rhf"
			},
			{
				"type": "unocc",
				"energy": 0.09733,
				"method": "rhf"
			}
		],
		"cosmo_sigma_profile": { 
			"-0.025": 0.0,
			"-0.024": 0.0,
			"-0.023": 0.0,
			"-0.022": 0.0,
			"-0.021": 0.0,
			"-0.02": 0.0,
			"-0.019": 0.0,
			"-0.018": 0.0,
			"-0.017": 0.0,
			"-0.016": 0.0,
			"-0.015": 0.0,
			"-0.014": 0.341959245887,
			"-0.013": 0.280981603683,
			"-0.012": 1.0599001918,
			"-0.011": 1.62648967749,
			"-0.01": 2.0434754939,
			"-0.009": 3.12185570217,
			"-0.008": 5.16848382108,
			"-0.007": 6.35712989546,
			"-0.006": 8.00246696901,
			"-0.005": 8.03438375585,
			"-0.004": 8.37484330137,
			"-0.003": 12.202294133,
			"-0.002": 15.7833976255,
			"-0.001": 19.1370941378,
			"0.0": 18.1946136635,
			"0.001": 16.8288775465,
			"0.002": 30.6706109791,
			"0.003": 15.4154170635,
			"0.004": 2.44293615515,
			"0.005": 1.73955284651,
			"0.006": 1.82578419083,
			"0.007": 2.85773937831,
			"0.008": 2.98446416101,
			"0.009": 3.4143540624,
			"0.01": 5.22564117641,
			"0.011": 5.26246057746,
			"0.012": 2.66925693845,
			"0.013": 0.657688290734,
			"0.014": 0.0,
			"0.015": 0.0,
			"0.016": 0.0,
			"0.017": 0.0,
			"0.018": 0.0,
			"0.019": 0.0,
			"0.02": 0.0,
			"0.021": 0.0,
			"0.022": 0.0,
			"0.023": 0.0,
			"0.024": 0.0,
			"0.025": 0.0
		}
	}
}
