{
	 "smiles": "C1CC2=C(C=C1)C=CC=C2", 
	 "Tm": 265.15, 
	 "num_atms": 20, 
	 "gaussian": { 
		 "optdone": 1, 
		 "sigma_profile": "yes", 
		 "theory": "DFT", 
		 "functional": "B3LYP", 
		 "basiset": "6-31G**", 
		 "properties": { 
			 "R2extent": 2115.0397, 
			 "electric_dipole_moment_norm": 0.561198039911, 
			 "electric_quadrupole_moment_norm": 4.50688908561, 
			 "total_energy": -387.089051086, 
			 "HOMO_LUMO_gap": 0.18558, 
			 "cosmo_polarized_energy": -3.66, 
			 "cosmo_cavitation_energy": 22.29, 
			 "cosmo_dispersion_energy": -16.93, 
			 "cosmo_repulsion_energy": 1.36, 
			 "cosmo_total_nonelectrostatic_energy": 6.72, 
			 "SMD_solvation_energy": 3.27 
		},
		"coords": [
			{
				"x": -0.3963673793,
				"y": -0.4808153187,
				"z": 1.3734436768,
				"element": "C" 
			},
			{
				"x": -0.0554315522,
				"y": -1.8511975308,
				"z": 0.7665181696,
				"element": "C" 
			},
			{
				"x": 0.8193551,
				"y": -1.7406282938,
				"z": -0.4662420512,
				"element": "C" 
			},
			{
				"x": 1.7879845281,
				"y": -0.7118140739,
				"z": -0.5115187209,
				"element": "C" 
			},
			{
				"x": 1.8316387179,
				"y": 0.2744796595,
				"z": 0.574786621,
				"element": "C" 
			},
			{
				"x": 0.8278036801,
				"y": 0.3992144701,
				"z": 1.4570688391,
				"element": "C" 
			},
			{
				"x": 2.6676622023,
				"y": -0.6438718502,
				"z": -1.6008295332,
				"element": "C" 
			},
			{
				"x": 2.5879455875,
				"y": -1.5681622793,
				"z": -2.6425984656,
				"element": "C" 
			},
			{
				"x": 1.6233528848,
				"y": -2.5753500588,
				"z": -2.6022457867,
				"element": "C" 
			},
			{
				"x": 0.7482187149,
				"y": -2.6572691021,
				"z": -1.51443675,
				"element": "C" 
			},
			{
				"x": -1.1595444693,
				"y": 0.0256545404,
				"z": 0.760705401,
				"element": "H" 
			},
			{
				"x": -0.8451362947,
				"y": -0.6145796786,
				"z": 2.3640433097,
				"element": "H" 
			},
			{
				"x": 0.4899067616,
				"y": -2.4372634682,
				"z": 1.5221763968,
				"element": "H" 
			},
			{
				"x": -0.9690400514,
				"y": -2.411036219,
				"z": 0.5394078412,
				"element": "H" 
			},
			{
				"x": 2.6899313459,
				"y": 0.9418025526,
				"z": 0.6152286892,
				"element": "H" 
			},
			{
				"x": 0.8598302571,
				"y": 1.1743909509,
				"z": 2.2189166508,
				"element": "H" 
			},
			{
				"x": 3.4127775794,
				"y": 0.1476470693,
				"z": -1.6318294995,
				"element": "H" 
			},
			{
				"x": 3.2737887919,
				"y": -1.5005735805,
				"z": -3.4822970888,
				"element": "H" 
			},
			{
				"x": 1.5515527955,
				"y": -3.2969105511,
				"z": -3.411120928,
				"element": "H" 
			},
			{
				"x": 0.0023707997,
				"y": -3.4483172377,
				"z": -1.4799767711,
				"element": "H" 
			}
		],
		 "valence_orbital": [ 
			{
				"type": "occ",
				"energy": -0.32025,
				"method": "rhf"
			},
			{
				"type": "occ",
				"energy": -0.31465,
				"method": "rhf"
			},
			{
				"type": "occ",
				"energy": -0.28587,
				"method": "rhf"
			},
			{
				"type": "occ",
				"energy": -0.23919,
				"method": "rhf"
			},
			{
				"type": "occ",
				"energy": -0.20909,
				"method": "rhf"
			},
			{
				"type": "unocc",
				"energy": -0.02351,
				"method": "rhf"
			},
			{
				"type": "unocc",
				"energy": 0.00556,
				"method": "rhf"
			},
			{
				"type": "unocc",
				"energy": 0.06097,
				"method": "rhf"
			},
			{
				"type": "unocc",
				"energy": 0.0988,
				"method": "rhf"
			},
			{
				"type": "unocc",
				"energy": 0.11309,
				"method": "rhf"
			}
		],
		"cosmo_sigma_profile": { 
			"-0.025": 0.0,
			"-0.024": 0.0,
			"-0.023": 0.0,
			"-0.022": 0.0,
			"-0.021": 0.0,
			"-0.02": 0.0,
			"-0.019": 0.0,
			"-0.018": 0.0,
			"-0.017": 0.0,
			"-0.016": 0.0,
			"-0.015": 0.0,
			"-0.014": 0.0,
			"-0.013": 0.0,
			"-0.012": 0.0,
			"-0.011": 0.0,
			"-0.01": 0.0,
			"-0.009": 0.0,
			"-0.008": 0.0,
			"-0.007": 0.0,
			"-0.006": 0.752049347601,
			"-0.005": 11.5768678709,
			"-0.004": 17.253654334,
			"-0.003": 21.6828644836,
			"-0.002": 21.9722670438,
			"-0.001": 18.8801436416,
			"0.0": 16.1813412695,
			"0.001": 10.3964024846,
			"0.002": 9.13820575835,
			"0.003": 10.5765935389,
			"0.004": 11.5598923466,
			"0.005": 12.2720411641,
			"0.006": 11.264435251,
			"0.007": 3.30891894148,
			"0.008": 0.0,
			"0.009": 0.0,
			"0.01": 0.0,
			"0.011": 0.0,
			"0.012": 0.0,
			"0.013": 0.0,
			"0.014": 0.0,
			"0.015": 0.0,
			"0.016": 0.0,
			"0.017": 0.0,
			"0.018": 0.0,
			"0.019": 0.0,
			"0.02": 0.0,
			"0.021": 0.0,
			"0.022": 0.0,
			"0.023": 0.0,
			"0.024": 0.0,
			"0.025": 0.0
		}
	}
}
