{
	 "smiles": "CC(C)C1CCC(C)CC1OC(=O)C1C(C)C(C(=O)OC2CC(C)CCC2C(C)C)C(=O)C=C1C", 
	 "Tm": 459.15, 
	 "num_atms": 83, 
	 "gaussian": { 
		 "optdone": 1, 
		 "sigma_profile": "yes", 
		 "theory": "DFT", 
		 "functional": "B3LYP", 
		 "basiset": "6-31G**", 
		 "properties": { 
			 "R2extent": 25033.1458, 
			 "electric_dipole_moment_norm": 2.78820649343, 
			 "electric_quadrupole_moment_norm": 19.3191812396, 
			 "total_energy": -1548.30702254, 
			 "HOMO_LUMO_gap": 0.19044, 
			 "cosmo_polarized_energy": -16.52, 
			 "cosmo_cavitation_energy": 74.53, 
			 "cosmo_dispersion_energy": -46.75, 
			 "cosmo_repulsion_energy": 3.49, 
			 "cosmo_total_nonelectrostatic_energy": 31.27, 
			 "SMD_solvation_energy": 12.61 
		},
		"coords": [
			{
				"x": -0.012184999,
				"y": 5.0177626386,
				"z": -0.478717283,
				"element": "C" 
			},
			{
				"x": 0.9164917848,
				"y": 3.834582767,
				"z": -0.1553360878,
				"element": "C" 
			},
			{
				"x": 0.5143708124,
				"y": 3.2327651584,
				"z": 1.2037525924,
				"element": "C" 
			},
			{
				"x": 2.4127736695,
				"y": 4.2430722872,
				"z": -0.1722237239,
				"element": "C" 
			},
			{
				"x": 2.8944030555,
				"y": 5.0072924213,
				"z": -1.4198750451,
				"element": "C" 
			},
			{
				"x": 4.2793025541,
				"y": 5.6481222327,
				"z": -1.1783360765,
				"element": "C" 
			},
			{
				"x": 5.2703949118,
				"y": 4.7375714638,
				"z": -0.3897467814,
				"element": "C" 
			},
			{
				"x": 5.5149200657,
				"y": 5.2310968741,
				"z": 1.0469109069,
				"element": "C" 
			},
			{
				"x": 4.7987058061,
				"y": 3.2712695777,
				"z": -0.4414852049,
				"element": "C" 
			},
			{
				"x": 3.3934117506,
				"y": 3.0737403798,
				"z": 0.1524914616,
				"element": "C" 
			},
			{
				"x": 2.8975894006,
				"y": 1.720632936,
				"z": -0.1670187952,
				"element": "O" 
			},
			{
				"x": 2.7306616507,
				"y": 1.273824525,
				"z": -1.422972105,
				"element": "C" 
			},
			{
				"x": 2.8653635718,
				"y": 1.9294399005,
				"z": -2.4361220355,
				"element": "O" 
			},
			{
				"x": 2.2931546458,
				"y": -0.2006089589,
				"z": -1.4240487135,
				"element": "C" 
			},
			{
				"x": 0.79290803,
				"y": -0.2860990923,
				"z": -1.0241375502,
				"element": "C" 
			},
			{
				"x": -0.1040926203,
				"y": 0.3021163589,
				"z": -2.1241600224,
				"element": "C" 
			},
			{
				"x": 0.3832575932,
				"y": -1.7348811209,
				"z": -0.6938057244,
				"element": "C" 
			},
			{
				"x": -1.0397212408,
				"y": -1.8139171682,
				"z": -0.1525183271,
				"element": "C" 
			},
			{
				"x": -1.5467327657,
				"y": -0.9600434539,
				"z": 0.5467784772,
				"element": "O" 
			},
			{
				"x": -1.6354378564,
				"y": -2.9520181527,
				"z": -0.534717603,
				"element": "O" 
			},
			{
				"x": -2.9462695893,
				"y": -3.2594830114,
				"z": 0.0496147478,
				"element": "C" 
			},
			{
				"x": -3.6579525634,
				"y": -4.1163947102,
				"z": -0.9995706036,
				"element": "C" 
			},
			{
				"x": -3.0348846445,
				"y": -5.5111063775,
				"z": -1.1796772891,
				"element": "C" 
			},
			{
				"x": -3.7940822544,
				"y": -6.3286196526,
				"z": -2.2300290976,
				"element": "C" 
			},
			{
				"x": -2.9741509295,
				"y": -6.2288262942,
				"z": 0.1783441053,
				"element": "C" 
			},
			{
				"x": -2.2203799535,
				"y": -5.3993900984,
				"z": 1.2305451609,
				"element": "C" 
			},
			{
				"x": -2.7127247652,
				"y": -3.9423249102,
				"z": 1.4181873753,
				"element": "C" 
			},
			{
				"x": -3.8706265427,
				"y": -3.756016118,
				"z": 2.4469974868,
				"element": "C" 
			},
			{
				"x": -5.2745238154,
				"y": -4.2124089252,
				"z": 2.0138917536,
				"element": "C" 
			},
			{
				"x": -3.9312701407,
				"y": -2.3055823747,
				"z": 2.9602314908,
				"element": "C" 
			},
			{
				"x": 1.3260499349,
				"y": -2.39095622,
				"z": 0.3293343617,
				"element": "C" 
			},
			{
				"x": 0.9266817657,
				"y": -3.2019404669,
				"z": 1.1533474655,
				"element": "O" 
			},
			{
				"x": 2.7471294564,
				"y": -2.0449618621,
				"z": 0.2088412022,
				"element": "C" 
			},
			{
				"x": 3.2201537435,
				"y": -1.0724073536,
				"z": -0.593396564,
				"element": "C" 
			},
			{
				"x": 4.6991560231,
				"y": -0.848711505,
				"z": -0.7561309158,
				"element": "C" 
			},
			{
				"x": 0.1120738843,
				"y": 5.3831125725,
				"z": -1.5013323211,
				"element": "H" 
			},
			{
				"x": 0.1642264062,
				"y": 5.8581567992,
				"z": 0.2044273173,
				"element": "H" 
			},
			{
				"x": -1.0587393912,
				"y": 4.7164354098,
				"z": -0.3644853773,
				"element": "H" 
			},
			{
				"x": 0.7578890111,
				"y": 3.0750647163,
				"z": -0.930165294,
				"element": "H" 
			},
			{
				"x": -0.5349074741,
				"y": 2.9205647389,
				"z": 1.1928809692,
				"element": "H" 
			},
			{
				"x": 0.6283322066,
				"y": 3.9752265937,
				"z": 2.0040059783,
				"element": "H" 
			},
			{
				"x": 1.1131537467,
				"y": 2.3575078037,
				"z": 1.4665347068,
				"element": "H" 
			},
			{
				"x": 2.5310394941,
				"y": 4.9355134778,
				"z": 0.6767877685,
				"element": "H" 
			},
			{
				"x": 2.9289208662,
				"y": 4.320032278,
				"z": -2.2699323158,
				"element": "H" 
			},
			{
				"x": 2.1881257794,
				"y": 5.8003349118,
				"z": -1.6793310388,
				"element": "H" 
			},
			{
				"x": 4.7157452642,
				"y": 5.9223209279,
				"z": -2.1453903098,
				"element": "H" 
			},
			{
				"x": 4.1480962824,
				"y": 6.5887206027,
				"z": -0.6284957309,
				"element": "H" 
			},
			{
				"x": 6.2417394259,
				"y": 4.7669998877,
				"z": -0.8988525412,
				"element": "H" 
			},
			{
				"x": 6.2266888184,
				"y": 4.5842084569,
				"z": 1.5727320922,
				"element": "H" 
			},
			{
				"x": 4.5939206123,
				"y": 5.2629606481,
				"z": 1.6395258266,
				"element": "H" 
			},
			{
				"x": 5.9291779938,
				"y": 6.2449777976,
				"z": 1.0407959547,
				"element": "H" 
			},
			{
				"x": 4.7852925223,
				"y": 2.9512440332,
				"z": -1.4857174361,
				"element": "H" 
			},
			{
				"x": 5.5076003843,
				"y": 2.6246363118,
				"z": 0.089769619,
				"element": "H" 
			},
			{
				"x": 3.468180737,
				"y": 2.9889017761,
				"z": 1.2383892977,
				"element": "H" 
			},
			{
				"x": 2.3958583195,
				"y": -0.5119143263,
				"z": -2.4732383515,
				"element": "H" 
			},
			{
				"x": 0.6542138708,
				"y": 0.2957595854,
				"z": -0.1065292602,
				"element": "H" 
			},
			{
				"x": 0.2158725645,
				"y": 1.307134631,
				"z": -2.4111085763,
				"element": "H" 
			},
			{
				"x": -0.0728473145,
				"y": -0.3206984777,
				"z": -3.0263080485,
				"element": "H" 
			},
			{
				"x": -1.1397685578,
				"y": 0.3613885157,
				"z": -1.7817097658,
				"element": "H" 
			},
			{
				"x": 0.4417175716,
				"y": -2.3557262894,
				"z": -1.5988283302,
				"element": "H" 
			},
			{
				"x": -3.4644323853,
				"y": -2.3072260217,
				"z": 0.1828283269,
				"element": "H" 
			},
			{
				"x": -4.7076271552,
				"y": -4.2266564617,
				"z": -0.7024106841,
				"element": "H" 
			},
			{
				"x": -3.6568444653,
				"y": -3.5711475238,
				"z": -1.9513484353,
				"element": "H" 
			},
			{
				"x": -2.0032307789,
				"y": -5.3707167982,
				"z": -1.5315948649,
				"element": "H" 
			},
			{
				"x": -3.3331182967,
				"y": -7.3118109762,
				"z": -2.3758175198,
				"element": "H" 
			},
			{
				"x": -4.8350473002,
				"y": -6.4928015729,
				"z": -1.9248521787,
				"element": "H" 
			},
			{
				"x": -3.8096247767,
				"y": -5.8192743283,
				"z": -3.2002860852,
				"element": "H" 
			},
			{
				"x": -3.9972511571,
				"y": -6.4494386852,
				"z": 0.5111051618,
				"element": "H" 
			},
			{
				"x": -2.4778151982,
				"y": -7.2008803595,
				"z": 0.0608241263,
				"element": "H" 
			},
			{
				"x": -1.1665167318,
				"y": -5.3472537848,
				"z": 0.9317927815,
				"element": "H" 
			},
			{
				"x": -2.2374038533,
				"y": -5.9126256323,
				"z": 2.1999655629,
				"element": "H" 
			},
			{
				"x": -1.8701246929,
				"y": -3.4043775094,
				"z": 1.8657537727,
				"element": "H" 
			},
			{
				"x": -3.583775638,
				"y": -4.3835087664,
				"z": 3.3033728834,
				"element": "H" 
			},
			{
				"x": -5.9704893749,
				"y": -4.1229285641,
				"z": 2.8555531966,
				"element": "H" 
			},
			{
				"x": -5.673179742,
				"y": -3.5898614588,
				"z": 1.2047982799,
				"element": "H" 
			},
			{
				"x": -5.2965724354,
				"y": -5.25341579,
				"z": 1.6813786278,
				"element": "H" 
			},
			{
				"x": -4.2261432965,
				"y": -1.6037666178,
				"z": 2.1726497086,
				"element": "H" 
			},
			{
				"x": -4.6635201673,
				"y": -2.2149910745,
				"z": 3.7703348016,
				"element": "H" 
			},
			{
				"x": -2.9603823559,
				"y": -1.9746227293,
				"z": 3.3412399092,
				"element": "H" 
			},
			{
				"x": 3.4220887359,
				"y": -2.6559404815,
				"z": 0.8029539717,
				"element": "H" 
			},
			{
				"x": 4.9925670475,
				"y": 0.1351122678,
				"z": -0.3754631992,
				"element": "H" 
			},
			{
				"x": 5.2777386413,
				"y": -1.609115942,
				"z": -0.2269891891,
				"element": "H" 
			},
			{
				"x": 4.978456807,
				"y": -0.8757062662,
				"z": -1.8169568268,
				"element": "H" 
			}
		],
		 "valence_orbital": [ 
			{
				"type": "occ",
				"energy": -0.27729,
				"method": "rhf"
			},
			{
				"type": "occ",
				"energy": -0.27507,
				"method": "rhf"
			},
			{
				"type": "occ",
				"energy": -0.26596,
				"method": "rhf"
			},
			{
				"type": "occ",
				"energy": -0.26487,
				"method": "rhf"
			},
			{
				"type": "occ",
				"energy": -0.24706,
				"method": "rhf"
			},
			{
				"type": "unocc",
				"energy": -0.05662,
				"method": "rhf"
			},
			{
				"type": "unocc",
				"energy": -0.00271,
				"method": "rhf"
			},
			{
				"type": "unocc",
				"energy": 0.01558,
				"method": "rhf"
			},
			{
				"type": "unocc",
				"energy": 0.0511,
				"method": "rhf"
			},
			{
				"type": "unocc",
				"energy": 0.06501,
				"method": "rhf"
			}
		],
		"cosmo_sigma_profile": { 
			"-0.025": 0.0,
			"-0.024": 0.0,
			"-0.023": 0.0,
			"-0.022": 0.0,
			"-0.021": 0.0,
			"-0.02": 0.0,
			"-0.019": 0.0,
			"-0.018": 0.0,
			"-0.017": 0.0,
			"-0.016": 0.0,
			"-0.015": 0.0,
			"-0.014": 0.0,
			"-0.013": 0.0,
			"-0.012": 0.0,
			"-0.011": 0.0,
			"-0.01": 0.0,
			"-0.009": 0.0,
			"-0.008": 0.791896177464,
			"-0.007": 6.14382840772,
			"-0.006": 10.418659021,
			"-0.005": 12.4466723926,
			"-0.004": 22.528045648,
			"-0.003": 49.0933128784,
			"-0.002": 96.1863087726,
			"-0.001": 93.5395558911,
			"0.0": 88.9073074573,
			"0.001": 73.4724872912,
			"0.002": 39.2717530266,
			"0.003": 11.8289752095,
			"0.004": 10.6521831826,
			"0.005": 10.8184372895,
			"0.006": 12.3868383522,
			"0.007": 7.38318161914,
			"0.008": 6.20922221252,
			"0.009": 4.31231488335,
			"0.01": 4.93328897723,
			"0.011": 5.66985400095,
			"0.012": 5.4175769271,
			"0.013": 1.75051211964,
			"0.014": 0.0132440281952,
			"0.015": 0.0,
			"0.016": 0.0,
			"0.017": 0.0,
			"0.018": 0.0,
			"0.019": 0.0,
			"0.02": 0.0,
			"0.021": 0.0,
			"0.022": 0.0,
			"0.023": 0.0,
			"0.024": 0.0,
			"0.025": 0.0
		}
	}
}
