{
	 "smiles": "COC1=CC2=C(C=C1)C=C(C(O)=O)C(=O)O2", 
	 "Tm": 467.15, 
	 "num_atms": 24, 
	 "gaussian": { 
		 "optdone": 1, 
		 "sigma_profile": "yes", 
		 "theory": "DFT", 
		 "functional": "B3LYP", 
		 "basiset": "6-31G**", 
		 "properties": { 
			 "R2extent": 4958.0366, 
			 "electric_dipole_moment_norm": 8.4404116511, 
			 "electric_quadrupole_moment_norm": 19.7162396012, 
			 "total_energy": -800.126006757, 
			 "HOMO_LUMO_gap": 0.15216, 
			 "cosmo_polarized_energy": -16.66, 
			 "cosmo_cavitation_energy": 29.14, 
			 "cosmo_dispersion_energy": -21.97, 
			 "cosmo_repulsion_energy": 1.67, 
			 "cosmo_total_nonelectrostatic_energy": 8.84, 
			 "SMD_solvation_energy": 8.02 
		},
		"coords": [
			{
				"x": -3.7188768316,
				"y": -0.8440302447,
				"z": -2.1605307884,
				"element": "C" 
			},
			{
				"x": -3.0963872512,
				"y": -1.277484804,
				"z": -0.9537404098,
				"element": "O" 
			},
			{
				"x": -1.9670555127,
				"y": -0.6592549551,
				"z": -0.5450216454,
				"element": "C" 
			},
			{
				"x": -1.3540820001,
				"y": 0.3928777145,
				"z": -1.2313529754,
				"element": "C" 
			},
			{
				"x": -0.1892919335,
				"y": 0.9418497111,
				"z": -0.6974365169,
				"element": "C" 
			},
			{
				"x": 0.3855221095,
				"y": 0.4751005366,
				"z": 0.5009636052,
				"element": "C" 
			},
			{
				"x": -0.2611727197,
				"y": -0.5910083019,
				"z": 1.1694244054,
				"element": "C" 
			},
			{
				"x": -1.4129404295,
				"y": -1.1500150166,
				"z": 0.6619575954,
				"element": "C" 
			},
			{
				"x": 1.577778025,
				"y": 1.1108818216,
				"z": 0.9533970042,
				"element": "C" 
			},
			{
				"x": 2.1476809397,
				"y": 2.136081125,
				"z": 0.2552027594,
				"element": "C" 
			},
			{
				"x": 3.4088107901,
				"y": 2.7683420574,
				"z": 0.7842367778,
				"element": "C" 
			},
			{
				"x": 3.9237825516,
				"y": 3.7675111901,
				"z": 0.0602953374,
				"element": "O" 
			},
			{
				"x": 3.9205009225,
				"y": 2.3818183688,
				"z": 1.8145101837,
				"element": "O" 
			},
			{
				"x": 1.5354023963,
				"y": 2.6008201321,
				"z": -0.9798284443,
				"element": "C" 
			},
			{
				"x": 1.9513434772,
				"y": 3.506785557,
				"z": -1.6897029215,
				"element": "O" 
			},
			{
				"x": 0.3815766328,
				"y": 1.9671951446,
				"z": -1.3943744612,
				"element": "O" 
			},
			{
				"x": -4.0313765147,
				"y": 0.2045351954,
				"z": -2.0927410868,
				"element": "H" 
			},
			{
				"x": -3.0515385848,
				"y": -0.9720836891,
				"z": -3.0207630406,
				"element": "H" 
			},
			{
				"x": -4.5973918251,
				"y": -1.4771288184,
				"z": -2.2854075564,
				"element": "H" 
			},
			{
				"x": -1.7439006091,
				"y": 0.7975094514,
				"z": -2.155810527,
				"element": "H" 
			},
			{
				"x": 0.1663219274,
				"y": -0.9651406242,
				"z": 2.0948613981,
				"element": "H" 
			},
			{
				"x": -1.9192248714,
				"y": -1.967164098,
				"z": 1.1630908701,
				"element": "H" 
			},
			{
				"x": 2.0635254923,
				"y": 0.7908683031,
				"z": 1.8715726763,
				"element": "H" 
			},
			{
				"x": 3.3541938191,
				"y": 3.9178342431,
				"z": -0.7317022395,
				"element": "H" 
			}
		],
		 "valence_orbital": [ 
			{
				"type": "occ",
				"energy": -0.30135,
				"method": "rhf"
			},
			{
				"type": "occ",
				"energy": -0.29508,
				"method": "rhf"
			},
			{
				"type": "occ",
				"energy": -0.27537,
				"method": "rhf"
			},
			{
				"type": "occ",
				"energy": -0.26674,
				"method": "rhf"
			},
			{
				"type": "occ",
				"energy": -0.24316,
				"method": "rhf"
			},
			{
				"type": "unocc",
				"energy": -0.091,
				"method": "rhf"
			},
			{
				"type": "unocc",
				"energy": -0.0356,
				"method": "rhf"
			},
			{
				"type": "unocc",
				"energy": -0.01432,
				"method": "rhf"
			},
			{
				"type": "unocc",
				"energy": 0.0185,
				"method": "rhf"
			},
			{
				"type": "unocc",
				"energy": 0.06996,
				"method": "rhf"
			}
		],
		"cosmo_sigma_profile": { 
			"-0.025": 0.0,
			"-0.024": 0.0,
			"-0.023": 0.0,
			"-0.022": 0.0,
			"-0.021": 0.0,
			"-0.02": 0.0,
			"-0.019": 0.0,
			"-0.018": 0.0,
			"-0.017": 0.0,
			"-0.016": 0.0,
			"-0.015": 0.0,
			"-0.014": 0.0,
			"-0.013": 0.0,
			"-0.012": 0.0,
			"-0.011": 0.0,
			"-0.01": 0.229383927147,
			"-0.009": 2.86364086747,
			"-0.008": 6.49356072264,
			"-0.007": 12.0730743407,
			"-0.006": 18.9466828564,
			"-0.005": 19.8696967893,
			"-0.004": 18.1541750326,
			"-0.003": 15.5206223713,
			"-0.002": 14.9653738657,
			"-0.001": 17.0494147666,
			"0.0": 18.2724409053,
			"0.001": 15.0105819371,
			"0.002": 11.9202724287,
			"0.003": 6.43448194012,
			"0.004": 3.98921683479,
			"0.005": 6.10332589477,
			"0.006": 6.18629741026,
			"0.007": 5.54500723299,
			"0.008": 5.64688093842,
			"0.009": 6.22618401558,
			"0.01": 6.81249746192,
			"0.011": 7.32945265317,
			"0.012": 5.99538960669,
			"0.013": 2.45716279216,
			"0.014": 0.455770994177,
			"0.015": 0.0,
			"0.016": 0.0,
			"0.017": 0.0,
			"0.018": 0.0,
			"0.019": 0.0,
			"0.02": 0.0,
			"0.021": 0.0,
			"0.022": 0.0,
			"0.023": 0.0,
			"0.024": 0.0,
			"0.025": 0.0
		}
	}
}
