{
	 "smiles": "COC1=CC=C(C#N)C2=C1C=CC=C2", 
	 "Tm": 374.65, 
	 "num_atms": 23, 
	 "gaussian": { 
		 "optdone": 1, 
		 "sigma_profile": "yes", 
		 "theory": "DFT", 
		 "functional": "B3LYP", 
		 "basiset": "6-31G**", 
		 "properties": { 
			 "R2extent": 3280.6595, 
			 "electric_dipole_moment_norm": 5.84446204282, 
			 "electric_quadrupole_moment_norm": 19.2605389058, 
			 "total_energy": -592.662572125, 
			 "HOMO_LUMO_gap": 0.16044, 
			 "cosmo_polarized_energy": -11.0, 
			 "cosmo_cavitation_energy": 27.71, 
			 "cosmo_dispersion_energy": -20.01, 
			 "cosmo_repulsion_energy": 1.54, 
			 "cosmo_total_nonelectrostatic_energy": 9.24, 
			 "SMD_solvation_energy": 6.55 
		},
		"coords": [
			{
				"x": -3.0488728294,
				"y": 0.1150498681,
				"z": -0.5323714758,
				"element": "C" 
			},
			{
				"x": -2.2133996981,
				"y": -0.2940215609,
				"z": 0.5433638259,
				"element": "O" 
			},
			{
				"x": -0.873333678,
				"y": -0.1182726478,
				"z": 0.4312334611,
				"element": "C" 
			},
			{
				"x": -0.2487915061,
				"y": 0.4390941049,
				"z": -0.6716814128,
				"element": "C" 
			},
			{
				"x": 1.1521889058,
				"y": 0.5782961225,
				"z": -0.6905464236,
				"element": "C" 
			},
			{
				"x": 1.9317249106,
				"y": 0.1676501537,
				"z": 0.377660663,
				"element": "C" 
			},
			{
				"x": 3.3519326292,
				"y": 0.3255012322,
				"z": 0.3212905616,
				"element": "C" 
			},
			{
				"x": 4.5091027152,
				"y": 0.4510404557,
				"z": 0.2820532867,
				"element": "N" 
			},
			{
				"x": 1.3139373448,
				"y": -0.4147200331,
				"z": 1.5374056035,
				"element": "C" 
			},
			{
				"x": -0.1071691971,
				"y": -0.558576819,
				"z": 1.5621811789,
				"element": "C" 
			},
			{
				"x": -0.7282586085,
				"y": -1.131905498,
				"z": 2.7009789096,
				"element": "C" 
			},
			{
				"x": 0.0278410359,
				"y": -1.5474805348,
				"z": 3.7754335398,
				"element": "C" 
			},
			{
				"x": 1.433630951,
				"y": -1.4060580485,
				"z": 3.7530774101,
				"element": "C" 
			},
			{
				"x": 2.0629629484,
				"y": -0.8523444024,
				"z": 2.6591853321,
				"element": "C" 
			},
			{
				"x": -2.8113385839,
				"y": -0.4318319983,
				"z": -1.4527395464,
				"element": "H" 
			},
			{
				"x": -2.9627854171,
				"y": 1.1925156227,
				"z": -0.7174084798,
				"element": "H" 
			},
			{
				"x": -4.0684493891,
				"y": -0.1192787314,
				"z": -0.2247246947,
				"element": "H" 
			},
			{
				"x": -0.8198548716,
				"y": 0.7734657704,
				"z": -1.5283506566,
				"element": "H" 
			},
			{
				"x": 1.6297085841,
				"y": 1.0165049977,
				"z": -1.5606717602,
				"element": "H" 
			},
			{
				"x": -1.806765309,
				"y": -1.235723127,
				"z": 2.7077724052,
				"element": "H" 
			},
			{
				"x": -0.4567524188,
				"y": -1.9852851395,
				"z": 4.6430018886,
				"element": "H" 
			},
			{
				"x": 2.0222826734,
				"y": -1.7360618431,
				"z": 4.6039652153,
				"element": "H" 
			},
			{
				"x": 3.1428588082,
				"y": -0.7434579442,
				"z": 2.6413911683,
				"element": "H" 
			}
		],
		 "valence_orbital": [ 
			{
				"type": "occ",
				"energy": -0.32095,
				"method": "rhf"
			},
			{
				"type": "occ",
				"energy": -0.31282,
				"method": "rhf"
			},
			{
				"type": "occ",
				"energy": -0.27274,
				"method": "rhf"
			},
			{
				"type": "occ",
				"energy": -0.25898,
				"method": "rhf"
			},
			{
				"type": "occ",
				"energy": -0.21815,
				"method": "rhf"
			},
			{
				"type": "unocc",
				"energy": -0.05771,
				"method": "rhf"
			},
			{
				"type": "unocc",
				"energy": -0.02322,
				"method": "rhf"
			},
			{
				"type": "unocc",
				"energy": 0.0027,
				"method": "rhf"
			},
			{
				"type": "unocc",
				"energy": 0.04272,
				"method": "rhf"
			},
			{
				"type": "unocc",
				"energy": 0.07799,
				"method": "rhf"
			}
		],
		"cosmo_sigma_profile": { 
			"-0.025": 0.0,
			"-0.024": 0.0,
			"-0.023": 0.0,
			"-0.022": 0.0,
			"-0.021": 0.0,
			"-0.02": 0.0,
			"-0.019": 0.0,
			"-0.018": 0.0,
			"-0.017": 0.0,
			"-0.016": 0.0,
			"-0.015": 0.0,
			"-0.014": 0.0,
			"-0.013": 0.0,
			"-0.012": 0.0,
			"-0.011": 0.0,
			"-0.01": 0.0,
			"-0.009": 0.0,
			"-0.008": 2.03178459596,
			"-0.007": 7.71108459814,
			"-0.006": 17.7962225368,
			"-0.005": 18.7496985671,
			"-0.004": 18.9133176644,
			"-0.003": 14.6186895054,
			"-0.002": 11.4399958643,
			"-0.001": 13.8060396305,
			"0.0": 14.9840926669,
			"0.001": 21.2013844918,
			"0.002": 21.5594868224,
			"0.003": 17.7306755542,
			"0.004": 13.3753559495,
			"0.005": 5.29481424676,
			"0.006": 4.34800889987,
			"0.007": 2.06504293652,
			"0.008": 3.18570301673,
			"0.009": 3.27948394396,
			"0.01": 3.18259888405,
			"0.011": 2.93487973014,
			"0.012": 2.75667119334,
			"0.013": 2.26185490214,
			"0.014": 0.423793740047,
			"0.015": 0.0,
			"0.016": 0.0,
			"0.017": 0.0,
			"0.018": 0.0,
			"0.019": 0.0,
			"0.02": 0.0,
			"0.021": 0.0,
			"0.022": 0.0,
			"0.023": 0.0,
			"0.024": 0.0,
			"0.025": 0.0
		}
	}
}
