{
	 "smiles": "FC(F)(F)COC(=O)NC1=NN=CS1", 
	 "Tm": 487.15, 
	 "num_atms": 18, 
	 "gaussian": { 
		 "optdone": 1, 
		 "sigma_profile": "yes", 
		 "theory": "DFT", 
		 "functional": "B3LYP", 
		 "basiset": "6-31G**", 
		 "properties": { 
			 "R2extent": 3708.0527, 
			 "electric_dipole_moment_norm": 2.20771011911, 
			 "electric_quadrupole_moment_norm": 12.1588270536, 
			 "total_energy": -1205.33261744, 
			 "HOMO_LUMO_gap": 0.2128, 
			 "cosmo_polarized_energy": -14.6, 
			 "cosmo_cavitation_energy": 27.25, 
			 "cosmo_dispersion_energy": -19.45, 
			 "cosmo_repulsion_energy": 1.43, 
			 "cosmo_total_nonelectrostatic_energy": 9.24, 
			 "SMD_solvation_energy": 5.64 
		},
		"coords": [
			{
				"x": 1.9794031407,
				"y": -3.1098307751,
				"z": 1.0244441769,
				"element": "F" 
			},
			{
				"x": 1.7087031042,
				"y": -1.9653824608,
				"z": 0.3663379993,
				"element": "C" 
			},
			{
				"x": 1.5943282157,
				"y": -2.248232534,
				"z": -0.9435448314,
				"element": "F" 
			},
			{
				"x": 2.7538435259,
				"y": -1.1328309984,
				"z": 0.5192515983,
				"element": "F" 
			},
			{
				"x": 0.4309552523,
				"y": -1.3678072048,
				"z": 0.9235349028,
				"element": "C" 
			},
			{
				"x": 0.1928710245,
				"y": -0.1648199366,
				"z": 0.1934820359,
				"element": "O" 
			},
			{
				"x": -0.9195072158,
				"y": 0.5181204155,
				"z": 0.557413085,
				"element": "C" 
			},
			{
				"x": -1.6868307536,
				"y": 0.1779251512,
				"z": 1.4305259316,
				"element": "O" 
			},
			{
				"x": -1.0689139282,
				"y": 1.6600848036,
				"z": -0.1961034673,
				"element": "N" 
			},
			{
				"x": -0.2921050462,
				"y": 2.1851648637,
				"z": -1.217593925,
				"element": "C" 
			},
			{
				"x": -0.6556938593,
				"y": 3.3055869822,
				"z": -1.7836873098,
				"element": "N" 
			},
			{
				"x": 0.2056640678,
				"y": 3.6984088879,
				"z": -2.7717465656,
				"element": "N" 
			},
			{
				"x": 1.1943604067,
				"y": 2.8741233874,
				"z": -2.9309882784,
				"element": "C" 
			},
			{
				"x": 1.1812676408,
				"y": 1.4880980744,
				"z": -1.8614222683,
				"element": "S" 
			},
			{
				"x": -0.3921577654,
				"y": -2.0739078839,
				"z": 0.7919504446,
				"element": "H" 
			},
			{
				"x": 0.5571151572,
				"y": -1.1599585474,
				"z": 1.9885545737,
				"element": "H" 
			},
			{
				"x": -1.8852756068,
				"y": 2.2143841075,
				"z": 0.0318105331,
				"element": "H" 
			},
			{
				"x": 1.9777726396,
				"y": 3.0159736675,
				"z": -3.6649186354,
				"element": "H" 
			}
		],
		 "valence_orbital": [ 
			{
				"type": "occ",
				"energy": -0.32512,
				"method": "rhf"
			},
			{
				"type": "occ",
				"energy": -0.30985,
				"method": "rhf"
			},
			{
				"type": "occ",
				"energy": -0.30702,
				"method": "rhf"
			},
			{
				"type": "occ",
				"energy": -0.27514,
				"method": "rhf"
			},
			{
				"type": "occ",
				"energy": -0.25889,
				"method": "rhf"
			},
			{
				"type": "unocc",
				"energy": -0.04609,
				"method": "rhf"
			},
			{
				"type": "unocc",
				"energy": -0.00281,
				"method": "rhf"
			},
			{
				"type": "unocc",
				"energy": 0.00681,
				"method": "rhf"
			},
			{
				"type": "unocc",
				"energy": 0.04443,
				"method": "rhf"
			},
			{
				"type": "unocc",
				"energy": 0.05028,
				"method": "rhf"
			}
		],
		"cosmo_sigma_profile": { 
			"-0.025": 0.0,
			"-0.024": 0.0,
			"-0.023": 0.0,
			"-0.022": 0.0,
			"-0.021": 0.0,
			"-0.02": 0.0,
			"-0.019": 0.0,
			"-0.018": 0.00291970233763,
			"-0.017": 0.54074349091,
			"-0.016": 0.915730740846,
			"-0.015": 0.734606388781,
			"-0.014": 0.833796739338,
			"-0.013": 0.604550399631,
			"-0.012": 0.81674624088,
			"-0.011": 3.12220297483,
			"-0.01": 5.55861775007,
			"-0.009": 7.38559781137,
			"-0.008": 6.74135206251,
			"-0.007": 6.79310667984,
			"-0.006": 6.12506904336,
			"-0.005": 8.77702976901,
			"-0.004": 9.61137931899,
			"-0.003": 11.4904137337,
			"-0.002": 13.9439739473,
			"-0.001": 11.9975727459,
			"0.0": 14.3249137079,
			"0.001": 18.9842061858,
			"0.002": 34.9995936803,
			"0.003": 15.9094756725,
			"0.004": 3.00601320161,
			"0.005": 2.41660837357,
			"0.006": 3.60411806229,
			"0.007": 2.74502439461,
			"0.008": 3.37751001562,
			"0.009": 4.47460207783,
			"0.01": 4.95097201433,
			"0.011": 8.81089973368,
			"0.012": 3.15196717389,
			"0.013": 2.8815679336,
			"0.014": 1.4263817838,
			"0.015": 0.220339190084,
			"0.016": 0.0,
			"0.017": 0.0,
			"0.018": 0.0,
			"0.019": 0.0,
			"0.02": 0.0,
			"0.021": 0.0,
			"0.022": 0.0,
			"0.023": 0.0,
			"0.024": 0.0,
			"0.025": 0.0
		}
	}
}
