{
	 "smiles": "COC1=CC=C(CNC2=CC=NC=C2)C=C1", 
	 "Tm": 400.15, 
	 "num_atms": 30, 
	 "gaussian": { 
		 "optdone": 1, 
		 "sigma_profile": "yes", 
		 "theory": "DFT", 
		 "functional": "B3LYP", 
		 "basiset": "6-31G**", 
		 "properties": { 
			 "R2extent": 6288.733, 
			 "electric_dipole_moment_norm": 5.20250273618, 
			 "electric_quadrupole_moment_norm": 22.8648493949, 
			 "total_energy": -688.534200279, 
			 "HOMO_LUMO_gap": 0.19877, 
			 "cosmo_polarized_energy": -13.31, 
			 "cosmo_cavitation_energy": 33.99, 
			 "cosmo_dispersion_energy": -24.78, 
			 "cosmo_repulsion_energy": 1.92, 
			 "cosmo_total_nonelectrostatic_energy": 11.13, 
			 "SMD_solvation_energy": 4.27 
		},
		"coords": [
			{
				"x": -0.4256966595,
				"y": -5.1979647094,
				"z": 2.3191890035,
				"element": "C" 
			},
			{
				"x": -0.334588481,
				"y": -4.8711915173,
				"z": 0.9411789067,
				"element": "O" 
			},
			{
				"x": -0.1619522565,
				"y": -3.5632513626,
				"z": 0.5960525823,
				"element": "C" 
			},
			{
				"x": -0.0760281124,
				"y": -3.3014854542,
				"z": -0.7786882346,
				"element": "C" 
			},
			{
				"x": 0.0983057287,
				"y": -1.998365613,
				"z": -1.2299970801,
				"element": "C" 
			},
			{
				"x": 0.1979072861,
				"y": -0.9259829419,
				"z": -0.3323444169,
				"element": "C" 
			},
			{
				"x": 0.3914037043,
				"y": 0.4912787639,
				"z": -0.8239728756,
				"element": "C" 
			},
			{
				"x": -0.7294221135,
				"y": 1.3360864337,
				"z": -0.4240793938,
				"element": "N" 
			},
			{
				"x": -0.8081293066,
				"y": 2.6770569412,
				"z": -0.7286100962,
				"element": "C" 
			},
			{
				"x": 0.2839417406,
				"y": 3.4184833006,
				"z": -1.2194718629,
				"element": "C" 
			},
			{
				"x": 0.1176404858,
				"y": 4.7806366809,
				"z": -1.4596248382,
				"element": "C" 
			},
			{
				"x": -1.0186443066,
				"y": 5.4615509411,
				"z": -1.2683599677,
				"element": "N" 
			},
			{
				"x": -2.0558785087,
				"y": 4.7430033638,
				"z": -0.8073606987,
				"element": "C" 
			},
			{
				"x": -2.0117863795,
				"y": 3.3851985261,
				"z": -0.5269065451,
				"element": "C" 
			},
			{
				"x": 0.1096124327,
				"y": -1.2017733606,
				"z": 1.0361668211,
				"element": "C" 
			},
			{
				"x": -0.0698813226,
				"y": -2.5032477375,
				"z": 1.5081862256,
				"element": "C" 
			},
			{
				"x": -0.5589969596,
				"y": -6.2798460992,
				"z": 2.363872798,
				"element": "H" 
			},
			{
				"x": 0.4883685681,
				"y": -4.9248135601,
				"z": 2.8619578358,
				"element": "H" 
			},
			{
				"x": -1.285083965,
				"y": -4.7091317696,
				"z": 2.7960059324,
				"element": "H" 
			},
			{
				"x": -0.1518664041,
				"y": -4.1337585383,
				"z": -1.4706544756,
				"element": "H" 
			},
			{
				"x": 0.1602523612,
				"y": -1.8102025307,
				"z": -2.2989817702,
				"element": "H" 
			},
			{
				"x": 1.3095443443,
				"y": 0.9132971794,
				"z": -0.394156852,
				"element": "H" 
			},
			{
				"x": 0.5284091463,
				"y": 0.4895310132,
				"z": -1.9170531594,
				"element": "H" 
			},
			{
				"x": -1.6114474372,
				"y": 0.8528576533,
				"z": -0.3282701335,
				"element": "H" 
			},
			{
				"x": 1.2426496331,
				"y": 2.9520674466,
				"z": -1.4146735565,
				"element": "H" 
			},
			{
				"x": 0.961267659,
				"y": 5.3574165786,
				"z": -1.8376472877,
				"element": "H" 
			},
			{
				"x": -2.9848349739,
				"y": 5.2905062123,
				"z": -0.6527487568,
				"element": "H" 
			},
			{
				"x": -2.8941748669,
				"y": 2.8732490606,
				"z": -0.1514482415,
				"element": "H" 
			},
			{
				"x": 0.1800321768,
				"y": -0.3849516615,
				"z": 1.7497261772,
				"element": "H" 
			},
			{
				"x": -0.1313232133,
				"y": -2.6783532393,
				"z": 2.5757139604,
				"element": "H" 
			}
		],
		 "valence_orbital": [ 
			{
				"type": "occ",
				"energy": -0.26,
				"method": "rhf"
			},
			{
				"type": "occ",
				"energy": -0.24883,
				"method": "rhf"
			},
			{
				"type": "occ",
				"energy": -0.23873,
				"method": "rhf"
			},
			{
				"type": "occ",
				"energy": -0.22575,
				"method": "rhf"
			},
			{
				"type": "occ",
				"energy": -0.21137,
				"method": "rhf"
			},
			{
				"type": "unocc",
				"energy": -0.0126,
				"method": "rhf"
			},
			{
				"type": "unocc",
				"energy": -0.00027,
				"method": "rhf"
			},
			{
				"type": "unocc",
				"energy": 0.00391,
				"method": "rhf"
			},
			{
				"type": "unocc",
				"energy": 0.00944,
				"method": "rhf"
			},
			{
				"type": "unocc",
				"energy": 0.08466,
				"method": "rhf"
			}
		],
		"cosmo_sigma_profile": { 
			"-0.025": 0.0,
			"-0.024": 0.0,
			"-0.023": 0.0,
			"-0.022": 0.0,
			"-0.021": 0.0,
			"-0.02": 0.0,
			"-0.019": 0.0,
			"-0.018": 0.0,
			"-0.017": 0.0,
			"-0.016": 0.0,
			"-0.015": 0.0,
			"-0.014": 0.0,
			"-0.013": 0.49823216918,
			"-0.012": 0.883071771233,
			"-0.011": 1.48746708688,
			"-0.01": 1.00540848685,
			"-0.009": 1.19025615661,
			"-0.008": 1.66055418687,
			"-0.007": 2.08377456557,
			"-0.006": 14.1211511404,
			"-0.005": 27.2982223721,
			"-0.004": 30.317880103,
			"-0.003": 26.8980915832,
			"-0.002": 19.1723841634,
			"-0.001": 14.632494009,
			"0.0": 13.0486813363,
			"0.001": 13.5783195983,
			"0.002": 13.4435842634,
			"0.003": 16.3085169091,
			"0.004": 24.6754656055,
			"0.005": 19.0414173805,
			"0.006": 8.68951338086,
			"0.007": 3.32936089443,
			"0.008": 2.71082678952,
			"0.009": 3.34747388467,
			"0.01": 3.20659368836,
			"0.011": 1.35571836113,
			"0.012": 0.874468157482,
			"0.013": 0.777243238441,
			"0.014": 1.16442663639,
			"0.015": 1.02975467676,
			"0.016": 0.923255553234,
			"0.017": 0.897985423592,
			"0.018": 0.778630776725,
			"0.019": 0.0295843762875,
			"0.02": 0.0,
			"0.021": 0.0,
			"0.022": 0.0,
			"0.023": 0.0,
			"0.024": 0.0,
			"0.025": 0.0
		}
	}
}
