{
	 "smiles": "C(NCC1=CC=CC=C1)C1=CC=CC=C1", 
	 "Tm": 247.15, 
	 "num_atms": 30, 
	 "gaussian": { 
		 "optdone": 1, 
		 "sigma_profile": "yes", 
		 "theory": "DFT", 
		 "functional": "B3LYP", 
		 "basiset": "6-31G**", 
		 "properties": { 
			 "R2extent": 4757.4975, 
			 "electric_dipole_moment_norm": 1.03402871333, 
			 "electric_quadrupole_moment_norm": 2.60071240048, 
			 "total_energy": -597.27850344, 
			 "HOMO_LUMO_gap": 0.21419, 
			 "cosmo_polarized_energy": -7.35, 
			 "cosmo_cavitation_energy": 33.29, 
			 "cosmo_dispersion_energy": -23.63, 
			 "cosmo_repulsion_energy": 1.86, 
			 "cosmo_total_nonelectrostatic_energy": 11.52, 
			 "SMD_solvation_energy": 3.79 
		},
		"coords": [
			{
				"x": -2.5108068737,
				"y": 0.3988123396,
				"z": -0.8662242187,
				"element": "C" 
			},
			{
				"x": -1.0958814279,
				"y": 0.754563626,
				"z": -1.0333301448,
				"element": "N" 
			},
			{
				"x": -0.305109876,
				"y": 0.7289393726,
				"z": 0.1979097977,
				"element": "C" 
			},
			{
				"x": 1.1242874438,
				"y": 1.171187026,
				"z": -0.048637963,
				"element": "C" 
			},
			{
				"x": 2.1900939601,
				"y": 0.5151629848,
				"z": 0.5782476163,
				"element": "C" 
			},
			{
				"x": 3.5062183237,
				"y": 0.9389818767,
				"z": 0.3819709966,
				"element": "C" 
			},
			{
				"x": 3.7735431708,
				"y": 2.0237110633,
				"z": -0.4540550517,
				"element": "C" 
			},
			{
				"x": 2.7171585151,
				"y": 2.6803253138,
				"z": -1.09072662,
				"element": "C" 
			},
			{
				"x": 1.40320988,
				"y": 2.2582866202,
				"z": -0.8889465344,
				"element": "C" 
			},
			{
				"x": -2.7926684353,
				"y": -1.0191170111,
				"z": -0.3895070803,
				"element": "C" 
			},
			{
				"x": -2.7398662833,
				"y": -2.0910755902,
				"z": -1.2924777044,
				"element": "C" 
			},
			{
				"x": -2.9549207072,
				"y": -3.401114939,
				"z": -0.8652496617,
				"element": "C" 
			},
			{
				"x": -3.2290851651,
				"y": -3.6620921991,
				"z": 0.4797153908,
				"element": "C" 
			},
			{
				"x": -3.2887453409,
				"y": -2.6053577291,
				"z": 1.3890038006,
				"element": "C" 
			},
			{
				"x": -3.0724783993,
				"y": -1.2954214528,
				"z": 0.9549441369,
				"element": "C" 
			},
			{
				"x": -3.0006113274,
				"y": 0.5609537124,
				"z": -1.8337380382,
				"element": "H" 
			},
			{
				"x": -2.9504517375,
				"y": 1.1167187244,
				"z": -0.1629292136,
				"element": "H" 
			},
			{
				"x": -0.6662061842,
				"y": 0.1341307087,
				"z": -1.7165659445,
				"element": "H" 
			},
			{
				"x": -0.2979646151,
				"y": -0.2531069516,
				"z": 0.7006186791,
				"element": "H" 
			},
			{
				"x": -0.7873450201,
				"y": 1.4247290794,
				"z": 0.9013804795,
				"element": "H" 
			},
			{
				"x": 1.9874228126,
				"y": -0.3361643896,
				"z": 1.2240955574,
				"element": "H" 
			},
			{
				"x": 4.3211981851,
				"y": 0.4171615015,
				"z": 0.8761230727,
				"element": "H" 
			},
			{
				"x": 4.7967576569,
				"y": 2.3529681687,
				"z": -0.6120661915,
				"element": "H" 
			},
			{
				"x": 2.9180487911,
				"y": 3.5239365163,
				"z": -1.7457115249,
				"element": "H" 
			},
			{
				"x": 0.5784161311,
				"y": 2.7569472539,
				"z": -1.3884378436,
				"element": "H" 
			},
			{
				"x": -2.5359846318,
				"y": -1.8947899386,
				"z": -2.3434748109,
				"element": "H" 
			},
			{
				"x": -2.9158838052,
				"y": -4.2176071869,
				"z": -1.5810878058,
				"element": "H" 
			},
			{
				"x": -3.4000739937,
				"y": -4.6813226135,
				"z": 0.8142053898,
				"element": "H" 
			},
			{
				"x": -3.5065805938,
				"y": -2.7990860208,
				"z": 2.4357281307,
				"element": "H" 
			},
			{
				"x": -3.129090453,
				"y": -0.475259866,
				"z": 1.6671233038,
				"element": "H" 
			}
		],
		 "valence_orbital": [ 
			{
				"type": "occ",
				"energy": -0.25069,
				"method": "rhf"
			},
			{
				"type": "occ",
				"energy": -0.2473,
				"method": "rhf"
			},
			{
				"type": "occ",
				"energy": -0.24268,
				"method": "rhf"
			},
			{
				"type": "occ",
				"energy": -0.23864,
				"method": "rhf"
			},
			{
				"type": "occ",
				"energy": -0.21859,
				"method": "rhf"
			},
			{
				"type": "unocc",
				"energy": -0.0044,
				"method": "rhf"
			},
			{
				"type": "unocc",
				"energy": -0.00202,
				"method": "rhf"
			},
			{
				"type": "unocc",
				"energy": 0.00442,
				"method": "rhf"
			},
			{
				"type": "unocc",
				"energy": 0.00669,
				"method": "rhf"
			},
			{
				"type": "unocc",
				"energy": 0.08886,
				"method": "rhf"
			}
		],
		"cosmo_sigma_profile": { 
			"-0.025": 0.0,
			"-0.024": 0.0,
			"-0.023": 0.0,
			"-0.022": 0.0,
			"-0.021": 0.0,
			"-0.02": 0.0,
			"-0.019": 0.0,
			"-0.018": 0.0,
			"-0.017": 0.0,
			"-0.016": 0.0,
			"-0.015": 0.0,
			"-0.014": 0.0,
			"-0.013": 0.0,
			"-0.012": 0.0,
			"-0.011": 0.0,
			"-0.01": 0.15395299439,
			"-0.009": 0.941451874433,
			"-0.008": 1.05219652808,
			"-0.007": 1.31554403171,
			"-0.006": 5.60068285438,
			"-0.005": 20.6494311966,
			"-0.004": 30.0577816077,
			"-0.003": 31.7518981434,
			"-0.002": 21.6022450373,
			"-0.001": 22.4687446864,
			"0.0": 18.0519502539,
			"0.001": 16.2808588869,
			"0.002": 16.3153891444,
			"0.003": 15.4185963645,
			"0.004": 17.7704645001,
			"0.005": 16.0437294623,
			"0.006": 17.321537811,
			"0.007": 6.29556337362,
			"0.008": 0.813455403479,
			"0.009": 0.790182195882,
			"0.01": 1.06591329225,
			"0.011": 0.522288410705,
			"0.012": 0.72171846936,
			"0.013": 0.167712022872,
			"0.014": 0.658263979457,
			"0.015": 0.0940866338332,
			"0.016": 0.0,
			"0.017": 0.0,
			"0.018": 0.0,
			"0.019": 0.0,
			"0.02": 0.0,
			"0.021": 0.0,
			"0.022": 0.0,
			"0.023": 0.0,
			"0.024": 0.0,
			"0.025": 0.0
		}
	}
}
