{
	 "smiles": "CC1=C(CC#N)C(=NO1)C1=C(Cl)C=CC=C1Cl", 
	 "Tm": 349.65, 
	 "num_atms": 25, 
	 "gaussian": { 
		 "optdone": 1, 
		 "sigma_profile": "yes", 
		 "theory": "DFT", 
		 "functional": "B3LYP", 
		 "basiset": "6-31G**", 
		 "properties": { 
			 "R2extent": 4887.1716, 
			 "electric_dipole_moment_norm": 3.20400135144, 
			 "electric_quadrupole_moment_norm": 34.3869700262, 
			 "total_energy": -1567.14087987, 
			 "HOMO_LUMO_gap": 0.21662, 
			 "cosmo_polarized_energy": -17.1, 
			 "cosmo_cavitation_energy": 34.82, 
			 "cosmo_dispersion_energy": -22.93, 
			 "cosmo_repulsion_energy": 1.8, 
			 "cosmo_total_nonelectrostatic_energy": 13.69, 
			 "SMD_solvation_energy": 6.82 
		},
		"coords": [
			{
				"x": 3.930776022,
				"y": 0.023326554,
				"z": -0.7267928968,
				"element": "C" 
			},
			{
				"x": 2.5450157818,
				"y": 0.5302721954,
				"z": -0.9272815553,
				"element": "C" 
			},
			{
				"x": 1.315851307,
				"y": 0.1311510052,
				"z": -0.4839497919,
				"element": "C" 
			},
			{
				"x": 0.971783589,
				"y": -1.0150422103,
				"z": 0.4290891762,
				"element": "C" 
			},
			{
				"x": 0.5035889317,
				"y": -2.2156301473,
				"z": -0.2811884736,
				"element": "C" 
			},
			{
				"x": 0.1381755677,
				"y": -3.1652153342,
				"z": -0.8389533291,
				"element": "N" 
			},
			{
				"x": 0.4191512184,
				"y": 1.0731856158,
				"z": -1.0846345256,
				"element": "C" 
			},
			{
				"x": 1.0571094226,
				"y": 1.9605702465,
				"z": -1.8131770489,
				"element": "N" 
			},
			{
				"x": 2.4052302627,
				"y": 1.6170412316,
				"z": -1.714938918,
				"element": "O" 
			},
			{
				"x": -1.0597536868,
				"y": 1.1272948093,
				"z": -0.9699942568,
				"element": "C" 
			},
			{
				"x": -1.8985300574,
				"y": 0.670157458,
				"z": -2.0034656904,
				"element": "C" 
			},
			{
				"x": -1.2066228643,
				"y": 0.0013032299,
				"z": -3.4644572346,
				"element": "Cl" 
			},
			{
				"x": -3.288156214,
				"y": 0.7195760391,
				"z": -1.898012802,
				"element": "C" 
			},
			{
				"x": -3.8698341535,
				"y": 1.2320377579,
				"z": -0.7410583445,
				"element": "C" 
			},
			{
				"x": -3.0751255716,
				"y": 1.6906942062,
				"z": 0.3073864644,
				"element": "C" 
			},
			{
				"x": -1.6890677829,
				"y": 1.6322693636,
				"z": 0.1810811731,
				"element": "C" 
			},
			{
				"x": -0.7124275517,
				"y": 2.2220163499,
				"z": 1.5192084842,
				"element": "Cl" 
			},
			{
				"x": 4.3432989588,
				"y": -0.3602085417,
				"z": -1.665942188,
				"element": "H" 
			},
			{
				"x": 4.5885631533,
				"y": 0.8244212329,
				"z": -0.3758647792,
				"element": "H" 
			},
			{
				"x": 3.9441208822,
				"y": -0.7860970668,
				"z": 0.0061797716,
				"element": "H" 
			},
			{
				"x": 0.1937310114,
				"y": -0.7122011411,
				"z": 1.139162073,
				"element": "H" 
			},
			{
				"x": 1.8433621089,
				"y": -1.2967323864,
				"z": 1.0303499038,
				"element": "H" 
			},
			{
				"x": -3.8984304364,
				"y": 0.3560711604,
				"z": -2.7163641273,
				"element": "H" 
			},
			{
				"x": -4.9510770189,
				"y": 1.272795912,
				"z": -0.6545087115,
				"element": "H" 
			},
			{
				"x": -3.5164328801,
				"y": 2.0928424602,
				"z": 1.2117276271,
				"element": "H" 
			}
		],
		 "valence_orbital": [ 
			{
				"type": "occ",
				"energy": -0.31226,
				"method": "rhf"
			},
			{
				"type": "occ",
				"energy": -0.30052,
				"method": "rhf"
			},
			{
				"type": "occ",
				"energy": -0.27218,
				"method": "rhf"
			},
			{
				"type": "occ",
				"energy": -0.26574,
				"method": "rhf"
			},
			{
				"type": "occ",
				"energy": -0.25923,
				"method": "rhf"
			},
			{
				"type": "unocc",
				"energy": -0.04261,
				"method": "rhf"
			},
			{
				"type": "unocc",
				"energy": -0.03391,
				"method": "rhf"
			},
			{
				"type": "unocc",
				"energy": -0.02221,
				"method": "rhf"
			},
			{
				"type": "unocc",
				"energy": -0.00125,
				"method": "rhf"
			},
			{
				"type": "unocc",
				"energy": 0.02023,
				"method": "rhf"
			}
		],
		"cosmo_sigma_profile": { 
			"-0.025": 0.0,
			"-0.024": 0.0,
			"-0.023": 0.0,
			"-0.022": 0.0,
			"-0.021": 0.0,
			"-0.02": 0.0,
			"-0.019": 0.0,
			"-0.018": 0.0,
			"-0.017": 0.0,
			"-0.016": 0.0,
			"-0.015": 0.0,
			"-0.014": 0.0,
			"-0.013": 0.0,
			"-0.012": 0.0,
			"-0.011": 0.0236360489894,
			"-0.01": 2.78065986234,
			"-0.009": 4.52354045425,
			"-0.008": 10.1575401177,
			"-0.007": 13.9650717235,
			"-0.006": 16.1447322827,
			"-0.005": 14.6857046398,
			"-0.004": 14.9673773255,
			"-0.003": 18.7051170156,
			"-0.002": 18.3839061827,
			"-0.001": 16.9491749872,
			"0.0": 24.0439613531,
			"0.001": 25.5361050691,
			"0.002": 22.1636244724,
			"0.003": 19.25226194,
			"0.004": 14.8151676027,
			"0.005": 6.36608115957,
			"0.006": 7.4450797648,
			"0.007": 7.17822815214,
			"0.008": 6.75970256562,
			"0.009": 4.75193820324,
			"0.01": 4.22291159445,
			"0.011": 4.64302599118,
			"0.012": 3.44893691279,
			"0.013": 2.61772224081,
			"0.014": 0.503545415642,
			"0.015": 0.0,
			"0.016": 0.0,
			"0.017": 0.0,
			"0.018": 0.0,
			"0.019": 0.0,
			"0.02": 0.0,
			"0.021": 0.0,
			"0.022": 0.0,
			"0.023": 0.0,
			"0.024": 0.0,
			"0.025": 0.0
		}
	}
}
