{
	 "smiles": "OC(=O)C1=CC(Cl)=NN=C1Cl", 
	 "Tm": 412.15, 
	 "num_atms": 13, 
	 "gaussian": { 
		 "optdone": 1, 
		 "sigma_profile": "yes", 
		 "theory": "DFT", 
		 "functional": "B3LYP", 
		 "basiset": "6-31G**", 
		 "properties": { 
			 "R2extent": 2626.0501, 
			 "electric_dipole_moment_norm": 0.852109341575, 
			 "electric_quadrupole_moment_norm": 16.8992409001, 
			 "total_energy": -1372.02197358, 
			 "HOMO_LUMO_gap": 0.1694, 
			 "cosmo_polarized_energy": -12.88, 
			 "cosmo_cavitation_energy": 22.13, 
			 "cosmo_dispersion_energy": -17.07, 
			 "cosmo_repulsion_energy": 1.36, 
			 "cosmo_total_nonelectrostatic_energy": 6.42, 
			 "SMD_solvation_energy": 2.93 
		},
		"coords": [
			{
				"x": -1.6904543768,
				"y": -0.2996208498,
				"z": 2.9197935203,
				"element": "O" 
			},
			{
				"x": -1.8723981937,
				"y": 0.2678172165,
				"z": 1.7239455563,
				"element": "C" 
			},
			{
				"x": -2.9724397964,
				"y": 0.5984013405,
				"z": 1.3490720305,
				"element": "O" 
			},
			{
				"x": -0.6675976583,
				"y": 0.5019696362,
				"z": 0.8169932327,
				"element": "C" 
			},
			{
				"x": -0.9536947976,
				"y": 1.0991774539,
				"z": -0.4034235879,
				"element": "C" 
			},
			{
				"x": 0.1040974833,
				"y": 1.3428617074,
				"z": -1.2836545123,
				"element": "C" 
			},
			{
				"x": -0.2091532039,
				"y": 2.0896085584,
				"z": -2.8233793214,
				"element": "Cl" 
			},
			{
				"x": 1.3693471805,
				"y": 1.0379719458,
				"z": -1.0254475399,
				"element": "N" 
			},
			{
				"x": 1.6588568029,
				"y": 0.464703518,
				"z": 0.1409037688,
				"element": "N" 
			},
			{
				"x": 0.6993978186,
				"y": 0.2095799298,
				"z": 1.014848046,
				"element": "C" 
			},
			{
				"x": 1.3034235312,
				"y": -0.5488226967,
				"z": 2.4863961145,
				"element": "Cl" 
			},
			{
				"x": -0.7551498066,
				"y": -0.5117173943,
				"z": 3.085863591,
				"element": "H" 
			},
			{
				"x": -1.9787349831,
				"y": 1.3582696344,
				"z": -0.6398108987,
				"element": "H" 
			}
		],
		 "valence_orbital": [ 
			{
				"type": "occ",
				"energy": -0.34551,
				"method": "rhf"
			},
			{
				"type": "occ",
				"energy": -0.33386,
				"method": "rhf"
			},
			{
				"type": "occ",
				"energy": -0.31198,
				"method": "rhf"
			},
			{
				"type": "occ",
				"energy": -0.30243,
				"method": "rhf"
			},
			{
				"type": "occ",
				"energy": -0.28386,
				"method": "rhf"
			},
			{
				"type": "unocc",
				"energy": -0.11446,
				"method": "rhf"
			},
			{
				"type": "unocc",
				"energy": -0.07756,
				"method": "rhf"
			},
			{
				"type": "unocc",
				"energy": -0.01918,
				"method": "rhf"
			},
			{
				"type": "unocc",
				"energy": 0.00299,
				"method": "rhf"
			},
			{
				"type": "unocc",
				"energy": 0.00474,
				"method": "rhf"
			}
		],
		"cosmo_sigma_profile": { 
			"-0.025": 0.0,
			"-0.024": 0.0,
			"-0.023": 0.0,
			"-0.022": 0.0,
			"-0.021": 0.0,
			"-0.02": 0.0,
			"-0.019": 0.0,
			"-0.018": 0.0,
			"-0.017": 0.0,
			"-0.016": 0.0,
			"-0.015": 0.0,
			"-0.014": 0.201089558524,
			"-0.013": 1.31852989578,
			"-0.012": 1.71334097665,
			"-0.011": 2.55818466919,
			"-0.01": 3.20799824902,
			"-0.009": 3.39583527453,
			"-0.008": 5.43071581941,
			"-0.007": 7.42459550417,
			"-0.006": 10.2915742604,
			"-0.005": 13.5750989974,
			"-0.004": 10.3745485064,
			"-0.003": 8.93118361839,
			"-0.002": 9.66016248984,
			"-0.001": 9.54001792922,
			"0.0": 9.97870671988,
			"0.001": 13.832102653,
			"0.002": 15.3204543397,
			"0.003": 10.1174778534,
			"0.004": 5.34697026544,
			"0.005": 4.68234948335,
			"0.006": 4.75710824118,
			"0.007": 5.1938659537,
			"0.008": 5.95075644449,
			"0.009": 7.5039128552,
			"0.01": 7.33404735853,
			"0.011": 4.44323543188,
			"0.012": 2.05567136722,
			"0.013": 0.198670623895,
			"0.014": 0.0,
			"0.015": 0.0,
			"0.016": 0.0,
			"0.017": 0.0,
			"0.018": 0.0,
			"0.019": 0.0,
			"0.02": 0.0,
			"0.021": 0.0,
			"0.022": 0.0,
			"0.023": 0.0,
			"0.024": 0.0,
			"0.025": 0.0
		}
	}
}
