{
	 "smiles": "CC1=CC=CC=C1F", 
	 "Tm": 211.15, 
	 "num_atms": 15, 
	 "gaussian": { 
		 "optdone": 1, 
		 "sigma_profile": "yes", 
		 "theory": "DFT", 
		 "functional": "B3LYP", 
		 "basiset": "6-31G**", 
		 "properties": { 
			 "R2extent": 987.3946, 
			 "electric_dipole_moment_norm": 1.08541278323, 
			 "electric_quadrupole_moment_norm": 5.34281638558, 
			 "total_energy": -370.805659153, 
			 "HOMO_LUMO_gap": 0.23331, 
			 "cosmo_polarized_energy": -3.12, 
			 "cosmo_cavitation_energy": 18.83, 
			 "cosmo_dispersion_energy": -13.93, 
			 "cosmo_repulsion_energy": 1.13, 
			 "cosmo_total_nonelectrostatic_energy": 6.03, 
			 "SMD_solvation_energy": 3.83 
		},
		"coords": [
			{
				"x": -0.1173021488,
				"y": 1.9776093995,
				"z": -0.4845225067,
				"element": "C" 
			},
			{
				"x": -0.3644819561,
				"y": 0.4928053729,
				"z": -0.5600678211,
				"element": "C" 
			},
			{
				"x": -1.6468882074,
				"y": -0.0649415971,
				"z": -0.6193807459,
				"element": "C" 
			},
			{
				"x": -1.8394563634,
				"y": -1.4470726224,
				"z": -0.6886238151,
				"element": "C" 
			},
			{
				"x": -0.7391115235,
				"y": -2.3048733461,
				"z": -0.6999029025,
				"element": "C" 
			},
			{
				"x": 0.5533438539,
				"y": -1.7789465197,
				"z": -0.6418210554,
				"element": "C" 
			},
			{
				"x": 0.7090301838,
				"y": -0.4014049084,
				"z": -0.5736957412,
				"element": "C" 
			},
			{
				"x": 1.9629803761,
				"y": 0.1094551587,
				"z": -0.5174629337,
				"element": "F" 
			},
			{
				"x": 0.4350624588,
				"y": 2.2437657002,
				"z": 0.4232488822,
				"element": "H" 
			},
			{
				"x": 0.4830656688,
				"y": 2.3251311608,
				"z": -1.3323033958,
				"element": "H" 
			},
			{
				"x": -1.0601681631,
				"y": 2.5300779338,
				"z": -0.4846282082,
				"element": "H" 
			},
			{
				"x": -2.5062396348,
				"y": 0.6007247499,
				"z": -0.6108409746,
				"element": "H" 
			},
			{
				"x": -2.8464096449,
				"y": -1.8506239862,
				"z": -0.7335720513,
				"element": "H" 
			},
			{
				"x": -0.8803900876,
				"y": -3.380122406,
				"z": -0.7535666808,
				"element": "H" 
			},
			{
				"x": 1.4334651883,
				"y": -2.4130840899,
				"z": -0.6484600499,
				"element": "H" 
			}
		],
		 "valence_orbital": [ 
			{
				"type": "occ",
				"energy": -0.35816,
				"method": "rhf"
			},
			{
				"type": "occ",
				"energy": -0.34916,
				"method": "rhf"
			},
			{
				"type": "occ",
				"energy": -0.33845,
				"method": "rhf"
			},
			{
				"type": "occ",
				"energy": -0.25031,
				"method": "rhf"
			},
			{
				"type": "occ",
				"energy": -0.23683,
				"method": "rhf"
			},
			{
				"type": "unocc",
				"energy": -0.00352,
				"method": "rhf"
			},
			{
				"type": "unocc",
				"energy": 0.00473,
				"method": "rhf"
			},
			{
				"type": "unocc",
				"energy": 0.09083,
				"method": "rhf"
			},
			{
				"type": "unocc",
				"energy": 0.11363,
				"method": "rhf"
			},
			{
				"type": "unocc",
				"energy": 0.1387,
				"method": "rhf"
			}
		],
		"cosmo_sigma_profile": { 
			"-0.025": 0.0,
			"-0.024": 0.0,
			"-0.023": 0.0,
			"-0.022": 0.0,
			"-0.021": 0.0,
			"-0.02": 0.0,
			"-0.019": 0.0,
			"-0.018": 0.0,
			"-0.017": 0.0,
			"-0.016": 0.0,
			"-0.015": 0.0,
			"-0.014": 0.0,
			"-0.013": 0.0,
			"-0.012": 0.0,
			"-0.011": 0.0,
			"-0.01": 0.0,
			"-0.009": 0.0,
			"-0.008": 0.0,
			"-0.007": 0.9268031552,
			"-0.006": 5.08410040703,
			"-0.005": 10.572989413,
			"-0.004": 14.6932058907,
			"-0.003": 11.6655507318,
			"-0.002": 12.9487746824,
			"-0.001": 11.6743816963,
			"0.0": 14.288191405,
			"0.001": 13.1965626335,
			"0.002": 11.2925775267,
			"0.003": 10.8830749851,
			"0.004": 14.8780597433,
			"0.005": 15.3156522042,
			"0.006": 2.69377900362,
			"0.007": 0.0,
			"0.008": 0.0,
			"0.009": 0.0,
			"0.01": 0.0,
			"0.011": 0.0,
			"0.012": 0.0,
			"0.013": 0.0,
			"0.014": 0.0,
			"0.015": 0.0,
			"0.016": 0.0,
			"0.017": 0.0,
			"0.018": 0.0,
			"0.019": 0.0,
			"0.02": 0.0,
			"0.021": 0.0,
			"0.022": 0.0,
			"0.023": 0.0,
			"0.024": 0.0,
			"0.025": 0.0
		}
	}
}
