{
	 "smiles": "OC(=O)C1=C(O)C=CC=N1", 
	 "Tm": 483.15, 
	 "num_atms": 15, 
	 "gaussian": { 
		 "optdone": 1, 
		 "sigma_profile": "yes", 
		 "theory": "DFT", 
		 "functional": "B3LYP", 
		 "basiset": "6-31G**", 
		 "properties": { 
			 "R2extent": 1935.6536, 
			 "electric_dipole_moment_norm": 0.980000010204, 
			 "electric_quadrupole_moment_norm": 12.5771022159, 
			 "total_energy": -512.08931275, 
			 "HOMO_LUMO_gap": 0.17819, 
			 "cosmo_polarized_energy": -11.23, 
			 "cosmo_cavitation_energy": 19.72, 
			 "cosmo_dispersion_energy": -15.23, 
			 "cosmo_repulsion_energy": 1.23, 
			 "cosmo_total_nonelectrostatic_energy": 5.72, 
			 "SMD_solvation_energy": 3.92 
		},
		"coords": [
			{
				"x": -0.1566403377,
				"y": 2.13343563,
				"z": -1.116277584,
				"element": "O" 
			},
			{
				"x": -1.2809396444,
				"y": 1.4123697698,
				"z": -1.1504549134,
				"element": "C" 
			},
			{
				"x": -2.2369109702,
				"y": 1.7406289222,
				"z": -1.8591457558,
				"element": "O" 
			},
			{
				"x": -1.2932316495,
				"y": 0.2112647328,
				"z": -0.2894314236,
				"element": "C" 
			},
			{
				"x": -2.457269753,
				"y": -0.5981923697,
				"z": -0.2794207988,
				"element": "C" 
			},
			{
				"x": -3.5498781232,
				"y": -0.336786686,
				"z": -1.0072393358,
				"element": "O" 
			},
			{
				"x": -2.4495050422,
				"y": -1.7365669155,
				"z": 0.54622538,
				"element": "C" 
			},
			{
				"x": -1.3208511253,
				"y": -2.0074746114,
				"z": 1.2986569651,
				"element": "C" 
			},
			{
				"x": -0.2154335399,
				"y": -1.1411117283,
				"z": 1.2186116114,
				"element": "C" 
			},
			{
				"x": -0.2018282979,
				"y": -0.0630214387,
				"z": 0.4470519967,
				"element": "N" 
			},
			{
				"x": -0.2986615249,
				"y": 2.8786447936,
				"z": -1.7243170485,
				"element": "H" 
			},
			{
				"x": -3.3633621132,
				"y": 0.4918615738,
				"z": -1.5134800256,
				"element": "H" 
			},
			{
				"x": -3.3297981896,
				"y": -2.3702861374,
				"z": 0.5693929018,
				"element": "H" 
			},
			{
				"x": -1.283568798,
				"y": -2.8786049174,
				"z": 1.9459259926,
				"element": "H" 
			},
			{
				"x": 0.6822791091,
				"y": -1.3348606179,
				"z": 1.8014020379,
				"element": "H" 
			}
		],
		 "valence_orbital": [ 
			{
				"type": "occ",
				"energy": -0.33363,
				"method": "rhf"
			},
			{
				"type": "occ",
				"energy": -0.30445,
				"method": "rhf"
			},
			{
				"type": "occ",
				"energy": -0.29271,
				"method": "rhf"
			},
			{
				"type": "occ",
				"energy": -0.26233,
				"method": "rhf"
			},
			{
				"type": "occ",
				"energy": -0.24397,
				"method": "rhf"
			},
			{
				"type": "unocc",
				"energy": -0.06578,
				"method": "rhf"
			},
			{
				"type": "unocc",
				"energy": -0.01505,
				"method": "rhf"
			},
			{
				"type": "unocc",
				"energy": 0.04143,
				"method": "rhf"
			},
			{
				"type": "unocc",
				"energy": 0.07144,
				"method": "rhf"
			},
			{
				"type": "unocc",
				"energy": 0.09771,
				"method": "rhf"
			}
		],
		"cosmo_sigma_profile": { 
			"-0.025": 0.0,
			"-0.024": 0.0,
			"-0.023": 0.0,
			"-0.022": 0.0,
			"-0.021": 0.0,
			"-0.02": 0.04032546152,
			"-0.019": 0.717529609915,
			"-0.018": 0.899791819308,
			"-0.017": 1.079782631,
			"-0.016": 0.680969927223,
			"-0.015": 0.472563456721,
			"-0.014": 0.490337296885,
			"-0.013": 0.946140893066,
			"-0.012": 0.764792318664,
			"-0.011": 0.846648101118,
			"-0.01": 0.289009599702,
			"-0.009": 0.729465342126,
			"-0.008": 3.72518329739,
			"-0.007": 7.94141421218,
			"-0.006": 8.33929237251,
			"-0.005": 7.77450066898,
			"-0.004": 10.8147294832,
			"-0.003": 10.2368118522,
			"-0.002": 8.44994581864,
			"-0.001": 10.3364897405,
			"0.0": 13.3657764744,
			"0.001": 13.8825612858,
			"0.002": 9.55997750111,
			"0.003": 5.31995509835,
			"0.004": 4.52647822633,
			"0.005": 4.20493270655,
			"0.006": 4.9968762765,
			"0.007": 3.27261945529,
			"0.008": 5.59568266387,
			"0.009": 4.15714980281,
			"0.01": 5.56734359493,
			"0.011": 3.03167365039,
			"0.012": 1.22075741105,
			"0.013": 1.24961166776,
			"0.014": 1.17399567728,
			"0.015": 1.00342095252,
			"0.016": 0.788990982162,
			"0.017": 0.030479646127,
			"0.018": 0.0,
			"0.019": 0.0,
			"0.02": 0.0,
			"0.021": 0.0,
			"0.022": 0.0,
			"0.023": 0.0,
			"0.024": 0.0,
			"0.025": 0.0
		}
	}
}
