{
	 "smiles": "CC1=CC(C=O)=C(C)N1CC1=CC=CO1", 
	 "Tm": 361.15, 
	 "num_atms": 28, 
	 "gaussian": { 
		 "optdone": 1, 
		 "sigma_profile": "yes", 
		 "theory": "DFT", 
		 "functional": "B3LYP", 
		 "basiset": "6-31G**", 
		 "properties": { 
			 "R2extent": 3676.5649, 
			 "electric_dipole_moment_norm": 4.82284935489, 
			 "electric_quadrupole_moment_norm": 18.317643652, 
			 "total_energy": -670.281154005, 
			 "HOMO_LUMO_gap": 0.18188, 
			 "cosmo_polarized_energy": -11.56, 
			 "cosmo_cavitation_energy": 31.87, 
			 "cosmo_dispersion_energy": -21.96, 
			 "cosmo_repulsion_energy": 1.71, 
			 "cosmo_total_nonelectrostatic_energy": 11.62, 
			 "SMD_solvation_energy": 7.31 
		},
		"coords": [
			{
				"x": 2.5447202234,
				"y": 1.0953883187,
				"z": -0.507203702,
				"element": "C" 
			},
			{
				"x": 2.0127033097,
				"y": 0.0874873467,
				"z": 0.4601158423,
				"element": "C" 
			},
			{
				"x": 2.6122759884,
				"y": -1.0048143295,
				"z": 1.0292183535,
				"element": "C" 
			},
			{
				"x": 1.6595048132,
				"y": -1.6380134526,
				"z": 1.8935891511,
				"element": "C" 
			},
			{
				"x": 1.9068636423,
				"y": -2.8344781185,
				"z": 2.6829160016,
				"element": "C" 
			},
			{
				"x": 1.1129368867,
				"y": -3.3948555848,
				"z": 3.4287114814,
				"element": "O" 
			},
			{
				"x": 0.4785043006,
				"y": -0.8972510736,
				"z": 1.8243071366,
				"element": "C" 
			},
			{
				"x": -0.828404754,
				"y": -1.115603836,
				"z": 2.5146598404,
				"element": "C" 
			},
			{
				"x": 0.7062248618,
				"y": 0.1467394293,
				"z": 0.9597682094,
				"element": "N" 
			},
			{
				"x": -0.2909216273,
				"y": 1.1246794218,
				"z": 0.5560515631,
				"element": "C" 
			},
			{
				"x": -1.0422994072,
				"y": 0.6967691598,
				"z": -0.670717225,
				"element": "C" 
			},
			{
				"x": -1.0189859886,
				"y": -0.4178429111,
				"z": -1.4549369255,
				"element": "C" 
			},
			{
				"x": -2.0013263835,
				"y": -0.2050048843,
				"z": -2.4816579942,
				"element": "C" 
			},
			{
				"x": -2.5434292956,
				"y": 1.0180870574,
				"z": -2.2424468051,
				"element": "C" 
			},
			{
				"x": -1.9685935197,
				"y": 1.5854009173,
				"z": -1.1381111711,
				"element": "O" 
			},
			{
				"x": 3.5634884092,
				"y": 0.8204387309,
				"z": -0.7896276391,
				"element": "H" 
			},
			{
				"x": 1.9457940508,
				"y": 1.1471820639,
				"z": -1.4243377315,
				"element": "H" 
			},
			{
				"x": 2.5850336911,
				"y": 2.1067497358,
				"z": -0.0818577163,
				"element": "H" 
			},
			{
				"x": 3.631229348,
				"y": -1.3256470011,
				"z": 0.8572418162,
				"element": "H" 
			},
			{
				"x": 2.935341379,
				"y": -3.244411075,
				"z": 2.5601505329,
				"element": "H" 
			},
			{
				"x": -1.6550179175,
				"y": -1.2111827266,
				"z": 1.8004920218,
				"element": "H" 
			},
			{
				"x": -0.7564694259,
				"y": -2.0322319635,
				"z": 3.1000687473,
				"element": "H" 
			},
			{
				"x": -1.0737590448,
				"y": -0.2911021396,
				"z": 3.1969735859,
				"element": "H" 
			},
			{
				"x": 0.2044544633,
				"y": 2.0853708701,
				"z": 0.378348326,
				"element": "H" 
			},
			{
				"x": -0.9841127562,
				"y": 1.2850137081,
				"z": 1.3885197489,
				"element": "H" 
			},
			{
				"x": -0.3841011885,
				"y": -1.2809708025,
				"z": -1.3191847737,
				"element": "H" 
			},
			{
				"x": -2.2617795457,
				"y": -0.8785645686,
				"z": -3.2852507612,
				"element": "H" 
			},
			{
				"x": -3.304974513,
				"y": 1.6072677075,
				"z": -2.7288999136,
				"element": "H" 
			}
		],
		 "valence_orbital": [ 
			{
				"type": "occ",
				"energy": -0.28572,
				"method": "rhf"
			},
			{
				"type": "occ",
				"energy": -0.24671,
				"method": "rhf"
			},
			{
				"type": "occ",
				"energy": -0.23287,
				"method": "rhf"
			},
			{
				"type": "occ",
				"energy": -0.23191,
				"method": "rhf"
			},
			{
				"type": "occ",
				"energy": -0.2085,
				"method": "rhf"
			},
			{
				"type": "unocc",
				"energy": -0.02662,
				"method": "rhf"
			},
			{
				"type": "unocc",
				"energy": 0.00317,
				"method": "rhf"
			},
			{
				"type": "unocc",
				"energy": 0.03618,
				"method": "rhf"
			},
			{
				"type": "unocc",
				"energy": 0.06345,
				"method": "rhf"
			},
			{
				"type": "unocc",
				"energy": 0.07974,
				"method": "rhf"
			}
		],
		"cosmo_sigma_profile": { 
			"-0.025": 0.0,
			"-0.024": 0.0,
			"-0.023": 0.0,
			"-0.022": 0.0,
			"-0.021": 0.0,
			"-0.02": 0.0,
			"-0.019": 0.0,
			"-0.018": 0.0,
			"-0.017": 0.0,
			"-0.016": 0.0,
			"-0.015": 0.0,
			"-0.014": 0.0,
			"-0.013": 0.0,
			"-0.012": 0.0,
			"-0.011": 0.0,
			"-0.01": 0.0,
			"-0.009": 0.680167946264,
			"-0.008": 2.9996960437,
			"-0.007": 9.15641639934,
			"-0.006": 11.7255092605,
			"-0.005": 18.5427774834,
			"-0.004": 22.7128716629,
			"-0.003": 21.1546319309,
			"-0.002": 19.2293416294,
			"-0.001": 25.4788325038,
			"0.0": 22.676092636,
			"0.001": 13.8572614926,
			"0.002": 14.3721887775,
			"0.003": 14.5919579397,
			"0.004": 13.7699450274,
			"0.005": 12.6033793034,
			"0.006": 8.82191817114,
			"0.007": 4.01166969099,
			"0.008": 2.74652820206,
			"0.009": 2.58295570061,
			"0.01": 1.76893763807,
			"0.011": 2.08049477324,
			"0.012": 3.42568846127,
			"0.013": 2.79008330727,
			"0.014": 1.59054678445,
			"0.015": 0.231893681065,
			"0.016": 0.0,
			"0.017": 0.0,
			"0.018": 0.0,
			"0.019": 0.0,
			"0.02": 0.0,
			"0.021": 0.0,
			"0.022": 0.0,
			"0.023": 0.0,
			"0.024": 0.0,
			"0.025": 0.0
		}
	}
}
