{
	 "smiles": "CN1CCN(CC1)C1=C(N)C=C(F)C=C1", 
	 "Tm": 400.15, 
	 "num_atms": 31, 
	 "gaussian": { 
		 "optdone": 1, 
		 "sigma_profile": "yes", 
		 "theory": "DFT", 
		 "functional": "B3LYP", 
		 "basiset": "6-31G**", 
		 "properties": { 
			 "R2extent": 4526.9793, 
			 "electric_dipole_moment_norm": 2.61312873009, 
			 "electric_quadrupole_moment_norm": 11.5660992439, 
			 "total_energy": -692.8795142, 
			 "HOMO_LUMO_gap": 0.19816, 
			 "cosmo_polarized_energy": -10.15, 
			 "cosmo_cavitation_energy": 32.13, 
			 "cosmo_dispersion_energy": -23.05, 
			 "cosmo_repulsion_energy": 1.77, 
			 "cosmo_total_nonelectrostatic_energy": 10.84, 
			 "SMD_solvation_energy": 2.16 
		},
		"coords": [
			{
				"x": -2.4143436378,
				"y": -0.5081386163,
				"z": -2.052904167,
				"element": "C" 
			},
			{
				"x": -2.4924105131,
				"y": -0.7265096189,
				"z": -0.6141278648,
				"element": "N" 
			},
			{
				"x": -2.6037789682,
				"y": 0.5010257091,
				"z": 0.1783221856,
				"element": "C" 
			},
			{
				"x": -1.2779643009,
				"y": 1.2645877189,
				"z": 0.3304791936,
				"element": "C" 
			},
			{
				"x": -0.2595784302,
				"y": 0.3570585336,
				"z": 0.8710306206,
				"element": "N" 
			},
			{
				"x": -0.0777169315,
				"y": -0.8615386686,
				"z": 0.0804143576,
				"element": "C" 
			},
			{
				"x": -1.4309161661,
				"y": -1.5770291228,
				"z": -0.0732238753,
				"element": "C" 
			},
			{
				"x": 0.9151720901,
				"y": 0.9514127225,
				"z": 1.4410872063,
				"element": "C" 
			},
			{
				"x": 1.8703072438,
				"y": 1.6774271819,
				"z": 0.682054979,
				"element": "C" 
			},
			{
				"x": 1.692981399,
				"y": 1.8988238912,
				"z": -0.6838541341,
				"element": "N" 
			},
			{
				"x": 2.9844144765,
				"y": 2.231089792,
				"z": 1.3344599818,
				"element": "C" 
			},
			{
				"x": 3.1379946051,
				"y": 2.0563293776,
				"z": 2.7016035925,
				"element": "C" 
			},
			{
				"x": 4.2228510397,
				"y": 2.5984736665,
				"z": 3.2979613735,
				"element": "F" 
			},
			{
				"x": 2.2264520045,
				"y": 1.3457417428,
				"z": 3.4718331793,
				"element": "C" 
			},
			{
				"x": 1.1204823541,
				"y": 0.8046421083,
				"z": 2.8164290545,
				"element": "C" 
			},
			{
				"x": -2.4278417594,
				"y": -1.4767223989,
				"z": -2.5646182383,
				"element": "H" 
			},
			{
				"x": -3.296314481,
				"y": 0.0538082428,
				"z": -2.3788410772,
				"element": "H" 
			},
			{
				"x": -1.5240586754,
				"y": 0.0414540367,
				"z": -2.4081667705,
				"element": "H" 
			},
			{
				"x": -2.9558493009,
				"y": 0.2218211325,
				"z": 1.1799167764,
				"element": "H" 
			},
			{
				"x": -3.3621597092,
				"y": 1.149428214,
				"z": -0.2753488415,
				"element": "H" 
			},
			{
				"x": -0.9872246662,
				"y": 1.712968773,
				"z": -0.6365655953,
				"element": "H" 
			},
			{
				"x": -1.4068267298,
				"y": 2.0931346582,
				"z": 1.0341716987,
				"element": "H" 
			},
			{
				"x": 0.6294472933,
				"y": -1.5128727395,
				"z": 0.6039938193,
				"element": "H" 
			},
			{
				"x": 0.3511506024,
				"y": -0.6740896528,
				"z": -0.9260750575,
				"element": "H" 
			},
			{
				"x": -1.7474870771,
				"y": -1.918090604,
				"z": 0.9210716783,
				"element": "H" 
			},
			{
				"x": -1.3203574966,
				"y": -2.460696074,
				"z": -0.7123317875,
				"element": "H" 
			},
			{
				"x": 1.140766919,
				"y": 1.2056860757,
				"z": -1.1660464923,
				"element": "H" 
			},
			{
				"x": 2.5363428307,
				"y": 2.1329964399,
				"z": -1.189158188,
				"element": "H" 
			},
			{
				"x": 3.7300032334,
				"y": 2.7966358345,
				"z": 0.7838783394,
				"element": "H" 
			},
			{
				"x": 2.3821122428,
				"y": 1.2305008236,
				"z": 4.5380450959,
				"element": "H" 
			},
			{
				"x": 0.3738505093,
				"y": 0.2451408202,
				"z": 3.3713089569,
				"element": "H" 
			}
		],
		 "valence_orbital": [ 
			{
				"type": "occ",
				"energy": -0.30439,
				"method": "rhf"
			},
			{
				"type": "occ",
				"energy": -0.23822,
				"method": "rhf"
			},
			{
				"type": "occ",
				"energy": -0.22489,
				"method": "rhf"
			},
			{
				"type": "occ",
				"energy": -0.20563,
				"method": "rhf"
			},
			{
				"type": "occ",
				"energy": -0.19409,
				"method": "rhf"
			},
			{
				"type": "unocc",
				"energy": 0.00407,
				"method": "rhf"
			},
			{
				"type": "unocc",
				"energy": 0.01577,
				"method": "rhf"
			},
			{
				"type": "unocc",
				"energy": 0.0561,
				"method": "rhf"
			},
			{
				"type": "unocc",
				"energy": 0.08931,
				"method": "rhf"
			},
			{
				"type": "unocc",
				"energy": 0.09913,
				"method": "rhf"
			}
		],
		"cosmo_sigma_profile": { 
			"-0.025": 0.0,
			"-0.024": 0.0,
			"-0.023": 0.0,
			"-0.022": 0.0,
			"-0.021": 0.0,
			"-0.02": 0.0,
			"-0.019": 0.0,
			"-0.018": 0.0,
			"-0.017": 0.0,
			"-0.016": 0.0,
			"-0.015": 0.0,
			"-0.014": 0.0,
			"-0.013": 0.388020946244,
			"-0.012": 1.71692186445,
			"-0.011": 1.24507026683,
			"-0.01": 2.85495081355,
			"-0.009": 3.26100070159,
			"-0.008": 3.55672925695,
			"-0.007": 3.39338617268,
			"-0.006": 5.33406009578,
			"-0.005": 6.82050186189,
			"-0.004": 15.5734341815,
			"-0.003": 25.47328647,
			"-0.002": 29.4439531058,
			"-0.001": 27.1919553565,
			"0.0": 23.1205515411,
			"0.001": 14.5316935524,
			"0.002": 15.1123977733,
			"0.003": 13.9538966052,
			"0.004": 18.5566975896,
			"0.005": 20.3975577829,
			"0.006": 5.61317061882,
			"0.007": 2.71072338366,
			"0.008": 1.80273937917,
			"0.009": 2.24467004497,
			"0.01": 1.50210707455,
			"0.011": 1.43202375872,
			"0.012": 1.29507879472,
			"0.013": 1.02250865689,
			"0.014": 0.749376680894,
			"0.015": 0.547757912996,
			"0.016": 0.329973589692,
			"0.017": 0.296663193655,
			"0.018": 0.0,
			"0.019": 0.0,
			"0.02": 0.0,
			"0.021": 0.0,
			"0.022": 0.0,
			"0.023": 0.0,
			"0.024": 0.0,
			"0.025": 0.0
		}
	}
}
