{
	 "smiles": "ClCCCNC(=O)OCC1=CC=CC=C1", 
	 "Tm": 304.15, 
	 "num_atms": 29, 
	 "gaussian": { 
		 "optdone": 1, 
		 "sigma_profile": "yes", 
		 "theory": "DFT", 
		 "functional": "B3LYP", 
		 "basiset": "6-31G**", 
		 "properties": { 
			 "R2extent": 4838.4605, 
			 "electric_dipole_moment_norm": 3.05180841306, 
			 "electric_quadrupole_moment_norm": 13.7953705006, 
			 "total_energy": -1093.03436382, 
			 "HOMO_LUMO_gap": 0.23787, 
			 "cosmo_polarized_energy": -12.35, 
			 "cosmo_cavitation_energy": 34.5, 
			 "cosmo_dispersion_energy": -24.04, 
			 "cosmo_repulsion_energy": 1.94, 
			 "cosmo_total_nonelectrostatic_energy": 12.4, 
			 "SMD_solvation_energy": 5.5 
		},
		"coords": [
			{
				"x": 1.7598297203,
				"y": 2.8863209631,
				"z": 2.8211560698,
				"element": "Cl" 
			},
			{
				"x": 0.2919265809,
				"y": 2.4765230211,
				"z": 1.8235795636,
				"element": "C" 
			},
			{
				"x": -0.1198575885,
				"y": 3.6549427259,
				"z": 0.9498734385,
				"element": "C" 
			},
			{
				"x": -1.3726658463,
				"y": 3.3584327195,
				"z": 0.1057066933,
				"element": "C" 
			},
			{
				"x": -1.1907729855,
				"y": 2.3229075962,
				"z": -0.8991808013,
				"element": "N" 
			},
			{
				"x": -1.5430264631,
				"y": 1.0262790322,
				"z": -0.6759052096,
				"element": "C" 
			},
			{
				"x": -2.0303165369,
				"y": 0.6040608178,
				"z": 0.3625201006,
				"element": "O" 
			},
			{
				"x": -1.2807953534,
				"y": 0.2780682375,
				"z": -1.7793918147,
				"element": "O" 
			},
			{
				"x": -1.5250587057,
				"y": -1.1481124707,
				"z": -1.6532104979,
				"element": "C" 
			},
			{
				"x": -0.2946998006,
				"y": -1.8873657636,
				"z": -1.1870570197,
				"element": "C" 
			},
			{
				"x": 0.5907211176,
				"y": -2.44731248,
				"z": -2.1160796714,
				"element": "C" 
			},
			{
				"x": 1.7382543054,
				"y": -3.1178063396,
				"z": -1.690424304,
				"element": "C" 
			},
			{
				"x": 2.0123195811,
				"y": -3.2330102815,
				"z": -0.3264054198,
				"element": "C" 
			},
			{
				"x": 1.1349067543,
				"y": -2.6776798483,
				"z": 0.6080733829,
				"element": "C" 
			},
			{
				"x": -0.0131656526,
				"y": -2.009619637,
				"z": 0.1815749702,
				"element": "C" 
			},
			{
				"x": -0.4929881374,
				"y": 2.1970848757,
				"z": 2.5271482763,
				"element": "H" 
			},
			{
				"x": 0.5599900442,
				"y": 1.6000991427,
				"z": 1.2345776431,
				"element": "H" 
			},
			{
				"x": 0.7135678352,
				"y": 3.9340167693,
				"z": 0.2947563769,
				"element": "H" 
			},
			{
				"x": -0.3290357621,
				"y": 4.5227015134,
				"z": 1.5860586638,
				"element": "H" 
			},
			{
				"x": -1.6873621724,
				"y": 4.2777017287,
				"z": -0.3999892948,
				"element": "H" 
			},
			{
				"x": -2.1958263544,
				"y": 3.0375601798,
				"z": 0.7496463511,
				"element": "H" 
			},
			{
				"x": -0.7551275047,
				"y": 2.5408293976,
				"z": -1.7825046966,
				"element": "H" 
			},
			{
				"x": -1.8134504702,
				"y": -1.462490051,
				"z": -2.6585787279,
				"element": "H" 
			},
			{
				"x": -2.3618898386,
				"y": -1.2948987332,
				"z": -0.9680672452,
				"element": "H" 
			},
			{
				"x": 0.3778419918,
				"y": -2.3595553772,
				"z": -3.1789270036,
				"element": "H" 
			},
			{
				"x": 2.4154146134,
				"y": -3.5507144271,
				"z": -2.4212898311,
				"element": "H" 
			},
			{
				"x": 2.9042131743,
				"y": -3.7557068662,
				"z": 0.0074009408,
				"element": "H" 
			},
			{
				"x": 1.3434048755,
				"y": -2.768173846,
				"z": 1.6703482426,
				"element": "H" 
			},
			{
				"x": -0.6965514218,
				"y": -1.5705825989,
				"z": 0.9019908242,
				"element": "H" 
			}
		],
		 "valence_orbital": [ 
			{
				"type": "occ",
				"energy": -0.28797,
				"method": "rhf"
			},
			{
				"type": "occ",
				"energy": -0.27883,
				"method": "rhf"
			},
			{
				"type": "occ",
				"energy": -0.26046,
				"method": "rhf"
			},
			{
				"type": "occ",
				"energy": -0.25163,
				"method": "rhf"
			},
			{
				"type": "occ",
				"energy": -0.24911,
				"method": "rhf"
			},
			{
				"type": "unocc",
				"energy": -0.01124,
				"method": "rhf"
			},
			{
				"type": "unocc",
				"energy": -0.00295,
				"method": "rhf"
			},
			{
				"type": "unocc",
				"energy": 0.02828,
				"method": "rhf"
			},
			{
				"type": "unocc",
				"energy": 0.04846,
				"method": "rhf"
			},
			{
				"type": "unocc",
				"energy": 0.08564,
				"method": "rhf"
			}
		],
		"cosmo_sigma_profile": { 
			"-0.025": 0.0,
			"-0.024": 0.0,
			"-0.023": 0.0,
			"-0.022": 0.0,
			"-0.021": 0.0,
			"-0.02": 0.0,
			"-0.019": 0.0,
			"-0.018": 0.0,
			"-0.017": 0.0,
			"-0.016": 0.0,
			"-0.015": 0.0726780038295,
			"-0.014": 1.10574669197,
			"-0.013": 1.11754351761,
			"-0.012": 1.29157459562,
			"-0.011": 0.785185988264,
			"-0.01": 0.656554801188,
			"-0.009": 0.9476876656,
			"-0.008": 0.813083337711,
			"-0.007": 2.1392601117,
			"-0.006": 14.891199114,
			"-0.005": 21.9143787704,
			"-0.004": 28.2567531516,
			"-0.003": 27.5542496867,
			"-0.002": 19.8749846118,
			"-0.001": 17.4122154423,
			"0.0": 16.2830427987,
			"0.001": 15.8288074967,
			"0.002": 15.8201388071,
			"0.003": 15.8510287817,
			"0.004": 15.686551032,
			"0.005": 17.5931170829,
			"0.006": 16.3619502662,
			"0.007": 11.4012548465,
			"0.008": 2.99510374055,
			"0.009": 1.09950751378,
			"0.01": 0.551897665625,
			"0.011": 1.77759392427,
			"0.012": 1.66103328469,
			"0.013": 2.53837241095,
			"0.014": 0.482996457896,
			"0.015": 0.0,
			"0.016": 0.0,
			"0.017": 0.0,
			"0.018": 0.0,
			"0.019": 0.0,
			"0.02": 0.0,
			"0.021": 0.0,
			"0.022": 0.0,
			"0.023": 0.0,
			"0.024": 0.0,
			"0.025": 0.0
		}
	}
}
