{
	 "smiles": "COC1=C(OC2CCCC2)C=CC(=C1)C(O)=O", 
	 "Tm": 427.15, 
	 "num_atms": 33, 
	 "gaussian": { 
		 "optdone": 1, 
		 "sigma_profile": "yes", 
		 "theory": "DFT", 
		 "functional": "B3LYP", 
		 "basiset": "6-31G**", 
		 "properties": { 
			 "R2extent": 5392.5603, 
			 "electric_dipole_moment_norm": 5.4728023297, 
			 "electric_quadrupole_moment_norm": 20.2333864783, 
			 "total_energy": -805.909806842, 
			 "HOMO_LUMO_gap": 0.19714, 
			 "cosmo_polarized_energy": -15.32, 
			 "cosmo_cavitation_energy": 35.69, 
			 "cosmo_dispersion_energy": -25.17, 
			 "cosmo_repulsion_energy": 1.98, 
			 "cosmo_total_nonelectrostatic_energy": 12.51, 
			 "SMD_solvation_energy": 7.37 
		},
		"coords": [
			{
				"x": 0.3147836061,
				"y": 2.2930503285,
				"z": -2.2069825041,
				"element": "C" 
			},
			{
				"x": 0.8375152092,
				"y": 1.1319143709,
				"z": -1.5479568824,
				"element": "O" 
			},
			{
				"x": 0.4197737552,
				"y": 0.9752309256,
				"z": -0.2466622585,
				"element": "C" 
			},
			{
				"x": -0.9030010798,
				"y": 0.5797701481,
				"z": 0.0555366769,
				"element": "C" 
			},
			{
				"x": -1.8463714667,
				"y": 0.3920014927,
				"z": -0.9183933956,
				"element": "O" 
			},
			{
				"x": -1.6289803191,
				"y": -0.6990413028,
				"z": -1.844670103,
				"element": "C" 
			},
			{
				"x": -2.6201825509,
				"y": -0.5615051619,
				"z": -3.0095499364,
				"element": "C" 
			},
			{
				"x": -2.8656829397,
				"y": -2.0105606602,
				"z": -3.5162934936,
				"element": "C" 
			},
			{
				"x": -2.1288561003,
				"y": -2.9421414003,
				"z": -2.5120040598,
				"element": "C" 
			},
			{
				"x": -1.9318895546,
				"y": -2.0817857048,
				"z": -1.2535433861,
				"element": "C" 
			},
			{
				"x": -1.2812295835,
				"y": 0.4296169987,
				"z": 1.3925743977,
				"element": "C" 
			},
			{
				"x": -0.3675539677,
				"y": 0.6531300612,
				"z": 2.4197958574,
				"element": "C" 
			},
			{
				"x": 0.9517434392,
				"y": 1.0229828944,
				"z": 2.1231557064,
				"element": "C" 
			},
			{
				"x": 1.3335080681,
				"y": 1.1717125574,
				"z": 0.7829754723,
				"element": "C" 
			},
			{
				"x": 1.997383327,
				"y": 1.2528558653,
				"z": 3.1694383594,
				"element": "C" 
			},
			{
				"x": 1.5539058504,
				"y": 1.5047531525,
				"z": 4.4322740714,
				"element": "O" 
			},
			{
				"x": 3.1846919219,
				"y": 1.2263420624,
				"z": 2.9434905264,
				"element": "O" 
			},
			{
				"x": -0.7792589675,
				"y": 2.2748445551,
				"z": -2.2391145031,
				"element": "H" 
			},
			{
				"x": 0.7144189205,
				"y": 2.2733065372,
				"z": -3.222583701,
				"element": "H" 
			},
			{
				"x": 0.651067791,
				"y": 3.2074376208,
				"z": -1.7029121886,
				"element": "H" 
			},
			{
				"x": -0.5947159668,
				"y": -0.6570147243,
				"z": -2.2015726723,
				"element": "H" 
			},
			{
				"x": -2.2498212579,
				"y": 0.1098874714,
				"z": -3.7893396143,
				"element": "H" 
			},
			{
				"x": -3.5415194997,
				"y": -0.1214941686,
				"z": -2.6132215398,
				"element": "H" 
			},
			{
				"x": -3.9374897446,
				"y": -2.2303064003,
				"z": -3.5364626973,
				"element": "H" 
			},
			{
				"x": -2.4978739548,
				"y": -2.1559926607,
				"z": -4.5361114716,
				"element": "H" 
			},
			{
				"x": -2.6769147672,
				"y": -3.8670288163,
				"z": -2.310847154,
				"element": "H" 
			},
			{
				"x": -1.1517219753,
				"y": -3.2325431703,
				"z": -2.9156658534,
				"element": "H" 
			},
			{
				"x": -2.8635014673,
				"y": -2.017635639,
				"z": -0.6767990038,
				"element": "H" 
			},
			{
				"x": -1.1460782503,
				"y": -2.451331344,
				"z": -0.5881684748,
				"element": "H" 
			},
			{
				"x": -2.3001218895,
				"y": 0.1222287932,
				"z": 1.6033960554,
				"element": "H" 
			},
			{
				"x": -0.6848814358,
				"y": 0.480416841,
				"z": 3.4452172542,
				"element": "H" 
			},
			{
				"x": 2.353698458,
				"y": 1.4514054258,
				"z": 0.5448630307,
				"element": "H" 
			},
			{
				"x": 0.5997563926,
				"y": 1.6615930511,
				"z": 4.4235374854,
				"element": "H" 
			}
		],
		 "valence_orbital": [ 
			{
				"type": "occ",
				"energy": -0.30285,
				"method": "rhf"
			},
			{
				"type": "occ",
				"energy": -0.27578,
				"method": "rhf"
			},
			{
				"type": "occ",
				"energy": -0.26903,
				"method": "rhf"
			},
			{
				"type": "occ",
				"energy": -0.25757,
				"method": "rhf"
			},
			{
				"type": "occ",
				"energy": -0.2421,
				"method": "rhf"
			},
			{
				"type": "unocc",
				"energy": -0.04496,
				"method": "rhf"
			},
			{
				"type": "unocc",
				"energy": -0.0173,
				"method": "rhf"
			},
			{
				"type": "unocc",
				"energy": 0.05283,
				"method": "rhf"
			},
			{
				"type": "unocc",
				"energy": 0.06032,
				"method": "rhf"
			},
			{
				"type": "unocc",
				"energy": 0.07483,
				"method": "rhf"
			}
		],
		"cosmo_sigma_profile": { 
			"-0.025": 0.0,
			"-0.024": 0.0,
			"-0.023": 0.0,
			"-0.022": 0.0,
			"-0.021": 0.0,
			"-0.02": 0.0,
			"-0.019": 0.0877245956697,
			"-0.018": 0.604693182618,
			"-0.017": 1.18241560635,
			"-0.016": 1.11399019895,
			"-0.015": 0.966718682302,
			"-0.014": 0.968803965162,
			"-0.013": 0.867311643617,
			"-0.012": 1.27366908976,
			"-0.011": 0.972544746611,
			"-0.01": 1.37342761271,
			"-0.009": 1.05310959983,
			"-0.008": 1.36840006945,
			"-0.007": 3.27167237291,
			"-0.006": 5.93852930374,
			"-0.005": 9.24914741562,
			"-0.004": 13.2821070979,
			"-0.003": 31.0720557022,
			"-0.002": 37.5989234528,
			"-0.001": 36.4570735083,
			"0.0": 25.6745541593,
			"0.001": 27.4959208972,
			"0.002": 18.0985560368,
			"0.003": 11.87972976,
			"0.004": 5.19646569329,
			"0.005": 5.38675910562,
			"0.006": 4.409362374,
			"0.007": 4.47039033623,
			"0.008": 3.9631128012,
			"0.009": 5.27493619473,
			"0.01": 6.61341558281,
			"0.011": 6.27992530358,
			"0.012": 5.57794783044,
			"0.013": 1.82694307753,
			"0.014": 0.129132091875,
			"0.015": 0.0,
			"0.016": 0.0,
			"0.017": 0.0,
			"0.018": 0.0,
			"0.019": 0.0,
			"0.02": 0.0,
			"0.021": 0.0,
			"0.022": 0.0,
			"0.023": 0.0,
			"0.024": 0.0,
			"0.025": 0.0
		}
	}
}
