{
	 "smiles": "CC1=C(C=CC=C1)C1=CN=C(N)S1", 
	 "Tm": 393.15, 
	 "num_atms": 23, 
	 "gaussian": { 
		 "optdone": 1, 
		 "sigma_profile": "yes", 
		 "theory": "DFT", 
		 "functional": "B3LYP", 
		 "basiset": "6-31G**", 
		 "properties": { 
			 "R2extent": 3097.1919, 
			 "electric_dipole_moment_norm": 1.43161396333, 
			 "electric_quadrupole_moment_norm": 16.4170179131, 
			 "total_energy": -894.78450073, 
			 "HOMO_LUMO_gap": 0.17067, 
			 "cosmo_polarized_energy": -10.97, 
			 "cosmo_cavitation_energy": 27.98, 
			 "cosmo_dispersion_energy": -21.21, 
			 "cosmo_repulsion_energy": 1.63, 
			 "cosmo_total_nonelectrostatic_energy": 8.39, 
			 "SMD_solvation_energy": 2.65 
		},
		"coords": [
			{
				"x": -1.2075142828,
				"y": 2.2884032444,
				"z": -0.0215212427,
				"element": "C" 
			},
			{
				"x": -1.8224189239,
				"y": 0.9328512623,
				"z": -0.2813898659,
				"element": "C" 
			},
			{
				"x": -1.0482850326,
				"y": -0.2347227942,
				"z": -0.5062210223,
				"element": "C" 
			},
			{
				"x": -1.714370524,
				"y": -1.4601814293,
				"z": -0.7077463833,
				"element": "C" 
			},
			{
				"x": -3.1022016185,
				"y": -1.5492566483,
				"z": -0.7008127392,
				"element": "C" 
			},
			{
				"x": -3.8636987834,
				"y": -0.3996417467,
				"z": -0.491530814,
				"element": "C" 
			},
			{
				"x": -3.219063987,
				"y": 0.8179428849,
				"z": -0.283932978,
				"element": "C" 
			},
			{
				"x": 0.4228704126,
				"y": -0.2157332837,
				"z": -0.5212931751,
				"element": "C" 
			},
			{
				"x": 1.310683545,
				"y": 0.6886989446,
				"z": -1.0402415791,
				"element": "C" 
			},
			{
				"x": 2.6532152931,
				"y": 0.399935381,
				"z": -0.9563915241,
				"element": "N" 
			},
			{
				"x": 2.8373426836,
				"y": -0.741227625,
				"z": -0.3535872091,
				"element": "C" 
			},
			{
				"x": 4.0787290217,
				"y": -1.2583627682,
				"z": -0.057852901,
				"element": "N" 
			},
			{
				"x": 1.3616845975,
				"y": -1.5549219848,
				"z": 0.1679187932,
				"element": "S" 
			},
			{
				"x": -1.9186707647,
				"y": 2.937055974,
				"z": 0.497659394,
				"element": "H" 
			},
			{
				"x": -0.3001043439,
				"y": 2.2134730779,
				"z": 0.5841041016,
				"element": "H" 
			},
			{
				"x": -0.9301537057,
				"y": 2.7975556824,
				"z": -0.9529260591,
				"element": "H" 
			},
			{
				"x": -1.1237809669,
				"y": -2.3533735103,
				"z": -0.8898803732,
				"element": "H" 
			},
			{
				"x": -3.583715016,
				"y": -2.5092306332,
				"z": -0.8627933655,
				"element": "H" 
			},
			{
				"x": -4.9486421197,
				"y": -0.4498811958,
				"z": -0.4822588713,
				"element": "H" 
			},
			{
				"x": -3.8119042745,
				"y": 1.7116440179,
				"z": -0.1049133087,
				"element": "H" 
			},
			{
				"x": 1.0150263164,
				"y": 1.5978997253,
				"z": -1.5486962041,
				"element": "H" 
			},
			{
				"x": 4.1621889404,
				"y": -2.2647036594,
				"z": -0.0364829052,
				"element": "H" 
			},
			{
				"x": 4.8238835334,
				"y": -0.7951229159,
				"z": -0.5622097679,
				"element": "H" 
			}
		],
		 "valence_orbital": [ 
			{
				"type": "occ",
				"energy": -0.27644,
				"method": "rhf"
			},
			{
				"type": "occ",
				"energy": -0.26996,
				"method": "rhf"
			},
			{
				"type": "occ",
				"energy": -0.25203,
				"method": "rhf"
			},
			{
				"type": "occ",
				"energy": -0.24082,
				"method": "rhf"
			},
			{
				"type": "occ",
				"energy": -0.19815,
				"method": "rhf"
			},
			{
				"type": "unocc",
				"energy": -0.02748,
				"method": "rhf"
			},
			{
				"type": "unocc",
				"energy": -0.00267,
				"method": "rhf"
			},
			{
				"type": "unocc",
				"energy": 0.01691,
				"method": "rhf"
			},
			{
				"type": "unocc",
				"energy": 0.02342,
				"method": "rhf"
			},
			{
				"type": "unocc",
				"energy": 0.06784,
				"method": "rhf"
			}
		],
		"cosmo_sigma_profile": { 
			"-0.025": 0.0,
			"-0.024": 0.0,
			"-0.023": 0.0,
			"-0.022": 0.0,
			"-0.021": 0.0,
			"-0.02": 0.0,
			"-0.019": 0.0,
			"-0.018": 0.0,
			"-0.017": 0.0,
			"-0.016": 0.0,
			"-0.015": 0.429610381036,
			"-0.014": 2.10601216319,
			"-0.013": 2.02588008009,
			"-0.012": 3.16812181583,
			"-0.011": 2.46363079836,
			"-0.01": 2.17258486388,
			"-0.009": 2.04373335809,
			"-0.008": 1.44546641403,
			"-0.007": 3.26504154524,
			"-0.006": 6.62702381947,
			"-0.005": 11.2763113567,
			"-0.004": 15.073099108,
			"-0.003": 16.8348401187,
			"-0.002": 14.7874873078,
			"-0.001": 15.7400207778,
			"0.0": 18.232577813,
			"0.001": 17.2143400454,
			"0.002": 18.0515452116,
			"0.003": 17.6299787711,
			"0.004": 17.5140759825,
			"0.005": 13.2485254861,
			"0.006": 9.47624654777,
			"0.007": 1.7518751204,
			"0.008": 2.00193513718,
			"0.009": 2.45675451469,
			"0.01": 2.01423678396,
			"0.011": 1.74755856812,
			"0.012": 1.19542863252,
			"0.013": 0.828044860118,
			"0.014": 0.868220495419,
			"0.015": 1.11719811326,
			"0.016": 0.364663597679,
			"0.017": 0.0,
			"0.018": 0.0,
			"0.019": 0.0,
			"0.02": 0.0,
			"0.021": 0.0,
			"0.022": 0.0,
			"0.023": 0.0,
			"0.024": 0.0,
			"0.025": 0.0
		}
	}
}
