{
	 "smiles": "ClC1=CC=C(C=C1)N1CCCC1=O", 
	 "Tm": 369.65, 
	 "num_atms": 23, 
	 "gaussian": { 
		 "optdone": 1, 
		 "sigma_profile": "yes", 
		 "theory": "DFT", 
		 "functional": "B3LYP", 
		 "basiset": "6-31G**", 
		 "properties": { 
			 "R2extent": 4578.7225, 
			 "electric_dipole_moment_norm": 4.81015626046, 
			 "electric_quadrupole_moment_norm": 10.7435505048, 
			 "total_energy": -977.280906634, 
			 "HOMO_LUMO_gap": 0.1993, 
			 "cosmo_polarized_energy": -10.36, 
			 "cosmo_cavitation_energy": 27.65, 
			 "cosmo_dispersion_energy": -20.98, 
			 "cosmo_repulsion_energy": 1.65, 
			 "cosmo_total_nonelectrostatic_energy": 8.32, 
			 "SMD_solvation_energy": 4.32 
		},
		"coords": [
			{
				"x": 2.5967487187,
				"y": 4.6592127311,
				"z": -2.5866880803,
				"element": "Cl" 
			},
			{
				"x": 1.6325018579,
				"y": 3.3198481862,
				"z": -1.9778398836,
				"element": "C" 
			},
			{
				"x": 0.2445964937,
				"y": 3.3750007759,
				"z": -2.0594511993,
				"element": "C" 
			},
			{
				"x": -0.5155599053,
				"y": 2.311671349,
				"z": -1.5750271587,
				"element": "C" 
			},
			{
				"x": 0.0999469606,
				"y": 1.1850526081,
				"z": -1.0022360368,
				"element": "C" 
			},
			{
				"x": 1.5056141353,
				"y": 1.1475188476,
				"z": -0.9305140615,
				"element": "C" 
			},
			{
				"x": 2.2622616566,
				"y": 2.2094154201,
				"z": -1.4175705456,
				"element": "C" 
			},
			{
				"x": -0.699536086,
				"y": 0.1308794373,
				"z": -0.5037113409,
				"element": "N" 
			},
			{
				"x": -2.1603909235,
				"y": 0.2541994135,
				"z": -0.4159460938,
				"element": "C" 
			},
			{
				"x": -2.5867104635,
				"y": -0.958171411,
				"z": 0.4305973786,
				"element": "C" 
			},
			{
				"x": -1.489865231,
				"y": -1.990538611,
				"z": 0.15438503,
				"element": "C" 
			},
			{
				"x": -0.2611308663,
				"y": -1.1537849372,
				"z": -0.1914656341,
				"element": "C" 
			},
			{
				"x": 0.8903731441,
				"y": -1.553642057,
				"z": -0.2088231117,
				"element": "O" 
			},
			{
				"x": -0.2434353392,
				"y": 4.2374112946,
				"z": -2.4998002667,
				"element": "H" 
			},
			{
				"x": -1.5938686436,
				"y": 2.3707919133,
				"z": -1.6599669283,
				"element": "H" 
			},
			{
				"x": 1.9925347614,
				"y": 0.2822973684,
				"z": -0.5051229041,
				"element": "H" 
			},
			{
				"x": 3.3445091251,
				"y": 2.1724625959,
				"z": -1.3577242312,
				"element": "H" 
			},
			{
				"x": -2.6098725333,
				"y": 0.2280565021,
				"z": -1.4188111766,
				"element": "H" 
			},
			{
				"x": -2.4353862925,
				"y": 1.2048738315,
				"z": 0.0501481333,
				"element": "H" 
			},
			{
				"x": -2.5873309003,
				"y": -0.6843155925,
				"z": 1.4902517406,
				"element": "H" 
			},
			{
				"x": -3.5913199422,
				"y": -1.301320663,
				"z": 0.1732351147,
				"element": "H" 
			},
			{
				"x": -1.7231903623,
				"y": -2.6183374427,
				"z": -0.714903878,
				"element": "H" 
			},
			{
				"x": -1.2668893647,
				"y": -2.6581815605,
				"z": 0.988885134,
				"element": "H" 
			}
		],
		 "valence_orbital": [ 
			{
				"type": "occ",
				"energy": -0.30815,
				"method": "rhf"
			},
			{
				"type": "occ",
				"energy": -0.28758,
				"method": "rhf"
			},
			{
				"type": "occ",
				"energy": -0.26185,
				"method": "rhf"
			},
			{
				"type": "occ",
				"energy": -0.25443,
				"method": "rhf"
			},
			{
				"type": "occ",
				"energy": -0.21911,
				"method": "rhf"
			},
			{
				"type": "unocc",
				"energy": -0.01981,
				"method": "rhf"
			},
			{
				"type": "unocc",
				"energy": -0.01156,
				"method": "rhf"
			},
			{
				"type": "unocc",
				"energy": 0.03395,
				"method": "rhf"
			},
			{
				"type": "unocc",
				"energy": 0.03492,
				"method": "rhf"
			},
			{
				"type": "unocc",
				"energy": 0.0748,
				"method": "rhf"
			}
		],
		"cosmo_sigma_profile": { 
			"-0.025": 0.0,
			"-0.024": 0.0,
			"-0.023": 0.0,
			"-0.022": 0.0,
			"-0.021": 0.0,
			"-0.02": 0.0,
			"-0.019": 0.0,
			"-0.018": 0.0,
			"-0.017": 0.0,
			"-0.016": 0.0,
			"-0.015": 0.0,
			"-0.014": 0.0,
			"-0.013": 0.0,
			"-0.012": 0.0,
			"-0.011": 0.0,
			"-0.01": 0.0,
			"-0.009": 0.0,
			"-0.008": 0.449167172518,
			"-0.007": 5.69012104865,
			"-0.006": 11.9215509824,
			"-0.005": 20.2156006547,
			"-0.004": 26.5231368668,
			"-0.003": 17.9345377703,
			"-0.002": 14.8558919087,
			"-0.001": 15.9120432437,
			"0.0": 11.5859085394,
			"0.001": 12.7229848455,
			"0.002": 16.9749553419,
			"0.003": 18.0525644186,
			"0.004": 20.671847615,
			"0.005": 11.1674752336,
			"0.006": 2.08355115518,
			"0.007": 2.12171707546,
			"0.008": 1.42931671985,
			"0.009": 1.49279958521,
			"0.01": 1.27867982147,
			"0.011": 2.00299707645,
			"0.012": 3.13591879887,
			"0.013": 2.80568051696,
			"0.014": 1.39832616183,
			"0.015": 0.0143674397818,
			"0.016": 0.0,
			"0.017": 0.0,
			"0.018": 0.0,
			"0.019": 0.0,
			"0.02": 0.0,
			"0.021": 0.0,
			"0.022": 0.0,
			"0.023": 0.0,
			"0.024": 0.0,
			"0.025": 0.0
		}
	}
}
