{
	 "smiles": "OC(=O)C1CCC1C(O)=O", 
	 "Tm": 404.15, 
	 "num_atms": 18, 
	 "gaussian": { 
		 "optdone": 1, 
		 "sigma_profile": "yes", 
		 "theory": "DFT", 
		 "functional": "B3LYP", 
		 "basiset": "6-31G**", 
		 "properties": { 
			 "R2extent": 1725.5179, 
			 "electric_dipole_moment_norm": 5.38681873187, 
			 "electric_quadrupole_moment_norm": 15.2190121729, 
			 "total_energy": -534.355475358, 
			 "HOMO_LUMO_gap": 0.23427, 
			 "cosmo_polarized_energy": -16.04, 
			 "cosmo_cavitation_energy": 21.42, 
			 "cosmo_dispersion_energy": -16.01, 
			 "cosmo_repulsion_energy": 1.32, 
			 "cosmo_total_nonelectrostatic_energy": 6.73, 
			 "SMD_solvation_energy": 5.66 
		},
		"coords": [
			{
				"x": 0.9210120091,
				"y": -1.45542326,
				"z": -1.5460132185,
				"element": "O" 
			},
			{
				"x": -0.2776979208,
				"y": -1.2016797183,
				"z": -0.9985316866,
				"element": "C" 
			},
			{
				"x": -1.2450942215,
				"y": -1.9213258045,
				"z": -1.1985887949,
				"element": "O" 
			},
			{
				"x": -0.288722965,
				"y": 0.0679802986,
				"z": -0.194829063,
				"element": "C" 
			},
			{
				"x": 0.8754591724,
				"y": 0.4462308348,
				"z": 0.7574465058,
				"element": "C" 
			},
			{
				"x": -0.1735675733,
				"y": 1.1343732337,
				"z": 1.6716672276,
				"element": "C" 
			},
			{
				"x": -1.2959695861,
				"y": 0.314352032,
				"z": 0.9816891307,
				"element": "C" 
			},
			{
				"x": -1.7731123163,
				"y": -0.8649182195,
				"z": 1.845089943,
				"element": "C" 
			},
			{
				"x": -2.4334829176,
				"y": -1.8494250816,
				"z": 1.2160713724,
				"element": "O" 
			},
			{
				"x": -1.6413427731,
				"y": -0.8717840496,
				"z": 3.0479306922,
				"element": "O" 
			},
			{
				"x": 0.8272866429,
				"y": -2.2707256609,
				"z": -2.0690421515,
				"element": "H" 
			},
			{
				"x": -0.4250116071,
				"y": 0.8710809203,
				"z": -0.93144171,
				"element": "H" 
			},
			{
				"x": 1.6805755754,
				"y": 1.0530320466,
				"z": 0.3382001234,
				"element": "H" 
			},
			{
				"x": 1.3085184081,
				"y": -0.4380306725,
				"z": 1.2334229376,
				"element": "H" 
			},
			{
				"x": -0.0894618697,
				"y": 0.9697815787,
				"z": 2.7458372995,
				"element": "H" 
			},
			{
				"x": -0.2624946244,
				"y": 2.2044844177,
				"z": 1.4656251728,
				"element": "H" 
			},
			{
				"x": -2.1972568237,
				"y": 0.8657572646,
				"z": 0.6901248794,
				"element": "H" 
			},
			{
				"x": -2.2863366094,
				"y": -1.8100601601,
				"z": 0.2463413402,
				"element": "H" 
			}
		],
		 "valence_orbital": [ 
			{
				"type": "occ",
				"energy": -0.33431,
				"method": "rhf"
			},
			{
				"type": "occ",
				"energy": -0.33169,
				"method": "rhf"
			},
			{
				"type": "occ",
				"energy": -0.30137,
				"method": "rhf"
			},
			{
				"type": "occ",
				"energy": -0.29915,
				"method": "rhf"
			},
			{
				"type": "occ",
				"energy": -0.26072,
				"method": "rhf"
			},
			{
				"type": "unocc",
				"energy": -0.02645,
				"method": "rhf"
			},
			{
				"type": "unocc",
				"energy": 0.01295,
				"method": "rhf"
			},
			{
				"type": "unocc",
				"energy": 0.05391,
				"method": "rhf"
			},
			{
				"type": "unocc",
				"energy": 0.07398,
				"method": "rhf"
			},
			{
				"type": "unocc",
				"energy": 0.10859,
				"method": "rhf"
			}
		],
		"cosmo_sigma_profile": { 
			"-0.025": 0.0,
			"-0.024": 0.0,
			"-0.023": 0.0,
			"-0.022": 0.0,
			"-0.021": 0.0,
			"-0.02": 0.0,
			"-0.019": 0.585214911358,
			"-0.018": 1.25813466831,
			"-0.017": 0.649973715486,
			"-0.016": 0.850191744622,
			"-0.015": 0.756483675859,
			"-0.014": 0.719180042006,
			"-0.013": 0.772259735797,
			"-0.012": 0.965847678365,
			"-0.011": 0.794357393688,
			"-0.01": 0.435350289225,
			"-0.009": 1.62671294401,
			"-0.008": 5.54996585324,
			"-0.007": 9.84940164538,
			"-0.006": 9.42581923006,
			"-0.005": 10.194895882,
			"-0.004": 12.9753946337,
			"-0.003": 10.560860499,
			"-0.002": 10.7481532647,
			"-0.001": 10.5446632515,
			"0.0": 11.5588775895,
			"0.001": 7.11031371571,
			"0.002": 5.28117531805,
			"0.003": 5.32215093498,
			"0.004": 4.64302208289,
			"0.005": 3.44904108536,
			"0.006": 5.47350659323,
			"0.007": 5.445128386,
			"0.008": 5.31344496523,
			"0.009": 5.14260429724,
			"0.01": 5.07228193408,
			"0.011": 6.04868469978,
			"0.012": 6.18173017479,
			"0.013": 2.72085476845,
			"0.014": 0.565535192358,
			"0.015": 0.0,
			"0.016": 0.0,
			"0.017": 0.0,
			"0.018": 0.0,
			"0.019": 0.0,
			"0.02": 0.0,
			"0.021": 0.0,
			"0.022": 0.0,
			"0.023": 0.0,
			"0.024": 0.0,
			"0.025": 0.0
		}
	}
}
