{
	 "smiles": "OC(=O)C1=CC=C(NC(=O)CC2=CC=C(Br)C=C2)C=C1", 
	 "Tm": 556.15, 
	 "num_atms": 32, 
	 "gaussian": { 
		 "optdone": 1, 
		 "sigma_profile": "yes", 
		 "theory": "DFT", 
		 "functional": "B3LYP", 
		 "basiset": "6-31G**", 
		 "properties": { 
			 "R2extent": 14743.7145, 
			 "electric_dipole_moment_norm": 6.77814365, 
			 "electric_quadrupole_moment_norm": 26.6747245191, 
			 "total_energy": -3430.68943501, 
			 "HOMO_LUMO_gap": 0.18642, 
			 "cosmo_polarized_energy": -23.65, 
			 "cosmo_cavitation_energy": 40.0, 
			 "cosmo_dispersion_energy": -28.54, 
			 "cosmo_repulsion_energy": 2.19, 
			 "cosmo_total_nonelectrostatic_energy": 13.65, 
			 "SMD_solvation_energy": 6.97 
		},
		"coords": [
			{
				"x": 1.4211212145,
				"y": -2.0498496944,
				"z": -4.7662359782,
				"element": "O" 
			},
			{
				"x": 0.7226648514,
				"y": -0.9437609279,
				"z": -4.3832278217,
				"element": "C" 
			},
			{
				"x": 0.2024298402,
				"y": -0.2435088808,
				"z": -5.2202715846,
				"element": "O" 
			},
			{
				"x": 0.6487860132,
				"y": -0.6690259522,
				"z": -2.9154568485,
				"element": "C" 
			},
			{
				"x": 0.8726507178,
				"y": -1.6456528071,
				"z": -1.9338497399,
				"element": "C" 
			},
			{
				"x": 0.7724924929,
				"y": -1.3284204264,
				"z": -0.5854780762,
				"element": "C" 
			},
			{
				"x": 0.44679352,
				"y": -0.0217955143,
				"z": -0.182651683,
				"element": "C" 
			},
			{
				"x": 0.3701546876,
				"y": 0.224134067,
				"z": 1.1985225312,
				"element": "N" 
			},
			{
				"x": 0.0842338616,
				"y": 1.4029192816,
				"z": 1.8496456909,
				"element": "C" 
			},
			{
				"x": -0.1550694673,
				"y": 2.4624915949,
				"z": 1.2928057087,
				"element": "O" 
			},
			{
				"x": 0.052963477,
				"y": 1.3163003532,
				"z": 3.389660767,
				"element": "C" 
			},
			{
				"x": 0.5562082071,
				"y": 0.0490399641,
				"z": 4.0406200385,
				"element": "C" 
			},
			{
				"x": -0.3209123798,
				"y": -0.9996282245,
				"z": 4.3561963108,
				"element": "C" 
			},
			{
				"x": 0.1406103508,
				"y": -2.1806101039,
				"z": 4.9394574742,
				"element": "C" 
			},
			{
				"x": 1.5006466177,
				"y": -2.3167208419,
				"z": 5.2117912197,
				"element": "C" 
			},
			{
				"x": 2.1444283076,
				"y": -3.9265139054,
				"z": 6.0110220706,
				"element": "Br" 
			},
			{
				"x": 2.3977187627,
				"y": -1.2920482456,
				"z": 4.9107651997,
				"element": "C" 
			},
			{
				"x": 1.9197969266,
				"y": -0.1193201662,
				"z": 4.3273232371,
				"element": "C" 
			},
			{
				"x": 0.2071059848,
				"y": 0.9617445436,
				"z": -1.159119452,
				"element": "C" 
			},
			{
				"x": 0.3010365786,
				"y": 0.6249866156,
				"z": -2.5040355541,
				"element": "C" 
			},
			{
				"x": 1.9225828065,
				"y": -2.4016576573,
				"z": -4.0181924485,
				"element": "H" 
			},
			{
				"x": 1.0878210513,
				"y": -2.6759041384,
				"z": -2.2071571514,
				"element": "H" 
			},
			{
				"x": 0.9379921227,
				"y": -2.0989436768,
				"z": 0.1635299561,
				"element": "H" 
			},
			{
				"x": 0.5600198359,
				"y": -0.570106591,
				"z": 1.795268924,
				"element": "H" 
			},
			{
				"x": -0.9889225274,
				"y": 1.5050246064,
				"z": 3.6723550431,
				"element": "H" 
			},
			{
				"x": 0.6203995159,
				"y": 2.185314065,
				"z": 3.7363043976,
				"element": "H" 
			},
			{
				"x": -1.3833208931,
				"y": -0.8909434493,
				"z": 4.1528924889,
				"element": "H" 
			},
			{
				"x": -0.548265842,
				"y": -2.9809875384,
				"z": 5.1844224713,
				"element": "H" 
			},
			{
				"x": 3.4524767535,
				"y": -1.4079072862,
				"z": 5.1326497682,
				"element": "H" 
			},
			{
				"x": 2.6192733026,
				"y": 0.6801872415,
				"z": 4.0970225843,
				"element": "H" 
			},
			{
				"x": -0.0493188062,
				"y": 1.9645354401,
				"z": -0.8492221163,
				"element": "H" 
			},
			{
				"x": 0.1063021152,
				"y": 1.370328255,
				"z": -3.2677574273,
				"element": "H" 
			}
		],
		 "valence_orbital": [ 
			{
				"type": "occ",
				"energy": -0.27745,
				"method": "rhf"
			},
			{
				"type": "occ",
				"energy": -0.27274,
				"method": "rhf"
			},
			{
				"type": "occ",
				"energy": -0.26853,
				"method": "rhf"
			},
			{
				"type": "occ",
				"energy": -0.25236,
				"method": "rhf"
			},
			{
				"type": "occ",
				"energy": -0.23953,
				"method": "rhf"
			},
			{
				"type": "unocc",
				"energy": -0.05311,
				"method": "rhf"
			},
			{
				"type": "unocc",
				"energy": -0.03922,
				"method": "rhf"
			},
			{
				"type": "unocc",
				"energy": -0.03604,
				"method": "rhf"
			},
			{
				"type": "unocc",
				"energy": -0.02233,
				"method": "rhf"
			},
			{
				"type": "unocc",
				"energy": -0.00879,
				"method": "rhf"
			}
		],
		"cosmo_sigma_profile": { 
			"-0.025": 0.0,
			"-0.024": 0.0,
			"-0.023": 0.0,
			"-0.022": 0.0,
			"-0.021": 0.0,
			"-0.02": 0.0,
			"-0.019": 0.0148291007832,
			"-0.018": 0.886539822757,
			"-0.017": 1.03919446059,
			"-0.016": 0.97270640182,
			"-0.015": 0.941175624507,
			"-0.014": 1.00951540123,
			"-0.013": 1.56382706815,
			"-0.012": 2.28479739148,
			"-0.011": 2.38727462383,
			"-0.01": 2.50747887553,
			"-0.009": 2.10040437756,
			"-0.008": 5.05984489733,
			"-0.007": 17.6441417757,
			"-0.006": 18.4208327594,
			"-0.005": 19.0006223364,
			"-0.004": 17.1285441165,
			"-0.003": 18.2563693802,
			"-0.002": 17.1184891959,
			"-0.001": 20.1578896278,
			"0.0": 19.1458661796,
			"0.001": 23.4305159152,
			"0.002": 30.292263749,
			"0.003": 31.1656543125,
			"0.004": 18.4271192422,
			"0.005": 9.47629051267,
			"0.006": 4.58587920439,
			"0.007": 3.47679555719,
			"0.008": 3.92489612841,
			"0.009": 4.17383691685,
			"0.01": 6.06662541333,
			"0.011": 7.87670538573,
			"0.012": 8.15940406277,
			"0.013": 4.64339676008,
			"0.014": 0.774174397651,
			"0.015": 0.0,
			"0.016": 0.0,
			"0.017": 0.0,
			"0.018": 0.0,
			"0.019": 0.0,
			"0.02": 0.0,
			"0.021": 0.0,
			"0.022": 0.0,
			"0.023": 0.0,
			"0.024": 0.0,
			"0.025": 0.0
		}
	}
}
