{
	 "smiles": "ClC(=O)CC1=CC2=CC=CC=C2C=C1", 
	 "Tm": 333.65, 
	 "num_atms": 23, 
	 "gaussian": { 
		 "optdone": 1, 
		 "sigma_profile": "yes", 
		 "theory": "DFT", 
		 "functional": "B3LYP", 
		 "basiset": "6-31G**", 
		 "properties": { 
			 "R2extent": 5356.1827, 
			 "electric_dipole_moment_norm": 3.28493194298, 
			 "electric_quadrupole_moment_norm": 18.3287859066, 
			 "total_energy": -998.137367021, 
			 "HOMO_LUMO_gap": 0.16972, 
			 "cosmo_polarized_energy": -8.15, 
			 "cosmo_cavitation_energy": 29.45, 
			 "cosmo_dispersion_energy": -21.06, 
			 "cosmo_repulsion_energy": 1.65, 
			 "cosmo_total_nonelectrostatic_energy": 10.04, 
			 "SMD_solvation_energy": 5.1 
		},
		"coords": [
			{
				"x": 2.1179275891,
				"y": -3.744533102,
				"z": -2.9969643993,
				"element": "Cl" 
			},
			{
				"x": 3.4484017079,
				"y": -2.5045084008,
				"z": -2.8010554081,
				"element": "C" 
			},
			{
				"x": 4.5135179395,
				"y": -2.8274509604,
				"z": -2.3834785594,
				"element": "O" 
			},
			{
				"x": 3.0027249815,
				"y": -1.1045542324,
				"z": -3.1835804188,
				"element": "C" 
			},
			{
				"x": 2.2420060178,
				"y": -0.4429045951,
				"z": -2.046977457,
				"element": "C" 
			},
			{
				"x": 0.8995905913,
				"y": -0.1515411544,
				"z": -2.1638031976,
				"element": "C" 
			},
			{
				"x": 0.1863104807,
				"y": 0.4763279123,
				"z": -1.1076292178,
				"element": "C" 
			},
			{
				"x": -1.1954619246,
				"y": 0.7906143126,
				"z": -1.2113581195,
				"element": "C" 
			},
			{
				"x": -1.8586512146,
				"y": 1.3993838031,
				"z": -0.1695128771,
				"element": "C" 
			},
			{
				"x": -1.1699828642,
				"y": 1.7230698541,
				"z": 1.0254603986,
				"element": "C" 
			},
			{
				"x": 0.1694498954,
				"y": 1.4314029311,
				"z": 1.1566039871,
				"element": "C" 
			},
			{
				"x": 0.8824200762,
				"y": 0.8031058904,
				"z": 0.1010741736,
				"element": "C" 
			},
			{
				"x": 2.2646459918,
				"y": 0.4854026337,
				"z": 0.1981143786,
				"element": "C" 
			},
			{
				"x": 2.9268957998,
				"y": -0.1202495167,
				"z": -0.8427822038,
				"element": "C" 
			},
			{
				"x": 3.9186655894,
				"y": -0.5484386441,
				"z": -3.4094182801,
				"element": "H" 
			},
			{
				"x": 2.3839265411,
				"y": -1.1550856567,
				"z": -4.0813829506,
				"element": "H" 
			},
			{
				"x": 0.3654901135,
				"y": -0.4004561309,
				"z": -3.0775702372,
				"element": "H" 
			},
			{
				"x": -1.7221911766,
				"y": 0.540441315,
				"z": -2.1286593449,
				"element": "H" 
			},
			{
				"x": -2.915247337,
				"y": 1.6338285068,
				"z": -0.260129241,
				"element": "H" 
			},
			{
				"x": -1.7049466104,
				"y": 2.2029751282,
				"z": 1.8397559389,
				"element": "H" 
			},
			{
				"x": 0.7001719687,
				"y": 1.6780579372,
				"z": 2.0725545974,
				"element": "H" 
			},
			{
				"x": 2.795814711,
				"y": 0.7302376425,
				"z": 1.1141772709,
				"element": "H" 
			},
			{
				"x": 3.9825211328,
				"y": -0.3613254733,
				"z": -0.7519388329,
				"element": "H" 
			}
		],
		 "valence_orbital": [ 
			{
				"type": "occ",
				"energy": -0.31579,
				"method": "rhf"
			},
			{
				"type": "occ",
				"energy": -0.29815,
				"method": "rhf"
			},
			{
				"type": "occ",
				"energy": -0.29009,
				"method": "rhf"
			},
			{
				"type": "occ",
				"energy": -0.24939,
				"method": "rhf"
			},
			{
				"type": "occ",
				"energy": -0.22405,
				"method": "rhf"
			},
			{
				"type": "unocc",
				"energy": -0.05433,
				"method": "rhf"
			},
			{
				"type": "unocc",
				"energy": -0.03528,
				"method": "rhf"
			},
			{
				"type": "unocc",
				"energy": -0.0178,
				"method": "rhf"
			},
			{
				"type": "unocc",
				"energy": 0.01919,
				"method": "rhf"
			},
			{
				"type": "unocc",
				"energy": 0.02522,
				"method": "rhf"
			}
		],
		"cosmo_sigma_profile": { 
			"-0.025": 0.0,
			"-0.024": 0.0,
			"-0.023": 0.0,
			"-0.022": 0.0,
			"-0.021": 0.0,
			"-0.02": 0.0,
			"-0.019": 0.0,
			"-0.018": 0.0,
			"-0.017": 0.0,
			"-0.016": 0.0,
			"-0.015": 0.0,
			"-0.014": 0.0,
			"-0.013": 0.0,
			"-0.012": 0.0,
			"-0.011": 0.0,
			"-0.01": 0.0,
			"-0.009": 0.0,
			"-0.008": 2.35014229478,
			"-0.007": 7.73169138541,
			"-0.006": 19.3420249714,
			"-0.005": 18.8158406453,
			"-0.004": 18.4602955817,
			"-0.003": 13.7142365666,
			"-0.002": 12.7316787319,
			"-0.001": 13.6058258725,
			"0.0": 13.3457013161,
			"0.001": 13.5970303803,
			"0.002": 15.9414774281,
			"0.003": 24.8314188381,
			"0.004": 34.3067419074,
			"0.005": 16.8610922034,
			"0.006": 3.20437977519,
			"0.007": 2.94610967807,
			"0.008": 4.78930616353,
			"0.009": 1.76540050774,
			"0.01": 0.0203390764186,
			"0.011": 0.0,
			"0.012": 0.0,
			"0.013": 0.0,
			"0.014": 0.0,
			"0.015": 0.0,
			"0.016": 0.0,
			"0.017": 0.0,
			"0.018": 0.0,
			"0.019": 0.0,
			"0.02": 0.0,
			"0.021": 0.0,
			"0.022": 0.0,
			"0.023": 0.0,
			"0.024": 0.0,
			"0.025": 0.0
		}
	}
}
