{
	 "smiles": "CCCCCCCCCCCCC1=C(OC(C)=O)C(=O)C2=C(C=CC=C2)C1=O", 
	 "Tm": 332.75, 
	 "num_atms": 60, 
	 "gaussian": { 
		 "optdone": 1, 
		 "sigma_profile": "yes", 
		 "theory": "DFT", 
		 "functional": "B3LYP", 
		 "basiset": "6-31G**", 
		 "properties": { 
			 "R2extent": 19783.2556, 
			 "electric_dipole_moment_norm": 1.4992093683, 
			 "electric_quadrupole_moment_norm": 24.9480353441, 
			 "total_energy": -1234.77246379, 
			 "HOMO_LUMO_gap": 0.1503, 
			 "cosmo_polarized_energy": -12.76, 
			 "cosmo_cavitation_energy": 61.57, 
			 "cosmo_dispersion_energy": -40.4, 
			 "cosmo_repulsion_energy": 3.15, 
			 "cosmo_total_nonelectrostatic_energy": 24.32, 
			 "SMD_solvation_energy": 10.67 
		},
		"coords": [
			{
				"x": -0.9104173584,
				"y": 5.8811376974,
				"z": 2.1943623407,
				"element": "C" 
			},
			{
				"x": -2.0427995781,
				"y": 5.5128355906,
				"z": 3.1606683833,
				"element": "C" 
			},
			{
				"x": -2.2977216414,
				"y": 4.0025690058,
				"z": 3.2983682724,
				"element": "C" 
			},
			{
				"x": -2.8181482583,
				"y": 3.3195912248,
				"z": 2.0258573337,
				"element": "C" 
			},
			{
				"x": -3.1231478401,
				"y": 1.8280831563,
				"z": 2.2195098278,
				"element": "C" 
			},
			{
				"x": -3.672115925,
				"y": 1.1544102993,
				"z": 0.9524874563,
				"element": "C" 
			},
			{
				"x": -4.0355863993,
				"y": -0.3395231838,
				"z": 1.0941319645,
				"element": "C" 
			},
			{
				"x": -2.9229221104,
				"y": -1.3783825585,
				"z": 0.845960765,
				"element": "C" 
			},
			{
				"x": -1.7490441322,
				"y": -1.4093390279,
				"z": 1.8531528497,
				"element": "C" 
			},
			{
				"x": -0.5178867463,
				"y": -0.5421845913,
				"z": 1.4929933953,
				"element": "C" 
			},
			{
				"x": 0.6156758976,
				"y": -1.2966828425,
				"z": 0.7766070969,
				"element": "C" 
			},
			{
				"x": 0.2330911997,
				"y": -1.8685449386,
				"z": -0.6075290626,
				"element": "C" 
			},
			{
				"x": 1.3765239882,
				"y": -2.5996905601,
				"z": -1.2547144352,
				"element": "C" 
			},
			{
				"x": 2.2211163482,
				"y": -2.0299127937,
				"z": -2.1422715833,
				"element": "C" 
			},
			{
				"x": 2.1126919712,
				"y": -0.6930535283,
				"z": -2.4567189538,
				"element": "O" 
			},
			{
				"x": 1.8820627448,
				"y": -0.3707818957,
				"z": -3.7875574421,
				"element": "C" 
			},
			{
				"x": 2.1891986219,
				"y": 1.0812378874,
				"z": -4.0241896949,
				"element": "C" 
			},
			{
				"x": 1.4757267936,
				"y": -1.1706761776,
				"z": -4.5874140264,
				"element": "O" 
			},
			{
				"x": 3.3956250942,
				"y": -2.7251104162,
				"z": -2.7488889545,
				"element": "C" 
			},
			{
				"x": 4.165847268,
				"y": -2.1174886788,
				"z": -3.4809349152,
				"element": "O" 
			},
			{
				"x": 3.5839913808,
				"y": -4.156028465,
				"z": -2.3958591077,
				"element": "C" 
			},
			{
				"x": 2.7192477298,
				"y": -4.7799131839,
				"z": -1.4794167725,
				"element": "C" 
			},
			{
				"x": 2.9150159373,
				"y": -6.1229340441,
				"z": -1.1445737196,
				"element": "C" 
			},
			{
				"x": 3.9636705751,
				"y": -6.8383614086,
				"z": -1.7211083019,
				"element": "C" 
			},
			{
				"x": 4.8236329327,
				"y": -6.2160327122,
				"z": -2.6326654046,
				"element": "C" 
			},
			{
				"x": 4.636476792,
				"y": -4.8762897299,
				"z": -2.9686811486,
				"element": "C" 
			},
			{
				"x": 1.5922084317,
				"y": -4.0235586855,
				"z": -0.8585409566,
				"element": "C" 
			},
			{
				"x": 0.8431042346,
				"y": -4.5570785467,
				"z": -0.0459612056,
				"element": "O" 
			},
			{
				"x": -1.1302454364,
				"y": 5.5685777629,
				"z": 1.16835759,
				"element": "H" 
			},
			{
				"x": -0.7426517668,
				"y": 6.9631622985,
				"z": 2.1777555997,
				"element": "H" 
			},
			{
				"x": 0.0312485307,
				"y": 5.4040995339,
				"z": 2.4909724846,
				"element": "H" 
			},
			{
				"x": -1.8094644981,
				"y": 5.920772849,
				"z": 4.1525724577,
				"element": "H" 
			},
			{
				"x": -2.9706500524,
				"y": 6.0072741292,
				"z": 2.8412735691,
				"element": "H" 
			},
			{
				"x": -1.3699993267,
				"y": 3.5082182263,
				"z": 3.6216507001,
				"element": "H" 
			},
			{
				"x": -3.0237295114,
				"y": 3.8398192969,
				"z": 4.1067296722,
				"element": "H" 
			},
			{
				"x": -2.0861818648,
				"y": 3.4315660861,
				"z": 1.2148076993,
				"element": "H" 
			},
			{
				"x": -3.7282839569,
				"y": 3.83528879,
				"z": 1.6857833826,
				"element": "H" 
			},
			{
				"x": -2.2145010991,
				"y": 1.319624358,
				"z": 2.562353775,
				"element": "H" 
			},
			{
				"x": -3.8582440979,
				"y": 1.7111424409,
				"z": 3.0287354519,
				"element": "H" 
			},
			{
				"x": -2.9605063478,
				"y": 1.2832353691,
				"z": 0.1243670271,
				"element": "H" 
			},
			{
				"x": -4.5748119671,
				"y": 1.7027546099,
				"z": 0.6504645229,
				"element": "H" 
			},
			{
				"x": -4.4694941574,
				"y": -0.5099483898,
				"z": 2.0900498482,
				"element": "H" 
			},
			{
				"x": -4.8396377063,
				"y": -0.5624755338,
				"z": 0.3809889799,
				"element": "H" 
			},
			{
				"x": -2.535771206,
				"y": -1.2424884956,
				"z": -0.172312,
				"element": "H" 
			},
			{
				"x": -3.4048715107,
				"y": -2.3643595068,
				"z": 0.8478228681,
				"element": "H" 
			},
			{
				"x": -1.4099365791,
				"y": -2.4465014369,
				"z": 1.9720104588,
				"element": "H" 
			},
			{
				"x": -2.1293861377,
				"y": -1.1143142551,
				"z": 2.8388363654,
				"element": "H" 
			},
			{
				"x": -0.0908553335,
				"y": -0.1185625629,
				"z": 2.410646529,
				"element": "H" 
			},
			{
				"x": -0.8239895299,
				"y": 0.3159298414,
				"z": 0.8813198152,
				"element": "H" 
			},
			{
				"x": 0.954926193,
				"y": -2.1227701573,
				"z": 1.4133053021,
				"element": "H" 
			},
			{
				"x": 1.4712674446,
				"y": -0.6216394101,
				"z": 0.6502040973,
				"element": "H" 
			},
			{
				"x": -0.0963121709,
				"y": -1.0557581565,
				"z": -1.2613669269,
				"element": "H" 
			},
			{
				"x": -0.5933504504,
				"y": -2.5745450485,
				"z": -0.4914160683,
				"element": "H" 
			},
			{
				"x": 3.2756683655,
				"y": 1.2139825464,
				"z": -4.0079622633,
				"element": "H" 
			},
			{
				"x": 1.7989387938,
				"y": 1.3819948513,
				"z": -4.995857585,
				"element": "H" 
			},
			{
				"x": 1.7666410288,
				"y": 1.7020392191,
				"z": -3.2302874666,
				"element": "H" 
			},
			{
				"x": 2.2361821121,
				"y": -6.5826728793,
				"z": -0.434290978,
				"element": "H" 
			},
			{
				"x": 4.1129655513,
				"y": -7.8820778877,
				"z": -1.4608071575,
				"element": "H" 
			},
			{
				"x": 5.6391459999,
				"y": -6.7769918954,
				"z": -3.07935232,
				"element": "H" 
			},
			{
				"x": 5.2898727362,
				"y": -4.3691734858,
				"z": -3.670629431,
				"element": "H" 
			}
		],
		 "valence_orbital": [ 
			{
				"type": "occ",
				"energy": -0.27832,
				"method": "rhf"
			},
			{
				"type": "occ",
				"energy": -0.27397,
				"method": "rhf"
			},
			{
				"type": "occ",
				"energy": -0.27103,
				"method": "rhf"
			},
			{
				"type": "occ",
				"energy": -0.26428,
				"method": "rhf"
			},
			{
				"type": "occ",
				"energy": -0.26274,
				"method": "rhf"
			},
			{
				"type": "unocc",
				"energy": -0.11244,
				"method": "rhf"
			},
			{
				"type": "unocc",
				"energy": -0.04358,
				"method": "rhf"
			},
			{
				"type": "unocc",
				"energy": -0.0211,
				"method": "rhf"
			},
			{
				"type": "unocc",
				"energy": 0.00249,
				"method": "rhf"
			},
			{
				"type": "unocc",
				"energy": 0.03998,
				"method": "rhf"
			}
		],
		"cosmo_sigma_profile": { 
			"-0.025": 0.0,
			"-0.024": 0.0,
			"-0.023": 0.0,
			"-0.022": 0.0,
			"-0.021": 0.0,
			"-0.02": 0.0,
			"-0.019": 0.0,
			"-0.018": 0.0,
			"-0.017": 0.0,
			"-0.016": 0.0,
			"-0.015": 0.0,
			"-0.014": 0.0,
			"-0.013": 0.0,
			"-0.012": 0.0,
			"-0.011": 0.0,
			"-0.01": 0.0,
			"-0.009": 0.0,
			"-0.008": 0.842711699031,
			"-0.007": 8.41504806358,
			"-0.006": 15.7325695988,
			"-0.005": 17.0653104885,
			"-0.004": 18.3954510728,
			"-0.003": 25.4716671342,
			"-0.002": 59.5585690374,
			"-0.001": 82.1644501989,
			"0.0": 83.4987063894,
			"0.001": 68.6946121842,
			"0.002": 37.611828624,
			"0.003": 8.11506604775,
			"0.004": 5.79923398218,
			"0.005": 7.31546480348,
			"0.006": 5.65652036321,
			"0.007": 5.2457517987,
			"0.008": 6.44944605908,
			"0.009": 6.67213783012,
			"0.01": 9.10928753991,
			"0.011": 8.02834715914,
			"0.012": 0.908734007671,
			"0.013": 0.0,
			"0.014": 0.0,
			"0.015": 0.0,
			"0.016": 0.0,
			"0.017": 0.0,
			"0.018": 0.0,
			"0.019": 0.0,
			"0.02": 0.0,
			"0.021": 0.0,
			"0.022": 0.0,
			"0.023": 0.0,
			"0.024": 0.0,
			"0.025": 0.0
		}
	}
}
