{
	 "smiles": "O=C1CC2(CCSC2)C(=O)N1", 
	 "Tm": 409.15, 
	 "num_atms": 20, 
	 "gaussian": { 
		 "optdone": 1, 
		 "sigma_profile": "yes", 
		 "theory": "DFT", 
		 "functional": "B3LYP", 
		 "basiset": "6-31G**", 
		 "properties": { 
			 "R2extent": 1986.3563, 
			 "electric_dipole_moment_norm": 1.32343138847, 
			 "electric_quadrupole_moment_norm": 10.9225659655, 
			 "total_energy": -875.59095066, 
			 "HOMO_LUMO_gap": 0.19745, 
			 "cosmo_polarized_energy": -15.24, 
			 "cosmo_cavitation_energy": 24.23, 
			 "cosmo_dispersion_energy": -18.35, 
			 "cosmo_repulsion_energy": 1.42, 
			 "cosmo_total_nonelectrostatic_energy": 7.31, 
			 "SMD_solvation_energy": 4.68 
		},
		"coords": [
			{
				"x": 1.6517247443,
				"y": 0.2281499645,
				"z": 2.9155372973,
				"element": "O" 
			},
			{
				"x": 0.9857738923,
				"y": 0.0344102597,
				"z": 1.923945198,
				"element": "C" 
			},
			{
				"x": 1.1049035434,
				"y": 0.71073161,
				"z": 0.5610689475,
				"element": "C" 
			},
			{
				"x": -0.02932923,
				"y": 0.1221159452,
				"z": -0.3104242975,
				"element": "C" 
			},
			{
				"x": 0.454035677,
				"y": -0.5100630744,
				"z": -1.6325800368,
				"element": "C" 
			},
			{
				"x": 0.8069152076,
				"y": 0.6365650221,
				"z": -2.5879376241,
				"element": "C" 
			},
			{
				"x": -0.3997205165,
				"y": 1.9988163984,
				"z": -2.2429600948,
				"element": "S" 
			},
			{
				"x": -1.0819984144,
				"y": 1.163644312,
				"z": -0.7447778777,
				"element": "C" 
			},
			{
				"x": -0.6905094149,
				"y": -0.9342964787,
				"z": 0.5938230311,
				"element": "C" 
			},
			{
				"x": -1.6066452745,
				"y": -1.6725241547,
				"z": 0.3006671577,
				"element": "O" 
			},
			{
				"x": -0.0546769022,
				"y": -0.8906388719,
				"z": 1.8272502602,
				"element": "N" 
			},
			{
				"x": 2.1024696595,
				"y": 0.4986723504,
				"z": 0.1619102894,
				"element": "H" 
			},
			{
				"x": 1.0403455046,
				"y": 1.7951611167,
				"z": 0.6852837004,
				"element": "H" 
			},
			{
				"x": 1.3114855394,
				"y": -1.1741787162,
				"z": -1.474982406,
				"element": "H" 
			},
			{
				"x": -0.3637337049,
				"y": -1.1112612327,
				"z": -2.0415223921,
				"element": "H" 
			},
			{
				"x": 0.7264285379,
				"y": 0.3336833282,
				"z": -3.6340240385,
				"element": "H" 
			},
			{
				"x": 1.8191528557,
				"y": 1.0123422368,
				"z": -2.4145644196,
				"element": "H" 
			},
			{
				"x": -1.2726644703,
				"y": 1.9124917259,
				"z": 0.0281461568,
				"element": "H" 
			},
			{
				"x": -2.02008063,
				"y": 0.6605040525,
				"z": -0.9901798492,
				"element": "H" 
			},
			{
				"x": -0.325176604,
				"y": -1.4863257936,
				"z": 2.6002209982,
				"element": "H" 
			}
		],
		 "valence_orbital": [ 
			{
				"type": "occ",
				"energy": -0.32104,
				"method": "rhf"
			},
			{
				"type": "occ",
				"energy": -0.30064,
				"method": "rhf"
			},
			{
				"type": "occ",
				"energy": -0.29422,
				"method": "rhf"
			},
			{
				"type": "occ",
				"energy": -0.26546,
				"method": "rhf"
			},
			{
				"type": "occ",
				"energy": -0.22907,
				"method": "rhf"
			},
			{
				"type": "unocc",
				"energy": -0.03162,
				"method": "rhf"
			},
			{
				"type": "unocc",
				"energy": 0.00698,
				"method": "rhf"
			},
			{
				"type": "unocc",
				"energy": 0.03328,
				"method": "rhf"
			},
			{
				"type": "unocc",
				"energy": 0.05189,
				"method": "rhf"
			},
			{
				"type": "unocc",
				"energy": 0.07381,
				"method": "rhf"
			}
		],
		"cosmo_sigma_profile": { 
			"-0.025": 0.0,
			"-0.024": 0.0,
			"-0.023": 0.0,
			"-0.022": 0.0,
			"-0.021": 0.0,
			"-0.02": 0.0,
			"-0.019": 0.0,
			"-0.018": 0.0,
			"-0.017": 0.314486638707,
			"-0.016": 1.50716128953,
			"-0.015": 0.919033340172,
			"-0.014": 0.789068469268,
			"-0.013": 0.919376810369,
			"-0.012": 0.669177071543,
			"-0.011": 1.14465256994,
			"-0.01": 1.14138321937,
			"-0.009": 1.51784569562,
			"-0.008": 4.72551622269,
			"-0.007": 10.5376603657,
			"-0.006": 11.6314709676,
			"-0.005": 14.6119554403,
			"-0.004": 16.0095117399,
			"-0.003": 19.0696739049,
			"-0.002": 17.4730970295,
			"-0.001": 8.34383585821,
			"0.0": 6.44185315944,
			"0.001": 5.98823053469,
			"0.002": 6.39920394374,
			"0.003": 4.47088394419,
			"0.004": 5.0904038116,
			"0.005": 6.53454200935,
			"0.006": 5.4714459705,
			"0.007": 4.35536908266,
			"0.008": 5.67368676498,
			"0.009": 4.71872524709,
			"0.01": 6.71173243819,
			"0.011": 8.86549019022,
			"0.012": 9.10695770298,
			"0.013": 1.48699238411,
			"0.014": 0.0,
			"0.015": 0.0,
			"0.016": 0.0,
			"0.017": 0.0,
			"0.018": 0.0,
			"0.019": 0.0,
			"0.02": 0.0,
			"0.021": 0.0,
			"0.022": 0.0,
			"0.023": 0.0,
			"0.024": 0.0,
			"0.025": 0.0
		}
	}
}
