{
	 "smiles": "COC1=CC(OC)=C(C=C1)C(=O)CCCCl", 
	 "Tm": 332.15, 
	 "num_atms": 31, 
	 "gaussian": { 
		 "optdone": 1, 
		 "sigma_profile": "yes", 
		 "theory": "DFT", 
		 "functional": "B3LYP", 
		 "basiset": "6-31G**", 
		 "properties": { 
			 "R2extent": 6546.7841, 
			 "electric_dipole_moment_norm": 8.56097167733, 
			 "electric_quadrupole_moment_norm": 12.7450112993, 
			 "total_energy": -1152.1697565, 
			 "HOMO_LUMO_gap": 0.18028, 
			 "cosmo_polarized_energy": -14.05, 
			 "cosmo_cavitation_energy": 35.87, 
			 "cosmo_dispersion_energy": -25.79, 
			 "cosmo_repulsion_energy": 2.03, 
			 "cosmo_total_nonelectrostatic_energy": 12.12, 
			 "SMD_solvation_energy": 7.48 
		},
		"coords": [
			{
				"x": -3.7569774048,
				"y": -3.4996181565,
				"z": 1.8519621846,
				"element": "C" 
			},
			{
				"x": -2.4565656123,
				"y": -3.6712698672,
				"z": 1.307264589,
				"element": "O" 
			},
			{
				"x": -1.7818658078,
				"y": -2.581848657,
				"z": 0.8580899801,
				"element": "C" 
			},
			{
				"x": -2.2883293768,
				"y": -1.27800193,
				"z": 0.8974396236,
				"element": "C" 
			},
			{
				"x": -1.5185735931,
				"y": -0.2109865902,
				"z": 0.4097605324,
				"element": "C" 
			},
			{
				"x": -1.981679007,
				"y": 1.0708476892,
				"z": 0.4321012885,
				"element": "O" 
			},
			{
				"x": -3.2739836016,
				"y": 1.3415082485,
				"z": 0.9565354959,
				"element": "C" 
			},
			{
				"x": -0.2271748963,
				"y": -0.4346727028,
				"z": -0.1251623907,
				"element": "C" 
			},
			{
				"x": 0.239014565,
				"y": -1.7649125659,
				"z": -0.1435196148,
				"element": "C" 
			},
			{
				"x": -0.5041851992,
				"y": -2.8271955552,
				"z": 0.3315640436,
				"element": "C" 
			},
			{
				"x": 0.7075962616,
				"y": 0.5949969385,
				"z": -0.679740139,
				"element": "C" 
			},
			{
				"x": 1.7979217212,
				"y": 0.2410007917,
				"z": -1.1195498457,
				"element": "O" 
			},
			{
				"x": 0.3293341145,
				"y": 2.0726421244,
				"z": -0.7155157929,
				"element": "C" 
			},
			{
				"x": 1.4087864176,
				"y": 2.973712839,
				"z": -1.3320372878,
				"element": "C" 
			},
			{
				"x": 2.6322747135,
				"y": 3.117469692,
				"z": -0.43533639,
				"element": "C" 
			},
			{
				"x": 3.8273982629,
				"y": 4.3069372549,
				"z": -1.1288204679,
				"element": "Cl" 
			},
			{
				"x": -3.7408142226,
				"y": -2.8543766599,
				"z": 2.7393455973,
				"element": "H" 
			},
			{
				"x": -4.0954361906,
				"y": -4.4958508305,
				"z": 2.1392967754,
				"element": "H" 
			},
			{
				"x": -4.4520376296,
				"y": -3.0817885865,
				"z": 1.1128259681,
				"element": "H" 
			},
			{
				"x": -3.2716559127,
				"y": -1.0916420713,
				"z": 1.3027727913,
				"element": "H" 
			},
			{
				"x": -3.4117195183,
				"y": 2.4195547727,
				"z": 0.8632437295,
				"element": "H" 
			},
			{
				"x": -3.348293314,
				"y": 1.0585307801,
				"z": 2.0136385977,
				"element": "H" 
			},
			{
				"x": -4.0569793726,
				"y": 0.8270724506,
				"z": 0.3862129423,
				"element": "H" 
			},
			{
				"x": 1.2289245972,
				"y": -1.9250324039,
				"z": -0.5563132289,
				"element": "H" 
			},
			{
				"x": -0.1302625995,
				"y": -3.8445819368,
				"z": 0.3100027438,
				"element": "H" 
			},
			{
				"x": 0.0696120412,
				"y": 2.397012338,
				"z": 0.2996437387,
				"element": "H" 
			},
			{
				"x": -0.6063165474,
				"y": 2.1702836256,
				"z": -1.277969944,
				"element": "H" 
			},
			{
				"x": 0.978665669,
				"y": 3.9648957041,
				"z": -1.5108072111,
				"element": "H" 
			},
			{
				"x": 1.7209943692,
				"y": 2.569064339,
				"z": -2.2987629256,
				"element": "H" 
			},
			{
				"x": 3.1619453052,
				"y": 2.172198481,
				"z": -0.3340774971,
				"element": "H" 
			},
			{
				"x": 2.3690817682,
				"y": 3.5023504444,
				"z": 0.5526121139,
				"element": "H" 
			}
		],
		 "valence_orbital": [ 
			{
				"type": "occ",
				"energy": -0.27841,
				"method": "rhf"
			},
			{
				"type": "occ",
				"energy": -0.27733,
				"method": "rhf"
			},
			{
				"type": "occ",
				"energy": -0.25085,
				"method": "rhf"
			},
			{
				"type": "occ",
				"energy": -0.24444,
				"method": "rhf"
			},
			{
				"type": "occ",
				"energy": -0.2251,
				"method": "rhf"
			},
			{
				"type": "unocc",
				"energy": -0.04482,
				"method": "rhf"
			},
			{
				"type": "unocc",
				"energy": -0.00112,
				"method": "rhf"
			},
			{
				"type": "unocc",
				"energy": 0.03878,
				"method": "rhf"
			},
			{
				"type": "unocc",
				"energy": 0.04594,
				"method": "rhf"
			},
			{
				"type": "unocc",
				"energy": 0.07143,
				"method": "rhf"
			}
		],
		"cosmo_sigma_profile": { 
			"-0.025": 0.0,
			"-0.024": 0.0,
			"-0.023": 0.0,
			"-0.022": 0.0,
			"-0.021": 0.0,
			"-0.02": 0.0,
			"-0.019": 0.0,
			"-0.018": 0.0,
			"-0.017": 0.0,
			"-0.016": 0.0,
			"-0.015": 0.0,
			"-0.014": 0.0,
			"-0.013": 0.0,
			"-0.012": 0.0,
			"-0.011": 0.0,
			"-0.01": 0.0,
			"-0.009": 0.0,
			"-0.008": 0.466676961978,
			"-0.007": 4.55738004931,
			"-0.006": 19.4155167268,
			"-0.005": 26.3936057531,
			"-0.004": 29.2230887844,
			"-0.003": 30.1958443738,
			"-0.002": 18.9533843836,
			"-0.001": 16.5325223804,
			"0.0": 15.7713812313,
			"0.001": 15.4328207409,
			"0.002": 19.4666223019,
			"0.003": 23.194957042,
			"0.004": 18.0738179131,
			"0.005": 10.0180479887,
			"0.006": 10.8442036915,
			"0.007": 12.0649326777,
			"0.008": 3.65528893233,
			"0.009": 3.00460463068,
			"0.01": 2.68325526357,
			"0.011": 1.88710872886,
			"0.012": 2.71853827617,
			"0.013": 1.13000363274,
			"0.014": 0.0,
			"0.015": 0.0,
			"0.016": 0.0,
			"0.017": 0.0,
			"0.018": 0.0,
			"0.019": 0.0,
			"0.02": 0.0,
			"0.021": 0.0,
			"0.022": 0.0,
			"0.023": 0.0,
			"0.024": 0.0,
			"0.025": 0.0
		}
	}
}
