{
	 "smiles": "CC1=CC(F)=CC=C1F", 
	 "Tm": 238.15, 
	 "num_atms": 15, 
	 "gaussian": { 
		 "optdone": 1, 
		 "sigma_profile": "yes", 
		 "theory": "DFT", 
		 "functional": "B3LYP", 
		 "basiset": "6-31G**", 
		 "properties": { 
			 "R2extent": 1367.4871, 
			 "electric_dipole_moment_norm": 0.505516785082, 
			 "electric_quadrupole_moment_norm": 8.98132287417, 
			 "total_energy": -470.035365576, 
			 "HOMO_LUMO_gap": 0.22022, 
			 "cosmo_polarized_energy": -3.3, 
			 "cosmo_cavitation_energy": 19.76, 
			 "cosmo_dispersion_energy": -14.37, 
			 "cosmo_repulsion_energy": 1.13, 
			 "cosmo_total_nonelectrostatic_energy": 6.52, 
			 "SMD_solvation_energy": 4.51 
		},
		"coords": [
			{
				"x": 0.9903888008,
				"y": -2.5538325885,
				"z": -0.8139399101,
				"element": "C" 
			},
			{
				"x": 0.8584301255,
				"y": -1.2346863865,
				"z": -0.0978565808,
				"element": "C" 
			},
			{
				"x": 1.3437366498,
				"y": -1.0283766328,
				"z": 1.1976312715,
				"element": "C" 
			},
			{
				"x": 1.1930652025,
				"y": 0.2124620962,
				"z": 1.8092499243,
				"element": "C" 
			},
			{
				"x": 1.6721698663,
				"y": 0.3815463828,
				"z": 3.0610912414,
				"element": "F" 
			},
			{
				"x": 0.5680968612,
				"y": 1.2789208858,
				"z": 1.1757618569,
				"element": "C" 
			},
			{
				"x": 0.0785537497,
				"y": 1.0876862638,
				"z": -0.1178897298,
				"element": "C" 
			},
			{
				"x": 0.2317671377,
				"y": -0.1521755894,
				"z": -0.7227074883,
				"element": "C" 
			},
			{
				"x": -0.2458105549,
				"y": -0.3300206399,
				"z": -1.9779652382,
				"element": "F" 
			},
			{
				"x": 1.5560822636,
				"y": -2.4431533906,
				"z": -1.7451826399,
				"element": "H" 
			},
			{
				"x": 0.0085853647,
				"y": -2.9555832474,
				"z": -1.0862204144,
				"element": "H" 
			},
			{
				"x": 1.500504411,
				"y": -3.2898312034,
				"z": -0.1882805172,
				"element": "H" 
			},
			{
				"x": 1.8401444404,
				"y": -1.8284263908,
				"z": 1.7371692917,
				"element": "H" 
			},
			{
				"x": 0.4701460374,
				"y": 2.2304890708,
				"z": 1.6858190018,
				"element": "H" 
			},
			{
				"x": -0.4177603558,
				"y": 1.8859813699,
				"z": -0.6586800689,
				"element": "H" 
			}
		],
		 "valence_orbital": [ 
			{
				"type": "occ",
				"energy": -0.36964,
				"method": "rhf"
			},
			{
				"type": "occ",
				"energy": -0.3459,
				"method": "rhf"
			},
			{
				"type": "occ",
				"energy": -0.34578,
				"method": "rhf"
			},
			{
				"type": "occ",
				"energy": -0.26108,
				"method": "rhf"
			},
			{
				"type": "occ",
				"energy": -0.23539,
				"method": "rhf"
			},
			{
				"type": "unocc",
				"energy": -0.01517,
				"method": "rhf"
			},
			{
				"type": "unocc",
				"energy": 0.0051,
				"method": "rhf"
			},
			{
				"type": "unocc",
				"energy": 0.08477,
				"method": "rhf"
			},
			{
				"type": "unocc",
				"energy": 0.10748,
				"method": "rhf"
			},
			{
				"type": "unocc",
				"energy": 0.13327,
				"method": "rhf"
			}
		],
		"cosmo_sigma_profile": { 
			"-0.025": 0.0,
			"-0.024": 0.0,
			"-0.023": 0.0,
			"-0.022": 0.0,
			"-0.021": 0.0,
			"-0.02": 0.0,
			"-0.019": 0.0,
			"-0.018": 0.0,
			"-0.017": 0.0,
			"-0.016": 0.0,
			"-0.015": 0.0,
			"-0.014": 0.0,
			"-0.013": 0.0,
			"-0.012": 0.0,
			"-0.011": 0.0,
			"-0.01": 0.0,
			"-0.009": 0.0,
			"-0.008": 0.789565736229,
			"-0.007": 5.02833776734,
			"-0.006": 6.78771898229,
			"-0.005": 8.55446366034,
			"-0.004": 10.1208728028,
			"-0.003": 9.28470465882,
			"-0.002": 10.1946727982,
			"-0.001": 13.559344097,
			"0.0": 14.0222769891,
			"0.001": 17.3238987083,
			"0.002": 16.9856034456,
			"0.003": 17.092989539,
			"0.004": 18.2338531309,
			"0.005": 10.1062359101,
			"0.006": 0.0,
			"0.007": 0.0,
			"0.008": 0.0,
			"0.009": 0.0,
			"0.01": 0.0,
			"0.011": 0.0,
			"0.012": 0.0,
			"0.013": 0.0,
			"0.014": 0.0,
			"0.015": 0.0,
			"0.016": 0.0,
			"0.017": 0.0,
			"0.018": 0.0,
			"0.019": 0.0,
			"0.02": 0.0,
			"0.021": 0.0,
			"0.022": 0.0,
			"0.023": 0.0,
			"0.024": 0.0,
			"0.025": 0.0
		}
	}
}
