{
	 "smiles": "CCC(=O)NC1=C(C)C(N)=CC=C1", 
	 "Tm": 390.15, 
	 "num_atms": 27, 
	 "gaussian": { 
		 "optdone": 1, 
		 "sigma_profile": "yes", 
		 "theory": "DFT", 
		 "functional": "B3LYP", 
		 "basiset": "6-31G**", 
		 "properties": { 
			 "R2extent": 3022.5687, 
			 "electric_dipole_moment_norm": 4.75581673638, 
			 "electric_quadrupole_moment_norm": 10.147297797, 
			 "total_energy": -574.258567896, 
			 "HOMO_LUMO_gap": 0.19949, 
			 "cosmo_polarized_energy": -14.54, 
			 "cosmo_cavitation_energy": 29.8, 
			 "cosmo_dispersion_energy": -21.22, 
			 "cosmo_repulsion_energy": 1.71, 
			 "cosmo_total_nonelectrostatic_energy": 10.3, 
			 "SMD_solvation_energy": 5.95 
		},
		"coords": [
			{
				"x": -1.8633746159,
				"y": -1.5458404219,
				"z": 2.4192008759,
				"element": "C" 
			},
			{
				"x": -1.1399201987,
				"y": -1.1439050991,
				"z": 1.1336393362,
				"element": "C" 
			},
			{
				"x": 0.3626531388,
				"y": -1.3941366725,
				"z": 1.2281424104,
				"element": "C" 
			},
			{
				"x": 0.8542509686,
				"y": -2.1433305661,
				"z": 2.0626066493,
				"element": "O" 
			},
			{
				"x": 1.1772877964,
				"y": -0.7247295031,
				"z": 0.3362292294,
				"element": "N" 
			},
			{
				"x": 0.8181687474,
				"y": 0.1476572181,
				"z": -0.7355065729,
				"element": "C" 
			},
			{
				"x": 1.2567281919,
				"y": 1.4852579895,
				"z": -0.7213655307,
				"element": "C" 
			},
			{
				"x": 2.063751579,
				"y": 2.0565318656,
				"z": 0.4180368534,
				"element": "C" 
			},
			{
				"x": 0.9266980606,
				"y": 2.3126713208,
				"z": -1.8210019029,
				"element": "C" 
			},
			{
				"x": 1.4069271583,
				"y": 3.6225433529,
				"z": -1.8783925314,
				"element": "N" 
			},
			{
				"x": 0.1565976482,
				"y": 1.802972684,
				"z": -2.8785126994,
				"element": "C" 
			},
			{
				"x": -0.2690604859,
				"y": 0.479203314,
				"z": -2.8658214077,
				"element": "C" 
			},
			{
				"x": 0.0681532232,
				"y": -0.3576259617,
				"z": -1.8051869314,
				"element": "C" 
			},
			{
				"x": -1.5387389824,
				"y": -0.9301047096,
				"z": 3.2631776764,
				"element": "H" 
			},
			{
				"x": -1.646034621,
				"y": -2.5854418366,
				"z": 2.6728149369,
				"element": "H" 
			},
			{
				"x": -2.9450031544,
				"y": -1.4269107184,
				"z": 2.3042143341,
				"element": "H" 
			},
			{
				"x": -1.5285240042,
				"y": -1.7237064175,
				"z": 0.2867641625,
				"element": "H" 
			},
			{
				"x": -1.3247982972,
				"y": -0.094395443,
				"z": 0.8800323663,
				"element": "H" 
			},
			{
				"x": 2.1600456761,
				"y": -0.9105828801,
				"z": 0.4963175482,
				"element": "H" 
			},
			{
				"x": 2.182310293,
				"y": 1.335783123,
				"z": 1.2274661639,
				"element": "H" 
			},
			{
				"x": 1.5768192284,
				"y": 2.9422120708,
				"z": 0.8504271183,
				"element": "H" 
			},
			{
				"x": 3.0618824072,
				"y": 2.3708698504,
				"z": 0.0873946258,
				"element": "H" 
			},
			{
				"x": 0.909293353,
				"y": 4.230569627,
				"z": -2.5138763885,
				"element": "H" 
			},
			{
				"x": 1.5868640869,
				"y": 4.0690429714,
				"z": -0.9906059185,
				"element": "H" 
			},
			{
				"x": -0.0949030463,
				"y": 2.4515320856,
				"z": -3.7141238468,
				"element": "H" 
			},
			{
				"x": -0.8542119654,
				"y": 0.0941220347,
				"z": -3.695824101,
				"element": "H" 
			},
			{
				"x": -0.2214621858,
				"y": -1.4025592782,
				"z": -1.8046464557,
				"element": "H" 
			}
		],
		 "valence_orbital": [ 
			{
				"type": "occ",
				"energy": -0.31538,
				"method": "rhf"
			},
			{
				"type": "occ",
				"energy": -0.26756,
				"method": "rhf"
			},
			{
				"type": "occ",
				"energy": -0.24258,
				"method": "rhf"
			},
			{
				"type": "occ",
				"energy": -0.23021,
				"method": "rhf"
			},
			{
				"type": "occ",
				"energy": -0.20739,
				"method": "rhf"
			},
			{
				"type": "unocc",
				"energy": -0.0079,
				"method": "rhf"
			},
			{
				"type": "unocc",
				"energy": 0.00921,
				"method": "rhf"
			},
			{
				"type": "unocc",
				"energy": 0.03996,
				"method": "rhf"
			},
			{
				"type": "unocc",
				"energy": 0.06913,
				"method": "rhf"
			},
			{
				"type": "unocc",
				"energy": 0.09023,
				"method": "rhf"
			}
		],
		"cosmo_sigma_profile": { 
			"-0.025": 0.0,
			"-0.024": 0.0,
			"-0.023": 0.0,
			"-0.022": 0.0,
			"-0.021": 0.0,
			"-0.02": 0.0,
			"-0.019": 0.0,
			"-0.018": 0.0,
			"-0.017": 0.0,
			"-0.016": 0.0,
			"-0.015": 0.0,
			"-0.014": 0.0619354202972,
			"-0.013": 0.830605815377,
			"-0.012": 2.57177876537,
			"-0.011": 3.31068633351,
			"-0.01": 3.27346186709,
			"-0.009": 4.96096293252,
			"-0.008": 3.81573639551,
			"-0.007": 4.02713425614,
			"-0.006": 6.57055535126,
			"-0.005": 12.8222619245,
			"-0.004": 13.3451907526,
			"-0.003": 21.2900743529,
			"-0.002": 20.8430121254,
			"-0.001": 24.0227545844,
			"0.0": 21.8570790742,
			"0.001": 17.370034776,
			"0.002": 10.2533228307,
			"0.003": 9.10228857461,
			"0.004": 8.93567019584,
			"0.005": 8.11455535925,
			"0.006": 9.50069656418,
			"0.007": 5.10133338459,
			"0.008": 2.21844407003,
			"0.009": 1.70675649018,
			"0.01": 2.44515809546,
			"0.011": 2.17446448962,
			"0.012": 1.85054439684,
			"0.013": 4.16154279696,
			"0.014": 6.03348737854,
			"0.015": 1.42665310512,
			"0.016": 0.0,
			"0.017": 0.0,
			"0.018": 0.0,
			"0.019": 0.0,
			"0.02": 0.0,
			"0.021": 0.0,
			"0.022": 0.0,
			"0.023": 0.0,
			"0.024": 0.0,
			"0.025": 0.0
		}
	}
}
