{
	 "smiles": "CC(C)NC1=NC(COC2=CC=CC=C2)=NO1", 
	 "Tm": 360.15, 
	 "num_atms": 32, 
	 "gaussian": { 
		 "optdone": 1, 
		 "sigma_profile": "yes", 
		 "theory": "DFT", 
		 "functional": "B3LYP", 
		 "basiset": "6-31G**", 
		 "properties": { 
			 "R2extent": 5759.1479, 
			 "electric_dipole_moment_norm": 3.59393454309, 
			 "electric_quadrupole_moment_norm": 8.89939582219, 
			 "total_energy": -780.982588838, 
			 "HOMO_LUMO_gap": 0.21006, 
			 "cosmo_polarized_energy": -13.83, 
			 "cosmo_cavitation_energy": 36.2, 
			 "cosmo_dispersion_energy": -25.48, 
			 "cosmo_repulsion_energy": 2.02, 
			 "cosmo_total_nonelectrostatic_energy": 12.74, 
			 "SMD_solvation_energy": 4.5 
		},
		"coords": [
			{
				"x": 1.4307919953,
				"y": -2.4173558497,
				"z": -1.0457881048,
				"element": "C" 
			},
			{
				"x": 2.6639754459,
				"y": -1.5116505829,
				"z": -1.1589148951,
				"element": "C" 
			},
			{
				"x": 3.9570125807,
				"y": -2.3015681567,
				"z": -1.3689298685,
				"element": "C" 
			},
			{
				"x": 2.8226458054,
				"y": -0.6539967239,
				"z": 0.0268016087,
				"element": "N" 
			},
			{
				"x": 2.0628152042,
				"y": 0.4442657883,
				"z": 0.211920381,
				"element": "C" 
			},
			{
				"x": 1.2785000596,
				"y": 1.0427349893,
				"z": -0.6557433288,
				"element": "N" 
			},
			{
				"x": 0.8201533321,
				"y": 2.1036853855,
				"z": 0.0815401727,
				"element": "C" 
			},
			{
				"x": -0.1163487748,
				"y": 3.1443681045,
				"z": -0.4693058196,
				"element": "C" 
			},
			{
				"x": -1.3128038227,
				"y": 2.6006046875,
				"z": -1.0067937116,
				"element": "O" 
			},
			{
				"x": -2.3177412842,
				"y": 2.2028669418,
				"z": -0.1600922854,
				"element": "C" 
			},
			{
				"x": -3.4928773055,
				"y": 1.7797992471,
				"z": -0.7976304797,
				"element": "C" 
			},
			{
				"x": -4.5849436629,
				"y": 1.3685485079,
				"z": -0.0412378088,
				"element": "C" 
			},
			{
				"x": -4.5222460943,
				"y": 1.3732180422,
				"z": 1.3563952545,
				"element": "C" 
			},
			{
				"x": -3.3495636691,
				"y": 1.7902897047,
				"z": 1.982036286,
				"element": "C" 
			},
			{
				"x": -2.2401590453,
				"y": 2.2051676666,
				"z": 1.237234772,
				"element": "C" 
			},
			{
				"x": 1.2606284664,
				"y": 2.1872226169,
				"z": 1.3117915909,
				"element": "N" 
			},
			{
				"x": 2.1196664752,
				"y": 1.0522721827,
				"z": 1.4132198386,
				"element": "O" 
			},
			{
				"x": 1.5299190655,
				"y": -3.1114447504,
				"z": -0.2031646918,
				"element": "H" 
			},
			{
				"x": 1.3057151561,
				"y": -3.0089188842,
				"z": -1.9585607074,
				"element": "H" 
			},
			{
				"x": 0.5274120908,
				"y": -1.8189256325,
				"z": -0.9018180911,
				"element": "H" 
			},
			{
				"x": 2.5183763401,
				"y": -0.8254588593,
				"z": -1.9987633145,
				"element": "H" 
			},
			{
				"x": 3.8826379066,
				"y": -2.9171455773,
				"z": -2.2696839327,
				"element": "H" 
			},
			{
				"x": 4.1477345696,
				"y": -2.9759793411,
				"z": -0.5246913885,
				"element": "H" 
			},
			{
				"x": 4.815528062,
				"y": -1.6326591938,
				"z": -1.4756741697,
				"element": "H" 
			},
			{
				"x": 3.2167613189,
				"y": -1.0644229186,
				"z": 0.8624610627,
				"element": "H" 
			},
			{
				"x": 0.368129321,
				"y": 3.6390257927,
				"z": -1.315754822,
				"element": "H" 
			},
			{
				"x": -0.3199361157,
				"y": 3.8937987616,
				"z": 0.3038835624,
				"element": "H" 
			},
			{
				"x": -3.5237157038,
				"y": 1.7874332802,
				"z": -1.8823414283,
				"element": "H" 
			},
			{
				"x": -5.4912188655,
				"y": 1.0449807617,
				"z": -0.5456967428,
				"element": "H" 
			},
			{
				"x": -5.3758491852,
				"y": 1.0528719757,
				"z": 1.9458118212,
				"element": "H" 
			},
			{
				"x": -3.2827599994,
				"y": 1.7929592637,
				"z": 3.066516403,
				"element": "H" 
			},
			{
				"x": -1.3328396671,
				"y": 2.4991127697,
				"z": 1.7503728373,
				"element": "H" 
			}
		],
		 "valence_orbital": [ 
			{
				"type": "occ",
				"energy": -0.31201,
				"method": "rhf"
			},
			{
				"type": "occ",
				"energy": -0.28897,
				"method": "rhf"
			},
			{
				"type": "occ",
				"energy": -0.24299,
				"method": "rhf"
			},
			{
				"type": "occ",
				"energy": -0.23625,
				"method": "rhf"
			},
			{
				"type": "occ",
				"energy": -0.21399,
				"method": "rhf"
			},
			{
				"type": "unocc",
				"energy": -0.00393,
				"method": "rhf"
			},
			{
				"type": "unocc",
				"energy": 0.0068,
				"method": "rhf"
			},
			{
				"type": "unocc",
				"energy": 0.01977,
				"method": "rhf"
			},
			{
				"type": "unocc",
				"energy": 0.05206,
				"method": "rhf"
			},
			{
				"type": "unocc",
				"energy": 0.06505,
				"method": "rhf"
			}
		],
		"cosmo_sigma_profile": { 
			"-0.025": 0.0,
			"-0.024": 0.0,
			"-0.023": 0.0,
			"-0.022": 0.0,
			"-0.021": 0.0,
			"-0.02": 0.0,
			"-0.019": 0.0,
			"-0.018": 0.0,
			"-0.017": 0.0,
			"-0.016": 0.0413359371274,
			"-0.015": 0.948868747154,
			"-0.014": 0.965025413782,
			"-0.013": 1.39256791461,
			"-0.012": 0.77328948602,
			"-0.011": 0.941823907767,
			"-0.01": 1.25879149487,
			"-0.009": 1.42009268005,
			"-0.008": 2.79494401741,
			"-0.007": 5.56158848092,
			"-0.006": 10.2480034699,
			"-0.005": 14.6933994637,
			"-0.004": 25.1015710968,
			"-0.003": 29.0539144467,
			"-0.002": 26.1544132015,
			"-0.001": 23.5562668937,
			"0.0": 26.9909018147,
			"0.001": 18.5524334911,
			"0.002": 13.7882845414,
			"0.003": 13.2553258985,
			"0.004": 14.318784222,
			"0.005": 15.1175239318,
			"0.006": 11.4605737493,
			"0.007": 8.11281470618,
			"0.008": 5.13542057887,
			"0.009": 3.87822405303,
			"0.01": 4.46080569931,
			"0.011": 2.1841845617,
			"0.012": 1.88397879749,
			"0.013": 1.91043887367,
			"0.014": 0.854059694675,
			"0.015": 0.0349371981882,
			"0.016": 0.0,
			"0.017": 0.0,
			"0.018": 0.0,
			"0.019": 0.0,
			"0.02": 0.0,
			"0.021": 0.0,
			"0.022": 0.0,
			"0.023": 0.0,
			"0.024": 0.0,
			"0.025": 0.0
		}
	}
}
