{
	 "smiles": "CC(NC(=O)OC(C)(C)C)C1=CC=C(C=C1)C1=CC(=CC=C1)C#N", 
	 "Tm": 377.15, 
	 "num_atms": 46, 
	 "gaussian": { 
		 "optdone": 1, 
		 "sigma_profile": "yes", 
		 "theory": "DFT", 
		 "functional": "B3LYP", 
		 "basiset": "6-31G**", 
		 "properties": { 
			 "R2extent": 13705.542, 
			 "electric_dipole_moment_norm": 4.09790587252, 
			 "electric_quadrupole_moment_norm": 42.9201974535, 
			 "total_energy": -1035.37726207, 
			 "HOMO_LUMO_gap": 0.18226, 
			 "cosmo_polarized_energy": -15.81, 
			 "cosmo_cavitation_energy": 49.76, 
			 "cosmo_dispersion_energy": -33.72, 
			 "cosmo_repulsion_energy": 2.59, 
			 "cosmo_total_nonelectrostatic_energy": 18.63, 
			 "SMD_solvation_energy": 9.91 
		},
		"coords": [
			{
				"x": -1.1545841582,
				"y": 1.617589204,
				"z": -2.7660957609,
				"element": "C" 
			},
			{
				"x": 0.0918906794,
				"y": 1.25400629,
				"z": -1.9438705778,
				"element": "C" 
			},
			{
				"x": 0.7315467494,
				"y": 0.0159696218,
				"z": -2.4187646548,
				"element": "N" 
			},
			{
				"x": 0.113455869,
				"y": -1.1865408098,
				"z": -2.6167852408,
				"element": "C" 
			},
			{
				"x": -1.0903587567,
				"y": -1.3920489144,
				"z": -2.5344636644,
				"element": "O" 
			},
			{
				"x": 1.0549357966,
				"y": -2.1102389727,
				"z": -2.9378245611,
				"element": "O" 
			},
			{
				"x": 0.6847658711,
				"y": -3.5017189955,
				"z": -3.2390118903,
				"element": "C" 
			},
			{
				"x": 0.0303173022,
				"y": -4.1508147927,
				"z": -2.0145584156,
				"element": "C" 
			},
			{
				"x": -0.2201478618,
				"y": -3.5482781835,
				"z": -4.4749105983,
				"element": "C" 
			},
			{
				"x": 2.0410464358,
				"y": -4.147949123,
				"z": -3.5345594509,
				"element": "C" 
			},
			{
				"x": -0.1677364276,
				"y": 1.2636533686,
				"z": -0.438599232,
				"element": "C" 
			},
			{
				"x": 0.4751076999,
				"y": 2.2043786333,
				"z": 0.3738186597,
				"element": "C" 
			},
			{
				"x": 0.2469659114,
				"y": 2.2492826294,
				"z": 1.7484337932,
				"element": "C" 
			},
			{
				"x": -0.6348107116,
				"y": 1.3447075107,
				"z": 2.3583294735,
				"element": "C" 
			},
			{
				"x": -1.2781066649,
				"y": 0.3994480118,
				"z": 1.5403113873,
				"element": "C" 
			},
			{
				"x": -1.0536638854,
				"y": 0.3590134183,
				"z": 0.1671936906,
				"element": "C" 
			},
			{
				"x": -0.8815904193,
				"y": 1.3836816373,
				"z": 3.8220828257,
				"element": "C" 
			},
			{
				"x": 0.1602307549,
				"y": 1.6604743454,
				"z": 4.7181090791,
				"element": "C" 
			},
			{
				"x": -0.0743721319,
				"y": 1.700821227,
				"z": 6.1007786398,
				"element": "C" 
			},
			{
				"x": -1.3608693157,
				"y": 1.4586267554,
				"z": 6.6097641996,
				"element": "C" 
			},
			{
				"x": -2.3977934715,
				"y": 1.1803268605,
				"z": 5.723345056,
				"element": "C" 
			},
			{
				"x": -2.1634151374,
				"y": 1.144980595,
				"z": 4.3490829257,
				"element": "C" 
			},
			{
				"x": 1.0102664172,
				"y": 1.9817507649,
				"z": 6.9975926641,
				"element": "C" 
			},
			{
				"x": 1.8890404399,
				"y": 2.2113034049,
				"z": 7.7244729862,
				"element": "N" 
			},
			{
				"x": -1.9470985628,
				"y": 0.8818975934,
				"z": -2.631767773,
				"element": "H" 
			},
			{
				"x": -1.5213512048,
				"y": 2.599305091,
				"z": -2.4523776647,
				"element": "H" 
			},
			{
				"x": -0.9017404727,
				"y": 1.6622654759,
				"z": -3.8298569721,
				"element": "H" 
			},
			{
				"x": 0.8420104895,
				"y": 2.0288778839,
				"z": -2.1384934647,
				"element": "H" 
			},
			{
				"x": 1.7395027775,
				"y": -0.023478362,
				"z": -2.3905612163,
				"element": "H" 
			},
			{
				"x": -0.9305502459,
				"y": -3.6865515447,
				"z": -1.7921981845,
				"element": "H" 
			},
			{
				"x": -0.1277228537,
				"y": -5.2173804554,
				"z": -2.2049556606,
				"element": "H" 
			},
			{
				"x": 0.6821882116,
				"y": -4.0552934303,
				"z": -1.1403585181,
				"element": "H" 
			},
			{
				"x": 0.2623038531,
				"y": -3.043276929,
				"z": -5.3178144608,
				"element": "H" 
			},
			{
				"x": -0.3991120968,
				"y": -4.5899586864,
				"z": -4.7606994781,
				"element": "H" 
			},
			{
				"x": -1.1783085152,
				"y": -3.0678160566,
				"z": -4.2757033344,
				"element": "H" 
			},
			{
				"x": 2.7013095272,
				"y": -4.0754365757,
				"z": -2.6653651629,
				"element": "H" 
			},
			{
				"x": 1.9077103407,
				"y": -5.2054695253,
				"z": -3.7810300466,
				"element": "H" 
			},
			{
				"x": 2.5282768442,
				"y": -3.6537302668,
				"z": -4.3801179806,
				"element": "H" 
			},
			{
				"x": 1.1585218311,
				"y": 2.9227341187,
				"z": -0.0737408276,
				"element": "H" 
			},
			{
				"x": 0.7398542177,
				"y": 3.0093662475,
				"z": 2.3476496544,
				"element": "H" 
			},
			{
				"x": -1.9453366954,
				"y": -0.3304847271,
				"z": 1.9897911496,
				"element": "H" 
			},
			{
				"x": -1.551008092,
				"y": -0.3882348092,
				"z": -0.4421343089,
				"element": "H" 
			},
			{
				"x": 1.1665022387,
				"y": 1.8238312452,
				"z": 4.3478847772,
				"element": "H" 
			},
			{
				"x": -1.533048833,
				"y": 1.4906405955,
				"z": 7.6800924833,
				"element": "H" 
			},
			{
				"x": -3.3980750661,
				"y": 0.9991281154,
				"z": 6.1045994044,
				"element": "H" 
			},
			{
				"x": -2.9884486775,
				"y": 0.9525405151,
				"z": 3.6702862513,
				"element": "H" 
			}
		],
		 "valence_orbital": [ 
			{
				"type": "occ",
				"energy": -0.26684,
				"method": "rhf"
			},
			{
				"type": "occ",
				"energy": -0.26592,
				"method": "rhf"
			},
			{
				"type": "occ",
				"energy": -0.2583,
				"method": "rhf"
			},
			{
				"type": "occ",
				"energy": -0.25635,
				"method": "rhf"
			},
			{
				"type": "occ",
				"energy": -0.23489,
				"method": "rhf"
			},
			{
				"type": "unocc",
				"energy": -0.05263,
				"method": "rhf"
			},
			{
				"type": "unocc",
				"energy": -0.03906,
				"method": "rhf"
			},
			{
				"type": "unocc",
				"energy": -0.01051,
				"method": "rhf"
			},
			{
				"type": "unocc",
				"energy": 0.0081,
				"method": "rhf"
			},
			{
				"type": "unocc",
				"energy": 0.03943,
				"method": "rhf"
			}
		],
		"cosmo_sigma_profile": { 
			"-0.025": 0.0,
			"-0.024": 0.0,
			"-0.023": 0.0,
			"-0.022": 0.0,
			"-0.021": 0.0,
			"-0.02": 0.0,
			"-0.019": 0.0,
			"-0.018": 0.0,
			"-0.017": 0.0,
			"-0.016": 0.0,
			"-0.015": 0.0,
			"-0.014": 0.503480281305,
			"-0.013": 0.940625087798,
			"-0.012": 1.24566761539,
			"-0.011": 0.973013590077,
			"-0.01": 0.975553941526,
			"-0.009": 0.833633477039,
			"-0.008": 3.38448511464,
			"-0.007": 8.93636916652,
			"-0.006": 16.1352747036,
			"-0.005": 20.0540316788,
			"-0.004": 26.3946672697,
			"-0.003": 33.2240509066,
			"-0.002": 33.9670821229,
			"-0.001": 35.7010785787,
			"0.0": 44.267065559,
			"0.001": 44.6974035478,
			"0.002": 31.0626388357,
			"0.003": 21.5458089326,
			"0.004": 15.2325350626,
			"0.005": 15.516508614,
			"0.006": 7.34875580793,
			"0.007": 6.49033737899,
			"0.008": 5.07700437987,
			"0.009": 4.7798733743,
			"0.01": 4.61840273377,
			"0.011": 3.95367168957,
			"0.012": 3.73402030699,
			"0.013": 2.70076648371,
			"0.014": 0.163163488662,
			"0.015": 0.0,
			"0.016": 0.0,
			"0.017": 0.0,
			"0.018": 0.0,
			"0.019": 0.0,
			"0.02": 0.0,
			"0.021": 0.0,
			"0.022": 0.0,
			"0.023": 0.0,
			"0.024": 0.0,
			"0.025": 0.0
		}
	}
}
