{
	 "smiles": "COC1=CC(OC)=C2C(=O)C(=O)C2=C1", 
	 "Tm": 422.15, 
	 "num_atms": 22, 
	 "gaussian": { 
		 "optdone": 1, 
		 "sigma_profile": "yes", 
		 "theory": "DFT", 
		 "functional": "B3LYP", 
		 "basiset": "6-31G**", 
		 "properties": { 
			 "R2extent": 3125.5144, 
			 "electric_dipole_moment_norm": 6.58834624014, 
			 "electric_quadrupole_moment_norm": 10.8430288937, 
			 "total_energy": -686.708568917, 
			 "HOMO_LUMO_gap": 0.15187, 
			 "cosmo_polarized_energy": -13.03, 
			 "cosmo_cavitation_energy": 27.35, 
			 "cosmo_dispersion_energy": -19.9, 
			 "cosmo_repulsion_energy": 1.56, 
			 "cosmo_total_nonelectrostatic_energy": 9.0, 
			 "SMD_solvation_energy": 7.67 
		},
		"coords": [
			{
				"x": -3.780987303,
				"y": 2.3951587878,
				"z": 0.7064167219,
				"element": "C" 
			},
			{
				"x": -2.4558920179,
				"y": 2.6609962625,
				"z": 1.1554440087,
				"element": "O" 
			},
			{
				"x": -1.4631967009,
				"y": 1.7937320684,
				"z": 0.850933484,
				"element": "C" 
			},
			{
				"x": -1.6692855967,
				"y": 0.61902403,
				"z": 0.10028612,
				"element": "C" 
			},
			{
				"x": -0.61988645,
				"y": -0.2645265019,
				"z": -0.2016090193,
				"element": "C" 
			},
			{
				"x": -0.9390221372,
				"y": -1.3526454383,
				"z": -0.9247169942,
				"element": "O" 
			},
			{
				"x": 0.1168143414,
				"y": -2.2698156423,
				"z": -1.2449258108,
				"element": "C" 
			},
			{
				"x": 0.6562206983,
				"y": 0.0753199672,
				"z": 0.2807791987,
				"element": "C" 
			},
			{
				"x": 2.1045210234,
				"y": -0.3036699203,
				"z": 0.3689243464,
				"element": "C" 
			},
			{
				"x": 2.8158588854,
				"y": -1.1985273834,
				"z": -0.0135066135,
				"element": "O" 
			},
			{
				"x": 2.304042686,
				"y": 1.0269372556,
				"z": 1.2117090137,
				"element": "C" 
			},
			{
				"x": 3.2208455372,
				"y": 1.5875775823,
				"z": 1.7484085345,
				"element": "O" 
			},
			{
				"x": 0.8260018135,
				"y": 1.2644253293,
				"z": 1.0321299129,
				"element": "C" 
			},
			{
				"x": -0.1859701533,
				"y": 2.1451888346,
				"z": 1.3406169854,
				"element": "C" 
			},
			{
				"x": -4.1628340926,
				"y": 1.4544104188,
				"z": 1.1201328919,
				"element": "H" 
			},
			{
				"x": -4.3884820824,
				"y": 3.2235766569,
				"z": 1.0716594593,
				"element": "H" 
			},
			{
				"x": -3.8335631134,
				"y": 2.3608536364,
				"z": -0.3881310985,
				"element": "H" 
			},
			{
				"x": -2.6535224515,
				"y": 0.3606976784,
				"z": -0.2695108789,
				"element": "H" 
			},
			{
				"x": 0.5694930407,
				"y": -2.6801754217,
				"z": -0.3383987499,
				"element": "H" 
			},
			{
				"x": -0.3516863701,
				"y": -3.0653661657,
				"z": -1.8243162323,
				"element": "H" 
			},
			{
				"x": 0.8958970125,
				"y": -1.7815293808,
				"z": -1.8362937835,
				"element": "H" 
			},
			{
				"x": -0.0518665694,
				"y": 3.0535573461,
				"z": 1.9155685036,
				"element": "H" 
			}
		],
		 "valence_orbital": [ 
			{
				"type": "occ",
				"energy": -0.32182,
				"method": "rhf"
			},
			{
				"type": "occ",
				"energy": -0.31149,
				"method": "rhf"
			},
			{
				"type": "occ",
				"energy": -0.26138,
				"method": "rhf"
			},
			{
				"type": "occ",
				"energy": -0.24388,
				"method": "rhf"
			},
			{
				"type": "occ",
				"energy": -0.23333,
				"method": "rhf"
			},
			{
				"type": "unocc",
				"energy": -0.08146,
				"method": "rhf"
			},
			{
				"type": "unocc",
				"energy": -0.04916,
				"method": "rhf"
			},
			{
				"type": "unocc",
				"energy": 0.02135,
				"method": "rhf"
			},
			{
				"type": "unocc",
				"energy": 0.06897,
				"method": "rhf"
			},
			{
				"type": "unocc",
				"energy": 0.07897,
				"method": "rhf"
			}
		],
		"cosmo_sigma_profile": { 
			"-0.025": 0.0,
			"-0.024": 0.0,
			"-0.023": 0.0,
			"-0.022": 0.0,
			"-0.021": 0.0,
			"-0.02": 0.0,
			"-0.019": 0.0,
			"-0.018": 0.0,
			"-0.017": 0.0,
			"-0.016": 0.0,
			"-0.015": 0.0,
			"-0.014": 0.0,
			"-0.013": 0.0,
			"-0.012": 0.0,
			"-0.011": 0.0663009001015,
			"-0.01": 0.726627183995,
			"-0.009": 1.1468848557,
			"-0.008": 2.8692614546,
			"-0.007": 7.67717190578,
			"-0.006": 16.8062493338,
			"-0.005": 18.8420887536,
			"-0.004": 22.1508503147,
			"-0.003": 17.7739593402,
			"-0.002": 12.7064666603,
			"-0.001": 17.1430519443,
			"0.0": 17.5453690513,
			"0.001": 15.218887269,
			"0.002": 8.94520328216,
			"0.003": 5.17581024106,
			"0.004": 7.4078602637,
			"0.005": 5.24566738029,
			"0.006": 4.94027801071,
			"0.007": 7.13308355946,
			"0.008": 7.12604249772,
			"0.009": 6.82406618074,
			"0.01": 9.00628945903,
			"0.011": 6.12883136109,
			"0.012": 0.952490891723,
			"0.013": 0.0,
			"0.014": 0.0,
			"0.015": 0.0,
			"0.016": 0.0,
			"0.017": 0.0,
			"0.018": 0.0,
			"0.019": 0.0,
			"0.02": 0.0,
			"0.021": 0.0,
			"0.022": 0.0,
			"0.023": 0.0,
			"0.024": 0.0,
			"0.025": 0.0
		}
	}
}
