{
	 "smiles": "CCOC(=O)C1=NC2=C3C=CC=NC3=NN2C=C1", 
	 "Tm": 483.15, 
	 "num_atms": 28, 
	 "gaussian": { 
		 "optdone": 1, 
		 "sigma_profile": "yes", 
		 "theory": "DFT", 
		 "functional": "B3LYP", 
		 "basiset": "6-31G**", 
		 "properties": { 
			 "R2extent": 5647.8134, 
			 "electric_dipole_moment_norm": 3.23063842297, 
			 "electric_quadrupole_moment_norm": 10.829063243, 
			 "total_energy": -832.741963489, 
			 "HOMO_LUMO_gap": 0.14161, 
			 "cosmo_polarized_energy": -16.08, 
			 "cosmo_cavitation_energy": 33.7, 
			 "cosmo_dispersion_energy": -24.82, 
			 "cosmo_repulsion_energy": 1.91, 
			 "cosmo_total_nonelectrostatic_energy": 10.79, 
			 "SMD_solvation_energy": 2.97 
		},
		"coords": [
			{
				"x": -0.7204178923,
				"y": -5.0071516808,
				"z": 0.7309853276,
				"element": "C" 
			},
			{
				"x": -1.6994248908,
				"y": -4.0758661143,
				"z": 0.0430569467,
				"element": "C" 
			},
			{
				"x": -1.0854009172,
				"y": -2.765732656,
				"z": -0.0100373328,
				"element": "O" 
			},
			{
				"x": -1.8164463917,
				"y": -1.8076448425,
				"z": -0.5914515692,
				"element": "C" 
			},
			{
				"x": -2.9280619185,
				"y": -1.9752160695,
				"z": -1.0597469587,
				"element": "O" 
			},
			{
				"x": -1.1285922885,
				"y": -0.4750052891,
				"z": -0.6161699218,
				"element": "C" 
			},
			{
				"x": 0.0848481589,
				"y": -0.3527212344,
				"z": -0.0894191632,
				"element": "N" 
			},
			{
				"x": 0.6550199042,
				"y": 0.8477801329,
				"z": -0.1344209764,
				"element": "C" 
			},
			{
				"x": 1.8985939747,
				"y": 1.3506948687,
				"z": 0.3086162487,
				"element": "C" 
			},
			{
				"x": 3.02471992,
				"y": 0.8236435458,
				"z": 0.9610263638,
				"element": "C" 
			},
			{
				"x": 4.0585672328,
				"y": 1.705134328,
				"z": 1.2105754987,
				"element": "C" 
			},
			{
				"x": 3.9393580721,
				"y": 3.0640389137,
				"z": 0.8080457447,
				"element": "C" 
			},
			{
				"x": 2.8947778124,
				"y": 3.5950586991,
				"z": 0.1920892717,
				"element": "N" 
			},
			{
				"x": 1.8830742621,
				"y": 2.7345081817,
				"z": -0.0526916291,
				"element": "C" 
			},
			{
				"x": 0.7293174622,
				"y": 3.1045054098,
				"z": -0.6778666451,
				"element": "N" 
			},
			{
				"x": 0.0186634602,
				"y": 1.9719248534,
				"z": -0.7147123067,
				"element": "N" 
			},
			{
				"x": -1.2263683241,
				"y": 1.8431932481,
				"z": -1.2543223597,
				"element": "C" 
			},
			{
				"x": -1.8231517347,
				"y": 0.6106549735,
				"z": -1.2133988012,
				"element": "C" 
			},
			{
				"x": -0.5010896751,
				"y": -4.6631162924,
				"z": 1.7455788053,
				"element": "H" 
			},
			{
				"x": 0.2199905435,
				"y": -5.0645941063,
				"z": 0.1758294513,
				"element": "H" 
			},
			{
				"x": -1.1477523823,
				"y": -6.0128472854,
				"z": 0.7919030504,
				"element": "H" 
			},
			{
				"x": -2.647373891,
				"y": -3.9976004579,
				"z": 0.5847785562,
				"element": "H" 
			},
			{
				"x": -1.9297164191,
				"y": -4.3972933988,
				"z": -0.9776440645,
				"element": "H" 
			},
			{
				"x": 3.0711581843,
				"y": -0.2217220106,
				"z": 1.2498633447,
				"element": "H" 
			},
			{
				"x": 4.9645015832,
				"y": 1.3790150989,
				"z": 1.7103475652,
				"element": "H" 
			},
			{
				"x": 4.7651493653,
				"y": 3.7442649554,
				"z": 1.0135251057,
				"element": "H" 
			},
			{
				"x": -1.6545769399,
				"y": 2.7413214851,
				"z": -1.6810435674,
				"element": "H" 
			},
			{
				"x": -2.8102662706,
				"y": 0.4510727441,
				"z": -1.6264959851,
				"element": "H" 
			}
		],
		 "valence_orbital": [ 
			{
				"type": "occ",
				"energy": -0.29905,
				"method": "rhf"
			},
			{
				"type": "occ",
				"energy": -0.27603,
				"method": "rhf"
			},
			{
				"type": "occ",
				"energy": -0.2592,
				"method": "rhf"
			},
			{
				"type": "occ",
				"energy": -0.25846,
				"method": "rhf"
			},
			{
				"type": "occ",
				"energy": -0.22551,
				"method": "rhf"
			},
			{
				"type": "unocc",
				"energy": -0.0839,
				"method": "rhf"
			},
			{
				"type": "unocc",
				"energy": -0.06665,
				"method": "rhf"
			},
			{
				"type": "unocc",
				"energy": -0.00739,
				"method": "rhf"
			},
			{
				"type": "unocc",
				"energy": 0.0167,
				"method": "rhf"
			},
			{
				"type": "unocc",
				"energy": 0.04125,
				"method": "rhf"
			}
		],
		"cosmo_sigma_profile": { 
			"-0.025": 0.0,
			"-0.024": 0.0,
			"-0.023": 0.0,
			"-0.022": 0.0,
			"-0.021": 0.0,
			"-0.02": 0.0,
			"-0.019": 0.0,
			"-0.018": 0.0,
			"-0.017": 0.0,
			"-0.016": 0.0,
			"-0.015": 0.0,
			"-0.014": 0.0,
			"-0.013": 0.0,
			"-0.012": 0.0474427684746,
			"-0.011": 1.61931708631,
			"-0.01": 1.94086598334,
			"-0.009": 2.59071116546,
			"-0.008": 4.59462292817,
			"-0.007": 7.52994096215,
			"-0.006": 13.017559816,
			"-0.005": 19.6957476298,
			"-0.004": 27.6152628153,
			"-0.003": 26.3565933261,
			"-0.002": 23.4604765253,
			"-0.001": 23.4105402542,
			"0.0": 22.9438910134,
			"0.001": 17.6444646121,
			"0.002": 13.2746076924,
			"0.003": 7.99051706522,
			"0.004": 5.71898327198,
			"0.005": 4.20720666118,
			"0.006": 5.37152022279,
			"0.007": 5.48061852848,
			"0.008": 4.66078043334,
			"0.009": 4.36845204761,
			"0.01": 5.63017469861,
			"0.011": 8.34037494592,
			"0.012": 5.59638737913,
			"0.013": 2.57524879663,
			"0.014": 3.56671147676,
			"0.015": 1.42853338056,
			"0.016": 0.536712305233,
			"0.017": 0.0,
			"0.018": 0.0,
			"0.019": 0.0,
			"0.02": 0.0,
			"0.021": 0.0,
			"0.022": 0.0,
			"0.023": 0.0,
			"0.024": 0.0,
			"0.025": 0.0
		}
	}
}
