{
	 "smiles": "CN(C)C1=NC(=C(S1)C=O)C1=CC=CC=C1", 
	 "Tm": 397.15, 
	 "num_atms": 28, 
	 "gaussian": { 
		 "optdone": 1, 
		 "sigma_profile": "yes", 
		 "theory": "DFT", 
		 "functional": "B3LYP", 
		 "basiset": "6-31G**", 
		 "properties": { 
			 "R2extent": 5446.6556, 
			 "electric_dipole_moment_norm": 5.07520564411, 
			 "electric_quadrupole_moment_norm": 30.5929151046, 
			 "total_energy": -1047.41605618, 
			 "HOMO_LUMO_gap": 0.14826, 
			 "cosmo_polarized_energy": -13.34, 
			 "cosmo_cavitation_energy": 33.36, 
			 "cosmo_dispersion_energy": -24.46, 
			 "cosmo_repulsion_energy": 1.86, 
			 "cosmo_total_nonelectrostatic_energy": 10.76, 
			 "SMD_solvation_energy": 5.37 
		},
		"coords": [
			{
				"x": 2.6523333183,
				"y": -2.4340969648,
				"z": 1.5214938467,
				"element": "C" 
			},
			{
				"x": 3.1191342212,
				"y": -2.0709695889,
				"z": 0.18709142,
				"element": "N" 
			},
			{
				"x": 4.4891223695,
				"y": -2.4009464901,
				"z": -0.1698502915,
				"element": "C" 
			},
			{
				"x": 2.4121413624,
				"y": -1.170020682,
				"z": -0.5411121809,
				"element": "C" 
			},
			{
				"x": 1.2202840203,
				"y": -0.7261128108,
				"z": -0.1835638304,
				"element": "N" 
			},
			{
				"x": 0.7016652871,
				"y": 0.1170457484,
				"z": -1.1273869597,
				"element": "C" 
			},
			{
				"x": 1.51810834,
				"y": 0.3744767695,
				"z": -2.2237316272,
				"element": "C" 
			},
			{
				"x": 3.020149408,
				"y": -0.5374435737,
				"z": -2.0732502646,
				"element": "S" 
			},
			{
				"x": 1.4007563276,
				"y": 1.3232353132,
				"z": -3.3087210718,
				"element": "C" 
			},
			{
				"x": 2.2329177887,
				"y": 1.447207099,
				"z": -4.2004456603,
				"element": "O" 
			},
			{
				"x": -0.6473614205,
				"y": 0.6731814028,
				"z": -0.8934630465,
				"element": "C" 
			},
			{
				"x": -1.5610121509,
				"y": 0.8750703299,
				"z": -1.9414253906,
				"element": "C" 
			},
			{
				"x": -2.8262889043,
				"y": 1.403249969,
				"z": -1.6859401961,
				"element": "C" 
			},
			{
				"x": -3.2013346787,
				"y": 1.7287430823,
				"z": -0.3816164905,
				"element": "C" 
			},
			{
				"x": -2.3074847357,
				"y": 1.5109526157,
				"z": 0.6703657043,
				"element": "C" 
			},
			{
				"x": -1.0444353567,
				"y": 0.9813401603,
				"z": 0.4191752505,
				"element": "C" 
			},
			{
				"x": 2.8884806348,
				"y": -3.4852919691,
				"z": 1.7110928406,
				"element": "H" 
			},
			{
				"x": 3.1299661321,
				"y": -1.8197178363,
				"z": 2.2971446951,
				"element": "H" 
			},
			{
				"x": 1.5750939877,
				"y": -2.2849521687,
				"z": 1.5704979314,
				"element": "H" 
			},
			{
				"x": 4.7695694322,
				"y": -3.3308979592,
				"z": 0.329586322,
				"element": "H" 
			},
			{
				"x": 4.5742859985,
				"y": -2.5595165169,
				"z": -1.2491746917,
				"element": "H" 
			},
			{
				"x": 5.200251186,
				"y": -1.6163907051,
				"z": 0.1255284584,
				"element": "H" 
			},
			{
				"x": 0.5009689489,
				"y": 1.9679182846,
				"z": -3.2728141809,
				"element": "H" 
			},
			{
				"x": -1.2937122798,
				"y": 0.5826686727,
				"z": -2.9513628553,
				"element": "H" 
			},
			{
				"x": -3.5235066046,
				"y": 1.5472144255,
				"z": -2.506159356,
				"element": "H" 
			},
			{
				"x": -4.1875665906,
				"y": 2.138658401,
				"z": -0.1839031131,
				"element": "H" 
			},
			{
				"x": -2.5966915225,
				"y": 1.7536096074,
				"z": 1.6889415235,
				"element": "H" 
			},
			{
				"x": -0.3476345188,
				"y": 0.8022853844,
				"z": 1.2308032149,
				"element": "H" 
			}
		],
		 "valence_orbital": [ 
			{
				"type": "occ",
				"energy": -0.28313,
				"method": "rhf"
			},
			{
				"type": "occ",
				"energy": -0.25676,
				"method": "rhf"
			},
			{
				"type": "occ",
				"energy": -0.24834,
				"method": "rhf"
			},
			{
				"type": "occ",
				"energy": -0.23647,
				"method": "rhf"
			},
			{
				"type": "occ",
				"energy": -0.20807,
				"method": "rhf"
			},
			{
				"type": "unocc",
				"energy": -0.05981,
				"method": "rhf"
			},
			{
				"type": "unocc",
				"energy": -0.00616,
				"method": "rhf"
			},
			{
				"type": "unocc",
				"energy": -0.00282,
				"method": "rhf"
			},
			{
				"type": "unocc",
				"energy": 0.01854,
				"method": "rhf"
			},
			{
				"type": "unocc",
				"energy": 0.0279,
				"method": "rhf"
			}
		],
		"cosmo_sigma_profile": { 
			"-0.025": 0.0,
			"-0.024": 0.0,
			"-0.023": 0.0,
			"-0.022": 0.0,
			"-0.021": 0.0,
			"-0.02": 0.0,
			"-0.019": 0.0,
			"-0.018": 0.0,
			"-0.017": 0.0,
			"-0.016": 0.0,
			"-0.015": 0.0,
			"-0.014": 0.0,
			"-0.013": 0.0,
			"-0.012": 0.0,
			"-0.011": 0.0,
			"-0.01": 0.0,
			"-0.009": 0.0,
			"-0.008": 0.256205970214,
			"-0.007": 4.5089553108,
			"-0.006": 16.5244907527,
			"-0.005": 24.6563822128,
			"-0.004": 30.7452505776,
			"-0.003": 26.5981719071,
			"-0.002": 19.4787579214,
			"-0.001": 15.2564329509,
			"0.0": 17.3171619987,
			"0.001": 19.4816605385,
			"0.002": 17.6120283552,
			"0.003": 17.3357032239,
			"0.004": 18.849676305,
			"0.005": 12.081703711,
			"0.006": 3.6618383638,
			"0.007": 4.50755988768,
			"0.008": 2.66543255578,
			"0.009": 3.11844877923,
			"0.01": 2.01731172818,
			"0.011": 3.2149798692,
			"0.012": 4.28368098086,
			"0.013": 3.46968922254,
			"0.014": 1.12187972087,
			"0.015": 0.0,
			"0.016": 0.0,
			"0.017": 0.0,
			"0.018": 0.0,
			"0.019": 0.0,
			"0.02": 0.0,
			"0.021": 0.0,
			"0.022": 0.0,
			"0.023": 0.0,
			"0.024": 0.0,
			"0.025": 0.0
		}
	}
}
