{
	 "smiles": "CC1=C2C=CC=CC2=CC2=C1C1=C(C=CC=C1)C=C2", 
	 "Tm": 411.15, 
	 "num_atms": 33, 
	 "gaussian": { 
		 "optdone": 1, 
		 "sigma_profile": "yes", 
		 "theory": "DFT", 
		 "functional": "B3LYP", 
		 "basiset": "6-31G**", 
		 "properties": { 
			 "R2extent": 7810.0852, 
			 "electric_dipole_moment_norm": 0.282626874165, 
			 "electric_quadrupole_moment_norm": 11.6907198615, 
			 "total_energy": -732.487024912, 
			 "HOMO_LUMO_gap": 0.13482, 
			 "cosmo_polarized_energy": -6.91, 
			 "cosmo_cavitation_energy": 34.62, 
			 "cosmo_dispersion_energy": -25.9, 
			 "cosmo_repulsion_energy": 1.89, 
			 "cosmo_total_nonelectrostatic_energy": 10.62, 
			 "SMD_solvation_energy": 4.87 
		},
		"coords": [
			{
				"x": 1.9694968097,
				"y": -2.4522920109,
				"z": 2.4169317706,
				"element": "C" 
			},
			{
				"x": 2.366827511,
				"y": -1.5713361761,
				"z": 1.2481067382,
				"element": "C" 
			},
			{
				"x": 3.2639535274,
				"y": -2.1295430839,
				"z": 0.2844221854,
				"element": "C" 
			},
			{
				"x": 3.5996731365,
				"y": -3.5187520998,
				"z": 0.2612502347,
				"element": "C" 
			},
			{
				"x": 4.452192018,
				"y": -4.03827099,
				"z": -0.6843851343,
				"element": "C" 
			},
			{
				"x": 5.0416853117,
				"y": -3.2010631257,
				"z": -1.6661682771,
				"element": "C" 
			},
			{
				"x": 4.7499174839,
				"y": -1.8604901779,
				"z": -1.6791325335,
				"element": "C" 
			},
			{
				"x": 3.8592186884,
				"y": -1.2935454199,
				"z": -0.7216095172,
				"element": "C" 
			},
			{
				"x": 3.5785555703,
				"y": 0.0803154874,
				"z": -0.7034656849,
				"element": "C" 
			},
			{
				"x": 2.6708223744,
				"y": 0.6245607488,
				"z": 0.1952655137,
				"element": "C" 
			},
			{
				"x": 1.9671015357,
				"y": -0.2221907272,
				"z": 1.1363591881,
				"element": "C" 
			},
			{
				"x": 0.895358455,
				"y": 0.4104378104,
				"z": 1.9267909662,
				"element": "C" 
			},
			{
				"x": 0.7964105538,
				"y": 1.8360284681,
				"z": 1.9593604221,
				"element": "C" 
			},
			{
				"x": -0.1903480146,
				"y": 2.4601644314,
				"z": 2.750432725,
				"element": "C" 
			},
			{
				"x": -1.1208646507,
				"y": 1.718474356,
				"z": 3.4574965379,
				"element": "C" 
			},
			{
				"x": -1.0996337908,
				"y": 0.3215328245,
				"z": 3.3501470661,
				"element": "C" 
			},
			{
				"x": -0.1197986908,
				"y": -0.3114525738,
				"z": 2.597203604,
				"element": "C" 
			},
			{
				"x": 1.6448387087,
				"y": 2.6371037923,
				"z": 1.1150064437,
				"element": "C" 
			},
			{
				"x": 2.4885013442,
				"y": 2.0541401138,
				"z": 0.2324772392,
				"element": "C" 
			},
			{
				"x": 1.1259903037,
				"y": -3.1193903831,
				"z": 2.1955199312,
				"element": "H" 
			},
			{
				"x": 1.7033071765,
				"y": -1.8584445672,
				"z": 3.2911295883,
				"element": "H" 
			},
			{
				"x": 2.8101413734,
				"y": -3.0879467283,
				"z": 2.7057803178,
				"element": "H" 
			},
			{
				"x": 3.152252871,
				"y": -4.190611589,
				"z": 0.9841164363,
				"element": "H" 
			},
			{
				"x": 4.6736998889,
				"y": -5.1017489057,
				"z": -0.6833602229,
				"element": "H" 
			},
			{
				"x": 5.7178654647,
				"y": -3.6244865965,
				"z": -2.4031358579,
				"element": "H" 
			},
			{
				"x": 5.1916400059,
				"y": -1.2041057604,
				"z": -2.4245995358,
				"element": "H" 
			},
			{
				"x": 4.0922812748,
				"y": 0.7372881084,
				"z": -1.4013990722,
				"element": "H" 
			},
			{
				"x": -0.2250745253,
				"y": 3.5465177835,
				"z": 2.7717581693,
				"element": "H" 
			},
			{
				"x": -1.8787119683,
				"y": 2.2136721142,
				"z": 4.0574392605,
				"element": "H" 
			},
			{
				"x": -1.8604874072,
				"y": -0.2750159069,
				"z": 3.8452463945,
				"element": "H" 
			},
			{
				"x": -0.1751879179,
				"y": -1.3852675479,
				"z": 2.4948499327,
				"element": "H" 
			},
			{
				"x": 1.5437388289,
				"y": 3.7182476595,
				"z": 1.1592759568,
				"element": "H" 
			},
			{
				"x": 3.0778367491,
				"y": 2.6563706718,
				"z": -0.4539107865,
				"element": "H" 
			}
		],
		 "valence_orbital": [ 
			{
				"type": "occ",
				"energy": -0.28072,
				"method": "rhf"
			},
			{
				"type": "occ",
				"energy": -0.26086,
				"method": "rhf"
			},
			{
				"type": "occ",
				"energy": -0.24347,
				"method": "rhf"
			},
			{
				"type": "occ",
				"energy": -0.21767,
				"method": "rhf"
			},
			{
				"type": "occ",
				"energy": -0.19203,
				"method": "rhf"
			},
			{
				"type": "unocc",
				"energy": -0.05721,
				"method": "rhf"
			},
			{
				"type": "unocc",
				"energy": -0.03185,
				"method": "rhf"
			},
			{
				"type": "unocc",
				"energy": -0.00066,
				"method": "rhf"
			},
			{
				"type": "unocc",
				"energy": 0.01552,
				"method": "rhf"
			},
			{
				"type": "unocc",
				"energy": 0.04187,
				"method": "rhf"
			}
		],
		"cosmo_sigma_profile": { 
			"-0.025": 0.0,
			"-0.024": 0.0,
			"-0.023": 0.0,
			"-0.022": 0.0,
			"-0.021": 0.0,
			"-0.02": 0.0,
			"-0.019": 0.0,
			"-0.018": 0.0,
			"-0.017": 0.0,
			"-0.016": 0.0,
			"-0.015": 0.0,
			"-0.014": 0.0,
			"-0.013": 0.0,
			"-0.012": 0.0,
			"-0.011": 0.0,
			"-0.01": 0.0,
			"-0.009": 0.0,
			"-0.008": 0.0,
			"-0.007": 0.0642979389333,
			"-0.006": 15.1316040231,
			"-0.005": 25.2476960432,
			"-0.004": 25.8960478345,
			"-0.003": 25.5365181579,
			"-0.002": 19.3974967849,
			"-0.001": 16.613586175,
			"0.0": 18.1911853516,
			"0.001": 16.4106333936,
			"0.002": 17.2210893382,
			"0.003": 27.5593572241,
			"0.004": 40.9485718539,
			"0.005": 25.0270877835,
			"0.006": 4.76543783959,
			"0.007": 0.0,
			"0.008": 0.0,
			"0.009": 0.0,
			"0.01": 0.0,
			"0.011": 0.0,
			"0.012": 0.0,
			"0.013": 0.0,
			"0.014": 0.0,
			"0.015": 0.0,
			"0.016": 0.0,
			"0.017": 0.0,
			"0.018": 0.0,
			"0.019": 0.0,
			"0.02": 0.0,
			"0.021": 0.0,
			"0.022": 0.0,
			"0.023": 0.0,
			"0.024": 0.0,
			"0.025": 0.0
		}
	}
}
