{
	 "smiles": "N=C(NC1=CC=CC=C1)C1=CC=CC=C1", 
	 "Tm": 392.15, 
	 "num_atms": 27, 
	 "gaussian": { 
		 "optdone": 1, 
		 "sigma_profile": "yes", 
		 "theory": "DFT", 
		 "functional": "B3LYP", 
		 "basiset": "6-31G**", 
		 "properties": { 
			 "R2extent": 4656.9125, 
			 "electric_dipole_moment_norm": 3.44566549305, 
			 "electric_quadrupole_moment_norm": 9.38237288057, 
			 "total_energy": -612.120158806, 
			 "HOMO_LUMO_gap": 0.16949, 
			 "cosmo_polarized_energy": -11.7, 
			 "cosmo_cavitation_energy": 30.89, 
			 "cosmo_dispersion_energy": -22.69, 
			 "cosmo_repulsion_energy": 1.75, 
			 "cosmo_total_nonelectrostatic_energy": 9.95, 
			 "SMD_solvation_energy": 4.44 
		},
		"coords": [
			{
				"x": -2.1135740177,
				"y": -0.3891981308,
				"z": 1.4705573943,
				"element": "N" 
			},
			{
				"x": -1.0512818061,
				"y": -0.3325957851,
				"z": 0.7467647921,
				"element": "C" 
			},
			{
				"x": -1.0887062156,
				"y": -0.4561595811,
				"z": -0.630563711,
				"element": "N" 
			},
			{
				"x": -2.1800022347,
				"y": -0.5998321517,
				"z": -1.5066516308,
				"element": "C" 
			},
			{
				"x": -3.5228045016,
				"y": -0.5796576238,
				"z": -1.0954236829,
				"element": "C" 
			},
			{
				"x": -4.5322853458,
				"y": -0.7118239671,
				"z": -2.0502741762,
				"element": "C" 
			},
			{
				"x": -4.2380080052,
				"y": -0.8682624086,
				"z": -3.4048747151,
				"element": "C" 
			},
			{
				"x": -2.9011726346,
				"y": -0.8921031784,
				"z": -3.8096073226,
				"element": "C" 
			},
			{
				"x": -1.8820241193,
				"y": -0.7587186599,
				"z": -2.872407316,
				"element": "C" 
			},
			{
				"x": 0.335714438,
				"y": -0.1287309001,
				"z": 1.2842333727,
				"element": "C" 
			},
			{
				"x": 1.2426440865,
				"y": 0.7453793651,
				"z": 0.6655822849,
				"element": "C" 
			},
			{
				"x": 2.5146357737,
				"y": 0.9433295731,
				"z": 1.20441381,
				"element": "C" 
			},
			{
				"x": 2.8990931426,
				"y": 0.2649660386,
				"z": 2.3620157342,
				"element": "C" 
			},
			{
				"x": 2.0033634502,
				"y": -0.6089014045,
				"z": 2.9830032159,
				"element": "C" 
			},
			{
				"x": 0.7301580366,
				"y": -0.8019781829,
				"z": 2.4499053442,
				"element": "C" 
			},
			{
				"x": -1.8700114532,
				"y": -0.216530463,
				"z": 2.4451711957,
				"element": "H" 
			},
			{
				"x": -0.1855958497,
				"y": -0.5513621887,
				"z": -1.0693709486,
				"element": "H" 
			},
			{
				"x": -3.7476532029,
				"y": -0.4709072475,
				"z": -0.043926935,
				"element": "H" 
			},
			{
				"x": -5.5675768875,
				"y": -0.6947749127,
				"z": -1.7204059806,
				"element": "H" 
			},
			{
				"x": -5.0352046018,
				"y": -0.9723982753,
				"z": -4.1346118114,
				"element": "H" 
			},
			{
				"x": -2.6478529764,
				"y": -1.014300822,
				"z": -4.8590077431,
				"element": "H" 
			},
			{
				"x": -0.8431456069,
				"y": -0.7755037971,
				"z": -3.1966894667,
				"element": "H" 
			},
			{
				"x": 0.9405531916,
				"y": 1.2955237861,
				"z": -0.2212369131,
				"element": "H" 
			},
			{
				"x": 3.2017823044,
				"y": 1.6335155978,
				"z": 0.7235224875,
				"element": "H" 
			},
			{
				"x": 3.890368302,
				"y": 0.4166403908,
				"z": 2.7790011966,
				"element": "H" 
			},
			{
				"x": 2.2993090026,
				"y": -1.1457486755,
				"z": 3.8795871457,
				"element": "H" 
			},
			{
				"x": 0.0384777309,
				"y": -1.4925663956,
				"z": 2.9236943794,
				"element": "H" 
			}
		],
		 "valence_orbital": [ 
			{
				"type": "occ",
				"energy": -0.26625,
				"method": "rhf"
			},
			{
				"type": "occ",
				"energy": -0.26091,
				"method": "rhf"
			},
			{
				"type": "occ",
				"energy": -0.24741,
				"method": "rhf"
			},
			{
				"type": "occ",
				"energy": -0.24037,
				"method": "rhf"
			},
			{
				"type": "occ",
				"energy": -0.20273,
				"method": "rhf"
			},
			{
				"type": "unocc",
				"energy": -0.03324,
				"method": "rhf"
			},
			{
				"type": "unocc",
				"energy": -0.01755,
				"method": "rhf"
			},
			{
				"type": "unocc",
				"energy": 0.00879,
				"method": "rhf"
			},
			{
				"type": "unocc",
				"energy": 0.01263,
				"method": "rhf"
			},
			{
				"type": "unocc",
				"energy": 0.0653,
				"method": "rhf"
			}
		],
		"cosmo_sigma_profile": { 
			"-0.025": 0.0,
			"-0.024": 0.0,
			"-0.023": 0.0,
			"-0.022": 0.0,
			"-0.021": 0.0,
			"-0.02": 0.0,
			"-0.019": 0.0,
			"-0.018": 0.0,
			"-0.017": 0.0,
			"-0.016": 0.0,
			"-0.015": 0.0,
			"-0.014": 0.165721888932,
			"-0.013": 1.20816833765,
			"-0.012": 1.11378000851,
			"-0.011": 1.60006973136,
			"-0.01": 1.24235500813,
			"-0.009": 2.24367629974,
			"-0.008": 3.1420989007,
			"-0.007": 5.01358030116,
			"-0.006": 13.450782986,
			"-0.005": 20.4951881091,
			"-0.004": 19.4673838557,
			"-0.003": 18.3551678434,
			"-0.002": 15.8016355637,
			"-0.001": 13.5451646818,
			"0.0": 14.9506207951,
			"0.001": 15.7533302643,
			"0.002": 14.0985753814,
			"0.003": 18.2909080889,
			"0.004": 20.6724267468,
			"0.005": 18.8783263347,
			"0.006": 12.0311641344,
			"0.007": 4.78740500844,
			"0.008": 1.83062308617,
			"0.009": 2.01712296848,
			"0.01": 1.65337586499,
			"0.011": 1.92653560804,
			"0.012": 1.95354541563,
			"0.013": 1.18406641855,
			"0.014": 0.644998162562,
			"0.015": 0.0340338557213,
			"0.016": 0.0,
			"0.017": 0.0,
			"0.018": 0.0,
			"0.019": 0.0,
			"0.02": 0.0,
			"0.021": 0.0,
			"0.022": 0.0,
			"0.023": 0.0,
			"0.024": 0.0,
			"0.025": 0.0
		}
	}
}
