{
	 "smiles": "COC(=O)C1=CC(=C(N)C=C1)[N+]([O-])=O", 
	 "Tm": 475.15, 
	 "num_atms": 22, 
	 "gaussian": { 
		 "optdone": 1, 
		 "sigma_profile": "yes", 
		 "theory": "DFT", 
		 "functional": "B3LYP", 
		 "basiset": "6-31G**", 
		 "properties": { 
			 "R2extent": 3362.4831, 
			 "electric_dipole_moment_norm": 2.96210062456, 
			 "electric_quadrupole_moment_norm": 25.6339380149, 
			 "total_energy": -719.99333744, 
			 "HOMO_LUMO_gap": 0.14583, 
			 "cosmo_polarized_energy": -14.68, 
			 "cosmo_cavitation_energy": 27.29, 
			 "cosmo_dispersion_energy": -20.3, 
			 "cosmo_repulsion_energy": 1.6, 
			 "cosmo_total_nonelectrostatic_energy": 8.59, 
			 "SMD_solvation_energy": 8.3 
		},
		"coords": [
			{
				"x": -0.8229701421,
				"y": -0.6889798958,
				"z": -3.626732825,
				"element": "C" 
			},
			{
				"x": -0.5430110563,
				"y": -0.3157200853,
				"z": -2.268935398,
				"element": "O" 
			},
			{
				"x": 0.6012983765,
				"y": -0.8212156894,
				"z": -1.7555595678,
				"element": "C" 
			},
			{
				"x": 1.3535101783,
				"y": -1.5429106764,
				"z": -2.383914297,
				"element": "O" 
			},
			{
				"x": 0.8309264359,
				"y": -0.3983641041,
				"z": -0.3525672024,
				"element": "C" 
			},
			{
				"x": -0.044803525,
				"y": 0.4255150511,
				"z": 0.3401206104,
				"element": "C" 
			},
			{
				"x": 0.2162916933,
				"y": 0.7969942768,
				"z": 1.6637573426,
				"element": "C" 
			},
			{
				"x": 1.3865050366,
				"y": 0.3440839238,
				"z": 2.3440788043,
				"element": "C" 
			},
			{
				"x": 1.6901543839,
				"y": 0.6699502614,
				"z": 3.619590925,
				"element": "N" 
			},
			{
				"x": 2.2616035556,
				"y": -0.4983974719,
				"z": 1.6049563166,
				"element": "C" 
			},
			{
				"x": 1.9941429972,
				"y": -0.856805709,
				"z": 0.3042380166,
				"element": "C" 
			},
			{
				"x": -0.7567017472,
				"y": 1.6613002106,
				"z": 2.3071095744,
				"element": "N" 
			},
			{
				"x": -0.5583905897,
				"y": 2.0145381216,
				"z": 3.4855642437,
				"element": "O" 
			},
			{
				"x": -1.7444438688,
				"y": 2.0154345485,
				"z": 1.6654612568,
				"element": "O" 
			},
			{
				"x": -0.9155104495,
				"y": -1.7742744455,
				"z": -3.7164696656,
				"element": "H" 
			},
			{
				"x": -0.0257622481,
				"y": -0.3479308779,
				"z": -4.2920202928,
				"element": "H" 
			},
			{
				"x": -1.7653694171,
				"y": -0.2020099354,
				"z": -3.8766635409,
				"element": "H" 
			},
			{
				"x": -0.9463810652,
				"y": 0.7976644542,
				"z": -0.1269113378,
				"element": "H" 
			},
			{
				"x": 2.5327288283,
				"y": 0.3150574042,
				"z": 4.0400253796,
				"element": "H" 
			},
			{
				"x": 1.0555027399,
				"y": 1.2695827221,
				"z": 4.1280153813,
				"element": "H" 
			},
			{
				"x": 3.1604420961,
				"y": -0.8586466883,
				"z": 2.0976471901,
				"element": "H" 
			},
			{
				"x": 2.6738377875,
				"y": -1.5006653952,
				"z": -0.2439909139,
				"element": "H" 
			}
		],
		 "valence_orbital": [ 
			{
				"type": "occ",
				"energy": -0.30371,
				"method": "rhf"
			},
			{
				"type": "occ",
				"energy": -0.29136,
				"method": "rhf"
			},
			{
				"type": "occ",
				"energy": -0.28329,
				"method": "rhf"
			},
			{
				"type": "occ",
				"energy": -0.27665,
				"method": "rhf"
			},
			{
				"type": "occ",
				"energy": -0.23308,
				"method": "rhf"
			},
			{
				"type": "unocc",
				"energy": -0.08725,
				"method": "rhf"
			},
			{
				"type": "unocc",
				"energy": -0.04425,
				"method": "rhf"
			},
			{
				"type": "unocc",
				"energy": -0.00432,
				"method": "rhf"
			},
			{
				"type": "unocc",
				"energy": 0.06069,
				"method": "rhf"
			},
			{
				"type": "unocc",
				"energy": 0.07031,
				"method": "rhf"
			}
		],
		"cosmo_sigma_profile": { 
			"-0.025": 0.0,
			"-0.024": 0.0,
			"-0.023": 0.0,
			"-0.022": 0.0,
			"-0.021": 0.0,
			"-0.02": 0.0,
			"-0.019": 0.0,
			"-0.018": 0.0,
			"-0.017": 0.0,
			"-0.016": 0.0556031726943,
			"-0.015": 1.29254065374,
			"-0.014": 1.82371057367,
			"-0.013": 1.42064206002,
			"-0.012": 1.29483337078,
			"-0.011": 2.1483254333,
			"-0.01": 2.71116647376,
			"-0.009": 2.64734920177,
			"-0.008": 2.25317342058,
			"-0.007": 4.11696039464,
			"-0.006": 9.82518067028,
			"-0.005": 12.6363778425,
			"-0.004": 14.0605995972,
			"-0.003": 17.7584015943,
			"-0.002": 13.3034328543,
			"-0.001": 17.5411797636,
			"0.0": 21.2167130267,
			"0.001": 18.2065265264,
			"0.002": 13.6740595222,
			"0.003": 8.74947892332,
			"0.004": 6.12265780865,
			"0.005": 6.02574801864,
			"0.006": 5.65738873681,
			"0.007": 5.36199905076,
			"0.008": 7.48438631622,
			"0.009": 6.10436952618,
			"0.01": 5.57464886826,
			"0.011": 4.25750017622,
			"0.012": 4.37377752484,
			"0.013": 0.553759072702,
			"0.014": 0.0,
			"0.015": 0.0,
			"0.016": 0.0,
			"0.017": 0.0,
			"0.018": 0.0,
			"0.019": 0.0,
			"0.02": 0.0,
			"0.021": 0.0,
			"0.022": 0.0,
			"0.023": 0.0,
			"0.024": 0.0,
			"0.025": 0.0
		}
	}
}
