{
	 "smiles": "CC(=O)C1(O)C(O)CC2C3CCC4=CC(=O)CCC4(C)C3CCC12C", 
	 "Tm": 498.15, 
	 "num_atms": 55, 
	 "gaussian": { 
		 "optdone": 1, 
		 "sigma_profile": "yes", 
		 "theory": "DFT", 
		 "functional": "B3LYP", 
		 "basiset": "6-31G**", 
		 "properties": { 
			 "R2extent": 9894.0951, 
			 "electric_dipole_moment_norm": 4.79044872428, 
			 "electric_quadrupole_moment_norm": 26.999226691, 
			 "total_energy": -1119.20639911, 
			 "HOMO_LUMO_gap": 0.18606, 
			 "cosmo_polarized_energy": -19.25, 
			 "cosmo_cavitation_energy": 48.4, 
			 "cosmo_dispersion_energy": -33.3, 
			 "cosmo_repulsion_energy": 2.44, 
			 "cosmo_total_nonelectrostatic_energy": 17.54, 
			 "SMD_solvation_energy": 8.24 
		},
		"coords": [
			{
				"x": -2.8133738393,
				"y": 2.1180322027,
				"z": -2.9578134517,
				"element": "C" 
			},
			{
				"x": -2.7435600391,
				"y": 1.4265950021,
				"z": -1.6141702295,
				"element": "C" 
			},
			{
				"x": -3.0148708429,
				"y": 2.0108011915,
				"z": -0.5763520759,
				"element": "O" 
			},
			{
				"x": -2.3203852949,
				"y": -0.0497419926,
				"z": -1.5917115979,
				"element": "C" 
			},
			{
				"x": -2.5299951541,
				"y": -0.5725674354,
				"z": -2.8891646776,
				"element": "O" 
			},
			{
				"x": -3.1793251295,
				"y": -0.8445283931,
				"z": -0.5105303952,
				"element": "C" 
			},
			{
				"x": -3.6829159134,
				"y": -2.0589191424,
				"z": -1.083824837,
				"element": "O" 
			},
			{
				"x": -2.2367072549,
				"y": -1.1656754078,
				"z": 0.6656795208,
				"element": "C" 
			},
			{
				"x": -1.0447336566,
				"y": -0.220661368,
				"z": 0.4601836218,
				"element": "C" 
			},
			{
				"x": 0.2294948382,
				"y": -0.4424043767,
				"z": 1.2875717041,
				"element": "C" 
			},
			{
				"x": -0.091362222,
				"y": -0.3444044358,
				"z": 2.8041017424,
				"element": "C" 
			},
			{
				"x": 1.0839086056,
				"y": 0.2236435129,
				"z": 3.6388628028,
				"element": "C" 
			},
			{
				"x": 2.3885745421,
				"y": -0.2072747263,
				"z": 3.0352217092,
				"element": "C" 
			},
			{
				"x": 3.2139438397,
				"y": -1.0665384622,
				"z": 3.6685884243,
				"element": "C" 
			},
			{
				"x": 4.4695022989,
				"y": -1.57377903,
				"z": 3.0934584741,
				"element": "C" 
			},
			{
				"x": 5.1944154254,
				"y": -2.3492655292,
				"z": 3.7034726126,
				"element": "O" 
			},
			{
				"x": 4.8282036857,
				"y": -1.0646003706,
				"z": 1.7041816642,
				"element": "C" 
			},
			{
				"x": 3.6042687003,
				"y": -0.6280862122,
				"z": 0.8873419173,
				"element": "C" 
			},
			{
				"x": 2.6780919111,
				"y": 0.3586823942,
				"z": 1.6432263798,
				"element": "C" 
			},
			{
				"x": 3.3895230968,
				"y": 1.7271424176,
				"z": 1.8163048951,
				"element": "C" 
			},
			{
				"x": 1.3109474012,
				"y": 0.6008844053,
				"z": 0.8852648052,
				"element": "C" 
			},
			{
				"x": 1.4842241332,
				"y": 0.7317911872,
				"z": -0.6464693591,
				"element": "C" 
			},
			{
				"x": 0.1553998212,
				"y": 0.9223418497,
				"z": -1.4045551812,
				"element": "C" 
			},
			{
				"x": -0.8310740497,
				"y": -0.2132606872,
				"z": -1.0720307412,
				"element": "C" 
			},
			{
				"x": -0.3009559397,
				"y": -1.5558563441,
				"z": -1.6237199927,
				"element": "C" 
			},
			{
				"x": -1.8811767738,
				"y": 1.9830037167,
				"z": -3.5148609502,
				"element": "H" 
			},
			{
				"x": -3.0220505037,
				"y": 3.1781271088,
				"z": -2.8072583628,
				"element": "H" 
			},
			{
				"x": -3.5982079484,
				"y": 1.6578101483,
				"z": -3.565800124,
				"element": "H" 
			},
			{
				"x": -2.8340002919,
				"y": -1.4850839953,
				"z": -2.7416835241,
				"element": "H" 
			},
			{
				"x": -4.0083850509,
				"y": -0.2136289199,
				"z": -0.178895,
				"element": "H" 
			},
			{
				"x": -4.5927969796,
				"y": -1.9076305438,
				"z": -1.3683732934,
				"element": "H" 
			},
			{
				"x": -1.9375799446,
				"y": -2.2169758086,
				"z": 0.5956773084,
				"element": "H" 
			},
			{
				"x": -2.7337736075,
				"y": -1.0319526971,
				"z": 1.6303853301,
				"element": "H" 
			},
			{
				"x": -1.4019989063,
				"y": 0.7867171517,
				"z": 0.7168379971,
				"element": "H" 
			},
			{
				"x": 0.626183103,
				"y": -1.4471821962,
				"z": 1.0849370486,
				"element": "H" 
			},
			{
				"x": -0.3573994709,
				"y": -1.3364572054,
				"z": 3.1837669334,
				"element": "H" 
			},
			{
				"x": -0.9688698257,
				"y": 0.2954776681,
				"z": 2.955940801,
				"element": "H" 
			},
			{
				"x": 1.0080043449,
				"y": -0.0949542486,
				"z": 4.6824826007,
				"element": "H" 
			},
			{
				"x": 1.0284944483,
				"y": 1.3201299807,
				"z": 3.6362706755,
				"element": "H" 
			},
			{
				"x": 2.9724620286,
				"y": -1.4366814602,
				"z": 4.6626420808,
				"element": "H" 
			},
			{
				"x": 5.524039897,
				"y": -0.2251058126,
				"z": 1.8372329505,
				"element": "H" 
			},
			{
				"x": 5.3935978102,
				"y": -1.848441112,
				"z": 1.1911878116,
				"element": "H" 
			},
			{
				"x": 3.0257640345,
				"y": -1.5223805449,
				"z": 0.6219805048,
				"element": "H" 
			},
			{
				"x": 3.941628976,
				"y": -0.1814198183,
				"z": -0.0530806497,
				"element": "H" 
			},
			{
				"x": 2.7787435554,
				"y": 2.4166847433,
				"z": 2.4076959485,
				"element": "H" 
			},
			{
				"x": 3.5702160221,
				"y": 2.1945160613,
				"z": 0.8426320291,
				"element": "H" 
			},
			{
				"x": 4.3515069437,
				"y": 1.6230878555,
				"z": 2.3248145122,
				"element": "H" 
			},
			{
				"x": 0.9295632067,
				"y": 1.5733400397,
				"z": 1.2327423591,
				"element": "H" 
			},
			{
				"x": 2.1442842158,
				"y": 1.5791775248,
				"z": -0.8672547326,
				"element": "H" 
			},
			{
				"x": 1.9887715513,
				"y": -0.1521268076,
				"z": -1.0454780306,
				"element": "H" 
			},
			{
				"x": 0.3559531366,
				"y": 0.9663804024,
				"z": -2.4825290897,
				"element": "H" 
			},
			{
				"x": -0.281656392,
				"y": 1.88708351,
				"z": -1.1180020536,
				"element": "H" 
			},
			{
				"x": -0.1668046911,
				"y": -1.4843744103,
				"z": -2.7058742085,
				"element": "H" 
			},
			{
				"x": -0.9887804202,
				"y": -2.3842714229,
				"z": -1.435200113,
				"element": "H" 
			},
			{
				"x": 0.6587285694,
				"y": -1.8266191571,
				"z": -1.179054494,
				"element": "H" 
			}
		],
		 "valence_orbital": [ 
			{
				"type": "occ",
				"energy": -0.28422,
				"method": "rhf"
			},
			{
				"type": "occ",
				"energy": -0.26826,
				"method": "rhf"
			},
			{
				"type": "occ",
				"energy": -0.25092,
				"method": "rhf"
			},
			{
				"type": "occ",
				"energy": -0.23942,
				"method": "rhf"
			},
			{
				"type": "occ",
				"energy": -0.22769,
				"method": "rhf"
			},
			{
				"type": "unocc",
				"energy": -0.04163,
				"method": "rhf"
			},
			{
				"type": "unocc",
				"energy": -0.0211,
				"method": "rhf"
			},
			{
				"type": "unocc",
				"energy": 0.04301,
				"method": "rhf"
			},
			{
				"type": "unocc",
				"energy": 0.06302,
				"method": "rhf"
			},
			{
				"type": "unocc",
				"energy": 0.07705,
				"method": "rhf"
			}
		],
		"cosmo_sigma_profile": { 
			"-0.025": 0.0,
			"-0.024": 0.0,
			"-0.023": 0.0,
			"-0.022": 0.0,
			"-0.021": 0.0,
			"-0.02": 0.0,
			"-0.019": 0.0,
			"-0.018": 0.0,
			"-0.017": 0.608298242201,
			"-0.016": 1.15641337995,
			"-0.015": 0.993189496373,
			"-0.014": 1.38836336381,
			"-0.013": 0.715425086898,
			"-0.012": 0.89100495603,
			"-0.011": 0.670739925868,
			"-0.01": 1.02618515118,
			"-0.009": 2.44332783521,
			"-0.008": 1.89634118196,
			"-0.007": 1.91558112536,
			"-0.006": 3.05090172306,
			"-0.005": 11.8480058732,
			"-0.004": 26.7272267581,
			"-0.003": 48.6066235142,
			"-0.002": 61.8696618369,
			"-0.001": 54.9804297397,
			"0.0": 40.7637942089,
			"0.001": 23.8510779458,
			"0.002": 13.6232157332,
			"0.003": 10.312594715,
			"0.004": 5.6475916526,
			"0.005": 5.71481898211,
			"0.006": 5.79940139546,
			"0.007": 4.63396053933,
			"0.008": 5.6119614695,
			"0.009": 4.95096634863,
			"0.01": 5.19263021394,
			"0.011": 6.33521575639,
			"0.012": 8.22907772397,
			"0.013": 7.14388609102,
			"0.014": 3.27013237665,
			"0.015": 0.866330228519,
			"0.016": 0.0,
			"0.017": 0.0,
			"0.018": 0.0,
			"0.019": 0.0,
			"0.02": 0.0,
			"0.021": 0.0,
			"0.022": 0.0,
			"0.023": 0.0,
			"0.024": 0.0,
			"0.025": 0.0
		}
	}
}
