{
	 "smiles": "ClC(=O)C1=C(I)C=CC=C1", 
	 "Tm": 304.15, 
	 "num_atms": 14, 
	 "gaussian": { 
		 "optdone": 1, 
		 "sigma_profile": "no", 
		 "theory": "DFT", 
		 "functional": "B3LYP", 
		 "basiset": "6-31G**", 
		 "properties": { 
			 "R2extent": 2050.7998, 
			 "electric_dipole_moment_norm": 3.95092754046, 
			 "electric_quadrupole_moment_norm": 10.3526374562, 
			 "total_energy": -815.949185764, 
			 "HOMO_LUMO_gap": 0.18626, 
			 "cosmo_polarized_energy": -81442.69, 
			 "cosmo_cavitation_energy": 23.7, 
			 "cosmo_dispersion_energy": -18.53, 
			 "cosmo_repulsion_energy": 1.47, 
			 "cosmo_total_nonelectrostatic_energy": 6.65, 
			 "SMD_solvation_energy": 3.78 
		},
		"coords": [
			{
				"x": 1.8753769859,
				"y": -1.996541051,
				"z": -2.0909734501,
				"element": "Cl" 
			},
			{
				"x": 0.4508023574,
				"y": -0.8955283987,
				"z": -2.3333875531,
				"element": "C" 
			},
			{
				"x": 0.0570749128,
				"y": -0.6628878176,
				"z": -3.4336911598,
				"element": "O" 
			},
			{
				"x": -0.2164763126,
				"y": -0.4709726365,
				"z": -1.0651472202,
				"element": "C" 
			},
			{
				"x": 0.367643521,
				"y": 0.2932531234,
				"z": -0.0430244135,
				"element": "C" 
			},
			{
				"x": 2.3144639936,
				"y": 1.1154502207,
				"z": -0.1982807244,
				"element": "I" 
			},
			{
				"x": -0.3757866837,
				"y": 0.6193167679,
				"z": 1.0943575933,
				"element": "C" 
			},
			{
				"x": -1.6943216983,
				"y": 0.1813193754,
				"z": 1.2215134888,
				"element": "C" 
			},
			{
				"x": -2.2908010048,
				"y": -0.5579716301,
				"z": 0.2003413377,
				"element": "C" 
			},
			{
				"x": -1.5585536452,
				"y": -0.8678638536,
				"z": -0.9412954536,
				"element": "C" 
			},
			{
				"x": 0.0736976121,
				"y": 1.2215731977,
				"z": 1.8755569515,
				"element": "H" 
			},
			{
				"x": -2.2547314001,
				"y": 0.4332621387,
				"z": 2.1167289955,
				"element": "H" 
			},
			{
				"x": -3.3215143282,
				"y": -0.88632912,
				"z": 0.287068628,
				"element": "H" 
			},
			{
				"x": -2.01077431,
				"y": -1.4333803164,
				"z": -1.7495670199,
				"element": "H" 
			}
		],
		 "valence_orbital": [ 
			{
				"type": "occ",
				"energy": -0.30986,
				"method": "rhf"
			},
			{
				"type": "occ",
				"energy": -0.30446,
				"method": "rhf"
			},
			{
				"type": "occ",
				"energy": -0.28078,
				"method": "rhf"
			},
			{
				"type": "occ",
				"energy": -0.27482,
				"method": "rhf"
			},
			{
				"type": "occ",
				"energy": -0.25531,
				"method": "rhf"
			},
			{
				"type": "unocc",
				"energy": -0.06905,
				"method": "rhf"
			},
			{
				"type": "unocc",
				"energy": -0.05386,
				"method": "rhf"
			},
			{
				"type": "unocc",
				"energy": -0.03583,
				"method": "rhf"
			},
			{
				"type": "unocc",
				"energy": -0.02113,
				"method": "rhf"
			},
			{
				"type": "unocc",
				"energy": 0.02421,
				"method": "rhf"
			}
		],
		"cosmo_sigma_profile": { 
			"0.0": 0.0,
			"0.0": 0.0,
			"0.0": 0.0,
			"0.0": 0.0,
			"0.0": 0.0,
			"0.0": 0.0,
			"0.0": 0.0,
			"0.0": 0.0,
			"0.0": 0.0,
			"0.0": 0.0,
			"0.0": 0.0,
			"0.0": 0.0,
			"0.0": 0.0,
			"0.0": 0.0,
			"0.0": 0.0,
			"0.0": 0.0,
			"0.0": 0.0,
			"0.0": 0.0,
			"0.0": 0.0,
			"0.0": 0.0,
			"0.0": 0.0,
			"0.0": 0.0,
			"0.0": 0.0,
			"0.0": 0.0,
			"0.0": 0.0,
			"0.0": 0.0,
			"0.0": 0.0,
			"0.0": 0.0,
			"0.0": 0.0,
			"0.0": 0.0,
			"0.0": 0.0,
			"0.0": 0.0,
			"0.0": 0.0,
			"0.0": 0.0,
			"0.0": 0.0,
			"0.0": 0.0,
			"0.0": 0.0,
			"0.0": 0.0,
			"0.0": 0.0,
			"0.0": 0.0,
			"0.0": 0.0,
			"0.0": 0.0,
			"0.0": 0.0,
			"0.0": 0.0,
			"0.0": 0.0,
			"0.0": 0.0,
			"0.0": 0.0,
			"0.0": 0.0,
			"0.0": 0.0,
			"0.0": 0.0,
			"0.0": 0.0
		}
	}
}
