{
	 "smiles": "CNC1=C(C=CC=N1)C(O)=O", 
	 "Tm": 494.15, 
	 "num_atms": 19, 
	 "gaussian": { 
		 "optdone": 1, 
		 "sigma_profile": "yes", 
		 "theory": "DFT", 
		 "functional": "B3LYP", 
		 "basiset": "6-31G**", 
		 "properties": { 
			 "R2extent": 1821.5754, 
			 "electric_dipole_moment_norm": 1.90310730386, 
			 "electric_quadrupole_moment_norm": 14.8062113209, 
			 "total_energy": -531.540212177, 
			 "HOMO_LUMO_gap": 0.16209, 
			 "cosmo_polarized_energy": -10.65, 
			 "cosmo_cavitation_energy": 23.05, 
			 "cosmo_dispersion_energy": -17.45, 
			 "cosmo_repulsion_energy": 1.41, 
			 "cosmo_total_nonelectrostatic_energy": 7.01, 
			 "SMD_solvation_energy": 3.79 
		},
		"coords": [
			{
				"x": -1.1338487174,
				"y": 1.2467155322,
				"z": 2.3201450853,
				"element": "C" 
			},
			{
				"x": -0.6108471393,
				"y": 1.3421667902,
				"z": 0.969774796,
				"element": "N" 
			},
			{
				"x": -0.2646012412,
				"y": 0.2527169559,
				"z": 0.2391736089,
				"element": "C" 
			},
			{
				"x": 0.2539553997,
				"y": 0.3316451982,
				"z": -1.0972928509,
				"element": "C" 
			},
			{
				"x": 0.5716718368,
				"y": -0.8720849985,
				"z": -1.738681111,
				"element": "C" 
			},
			{
				"x": 0.3884314453,
				"y": -2.0893956896,
				"z": -1.0980185331,
				"element": "C" 
			},
			{
				"x": -0.1222984082,
				"y": -2.0531774017,
				"z": 0.201999434,
				"element": "C" 
			},
			{
				"x": -0.4396631225,
				"y": -0.9386833216,
				"z": 0.8552554393,
				"element": "N" 
			},
			{
				"x": 0.4913738044,
				"y": 1.5597980035,
				"z": -1.8780831604,
				"element": "C" 
			},
			{
				"x": 0.1718897073,
				"y": 2.7226009286,
				"z": -1.2261796698,
				"element": "O" 
			},
			{
				"x": 0.9326121499,
				"y": 1.5981972872,
				"z": -3.0113558107,
				"element": "O" 
			},
			{
				"x": -2.0637249771,
				"y": 0.6694381192,
				"z": 2.351457096,
				"element": "H" 
			},
			{
				"x": -0.4213125878,
				"y": 0.7596795605,
				"z": 2.9939197353,
				"element": "H" 
			},
			{
				"x": -1.3305892519,
				"y": 2.2586964645,
				"z": 2.6809110739,
				"element": "H" 
			},
			{
				"x": -0.4933397043,
				"y": 2.2458964446,
				"z": 0.5409343389,
				"element": "H" 
			},
			{
				"x": 0.9635850585,
				"y": -0.8128207995,
				"z": -2.7487528431,
				"element": "H" 
			},
			{
				"x": 0.628787472,
				"y": -3.0306286979,
				"z": -1.5789070262,
				"element": "H" 
			},
			{
				"x": -0.2859516122,
				"y": -2.9801557901,
				"z": 0.7513250505,
				"element": "H" 
			},
			{
				"x": 0.3782698878,
				"y": 3.4340954144,
				"z": -1.8545246529,
				"element": "H" 
			}
		],
		 "valence_orbital": [ 
			{
				"type": "occ",
				"energy": -0.3072,
				"method": "rhf"
			},
			{
				"type": "occ",
				"energy": -0.2843,
				"method": "rhf"
			},
			{
				"type": "occ",
				"energy": -0.28171,
				"method": "rhf"
			},
			{
				"type": "occ",
				"energy": -0.25585,
				"method": "rhf"
			},
			{
				"type": "occ",
				"energy": -0.21078,
				"method": "rhf"
			},
			{
				"type": "unocc",
				"energy": -0.04869,
				"method": "rhf"
			},
			{
				"type": "unocc",
				"energy": 0.0027,
				"method": "rhf"
			},
			{
				"type": "unocc",
				"energy": 0.0538,
				"method": "rhf"
			},
			{
				"type": "unocc",
				"energy": 0.07144,
				"method": "rhf"
			},
			{
				"type": "unocc",
				"energy": 0.10916,
				"method": "rhf"
			}
		],
		"cosmo_sigma_profile": { 
			"-0.025": 0.0,
			"-0.024": 0.0,
			"-0.023": 0.0,
			"-0.022": 0.0,
			"-0.021": 0.0,
			"-0.02": 0.0,
			"-0.019": 0.0705348765816,
			"-0.018": 0.599075201577,
			"-0.017": 1.01980563538,
			"-0.016": 0.889707302793,
			"-0.015": 0.475928725586,
			"-0.014": 1.00344126882,
			"-0.013": 0.736322846515,
			"-0.012": 0.353947519274,
			"-0.011": 0.959127114549,
			"-0.01": 1.86393221946,
			"-0.009": 1.2208223774,
			"-0.008": 1.00885583173,
			"-0.007": 3.30891178846,
			"-0.006": 9.11114392031,
			"-0.005": 9.15139790147,
			"-0.004": 11.6638207652,
			"-0.003": 11.3759447243,
			"-0.002": 15.7145259732,
			"-0.001": 17.8124025349,
			"0.0": 13.2150123503,
			"0.001": 16.061494867,
			"0.002": 16.9394618035,
			"0.003": 13.5580785928,
			"0.004": 6.66643324478,
			"0.005": 3.77775112495,
			"0.006": 3.19124990395,
			"0.007": 2.88515809111,
			"0.008": 1.92477013261,
			"0.009": 2.85908211849,
			"0.01": 3.09972268896,
			"0.011": 3.83794910438,
			"0.012": 5.93385288214,
			"0.013": 0.925257758605,
			"0.014": 0.499301634392,
			"0.015": 0.0152718515148,
			"0.016": 0.0,
			"0.017": 0.0,
			"0.018": 0.0,
			"0.019": 0.0,
			"0.02": 0.0,
			"0.021": 0.0,
			"0.022": 0.0,
			"0.023": 0.0,
			"0.024": 0.0,
			"0.025": 0.0
		}
	}
}
