{
	 "smiles": "CC(=O)C1=CC(F)=CC(F)=C1", 
	 "Tm": 312.15, 
	 "num_atms": 17, 
	 "gaussian": { 
		 "optdone": 1, 
		 "sigma_profile": "yes", 
		 "theory": "DFT", 
		 "functional": "B3LYP", 
		 "basiset": "6-31G**", 
		 "properties": { 
			 "R2extent": 2297.9981, 
			 "electric_dipole_moment_norm": 2.28375564586, 
			 "electric_quadrupole_moment_norm": 6.38361928689, 
			 "total_energy": -583.360443911, 
			 "HOMO_LUMO_gap": 0.18973, 
			 "cosmo_polarized_energy": -7.33, 
			 "cosmo_cavitation_energy": 22.68, 
			 "cosmo_dispersion_energy": -16.22, 
			 "cosmo_repulsion_energy": 1.25, 
			 "cosmo_total_nonelectrostatic_energy": 7.71, 
			 "SMD_solvation_energy": 5.71 
		},
		"coords": [
			{
				"x": -0.3561389824,
				"y": -2.4677198019,
				"z": -0.1877000181,
				"element": "C" 
			},
			{
				"x": -0.013530727,
				"y": -1.2404917316,
				"z": 0.6369364121,
				"element": "C" 
			},
			{
				"x": 0.773583092,
				"y": -1.3089874387,
				"z": 1.5664271085,
				"element": "O" 
			},
			{
				"x": -0.6628610641,
				"y": 0.072518288,
				"z": 0.2892532726,
				"element": "C" 
			},
			{
				"x": -0.3271170716,
				"y": 1.1886745866,
				"z": 1.0682610194,
				"element": "C" 
			},
			{
				"x": -0.9091986875,
				"y": 2.4113226576,
				"z": 0.7717132828,
				"element": "C" 
			},
			{
				"x": -0.5928735199,
				"y": 3.4883124236,
				"z": 1.5140948792,
				"element": "F" 
			},
			{
				"x": -1.8166059116,
				"y": 2.5742286646,
				"z": -0.2723463476,
				"element": "C" 
			},
			{
				"x": -2.1286580101,
				"y": 1.4487765458,
				"z": -1.0257680437,
				"element": "C" 
			},
			{
				"x": -3.003280312,
				"y": 1.5765366059,
				"z": -2.0418557756,
				"element": "F" 
			},
			{
				"x": -1.5729945573,
				"y": 0.2006334034,
				"z": -0.7697516879,
				"element": "C" 
			},
			{
				"x": 0.2025314943,
				"y": -3.3177599778,
				"z": 0.2040543983,
				"element": "H" 
			},
			{
				"x": -1.4290899456,
				"y": -2.6847864355,
				"z": -0.1419225414,
				"element": "H" 
			},
			{
				"x": -0.0984813553,
				"y": -2.3171877212,
				"z": -1.2419230222,
				"element": "H" 
			},
			{
				"x": 0.3765394059,
				"y": 1.0839302625,
				"z": 1.8851320887,
				"element": "H" 
			},
			{
				"x": -2.2609951368,
				"y": 3.5380639291,
				"z": -0.4885408023,
				"element": "H" 
			},
			{
				"x": -1.857328711,
				"y": -0.6375642604,
				"z": -1.3937642227,
				"element": "H" 
			}
		],
		 "valence_orbital": [ 
			{
				"type": "occ",
				"energy": -0.37544,
				"method": "rhf"
			},
			{
				"type": "occ",
				"energy": -0.35306,
				"method": "rhf"
			},
			{
				"type": "occ",
				"energy": -0.27302,
				"method": "rhf"
			},
			{
				"type": "occ",
				"energy": -0.26085,
				"method": "rhf"
			},
			{
				"type": "occ",
				"energy": -0.2596,
				"method": "rhf"
			},
			{
				"type": "unocc",
				"energy": -0.06987,
				"method": "rhf"
			},
			{
				"type": "unocc",
				"energy": -0.01241,
				"method": "rhf"
			},
			{
				"type": "unocc",
				"energy": 0.02944,
				"method": "rhf"
			},
			{
				"type": "unocc",
				"energy": 0.07436,
				"method": "rhf"
			},
			{
				"type": "unocc",
				"energy": 0.10378,
				"method": "rhf"
			}
		],
		"cosmo_sigma_profile": { 
			"-0.025": 0.0,
			"-0.024": 0.0,
			"-0.023": 0.0,
			"-0.022": 0.0,
			"-0.021": 0.0,
			"-0.02": 0.0,
			"-0.019": 0.0,
			"-0.018": 0.0,
			"-0.017": 0.0,
			"-0.016": 0.0,
			"-0.015": 0.0,
			"-0.014": 0.0,
			"-0.013": 0.0,
			"-0.012": 0.0,
			"-0.011": 0.0,
			"-0.01": 0.102201897994,
			"-0.009": 1.42902915606,
			"-0.008": 3.29438419138,
			"-0.007": 7.18490723305,
			"-0.006": 10.2491174418,
			"-0.005": 9.79659736899,
			"-0.004": 9.65205403063,
			"-0.003": 9.23938703619,
			"-0.002": 12.9504342066,
			"-0.001": 19.0430943807,
			"0.0": 22.6920930709,
			"0.001": 18.0097341697,
			"0.002": 9.78299261091,
			"0.003": 13.1345844544,
			"0.004": 17.8772979102,
			"0.005": 2.05020084359,
			"0.006": 1.46314732486,
			"0.007": 1.07564450835,
			"0.008": 1.79321841827,
			"0.009": 2.25558261892,
			"0.01": 1.96754580431,
			"0.011": 3.9407932492,
			"0.012": 2.47230412493,
			"0.013": 0.660438350151,
			"0.014": 0.0,
			"0.015": 0.0,
			"0.016": 0.0,
			"0.017": 0.0,
			"0.018": 0.0,
			"0.019": 0.0,
			"0.02": 0.0,
			"0.021": 0.0,
			"0.022": 0.0,
			"0.023": 0.0,
			"0.024": 0.0,
			"0.025": 0.0
		}
	}
}
