{
	 "smiles": "ClC(=O)C1=CC=CC=C1", 
	 "Tm": 272.15, 
	 "num_atms": 14, 
	 "gaussian": { 
		 "optdone": 1, 
		 "sigma_profile": "yes", 
		 "theory": "DFT", 
		 "functional": "B3LYP", 
		 "basiset": "6-31G**", 
		 "properties": { 
			 "R2extent": 2885.7532, 
			 "electric_dipole_moment_norm": 4.1556354087, 
			 "electric_quadrupole_moment_norm": 9.89131105769, 
			 "total_energy": -805.18230063, 
			 "HOMO_LUMO_gap": 0.19804, 
			 "cosmo_polarized_energy": -5.79, 
			 "cosmo_cavitation_energy": 20.31, 
			 "cosmo_dispersion_energy": -15.26, 
			 "cosmo_repulsion_energy": 1.25, 
			 "cosmo_total_nonelectrostatic_energy": 6.29, 
			 "SMD_solvation_energy": 4.17 
		},
		"coords": [
			{
				"x": -2.0784504961,
				"y": 3.5940803549,
				"z": -1.3448157583,
				"element": "Cl" 
			},
			{
				"x": -0.7852449107,
				"y": 2.3269533516,
				"z": -1.6404165128,
				"element": "C" 
			},
			{
				"x": -0.7823000365,
				"y": 1.7479534891,
				"z": -2.6846969771,
				"element": "O" 
			},
			{
				"x": 0.1707805352,
				"y": 2.1257162796,
				"z": -0.5257373534,
				"element": "C" 
			},
			{
				"x": 0.1243348661,
				"y": 2.8317744967,
				"z": 0.6845280099,
				"element": "C" 
			},
			{
				"x": 1.0696150876,
				"y": 2.5708303714,
				"z": 1.6743691288,
				"element": "C" 
			},
			{
				"x": 2.0609535139,
				"y": 1.6097892723,
				"z": 1.4641165417,
				"element": "C" 
			},
			{
				"x": 2.110383107,
				"y": 0.9036620957,
				"z": 0.2584179078,
				"element": "C" 
			},
			{
				"x": 1.1705847269,
				"y": 1.1582142367,
				"z": -0.7343716551,
				"element": "C" 
			},
			{
				"x": -0.6454910167,
				"y": 3.5765605211,
				"z": 0.8449810023,
				"element": "H" 
			},
			{
				"x": 1.0319353797,
				"y": 3.1186366034,
				"z": 2.6108186054,
				"element": "H" 
			},
			{
				"x": 2.7952045501,
				"y": 1.4106666627,
				"z": 2.2393591956,
				"element": "H" 
			},
			{
				"x": 2.8808592086,
				"y": 0.1565344015,
				"z": 0.0946384156,
				"element": "H" 
			},
			{
				"x": 1.191235485,
				"y": 0.6217278633,
				"z": -1.6764905504,
				"element": "H" 
			}
		],
		 "valence_orbital": [ 
			{
				"type": "occ",
				"energy": -0.31925,
				"method": "rhf"
			},
			{
				"type": "occ",
				"energy": -0.31878,
				"method": "rhf"
			},
			{
				"type": "occ",
				"energy": -0.29304,
				"method": "rhf"
			},
			{
				"type": "occ",
				"energy": -0.2792,
				"method": "rhf"
			},
			{
				"type": "occ",
				"energy": -0.27564,
				"method": "rhf"
			},
			{
				"type": "unocc",
				"energy": -0.0776,
				"method": "rhf"
			},
			{
				"type": "unocc",
				"energy": -0.02431,
				"method": "rhf"
			},
			{
				"type": "unocc",
				"energy": 0.01909,
				"method": "rhf"
			},
			{
				"type": "unocc",
				"energy": 0.02617,
				"method": "rhf"
			},
			{
				"type": "unocc",
				"energy": 0.08334,
				"method": "rhf"
			}
		],
		"cosmo_sigma_profile": { 
			"-0.025": 0.0,
			"-0.024": 0.0,
			"-0.023": 0.0,
			"-0.022": 0.0,
			"-0.021": 0.0,
			"-0.02": 0.0,
			"-0.019": 0.0,
			"-0.018": 0.0,
			"-0.017": 0.0,
			"-0.016": 0.0,
			"-0.015": 0.0,
			"-0.014": 0.0,
			"-0.013": 0.0,
			"-0.012": 0.0,
			"-0.011": 0.0,
			"-0.01": 0.0,
			"-0.009": 0.0,
			"-0.008": 0.224522172419,
			"-0.007": 6.84099856316,
			"-0.006": 11.3572597954,
			"-0.005": 10.7007358622,
			"-0.004": 9.79810466606,
			"-0.003": 9.75259497206,
			"-0.002": 10.6640778965,
			"-0.001": 13.8516906497,
			"0.0": 14.7110809095,
			"0.001": 13.671073582,
			"0.002": 18.7446914037,
			"0.003": 16.2674276696,
			"0.004": 8.79375415728,
			"0.005": 6.86250118974,
			"0.006": 3.3061997011,
			"0.007": 2.84870252289,
			"0.008": 3.85218757335,
			"0.009": 3.37912312736,
			"0.01": 0.450424854911,
			"0.011": 0.0,
			"0.012": 0.0,
			"0.013": 0.0,
			"0.014": 0.0,
			"0.015": 0.0,
			"0.016": 0.0,
			"0.017": 0.0,
			"0.018": 0.0,
			"0.019": 0.0,
			"0.02": 0.0,
			"0.021": 0.0,
			"0.022": 0.0,
			"0.023": 0.0,
			"0.024": 0.0,
			"0.025": 0.0
		}
	}
}
