{
	 "smiles": "C1=CC2=CC=C3C=CC4=CC=C5C=CC6=CC=CN=C6C5=C4C3=C2C=C1", 
	 "Tm": 543.15, 
	 "num_atms": 41, 
	 "gaussian": { 
		 "optdone": 1, 
		 "sigma_profile": "yes", 
		 "theory": "DFT", 
		 "functional": "B3LYP", 
		 "basiset": "6-31G**", 
		 "properties": { 
			 "R2extent": 7626.4277, 
			 "electric_dipole_moment_norm": 1.53770364505, 
			 "electric_quadrupole_moment_norm": 13.2520535073, 
			 "total_energy": -1016.48412413, 
			 "HOMO_LUMO_gap": 0.14056, 
			 "cosmo_polarized_energy": -11.83, 
			 "cosmo_cavitation_energy": 42.77, 
			 "cosmo_dispersion_energy": -30.07, 
			 "cosmo_repulsion_energy": 2.17, 
			 "cosmo_total_nonelectrostatic_energy": 14.88, 
			 "SMD_solvation_energy": 5.51 
		},
		"coords": [
			{
				"x": -3.4596530573,
				"y": 0.6962217684,
				"z": -0.2240504387,
				"element": "C" 
			},
			{
				"x": -3.3446889058,
				"y": 0.8374899471,
				"z": 1.1429475351,
				"element": "C" 
			},
			{
				"x": -2.2501551518,
				"y": 0.279127811,
				"z": 1.8477020563,
				"element": "C" 
			},
			{
				"x": -2.2245462036,
				"y": 0.3034436546,
				"z": 3.2778232236,
				"element": "C" 
			},
			{
				"x": -1.2812844832,
				"y": -0.4035504742,
				"z": 3.9574546377,
				"element": "C" 
			},
			{
				"x": -0.2264021993,
				"y": -1.0854324429,
				"z": 3.2689892413,
				"element": "C" 
			},
			{
				"x": 0.6325912412,
				"y": -1.9584774514,
				"z": 3.9982465997,
				"element": "C" 
			},
			{
				"x": 1.5552389563,
				"y": -2.7216994548,
				"z": 3.3439934067,
				"element": "C" 
			},
			{
				"x": 1.8193934623,
				"y": -2.5028263375,
				"z": 1.9609427592,
				"element": "C" 
			},
			{
				"x": 2.7833058097,
				"y": -3.3111690097,
				"z": 1.2902492881,
				"element": "C" 
			},
			{
				"x": 3.1007573101,
				"y": -3.084280983,
				"z": -0.0173382679,
				"element": "C" 
			},
			{
				"x": 2.6190842008,
				"y": -1.9144459237,
				"z": -0.6737217242,
				"element": "C" 
			},
			{
				"x": 3.1119882966,
				"y": -1.5912185,
				"z": -1.9796470329,
				"element": "C" 
			},
			{
				"x": 2.8231622545,
				"y": -0.4011306726,
				"z": -2.5752245136,
				"element": "C" 
			},
			{
				"x": 2.0849242751,
				"y": 0.5891449557,
				"z": -1.8583523959,
				"element": "C" 
			},
			{
				"x": 1.898053914,
				"y": 1.8946045326,
				"z": -2.3673700576,
				"element": "C" 
			},
			{
				"x": 1.2726315425,
				"y": 2.8476059981,
				"z": -1.5935702723,
				"element": "C" 
			},
			{
				"x": 0.8578734439,
				"y": 2.4766959192,
				"z": -0.2977356191,
				"element": "C" 
			},
			{
				"x": 0.9878210734,
				"y": 1.2593745176,
				"z": 0.1977962392,
				"element": "N" 
			},
			{
				"x": 1.5611191337,
				"y": 0.2937205186,
				"z": -0.5616778764,
				"element": "C" 
			},
			{
				"x": 1.7139211664,
				"y": -1.0446644133,
				"z": -0.0063718579,
				"element": "C" 
			},
			{
				"x": 1.1283033115,
				"y": -1.4728575185,
				"z": 1.2524287555,
				"element": "C" 
			},
			{
				"x": -0.0761119163,
				"y": -0.9387085629,
				"z": 1.8640040918,
				"element": "C" 
			},
			{
				"x": -1.203578457,
				"y": -0.3798961511,
				"z": 1.1305778058,
				"element": "C" 
			},
			{
				"x": -1.3862114334,
				"y": -0.5564304118,
				"z": -0.2640400923,
				"element": "C" 
			},
			{
				"x": -2.4811870075,
				"y": -0.0357236284,
				"z": -0.925556016,
				"element": "C" 
			},
			{
				"x": -4.3111842936,
				"y": 1.1167034408,
				"z": -0.7512533136,
				"element": "H" 
			},
			{
				"x": -4.1146613882,
				"y": 1.3550945021,
				"z": 1.709827698,
				"element": "H" 
			},
			{
				"x": -3.0133267245,
				"y": 0.8323654697,
				"z": 3.8063476376,
				"element": "H" 
			},
			{
				"x": -1.312149474,
				"y": -0.4711382598,
				"z": 5.0417936407,
				"element": "H" 
			},
			{
				"x": 0.4798414134,
				"y": -2.0638976522,
				"z": 5.068981044,
				"element": "H" 
			},
			{
				"x": 2.1331540963,
				"y": -3.4763620062,
				"z": 3.87047731,
				"element": "H" 
			},
			{
				"x": 3.2401799739,
				"y": -4.1305552084,
				"z": 1.8388896322,
				"element": "H" 
			},
			{
				"x": 3.7906212147,
				"y": -3.7355783989,
				"z": -0.5467134749,
				"element": "H" 
			},
			{
				"x": 3.7414207049,
				"y": -2.3213374235,
				"z": -2.4815001879,
				"element": "H" 
			},
			{
				"x": 3.1964942226,
				"y": -0.1654038365,
				"z": -3.5683307821,
				"element": "H" 
			},
			{
				"x": 2.2717449568,
				"y": 2.1333568442,
				"z": -3.3601514506,
				"element": "H" 
			},
			{
				"x": 1.1198035283,
				"y": 3.8611071857,
				"z": -1.9505513214,
				"element": "H" 
			},
			{
				"x": 0.4041498342,
				"y": 3.2169005993,
				"z": 0.3604349934,
				"element": "H" 
			},
			{
				"x": -0.6609985476,
				"y": -1.1331243668,
				"z": -0.8238810235,
				"element": "H" 
			},
			{
				"x": -2.591040094,
				"y": -0.2014485766,
				"z": -1.9935698769,
				"element": "H" 
			}
		],
		 "valence_orbital": [ 
			{
				"type": "occ",
				"energy": -0.24356,
				"method": "rhf"
			},
			{
				"type": "occ",
				"energy": -0.22956,
				"method": "rhf"
			},
			{
				"type": "occ",
				"energy": -0.22728,
				"method": "rhf"
			},
			{
				"type": "occ",
				"energy": -0.20343,
				"method": "rhf"
			},
			{
				"type": "occ",
				"energy": -0.19831,
				"method": "rhf"
			},
			{
				"type": "unocc",
				"energy": -0.05775,
				"method": "rhf"
			},
			{
				"type": "unocc",
				"energy": -0.04713,
				"method": "rhf"
			},
			{
				"type": "unocc",
				"energy": -0.02651,
				"method": "rhf"
			},
			{
				"type": "unocc",
				"energy": -0.01954,
				"method": "rhf"
			},
			{
				"type": "unocc",
				"energy": 0.01527,
				"method": "rhf"
			}
		],
		"cosmo_sigma_profile": { 
			"-0.025": 0.0,
			"-0.024": 0.0,
			"-0.023": 0.0,
			"-0.022": 0.0,
			"-0.021": 0.0,
			"-0.02": 0.0,
			"-0.019": 0.0,
			"-0.018": 0.0,
			"-0.017": 0.0,
			"-0.016": 0.0,
			"-0.015": 0.0,
			"-0.014": 0.0,
			"-0.013": 0.0,
			"-0.012": 0.0,
			"-0.011": 0.0,
			"-0.01": 0.0,
			"-0.009": 0.0,
			"-0.008": 0.070910158922,
			"-0.007": 7.09520938421,
			"-0.006": 28.2905811466,
			"-0.005": 29.3063761237,
			"-0.004": 27.0944109582,
			"-0.003": 24.6399597962,
			"-0.002": 18.8353984681,
			"-0.001": 18.8360647161,
			"0.0": 17.9308910717,
			"0.001": 21.8650738871,
			"0.002": 32.6888361186,
			"0.003": 44.5886554989,
			"0.004": 36.4051690283,
			"0.005": 20.5654352978,
			"0.006": 7.1266688374,
			"0.007": 2.73368589769,
			"0.008": 1.2801147284,
			"0.009": 1.46132965131,
			"0.01": 1.28645354275,
			"0.011": 0.750367258791,
			"0.012": 0.965060830467,
			"0.013": 0.960767351738,
			"0.014": 0.351914853995,
			"0.015": 0.0,
			"0.016": 0.0,
			"0.017": 0.0,
			"0.018": 0.0,
			"0.019": 0.0,
			"0.02": 0.0,
			"0.021": 0.0,
			"0.022": 0.0,
			"0.023": 0.0,
			"0.024": 0.0,
			"0.025": 0.0
		}
	}
}
