{
	 "smiles": "CC(C)C(O)C(C)(C)CO", 
	 "Tm": 324.95, 
	 "num_atms": 28, 
	 "gaussian": { 
		 "optdone": 1, 
		 "sigma_profile": "yes", 
		 "theory": "DFT", 
		 "functional": "B3LYP", 
		 "basiset": "6-31G**", 
		 "properties": { 
			 "R2extent": 2038.3879, 
			 "electric_dipole_moment_norm": 2.65912205248, 
			 "electric_quadrupole_moment_norm": 12.9346033565, 
			 "total_energy": -466.146532984, 
			 "HOMO_LUMO_gap": 0.31212, 
			 "cosmo_polarized_energy": -8.34, 
			 "cosmo_cavitation_energy": 26.61, 
			 "cosmo_dispersion_energy": -19.27, 
			 "cosmo_repulsion_energy": 1.53, 
			 "cosmo_total_nonelectrostatic_energy": 8.86, 
			 "SMD_solvation_energy": 4.6 
		},
		"coords": [
			{
				"x": 0.4345164363,
				"y": 1.136603522,
				"z": 1.8953358015,
				"element": "C" 
			},
			{
				"x": -0.3874748869,
				"y": -0.1424060783,
				"z": 1.6704425247,
				"element": "C" 
			},
			{
				"x": 0.3034548335,
				"y": -1.317425621,
				"z": 2.3893908722,
				"element": "C" 
			},
			{
				"x": -0.642983783,
				"y": -0.525915378,
				"z": 0.189830133,
				"element": "C" 
			},
			{
				"x": -1.4670772875,
				"y": -1.7124149903,
				"z": 0.2900716242,
				"element": "O" 
			},
			{
				"x": -1.3272833322,
				"y": 0.4997481161,
				"z": -0.7816132494,
				"element": "C" 
			},
			{
				"x": -1.6970518602,
				"y": -0.2385170129,
				"z": -2.0903988515,
				"element": "C" 
			},
			{
				"x": -0.3766465582,
				"y": 1.6523674644,
				"z": -1.1631294784,
				"element": "C" 
			},
			{
				"x": -2.6164038662,
				"y": 1.0773017802,
				"z": -0.1522526787,
				"element": "C" 
			},
			{
				"x": -3.6138898677,
				"y": 0.1047375773,
				"z": 0.1105641946,
				"element": "O" 
			},
			{
				"x": -0.1146984116,
				"y": 2.0467167368,
				"z": 1.6465452524,
				"element": "H" 
			},
			{
				"x": 0.711756294,
				"y": 1.2087687498,
				"z": 2.9521484622,
				"element": "H" 
			},
			{
				"x": 1.3644557864,
				"y": 1.1280220233,
				"z": 1.3152575109,
				"element": "H" 
			},
			{
				"x": -1.3734273493,
				"y": -0.0026584408,
				"z": 2.134375114,
				"element": "H" 
			},
			{
				"x": 1.3117111941,
				"y": -1.4785495423,
				"z": 1.9867189581,
				"element": "H" 
			},
			{
				"x": 0.4065674807,
				"y": -1.101321751,
				"z": 3.4578031803,
				"element": "H" 
			},
			{
				"x": -0.2607809312,
				"y": -2.243527518,
				"z": 2.2746558095,
				"element": "H" 
			},
			{
				"x": 0.3270931589,
				"y": -0.8026828646,
				"z": -0.2581583444,
				"element": "H" 
			},
			{
				"x": -1.4960926101,
				"y": -2.1355866622,
				"z": -0.576666264,
				"element": "H" 
			},
			{
				"x": -2.0342509293,
				"y": 0.4809893127,
				"z": -2.8430254194,
				"element": "H" 
			},
			{
				"x": -0.8333475021,
				"y": -0.7690135762,
				"z": -2.5117204531,
				"element": "H" 
			},
			{
				"x": -2.5194417363,
				"y": -0.9424209858,
				"z": -1.9416150397,
				"element": "H" 
			},
			{
				"x": 0.5880490622,
				"y": 1.2679969666,
				"z": -1.5137448434,
				"element": "H" 
			},
			{
				"x": -0.8115241109,
				"y": 2.2364382784,
				"z": -1.9810447164,
				"element": "H" 
			},
			{
				"x": -0.181208983,
				"y": 2.3415277285,
				"z": -0.3412963336,
				"element": "H" 
			},
			{
				"x": -2.3545102443,
				"y": 1.6336368818,
				"z": 0.7630665872,
				"element": "H" 
			},
			{
				"x": -3.0590890246,
				"y": 1.8044025529,
				"z": -0.8450746064,
				"element": "H" 
			},
			{
				"x": -3.1538209715,
				"y": -0.6859172693,
				"z": 0.4375342533,
				"element": "H" 
			}
		],
		 "valence_orbital": [ 
			{
				"type": "occ",
				"energy": -0.32781,
				"method": "rhf"
			},
			{
				"type": "occ",
				"energy": -0.318,
				"method": "rhf"
			},
			{
				"type": "occ",
				"energy": -0.30413,
				"method": "rhf"
			},
			{
				"type": "occ",
				"energy": -0.2673,
				"method": "rhf"
			},
			{
				"type": "occ",
				"energy": -0.24875,
				"method": "rhf"
			},
			{
				"type": "unocc",
				"energy": 0.06337,
				"method": "rhf"
			},
			{
				"type": "unocc",
				"energy": 0.08057,
				"method": "rhf"
			},
			{
				"type": "unocc",
				"energy": 0.10246,
				"method": "rhf"
			},
			{
				"type": "unocc",
				"energy": 0.11565,
				"method": "rhf"
			},
			{
				"type": "unocc",
				"energy": 0.11631,
				"method": "rhf"
			}
		],
		"cosmo_sigma_profile": { 
			"-0.025": 0.0,
			"-0.024": 0.0,
			"-0.023": 0.0,
			"-0.022": 0.0,
			"-0.021": 0.0,
			"-0.02": 0.0,
			"-0.019": 0.0,
			"-0.018": 0.0,
			"-0.017": 0.0,
			"-0.016": 0.0,
			"-0.015": 0.0328498894075,
			"-0.014": 0.74905908672,
			"-0.013": 1.02542396434,
			"-0.012": 0.703403562076,
			"-0.011": 1.051877591,
			"-0.01": 0.861375201018,
			"-0.009": 1.48587845683,
			"-0.008": 0.761702919499,
			"-0.007": 1.35852402824,
			"-0.006": 1.0899624968,
			"-0.005": 2.28938034617,
			"-0.004": 7.67431342849,
			"-0.003": 27.592674527,
			"-0.002": 32.9244027839,
			"-0.001": 27.3287185204,
			"0.0": 25.1608372471,
			"0.001": 26.9362658722,
			"0.002": 13.7838396578,
			"0.003": 4.12755033252,
			"0.004": 3.34812920689,
			"0.005": 2.85908641533,
			"0.006": 2.37736778672,
			"0.007": 2.12184122886,
			"0.008": 2.44868037511,
			"0.009": 2.50875737224,
			"0.01": 2.23933824372,
			"0.011": 1.77249446822,
			"0.012": 0.817225786439,
			"0.013": 1.02287340213,
			"0.014": 2.05338630183,
			"0.015": 2.02642202797,
			"0.016": 0.992146773052,
			"0.017": 0.0,
			"0.018": 0.0,
			"0.019": 0.0,
			"0.02": 0.0,
			"0.021": 0.0,
			"0.022": 0.0,
			"0.023": 0.0,
			"0.024": 0.0,
			"0.025": 0.0
		}
	}
}
