{
	 "smiles": "CS(=O)(=O)CCOC1=CC=C(Br)C=C1", 
	 "Tm": 404.15, 
	 "num_atms": 25, 
	 "gaussian": { 
		 "optdone": 1, 
		 "sigma_profile": "yes", 
		 "theory": "DFT", 
		 "functional": "B3LYP", 
		 "basiset": "6-31G**", 
		 "properties": { 
			 "R2extent": 10034.6537, 
			 "electric_dipole_moment_norm": 3.48261846748, 
			 "electric_quadrupole_moment_norm": 23.8995335971, 
			 "total_energy": -3544.77768731, 
			 "HOMO_LUMO_gap": 0.20743, 
			 "cosmo_polarized_energy": -18.81, 
			 "cosmo_cavitation_energy": 32.99, 
			 "cosmo_dispersion_energy": -24.85, 
			 "cosmo_repulsion_energy": 1.92, 
			 "cosmo_total_nonelectrostatic_energy": 10.06, 
			 "SMD_solvation_energy": 4.15 
		},
		"coords": [
			{
				"x": 2.2862611134,
				"y": -2.1682835524,
				"z": 1.3143107085,
				"element": "C" 
			},
			{
				"x": 1.2209682507,
				"y": -1.4602225954,
				"z": 2.5931782637,
				"element": "S" 
			},
			{
				"x": 0.0058676416,
				"y": -2.2869779103,
				"z": 2.6751351003,
				"element": "O" 
			},
			{
				"x": 2.0528918741,
				"y": -1.2163923231,
				"z": 3.7789168946,
				"element": "O" 
			},
			{
				"x": 0.7400942217,
				"y": 0.165220013,
				"z": 1.9323052217,
				"element": "C" 
			},
			{
				"x": -0.3316156062,
				"y": 0.0821984812,
				"z": 0.8526114262,
				"element": "C" 
			},
			{
				"x": -0.5933257892,
				"y": 1.4219149972,
				"z": 0.4552730336,
				"element": "O" 
			},
			{
				"x": -1.5494641778,
				"y": 1.6409917664,
				"z": -0.4997448712,
				"element": "C" 
			},
			{
				"x": -1.7452930263,
				"y": 2.9808221022,
				"z": -0.8634336836,
				"element": "C" 
			},
			{
				"x": -2.6902657365,
				"y": 3.3155889986,
				"z": -1.8256936541,
				"element": "C" 
			},
			{
				"x": -3.4448333591,
				"y": 2.3070378689,
				"z": -2.4296921242,
				"element": "C" 
			},
			{
				"x": -4.7440804289,
				"y": 2.7649003146,
				"z": -3.7552142113,
				"element": "Br" 
			},
			{
				"x": -3.2596943426,
				"y": 0.9754739398,
				"z": -2.0758170737,
				"element": "C" 
			},
			{
				"x": -2.3093648821,
				"y": 0.6363371539,
				"z": -1.1076584915,
				"element": "C" 
			},
			{
				"x": 1.7308350702,
				"y": -2.2735044601,
				"z": 0.3810836293,
				"element": "H" 
			},
			{
				"x": 2.5782882619,
				"y": -3.1521718818,
				"z": 1.6862265952,
				"element": "H" 
			},
			{
				"x": 3.1678721304,
				"y": -1.5385837135,
				"z": 1.1864615024,
				"element": "H" 
			},
			{
				"x": 1.6447434359,
				"y": 0.6646000946,
				"z": 1.5751589281,
				"element": "H" 
			},
			{
				"x": 0.3713147045,
				"y": 0.710539853,
				"z": 2.805505918,
				"element": "H" 
			},
			{
				"x": -1.2300377142,
				"y": -0.3978524533,
				"z": 1.2563620376,
				"element": "H" 
			},
			{
				"x": 0.0131947938,
				"y": -0.5080508324,
				"z": -0.0086014495,
				"element": "H" 
			},
			{
				"x": -1.1469358782,
				"y": 3.7456137894,
				"z": -0.3795955461,
				"element": "H" 
			},
			{
				"x": -2.8410285275,
				"y": 4.3518640257,
				"z": -2.1059322663,
				"element": "H" 
			},
			{
				"x": -3.8506829129,
				"y": 0.1985441362,
				"z": -2.5473346909,
				"element": "H" 
			},
			{
				"x": -2.1822091169,
				"y": -0.4062078122,
				"z": -0.8416111968,
				"element": "H" 
			}
		],
		 "valence_orbital": [ 
			{
				"type": "occ",
				"energy": -0.29792,
				"method": "rhf"
			},
			{
				"type": "occ",
				"energy": -0.29612,
				"method": "rhf"
			},
			{
				"type": "occ",
				"energy": -0.28814,
				"method": "rhf"
			},
			{
				"type": "occ",
				"energy": -0.27065,
				"method": "rhf"
			},
			{
				"type": "occ",
				"energy": -0.22881,
				"method": "rhf"
			},
			{
				"type": "unocc",
				"energy": -0.02138,
				"method": "rhf"
			},
			{
				"type": "unocc",
				"energy": -0.00792,
				"method": "rhf"
			},
			{
				"type": "unocc",
				"energy": 0.00581,
				"method": "rhf"
			},
			{
				"type": "unocc",
				"energy": 0.04538,
				"method": "rhf"
			},
			{
				"type": "unocc",
				"energy": 0.05424,
				"method": "rhf"
			}
		],
		"cosmo_sigma_profile": { 
			"-0.025": 0.0,
			"-0.024": 0.0,
			"-0.023": 0.0,
			"-0.022": 0.0,
			"-0.021": 0.0,
			"-0.02": 0.0,
			"-0.019": 0.0,
			"-0.018": 0.0,
			"-0.017": 0.0,
			"-0.016": 0.0,
			"-0.015": 0.0,
			"-0.014": 0.0,
			"-0.013": 0.0,
			"-0.012": 0.144477505766,
			"-0.011": 0.870131493631,
			"-0.01": 2.60776501145,
			"-0.009": 8.2272370548,
			"-0.008": 12.3507929921,
			"-0.007": 17.285610033,
			"-0.006": 17.86528592,
			"-0.005": 17.1964641478,
			"-0.004": 16.4853776186,
			"-0.003": 12.7464602923,
			"-0.002": 10.3136222028,
			"-0.001": 10.6814219909,
			"0.0": 10.8937289725,
			"0.001": 12.5372640742,
			"0.002": 18.4588656834,
			"0.003": 24.5711472716,
			"0.004": 20.304729537,
			"0.005": 13.220047979,
			"0.006": 3.4407652082,
			"0.007": 3.49915051703,
			"0.008": 3.91494897493,
			"0.009": 3.18745213144,
			"0.01": 3.67071339133,
			"0.011": 10.3836125909,
			"0.012": 9.51718386487,
			"0.013": 1.17385552344,
			"0.014": 0.0,
			"0.015": 0.0,
			"0.016": 0.0,
			"0.017": 0.0,
			"0.018": 0.0,
			"0.019": 0.0,
			"0.02": 0.0,
			"0.021": 0.0,
			"0.022": 0.0,
			"0.023": 0.0,
			"0.024": 0.0,
			"0.025": 0.0
		}
	}
}
