{
	 "smiles": "COC1=CC=CC(OC)=C1C1=NC(C)(C)CO1", 
	 "Tm": 342.15, 
	 "num_atms": 34, 
	 "gaussian": { 
		 "optdone": 1, 
		 "sigma_profile": "yes", 
		 "theory": "DFT", 
		 "functional": "B3LYP", 
		 "basiset": "6-31G**", 
		 "properties": { 
			 "R2extent": 4640.0249, 
			 "electric_dipole_moment_norm": 1.03528854915, 
			 "electric_quadrupole_moment_norm": 12.3047953051, 
			 "total_energy": -786.016546295, 
			 "HOMO_LUMO_gap": 0.21282, 
			 "cosmo_polarized_energy": -10.78, 
			 "cosmo_cavitation_energy": 36.3, 
			 "cosmo_dispersion_energy": -24.7, 
			 "cosmo_repulsion_energy": 1.93, 
			 "cosmo_total_nonelectrostatic_energy": 13.53, 
			 "SMD_solvation_energy": 6.41 
		},
		"coords": [
			{
				"x": 1.8833953376,
				"y": 3.2959704521,
				"z": -2.3199381036,
				"element": "C" 
			},
			{
				"x": 2.1980101946,
				"y": 2.267645112,
				"z": -1.3796140182,
				"element": "O" 
			},
			{
				"x": 1.7367522605,
				"y": 2.4744721594,
				"z": -0.1006208049,
				"element": "C" 
			},
			{
				"x": 2.346897297,
				"y": 3.4198928322,
				"z": 0.7267594958,
				"element": "C" 
			},
			{
				"x": 1.9163723673,
				"y": 3.5630251598,
				"z": 2.0448644248,
				"element": "C" 
			},
			{
				"x": 0.8893262449,
				"y": 2.7629371278,
				"z": 2.5430549898,
				"element": "C" 
			},
			{
				"x": 0.2824455065,
				"y": 1.8112046226,
				"z": 1.7194392565,
				"element": "C" 
			},
			{
				"x": -0.7762351086,
				"y": 1.0847928153,
				"z": 2.205658314,
				"element": "O" 
			},
			{
				"x": -0.4188817673,
				"y": -0.1234581191,
				"z": 2.8889205666,
				"element": "C" 
			},
			{
				"x": 0.6973911854,
				"y": 1.6584742084,
				"z": 0.3822001351,
				"element": "C" 
			},
			{
				"x": 0.0483402375,
				"y": 0.673501363,
				"z": -0.5120403492,
				"element": "C" 
			},
			{
				"x": -0.0695014928,
				"y": -0.5778903754,
				"z": -0.3022901594,
				"element": "N" 
			},
			{
				"x": -0.8416603983,
				"y": -1.1450195636,
				"z": -1.4312116064,
				"element": "C" 
			},
			{
				"x": -2.2169850766,
				"y": -1.5894627681,
				"z": -0.9082842508,
				"element": "C" 
			},
			{
				"x": -0.0788066169,
				"y": -2.3268877127,
				"z": -2.0399589637,
				"element": "C" 
			},
			{
				"x": -0.9555401113,
				"y": 0.0546003245,
				"z": -2.4199945439,
				"element": "C" 
			},
			{
				"x": -0.4843277864,
				"y": 1.19140528,
				"z": -1.663833186,
				"element": "O" 
			},
			{
				"x": 0.8016330149,
				"y": 3.348651658,
				"z": -2.4841651991,
				"element": "H" 
			},
			{
				"x": 2.2534383319,
				"y": 4.274578785,
				"z": -1.9892809951,
				"element": "H" 
			},
			{
				"x": 2.3821103304,
				"y": 3.0224510408,
				"z": -3.2520711133,
				"element": "H" 
			},
			{
				"x": 3.1644590581,
				"y": 4.0165622369,
				"z": 0.3355154686,
				"element": "H" 
			},
			{
				"x": 2.3885590516,
				"y": 4.2987639703,
				"z": 2.6894308311,
				"element": "H" 
			},
			{
				"x": 0.5318092442,
				"y": 2.8718736727,
				"z": 3.5616424633,
				"element": "H" 
			},
			{
				"x": 0.2603727649,
				"y": 0.0838987473,
				"z": 3.7262016562,
				"element": "H" 
			},
			{
				"x": -1.351093346,
				"y": -0.5388789306,
				"z": 3.2777472536,
				"element": "H" 
			},
			{
				"x": 0.0411074013,
				"y": -0.8316331739,
				"z": 2.1933324811,
				"element": "H" 
			},
			{
				"x": -2.0987798752,
				"y": -2.346765551,
				"z": -0.1280436616,
				"element": "H" 
			},
			{
				"x": -2.8220767432,
				"y": -2.0162600394,
				"z": -1.7165068591,
				"element": "H" 
			},
			{
				"x": -2.7587949905,
				"y": -0.7413486046,
				"z": -0.4784463331,
				"element": "H" 
			},
			{
				"x": 0.9148423387,
				"y": -2.0145386881,
				"z": -2.3749510653,
				"element": "H" 
			},
			{
				"x": -0.6204283744,
				"y": -2.7409710057,
				"z": -2.8982215024,
				"element": "H" 
			},
			{
				"x": 0.0474662069,
				"y": -3.1206117286,
				"z": -1.2981127377,
				"element": "H" 
			},
			{
				"x": -1.9787784072,
				"y": 0.2612414639,
				"z": -2.7457014784,
				"element": "H" 
			},
			{
				"x": -0.3138382796,
				"y": -0.0624167712,
				"z": -3.3009804053,
				"element": "H" 
			}
		],
		 "valence_orbital": [ 
			{
				"type": "occ",
				"energy": -0.26954,
				"method": "rhf"
			},
			{
				"type": "occ",
				"energy": -0.26089,
				"method": "rhf"
			},
			{
				"type": "occ",
				"energy": -0.25039,
				"method": "rhf"
			},
			{
				"type": "occ",
				"energy": -0.23434,
				"method": "rhf"
			},
			{
				"type": "occ",
				"energy": -0.23202,
				"method": "rhf"
			},
			{
				"type": "unocc",
				"energy": -0.0192,
				"method": "rhf"
			},
			{
				"type": "unocc",
				"energy": 0.00252,
				"method": "rhf"
			},
			{
				"type": "unocc",
				"energy": 0.04314,
				"method": "rhf"
			},
			{
				"type": "unocc",
				"energy": 0.08999,
				"method": "rhf"
			},
			{
				"type": "unocc",
				"energy": 0.09545,
				"method": "rhf"
			}
		],
		"cosmo_sigma_profile": { 
			"-0.025": 0.0,
			"-0.024": 0.0,
			"-0.023": 0.0,
			"-0.022": 0.0,
			"-0.021": 0.0,
			"-0.02": 0.0,
			"-0.019": 0.0,
			"-0.018": 0.0,
			"-0.017": 0.0,
			"-0.016": 0.0,
			"-0.015": 0.0,
			"-0.014": 0.0,
			"-0.013": 0.0,
			"-0.012": 0.0,
			"-0.011": 0.0,
			"-0.01": 0.0,
			"-0.009": 0.0,
			"-0.008": 0.0,
			"-0.007": 1.62113948648,
			"-0.006": 9.30189440839,
			"-0.005": 18.3535967938,
			"-0.004": 31.8040641677,
			"-0.003": 38.5406066425,
			"-0.002": 32.0920514524,
			"-0.001": 21.4246705802,
			"0.0": 22.3132600456,
			"0.001": 19.2153324345,
			"0.002": 15.5095970149,
			"0.003": 20.1651632706,
			"0.004": 14.0452547275,
			"0.005": 8.1835186817,
			"0.006": 6.48006772082,
			"0.007": 6.41298729732,
			"0.008": 6.21768093071,
			"0.009": 4.48811139161,
			"0.01": 3.0708589323,
			"0.011": 3.42963035606,
			"0.012": 2.24176665129,
			"0.013": 0.676112120358,
			"0.014": 0.260700712165,
			"0.015": 0.0,
			"0.016": 0.0,
			"0.017": 0.0,
			"0.018": 0.0,
			"0.019": 0.0,
			"0.02": 0.0,
			"0.021": 0.0,
			"0.022": 0.0,
			"0.023": 0.0,
			"0.024": 0.0,
			"0.025": 0.0
		}
	}
}
