{
	 "smiles": "OC(=O)C=CC1=NC=CC=C1", 
	 "Tm": 475.15, 
	 "num_atms": 18, 
	 "gaussian": { 
		 "optdone": 1, 
		 "sigma_profile": "yes", 
		 "theory": "DFT", 
		 "functional": "B3LYP", 
		 "basiset": "6-31G**", 
		 "properties": { 
			 "R2extent": 2649.135, 
			 "electric_dipole_moment_norm": 2.86947959916, 
			 "electric_quadrupole_moment_norm": 17.228710623, 
			 "total_energy": -514.267307504, 
			 "HOMO_LUMO_gap": 0.17194, 
			 "cosmo_polarized_energy": -11.89, 
			 "cosmo_cavitation_energy": 23.63, 
			 "cosmo_dispersion_energy": -17.32, 
			 "cosmo_repulsion_energy": 1.4, 
			 "cosmo_total_nonelectrostatic_energy": 7.7, 
			 "SMD_solvation_energy": 4.46 
		},
		"coords": [
			{
				"x": -2.617169742,
				"y": -1.6029241342,
				"z": -0.7837534269,
				"element": "O" 
			},
			{
				"x": -1.2934233482,
				"y": -1.9031521942,
				"z": -0.754475322,
				"element": "C" 
			},
			{
				"x": -0.8779274387,
				"y": -3.0290920537,
				"z": -0.9572429391,
				"element": "O" 
			},
			{
				"x": -0.4745653504,
				"y": -0.7126799627,
				"z": -0.4528347727,
				"element": "C" 
			},
			{
				"x": 0.8625503123,
				"y": -0.8165247462,
				"z": -0.3818527741,
				"element": "C" 
			},
			{
				"x": 1.7744317437,
				"y": 0.2946020016,
				"z": -0.0900755671,
				"element": "C" 
			},
			{
				"x": 1.2385564429,
				"y": 1.5150221435,
				"z": 0.1239424365,
				"element": "N" 
			},
			{
				"x": 2.0663558125,
				"y": 2.5237158663,
				"z": 0.3889231792,
				"element": "C" 
			},
			{
				"x": 3.4586065078,
				"y": 2.3926538199,
				"z": 0.4584700692,
				"element": "C" 
			},
			{
				"x": 4.0123242931,
				"y": 1.1340486441,
				"z": 0.2378257356,
				"element": "C" 
			},
			{
				"x": 3.1594717218,
				"y": 0.068024865,
				"z": -0.0407026892,
				"element": "C" 
			},
			{
				"x": -3.0734805023,
				"y": -2.4364563571,
				"z": -0.9866349655,
				"element": "H" 
			},
			{
				"x": -0.9752845009,
				"y": 0.2351949992,
				"z": -0.2922841957,
				"element": "H" 
			},
			{
				"x": 1.3089516239,
				"y": -1.7939998916,
				"z": -0.5522294687,
				"element": "H" 
			},
			{
				"x": 1.600351997,
				"y": 3.493633558,
				"z": 0.5562149633,
				"element": "H" 
			},
			{
				"x": 4.0801847631,
				"y": 3.2544589044,
				"z": 0.6789283113,
				"element": "H" 
			},
			{
				"x": 5.0870441897,
				"y": 0.9832201745,
				"z": 0.2813013364,
				"element": "H" 
			},
			{
				"x": 3.5509214748,
				"y": -0.9289456369,
				"z": -0.2187199106,
				"element": "H" 
			}
		],
		 "valence_orbital": [ 
			{
				"type": "occ",
				"energy": -0.30752,
				"method": "rhf"
			},
			{
				"type": "occ",
				"energy": -0.29334,
				"method": "rhf"
			},
			{
				"type": "occ",
				"energy": -0.27236,
				"method": "rhf"
			},
			{
				"type": "occ",
				"energy": -0.26408,
				"method": "rhf"
			},
			{
				"type": "occ",
				"energy": -0.24598,
				"method": "rhf"
			},
			{
				"type": "unocc",
				"energy": -0.07404,
				"method": "rhf"
			},
			{
				"type": "unocc",
				"energy": -0.02861,
				"method": "rhf"
			},
			{
				"type": "unocc",
				"energy": 0.01337,
				"method": "rhf"
			},
			{
				"type": "unocc",
				"energy": 0.08501,
				"method": "rhf"
			},
			{
				"type": "unocc",
				"energy": 0.08959,
				"method": "rhf"
			}
		],
		"cosmo_sigma_profile": { 
			"-0.025": 0.0,
			"-0.024": 0.0,
			"-0.023": 0.0,
			"-0.022": 0.0,
			"-0.021": 0.0,
			"-0.02": 0.0,
			"-0.019": 0.0,
			"-0.018": 0.353251163023,
			"-0.017": 1.26535079377,
			"-0.016": 0.74644417107,
			"-0.015": 0.711424438802,
			"-0.014": 0.714052086062,
			"-0.013": 0.82427670578,
			"-0.012": 0.719942124453,
			"-0.011": 0.484747908779,
			"-0.01": 0.900349296591,
			"-0.009": 0.905360079422,
			"-0.008": 3.7761333025,
			"-0.007": 9.82643034697,
			"-0.006": 11.666424696,
			"-0.005": 11.6205344466,
			"-0.004": 8.12601487666,
			"-0.003": 9.64771202204,
			"-0.002": 10.2932395746,
			"-0.001": 13.1768425437,
			"0.0": 14.1507834253,
			"0.001": 19.5634059462,
			"0.002": 19.0338069913,
			"0.003": 9.78632393979,
			"0.004": 4.90080276008,
			"0.005": 4.80678387941,
			"0.006": 4.74465651789,
			"0.007": 3.3277674448,
			"0.008": 4.49208168579,
			"0.009": 4.22103487164,
			"0.01": 3.61171486544,
			"0.011": 3.98606753754,
			"0.012": 6.17151072698,
			"0.013": 1.02054776813,
			"0.014": 0.0,
			"0.015": 0.0,
			"0.016": 0.0,
			"0.017": 0.0,
			"0.018": 0.0,
			"0.019": 0.0,
			"0.02": 0.0,
			"0.021": 0.0,
			"0.022": 0.0,
			"0.023": 0.0,
			"0.024": 0.0,
			"0.025": 0.0
		}
	}
}
