{
	 "smiles": "OC1=CC(O)=C(C=C1)C(=O)C1=CC=C(O)C=C1O", 
	 "Tm": 474.15, 
	 "num_atms": 28, 
	 "gaussian": { 
		 "optdone": 1, 
		 "sigma_profile": "yes", 
		 "theory": "DFT", 
		 "functional": "B3LYP", 
		 "basiset": "6-31G**", 
		 "properties": { 
			 "R2extent": 5674.4267, 
			 "electric_dipole_moment_norm": 7.04238304908, 
			 "electric_quadrupole_moment_norm": 14.6858961449, 
			 "total_energy": -877.526930715, 
			 "HOMO_LUMO_gap": 0.16317, 
			 "cosmo_polarized_energy": -24.88, 
			 "cosmo_cavitation_energy": 32.73, 
			 "cosmo_dispersion_energy": -24.21, 
			 "cosmo_repulsion_energy": 1.86, 
			 "cosmo_total_nonelectrostatic_energy": 10.37, 
			 "SMD_solvation_energy": 7.23 
		},
		"coords": [
			{
				"x": 1.7428769077,
				"y": 3.4197309709,
				"z": 2.9421537838,
				"element": "O" 
			},
			{
				"x": 1.5198774078,
				"y": 2.6162180501,
				"z": 1.8658957916,
				"element": "C" 
			},
			{
				"x": 0.2353738799,
				"y": 2.2301699212,
				"z": 1.4737315938,
				"element": "C" 
			},
			{
				"x": 0.0579097282,
				"y": 1.3952643988,
				"z": 0.3644230494,
				"element": "C" 
			},
			{
				"x": -1.1911978302,
				"y": 1.0472139054,
				"z": -0.0596690685,
				"element": "O" 
			},
			{
				"x": 1.168533241,
				"y": 0.9256969937,
				"z": -0.3618966139,
				"element": "C" 
			},
			{
				"x": 2.4417728904,
				"y": 1.368867728,
				"z": 0.0347883295,
				"element": "C" 
			},
			{
				"x": 2.6362602432,
				"y": 2.1843566817,
				"z": 1.1392522977,
				"element": "C" 
			},
			{
				"x": 1.0853881933,
				"y": 0.0941439472,
				"z": -1.6060807633,
				"element": "C" 
			},
			{
				"x": 1.7503177846,
				"y": 0.4816416457,
				"z": -2.5911392187,
				"element": "O" 
			},
			{
				"x": 0.3254226737,
				"y": -1.1535399912,
				"z": -1.6642469457,
				"element": "C" 
			},
			{
				"x": -0.2595611007,
				"y": -1.7489830081,
				"z": -0.5282192684,
				"element": "C" 
			},
			{
				"x": -0.960290744,
				"y": -2.9370430006,
				"z": -0.6051934512,
				"element": "C" 
			},
			{
				"x": -1.1007811757,
				"y": -3.5716446794,
				"z": -1.8568995342,
				"element": "C" 
			},
			{
				"x": -1.7879113582,
				"y": -4.736815729,
				"z": -1.9957697361,
				"element": "O" 
			},
			{
				"x": -0.5235642662,
				"y": -3.0300533462,
				"z": -3.0000494578,
				"element": "C" 
			},
			{
				"x": 0.2058749488,
				"y": -1.8385847718,
				"z": -2.9154528662,
				"element": "C" 
			},
			{
				"x": 0.7778521906,
				"y": -1.3724216794,
				"z": -4.0294555188,
				"element": "O" 
			},
			{
				"x": 0.9005960559,
				"y": 3.656082778,
				"z": 3.3517857164,
				"element": "H" 
			},
			{
				"x": -0.6348372945,
				"y": 2.5919116553,
				"z": 2.020215459,
				"element": "H" 
			},
			{
				"x": -1.8519108675,
				"y": 1.4850764008,
				"z": 0.4921510624,
				"element": "H" 
			},
			{
				"x": 3.2939614667,
				"y": 1.0479492251,
				"z": -0.5550746284,
				"element": "H" 
			},
			{
				"x": 3.6254848787,
				"y": 2.5025289522,
				"z": 1.4474519223,
				"element": "H" 
			},
			{
				"x": -0.1427750556,
				"y": -1.2655432058,
				"z": 0.4342671919,
				"element": "H" 
			},
			{
				"x": -1.3959619846,
				"y": -3.3829742434,
				"z": 0.285517227,
				"element": "H" 
			},
			{
				"x": -2.1276102756,
				"y": -5.0100004645,
				"z": -1.133510754,
				"element": "H" 
			},
			{
				"x": -0.6163104737,
				"y": -3.5341432169,
				"z": -3.9545457256,
				"element": "H" 
			},
			{
				"x": 1.299209936,
				"y": -0.5691059179,
				"z": -3.7502298743,
				"element": "H" 
			}
		],
		 "valence_orbital": [ 
			{
				"type": "occ",
				"energy": -0.25907,
				"method": "rhf"
			},
			{
				"type": "occ",
				"energy": -0.2477,
				"method": "rhf"
			},
			{
				"type": "occ",
				"energy": -0.23352,
				"method": "rhf"
			},
			{
				"type": "occ",
				"energy": -0.22606,
				"method": "rhf"
			},
			{
				"type": "occ",
				"energy": -0.21762,
				"method": "rhf"
			},
			{
				"type": "unocc",
				"energy": -0.05445,
				"method": "rhf"
			},
			{
				"type": "unocc",
				"energy": -0.00788,
				"method": "rhf"
			},
			{
				"type": "unocc",
				"energy": 0.0038,
				"method": "rhf"
			},
			{
				"type": "unocc",
				"energy": 0.01329,
				"method": "rhf"
			},
			{
				"type": "unocc",
				"energy": 0.05126,
				"method": "rhf"
			}
		],
		"cosmo_sigma_profile": { 
			"-0.025": 0.0,
			"-0.024": 0.0,
			"-0.023": 0.0,
			"-0.022": 0.0,
			"-0.021": 0.0,
			"-0.02": 0.0,
			"-0.019": 0.197455971103,
			"-0.018": 3.5942027292,
			"-0.017": 3.24747302363,
			"-0.016": 3.54464018068,
			"-0.015": 3.10703200805,
			"-0.014": 2.75718229572,
			"-0.013": 2.14395603722,
			"-0.012": 2.73983384441,
			"-0.011": 3.22646742698,
			"-0.01": 4.22970558901,
			"-0.009": 3.558950153,
			"-0.008": 2.91413802208,
			"-0.007": 4.23085921428,
			"-0.006": 8.77989227705,
			"-0.005": 10.9485894043,
			"-0.004": 9.85366194061,
			"-0.003": 9.86448522955,
			"-0.002": 10.70779309,
			"-0.001": 13.3287417958,
			"0.0": 13.9932145173,
			"0.001": 16.5300248504,
			"0.002": 18.2818443589,
			"0.003": 29.9354526453,
			"0.004": 20.3089838491,
			"0.005": 12.0019810253,
			"0.006": 6.95147386829,
			"0.007": 8.8826966452,
			"0.008": 7.53425888007,
			"0.009": 7.3941360105,
			"0.01": 7.78341297697,
			"0.011": 6.09218499272,
			"0.012": 1.98867804724,
			"0.013": 0.839563534035,
			"0.014": 0.0,
			"0.015": 0.0,
			"0.016": 0.0,
			"0.017": 0.0,
			"0.018": 0.0,
			"0.019": 0.0,
			"0.02": 0.0,
			"0.021": 0.0,
			"0.022": 0.0,
			"0.023": 0.0,
			"0.024": 0.0,
			"0.025": 0.0
		}
	}
}
