{
	 "smiles": "NC1=C(I)C=C(I)C(C(O)=O)=C1I", 
	 "Tm": 471.15, 
	 "num_atms": 17, 
	 "gaussian": { 
		 "optdone": 1, 
		 "sigma_profile": "no", 
		 "theory": "DFT", 
		 "functional": "B3LYP", 
		 "basiset": "6-31G**", 
		 "properties": { 
			 "R2extent": 3439.7483, 
			 "electric_dipole_moment_norm": 2.21028492507, 
			 "electric_quadrupole_moment_norm": 12.8818442907, 
			 "total_energy": -508.511938895, 
			 "HOMO_LUMO_gap": 0.14498, 
			 "cosmo_polarized_energy": -214201.41, 
			 "cosmo_cavitation_energy": 30.99, 
			 "cosmo_dispersion_energy": -26.16, 
			 "cosmo_repulsion_energy": 1.99, 
			 "cosmo_total_nonelectrostatic_energy": 6.82, 
			 "SMD_solvation_energy": 3.61 
		},
		"coords": [
			{
				"x": -1.6425237704,
				"y": -1.807777567,
				"z": -0.7648010647,
				"element": "N" 
			},
			{
				"x": -1.3319578434,
				"y": -0.4814334267,
				"z": -0.622303267,
				"element": "C" 
			},
			{
				"x": -0.8861187033,
				"y": 0.3026027747,
				"z": -1.7133214637,
				"element": "C" 
			},
			{
				"x": -0.6008875553,
				"y": -0.5873587394,
				"z": -3.6209369402,
				"element": "I" 
			},
			{
				"x": -0.6172857086,
				"y": 1.65984422,
				"z": -1.5924103853,
				"element": "C" 
			},
			{
				"x": -0.7808929751,
				"y": 2.2952201879,
				"z": -0.3623864595,
				"element": "C" 
			},
			{
				"x": -0.3491854966,
				"y": 4.366525145,
				"z": -0.249682716,
				"element": "I" 
			},
			{
				"x": -1.213385937,
				"y": 1.5676523695,
				"z": 0.7537645661,
				"element": "C" 
			},
			{
				"x": -1.336826351,
				"y": 2.2410518127,
				"z": 2.09850828,
				"element": "C" 
			},
			{
				"x": -2.5627260702,
				"y": 2.770052083,
				"z": 2.2771931574,
				"element": "O" 
			},
			{
				"x": -0.4456549657,
				"y": 2.3059369983,
				"z": 2.9109554834,
				"element": "O" 
			},
			{
				"x": -1.4829644765,
				"y": 0.2023664517,
				"z": 0.6106567924,
				"element": "C" 
			},
			{
				"x": -2.1466274681,
				"y": -0.9069177859,
				"z": 2.3028722808,
				"element": "I" 
			},
			{
				"x": -1.7168261114,
				"y": -2.3674882983,
				"z": 0.0713822339,
				"element": "H" 
			},
			{
				"x": -1.2981617267,
				"y": -2.2827087149,
				"z": -1.5857884628,
				"element": "H" 
			},
			{
				"x": -0.2791726331,
				"y": 2.2215792942,
				"z": -2.4536018675,
				"element": "H" 
			},
			{
				"x": -2.5570022076,
				"y": 3.1941531952,
				"z": 3.1531998329,
				"element": "H" 
			}
		],
		 "valence_orbital": [ 
			{
				"type": "occ",
				"energy": -0.28587,
				"method": "rhf"
			},
			{
				"type": "occ",
				"energy": -0.27511,
				"method": "rhf"
			},
			{
				"type": "occ",
				"energy": -0.27389,
				"method": "rhf"
			},
			{
				"type": "occ",
				"energy": -0.25467,
				"method": "rhf"
			},
			{
				"type": "occ",
				"energy": -0.22404,
				"method": "rhf"
			},
			{
				"type": "unocc",
				"energy": -0.07906,
				"method": "rhf"
			},
			{
				"type": "unocc",
				"energy": -0.04343,
				"method": "rhf"
			},
			{
				"type": "unocc",
				"energy": -0.03892,
				"method": "rhf"
			},
			{
				"type": "unocc",
				"energy": -0.03553,
				"method": "rhf"
			},
			{
				"type": "unocc",
				"energy": -0.02383,
				"method": "rhf"
			}
		],
		"cosmo_sigma_profile": { 
			"0.0": 0.0,
			"0.0": 0.0,
			"0.0": 0.0,
			"0.0": 0.0,
			"0.0": 0.0,
			"0.0": 0.0,
			"0.0": 0.0,
			"0.0": 0.0,
			"0.0": 0.0,
			"0.0": 0.0,
			"0.0": 0.0,
			"0.0": 0.0,
			"0.0": 0.0,
			"0.0": 0.0,
			"0.0": 0.0,
			"0.0": 0.0,
			"0.0": 0.0,
			"0.0": 0.0,
			"0.0": 0.0,
			"0.0": 0.0,
			"0.0": 0.0,
			"0.0": 0.0,
			"0.0": 0.0,
			"0.0": 0.0,
			"0.0": 0.0,
			"0.0": 0.0,
			"0.0": 0.0,
			"0.0": 0.0,
			"0.0": 0.0,
			"0.0": 0.0,
			"0.0": 0.0,
			"0.0": 0.0,
			"0.0": 0.0,
			"0.0": 0.0,
			"0.0": 0.0,
			"0.0": 0.0,
			"0.0": 0.0,
			"0.0": 0.0,
			"0.0": 0.0,
			"0.0": 0.0,
			"0.0": 0.0,
			"0.0": 0.0,
			"0.0": 0.0,
			"0.0": 0.0,
			"0.0": 0.0,
			"0.0": 0.0,
			"0.0": 0.0,
			"0.0": 0.0,
			"0.0": 0.0,
			"0.0": 0.0,
			"0.0": 0.0
		}
	}
}
