{
	 "smiles": "CC1=C(OCC(F)(F)F)C=CN=C1CS(=O)C1=NC2=CC=CC=C2N1", 
	 "Tm": 453.15, 
	 "num_atms": 39, 
	 "gaussian": { 
		 "optdone": 1, 
		 "sigma_profile": "yes", 
		 "theory": "DFT", 
		 "functional": "B3LYP", 
		 "basiset": "6-31G**", 
		 "properties": { 
			 "R2extent": 14202.3715, 
			 "electric_dipole_moment_norm": 3.07343319596, 
			 "electric_quadrupole_moment_norm": 17.2842077018, 
			 "total_energy": -1630.50735752, 
			 "HOMO_LUMO_gap": 0.18061, 
			 "cosmo_polarized_energy": -20.7, 
			 "cosmo_cavitation_energy": 46.46, 
			 "cosmo_dispersion_energy": -31.76, 
			 "cosmo_repulsion_energy": 2.3, 
			 "cosmo_total_nonelectrostatic_energy": 16.99, 
			 "SMD_solvation_energy": 5.19 
		},
		"coords": [
			{
				"x": -2.3821696671,
				"y": 3.3547476999,
				"z": 0.6068165565,
				"element": "C" 
			},
			{
				"x": -1.59371509,
				"y": 2.7140928937,
				"z": -0.5103916948,
				"element": "C" 
			},
			{
				"x": -0.7110427494,
				"y": 3.4738157099,
				"z": -1.304558369,
				"element": "C" 
			},
			{
				"x": -0.6299716286,
				"y": 4.8052440802,
				"z": -1.0121713028,
				"element": "O" 
			},
			{
				"x": 0.2468647214,
				"y": 5.6127126199,
				"z": -1.7657747639,
				"element": "C" 
			},
			{
				"x": 0.1311529374,
				"y": 7.0280846693,
				"z": -1.2264854046,
				"element": "C" 
			},
			{
				"x": 0.4774436527,
				"y": 7.0978812283,
				"z": 0.06926112,
				"element": "F" 
			},
			{
				"x": 0.9617590916,
				"y": 7.8289935874,
				"z": -1.9283552975,
				"element": "F" 
			},
			{
				"x": -1.117596373,
				"y": 7.507832956,
				"z": -1.3514742795,
				"element": "F" 
			},
			{
				"x": 0.021409407,
				"y": 2.8596240339,
				"z": -2.3222925782,
				"element": "C" 
			},
			{
				"x": -0.1566986133,
				"y": 1.4904016269,
				"z": -2.5180757247,
				"element": "C" 
			},
			{
				"x": -0.9873647771,
				"y": 0.7412965404,
				"z": -1.7969388066,
				"element": "N" 
			},
			{
				"x": -1.690316802,
				"y": 1.3470948138,
				"z": -0.8211578805,
				"element": "C" 
			},
			{
				"x": -2.5971151226,
				"y": 0.4356863701,
				"z": -0.0459200989,
				"element": "C" 
			},
			{
				"x": -1.7842033417,
				"y": -0.2844263898,
				"z": 1.4905620568,
				"element": "S" 
			},
			{
				"x": -0.8503866132,
				"y": 0.7574662537,
				"z": 2.0876688366,
				"element": "O" 
			},
			{
				"x": -0.6707437019,
				"y": -1.4203233911,
				"z": 0.6409326965,
				"element": "C" 
			},
			{
				"x": -0.9981382402,
				"y": -2.5125237779,
				"z": 0.007380228,
				"element": "N" 
			},
			{
				"x": 0.2255721011,
				"y": -3.041924038,
				"z": -0.3890677324,
				"element": "C" 
			},
			{
				"x": 0.5048209044,
				"y": -4.2067219144,
				"z": -1.1161764601,
				"element": "C" 
			},
			{
				"x": 1.8367919425,
				"y": -4.5106395619,
				"z": -1.3730839121,
				"element": "C" 
			},
			{
				"x": 2.8827314517,
				"y": -3.6793833578,
				"z": -0.9198108353,
				"element": "C" 
			},
			{
				"x": 2.6309274944,
				"y": -2.5179069356,
				"z": -0.1955324647,
				"element": "C" 
			},
			{
				"x": 1.2908596114,
				"y": -2.2160274302,
				"z": 0.0587365787,
				"element": "C" 
			},
			{
				"x": 0.670744756,
				"y": -1.1781021784,
				"z": 0.7305197547,
				"element": "N" 
			},
			{
				"x": -2.1469687597,
				"y": 2.8720112169,
				"z": 1.5592571152,
				"element": "H" 
			},
			{
				"x": -2.1477607799,
				"y": 4.4154265979,
				"z": 0.6907819391,
				"element": "H" 
			},
			{
				"x": -3.4615164145,
				"y": 3.2652992408,
				"z": 0.433912108,
				"element": "H" 
			},
			{
				"x": -0.0214331445,
				"y": 5.628578304,
				"z": -2.8291256335,
				"element": "H" 
			},
			{
				"x": 1.2903197077,
				"y": 5.2907478116,
				"z": -1.6635953179,
				"element": "H" 
			},
			{
				"x": 0.7103878248,
				"y": 3.409052992,
				"z": -2.9520734681,
				"element": "H" 
			},
			{
				"x": 0.3994742179,
				"y": 0.9790772205,
				"z": -3.3016058376,
				"element": "H" 
			},
			{
				"x": -3.4887689348,
				"y": 0.9364054363,
				"z": 0.3366438301,
				"element": "H" 
			},
			{
				"x": -2.8759299461,
				"y": -0.4371383216,
				"z": -0.6404561498,
				"element": "H" 
			},
			{
				"x": -0.3041018997,
				"y": -4.8417337621,
				"z": -1.4619925723,
				"element": "H" 
			},
			{
				"x": 2.0824749727,
				"y": -5.4070904775,
				"z": -1.9345393428,
				"element": "H" 
			},
			{
				"x": 3.9101820005,
				"y": -3.9529254576,
				"z": -1.14090369,
				"element": "H" 
			},
			{
				"x": 3.4382112364,
				"y": -1.8810605071,
				"z": 0.1524901547,
				"element": "H" 
			},
			{
				"x": 1.0565145678,
				"y": -0.3643464024,
				"z": 1.1909966424,
				"element": "H" 
			}
		],
		 "valence_orbital": [ 
			{
				"type": "occ",
				"energy": -0.26381,
				"method": "rhf"
			},
			{
				"type": "occ",
				"energy": -0.25281,
				"method": "rhf"
			},
			{
				"type": "occ",
				"energy": -0.24767,
				"method": "rhf"
			},
			{
				"type": "occ",
				"energy": -0.23062,
				"method": "rhf"
			},
			{
				"type": "occ",
				"energy": -0.22287,
				"method": "rhf"
			},
			{
				"type": "unocc",
				"energy": -0.04226,
				"method": "rhf"
			},
			{
				"type": "unocc",
				"energy": -0.02146,
				"method": "rhf"
			},
			{
				"type": "unocc",
				"energy": -0.01599,
				"method": "rhf"
			},
			{
				"type": "unocc",
				"energy": 0.01641,
				"method": "rhf"
			},
			{
				"type": "unocc",
				"energy": 0.02085,
				"method": "rhf"
			}
		],
		"cosmo_sigma_profile": { 
			"-0.025": 0.0,
			"-0.024": 0.0,
			"-0.023": 0.0,
			"-0.022": 0.0,
			"-0.021": 0.0,
			"-0.02": 0.0,
			"-0.019": 0.0,
			"-0.018": 0.0,
			"-0.017": 0.0,
			"-0.016": 0.223370026506,
			"-0.015": 1.1573679077,
			"-0.014": 0.695618601449,
			"-0.013": 0.821837218944,
			"-0.012": 0.931708931884,
			"-0.011": 0.633338529687,
			"-0.01": 1.2847729627,
			"-0.009": 9.45243308856,
			"-0.008": 11.845105882,
			"-0.007": 13.0166028744,
			"-0.006": 19.8384734073,
			"-0.005": 19.5091693765,
			"-0.004": 19.9986463985,
			"-0.003": 19.2062733783,
			"-0.002": 20.9575114277,
			"-0.001": 21.6761407896,
			"0.0": 25.4425542699,
			"0.001": 30.5208610155,
			"0.002": 43.103746129,
			"0.003": 38.2142552565,
			"0.004": 20.1486649665,
			"0.005": 16.3867507128,
			"0.006": 6.47578878696,
			"0.007": 4.20469217429,
			"0.008": 4.14719209425,
			"0.009": 4.39146374635,
			"0.01": 3.86111134269,
			"0.011": 4.05955545824,
			"0.012": 3.718094994,
			"0.013": 2.68105503417,
			"0.014": 2.7472744256,
			"0.015": 1.50761720426,
			"0.016": 0.244842905382,
			"0.017": 0.0,
			"0.018": 0.0,
			"0.019": 0.0,
			"0.02": 0.0,
			"0.021": 0.0,
			"0.022": 0.0,
			"0.023": 0.0,
			"0.024": 0.0,
			"0.025": 0.0
		}
	}
}
