{
	 "smiles": "OC(=O)C(=CC1=CC=CS1)N1N=NN=C1C1=CC=CC=C1", 
	 "Tm": 478.15, 
	 "num_atms": 31, 
	 "gaussian": { 
		 "optdone": 1, 
		 "sigma_profile": "yes", 
		 "theory": "DFT", 
		 "functional": "B3LYP", 
		 "basiset": "6-31G**", 
		 "properties": { 
			 "R2extent": 6601.1574, 
			 "electric_dipole_moment_norm": 7.75054131335, 
			 "electric_quadrupole_moment_norm": 20.6318631379, 
			 "total_energy": -1307.07307442, 
			 "HOMO_LUMO_gap": 0.14907, 
			 "cosmo_polarized_energy": -26.44, 
			 "cosmo_cavitation_energy": 38.58, 
			 "cosmo_dispersion_energy": -26.68, 
			 "cosmo_repulsion_energy": 1.98, 
			 "cosmo_total_nonelectrostatic_energy": 13.89, 
			 "SMD_solvation_energy": 6.03 
		},
		"coords": [
			{
				"x": -2.4262841739,
				"y": 1.8998007555,
				"z": -1.6264808622,
				"element": "O" 
			},
			{
				"x": -2.0484200855,
				"y": 1.4885584256,
				"z": -0.3867931951,
				"element": "C" 
			},
			{
				"x": -2.3944335059,
				"y": 2.093734488,
				"z": 0.5967918018,
				"element": "O" 
			},
			{
				"x": -1.2043037344,
				"y": 0.248162077,
				"z": -0.3188168851,
				"element": "C" 
			},
			{
				"x": -1.2237999164,
				"y": -0.7086145972,
				"z": -1.2814614358,
				"element": "C" 
			},
			{
				"x": -0.5137629641,
				"y": -1.9590734418,
				"z": -1.3901540932,
				"element": "C" 
			},
			{
				"x": 0.2972210454,
				"y": -2.6590894181,
				"z": -0.5115714151,
				"element": "C" 
			},
			{
				"x": 0.8278494801,
				"y": -3.8492688648,
				"z": -1.0679661829,
				"element": "C" 
			},
			{
				"x": 0.4235812147,
				"y": -4.0657795751,
				"z": -2.3624958805,
				"element": "C" 
			},
			{
				"x": -0.6209359144,
				"y": -2.8171250418,
				"z": -2.9239787113,
				"element": "S" 
			},
			{
				"x": -0.5058076356,
				"y": 0.0992552464,
				"z": 0.9066992921,
				"element": "N" 
			},
			{
				"x": -0.8723693495,
				"y": -0.8642112847,
				"z": 1.8128898035,
				"element": "N" 
			},
			{
				"x": -0.2109178187,
				"y": -0.6180763324,
				"z": 2.8882031319,
				"element": "N" 
			},
			{
				"x": 0.573541968,
				"y": 0.4810430208,
				"z": 2.7536080638,
				"element": "N" 
			},
			{
				"x": 0.3786198693,
				"y": 0.934317513,
				"z": 1.5256033447,
				"element": "C" 
			},
			{
				"x": 1.0338482969,
				"y": 2.11275311,
				"z": 0.9497952503,
				"element": "C" 
			},
			{
				"x": 1.3614854539,
				"y": 2.1939971081,
				"z": -0.4127953268,
				"element": "C" 
			},
			{
				"x": 2.0034071314,
				"y": 3.3267797779,
				"z": -0.9113225468,
				"element": "C" 
			},
			{
				"x": 2.3268610451,
				"y": 4.382554352,
				"z": -0.0574802869,
				"element": "C" 
			},
			{
				"x": 2.014822527,
				"y": 4.2995052179,
				"z": 1.3020411826,
				"element": "C" 
			},
			{
				"x": 1.3745732032,
				"y": 3.1712975588,
				"z": 1.8070815223,
				"element": "C" 
			},
			{
				"x": -1.874996902,
				"y": 1.4833278744,
				"z": -2.3029911637,
				"element": "H" 
			},
			{
				"x": -1.8938344752,
				"y": -0.5044703099,
				"z": -2.1143694642,
				"element": "H" 
			},
			{
				"x": 0.4678656789,
				"y": -2.3491051962,
				"z": 0.5094415157,
				"element": "H" 
			},
			{
				"x": 1.4778899932,
				"y": -4.5265108941,
				"z": -0.5267125234,
				"element": "H" 
			},
			{
				"x": 0.6786263788,
				"y": -4.8916550497,
				"z": -3.0122487616,
				"element": "H" 
			},
			{
				"x": 1.1426847191,
				"y": 1.362679749,
				"z": -1.0751005557,
				"element": "H" 
			},
			{
				"x": 2.2595108263,
				"y": 3.3800332979,
				"z": -1.9652893106,
				"element": "H" 
			},
			{
				"x": 2.8249003896,
				"y": 5.264707811,
				"z": -0.4487482515,
				"element": "H" 
			},
			{
				"x": 2.2682831827,
				"y": 5.1171902261,
				"z": 1.969862701,
				"element": "H" 
			},
			{
				"x": 1.1266940719,
				"y": 3.0941823964,
				"z": 2.8598592423,
				"element": "H" 
			}
		],
		 "valence_orbital": [ 
			{
				"type": "occ",
				"energy": -0.28395,
				"method": "rhf"
			},
			{
				"type": "occ",
				"energy": -0.27968,
				"method": "rhf"
			},
			{
				"type": "occ",
				"energy": -0.26807,
				"method": "rhf"
			},
			{
				"type": "occ",
				"energy": -0.25495,
				"method": "rhf"
			},
			{
				"type": "occ",
				"energy": -0.24538,
				"method": "rhf"
			},
			{
				"type": "unocc",
				"energy": -0.09631,
				"method": "rhf"
			},
			{
				"type": "unocc",
				"energy": -0.05108,
				"method": "rhf"
			},
			{
				"type": "unocc",
				"energy": -0.02042,
				"method": "rhf"
			},
			{
				"type": "unocc",
				"energy": -0.0132,
				"method": "rhf"
			},
			{
				"type": "unocc",
				"energy": -0.00841,
				"method": "rhf"
			}
		],
		"cosmo_sigma_profile": { 
			"-0.025": 0.0,
			"-0.024": 0.0,
			"-0.023": 0.0,
			"-0.022": 0.0,
			"-0.021": 0.0,
			"-0.02": 0.643191845906,
			"-0.019": 0.726204013564,
			"-0.018": 1.15134568555,
			"-0.017": 1.12864901264,
			"-0.016": 0.785977848986,
			"-0.015": 0.594707957282,
			"-0.014": 1.14325615179,
			"-0.013": 1.83785965563,
			"-0.012": 1.37685420121,
			"-0.011": 1.71158479995,
			"-0.01": 2.47442197892,
			"-0.009": 5.08748348359,
			"-0.008": 5.06209161843,
			"-0.007": 11.8190737525,
			"-0.006": 20.2690197738,
			"-0.005": 22.65585759,
			"-0.004": 17.4716376233,
			"-0.003": 14.6847106511,
			"-0.002": 16.2966189381,
			"-0.001": 14.7088468151,
			"0.0": 17.4380831793,
			"0.001": 25.0734730371,
			"0.002": 27.9785204032,
			"0.003": 27.4534552429,
			"0.004": 14.8192282406,
			"0.005": 5.83360106373,
			"0.006": 5.74419815024,
			"0.007": 7.53082948665,
			"0.008": 7.10572444088,
			"0.009": 8.32940614997,
			"0.01": 9.70497530451,
			"0.011": 7.81705831832,
			"0.012": 4.34599598941,
			"0.013": 2.39513798613,
			"0.014": 0.624690741469,
			"0.015": 0.173718180128,
			"0.016": 0.0,
			"0.017": 0.0,
			"0.018": 0.0,
			"0.019": 0.0,
			"0.02": 0.0,
			"0.021": 0.0,
			"0.022": 0.0,
			"0.023": 0.0,
			"0.024": 0.0,
			"0.025": 0.0
		}
	}
}
