{
	 "smiles": "FC1=CC=C(NC(=O)NC2CCNCC2)C=C1", 
	 "Tm": 457.15, 
	 "num_atms": 33, 
	 "gaussian": { 
		 "optdone": 1, 
		 "sigma_profile": "yes", 
		 "theory": "DFT", 
		 "functional": "B3LYP", 
		 "basiset": "6-31G**", 
		 "properties": { 
			 "R2extent": 5274.3001, 
			 "electric_dipole_moment_norm": 2.48035994364, 
			 "electric_quadrupole_moment_norm": 18.2246740171, 
			 "total_energy": -806.258231029, 
			 "HOMO_LUMO_gap": 0.19481, 
			 "cosmo_polarized_energy": -15.28, 
			 "cosmo_cavitation_energy": 35.44, 
			 "cosmo_dispersion_energy": -25.03, 
			 "cosmo_repulsion_energy": 1.93, 
			 "cosmo_total_nonelectrostatic_energy": 12.34, 
			 "SMD_solvation_energy": 4.27 
		},
		"coords": [
			{
				"x": 0.1595663284,
				"y": 0.3859243757,
				"z": 5.1076156577,
				"element": "F" 
			},
			{
				"x": -0.3515185146,
				"y": 0.5560656726,
				"z": 3.8697245718,
				"element": "C" 
			},
			{
				"x": -1.0815911163,
				"y": 1.7057525368,
				"z": 3.5888108766,
				"element": "C" 
			},
			{
				"x": -1.5914361036,
				"y": 1.884430176,
				"z": 2.3053297748,
				"element": "C" 
			},
			{
				"x": -1.396987143,
				"y": 0.9125351572,
				"z": 1.3093523527,
				"element": "C" 
			},
			{
				"x": -1.973766016,
				"y": 1.1099033686,
				"z": 0.0386535931,
				"element": "N" 
			},
			{
				"x": -1.4685369604,
				"y": 0.8730643097,
				"z": -1.2429223699,
				"element": "C" 
			},
			{
				"x": -2.1638333706,
				"y": 1.1126424655,
				"z": -2.2250767653,
				"element": "O" 
			},
			{
				"x": -0.1945199614,
				"y": 0.3701064632,
				"z": -1.3226695907,
				"element": "N" 
			},
			{
				"x": 0.464385651,
				"y": 0.2661941957,
				"z": -2.6348258228,
				"element": "C" 
			},
			{
				"x": -0.0186210177,
				"y": -0.9789694519,
				"z": -3.4054290815,
				"element": "C" 
			},
			{
				"x": 0.5119721171,
				"y": -2.2724170986,
				"z": -2.7828518497,
				"element": "C" 
			},
			{
				"x": 1.9759847433,
				"y": -2.2224050934,
				"z": -2.7170290852,
				"element": "N" 
			},
			{
				"x": 2.4491736775,
				"y": -1.1366379442,
				"z": -1.8612731921,
				"element": "C" 
			},
			{
				"x": 1.989023493,
				"y": 0.2072487882,
				"z": -2.4426124356,
				"element": "C" 
			},
			{
				"x": -0.6802718737,
				"y": -0.2526593451,
				"z": 1.6319210077,
				"element": "C" 
			},
			{
				"x": -0.1418330618,
				"y": -0.4235193495,
				"z": 2.9074173081,
				"element": "C" 
			},
			{
				"x": -1.2305451808,
				"y": 2.4499601524,
				"z": 4.3636248634,
				"element": "H" 
			},
			{
				"x": -2.1437672037,
				"y": 2.7887369756,
				"z": 2.0660886614,
				"element": "H" 
			},
			{
				"x": -2.838270687,
				"y": 1.6304744494,
				"z": -0.0065874194,
				"element": "H" 
			},
			{
				"x": 0.3959862644,
				"y": 0.4591442251,
				"z": -0.5080693643,
				"element": "H" 
			},
			{
				"x": 0.1982762875,
				"y": 1.1572448921,
				"z": -3.2145303065,
				"element": "H" 
			},
			{
				"x": 0.3470774276,
				"y": -0.905927945,
				"z": -4.4365711359,
				"element": "H" 
			},
			{
				"x": -1.1112810587,
				"y": -0.9771344361,
				"z": -3.4371424623,
				"element": "H" 
			},
			{
				"x": 0.0471714014,
				"y": -2.4114608646,
				"z": -1.7876442036,
				"element": "H" 
			},
			{
				"x": 0.2200176728,
				"y": -3.1303913949,
				"z": -3.3980211847,
				"element": "H" 
			},
			{
				"x": 2.3399683376,
				"y": -3.1099421906,
				"z": -2.3823776078,
				"element": "H" 
			},
			{
				"x": 2.0932587965,
				"y": -1.2295022973,
				"z": -0.8143307664,
				"element": "H" 
			},
			{
				"x": 3.5438527623,
				"y": -1.166351117,
				"z": -1.8241542183,
				"element": "H" 
			},
			{
				"x": 2.3270382319,
				"y": 1.0359099814,
				"z": -1.8072283491,
				"element": "H" 
			},
			{
				"x": 2.4580807952,
				"y": 0.3361128063,
				"z": -3.4236532074,
				"element": "H" 
			},
			{
				"x": -0.5663496898,
				"y": -1.0359380737,
				"z": 0.8909831832,
				"element": "H" 
			},
			{
				"x": 0.4143949716,
				"y": -1.3180943896,
				"z": 3.1660785681,
				"element": "H" 
			}
		],
		 "valence_orbital": [ 
			{
				"type": "occ",
				"energy": -0.27185,
				"method": "rhf"
			},
			{
				"type": "occ",
				"energy": -0.25816,
				"method": "rhf"
			},
			{
				"type": "occ",
				"energy": -0.25098,
				"method": "rhf"
			},
			{
				"type": "occ",
				"energy": -0.22305,
				"method": "rhf"
			},
			{
				"type": "occ",
				"energy": -0.21891,
				"method": "rhf"
			},
			{
				"type": "unocc",
				"energy": -0.0241,
				"method": "rhf"
			},
			{
				"type": "unocc",
				"energy": -0.00937,
				"method": "rhf"
			},
			{
				"type": "unocc",
				"energy": 0.06337,
				"method": "rhf"
			},
			{
				"type": "unocc",
				"energy": 0.06656,
				"method": "rhf"
			},
			{
				"type": "unocc",
				"energy": 0.08171,
				"method": "rhf"
			}
		],
		"cosmo_sigma_profile": { 
			"-0.025": 0.0,
			"-0.024": 0.0,
			"-0.023": 0.0,
			"-0.022": 0.0,
			"-0.021": 0.0,
			"-0.02": 0.0,
			"-0.019": 0.0,
			"-0.018": 0.0,
			"-0.017": 0.0,
			"-0.016": 0.0,
			"-0.015": 0.00781683766797,
			"-0.014": 0.560404165175,
			"-0.013": 1.16744219037,
			"-0.012": 1.17082153119,
			"-0.011": 0.535901234826,
			"-0.01": 3.35229370307,
			"-0.009": 3.17839184552,
			"-0.008": 5.20660238718,
			"-0.007": 8.87828521568,
			"-0.006": 9.16213940932,
			"-0.005": 11.49789567,
			"-0.004": 14.870548365,
			"-0.003": 23.5369184722,
			"-0.002": 25.95570539,
			"-0.001": 31.6280933273,
			"0.0": 27.4560890056,
			"0.001": 21.8113775061,
			"0.002": 17.1879260861,
			"0.003": 18.032611431,
			"0.004": 17.6342489707,
			"0.005": 7.95455240572,
			"0.006": 2.42315530518,
			"0.007": 2.41588139513,
			"0.008": 2.58560739173,
			"0.009": 1.82251379852,
			"0.01": 2.02700295467,
			"0.011": 2.05375596073,
			"0.012": 2.21882421873,
			"0.013": 2.52576027186,
			"0.014": 5.18918525704,
			"0.015": 2.57457137463,
			"0.016": 1.08616551145,
			"0.017": 0.373339618683,
			"0.018": 0.315580884921,
			"0.019": 0.0470925829334,
			"0.02": 0.0,
			"0.021": 0.0,
			"0.022": 0.0,
			"0.023": 0.0,
			"0.024": 0.0,
			"0.025": 0.0
		}
	}
}
