{
	 "smiles": "CCCCCCCCCCCCC(C)C", 
	 "Tm": 265.15, 
	 "num_atms": 47, 
	 "gaussian": { 
		 "optdone": 1, 
		 "sigma_profile": "yes", 
		 "theory": "DFT", 
		 "functional": "B3LYP", 
		 "basiset": "6-31G**", 
		 "properties": { 
			 "R2extent": 9591.5188, 
			 "electric_dipole_moment_norm": 0.047433427032, 
			 "electric_quadrupole_moment_norm": 1.55553548979, 
			 "total_energy": -590.93246544, 
			 "HOMO_LUMO_gap": 0.37849, 
			 "cosmo_polarized_energy": -1.03, 
			 "cosmo_cavitation_energy": 45.27, 
			 "cosmo_dispersion_energy": -31.21, 
			 "cosmo_repulsion_energy": 2.55, 
			 "cosmo_total_nonelectrostatic_energy": 16.61, 
			 "SMD_solvation_energy": 6.29 
		},
		"coords": [
			{
				"x": 0.6738083823,
				"y": -3.1524484305,
				"z": -6.7957985478,
				"element": "C" 
			},
			{
				"x": 1.2059072999,
				"y": -2.9278341431,
				"z": -5.3764127863,
				"element": "C" 
			},
			{
				"x": 0.1743445181,
				"y": -2.2690069179,
				"z": -4.4492818613,
				"element": "C" 
			},
			{
				"x": 0.6356849636,
				"y": -2.0782591286,
				"z": -2.9935144244,
				"element": "C" 
			},
			{
				"x": 1.7533388106,
				"y": -1.04022704,
				"z": -2.8148576497,
				"element": "C" 
			},
			{
				"x": 2.2924475196,
				"y": -0.8709054974,
				"z": -1.3821794939,
				"element": "C" 
			},
			{
				"x": 1.2860983129,
				"y": -0.3478083068,
				"z": -0.3315499556,
				"element": "C" 
			},
			{
				"x": 0.5524024204,
				"y": -1.4390422584,
				"z": 0.4666150158,
				"element": "C" 
			},
			{
				"x": -0.3780703289,
				"y": -0.9031269978,
				"z": 1.5679699619,
				"element": "C" 
			},
			{
				"x": -1.6098311191,
				"y": -0.1451974179,
				"z": 1.0480797132,
				"element": "C" 
			},
			{
				"x": -2.6163182864,
				"y": 0.2587623094,
				"z": 2.1392846736,
				"element": "C" 
			},
			{
				"x": -2.0842046216,
				"y": 1.2979342569,
				"z": 3.1379622257,
				"element": "C" 
			},
			{
				"x": -3.1327318985,
				"y": 1.851061401,
				"z": 4.1241659609,
				"element": "C" 
			},
			{
				"x": -2.5443531071,
				"y": 3.010713069,
				"z": 4.9418216848,
				"element": "C" 
			},
			{
				"x": -3.6936089006,
				"y": 0.7661234038,
				"z": 5.0565503064,
				"element": "C" 
			},
			{
				"x": -0.2131953413,
				"y": -3.7964785644,
				"z": -6.7894315216,
				"element": "H" 
			},
			{
				"x": 0.3879944771,
				"y": -2.204495714,
				"z": -7.2661723291,
				"element": "H" 
			},
			{
				"x": 1.4247776835,
				"y": -3.6272010991,
				"z": -7.4359397788,
				"element": "H" 
			},
			{
				"x": 2.1134795463,
				"y": -2.3134767987,
				"z": -5.4262299331,
				"element": "H" 
			},
			{
				"x": 1.5135325555,
				"y": -3.8901029454,
				"z": -4.9439624601,
				"element": "H" 
			},
			{
				"x": -0.7371033011,
				"y": -2.8825608071,
				"z": -4.452081359,
				"element": "H" 
			},
			{
				"x": -0.1182907807,
				"y": -1.2947906089,
				"z": -4.8675937512,
				"element": "H" 
			},
			{
				"x": -0.2326057005,
				"y": -1.7798317559,
				"z": -2.3938990781,
				"element": "H" 
			},
			{
				"x": 0.9671677773,
				"y": -3.0459697521,
				"z": -2.589397469,
				"element": "H" 
			},
			{
				"x": 2.5991866703,
				"y": -1.3036944336,
				"z": -3.4625083374,
				"element": "H" 
			},
			{
				"x": 1.391392747,
				"y": -0.0658895781,
				"z": -3.174912499,
				"element": "H" 
			},
			{
				"x": 3.1381225244,
				"y": -0.1737072222,
				"z": -1.4341074007,
				"element": "H" 
			},
			{
				"x": 2.7161464593,
				"y": -1.8248244976,
				"z": -1.0368396765,
				"element": "H" 
			},
			{
				"x": 1.8221665317,
				"y": 0.2852740165,
				"z": 0.3886306989,
				"element": "H" 
			},
			{
				"x": 0.5620884892,
				"y": 0.3136508943,
				"z": -0.8256890852,
				"element": "H" 
			},
			{
				"x": -0.0243320818,
				"y": -2.0828515732,
				"z": -0.2094171561,
				"element": "H" 
			},
			{
				"x": 1.3065310663,
				"y": -2.0897620503,
				"z": 0.9301287867,
				"element": "H" 
			},
			{
				"x": 0.2017481275,
				"y": -0.2576865671,
				"z": 2.2414383939,
				"element": "H" 
			},
			{
				"x": -0.7220240524,
				"y": -1.7486096124,
				"z": 2.1801528008,
				"element": "H" 
			},
			{
				"x": -2.1247577682,
				"y": -0.7789617813,
				"z": 0.3124754098,
				"element": "H" 
			},
			{
				"x": -1.2941758733,
				"y": 0.7553028645,
				"z": 0.504526019,
				"element": "H" 
			},
			{
				"x": -2.9416515104,
				"y": -0.6439040854,
				"z": 2.6731367497,
				"element": "H" 
			},
			{
				"x": -3.5147261783,
				"y": 0.6658921212,
				"z": 1.6546533695,
				"element": "H" 
			},
			{
				"x": -1.6616523262,
				"y": 2.1404033486,
				"z": 2.5714464366,
				"element": "H" 
			},
			{
				"x": -1.2507428989,
				"y": 0.8732664332,
				"z": 3.7149268503,
				"element": "H" 
			},
			{
				"x": -3.9692119248,
				"y": 2.2498593118,
				"z": 3.529775956,
				"element": "H" 
			},
			{
				"x": -1.700951273,
				"y": 2.6689680939,
				"z": 5.5546436067,
				"element": "H" 
			},
			{
				"x": -3.2911562833,
				"y": 3.4407188674,
				"z": 5.6183066907,
				"element": "H" 
			},
			{
				"x": -2.1782765005,
				"y": 3.8134608022,
				"z": 4.2922140499,
				"element": "H" 
			},
			{
				"x": -2.891897066,
				"y": 0.3146348023,
				"z": 5.6545789063,
				"element": "H" 
			},
			{
				"x": -4.426958848,
				"y": 1.1883059247,
				"z": 5.7524189004,
				"element": "H" 
			},
			{
				"x": -4.1893389119,
				"y": -0.0373763355,
				"z": 4.5034733861,
				"element": "H" 
			}
		],
		 "valence_orbital": [ 
			{
				"type": "occ",
				"energy": -0.30616,
				"method": "rhf"
			},
			{
				"type": "occ",
				"energy": -0.30422,
				"method": "rhf"
			},
			{
				"type": "occ",
				"energy": -0.30048,
				"method": "rhf"
			},
			{
				"type": "occ",
				"energy": -0.29619,
				"method": "rhf"
			},
			{
				"type": "occ",
				"energy": -0.29187,
				"method": "rhf"
			},
			{
				"type": "unocc",
				"energy": 0.08662,
				"method": "rhf"
			},
			{
				"type": "unocc",
				"energy": 0.08935,
				"method": "rhf"
			},
			{
				"type": "unocc",
				"energy": 0.10015,
				"method": "rhf"
			},
			{
				"type": "unocc",
				"energy": 0.10267,
				"method": "rhf"
			},
			{
				"type": "unocc",
				"energy": 0.11099,
				"method": "rhf"
			}
		],
		"cosmo_sigma_profile": { 
			"-0.025": 0.0,
			"-0.024": 0.0,
			"-0.023": 0.0,
			"-0.022": 0.0,
			"-0.021": 0.0,
			"-0.02": 0.0,
			"-0.019": 0.0,
			"-0.018": 0.0,
			"-0.017": 0.0,
			"-0.016": 0.0,
			"-0.015": 0.0,
			"-0.014": 0.0,
			"-0.013": 0.0,
			"-0.012": 0.0,
			"-0.011": 0.0,
			"-0.01": 0.0,
			"-0.009": 0.0,
			"-0.008": 0.0,
			"-0.007": 0.0,
			"-0.006": 0.0,
			"-0.005": 0.0,
			"-0.004": 0.0,
			"-0.003": 3.03827507356,
			"-0.002": 38.6763464893,
			"-0.001": 84.5921515938,
			"0.0": 92.7617698141,
			"0.001": 82.6145901035,
			"0.002": 41.4804689605,
			"0.003": 1.8669480892,
			"0.004": 0.0,
			"0.005": 0.0,
			"0.006": 0.0,
			"0.007": 0.0,
			"0.008": 0.0,
			"0.009": 0.0,
			"0.01": 0.0,
			"0.011": 0.0,
			"0.012": 0.0,
			"0.013": 0.0,
			"0.014": 0.0,
			"0.015": 0.0,
			"0.016": 0.0,
			"0.017": 0.0,
			"0.018": 0.0,
			"0.019": 0.0,
			"0.02": 0.0,
			"0.021": 0.0,
			"0.022": 0.0,
			"0.023": 0.0,
			"0.024": 0.0,
			"0.025": 0.0
		}
	}
}
