{
	 "smiles": "O=C1NC2=CC=CC=C2C1=C(C#N)C#N", 
	 "Tm": 484.15, 
	 "num_atms": 20, 
	 "gaussian": { 
		 "optdone": 1, 
		 "sigma_profile": "yes", 
		 "theory": "DFT", 
		 "functional": "B3LYP", 
		 "basiset": "6-31G**", 
		 "properties": { 
			 "R2extent": 3861.5863, 
			 "electric_dipole_moment_norm": 8.13615291277, 
			 "electric_quadrupole_moment_norm": 19.4378332586, 
			 "total_energy": -661.618601566, 
			 "HOMO_LUMO_gap": 0.11601, 
			 "cosmo_polarized_energy": -18.94, 
			 "cosmo_cavitation_energy": 27.39, 
			 "cosmo_dispersion_energy": -19.02, 
			 "cosmo_repulsion_energy": 1.46, 
			 "cosmo_total_nonelectrostatic_energy": 9.84, 
			 "SMD_solvation_energy": 7.56 
		},
		"coords": [
			{
				"x": -2.457142408,
				"y": 0.0083724622,
				"z": -2.4937451233,
				"element": "O" 
			},
			{
				"x": -1.8323396791,
				"y": 0.3456862834,
				"z": -1.5103060989,
				"element": "C" 
			},
			{
				"x": -2.1157429599,
				"y": 0.0129438658,
				"z": -0.195562995,
				"element": "N" 
			},
			{
				"x": -1.1927786677,
				"y": 0.5689862243,
				"z": 0.6903691401,
				"element": "C" 
			},
			{
				"x": -1.1449356637,
				"y": 0.4612873161,
				"z": 2.0726494464,
				"element": "C" 
			},
			{
				"x": -0.1052319969,
				"y": 1.1214071984,
				"z": 2.7389043385,
				"element": "C" 
			},
			{
				"x": 0.8551362197,
				"y": 1.8651386054,
				"z": 2.0429296849,
				"element": "C" 
			},
			{
				"x": 0.8011993063,
				"y": 1.9694420772,
				"z": 0.6527227224,
				"element": "C" 
			},
			{
				"x": -0.2301116237,
				"y": 1.3174920561,
				"z": -0.0359020232,
				"element": "C" 
			},
			{
				"x": -0.5832098006,
				"y": 1.2135309993,
				"z": -1.4386519478,
				"element": "C" 
			},
			{
				"x": 0.0001912264,
				"y": 1.7368137474,
				"z": -2.5581175646,
				"element": "C" 
			},
			{
				"x": 1.1748670181,
				"y": 2.5508206504,
				"z": -2.4698718374,
				"element": "C" 
			},
			{
				"x": 2.1295953247,
				"y": 3.2110851959,
				"z": -2.3852819194,
				"element": "N" 
			},
			{
				"x": -0.4915673351,
				"y": 1.5283888933,
				"z": -3.8879916977,
				"element": "C" 
			},
			{
				"x": -0.8011847509,
				"y": 1.4257703243,
				"z": -5.0045972551,
				"element": "N" 
			},
			{
				"x": -2.9042137333,
				"y": -0.5649476693,
				"z": 0.05351046,
				"element": "H" 
			},
			{
				"x": -1.8850988117,
				"y": -0.1130960914,
				"z": 2.6202018977,
				"element": "H" 
			},
			{
				"x": -0.0465103972,
				"y": 1.0519620693,
				"z": 3.8210167863,
				"element": "H" 
			},
			{
				"x": 1.6486099686,
				"y": 2.3651625833,
				"z": 2.5879524665,
				"element": "H" 
			},
			{
				"x": 1.5465687638,
				"y": 2.546153209,
				"z": 0.1179715197,
				"element": "H" 
			}
		],
		 "valence_orbital": [ 
			{
				"type": "occ",
				"energy": -0.34364,
				"method": "rhf"
			},
			{
				"type": "occ",
				"energy": -0.32757,
				"method": "rhf"
			},
			{
				"type": "occ",
				"energy": -0.29306,
				"method": "rhf"
			},
			{
				"type": "occ",
				"energy": -0.27429,
				"method": "rhf"
			},
			{
				"type": "occ",
				"energy": -0.24787,
				"method": "rhf"
			},
			{
				"type": "unocc",
				"energy": -0.13186,
				"method": "rhf"
			},
			{
				"type": "unocc",
				"energy": -0.03422,
				"method": "rhf"
			},
			{
				"type": "unocc",
				"energy": -0.01363,
				"method": "rhf"
			},
			{
				"type": "unocc",
				"energy": -0.01177,
				"method": "rhf"
			},
			{
				"type": "unocc",
				"energy": 0.03057,
				"method": "rhf"
			}
		],
		"cosmo_sigma_profile": { 
			"-0.025": 0.0,
			"-0.024": 0.0,
			"-0.023": 0.0,
			"-0.022": 0.0,
			"-0.021": 0.0,
			"-0.02": 0.0,
			"-0.019": 0.0,
			"-0.018": 0.00574864265884,
			"-0.017": 1.14586203482,
			"-0.016": 1.50156604669,
			"-0.015": 1.25948012391,
			"-0.014": 1.08741716502,
			"-0.013": 1.19958712991,
			"-0.012": 1.1197422455,
			"-0.011": 1.58320786004,
			"-0.01": 1.03450094706,
			"-0.009": 1.17832302377,
			"-0.008": 3.80177411114,
			"-0.007": 7.27014956454,
			"-0.006": 14.8213702685,
			"-0.005": 18.14045774,
			"-0.004": 17.1507074713,
			"-0.003": 15.1755847861,
			"-0.002": 13.5078320722,
			"-0.001": 12.3457188481,
			"0.0": 12.6320144366,
			"0.001": 13.500164498,
			"0.002": 14.1035124493,
			"0.003": 11.1597831457,
			"0.004": 4.5576828354,
			"0.005": 4.55657251882,
			"0.006": 6.72036773117,
			"0.007": 6.9909912374,
			"0.008": 8.58773183514,
			"0.009": 8.22136828261,
			"0.01": 9.67291132442,
			"0.011": 8.37515069031,
			"0.012": 1.61612352378,
			"0.013": 0.0,
			"0.014": 0.0,
			"0.015": 0.0,
			"0.016": 0.0,
			"0.017": 0.0,
			"0.018": 0.0,
			"0.019": 0.0,
			"0.02": 0.0,
			"0.021": 0.0,
			"0.022": 0.0,
			"0.023": 0.0,
			"0.024": 0.0,
			"0.025": 0.0
		}
	}
}
