{
	 "smiles": "COC1=NC(OC)=NC(C=C(O)C(F)(F)C(F)(F)F)=C1", 
	 "Tm": 332.15, 
	 "num_atms": 29, 
	 "gaussian": { 
		 "optdone": 1, 
		 "sigma_profile": "yes", 
		 "theory": "DFT", 
		 "functional": "B3LYP", 
		 "basiset": "6-31G**", 
		 "properties": { 
			 "R2extent": 7249.2842, 
			 "electric_dipole_moment_norm": 2.64418816464, 
			 "electric_quadrupole_moment_norm": 13.084212582, 
			 "total_energy": -1220.82829999, 
			 "HOMO_LUMO_gap": 0.17357, 
			 "cosmo_polarized_energy": -11.42, 
			 "cosmo_cavitation_energy": 36.22, 
			 "cosmo_dispersion_energy": -24.82, 
			 "cosmo_repulsion_energy": 1.83, 
			 "cosmo_total_nonelectrostatic_energy": 13.23, 
			 "SMD_solvation_energy": 9.43 
		},
		"coords": [
			{
				"x": -4.2341587034,
				"y": -0.3260837503,
				"z": 0.0264471442,
				"element": "C" 
			},
			{
				"x": -3.2482201372,
				"y": 0.5006354235,
				"z": -0.6028680209,
				"element": "O" 
			},
			{
				"x": -1.9591091624,
				"y": 0.150489094,
				"z": -0.4574366146,
				"element": "C" 
			},
			{
				"x": -1.6491972705,
				"y": -0.9327443233,
				"z": 0.2534294656,
				"element": "N" 
			},
			{
				"x": -0.3386881707,
				"y": -1.2059627238,
				"z": 0.3431872461,
				"element": "C" 
			},
			{
				"x": 0.0383944998,
				"y": -2.2889023005,
				"z": 1.0439902854,
				"element": "O" 
			},
			{
				"x": -0.9860208737,
				"y": -3.081504782,
				"z": 1.6465920802,
				"element": "C" 
			},
			{
				"x": 0.6705535269,
				"y": -0.5288684028,
				"z": -0.1914560085,
				"element": "N" 
			},
			{
				"x": 0.3391207134,
				"y": 0.569221345,
				"z": -0.8991441436,
				"element": "C" 
			},
			{
				"x": 1.3790108057,
				"y": 1.3749612391,
				"z": -1.5396200067,
				"element": "C" 
			},
			{
				"x": 2.7176852889,
				"y": 1.4042484474,
				"z": -1.3852773767,
				"element": "C" 
			},
			{
				"x": 3.4385710887,
				"y": 2.2017816145,
				"z": -2.2186677304,
				"element": "O" 
			},
			{
				"x": 3.5819990611,
				"y": 0.6530417934,
				"z": -0.3790278092,
				"element": "C" 
			},
			{
				"x": 4.7124358592,
				"y": 1.4310971611,
				"z": -0.1597268965,
				"element": "F" 
			},
			{
				"x": 2.9906746305,
				"y": 0.4852857449,
				"z": 0.8122206228,
				"element": "F" 
			},
			{
				"x": 4.1402239048,
				"y": -0.7019623481,
				"z": -0.8864319144,
				"element": "C" 
			},
			{
				"x": 4.9510169992,
				"y": -0.4579299031,
				"z": -1.9373737535,
				"element": "F" 
			},
			{
				"x": 3.178074244,
				"y": -1.5314623755,
				"z": -1.28181114,
				"element": "F" 
			},
			{
				"x": 4.8588975419,
				"y": -1.290287707,
				"z": 0.0783045263,
				"element": "F" 
			},
			{
				"x": -0.9943186473,
				"y": 0.9565099383,
				"z": -1.0715183107,
				"element": "C" 
			},
			{
				"x": -4.0888920198,
				"y": -0.355557864,
				"z": 1.1097504422,
				"element": "H" 
			},
			{
				"x": -5.1921097488,
				"y": 0.1355048747,
				"z": -0.2150785257,
				"element": "H" 
			},
			{
				"x": -4.1961333261,
				"y": -1.3476695709,
				"z": -0.3614032762,
				"element": "H" 
			},
			{
				"x": -0.4608134429,
				"y": -3.8920799881,
				"z": 2.1534089032,
				"element": "H" 
			},
			{
				"x": -1.668713124,
				"y": -3.4867773879,
				"z": 0.8940127735,
				"element": "H" 
			},
			{
				"x": -1.5662243071,
				"y": -2.4987685813,
				"z": 2.3680046955,
				"element": "H" 
			},
			{
				"x": 1.018228403,
				"y": 2.0774009152,
				"z": -2.2866642579,
				"element": "H" 
			},
			{
				"x": 4.3310666027,
				"y": 2.3058008819,
				"z": -1.8577980992,
				"element": "H" 
			},
			{
				"x": -1.282954236,
				"y": 1.8297835357,
				"z": -1.6418443004,
				"element": "H" 
			}
		],
		 "valence_orbital": [ 
			{
				"type": "occ",
				"energy": -0.31526,
				"method": "rhf"
			},
			{
				"type": "occ",
				"energy": -0.28915,
				"method": "rhf"
			},
			{
				"type": "occ",
				"energy": -0.25572,
				"method": "rhf"
			},
			{
				"type": "occ",
				"energy": -0.24803,
				"method": "rhf"
			},
			{
				"type": "occ",
				"energy": -0.22936,
				"method": "rhf"
			},
			{
				"type": "unocc",
				"energy": -0.05579,
				"method": "rhf"
			},
			{
				"type": "unocc",
				"energy": 0.00033,
				"method": "rhf"
			},
			{
				"type": "unocc",
				"energy": 0.03722,
				"method": "rhf"
			},
			{
				"type": "unocc",
				"energy": 0.05631,
				"method": "rhf"
			},
			{
				"type": "unocc",
				"energy": 0.09976,
				"method": "rhf"
			}
		],
		"cosmo_sigma_profile": { 
			"-0.025": 0.0,
			"-0.024": 0.0,
			"-0.023": 0.0,
			"-0.022": 0.0,
			"-0.021": 0.0,
			"-0.02": 0.0,
			"-0.019": 0.0,
			"-0.018": 0.0,
			"-0.017": 0.268435402073,
			"-0.016": 0.571257339578,
			"-0.015": 0.772081245131,
			"-0.014": 0.548249991979,
			"-0.013": 0.517520536485,
			"-0.012": 0.569502839698,
			"-0.011": 0.9709342992,
			"-0.01": 0.867008327401,
			"-0.009": 1.06481460886,
			"-0.008": 3.59430678209,
			"-0.007": 4.9858031472,
			"-0.006": 9.45893275049,
			"-0.005": 15.9034513569,
			"-0.004": 18.6592940511,
			"-0.003": 21.832021552,
			"-0.002": 19.0384234119,
			"-0.001": 19.9808192829,
			"0.0": 26.4041275287,
			"0.001": 43.5315877326,
			"0.002": 40.4507148404,
			"0.003": 13.2507970656,
			"0.004": 9.17753264937,
			"0.005": 8.06359962525,
			"0.006": 6.31501936693,
			"0.007": 5.76851748093,
			"0.008": 5.40490459574,
			"0.009": 4.79308975491,
			"0.01": 3.45512778911,
			"0.011": 2.16423486442,
			"0.012": 0.953497502135,
			"0.013": 0.0,
			"0.014": 0.0,
			"0.015": 0.0,
			"0.016": 0.0,
			"0.017": 0.0,
			"0.018": 0.0,
			"0.019": 0.0,
			"0.02": 0.0,
			"0.021": 0.0,
			"0.022": 0.0,
			"0.023": 0.0,
			"0.024": 0.0,
			"0.025": 0.0
		}
	}
}
