{
	 "smiles": "CC1NC(=O)NC1=O", 
	 "Tm": 424.15, 
	 "num_atms": 14, 
	 "gaussian": { 
		 "optdone": 1, 
		 "sigma_profile": "yes", 
		 "theory": "DFT", 
		 "functional": "B3LYP", 
		 "basiset": "6-31G**", 
		 "properties": { 
			 "R2extent": 1426.6822, 
			 "electric_dipole_moment_norm": 2.56859782956, 
			 "electric_quadrupole_moment_norm": 13.0403081946, 
			 "total_energy": -416.0341227, 
			 "HOMO_LUMO_gap": 0.25274, 
			 "cosmo_polarized_energy": -15.27, 
			 "cosmo_cavitation_energy": 18.18, 
			 "cosmo_dispersion_energy": -13.68, 
			 "cosmo_repulsion_energy": 1.17, 
			 "cosmo_total_nonelectrostatic_energy": 5.67, 
			 "SMD_solvation_energy": 4.34 
		},
		"coords": [
			{
				"x": -0.9030717753,
				"y": -0.4214244566,
				"z": 0.2428210134,
				"element": "C" 
			},
			{
				"x": -0.5863858517,
				"y": 1.0726660871,
				"z": 0.1647685951,
				"element": "C" 
			},
			{
				"x": -0.1529326646,
				"y": 1.670836787,
				"z": 1.4202743559,
				"element": "N" 
			},
			{
				"x": 1.0336262515,
				"y": 2.3551678296,
				"z": 1.3205970271,
				"element": "C" 
			},
			{
				"x": 1.6006118661,
				"y": 3.0173471289,
				"z": 2.1635328313,
				"element": "O" 
			},
			{
				"x": 1.4869760334,
				"y": 2.1227492679,
				"z": 0.0025640545,
				"element": "N" 
			},
			{
				"x": 0.6197175768,
				"y": 1.3599752915,
				"z": -0.7502223886,
				"element": "C" 
			},
			{
				"x": 0.7679606462,
				"y": 0.9834815978,
				"z": -1.8931706623,
				"element": "O" 
			},
			{
				"x": -0.0625346446,
				"y": -0.9708446906,
				"z": 0.6757338483,
				"element": "H" 
			},
			{
				"x": -1.7897376541,
				"y": -0.6003320621,
				"z": 0.8581748289,
				"element": "H" 
			},
			{
				"x": -1.0924052638,
				"y": -0.8032774048,
				"z": -0.7636914445,
				"element": "H" 
			},
			{
				"x": -1.4493432444,
				"y": 1.6103809486,
				"z": -0.255014888,
				"element": "H" 
			},
			{
				"x": -0.7512201112,
				"y": 1.8252749175,
				"z": 2.2165805855,
				"element": "H" 
			},
			{
				"x": 2.3792388357,
				"y": 2.4628987582,
				"z": -0.3258477567,
				"element": "H" 
			}
		],
		 "valence_orbital": [ 
			{
				"type": "occ",
				"energy": -0.38731,
				"method": "rhf"
			},
			{
				"type": "occ",
				"energy": -0.29246,
				"method": "rhf"
			},
			{
				"type": "occ",
				"energy": -0.29086,
				"method": "rhf"
			},
			{
				"type": "occ",
				"energy": -0.27119,
				"method": "rhf"
			},
			{
				"type": "occ",
				"energy": -0.26456,
				"method": "rhf"
			},
			{
				"type": "unocc",
				"energy": -0.01182,
				"method": "rhf"
			},
			{
				"type": "unocc",
				"energy": 0.05682,
				"method": "rhf"
			},
			{
				"type": "unocc",
				"energy": 0.07272,
				"method": "rhf"
			},
			{
				"type": "unocc",
				"energy": 0.09957,
				"method": "rhf"
			},
			{
				"type": "unocc",
				"energy": 0.11192,
				"method": "rhf"
			}
		],
		"cosmo_sigma_profile": { 
			"-0.025": 0.0,
			"-0.024": 0.0,
			"-0.023": 0.0,
			"-0.022": 0.0,
			"-0.021": 0.0,
			"-0.02": 0.0,
			"-0.019": 0.0,
			"-0.018": 0.0,
			"-0.017": 0.188039321063,
			"-0.016": 1.64255003464,
			"-0.015": 1.7513081458,
			"-0.014": 2.52198201865,
			"-0.013": 2.35809548072,
			"-0.012": 1.37669456595,
			"-0.011": 1.85044854594,
			"-0.01": 1.37204033198,
			"-0.009": 2.05428616566,
			"-0.008": 3.27747858567,
			"-0.007": 6.3159613286,
			"-0.006": 6.51151969459,
			"-0.005": 8.64358946743,
			"-0.004": 9.51833602627,
			"-0.003": 9.33397929451,
			"-0.002": 11.3295233996,
			"-0.001": 12.39652206,
			"0.0": 7.18932700214,
			"0.001": 4.0697083967,
			"0.002": 4.10348388192,
			"0.003": 3.59161377436,
			"0.004": 2.56978351776,
			"0.005": 2.50671687764,
			"0.006": 2.75441177133,
			"0.007": 2.23622161886,
			"0.008": 2.15034383096,
			"0.009": 2.88116981269,
			"0.01": 3.56083425438,
			"0.011": 4.50710534075,
			"0.012": 9.95569214161,
			"0.013": 7.90338812586,
			"0.014": 1.05128781196,
			"0.015": 0.0,
			"0.016": 0.0,
			"0.017": 0.0,
			"0.018": 0.0,
			"0.019": 0.0,
			"0.02": 0.0,
			"0.021": 0.0,
			"0.022": 0.0,
			"0.023": 0.0,
			"0.024": 0.0,
			"0.025": 0.0
		}
	}
}
