{
	 "smiles": "CC1=NC2=C(NC(=O)C1=NNC1=CC(=NN1)C1=CC=CC=C1)C=CC=C2", 
	 "Tm": 433.15, 
	 "num_atms": 42, 
	 "gaussian": { 
		 "optdone": 1, 
		 "sigma_profile": "yes", 
		 "theory": "DFT", 
		 "functional": "B3LYP", 
		 "basiset": "6-31G**", 
		 "properties": { 
			 "R2extent": 10698.7808, 
			 "electric_dipole_moment_norm": 1.67133370097, 
			 "electric_quadrupole_moment_norm": 24.0150124859, 
			 "total_energy": -1137.33328976, 
			 "HOMO_LUMO_gap": 0.15834, 
			 "cosmo_polarized_energy": -23.89, 
			 "cosmo_cavitation_energy": 46.57, 
			 "cosmo_dispersion_energy": -31.77, 
			 "cosmo_repulsion_energy": 2.39, 
			 "cosmo_total_nonelectrostatic_energy": 17.19, 
			 "SMD_solvation_energy": 5.25 
		},
		"coords": [
			{
				"x": 0.3752246726,
				"y": -1.8911045881,
				"z": 2.1900077285,
				"element": "C" 
			},
			{
				"x": 1.0327093635,
				"y": -0.5343917267,
				"z": 2.163612185,
				"element": "C" 
			},
			{
				"x": 0.3276516324,
				"y": 0.5106096421,
				"z": 2.4010190603,
				"element": "N" 
			},
			{
				"x": 0.8877445686,
				"y": 1.7886894796,
				"z": 2.5106032061,
				"element": "C" 
			},
			{
				"x": 2.0984381895,
				"y": 2.0797512245,
				"z": 3.1887254616,
				"element": "C" 
			},
			{
				"x": 2.9001464097,
				"y": 1.0716507677,
				"z": 3.7646619686,
				"element": "N" 
			},
			{
				"x": 3.3279894954,
				"y": -0.1120355591,
				"z": 3.1800371639,
				"element": "C" 
			},
			{
				"x": 4.2518745555,
				"y": -0.7564980697,
				"z": 3.6402997281,
				"element": "O" 
			},
			{
				"x": 2.5215142375,
				"y": -0.5208482567,
				"z": 1.9707403108,
				"element": "C" 
			},
			{
				"x": 3.2238290769,
				"y": -0.9189850115,
				"z": 0.9673566789,
				"element": "N" 
			},
			{
				"x": 2.6500659605,
				"y": -1.3303438739,
				"z": -0.2017112803,
				"element": "N" 
			},
			{
				"x": 1.4778744799,
				"y": -0.7887261723,
				"z": -0.7730779648,
				"element": "C" 
			},
			{
				"x": 0.4800314638,
				"y": -1.4088888782,
				"z": -1.4969308464,
				"element": "C" 
			},
			{
				"x": -0.3857631591,
				"y": -0.358636857,
				"z": -1.9083562113,
				"element": "C" 
			},
			{
				"x": 0.050934964,
				"y": 0.8230533266,
				"z": -1.4525657516,
				"element": "N" 
			},
			{
				"x": 1.1957815008,
				"y": 0.5489882673,
				"z": -0.8007502929,
				"element": "N" 
			},
			{
				"x": -1.6192673487,
				"y": -0.4457982884,
				"z": -2.7088468058,
				"element": "C" 
			},
			{
				"x": -2.0780956923,
				"y": -1.6774097074,
				"z": -3.2007036779,
				"element": "C" 
			},
			{
				"x": -3.247072124,
				"y": -1.7515328178,
				"z": -3.9573201681,
				"element": "C" 
			},
			{
				"x": -3.9779873481,
				"y": -0.5958720971,
				"z": -4.2362796389,
				"element": "C" 
			},
			{
				"x": -3.5288759954,
				"y": 0.6356286401,
				"z": -3.7516123269,
				"element": "C" 
			},
			{
				"x": -2.3621340607,
				"y": 0.7120091594,
				"z": -2.9958265338,
				"element": "C" 
			},
			{
				"x": 2.4865796021,
				"y": 3.418353433,
				"z": 3.3591853593,
				"element": "C" 
			},
			{
				"x": 1.7218087524,
				"y": 4.4589697522,
				"z": 2.8457985894,
				"element": "C" 
			},
			{
				"x": 0.5417391654,
				"y": 4.1779781248,
				"z": 2.1479799731,
				"element": "C" 
			},
			{
				"x": 0.1278466465,
				"y": 2.8605647324,
				"z": 2.0032564997,
				"element": "C" 
			},
			{
				"x": 0.6805782968,
				"y": -2.4283400832,
				"z": 3.096827063,
				"element": "H" 
			},
			{
				"x": 0.6775715524,
				"y": -2.5026436187,
				"z": 1.3361709767,
				"element": "H" 
			},
			{
				"x": -0.7090703864,
				"y": -1.7692716746,
				"z": 2.1968968933,
				"element": "H" 
			},
			{
				"x": 3.5062132635,
				"y": 1.357865726,
				"z": 4.5249830049,
				"element": "H" 
			},
			{
				"x": 3.3797007757,
				"y": -1.5401509703,
				"z": -0.8711327157,
				"element": "H" 
			},
			{
				"x": 0.3993995342,
				"y": -2.4676221619,
				"z": -1.6880022778,
				"element": "H" 
			},
			{
				"x": 1.6627421901,
				"y": 1.2899396932,
				"z": -0.2986856536,
				"element": "H" 
			},
			{
				"x": -1.5204225893,
				"y": -2.5859535091,
				"z": -2.9938387838,
				"element": "H" 
			},
			{
				"x": -3.586035483,
				"y": -2.7143499766,
				"z": -4.3291689554,
				"element": "H" 
			},
			{
				"x": -4.888492477,
				"y": -0.6534584872,
				"z": -4.8257006315,
				"element": "H" 
			},
			{
				"x": -4.0909547635,
				"y": 1.5408528912,
				"z": -3.9638689108,
				"element": "H" 
			},
			{
				"x": -2.0101070487,
				"y": 1.665733036,
				"z": -2.6178138647,
				"element": "H" 
			},
			{
				"x": 3.41098043,
				"y": 3.6305316619,
				"z": 3.8904853559,
				"element": "H" 
			},
			{
				"x": 2.0475159196,
				"y": 5.4850705985,
				"z": 2.9859933957,
				"element": "H" 
			},
			{
				"x": -0.0592388043,
				"y": 4.9835820107,
				"z": 1.7381142684,
				"element": "H" 
			},
			{
				"x": -0.7998694191,
				"y": 2.6134402181,
				"z": 1.4977384207,
				"element": "H" 
			}
		],
		 "valence_orbital": [ 
			{
				"type": "occ",
				"energy": -0.24863,
				"method": "rhf"
			},
			{
				"type": "occ",
				"energy": -0.24354,
				"method": "rhf"
			},
			{
				"type": "occ",
				"energy": -0.23589,
				"method": "rhf"
			},
			{
				"type": "occ",
				"energy": -0.22526,
				"method": "rhf"
			},
			{
				"type": "occ",
				"energy": -0.21931,
				"method": "rhf"
			},
			{
				"type": "unocc",
				"energy": -0.06097,
				"method": "rhf"
			},
			{
				"type": "unocc",
				"energy": -0.03329,
				"method": "rhf"
			},
			{
				"type": "unocc",
				"energy": -0.02345,
				"method": "rhf"
			},
			{
				"type": "unocc",
				"energy": -0.01619,
				"method": "rhf"
			},
			{
				"type": "unocc",
				"energy": -0.00025,
				"method": "rhf"
			}
		],
		"cosmo_sigma_profile": { 
			"-0.025": 0.0,
			"-0.024": 0.0,
			"-0.023": 0.0,
			"-0.022": 0.0,
			"-0.021": 0.0,
			"-0.02": 0.0,
			"-0.019": 0.0,
			"-0.018": 0.0,
			"-0.017": 0.0,
			"-0.016": 0.34174536877,
			"-0.015": 3.00813818443,
			"-0.014": 3.15658657115,
			"-0.013": 2.17569608504,
			"-0.012": 3.45876206828,
			"-0.011": 4.05102547373,
			"-0.01": 3.50854490697,
			"-0.009": 3.28986899438,
			"-0.008": 5.06923131992,
			"-0.007": 7.94248301193,
			"-0.006": 17.6761879219,
			"-0.005": 23.6683609736,
			"-0.004": 26.1101575943,
			"-0.003": 26.5987698969,
			"-0.002": 24.9308731355,
			"-0.001": 23.1340030265,
			"0.0": 20.1186755018,
			"0.001": 20.1731549626,
			"0.002": 26.2790649183,
			"0.003": 28.2145307273,
			"0.004": 28.1233520989,
			"0.005": 21.9112103442,
			"0.006": 12.2746920369,
			"0.007": 4.7161078115,
			"0.008": 4.14718782159,
			"0.009": 4.82047553144,
			"0.01": 2.91150238015,
			"0.011": 5.07014210962,
			"0.012": 8.54056179503,
			"0.013": 6.19720427618,
			"0.014": 1.42664893314,
			"0.015": 0.0,
			"0.016": 0.0,
			"0.017": 0.0,
			"0.018": 0.0,
			"0.019": 0.0,
			"0.02": 0.0,
			"0.021": 0.0,
			"0.022": 0.0,
			"0.023": 0.0,
			"0.024": 0.0,
			"0.025": 0.0
		}
	}
}
