{
	 "smiles": "OC(=O)C1=CC(=CC=C1)C1=NOC=N1", 
	 "Tm": 449.15, 
	 "num_atms": 20, 
	 "gaussian": { 
		 "optdone": 1, 
		 "sigma_profile": "yes", 
		 "theory": "DFT", 
		 "functional": "B3LYP", 
		 "basiset": "6-31G**", 
		 "properties": { 
			 "R2extent": 3853.926, 
			 "electric_dipole_moment_norm": 4.10689374223, 
			 "electric_quadrupole_moment_norm": 26.3620453567, 
			 "total_energy": -681.711866598, 
			 "HOMO_LUMO_gap": 0.19369, 
			 "cosmo_polarized_energy": -16.49, 
			 "cosmo_cavitation_energy": 25.95, 
			 "cosmo_dispersion_energy": -19.25, 
			 "cosmo_repulsion_energy": 1.48, 
			 "cosmo_total_nonelectrostatic_energy": 8.18, 
			 "SMD_solvation_energy": 4.94 
		},
		"coords": [
			{
				"x": 1.5529281318,
				"y": -3.0973421751,
				"z": 1.1062210165,
				"element": "O" 
			},
			{
				"x": 0.3654202335,
				"y": -2.4655193518,
				"z": 1.293914603,
				"element": "C" 
			},
			{
				"x": -0.6089374757,
				"y": -3.0963240055,
				"z": 1.6301263591,
				"element": "O" 
			},
			{
				"x": 0.3395929791,
				"y": -0.9811495894,
				"z": 1.0666721249,
				"element": "C" 
			},
			{
				"x": 1.3144105757,
				"y": -0.3080859551,
				"z": 0.3227983133,
				"element": "C" 
			},
			{
				"x": 1.2300334663,
				"y": 1.0766888102,
				"z": 0.1336066284,
				"element": "C" 
			},
			{
				"x": 0.1603661748,
				"y": 1.7898640552,
				"z": 0.6950998796,
				"element": "C" 
			},
			{
				"x": -0.8174951294,
				"y": 1.1171585385,
				"z": 1.4253360925,
				"element": "C" 
			},
			{
				"x": -0.7364118552,
				"y": -0.2624106267,
				"z": 1.6052019663,
				"element": "C" 
			},
			{
				"x": 2.2633560272,
				"y": 1.7598129625,
				"z": -0.6557306763,
				"element": "C" 
			},
			{
				"x": 2.2441736547,
				"y": 3.0515649196,
				"z": -0.8997565388,
				"element": "N" 
			},
			{
				"x": 3.3991046737,
				"y": 3.256233918,
				"z": -1.6681098354,
				"element": "O" 
			},
			{
				"x": 3.9784905246,
				"y": 2.0574696767,
				"z": -1.7976436372,
				"element": "C" 
			},
			{
				"x": 3.3469475524,
				"y": 1.0941377724,
				"z": -1.2067292219,
				"element": "N" 
			},
			{
				"x": 2.2647632756,
				"y": -2.4539861026,
				"z": 0.9849302411,
				"element": "H" 
			},
			{
				"x": 2.1360421348,
				"y": -0.8330111846,
				"z": -0.1556765581,
				"element": "H" 
			},
			{
				"x": 0.1018661666,
				"y": 2.8633118896,
				"z": 0.5491766377,
				"element": "H" 
			},
			{
				"x": -1.6471958621,
				"y": 1.671396407,
				"z": 1.8527808461,
				"element": "H" 
			},
			{
				"x": -1.4934232953,
				"y": -0.8062134172,
				"z": 2.1596467094,
				"element": "H" 
			},
			{
				"x": 4.8962680468,
				"y": 2.0101034585,
				"z": -2.3676649501,
				"element": "H" 
			}
		],
		 "valence_orbital": [ 
			{
				"type": "occ",
				"energy": -0.31903,
				"method": "rhf"
			},
			{
				"type": "occ",
				"energy": -0.3176,
				"method": "rhf"
			},
			{
				"type": "occ",
				"energy": -0.28314,
				"method": "rhf"
			},
			{
				"type": "occ",
				"energy": -0.27687,
				"method": "rhf"
			},
			{
				"type": "occ",
				"energy": -0.26426,
				"method": "rhf"
			},
			{
				"type": "unocc",
				"energy": -0.07057,
				"method": "rhf"
			},
			{
				"type": "unocc",
				"energy": -0.0515,
				"method": "rhf"
			},
			{
				"type": "unocc",
				"energy": -0.02825,
				"method": "rhf"
			},
			{
				"type": "unocc",
				"energy": 0.02666,
				"method": "rhf"
			},
			{
				"type": "unocc",
				"energy": 0.05638,
				"method": "rhf"
			}
		],
		"cosmo_sigma_profile": { 
			"-0.025": 0.0,
			"-0.024": 0.0,
			"-0.023": 0.0,
			"-0.022": 0.0,
			"-0.021": 0.0,
			"-0.02": 0.00375287145171,
			"-0.019": 0.616940644437,
			"-0.018": 0.603466719896,
			"-0.017": 1.46575632367,
			"-0.016": 0.746579751599,
			"-0.015": 0.749342486064,
			"-0.014": 0.892604735903,
			"-0.013": 2.76477241052,
			"-0.012": 3.2771751831,
			"-0.011": 2.93090083621,
			"-0.01": 2.31805118752,
			"-0.009": 2.2367444008,
			"-0.008": 3.04265998633,
			"-0.007": 7.18892221669,
			"-0.006": 8.79944058489,
			"-0.005": 9.41992078932,
			"-0.004": 11.4509598438,
			"-0.003": 10.5379262264,
			"-0.002": 13.8054452374,
			"-0.001": 14.0977928962,
			"0.0": 15.9863247121,
			"0.001": 17.8314315645,
			"0.002": 15.3322416527,
			"0.003": 6.78034811047,
			"0.004": 6.56186382401,
			"0.005": 7.30621177578,
			"0.006": 7.56931033162,
			"0.007": 4.95455761461,
			"0.008": 4.74044156715,
			"0.009": 6.13094651287,
			"0.01": 7.02082597628,
			"0.011": 7.50561050014,
			"0.012": 4.31128929474,
			"0.013": 1.14444473681,
			"0.014": 0.0,
			"0.015": 0.0,
			"0.016": 0.0,
			"0.017": 0.0,
			"0.018": 0.0,
			"0.019": 0.0,
			"0.02": 0.0,
			"0.021": 0.0,
			"0.022": 0.0,
			"0.023": 0.0,
			"0.024": 0.0,
			"0.025": 0.0
		}
	}
}
