{
	 "smiles": "CCOC(=O)C1=CC(=CC(=C1)C(O)=O)[N+]([O-])=O", 
	 "Tm": 452.15, 
	 "num_atms": 26, 
	 "gaussian": { 
		 "optdone": 1, 
		 "sigma_profile": "yes", 
		 "theory": "DFT", 
		 "functional": "B3LYP", 
		 "basiset": "6-31G**", 
		 "properties": { 
			 "R2extent": 6233.9168, 
			 "electric_dipole_moment_norm": 2.80878925162, 
			 "electric_quadrupole_moment_norm": 22.2715633737, 
			 "total_energy": -892.505557631, 
			 "HOMO_LUMO_gap": 0.18093, 
			 "cosmo_polarized_energy": -19.53, 
			 "cosmo_cavitation_energy": 32.83, 
			 "cosmo_dispersion_energy": -23.35, 
			 "cosmo_repulsion_energy": 1.84, 
			 "cosmo_total_nonelectrostatic_energy": 11.31, 
			 "SMD_solvation_energy": 10.29 
		},
		"coords": [
			{
				"x": -2.093720719,
				"y": 2.6721374542,
				"z": 2.9575033073,
				"element": "C" 
			},
			{
				"x": -1.240451137,
				"y": 1.4395361679,
				"z": 3.1815695086,
				"element": "C" 
			},
			{
				"x": -0.4041077321,
				"y": 1.2696465981,
				"z": 2.0079329252,
				"element": "O" 
			},
			{
				"x": 0.4317039482,
				"y": 0.2186037489,
				"z": 2.0278018658,
				"element": "C" 
			},
			{
				"x": 0.5171583576,
				"y": -0.5730911628,
				"z": 2.9446434361,
				"element": "O" 
			},
			{
				"x": 1.2569374042,
				"y": 0.1287600463,
				"z": 0.7796148861,
				"element": "C" 
			},
			{
				"x": 2.1681827123,
				"y": -0.9292846196,
				"z": 0.6841779852,
				"element": "C" 
			},
			{
				"x": 2.9494864393,
				"y": -1.0306794645,
				"z": -0.4587794938,
				"element": "C" 
			},
			{
				"x": 2.8494728945,
				"y": -0.1242776676,
				"z": -1.5122636416,
				"element": "C" 
			},
			{
				"x": 1.9301085625,
				"y": 0.9235110678,
				"z": -1.4171191744,
				"element": "C" 
			},
			{
				"x": 1.1470856032,
				"y": 1.0539099799,
				"z": -0.2613270276,
				"element": "C" 
			},
			{
				"x": 1.7617535181,
				"y": 1.9680107941,
				"z": -2.4875060459,
				"element": "C" 
			},
			{
				"x": 2.221802696,
				"y": 1.6652677046,
				"z": -3.7256082096,
				"element": "O" 
			},
			{
				"x": 1.24396991,
				"y": 3.0373169408,
				"z": -2.2727860656,
				"element": "O" 
			},
			{
				"x": 3.9252393896,
				"y": -2.1324294369,
				"z": -0.567946112,
				"element": "N" 
			},
			{
				"x": 4.5963281671,
				"y": -2.1909656864,
				"z": -1.5978645354,
				"element": "O" 
			},
			{
				"x": 4.0011725918,
				"y": -2.9181166778,
				"z": 0.3717136529,
				"element": "O" 
			},
			{
				"x": -2.7276723051,
				"y": 2.5554917236,
				"z": 2.0740534997,
				"element": "H" 
			},
			{
				"x": -1.4712100408,
				"y": 3.5609606869,
				"z": 2.8220201846,
				"element": "H" 
			},
			{
				"x": -2.7401122295,
				"y": 2.8339335458,
				"z": 3.8254665801,
				"element": "H" 
			},
			{
				"x": -0.5922090999,
				"y": 1.5359236497,
				"z": 4.0576886869,
				"element": "H" 
			},
			{
				"x": -1.842024904,
				"y": 0.5349530879,
				"z": 3.3120848561,
				"element": "H" 
			},
			{
				"x": 2.2613425248,
				"y": -1.6470306586,
				"z": 1.4895597753,
				"element": "H" 
			},
			{
				"x": 3.5179108927,
				"y": -0.2529868581,
				"z": -2.3563459829,
				"element": "H" 
			},
			{
				"x": 0.4571421863,
				"y": 1.8858307877,
				"z": -0.1910677972,
				"element": "H" 
			},
			{
				"x": 2.4673103694,
				"y": 0.732068248,
				"z": -3.7900170639,
				"element": "H" 
			}
		],
		 "valence_orbital": [ 
			{
				"type": "occ",
				"energy": -0.31084,
				"method": "rhf"
			},
			{
				"type": "occ",
				"energy": -0.30687,
				"method": "rhf"
			},
			{
				"type": "occ",
				"energy": -0.30407,
				"method": "rhf"
			},
			{
				"type": "occ",
				"energy": -0.29737,
				"method": "rhf"
			},
			{
				"type": "occ",
				"energy": -0.29115,
				"method": "rhf"
			},
			{
				"type": "unocc",
				"energy": -0.11022,
				"method": "rhf"
			},
			{
				"type": "unocc",
				"energy": -0.08785,
				"method": "rhf"
			},
			{
				"type": "unocc",
				"energy": -0.052,
				"method": "rhf"
			},
			{
				"type": "unocc",
				"energy": 0.0158,
				"method": "rhf"
			},
			{
				"type": "unocc",
				"energy": 0.04161,
				"method": "rhf"
			}
		],
		"cosmo_sigma_profile": { 
			"-0.025": 0.0,
			"-0.024": 0.0,
			"-0.023": 0.0,
			"-0.022": 0.0,
			"-0.021": 0.0141612949373,
			"-0.02": 1.00494886405,
			"-0.019": 1.22293413985,
			"-0.018": 0.843797206786,
			"-0.017": 0.546433495556,
			"-0.016": 1.31043752131,
			"-0.015": 1.19208803767,
			"-0.014": 0.873464852528,
			"-0.013": 1.46455859905,
			"-0.012": 0.998219250996,
			"-0.011": 0.655501664639,
			"-0.01": 1.03194416924,
			"-0.009": 1.62129269692,
			"-0.008": 2.4030614216,
			"-0.007": 3.6098671595,
			"-0.006": 7.63002006496,
			"-0.005": 16.710631159,
			"-0.004": 28.7814580358,
			"-0.003": 29.6202607203,
			"-0.002": 28.2980643614,
			"-0.001": 18.4110867313,
			"0.0": 13.7261391318,
			"0.001": 9.32168596632,
			"0.002": 8.28483377341,
			"0.003": 7.93280878047,
			"0.004": 8.44123802316,
			"0.005": 5.47482857547,
			"0.006": 9.68678814288,
			"0.007": 13.1659343011,
			"0.008": 8.7654800162,
			"0.009": 9.3190156351,
			"0.01": 7.55039607734,
			"0.011": 9.28369894471,
			"0.012": 3.1259477522,
			"0.013": 0.214936327452,
			"0.014": 0.0,
			"0.015": 0.0,
			"0.016": 0.0,
			"0.017": 0.0,
			"0.018": 0.0,
			"0.019": 0.0,
			"0.02": 0.0,
			"0.021": 0.0,
			"0.022": 0.0,
			"0.023": 0.0,
			"0.024": 0.0,
			"0.025": 0.0
		}
	}
}
