{
	 "smiles": "CC(=O)C1=C(C)ON=C1C1=C(Cl)C=C(Cl)C=C1", 
	 "Tm": 330.15, 
	 "num_atms": 26, 
	 "gaussian": { 
		 "optdone": 1, 
		 "sigma_profile": "yes", 
		 "theory": "DFT", 
		 "functional": "B3LYP", 
		 "basiset": "6-31G**", 
		 "properties": { 
			 "R2extent": 7340.8244, 
			 "electric_dipole_moment_norm": 4.62335745319, 
			 "electric_quadrupole_moment_norm": 10.2509625002, 
			 "total_energy": -1588.23903613, 
			 "HOMO_LUMO_gap": 0.19313, 
			 "cosmo_polarized_energy": -14.14, 
			 "cosmo_cavitation_energy": 34.41, 
			 "cosmo_dispersion_energy": -24.27, 
			 "cosmo_repulsion_energy": 1.89, 
			 "cosmo_total_nonelectrostatic_energy": 12.03, 
			 "SMD_solvation_energy": 5.83 
		},
		"coords": [
			{
				"x": 1.2460428933,
				"y": 1.7564207343,
				"z": 0.1671433026,
				"element": "C" 
			},
			{
				"x": 0.2008128216,
				"y": 0.6740370309,
				"z": 0.3755040582,
				"element": "C" 
			},
			{
				"x": 0.0866545541,
				"y": 0.117816568,
				"z": 1.4569617252,
				"element": "O" 
			},
			{
				"x": -0.6844318594,
				"y": 0.3087046819,
				"z": -0.7527358221,
				"element": "C" 
			},
			{
				"x": -0.8478092582,
				"y": 0.8973080717,
				"z": -1.9874319495,
				"element": "C" 
			},
			{
				"x": -0.2159216278,
				"y": 2.0345154066,
				"z": -2.719716198,
				"element": "C" 
			},
			{
				"x": -1.8337961246,
				"y": 0.2740223935,
				"z": -2.6527093429,
				"element": "O" 
			},
			{
				"x": -2.3572142458,
				"y": -0.7655844035,
				"z": -1.8715950798,
				"element": "N" 
			},
			{
				"x": -1.6722264757,
				"y": -0.7421387729,
				"z": -0.7519892229,
				"element": "C" 
			},
			{
				"x": -2.0294345905,
				"y": -1.7171571981,
				"z": 0.3058056119,
				"element": "C" 
			},
			{
				"x": -1.1615066537,
				"y": -2.7280044442,
				"z": 0.7456007158,
				"element": "C" 
			},
			{
				"x": 0.4305055234,
				"y": -2.9116704735,
				"z": 0.0359788432,
				"element": "Cl" 
			},
			{
				"x": -1.5421638495,
				"y": -3.6394291353,
				"z": 1.7276825768,
				"element": "C" 
			},
			{
				"x": -2.8210186578,
				"y": -3.5441401746,
				"z": 2.2737781284,
				"element": "C" 
			},
			{
				"x": -3.303495346,
				"y": -4.6869954082,
				"z": 3.5141036962,
				"element": "Cl" 
			},
			{
				"x": -3.7190550489,
				"y": -2.5684892565,
				"z": 1.8475508655,
				"element": "C" 
			},
			{
				"x": -3.3133887244,
				"y": -1.6691495138,
				"z": 0.8647938594,
				"element": "C" 
			},
			{
				"x": 1.9268247764,
				"y": 1.4948944374,
				"z": -0.650428528,
				"element": "H" 
			},
			{
				"x": 1.8149522295,
				"y": 1.867958518,
				"z": 1.0906743228,
				"element": "H" 
			},
			{
				"x": 0.7798766792,
				"y": 2.7148810935,
				"z": -0.0861689895,
				"element": "H" 
			},
			{
				"x": -0.3884767213,
				"y": 2.9852272319,
				"z": -2.2055337358,
				"element": "H" 
			},
			{
				"x": -0.6477024154,
				"y": 2.1006370828,
				"z": -3.7201277995,
				"element": "H" 
			},
			{
				"x": 0.8648177162,
				"y": 1.8975708505,
				"z": -2.8136041129,
				"element": "H" 
			},
			{
				"x": -0.8562378365,
				"y": -4.4114438562,
				"z": 2.0529416336,
				"element": "H" 
			},
			{
				"x": -4.7135020925,
				"y": -2.5140330419,
				"z": 2.2747336598,
				"element": "H" 
			},
			{
				"x": -4.0006056659,
				"y": -0.9043584224,
				"z": 0.5191877813,
				"element": "H" 
			}
		],
		 "valence_orbital": [ 
			{
				"type": "occ",
				"energy": -0.30718,
				"method": "rhf"
			},
			{
				"type": "occ",
				"energy": -0.27242,
				"method": "rhf"
			},
			{
				"type": "occ",
				"energy": -0.26375,
				"method": "rhf"
			},
			{
				"type": "occ",
				"energy": -0.26074,
				"method": "rhf"
			},
			{
				"type": "occ",
				"energy": -0.24472,
				"method": "rhf"
			},
			{
				"type": "unocc",
				"energy": -0.05159,
				"method": "rhf"
			},
			{
				"type": "unocc",
				"energy": -0.03783,
				"method": "rhf"
			},
			{
				"type": "unocc",
				"energy": -0.02332,
				"method": "rhf"
			},
			{
				"type": "unocc",
				"energy": -0.00704,
				"method": "rhf"
			},
			{
				"type": "unocc",
				"energy": 0.00859,
				"method": "rhf"
			}
		],
		"cosmo_sigma_profile": { 
			"-0.025": 0.0,
			"-0.024": 0.0,
			"-0.023": 0.0,
			"-0.022": 0.0,
			"-0.021": 0.0,
			"-0.02": 0.0,
			"-0.019": 0.0,
			"-0.018": 0.0,
			"-0.017": 0.0,
			"-0.016": 0.0,
			"-0.015": 0.0,
			"-0.014": 0.0,
			"-0.013": 0.0,
			"-0.012": 0.0,
			"-0.011": 0.0,
			"-0.01": 0.0,
			"-0.009": 1.07053795156,
			"-0.008": 8.3779572774,
			"-0.007": 13.6094468854,
			"-0.006": 15.1399965349,
			"-0.005": 15.0784697359,
			"-0.004": 17.6143812445,
			"-0.003": 20.1525572826,
			"-0.002": 22.4024544426,
			"-0.001": 21.0396348475,
			"0.0": 21.1859411773,
			"0.001": 25.1866018995,
			"0.002": 21.9866985089,
			"0.003": 18.3041806639,
			"0.004": 18.9138951854,
			"0.005": 6.11556934264,
			"0.006": 6.45701048429,
			"0.007": 5.82862141699,
			"0.008": 4.04641088259,
			"0.009": 3.83620429688,
			"0.01": 3.39373035993,
			"0.011": 4.02248966815,
			"0.012": 3.69301287671,
			"0.013": 2.37171560939,
			"0.014": 0.18388088199,
			"0.015": 0.0,
			"0.016": 0.0,
			"0.017": 0.0,
			"0.018": 0.0,
			"0.019": 0.0,
			"0.02": 0.0,
			"0.021": 0.0,
			"0.022": 0.0,
			"0.023": 0.0,
			"0.024": 0.0,
			"0.025": 0.0
		}
	}
}
