{
	 "smiles": "CCCCCC(=O)CC(C)=O", 
	 "Tm": 255.15, 
	 "num_atms": 27, 
	 "gaussian": { 
		 "optdone": 1, 
		 "sigma_profile": "yes", 
		 "theory": "DFT", 
		 "functional": "B3LYP", 
		 "basiset": "6-31G**", 
		 "properties": { 
			 "R2extent": 3065.8359, 
			 "electric_dipole_moment_norm": 1.420268626, 
			 "electric_quadrupole_moment_norm": 10.6328806069, 
			 "total_energy": -503.061545352, 
			 "HOMO_LUMO_gap": 0.20618, 
			 "cosmo_polarized_energy": -9.61, 
			 "cosmo_cavitation_energy": 29.84, 
			 "cosmo_dispersion_energy": -20.55, 
			 "cosmo_repulsion_energy": 1.71, 
			 "cosmo_total_nonelectrostatic_energy": 11.0, 
			 "SMD_solvation_energy": 6.03 
		},
		"coords": [
			{
				"x": -1.0917124752,
				"y": 3.5888995071,
				"z": 1.6254163025,
				"element": "C" 
			},
			{
				"x": -0.393593315,
				"y": 2.5464440871,
				"z": 2.5068677256,
				"element": "C" 
			},
			{
				"x": -1.1354893491,
				"y": 1.2014738176,
				"z": 2.6074516905,
				"element": "C" 
			},
			{
				"x": -1.2986041148,
				"y": 0.4216886888,
				"z": 1.2918813078,
				"element": "C" 
			},
			{
				"x": 0.0240826482,
				"y": -0.0418880095,
				"z": 0.6787571954,
				"element": "C" 
			},
			{
				"x": -0.1347021989,
				"y": -0.8613341916,
				"z": -0.5871843277,
				"element": "C" 
			},
			{
				"x": -1.2039656456,
				"y": -1.0499003391,
				"z": -1.1358706678,
				"element": "O" 
			},
			{
				"x": 1.1461678538,
				"y": -1.5191917541,
				"z": -1.1261125345,
				"element": "C" 
			},
			{
				"x": 1.2286884522,
				"y": -2.9326209359,
				"z": -0.5292280271,
				"element": "C" 
			},
			{
				"x": 0.5208430895,
				"y": -4.0206150607,
				"z": -1.3049696517,
				"element": "C" 
			},
			{
				"x": 1.7920905684,
				"y": -3.1260352252,
				"z": 0.5302114154,
				"element": "O" 
			},
			{
				"x": -0.5527775323,
				"y": 4.5419048188,
				"z": 1.6405951921,
				"element": "H" 
			},
			{
				"x": -1.1568183026,
				"y": 3.2668567577,
				"z": 0.5807539914,
				"element": "H" 
			},
			{
				"x": -2.113243888,
				"y": 3.7793331272,
				"z": 1.9745340742,
				"element": "H" 
			},
			{
				"x": -0.283693774,
				"y": 2.9526169107,
				"z": 3.5203241146,
				"element": "H" 
			},
			{
				"x": 0.6297014007,
				"y": 2.3849790968,
				"z": 2.1424782256,
				"element": "H" 
			},
			{
				"x": -0.6157789152,
				"y": 0.5644319405,
				"z": 3.3362145944,
				"element": "H" 
			},
			{
				"x": -2.1347664228,
				"y": 1.3844842136,
				"z": 3.0248153791,
				"element": "H" 
			},
			{
				"x": -1.8452055117,
				"y": 1.0186150836,
				"z": 0.5538649902,
				"element": "H" 
			},
			{
				"x": -1.9245766106,
				"y": -0.4591588201,
				"z": 1.4739660046,
				"element": "H" 
			},
			{
				"x": 0.6767056932,
				"y": 0.8081125386,
				"z": 0.4308886891,
				"element": "H" 
			},
			{
				"x": 0.6103777609,
				"y": -0.6484776736,
				"z": 1.3853745681,
				"element": "H" 
			},
			{
				"x": 2.0340290891,
				"y": -0.9644499625,
				"z": -0.8148267352,
				"element": "H" 
			},
			{
				"x": 1.0748191104,
				"y": -1.5596737385,
				"z": -2.2157851668,
				"element": "H" 
			},
			{
				"x": -0.491785688,
				"y": -3.6910169397,
				"z": -1.5629323468,
				"element": "H" 
			},
			{
				"x": 0.4906339049,
				"y": -4.9416988971,
				"z": -0.721520766,
				"element": "H" 
			},
			{
				"x": 1.0466741725,
				"y": -4.2029790405,
				"z": -2.2500652369,
				"element": "H" 
			}
		],
		 "valence_orbital": [ 
			{
				"type": "occ",
				"energy": -0.32433,
				"method": "rhf"
			},
			{
				"type": "occ",
				"energy": -0.32051,
				"method": "rhf"
			},
			{
				"type": "occ",
				"energy": -0.31738,
				"method": "rhf"
			},
			{
				"type": "occ",
				"energy": -0.26169,
				"method": "rhf"
			},
			{
				"type": "occ",
				"energy": -0.24852,
				"method": "rhf"
			},
			{
				"type": "unocc",
				"energy": -0.04234,
				"method": "rhf"
			},
			{
				"type": "unocc",
				"energy": 0.00314,
				"method": "rhf"
			},
			{
				"type": "unocc",
				"energy": 0.07666,
				"method": "rhf"
			},
			{
				"type": "unocc",
				"energy": 0.10124,
				"method": "rhf"
			},
			{
				"type": "unocc",
				"energy": 0.1088,
				"method": "rhf"
			}
		],
		"cosmo_sigma_profile": { 
			"-0.025": 0.0,
			"-0.024": 0.0,
			"-0.023": 0.0,
			"-0.022": 0.0,
			"-0.021": 0.0,
			"-0.02": 0.0,
			"-0.019": 0.0,
			"-0.018": 0.0,
			"-0.017": 0.0,
			"-0.016": 0.0,
			"-0.015": 0.0,
			"-0.014": 0.0,
			"-0.013": 0.0,
			"-0.012": 0.0,
			"-0.011": 0.0,
			"-0.01": 0.0,
			"-0.009": 0.0,
			"-0.008": 0.0,
			"-0.007": 5.0508053022,
			"-0.006": 10.4776758487,
			"-0.005": 10.9776999938,
			"-0.004": 16.0484933319,
			"-0.003": 24.4567027473,
			"-0.002": 33.7532057744,
			"-0.001": 28.5843368756,
			"0.0": 28.0595657816,
			"0.001": 22.3300308656,
			"0.002": 10.7831980001,
			"0.003": 3.48017882004,
			"0.004": 3.30358997548,
			"0.005": 3.15282240287,
			"0.006": 2.87077736895,
			"0.007": 3.11243877311,
			"0.008": 2.63186762508,
			"0.009": 3.5454703437,
			"0.01": 4.83582221657,
			"0.011": 6.3898788362,
			"0.012": 6.63892601859,
			"0.013": 1.09364345017,
			"0.014": 0.0,
			"0.015": 0.0,
			"0.016": 0.0,
			"0.017": 0.0,
			"0.018": 0.0,
			"0.019": 0.0,
			"0.02": 0.0,
			"0.021": 0.0,
			"0.022": 0.0,
			"0.023": 0.0,
			"0.024": 0.0,
			"0.025": 0.0
		}
	}
}
