{
	 "smiles": "O=CC1=CN(N=C1C1=CC=C(C=C1)C1=NN(C=C1C=O)C1=CC=CC=C1)C1=CC=CC=C1", 
	 "Tm": 545.15, 
	 "num_atms": 50, 
	 "gaussian": { 
		 "optdone": 1, 
		 "sigma_profile": "yes", 
		 "theory": "DFT", 
		 "functional": "B3LYP", 
		 "basiset": "6-31G**", 
		 "properties": { 
			 "R2extent": 24596.3466, 
			 "electric_dipole_moment_norm": 3.24940559795, 
			 "electric_quadrupole_moment_norm": 63.61340879, 
			 "total_energy": -1371.02685442, 
			 "HOMO_LUMO_gap": 0.16514, 
			 "cosmo_polarized_energy": -20.76, 
			 "cosmo_cavitation_energy": 57.03, 
			 "cosmo_dispersion_energy": -40.13, 
			 "cosmo_repulsion_energy": 2.94, 
			 "cosmo_total_nonelectrostatic_energy": 19.84, 
			 "SMD_solvation_energy": 10.32 
		},
		"coords": [
			{
				"x": -5.4365879671,
				"y": -0.9737934008,
				"z": 1.842996931,
				"element": "O" 
			},
			{
				"x": -4.2883598723,
				"y": -0.6936643058,
				"z": 1.5358838097,
				"element": "C" 
			},
			{
				"x": -3.181177219,
				"y": -0.665038137,
				"z": 2.4915249836,
				"element": "C" 
			},
			{
				"x": -3.3333980944,
				"y": -0.817951338,
				"z": 3.8625050316,
				"element": "C" 
			},
			{
				"x": -2.1167285881,
				"y": -0.6326674243,
				"z": 4.4239633409,
				"element": "N" 
			},
			{
				"x": -1.1562346531,
				"y": -0.3782296298,
				"z": 3.4906406029,
				"element": "N" 
			},
			{
				"x": -1.7832142936,
				"y": -0.3951987124,
				"z": 2.3149147529,
				"element": "C" 
			},
			{
				"x": -1.0209202518,
				"y": -0.1424745052,
				"z": 1.0796418465,
				"element": "C" 
			},
			{
				"x": 0.0690331003,
				"y": 0.7427013045,
				"z": 1.0995356312,
				"element": "C" 
			},
			{
				"x": 0.8067811214,
				"y": 0.9887071331,
				"z": -0.053420581,
				"element": "C" 
			},
			{
				"x": 0.4744514579,
				"y": 0.3645225252,
				"z": -1.2676507929,
				"element": "C" 
			},
			{
				"x": -0.6011847781,
				"y": -0.5381069348,
				"z": -1.2821884185,
				"element": "C" 
			},
			{
				"x": -1.3336533541,
				"y": -0.7905460041,
				"z": -0.1272556234,
				"element": "C" 
			},
			{
				"x": 1.2425956122,
				"y": 0.6101354577,
				"z": -2.5007350035,
				"element": "C" 
			},
			{
				"x": 1.4118717122,
				"y": -0.377884384,
				"z": -3.3787447406,
				"element": "N" 
			},
			{
				"x": 2.1432238437,
				"y": 0.1561291221,
				"z": -4.3977098968,
				"element": "N" 
			},
			{
				"x": 2.4459386931,
				"y": 1.456099041,
				"z": -4.1780032123,
				"element": "C" 
			},
			{
				"x": 1.8772704273,
				"y": 1.8109970473,
				"z": -2.96275918,
				"element": "C" 
			},
			{
				"x": 1.8962210785,
				"y": 3.1669417221,
				"z": -2.414130029,
				"element": "C" 
			},
			{
				"x": 2.5181296364,
				"y": 4.089177022,
				"z": -2.9180434242,
				"element": "O" 
			},
			{
				"x": 2.5140507902,
				"y": -0.6587177994,
				"z": -5.5049898451,
				"element": "C" 
			},
			{
				"x": 2.8552563455,
				"y": -0.0705361246,
				"z": -6.7273506226,
				"element": "C" 
			},
			{
				"x": 3.2352681081,
				"y": -0.8817183879,
				"z": -7.7956697436,
				"element": "C" 
			},
			{
				"x": 3.2609470508,
				"y": -2.2702638315,
				"z": -7.6556583688,
				"element": "C" 
			},
			{
				"x": 2.902770135,
				"y": -2.8469818885,
				"z": -6.4352055892,
				"element": "C" 
			},
			{
				"x": 2.5315828438,
				"y": -2.0490080558,
				"z": -5.3549541652,
				"element": "C" 
			},
			{
				"x": -1.7639314136,
				"y": -0.7005282141,
				"z": 5.8018097678,
				"element": "C" 
			},
			{
				"x": -0.4346731728,
				"y": -0.9530981624,
				"z": 6.1553546374,
				"element": "C" 
			},
			{
				"x": -0.0899218233,
				"y": -1.0284907635,
				"z": 7.5032974673,
				"element": "C" 
			},
			{
				"x": -1.0582420347,
				"y": -0.8609841885,
				"z": 8.4956193979,
				"element": "C" 
			},
			{
				"x": -2.3810757543,
				"y": -0.6045075862,
				"z": 8.1313973626,
				"element": "C" 
			},
			{
				"x": -2.7393790908,
				"y": -0.5150478646,
				"z": 6.7870240103,
				"element": "C" 
			},
			{
				"x": -4.0311895682,
				"y": -0.4210889049,
				"z": 0.4928258839,
				"element": "H" 
			},
			{
				"x": -4.2202362458,
				"y": -1.0481315411,
				"z": 4.4312224222,
				"element": "H" 
			},
			{
				"x": 0.3329777079,
				"y": 1.2294337238,
				"z": 2.0321902072,
				"element": "H" 
			},
			{
				"x": 1.6642820909,
				"y": 1.6518126311,
				"z": -0.0030018899,
				"element": "H" 
			},
			{
				"x": -0.8502062023,
				"y": -1.0429840853,
				"z": -2.2092829215,
				"element": "H" 
			},
			{
				"x": -2.13908327,
				"y": -1.5171099648,
				"z": -0.1581552471,
				"element": "H" 
			},
			{
				"x": 3.0334529199,
				"y": 2.0514847438,
				"z": -4.8586235853,
				"element": "H" 
			},
			{
				"x": 1.2847046396,
				"y": 3.3265023796,
				"z": -1.5036469322,
				"element": "H" 
			},
			{
				"x": 2.8057851921,
				"y": 1.0054226902,
				"z": -6.8551895419,
				"element": "H" 
			},
			{
				"x": 3.4990599091,
				"y": -0.4228963559,
				"z": -8.7436856312,
				"element": "H" 
			},
			{
				"x": 3.5525611349,
				"y": -2.8975297541,
				"z": -8.4923209553,
				"element": "H" 
			},
			{
				"x": 2.9169994168,
				"y": -3.9263821127,
				"z": -6.3177865644,
				"element": "H" 
			},
			{
				"x": 2.2541254095,
				"y": -2.4795063233,
				"z": -4.4008927355,
				"element": "H" 
			},
			{
				"x": 0.3028028553,
				"y": -1.0836951433,
				"z": 5.3732957324,
				"element": "H" 
			},
			{
				"x": 0.9422187526,
				"y": -1.2254734097,
				"z": 7.7771169739,
				"element": "H" 
			},
			{
				"x": -0.7836607239,
				"y": -0.9244088624,
				"z": 9.5439924416,
				"element": "H" 
			},
			{
				"x": -3.1398513798,
				"y": -0.4594993122,
				"z": 8.8943331745,
				"element": "H" 
			},
			{
				"x": -3.7628522339,
				"y": -0.2821231306,
				"z": 6.5136688317,
				"element": "H" 
			}
		],
		 "valence_orbital": [ 
			{
				"type": "occ",
				"energy": -0.25566,
				"method": "rhf"
			},
			{
				"type": "occ",
				"energy": -0.2502,
				"method": "rhf"
			},
			{
				"type": "occ",
				"energy": -0.24742,
				"method": "rhf"
			},
			{
				"type": "occ",
				"energy": -0.24157,
				"method": "rhf"
			},
			{
				"type": "occ",
				"energy": -0.22308,
				"method": "rhf"
			},
			{
				"type": "unocc",
				"energy": -0.05794,
				"method": "rhf"
			},
			{
				"type": "unocc",
				"energy": -0.05581,
				"method": "rhf"
			},
			{
				"type": "unocc",
				"energy": -0.05169,
				"method": "rhf"
			},
			{
				"type": "unocc",
				"energy": -0.02231,
				"method": "rhf"
			},
			{
				"type": "unocc",
				"energy": -0.01789,
				"method": "rhf"
			}
		],
		"cosmo_sigma_profile": { 
			"-0.025": 0.0,
			"-0.024": 0.0,
			"-0.023": 0.0,
			"-0.022": 0.0,
			"-0.021": 0.0,
			"-0.02": 0.0,
			"-0.019": 0.0,
			"-0.018": 0.0,
			"-0.017": 0.0,
			"-0.016": 0.0,
			"-0.015": 0.0,
			"-0.014": 0.0,
			"-0.013": 0.0,
			"-0.012": 0.00194705484406,
			"-0.011": 2.38141186792,
			"-0.01": 3.87316222161,
			"-0.009": 3.4274565384,
			"-0.008": 6.69374525162,
			"-0.007": 13.124282452,
			"-0.006": 29.9768255965,
			"-0.005": 34.2476172662,
			"-0.004": 35.1672004415,
			"-0.003": 25.4407706118,
			"-0.002": 28.4757374668,
			"-0.001": 32.5026219671,
			"0.0": 38.2895322913,
			"0.001": 37.2077145044,
			"0.002": 31.2349275583,
			"0.003": 38.752237782,
			"0.004": 37.7979535332,
			"0.005": 12.8807919911,
			"0.006": 7.39443235824,
			"0.007": 5.28961020474,
			"0.008": 6.38216024445,
			"0.009": 6.49933327746,
			"0.01": 5.52267009326,
			"0.011": 6.69084667594,
			"0.012": 8.22457305165,
			"0.013": 3.17804557542,
			"0.014": 0.39896977016,
			"0.015": 0.0,
			"0.016": 0.0,
			"0.017": 0.0,
			"0.018": 0.0,
			"0.019": 0.0,
			"0.02": 0.0,
			"0.021": 0.0,
			"0.022": 0.0,
			"0.023": 0.0,
			"0.024": 0.0,
			"0.025": 0.0
		}
	}
}
