{
	 "smiles": "ClC1=CC=C(CNC2=CC(=CC=C2)C#N)C=C1", 
	 "Tm": 358.15, 
	 "num_atms": 28, 
	 "gaussian": { 
		 "optdone": 1, 
		 "sigma_profile": "yes", 
		 "theory": "DFT", 
		 "functional": "B3LYP", 
		 "basiset": "6-31G**", 
		 "properties": { 
			 "R2extent": 7116.1731, 
			 "electric_dipole_moment_norm": 6.73363177119, 
			 "electric_quadrupole_moment_norm": 18.6807787097, 
			 "total_energy": -1109.80193522, 
			 "HOMO_LUMO_gap": 0.17522, 
			 "cosmo_polarized_energy": -15.05, 
			 "cosmo_cavitation_energy": 35.41, 
			 "cosmo_dispersion_energy": -24.48, 
			 "cosmo_repulsion_energy": 1.93, 
			 "cosmo_total_nonelectrostatic_energy": 12.86, 
			 "SMD_solvation_energy": 6.61 
		},
		"coords": [
			{
				"x": 2.8118209686,
				"y": -5.5392081341,
				"z": 2.0608712891,
				"element": "Cl" 
			},
			{
				"x": 2.5882753667,
				"y": -4.1009572368,
				"z": 1.0752265787,
				"element": "C" 
			},
			{
				"x": 1.3890763196,
				"y": -3.9190953708,
				"z": 0.3870536611,
				"element": "C" 
			},
			{
				"x": 1.2188292656,
				"y": -2.776360056,
				"z": -0.3937522123,
				"element": "C" 
			},
			{
				"x": 2.2299352512,
				"y": -1.8148799072,
				"z": -0.4916619697,
				"element": "C" 
			},
			{
				"x": 2.0783352992,
				"y": -0.5938994966,
				"z": -1.3896922599,
				"element": "C" 
			},
			{
				"x": 0.7083143787,
				"y": -0.1346778647,
				"z": -1.5619448295,
				"element": "N" 
			},
			{
				"x": 0.0749778679,
				"y": 0.6896302702,
				"z": -0.6386439803,
				"element": "C" 
			},
			{
				"x": 0.551046358,
				"y": 0.8422630473,
				"z": 0.673388181,
				"element": "C" 
			},
			{
				"x": -0.1338991444,
				"y": 1.6725177842,
				"z": 1.5750866324,
				"element": "C" 
			},
			{
				"x": -1.2963146354,
				"y": 2.357989746,
				"z": 1.1939745799,
				"element": "C" 
			},
			{
				"x": -1.7658607399,
				"y": 2.1969639406,
				"z": -0.1095925135,
				"element": "C" 
			},
			{
				"x": -1.0969568795,
				"y": 1.3796536879,
				"z": -1.0131908229,
				"element": "C" 
			},
			{
				"x": 0.3730197632,
				"y": 1.8205126472,
				"z": 2.9102389958,
				"element": "C" 
			},
			{
				"x": 0.78410341,
				"y": 1.9457069012,
				"z": 3.9912821539,
				"element": "N" 
			},
			{
				"x": 3.420409396,
				"y": -2.0166453915,
				"z": 0.2162026828,
				"element": "C" 
			},
			{
				"x": 3.6101663413,
				"y": -3.1558056723,
				"z": 0.9984613044,
				"element": "C" 
			},
			{
				"x": 0.601184267,
				"y": -4.6602895347,
				"z": 0.4643179457,
				"element": "H" 
			},
			{
				"x": 0.2857862467,
				"y": -2.6191759175,
				"z": -0.9256367863,
				"element": "H" 
			},
			{
				"x": 2.7233206163,
				"y": 0.214231551,
				"z": -1.0116227397,
				"element": "H" 
			},
			{
				"x": 2.4543297194,
				"y": -0.8433329796,
				"z": -2.3890897273,
				"element": "H" 
			},
			{
				"x": 0.4315600104,
				"y": 0.0275845959,
				"z": -2.5183278295,
				"element": "H" 
			},
			{
				"x": 1.4333648823,
				"y": 0.3124858668,
				"z": 1.0093854287,
				"element": "H" 
			},
			{
				"x": -1.8111878806,
				"y": 2.9950595825,
				"z": 1.9035689118,
				"element": "H" 
			},
			{
				"x": -2.6638789214,
				"y": 2.7184273967,
				"z": -0.4268730722,
				"element": "H" 
			},
			{
				"x": -1.4779632295,
				"y": 1.2670785794,
				"z": -2.0255381511,
				"element": "H" 
			},
			{
				"x": 4.2142867852,
				"y": -1.2752729478,
				"z": 0.161401769,
				"element": "H" 
			},
			{
				"x": 4.5330189173,
				"y": -3.3052050872,
				"z": 1.5478067801,
				"element": "H" 
			}
		],
		 "valence_orbital": [ 
			{
				"type": "occ",
				"energy": -0.30836,
				"method": "rhf"
			},
			{
				"type": "occ",
				"energy": -0.26782,
				"method": "rhf"
			},
			{
				"type": "occ",
				"energy": -0.26284,
				"method": "rhf"
			},
			{
				"type": "occ",
				"energy": -0.2458,
				"method": "rhf"
			},
			{
				"type": "occ",
				"energy": -0.22048,
				"method": "rhf"
			},
			{
				"type": "unocc",
				"energy": -0.04526,
				"method": "rhf"
			},
			{
				"type": "unocc",
				"energy": -0.01931,
				"method": "rhf"
			},
			{
				"type": "unocc",
				"energy": -0.01922,
				"method": "rhf"
			},
			{
				"type": "unocc",
				"energy": -0.00605,
				"method": "rhf"
			},
			{
				"type": "unocc",
				"energy": 0.02895,
				"method": "rhf"
			}
		],
		"cosmo_sigma_profile": { 
			"-0.025": 0.0,
			"-0.024": 0.0,
			"-0.023": 0.0,
			"-0.022": 0.0,
			"-0.021": 0.0,
			"-0.02": 0.0,
			"-0.019": 0.0,
			"-0.018": 0.0,
			"-0.017": 0.0,
			"-0.016": 0.0,
			"-0.015": 0.0,
			"-0.014": 0.355051126205,
			"-0.013": 1.6351730176,
			"-0.012": 1.43935778419,
			"-0.011": 1.57563043709,
			"-0.01": 2.09562063859,
			"-0.009": 1.62342193044,
			"-0.008": 2.09996712769,
			"-0.007": 8.96876154992,
			"-0.006": 17.461743831,
			"-0.005": 21.4447852685,
			"-0.004": 19.0254976439,
			"-0.003": 16.7660490773,
			"-0.002": 15.2120747752,
			"-0.001": 17.8223591734,
			"0.0": 19.5530250231,
			"0.001": 19.2927998171,
			"0.002": 24.7221207981,
			"0.003": 30.3883923632,
			"0.004": 29.8774561086,
			"0.005": 12.011716254,
			"0.006": 3.30962881893,
			"0.007": 2.3515226423,
			"0.008": 3.49442385632,
			"0.009": 3.348478428,
			"0.01": 3.39071549255,
			"0.011": 2.89296963028,
			"0.012": 2.55005411221,
			"0.013": 1.99061897233,
			"0.014": 0.227084658799,
			"0.015": 0.0,
			"0.016": 0.0,
			"0.017": 0.0,
			"0.018": 0.0,
			"0.019": 0.0,
			"0.02": 0.0,
			"0.021": 0.0,
			"0.022": 0.0,
			"0.023": 0.0,
			"0.024": 0.0,
			"0.025": 0.0
		}
	}
}
