{
	 "smiles": "CC1=C(OC2=C1C=CC=C2Br)C(O)=O", 
	 "Tm": 478.15, 
	 "num_atms": 21, 
	 "gaussian": { 
		 "optdone": 1, 
		 "sigma_profile": "yes", 
		 "theory": "DFT", 
		 "functional": "B3LYP", 
		 "basiset": "6-31G**", 
		 "properties": { 
			 "R2extent": 4777.7928, 
			 "electric_dipole_moment_norm": 6.3753512115, 
			 "electric_quadrupole_moment_norm": 10.4656449018, 
			 "total_energy": -3182.35494289, 
			 "HOMO_LUMO_gap": 0.17328, 
			 "cosmo_polarized_energy": -16.74, 
			 "cosmo_cavitation_energy": 28.25, 
			 "cosmo_dispersion_energy": -21.0, 
			 "cosmo_repulsion_energy": 1.65, 
			 "cosmo_total_nonelectrostatic_energy": 8.9, 
			 "SMD_solvation_energy": 5.14 
		},
		"coords": [
			{
				"x": 0.2602385282,
				"y": 2.0115993057,
				"z": -1.6438038264,
				"element": "C" 
			},
			{
				"x": 0.2501950619,
				"y": 0.6309707247,
				"z": -1.0560472414,
				"element": "C" 
			},
			{
				"x": -0.7229746493,
				"y": -0.3353542522,
				"z": -1.1119735628,
				"element": "C" 
			},
			{
				"x": -0.3780536546,
				"y": -1.4576121842,
				"z": -0.3912522587,
				"element": "O" 
			},
			{
				"x": 0.8515221128,
				"y": -1.2149962111,
				"z": 0.1239436773,
				"element": "C" 
			},
			{
				"x": 1.3037579714,
				"y": 0.0654441043,
				"z": -0.2455205511,
				"element": "C" 
			},
			{
				"x": 2.5588740006,
				"y": 0.5143117081,
				"z": 0.1961993165,
				"element": "C" 
			},
			{
				"x": 3.3169405391,
				"y": -0.3394814275,
				"z": 0.9878869289,
				"element": "C" 
			},
			{
				"x": 2.8524460743,
				"y": -1.6207009349,
				"z": 1.344849997,
				"element": "C" 
			},
			{
				"x": 1.610334101,
				"y": -2.0752152504,
				"z": 0.9147841273,
				"element": "C" 
			},
			{
				"x": 0.9639091171,
				"y": -3.794992871,
				"z": 1.3835997945,
				"element": "Br" 
			},
			{
				"x": -2.0785792122,
				"y": -0.3849598553,
				"z": -1.711274109,
				"element": "C" 
			},
			{
				"x": -2.2807777517,
				"y": 0.4551214725,
				"z": -2.7662514829,
				"element": "O" 
			},
			{
				"x": -2.9643697512,
				"y": -1.091959885,
				"z": -1.3037472776,
				"element": "O" 
			},
			{
				"x": 0.9091856322,
				"y": 2.0712898012,
				"z": -2.526640073,
				"element": "H" 
			},
			{
				"x": -0.740591338,
				"y": 2.3480818483,
				"z": -1.9249098455,
				"element": "H" 
			},
			{
				"x": 0.6498918357,
				"y": 2.7292248802,
				"z": -0.9148544166,
				"element": "H" 
			},
			{
				"x": 2.9293888202,
				"y": 1.497864201,
				"z": -0.0747571879,
				"element": "H" 
			},
			{
				"x": 4.2921189843,
				"y": -0.0224844639,
				"z": 1.3439488621,
				"element": "H" 
			},
			{
				"x": 3.4649160398,
				"y": -2.2661566247,
				"z": 1.9641662714,
				"element": "H" 
			},
			{
				"x": -1.4339724614,
				"y": 0.7805059141,
				"z": -3.1016471421,
				"element": "H" 
			}
		],
		 "valence_orbital": [ 
			{
				"type": "occ",
				"energy": -0.29337,
				"method": "rhf"
			},
			{
				"type": "occ",
				"energy": -0.28888,
				"method": "rhf"
			},
			{
				"type": "occ",
				"energy": -0.28388,
				"method": "rhf"
			},
			{
				"type": "occ",
				"energy": -0.25567,
				"method": "rhf"
			},
			{
				"type": "occ",
				"energy": -0.2399,
				"method": "rhf"
			},
			{
				"type": "unocc",
				"energy": -0.06662,
				"method": "rhf"
			},
			{
				"type": "unocc",
				"energy": -0.01299,
				"method": "rhf"
			},
			{
				"type": "unocc",
				"energy": -0.00018,
				"method": "rhf"
			},
			{
				"type": "unocc",
				"energy": 0.00113,
				"method": "rhf"
			},
			{
				"type": "unocc",
				"energy": 0.04947,
				"method": "rhf"
			}
		],
		"cosmo_sigma_profile": { 
			"-0.025": 0.0,
			"-0.024": 0.0,
			"-0.023": 0.0,
			"-0.022": 0.0,
			"-0.021": 0.0,
			"-0.02": 0.0,
			"-0.019": 0.0,
			"-0.018": 0.45032550789,
			"-0.017": 0.817063613434,
			"-0.016": 1.04300289695,
			"-0.015": 0.660441145413,
			"-0.014": 1.00141769966,
			"-0.013": 1.0816702034,
			"-0.012": 1.18884169878,
			"-0.011": 0.852123610204,
			"-0.01": 0.637574532445,
			"-0.009": 1.29350514365,
			"-0.008": 2.11497049333,
			"-0.007": 6.5337546589,
			"-0.006": 14.523478547,
			"-0.005": 17.0773638789,
			"-0.004": 14.2651173472,
			"-0.003": 13.2592429038,
			"-0.002": 15.0152035826,
			"-0.001": 17.8656208068,
			"0.0": 16.2058354571,
			"0.001": 16.6611189523,
			"0.002": 18.0841935058,
			"0.003": 16.575984593,
			"0.004": 15.2033991174,
			"0.005": 4.52965401403,
			"0.006": 4.02103922183,
			"0.007": 3.71744578765,
			"0.008": 4.14234479128,
			"0.009": 4.6072648215,
			"0.01": 5.78844980434,
			"0.011": 6.55209254711,
			"0.012": 4.20185458884,
			"0.013": 0.391371108475,
			"0.014": 0.0,
			"0.015": 0.0,
			"0.016": 0.0,
			"0.017": 0.0,
			"0.018": 0.0,
			"0.019": 0.0,
			"0.02": 0.0,
			"0.021": 0.0,
			"0.022": 0.0,
			"0.023": 0.0,
			"0.024": 0.0,
			"0.025": 0.0
		}
	}
}
