{
	 "smiles": "C1CN2CCCC3=C2C(C1)=CC=C3", 
	 "Tm": 310.65, 
	 "num_atms": 28, 
	 "gaussian": { 
		 "optdone": 1, 
		 "sigma_profile": "yes", 
		 "theory": "DFT", 
		 "functional": "B3LYP", 
		 "basiset": "6-31G**", 
		 "properties": { 
			 "R2extent": 3482.5053, 
			 "electric_dipole_moment_norm": 1.99426521055, 
			 "electric_quadrupole_moment_norm": 6.62829290089, 
			 "total_energy": -521.087321432, 
			 "HOMO_LUMO_gap": 0.18643, 
			 "cosmo_polarized_energy": -4.67, 
			 "cosmo_cavitation_energy": 27.67, 
			 "cosmo_dispersion_energy": -21.15, 
			 "cosmo_repulsion_energy": 1.66, 
			 "cosmo_total_nonelectrostatic_energy": 8.19, 
			 "SMD_solvation_energy": 2.63 
		},
		"coords": [
			{
				"x": 2.4594272103,
				"y": -0.7984262279,
				"z": -0.6360767198,
				"element": "C" 
			},
			{
				"x": 2.0527887694,
				"y": 0.3470220986,
				"z": 0.2887220788,
				"element": "C" 
			},
			{
				"x": 1.2186745929,
				"y": -0.1000024728,
				"z": 1.3964183991,
				"element": "N" 
			},
			{
				"x": 1.1424924906,
				"y": 0.822415751,
				"z": 2.5216004759,
				"element": "C" 
			},
			{
				"x": -0.0543461198,
				"y": 0.5413916467,
				"z": 3.4277582712,
				"element": "C" 
			},
			{
				"x": -0.0866263469,
				"y": -0.9448163492,
				"z": 3.7973456508,
				"element": "C" 
			},
			{
				"x": -0.1199834501,
				"y": -1.7871606858,
				"z": 2.5423508246,
				"element": "C" 
			},
			{
				"x": 0.543527899,
				"y": -1.3186743952,
				"z": 1.3806511734,
				"element": "C" 
			},
			{
				"x": 0.5109811617,
				"y": -2.1064943103,
				"z": 0.202726576,
				"element": "C" 
			},
			{
				"x": 1.220914262,
				"y": -1.6067640871,
				"z": -1.0350089898,
				"element": "C" 
			},
			{
				"x": -0.1572139459,
				"y": -3.3306593237,
				"z": 0.2137211666,
				"element": "C" 
			},
			{
				"x": -0.8251502869,
				"y": -3.7891204058,
				"z": 1.3487221538,
				"element": "C" 
			},
			{
				"x": -0.8031929249,
				"y": -3.0023090846,
				"z": 2.4998127195,
				"element": "C" 
			},
			{
				"x": 2.9691959922,
				"y": -0.386822377,
				"z": -1.5137773085,
				"element": "H" 
			},
			{
				"x": 3.1716730769,
				"y": -1.4526907224,
				"z": -0.1193541936,
				"element": "H" 
			},
			{
				"x": 2.9520685581,
				"y": 0.8244909957,
				"z": 0.7038181651,
				"element": "H" 
			},
			{
				"x": 1.5285976143,
				"y": 1.125497061,
				"z": -0.293259127,
				"element": "H" 
			},
			{
				"x": 2.073936574,
				"y": 0.7797103221,
				"z": 3.1132654143,
				"element": "H" 
			},
			{
				"x": 1.0745335895,
				"y": 1.8459379354,
				"z": 2.1256498721,
				"element": "H" 
			},
			{
				"x": 0.0141660757,
				"y": 1.1746008954,
				"z": 4.3188231632,
				"element": "H" 
			},
			{
				"x": -0.9810479844,
				"y": 0.8080669992,
				"z": 2.9057796595,
				"element": "H" 
			},
			{
				"x": -0.9538195116,
				"y": -1.1720348165,
				"z": 4.4270870596,
				"element": "H" 
			},
			{
				"x": 0.8042470102,
				"y": -1.1834399277,
				"z": 4.3978745395,
				"element": "H" 
			},
			{
				"x": 0.5524683492,
				"y": -0.9664758697,
				"z": -1.630365065,
				"element": "H" 
			},
			{
				"x": 1.4953057503,
				"y": -2.449874505,
				"z": -1.6785216551,
				"element": "H" 
			},
			{
				"x": -0.1571028539,
				"y": -3.9288022234,
				"z": -0.6952068404,
				"element": "H" 
			},
			{
				"x": -1.3511545569,
				"y": -4.7385748412,
				"z": 1.3364717146,
				"element": "H" 
			},
			{
				"x": -1.320260995,
				"y": -3.33729108,
				"z": 3.3966708214,
				"element": "H" 
			}
		],
		 "valence_orbital": [ 
			{
				"type": "occ",
				"energy": -0.31391,
				"method": "rhf"
			},
			{
				"type": "occ",
				"energy": -0.30308,
				"method": "rhf"
			},
			{
				"type": "occ",
				"energy": -0.27345,
				"method": "rhf"
			},
			{
				"type": "occ",
				"energy": -0.22094,
				"method": "rhf"
			},
			{
				"type": "occ",
				"energy": -0.17025,
				"method": "rhf"
			},
			{
				"type": "unocc",
				"energy": 0.01618,
				"method": "rhf"
			},
			{
				"type": "unocc",
				"energy": 0.03142,
				"method": "rhf"
			},
			{
				"type": "unocc",
				"energy": 0.08594,
				"method": "rhf"
			},
			{
				"type": "unocc",
				"energy": 0.10499,
				"method": "rhf"
			},
			{
				"type": "unocc",
				"energy": 0.11874,
				"method": "rhf"
			}
		],
		"cosmo_sigma_profile": { 
			"-0.025": 0.0,
			"-0.024": 0.0,
			"-0.023": 0.0,
			"-0.022": 0.0,
			"-0.021": 0.0,
			"-0.02": 0.0,
			"-0.019": 0.0,
			"-0.018": 0.0,
			"-0.017": 0.0,
			"-0.016": 0.0,
			"-0.015": 0.0,
			"-0.014": 0.0,
			"-0.013": 0.0,
			"-0.012": 0.0,
			"-0.011": 0.0,
			"-0.01": 0.0,
			"-0.009": 0.0,
			"-0.008": 0.0,
			"-0.007": 0.0,
			"-0.006": 0.0,
			"-0.005": 0.519869367363,
			"-0.004": 10.4217844497,
			"-0.003": 35.5864530323,
			"-0.002": 44.0225159847,
			"-0.001": 35.3376022279,
			"0.0": 25.1936410591,
			"0.001": 12.7471003019,
			"0.002": 8.04191383977,
			"0.003": 8.50099443461,
			"0.004": 6.24011364284,
			"0.005": 8.08602590112,
			"0.006": 6.70918299806,
			"0.007": 5.96459099492,
			"0.008": 5.64961894239,
			"0.009": 2.95426194591,
			"0.01": 0.00939966536461,
			"0.011": 0.0,
			"0.012": 0.0,
			"0.013": 0.0,
			"0.014": 0.0,
			"0.015": 0.0,
			"0.016": 0.0,
			"0.017": 0.0,
			"0.018": 0.0,
			"0.019": 0.0,
			"0.02": 0.0,
			"0.021": 0.0,
			"0.022": 0.0,
			"0.023": 0.0,
			"0.024": 0.0,
			"0.025": 0.0
		}
	}
}
