{
	 "smiles": "OC(=O)C1=CN(CCCC#N)N=N1", 
	 "Tm": 438.15, 
	 "num_atms": 21, 
	 "gaussian": { 
		 "optdone": 1, 
		 "sigma_profile": "yes", 
		 "theory": "DFT", 
		 "functional": "B3LYP", 
		 "basiset": "6-31G**", 
		 "properties": { 
			 "R2extent": 3489.2593, 
			 "electric_dipole_moment_norm": 5.36885483693, 
			 "electric_quadrupole_moment_norm": 26.977652707, 
			 "total_energy": -640.978014835, 
			 "HOMO_LUMO_gap": 0.2352, 
			 "cosmo_polarized_energy": -24.04, 
			 "cosmo_cavitation_energy": 27.48, 
			 "cosmo_dispersion_energy": -19.14, 
			 "cosmo_repulsion_energy": 1.54, 
			 "cosmo_total_nonelectrostatic_energy": 9.89, 
			 "SMD_solvation_energy": 6.37 
		},
		"coords": [
			{
				"x": -0.6387521239,
				"y": 4.5203034368,
				"z": -0.0438309657,
				"element": "O" 
			},
			{
				"x": -1.42435588,
				"y": 3.4630446429,
				"z": 0.242404689,
				"element": "C" 
			},
			{
				"x": -2.3940867716,
				"y": 3.5431072139,
				"z": 0.960002456,
				"element": "O" 
			},
			{
				"x": -0.9916575779,
				"y": 2.1994173597,
				"z": -0.3998926699,
				"element": "C" 
			},
			{
				"x": -1.5569582984,
				"y": 0.9424549491,
				"z": -0.3345206799,
				"element": "C" 
			},
			{
				"x": -0.760202621,
				"y": 0.1819430817,
				"z": -1.1195446855,
				"element": "N" 
			},
			{
				"x": -0.835783521,
				"y": -1.2506192976,
				"z": -1.4048130483,
				"element": "C" 
			},
			{
				"x": -0.0078262668,
				"y": -2.1074009414,
				"z": -0.4382341371,
				"element": "C" 
			},
			{
				"x": 1.512409379,
				"y": -1.8840323126,
				"z": -0.58066713,
				"element": "C" 
			},
			{
				"x": 2.2730666546,
				"y": -2.7128043936,
				"z": 0.357063604,
				"element": "C" 
			},
			{
				"x": 2.8563229423,
				"y": -3.3793541105,
				"z": 1.1068844178,
				"element": "N" 
			},
			{
				"x": 0.2521023877,
				"y": 0.9220358759,
				"z": -1.6450380491,
				"element": "N" 
			},
			{
				"x": 0.1057466836,
				"y": 2.1378069074,
				"z": -1.2066477461,
				"element": "N" 
			},
			{
				"x": 0.0759647765,
				"y": 4.2257060422,
				"z": -0.6371444881,
				"element": "H" 
			},
			{
				"x": -2.4264416047,
				"y": 0.5690646136,
				"z": 0.1827202436,
				"element": "H" 
			},
			{
				"x": -1.8889786168,
				"y": -1.5375819583,
				"z": -1.3556286388,
				"element": "H" 
			},
			{
				"x": -0.4967254364,
				"y": -1.380338189,
				"z": -2.4358399902,
				"element": "H" 
			},
			{
				"x": -0.2413974658,
				"y": -3.1584235825,
				"z": -0.6388691293,
				"element": "H" 
			},
			{
				"x": -0.3178501989,
				"y": -1.9046257108,
				"z": 0.5923393016,
				"element": "H" 
			},
			{
				"x": 1.7673614788,
				"y": -0.8322371268,
				"z": -0.4141495676,
				"element": "H" 
			},
			{
				"x": 1.8375420808,
				"y": -2.1225665001,
				"z": -1.6003937865,
				"element": "H" 
			}
		],
		 "valence_orbital": [ 
			{
				"type": "occ",
				"energy": -0.32773,
				"method": "rhf"
			},
			{
				"type": "occ",
				"energy": -0.32143,
				"method": "rhf"
			},
			{
				"type": "occ",
				"energy": -0.31129,
				"method": "rhf"
			},
			{
				"type": "occ",
				"energy": -0.29213,
				"method": "rhf"
			},
			{
				"type": "occ",
				"energy": -0.2813,
				"method": "rhf"
			},
			{
				"type": "unocc",
				"energy": -0.0461,
				"method": "rhf"
			},
			{
				"type": "unocc",
				"energy": -0.03907,
				"method": "rhf"
			},
			{
				"type": "unocc",
				"energy": 0.0214,
				"method": "rhf"
			},
			{
				"type": "unocc",
				"energy": 0.02876,
				"method": "rhf"
			},
			{
				"type": "unocc",
				"energy": 0.05491,
				"method": "rhf"
			}
		],
		"cosmo_sigma_profile": { 
			"-0.025": 0.0,
			"-0.024": 0.0,
			"-0.023": 0.0,
			"-0.022": 0.0,
			"-0.021": 0.0,
			"-0.02": 0.0,
			"-0.019": 0.0,
			"-0.018": 0.0,
			"-0.017": 0.0,
			"-0.016": 0.0,
			"-0.015": 0.356367836841,
			"-0.014": 0.860851850496,
			"-0.013": 0.704791536244,
			"-0.012": 1.78395650719,
			"-0.011": 3.3674953753,
			"-0.01": 3.46479009871,
			"-0.009": 5.69523040688,
			"-0.008": 10.6248398312,
			"-0.007": 16.3122233838,
			"-0.006": 21.2837446254,
			"-0.005": 14.2034801253,
			"-0.004": 12.4588889801,
			"-0.003": 10.1950426841,
			"-0.002": 11.7756964519,
			"-0.001": 10.8701270925,
			"0.0": 4.42217177077,
			"0.001": 4.82633182528,
			"0.002": 5.06082366265,
			"0.003": 7.13844024999,
			"0.004": 5.47170275781,
			"0.005": 5.06081857816,
			"0.006": 6.88416808918,
			"0.007": 7.14511426982,
			"0.008": 8.70824585101,
			"0.009": 11.3977635081,
			"0.01": 10.4601509312,
			"0.011": 8.85889820986,
			"0.012": 7.12739880199,
			"0.013": 3.17197326867,
			"0.014": 0.352649107644,
			"0.015": 0.0,
			"0.016": 0.0,
			"0.017": 0.0,
			"0.018": 0.0,
			"0.019": 0.0,
			"0.02": 0.0,
			"0.021": 0.0,
			"0.022": 0.0,
			"0.023": 0.0,
			"0.024": 0.0,
			"0.025": 0.0
		}
	}
}
