{
	 "smiles": "OCC(O)COC(=O)C1=CC=CC=C1NC1=CC=NC2=C1C=CC(Cl)=C2", 
	 "Tm": 443.15, 
	 "num_atms": 43, 
	 "gaussian": { 
		 "optdone": 1, 
		 "sigma_profile": "yes", 
		 "theory": "DFT", 
		 "functional": "B3LYP", 
		 "basiset": "6-31G**", 
		 "properties": { 
			 "R2extent": 15990.7282, 
			 "electric_dipole_moment_norm": 4.32341682469, 
			 "electric_quadrupole_moment_norm": 13.9060420606, 
			 "total_energy": -1604.8683617, 
			 "HOMO_LUMO_gap": 0.15097, 
			 "cosmo_polarized_energy": -17.85, 
			 "cosmo_cavitation_energy": 49.15, 
			 "cosmo_dispersion_energy": -34.86, 
			 "cosmo_repulsion_energy": 2.65, 
			 "cosmo_total_nonelectrostatic_energy": 16.94, 
			 "SMD_solvation_energy": 6.81 
		},
		"coords": [
			{
				"x": 7.4256601006,
				"y": -0.6718473149,
				"z": -0.5336810779,
				"element": "O" 
			},
			{
				"x": 7.0909935439,
				"y": -1.4422746185,
				"z": -1.6793815581,
				"element": "C" 
			},
			{
				"x": 5.8380969461,
				"y": -0.8294769711,
				"z": -2.2968350313,
				"element": "C" 
			},
			{
				"x": 5.5795887329,
				"y": -1.5621894477,
				"z": -3.4852591128,
				"element": "O" 
			},
			{
				"x": 4.6576472495,
				"y": -0.8964653839,
				"z": -1.3391378482,
				"element": "C" 
			},
			{
				"x": 3.5465567807,
				"y": -0.2731418164,
				"z": -2.0281553852,
				"element": "O" 
			},
			{
				"x": 2.3434202761,
				"y": -0.3439582374,
				"z": -1.4153802241,
				"element": "C" 
			},
			{
				"x": 2.2118348386,
				"y": -0.9161875115,
				"z": -0.3365200996,
				"element": "O" 
			},
			{
				"x": 1.2579243264,
				"y": 0.3083296937,
				"z": -2.1741424296,
				"element": "C" 
			},
			{
				"x": 1.5144645648,
				"y": 0.8524022807,
				"z": -3.4473900885,
				"element": "C" 
			},
			{
				"x": 0.5103539777,
				"y": 1.4249839404,
				"z": -4.2112677486,
				"element": "C" 
			},
			{
				"x": -0.7951600529,
				"y": 1.4447272489,
				"z": -3.7031165628,
				"element": "C" 
			},
			{
				"x": -1.0835311223,
				"y": 0.9237159424,
				"z": -2.4510680737,
				"element": "C" 
			},
			{
				"x": -0.0683067545,
				"y": 0.3645499646,
				"z": -1.6445089466,
				"element": "C" 
			},
			{
				"x": -0.3334302032,
				"y": -0.1388999573,
				"z": -0.3844391873,
				"element": "N" 
			},
			{
				"x": -1.5737485575,
				"y": -0.1896656114,
				"z": 0.2782920308,
				"element": "C" 
			},
			{
				"x": -2.0730847123,
				"y": -1.410918461,
				"z": 0.6945409433,
				"element": "C" 
			},
			{
				"x": -3.2974547939,
				"y": -1.4624910123,
				"z": 1.39638677,
				"element": "C" 
			},
			{
				"x": -4.0350577505,
				"y": -0.4101362027,
				"z": 1.6899288309,
				"element": "N" 
			},
			{
				"x": -3.5492689497,
				"y": 0.8107109029,
				"z": 1.3206939847,
				"element": "C" 
			},
			{
				"x": -2.3064514617,
				"y": 0.9904806441,
				"z": 0.6300884725,
				"element": "C" 
			},
			{
				"x": -1.8507847699,
				"y": 2.3113819206,
				"z": 0.3779163203,
				"element": "C" 
			},
			{
				"x": -2.6028436008,
				"y": 3.403965103,
				"z": 0.7443958135,
				"element": "C" 
			},
			{
				"x": -3.8499162768,
				"y": 3.2087962767,
				"z": 1.383823242,
				"element": "C" 
			},
			{
				"x": -4.7955087472,
				"y": 4.6223094674,
				"z": 1.8250652326,
				"element": "Cl" 
			},
			{
				"x": -4.3193584561,
				"y": 1.9512675104,
				"z": 1.6750910614,
				"element": "C" 
			},
			{
				"x": 8.2010113283,
				"y": -1.0669220598,
				"z": -0.1181200571,
				"element": "H" 
			},
			{
				"x": 7.8861712371,
				"y": -1.4290269308,
				"z": -2.4383891804,
				"element": "H" 
			},
			{
				"x": 6.8871558857,
				"y": -2.4945634161,
				"z": -1.4269843368,
				"element": "H" 
			},
			{
				"x": 6.0461124929,
				"y": 0.2290663029,
				"z": -2.5202190998,
				"element": "H" 
			},
			{
				"x": 4.7314329253,
				"y": -1.2514919592,
				"z": -3.8285996505,
				"element": "H" 
			},
			{
				"x": 4.3997227325,
				"y": -1.9337654667,
				"z": -1.1061233474,
				"element": "H" 
			},
			{
				"x": 4.864841449,
				"y": -0.3625222779,
				"z": -0.4093103631,
				"element": "H" 
			},
			{
				"x": 2.529133083,
				"y": 0.8139331481,
				"z": -3.8247884503,
				"element": "H" 
			},
			{
				"x": 0.7308259499,
				"y": 1.8396635635,
				"z": -5.1890935786,
				"element": "H" 
			},
			{
				"x": -1.6023809069,
				"y": 1.8665305654,
				"z": -4.2955246836,
				"element": "H" 
			},
			{
				"x": -2.1025889097,
				"y": 0.9359767941,
				"z": -2.084660408,
				"element": "H" 
			},
			{
				"x": 0.4224483381,
				"y": -0.7124531674,
				"z": -0.0118825153,
				"element": "H" 
			},
			{
				"x": -1.5406861298,
				"y": -2.3269350187,
				"z": 0.4590659497,
				"element": "H" 
			},
			{
				"x": -3.6888345954,
				"y": -2.4302143258,
				"z": 1.7082108821,
				"element": "H" 
			},
			{
				"x": -0.8900432853,
				"y": 2.4599850366,
				"z": -0.1005982982,
				"element": "H" 
			},
			{
				"x": -2.2487608803,
				"y": 4.4113255487,
				"z": 0.5566448894,
				"element": "H" 
			},
			{
				"x": -5.2617958424,
				"y": 1.7921453136,
				"z": 2.1850329202,
				"element": "H" 
			}
		],
		 "valence_orbital": [ 
			{
				"type": "occ",
				"energy": -0.26751,
				"method": "rhf"
			},
			{
				"type": "occ",
				"energy": -0.26159,
				"method": "rhf"
			},
			{
				"type": "occ",
				"energy": -0.25477,
				"method": "rhf"
			},
			{
				"type": "occ",
				"energy": -0.23835,
				"method": "rhf"
			},
			{
				"type": "occ",
				"energy": -0.21412,
				"method": "rhf"
			},
			{
				"type": "unocc",
				"energy": -0.06315,
				"method": "rhf"
			},
			{
				"type": "unocc",
				"energy": -0.05331,
				"method": "rhf"
			},
			{
				"type": "unocc",
				"energy": -0.02564,
				"method": "rhf"
			},
			{
				"type": "unocc",
				"energy": -0.00118,
				"method": "rhf"
			},
			{
				"type": "unocc",
				"energy": 0.01584,
				"method": "rhf"
			}
		],
		"cosmo_sigma_profile": { 
			"-0.025": 0.0,
			"-0.024": 0.0,
			"-0.023": 0.0,
			"-0.022": 0.0,
			"-0.021": 0.0,
			"-0.02": 0.0,
			"-0.019": 0.0,
			"-0.018": 0.0,
			"-0.017": 0.0257668819187,
			"-0.016": 1.00911497235,
			"-0.015": 0.907964934692,
			"-0.014": 1.32376469067,
			"-0.013": 1.44438248127,
			"-0.012": 1.24880581701,
			"-0.011": 1.55994450245,
			"-0.01": 1.82783838877,
			"-0.009": 1.80095265774,
			"-0.008": 4.3932258754,
			"-0.007": 11.2332222276,
			"-0.006": 18.1125479586,
			"-0.005": 24.3492963187,
			"-0.004": 28.8596292974,
			"-0.003": 28.8944378155,
			"-0.002": 27.5743917732,
			"-0.001": 26.0016376489,
			"0.0": 31.3429081875,
			"0.001": 39.2102044208,
			"0.002": 37.9691837516,
			"0.003": 25.9689117094,
			"0.004": 24.028407897,
			"0.005": 13.3989671187,
			"0.006": 5.99760796392,
			"0.007": 4.7495885365,
			"0.008": 4.97416277882,
			"0.009": 4.71337730809,
			"0.01": 5.48700933929,
			"0.011": 5.28885151951,
			"0.012": 4.09363010956,
			"0.013": 3.89754671394,
			"0.014": 1.45640357701,
			"0.015": 0.468615986756,
			"0.016": 0.585585646639,
			"0.017": 0.0,
			"0.018": 0.0,
			"0.019": 0.0,
			"0.02": 0.0,
			"0.021": 0.0,
			"0.022": 0.0,
			"0.023": 0.0,
			"0.024": 0.0,
			"0.025": 0.0
		}
	}
}
