{
	 "smiles": "CC[C@@]1(O)CC[C@@]2(C)[C@@H](CCC3C4CCC5(OCCO5)[C@@]4(C)CCC23)C1", 
	 "Tm": 400.15, 
	 "num_atms": 64, 
	 "gaussian": { 
		 "optdone": 1, 
		 "sigma_profile": "yes", 
		 "theory": "DFT", 
		 "functional": "B3LYP", 
		 "basiset": "6-31G**", 
		 "properties": { 
			 "R2extent": 12317.8319, 
			 "electric_dipole_moment_norm": 0.886864335736, 
			 "electric_quadrupole_moment_norm": 15.7494283665, 
			 "total_energy": -1125.03049403, 
			 "HOMO_LUMO_gap": 0.30603, 
			 "cosmo_polarized_energy": -10.42, 
			 "cosmo_cavitation_energy": 53.13, 
			 "cosmo_dispersion_energy": -36.96, 
			 "cosmo_repulsion_energy": 2.71, 
			 "cosmo_total_nonelectrostatic_energy": 18.88, 
			 "SMD_solvation_energy": 7.37 
		},
		"coords": [
			{
				"x": 5.4909941867,
				"y": -2.4152879746,
				"z": 3.1954836619,
				"element": "C" 
			},
			{
				"x": 4.0933226162,
				"y": -2.5925829075,
				"z": 3.8011369424,
				"element": "C" 
			},
			{
				"x": 2.8993873458,
				"y": -1.9873352709,
				"z": 3.0296367201,
				"element": "C" 
			},
			{
				"x": 1.7138457984,
				"y": -2.2183317328,
				"z": 3.8171540448,
				"element": "O" 
			},
			{
				"x": 2.9935397695,
				"y": -0.4575464266,
				"z": 2.907146883,
				"element": "C" 
			},
			{
				"x": 1.8095976871,
				"y": 0.1272780508,
				"z": 2.1203631029,
				"element": "C" 
			},
			{
				"x": 1.6599029087,
				"y": -0.4661902909,
				"z": 0.6961589537,
				"element": "C" 
			},
			{
				"x": 2.9008776027,
				"y": -0.0570067607,
				"z": -0.1402204715,
				"element": "C" 
			},
			{
				"x": 1.5492785775,
				"y": -2.0132848061,
				"z": 0.8378261494,
				"element": "C" 
			},
			{
				"x": 1.3672545274,
				"y": -2.6938163174,
				"z": -0.5242496384,
				"element": "C" 
			},
			{
				"x": 0.1071487107,
				"y": -2.1709923255,
				"z": -1.2164693707,
				"element": "C" 
			},
			{
				"x": 0.0484250206,
				"y": -0.6334006423,
				"z": -1.3676431187,
				"element": "C" 
			},
			{
				"x": -1.3661843348,
				"y": -0.2431551067,
				"z": -1.8517258155,
				"element": "C" 
			},
			{
				"x": -1.7062051947,
				"y": -0.3993407327,
				"z": -3.3476630224,
				"element": "C" 
			},
			{
				"x": -3.0019512242,
				"y": 0.4399759733,
				"z": -3.5289582117,
				"element": "C" 
			},
			{
				"x": -3.2263820959,
				"y": 1.1862801109,
				"z": -2.1801652976,
				"element": "C" 
			},
			{
				"x": -4.1980491949,
				"y": 0.4556379316,
				"z": -1.4097396947,
				"element": "O" 
			},
			{
				"x": -5.2604431035,
				"y": 1.3363672645,
				"z": -1.0565193309,
				"element": "C" 
			},
			{
				"x": -5.151890418,
				"y": 2.4322294939,
				"z": -2.1127913788,
				"element": "C" 
			},
			{
				"x": -3.7474422085,
				"y": 2.5000010202,
				"z": -2.3259119716,
				"element": "O" 
			},
			{
				"x": -1.8275877014,
				"y": 1.1885316994,
				"z": -1.4926601569,
				"element": "C" 
			},
			{
				"x": -0.9807958844,
				"y": 2.2983299675,
				"z": -2.1579219061,
				"element": "C" 
			},
			{
				"x": -1.843744128,
				"y": 1.3413181489,
				"z": 0.0507311809,
				"element": "C" 
			},
			{
				"x": -0.891646097,
				"y": 0.345974954,
				"z": 0.7721858762,
				"element": "C" 
			},
			{
				"x": 0.4039122835,
				"y": 0.1291441748,
				"z": -0.0421558929,
				"element": "C" 
			},
			{
				"x": 2.7191772176,
				"y": -2.6190480997,
				"z": 1.6346180833,
				"element": "C" 
			},
			{
				"x": 5.7634263515,
				"y": -1.3596612379,
				"z": 3.0984281029,
				"element": "H" 
			},
			{
				"x": 6.2437142235,
				"y": -2.8870198349,
				"z": 3.8355173218,
				"element": "H" 
			},
			{
				"x": 5.5731330369,
				"y": -2.8745092237,
				"z": 2.2051727035,
				"element": "H" 
			},
			{
				"x": 3.8956420462,
				"y": -3.6682168241,
				"z": 3.9241581877,
				"element": "H" 
			},
			{
				"x": 4.0714350473,
				"y": -2.1626803531,
				"z": 4.8099019113,
				"element": "H" 
			},
			{
				"x": 1.588717401,
				"y": -3.1750862821,
				"z": 3.8796053547,
				"element": "H" 
			},
			{
				"x": 3.0109385297,
				"y": -0.0315187507,
				"z": 3.9172909999,
				"element": "H" 
			},
			{
				"x": 3.9436261058,
				"y": -0.1906922776,
				"z": 2.4334666074,
				"element": "H" 
			},
			{
				"x": 1.908129906,
				"y": 1.219561701,
				"z": 2.059068471,
				"element": "H" 
			},
			{
				"x": 0.9075769224,
				"y": -0.0811351159,
				"z": 2.7004774453,
				"element": "H" 
			},
			{
				"x": 3.0299366495,
				"y": 1.0307724795,
				"z": -0.1043789211,
				"element": "H" 
			},
			{
				"x": 3.8279663973,
				"y": -0.504305448,
				"z": 0.227140071,
				"element": "H" 
			},
			{
				"x": 2.80571949,
				"y": -0.3368816493,
				"z": -1.1922396523,
				"element": "H" 
			},
			{
				"x": 0.640106384,
				"y": -2.2066306764,
				"z": 1.4249991977,
				"element": "H" 
			},
			{
				"x": 1.2873469993,
				"y": -3.7807126599,
				"z": -0.3882418981,
				"element": "H" 
			},
			{
				"x": 2.252346054,
				"y": -2.5318582272,
				"z": -1.1536320513,
				"element": "H" 
			},
			{
				"x": -0.7616208149,
				"y": -2.4966718363,
				"z": -0.6267945797,
				"element": "H" 
			},
			{
				"x": -0.009495788,
				"y": -2.6336053661,
				"z": -2.2045650636,
				"element": "H" 
			},
			{
				"x": 0.7781401564,
				"y": -0.3412536384,
				"z": -2.1352737501,
				"element": "H" 
			},
			{
				"x": -2.0696404704,
				"y": -0.8936090915,
				"z": -1.3134067015,
				"element": "H" 
			},
			{
				"x": -0.8952919331,
				"y": -0.006419389,
				"z": -3.9715835041,
				"element": "H" 
			},
			{
				"x": -1.8479297338,
				"y": -1.4457979931,
				"z": -3.6335056839,
				"element": "H" 
			},
			{
				"x": -2.9069776265,
				"y": 1.1747277639,
				"z": -4.3329323167,
				"element": "H" 
			},
			{
				"x": -3.8736033126,
				"y": -0.18217946,
				"z": -3.7441570341,
				"element": "H" 
			},
			{
				"x": -6.2036836783,
				"y": 0.7824998931,
				"z": -1.0857296015,
				"element": "H" 
			},
			{
				"x": -5.1141902717,
				"y": 1.7444805774,
				"z": -0.0459721326,
				"element": "H" 
			},
			{
				"x": -5.6828442879,
				"y": 2.1553395087,
				"z": -3.0359266669,
				"element": "H" 
			},
			{
				"x": -5.4999761598,
				"y": 3.4131748379,
				"z": -1.7789785505,
				"element": "H" 
			},
			{
				"x": -0.957868506,
				"y": 2.2123412741,
				"z": -3.2482548558,
				"element": "H" 
			},
			{
				"x": 0.052949828,
				"y": 2.284042453,
				"z": -1.8060556453,
				"element": "H" 
			},
			{
				"x": -1.4071694085,
				"y": 3.2760759914,
				"z": -1.9191145371,
				"element": "H" 
			},
			{
				"x": -1.5584829081,
				"y": 2.3655672612,
				"z": 0.3185084995,
				"element": "H" 
			},
			{
				"x": -2.8584945818,
				"y": 1.1850083999,
				"z": 0.4277526108,
				"element": "H" 
			},
			{
				"x": -0.6765452933,
				"y": 0.7464451475,
				"z": 1.7653215263,
				"element": "H" 
			},
			{
				"x": -1.4033952539,
				"y": -0.6104916964,
				"z": 0.937014159,
				"element": "H" 
			},
			{
				"x": 0.7262180155,
				"y": 1.1373033748,
				"z": -0.3315741308,
				"element": "H" 
			},
			{
				"x": 2.5516610719,
				"y": -3.7004924979,
				"z": 1.7551980249,
				"element": "H" 
			},
			{
				"x": 3.6506367453,
				"y": -2.5259605293,
				"z": 1.0639497618,
				"element": "H" 
			}
		],
		 "valence_orbital": [ 
			{
				"type": "occ",
				"energy": -0.26855,
				"method": "rhf"
			},
			{
				"type": "occ",
				"energy": -0.26405,
				"method": "rhf"
			},
			{
				"type": "occ",
				"energy": -0.26046,
				"method": "rhf"
			},
			{
				"type": "occ",
				"energy": -0.25189,
				"method": "rhf"
			},
			{
				"type": "occ",
				"energy": -0.23639,
				"method": "rhf"
			},
			{
				"type": "unocc",
				"energy": 0.06964,
				"method": "rhf"
			},
			{
				"type": "unocc",
				"energy": 0.08192,
				"method": "rhf"
			},
			{
				"type": "unocc",
				"energy": 0.08742,
				"method": "rhf"
			},
			{
				"type": "unocc",
				"energy": 0.0921,
				"method": "rhf"
			},
			{
				"type": "unocc",
				"energy": 0.09547,
				"method": "rhf"
			}
		],
		"cosmo_sigma_profile": { 
			"-0.025": 0.0,
			"-0.024": 0.0,
			"-0.023": 0.0,
			"-0.022": 0.0,
			"-0.021": 0.0,
			"-0.02": 0.0,
			"-0.019": 0.0,
			"-0.018": 0.0,
			"-0.017": 0.0,
			"-0.016": 0.0,
			"-0.015": 0.0183902239648,
			"-0.014": 0.574688687348,
			"-0.013": 0.700005810239,
			"-0.012": 1.15838305037,
			"-0.011": 0.770154705865,
			"-0.01": 0.741925979878,
			"-0.009": 1.40954680453,
			"-0.008": 1.04878754028,
			"-0.007": 1.18421314048,
			"-0.006": 3.6669401789,
			"-0.005": 9.1965668477,
			"-0.004": 14.9224713023,
			"-0.003": 29.9819807603,
			"-0.002": 54.394044843,
			"-0.001": 71.2047778393,
			"0.0": 73.3362645799,
			"0.001": 61.377592217,
			"0.002": 31.114713866,
			"0.003": 7.22592347634,
			"0.004": 5.79440881635,
			"0.005": 4.50974526312,
			"0.006": 5.35266613644,
			"0.007": 4.35312604659,
			"0.008": 4.45718074055,
			"0.009": 3.84864874566,
			"0.01": 3.8325931931,
			"0.011": 3.28109335184,
			"0.012": 2.25721651971,
			"0.013": 1.81333212743,
			"0.014": 1.15038276232,
			"0.015": 0.751970965775,
			"0.016": 0.023548325472,
			"0.017": 0.0,
			"0.018": 0.0,
			"0.019": 0.0,
			"0.02": 0.0,
			"0.021": 0.0,
			"0.022": 0.0,
			"0.023": 0.0,
			"0.024": 0.0,
			"0.025": 0.0
		}
	}
}
