{
	 "smiles": "CC1=CC(I)=CC(C)=C1O", 
	 "Tm": 373.15, 
	 "num_atms": 19, 
	 "gaussian": { 
		 "optdone": 1, 
		 "sigma_profile": "no", 
		 "theory": "DFT", 
		 "functional": "B3LYP", 
		 "basiset": "6-31G**", 
		 "properties": { 
			 "R2extent": 1771.186, 
			 "electric_dipole_moment_norm": 2.98200936954, 
			 "electric_quadrupole_moment_norm": 5.97184857812, 
			 "total_energy": -396.896015382, 
			 "HOMO_LUMO_gap": 0.18328, 
			 "cosmo_polarized_energy": -99321.25, 
			 "cosmo_cavitation_energy": 25.33, 
			 "cosmo_dispersion_energy": -20.12, 
			 "cosmo_repulsion_energy": 1.6, 
			 "cosmo_total_nonelectrostatic_energy": 6.81, 
			 "SMD_solvation_energy": 3.7 
		},
		"coords": [
			{
				"x": -1.7481388024,
				"y": 0.0834877302,
				"z": 2.9336499442,
				"element": "C" 
			},
			{
				"x": -1.2192224229,
				"y": 0.197680823,
				"z": 1.5267706727,
				"element": "C" 
			},
			{
				"x": -1.3081861841,
				"y": 1.3894015781,
				"z": 0.8030985095,
				"element": "C" 
			},
			{
				"x": -0.8093976792,
				"y": 1.46436227,
				"z": -0.4976938667,
				"element": "C" 
			},
			{
				"x": -0.9570782073,
				"y": 3.2874406332,
				"z": -1.5762361229,
				"element": "I" 
			},
			{
				"x": -0.215586915,
				"y": 0.3568118189,
				"z": -1.0972112788,
				"element": "C" 
			},
			{
				"x": -0.1121134548,
				"y": -0.8507296873,
				"z": -0.3970866974,
				"element": "C" 
			},
			{
				"x": 0.5284518804,
				"y": -2.0650718338,
				"z": -1.0283079387,
				"element": "C" 
			},
			{
				"x": -0.618005619,
				"y": -0.9135564934,
				"z": 0.9117657041,
				"element": "C" 
			},
			{
				"x": -0.5538483352,
				"y": -2.0587762374,
				"z": 1.6603590812,
				"element": "O" 
			},
			{
				"x": -2.5153981181,
				"y": -0.6950949123,
				"z": 3.0053672068,
				"element": "H" 
			},
			{
				"x": -2.1832866155,
				"y": 1.0292273561,
				"z": 3.2660088827,
				"element": "H" 
			},
			{
				"x": -0.953089974,
				"y": -0.196879502,
				"z": 3.6331599654,
				"element": "H" 
			},
			{
				"x": -1.7699979891,
				"y": 2.2550497639,
				"z": 1.2659038489,
				"element": "H" 
			},
			{
				"x": 0.1714128487,
				"y": 0.4178551994,
				"z": -2.1088052861,
				"element": "H" 
			},
			{
				"x": 0.8656604945,
				"y": -1.8442962451,
				"z": -2.0434520123,
				"element": "H" 
			},
			{
				"x": -0.1703604699,
				"y": -2.9099646742,
				"z": -1.0983779203,
				"element": "H" 
			},
			{
				"x": 1.4075045861,
				"y": -2.4069291205,
				"z": -0.4648534859,
				"element": "H" 
			},
			{
				"x": -0.1260190231,
				"y": -2.7564184669,
				"z": 1.1488407935,
				"element": "H" 
			}
		],
		 "valence_orbital": [ 
			{
				"type": "occ",
				"energy": -0.33552,
				"method": "rhf"
			},
			{
				"type": "occ",
				"energy": -0.27094,
				"method": "rhf"
			},
			{
				"type": "occ",
				"energy": -0.26144,
				"method": "rhf"
			},
			{
				"type": "occ",
				"energy": -0.24839,
				"method": "rhf"
			},
			{
				"type": "occ",
				"energy": -0.21463,
				"method": "rhf"
			},
			{
				"type": "unocc",
				"energy": -0.03135,
				"method": "rhf"
			},
			{
				"type": "unocc",
				"energy": -0.00589,
				"method": "rhf"
			},
			{
				"type": "unocc",
				"energy": -0.00085,
				"method": "rhf"
			},
			{
				"type": "unocc",
				"energy": 0.04502,
				"method": "rhf"
			},
			{
				"type": "unocc",
				"energy": 0.05361,
				"method": "rhf"
			}
		],
		"cosmo_sigma_profile": { 
			"0.0": 0.0,
			"0.0": 0.0,
			"0.0": 0.0,
			"0.0": 0.0,
			"0.0": 0.0,
			"0.0": 0.0,
			"0.0": 0.0,
			"0.0": 0.0,
			"0.0": 0.0,
			"0.0": 0.0,
			"0.0": 0.0,
			"0.0": 0.0,
			"0.0": 0.0,
			"0.0": 0.0,
			"0.0": 0.0,
			"0.0": 0.0,
			"0.0": 0.0,
			"0.0": 0.0,
			"0.0": 0.0,
			"0.0": 0.0,
			"0.0": 0.0,
			"0.0": 0.0,
			"0.0": 0.0,
			"0.0": 0.0,
			"0.0": 0.0,
			"0.0": 0.0,
			"0.0": 0.0,
			"0.0": 0.0,
			"0.0": 0.0,
			"0.0": 0.0,
			"0.0": 0.0,
			"0.0": 0.0,
			"0.0": 0.0,
			"0.0": 0.0,
			"0.0": 0.0,
			"0.0": 0.0,
			"0.0": 0.0,
			"0.0": 0.0,
			"0.0": 0.0,
			"0.0": 0.0,
			"0.0": 0.0,
			"0.0": 0.0,
			"0.0": 0.0,
			"0.0": 0.0,
			"0.0": 0.0,
			"0.0": 0.0,
			"0.0": 0.0,
			"0.0": 0.0,
			"0.0": 0.0,
			"0.0": 0.0,
			"0.0": 0.0
		}
	}
}
