{
	 "smiles": "O=CC1=CC2=CC=CC=C2S1", 
	 "Tm": 304.15, 
	 "num_atms": 17, 
	 "gaussian": { 
		 "optdone": 1, 
		 "sigma_profile": "yes", 
		 "theory": "DFT", 
		 "functional": "B3LYP", 
		 "basiset": "6-31G**", 
		 "properties": { 
			 "R2extent": 3039.9522, 
			 "electric_dipole_moment_norm": 4.21231036487, 
			 "electric_quadrupole_moment_norm": 15.6209716468, 
			 "total_energy": -819.977301539, 
			 "HOMO_LUMO_gap": 0.15545, 
			 "cosmo_polarized_energy": -9.31, 
			 "cosmo_cavitation_energy": 23.22, 
			 "cosmo_dispersion_energy": -17.69, 
			 "cosmo_repulsion_energy": 1.35, 
			 "cosmo_total_nonelectrostatic_energy": 6.88, 
			 "SMD_solvation_energy": 4.52 
		},
		"coords": [
			{
				"x": -1.7028585861,
				"y": 3.2943020024,
				"z": -2.5780120199,
				"element": "O" 
			},
			{
				"x": -0.6550274093,
				"y": 2.7364396493,
				"z": -2.3043181677,
				"element": "C" 
			},
			{
				"x": -0.2997635017,
				"y": 2.2438562166,
				"z": -0.9763560307,
				"element": "C" 
			},
			{
				"x": 0.8640284763,
				"y": 1.6124166726,
				"z": -0.6242564104,
				"element": "C" 
			},
			{
				"x": 0.9116568569,
				"y": 1.2500942686,
				"z": 0.7597214068,
				"element": "C" 
			},
			{
				"x": 1.9349114242,
				"y": 0.5950808615,
				"z": 1.4754362232,
				"element": "C" 
			},
			{
				"x": 1.7655539448,
				"y": 0.3423023703,
				"z": 2.8269608786,
				"element": "C" 
			},
			{
				"x": 0.5839170714,
				"y": 0.7330685028,
				"z": 3.4886059192,
				"element": "C" 
			},
			{
				"x": -0.4404637109,
				"y": 1.3799558522,
				"z": 2.8081874667,
				"element": "C" 
			},
			{
				"x": -0.2737227319,
				"y": 1.6375240026,
				"z": 1.4420365651,
				"element": "C" 
			},
			{
				"x": -1.4126875422,
				"y": 2.4334755589,
				"z": 0.3729445076,
				"element": "S" 
			},
			{
				"x": 0.1273434874,
				"y": 2.5591814611,
				"z": -3.0738753505,
				"element": "H" 
			},
			{
				"x": 1.6629298294,
				"y": 1.4119751883,
				"z": -1.3310400789,
				"element": "H" 
			},
			{
				"x": 2.8450006321,
				"y": 0.2945683291,
				"z": 0.9640718996,
				"element": "H" 
			},
			{
				"x": 2.5485563019,
				"y": -0.1615228849,
				"z": 3.3852736855,
				"element": "H" 
			},
			{
				"x": 0.4713819392,
				"y": 0.525336319,
				"z": 4.5485497254,
				"element": "H" 
			},
			{
				"x": -1.3477564816,
				"y": 1.6780456297,
				"z": 3.3241697804,
				"element": "H" 
			}
		],
		 "valence_orbital": [ 
			{
				"type": "occ",
				"energy": -0.33437,
				"method": "rhf"
			},
			{
				"type": "occ",
				"energy": -0.29777,
				"method": "rhf"
			},
			{
				"type": "occ",
				"energy": -0.26131,
				"method": "rhf"
			},
			{
				"type": "occ",
				"energy": -0.24868,
				"method": "rhf"
			},
			{
				"type": "occ",
				"energy": -0.23309,
				"method": "rhf"
			},
			{
				"type": "unocc",
				"energy": -0.07764,
				"method": "rhf"
			},
			{
				"type": "unocc",
				"energy": -0.0152,
				"method": "rhf"
			},
			{
				"type": "unocc",
				"energy": 0.00665,
				"method": "rhf"
			},
			{
				"type": "unocc",
				"energy": 0.01595,
				"method": "rhf"
			},
			{
				"type": "unocc",
				"energy": 0.06602,
				"method": "rhf"
			}
		],
		"cosmo_sigma_profile": { 
			"-0.025": 0.0,
			"-0.024": 0.0,
			"-0.023": 0.0,
			"-0.022": 0.0,
			"-0.021": 0.0,
			"-0.02": 0.0,
			"-0.019": 0.0,
			"-0.018": 0.0,
			"-0.017": 0.0,
			"-0.016": 0.0,
			"-0.015": 0.0,
			"-0.014": 0.0,
			"-0.013": 0.0,
			"-0.012": 0.0,
			"-0.011": 0.0,
			"-0.01": 0.0,
			"-0.009": 1.65645030281,
			"-0.008": 4.69306962183,
			"-0.007": 10.9412316591,
			"-0.006": 12.5168634752,
			"-0.005": 13.3312908052,
			"-0.004": 11.66728713,
			"-0.003": 9.36499728633,
			"-0.002": 10.5220252686,
			"-0.001": 9.18501422815,
			"0.0": 10.8385423658,
			"0.001": 17.73378449,
			"0.002": 20.3002117262,
			"0.003": 18.184927749,
			"0.004": 16.2166351666,
			"0.005": 4.46906124054,
			"0.006": 1.75647174041,
			"0.007": 1.3491518802,
			"0.008": 2.4813640448,
			"0.009": 1.60935676007,
			"0.01": 2.78017753833,
			"0.011": 4.47970975351,
			"0.012": 2.86242042888,
			"0.013": 0.65446330849,
			"0.014": 0.0,
			"0.015": 0.0,
			"0.016": 0.0,
			"0.017": 0.0,
			"0.018": 0.0,
			"0.019": 0.0,
			"0.02": 0.0,
			"0.021": 0.0,
			"0.022": 0.0,
			"0.023": 0.0,
			"0.024": 0.0,
			"0.025": 0.0
		}
	}
}
