{
	 "smiles": "CCC(NC(=O)OC(C)(C)C)(C(C)C)C(N)=O", 
	 "Tm": 431.15, 
	 "num_atms": 41, 
	 "gaussian": { 
		 "optdone": 1, 
		 "sigma_profile": "yes", 
		 "theory": "DFT", 
		 "functional": "B3LYP", 
		 "basiset": "6-31G**", 
		 "properties": { 
			 "R2extent": 4596.4369, 
			 "electric_dipole_moment_norm": 5.5643013946, 
			 "electric_quadrupole_moment_norm": 13.848707266, 
			 "total_energy": -806.983664521, 
			 "HOMO_LUMO_gap": 0.25514, 
			 "cosmo_polarized_energy": -16.91, 
			 "cosmo_cavitation_energy": 39.82, 
			 "cosmo_dispersion_energy": -25.87, 
			 "cosmo_repulsion_energy": 2.0, 
			 "cosmo_total_nonelectrostatic_energy": 15.94, 
			 "SMD_solvation_energy": 8.57 
		},
		"coords": [
			{
				"x": -0.0221035286,
				"y": -2.8728444242,
				"z": 0.1307769761,
				"element": "C" 
			},
			{
				"x": -0.4005014033,
				"y": -1.8020823098,
				"z": 1.1596048493,
				"element": "C" 
			},
			{
				"x": -1.077471328,
				"y": -0.5375312688,
				"z": 0.5639390906,
				"element": "C" 
			},
			{
				"x": -0.2372956342,
				"y": 0.1518788971,
				"z": -0.4171872952,
				"element": "N" 
			},
			{
				"x": 1.0978409329,
				"y": 0.4389935936,
				"z": -0.4881974301,
				"element": "C" 
			},
			{
				"x": 1.5999326355,
				"y": 0.9313029348,
				"z": -1.4878622824,
				"element": "O" 
			},
			{
				"x": 1.771669219,
				"y": 0.1313853179,
				"z": 0.651391364,
				"element": "O" 
			},
			{
				"x": 3.223162259,
				"y": 0.3614306079,
				"z": 0.7447035471,
				"element": "C" 
			},
			{
				"x": 3.5321219818,
				"y": 1.8565317405,
				"z": 0.6077887452,
				"element": "C" 
			},
			{
				"x": 3.9606930781,
				"y": -0.4806019346,
				"z": -0.3025329846,
				"element": "C" 
			},
			{
				"x": 3.5514032912,
				"y": -0.1290692846,
				"z": 2.1579848116,
				"element": "C" 
			},
			{
				"x": -1.6025592441,
				"y": 0.432845573,
				"z": 1.6913598276,
				"element": "C" 
			},
			{
				"x": -0.5171964661,
				"y": 0.9108108472,
				"z": 2.6671381409,
				"element": "C" 
			},
			{
				"x": -2.3433899499,
				"y": 1.6432277113,
				"z": 1.1006023481,
				"element": "C" 
			},
			{
				"x": -2.3231604664,
				"y": -0.9712641144,
				"z": -0.2762297861,
				"element": "C" 
			},
			{
				"x": -3.2530530116,
				"y": -1.7256630358,
				"z": 0.3712105228,
				"element": "N" 
			},
			{
				"x": -2.4788714441,
				"y": -0.6271843054,
				"z": -1.4419667333,
				"element": "O" 
			},
			{
				"x": -0.8981816693,
				"y": -3.2709862485,
				"z": -0.3912149194,
				"element": "H" 
			},
			{
				"x": 0.6603468579,
				"y": -2.4712550438,
				"z": -0.6229513899,
				"element": "H" 
			},
			{
				"x": 0.4801707507,
				"y": -3.7111283361,
				"z": 0.6238297714,
				"element": "H" 
			},
			{
				"x": -1.0716392808,
				"y": -2.2315612405,
				"z": 1.9151752124,
				"element": "H" 
			},
			{
				"x": 0.4951457491,
				"y": -1.487746538,
				"z": 1.6941323891,
				"element": "H" 
			},
			{
				"x": -0.7154564389,
				"y": 0.3038480501,
				"z": -1.3003315206,
				"element": "H" 
			},
			{
				"x": 4.5991925068,
				"y": 2.0280861942,
				"z": 0.784043554,
				"element": "H" 
			},
			{
				"x": 3.2742942049,
				"y": 2.2166321974,
				"z": -0.3878557209,
				"element": "H" 
			},
			{
				"x": 2.9703464677,
				"y": 2.4313894361,
				"z": 1.3512430155,
				"element": "H" 
			},
			{
				"x": 5.041312878,
				"y": -0.3932964444,
				"z": -0.1485643086,
				"element": "H" 
			},
			{
				"x": 3.7177953112,
				"y": -0.1473716595,
				"z": -1.3112486965,
				"element": "H" 
			},
			{
				"x": 3.6889103905,
				"y": -1.5364070244,
				"z": -0.2009537192,
				"element": "H" 
			},
			{
				"x": 3.3048235233,
				"y": -1.189437687,
				"z": 2.2687258034,
				"element": "H" 
			},
			{
				"x": 4.6193048855,
				"y": -0.0023165383,
				"z": 2.359517165,
				"element": "H" 
			},
			{
				"x": 2.9894613768,
				"y": 0.4376237996,
				"z": 2.9060848718,
				"element": "H" 
			},
			{
				"x": -2.3285566149,
				"y": -0.1506733568,
				"z": 2.2751141363,
				"element": "H" 
			},
			{
				"x": 0.2405943454,
				"y": 1.5078958238,
				"z": 2.1552797278,
				"element": "H" 
			},
			{
				"x": -0.976015873,
				"y": 1.5358581608,
				"z": 3.4408428502,
				"element": "H" 
			},
			{
				"x": -0.0083451281,
				"y": 0.0838778826,
				"z": 3.16917531,
				"element": "H" 
			},
			{
				"x": -3.1827457305,
				"y": 1.3506160102,
				"z": 0.4632143156,
				"element": "H" 
			},
			{
				"x": -2.7386076606,
				"y": 2.2711267067,
				"z": 1.9054394869,
				"element": "H" 
			},
			{
				"x": -1.6639861877,
				"y": 2.2541480513,
				"z": 0.4985446218,
				"element": "H" 
			},
			{
				"x": -4.0548577503,
				"y": -2.0302704631,
				"z": -0.1595448342,
				"element": "H" 
			},
			{
				"x": -3.1174278348,
				"y": -2.0848182781,
				"z": 1.3007791668,
				"element": "H" 
			}
		],
		 "valence_orbital": [ 
			{
				"type": "occ",
				"energy": -0.28208,
				"method": "rhf"
			},
			{
				"type": "occ",
				"energy": -0.28074,
				"method": "rhf"
			},
			{
				"type": "occ",
				"energy": -0.26382,
				"method": "rhf"
			},
			{
				"type": "occ",
				"energy": -0.25197,
				"method": "rhf"
			},
			{
				"type": "occ",
				"energy": -0.23938,
				"method": "rhf"
			},
			{
				"type": "unocc",
				"energy": 0.01576,
				"method": "rhf"
			},
			{
				"type": "unocc",
				"energy": 0.04811,
				"method": "rhf"
			},
			{
				"type": "unocc",
				"energy": 0.06203,
				"method": "rhf"
			},
			{
				"type": "unocc",
				"energy": 0.0747,
				"method": "rhf"
			},
			{
				"type": "unocc",
				"energy": 0.10145,
				"method": "rhf"
			}
		],
		"cosmo_sigma_profile": { 
			"-0.025": 0.0,
			"-0.024": 0.0,
			"-0.023": 0.0,
			"-0.022": 0.0,
			"-0.021": 0.0,
			"-0.02": 0.0,
			"-0.019": 0.0,
			"-0.018": 0.0,
			"-0.017": 0.0,
			"-0.016": 0.0,
			"-0.015": 0.340893018483,
			"-0.014": 2.3013781962,
			"-0.013": 2.5114973255,
			"-0.012": 2.45474774603,
			"-0.011": 2.98677992564,
			"-0.01": 1.97785830234,
			"-0.009": 1.33027606847,
			"-0.008": 2.88157553322,
			"-0.007": 2.3245207081,
			"-0.006": 2.18326904001,
			"-0.005": 2.26966662314,
			"-0.004": 11.7822295342,
			"-0.003": 27.7864128231,
			"-0.002": 36.5248199551,
			"-0.001": 44.9872847286,
			"0.0": 51.1416541741,
			"0.001": 47.2068386382,
			"0.002": 17.7225404822,
			"0.003": 7.74171825511,
			"0.004": 5.41179573206,
			"0.005": 2.18435719172,
			"0.006": 3.43360311416,
			"0.007": 2.66985569573,
			"0.008": 2.70374028742,
			"0.009": 2.32762555014,
			"0.01": 2.75270588094,
			"0.011": 2.98655680041,
			"0.012": 4.33703057778,
			"0.013": 5.87453005559,
			"0.014": 3.93322882777,
			"0.015": 0.503227353465,
			"0.016": 0.0,
			"0.017": 0.0,
			"0.018": 0.0,
			"0.019": 0.0,
			"0.02": 0.0,
			"0.021": 0.0,
			"0.022": 0.0,
			"0.023": 0.0,
			"0.024": 0.0,
			"0.025": 0.0
		}
	}
}
