{
	 "smiles": "OC(=O)C=CC1=CC(O)=CC=C1", 
	 "Tm": 467.15, 
	 "num_atms": 20, 
	 "gaussian": { 
		 "optdone": 1, 
		 "sigma_profile": "yes", 
		 "theory": "DFT", 
		 "functional": "B3LYP", 
		 "basiset": "6-31G**", 
		 "properties": { 
			 "R2extent": 3038.9916, 
			 "electric_dipole_moment_norm": 6.96088221492, 
			 "electric_quadrupole_moment_norm": 15.4950373462, 
			 "total_energy": -573.437258682, 
			 "HOMO_LUMO_gap": 0.16418, 
			 "cosmo_polarized_energy": -20.02, 
			 "cosmo_cavitation_energy": 25.35, 
			 "cosmo_dispersion_energy": -18.59, 
			 "cosmo_repulsion_energy": 1.48, 
			 "cosmo_total_nonelectrostatic_energy": 8.24, 
			 "SMD_solvation_energy": 6.03 
		},
		"coords": [
			{
				"x": -0.9204876246,
				"y": -1.8952811635,
				"z": 3.7555474592,
				"element": "O" 
			},
			{
				"x": 0.3200909906,
				"y": -2.0405488123,
				"z": 3.2070508502,
				"element": "C" 
			},
			{
				"x": 1.1889642537,
				"y": -2.6174567967,
				"z": 3.8192364468,
				"element": "O" 
			},
			{
				"x": 0.5465627156,
				"y": -1.4555529671,
				"z": 1.8605800071,
				"element": "C" 
			},
			{
				"x": -0.1678704132,
				"y": -0.4441136031,
				"z": 1.3330003956,
				"element": "C" 
			},
			{
				"x": 0.0384166431,
				"y": 0.2181578106,
				"z": 0.0405843833,
				"element": "C" 
			},
			{
				"x": 1.0036290338,
				"y": -0.2133953162,
				"z": -0.8825346235,
				"element": "C" 
			},
			{
				"x": 1.1616924291,
				"y": 0.4495007867,
				"z": -2.0993921269,
				"element": "C" 
			},
			{
				"x": 2.1185703769,
				"y": -0.025941735,
				"z": -2.9474497427,
				"element": "O" 
			},
			{
				"x": 0.3555835739,
				"y": 1.5529232682,
				"z": -2.4124989573,
				"element": "C" 
			},
			{
				"x": -0.6058023446,
				"y": 1.9826422316,
				"z": -1.4992140144,
				"element": "C" 
			},
			{
				"x": -0.7689651271,
				"y": 1.3247197469,
				"z": -0.2829129656,
				"element": "C" 
			},
			{
				"x": -1.5426376623,
				"y": -1.5881732899,
				"z": 3.0818197984,
				"element": "H" 
			},
			{
				"x": 1.4189845311,
				"y": -1.8613947885,
				"z": 1.3590030884,
				"element": "H" 
			},
			{
				"x": -0.9847023892,
				"y": -0.0218177544,
				"z": 1.9198737196,
				"element": "H" 
			},
			{
				"x": 1.6426995786,
				"y": -1.06525602,
				"z": -0.6790707087,
				"element": "H" 
			},
			{
				"x": 2.1338908999,
				"y": 0.5124859286,
				"z": -3.749225164,
				"element": "H" 
			},
			{
				"x": 0.4807804122,
				"y": 2.0671671995,
				"z": -3.3628406598,
				"element": "H" 
			},
			{
				"x": -1.2301546355,
				"y": 2.8371500913,
				"z": -1.7421698162,
				"element": "H" 
			},
			{
				"x": -1.5189452419,
				"y": 1.6669851834,
				"z": 0.4242126304,
				"element": "H" 
			}
		],
		 "valence_orbital": [ 
			{
				"type": "occ",
				"energy": -0.31773,
				"method": "rhf"
			},
			{
				"type": "occ",
				"energy": -0.3061,
				"method": "rhf"
			},
			{
				"type": "occ",
				"energy": -0.26826,
				"method": "rhf"
			},
			{
				"type": "occ",
				"energy": -0.25,
				"method": "rhf"
			},
			{
				"type": "occ",
				"energy": -0.23673,
				"method": "rhf"
			},
			{
				"type": "unocc",
				"energy": -0.07255,
				"method": "rhf"
			},
			{
				"type": "unocc",
				"energy": -0.00785,
				"method": "rhf"
			},
			{
				"type": "unocc",
				"energy": 0.01558,
				"method": "rhf"
			},
			{
				"type": "unocc",
				"energy": 0.05612,
				"method": "rhf"
			},
			{
				"type": "unocc",
				"energy": 0.06497,
				"method": "rhf"
			}
		],
		"cosmo_sigma_profile": { 
			"-0.025": 0.0,
			"-0.024": 0.0,
			"-0.023": 0.0,
			"-0.022": 0.0,
			"-0.021": 0.0,
			"-0.02": 0.0,
			"-0.019": 0.0410215024941,
			"-0.018": 1.34635605625,
			"-0.017": 2.3206347079,
			"-0.016": 2.08051939761,
			"-0.015": 2.02758141699,
			"-0.014": 2.05808061456,
			"-0.013": 1.89574169134,
			"-0.012": 1.77790912957,
			"-0.011": 2.49878277634,
			"-0.01": 1.95790595296,
			"-0.009": 3.53228835292,
			"-0.008": 5.13005307057,
			"-0.007": 7.22845183818,
			"-0.006": 10.2086361997,
			"-0.005": 9.76695318102,
			"-0.004": 9.13674006115,
			"-0.003": 8.48169419881,
			"-0.002": 10.3374594797,
			"-0.001": 8.86715208628,
			"0.0": 8.63758513803,
			"0.001": 11.5144890795,
			"0.002": 14.8886197999,
			"0.003": 15.5855681023,
			"0.004": 14.909057904,
			"0.005": 7.05641302944,
			"0.006": 4.15237035513,
			"0.007": 3.60563468288,
			"0.008": 3.63371079323,
			"0.009": 4.97742546718,
			"0.01": 5.65464746303,
			"0.011": 7.15037989951,
			"0.012": 6.18528759687,
			"0.013": 3.61170229872,
			"0.014": 0.377804822912,
			"0.015": 0.0,
			"0.016": 0.0,
			"0.017": 0.0,
			"0.018": 0.0,
			"0.019": 0.0,
			"0.02": 0.0,
			"0.021": 0.0,
			"0.022": 0.0,
			"0.023": 0.0,
			"0.024": 0.0,
			"0.025": 0.0
		}
	}
}
