{
	 "smiles": "OC(NC1=CN=CC=C1)=C1N=CC=CC1=O", 
	 "Tm": 394.15, 
	 "num_atms": 25, 
	 "gaussian": { 
		 "optdone": 1, 
		 "sigma_profile": "yes", 
		 "theory": "DFT", 
		 "functional": "B3LYP", 
		 "basiset": "6-31G**", 
		 "properties": { 
			 "R2extent": 4739.8421, 
			 "electric_dipole_moment_norm": 2.49087734142, 
			 "electric_quadrupole_moment_norm": 19.4948196247, 
			 "total_energy": -739.32205243, 
			 "HOMO_LUMO_gap": 0.16329, 
			 "cosmo_polarized_energy": -10.82, 
			 "cosmo_cavitation_energy": 29.73, 
			 "cosmo_dispersion_energy": -22.57, 
			 "cosmo_repulsion_energy": 1.71, 
			 "cosmo_total_nonelectrostatic_energy": 8.87, 
			 "SMD_solvation_energy": 3.58 
		},
		"coords": [
			{
				"x": -1.6560603487,
				"y": 0.2136351224,
				"z": 0.7311511787,
				"element": "O" 
			},
			{
				"x": -0.5562435418,
				"y": -0.3307568219,
				"z": 0.9493569473,
				"element": "C" 
			},
			{
				"x": 0.4916027729,
				"y": -0.3274265267,
				"z": 0.0855132481,
				"element": "N" 
			},
			{
				"x": 0.5899627284,
				"y": 0.2527424358,
				"z": -1.1878470881,
				"element": "C" 
			},
			{
				"x": 1.8064529548,
				"y": 0.103490301,
				"z": -1.8770509221,
				"element": "C" 
			},
			{
				"x": 2.0408945247,
				"y": 0.599430473,
				"z": -3.0896604091,
				"element": "N" 
			},
			{
				"x": 1.0511901118,
				"y": 1.2814363173,
				"z": -3.6824085307,
				"element": "C" 
			},
			{
				"x": -0.1918624987,
				"y": 1.4857764958,
				"z": -3.0843732433,
				"element": "C" 
			},
			{
				"x": -0.4398202922,
				"y": 0.9676773927,
				"z": -1.8150730702,
				"element": "C" 
			},
			{
				"x": -0.2949457052,
				"y": -1.0561923499,
				"z": 2.2248928215,
				"element": "C" 
			},
			{
				"x": 0.9166088368,
				"y": -1.6167447719,
				"z": 2.3864214098,
				"element": "N" 
			},
			{
				"x": 1.1781174055,
				"y": -2.2701782882,
				"z": 3.5133889083,
				"element": "C" 
			},
			{
				"x": 0.2320475053,
				"y": -2.3962471803,
				"z": 4.5435299147,
				"element": "C" 
			},
			{
				"x": -1.0200224149,
				"y": -1.8239182048,
				"z": 4.3908888335,
				"element": "C" 
			},
			{
				"x": -1.3124687177,
				"y": -1.1288176419,
				"z": 3.2038708079,
				"element": "C" 
			},
			{
				"x": -2.5182807306,
				"y": -0.5721279896,
				"z": 3.0456365941,
				"element": "O" 
			},
			{
				"x": -2.5075271264,
				"y": -0.1400640118,
				"z": 2.1510337709,
				"element": "H" 
			},
			{
				"x": 1.3008133365,
				"y": -0.826546404,
				"z": 0.4483776081,
				"element": "H" 
			},
			{
				"x": 2.6237102526,
				"y": -0.4485940379,
				"z": -1.410482106,
				"element": "H" 
			},
			{
				"x": 1.2643328569,
				"y": 1.6778217079,
				"z": -4.6728337272,
				"element": "H" 
			},
			{
				"x": -0.9629055762,
				"y": 2.0456525163,
				"z": -3.6046387512,
				"element": "H" 
			},
			{
				"x": -1.3892812359,
				"y": 1.103323146,
				"z": -1.3161075712,
				"element": "H" 
			},
			{
				"x": 2.1678992133,
				"y": -2.7095635715,
				"z": 3.6073653871,
				"element": "H" 
			},
			{
				"x": 0.4855498364,
				"y": -2.9385786785,
				"z": 5.4491121884,
				"element": "H" 
			},
			{
				"x": -1.7850641476,
				"y": -1.8933294293,
				"z": 5.1571358004,
				"element": "H" 
			}
		],
		 "valence_orbital": [ 
			{
				"type": "occ",
				"energy": -0.28268,
				"method": "rhf"
			},
			{
				"type": "occ",
				"energy": -0.27266,
				"method": "rhf"
			},
			{
				"type": "occ",
				"energy": -0.2547,
				"method": "rhf"
			},
			{
				"type": "occ",
				"energy": -0.2501,
				"method": "rhf"
			},
			{
				"type": "occ",
				"energy": -0.2324,
				"method": "rhf"
			},
			{
				"type": "unocc",
				"energy": -0.06911,
				"method": "rhf"
			},
			{
				"type": "unocc",
				"energy": -0.02611,
				"method": "rhf"
			},
			{
				"type": "unocc",
				"energy": -0.02171,
				"method": "rhf"
			},
			{
				"type": "unocc",
				"energy": -0.00376,
				"method": "rhf"
			},
			{
				"type": "unocc",
				"energy": 0.04978,
				"method": "rhf"
			}
		],
		"cosmo_sigma_profile": { 
			"-0.025": 0.0,
			"-0.024": 0.0,
			"-0.023": 0.0,
			"-0.022": 0.0,
			"-0.021": 0.0,
			"-0.02": 0.0,
			"-0.019": 0.0,
			"-0.018": 0.0,
			"-0.017": 0.0,
			"-0.016": 0.0,
			"-0.015": 0.0,
			"-0.014": 0.00477956339655,
			"-0.013": 0.562485119268,
			"-0.012": 1.04470596542,
			"-0.011": 1.10707094155,
			"-0.01": 1.06647651313,
			"-0.009": 1.07822933367,
			"-0.008": 3.10626444111,
			"-0.007": 10.536557021,
			"-0.006": 14.6351408977,
			"-0.005": 13.7137451355,
			"-0.004": 12.254440374,
			"-0.003": 15.9823786718,
			"-0.002": 15.6895242118,
			"-0.001": 18.7252579158,
			"0.0": 22.5605298858,
			"0.001": 27.1611335963,
			"0.002": 23.6358280752,
			"0.003": 12.4026768927,
			"0.004": 6.93814640157,
			"0.005": 7.34206899886,
			"0.006": 5.03879772109,
			"0.007": 5.85344057621,
			"0.008": 5.00066927999,
			"0.009": 4.67996004325,
			"0.01": 3.0348674794,
			"0.011": 2.35854033767,
			"0.012": 0.865195607075,
			"0.013": 0.967798964187,
			"0.014": 1.00096683328,
			"0.015": 0.999097576842,
			"0.016": 0.634485380216,
			"0.017": 0.189654342241,
			"0.018": 0.0,
			"0.019": 0.0,
			"0.02": 0.0,
			"0.021": 0.0,
			"0.022": 0.0,
			"0.023": 0.0,
			"0.024": 0.0,
			"0.025": 0.0
		}
	}
}
