{
	 "smiles": "COC1=CC=C(NC(=O)C=NO)C=C1", 
	 "Tm": 454.15, 
	 "num_atms": 24, 
	 "gaussian": { 
		 "optdone": 1, 
		 "sigma_profile": "yes", 
		 "theory": "DFT", 
		 "functional": "B3LYP", 
		 "basiset": "6-31G**", 
		 "properties": { 
			 "R2extent": 4119.8732, 
			 "electric_dipole_moment_norm": 4.72564294144, 
			 "electric_quadrupole_moment_norm": 21.1945302064, 
			 "total_energy": -684.083291148, 
			 "HOMO_LUMO_gap": 0.16907, 
			 "cosmo_polarized_energy": -18.48, 
			 "cosmo_cavitation_energy": 29.55, 
			 "cosmo_dispersion_energy": -21.25, 
			 "cosmo_repulsion_energy": 1.71, 
			 "cosmo_total_nonelectrostatic_energy": 10.02, 
			 "SMD_solvation_energy": 7.05 
		},
		"coords": [
			{
				"x": 3.2752805555,
				"y": -1.9839275862,
				"z": 2.273903121,
				"element": "C" 
			},
			{
				"x": 3.1687321373,
				"y": -1.2956087348,
				"z": 1.0374483477,
				"element": "O" 
			},
			{
				"x": 2.0883348239,
				"y": -0.4880277667,
				"z": 0.8385851949,
				"element": "C" 
			},
			{
				"x": 2.0391190885,
				"y": 0.1719249724,
				"z": -0.3985197171,
				"element": "C" 
			},
			{
				"x": 0.9896098115,
				"y": 1.0302950439,
				"z": -0.6969516914,
				"element": "C" 
			},
			{
				"x": -0.0585508732,
				"y": 1.2209295876,
				"z": 0.219213569,
				"element": "C" 
			},
			{
				"x": -1.1377961032,
				"y": 2.1025497339,
				"z": -0.0534902147,
				"element": "N" 
			},
			{
				"x": -1.8864621367,
				"y": 2.2576051681,
				"z": -1.2060168795,
				"element": "C" 
			},
			{
				"x": -2.6436478961,
				"y": 3.2073608444,
				"z": -1.3407714591,
				"element": "O" 
			},
			{
				"x": -1.7522843273,
				"y": 1.1593871414,
				"z": -2.2135813274,
				"element": "C" 
			},
			{
				"x": -2.1963895934,
				"y": 1.3764427986,
				"z": -3.3941474211,
				"element": "N" 
			},
			{
				"x": -2.0438813245,
				"y": 0.2539371733,
				"z": -4.1974014383,
				"element": "O" 
			},
			{
				"x": -0.0044149695,
				"y": 0.5596704597,
				"z": 1.4493783839,
				"element": "C" 
			},
			{
				"x": 1.0632448527,
				"y": -0.2807885746,
				"z": 1.769917976,
				"element": "C" 
			},
			{
				"x": 2.4322645667,
				"y": -2.6693668294,
				"z": 2.4298982304,
				"element": "H" 
			},
			{
				"x": 3.3337694116,
				"y": -1.2883630259,
				"z": 3.1210853359,
				"element": "H" 
			},
			{
				"x": 4.1999522802,
				"y": -2.5601641878,
				"z": 2.2191041645,
				"element": "H" 
			},
			{
				"x": 2.8492429518,
				"y": 0.0139598991,
				"z": -1.102588985,
				"element": "H" 
			},
			{
				"x": 0.9836720672,
				"y": 1.5677481762,
				"z": -1.6397897403,
				"element": "H" 
			},
			{
				"x": -1.3609819115,
				"y": 2.8043932376,
				"z": 0.6418511921,
				"element": "H" 
			},
			{
				"x": -1.3139083163,
				"y": 0.200035025,
				"z": -1.9393964551,
				"element": "H" 
			},
			{
				"x": -2.4130384887,
				"y": 0.5470391034,
				"z": -5.0422591991,
				"element": "H" 
			},
			{
				"x": -0.8107209235,
				"y": 0.6988692738,
				"z": 2.1639335728,
				"element": "H" 
			},
			{
				"x": 1.0758543172,
				"y": -0.7738009328,
				"z": 2.73449544,
				"element": "H" 
			}
		],
		 "valence_orbital": [ 
			{
				"type": "occ",
				"energy": -0.27689,
				"method": "rhf"
			},
			{
				"type": "occ",
				"energy": -0.26875,
				"method": "rhf"
			},
			{
				"type": "occ",
				"energy": -0.26331,
				"method": "rhf"
			},
			{
				"type": "occ",
				"energy": -0.25111,
				"method": "rhf"
			},
			{
				"type": "occ",
				"energy": -0.21625,
				"method": "rhf"
			},
			{
				"type": "unocc",
				"energy": -0.04718,
				"method": "rhf"
			},
			{
				"type": "unocc",
				"energy": -0.01409,
				"method": "rhf"
			},
			{
				"type": "unocc",
				"energy": -2e-05,
				"method": "rhf"
			},
			{
				"type": "unocc",
				"energy": 0.07199,
				"method": "rhf"
			},
			{
				"type": "unocc",
				"energy": 0.08233,
				"method": "rhf"
			}
		],
		"cosmo_sigma_profile": { 
			"-0.025": 0.0,
			"-0.024": 0.0,
			"-0.023": 0.0,
			"-0.022": 0.0,
			"-0.021": 0.0,
			"-0.02": 0.0,
			"-0.019": 0.112842142098,
			"-0.018": 0.918876313454,
			"-0.017": 1.25365978442,
			"-0.016": 0.83302378579,
			"-0.015": 1.07788799426,
			"-0.014": 1.57825729727,
			"-0.013": 1.86785138945,
			"-0.012": 1.57227378591,
			"-0.011": 1.62794912355,
			"-0.01": 1.82098589864,
			"-0.009": 1.63876174802,
			"-0.008": 1.86368062188,
			"-0.007": 6.74023034949,
			"-0.006": 16.1399426204,
			"-0.005": 19.2005760999,
			"-0.004": 18.341126761,
			"-0.003": 18.1698655041,
			"-0.002": 12.4962521946,
			"-0.001": 12.0280362751,
			"0.0": 10.8659051337,
			"0.001": 12.2078073379,
			"0.002": 12.7354800105,
			"0.003": 15.4266947917,
			"0.004": 16.1223394883,
			"0.005": 7.58769023255,
			"0.006": 4.32706934464,
			"0.007": 4.34846139174,
			"0.008": 4.96906188504,
			"0.009": 5.8006535138,
			"0.01": 3.84968560563,
			"0.011": 2.21467892842,
			"0.012": 3.5071995742,
			"0.013": 6.61861933952,
			"0.014": 3.36288431055,
			"0.015": 1.71194382615,
			"0.016": 0.151328651401,
			"0.017": 0.0,
			"0.018": 0.0,
			"0.019": 0.0,
			"0.02": 0.0,
			"0.021": 0.0,
			"0.022": 0.0,
			"0.023": 0.0,
			"0.024": 0.0,
			"0.025": 0.0
		}
	}
}
