{
	 "smiles": "OC1=C(Cl)C=CC(Cl)=C1Cl", 
	 "Tm": 330.15, 
	 "num_atms": 13, 
	 "gaussian": { 
		 "optdone": 1, 
		 "sigma_profile": "yes", 
		 "theory": "DFT", 
		 "functional": "B3LYP", 
		 "basiset": "6-31G**", 
		 "properties": { 
			 "R2extent": 2499.5756, 
			 "electric_dipole_moment_norm": 0.610409714864, 
			 "electric_quadrupole_moment_norm": 11.5933082837, 
			 "total_energy": -1686.23699816, 
			 "HOMO_LUMO_gap": 0.20729, 
			 "cosmo_polarized_energy": -6.38, 
			 "cosmo_cavitation_energy": 22.59, 
			 "cosmo_dispersion_energy": -17.54, 
			 "cosmo_repulsion_energy": 1.42, 
			 "cosmo_total_nonelectrostatic_energy": 6.47, 
			 "SMD_solvation_energy": 3.51 
		},
		"coords": [
			{
				"x": -1.9288960838,
				"y": 0.3985508369,
				"z": -1.7994751626,
				"element": "O" 
			},
			{
				"x": -1.0201671245,
				"y": 0.4932787653,
				"z": -0.8097748565,
				"element": "C" 
			},
			{
				"x": -1.4634151783,
				"y": 0.7769305741,
				"z": 0.4929376606,
				"element": "C" 
			},
			{
				"x": -3.1709202706,
				"y": 0.9951153236,
				"z": 0.7780330214,
				"element": "Cl" 
			},
			{
				"x": -0.558515642,
				"y": 0.8834045595,
				"z": 1.5440916793,
				"element": "C" 
			},
			{
				"x": 0.8055149761,
				"y": 0.7104316065,
				"z": 1.3235963506,
				"element": "C" 
			},
			{
				"x": 1.2677920851,
				"y": 0.4282874339,
				"z": 0.0390636729,
				"element": "C" 
			},
			{
				"x": 2.9799715263,
				"y": 0.2142049765,
				"z": -0.2215754644,
				"element": "Cl" 
			},
			{
				"x": 0.3615221279,
				"y": 0.3201657911,
				"z": -1.0216215529,
				"element": "C" 
			},
			{
				"x": 0.8880521593,
				"y": -0.0326100304,
				"z": -2.6544934331,
				"element": "Cl" 
			},
			{
				"x": -1.4702636091,
				"y": 0.2004899323,
				"z": -2.6308481192,
				"element": "H" 
			},
			{
				"x": -0.9278711739,
				"y": 1.1031119727,
				"z": 2.5393308365,
				"element": "H" 
			},
			{
				"x": 1.5130962075,
				"y": 0.7926382581,
				"z": 2.1397353673,
				"element": "H" 
			}
		],
		 "valence_orbital": [ 
			{
				"type": "occ",
				"energy": -0.32487,
				"method": "rhf"
			},
			{
				"type": "occ",
				"energy": -0.32089,
				"method": "rhf"
			},
			{
				"type": "occ",
				"energy": -0.32023,
				"method": "rhf"
			},
			{
				"type": "occ",
				"energy": -0.25972,
				"method": "rhf"
			},
			{
				"type": "occ",
				"energy": -0.24319,
				"method": "rhf"
			},
			{
				"type": "unocc",
				"energy": -0.0359,
				"method": "rhf"
			},
			{
				"type": "unocc",
				"energy": -0.02085,
				"method": "rhf"
			},
			{
				"type": "unocc",
				"energy": -0.02023,
				"method": "rhf"
			},
			{
				"type": "unocc",
				"energy": 0.03077,
				"method": "rhf"
			},
			{
				"type": "unocc",
				"energy": 0.05157,
				"method": "rhf"
			}
		],
		"cosmo_sigma_profile": { 
			"-0.025": 0.0,
			"-0.024": 0.0,
			"-0.023": 0.0,
			"-0.022": 0.0,
			"-0.021": 0.0,
			"-0.02": 0.0,
			"-0.019": 0.0,
			"-0.018": 0.0,
			"-0.017": 0.00502922082871,
			"-0.016": 0.498497988829,
			"-0.015": 0.965763144153,
			"-0.014": 0.440181556845,
			"-0.013": 0.396247586288,
			"-0.012": 1.44399119632,
			"-0.011": 0.748213576338,
			"-0.01": 1.07775408225,
			"-0.009": 1.21806310016,
			"-0.008": 4.39137190003,
			"-0.007": 5.57867421693,
			"-0.006": 5.24473848131,
			"-0.005": 3.55179805941,
			"-0.004": 5.98062631436,
			"-0.003": 9.21097353883,
			"-0.002": 11.3195256336,
			"-0.001": 16.5988596461,
			"0.0": 25.4734470575,
			"0.001": 21.4030831374,
			"0.002": 19.8320644879,
			"0.003": 20.9196826497,
			"0.004": 18.8570077284,
			"0.005": 4.21334150502,
			"0.006": 2.25528075615,
			"0.007": 1.59966912393,
			"0.008": 2.10551803841,
			"0.009": 2.20497143728,
			"0.01": 1.17506410274,
			"0.011": 0.0,
			"0.012": 0.0,
			"0.013": 0.0,
			"0.014": 0.0,
			"0.015": 0.0,
			"0.016": 0.0,
			"0.017": 0.0,
			"0.018": 0.0,
			"0.019": 0.0,
			"0.02": 0.0,
			"0.021": 0.0,
			"0.022": 0.0,
			"0.023": 0.0,
			"0.024": 0.0,
			"0.025": 0.0
		}
	}
}
