{
	 "smiles": "OC(=O)CCCN1C(=O)C2=C(C=CC=C2)C1=O", 
	 "Tm": 370.15, 
	 "num_atms": 28, 
	 "gaussian": { 
		 "optdone": 1, 
		 "sigma_profile": "yes", 
		 "theory": "DFT", 
		 "functional": "B3LYP", 
		 "basiset": "6-31G**", 
		 "properties": { 
			 "R2extent": 4619.7385, 
			 "electric_dipole_moment_norm": 3.31527410933, 
			 "electric_quadrupole_moment_norm": 27.8190426144, 
			 "total_energy": -819.598953171, 
			 "HOMO_LUMO_gap": 0.17412, 
			 "cosmo_polarized_energy": -18.72, 
			 "cosmo_cavitation_energy": 31.99, 
			 "cosmo_dispersion_energy": -22.25, 
			 "cosmo_repulsion_energy": 1.71, 
			 "cosmo_total_nonelectrostatic_energy": 11.45, 
			 "SMD_solvation_energy": 7.25 
		},
		"coords": [
			{
				"x": -1.330062898,
				"y": -0.9779490556,
				"z": -3.248652361,
				"element": "O" 
			},
			{
				"x": -0.9239746693,
				"y": -2.1766441654,
				"z": -2.7541568021,
				"element": "C" 
			},
			{
				"x": -1.7390365194,
				"y": -3.0371942346,
				"z": -2.5297827821,
				"element": "O" 
			},
			{
				"x": 0.5789933692,
				"y": -2.4009803645,
				"z": -2.5926718462,
				"element": "C" 
			},
			{
				"x": 1.4424766346,
				"y": -1.2376982148,
				"z": -2.0807922341,
				"element": "C" 
			},
			{
				"x": 1.228411806,
				"y": -0.8510325996,
				"z": -0.6099671401,
				"element": "C" 
			},
			{
				"x": -0.1262804788,
				"y": -0.4180916721,
				"z": -0.280626749,
				"element": "N" 
			},
			{
				"x": -0.7559894573,
				"y": 0.7068968971,
				"z": -0.8246277264,
				"element": "C" 
			},
			{
				"x": -0.2958158031,
				"y": 1.3996842835,
				"z": -1.7185947374,
				"element": "O" 
			},
			{
				"x": -2.0557907606,
				"y": 0.8375806726,
				"z": -0.1083900938,
				"element": "C" 
			},
			{
				"x": -2.144694033,
				"y": -0.1950513339,
				"z": 0.8281999998,
				"element": "C" 
			},
			{
				"x": -3.2559825072,
				"y": -0.3403709442,
				"z": 1.6451592531,
				"element": "C" 
			},
			{
				"x": -4.2905528987,
				"y": 0.5929854199,
				"z": 1.4957020925,
				"element": "C" 
			},
			{
				"x": -4.2014890475,
				"y": 1.6284032601,
				"z": 0.5563879333,
				"element": "C" 
			},
			{
				"x": -3.0752106418,
				"y": 1.7649147447,
				"z": -0.265944302,
				"element": "C" 
			},
			{
				"x": -0.897342599,
				"y": -1.0076832135,
				"z": 0.748904043,
				"element": "C" 
			},
			{
				"x": -0.557125814,
				"y": -1.9664644985,
				"z": 1.4091239631,
				"element": "O" 
			},
			{
				"x": -0.6120996978,
				"y": -0.326718918,
				"z": -3.2679754647,
				"element": "H" 
			},
			{
				"x": 0.9451486697,
				"y": -2.6948088296,
				"z": -3.5858140102,
				"element": "H" 
			},
			{
				"x": 0.6854488355,
				"y": -3.2780078402,
				"z": -1.9490934524,
				"element": "H" 
			},
			{
				"x": 1.3294353693,
				"y": -0.3463013803,
				"z": -2.707622589,
				"element": "H" 
			},
			{
				"x": 2.4947208865,
				"y": -1.5298384677,
				"z": -2.1770122849,
				"element": "H" 
			},
			{
				"x": 1.4283670639,
				"y": -1.7024125324,
				"z": 0.0463708128,
				"element": "H" 
			},
			{
				"x": 1.9267150224,
				"y": -0.047984684,
				"z": -0.3480453164,
				"element": "H" 
			},
			{
				"x": -3.3160475097,
				"y": -1.1486879924,
				"z": 2.3664694387,
				"element": "H" 
			},
			{
				"x": -5.1781042944,
				"y": 0.5126874261,
				"z": 2.1160137054,
				"element": "H" 
			},
			{
				"x": -5.0212545244,
				"y": 2.3343634106,
				"z": 0.4637124751,
				"element": "H" 
			},
			{
				"x": -2.9977635033,
				"y": 2.5603048267,
				"z": -0.9998738249,
				"element": "H" 
			}
		],
		 "valence_orbital": [ 
			{
				"type": "occ",
				"energy": -0.29158,
				"method": "rhf"
			},
			{
				"type": "occ",
				"energy": -0.28006,
				"method": "rhf"
			},
			{
				"type": "occ",
				"energy": -0.27583,
				"method": "rhf"
			},
			{
				"type": "occ",
				"energy": -0.27152,
				"method": "rhf"
			},
			{
				"type": "occ",
				"energy": -0.2618,
				"method": "rhf"
			},
			{
				"type": "unocc",
				"energy": -0.08768,
				"method": "rhf"
			},
			{
				"type": "unocc",
				"energy": -0.0443,
				"method": "rhf"
			},
			{
				"type": "unocc",
				"energy": 0.01489,
				"method": "rhf"
			},
			{
				"type": "unocc",
				"energy": 0.02393,
				"method": "rhf"
			},
			{
				"type": "unocc",
				"energy": 0.05591,
				"method": "rhf"
			}
		],
		"cosmo_sigma_profile": { 
			"-0.025": 0.0,
			"-0.024": 0.0,
			"-0.023": 0.0,
			"-0.022": 0.0,
			"-0.021": 0.0,
			"-0.02": 0.0,
			"-0.019": 0.0,
			"-0.018": 0.0,
			"-0.017": 0.0,
			"-0.016": 0.0163384724538,
			"-0.015": 0.360031804067,
			"-0.014": 0.565388580188,
			"-0.013": 1.01041748599,
			"-0.012": 0.600671854429,
			"-0.011": 0.536337833192,
			"-0.01": 1.04406894295,
			"-0.009": 1.30438738694,
			"-0.008": 3.68432074068,
			"-0.007": 13.453712182,
			"-0.006": 20.774703276,
			"-0.005": 25.440854288,
			"-0.004": 20.8294841227,
			"-0.003": 18.7898131083,
			"-0.002": 15.473099768,
			"-0.001": 13.9016873864,
			"0.0": 13.7844802465,
			"0.001": 17.969608939,
			"0.002": 17.5495900277,
			"0.003": 6.45048858257,
			"0.004": 5.10804204104,
			"0.005": 5.6294216795,
			"0.006": 3.37785100534,
			"0.007": 5.12465626322,
			"0.008": 4.9820905625,
			"0.009": 5.27902894873,
			"0.01": 10.1395296415,
			"0.011": 11.9071152207,
			"0.012": 6.44467950402,
			"0.013": 3.22975848976,
			"0.014": 0.262589382519,
			"0.015": 0.0,
			"0.016": 0.0,
			"0.017": 0.0,
			"0.018": 0.0,
			"0.019": 0.0,
			"0.02": 0.0,
			"0.021": 0.0,
			"0.022": 0.0,
			"0.023": 0.0,
			"0.024": 0.0,
			"0.0": 0.0
		}
	}
}
