{
	 "smiles": "CC(C)(C)CCl", 
	 "Tm": 253.15, 
	 "num_atms": 17, 
	 "gaussian": { 
		 "optdone": 1, 
		 "sigma_profile": "yes", 
		 "theory": "DFT", 
		 "functional": "B3LYP", 
		 "basiset": "6-31G**", 
		 "properties": { 
			 "R2extent": 2085.1078, 
			 "electric_dipole_moment_norm": 2.24280139558, 
			 "electric_quadrupole_moment_norm": 11.5066247758, 
			 "total_energy": -657.375996955, 
			 "HOMO_LUMO_gap": 0.31797, 
			 "cosmo_polarized_energy": -3.63, 
			 "cosmo_cavitation_energy": 19.99, 
			 "cosmo_dispersion_energy": -14.59, 
			 "cosmo_repulsion_energy": 1.23, 
			 "cosmo_total_nonelectrostatic_energy": 6.64, 
			 "SMD_solvation_energy": 3.37 
		},
		"coords": [
			{
				"x": 1.2812203332,
				"y": 1.7080112987,
				"z": -0.7639261271,
				"element": "C" 
			},
			{
				"x": 0.9504976343,
				"y": 1.3185708368,
				"z": 0.6877316213,
				"element": "C" 
			},
			{
				"x": 1.6993666174,
				"y": 0.0181935762,
				"z": 1.0549649488,
				"element": "C" 
			},
			{
				"x": -0.5643583904,
				"y": 1.1007750772,
				"z": 0.8493655994,
				"element": "C" 
			},
			{
				"x": 1.457713629,
				"y": 2.3883470997,
				"z": 1.6707025298,
				"element": "C" 
			},
			{
				"x": 0.7167353479,
				"y": 4.0408423791,
				"z": 1.4441523852,
				"element": "Cl" 
			},
			{
				"x": 0.9633590485,
				"y": 0.9176867438,
				"z": -1.4521510569,
				"element": "H" 
			},
			{
				"x": 2.3587071515,
				"y": 1.8565875637,
				"z": -0.8990771215,
				"element": "H" 
			},
			{
				"x": 0.7743840743,
				"y": 2.6329504011,
				"z": -1.051780035,
				"element": "H" 
			},
			{
				"x": 2.7839222003,
				"y": 0.1354760612,
				"z": 0.9514102985,
				"element": "H" 
			},
			{
				"x": 1.3882311508,
				"y": -0.7963495717,
				"z": 0.3926281881,
				"element": "H" 
			},
			{
				"x": 1.4877459579,
				"y": -0.2909257139,
				"z": 2.0847212064,
				"element": "H" 
			},
			{
				"x": -1.1235688695,
				"y": 2.0085849317,
				"z": 0.6076909793,
				"element": "H" 
			},
			{
				"x": -0.9076574843,
				"y": 0.3023685573,
				"z": 0.1830394205,
				"element": "H" 
			},
			{
				"x": -0.8161284076,
				"y": 0.8116247459,
				"z": 1.8761666972,
				"element": "H" 
			},
			{
				"x": 2.5344977546,
				"y": 2.5364373446,
				"z": 1.5667207657,
				"element": "H" 
			},
			{
				"x": 1.234532252,
				"y": 2.1092186686,
				"z": 2.7024397001,
				"element": "H" 
			}
		],
		 "valence_orbital": [ 
			{
				"type": "occ",
				"energy": -0.34991,
				"method": "rhf"
			},
			{
				"type": "occ",
				"energy": -0.33308,
				"method": "rhf"
			},
			{
				"type": "occ",
				"energy": -0.32976,
				"method": "rhf"
			},
			{
				"type": "occ",
				"energy": -0.28857,
				"method": "rhf"
			},
			{
				"type": "occ",
				"energy": -0.28841,
				"method": "rhf"
			},
			{
				"type": "unocc",
				"energy": 0.02956,
				"method": "rhf"
			},
			{
				"type": "unocc",
				"energy": 0.07437,
				"method": "rhf"
			},
			{
				"type": "unocc",
				"energy": 0.12007,
				"method": "rhf"
			},
			{
				"type": "unocc",
				"energy": 0.12809,
				"method": "rhf"
			},
			{
				"type": "unocc",
				"energy": 0.13702,
				"method": "rhf"
			}
		],
		"cosmo_sigma_profile": { 
			"-0.025": 0.0,
			"-0.024": 0.0,
			"-0.023": 0.0,
			"-0.022": 0.0,
			"-0.021": 0.0,
			"-0.02": 0.0,
			"-0.019": 0.0,
			"-0.018": 0.0,
			"-0.017": 0.0,
			"-0.016": 0.0,
			"-0.015": 0.0,
			"-0.014": 0.0,
			"-0.013": 0.0,
			"-0.012": 0.0,
			"-0.011": 0.0,
			"-0.01": 0.0,
			"-0.009": 0.0,
			"-0.008": 0.0,
			"-0.007": 0.269038558735,
			"-0.006": 3.52202989723,
			"-0.005": 5.94048861149,
			"-0.004": 8.51026187267,
			"-0.003": 19.9250024591,
			"-0.002": 17.7620406287,
			"-0.001": 17.8159443081,
			"0.0": 18.6128741694,
			"0.001": 23.7848805133,
			"0.002": 10.2733184613,
			"0.003": 5.48358673656,
			"0.004": 4.27325909186,
			"0.005": 6.19097902565,
			"0.006": 6.94510250366,
			"0.007": 6.73301992484,
			"0.008": 0.408031423458,
			"0.009": 0.0,
			"0.01": 0.0,
			"0.011": 0.0,
			"0.012": 0.0,
			"0.013": 0.0,
			"0.014": 0.0,
			"0.015": 0.0,
			"0.016": 0.0,
			"0.017": 0.0,
			"0.018": 0.0,
			"0.019": 0.0,
			"0.02": 0.0,
			"0.021": 0.0,
			"0.022": 0.0,
			"0.023": 0.0,
			"0.024": 0.0,
			"0.025": 0.0
		}
	}
}
