{
	 "smiles": "NC(=O)C1CC2=C(O1)C=CC(=C2)S(N)(=O)=O", 
	 "Tm": 497.15, 
	 "num_atms": 26, 
	 "gaussian": { 
		 "optdone": 1, 
		 "sigma_profile": "yes", 
		 "theory": "DFT", 
		 "functional": "B3LYP", 
		 "basiset": "6-31G**", 
		 "properties": { 
			 "R2extent": 6794.5389, 
			 "electric_dipole_moment_norm": 4.14089297254, 
			 "electric_quadrupole_moment_norm": 32.7859841068, 
			 "total_energy": -1157.51595583, 
			 "HOMO_LUMO_gap": 0.20657, 
			 "cosmo_polarized_energy": -23.55, 
			 "cosmo_cavitation_energy": 31.75, 
			 "cosmo_dispersion_energy": -23.87, 
			 "cosmo_repulsion_energy": 1.84, 
			 "cosmo_total_nonelectrostatic_energy": 9.72, 
			 "SMD_solvation_energy": 5.65 
		},
		"coords": [
			{
				"x": 1.0749129118,
				"y": -0.5277103667,
				"z": 2.5190822648,
				"element": "N" 
			},
			{
				"x": 1.4442014608,
				"y": -0.8801327511,
				"z": 1.2632936823,
				"element": "C" 
			},
			{
				"x": 2.5126437291,
				"y": -0.5911987626,
				"z": 0.7439620199,
				"element": "O" 
			},
			{
				"x": 0.4278701055,
				"y": -1.7562092375,
				"z": 0.5079732715,
				"element": "C" 
			},
			{
				"x": 0.2407960367,
				"y": -1.3011983852,
				"z": -0.9604083307,
				"element": "C" 
			},
			{
				"x": -1.1418897775,
				"y": -0.6956018801,
				"z": -0.9187071868,
				"element": "C" 
			},
			{
				"x": -1.7171449282,
				"y": -0.9932525757,
				"z": 0.3222096877,
				"element": "C" 
			},
			{
				"x": -0.8841065514,
				"y": -1.7010533177,
				"z": 1.1432025108,
				"element": "O" 
			},
			{
				"x": -3.0123572769,
				"y": -0.6199297392,
				"z": 0.6626543183,
				"element": "C" 
			},
			{
				"x": -3.7468611702,
				"y": 0.0927489027,
				"z": -0.2887579178,
				"element": "C" 
			},
			{
				"x": -3.175449915,
				"y": 0.4061834106,
				"z": -1.5242641363,
				"element": "C" 
			},
			{
				"x": -1.8721399481,
				"y": 0.0099891538,
				"z": -1.8608589704,
				"element": "C" 
			},
			{
				"x": -4.1368618939,
				"y": 1.3187272273,
				"z": -2.7213140369,
				"element": "S" 
			},
			{
				"x": -3.5600654763,
				"y": 2.9089120554,
				"z": -2.5622971555,
				"element": "N" 
			},
			{
				"x": -5.5367810338,
				"y": 1.2865256722,
				"z": -2.2828650877,
				"element": "O" 
			},
			{
				"x": -3.7305024891,
				"y": 0.8885765069,
				"z": -4.0628877217,
				"element": "O" 
			},
			{
				"x": 1.6992651588,
				"y": 0.0481950116,
				"z": 3.0623428569,
				"element": "H" 
			},
			{
				"x": 0.1507762695,
				"y": -0.7431720485,
				"z": 2.8582832235,
				"element": "H" 
			},
			{
				"x": 0.7728853429,
				"y": -2.7911352114,
				"z": 0.5856479825,
				"element": "H" 
			},
			{
				"x": 1.0332908331,
				"y": -0.6031824659,
				"z": -1.24161715,
				"element": "H" 
			},
			{
				"x": 0.2837032557,
				"y": -2.1499476932,
				"z": -1.6516601653,
				"element": "H" 
			},
			{
				"x": -3.4345937127,
				"y": -0.8802902637,
				"z": 1.6268221357,
				"element": "H" 
			},
			{
				"x": -4.7672938301,
				"y": 0.3964084712,
				"z": -0.0839889291,
				"element": "H" 
			},
			{
				"x": -1.4671911984,
				"y": 0.2422536819,
				"z": -2.840098344,
				"element": "H" 
			},
			{
				"x": -3.3793569326,
				"y": 3.2740442613,
				"z": -3.4943985259,
				"element": "H" 
			},
			{
				"x": -4.2495489694,
				"y": 3.4775503435,
				"z": -2.0768502957,
				"element": "H" 
			}
		],
		 "valence_orbital": [ 
			{
				"type": "occ",
				"energy": -0.29239,
				"method": "rhf"
			},
			{
				"type": "occ",
				"energy": -0.2804,
				"method": "rhf"
			},
			{
				"type": "occ",
				"energy": -0.27087,
				"method": "rhf"
			},
			{
				"type": "occ",
				"energy": -0.2655,
				"method": "rhf"
			},
			{
				"type": "occ",
				"energy": -0.2373,
				"method": "rhf"
			},
			{
				"type": "unocc",
				"energy": -0.03073,
				"method": "rhf"
			},
			{
				"type": "unocc",
				"energy": -0.02521,
				"method": "rhf"
			},
			{
				"type": "unocc",
				"energy": 0.0134,
				"method": "rhf"
			},
			{
				"type": "unocc",
				"energy": 0.05543,
				"method": "rhf"
			},
			{
				"type": "unocc",
				"energy": 0.07201,
				"method": "rhf"
			}
		],
		"cosmo_sigma_profile": { 
			"-0.025": 0.0,
			"-0.024": 0.0,
			"-0.023": 0.0,
			"-0.022": 0.0,
			"-0.021": 0.0,
			"-0.02": 0.0,
			"-0.019": 0.0,
			"-0.018": 0.0,
			"-0.017": 0.0,
			"-0.016": 0.0,
			"-0.015": 0.739972448532,
			"-0.014": 3.5917778174,
			"-0.013": 4.69690498744,
			"-0.012": 4.67207904208,
			"-0.011": 4.22315724106,
			"-0.01": 3.8775457433,
			"-0.009": 4.43720128849,
			"-0.008": 6.81452540369,
			"-0.007": 9.88491184208,
			"-0.006": 12.9241576943,
			"-0.005": 15.1712318965,
			"-0.004": 14.7935988061,
			"-0.003": 14.9542483381,
			"-0.002": 13.9112104113,
			"-0.001": 11.4577728981,
			"0.0": 11.0038422727,
			"0.001": 13.7542809377,
			"0.002": 18.7090743727,
			"0.003": 13.2507620182,
			"0.004": 6.00852958233,
			"0.005": 5.32940109307,
			"0.006": 4.71219496493,
			"0.007": 6.29102380478,
			"0.008": 6.35204704178,
			"0.009": 5.5043662446,
			"0.01": 8.45233315224,
			"0.011": 11.7546769422,
			"0.012": 6.47725932034,
			"0.013": 5.39912803161,
			"0.014": 3.12360082506,
			"0.015": 0.193502719331,
			"0.016": 0.0,
			"0.017": 0.0,
			"0.018": 0.0,
			"0.019": 0.0,
			"0.02": 0.0,
			"0.021": 0.0,
			"0.022": 0.0,
			"0.023": 0.0,
			"0.024": 0.0,
			"0.025": 0.0
		}
	}
}
