{
	 "smiles": "COC1=CC(NC(=O)CC#N)=CC=C1", 
	 "Tm": 428.15, 
	 "num_atms": 24, 
	 "gaussian": { 
		 "optdone": 1, 
		 "sigma_profile": "yes", 
		 "theory": "DFT", 
		 "functional": "B3LYP", 
		 "basiset": "6-31G**", 
		 "properties": { 
			 "R2extent": 4184.0597, 
			 "electric_dipole_moment_norm": 6.88408445765, 
			 "electric_quadrupole_moment_norm": 33.6611966928, 
			 "total_energy": -647.017424784, 
			 "HOMO_LUMO_gap": 0.20429, 
			 "cosmo_polarized_energy": -20.29, 
			 "cosmo_cavitation_energy": 29.76, 
			 "cosmo_dispersion_energy": -20.81, 
			 "cosmo_repulsion_energy": 1.66, 
			 "cosmo_total_nonelectrostatic_energy": 10.6, 
			 "SMD_solvation_energy": 8.12 
		},
		"coords": [
			{
				"x": 4.8609584691,
				"y": 0.6884625111,
				"z": -0.1657206374,
				"element": "C" 
			},
			{
				"x": 3.9590971557,
				"y": 0.3920833222,
				"z": -1.2227434382,
				"element": "O" 
			},
			{
				"x": 2.6430811524,
				"y": 0.2187721374,
				"z": -0.9258249577,
				"element": "C" 
			},
			{
				"x": 2.103479782,
				"y": 0.3243173269,
				"z": 0.3597128102,
				"element": "C" 
			},
			{
				"x": 0.7277117913,
				"y": 0.1213992245,
				"z": 0.5562926676,
				"element": "C" 
			},
			{
				"x": 0.2253547347,
				"y": 0.1971311602,
				"z": 1.8842130111,
				"element": "N" 
			},
			{
				"x": -0.8215517248,
				"y": 0.9215244201,
				"z": 2.4096395704,
				"element": "C" 
			},
			{
				"x": -1.0863266949,
				"y": 0.8787554967,
				"z": 3.5973448764,
				"element": "O" 
			},
			{
				"x": -1.6330598393,
				"y": 1.783271421,
				"z": 1.4249229249,
				"element": "C" 
			},
			{
				"x": -2.2566521382,
				"y": 2.9242737665,
				"z": 2.0936496684,
				"element": "C" 
			},
			{
				"x": -2.7596736755,
				"y": 3.8505963735,
				"z": 2.5766347025,
				"element": "N" 
			},
			{
				"x": -0.1024866295,
				"y": -0.1906297102,
				"z": -0.5224527479,
				"element": "C" 
			},
			{
				"x": 0.4476415029,
				"y": -0.2654032547,
				"z": -1.8068820349,
				"element": "C" 
			},
			{
				"x": 1.8051885969,
				"y": -0.0682893698,
				"z": -2.0165506458,
				"element": "C" 
			},
			{
				"x": 4.6083085293,
				"y": 1.6359944511,
				"z": 0.3266941641,
				"element": "H" 
			},
			{
				"x": 4.8824432309,
				"y": -0.113333897,
				"z": 0.5831637551,
				"element": "H" 
			},
			{
				"x": 5.8454216512,
				"y": 0.775299891,
				"z": -0.6269350422,
				"element": "H" 
			},
			{
				"x": 2.7223481179,
				"y": 0.5778008551,
				"z": 1.2120957709,
				"element": "H" 
			},
			{
				"x": 0.7628248595,
				"y": -0.2614505513,
				"z": 2.6105225296,
				"element": "H" 
			},
			{
				"x": -2.4246293813,
				"y": 1.1637901014,
				"z": 0.9861919139,
				"element": "H" 
			},
			{
				"x": -1.0158586252,
				"y": 2.1376124503,
				"z": 0.5939307696,
				"element": "H" 
			},
			{
				"x": -1.1527006834,
				"y": -0.4049936199,
				"z": -0.3602060303,
				"element": "H" 
			},
			{
				"x": -0.1945779868,
				"y": -0.5031139244,
				"z": -2.6495238997,
				"element": "H" 
			},
			{
				"x": 2.245457805,
				"y": -0.1366705814,
				"z": -3.0052697006,
				"element": "H" 
			}
		],
		 "valence_orbital": [ 
			{
				"type": "occ",
				"energy": -0.32205,
				"method": "rhf"
			},
			{
				"type": "occ",
				"energy": -0.3004,
				"method": "rhf"
			},
			{
				"type": "occ",
				"energy": -0.27374,
				"method": "rhf"
			},
			{
				"type": "occ",
				"energy": -0.25726,
				"method": "rhf"
			},
			{
				"type": "occ",
				"energy": -0.2365,
				"method": "rhf"
			},
			{
				"type": "unocc",
				"energy": -0.03221,
				"method": "rhf"
			},
			{
				"type": "unocc",
				"energy": -0.0121,
				"method": "rhf"
			},
			{
				"type": "unocc",
				"energy": 0.01025,
				"method": "rhf"
			},
			{
				"type": "unocc",
				"energy": 0.03786,
				"method": "rhf"
			},
			{
				"type": "unocc",
				"energy": 0.03971,
				"method": "rhf"
			}
		],
		"cosmo_sigma_profile": { 
			"-0.025": 0.0,
			"-0.024": 0.0,
			"-0.023": 0.0,
			"-0.022": 0.0,
			"-0.021": 0.0,
			"-0.02": 0.0,
			"-0.019": 0.0,
			"-0.018": 0.0,
			"-0.017": 0.0,
			"-0.016": 0.0,
			"-0.015": 0.385431694897,
			"-0.014": 1.13936652496,
			"-0.013": 0.93907525901,
			"-0.012": 1.38512965239,
			"-0.011": 2.36169579838,
			"-0.01": 5.54346275861,
			"-0.009": 5.92192246561,
			"-0.008": 5.99410939981,
			"-0.007": 8.2155207871,
			"-0.006": 15.6401138725,
			"-0.005": 19.1395848606,
			"-0.004": 18.5556617339,
			"-0.003": 15.0400010788,
			"-0.002": 11.6874990184,
			"-0.001": 11.1220905545,
			"0.0": 9.16959260259,
			"0.001": 10.0868461954,
			"0.002": 10.8267831687,
			"0.003": 14.5618694138,
			"0.004": 12.5892609201,
			"0.005": 9.44337733575,
			"0.006": 4.60536599993,
			"0.007": 6.03512523517,
			"0.008": 7.9953885639,
			"0.009": 6.6211815071,
			"0.01": 5.40026554543,
			"0.011": 6.10466371395,
			"0.012": 6.9747429505,
			"0.013": 4.5204402471,
			"0.014": 0.0587279850482,
			"0.015": 0.0,
			"0.016": 0.0,
			"0.017": 0.0,
			"0.018": 0.0,
			"0.019": 0.0,
			"0.02": 0.0,
			"0.021": 0.0,
			"0.022": 0.0,
			"0.023": 0.0,
			"0.024": 0.0,
			"0.0": 0.0
		}
	}
}
