{
	 "smiles": "OC(=O)CCN1C=CC=C1", 
	 "Tm": 336.15, 
	 "num_atms": 19, 
	 "gaussian": { 
		 "optdone": 1, 
		 "sigma_profile": "yes", 
		 "theory": "DFT", 
		 "functional": "B3LYP", 
		 "basiset": "6-31G**", 
		 "properties": { 
			 "R2extent": 1627.8855, 
			 "electric_dipole_moment_norm": 4.0879669507, 
			 "electric_quadrupole_moment_norm": 16.6584084852, 
			 "total_energy": -477.35980356, 
			 "HOMO_LUMO_gap": 0.2322, 
			 "cosmo_polarized_energy": -14.06, 
			 "cosmo_cavitation_energy": 22.55, 
			 "cosmo_dispersion_energy": -16.33, 
			 "cosmo_repulsion_energy": 1.32, 
			 "cosmo_total_nonelectrostatic_energy": 7.54, 
			 "SMD_solvation_energy": 5.38 
		},
		"coords": [
			{
				"x": -2.3352219047,
				"y": 0.3089990917,
				"z": 0.4232216629,
				"element": "O" 
			},
			{
				"x": -1.9561588475,
				"y": 1.3967181096,
				"z": -0.2882918446,
				"element": "C" 
			},
			{
				"x": -2.7825406423,
				"y": 2.0777838776,
				"z": -0.8442157065,
				"element": "O" 
			},
			{
				"x": -0.4623337094,
				"y": 1.7182028627,
				"z": -0.3249693246,
				"element": "C" 
			},
			{
				"x": 0.4740697833,
				"y": 0.5730063208,
				"z": -0.7670152726,
				"element": "C" 
			},
			{
				"x": 0.6510413414,
				"y": -0.4756365086,
				"z": 0.2304044227,
				"element": "N" 
			},
			{
				"x": 0.0180183346,
				"y": -1.7071599348,
				"z": 0.2376617339,
				"element": "C" 
			},
			{
				"x": 0.386900445,
				"y": -2.3737850767,
				"z": 1.3877254846,
				"element": "C" 
			},
			{
				"x": 1.2756110695,
				"y": -1.5243800153,
				"z": 2.1045430661,
				"element": "C" 
			},
			{
				"x": 1.418994482,
				"y": -0.3665535867,
				"z": 1.3704825265,
				"element": "C" 
			},
			{
				"x": -1.5729436425,
				"y": -0.1697328694,
				"z": 0.7908944432,
				"element": "H" 
			},
			{
				"x": -0.3511298937,
				"y": 2.5578069597,
				"z": -1.0143648497,
				"element": "H" 
			},
			{
				"x": -0.153618092,
				"y": 2.0649576484,
				"z": 0.669376691,
				"element": "H" 
			},
			{
				"x": 1.456903795,
				"y": 0.9963194967,
				"z": -0.9961992444,
				"element": "H" 
			},
			{
				"x": 0.1046918486,
				"y": 0.1065888661,
				"z": -1.6846220578,
				"element": "H" 
			},
			{
				"x": -0.6127561861,
				"y": -2.006829715,
				"z": -0.5868517651,
				"element": "H" 
			},
			{
				"x": 0.0659992573,
				"y": -3.3662949166,
				"z": 1.6709355076,
				"element": "H" 
			},
			{
				"x": 1.7617228308,
				"y": -1.7399540218,
				"z": 3.0455736504,
				"element": "H" 
			},
			{
				"x": 1.9990497306,
				"y": 0.5250434117,
				"z": 1.5613108763,
				"element": "H" 
			}
		],
		 "valence_orbital": [ 
			{
				"type": "occ",
				"energy": -0.36288,
				"method": "rhf"
			},
			{
				"type": "occ",
				"energy": -0.31152,
				"method": "rhf"
			},
			{
				"type": "occ",
				"energy": -0.27017,
				"method": "rhf"
			},
			{
				"type": "occ",
				"energy": -0.24914,
				"method": "rhf"
			},
			{
				"type": "occ",
				"energy": -0.22698,
				"method": "rhf"
			},
			{
				"type": "unocc",
				"energy": 0.00522,
				"method": "rhf"
			},
			{
				"type": "unocc",
				"energy": 0.01817,
				"method": "rhf"
			},
			{
				"type": "unocc",
				"energy": 0.06504,
				"method": "rhf"
			},
			{
				"type": "unocc",
				"energy": 0.08098,
				"method": "rhf"
			},
			{
				"type": "unocc",
				"energy": 0.09454,
				"method": "rhf"
			}
		],
		"cosmo_sigma_profile": { 
			"-0.025": 0.0,
			"-0.024": 0.0,
			"-0.023": 0.0,
			"-0.022": 0.0,
			"-0.021": 0.0,
			"-0.02": 0.0,
			"-0.019": 0.0,
			"-0.018": 0.0,
			"-0.017": 0.0,
			"-0.016": 0.0,
			"-0.015": 0.0,
			"-0.014": 0.0,
			"-0.013": 0.0,
			"-0.012": 0.0,
			"-0.011": 0.287484362022,
			"-0.01": 0.609721056579,
			"-0.009": 2.38507104955,
			"-0.008": 7.06788065176,
			"-0.007": 15.2698227727,
			"-0.006": 14.6459595981,
			"-0.005": 15.8130966987,
			"-0.004": 12.3764032513,
			"-0.003": 11.101764308,
			"-0.002": 9.79199991653,
			"-0.001": 9.12912606486,
			"0.0": 7.43010624868,
			"0.001": 6.14073232075,
			"0.002": 6.96909752064,
			"0.003": 6.4712060695,
			"0.004": 6.36287075038,
			"0.005": 6.42848035812,
			"0.006": 6.98760631428,
			"0.007": 6.52373884223,
			"0.008": 5.12079548027,
			"0.009": 3.08140797165,
			"0.01": 4.28991002785,
			"0.011": 5.61452549162,
			"0.012": 5.96759055543,
			"0.013": 2.9226335903,
			"0.014": 0.175113205318,
			"0.015": 0.0,
			"0.016": 0.0,
			"0.017": 0.0,
			"0.018": 0.0,
			"0.019": 0.0,
			"0.02": 0.0,
			"0.021": 0.0,
			"0.022": 0.0,
			"0.023": 0.0,
			"0.024": 0.0,
			"0.025": 0.0
		}
	}
}
