{
	 "smiles": "COC1=C(CO)C=C(Br)C=C1", 
	 "Tm": 343.65, 
	 "num_atms": 20, 
	 "gaussian": { 
		 "optdone": 1, 
		 "sigma_profile": "yes", 
		 "theory": "DFT", 
		 "functional": "B3LYP", 
		 "basiset": "6-31G**", 
		 "properties": { 
			 "R2extent": 3847.8412, 
			 "electric_dipole_moment_norm": 3.94153882259, 
			 "electric_quadrupole_moment_norm": 13.5875310149, 
			 "total_energy": -3032.10563159, 
			 "HOMO_LUMO_gap": 0.20703, 
			 "cosmo_polarized_energy": -9.35, 
			 "cosmo_cavitation_energy": 25.74, 
			 "cosmo_dispersion_energy": -19.44, 
			 "cosmo_repulsion_energy": 1.57, 
			 "cosmo_total_nonelectrostatic_energy": 7.87, 
			 "SMD_solvation_energy": 3.9 
		},
		"coords": [
			{
				"x": 0.131341549,
				"y": -3.1375354329,
				"z": -0.0741233392,
				"element": "C" 
			},
			{
				"x": 0.5268831121,
				"y": -1.9691300963,
				"z": -0.7813903164,
				"element": "O" 
			},
			{
				"x": -0.1862922165,
				"y": -0.8111581732,
				"z": -0.5872802944,
				"element": "C" 
			},
			{
				"x": 0.2888834091,
				"y": 0.3119163296,
				"z": -1.2960512921,
				"element": "C" 
			},
			{
				"x": 1.5162526818,
				"y": 0.185554237,
				"z": -2.1787069602,
				"element": "C" 
			},
			{
				"x": 1.3744861657,
				"y": -0.7741163662,
				"z": -3.2148932737,
				"element": "O" 
			},
			{
				"x": -0.3852021116,
				"y": 1.5222910116,
				"z": -1.153768505,
				"element": "C" 
			},
			{
				"x": -1.500823908,
				"y": 1.6207610838,
				"z": -0.3193509654,
				"element": "C" 
			},
			{
				"x": -2.3996080402,
				"y": 3.2997601768,
				"z": -0.1418691309,
				"element": "Br" 
			},
			{
				"x": -1.9649480549,
				"y": 0.5136921201,
				"z": 0.3781224528,
				"element": "C" 
			},
			{
				"x": -1.3040439708,
				"y": -0.7116328957,
				"z": 0.2424440139,
				"element": "C" 
			},
			{
				"x": 0.1824124777,
				"y": -2.9835920456,
				"z": 1.0104260371,
				"element": "H" 
			},
			{
				"x": 0.8380188507,
				"y": -3.9174385992,
				"z": -0.3607846691,
				"element": "H" 
			},
			{
				"x": -0.8837941416,
				"y": -3.449164654,
				"z": -0.348993098,
				"element": "H" 
			},
			{
				"x": 2.3901704653,
				"y": -0.0418906275,
				"z": -1.5468063421,
				"element": "H" 
			},
			{
				"x": 1.7103462246,
				"y": 1.1440180749,
				"z": -2.6686700079,
				"element": "H" 
			},
			{
				"x": 1.2315267367,
				"y": -1.6222648491,
				"z": -2.772228286,
				"element": "H" 
			},
			{
				"x": -0.0377237836,
				"y": 2.3950900237,
				"z": -1.6965058714,
				"element": "H" 
			},
			{
				"x": -2.8333502281,
				"y": 0.5940494847,
				"z": 1.0217608216,
				"element": "H" 
			},
			{
				"x": -1.6747352174,
				"y": -1.5707088024,
				"z": 0.7884690264,
				"element": "H" 
			}
		],
		 "valence_orbital": [ 
			{
				"type": "occ",
				"energy": -0.29337,
				"method": "rhf"
			},
			{
				"type": "occ",
				"energy": -0.28516,
				"method": "rhf"
			},
			{
				"type": "occ",
				"energy": -0.2624,
				"method": "rhf"
			},
			{
				"type": "occ",
				"energy": -0.26082,
				"method": "rhf"
			},
			{
				"type": "occ",
				"energy": -0.22465,
				"method": "rhf"
			},
			{
				"type": "unocc",
				"energy": -0.01762,
				"method": "rhf"
			},
			{
				"type": "unocc",
				"energy": -0.00549,
				"method": "rhf"
			},
			{
				"type": "unocc",
				"energy": 0.00941,
				"method": "rhf"
			},
			{
				"type": "unocc",
				"energy": 0.08088,
				"method": "rhf"
			},
			{
				"type": "unocc",
				"energy": 0.08737,
				"method": "rhf"
			}
		],
		"cosmo_sigma_profile": { 
			"-0.025": 0.0,
			"-0.024": 0.0,
			"-0.023": 0.0,
			"-0.022": 0.0,
			"-0.021": 0.0,
			"-0.02": 0.0,
			"-0.019": 0.0,
			"-0.018": 0.0,
			"-0.017": 0.0,
			"-0.016": 0.0,
			"-0.015": 0.0,
			"-0.014": 0.0,
			"-0.013": 0.0,
			"-0.012": 0.0,
			"-0.011": 0.0572856270999,
			"-0.01": 0.719692193276,
			"-0.009": 0.330686920328,
			"-0.008": 0.406964270353,
			"-0.007": 7.53192459232,
			"-0.006": 15.1722111018,
			"-0.005": 16.0380338733,
			"-0.004": 17.8850706868,
			"-0.003": 17.332865313,
			"-0.002": 14.7440883472,
			"-0.001": 11.6419007329,
			"0.0": 11.6730462002,
			"0.001": 12.5597759457,
			"0.002": 15.1377079396,
			"0.003": 20.3204228613,
			"0.004": 18.1282476968,
			"0.005": 12.3096376946,
			"0.006": 2.61926103391,
			"0.007": 1.57028661714,
			"0.008": 1.24195833564,
			"0.009": 1.55075594982,
			"0.01": 1.0160862423,
			"0.011": 0.790362734887,
			"0.012": 1.84007735872,
			"0.013": 1.66258103405,
			"0.014": 2.37786462708,
			"0.015": 1.04034161887,
			"0.016": 0.0,
			"0.017": 0.0,
			"0.018": 0.0,
			"0.019": 0.0,
			"0.02": 0.0,
			"0.021": 0.0,
			"0.022": 0.0,
			"0.023": 0.0,
			"0.024": 0.0,
			"0.025": 0.0
		}
	}
}
