{
	 "smiles": "CC(=O)C(=CC1=CC=C(O1)C1=CC=CC(=C1)[N+]([O-])=O)C(C)=O", 
	 "Tm": 427.15, 
	 "num_atms": 35, 
	 "gaussian": { 
		 "optdone": 1, 
		 "sigma_profile": "yes", 
		 "theory": "DFT", 
		 "functional": "B3LYP", 
		 "basiset": "6-31G**", 
		 "properties": { 
			 "R2extent": 8300.1938, 
			 "electric_dipole_moment_norm": 8.98170608793, 
			 "electric_quadrupole_moment_norm": 9.97791351486, 
			 "total_energy": -1048.27816003, 
			 "HOMO_LUMO_gap": 0.1292, 
			 "cosmo_polarized_energy": -22.08, 
			 "cosmo_cavitation_energy": 42.01, 
			 "cosmo_dispersion_energy": -27.84, 
			 "cosmo_repulsion_energy": 2.08, 
			 "cosmo_total_nonelectrostatic_energy": 16.25, 
			 "SMD_solvation_energy": 11.04 
		},
		"coords": [
			{
				"x": -0.9276707882,
				"y": 0.1137985721,
				"z": 2.5487313347,
				"element": "C" 
			},
			{
				"x": -0.551967989,
				"y": 1.1383226778,
				"z": 1.5044603857,
				"element": "C" 
			},
			{
				"x": 0.5966641155,
				"y": 1.467711426,
				"z": 1.2821046971,
				"element": "O" 
			},
			{
				"x": -1.687270576,
				"y": 1.7707481625,
				"z": 0.7084911493,
				"element": "C" 
			},
			{
				"x": -1.8874388118,
				"y": 1.5328364814,
				"z": -0.6136352844,
				"element": "C" 
			},
			{
				"x": -1.1959457524,
				"y": 0.6221950182,
				"z": -1.4770979413,
				"element": "C" 
			},
			{
				"x": -1.3300105497,
				"y": 0.3804866412,
				"z": -2.8296956073,
				"element": "C" 
			},
			{
				"x": -0.3929651738,
				"y": -0.6281945136,
				"z": -3.1632105615,
				"element": "C" 
			},
			{
				"x": 0.2629137927,
				"y": -0.9570247123,
				"z": -1.99606818,
				"element": "C" 
			},
			{
				"x": -0.227979135,
				"y": -0.2026501464,
				"z": -0.9737531375,
				"element": "O" 
			},
			{
				"x": 1.3251430669,
				"y": -1.8968155129,
				"z": -1.6680123481,
				"element": "C" 
			},
			{
				"x": 1.7673272285,
				"y": -2.8399122586,
				"z": -2.6151927162,
				"element": "C" 
			},
			{
				"x": 2.7833338075,
				"y": -3.7404684355,
				"z": -2.3056001432,
				"element": "C" 
			},
			{
				"x": 3.3761436278,
				"y": -3.7308524758,
				"z": -1.0434920303,
				"element": "C" 
			},
			{
				"x": 2.9244817792,
				"y": -2.7963438209,
				"z": -0.1136633985,
				"element": "C" 
			},
			{
				"x": 1.9218599884,
				"y": -1.876660704,
				"z": -0.3960044451,
				"element": "C" 
			},
			{
				"x": 3.5352352597,
				"y": -2.7851920839,
				"z": 1.2305163394,
				"element": "N" 
			},
			{
				"x": 3.0738677425,
				"y": -2.0056545251,
				"z": 2.0605557079,
				"element": "O" 
			},
			{
				"x": 4.4656661182,
				"y": -3.5638406025,
				"z": 1.4362073944,
				"element": "O" 
			},
			{
				"x": -2.5402454548,
				"y": 2.7251447514,
				"z": 1.4662491957,
				"element": "C" 
			},
			{
				"x": -3.6312763919,
				"y": 3.5065168549,
				"z": 0.7479837819,
				"element": "C" 
			},
			{
				"x": -2.3586013559,
				"y": 2.8835095064,
				"z": 2.6684402486,
				"element": "O" 
			},
			{
				"x": -1.5571911873,
				"y": 0.5918633171,
				"z": 3.3051536839,
				"element": "H" 
			},
			{
				"x": -0.0239071421,
				"y": -0.289955768,
				"z": 3.008742473,
				"element": "H" 
			},
			{
				"x": -1.5103967622,
				"y": -0.6948542581,
				"z": 2.0921362708,
				"element": "H" 
			},
			{
				"x": -2.6816079398,
				"y": 2.0726705875,
				"z": -1.1226780562,
				"element": "H" 
			},
			{
				"x": -2.0181315957,
				"y": 0.8804762421,
				"z": -3.4965505422,
				"element": "H" 
			},
			{
				"x": -0.2136092776,
				"y": -1.0488216232,
				"z": -4.1416169716,
				"element": "H" 
			},
			{
				"x": 1.3064459708,
				"y": -2.8720073293,
				"z": -3.5974031143,
				"element": "H" 
			},
			{
				"x": 3.1113669938,
				"y": -4.4599249363,
				"z": -3.0489108761,
				"element": "H" 
			},
			{
				"x": 4.164136012,
				"y": -4.4204970552,
				"z": -0.7698147029,
				"element": "H" 
			},
			{
				"x": 1.6273642383,
				"y": -1.1522249252,
				"z": 0.3531487415,
				"element": "H" 
			},
			{
				"x": -4.3827056722,
				"y": 2.83740771,
				"z": 0.314924423,
				"element": "H" 
			},
			{
				"x": -4.1128280272,
				"y": 4.1597673913,
				"z": 1.4760097835,
				"element": "H" 
			},
			{
				"x": -3.2185001593,
				"y": 4.114640347,
				"z": -0.0638555538,
				"element": "H" 
			}
		],
		 "valence_orbital": [ 
			{
				"type": "occ",
				"energy": -0.28862,
				"method": "rhf"
			},
			{
				"type": "occ",
				"energy": -0.28617,
				"method": "rhf"
			},
			{
				"type": "occ",
				"energy": -0.25949,
				"method": "rhf"
			},
			{
				"type": "occ",
				"energy": -0.24199,
				"method": "rhf"
			},
			{
				"type": "occ",
				"energy": -0.22304,
				"method": "rhf"
			},
			{
				"type": "unocc",
				"energy": -0.09384,
				"method": "rhf"
			},
			{
				"type": "unocc",
				"energy": -0.08795,
				"method": "rhf"
			},
			{
				"type": "unocc",
				"energy": -0.04223,
				"method": "rhf"
			},
			{
				"type": "unocc",
				"energy": -0.01567,
				"method": "rhf"
			},
			{
				"type": "unocc",
				"energy": -0.01012,
				"method": "rhf"
			}
		],
		"cosmo_sigma_profile": { 
			"-0.025": 0.0,
			"-0.024": 0.0,
			"-0.023": 0.0,
			"-0.022": 0.0,
			"-0.021": 0.0,
			"-0.02": 0.0,
			"-0.019": 0.0,
			"-0.018": 0.0,
			"-0.017": 0.0,
			"-0.016": 0.0,
			"-0.015": 0.0,
			"-0.014": 0.0,
			"-0.013": 0.0,
			"-0.012": 0.0,
			"-0.011": 0.0,
			"-0.01": 0.494486607837,
			"-0.009": 5.04493448968,
			"-0.008": 10.990448443,
			"-0.007": 13.8236935239,
			"-0.006": 18.5568130864,
			"-0.005": 18.2575682003,
			"-0.004": 20.1623937638,
			"-0.003": 20.0982298507,
			"-0.002": 27.7090059734,
			"-0.001": 36.9058899804,
			"0.0": 36.831558428,
			"0.001": 27.0234428027,
			"0.002": 19.4952211997,
			"0.003": 9.27343772831,
			"0.004": 7.21087686779,
			"0.005": 7.90122589653,
			"0.006": 7.94965549803,
			"0.007": 11.4140047318,
			"0.008": 9.58371918814,
			"0.009": 8.0081460259,
			"0.01": 6.08051753207,
			"0.011": 5.8781652004,
			"0.012": 6.05810893231,
			"0.013": 1.93595026242,
			"0.014": 0.246917102381,
			"0.015": 0.0,
			"0.016": 0.0,
			"0.017": 0.0,
			"0.018": 0.0,
			"0.019": 0.0,
			"0.02": 0.0,
			"0.021": 0.0,
			"0.022": 0.0,
			"0.023": 0.0,
			"0.024": 0.0,
			"0.025": 0.0
		}
	}
}
