{
	 "smiles": "CC1=CC(Cl)=CC(C)=C1N", 
	 "Tm": 321.15, 
	 "num_atms": 20, 
	 "gaussian": { 
		 "optdone": 1, 
		 "sigma_profile": "yes", 
		 "theory": "DFT", 
		 "functional": "B3LYP", 
		 "basiset": "6-31G**", 
		 "properties": { 
			 "R2extent": 2137.3731, 
			 "electric_dipole_moment_norm": 3.85308609948, 
			 "electric_quadrupole_moment_norm": 8.15981899983, 
			 "total_energy": -825.841288479, 
			 "HOMO_LUMO_gap": 0.20039, 
			 "cosmo_polarized_energy": -8.52, 
			 "cosmo_cavitation_energy": 24.44, 
			 "cosmo_dispersion_energy": -18.31, 
			 "cosmo_repulsion_energy": 1.48, 
			 "cosmo_total_nonelectrostatic_energy": 7.61, 
			 "SMD_solvation_energy": 3.75 
		},
		"coords": [
			{
				"x": 0.0502350338,
				"y": 0.0940964357,
				"z": -2.3645692378,
				"element": "C" 
			},
			{
				"x": -0.264622491,
				"y": 0.1678212088,
				"z": -0.890350305,
				"element": "C" 
			},
			{
				"x": -1.5875021652,
				"y": 0.1219836903,
				"z": -0.4447273953,
				"element": "C" 
			},
			{
				"x": -1.8740929993,
				"y": 0.2020457515,
				"z": 0.9143106201,
				"element": "C" 
			},
			{
				"x": -3.550757427,
				"y": 0.1399421038,
				"z": 1.4583354288,
				"element": "Cl" 
			},
			{
				"x": -0.8514389294,
				"y": 0.3351069627,
				"z": 1.848116931,
				"element": "C" 
			},
			{
				"x": 0.4810806406,
				"y": 0.3837301008,
				"z": 1.432497946,
				"element": "C" 
			},
			{
				"x": 1.5929638334,
				"y": 0.5408509809,
				"z": 2.4409085475,
				"element": "C" 
			},
			{
				"x": 0.778276362,
				"y": 0.2941551707,
				"z": 0.0542617302,
				"element": "C" 
			},
			{
				"x": 2.1043751502,
				"y": 0.3950598547,
				"z": -0.38087173,
				"element": "N" 
			},
			{
				"x": 0.6141046847,
				"y": 0.9734646928,
				"z": -2.7003641279,
				"element": "H" 
			},
			{
				"x": 0.6533154577,
				"y": -0.7910194277,
				"z": -2.6132164304,
				"element": "H" 
			},
			{
				"x": -0.8644145412,
				"y": 0.036839306,
				"z": -2.9592617459,
				"element": "H" 
			},
			{
				"x": -2.3946552764,
				"y": 0.0239173387,
				"z": -1.1633336235,
				"element": "H" 
			},
			{
				"x": -1.0886424147,
				"y": 0.4020804366,
				"z": 2.9048856731,
				"element": "H" 
			},
			{
				"x": 1.1945045281,
				"y": 0.6327481465,
				"z": 3.4539731943,
				"element": "H" 
			},
			{
				"x": 2.1987845582,
				"y": 1.4326233341,
				"z": 2.2366442729,
				"element": "H" 
			},
			{
				"x": 2.2755692459,
				"y": -0.3211295409,
				"z": 2.4390732963,
				"element": "H" 
			},
			{
				"x": 2.8034042326,
				"y": 0.1333986875,
				"z": 0.2995796729,
				"element": "H" 
			},
			{
				"x": 2.2947125171,
				"y": -0.0138152334,
				"z": -1.2845927172,
				"element": "H" 
			}
		],
		 "valence_orbital": [ 
			{
				"type": "occ",
				"energy": -0.33885,
				"method": "rhf"
			},
			{
				"type": "occ",
				"energy": -0.29863,
				"method": "rhf"
			},
			{
				"type": "occ",
				"energy": -0.28712,
				"method": "rhf"
			},
			{
				"type": "occ",
				"energy": -0.24123,
				"method": "rhf"
			},
			{
				"type": "occ",
				"energy": -0.19848,
				"method": "rhf"
			},
			{
				"type": "unocc",
				"energy": 0.00191,
				"method": "rhf"
			},
			{
				"type": "unocc",
				"energy": 0.01208,
				"method": "rhf"
			},
			{
				"type": "unocc",
				"energy": 0.04226,
				"method": "rhf"
			},
			{
				"type": "unocc",
				"energy": 0.0673,
				"method": "rhf"
			},
			{
				"type": "unocc",
				"energy": 0.10028,
				"method": "rhf"
			}
		],
		"cosmo_sigma_profile": { 
			"-0.025": 0.0,
			"-0.024": 0.0,
			"-0.023": 0.0,
			"-0.022": 0.0,
			"-0.021": 0.0,
			"-0.02": 0.0,
			"-0.019": 0.0,
			"-0.018": 0.0,
			"-0.017": 0.0,
			"-0.016": 0.0,
			"-0.015": 0.0,
			"-0.014": 0.0,
			"-0.013": 0.0,
			"-0.012": 0.695035646034,
			"-0.011": 2.48655258427,
			"-0.01": 2.32038395351,
			"-0.009": 3.29345287427,
			"-0.008": 2.84012545947,
			"-0.007": 3.56571888939,
			"-0.006": 5.60434966051,
			"-0.005": 10.4769804269,
			"-0.004": 14.1764275064,
			"-0.003": 13.4501722712,
			"-0.002": 13.220805293,
			"-0.001": 16.5871830467,
			"0.0": 18.9642667982,
			"0.001": 11.7887891774,
			"0.002": 10.2648794678,
			"0.003": 12.6983487325,
			"0.004": 15.86912497,
			"0.005": 19.4796899729,
			"0.006": 12.1527136988,
			"0.007": 1.19059665968,
			"0.008": 0.501516291862,
			"0.009": 0.480923494515,
			"0.01": 0.412472909393,
			"0.011": 0.866591353749,
			"0.012": 0.778988649765,
			"0.013": 0.519197330993,
			"0.014": 0.386306569904,
			"0.015": 0.10269680689,
			"0.016": 0.0,
			"0.017": 0.0,
			"0.018": 0.0,
			"0.019": 0.0,
			"0.02": 0.0,
			"0.021": 0.0,
			"0.022": 0.0,
			"0.023": 0.0,
			"0.024": 0.0,
			"0.025": 0.0
		}
	}
}
