{
	 "smiles": "CC1CC2C3CCC(OC(C)=O)(C(C)=O)C3(C)CCC2C2(C)CCC(=O)C=C12", 
	 "Tm": 479.15, 
	 "num_atms": 62, 
	 "gaussian": { 
		 "optdone": 1, 
		 "sigma_profile": "yes", 
		 "theory": "DFT", 
		 "functional": "B3LYP", 
		 "basiset": "6-31G**", 
		 "properties": { 
			 "R2extent": 12168.0588, 
			 "electric_dipole_moment_norm": 5.16114010273, 
			 "electric_quadrupole_moment_norm": 44.757742732, 
			 "total_energy": -1235.95113195, 
			 "HOMO_LUMO_gap": 0.18633, 
			 "cosmo_polarized_energy": -18.32, 
			 "cosmo_cavitation_energy": 52.79, 
			 "cosmo_dispersion_energy": -36.28, 
			 "cosmo_repulsion_energy": 2.64, 
			 "cosmo_total_nonelectrostatic_energy": 19.14, 
			 "SMD_solvation_energy": 9.85 
		},
		"coords": [
			{
				"x": 3.9622041648,
				"y": 1.6292261433,
				"z": 2.3915830054,
				"element": "C" 
			},
			{
				"x": 2.5309967525,
				"y": 1.2694615332,
				"z": 1.9761216955,
				"element": "C" 
			},
			{
				"x": 2.2126994365,
				"y": 1.8415271366,
				"z": 0.5772890888,
				"element": "C" 
			},
			{
				"x": 0.837290345,
				"y": 1.4363418815,
				"z": 0.0160062403,
				"element": "C" 
			},
			{
				"x": 0.8614977012,
				"y": 0.1291210139,
				"z": -0.8229649533,
				"element": "C" 
			},
			{
				"x": 1.4682303754,
				"y": -1.1679442876,
				"z": -0.2166052776,
				"element": "C" 
			},
			{
				"x": 0.655624666,
				"y": -2.350675827,
				"z": -0.785591665,
				"element": "C" 
			},
			{
				"x": -0.306866484,
				"y": -1.7542135609,
				"z": -1.8518770611,
				"element": "C" 
			},
			{
				"x": -1.5036625093,
				"y": -2.5845159154,
				"z": -1.7782754652,
				"element": "O" 
			},
			{
				"x": -2.4656111292,
				"y": -2.4937044778,
				"z": -2.72603198,
				"element": "C" 
			},
			{
				"x": -3.6438338796,
				"y": -3.3685264799,
				"z": -2.367811475,
				"element": "C" 
			},
			{
				"x": -2.3796142862,
				"y": -1.8142988832,
				"z": -3.7263777562,
				"element": "O" 
			},
			{
				"x": 0.4209491643,
				"y": -1.9331330231,
				"z": -3.2049069872,
				"element": "C" 
			},
			{
				"x": 0.3015478992,
				"y": -3.2728828737,
				"z": -3.9150058078,
				"element": "C" 
			},
			{
				"x": 1.1798211429,
				"y": -1.0792871147,
				"z": -3.6236520588,
				"element": "O" 
			},
			{
				"x": -0.5444861718,
				"y": -0.271900965,
				"z": -1.3728776828,
				"element": "C" 
			},
			{
				"x": -1.0266100949,
				"y": 0.6862107793,
				"z": -2.4799860887,
				"element": "C" 
			},
			{
				"x": -1.5518700678,
				"y": -0.2745923957,
				"z": -0.1922214756,
				"element": "C" 
			},
			{
				"x": -1.6350495349,
				"y": 1.0766516585,
				"z": 0.5386047985,
				"element": "C" 
			},
			{
				"x": -0.2897481182,
				"y": 1.6275772009,
				"z": 1.0788760529,
				"element": "C" 
			},
			{
				"x": 0.0064278993,
				"y": 1.2835057299,
				"z": 2.5962530745,
				"element": "C" 
			},
			{
				"x": -0.1998898061,
				"y": -0.206939355,
				"z": 2.9700329795,
				"element": "C" 
			},
			{
				"x": -0.9884559775,
				"y": 2.1342654104,
				"z": 3.4415993638,
				"element": "C" 
			},
			{
				"x": -0.6552582548,
				"y": 2.1989974567,
				"z": 4.9336861721,
				"element": "C" 
			},
			{
				"x": 0.7690537627,
				"y": 2.6753835482,
				"z": 5.1573790027,
				"element": "C" 
			},
			{
				"x": 1.106981111,
				"y": 3.2720923515,
				"z": 6.1714274268,
				"element": "O" 
			},
			{
				"x": 1.7419170983,
				"y": 2.3332848176,
				"z": 4.1041432855,
				"element": "C" 
			},
			{
				"x": 1.4469823764,
				"y": 1.6813944187,
				"z": 2.9578187985,
				"element": "C" 
			},
			{
				"x": 4.229936067,
				"y": 1.1929781192,
				"z": 3.358391363,
				"element": "H" 
			},
			{
				"x": 4.669375103,
				"y": 1.2503798133,
				"z": 1.6469471694,
				"element": "H" 
			},
			{
				"x": 4.1019258971,
				"y": 2.7136782996,
				"z": 2.458405428,
				"element": "H" 
			},
			{
				"x": 2.4842361165,
				"y": 0.1745344041,
				"z": 1.9063290276,
				"element": "H" 
			},
			{
				"x": 2.2611617715,
				"y": 2.9365195651,
				"z": 0.6518431593,
				"element": "H" 
			},
			{
				"x": 3.0024116546,
				"y": 1.5470516212,
				"z": -0.1250501548,
				"element": "H" 
			},
			{
				"x": 0.599890363,
				"y": 2.1982335714,
				"z": -0.7380881859,
				"element": "H" 
			},
			{
				"x": 1.4734323528,
				"y": 0.365960726,
				"z": -1.6985791508,
				"element": "H" 
			},
			{
				"x": 2.5279088829,
				"y": -1.2489473505,
				"z": -0.4747802809,
				"element": "H" 
			},
			{
				"x": 1.4148246228,
				"y": -1.1906107356,
				"z": 0.8707857772,
				"element": "H" 
			},
			{
				"x": 0.0392469821,
				"y": -2.8250426804,
				"z": -0.0171949691,
				"element": "H" 
			},
			{
				"x": 1.2890659785,
				"y": -3.1392462031,
				"z": -1.2035976969,
				"element": "H" 
			},
			{
				"x": -4.382245834,
				"y": -3.3270021237,
				"z": -3.1677248429,
				"element": "H" 
			},
			{
				"x": -3.3148616726,
				"y": -4.3999440096,
				"z": -2.2121512202,
				"element": "H" 
			},
			{
				"x": -4.0916510745,
				"y": -3.0255213948,
				"z": -1.4302523265,
				"element": "H" 
			},
			{
				"x": -0.4831777516,
				"y": -3.1930177711,
				"z": -4.6727486624,
				"element": "H" 
			},
			{
				"x": 1.2468611867,
				"y": -3.4811899158,
				"z": -4.4194733458,
				"element": "H" 
			},
			{
				"x": 0.0408894796,
				"y": -4.0915769343,
				"z": -3.2401486375,
				"element": "H" 
			},
			{
				"x": -2.03046561,
				"y": 0.4278754647,
				"z": -2.8220576401,
				"element": "H" 
			},
			{
				"x": -1.0541020336,
				"y": 1.7162291128,
				"z": -2.1141655597,
				"element": "H" 
			},
			{
				"x": -0.3583780224,
				"y": 0.6595779599,
				"z": -3.3402992379,
				"element": "H" 
			},
			{
				"x": -2.551621341,
				"y": -0.5276641289,
				"z": -0.5631518654,
				"element": "H" 
			},
			{
				"x": -1.2876567396,
				"y": -1.0613940994,
				"z": 0.52124203,
				"element": "H" 
			},
			{
				"x": -2.052290429,
				"y": 1.8195595093,
				"z": -0.1500237605,
				"element": "H" 
			},
			{
				"x": -2.369028907,
				"y": 0.9937295586,
				"z": 1.3471215699,
				"element": "H" 
			},
			{
				"x": -0.4070102333,
				"y": 2.7185441116,
				"z": 1.1142619467,
				"element": "H" 
			},
			{
				"x": -1.2232257259,
				"y": -0.5261470993,
				"z": 2.7522650158,
				"element": "H" 
			},
			{
				"x": 0.4793663571,
				"y": -0.8761952827,
				"z": 2.4408588389,
				"element": "H" 
			},
			{
				"x": -0.025890932,
				"y": -0.3609090419,
				"z": 4.0387317295,
				"element": "H" 
			},
			{
				"x": -2.006746586,
				"y": 1.7545730702,
				"z": 3.3061798669,
				"element": "H" 
			},
			{
				"x": -0.9848298508,
				"y": 3.1592894525,
				"z": 3.0508717749,
				"element": "H" 
			},
			{
				"x": -1.3343711521,
				"y": 2.8680792517,
				"z": 5.470367513,
				"element": "H" 
			},
			{
				"x": -0.753267252,
				"y": 1.2130094748,
				"z": 5.4080298539,
				"element": "H" 
			},
			{
				"x": 2.7623207512,
				"y": 2.6137797637,
				"z": 4.3435202227,
				"element": "H" 
			}
		],
		 "valence_orbital": [ 
			{
				"type": "occ",
				"energy": -0.28515,
				"method": "rhf"
			},
			{
				"type": "occ",
				"energy": -0.28046,
				"method": "rhf"
			},
			{
				"type": "occ",
				"energy": -0.25306,
				"method": "rhf"
			},
			{
				"type": "occ",
				"energy": -0.24524,
				"method": "rhf"
			},
			{
				"type": "occ",
				"energy": -0.22892,
				"method": "rhf"
			},
			{
				"type": "unocc",
				"energy": -0.04259,
				"method": "rhf"
			},
			{
				"type": "unocc",
				"energy": -0.0207,
				"method": "rhf"
			},
			{
				"type": "unocc",
				"energy": -0.0052,
				"method": "rhf"
			},
			{
				"type": "unocc",
				"energy": 0.05324,
				"method": "rhf"
			},
			{
				"type": "unocc",
				"energy": 0.0657,
				"method": "rhf"
			}
		],
		"cosmo_sigma_profile": { 
			"-0.025": -0.690716383339,
			"-0.024": -0.000324167220909,
			"-0.023": 0.0,
			"-0.022": 0.0,
			"-0.021": 0.0,
			"-0.02": 0.0,
			"-0.019": 0.0,
			"-0.018": 0.0,
			"-0.017": 0.0,
			"-0.016": 0.0,
			"-0.015": 0.0,
			"-0.014": 0.0,
			"-0.013": 0.0,
			"-0.012": 0.000695193214202,
			"-0.011": 0.00582808226632,
			"-0.01": 0.00131200695564,
			"-0.009": 0.00290448656384,
			"-0.008": 0.000679630309577,
			"-0.007": 1.14711676404,
			"-0.006": 7.02688196842,
			"-0.005": 19.45788503,
			"-0.004": 34.844113096,
			"-0.003": 57.9345028796,
			"-0.002": 68.7679876809,
			"-0.001": 57.7413312122,
			"0.0": 42.1934471496,
			"0.001": 28.6785890837,
			"0.002": 16.4536788097,
			"0.003": 9.2331025026,
			"0.004": 7.9733929239,
			"0.005": 7.15693771342,
			"0.006": 6.17599526883,
			"0.007": 4.48966209991,
			"0.008": 5.41160778338,
			"0.009": 4.71265665444,
			"0.01": 4.79920127549,
			"0.011": 6.87886223499,
			"0.012": 7.02881796082,
			"0.013": 6.328537799,
			"0.014": 3.27238018639,
			"0.015": 0.664568306393,
			"0.016": 0.0,
			"0.017": 0.0,
			"0.018": 0.0,
			"0.019": 0.0,
			"0.02": 0.0,
			"0.021": 0.0,
			"0.022": 0.0640532335116,
			"0.023": 0.382309472883,
			"0.024": -0.14329692468,
			"0.025": -0.263484142155
		}
	}
}
