{
	 "smiles": "C1COCCOCCOCCOCCOCCN1", 
	 "Tm": 321.15, 
	 "num_atms": 43, 
	 "gaussian": { 
		 "optdone": 1, 
		 "sigma_profile": "yes", 
		 "theory": "DFT", 
		 "functional": "B3LYP", 
		 "basiset": "6-31G**", 
		 "properties": { 
			 "R2extent": 5427.532, 
			 "electric_dipole_moment_norm": 3.648540008, 
			 "electric_quadrupole_moment_norm": 12.4410755323, 
			 "total_energy": -903.11352978, 
			 "HOMO_LUMO_gap": 0.26699, 
			 "cosmo_polarized_energy": -18.64, 
			 "cosmo_cavitation_energy": 40.76, 
			 "cosmo_dispersion_energy": -27.68, 
			 "cosmo_repulsion_energy": 2.14, 
			 "cosmo_total_nonelectrostatic_energy": 15.22, 
			 "SMD_solvation_energy": 4.26 
		},
		"coords": [
			{
				"x": -0.398590453,
				"y": -1.1418062764,
				"z": -2.9926086064,
				"element": "C" 
			},
			{
				"x": 0.7602952849,
				"y": -1.1133801223,
				"z": -1.9853578337,
				"element": "C" 
			},
			{
				"x": 1.982068368,
				"y": -0.6300308939,
				"z": -2.518122272,
				"element": "O" 
			},
			{
				"x": 2.0996881186,
				"y": 0.7579186615,
				"z": -2.7727958076,
				"element": "C" 
			},
			{
				"x": 1.6386190268,
				"y": 1.7068598479,
				"z": -1.6674272627,
				"element": "C" 
			},
			{
				"x": 2.2067107673,
				"y": 1.3373915208,
				"z": -0.4249922562,
				"element": "O" 
			},
			{
				"x": 2.1982640501,
				"y": 2.3904274904,
				"z": 0.5331604288,
				"element": "C" 
			},
			{
				"x": 2.4687362372,
				"y": 1.8401039903,
				"z": 1.9329794055,
				"element": "C" 
			},
			{
				"x": 1.3055766845,
				"y": 1.4263624256,
				"z": 2.6265232202,
				"element": "O" 
			},
			{
				"x": 0.7511300358,
				"y": 0.1919775326,
				"z": 2.2008685164,
				"element": "C" 
			},
			{
				"x": -0.6009619774,
				"y": 0.0002980365,
				"z": 2.8792762271,
				"element": "C" 
			},
			{
				"x": -1.5483838387,
				"y": 1.0259763878,
				"z": 2.60524519,
				"element": "O" 
			},
			{
				"x": -2.0502307022,
				"y": 1.1109336716,
				"z": 1.2854717116,
				"element": "C" 
			},
			{
				"x": -3.2341067198,
				"y": 0.1855965278,
				"z": 0.9909655143,
				"element": "C" 
			},
			{
				"x": -2.9582620869,
				"y": -1.208477164,
				"z": 0.9065677742,
				"element": "O" 
			},
			{
				"x": -2.0399114082,
				"y": -1.6375573359,
				"z": -0.0902454933,
				"element": "C" 
			},
			{
				"x": -2.4225012843,
				"y": -1.2765036669,
				"z": -1.5356388321,
				"element": "C" 
			},
			{
				"x": -1.5275908388,
				"y": -1.9319802686,
				"z": -2.4959160435,
				"element": "N" 
			},
			{
				"x": -0.6946427913,
				"y": -0.1100811649,
				"z": -3.2625227732,
				"element": "H" 
			},
			{
				"x": -0.0258380083,
				"y": -1.619375634,
				"z": -3.905417999,
				"element": "H" 
			},
			{
				"x": 0.9626866559,
				"y": -2.1423378438,
				"z": -1.673529702,
				"element": "H" 
			},
			{
				"x": 0.4849773431,
				"y": -0.546469809,
				"z": -1.0879813966,
				"element": "H" 
			},
			{
				"x": 3.1687282236,
				"y": 0.9147773281,
				"z": -2.9485856511,
				"element": "H" 
			},
			{
				"x": 1.566302873,
				"y": 1.0505901726,
				"z": -3.69339305,
				"element": "H" 
			},
			{
				"x": 1.9554913383,
				"y": 2.720085021,
				"z": -1.9659226984,
				"element": "H" 
			},
			{
				"x": 0.5386085881,
				"y": 1.7321613122,
				"z": -1.5882822872,
				"element": "H" 
			},
			{
				"x": 2.9693103831,
				"y": 3.1334578476,
				"z": 0.2676044401,
				"element": "H" 
			},
			{
				"x": 1.2262536809,
				"y": 2.9073677818,
				"z": 0.5482241517,
				"element": "H" 
			},
			{
				"x": 2.8984307989,
				"y": 2.6415160391,
				"z": 2.543502151,
				"element": "H" 
			},
			{
				"x": 3.2120507934,
				"y": 1.0302975949,
				"z": 1.8618864483,
				"element": "H" 
			},
			{
				"x": 1.40523119,
				"y": -0.6512366943,
				"z": 2.484194895,
				"element": "H" 
			},
			{
				"x": 0.660421262,
				"y": 0.1636652692,
				"z": 1.1086251168,
				"element": "H" 
			},
			{
				"x": -0.4584063484,
				"y": 0.0359943381,
				"z": 3.9638020927,
				"element": "H" 
			},
			{
				"x": -0.9969671395,
				"y": -0.9907849964,
				"z": 2.6182867788,
				"element": "H" 
			},
			{
				"x": -2.4164426749,
				"y": 2.1393184805,
				"z": 1.1740962675,
				"element": "H" 
			},
			{
				"x": -1.256017357,
				"y": 0.9797576056,
				"z": 0.5362398171,
				"element": "H" 
			},
			{
				"x": -3.9555510027,
				"y": 0.2795626926,
				"z": 1.8084857505,
				"element": "H" 
			},
			{
				"x": -3.724912735,
				"y": 0.5458185433,
				"z": 0.0720878547,
				"element": "H" 
			},
			{
				"x": -1.026657114,
				"y": -1.2759583292,
				"z": 0.1309459583,
				"element": "H" 
			},
			{
				"x": -2.0127799956,
				"y": -2.7276628928,
				"z": -0.0090152091,
				"element": "H" 
			},
			{
				"x": -3.4474019958,
				"y": -1.6260580256,
				"z": -1.7049398698,
				"element": "H" 
			},
			{
				"x": -2.4318731584,
				"y": -0.1821818721,
				"z": -1.6782078156,
				"element": "H" 
			},
			{
				"x": -2.0676520731,
				"y": -2.2664331292,
				"z": -3.2845368509,
				"element": "H" 
			}
		],
		 "valence_orbital": [ 
			{
				"type": "occ",
				"energy": -0.26888,
				"method": "rhf"
			},
			{
				"type": "occ",
				"energy": -0.25786,
				"method": "rhf"
			},
			{
				"type": "occ",
				"energy": -0.24489,
				"method": "rhf"
			},
			{
				"type": "occ",
				"energy": -0.23486,
				"method": "rhf"
			},
			{
				"type": "occ",
				"energy": -0.22273,
				"method": "rhf"
			},
			{
				"type": "unocc",
				"energy": 0.04426,
				"method": "rhf"
			},
			{
				"type": "unocc",
				"energy": 0.06722,
				"method": "rhf"
			},
			{
				"type": "unocc",
				"energy": 0.08504,
				"method": "rhf"
			},
			{
				"type": "unocc",
				"energy": 0.10032,
				"method": "rhf"
			},
			{
				"type": "unocc",
				"energy": 0.10064,
				"method": "rhf"
			}
		],
		"cosmo_sigma_profile": { 
			"-0.025": 0.0,
			"-0.024": 0.0,
			"-0.023": 0.0,
			"-0.022": 0.0,
			"-0.021": 0.0,
			"-0.02": 0.0,
			"-0.019": 0.0,
			"-0.018": 0.0,
			"-0.017": 0.0,
			"-0.016": 0.0,
			"-0.015": 0.0,
			"-0.014": 0.0,
			"-0.013": 0.000495974471128,
			"-0.012": 0.0466862353962,
			"-0.011": 0.444184345313,
			"-0.01": 1.81557665597,
			"-0.009": 1.5099053189,
			"-0.008": 1.43654992249,
			"-0.007": 2.27106658344,
			"-0.006": 3.8505357714,
			"-0.005": 19.1367335889,
			"-0.004": 54.0051774294,
			"-0.003": 55.0412770881,
			"-0.002": 37.8427646847,
			"-0.001": 25.5328035974,
			"0.0": 16.8827781933,
			"0.001": 9.38208172554,
			"0.002": 8.12801372183,
			"0.003": 7.36069335184,
			"0.004": 8.08506487609,
			"0.005": 7.78716461395,
			"0.006": 5.84953901652,
			"0.007": 6.46254596607,
			"0.008": 5.51842577665,
			"0.009": 5.13734446774,
			"0.01": 5.00846335129,
			"0.011": 5.48904548675,
			"0.012": 6.83156544628,
			"0.013": 7.50926858261,
			"0.014": 4.65472643676,
			"0.015": 1.24976468333,
			"0.016": 0.233009745655,
			"0.017": 0.0,
			"0.018": 0.0,
			"0.019": 0.0,
			"0.02": 0.0,
			"0.021": 0.0,
			"0.022": 0.0,
			"0.023": 0.0,
			"0.024": 0.0,
			"0.025": 0.0
		}
	}
}
