{
	 "smiles": "CCOCC1C2CCC(C)(C1=O)C2(C)C", 
	 "Tm": 387.15, 
	 "num_atms": 37, 
	 "gaussian": { 
		 "optdone": 1, 
		 "sigma_profile": "yes", 
		 "theory": "DFT", 
		 "functional": "B3LYP", 
		 "basiset": "6-31G**", 
		 "properties": { 
			 "R2extent": 3776.4772, 
			 "electric_dipole_moment_norm": 3.77587238397, 
			 "electric_quadrupole_moment_norm": 11.4854391544, 
			 "total_energy": -659.083235071, 
			 "HOMO_LUMO_gap": 0.21799, 
			 "cosmo_polarized_energy": -9.25, 
			 "cosmo_cavitation_energy": 34.98, 
			 "cosmo_dispersion_energy": -24.42, 
			 "cosmo_repulsion_energy": 1.9, 
			 "cosmo_total_nonelectrostatic_energy": 12.45, 
			 "SMD_solvation_energy": 6.24 
		},
		"coords": [
			{
				"x": -0.0614015257,
				"y": -4.4700356945,
				"z": 0.2508833393,
				"element": "C" 
			},
			{
				"x": -0.3672870873,
				"y": -2.9925687548,
				"z": 0.0624154458,
				"element": "C" 
			},
			{
				"x": -0.5618767507,
				"y": -2.4147413419,
				"z": 1.3428552601,
				"element": "O" 
			},
			{
				"x": -1.0365184027,
				"y": -1.0791783443,
				"z": 1.3332303533,
				"element": "C" 
			},
			{
				"x": 0.0311137125,
				"y": -0.0444824038,
				"z": 0.9159313049,
				"element": "C" 
			},
			{
				"x": 0.0840784937,
				"y": 0.4760485024,
				"z": -0.5472813045,
				"element": "C" 
			},
			{
				"x": 1.5259839831,
				"y": 0.9962480683,
				"z": -0.7615847401,
				"element": "C" 
			},
			{
				"x": 1.5600749936,
				"y": 2.2750987809,
				"z": 0.1316111759,
				"element": "C" 
			},
			{
				"x": 0.0965261346,
				"y": 2.4186114471,
				"z": 0.6680573234,
				"element": "C" 
			},
			{
				"x": -0.2601068956,
				"y": 3.7914459227,
				"z": 1.2109582701,
				"element": "C" 
			},
			{
				"x": -0.0562674802,
				"y": 1.2875265613,
				"z": 1.693401257,
				"element": "C" 
			},
			{
				"x": -0.2348452868,
				"y": 1.4044888774,
				"z": 2.8871032228,
				"element": "O" 
			},
			{
				"x": -0.7469944002,
				"y": 1.8071460585,
				"z": -0.5091989,
				"element": "C" 
			},
			{
				"x": -0.6865854538,
				"y": 2.6088874654,
				"z": -1.8204638813,
				"element": "C" 
			},
			{
				"x": -2.2350602553,
				"y": 1.6305192217,
				"z": -0.151940338,
				"element": "C" 
			},
			{
				"x": 0.8377507514,
				"y": -4.5989850237,
				"z": 0.8604076068,
				"element": "H" 
			},
			{
				"x": 0.1027753721,
				"y": -4.9546457897,
				"z": -0.7168467127,
				"element": "H" 
			},
			{
				"x": -0.8912745454,
				"y": -4.9713383079,
				"z": 0.7570880531,
				"element": "H" 
			},
			{
				"x": -1.2726433942,
				"y": -2.8597594714,
				"z": -0.5550443708,
				"element": "H" 
			},
			{
				"x": 0.4619896234,
				"y": -2.4992778652,
				"z": -0.4703942794,
				"element": "H" 
			},
			{
				"x": -1.9281556,
				"y": -1.0039170386,
				"z": 0.6930006539,
				"element": "H" 
			},
			{
				"x": -1.3302010393,
				"y": -0.8678437521,
				"z": 2.3660724722,
				"element": "H" 
			},
			{
				"x": 0.9870808503,
				"y": -0.505018871,
				"z": 1.1999473924,
				"element": "H" 
			},
			{
				"x": -0.2508637535,
				"y": -0.2487302777,
				"z": -1.2951071948,
				"element": "H" 
			},
			{
				"x": 1.7212207156,
				"y": 1.2339023733,
				"z": -1.8106476252,
				"element": "H" 
			},
			{
				"x": 2.2713962486,
				"y": 0.2542166532,
				"z": -0.4600930703,
				"element": "H" 
			},
			{
				"x": 1.828600034,
				"y": 3.1673377327,
				"z": -0.4424446223,
				"element": "H" 
			},
			{
				"x": 2.28091897,
				"y": 2.2016251227,
				"z": 0.9522210638,
				"element": "H" 
			},
			{
				"x": -0.1211957378,
				"y": 4.5675193637,
				"z": 0.4511469144,
				"element": "H" 
			},
			{
				"x": 0.3719113347,
				"y": 4.036959304,
				"z": 2.0699472102,
				"element": "H" 
			},
			{
				"x": -1.2975001988,
				"y": 3.8280197363,
				"z": 1.5568056102,
				"element": "H" 
			},
			{
				"x": -1.230341877,
				"y": 3.5539232761,
				"z": -1.7172910922,
				"element": "H" 
			},
			{
				"x": -1.1673777227,
				"y": 2.044254105,
				"z": -2.6280454756,
				"element": "H" 
			},
			{
				"x": 0.3271860008,
				"y": 2.848743968,
				"z": -2.145979272,
				"element": "H" 
			},
			{
				"x": -2.4031148809,
				"y": 1.1816233129,
				"z": 0.8303613235,
				"element": "H" 
			},
			{
				"x": -2.7419197408,
				"y": 1.0068985333,
				"z": -0.8968391339,
				"element": "H" 
			},
			{
				"x": -2.7397751896,
				"y": 2.6023785494,
				"z": -0.1445432398,
				"element": "H" 
			}
		],
		 "valence_orbital": [ 
			{
				"type": "occ",
				"energy": -0.32057,
				"method": "rhf"
			},
			{
				"type": "occ",
				"energy": -0.30069,
				"method": "rhf"
			},
			{
				"type": "occ",
				"energy": -0.29423,
				"method": "rhf"
			},
			{
				"type": "occ",
				"energy": -0.2552,
				"method": "rhf"
			},
			{
				"type": "occ",
				"energy": -0.23026,
				"method": "rhf"
			},
			{
				"type": "unocc",
				"energy": -0.01227,
				"method": "rhf"
			},
			{
				"type": "unocc",
				"energy": 0.06905,
				"method": "rhf"
			},
			{
				"type": "unocc",
				"energy": 0.09097,
				"method": "rhf"
			},
			{
				"type": "unocc",
				"energy": 0.09181,
				"method": "rhf"
			},
			{
				"type": "unocc",
				"energy": 0.10012,
				"method": "rhf"
			}
		],
		"cosmo_sigma_profile": { 
			"-0.025": 0.0,
			"-0.024": 0.0,
			"-0.023": 0.0,
			"-0.022": 0.0,
			"-0.021": 0.0,
			"-0.02": 0.0,
			"-0.019": 0.0,
			"-0.018": 0.0,
			"-0.017": 0.0,
			"-0.016": 0.0,
			"-0.015": 0.0,
			"-0.014": 0.0,
			"-0.013": 0.0,
			"-0.012": 0.0,
			"-0.011": 0.0,
			"-0.01": 0.0,
			"-0.009": 0.0,
			"-0.008": 0.0,
			"-0.007": 0.0,
			"-0.006": 0.160470336882,
			"-0.005": 3.10654746046,
			"-0.004": 14.4578856793,
			"-0.003": 48.2455800744,
			"-0.002": 52.3612107711,
			"-0.001": 40.269601033,
			"0.0": 34.7547253457,
			"0.001": 28.7908327416,
			"0.002": 8.27788197853,
			"0.003": 3.90948995748,
			"0.004": 3.28203438631,
			"0.005": 3.79871079978,
			"0.006": 2.27715147456,
			"0.007": 3.33279389851,
			"0.008": 3.07085605727,
			"0.009": 2.89952175553,
			"0.01": 2.98945548156,
			"0.011": 4.20893861019,
			"0.012": 6.03275401731,
			"0.013": 2.7616418139,
			"0.014": 0.27023804158,
			"0.015": 0.0,
			"0.016": 0.0,
			"0.017": 0.0,
			"0.018": 0.0,
			"0.019": 0.0,
			"0.02": 0.0,
			"0.021": 0.0,
			"0.022": 0.0,
			"0.023": 0.0,
			"0.024": 0.0,
			"0.025": 0.0
		}
	}
}
