{
	 "smiles": "COC1=C(OC)C=C(C=C1)N1CC(CC1=O)C(O)=O", 
	 "Tm": 475.15, 
	 "num_atms": 34, 
	 "gaussian": { 
		 "optdone": 1, 
		 "sigma_profile": "yes", 
		 "theory": "DFT", 
		 "functional": "B3LYP", 
		 "basiset": "6-31G**", 
		 "properties": { 
			 "R2extent": 6885.7355, 
			 "electric_dipole_moment_norm": 1.78473649876, 
			 "electric_quadrupole_moment_norm": 27.9596284965, 
			 "total_energy": -935.28425225, 
			 "HOMO_LUMO_gap": 0.18934, 
			 "cosmo_polarized_energy": -24.85, 
			 "cosmo_cavitation_energy": 37.53, 
			 "cosmo_dispersion_energy": -26.77, 
			 "cosmo_repulsion_energy": 2.07, 
			 "cosmo_total_nonelectrostatic_energy": 12.83, 
			 "SMD_solvation_energy": 9.05 
		},
		"coords": [
			{
				"x": -3.4012453264,
				"y": -3.1536452169,
				"z": 2.1691182328,
				"element": "C" 
			},
			{
				"x": -3.1571807386,
				"y": -3.0164388619,
				"z": 0.7675415891,
				"element": "O" 
			},
			{
				"x": -2.3012814168,
				"y": -2.0048141816,
				"z": 0.406144119,
				"element": "C" 
			},
			{
				"x": -0.9189332343,
				"y": -2.0653871542,
				"z": 0.6835495139,
				"element": "C" 
			},
			{
				"x": -0.4921026465,
				"y": -3.1604764365,
				"z": 1.3796201199,
				"element": "O" 
			},
			{
				"x": 0.8928483367,
				"y": -3.2883766865,
				"z": 1.6577622634,
				"element": "C" 
			},
			{
				"x": -0.0776599865,
				"y": -1.0409159138,
				"z": 0.2438278372,
				"element": "C" 
			},
			{
				"x": -0.5919202282,
				"y": 0.0469980775,
				"z": -0.4873281228,
				"element": "C" 
			},
			{
				"x": -1.9618843228,
				"y": 0.1020885412,
				"z": -0.7723332704,
				"element": "C" 
			},
			{
				"x": -2.792178339,
				"y": -0.9209798546,
				"z": -0.3141338574,
				"element": "C" 
			},
			{
				"x": 0.305904826,
				"y": 1.0534880672,
				"z": -0.9335682195,
				"element": "N" 
			},
			{
				"x": 1.7580330215,
				"y": 0.8546801206,
				"z": -0.8838504982,
				"element": "C" 
			},
			{
				"x": 2.3237647669,
				"y": 2.010058156,
				"z": -1.7251738202,
				"element": "C" 
			},
			{
				"x": 1.2512750279,
				"y": 3.109101592,
				"z": -1.5928128977,
				"element": "C" 
			},
			{
				"x": -0.0425115222,
				"y": 2.3342104325,
				"z": -1.3286880044,
				"element": "C" 
			},
			{
				"x": -1.1644027456,
				"y": 2.7969324385,
				"z": -1.4361944471,
				"element": "O" 
			},
			{
				"x": 3.7219408663,
				"y": 2.4274866493,
				"z": -1.288484852,
				"element": "C" 
			},
			{
				"x": 4.2682502327,
				"y": 3.4469477003,
				"z": -1.999761965,
				"element": "O" 
			},
			{
				"x": 4.3367226361,
				"y": 1.9211752732,
				"z": -0.3831593544,
				"element": "O" 
			},
			{
				"x": -3.8259091326,
				"y": -2.2306395249,
				"z": 2.5854064983,
				"element": "H" 
			},
			{
				"x": -2.488047162,
				"y": -3.4126383039,
				"z": 2.7133557476,
				"element": "H" 
			},
			{
				"x": -4.1285431601,
				"y": -3.9616695366,
				"z": 2.2734447587,
				"element": "H" 
			},
			{
				"x": 1.4881880546,
				"y": -3.324398266,
				"z": 0.7363631017,
				"element": "H" 
			},
			{
				"x": 1.2590300765,
				"y": -2.4690764675,
				"z": 2.2902071959,
				"element": "H" 
			},
			{
				"x": 1.0057952253,
				"y": -4.2319007509,
				"z": 2.1936793814,
				"element": "H" 
			},
			{
				"x": 0.9763851006,
				"y": -1.085684505,
				"z": 0.4786368173,
				"element": "H" 
			},
			{
				"x": -2.3674517472,
				"y": 0.9375825661,
				"z": -1.3226442344,
				"element": "H" 
			},
			{
				"x": -3.8562171745,
				"y": -0.8978838389,
				"z": -0.5272372319,
				"element": "H" 
			},
			{
				"x": 2.1446950278,
				"y": 0.9078712091,
				"z": 0.1404677327,
				"element": "H" 
			},
			{
				"x": 2.0256454253,
				"y": -0.1219675164,
				"z": -1.295923351,
				"element": "H" 
			},
			{
				"x": 2.3791300832,
				"y": 1.6971614671,
				"z": -2.7763847174,
				"element": "H" 
			},
			{
				"x": 1.1272396555,
				"y": 3.7457233661,
				"z": -2.472100641,
				"element": "H" 
			},
			{
				"x": 1.4384472116,
				"y": 3.7616027031,
				"z": -0.7309567635,
				"element": "H" 
			},
			{
				"x": 3.6560733087,
				"y": 3.7500846561,
				"z": -2.6856886607,
				"element": "H" 
			}
		],
		 "valence_orbital": [ 
			{
				"type": "occ",
				"energy": -0.28271,
				"method": "rhf"
			},
			{
				"type": "occ",
				"energy": -0.26699,
				"method": "rhf"
			},
			{
				"type": "occ",
				"energy": -0.25877,
				"method": "rhf"
			},
			{
				"type": "occ",
				"energy": -0.23679,
				"method": "rhf"
			},
			{
				"type": "occ",
				"energy": -0.20463,
				"method": "rhf"
			},
			{
				"type": "unocc",
				"energy": -0.01529,
				"method": "rhf"
			},
			{
				"type": "unocc",
				"energy": -0.00861,
				"method": "rhf"
			},
			{
				"type": "unocc",
				"energy": 0.00674,
				"method": "rhf"
			},
			{
				"type": "unocc",
				"energy": 0.03369,
				"method": "rhf"
			},
			{
				"type": "unocc",
				"energy": 0.03995,
				"method": "rhf"
			}
		],
		"cosmo_sigma_profile": { 
			"-0.025": 0.0,
			"-0.024": 0.0,
			"-0.023": 0.0,
			"-0.022": 0.0,
			"-0.021": 0.0,
			"-0.02": 0.0184698625896,
			"-0.019": 0.679297261851,
			"-0.018": 1.13432448842,
			"-0.017": 0.987596619225,
			"-0.016": 1.39348875511,
			"-0.015": 1.3487185955,
			"-0.014": 0.552158899296,
			"-0.013": 1.15034251398,
			"-0.012": 1.37642272628,
			"-0.011": 1.29142876924,
			"-0.01": 1.554049135,
			"-0.009": 2.11773470305,
			"-0.008": 7.61121666962,
			"-0.007": 14.3664300351,
			"-0.006": 18.8850551565,
			"-0.005": 22.3638239291,
			"-0.004": 21.9724933285,
			"-0.003": 24.6324920246,
			"-0.002": 19.5275636468,
			"-0.001": 12.8335440999,
			"0.0": 12.8715061067,
			"0.001": 12.7730585319,
			"0.002": 13.3610656164,
			"0.003": 13.4746184878,
			"0.004": 16.7779494421,
			"0.005": 12.4945424881,
			"0.006": 7.15495062303,
			"0.007": 5.98054767841,
			"0.008": 6.95531471933,
			"0.009": 6.76180395311,
			"0.01": 10.0938332531,
			"0.011": 9.89734453348,
			"0.012": 8.2617825275,
			"0.013": 3.67437469045,
			"0.014": 0.835271300822,
			"0.015": 0.0,
			"0.016": 0.0,
			"0.017": 0.0,
			"0.018": 0.0,
			"0.019": 0.0,
			"0.02": 0.0,
			"0.021": 0.0,
			"0.022": 0.0,
			"0.023": 0.0,
			"0.024": 0.0,
			"0.025": 0.0
		}
	}
}
