{
	 "smiles": "OC(=O)C1=CN=C(S1)C1CCCO1", 
	 "Tm": 413.15, 
	 "num_atms": 22, 
	 "gaussian": { 
		 "optdone": 1, 
		 "sigma_profile": "yes", 
		 "theory": "DFT", 
		 "functional": "B3LYP", 
		 "basiset": "6-31G**", 
		 "properties": { 
			 "R2extent": 3840.0772, 
			 "electric_dipole_moment_norm": 5.78772837822, 
			 "electric_quadrupole_moment_norm": 14.6493528168, 
			 "total_energy": -988.87234671, 
			 "HOMO_LUMO_gap": 0.19308, 
			 "cosmo_polarized_energy": -15.1, 
			 "cosmo_cavitation_energy": 27.34, 
			 "cosmo_dispersion_energy": -20.67, 
			 "cosmo_repulsion_energy": 1.6, 
			 "cosmo_total_nonelectrostatic_energy": 8.27, 
			 "SMD_solvation_energy": 3.85 
		},
		"coords": [
			{
				"x": -3.2238739054,
				"y": 2.3224562307,
				"z": 2.0027220513,
				"element": "O" 
			},
			{
				"x": -2.2889640641,
				"y": 1.761728375,
				"z": 2.8141545635,
				"element": "C" 
			},
			{
				"x": -2.5600798345,
				"y": 1.5032510527,
				"z": 3.963608216,
				"element": "O" 
			},
			{
				"x": -0.9529146666,
				"y": 1.4873922148,
				"z": 2.236134623,
				"element": "C" 
			},
			{
				"x": 0.1129478226,
				"y": 1.0075551731,
				"z": 2.9579378107,
				"element": "C" 
			},
			{
				"x": 1.274719642,
				"y": 0.8100054345,
				"z": 2.263733953,
				"element": "N" 
			},
			{
				"x": 1.1303498209,
				"y": 1.1262453302,
				"z": 1.0076139519,
				"element": "C" 
			},
			{
				"x": -0.4682727522,
				"y": 1.702167174,
				"z": 0.5690839272,
				"element": "S" 
			},
			{
				"x": 2.2153283033,
				"y": 1.0383940346,
				"z": -0.0403519986,
				"element": "C" 
			},
			{
				"x": 2.7658057751,
				"y": -0.3936297869,
				"z": -0.2244697442,
				"element": "C" 
			},
			{
				"x": 1.9218680529,
				"y": -0.9163214637,
				"z": -1.3966636139,
				"element": "C" 
			},
			{
				"x": 1.7517632894,
				"y": 0.3482565313,
				"z": -2.2396769317,
				"element": "C" 
			},
			{
				"x": 1.6712694501,
				"y": 1.4363623455,
				"z": -1.3005451784,
				"element": "O" 
			},
			{
				"x": -2.8623950263,
				"y": 2.5274101255,
				"z": 1.1285140809,
				"element": "H" 
			},
			{
				"x": 0.06349786,
				"y": 0.7898610845,
				"z": 4.0178735272,
				"element": "H" 
			},
			{
				"x": 3.0122458597,
				"y": 1.7375971859,
				"z": 0.2453378706,
				"element": "H" 
			},
			{
				"x": 2.6799517218,
				"y": -0.9828938564,
				"z": 0.690201046,
				"element": "H" 
			},
			{
				"x": 3.8231455915,
				"y": -0.3434486448,
				"z": -0.5039677943,
				"element": "H" 
			},
			{
				"x": 0.9495319125,
				"y": -1.2743914325,
				"z": -1.0421441641,
				"element": "H" 
			},
			{
				"x": 2.4050171135,
				"y": -1.7290527465,
				"z": -1.9451832616,
				"element": "H" 
			},
			{
				"x": 0.8423408547,
				"y": 0.3600073492,
				"z": -2.8469947373,
				"element": "H" 
			},
			{
				"x": 2.6146171793,
				"y": 0.5044482893,
				"z": -2.9028181974,
				"element": "H" 
			}
		],
		 "valence_orbital": [ 
			{
				"type": "occ",
				"energy": -0.30163,
				"method": "rhf"
			},
			{
				"type": "occ",
				"energy": -0.2937,
				"method": "rhf"
			},
			{
				"type": "occ",
				"energy": -0.27848,
				"method": "rhf"
			},
			{
				"type": "occ",
				"energy": -0.27545,
				"method": "rhf"
			},
			{
				"type": "occ",
				"energy": -0.25873,
				"method": "rhf"
			},
			{
				"type": "unocc",
				"energy": -0.06565,
				"method": "rhf"
			},
			{
				"type": "unocc",
				"energy": -0.00753,
				"method": "rhf"
			},
			{
				"type": "unocc",
				"energy": 0.00527,
				"method": "rhf"
			},
			{
				"type": "unocc",
				"energy": 0.05753,
				"method": "rhf"
			},
			{
				"type": "unocc",
				"energy": 0.07765,
				"method": "rhf"
			}
		],
		"cosmo_sigma_profile": { 
			"-0.025": 0.0,
			"-0.024": 0.0,
			"-0.023": 0.0,
			"-0.022": 0.0,
			"-0.021": 0.0,
			"-0.02": 0.0,
			"-0.019": 0.155151085106,
			"-0.018": 0.577687673964,
			"-0.017": 0.832115754485,
			"-0.016": 1.11837816222,
			"-0.015": 0.669610772593,
			"-0.014": 0.591863435041,
			"-0.013": 1.94165693033,
			"-0.012": 1.04421320808,
			"-0.011": 1.08612014914,
			"-0.01": 0.573852706608,
			"-0.009": 1.3582119617,
			"-0.008": 2.0983970196,
			"-0.007": 4.34883921722,
			"-0.006": 4.88815821401,
			"-0.005": 11.84956701,
			"-0.004": 23.2861359247,
			"-0.003": 24.987665932,
			"-0.002": 19.3731355172,
			"-0.001": 20.8982078416,
			"0.0": 16.2473673702,
			"0.001": 12.7743310481,
			"0.002": 9.93667229521,
			"0.003": 7.02564776943,
			"0.004": 4.63939214003,
			"0.005": 5.36951570441,
			"0.006": 4.71469536096,
			"0.007": 4.24194534426,
			"0.008": 4.14216654872,
			"0.009": 5.99485583945,
			"0.01": 6.81020067052,
			"0.011": 7.3978149155,
			"0.012": 5.68060833926,
			"0.013": 1.77496249614,
			"0.014": 0.54448386223,
			"0.015": 0.0,
			"0.016": 0.0,
			"0.017": 0.0,
			"0.018": 0.0,
			"0.019": 0.0,
			"0.02": 0.0,
			"0.021": 0.0,
			"0.022": 0.0,
			"0.023": 0.0,
			"0.024": 0.0,
			"0.025": 0.0
		}
	}
}
