{
	 "smiles": "CCCCCCCC=O", 
	 "Tm": 285.65, 
	 "num_atms": 25, 
	 "gaussian": { 
		 "optdone": 1, 
		 "sigma_profile": "yes", 
		 "theory": "DFT", 
		 "functional": "B3LYP", 
		 "basiset": "6-31G**", 
		 "properties": { 
			 "R2extent": 2459.8817, 
			 "electric_dipole_moment_norm": 3.00352067581, 
			 "electric_quadrupole_moment_norm": 17.4452434113, 
			 "total_energy": -389.721283271, 
			 "HOMO_LUMO_gap": 0.22389, 
			 "cosmo_polarized_energy": -5.99, 
			 "cosmo_cavitation_energy": 26.75, 
			 "cosmo_dispersion_energy": -18.56, 
			 "cosmo_repulsion_energy": 1.57, 
			 "cosmo_total_nonelectrostatic_energy": 9.75, 
			 "SMD_solvation_energy": 5.03 
		},
		"coords": [
			{
				"x": 1.7710006077,
				"y": -1.9350951969,
				"z": 1.2643356447,
				"element": "C" 
			},
			{
				"x": 0.3369667187,
				"y": -2.0800548958,
				"z": 0.7406888312,
				"element": "C" 
			},
			{
				"x": -0.0994113907,
				"y": -0.9751311394,
				"z": -0.2362337187,
				"element": "C" 
			},
			{
				"x": -0.1916578606,
				"y": 0.4242173126,
				"z": 0.3907295704,
				"element": "C" 
			},
			{
				"x": -0.7884452159,
				"y": 1.4976125237,
				"z": -0.5368306233,
				"element": "C" 
			},
			{
				"x": -0.0121251865,
				"y": 1.7727924494,
				"z": -1.8390856951,
				"element": "C" 
			},
			{
				"x": 1.4560637354,
				"y": 2.2366302016,
				"z": -1.6729980869,
				"element": "C" 
			},
			{
				"x": 1.5831600443,
				"y": 3.5542554613,
				"z": -0.9433864243,
				"element": "C" 
			},
			{
				"x": 1.934055864,
				"y": 4.5917069819,
				"z": -1.4633494744,
				"element": "O" 
			},
			{
				"x": 1.902942561,
				"y": -1.0197436365,
				"z": 1.8504315551,
				"element": "H" 
			},
			{
				"x": 2.4915860454,
				"y": -1.9070394164,
				"z": 0.4382838621,
				"element": "H" 
			},
			{
				"x": 2.0411561851,
				"y": -2.7772446606,
				"z": 1.9097512165,
				"element": "H" 
			},
			{
				"x": -0.3609142328,
				"y": -2.1067648688,
				"z": 1.588875903,
				"element": "H" 
			},
			{
				"x": 0.238912172,
				"y": -3.0503871379,
				"z": 0.237580519,
				"element": "H" 
			},
			{
				"x": -1.0820852403,
				"y": -1.2382170736,
				"z": -0.6518840343,
				"element": "H" 
			},
			{
				"x": 0.5953151615,
				"y": -0.9610515199,
				"z": -1.087463881,
				"element": "H" 
			},
			{
				"x": 0.7985278184,
				"y": 0.7435499708,
				"z": 0.740145204,
				"element": "H" 
			},
			{
				"x": -0.8176358348,
				"y": 0.3654596721,
				"z": 1.2915792993,
				"element": "H" 
			},
			{
				"x": -1.8073285819,
				"y": 1.1956705273,
				"z": -0.8139660974,
				"element": "H" 
			},
			{
				"x": -0.9008499908,
				"y": 2.431208419,
				"z": 0.0289051849,
				"element": "H" 
			},
			{
				"x": -0.5512232898,
				"y": 2.533312118,
				"z": -2.4168584324,
				"element": "H" 
			},
			{
				"x": -0.0060173466,
				"y": 0.8703927281,
				"z": -2.4610531926,
				"element": "H" 
			},
			{
				"x": 1.9209416302,
				"y": 2.3564513457,
				"z": -2.6561928707,
				"element": "H" 
			},
			{
				"x": 2.0227204198,
				"y": 1.4785316056,
				"z": -1.1153690525,
				"element": "H" 
			},
			{
				"x": 1.3218452071,
				"y": 3.5307382287,
				"z": 0.1395647934,
				"element": "H" 
			}
		],
		 "valence_orbital": [ 
			{
				"type": "occ",
				"energy": -0.33678,
				"method": "rhf"
			},
			{
				"type": "occ",
				"energy": -0.3212,
				"method": "rhf"
			},
			{
				"type": "occ",
				"energy": -0.31857,
				"method": "rhf"
			},
			{
				"type": "occ",
				"energy": -0.31439,
				"method": "rhf"
			},
			{
				"type": "occ",
				"energy": -0.2468,
				"method": "rhf"
			},
			{
				"type": "unocc",
				"energy": -0.02291,
				"method": "rhf"
			},
			{
				"type": "unocc",
				"energy": 0.07289,
				"method": "rhf"
			},
			{
				"type": "unocc",
				"energy": 0.09818,
				"method": "rhf"
			},
			{
				"type": "unocc",
				"energy": 0.10029,
				"method": "rhf"
			},
			{
				"type": "unocc",
				"energy": 0.10938,
				"method": "rhf"
			}
		],
		"cosmo_sigma_profile": { 
			"-0.025": 0.0,
			"-0.024": 0.0,
			"-0.023": 0.0,
			"-0.022": 0.0,
			"-0.021": 0.0,
			"-0.02": 0.0,
			"-0.019": 0.0,
			"-0.018": 0.0,
			"-0.017": 0.0,
			"-0.016": 0.0,
			"-0.015": 0.0,
			"-0.014": 0.0,
			"-0.013": 0.0,
			"-0.012": 0.0,
			"-0.011": 0.0,
			"-0.01": 0.0,
			"-0.009": 0.0,
			"-0.008": 0.0,
			"-0.007": 0.0,
			"-0.006": 0.832226210552,
			"-0.005": 9.19456660848,
			"-0.004": 11.8032767523,
			"-0.003": 17.503855269,
			"-0.002": 33.4582361248,
			"-0.001": 38.6453601001,
			"0.0": 34.9519804674,
			"0.001": 26.1873309586,
			"0.002": 9.87560155252,
			"0.003": 1.76681448648,
			"0.004": 1.7386643328,
			"0.005": 1.30301178771,
			"0.006": 1.47609268991,
			"0.007": 1.78562854085,
			"0.008": 1.18498815078,
			"0.009": 2.39876954824,
			"0.01": 2.84648261337,
			"0.011": 3.98176206401,
			"0.012": 3.88495692831,
			"0.013": 1.42318614783,
			"0.014": 0.0,
			"0.015": 0.0,
			"0.016": 0.0,
			"0.017": 0.0,
			"0.018": 0.0,
			"0.019": 0.0,
			"0.02": 0.0,
			"0.021": 0.0,
			"0.022": 0.0,
			"0.023": 0.0,
			"0.024": 0.0,
			"0.025": 0.0
		}
	}
}
