{
	 "smiles": "OC(=O)C1=CC(NC2=CC=CC=C2)=CC=C1", 
	 "Tm": 403.15, 
	 "num_atms": 27, 
	 "gaussian": { 
		 "optdone": 1, 
		 "sigma_profile": "yes", 
		 "theory": "DFT", 
		 "functional": "B3LYP", 
		 "basiset": "6-31G**", 
		 "properties": { 
			 "R2extent": 5334.0469, 
			 "electric_dipole_moment_norm": 5.23089078552, 
			 "electric_quadrupole_moment_norm": 25.2362257772, 
			 "total_energy": -707.223327445, 
			 "HOMO_LUMO_gap": 0.15479, 
			 "cosmo_polarized_energy": -17.96, 
			 "cosmo_cavitation_energy": 31.52, 
			 "cosmo_dispersion_energy": -22.96, 
			 "cosmo_repulsion_energy": 1.77, 
			 "cosmo_total_nonelectrostatic_energy": 10.34, 
			 "SMD_solvation_energy": 6.26 
		},
		"coords": [
			{
				"x": 4.81183425,
				"y": -1.884299824,
				"z": -2.5002639007,
				"element": "O" 
			},
			{
				"x": 3.8893763987,
				"y": -1.096217579,
				"z": -1.8838738228,
				"element": "C" 
			},
			{
				"x": 4.0790220436,
				"y": 0.0937223737,
				"z": -1.7915000312,
				"element": "O" 
			},
			{
				"x": 2.6657303486,
				"y": -1.7875162182,
				"z": -1.3551876561,
				"element": "C" 
			},
			{
				"x": 1.5416312122,
				"y": -0.9895031319,
				"z": -1.1215487683,
				"element": "C" 
			},
			{
				"x": 0.3539171632,
				"y": -1.5569246213,
				"z": -0.6337617322,
				"element": "C" 
			},
			{
				"x": -0.7970170551,
				"y": -0.8190424346,
				"z": -0.3735120176,
				"element": "N" 
			},
			{
				"x": -1.1493596614,
				"y": 0.4744036402,
				"z": -0.7935140943,
				"element": "C" 
			},
			{
				"x": -1.9984728471,
				"y": 1.2335413413,
				"z": 0.0297555263,
				"element": "C" 
			},
			{
				"x": -2.423875108,
				"y": 2.4987634696,
				"z": -0.3664427235,
				"element": "C" 
			},
			{
				"x": -1.9995580387,
				"y": 3.0402258517,
				"z": -1.5816388427,
				"element": "C" 
			},
			{
				"x": -1.158847765,
				"y": 2.2874511522,
				"z": -2.4029606631,
				"element": "C" 
			},
			{
				"x": -0.7423281035,
				"y": 1.0113188119,
				"z": -2.0261467966,
				"element": "C" 
			},
			{
				"x": 0.3390234141,
				"y": -2.9392572083,
				"z": -0.3511585225,
				"element": "C" 
			},
			{
				"x": 1.4708210037,
				"y": -3.7202311958,
				"z": -0.5503739912,
				"element": "C" 
			},
			{
				"x": 2.6409964493,
				"y": -3.1582618574,
				"z": -1.0634653997,
				"element": "C" 
			},
			{
				"x": 4.4487266755,
				"y": -2.7706530634,
				"z": -2.6352593422,
				"element": "H" 
			},
			{
				"x": 1.6244043434,
				"y": 0.0734511908,
				"z": -1.3075055624,
				"element": "H" 
			},
			{
				"x": -1.4412111777,
				"y": -1.2465077597,
				"z": 0.2748418768,
				"element": "H" 
			},
			{
				"x": -2.3156306146,
				"y": 0.8265952743,
				"z": 0.9870465232,
				"element": "H" 
			},
			{
				"x": -3.0809334786,
				"y": 3.0675665764,
				"z": 0.2853438308,
				"element": "H" 
			},
			{
				"x": -2.3214936341,
				"y": 4.0314808405,
				"z": -1.8847468881,
				"element": "H" 
			},
			{
				"x": -0.8308034127,
				"y": 2.6877390036,
				"z": -3.3580291412,
				"element": "H" 
			},
			{
				"x": -0.1224110231,
				"y": 0.4268815941,
				"z": -2.6957373205,
				"element": "H" 
			},
			{
				"x": -0.5722651435,
				"y": -3.3936490603,
				"z": 0.0301854428,
				"element": "H" 
			},
			{
				"x": 1.4391836722,
				"y": -4.777728351,
				"z": -0.3054610659,
				"element": "H" 
			},
			{
				"x": 3.5257400883,
				"y": -3.7781488155,
				"z": -1.1788849171,
				"element": "H" 
			}
		],
		 "valence_orbital": [ 
			{
				"type": "occ",
				"energy": -0.27345,
				"method": "rhf"
			},
			{
				"type": "occ",
				"energy": -0.26276,
				"method": "rhf"
			},
			{
				"type": "occ",
				"energy": -0.26129,
				"method": "rhf"
			},
			{
				"type": "occ",
				"energy": -0.25378,
				"method": "rhf"
			},
			{
				"type": "occ",
				"energy": -0.20093,
				"method": "rhf"
			},
			{
				"type": "unocc",
				"energy": -0.04614,
				"method": "rhf"
			},
			{
				"type": "unocc",
				"energy": -0.01991,
				"method": "rhf"
			},
			{
				"type": "unocc",
				"energy": -0.00516,
				"method": "rhf"
			},
			{
				"type": "unocc",
				"energy": 0.01514,
				"method": "rhf"
			},
			{
				"type": "unocc",
				"energy": 0.05446,
				"method": "rhf"
			}
		],
		"cosmo_sigma_profile": { 
			"-0.025": 0.0,
			"-0.024": 0.0,
			"-0.023": 0.0,
			"-0.022": 0.0,
			"-0.021": 0.0,
			"-0.02": 0.0,
			"-0.019": 0.128345387077,
			"-0.018": 0.57057861973,
			"-0.017": 0.756956909722,
			"-0.016": 1.06276362877,
			"-0.015": 0.849720474688,
			"-0.014": 1.77936549228,
			"-0.013": 2.25114961873,
			"-0.012": 3.00026404508,
			"-0.011": 1.97498887084,
			"-0.01": 2.77272953048,
			"-0.009": 3.2148087094,
			"-0.008": 2.84215072778,
			"-0.007": 5.64701160475,
			"-0.006": 10.5066535675,
			"-0.005": 16.2366174498,
			"-0.004": 18.2374819837,
			"-0.003": 16.742453328,
			"-0.002": 15.0891636199,
			"-0.001": 13.1191773472,
			"0.0": 12.8988732505,
			"0.001": 14.4832750993,
			"0.002": 16.1613162862,
			"0.003": 21.0748891315,
			"0.004": 21.4764813089,
			"0.005": 12.5661499997,
			"0.006": 9.88601840439,
			"0.007": 4.26818952112,
			"0.008": 2.82534963627,
			"0.009": 3.19372835239,
			"0.01": 4.91399822073,
			"0.011": 4.86663274826,
			"0.012": 5.30875086965,
			"0.013": 1.83359564058,
			"0.014": 0.124939846009,
			"0.015": 0.0,
			"0.016": 0.0,
			"0.017": 0.0,
			"0.018": 0.0,
			"0.019": 0.0,
			"0.02": 0.0,
			"0.021": 0.0,
			"0.022": 0.0,
			"0.023": 0.0,
			"0.024": 0.0,
			"0.025": 0.0
		}
	}
}
