{
	 "smiles": "ClC1=C2SCCC(=O)C2=CC=C1", 
	 "Tm": 365.15, 
	 "num_atms": 19, 
	 "gaussian": { 
		 "optdone": 1, 
		 "sigma_profile": "yes", 
		 "theory": "DFT", 
		 "functional": "B3LYP", 
		 "basiset": "6-31G**", 
		 "properties": { 
			 "R2extent": 2825.2523, 
			 "electric_dipole_moment_norm": 0.461502611044, 
			 "electric_quadrupole_moment_norm": 17.7465623094, 
			 "total_energy": -1280.78347558, 
			 "HOMO_LUMO_gap": 0.15992, 
			 "cosmo_polarized_energy": -8.76, 
			 "cosmo_cavitation_energy": 25.38, 
			 "cosmo_dispersion_energy": -19.78, 
			 "cosmo_repulsion_energy": 1.51, 
			 "cosmo_total_nonelectrostatic_energy": 7.11, 
			 "SMD_solvation_energy": 3.91 
		},
		"coords": [
			{
				"x": 0.5633357308,
				"y": 2.7515000552,
				"z": -2.3556323373,
				"element": "Cl" 
			},
			{
				"x": -0.2156583551,
				"y": 1.1836589656,
				"z": -2.2056894751,
				"element": "C" 
			},
			{
				"x": -0.1685265114,
				"y": 0.4877654967,
				"z": -0.9816615496,
				"element": "C" 
			},
			{
				"x": 0.7216338347,
				"y": 1.2184909378,
				"z": 0.3679622965,
				"element": "S" 
			},
			{
				"x": 0.8917997497,
				"y": -0.2457612002,
				"z": 1.4538824915,
				"element": "C" 
			},
			{
				"x": -0.4309086507,
				"y": -0.9758523922,
				"z": 1.6486647436,
				"element": "C" 
			},
			{
				"x": -0.980339626,
				"y": -1.5545739009,
				"z": 0.3546548013,
				"element": "C" 
			},
			{
				"x": -1.5567090414,
				"y": -2.6317162713,
				"z": 0.3564339284,
				"element": "O" 
			},
			{
				"x": -0.8449438493,
				"y": -0.7557535355,
				"z": -0.9057541564,
				"element": "C" 
			},
			{
				"x": -1.4858182186,
				"y": -1.2733476595,
				"z": -2.043379386,
				"element": "C" 
			},
			{
				"x": -1.4963339492,
				"y": -0.5777436898,
				"z": -3.2430919466,
				"element": "C" 
			},
			{
				"x": -0.8645653396,
				"y": 0.6652582931,
				"z": -3.3213801122,
				"element": "C" 
			},
			{
				"x": 1.2733810417,
				"y": 0.1470443479,
				"z": 2.3997347242,
				"element": "H" 
			},
			{
				"x": 1.653472173,
				"y": -0.9101818373,
				"z": 1.032936281,
				"element": "H" 
			},
			{
				"x": -0.3280377034,
				"y": -1.8030313753,
				"z": 2.357233357,
				"element": "H" 
			},
			{
				"x": -1.1801639328,
				"y": -0.2821328141,
				"z": 2.054718838,
				"element": "H" 
			},
			{
				"x": -1.9847204528,
				"y": -2.230270833,
				"z": -1.9373121882,
				"element": "H" 
			},
			{
				"x": -1.9978436021,
				"y": -0.9853674748,
				"z": -4.1148096086,
				"element": "H" 
			},
			{
				"x": -0.8654532975,
				"y": 1.2356148877,
				"z": -4.2439107014,
				"element": "H" 
			}
		],
		 "valence_orbital": [ 
			{
				"type": "occ",
				"energy": -0.31711,
				"method": "rhf"
			},
			{
				"type": "occ",
				"energy": -0.30146,
				"method": "rhf"
			},
			{
				"type": "occ",
				"energy": -0.2603,
				"method": "rhf"
			},
			{
				"type": "occ",
				"energy": -0.25683,
				"method": "rhf"
			},
			{
				"type": "occ",
				"energy": -0.22867,
				"method": "rhf"
			},
			{
				"type": "unocc",
				"energy": -0.06875,
				"method": "rhf"
			},
			{
				"type": "unocc",
				"energy": -0.02312,
				"method": "rhf"
			},
			{
				"type": "unocc",
				"energy": 0.00688,
				"method": "rhf"
			},
			{
				"type": "unocc",
				"energy": 0.02369,
				"method": "rhf"
			},
			{
				"type": "unocc",
				"energy": 0.04141,
				"method": "rhf"
			}
		],
		"cosmo_sigma_profile": { 
			"-0.025": 0.0,
			"-0.024": 0.0,
			"-0.023": 0.0,
			"-0.022": 0.0,
			"-0.021": 0.0,
			"-0.02": 0.0,
			"-0.019": 0.0,
			"-0.018": 0.0,
			"-0.017": 0.0,
			"-0.016": 0.0,
			"-0.015": 0.0,
			"-0.014": 0.0,
			"-0.013": 0.0,
			"-0.012": 0.0,
			"-0.011": 0.0,
			"-0.01": 0.0,
			"-0.009": 0.0431954721753,
			"-0.008": 2.71337815308,
			"-0.007": 10.2598298221,
			"-0.006": 16.0418431881,
			"-0.005": 16.2257856031,
			"-0.004": 14.0824048983,
			"-0.003": 13.1048470312,
			"-0.002": 11.2239463494,
			"-0.001": 9.51910262285,
			"0.0": 13.8321165502,
			"0.001": 19.8647646482,
			"0.002": 20.7064691251,
			"0.003": 16.1519741297,
			"0.004": 14.0542229016,
			"0.005": 7.1580174175,
			"0.006": 4.66493632375,
			"0.007": 3.68091110139,
			"0.008": 2.40492501469,
			"0.009": 1.9109000921,
			"0.01": 2.27744148405,
			"0.011": 3.48464699873,
			"0.012": 3.01469769302,
			"0.013": 0.686701690698,
			"0.014": 0.0,
			"0.015": 0.0,
			"0.016": 0.0,
			"0.017": 0.0,
			"0.018": 0.0,
			"0.019": 0.0,
			"0.02": 0.0,
			"0.021": 0.0,
			"0.022": 0.0,
			"0.023": 0.0,
			"0.024": 0.0,
			"0.025": 0.0
		}
	}
}
