{
	 "smiles": "CC1=C(CC(O)=O)N=C(Cl)C=C1", 
	 "Tm": 394.15, 
	 "num_atms": 20, 
	 "gaussian": { 
		 "optdone": 1, 
		 "sigma_profile": "yes", 
		 "theory": "DFT", 
		 "functional": "B3LYP", 
		 "basiset": "6-31G**", 
		 "properties": { 
			 "R2extent": 3399.7577, 
			 "electric_dipole_moment_norm": 3.41712187813, 
			 "electric_quadrupole_moment_norm": 11.5339628996, 
			 "total_energy": -975.087698433, 
			 "HOMO_LUMO_gap": 0.21523, 
			 "cosmo_polarized_energy": -12.79, 
			 "cosmo_cavitation_energy": 26.27, 
			 "cosmo_dispersion_energy": -19.2, 
			 "cosmo_repulsion_energy": 1.56, 
			 "cosmo_total_nonelectrostatic_energy": 8.62, 
			 "SMD_solvation_energy": 4.06 
		},
		"coords": [
			{
				"x": 1.6366240908,
				"y": -0.858222016,
				"z": -0.5595802398,
				"element": "C" 
			},
			{
				"x": 0.3832655473,
				"y": -0.0278833024,
				"z": -0.4419763191,
				"element": "C" 
			},
			{
				"x": 0.3109957746,
				"y": 1.1109416666,
				"z": 0.3818498154,
				"element": "C" 
			},
			{
				"x": 1.4744651246,
				"y": 1.5834341562,
				"z": 1.2233365914,
				"element": "C" 
			},
			{
				"x": 2.5531528197,
				"y": 2.3044500504,
				"z": 0.4305801948,
				"element": "C" 
			},
			{
				"x": 3.3534178937,
				"y": 3.0223044327,
				"z": 1.2516088133,
				"element": "O" 
			},
			{
				"x": 2.7239958924,
				"y": 2.2501968785,
				"z": -0.7671834747,
				"element": "O" 
			},
			{
				"x": -0.7988709799,
				"y": 1.8594381488,
				"z": 0.4923371152,
				"element": "N" 
			},
			{
				"x": -1.8631203171,
				"y": 1.5159775007,
				"z": -0.2059206964,
				"element": "C" 
			},
			{
				"x": -3.2945470858,
				"y": 2.5323484417,
				"z": -0.0239737417,
				"element": "Cl" 
			},
			{
				"x": -1.9229481504,
				"y": 0.4149342445,
				"z": -1.0581206629,
				"element": "C" 
			},
			{
				"x": -0.7708254191,
				"y": -0.3577804363,
				"z": -1.1621858848,
				"element": "C" 
			},
			{
				"x": 1.4728105983,
				"y": -1.7205217872,
				"z": -1.2110187247,
				"element": "H" 
			},
			{
				"x": 2.4556099508,
				"y": -0.2644665816,
				"z": -0.9758752836,
				"element": "H" 
			},
			{
				"x": 1.9642028659,
				"y": -1.2392824228,
				"z": 0.4152753393,
				"element": "H" 
			},
			{
				"x": 1.1022206562,
				"y": 2.2589104545,
				"z": 1.9963631391,
				"element": "H" 
			},
			{
				"x": 1.9668680751,
				"y": 0.7468551762,
				"z": 1.7360896423,
				"element": "H" 
			},
			{
				"x": 4.0257848414,
				"y": 3.4350038172,
				"z": 0.6833010671,
				"element": "H" 
			},
			{
				"x": -2.8266895948,
				"y": 0.177477714,
				"z": -1.6061531376,
				"element": "H" 
			},
			{
				"x": -0.7657125837,
				"y": -1.2291161357,
				"z": -1.8117535525,
				"element": "H" 
			}
		],
		 "valence_orbital": [ 
			{
				"type": "occ",
				"energy": -0.31001,
				"method": "rhf"
			},
			{
				"type": "occ",
				"energy": -0.29509,
				"method": "rhf"
			},
			{
				"type": "occ",
				"energy": -0.28351,
				"method": "rhf"
			},
			{
				"type": "occ",
				"energy": -0.27324,
				"method": "rhf"
			},
			{
				"type": "occ",
				"energy": -0.24853,
				"method": "rhf"
			},
			{
				"type": "unocc",
				"energy": -0.0333,
				"method": "rhf"
			},
			{
				"type": "unocc",
				"energy": -0.02225,
				"method": "rhf"
			},
			{
				"type": "unocc",
				"energy": 0.00224,
				"method": "rhf"
			},
			{
				"type": "unocc",
				"energy": 0.0363,
				"method": "rhf"
			},
			{
				"type": "unocc",
				"energy": 0.07259,
				"method": "rhf"
			}
		],
		"cosmo_sigma_profile": { 
			"-0.025": 0.0,
			"-0.024": 0.0,
			"-0.023": 0.0,
			"-0.022": 0.0,
			"-0.021": 0.0,
			"-0.02": 0.0,
			"-0.019": 0.0496255808323,
			"-0.018": 0.836269864587,
			"-0.017": 1.22944211533,
			"-0.016": 0.885980555075,
			"-0.015": 0.30011710525,
			"-0.014": 0.540214584411,
			"-0.013": 0.792054241549,
			"-0.012": 0.920568323139,
			"-0.011": 0.604603638388,
			"-0.01": 1.10911420816,
			"-0.009": 0.616626955297,
			"-0.008": 4.17251174336,
			"-0.007": 9.81795859487,
			"-0.006": 10.7762558361,
			"-0.005": 10.2295112907,
			"-0.004": 10.9461734002,
			"-0.003": 12.3355718114,
			"-0.002": 15.2447109818,
			"-0.001": 16.1045490788,
			"0.0": 19.3653037812,
			"0.001": 16.4893449347,
			"0.002": 14.1265941266,
			"0.003": 10.0477096181,
			"0.004": 12.3626113288,
			"0.005": 10.1865904099,
			"0.006": 5.58320379357,
			"0.007": 5.04876862315,
			"0.008": 4.85873068342,
			"0.009": 3.9113400228,
			"0.01": 3.60986174597,
			"0.011": 5.0035915086,
			"0.012": 2.41467699085,
			"0.013": 0.663866485367,
			"0.014": 0.22019034383,
			"0.015": 0.0,
			"0.016": 0.0,
			"0.017": 0.0,
			"0.018": 0.0,
			"0.019": 0.0,
			"0.02": 0.0,
			"0.021": 0.0,
			"0.022": 0.0,
			"0.023": 0.0,
			"0.024": 0.0,
			"0.025": 0.0
		}
	}
}
