{
	 "smiles": "CC(=O)OCC=C", 
	 "Tm": 279.15, 
	 "num_atms": 15, 
	 "gaussian": { 
		 "optdone": 1, 
		 "sigma_profile": "yes", 
		 "theory": "DFT", 
		 "functional": "B3LYP", 
		 "basiset": "6-31G**", 
		 "properties": { 
			 "R2extent": 1430.9293, 
			 "electric_dipole_moment_norm": 1.70001286466, 
			 "electric_quadrupole_moment_norm": 7.10145521636, 
			 "total_energy": -345.787045913, 
			 "HOMO_LUMO_gap": 0.26955, 
			 "cosmo_polarized_energy": -6.63, 
			 "cosmo_cavitation_energy": 19.29, 
			 "cosmo_dispersion_energy": -13.81, 
			 "cosmo_repulsion_energy": 1.19, 
			 "cosmo_total_nonelectrostatic_energy": 6.67, 
			 "SMD_solvation_energy": 5.52 
		},
		"coords": [
			{
				"x": -0.3610506617,
				"y": -0.7377854803,
				"z": 0.7376038556,
				"element": "C" 
			},
			{
				"x": -0.2897571975,
				"y": 0.1280549334,
				"z": -0.4981106629,
				"element": "C" 
			},
			{
				"x": -1.1569304392,
				"y": 0.2246740943,
				"z": -1.3399500757,
				"element": "O" 
			},
			{
				"x": 0.8873613522,
				"y": 0.7947106724,
				"z": -0.5478314977,
				"element": "O" 
			},
			{
				"x": 1.0901056167,
				"y": 1.6522911839,
				"z": -1.7032692174,
				"element": "C" 
			},
			{
				"x": 0.438666729,
				"y": 2.9916019629,
				"z": -1.525574844,
				"element": "C" 
			},
			{
				"x": 1.111638231,
				"y": 4.1413031232,
				"z": -1.4949639082,
				"element": "C" 
			},
			{
				"x": -1.3111069397,
				"y": -1.2708145564,
				"z": 0.752298507,
				"element": "H" 
			},
			{
				"x": -0.2666235521,
				"y": -0.1175721867,
				"z": 1.6338749074,
				"element": "H" 
			},
			{
				"x": 0.4689375344,
				"y": -1.4502873304,
				"z": 0.7461513518,
				"element": "H" 
			},
			{
				"x": 0.6895773243,
				"y": 1.1399365608,
				"z": -2.5834205622,
				"element": "H" 
			},
			{
				"x": 2.1744350571,
				"y": 1.7473735913,
				"z": -1.7923063817,
				"element": "H" 
			},
			{
				"x": -0.6458468414,
				"y": 2.9802199144,
				"z": -1.4415351198,
				"element": "H" 
			},
			{
				"x": 2.195711689,
				"y": 4.1709915996,
				"z": -1.5800401259,
				"element": "H" 
			},
			{
				"x": 0.6059820978,
				"y": 5.0968019177,
				"z": -1.3921262263,
				"element": "H" 
			}
		],
		 "valence_orbital": [ 
			{
				"type": "occ",
				"energy": -0.36135,
				"method": "rhf"
			},
			{
				"type": "occ",
				"energy": -0.35402,
				"method": "rhf"
			},
			{
				"type": "occ",
				"energy": -0.29868,
				"method": "rhf"
			},
			{
				"type": "occ",
				"energy": -0.27269,
				"method": "rhf"
			},
			{
				"type": "occ",
				"energy": -0.26611,
				"method": "rhf"
			},
			{
				"type": "unocc",
				"energy": 0.00344,
				"method": "rhf"
			},
			{
				"type": "unocc",
				"energy": 0.01475,
				"method": "rhf"
			},
			{
				"type": "unocc",
				"energy": 0.11306,
				"method": "rhf"
			},
			{
				"type": "unocc",
				"energy": 0.11656,
				"method": "rhf"
			},
			{
				"type": "unocc",
				"energy": 0.12113,
				"method": "rhf"
			}
		],
		"cosmo_sigma_profile": { 
			"-0.025": 0.0,
			"-0.024": 0.0,
			"-0.023": 0.0,
			"-0.022": 0.0,
			"-0.021": 0.0,
			"-0.02": 0.0,
			"-0.019": 0.0,
			"-0.018": 0.0,
			"-0.017": 0.0,
			"-0.016": 0.0,
			"-0.015": 0.0,
			"-0.014": 0.0,
			"-0.013": 0.0,
			"-0.012": 0.0,
			"-0.011": 0.0,
			"-0.01": 0.0,
			"-0.009": 0.0,
			"-0.008": 0.0,
			"-0.007": 1.26636806649,
			"-0.006": 9.76656296649,
			"-0.005": 15.3121199516,
			"-0.004": 14.5346394675,
			"-0.003": 17.9504836333,
			"-0.002": 15.6738403234,
			"-0.001": 14.0753337785,
			"0.0": 8.60375376787,
			"0.001": 7.45868549186,
			"0.002": 6.96186357758,
			"0.003": 6.17015588291,
			"0.004": 5.78850284751,
			"0.005": 6.46254738911,
			"0.006": 4.65772050847,
			"0.007": 2.39058311105,
			"0.008": 2.50710363067,
			"0.009": 2.77862331034,
			"0.01": 1.72449689865,
			"0.011": 2.86822996173,
			"0.012": 3.93031959645,
			"0.013": 1.49192195717,
			"0.014": 0.0319195394027,
			"0.015": 0.0,
			"0.016": 0.0,
			"0.017": 0.0,
			"0.018": 0.0,
			"0.019": 0.0,
			"0.02": 0.0,
			"0.021": 0.0,
			"0.022": 0.0,
			"0.023": 0.0,
			"0.024": 0.0,
			"0.025": 0.0
		}
	}
}
