{
	 "smiles": "CC1=CC=CC(C)=C1I", 
	 "Tm": 284.25, 
	 "num_atms": 18, 
	 "gaussian": { 
		 "optdone": 1, 
		 "sigma_profile": "no", 
		 "theory": "DFT", 
		 "functional": "B3LYP", 
		 "basiset": "6-31G**", 
		 "properties": { 
			 "R2extent": 1444.9554, 
			 "electric_dipole_moment_norm": 1.4556489618, 
			 "electric_quadrupole_moment_norm": 4.97364200059, 
			 "total_energy": -321.674353928, 
			 "HOMO_LUMO_gap": 0.20277, 
			 "cosmo_polarized_energy": -74202.49, 
			 "cosmo_cavitation_energy": 23.55, 
			 "cosmo_dispersion_energy": -18.72, 
			 "cosmo_repulsion_energy": 1.47, 
			 "cosmo_total_nonelectrostatic_energy": 6.31, 
			 "SMD_solvation_energy": 3.33 
		},
		"coords": [
			{
				"x": -0.8619047306,
				"y": -0.2967487604,
				"z": 2.175404228,
				"element": "C" 
			},
			{
				"x": -0.0796910485,
				"y": -0.4209688608,
				"z": 0.8914484821,
				"element": "C" 
			},
			{
				"x": -0.4290174474,
				"y": -1.4152988751,
				"z": -0.0338641438,
				"element": "C" 
			},
			{
				"x": 0.2637744877,
				"y": -1.5673459954,
				"z": -1.2308910628,
				"element": "C" 
			},
			{
				"x": 1.3273944142,
				"y": -0.7202610214,
				"z": -1.5260804701,
				"element": "C" 
			},
			{
				"x": 1.7228768989,
				"y": 0.292345172,
				"z": -0.6399822749,
				"element": "C" 
			},
			{
				"x": 2.8826198452,
				"y": 1.1850634592,
				"z": -1.0058320169,
				"element": "C" 
			},
			{
				"x": 1.0000479067,
				"y": 0.4167212709,
				"z": 0.5598516109,
				"element": "C" 
			},
			{
				"x": 1.5683431893,
				"y": 1.9486708843,
				"z": 1.9424334752,
				"element": "I" 
			},
			{
				"x": -1.3266526707,
				"y": 0.6906500786,
				"z": 2.2687089932,
				"element": "H" 
			},
			{
				"x": -0.2183553383,
				"y": -0.4272649004,
				"z": 3.0520231682,
				"element": "H" 
			},
			{
				"x": -1.6517786815,
				"y": -1.0509749722,
				"z": 2.2165645873,
				"element": "H" 
			},
			{
				"x": -1.2601643172,
				"y": -2.074649722,
				"z": 0.2005444984,
				"element": "H" 
			},
			{
				"x": -0.0246872318,
				"y": -2.3445676705,
				"z": -1.9324234679,
				"element": "H" 
			},
			{
				"x": 1.8710382157,
				"y": -0.8356122284,
				"z": -2.4597002722,
				"element": "H" 
			},
			{
				"x": 3.2887968934,
				"y": 0.9041650902,
				"z": -1.98080112,
				"element": "H" 
			},
			{
				"x": 3.6888964891,
				"y": 1.1189351848,
				"z": -0.267462751,
				"element": "H" 
			},
			{
				"x": 2.5810631258,
				"y": 2.2370418666,
				"z": -1.0511414638,
				"element": "H" 
			}
		],
		 "valence_orbital": [ 
			{
				"type": "occ",
				"energy": -0.32767,
				"method": "rhf"
			},
			{
				"type": "occ",
				"energy": -0.28886,
				"method": "rhf"
			},
			{
				"type": "occ",
				"energy": -0.26076,
				"method": "rhf"
			},
			{
				"type": "occ",
				"energy": -0.24491,
				"method": "rhf"
			},
			{
				"type": "occ",
				"energy": -0.23435,
				"method": "rhf"
			},
			{
				"type": "unocc",
				"energy": -0.03158,
				"method": "rhf"
			},
			{
				"type": "unocc",
				"energy": -0.01243,
				"method": "rhf"
			},
			{
				"type": "unocc",
				"energy": -0.00348,
				"method": "rhf"
			},
			{
				"type": "unocc",
				"energy": 0.04079,
				"method": "rhf"
			},
			{
				"type": "unocc",
				"energy": 0.0489,
				"method": "rhf"
			}
		],
		"cosmo_sigma_profile": { 
			"0.0": 0.0,
			"0.0": 0.0,
			"0.0": 0.0,
			"0.0": 0.0,
			"0.0": 0.0,
			"0.0": 0.0,
			"0.0": 0.0,
			"0.0": 0.0,
			"0.0": 0.0,
			"0.0": 0.0,
			"0.0": 0.0,
			"0.0": 0.0,
			"0.0": 0.0,
			"0.0": 0.0,
			"0.0": 0.0,
			"0.0": 0.0,
			"0.0": 0.0,
			"0.0": 0.0,
			"0.0": 0.0,
			"0.0": 0.0,
			"0.0": 0.0,
			"0.0": 0.0,
			"0.0": 0.0,
			"0.0": 0.0,
			"0.0": 0.0,
			"0.0": 0.0,
			"0.0": 0.0,
			"0.0": 0.0,
			"0.0": 0.0,
			"0.0": 0.0,
			"0.0": 0.0,
			"0.0": 0.0,
			"0.0": 0.0,
			"0.0": 0.0,
			"0.0": 0.0,
			"0.0": 0.0,
			"0.0": 0.0,
			"0.0": 0.0,
			"0.0": 0.0,
			"0.0": 0.0,
			"0.0": 0.0,
			"0.0": 0.0,
			"0.0": 0.0,
			"0.0": 0.0,
			"0.0": 0.0,
			"0.0": 0.0,
			"0.0": 0.0,
			"0.0": 0.0,
			"0.0": 0.0,
			"0.0": 0.0,
			"0.0": 0.0
		}
	}
}
