{
	 "smiles": "NC(=S)C1=CC=C2OCCOC2=C1", 
	 "Tm": 415.15, 
	 "num_atms": 22, 
	 "gaussian": { 
		 "optdone": 1, 
		 "sigma_profile": "yes", 
		 "theory": "DFT", 
		 "functional": "B3LYP", 
		 "basiset": "6-31G**", 
		 "properties": { 
			 "R2extent": 3466.4916, 
			 "electric_dipole_moment_norm": 6.26140687146, 
			 "electric_quadrupole_moment_norm": 15.9078510359, 
			 "total_energy": -951.758482652, 
			 "HOMO_LUMO_gap": 0.14709, 
			 "cosmo_polarized_energy": -17.94, 
			 "cosmo_cavitation_energy": 27.14, 
			 "cosmo_dispersion_energy": -21.13, 
			 "cosmo_repulsion_energy": 1.63, 
			 "cosmo_total_nonelectrostatic_energy": 7.64, 
			 "SMD_solvation_energy": 4.04 
		},
		"coords": [
			{
				"x": 2.5687166728,
				"y": 1.411145378,
				"z": 2.44162665,
				"element": "N" 
			},
			{
				"x": 1.6974173811,
				"y": 0.4271376442,
				"z": 2.7709892598,
				"element": "C" 
			},
			{
				"x": 1.8559566423,
				"y": -0.4171066483,
				"z": 4.2045523893,
				"element": "S" 
			},
			{
				"x": 0.6391620626,
				"y": 0.1529099264,
				"z": 1.7644941741,
				"element": "C" 
			},
			{
				"x": -0.5966406692,
				"y": -0.3856086846,
				"z": 2.1626274125,
				"element": "C" 
			},
			{
				"x": -1.5911225308,
				"y": -0.6391026721,
				"z": 1.227725748,
				"element": "C" 
			},
			{
				"x": -1.3755402582,
				"y": -0.3716047721,
				"z": -0.1267198691,
				"element": "C" 
			},
			{
				"x": -2.3744640266,
				"y": -0.6574015804,
				"z": -1.017395492,
				"element": "O" 
			},
			{
				"x": -1.949841516,
				"y": -0.6842666603,
				"z": -2.3824734572,
				"element": "C" 
			},
			{
				"x": -1.0525180213,
				"y": 0.5064957255,
				"z": -2.6764448946,
				"element": "C" 
			},
			{
				"x": 0.1158749537,
				"y": 0.4569234625,
				"z": -1.8565822798,
				"element": "O" 
			},
			{
				"x": -0.1470355443,
				"y": 0.1756950526,
				"z": -0.5377139875,
				"element": "C" 
			},
			{
				"x": 0.8466126054,
				"y": 0.4313586234,
				"z": 0.4029508742,
				"element": "C" 
			},
			{
				"x": 2.3555254544,
				"y": 2.0737028978,
				"z": 1.7108365207,
				"element": "H" 
			},
			{
				"x": 3.2843564898,
				"y": 1.6493530865,
				"z": 3.112456372,
				"element": "H" 
			},
			{
				"x": -0.755991537,
				"y": -0.6052676772,
				"z": 3.2117351883,
				"element": "H" 
			},
			{
				"x": -2.5481046099,
				"y": -1.0572985554,
				"z": 1.5222099547,
				"element": "H" 
			},
			{
				"x": -2.8582284353,
				"y": -0.658159983,
				"z": -2.9892044574,
				"element": "H" 
			},
			{
				"x": -1.4105249491,
				"y": -1.6193713252,
				"z": -2.5837824662,
				"element": "H" 
			},
			{
				"x": -1.5990898611,
				"y": 1.4415462305,
				"z": -2.4921446101,
				"element": "H" 
			},
			{
				"x": -0.7052657275,
				"y": 0.4950734573,
				"z": -3.7124857316,
				"element": "H" 
			},
			{
				"x": 1.7954454245,
				"y": 0.8080470739,
				"z": 0.0349427017,
				"element": "H" 
			}
		],
		 "valence_orbital": [ 
			{
				"type": "occ",
				"energy": -0.31467,
				"method": "rhf"
			},
			{
				"type": "occ",
				"energy": -0.24794,
				"method": "rhf"
			},
			{
				"type": "occ",
				"energy": -0.2336,
				"method": "rhf"
			},
			{
				"type": "occ",
				"energy": -0.21667,
				"method": "rhf"
			},
			{
				"type": "occ",
				"energy": -0.19988,
				"method": "rhf"
			},
			{
				"type": "unocc",
				"energy": -0.05279,
				"method": "rhf"
			},
			{
				"type": "unocc",
				"energy": -0.00576,
				"method": "rhf"
			},
			{
				"type": "unocc",
				"energy": 0.03253,
				"method": "rhf"
			},
			{
				"type": "unocc",
				"energy": 0.07026,
				"method": "rhf"
			},
			{
				"type": "unocc",
				"energy": 0.08353,
				"method": "rhf"
			}
		],
		"cosmo_sigma_profile": { 
			"-0.025": 0.0,
			"-0.024": 0.0,
			"-0.023": 0.0,
			"-0.022": 0.0,
			"-0.021": 0.0,
			"-0.02": 0.0,
			"-0.019": 0.0,
			"-0.018": 0.0,
			"-0.017": 0.0,
			"-0.016": 0.0951002107569,
			"-0.015": 1.4595755631,
			"-0.014": 2.26211554909,
			"-0.013": 2.72619076664,
			"-0.012": 2.37426276957,
			"-0.011": 2.35191802613,
			"-0.01": 2.03094572316,
			"-0.009": 2.60430004698,
			"-0.008": 2.80028240125,
			"-0.007": 11.7719713492,
			"-0.006": 16.3279774164,
			"-0.005": 14.0341608242,
			"-0.004": 13.6964201978,
			"-0.003": 9.02734734393,
			"-0.002": 8.69649803864,
			"-0.001": 8.28103823867,
			"0.0": 9.30273533201,
			"0.001": 12.2766393681,
			"0.002": 16.2342201952,
			"0.003": 15.7431099175,
			"0.004": 11.8741388449,
			"0.005": 8.06824370006,
			"0.006": 6.51768268362,
			"0.007": 6.54531069042,
			"0.008": 8.46087540367,
			"0.009": 9.88471784166,
			"0.01": 7.22683772574,
			"0.011": 3.72079616104,
			"0.012": 2.36879116687,
			"0.013": 0.133996477652,
			"0.014": 0.0,
			"0.015": 0.0,
			"0.016": 0.0,
			"0.017": 0.0,
			"0.018": 0.0,
			"0.019": 0.0,
			"0.02": 0.0,
			"0.021": 0.0,
			"0.022": 0.0,
			"0.023": 0.0,
			"0.024": 0.0,
			"0.025": 0.0
		}
	}
}
