{
	 "smiles": "CN(CC#N)C(=O)C1=CC=CC=C1", 
	 "Tm": 347.15, 
	 "num_atms": 23, 
	 "gaussian": { 
		 "optdone": 1, 
		 "sigma_profile": "yes", 
		 "theory": "DFT", 
		 "functional": "B3LYP", 
		 "basiset": "6-31G**", 
		 "properties": { 
			 "R2extent": 4207.0368, 
			 "electric_dipole_moment_norm": 4.54893644053, 
			 "electric_quadrupole_moment_norm": 18.4114002938, 
			 "total_energy": -571.801547487, 
			 "HOMO_LUMO_gap": 0.21219, 
			 "cosmo_polarized_energy": -13.99, 
			 "cosmo_cavitation_energy": 27.91, 
			 "cosmo_dispersion_energy": -19.37, 
			 "cosmo_repulsion_energy": 1.54, 
			 "cosmo_total_nonelectrostatic_energy": 10.08, 
			 "SMD_solvation_energy": 6.73 
		},
		"coords": [
			{
				"x": 0.4122856651,
				"y": 1.4553448999,
				"z": -1.3734291035,
				"element": "C" 
			},
			{
				"x": -0.7233640876,
				"y": 2.351831186,
				"z": -1.1766537194,
				"element": "N" 
			},
			{
				"x": -0.7042425943,
				"y": 3.5815778759,
				"z": -1.9574482712,
				"element": "C" 
			},
			{
				"x": -0.8250416236,
				"y": 3.3149131089,
				"z": -3.4004848065,
				"element": "C" 
			},
			{
				"x": -0.9029652432,
				"y": 3.094800758,
				"z": -4.537197787,
				"element": "N" 
			},
			{
				"x": -1.6347152223,
				"y": 2.2926506479,
				"z": -0.132722137,
				"element": "C" 
			},
			{
				"x": -2.320358091,
				"y": 3.2652667257,
				"z": 0.1712620118,
				"element": "O" 
			},
			{
				"x": -1.7974208852,
				"y": 0.9937414235,
				"z": 0.6038257619,
				"element": "C" 
			},
			{
				"x": -1.8908804161,
				"y": -0.2428905837,
				"z": -0.0506789373,
				"element": "C" 
			},
			{
				"x": -2.1479344633,
				"y": -1.4047610431,
				"z": 0.6780778308,
				"element": "C" 
			},
			{
				"x": -2.3030376573,
				"y": -1.3418060759,
				"z": 2.0640059654,
				"element": "C" 
			},
			{
				"x": -2.2229800276,
				"y": -0.1101384097,
				"z": 2.7193356405,
				"element": "C" 
			},
			{
				"x": -1.9874271989,
				"y": 1.0539621463,
				"z": 1.9914407435,
				"element": "C" 
			},
			{
				"x": 1.3492788514,
				"y": 2.0231700853,
				"z": -1.3036183235,
				"element": "H" 
			},
			{
				"x": 0.4214478255,
				"y": 0.6845745371,
				"z": -0.60638505,
				"element": "H" 
			},
			{
				"x": 0.3744947384,
				"y": 0.9783534562,
				"z": -2.3591640165,
				"element": "H" 
			},
			{
				"x": 0.2247734559,
				"y": 4.1440280351,
				"z": -1.7862958779,
				"element": "H" 
			},
			{
				"x": -1.53867541,
				"y": 4.1997541877,
				"z": -1.6160808152,
				"element": "H" 
			},
			{
				"x": -1.7902866531,
				"y": -0.2943507917,
				"z": -1.1306077669,
				"element": "H" 
			},
			{
				"x": -2.2322271935,
				"y": -2.35674016,
				"z": 0.1623050299,
				"element": "H" 
			},
			{
				"x": -2.4960320769,
				"y": -2.2480759191,
				"z": 2.6307145847,
				"element": "H" 
			},
			{
				"x": -2.3551634697,
				"y": -0.0566112204,
				"z": 3.7959293303,
				"element": "H" 
			},
			{
				"x": -1.9560282227,
				"y": 2.02100513,
				"z": 2.482369713,
				"element": "H" 
			}
		],
		 "valence_orbital": [ 
			{
				"type": "occ",
				"energy": -0.33075,
				"method": "rhf"
			},
			{
				"type": "occ",
				"energy": -0.27828,
				"method": "rhf"
			},
			{
				"type": "occ",
				"energy": -0.26598,
				"method": "rhf"
			},
			{
				"type": "occ",
				"energy": -0.26361,
				"method": "rhf"
			},
			{
				"type": "occ",
				"energy": -0.25392,
				"method": "rhf"
			},
			{
				"type": "unocc",
				"energy": -0.04173,
				"method": "rhf"
			},
			{
				"type": "unocc",
				"energy": -0.01632,
				"method": "rhf"
			},
			{
				"type": "unocc",
				"energy": 0.01889,
				"method": "rhf"
			},
			{
				"type": "unocc",
				"energy": 0.03306,
				"method": "rhf"
			},
			{
				"type": "unocc",
				"energy": 0.03783,
				"method": "rhf"
			}
		],
		"cosmo_sigma_profile": { 
			"-0.025": 0.0,
			"-0.024": 0.0,
			"-0.023": 0.0,
			"-0.022": 0.0,
			"-0.021": 0.0,
			"-0.02": 0.0,
			"-0.019": 0.0,
			"-0.018": 0.0,
			"-0.017": 0.0,
			"-0.016": 0.0,
			"-0.015": 0.0,
			"-0.014": 0.0,
			"-0.013": 0.0,
			"-0.012": 0.0,
			"-0.011": 0.0,
			"-0.01": 0.0854957642267,
			"-0.009": 4.70910166704,
			"-0.008": 4.87353559952,
			"-0.007": 6.0357225617,
			"-0.006": 15.9743615227,
			"-0.005": 21.1907309023,
			"-0.004": 21.4360328509,
			"-0.003": 22.6306875245,
			"-0.002": 16.8648378338,
			"-0.001": 9.70591931654,
			"0.0": 8.90280138121,
			"0.001": 11.0238242402,
			"0.002": 10.0434218213,
			"0.003": 11.4950112303,
			"0.004": 13.5089283624,
			"0.005": 7.61685158561,
			"0.006": 4.35965894704,
			"0.007": 3.83235146862,
			"0.008": 5.26263464685,
			"0.009": 4.53664418897,
			"0.01": 4.59171268526,
			"0.011": 4.52214034388,
			"0.012": 5.63884684311,
			"0.013": 4.1693609884,
			"0.014": 0.793762635544,
			"0.015": 0.0,
			"0.016": 0.0,
			"0.017": 0.0,
			"0.018": 0.0,
			"0.019": 0.0,
			"0.02": 0.0,
			"0.021": 0.0,
			"0.022": 0.0,
			"0.023": 0.0,
			"0.024": 0.0,
			"0.025": 0.0
		}
	}
}
