{
	 "smiles": "[O-][N+](=O)C1=CC=CC=C1C1=CC=C(O1)C=C1N=C(OC1=O)C1=CC=CC=C1", 
	 "Tm": 483.15, 
	 "num_atms": 39, 
	 "gaussian": { 
		 "optdone": 1, 
		 "sigma_profile": "yes", 
		 "theory": "DFT", 
		 "functional": "B3LYP", 
		 "basiset": "6-31G**", 
		 "properties": { 
			 "R2extent": 11297.7389, 
			 "electric_dipole_moment_norm": 6.50094593194, 
			 "electric_quadrupole_moment_norm": 31.9395701108, 
			 "total_energy": -1254.86542339, 
			 "HOMO_LUMO_gap": 0.10686, 
			 "cosmo_polarized_energy": -20.5, 
			 "cosmo_cavitation_energy": 46.52, 
			 "cosmo_dispersion_energy": -31.72, 
			 "cosmo_repulsion_energy": 2.29, 
			 "cosmo_total_nonelectrostatic_energy": 17.09, 
			 "SMD_solvation_energy": 9.96 
		},
		"coords": [
			{
				"x": 0.8214045057,
				"y": 0.9086674576,
				"z": -2.4762998106,
				"element": "O" 
			},
			{
				"x": 0.4894136406,
				"y": -0.2337223011,
				"z": -2.8034007924,
				"element": "N" 
			},
			{
				"x": -0.6516964135,
				"y": -0.6762554538,
				"z": -2.7684242326,
				"element": "O" 
			},
			{
				"x": 1.5509174916,
				"y": -1.0982637253,
				"z": -3.3502992749,
				"element": "C" 
			},
			{
				"x": 2.4604793098,
				"y": -0.4706443723,
				"z": -4.2001221178,
				"element": "C" 
			},
			{
				"x": 3.4191265495,
				"y": -1.2245500422,
				"z": -4.8697767668,
				"element": "C" 
			},
			{
				"x": 3.4728921192,
				"y": -2.6050388268,
				"z": -4.6627639359,
				"element": "C" 
			},
			{
				"x": 2.5919446666,
				"y": -3.2146786414,
				"z": -3.7761753088,
				"element": "C" 
			},
			{
				"x": 1.6000868972,
				"y": -2.483967972,
				"z": -3.0924149121,
				"element": "C" 
			},
			{
				"x": 0.7621831748,
				"y": -3.1959707892,
				"z": -2.135150509,
				"element": "C" 
			},
			{
				"x": 0.3674859374,
				"y": -4.5172471858,
				"z": -2.0779565572,
				"element": "C" 
			},
			{
				"x": -0.366933802,
				"y": -4.6642175136,
				"z": -0.8798538806,
				"element": "C" 
			},
			{
				"x": -0.3865664626,
				"y": -3.4225498258,
				"z": -0.2673191131,
				"element": "C" 
			},
			{
				"x": 0.3113279027,
				"y": -2.5339079653,
				"z": -1.0378691953,
				"element": "O" 
			},
			{
				"x": -0.9910423178,
				"y": -3.0061881992,
				"z": 0.9516938774,
				"element": "C" 
			},
			{
				"x": -1.106969151,
				"y": -1.7473152204,
				"z": 1.4568717477,
				"element": "C" 
			},
			{
				"x": -0.6989967585,
				"y": -0.5411759324,
				"z": 0.9045739374,
				"element": "N" 
			},
			{
				"x": -1.0702651974,
				"y": 0.369408074,
				"z": 1.750580175,
				"element": "C" 
			},
			{
				"x": -1.7013475323,
				"y": -0.0877030847,
				"z": 2.8916234792,
				"element": "O" 
			},
			{
				"x": -1.764210759,
				"y": -1.4822878974,
				"z": 2.7593137013,
				"element": "C" 
			},
			{
				"x": -2.2649143778,
				"y": -2.1953851044,
				"z": 3.5890040812,
				"element": "O" 
			},
			{
				"x": -0.9039783687,
				"y": 1.8089750346,
				"z": 1.6150292015,
				"element": "C" 
			},
			{
				"x": -1.2415890078,
				"y": 2.6744402621,
				"z": 2.6697718964,
				"element": "C" 
			},
			{
				"x": -1.0699360704,
				"y": 4.0481550899,
				"z": 2.5200257154,
				"element": "C" 
			},
			{
				"x": -0.5677576358,
				"y": 4.5652816605,
				"z": 1.3229849823,
				"element": "C" 
			},
			{
				"x": -0.2385547309,
				"y": 3.7049591826,
				"z": 0.2704311125,
				"element": "C" 
			},
			{
				"x": -0.4036157955,
				"y": 2.3306561351,
				"z": 0.4081370606,
				"element": "C" 
			},
			{
				"x": 2.3858816539,
				"y": 0.6012998761,
				"z": -4.3372336104,
				"element": "H" 
			},
			{
				"x": 4.116172555,
				"y": -0.7384248171,
				"z": -5.5443233436,
				"element": "H" 
			},
			{
				"x": 4.2202514178,
				"y": -3.2052746537,
				"z": -5.1724181222,
				"element": "H" 
			},
			{
				"x": 2.6849400043,
				"y": -4.2757599584,
				"z": -3.5705535213,
				"element": "H" 
			},
			{
				"x": 0.5626574214,
				"y": -5.275567098,
				"z": -2.8219673718,
				"element": "H" 
			},
			{
				"x": -0.8436403224,
				"y": -5.5590427935,
				"z": -0.506046117,
				"element": "H" 
			},
			{
				"x": -1.4300954755,
				"y": -3.8000748217,
				"z": 1.5497833203,
				"element": "H" 
			},
			{
				"x": -1.631874999,
				"y": 2.263900675,
				"z": 3.594438741,
				"element": "H" 
			},
			{
				"x": -1.3285714195,
				"y": 4.7158230121,
				"z": 3.336451357,
				"element": "H" 
			},
			{
				"x": -0.4368810872,
				"y": 5.6377100253,
				"z": 1.2089071352,
				"element": "H" 
			},
			{
				"x": 0.1441256644,
				"y": 4.1063936087,
				"z": -0.6630527745,
				"element": "H" 
			},
			{
				"x": -0.1650532275,
				"y": 1.6583441018,
				"z": -0.4091002534,
				"element": "H" 
			}
		],
		 "valence_orbital": [ 
			{
				"type": "occ",
				"energy": -0.276,
				"method": "rhf"
			},
			{
				"type": "occ",
				"energy": -0.26472,
				"method": "rhf"
			},
			{
				"type": "occ",
				"energy": -0.25534,
				"method": "rhf"
			},
			{
				"type": "occ",
				"energy": -0.25294,
				"method": "rhf"
			},
			{
				"type": "occ",
				"energy": -0.2052,
				"method": "rhf"
			},
			{
				"type": "unocc",
				"energy": -0.09834,
				"method": "rhf"
			},
			{
				"type": "unocc",
				"energy": -0.07983,
				"method": "rhf"
			},
			{
				"type": "unocc",
				"energy": -0.04384,
				"method": "rhf"
			},
			{
				"type": "unocc",
				"energy": -0.02571,
				"method": "rhf"
			},
			{
				"type": "unocc",
				"energy": -0.01801,
				"method": "rhf"
			}
		],
		"cosmo_sigma_profile": { 
			"-0.025": 0.0,
			"-0.024": 0.0,
			"-0.023": 0.0,
			"-0.022": 0.0,
			"-0.021": 0.0,
			"-0.02": 0.0,
			"-0.019": 0.0,
			"-0.018": 0.0,
			"-0.017": 0.0,
			"-0.016": 0.0,
			"-0.015": 0.0,
			"-0.014": 0.0,
			"-0.013": 0.0,
			"-0.012": 0.0,
			"-0.011": 0.0,
			"-0.01": 0.0479040728501,
			"-0.009": 5.20813943091,
			"-0.008": 10.3195552566,
			"-0.007": 18.1540503868,
			"-0.006": 23.0838158067,
			"-0.005": 21.7199403685,
			"-0.004": 21.0631435775,
			"-0.003": 18.9134929227,
			"-0.002": 21.7649303215,
			"-0.001": 28.2550724472,
			"0.0": 33.4268805952,
			"0.001": 38.048289669,
			"0.002": 34.271634289,
			"0.003": 22.170972455,
			"0.004": 19.0304156495,
			"0.005": 9.39845486767,
			"0.006": 11.2444532239,
			"0.007": 12.0159531031,
			"0.008": 8.78086843682,
			"0.009": 7.25604705706,
			"0.01": 7.0034847054,
			"0.011": 5.14519149826,
			"0.012": 0.737239331895,
			"0.013": 0.0,
			"0.014": 0.0,
			"0.015": 0.0,
			"0.016": 0.0,
			"0.017": 0.0,
			"0.018": 0.0,
			"0.019": 0.0,
			"0.02": 0.0,
			"0.021": 0.0,
			"0.022": 0.0,
			"0.023": 0.0,
			"0.024": 0.0,
			"0.025": 0.0
		}
	}
}
