{
	 "smiles": "NC1CCN(C1=O)C1=CC=C(C=C1)C(F)(F)F", 
	 "Tm": 406.15, 
	 "num_atms": 28, 
	 "gaussian": { 
		 "optdone": 1, 
		 "sigma_profile": "yes", 
		 "theory": "DFT", 
		 "functional": "B3LYP", 
		 "basiset": "6-31G**", 
		 "properties": { 
			 "R2extent": 6854.6714, 
			 "electric_dipole_moment_norm": 4.15370761008, 
			 "electric_quadrupole_moment_norm": 15.2077196772, 
			 "total_energy": -910.069563611, 
			 "HOMO_LUMO_gap": 0.19926, 
			 "cosmo_polarized_energy": -13.18, 
			 "cosmo_cavitation_energy": 32.56, 
			 "cosmo_dispersion_energy": -23.39, 
			 "cosmo_repulsion_energy": 1.74, 
			 "cosmo_total_nonelectrostatic_energy": 10.9, 
			 "SMD_solvation_energy": 5.39 
		},
		"coords": [
			{
				"x": 3.9618676356,
				"y": 1.4045048117,
				"z": -0.5022877339,
				"element": "N" 
			},
			{
				"x": 3.0310224236,
				"y": 0.2924790808,
				"z": -0.734607073,
				"element": "C" 
			},
			{
				"x": 2.851281859,
				"y": -0.5955522226,
				"z": 0.500132061,
				"element": "C" 
			},
			{
				"x": 1.5702001817,
				"y": -0.073013158,
				"z": 1.1767774313,
				"element": "C" 
			},
			{
				"x": 0.8185778928,
				"y": 0.5717752528,
				"z": 0.0892223823,
				"element": "N" 
			},
			{
				"x": 1.6074457555,
				"y": 0.7876120903,
				"z": -1.0374462395,
				"element": "C" 
			},
			{
				"x": 1.2707114422,
				"y": 1.3404467749,
				"z": -2.0727845993,
				"element": "O" 
			},
			{
				"x": -0.5085069354,
				"y": 1.0160033622,
				"z": 0.2787770216,
				"element": "C" 
			},
			{
				"x": -1.2771100496,
				"y": 1.5298082759,
				"z": -0.7848699652,
				"element": "C" 
			},
			{
				"x": -2.5840067894,
				"y": 1.9453344905,
				"z": -0.5596279904,
				"element": "C" 
			},
			{
				"x": -3.1579532836,
				"y": 1.8605356324,
				"z": 0.7121429854,
				"element": "C" 
			},
			{
				"x": -2.4012946965,
				"y": 1.3528151258,
				"z": 1.7678524775,
				"element": "C" 
			},
			{
				"x": -1.0910570827,
				"y": 0.9336222685,
				"z": 1.5570566437,
				"element": "C" 
			},
			{
				"x": -4.5518145511,
				"y": 2.3659016708,
				"z": 0.9485833991,
				"element": "C" 
			},
			{
				"x": -5.1410282446,
				"y": 1.7507674551,
				"z": 1.9996530352,
				"element": "F" 
			},
			{
				"x": -5.3455358531,
				"y": 2.1781039732,
				"z": -0.1299894439,
				"element": "F" 
			},
			{
				"x": -4.56895896,
				"y": 3.694338042,
				"z": 1.2157689153,
				"element": "F" 
			},
			{
				"x": 3.6243649929,
				"y": 1.9910243324,
				"z": 0.2599399463,
				"element": "H" 
			},
			{
				"x": 3.9710575499,
				"y": 1.9995379629,
				"z": -1.3290154689,
				"element": "H" 
			},
			{
				"x": 3.3983675124,
				"y": -0.2648718183,
				"z": -1.6005411511,
				"element": "H" 
			},
			{
				"x": 2.7059515829,
				"y": -1.6351043879,
				"z": 0.1930483269,
				"element": "H" 
			},
			{
				"x": 3.720252092,
				"y": -0.5556423128,
				"z": 1.1603934503,
				"element": "H" 
			},
			{
				"x": 1.7867771448,
				"y": 0.6528955274,
				"z": 1.9722344264,
				"element": "H" 
			},
			{
				"x": 0.9795855787,
				"y": -0.8807702363,
				"z": 1.6187640399,
				"element": "H" 
			},
			{
				"x": -0.838886357,
				"y": 1.6012861772,
				"z": -1.769189209,
				"element": "H" 
			},
			{
				"x": -3.1684714177,
				"y": 2.3308179419,
				"z": -1.3884633879,
				"element": "H" 
			},
			{
				"x": -2.8364963738,
				"y": 1.276969968,
				"z": 2.7583961096,
				"element": "H" 
			},
			{
				"x": -0.5290430493,
				"y": 0.5469739191,
				"z": 2.3979796102,
				"element": "H" 
			}
		],
		 "valence_orbital": [ 
			{
				"type": "occ",
				"energy": -0.31069,
				"method": "rhf"
			},
			{
				"type": "occ",
				"energy": -0.28412,
				"method": "rhf"
			},
			{
				"type": "occ",
				"energy": -0.26619,
				"method": "rhf"
			},
			{
				"type": "occ",
				"energy": -0.23993,
				"method": "rhf"
			},
			{
				"type": "occ",
				"energy": -0.23402,
				"method": "rhf"
			},
			{
				"type": "unocc",
				"energy": -0.03476,
				"method": "rhf"
			},
			{
				"type": "unocc",
				"energy": -0.01577,
				"method": "rhf"
			},
			{
				"type": "unocc",
				"energy": 0.02051,
				"method": "rhf"
			},
			{
				"type": "unocc",
				"energy": 0.06309,
				"method": "rhf"
			},
			{
				"type": "unocc",
				"energy": 0.08883,
				"method": "rhf"
			}
		],
		"cosmo_sigma_profile": { 
			"-0.025": 0.0,
			"-0.024": 0.0,
			"-0.023": 0.0,
			"-0.022": 0.0,
			"-0.021": 0.0,
			"-0.02": 0.0,
			"-0.019": 0.0,
			"-0.018": 0.0,
			"-0.017": 0.0,
			"-0.016": 0.0,
			"-0.015": 0.0,
			"-0.014": 0.0,
			"-0.013": 0.0,
			"-0.012": 0.0,
			"-0.011": 0.430043164613,
			"-0.01": 2.77180588688,
			"-0.009": 3.78539017867,
			"-0.008": 3.38866754018,
			"-0.007": 8.23232964815,
			"-0.006": 13.268459128,
			"-0.005": 24.8463537248,
			"-0.004": 19.2727372334,
			"-0.003": 16.2512659024,
			"-0.002": 12.6634176928,
			"-0.001": 13.2074268897,
			"0.0": 14.4322201227,
			"0.001": 17.5982588738,
			"0.002": 24.7827882386,
			"0.003": 44.519381042,
			"0.004": 13.3198122628,
			"0.005": 1.91963066372,
			"0.006": 2.88648020286,
			"0.007": 1.40841209631,
			"0.008": 2.41605037078,
			"0.009": 2.42053562233,
			"0.01": 2.14703968033,
			"0.011": 2.63816212037,
			"0.012": 3.57056882265,
			"0.013": 2.70763217552,
			"0.014": 1.01902565905,
			"0.015": 0.566870636563,
			"0.016": 0.886311200489,
			"0.017": 0.461148291167,
			"0.018": 0.504247307474,
			"0.019": 0.139679115886,
			"0.02": 0.0,
			"0.021": 0.0,
			"0.022": 0.0,
			"0.023": 0.0,
			"0.024": 0.0,
			"0.025": 0.0
		}
	}
}
