{
	 "smiles": "COC(=O)C1=C(CC#N)C=CO1", 
	 "Tm": 336.15, 
	 "num_atms": 19, 
	 "gaussian": { 
		 "optdone": 1, 
		 "sigma_profile": "yes", 
		 "theory": "DFT", 
		 "functional": "B3LYP", 
		 "basiset": "6-31G**", 
		 "properties": { 
			 "R2extent": 3019.6638, 
			 "electric_dipole_moment_norm": 1.76406306293, 
			 "electric_quadrupole_moment_norm": 31.3257999484, 
			 "total_energy": -589.452339971, 
			 "HOMO_LUMO_gap": 0.1981, 
			 "cosmo_polarized_energy": -14.03, 
			 "cosmo_cavitation_energy": 25.28, 
			 "cosmo_dispersion_energy": -17.61, 
			 "cosmo_repulsion_energy": 1.41, 
			 "cosmo_total_nonelectrostatic_energy": 9.08, 
			 "SMD_solvation_energy": 8.42 
		},
		"coords": [
			{
				"x": -0.187636609,
				"y": -1.1629531084,
				"z": -4.1049050367,
				"element": "C" 
			},
			{
				"x": 0.3986037227,
				"y": -0.5952160031,
				"z": -2.9206667882,
				"element": "O" 
			},
			{
				"x": 0.2244504542,
				"y": -1.3305706471,
				"z": -1.7894831847,
				"element": "C" 
			},
			{
				"x": -0.372412682,
				"y": -2.3845905832,
				"z": -1.7497996188,
				"element": "O" 
			},
			{
				"x": 0.8569327221,
				"y": -0.666186966,
				"z": -0.6471307944,
				"element": "C" 
			},
			{
				"x": 1.5647939483,
				"y": 0.5061047817,
				"z": -0.4907079271,
				"element": "C" 
			},
			{
				"x": 1.9042680236,
				"y": 1.5088252726,
				"z": -1.568859319,
				"element": "C" 
			},
			{
				"x": 2.672535128,
				"y": 2.6502950117,
				"z": -1.0638051086,
				"element": "C" 
			},
			{
				"x": 3.2804730469,
				"y": 3.5518230275,
				"z": -0.6591806609,
				"element": "N" 
			},
			{
				"x": 1.9084548064,
				"y": 0.5758062429,
				"z": 0.8926775566,
				"element": "C" 
			},
			{
				"x": 1.3893329559,
				"y": -0.5480682401,
				"z": 1.4688248665,
				"element": "C" 
			},
			{
				"x": 0.7513166349,
				"y": -1.3090943338,
				"z": 0.553903151,
				"element": "O" 
			},
			{
				"x": -1.2679455879,
				"y": -1.2726555743,
				"z": -3.9836334876,
				"element": "H" 
			},
			{
				"x": 0.2452130437,
				"y": -2.1438876824,
				"z": -4.3151023944,
				"element": "H" 
			},
			{
				"x": 0.0390687075,
				"y": -0.4632000768,
				"z": -4.909015914,
				"element": "H" 
			},
			{
				"x": 0.9902490025,
				"y": 1.8834655316,
				"z": -2.0432166507,
				"element": "H" 
			},
			{
				"x": 2.4759345788,
				"y": 1.0282017782,
				"z": -2.3707347796,
				"element": "H" 
			},
			{
				"x": 2.4669430345,
				"y": 1.3619256647,
				"z": 1.3798213367,
				"element": "H" 
			},
			{
				"x": 1.393025069,
				"y": -0.9276240958,
				"z": 2.479114754,
				"element": "H" 
			}
		],
		 "valence_orbital": [ 
			{
				"type": "occ",
				"energy": -0.33594,
				"method": "rhf"
			},
			{
				"type": "occ",
				"energy": -0.31395,
				"method": "rhf"
			},
			{
				"type": "occ",
				"energy": -0.29732,
				"method": "rhf"
			},
			{
				"type": "occ",
				"energy": -0.28723,
				"method": "rhf"
			},
			{
				"type": "occ",
				"energy": -0.25212,
				"method": "rhf"
			},
			{
				"type": "unocc",
				"energy": -0.05402,
				"method": "rhf"
			},
			{
				"type": "unocc",
				"energy": 0.0254,
				"method": "rhf"
			},
			{
				"type": "unocc",
				"energy": 0.02747,
				"method": "rhf"
			},
			{
				"type": "unocc",
				"energy": 0.03616,
				"method": "rhf"
			},
			{
				"type": "unocc",
				"energy": 0.08632,
				"method": "rhf"
			}
		],
		"cosmo_sigma_profile": { 
			"-0.025": 0.0,
			"-0.024": 0.0,
			"-0.023": 0.0,
			"-0.022": 0.0,
			"-0.021": 0.0,
			"-0.02": 0.0,
			"-0.019": 0.0,
			"-0.018": 0.0,
			"-0.017": 0.0,
			"-0.016": 0.0,
			"-0.015": 0.0,
			"-0.014": 0.0,
			"-0.013": 0.0,
			"-0.012": 0.0,
			"-0.011": 0.116186123785,
			"-0.01": 2.45063788325,
			"-0.009": 6.34250793891,
			"-0.008": 5.81547428666,
			"-0.007": 7.52403160683,
			"-0.006": 13.5749980717,
			"-0.005": 12.439903943,
			"-0.004": 14.8799894171,
			"-0.003": 19.4173647989,
			"-0.002": 14.2398179816,
			"-0.001": 12.5572032011,
			"0.0": 14.9916568413,
			"0.001": 12.0943568669,
			"0.002": 9.76327884493,
			"0.003": 7.5431748923,
			"0.004": 2.96209065483,
			"0.005": 5.50808622621,
			"0.006": 3.79568501049,
			"0.007": 4.98359371185,
			"0.008": 5.65079892565,
			"0.009": 5.05380161222,
			"0.01": 5.6288107871,
			"0.011": 7.16210093477,
			"0.012": 6.83867568749,
			"0.013": 2.02930990808,
			"0.014": 0.0207488230977,
			"0.015": 0.0,
			"0.016": 0.0,
			"0.017": 0.0,
			"0.018": 0.0,
			"0.019": 0.0,
			"0.02": 0.0,
			"0.021": 0.0,
			"0.022": 0.0,
			"0.023": 0.0,
			"0.024": 0.0,
			"0.025": 0.0
		}
	}
}
