{
	 "smiles": "CC(N1C(S)=NC2=C(C=CC=C2)C1=O)C(O)=O", 
	 "Tm": 512.15, 
	 "num_atms": 27, 
	 "gaussian": { 
		 "optdone": 1, 
		 "sigma_profile": "yes", 
		 "theory": "DFT", 
		 "functional": "B3LYP", 
		 "basiset": "6-31G**", 
		 "properties": { 
			 "R2extent": 4330.665, 
			 "electric_dipole_moment_norm": 2.89648243392, 
			 "electric_quadrupole_moment_norm": 10.5741666263, 
			 "total_energy": -1158.59645944, 
			 "HOMO_LUMO_gap": 0.17995, 
			 "cosmo_polarized_energy": -15.67, 
			 "cosmo_cavitation_energy": 32.75, 
			 "cosmo_dispersion_energy": -23.83, 
			 "cosmo_repulsion_energy": 1.79, 
			 "cosmo_total_nonelectrostatic_energy": 10.71, 
			 "SMD_solvation_energy": 5.55 
		},
		"coords": [
			{
				"x": 1.7646509644,
				"y": 1.3017621962,
				"z": -2.55213138,
				"element": "C" 
			},
			{
				"x": 1.8461823321,
				"y": 0.9425596894,
				"z": -1.0683231758,
				"element": "C" 
			},
			{
				"x": 0.5156037056,
				"y": 0.7814093267,
				"z": -0.4458893289,
				"element": "N" 
			},
			{
				"x": -0.0579877814,
				"y": 1.7363864652,
				"z": 0.3759923871,
				"element": "C" 
			},
			{
				"x": 0.8950602839,
				"y": 3.2216143524,
				"z": 0.6891722258,
				"element": "S" 
			},
			{
				"x": -1.2256500969,
				"y": 1.6448056778,
				"z": 0.9202754272,
				"element": "N" 
			},
			{
				"x": -1.9771706926,
				"y": 0.5093327802,
				"z": 0.6706317964,
				"element": "C" 
			},
			{
				"x": -1.5044511798,
				"y": -0.5298174586,
				"z": -0.1592433865,
				"element": "C" 
			},
			{
				"x": -2.2921370449,
				"y": -1.6682348942,
				"z": -0.3983059604,
				"element": "C" 
			},
			{
				"x": -3.5441529007,
				"y": -1.7737366787,
				"z": 0.1862537918,
				"element": "C" 
			},
			{
				"x": -4.0203009994,
				"y": -0.7404679969,
				"z": 1.0153247086,
				"element": "C" 
			},
			{
				"x": -3.2521997176,
				"y": 0.3877306126,
				"z": 1.2575258754,
				"element": "C" 
			},
			{
				"x": -0.1828329426,
				"y": -0.4098864829,
				"z": -0.7678216936,
				"element": "C" 
			},
			{
				"x": 0.340873099,
				"y": -1.2383813431,
				"z": -1.5040224439,
				"element": "O" 
			},
			{
				"x": 2.7403109342,
				"y": -0.2785737947,
				"z": -0.8234849769,
				"element": "C" 
			},
			{
				"x": 2.5796546463,
				"y": -0.7830177299,
				"z": 0.418214557,
				"element": "O" 
			},
			{
				"x": 3.5800291708,
				"y": -0.6652203934,
				"z": -1.6006784376,
				"element": "O" 
			},
			{
				"x": 2.7738167765,
				"y": 1.4204713181,
				"z": -2.9507245923,
				"element": "H" 
			},
			{
				"x": 1.2674848391,
				"y": 0.505352199,
				"z": -3.1068403646,
				"element": "H" 
			},
			{
				"x": 1.2160292973,
				"y": 2.2383241864,
				"z": -2.680923522,
				"element": "H" 
			},
			{
				"x": 2.3478772732,
				"y": 1.7513925907,
				"z": -0.526932163,
				"element": "H" 
			},
			{
				"x": -0.0677428733,
				"y": 3.7278232505,
				"z": 1.4803778153,
				"element": "H" 
			},
			{
				"x": -1.8935269224,
				"y": -2.4452194197,
				"z": -1.041967418,
				"element": "H" 
			},
			{
				"x": -4.1581229029,
				"y": -2.6507320502,
				"z": 0.0066371478,
				"element": "H" 
			},
			{
				"x": -5.0025374444,
				"y": -0.8280632537,
				"z": 1.471059779,
				"element": "H" 
			},
			{
				"x": -3.604787556,
				"y": 1.1930214824,
				"z": 1.8931554299,
				"element": "H" 
			},
			{
				"x": 3.1979277325,
				"y": -1.5293346316,
				"z": 0.4875679024,
				"element": "H" 
			}
		],
		 "valence_orbital": [ 
			{
				"type": "occ",
				"energy": -0.2834,
				"method": "rhf"
			},
			{
				"type": "occ",
				"energy": -0.27531,
				"method": "rhf"
			},
			{
				"type": "occ",
				"energy": -0.27258,
				"method": "rhf"
			},
			{
				"type": "occ",
				"energy": -0.26503,
				"method": "rhf"
			},
			{
				"type": "occ",
				"energy": -0.22945,
				"method": "rhf"
			},
			{
				"type": "unocc",
				"energy": -0.0495,
				"method": "rhf"
			},
			{
				"type": "unocc",
				"energy": -0.03974,
				"method": "rhf"
			},
			{
				"type": "unocc",
				"energy": -0.01421,
				"method": "rhf"
			},
			{
				"type": "unocc",
				"energy": 0.02013,
				"method": "rhf"
			},
			{
				"type": "unocc",
				"energy": 0.02226,
				"method": "rhf"
			}
		],
		"cosmo_sigma_profile": { 
			"-0.025": 0.0,
			"-0.024": 0.0,
			"-0.023": 0.0,
			"-0.022": 0.0,
			"-0.021": 0.0,
			"-0.02": 0.0,
			"-0.019": 0.482626598067,
			"-0.018": 0.986842768852,
			"-0.017": 0.918087172614,
			"-0.016": 0.744803923141,
			"-0.015": 0.73471175405,
			"-0.014": 0.444401724262,
			"-0.013": 0.457620685948,
			"-0.012": 1.76872172023,
			"-0.011": 2.33373342515,
			"-0.01": 2.87711625597,
			"-0.009": 2.94652662527,
			"-0.008": 2.8518622756,
			"-0.007": 6.51225882674,
			"-0.006": 11.0917453789,
			"-0.005": 15.1846912364,
			"-0.004": 18.7468603094,
			"-0.003": 18.6481346228,
			"-0.002": 17.0080071071,
			"-0.001": 19.8321420717,
			"0.0": 19.0856498038,
			"0.001": 18.3628875261,
			"0.002": 20.5393361241,
			"0.003": 20.3442384219,
			"0.004": 11.289109663,
			"0.005": 8.51841016688,
			"0.006": 7.53758682174,
			"0.007": 5.38043761383,
			"0.008": 5.3823172172,
			"0.009": 4.96361217622,
			"0.01": 5.98473248093,
			"0.011": 8.03893901021,
			"0.012": 3.89258702643,
			"0.013": 0.178921315509,
			"0.014": 0.0,
			"0.015": 0.0,
			"0.016": 0.0,
			"0.017": 0.0,
			"0.018": 0.0,
			"0.019": 0.0,
			"0.02": 0.0,
			"0.021": 0.0,
			"0.022": 0.0,
			"0.023": 0.0,
			"0.024": 0.0,
			"0.025": 0.0
		}
	}
}
