{
	 "smiles": "COC1=C(OC)C=C(NC(N)=S)C=C1", 
	 "Tm": 503.15, 
	 "num_atms": 26, 
	 "gaussian": { 
		 "optdone": 1, 
		 "sigma_profile": "yes", 
		 "theory": "DFT", 
		 "functional": "B3LYP", 
		 "basiset": "6-31G**", 
		 "properties": { 
			 "R2extent": 5886.6445, 
			 "electric_dipole_moment_norm": 6.03458515641, 
			 "electric_quadrupole_moment_norm": 37.0581671715, 
			 "total_energy": -1008.31117244, 
			 "HOMO_LUMO_gap": 0.17575, 
			 "cosmo_polarized_energy": -18.78, 
			 "cosmo_cavitation_energy": 31.48, 
			 "cosmo_dispersion_energy": -23.03, 
			 "cosmo_repulsion_energy": 1.8, 
			 "cosmo_total_nonelectrostatic_energy": 10.25, 
			 "SMD_solvation_energy": 6.0 
		},
		"coords": [
			{
				"x": 0.085859508,
				"y": -1.9860400471,
				"z": -1.3627784936,
				"element": "C" 
			},
			{
				"x": -0.8661257853,
				"y": -1.1555027896,
				"z": -0.6833391143,
				"element": "O" 
			},
			{
				"x": -0.3528264584,
				"y": 0.0187458872,
				"z": -0.1826402914,
				"element": "C" 
			},
			{
				"x": 0.5144365537,
				"y": 0.0329754873,
				"z": 0.9262947782,
				"element": "C" 
			},
			{
				"x": 0.9478496926,
				"y": -1.1300658142,
				"z": 1.5173567503,
				"element": "O" 
			},
			{
				"x": -0.0632654769,
				"y": -1.8736393799,
				"z": 2.2109193686,
				"element": "C" 
			},
			{
				"x": 1.0153742004,
				"y": 1.2435803115,
				"z": 1.4084520537,
				"element": "C" 
			},
			{
				"x": 0.6264824318,
				"y": 2.4577274147,
				"z": 0.8221709895,
				"element": "C" 
			},
			{
				"x": 1.1386554834,
				"y": 3.7038885948,
				"z": 1.2601402248,
				"element": "N" 
			},
			{
				"x": 1.3529576857,
				"y": 4.1734342641,
				"z": 2.5283731146,
				"element": "C" 
			},
			{
				"x": 1.0059233097,
				"y": 3.3556451654,
				"z": 3.5576603205,
				"element": "N" 
			},
			{
				"x": 2.0284527205,
				"y": 5.6930963014,
				"z": 2.776833007,
				"element": "S" 
			},
			{
				"x": -0.2581898324,
				"y": 2.4419802195,
				"z": -0.2653417199,
				"element": "C" 
			},
			{
				"x": -0.7277607474,
				"y": 1.2303236023,
				"z": -0.7656458199,
				"element": "C" 
			},
			{
				"x": 0.496476053,
				"y": -1.4673140844,
				"z": -2.2378237618,
				"element": "H" 
			},
			{
				"x": -0.4619234254,
				"y": -2.8711249907,
				"z": -1.6918345985,
				"element": "H" 
			},
			{
				"x": 0.9032045655,
				"y": -2.2812925084,
				"z": -0.697698666,
				"element": "H" 
			},
			{
				"x": 0.4315555749,
				"y": -2.762105441,
				"z": 2.6073417859,
				"element": "H" 
			},
			{
				"x": -0.8747489738,
				"y": -2.1673972317,
				"z": 1.5389176789,
				"element": "H" 
			},
			{
				"x": -0.471926419,
				"y": -1.2863011563,
				"z": 3.0429854108,
				"element": "H" 
			},
			{
				"x": 1.7331656323,
				"y": 1.2136857784,
				"z": 2.2200545612,
				"element": "H" 
			},
			{
				"x": 1.3228456866,
				"y": 4.401908713,
				"z": 0.5528980489,
				"element": "H" 
			},
			{
				"x": 0.364929457,
				"y": 2.5881384224,
				"z": 3.4106064294,
				"element": "H" 
			},
			{
				"x": 1.0400487959,
				"y": 3.7751777032,
				"z": 4.4734513289,
				"element": "H" 
			},
			{
				"x": -0.5714880513,
				"y": 3.3783743283,
				"z": -0.7171873669,
				"element": "H" 
			},
			{
				"x": -1.4043621808,
				"y": 1.2030012498,
				"z": -1.6137660191,
				"element": "H" 
			}
		],
		 "valence_orbital": [ 
			{
				"type": "occ",
				"energy": -0.27651,
				"method": "rhf"
			},
			{
				"type": "occ",
				"energy": -0.25798,
				"method": "rhf"
			},
			{
				"type": "occ",
				"energy": -0.2394,
				"method": "rhf"
			},
			{
				"type": "occ",
				"energy": -0.20731,
				"method": "rhf"
			},
			{
				"type": "occ",
				"energy": -0.20379,
				"method": "rhf"
			},
			{
				"type": "unocc",
				"energy": -0.02804,
				"method": "rhf"
			},
			{
				"type": "unocc",
				"energy": -0.02027,
				"method": "rhf"
			},
			{
				"type": "unocc",
				"energy": 0.01768,
				"method": "rhf"
			},
			{
				"type": "unocc",
				"energy": 0.06854,
				"method": "rhf"
			},
			{
				"type": "unocc",
				"energy": 0.07662,
				"method": "rhf"
			}
		],
		"cosmo_sigma_profile": { 
			"-0.025": 0.0,
			"-0.024": 0.0,
			"-0.023": 0.0,
			"-0.022": 0.0,
			"-0.021": 0.0,
			"-0.02": 0.0,
			"-0.019": 0.0,
			"-0.018": 0.0,
			"-0.017": 0.0,
			"-0.016": 0.0,
			"-0.015": 0.416835833127,
			"-0.014": 2.02288083684,
			"-0.013": 3.57645486044,
			"-0.012": 3.10584443007,
			"-0.011": 2.38298074241,
			"-0.01": 4.14474889529,
			"-0.009": 2.67520237573,
			"-0.008": 3.14434992373,
			"-0.007": 5.30443105274,
			"-0.006": 9.53100012138,
			"-0.005": 13.8677082282,
			"-0.004": 19.2098288249,
			"-0.003": 23.9935862793,
			"-0.002": 20.9949914122,
			"-0.001": 17.8530531906,
			"0.0": 14.8073506528,
			"0.001": 12.5213566089,
			"0.002": 13.5734941674,
			"0.003": 15.4369125243,
			"0.004": 9.83967214219,
			"0.005": 7.29080366465,
			"0.006": 6.04993087439,
			"0.007": 4.06785272237,
			"0.008": 5.47922414454,
			"0.009": 5.87612384449,
			"0.01": 6.95882093927,
			"0.011": 10.1967393518,
			"0.012": 6.99033723201,
			"0.013": 1.18343014182,
			"0.014": 0.0,
			"0.015": 0.0,
			"0.016": 0.0,
			"0.017": 0.0,
			"0.018": 0.0,
			"0.019": 0.0,
			"0.02": 0.0,
			"0.021": 0.0,
			"0.022": 0.0,
			"0.023": 0.0,
			"0.024": 0.0,
			"0.025": 0.0
		}
	}
}
