{
	 "smiles": "NC(C(O)=O)(C1=CC(=CC=C1)C(F)(F)F)C(F)(F)F", 
	 "Tm": 393.15, 
	 "num_atms": 26, 
	 "gaussian": { 
		 "optdone": 1, 
		 "sigma_profile": "yes", 
		 "theory": "DFT", 
		 "functional": "B3LYP", 
		 "basiset": "6-31G**", 
		 "properties": { 
			 "R2extent": 5338.1511, 
			 "electric_dipole_moment_norm": 1.73220973615, 
			 "electric_quadrupole_moment_norm": 16.7265646117, 
			 "total_energy": -1189.53992742, 
			 "HOMO_LUMO_gap": 0.21115, 
			 "cosmo_polarized_energy": -12.37, 
			 "cosmo_cavitation_energy": 32.88, 
			 "cosmo_dispersion_energy": -22.22, 
			 "cosmo_repulsion_energy": 1.61, 
			 "cosmo_total_nonelectrostatic_energy": 12.27, 
			 "SMD_solvation_energy": 8.25 
		},
		"coords": [
			{
				"x": -0.8894165774,
				"y": 1.7832586596,
				"z": 2.1849005798,
				"element": "N" 
			},
			{
				"x": 0.2504131041,
				"y": 0.9971687257,
				"z": 1.7309630512,
				"element": "C" 
			},
			{
				"x": 1.3723654691,
				"y": 1.9978043851,
				"z": 1.3693976015,
				"element": "C" 
			},
			{
				"x": 2.582004726,
				"y": 1.4276218477,
				"z": 1.2894002321,
				"element": "O" 
			},
			{
				"x": 1.1643552755,
				"y": 3.1670477238,
				"z": 1.1314132116,
				"element": "O" 
			},
			{
				"x": -0.0578126902,
				"y": 0.1524125957,
				"z": 0.4741769741,
				"element": "C" 
			},
			{
				"x": -0.3222314973,
				"y": 0.844774592,
				"z": -0.7167671464,
				"element": "C" 
			},
			{
				"x": -0.6685054362,
				"y": 0.1574371088,
				"z": -1.8782093522,
				"element": "C" 
			},
			{
				"x": -0.7698911516,
				"y": -1.2365674957,
				"z": -1.8713976822,
				"element": "C" 
			},
			{
				"x": -0.519815936,
				"y": -1.9275741421,
				"z": -0.690064686,
				"element": "C" 
			},
			{
				"x": -0.1660587517,
				"y": -1.2441371132,
				"z": 0.475961737,
				"element": "C" 
			},
			{
				"x": -0.9945043512,
				"y": 0.9246148677,
				"z": -3.1325404339,
				"element": "C" 
			},
			{
				"x": -2.3195879643,
				"y": 1.1848350062,
				"z": -3.2235403704,
				"element": "F" 
			},
			{
				"x": -0.3558101965,
				"y": 2.1137629154,
				"z": -3.1782425517,
				"element": "F" 
			},
			{
				"x": -0.6537839587,
				"y": 0.2344208244,
				"z": -4.2429306035,
				"element": "F" 
			},
			{
				"x": 0.699372377,
				"y": 0.1494951583,
				"z": 2.9480575002,
				"element": "C" 
			},
			{
				"x": 1.138631581,
				"y": 0.9452468212,
				"z": 3.937004374,
				"element": "F" 
			},
			{
				"x": -0.3420168158,
				"y": -0.5688733421,
				"z": 3.4227532353,
				"element": "F" 
			},
			{
				"x": 1.6851841883,
				"y": -0.7250563996,
				"z": 2.6608103767,
				"element": "F" 
			},
			{
				"x": -0.8610180195,
				"y": 2.7049104079,
				"z": 1.7598580649,
				"element": "H" 
			},
			{
				"x": -1.7621750586,
				"y": 1.322115325,
				"z": 1.9571072279,
				"element": "H" 
			},
			{
				"x": 3.2052181036,
				"y": 2.1292631619,
				"z": 1.0338138586,
				"element": "H" 
			},
			{
				"x": -0.2484447791,
				"y": 1.9269641989,
				"z": -0.744599692,
				"element": "H" 
			},
			{
				"x": -1.0335915275,
				"y": -1.7665998214,
				"z": -2.7800554878,
				"element": "H" 
			},
			{
				"x": -0.5959112821,
				"y": -3.0103343942,
				"z": -0.6704819359,
				"element": "H" 
			},
			{
				"x": 0.024131169,
				"y": -1.812011617,
				"z": 1.376611917,
				"element": "H" 
			}
		],
		 "valence_orbital": [ 
			{
				"type": "occ",
				"energy": -0.34611,
				"method": "rhf"
			},
			{
				"type": "occ",
				"energy": -0.3118,
				"method": "rhf"
			},
			{
				"type": "occ",
				"energy": -0.28431,
				"method": "rhf"
			},
			{
				"type": "occ",
				"energy": -0.27929,
				"method": "rhf"
			},
			{
				"type": "occ",
				"energy": -0.25416,
				"method": "rhf"
			},
			{
				"type": "unocc",
				"energy": -0.04301,
				"method": "rhf"
			},
			{
				"type": "unocc",
				"energy": -0.03392,
				"method": "rhf"
			},
			{
				"type": "unocc",
				"energy": -0.01278,
				"method": "rhf"
			},
			{
				"type": "unocc",
				"energy": 0.05688,
				"method": "rhf"
			},
			{
				"type": "unocc",
				"energy": 0.08617,
				"method": "rhf"
			}
		],
		"cosmo_sigma_profile": { 
			"-0.025": 0.0,
			"-0.024": 0.0,
			"-0.023": 0.0,
			"-0.022": 0.0,
			"-0.021": 0.0,
			"-0.02": 0.239883583744,
			"-0.019": 1.1349324786,
			"-0.018": 0.816390499122,
			"-0.017": 1.28973698824,
			"-0.016": 0.46477817204,
			"-0.015": 0.979248392019,
			"-0.014": 0.529433815217,
			"-0.013": 0.759520841766,
			"-0.012": 1.4912426648,
			"-0.011": 1.23739613965,
			"-0.01": 2.21914415195,
			"-0.009": 3.52595548248,
			"-0.008": 3.27689837241,
			"-0.007": 9.0085388142,
			"-0.006": 9.75124036066,
			"-0.005": 10.3503782137,
			"-0.004": 9.54296801319,
			"-0.003": 10.3116465231,
			"-0.002": 11.9024200933,
			"-0.001": 14.5688417263,
			"0.0": 17.1350164158,
			"0.001": 24.5949120815,
			"0.002": 48.9120791993,
			"0.003": 45.2817098918,
			"0.004": 6.57320652254,
			"0.005": 5.87208737711,
			"0.006": 3.65542687674,
			"0.007": 3.75465032208,
			"0.008": 3.19915637088,
			"0.009": 3.05161690389,
			"0.01": 3.7659338521,
			"0.011": 1.55543591373,
			"0.012": 0.780663210351,
			"0.013": 0.413098366675,
			"0.014": 0.47713098033,
			"0.015": 0.164813402642,
			"0.016": 0.0,
			"0.017": 0.0,
			"0.018": 0.0,
			"0.019": 0.0,
			"0.02": 0.0,
			"0.021": 0.0,
			"0.022": 0.0,
			"0.023": 0.0,
			"0.024": 0.0,
			"0.025": 0.0
		}
	}
}
