{
	 "smiles": "OC(=O)C1(CCCC1)C(F)(F)F", 
	 "Tm": 310.15, 
	 "num_atms": 21, 
	 "gaussian": { 
		 "optdone": 1, 
		 "sigma_profile": "yes", 
		 "theory": "DFT", 
		 "functional": "B3LYP", 
		 "basiset": "6-31G**", 
		 "properties": { 
			 "R2extent": 2422.5044, 
			 "electric_dipole_moment_norm": 3.30756418078, 
			 "electric_quadrupole_moment_norm": 17.1153267448, 
			 "total_energy": -722.162454099, 
			 "HOMO_LUMO_gap": 0.2782, 
			 "cosmo_polarized_energy": -8.82, 
			 "cosmo_cavitation_energy": 23.94, 
			 "cosmo_dispersion_energy": -17.32, 
			 "cosmo_repulsion_energy": 1.32, 
			 "cosmo_total_nonelectrostatic_energy": 7.94, 
			 "SMD_solvation_energy": 5.67 
		},
		"coords": [
			{
				"x": -0.9484085874,
				"y": -0.2786699998,
				"z": 2.8701724006,
				"element": "O" 
			},
			{
				"x": -0.3069524122,
				"y": 0.8567499526,
				"z": 2.5187736726,
				"element": "C" 
			},
			{
				"x": 0.162166604,
				"y": 1.5742186256,
				"z": 3.3664900498,
				"element": "O" 
			},
			{
				"x": -0.3055358635,
				"y": 1.2191420003,
				"z": 1.0092827886,
				"element": "C" 
			},
			{
				"x": -1.7253059221,
				"y": 1.7711808196,
				"z": 0.6160178299,
				"element": "C" 
			},
			{
				"x": -1.5426286286,
				"y": 3.2951564542,
				"z": 0.5435890585,
				"element": "C" 
			},
			{
				"x": -0.1317761279,
				"y": 3.4509378429,
				"z": -0.0398117072,
				"element": "C" 
			},
			{
				"x": 0.6863468978,
				"y": 2.3873756901,
				"z": 0.7144580124,
				"element": "C" 
			},
			{
				"x": 0.0468117057,
				"y": 0.0100692898,
				"z": 0.15132273,
				"element": "C" 
			},
			{
				"x": 1.215322578,
				"y": -0.5500952058,
				"z": 0.5127987923,
				"element": "F" 
			},
			{
				"x": -0.9062346295,
				"y": -0.9788704438,
				"z": 0.2410192867,
				"element": "F" 
			},
			{
				"x": 0.1276079836,
				"y": 0.3272001322,
				"z": -1.1540562548,
				"element": "F" 
			},
			{
				"x": -1.2415394738,
				"y": -0.7696627414,
				"z": 2.0868329264,
				"element": "H" 
			},
			{
				"x": -2.0016830058,
				"y": 1.3828466573,
				"z": -0.3693110753,
				"element": "H" 
			},
			{
				"x": -2.5000962828,
				"y": 1.4547569623,
				"z": 1.3194787282,
				"element": "H" 
			},
			{
				"x": -2.3215322254,
				"y": 3.7771281782,
				"z": -0.0547752336,
				"element": "H" 
			},
			{
				"x": -1.5813544885,
				"y": 3.7253803172,
				"z": 1.5511405805,
				"element": "H" 
			},
			{
				"x": 0.279917007,
				"y": 4.4564720238,
				"z": 0.0862860362,
				"element": "H" 
			},
			{
				"x": -0.1464387729,
				"y": 3.2306299912,
				"z": -1.1139724249,
				"element": "H" 
			},
			{
				"x": 1.56612519,
				"y": 2.0488251277,
				"z": 0.1621050967,
				"element": "H" 
			},
			{
				"x": 1.0268884541,
				"y": 2.7739283259,
				"z": 1.6767587065,
				"element": "H" 
			}
		],
		 "valence_orbital": [ 
			{
				"type": "occ",
				"energy": -0.35389,
				"method": "rhf"
			},
			{
				"type": "occ",
				"energy": -0.35159,
				"method": "rhf"
			},
			{
				"type": "occ",
				"energy": -0.33836,
				"method": "rhf"
			},
			{
				"type": "occ",
				"energy": -0.32286,
				"method": "rhf"
			},
			{
				"type": "occ",
				"energy": -0.28076,
				"method": "rhf"
			},
			{
				"type": "unocc",
				"energy": -0.00256,
				"method": "rhf"
			},
			{
				"type": "unocc",
				"energy": 0.07615,
				"method": "rhf"
			},
			{
				"type": "unocc",
				"energy": 0.08527,
				"method": "rhf"
			},
			{
				"type": "unocc",
				"energy": 0.08936,
				"method": "rhf"
			},
			{
				"type": "unocc",
				"energy": 0.1186,
				"method": "rhf"
			}
		],
		"cosmo_sigma_profile": { 
			"-0.025": 0.0,
			"-0.024": 0.0,
			"-0.023": 0.0,
			"-0.022": 0.0,
			"-0.021": 0.0,
			"-0.02": 0.0,
			"-0.019": 0.0,
			"-0.018": 0.0,
			"-0.017": 0.0,
			"-0.016": 0.0,
			"-0.015": 0.0688618838777,
			"-0.014": 0.780693616831,
			"-0.013": 0.758266225584,
			"-0.012": 0.794032376726,
			"-0.011": 1.18956834701,
			"-0.01": 1.13754689024,
			"-0.009": 0.742156755671,
			"-0.008": 1.4604075495,
			"-0.007": 1.4767614081,
			"-0.006": 3.79770247614,
			"-0.005": 6.08458922136,
			"-0.004": 11.2885091463,
			"-0.003": 20.5108063888,
			"-0.002": 25.5521517536,
			"-0.001": 23.3003662171,
			"0.0": 18.8667318397,
			"0.001": 15.361480327,
			"0.002": 21.8681516937,
			"0.003": 4.41094381529,
			"0.004": 2.31712772511,
			"0.005": 2.57065907368,
			"0.006": 1.76282167641,
			"0.007": 2.25233171019,
			"0.008": 3.2082933935,
			"0.009": 4.24577835013,
			"0.01": 5.10901013556,
			"0.011": 4.87044571462,
			"0.012": 2.12708465722,
			"0.013": 0.216453593121,
			"0.014": 0.0,
			"0.015": 0.0,
			"0.016": 0.0,
			"0.017": 0.0,
			"0.018": 0.0,
			"0.019": 0.0,
			"0.02": 0.0,
			"0.021": 0.0,
			"0.022": 0.0,
			"0.023": 0.0,
			"0.024": 0.0,
			"0.025": 0.0
		}
	}
}
