{
	 "smiles": "CCN1C(N)=NC2=C1C=CC(=C2)C#N", 
	 "Tm": 463.15, 
	 "num_atms": 24, 
	 "gaussian": { 
		 "optdone": 1, 
		 "sigma_profile": "yes", 
		 "theory": "DFT", 
		 "functional": "B3LYP", 
		 "basiset": "6-31G**", 
		 "properties": { 
			 "R2extent": 4474.0389, 
			 "electric_dipole_moment_norm": 9.36377615548, 
			 "electric_quadrupole_moment_norm": 32.8845924554, 
			 "total_energy": -606.106728352, 
			 "HOMO_LUMO_gap": 0.1909, 
			 "cosmo_polarized_energy": -20.05, 
			 "cosmo_cavitation_energy": 29.15, 
			 "cosmo_dispersion_energy": -20.46, 
			 "cosmo_repulsion_energy": 1.6, 
			 "cosmo_total_nonelectrostatic_energy": 10.29, 
			 "SMD_solvation_energy": 4.18 
		},
		"coords": [
			{
				"x": -2.0901184242,
				"y": 0.6810127915,
				"z": -0.5416361514,
				"element": "C" 
			},
			{
				"x": -1.6724359032,
				"y": 0.6057926687,
				"z": 0.9305095431,
				"element": "C" 
			},
			{
				"x": -0.2616095979,
				"y": 0.2905063754,
				"z": 1.1182043761,
				"element": "N" 
			},
			{
				"x": 0.2949129846,
				"y": -0.9614353833,
				"z": 1.3317177071,
				"element": "C" 
			},
			{
				"x": -0.5005508988,
				"y": -2.0892216869,
				"z": 1.398005723,
				"element": "N" 
			},
			{
				"x": 1.5912082434,
				"y": -0.9473699768,
				"z": 1.5351941463,
				"element": "N" 
			},
			{
				"x": 1.9384851232,
				"y": 0.3928456078,
				"z": 1.4587461081,
				"element": "C" 
			},
			{
				"x": 0.7958239654,
				"y": 1.1881518984,
				"z": 1.1836030559,
				"element": "C" 
			},
			{
				"x": 0.8587586856,
				"y": 2.5733282419,
				"z": 1.0419476707,
				"element": "C" 
			},
			{
				"x": 2.107866105,
				"y": 3.170761043,
				"z": 1.1865769009,
				"element": "C" 
			},
			{
				"x": 3.2588460507,
				"y": 2.3948564761,
				"z": 1.4601390174,
				"element": "C" 
			},
			{
				"x": 3.1848343317,
				"y": 0.9985864559,
				"z": 1.5991898412,
				"element": "C" 
			},
			{
				"x": 4.5248311742,
				"y": 3.053661346,
				"z": 1.5962584788,
				"element": "C" 
			},
			{
				"x": 5.5501201937,
				"y": 3.5938169288,
				"z": 1.7053415752,
				"element": "N" 
			},
			{
				"x": -3.1521112062,
				"y": 0.9334894406,
				"z": -0.6208216995,
				"element": "H" 
			},
			{
				"x": -1.9293509354,
				"y": -0.2741534062,
				"z": -1.0523613881,
				"element": "H" 
			},
			{
				"x": -1.5147840484,
				"y": 1.4441099521,
				"z": -1.0733596473,
				"element": "H" 
			},
			{
				"x": -1.8670220528,
				"y": 1.5594454896,
				"z": 1.4316706394,
				"element": "H" 
			},
			{
				"x": -2.2508918233,
				"y": -0.1545276917,
				"z": 1.4646109584,
				"element": "H" 
			},
			{
				"x": 0.065224881,
				"y": -2.9222087619,
				"z": 1.5024519273,
				"element": "H" 
			},
			{
				"x": -1.1872426071,
				"y": -2.1879948686,
				"z": 0.6608393644,
				"element": "H" 
			},
			{
				"x": -0.0201199298,
				"y": 3.1734820606,
				"z": 0.8284013021,
				"element": "H" 
			},
			{
				"x": 2.2098759153,
				"y": 4.2457297594,
				"z": 1.087839397,
				"element": "H" 
			},
			{
				"x": 4.0698497736,
				"y": 0.4094352396,
				"z": 1.8105311541,
				"element": "H" 
			}
		],
		 "valence_orbital": [ 
			{
				"type": "occ",
				"energy": -0.30519,
				"method": "rhf"
			},
			{
				"type": "occ",
				"energy": -0.29927,
				"method": "rhf"
			},
			{
				"type": "occ",
				"energy": -0.28231,
				"method": "rhf"
			},
			{
				"type": "occ",
				"energy": -0.23414,
				"method": "rhf"
			},
			{
				"type": "occ",
				"energy": -0.21933,
				"method": "rhf"
			},
			{
				"type": "unocc",
				"energy": -0.02843,
				"method": "rhf"
			},
			{
				"type": "unocc",
				"energy": -0.01345,
				"method": "rhf"
			},
			{
				"type": "unocc",
				"energy": 0.03393,
				"method": "rhf"
			},
			{
				"type": "unocc",
				"energy": 0.0531,
				"method": "rhf"
			},
			{
				"type": "unocc",
				"energy": 0.06096,
				"method": "rhf"
			}
		],
		"cosmo_sigma_profile": { 
			"-0.025": 0.0,
			"-0.024": 0.0,
			"-0.023": 0.0,
			"-0.022": 0.0,
			"-0.021": 0.0,
			"-0.02": 0.0,
			"-0.019": 0.0,
			"-0.018": 0.0,
			"-0.017": 0.0,
			"-0.016": 0.0,
			"-0.015": 0.0,
			"-0.014": 0.681030111811,
			"-0.013": 2.32157719347,
			"-0.012": 2.8977729279,
			"-0.011": 3.88116872837,
			"-0.01": 2.78709827474,
			"-0.009": 2.66091927709,
			"-0.008": 2.95462213107,
			"-0.007": 10.4067754205,
			"-0.006": 11.9228572683,
			"-0.005": 13.4940851804,
			"-0.004": 15.8839577845,
			"-0.003": 16.2915193014,
			"-0.002": 14.5371286449,
			"-0.001": 16.6381588389,
			"0.0": 19.3794107213,
			"0.001": 11.9481763029,
			"0.002": 12.8713893706,
			"0.003": 15.837221096,
			"0.004": 9.4096201284,
			"0.005": 4.56560983606,
			"0.006": 5.80550529697,
			"0.007": 4.26387142316,
			"0.008": 4.56233658943,
			"0.009": 5.63239739405,
			"0.01": 5.22013687151,
			"0.011": 4.71270670317,
			"0.012": 4.04325423624,
			"0.013": 3.14068438178,
			"0.014": 1.69096313806,
			"0.015": 1.12987353989,
			"0.016": 0.857294928563,
			"0.017": 0.67271923789,
			"0.018": 0.0511798066114,
			"0.019": 0.0,
			"0.02": 0.0,
			"0.021": 0.0,
			"0.022": 0.0,
			"0.023": 0.0,
			"0.024": 0.0,
			"0.025": 0.0
		}
	}
}
