{
	 "smiles": "ClC1=C(NC(=O)CN2CCNCC2)C=CC=C1", 
	 "Tm": 373.15, 
	 "num_atms": 33, 
	 "gaussian": { 
		 "optdone": 1, 
		 "sigma_profile": "yes", 
		 "theory": "DFT", 
		 "functional": "B3LYP", 
		 "basiset": "6-31G**", 
		 "properties": { 
			 "R2extent": 6612.5426, 
			 "electric_dipole_moment_norm": 4.02156595868, 
			 "electric_quadrupole_moment_norm": 11.6080409338, 
			 "total_energy": -1166.56829103, 
			 "HOMO_LUMO_gap": 0.16188, 
			 "cosmo_polarized_energy": -16.04, 
			 "cosmo_cavitation_energy": 36.43, 
			 "cosmo_dispersion_energy": -26.21, 
			 "cosmo_repulsion_energy": 2.04, 
			 "cosmo_total_nonelectrostatic_energy": 12.26, 
			 "SMD_solvation_energy": 1.11 
		},
		"coords": [
			{
				"x": 2.7678235412,
				"y": 4.2365920797,
				"z": 0.7341019975,
				"element": "Cl" 
			},
			{
				"x": 2.6826112438,
				"y": 2.5463261607,
				"z": 1.2158771446,
				"element": "C" 
			},
			{
				"x": 1.9417679434,
				"y": 1.6340585239,
				"z": 0.4358700908,
				"element": "C" 
			},
			{
				"x": 1.3013792268,
				"y": 2.0733430392,
				"z": -0.7333770899,
				"element": "N" 
			},
			{
				"x": 0.0584602049,
				"y": 1.7794747675,
				"z": -1.2885110013,
				"element": "C" 
			},
			{
				"x": -0.2920621036,
				"y": 2.3808364481,
				"z": -2.2898105922,
				"element": "O" 
			},
			{
				"x": -0.809087827,
				"y": 0.706700345,
				"z": -0.6195413967,
				"element": "C" 
			},
			{
				"x": -2.2143265021,
				"y": 0.8973642252,
				"z": -0.9096340454,
				"element": "N" 
			},
			{
				"x": -3.1188374813,
				"y": 0.3563273974,
				"z": 0.1012434804,
				"element": "C" 
			},
			{
				"x": -3.2264199116,
				"y": -1.1920608006,
				"z": 0.0651079377,
				"element": "C" 
			},
			{
				"x": -3.1011746369,
				"y": -1.7326908634,
				"z": -1.2997251248,
				"element": "N" 
			},
			{
				"x": -3.5073063585,
				"y": -0.7475332993,
				"z": -2.3046790751,
				"element": "C" 
			},
			{
				"x": -2.6447591689,
				"y": 0.5396664951,
				"z": -2.2780392374,
				"element": "C" 
			},
			{
				"x": 1.937628288,
				"y": 0.290621445,
				"z": 0.8470213818,
				"element": "C" 
			},
			{
				"x": 2.5957594838,
				"y": -0.1112630642,
				"z": 2.0070599752,
				"element": "C" 
			},
			{
				"x": 3.309327202,
				"y": 0.8121752996,
				"z": 2.7704872083,
				"element": "C" 
			},
			{
				"x": 3.361168354,
				"y": 2.1447270849,
				"z": 2.3632229543,
				"element": "C" 
			},
			{
				"x": 1.7071141276,
				"y": 2.8873530288,
				"z": -1.1818750487,
				"element": "H" 
			},
			{
				"x": -0.4091115107,
				"y": -0.2786463534,
				"z": -0.9378201699,
				"element": "H" 
			},
			{
				"x": -0.6640987428,
				"y": 0.755779778,
				"z": 0.4642919459,
				"element": "H" 
			},
			{
				"x": -4.10789793,
				"y": 0.7969696578,
				"z": -0.0765466688,
				"element": "H" 
			},
			{
				"x": -2.8063565742,
				"y": 0.7008881738,
				"z": 1.0935176001,
				"element": "H" 
			},
			{
				"x": -4.1913109601,
				"y": -1.4978257288,
				"z": 0.4965585851,
				"element": "H" 
			},
			{
				"x": -2.449518933,
				"y": -1.6492541935,
				"z": 0.6882797743,
				"element": "H" 
			},
			{
				"x": -2.1357943951,
				"y": -1.9995779565,
				"z": -1.4720949228,
				"element": "H" 
			},
			{
				"x": -3.4633068566,
				"y": -1.2056161253,
				"z": -3.2988877768,
				"element": "H" 
			},
			{
				"x": -4.5631659806,
				"y": -0.5083100129,
				"z": -2.125467359,
				"element": "H" 
			},
			{
				"x": -1.7517415765,
				"y": 0.4035531174,
				"z": -2.8933116693,
				"element": "H" 
			},
			{
				"x": -3.1951611848,
				"y": 1.3779460615,
				"z": -2.7275308743,
				"element": "H" 
			},
			{
				"x": 1.4330846483,
				"y": -0.4458063739,
				"z": 0.2334292346,
				"element": "H" 
			},
			{
				"x": 2.5665713174,
				"y": -1.1564245353,
				"z": 2.2992621388,
				"element": "H" 
			},
			{
				"x": 3.831151382,
				"y": 0.5021123905,
				"z": 3.6699684695,
				"element": "H" 
			},
			{
				"x": 3.9175916709,
				"y": 2.8808937877,
				"z": 2.9327521334,
				"element": "H" 
			}
		],
		 "valence_orbital": [ 
			{
				"type": "occ",
				"energy": -0.26377,
				"method": "rhf"
			},
			{
				"type": "occ",
				"energy": -0.26052,
				"method": "rhf"
			},
			{
				"type": "occ",
				"energy": -0.23845,
				"method": "rhf"
			},
			{
				"type": "occ",
				"energy": -0.23362,
				"method": "rhf"
			},
			{
				"type": "occ",
				"energy": -0.18991,
				"method": "rhf"
			},
			{
				"type": "unocc",
				"energy": -0.02803,
				"method": "rhf"
			},
			{
				"type": "unocc",
				"energy": -0.02547,
				"method": "rhf"
			},
			{
				"type": "unocc",
				"energy": 0.01675,
				"method": "rhf"
			},
			{
				"type": "unocc",
				"energy": 0.02454,
				"method": "rhf"
			},
			{
				"type": "unocc",
				"energy": 0.06067,
				"method": "rhf"
			}
		],
		"cosmo_sigma_profile": { 
			"-0.025": 0.0,
			"-0.024": 0.0,
			"-0.023": 0.0,
			"-0.022": 0.0,
			"-0.021": 0.0,
			"-0.02": 0.0,
			"-0.019": 0.0,
			"-0.018": 0.0,
			"-0.017": 0.0,
			"-0.016": 0.0,
			"-0.015": 0.0,
			"-0.014": 0.0,
			"-0.013": 0.0,
			"-0.012": 0.347879248707,
			"-0.011": 0.547997970641,
			"-0.01": 0.587438563322,
			"-0.009": 1.94708263477,
			"-0.008": 4.76550486685,
			"-0.007": 9.51211992114,
			"-0.006": 17.2960419482,
			"-0.005": 17.1499440514,
			"-0.004": 21.2383606756,
			"-0.003": 26.7411750447,
			"-0.002": 28.963093903,
			"-0.001": 25.8799544731,
			"0.0": 21.0960623987,
			"0.001": 19.4020717234,
			"0.002": 20.294794516,
			"0.003": 17.8830302584,
			"0.004": 17.261155029,
			"0.005": 5.26358544095,
			"0.006": 2.73419053942,
			"0.007": 2.44032557613,
			"0.008": 2.36064439774,
			"0.009": 2.8171808342,
			"0.01": 2.53451416642,
			"0.011": 2.74755933478,
			"0.012": 3.94643760459,
			"0.013": 6.92819357589,
			"0.014": 2.24178629176,
			"0.015": 1.49432005233,
			"0.016": 0.956442949673,
			"0.017": 0.593791077837,
			"0.018": 0.511121212977,
			"0.019": 0.29692344248,
			"0.02": 0.0,
			"0.021": 0.0,
			"0.022": 0.0,
			"0.023": 0.0,
			"0.024": 0.0,
			"0.025": 0.0
		}
	}
}
