{
	 "smiles": "CC1CCC(C2C1C(=O)N(C2=O)C1=CC=CC=C1)C(O)=O", 
	 "Tm": 456.15, 
	 "num_atms": 38, 
	 "gaussian": { 
		 "optdone": 1, 
		 "sigma_profile": "yes", 
		 "theory": "DFT", 
		 "functional": "B3LYP", 
		 "basiset": "6-31G**", 
		 "properties": { 
			 "R2extent": 6316.1, 
			 "electric_dipole_moment_norm": 5.08208474939, 
			 "electric_quadrupole_moment_norm": 26.8606798512, 
			 "total_energy": -975.6474423, 
			 "HOMO_LUMO_gap": 0.20196, 
			 "cosmo_polarized_energy": -19.95, 
			 "cosmo_cavitation_energy": 38.94, 
			 "cosmo_dispersion_energy": -27.48, 
			 "cosmo_repulsion_energy": 2.07, 
			 "cosmo_total_nonelectrostatic_energy": 13.52, 
			 "SMD_solvation_energy": 8.15 
		},
		"coords": [
			{
				"x": -2.5308784557,
				"y": 3.2942060894,
				"z": -0.642095442,
				"element": "C" 
			},
			{
				"x": -1.3481049084,
				"y": 2.4973718789,
				"z": -0.0676566049,
				"element": "C" 
			},
			{
				"x": -1.7499328137,
				"y": 1.5240212641,
				"z": 1.0595030827,
				"element": "C" 
			},
			{
				"x": -2.606718829,
				"y": 0.3187339162,
				"z": 0.5913522058,
				"element": "C" 
			},
			{
				"x": -2.4012723574,
				"y": -0.017934705,
				"z": -0.9074766022,
				"element": "C" 
			},
			{
				"x": -0.9481227644,
				"y": 0.2511607213,
				"z": -1.3568576492,
				"element": "C" 
			},
			{
				"x": -0.5342393608,
				"y": 1.7330717989,
				"z": -1.16642797,
				"element": "C" 
			},
			{
				"x": 0.9302995906,
				"y": 1.6599246591,
				"z": -0.7510066095,
				"element": "C" 
			},
			{
				"x": 1.7112961189,
				"y": 2.5787910624,
				"z": -0.6660686219,
				"element": "O" 
			},
			{
				"x": 1.23264416,
				"y": 0.3146343039,
				"z": -0.4191541385,
				"element": "N" 
			},
			{
				"x": 0.1518980745,
				"y": -0.526085934,
				"z": -0.6390204205,
				"element": "C" 
			},
			{
				"x": 0.1245326974,
				"y": -1.7111141381,
				"z": -0.3266174542,
				"element": "O" 
			},
			{
				"x": 2.4954024635,
				"y": -0.1075330243,
				"z": 0.1188943462,
				"element": "C" 
			},
			{
				"x": 2.5342829625,
				"y": -0.9512362773,
				"z": 1.2330216069,
				"element": "C" 
			},
			{
				"x": 3.7683650516,
				"y": -1.3534908366,
				"z": 1.7425183392,
				"element": "C" 
			},
			{
				"x": 4.9540663261,
				"y": -0.9104495542,
				"z": 1.1544055209,
				"element": "C" 
			},
			{
				"x": 4.9042006716,
				"y": -0.0628611119,
				"z": 0.0465115337,
				"element": "C" 
			},
			{
				"x": 3.6772970871,
				"y": 0.339332151,
				"z": -0.4794400701,
				"element": "C" 
			},
			{
				"x": -3.0332717828,
				"y": -1.3798620984,
				"z": -1.2533840734,
				"element": "C" 
			},
			{
				"x": -2.312299065,
				"y": -2.4918906045,
				"z": -1.0707941697,
				"element": "O" 
			},
			{
				"x": -4.1804502938,
				"y": -1.429627154,
				"z": -1.6407463042,
				"element": "O" 
			},
			{
				"x": -3.0130384204,
				"y": 3.8713458734,
				"z": 0.1539078993,
				"element": "H" 
			},
			{
				"x": -2.1869641816,
				"y": 4.0028879624,
				"z": -1.402808333,
				"element": "H" 
			},
			{
				"x": -3.2983487553,
				"y": 2.6634839795,
				"z": -1.0986592048,
				"element": "H" 
			},
			{
				"x": -0.6577547376,
				"y": 3.2350364246,
				"z": 0.3581061032,
				"element": "H" 
			},
			{
				"x": -2.2838898673,
				"y": 2.0751254402,
				"z": 1.8409956086,
				"element": "H" 
			},
			{
				"x": -0.8334615798,
				"y": 1.1544735723,
				"z": 1.5363983375,
				"element": "H" 
			},
			{
				"x": -2.3611707559,
				"y": -0.556909629,
				"z": 1.2024818428,
				"element": "H" 
			},
			{
				"x": -3.6724566891,
				"y": 0.5101102412,
				"z": 0.7449464239,
				"element": "H" 
			},
			{
				"x": -3.0109826975,
				"y": 0.672651697,
				"z": -1.4929048951,
				"element": "H" 
			},
			{
				"x": -0.8479586946,
				"y": -0.0232445782,
				"z": -2.4158908833,
				"element": "H" 
			},
			{
				"x": -0.5835119696,
				"y": 2.2971690168,
				"z": -2.1023500205,
				"element": "H" 
			},
			{
				"x": 1.61344503,
				"y": -1.2981727833,
				"z": 1.6847439336,
				"element": "H" 
			},
			{
				"x": 3.7991813301,
				"y": -2.013311504,
				"z": 2.604168441,
				"element": "H" 
			},
			{
				"x": 5.9122301404,
				"y": -1.2240729637,
				"z": 1.5575851024,
				"element": "H" 
			},
			{
				"x": 5.8222686429,
				"y": 0.2870881235,
				"z": -0.4154579916,
				"element": "H" 
			},
			{
				"x": 3.6350625826,
				"y": 1.0016974478,
				"z": -1.3350373106,
				"element": "H" 
			},
			{
				"x": -1.3969439502,
				"y": -2.2975207278,
				"z": -0.7536855584,
				"element": "H" 
			}
		],
		 "valence_orbital": [ 
			{
				"type": "occ",
				"energy": -0.29276,
				"method": "rhf"
			},
			{
				"type": "occ",
				"energy": -0.28578,
				"method": "rhf"
			},
			{
				"type": "occ",
				"energy": -0.26587,
				"method": "rhf"
			},
			{
				"type": "occ",
				"energy": -0.25823,
				"method": "rhf"
			},
			{
				"type": "occ",
				"energy": -0.2511,
				"method": "rhf"
			},
			{
				"type": "unocc",
				"energy": -0.04914,
				"method": "rhf"
			},
			{
				"type": "unocc",
				"energy": -0.03334,
				"method": "rhf"
			},
			{
				"type": "unocc",
				"energy": -0.01657,
				"method": "rhf"
			},
			{
				"type": "unocc",
				"energy": 0.01018,
				"method": "rhf"
			},
			{
				"type": "unocc",
				"energy": 0.02044,
				"method": "rhf"
			}
		],
		"cosmo_sigma_profile": { 
			"-0.025": 0.0,
			"-0.024": 0.0,
			"-0.023": 0.0,
			"-0.022": 0.0,
			"-0.021": 0.0,
			"-0.02": 0.0,
			"-0.019": 0.0,
			"-0.018": 0.0,
			"-0.017": 0.0,
			"-0.016": 0.0,
			"-0.015": 0.0,
			"-0.014": 0.0,
			"-0.013": 0.0,
			"-0.012": 0.0,
			"-0.011": 0.0,
			"-0.01": 0.943130836679,
			"-0.009": 5.59206366439,
			"-0.008": 5.33227469969,
			"-0.007": 9.44450494801,
			"-0.006": 21.39674316,
			"-0.005": 22.6570559328,
			"-0.004": 28.4179047571,
			"-0.003": 30.9970685976,
			"-0.002": 28.1686095788,
			"-0.001": 22.3622599586,
			"0.0": 16.6258955575,
			"0.001": 14.9417378856,
			"0.002": 11.2334385788,
			"0.003": 11.7719989596,
			"0.004": 16.0104585365,
			"0.005": 9.71871451268,
			"0.006": 5.06581628791,
			"0.007": 5.67855830079,
			"0.008": 5.89345180493,
			"0.009": 5.87240015934,
			"0.01": 6.76416194862,
			"0.011": 8.42938760601,
			"0.012": 7.46802269177,
			"0.013": 5.1281021084,
			"0.014": 1.54761694589,
			"0.015": 0.068169385963,
			"0.016": 0.0,
			"0.017": 0.0,
			"0.018": 0.0,
			"0.019": 0.0,
			"0.02": 0.0,
			"0.021": 0.0,
			"0.022": 0.0,
			"0.023": 0.0,
			"0.024": 0.0,
			"0.025": 0.0
		}
	}
}
