{
	 "smiles": "ClC1=CC(=O)OC1=O", 
	 "Tm": 306.15, 
	 "num_atms": 9, 
	 "gaussian": { 
		 "optdone": 1, 
		 "sigma_profile": "yes", 
		 "theory": "DFT", 
		 "functional": "B3LYP", 
		 "basiset": "6-31G**", 
		 "properties": { 
			 "R2extent": 2031.9049, 
			 "electric_dipole_moment_norm": 3.3150976969, 
			 "electric_quadrupole_moment_norm": 11.7447672293, 
			 "total_energy": -838.872224344, 
			 "HOMO_LUMO_gap": 0.18482, 
			 "cosmo_polarized_energy": -9.08, 
			 "cosmo_cavitation_energy": 16.8, 
			 "cosmo_dispersion_energy": -12.64, 
			 "cosmo_repulsion_energy": 1.07, 
			 "cosmo_total_nonelectrostatic_energy": 5.23, 
			 "SMD_solvation_energy": 5.09 
		},
		"coords": [
			{
				"x": -2.6764447495,
				"y": 3.3924733749,
				"z": 0.3113580211,
				"element": "Cl" 
			},
			{
				"x": -1.4016128464,
				"y": 2.3034211264,
				"z": -0.0104750642,
				"element": "C" 
			},
			{
				"x": -0.3507980084,
				"y": 2.4271886924,
				"z": -0.8299741799,
				"element": "C" 
			},
			{
				"x": 0.443012203,
				"y": 1.1792548198,
				"z": -0.7212051704,
				"element": "C" 
			},
			{
				"x": 1.4559966852,
				"y": 0.8646127124,
				"z": -1.2756194129,
				"element": "O" 
			},
			{
				"x": -0.1973719379,
				"y": 0.3342756728,
				"z": 0.1958878116,
				"element": "O" 
			},
			{
				"x": -1.3352070125,
				"y": 0.9625338801,
				"z": 0.6696800287,
				"element": "C" 
			},
			{
				"x": -2.0815619829,
				"y": 0.4775318877,
				"z": 1.4671920117,
				"element": "O" 
			},
			{
				"x": -0.0709123506,
				"y": 3.2474078335,
				"z": -1.4754440457,
				"element": "H" 
			}
		],
		 "valence_orbital": [ 
			{
				"type": "occ",
				"energy": -0.36569,
				"method": "rhf"
			},
			{
				"type": "occ",
				"energy": -0.35174,
				"method": "rhf"
			},
			{
				"type": "occ",
				"energy": -0.33119,
				"method": "rhf"
			},
			{
				"type": "occ",
				"energy": -0.31607,
				"method": "rhf"
			},
			{
				"type": "occ",
				"energy": -0.30946,
				"method": "rhf"
			},
			{
				"type": "unocc",
				"energy": -0.12464,
				"method": "rhf"
			},
			{
				"type": "unocc",
				"energy": 0.00288,
				"method": "rhf"
			},
			{
				"type": "unocc",
				"energy": 0.01446,
				"method": "rhf"
			},
			{
				"type": "unocc",
				"energy": 0.03973,
				"method": "rhf"
			},
			{
				"type": "unocc",
				"energy": 0.10255,
				"method": "rhf"
			}
		],
		"cosmo_sigma_profile": { 
			"-0.025": 0.0,
			"-0.024": 0.0,
			"-0.023": 0.0,
			"-0.022": 0.0,
			"-0.021": 0.0,
			"-0.02": 0.0,
			"-0.019": 0.0,
			"-0.018": 0.0,
			"-0.017": 0.0,
			"-0.016": 0.0,
			"-0.015": 0.0,
			"-0.014": 0.0,
			"-0.013": 0.0,
			"-0.012": 1.61440267697,
			"-0.011": 2.04491220219,
			"-0.01": 3.79681537137,
			"-0.009": 3.64274816574,
			"-0.008": 3.9583360273,
			"-0.007": 4.72844200214,
			"-0.006": 6.55781213249,
			"-0.005": 8.80383609386,
			"-0.004": 8.32759985782,
			"-0.003": 7.78441586863,
			"-0.002": 6.509317387,
			"-0.001": 6.85825765837,
			"0.0": 7.04214521537,
			"0.001": 12.6948380546,
			"0.002": 8.2502468294,
			"0.003": 4.2839500943,
			"0.004": 4.31930053599,
			"0.005": 5.74329991157,
			"0.006": 7.65819433985,
			"0.007": 5.64121574572,
			"0.008": 8.47517293652,
			"0.009": 9.1084051264,
			"0.01": 1.27136767343,
			"0.011": 0.0,
			"0.012": 0.0,
			"0.013": 0.0,
			"0.014": 0.0,
			"0.015": 0.0,
			"0.016": 0.0,
			"0.017": 0.0,
			"0.018": 0.0,
			"0.019": 0.0,
			"0.02": 0.0,
			"0.021": 0.0,
			"0.022": 0.0,
			"0.023": 0.0,
			"0.024": 0.0,
			"0.025": 0.0
		}
	}
}
