{
	 "smiles": "[O-][N+](=O)C1=CC=C(OC2=C(Cl)C=CC=C2Cl)C(Cl)=C1", 
	 "Tm": 410.15, 
	 "num_atms": 25, 
	 "gaussian": { 
		 "optdone": 1, 
		 "sigma_profile": "yes", 
		 "theory": "DFT", 
		 "functional": "B3LYP", 
		 "basiset": "6-31G**", 
		 "properties": { 
			 "R2extent": 6860.2277, 
			 "electric_dipole_moment_norm": 5.24515565737, 
			 "electric_quadrupole_moment_norm": 16.2752636793, 
			 "total_energy": -2121.76663619, 
			 "HOMO_LUMO_gap": 0.16392, 
			 "cosmo_polarized_energy": -9.81, 
			 "cosmo_cavitation_energy": 36.23, 
			 "cosmo_dispersion_energy": -25.35, 
			 "cosmo_repulsion_energy": 1.94, 
			 "cosmo_total_nonelectrostatic_energy": 12.83, 
			 "SMD_solvation_energy": 7.85 
		},
		"coords": [
			{
				"x": -1.1704395796,
				"y": 5.5519978251,
				"z": -0.3467382139,
				"element": "O" 
			},
			{
				"x": -0.1485904851,
				"y": 4.8687777719,
				"z": -0.2893420079,
				"element": "N" 
			},
			{
				"x": 0.9830588893,
				"y": 5.3097079142,
				"z": -0.0913349636,
				"element": "O" 
			},
			{
				"x": -0.2938842893,
				"y": 3.4191108302,
				"z": -0.4704012309,
				"element": "C" 
			},
			{
				"x": -1.5602247412,
				"y": 2.8807928549,
				"z": -0.6939489247,
				"element": "C" 
			},
			{
				"x": -1.6750718398,
				"y": 1.508637972,
				"z": -0.851906844,
				"element": "C" 
			},
			{
				"x": -0.5496452578,
				"y": 0.6751493768,
				"z": -0.793827015,
				"element": "C" 
			},
			{
				"x": -0.8001466561,
				"y": -0.6499249708,
				"z": -1.040226971,
				"element": "O" 
			},
			{
				"x": -0.1886037433,
				"y": -1.7016065871,
				"z": -0.3994092938,
				"element": "C" 
			},
			{
				"x": 0.3978667235,
				"y": -2.7027109282,
				"z": -1.1897483381,
				"element": "C" 
			},
			{
				"x": 0.4532972827,
				"y": -2.5003051295,
				"z": -2.9222086868,
				"element": "Cl" 
			},
			{
				"x": 0.9429475095,
				"y": -3.8461081296,
				"z": -0.6110836506,
				"element": "C" 
			},
			{
				"x": 0.9046575625,
				"y": -4.0024242595,
				"z": 0.7735991762,
				"element": "C" 
			},
			{
				"x": 0.3095972576,
				"y": -3.0314512578,
				"z": 1.5753080632,
				"element": "C" 
			},
			{
				"x": -0.2465897761,
				"y": -1.8950301486,
				"z": 0.9887521807,
				"element": "C" 
			},
			{
				"x": -1.0461223662,
				"y": -0.7204188219,
				"z": 2.009899772,
				"element": "Cl" 
			},
			{
				"x": 0.7214959607,
				"y": 1.2462462667,
				"z": -0.597078085,
				"element": "C" 
			},
			{
				"x": 2.1807853825,
				"y": 0.2852356424,
				"z": -0.6031982323,
				"element": "Cl" 
			},
			{
				"x": 0.8446479907,
				"y": 2.6223301148,
				"z": -0.4226615196,
				"element": "C" 
			},
			{
				"x": -2.423115328,
				"y": 3.5329510685,
				"z": -0.7309568719,
				"element": "H" 
			},
			{
				"x": -2.6389547814,
				"y": 1.0405694591,
				"z": -1.0162961628,
				"element": "H" 
			},
			{
				"x": 1.3953419342,
				"y": -4.5977768418,
				"z": -1.2475297112,
				"element": "H" 
			},
			{
				"x": 1.3329088466,
				"y": -4.8892168411,
				"z": 1.2289862007,
				"element": "H" 
			},
			{
				"x": 0.2581859515,
				"y": -3.1484588798,
				"z": 2.6516644729,
				"element": "H" 
			},
			{
				"x": 1.8143975526,
				"y": 3.0763256993,
				"z": -0.2663131427,
				"element": "H" 
			}
		],
		 "valence_orbital": [ 
			{
				"type": "occ",
				"energy": -0.29589,
				"method": "rhf"
			},
			{
				"type": "occ",
				"energy": -0.28308,
				"method": "rhf"
			},
			{
				"type": "occ",
				"energy": -0.26984,
				"method": "rhf"
			},
			{
				"type": "occ",
				"energy": -0.26462,
				"method": "rhf"
			},
			{
				"type": "occ",
				"energy": -0.2583,
				"method": "rhf"
			},
			{
				"type": "unocc",
				"energy": -0.09438,
				"method": "rhf"
			},
			{
				"type": "unocc",
				"energy": -0.04236,
				"method": "rhf"
			},
			{
				"type": "unocc",
				"energy": -0.03767,
				"method": "rhf"
			},
			{
				"type": "unocc",
				"energy": -0.03461,
				"method": "rhf"
			},
			{
				"type": "unocc",
				"energy": -0.01291,
				"method": "rhf"
			}
		],
		"cosmo_sigma_profile": { 
			"-0.025": 0.0,
			"-0.024": 0.0,
			"-0.023": 0.0,
			"-0.022": 0.0,
			"-0.021": 0.0,
			"-0.02": 0.0,
			"-0.019": 0.0,
			"-0.018": 0.0,
			"-0.017": 0.0,
			"-0.016": 0.0,
			"-0.015": 0.0,
			"-0.014": 0.0,
			"-0.013": 0.0,
			"-0.012": 0.0,
			"-0.011": 0.0,
			"-0.01": 0.0,
			"-0.009": 1.59210339366,
			"-0.008": 8.79951928311,
			"-0.007": 11.7252691927,
			"-0.006": 13.0068741367,
			"-0.005": 9.83748390969,
			"-0.004": 12.7109177431,
			"-0.003": 16.5655196317,
			"-0.002": 20.1304021684,
			"-0.001": 32.8882945846,
			"0.0": 32.658278856,
			"0.001": 32.7703286755,
			"0.002": 32.0867145153,
			"0.003": 24.8659831088,
			"0.004": 15.7811118559,
			"0.005": 6.10528650608,
			"0.006": 5.99416572427,
			"0.007": 9.02981813091,
			"0.008": 6.39763554741,
			"0.009": 4.0470305966,
			"0.01": 1.93650229758,
			"0.011": 0.0,
			"0.012": 0.0,
			"0.013": 0.0,
			"0.014": 0.0,
			"0.015": 0.0,
			"0.016": 0.0,
			"0.017": 0.0,
			"0.018": 0.0,
			"0.019": 0.0,
			"0.02": 0.0,
			"0.021": 0.0,
			"0.022": 0.0,
			"0.023": 0.0,
			"0.024": 0.0,
			"0.025": 0.0
		}
	}
}
