{
	 "smiles": "CC(=O)CCC1=C(C2=CC=C(C)O2)C2=C(O1)C=CC(NC(C)=O)=C2", 
	 "Tm": 405.15, 
	 "num_atms": 43, 
	 "gaussian": { 
		 "optdone": 1, 
		 "sigma_profile": "yes", 
		 "theory": "DFT", 
		 "functional": "B3LYP", 
		 "basiset": "6-31G**", 
		 "properties": { 
			 "R2extent": 10697.1679, 
			 "electric_dipole_moment_norm": 6.24264830501, 
			 "electric_quadrupole_moment_norm": 17.9083666293, 
			 "total_energy": -1091.13182998, 
			 "HOMO_LUMO_gap": 0.16771, 
			 "cosmo_polarized_energy": -21.45, 
			 "cosmo_cavitation_energy": 48.01, 
			 "cosmo_dispersion_energy": -32.9, 
			 "cosmo_repulsion_energy": 2.53, 
			 "cosmo_total_nonelectrostatic_energy": 17.64, 
			 "SMD_solvation_energy": 9.87 
		},
		"coords": [
			{
				"x": 3.2237244217,
				"y": 3.9158651874,
				"z": 3.1644123295,
				"element": "C" 
			},
			{
				"x": 2.1242846172,
				"y": 2.9703641441,
				"z": 3.6052169173,
				"element": "C" 
			},
			{
				"x": 1.124770742,
				"y": 3.3619930572,
				"z": 4.1747214403,
				"element": "O" 
			},
			{
				"x": 2.3539915876,
				"y": 1.4803782488,
				"z": 3.3327059089,
				"element": "C" 
			},
			{
				"x": 1.0420459858,
				"y": 0.6858087094,
				"z": 3.1577532882,
				"element": "C" 
			},
			{
				"x": 0.485289518,
				"y": 0.7481452245,
				"z": 1.7772873242,
				"element": "C" 
			},
			{
				"x": 0.4013911548,
				"y": -0.1743356994,
				"z": 0.7627517092,
				"element": "C" 
			},
			{
				"x": 0.9083521987,
				"y": -1.5323480561,
				"z": 0.762670755,
				"element": "C" 
			},
			{
				"x": 1.9162008175,
				"y": -2.184949961,
				"z": 1.4243734904,
				"element": "C" 
			},
			{
				"x": 1.8984990487,
				"y": -3.5418483458,
				"z": 0.9697868681,
				"element": "C" 
			},
			{
				"x": 0.8945291917,
				"y": -3.6377696812,
				"z": 0.0518272314,
				"element": "C" 
			},
			{
				"x": 0.366730289,
				"y": -4.7487120529,
				"z": -0.7854431633,
				"element": "C" 
			},
			{
				"x": 0.2827265147,
				"y": -2.4195687476,
				"z": -0.0845229387,
				"element": "O" 
			},
			{
				"x": -0.2875420583,
				"y": 0.4966232764,
				"z": -0.3281412556,
				"element": "C" 
			},
			{
				"x": -0.5397481967,
				"y": 1.7978187709,
				"z": 0.1307801851,
				"element": "C" 
			},
			{
				"x": -0.0673401146,
				"y": 1.9521188015,
				"z": 1.4084985134,
				"element": "O" 
			},
			{
				"x": -1.1786804774,
				"y": 2.7625975432,
				"z": -0.6343450198,
				"element": "C" 
			},
			{
				"x": -1.5828465645,
				"y": 2.4045628315,
				"z": -1.9187928483,
				"element": "C" 
			},
			{
				"x": -1.3420904236,
				"y": 1.0998302207,
				"z": -2.4081838607,
				"element": "C" 
			},
			{
				"x": -1.7391248076,
				"y": 0.6936991574,
				"z": -3.7049745829,
				"element": "N" 
			},
			{
				"x": -2.3718174581,
				"y": 1.4155922438,
				"z": -4.6910974067,
				"element": "C" 
			},
			{
				"x": -2.6450405784,
				"y": 0.6301365166,
				"z": -5.967864021,
				"element": "C" 
			},
			{
				"x": -2.703094954,
				"y": 2.588880709,
				"z": -4.5858683479,
				"element": "O" 
			},
			{
				"x": -0.6950297818,
				"y": 0.1419442128,
				"z": -1.6178943704,
				"element": "C" 
			},
			{
				"x": 3.2435596683,
				"y": 3.9615887099,
				"z": 2.0685338991,
				"element": "H" 
			},
			{
				"x": 3.0417930589,
				"y": 4.914485307,
				"z": 3.5637232668,
				"element": "H" 
			},
			{
				"x": 4.207185641,
				"y": 3.5541348455,
				"z": 3.4856662983,
				"element": "H" 
			},
			{
				"x": 3.0231201255,
				"y": 1.3455075686,
				"z": 2.4757707067,
				"element": "H" 
			},
			{
				"x": 2.8981791718,
				"y": 1.1000371349,
				"z": 4.2096564647,
				"element": "H" 
			},
			{
				"x": 1.1986313863,
				"y": -0.3649168706,
				"z": 3.413028196,
				"element": "H" 
			},
			{
				"x": 0.3099537777,
				"y": 1.1007890229,
				"z": 3.859829761,
				"element": "H" 
			},
			{
				"x": 2.6101584039,
				"y": -1.7463981998,
				"z": 2.125960086,
				"element": "H" 
			},
			{
				"x": 2.5557058437,
				"y": -4.3419738268,
				"z": 1.2797142973,
				"element": "H" 
			},
			{
				"x": -0.6934434135,
				"y": -4.9384010264,
				"z": -0.5808471375,
				"element": "H" 
			},
			{
				"x": 0.4600554825,
				"y": -4.5276857196,
				"z": -1.8555639574,
				"element": "H" 
			},
			{
				"x": 0.9237335538,
				"y": -5.6653317904,
				"z": -0.5782806318,
				"element": "H" 
			},
			{
				"x": -1.3592794106,
				"y": 3.7593500237,
				"z": -0.2469867322,
				"element": "H" 
			},
			{
				"x": -2.0861511509,
				"y": 3.1144044739,
				"z": -2.5588916881,
				"element": "H" 
			},
			{
				"x": -1.5225697658,
				"y": -0.2664663459,
				"z": -3.9273423113,
				"element": "H" 
			},
			{
				"x": -3.7236938385,
				"y": 0.6218760392,
				"z": -6.1475464394,
				"element": "H" 
			},
			{
				"x": -2.1803696658,
				"y": 1.1565512089,
				"z": -6.8058259836,
				"element": "H" 
			},
			{
				"x": -2.2815342046,
				"y": -0.4012930119,
				"z": -5.9514006385,
				"element": "H" 
			},
			{
				"x": -0.5180153357,
				"y": -0.8617838543,
				"z": -1.9913556015,
				"element": "H" 
			}
		],
		 "valence_orbital": [ 
			{
				"type": "occ",
				"energy": -0.24884,
				"method": "rhf"
			},
			{
				"type": "occ",
				"energy": -0.24814,
				"method": "rhf"
			},
			{
				"type": "occ",
				"energy": -0.23764,
				"method": "rhf"
			},
			{
				"type": "occ",
				"energy": -0.20919,
				"method": "rhf"
			},
			{
				"type": "occ",
				"energy": -0.19396,
				"method": "rhf"
			},
			{
				"type": "unocc",
				"energy": -0.02625,
				"method": "rhf"
			},
			{
				"type": "unocc",
				"energy": -0.01268,
				"method": "rhf"
			},
			{
				"type": "unocc",
				"energy": 0.00048,
				"method": "rhf"
			},
			{
				"type": "unocc",
				"energy": 0.0033,
				"method": "rhf"
			},
			{
				"type": "unocc",
				"energy": 0.04927,
				"method": "rhf"
			}
		],
		"cosmo_sigma_profile": { 
			"-0.025": 0.0,
			"-0.024": 0.0,
			"-0.023": 0.0,
			"-0.022": 0.0,
			"-0.021": 0.0,
			"-0.02": 0.0,
			"-0.019": 0.0,
			"-0.018": 0.0,
			"-0.017": 0.0,
			"-0.016": 0.00460713299837,
			"-0.015": 0.669644976711,
			"-0.014": 1.65862928906,
			"-0.013": 1.41783926114,
			"-0.012": 1.51006906269,
			"-0.011": 1.3013984382,
			"-0.01": 1.78726099328,
			"-0.009": 1.3242641611,
			"-0.008": 1.80692682747,
			"-0.007": 5.26361478019,
			"-0.006": 18.7670253975,
			"-0.005": 31.3676066296,
			"-0.004": 34.1274412107,
			"-0.003": 33.6313334104,
			"-0.002": 34.4401009063,
			"-0.001": 32.5491415456,
			"0.0": 20.3090625497,
			"0.001": 20.5341521374,
			"0.002": 23.5897409197,
			"0.003": 27.5400807797,
			"0.004": 26.4871583193,
			"0.005": 16.2349983904,
			"0.006": 8.51985009068,
			"0.007": 6.0846205433,
			"0.008": 3.46713370941,
			"0.009": 5.08957286515,
			"0.01": 3.96526503731,
			"0.011": 4.83361027162,
			"0.012": 6.33594922587,
			"0.013": 4.25563878891,
			"0.014": 2.46465307756,
			"0.015": 0.478416529127,
			"0.016": 0.0,
			"0.017": 0.0,
			"0.018": 0.0,
			"0.019": 0.0,
			"0.02": 0.0,
			"0.021": 0.0,
			"0.022": 0.0,
			"0.023": 0.0,
			"0.024": 0.0,
			"0.025": 0.0
		}
	}
}
