{
	 "smiles": "CC1=C(C=C(N)C=C1)S(=O)(=O)NC1=CC=C(Cl)C=C1", 
	 "Tm": 418.15, 
	 "num_atms": 32, 
	 "gaussian": { 
		 "optdone": 1, 
		 "sigma_profile": "yes", 
		 "theory": "DFT", 
		 "functional": "B3LYP", 
		 "basiset": "6-31G**", 
		 "properties": { 
			 "R2extent": 7698.5522, 
			 "electric_dipole_moment_norm": 6.04895574955, 
			 "electric_quadrupole_moment_norm": 29.8151967086, 
			 "total_energy": -1621.48641877, 
			 "HOMO_LUMO_gap": 0.17499, 
			 "cosmo_polarized_energy": -20.07, 
			 "cosmo_cavitation_energy": 38.48, 
			 "cosmo_dispersion_energy": -27.47, 
			 "cosmo_repulsion_energy": 2.08, 
			 "cosmo_total_nonelectrostatic_energy": 13.09, 
			 "SMD_solvation_energy": 5.42 
		},
		"coords": [
			{
				"x": -0.3269898003,
				"y": -1.0394519828,
				"z": 0.7728873918,
				"element": "C" 
			},
			{
				"x": 0.6363938717,
				"y": -0.1377545629,
				"z": 1.5106680365,
				"element": "C" 
			},
			{
				"x": 1.5459327426,
				"y": 0.757351393,
				"z": 0.9120929865,
				"element": "C" 
			},
			{
				"x": 2.444147516,
				"y": 1.5268783841,
				"z": 1.6572428279,
				"element": "C" 
			},
			{
				"x": 2.468536353,
				"y": 1.4450275044,
				"z": 3.0565904533,
				"element": "C" 
			},
			{
				"x": 3.4058137996,
				"y": 2.1578962468,
				"z": 3.7984393483,
				"element": "N" 
			},
			{
				"x": 1.5596499189,
				"y": 0.5720163289,
				"z": 3.6752360453,
				"element": "C" 
			},
			{
				"x": 0.6833351156,
				"y": -0.1911896516,
				"z": 2.9128119101,
				"element": "C" 
			},
			{
				"x": 1.6378945915,
				"y": 1.0309802646,
				"z": -0.875652737,
				"element": "S" 
			},
			{
				"x": 2.9199939739,
				"y": 1.6798899043,
				"z": -1.1527047348,
				"element": "O" 
			},
			{
				"x": 1.2167694128,
				"y": -0.1784775973,
				"z": -1.5804158409,
				"element": "O" 
			},
			{
				"x": 0.4989494775,
				"y": 2.2451273106,
				"z": -1.2529476597,
				"element": "N" 
			},
			{
				"x": -0.9086145416,
				"y": 2.0631391913,
				"z": -1.2227620303,
				"element": "C" 
			},
			{
				"x": -1.5194612918,
				"y": 1.1232863462,
				"z": -2.066444223,
				"element": "C" 
			},
			{
				"x": -2.9050347659,
				"y": 0.9814814824,
				"z": -2.066538078,
				"element": "C" 
			},
			{
				"x": -3.6841476564,
				"y": 1.8008468564,
				"z": -1.2482765745,
				"element": "C" 
			},
			{
				"x": -5.4337073764,
				"y": 1.6352334302,
				"z": -1.2676659124,
				"element": "Cl" 
			},
			{
				"x": -3.0935681252,
				"y": 2.7534523006,
				"z": -0.4200033658,
				"element": "C" 
			},
			{
				"x": -1.7047448485,
				"y": 2.8709591903,
				"z": -0.4001728452,
				"element": "C" 
			},
			{
				"x": 0.1982508937,
				"y": -1.7142760554,
				"z": 0.093064312,
				"element": "H" 
			},
			{
				"x": -0.8926827745,
				"y": -1.6374039117,
				"z": 1.4922550547,
				"element": "H" 
			},
			{
				"x": -1.0435631221,
				"y": -0.4786549591,
				"z": 0.1675235275,
				"element": "H" 
			},
			{
				"x": 3.1483080913,
				"y": 2.1665794078,
				"z": 1.135717531,
				"element": "H" 
			},
			{
				"x": 3.1650880251,
				"y": 2.3310988859,
				"z": 4.7638746358,
				"element": "H" 
			},
			{
				"x": 3.805135865,
				"y": 2.9677060017,
				"z": 3.3459795168,
				"element": "H" 
			},
			{
				"x": 1.5528793387,
				"y": 0.4799923405,
				"z": 4.7584359636,
				"element": "H" 
			},
			{
				"x": 0.0038165176,
				"y": -0.8684268975,
				"z": 3.423234535,
				"element": "H" 
			},
			{
				"x": 0.8259061214,
				"y": 3.1349470378,
				"z": -0.8905544621,
				"element": "H" 
			},
			{
				"x": -0.9022634954,
				"y": 0.5092398228,
				"z": -2.7106697262,
				"element": "H" 
			},
			{
				"x": -3.3798468243,
				"y": 0.2529277781,
				"z": -2.7142454566,
				"element": "H" 
			},
			{
				"x": -3.7089274541,
				"y": 3.3853463478,
				"z": 0.210570124,
				"element": "H" 
			},
			{
				"x": -1.2374495495,
				"y": 3.5975318616,
				"z": 0.2591294463,
				"element": "H" 
			}
		],
		 "valence_orbital": [ 
			{
				"type": "occ",
				"energy": -0.30249,
				"method": "rhf"
			},
			{
				"type": "occ",
				"energy": -0.27108,
				"method": "rhf"
			},
			{
				"type": "occ",
				"energy": -0.26776,
				"method": "rhf"
			},
			{
				"type": "occ",
				"energy": -0.23371,
				"method": "rhf"
			},
			{
				"type": "occ",
				"energy": -0.21571,
				"method": "rhf"
			},
			{
				"type": "unocc",
				"energy": -0.04072,
				"method": "rhf"
			},
			{
				"type": "unocc",
				"energy": -0.02187,
				"method": "rhf"
			},
			{
				"type": "unocc",
				"energy": -0.0182,
				"method": "rhf"
			},
			{
				"type": "unocc",
				"energy": -0.00099,
				"method": "rhf"
			},
			{
				"type": "unocc",
				"energy": 0.02569,
				"method": "rhf"
			}
		],
		"cosmo_sigma_profile": { 
			"-0.025": 0.0,
			"-0.024": 0.0,
			"-0.023": 0.0,
			"-0.022": 0.0,
			"-0.021": 0.0,
			"-0.02": 0.0,
			"-0.019": 0.0,
			"-0.018": 0.0,
			"-0.017": 0.0,
			"-0.016": 0.246860418301,
			"-0.015": 0.928555826652,
			"-0.014": 1.4072798153,
			"-0.013": 3.0249262306,
			"-0.012": 3.73207467627,
			"-0.011": 4.40482067942,
			"-0.01": 5.16648892186,
			"-0.009": 4.49733241214,
			"-0.008": 5.92719177099,
			"-0.007": 10.109578644,
			"-0.006": 13.5824935118,
			"-0.005": 14.9524235173,
			"-0.004": 12.4290468666,
			"-0.003": 14.3189075216,
			"-0.002": 13.9490985572,
			"-0.001": 17.9767641601,
			"0.0": 26.2937717633,
			"0.001": 25.2704377151,
			"0.002": 27.0477775262,
			"0.003": 27.5553112933,
			"0.004": 24.5210211744,
			"0.005": 14.5581112398,
			"0.006": 6.1264920731,
			"0.007": 4.32702211688,
			"0.008": 4.83753754009,
			"0.009": 4.71647246358,
			"0.01": 6.81749463688,
			"0.011": 7.42643196874,
			"0.012": 2.30615753287,
			"0.013": 0.640957801816,
			"0.014": 0.218761429846,
			"0.015": 0.0,
			"0.016": 0.0,
			"0.017": 0.0,
			"0.018": 0.0,
			"0.019": 0.0,
			"0.02": 0.0,
			"0.021": 0.0,
			"0.022": 0.0,
			"0.023": 0.0,
			"0.024": 0.0,
			"0.025": 0.0
		}
	}
}
