{
	 "smiles": "OC(=O)C1=CC=C(OCC(=O)C2CC2)C=C1", 
	 "Tm": 431.15, 
	 "num_atms": 28, 
	 "gaussian": { 
		 "optdone": 1, 
		 "sigma_profile": "yes", 
		 "theory": "DFT", 
		 "functional": "B3LYP", 
		 "basiset": "6-31G**", 
		 "properties": { 
			 "R2extent": 6887.6412, 
			 "electric_dipole_moment_norm": 2.80148278774, 
			 "electric_quadrupole_moment_norm": 4.20445273252, 
			 "total_energy": -765.382231604, 
			 "HOMO_LUMO_gap": 0.19512, 
			 "cosmo_polarized_energy": -14.59, 
			 "cosmo_cavitation_energy": 33.2, 
			 "cosmo_dispersion_energy": -23.96, 
			 "cosmo_repulsion_energy": 1.87, 
			 "cosmo_total_nonelectrostatic_energy": 11.12, 
			 "SMD_solvation_energy": 7.32 
		},
		"coords": [
			{
				"x": -3.7574084766,
				"y": -2.3080497133,
				"z": 2.2193795633,
				"element": "O" 
			},
			{
				"x": -3.9886503419,
				"y": -1.98396467,
				"z": 0.9199506429,
				"element": "C" 
			},
			{
				"x": -5.0591212406,
				"y": -2.2033113377,
				"z": 0.3852468742,
				"element": "O" 
			},
			{
				"x": -2.8206705643,
				"y": -1.3550523811,
				"z": 0.2614938457,
				"element": "C" 
			},
			{
				"x": -2.9414427664,
				"y": -0.9777753591,
				"z": -1.080195742,
				"element": "C" 
			},
			{
				"x": -1.8801808451,
				"y": -0.381953264,
				"z": -1.7567879848,
				"element": "C" 
			},
			{
				"x": -0.6731109125,
				"y": -0.158356847,
				"z": -1.0790329127,
				"element": "C" 
			},
			{
				"x": 0.4289737253,
				"y": 0.4152686879,
				"z": -1.6388641034,
				"element": "O" 
			},
			{
				"x": 0.3768648292,
				"y": 0.8230197055,
				"z": -2.9982591574,
				"element": "C" 
			},
			{
				"x": 1.7030214914,
				"y": 1.4428439361,
				"z": -3.447267904,
				"element": "C" 
			},
			{
				"x": 1.7741339683,
				"y": 1.8332568531,
				"z": -4.6017116545,
				"element": "O" 
			},
			{
				"x": 2.8293733299,
				"y": 1.5450866757,
				"z": -2.4872911546,
				"element": "C" 
			},
			{
				"x": 3.7536068393,
				"y": 2.7514728405,
				"z": -2.6421080085,
				"element": "C" 
			},
			{
				"x": 4.2367240645,
				"y": 1.4115192803,
				"z": -3.0661522878,
				"element": "C" 
			},
			{
				"x": -0.5424397398,
				"y": -0.5336696062,
				"z": 0.2682366355,
				"element": "C" 
			},
			{
				"x": -1.6060048924,
				"y": -1.1259284599,
				"z": 0.9308146549,
				"element": "C" 
			},
			{
				"x": -4.583162218,
				"y": -2.7068626705,
				"z": 2.5387863296,
				"element": "H" 
			},
			{
				"x": -3.8836705698,
				"y": -1.1596148683,
				"z": -1.5862004763,
				"element": "H" 
			},
			{
				"x": -2.0003142459,
				"y": -0.0995614194,
				"z": -2.7955348133,
				"element": "H" 
			},
			{
				"x": 0.1671527973,
				"y": -0.0285396056,
				"z": -3.6596307318,
				"element": "H" 
			},
			{
				"x": -0.4108207116,
				"y": 1.5717476674,
				"z": -3.1576554559,
				"element": "H" 
			},
			{
				"x": 2.6526576532,
				"y": 1.1656639407,
				"z": -1.4895002658,
				"element": "H" 
			},
			{
				"x": 3.4786837134,
				"y": 3.4543331619,
				"z": -3.4218933727,
				"element": "H" 
			},
			{
				"x": 4.1387446949,
				"y": 3.1889791549,
				"z": -1.7266774732,
				"element": "H" 
			},
			{
				"x": 4.9666627129,
				"y": 0.8925504256,
				"z": -2.453286728,
				"element": "H" 
			},
			{
				"x": 4.2872087922,
				"y": 1.2117238151,
				"z": -4.131598237,
				"element": "H" 
			},
			{
				"x": 0.4022026631,
				"y": -0.3492713296,
				"z": 0.7688201517,
				"element": "H" 
			},
			{
				"x": -1.5044137499,
				"y": -1.4153546129,
				"z": 1.9705197657,
				"element": "H" 
			}
		],
		 "valence_orbital": [ 
			{
				"type": "occ",
				"energy": -0.2972,
				"method": "rhf"
			},
			{
				"type": "occ",
				"energy": -0.27431,
				"method": "rhf"
			},
			{
				"type": "occ",
				"energy": -0.26714,
				"method": "rhf"
			},
			{
				"type": "occ",
				"energy": -0.25938,
				"method": "rhf"
			},
			{
				"type": "occ",
				"energy": -0.23865,
				"method": "rhf"
			},
			{
				"type": "unocc",
				"energy": -0.04353,
				"method": "rhf"
			},
			{
				"type": "unocc",
				"energy": -0.02907,
				"method": "rhf"
			},
			{
				"type": "unocc",
				"energy": -0.01378,
				"method": "rhf"
			},
			{
				"type": "unocc",
				"energy": 0.06244,
				"method": "rhf"
			},
			{
				"type": "unocc",
				"energy": 0.07729,
				"method": "rhf"
			}
		],
		"cosmo_sigma_profile": { 
			"-0.025": 0.0,
			"-0.024": 0.0,
			"-0.023": 0.0,
			"-0.022": 0.0,
			"-0.021": 0.0,
			"-0.02": 0.0,
			"-0.019": 0.0,
			"-0.018": 0.667309925698,
			"-0.017": 0.659928613721,
			"-0.016": 1.09860318352,
			"-0.015": 0.913737482977,
			"-0.014": 0.745561173242,
			"-0.013": 0.22357762384,
			"-0.012": 0.406926216242,
			"-0.011": 0.850222477806,
			"-0.01": 1.1464717988,
			"-0.009": 0.632018500252,
			"-0.008": 5.79604212737,
			"-0.007": 10.1101703313,
			"-0.006": 13.542640982,
			"-0.005": 19.5709522706,
			"-0.004": 15.5258733149,
			"-0.003": 15.7385868961,
			"-0.002": 17.0186960265,
			"-0.001": 18.9339407739,
			"0.0": 19.3531033804,
			"0.001": 23.0069244736,
			"0.002": 22.5910833022,
			"0.003": 22.311785321,
			"0.004": 11.4974311199,
			"0.005": 5.9793054997,
			"0.006": 3.92520395757,
			"0.007": 4.98009748532,
			"0.008": 3.57616573942,
			"0.009": 2.98175662235,
			"0.01": 3.75467667697,
			"0.011": 5.36217851798,
			"0.012": 9.43037324521,
			"0.013": 1.83432742059,
			"0.014": 0.0,
			"0.015": 0.0,
			"0.016": 0.0,
			"0.017": 0.0,
			"0.018": 0.0,
			"0.019": 0.0,
			"0.02": 0.0,
			"0.021": 0.0,
			"0.022": 0.0,
			"0.023": 0.0,
			"0.024": 0.0,
			"0.025": 0.0
		}
	}
}
