{
	 "smiles": "OC(=O)C1=C(NC2=CC=C(SC(F)F)C=C2)C=CC=C1", 
	 "Tm": 390.15, 
	 "num_atms": 31, 
	 "gaussian": { 
		 "optdone": 1, 
		 "sigma_profile": "yes", 
		 "theory": "DFT", 
		 "functional": "B3LYP", 
		 "basiset": "6-31G**", 
		 "properties": { 
			 "R2extent": 9282.5285, 
			 "electric_dipole_moment_norm": 5.75986590208, 
			 "electric_quadrupole_moment_norm": 27.3551081305, 
			 "total_energy": -1343.18500066, 
			 "HOMO_LUMO_gap": 0.18187, 
			 "cosmo_polarized_energy": -19.55, 
			 "cosmo_cavitation_energy": 38.41, 
			 "cosmo_dispersion_energy": -27.07, 
			 "cosmo_repulsion_energy": 2.0, 
			 "cosmo_total_nonelectrostatic_energy": 13.34, 
			 "SMD_solvation_energy": 8.37 
		},
		"coords": [
			{
				"x": -2.062487213,
				"y": 0.0840202313,
				"z": -3.0166417155,
				"element": "O" 
			},
			{
				"x": -1.8015550543,
				"y": 1.3903569603,
				"z": -2.8665431526,
				"element": "C" 
			},
			{
				"x": -1.9861063848,
				"y": 2.1779025335,
				"z": -3.7695661013,
				"element": "O" 
			},
			{
				"x": -1.2497856403,
				"y": 1.841404687,
				"z": -1.5279231603,
				"element": "C" 
			},
			{
				"x": -1.0880176749,
				"y": 1.0267787382,
				"z": -0.3903305511,
				"element": "C" 
			},
			{
				"x": -1.5301297837,
				"y": -0.3553529899,
				"z": -0.4208958804,
				"element": "N" 
			},
			{
				"x": -0.6934735199,
				"y": -1.3843102109,
				"z": 0.0871822212,
				"element": "C" 
			},
			{
				"x": -1.264582224,
				"y": -2.4718034249,
				"z": 0.7623231234,
				"element": "C" 
			},
			{
				"x": -0.4678569265,
				"y": -3.5272190924,
				"z": 1.1980717375,
				"element": "C" 
			},
			{
				"x": 0.9143857426,
				"y": -3.5049249116,
				"z": 0.9816542831,
				"element": "C" 
			},
			{
				"x": 1.9407000425,
				"y": -4.8397673278,
				"z": 1.5938025176,
				"element": "S" 
			},
			{
				"x": 2.179139033,
				"y": -5.7765515708,
				"z": 0.0443503217,
				"element": "C" 
			},
			{
				"x": 0.9956188001,
				"y": -6.1810415598,
				"z": -0.484245076,
				"element": "F" 
			},
			{
				"x": 2.8024944945,
				"y": -5.0246712608,
				"z": -0.9034512014,
				"element": "F" 
			},
			{
				"x": 1.4856355256,
				"y": -2.4142953857,
				"z": 0.3118947058,
				"element": "C" 
			},
			{
				"x": 0.6908919994,
				"y": -1.3661029103,
				"z": -0.1408303522,
				"element": "C" 
			},
			{
				"x": -0.5387235064,
				"y": 1.558542728,
				"z": 0.781975276,
				"element": "C" 
			},
			{
				"x": -0.1475901614,
				"y": 2.8940581681,
				"z": 0.8356819129,
				"element": "C" 
			},
			{
				"x": -0.3136221228,
				"y": 3.7133767425,
				"z": -0.2840113879,
				"element": "C" 
			},
			{
				"x": -0.8613127098,
				"y": 3.187484439,
				"z": -1.4486770996,
				"element": "C" 
			},
			{
				"x": -1.8473517176,
				"y": -0.3783151428,
				"z": -2.1706128571,
				"element": "H" 
			},
			{
				"x": -2.4804210789,
				"y": -0.4457316716,
				"z": -0.0706654037,
				"element": "H" 
			},
			{
				"x": -2.3369392403,
				"y": -2.4955777019,
				"z": 0.9413621806,
				"element": "H" 
			},
			{
				"x": -0.9186533753,
				"y": -4.3682259586,
				"z": 1.7140582711,
				"element": "H" 
			},
			{
				"x": 2.7960641425,
				"y": -6.6519903791,
				"z": 0.2754196557,
				"element": "H" 
			},
			{
				"x": 2.5554629687,
				"y": -2.3934097852,
				"z": 0.1368845008,
				"element": "H" 
			},
			{
				"x": 1.1409230523,
				"y": -0.5328936277,
				"z": -0.669907213,
				"element": "H" 
			},
			{
				"x": -0.4208928302,
				"y": 0.9154272377,
				"z": 1.6486269119,
				"element": "H" 
			},
			{
				"x": 0.2764611871,
				"y": 3.2945246734,
				"z": 1.7517796995,
				"element": "H" 
			},
			{
				"x": -0.0155513089,
				"y": 4.7566813258,
				"z": -0.2470859112,
				"element": "H" 
			},
			{
				"x": -1.0014245153,
				"y": 3.7972264473,
				"z": -2.3342802554,
				"element": "H" 
			}
		],
		 "valence_orbital": [ 
			{
				"type": "occ",
				"energy": -0.27467,
				"method": "rhf"
			},
			{
				"type": "occ",
				"energy": -0.27078,
				"method": "rhf"
			},
			{
				"type": "occ",
				"energy": -0.26471,
				"method": "rhf"
			},
			{
				"type": "occ",
				"energy": -0.26027,
				"method": "rhf"
			},
			{
				"type": "occ",
				"energy": -0.23581,
				"method": "rhf"
			},
			{
				"type": "unocc",
				"energy": -0.05394,
				"method": "rhf"
			},
			{
				"type": "unocc",
				"energy": -0.03398,
				"method": "rhf"
			},
			{
				"type": "unocc",
				"energy": -0.0273,
				"method": "rhf"
			},
			{
				"type": "unocc",
				"energy": -0.02121,
				"method": "rhf"
			},
			{
				"type": "unocc",
				"energy": 0.02375,
				"method": "rhf"
			}
		],
		"cosmo_sigma_profile": { 
			"-0.025": 0.0,
			"-0.024": 0.0,
			"-0.023": 0.0,
			"-0.022": 0.0,
			"-0.021": 0.0,
			"-0.02": 0.0,
			"-0.019": 0.0,
			"-0.018": 0.0,
			"-0.017": 0.0,
			"-0.016": 0.0829685373053,
			"-0.015": 1.24041600352,
			"-0.014": 1.34092951307,
			"-0.013": 1.99140638646,
			"-0.012": 1.53765667253,
			"-0.011": 2.14768657857,
			"-0.01": 5.39758198213,
			"-0.009": 4.17993964103,
			"-0.008": 4.56321520974,
			"-0.007": 10.2085928767,
			"-0.006": 19.4553630525,
			"-0.005": 20.6863434043,
			"-0.004": 15.5244782703,
			"-0.003": 14.9878413745,
			"-0.002": 14.6612204093,
			"-0.001": 17.9969397063,
			"0.0": 18.5472524311,
			"0.001": 20.9156582906,
			"0.002": 22.7511919398,
			"0.003": 33.6649250311,
			"0.004": 37.2619621264,
			"0.005": 7.61501989424,
			"0.006": 5.11059974222,
			"0.007": 3.42780079846,
			"0.008": 3.46377574119,
			"0.009": 2.85791385031,
			"0.01": 3.27433342313,
			"0.011": 5.4891905179,
			"0.012": 5.98352409381,
			"0.013": 2.99833824403,
			"0.014": 0.753361763365,
			"0.015": 0.0,
			"0.016": 0.0,
			"0.017": 0.0,
			"0.018": 0.0,
			"0.019": 0.0,
			"0.02": 0.0,
			"0.021": 0.0,
			"0.022": 0.0,
			"0.023": 0.0,
			"0.024": 0.0,
			"0.0": 0.0
		}
	}
}
