{
	 "smiles": "CC1CCCN(CC2=CSC(N)=N2)C1", 
	 "Tm": 410.15, 
	 "num_atms": 31, 
	 "gaussian": { 
		 "optdone": 1, 
		 "sigma_profile": "yes", 
		 "theory": "DFT", 
		 "functional": "B3LYP", 
		 "basiset": "6-31G**", 
		 "properties": { 
			 "R2extent": 4429.0421, 
			 "electric_dipole_moment_norm": 2.11816895927, 
			 "electric_quadrupole_moment_norm": 11.8336819262, 
			 "total_energy": -953.743833849, 
			 "HOMO_LUMO_gap": 0.18841, 
			 "cosmo_polarized_energy": -10.3, 
			 "cosmo_cavitation_energy": 33.35, 
			 "cosmo_dispersion_energy": -24.42, 
			 "cosmo_repulsion_energy": 1.91, 
			 "cosmo_total_nonelectrostatic_energy": 10.85, 
			 "SMD_solvation_energy": 1.88 
		},
		"coords": [
			{
				"x": -1.9352852124,
				"y": 1.3179128782,
				"z": -2.7946426916,
				"element": "C" 
			},
			{
				"x": -1.0148251771,
				"y": 0.2713384948,
				"z": -2.1587113194,
				"element": "C" 
			},
			{
				"x": -1.5765718722,
				"y": -1.1536322291,
				"z": -2.2475035635,
				"element": "C" 
			},
			{
				"x": -0.5372479988,
				"y": -2.1781311642,
				"z": -1.7436259137,
				"element": "C" 
			},
			{
				"x": 0.3454359918,
				"y": -1.5757621317,
				"z": -0.6263675328,
				"element": "C" 
			},
			{
				"x": -0.4190007785,
				"y": -0.5758138343,
				"z": 0.1123479897,
				"element": "N" 
			},
			{
				"x": 0.0548600301,
				"y": -0.3028730251,
				"z": 1.4668453347,
				"element": "C" 
			},
			{
				"x": 1.4714547212,
				"y": 0.2190306166,
				"z": 1.6127825575,
				"element": "C" 
			},
			{
				"x": 2.5261782785,
				"y": -0.5139066523,
				"z": 2.0698756573,
				"element": "C" 
			},
			{
				"x": 3.9867912276,
				"y": 0.4504234186,
				"z": 2.073615443,
				"element": "S" 
			},
			{
				"x": 3.0291229089,
				"y": 1.7893594791,
				"z": 1.4239207336,
				"element": "C" 
			},
			{
				"x": 3.5931782623,
				"y": 3.0286290341,
				"z": 1.2126443843,
				"element": "N" 
			},
			{
				"x": 1.7675128383,
				"y": 1.5248747792,
				"z": 1.2458441347,
				"element": "N" 
			},
			{
				"x": -0.7162630489,
				"y": 0.6247871451,
				"z": -0.6822700096,
				"element": "C" 
			},
			{
				"x": -1.528289891,
				"y": 2.3293050175,
				"z": -2.6808857262,
				"element": "H" 
			},
			{
				"x": -2.9259277917,
				"y": 1.3039011959,
				"z": -2.324644618,
				"element": "H" 
			},
			{
				"x": -2.0698947199,
				"y": 1.1306293509,
				"z": -3.8655441921,
				"element": "H" 
			},
			{
				"x": -0.0637484645,
				"y": 0.2849520854,
				"z": -2.7115757482,
				"element": "H" 
			},
			{
				"x": -1.8732577516,
				"y": -1.3862287283,
				"z": -3.2773755506,
				"element": "H" 
			},
			{
				"x": -2.484530252,
				"y": -1.2131489902,
				"z": -1.6352123988,
				"element": "H" 
			},
			{
				"x": 0.1061200148,
				"y": -2.5056429226,
				"z": -2.5696306281,
				"element": "H" 
			},
			{
				"x": -1.0534725167,
				"y": -3.0702703406,
				"z": -1.3726135514,
				"element": "H" 
			},
			{
				"x": 1.2788524741,
				"y": -1.1627910246,
				"z": -1.0526645129,
				"element": "H" 
			},
			{
				"x": 0.6556720803,
				"y": -2.3598930864,
				"z": 0.0730471512,
				"element": "H" 
			},
			{
				"x": -0.6314212631,
				"y": 0.4250544702,
				"z": 1.9171134944,
				"element": "H" 
			},
			{
				"x": -0.0272937018,
				"y": -1.2299257067,
				"z": 2.0472722161,
				"element": "H" 
			},
			{
				"x": 2.5429854416,
				"y": -1.5422197076,
				"z": 2.4005764413,
				"element": "H" 
			},
			{
				"x": 4.5624098743,
				"y": 3.0450797352,
				"z": 0.9289973945,
				"element": "H" 
			},
			{
				"x": 2.9981462473,
				"y": 3.6407309612,
				"z": 0.6694634718,
				"element": "H" 
			},
			{
				"x": -1.6001955807,
				"y": 1.1025857112,
				"z": -0.2338173167,
				"element": "H" 
			},
			{
				"x": 0.0980056297,
				"y": 1.3655451704,
				"z": -0.6430611308,
				"element": "H" 
			}
		],
		 "valence_orbital": [ 
			{
				"type": "occ",
				"energy": -0.29856,
				"method": "rhf"
			},
			{
				"type": "occ",
				"energy": -0.27088,
				"method": "rhf"
			},
			{
				"type": "occ",
				"energy": -0.26917,
				"method": "rhf"
			},
			{
				"type": "occ",
				"energy": -0.20932,
				"method": "rhf"
			},
			{
				"type": "occ",
				"energy": -0.19047,
				"method": "rhf"
			},
			{
				"type": "unocc",
				"energy": -0.00206,
				"method": "rhf"
			},
			{
				"type": "unocc",
				"energy": 0.01497,
				"method": "rhf"
			},
			{
				"type": "unocc",
				"energy": 0.06009,
				"method": "rhf"
			},
			{
				"type": "unocc",
				"energy": 0.07282,
				"method": "rhf"
			},
			{
				"type": "unocc",
				"energy": 0.08939,
				"method": "rhf"
			}
		],
		"cosmo_sigma_profile": { 
			"-0.025": 0.0,
			"-0.024": 0.0,
			"-0.023": 0.0,
			"-0.022": 0.0,
			"-0.021": 0.0,
			"-0.02": 0.0,
			"-0.019": 0.0,
			"-0.018": 0.0,
			"-0.017": 0.0,
			"-0.016": 0.0,
			"-0.015": 0.226642939357,
			"-0.014": 1.31753090349,
			"-0.013": 2.63969175336,
			"-0.012": 2.84648984549,
			"-0.011": 2.18042091959,
			"-0.01": 2.77766866042,
			"-0.009": 2.06842373483,
			"-0.008": 2.41827413471,
			"-0.007": 4.01940542631,
			"-0.006": 4.00982262182,
			"-0.005": 4.17552527408,
			"-0.004": 8.04812739375,
			"-0.003": 12.6773283765,
			"-0.002": 26.9492725951,
			"-0.001": 39.6886993769,
			"0.0": 36.6121861878,
			"0.001": 28.6032547904,
			"0.002": 20.5005958403,
			"0.003": 13.8190003269,
			"0.004": 12.7458950246,
			"0.005": 10.5768933757,
			"0.006": 4.88682921604,
			"0.007": 4.31043700201,
			"0.008": 2.78442730359,
			"0.009": 2.31886188229,
			"0.01": 1.42213312921,
			"0.011": 2.60422237162,
			"0.012": 1.90822201535,
			"0.013": 1.01004643942,
			"0.014": 0.767143532544,
			"0.015": 0.607095256625,
			"0.016": 0.0,
			"0.017": 0.0,
			"0.018": 0.0,
			"0.019": 0.0,
			"0.02": 0.0,
			"0.021": 0.0,
			"0.022": 0.0,
			"0.023": 0.0,
			"0.024": 0.0,
			"0.025": 0.0
		}
	}
}
