{
	 "smiles": "CN(C)CCC(O)(C1=CC=CC=C1)C1=CC=CC=C1Cl", 
	 "Tm": 393.15, 
	 "num_atms": 40, 
	 "gaussian": { 
		 "optdone": 1, 
		 "sigma_profile": "yes", 
		 "theory": "DFT", 
		 "functional": "B3LYP", 
		 "basiset": "6-31G**", 
		 "properties": { 
			 "R2extent": 6796.635, 
			 "electric_dipole_moment_norm": 2.67612555199, 
			 "electric_quadrupole_moment_norm": 13.5007451502, 
			 "total_energy": -1250.0014776, 
			 "HOMO_LUMO_gap": 0.20046, 
			 "cosmo_polarized_energy": -13.58, 
			 "cosmo_cavitation_energy": 42.07, 
			 "cosmo_dispersion_energy": -28.46, 
			 "cosmo_repulsion_energy": 2.2, 
			 "cosmo_total_nonelectrostatic_energy": 15.8, 
			 "SMD_solvation_energy": 4.43 
		},
		"coords": [
			{
				"x": 0.3008183041,
				"y": 2.0867040038,
				"z": -3.1913838599,
				"element": "C" 
			},
			{
				"x": 0.8151860297,
				"y": 0.8136815933,
				"z": -2.7021303195,
				"element": "N" 
			},
			{
				"x": 2.1656592576,
				"y": 0.5814303385,
				"z": -3.2001878795,
				"element": "C" 
			},
			{
				"x": 0.7566742706,
				"y": 0.6963829447,
				"z": -1.2422668797,
				"element": "C" 
			},
			{
				"x": -0.6777103374,
				"y": 0.4455617629,
				"z": -0.7518200826,
				"element": "C" 
			},
			{
				"x": -0.9334767418,
				"y": 0.1989718237,
				"z": 0.7663988164,
				"element": "C" 
			},
			{
				"x": -2.3043297556,
				"y": -0.2129612076,
				"z": 0.8787912111,
				"element": "O" 
			},
			{
				"x": 0.0311846305,
				"y": -0.8954403944,
				"z": 1.2665216056,
				"element": "C" 
			},
			{
				"x": -0.3440350148,
				"y": -2.2429073823,
				"z": 1.2269751122,
				"element": "C" 
			},
			{
				"x": 0.5485953363,
				"y": -3.2468053423,
				"z": 1.6043610315,
				"element": "C" 
			},
			{
				"x": 1.8359645833,
				"y": -2.9193047539,
				"z": 2.0317600513,
				"element": "C" 
			},
			{
				"x": 2.2197449792,
				"y": -1.5785177205,
				"z": 2.0810878407,
				"element": "C" 
			},
			{
				"x": 1.3252096609,
				"y": -0.5771039601,
				"z": 1.7009848231,
				"element": "C" 
			},
			{
				"x": -0.8607634534,
				"y": 1.468242373,
				"z": 1.6379926845,
				"element": "C" 
			},
			{
				"x": -0.5720678113,
				"y": 2.7235210011,
				"z": 1.0822647319,
				"element": "C" 
			},
			{
				"x": -0.5324150558,
				"y": 3.8920376042,
				"z": 1.8429341255,
				"element": "C" 
			},
			{
				"x": -0.7957423104,
				"y": 3.8366437624,
				"z": 3.2082166453,
				"element": "C" 
			},
			{
				"x": -1.1019935113,
				"y": 2.6107999841,
				"z": 3.7943026142,
				"element": "C" 
			},
			{
				"x": -1.1368335488,
				"y": 1.4487092712,
				"z": 3.0212141474,
				"element": "C" 
			},
			{
				"x": -1.5547898833,
				"y": -0.0274118928,
				"z": 3.8801493988,
				"element": "Cl" 
			},
			{
				"x": 0.323778555,
				"y": 2.0954581626,
				"z": -4.2857780827,
				"element": "H" 
			},
			{
				"x": -0.7391205611,
				"y": 2.2287413915,
				"z": -2.885241561,
				"element": "H" 
			},
			{
				"x": 0.8855098207,
				"y": 2.9577974308,
				"z": -2.8334612359,
				"element": "H" 
			},
			{
				"x": 2.9008904961,
				"y": 1.3302166117,
				"z": -2.845561892,
				"element": "H" 
			},
			{
				"x": 2.1636027214,
				"y": 0.6091842916,
				"z": -4.2948031471,
				"element": "H" 
			},
			{
				"x": 2.513329105,
				"y": -0.4080815264,
				"z": -2.8876943313,
				"element": "H" 
			},
			{
				"x": 1.371835677,
				"y": -0.1603919262,
				"z": -0.9560016919,
				"element": "H" 
			},
			{
				"x": 1.2076419976,
				"y": 1.5771549287,
				"z": -0.7465258566,
				"element": "H" 
			},
			{
				"x": -1.0126798009,
				"y": -0.4657812652,
				"z": -1.2644802544,
				"element": "H" 
			},
			{
				"x": -1.3568184473,
				"y": 1.2419410983,
				"z": -1.0717678568,
				"element": "H" 
			},
			{
				"x": -2.4903388384,
				"y": -0.8264986092,
				"z": 0.156125069,
				"element": "H" 
			},
			{
				"x": -1.3529647446,
				"y": -2.5124957224,
				"z": 0.9326529941,
				"element": "H" 
			},
			{
				"x": 0.2324493205,
				"y": -4.2858544898,
				"z": 1.5730786555,
				"element": "H" 
			},
			{
				"x": 2.5297427773,
				"y": -3.6997668932,
				"z": 2.3306483804,
				"element": "H" 
			},
			{
				"x": 3.2153309683,
				"y": -1.308027378,
				"z": 2.4218833825,
				"element": "H" 
			},
			{
				"x": 1.6332419514,
				"y": 0.4629379819,
				"z": 1.7557422094,
				"element": "H" 
			},
			{
				"x": -0.3756844419,
				"y": 2.8004695631,
				"z": 0.0210565174,
				"element": "H" 
			},
			{
				"x": -0.3003739673,
				"y": 4.8378101616,
				"z": 1.3628000218,
				"element": "H" 
			},
			{
				"x": -0.7701357645,
				"y": 4.7352054971,
				"z": 3.8173588753,
				"element": "H" 
			},
			{
				"x": -1.3214164526,
				"y": 2.5424468825,
				"z": 4.8540039861,
				"element": "H" 
			}
		],
		 "valence_orbital": [ 
			{
				"type": "occ",
				"energy": -0.25776,
				"method": "rhf"
			},
			{
				"type": "occ",
				"energy": -0.24629,
				"method": "rhf"
			},
			{
				"type": "occ",
				"energy": -0.23877,
				"method": "rhf"
			},
			{
				"type": "occ",
				"energy": -0.23717,
				"method": "rhf"
			},
			{
				"type": "occ",
				"energy": -0.21408,
				"method": "rhf"
			},
			{
				"type": "unocc",
				"energy": -0.01362,
				"method": "rhf"
			},
			{
				"type": "unocc",
				"energy": -0.01059,
				"method": "rhf"
			},
			{
				"type": "unocc",
				"energy": 0.00012,
				"method": "rhf"
			},
			{
				"type": "unocc",
				"energy": 0.0033,
				"method": "rhf"
			},
			{
				"type": "unocc",
				"energy": 0.0412,
				"method": "rhf"
			}
		],
		"cosmo_sigma_profile": { 
			"-0.025": 0.0,
			"-0.024": 0.0,
			"-0.023": 0.0,
			"-0.022": 0.0,
			"-0.021": 0.0,
			"-0.02": 0.0,
			"-0.019": 0.0,
			"-0.018": 0.0,
			"-0.017": 0.0,
			"-0.016": 0.124635349714,
			"-0.015": 0.651529026535,
			"-0.014": 1.55492144862,
			"-0.013": 0.338327574616,
			"-0.012": 1.71006105957,
			"-0.011": 0.768088400094,
			"-0.01": 0.877174489546,
			"-0.009": 1.26828391128,
			"-0.008": 1.48509950073,
			"-0.007": 3.10977329946,
			"-0.006": 10.9162844261,
			"-0.005": 19.7372975952,
			"-0.004": 27.5953973469,
			"-0.003": 29.3568511102,
			"-0.002": 30.8517819476,
			"-0.001": 36.5778241711,
			"0.0": 33.5970102944,
			"0.001": 20.5138926464,
			"0.002": 19.6830499604,
			"0.003": 20.0339613526,
			"0.004": 23.045983761,
			"0.005": 16.0382450796,
			"0.006": 11.0046108685,
			"0.007": 6.07498639503,
			"0.008": 3.08237206374,
			"0.009": 2.08733045073,
			"0.01": 2.26837339352,
			"0.011": 2.53144989547,
			"0.012": 2.62633466836,
			"0.013": 2.76346937516,
			"0.014": 0.544778709456,
			"0.015": 0.310126864194,
			"0.016": 0.35935976357,
			"0.017": 0.0611444686605,
			"0.018": 0.0,
			"0.019": 0.0,
			"0.02": 0.0,
			"0.021": 0.0,
			"0.022": 0.0,
			"0.023": 0.0,
			"0.024": 0.0,
			"0.025": 0.0
		}
	}
}
