{
	 "smiles": "CCNC1=NC(NC(C)(C)C)=NC(Cl)=N1", 
	 "Tm": 451.15, 
	 "num_atms": 31, 
	 "gaussian": { 
		 "optdone": 1, 
		 "sigma_profile": "yes", 
		 "theory": "DFT", 
		 "functional": "B3LYP", 
		 "basiset": "6-31G**", 
		 "properties": { 
			 "R2extent": 4948.9765, 
			 "electric_dipole_moment_norm": 4.40973351009, 
			 "electric_quadrupole_moment_norm": 14.8070296002, 
			 "total_energy": -1086.60891445, 
			 "HOMO_LUMO_gap": 0.22013, 
			 "cosmo_polarized_energy": -11.18, 
			 "cosmo_cavitation_energy": 35.26, 
			 "cosmo_dispersion_energy": -25.06, 
			 "cosmo_repulsion_energy": 2.03, 
			 "cosmo_total_nonelectrostatic_energy": 12.23, 
			 "SMD_solvation_energy": 2.36 
		},
		"coords": [
			{
				"x": -2.6828826289,
				"y": -3.3448363684,
				"z": -1.2790563938,
				"element": "C" 
			},
			{
				"x": -2.8130141966,
				"y": -2.7369068003,
				"z": 0.1208769181,
				"element": "C" 
			},
			{
				"x": -1.6652197866,
				"y": -1.9269178182,
				"z": 0.5114719175,
				"element": "N" 
			},
			{
				"x": -1.5109387625,
				"y": -0.6159448327,
				"z": 0.2169955713,
				"element": "C" 
			},
			{
				"x": -0.3410570127,
				"y": -0.049752473,
				"z": 0.5723379633,
				"element": "N" 
			},
			{
				"x": -0.2419933431,
				"y": 1.2533565722,
				"z": 0.2793930258,
				"element": "C" 
			},
			{
				"x": 0.8800048902,
				"y": 1.9435799752,
				"z": 0.5820724006,
				"element": "N" 
			},
			{
				"x": 2.118183666,
				"y": 1.471547973,
				"z": 1.2381189899,
				"element": "C" 
			},
			{
				"x": 3.0413724759,
				"y": 2.6988689772,
				"z": 1.3184936637,
				"element": "C" 
			},
			{
				"x": 1.8130131764,
				"y": 0.9580759462,
				"z": 2.6583418401,
				"element": "C" 
			},
			{
				"x": 2.7896257885,
				"y": 0.3721395856,
				"z": 0.3929965401,
				"element": "C" 
			},
			{
				"x": -1.2148131917,
				"y": 1.9957628251,
				"z": -0.3290627201,
				"element": "N" 
			},
			{
				"x": -2.2923323275,
				"y": 1.2988720061,
				"z": -0.6140983926,
				"element": "C" 
			},
			{
				"x": -3.5906971063,
				"y": 2.1911126572,
				"z": -1.4040410419,
				"element": "Cl" 
			},
			{
				"x": -2.539360955,
				"y": 0.0175130803,
				"z": -0.3945044495,
				"element": "N" 
			},
			{
				"x": -1.7958049982,
				"y": -3.9825979475,
				"z": -1.3559871998,
				"element": "H" 
			},
			{
				"x": -2.6075387464,
				"y": -2.5540469189,
				"z": -2.0303147552,
				"element": "H" 
			},
			{
				"x": -3.5616490388,
				"y": -3.9558383462,
				"z": -1.5110422382,
				"element": "H" 
			},
			{
				"x": -3.697060163,
				"y": -2.0983118054,
				"z": 0.1708186229,
				"element": "H" 
			},
			{
				"x": -2.9279014273,
				"y": -3.524882264,
				"z": 0.8730051663,
				"element": "H" 
			},
			{
				"x": -0.8461685752,
				"y": -2.3738298288,
				"z": 0.8963941752,
				"element": "H" 
			},
			{
				"x": 0.828416545,
				"y": 2.91512673,
				"z": 0.3103274411,
				"element": "H" 
			},
			{
				"x": 3.2678473664,
				"y": 3.0883956427,
				"z": 0.3197122175,
				"element": "H" 
			},
			{
				"x": 2.582677374,
				"y": 3.4994994983,
				"z": 1.9093937003,
				"element": "H" 
			},
			{
				"x": 3.9865333909,
				"y": 2.427610714,
				"z": 1.7960669992,
				"element": "H" 
			},
			{
				"x": 1.3531396097,
				"y": 1.7472055089,
				"z": 3.2617843807,
				"element": "H" 
			},
			{
				"x": 1.1317028698,
				"y": 0.1064787732,
				"z": 2.6217737102,
				"element": "H" 
			},
			{
				"x": 2.7396708236,
				"y": 0.6452284879,
				"z": 3.1509168776,
				"element": "H" 
			},
			{
				"x": 3.0210856643,
				"y": 0.7455383589,
				"z": -0.6096892751,
				"element": "H" 
			},
			{
				"x": 3.7250832461,
				"y": 0.0547855397,
				"z": 0.8656341602,
				"element": "H" 
			},
			{
				"x": 2.133875373,
				"y": -0.4949334482,
				"z": 0.2985701843,
				"element": "H" 
			}
		],
		 "valence_orbital": [ 
			{
				"type": "occ",
				"energy": -0.28739,
				"method": "rhf"
			},
			{
				"type": "occ",
				"energy": -0.26566,
				"method": "rhf"
			},
			{
				"type": "occ",
				"energy": -0.26322,
				"method": "rhf"
			},
			{
				"type": "occ",
				"energy": -0.24235,
				"method": "rhf"
			},
			{
				"type": "occ",
				"energy": -0.23565,
				"method": "rhf"
			},
			{
				"type": "unocc",
				"energy": -0.01552,
				"method": "rhf"
			},
			{
				"type": "unocc",
				"energy": 0.00302,
				"method": "rhf"
			},
			{
				"type": "unocc",
				"energy": 0.04753,
				"method": "rhf"
			},
			{
				"type": "unocc",
				"energy": 0.07408,
				"method": "rhf"
			},
			{
				"type": "unocc",
				"energy": 0.08322,
				"method": "rhf"
			}
		],
		"cosmo_sigma_profile": { 
			"-0.025": 0.0,
			"-0.024": 0.0,
			"-0.023": 0.0,
			"-0.022": 0.0,
			"-0.021": 0.0,
			"-0.02": 0.0,
			"-0.019": 0.0,
			"-0.018": 0.0,
			"-0.017": 0.0,
			"-0.016": 0.0,
			"-0.015": 0.0,
			"-0.014": 0.669278516877,
			"-0.013": 1.41745566059,
			"-0.012": 1.77046542407,
			"-0.011": 1.48769669258,
			"-0.01": 1.40582173911,
			"-0.009": 2.05194487578,
			"-0.008": 2.23126883819,
			"-0.007": 2.45886230427,
			"-0.006": 2.72926264864,
			"-0.005": 5.42884315707,
			"-0.004": 15.6870409728,
			"-0.003": 30.6884041037,
			"-0.002": 29.0644727521,
			"-0.001": 28.8138756836,
			"0.0": 35.0259082912,
			"0.001": 36.1888203747,
			"0.002": 19.0547927855,
			"0.003": 13.2416535772,
			"0.004": 14.8952898047,
			"0.005": 11.4242345851,
			"0.006": 5.81711413087,
			"0.007": 4.89959115712,
			"0.008": 3.05142076477,
			"0.009": 2.97365781231,
			"0.01": 1.80113810688,
			"0.011": 2.02500348412,
			"0.012": 1.32058309194,
			"0.013": 1.03107303069,
			"0.014": 0.151287376603,
			"0.015": 0.0,
			"0.016": 0.0,
			"0.017": 0.0,
			"0.018": 0.0,
			"0.019": 0.0,
			"0.02": 0.0,
			"0.021": 0.0,
			"0.022": 0.0,
			"0.023": 0.0,
			"0.024": 0.0,
			"0.025": 0.0
		}
	}
}
