{
	 "smiles": "NC1CCN(C1)C(=O)C1CCCCC1", 
	 "Tm": 346.15, 
	 "num_atms": 34, 
	 "gaussian": { 
		 "optdone": 1, 
		 "sigma_profile": "yes", 
		 "theory": "DFT", 
		 "functional": "B3LYP", 
		 "basiset": "6-31G**", 
		 "properties": { 
			 "R2extent": 3681.0183, 
			 "electric_dipole_moment_norm": 2.45066368358, 
			 "electric_quadrupole_moment_norm": 10.2720404307, 
			 "total_energy": -615.970701359, 
			 "HOMO_LUMO_gap": 0.25767, 
			 "cosmo_polarized_energy": -13.2, 
			 "cosmo_cavitation_energy": 33.11, 
			 "cosmo_dispersion_energy": -23.79, 
			 "cosmo_repulsion_energy": 1.9, 
			 "cosmo_total_nonelectrostatic_energy": 11.22, 
			 "SMD_solvation_energy": 3.23 
		},
		"coords": [
			{
				"x": 0.0615714797,
				"y": 2.5418507538,
				"z": 2.6774995032,
				"element": "N" 
			},
			{
				"x": -1.1262794683,
				"y": 2.6186684139,
				"z": 1.8190384752,
				"element": "C" 
			},
			{
				"x": -0.7259078194,
				"y": 3.0275605965,
				"z": 0.3888271815,
				"element": "C" 
			},
			{
				"x": -0.3368205143,
				"y": 1.7016009466,
				"z": -0.2943135536,
				"element": "C" 
			},
			{
				"x": -1.1102461589,
				"y": 0.6916599215,
				"z": 0.4471270724,
				"element": "N" 
			},
			{
				"x": -1.8506242542,
				"y": 1.279786341,
				"z": 1.5721843313,
				"element": "C" 
			},
			{
				"x": -1.1540202443,
				"y": -0.658202303,
				"z": 0.2257841228,
				"element": "C" 
			},
			{
				"x": -1.8448361881,
				"y": -1.3908396609,
				"z": 0.9336973232,
				"element": "O" 
			},
			{
				"x": -0.2657735499,
				"y": -1.2244125856,
				"z": -0.8874665022,
				"element": "C" 
			},
			{
				"x": -0.9638593358,
				"y": -2.4124331629,
				"z": -1.5982934216,
				"element": "C" 
			},
			{
				"x": 0.0350350388,
				"y": -3.4611538834,
				"z": -2.1360745396,
				"element": "C" 
			},
			{
				"x": 1.3488457856,
				"y": -2.8045082079,
				"z": -2.5785681712,
				"element": "C" 
			},
			{
				"x": 2.0680465941,
				"y": -2.1463587455,
				"z": -1.3765335917,
				"element": "C" 
			},
			{
				"x": 1.0811831046,
				"y": -1.6826861946,
				"z": -0.2804549052,
				"element": "C" 
			},
			{
				"x": 0.6800811527,
				"y": 1.8034808041,
				"z": 2.3455129956,
				"element": "H" 
			},
			{
				"x": -0.2152120101,
				"y": 2.2654137415,
				"z": 3.6171759358,
				"element": "H" 
			},
			{
				"x": -1.8046581614,
				"y": 3.3531377478,
				"z": 2.2648146938,
				"element": "H" 
			},
			{
				"x": 0.0860286034,
				"y": 3.7578958977,
				"z": 0.3884936413,
				"element": "H" 
			},
			{
				"x": -1.587460208,
				"y": 3.4688501165,
				"z": -0.1226664062,
				"element": "H" 
			},
			{
				"x": 0.7419517561,
				"y": 1.510919194,
				"z": -0.2156979747,
				"element": "H" 
			},
			{
				"x": -0.5906415741,
				"y": 1.7053607815,
				"z": -1.3599036221,
				"element": "H" 
			},
			{
				"x": -1.824334516,
				"y": 0.6026726002,
				"z": 2.4293281774,
				"element": "H" 
			},
			{
				"x": -2.9064297725,
				"y": 1.4316992174,
				"z": 1.3050672808,
				"element": "H" 
			},
			{
				"x": -0.0504676507,
				"y": -0.4399277099,
				"z": -1.6215586933,
				"element": "H" 
			},
			{
				"x": -1.6520889637,
				"y": -2.8759232811,
				"z": -0.8864168631,
				"element": "H" 
			},
			{
				"x": -1.5710403465,
				"y": -2.0215119959,
				"z": -2.4239911063,
				"element": "H" 
			},
			{
				"x": 0.2528415395,
				"y": -4.2039328672,
				"z": -1.3575620731,
				"element": "H" 
			},
			{
				"x": -0.4198481616,
				"y": -4.015207932,
				"z": -2.9647410858,
				"element": "H" 
			},
			{
				"x": 1.126192579,
				"y": -2.0463865524,
				"z": -3.3413770959,
				"element": "H" 
			},
			{
				"x": 2.0095688126,
				"y": -3.534497654,
				"z": -3.0593921394,
				"element": "H" 
			},
			{
				"x": 2.7792967047,
				"y": -2.8536929615,
				"z": -0.9335410397,
				"element": "H" 
			},
			{
				"x": 2.6625528425,
				"y": -1.293799543,
				"z": -1.7267004191,
				"element": "H" 
			},
			{
				"x": 0.8691315201,
				"y": -2.499252775,
				"z": 0.4193784263,
				"element": "H" 
			},
			{
				"x": 1.5321213844,
				"y": -0.8800290582,
				"z": 0.3156240432,
				"element": "H" 
			}
		],
		 "valence_orbital": [ 
			{
				"type": "occ",
				"energy": -0.29648,
				"method": "rhf"
			},
			{
				"type": "occ",
				"energy": -0.29466,
				"method": "rhf"
			},
			{
				"type": "occ",
				"energy": -0.24684,
				"method": "rhf"
			},
			{
				"type": "occ",
				"energy": -0.23581,
				"method": "rhf"
			},
			{
				"type": "occ",
				"energy": -0.22839,
				"method": "rhf"
			},
			{
				"type": "unocc",
				"energy": 0.02928,
				"method": "rhf"
			},
			{
				"type": "unocc",
				"energy": 0.05437,
				"method": "rhf"
			},
			{
				"type": "unocc",
				"energy": 0.08428,
				"method": "rhf"
			},
			{
				"type": "unocc",
				"energy": 0.09821,
				"method": "rhf"
			},
			{
				"type": "unocc",
				"energy": 0.10382,
				"method": "rhf"
			}
		],
		"cosmo_sigma_profile": { 
			"-0.025": 0.0,
			"-0.024": 0.0,
			"-0.023": 0.0,
			"-0.022": 0.0,
			"-0.021": 0.0,
			"-0.02": 0.0,
			"-0.019": 0.0,
			"-0.018": 0.0,
			"-0.017": 0.0,
			"-0.016": 0.0,
			"-0.015": 0.0,
			"-0.014": 0.0,
			"-0.013": 0.0,
			"-0.012": 0.0,
			"-0.011": 0.0,
			"-0.01": 0.720781972868,
			"-0.009": 1.95041613833,
			"-0.008": 2.95703034868,
			"-0.007": 3.72487955131,
			"-0.006": 3.87014660852,
			"-0.005": 8.35273805184,
			"-0.004": 22.7436921257,
			"-0.003": 29.5673950058,
			"-0.002": 38.5963321764,
			"-0.001": 36.5888678275,
			"0.0": 31.2759857668,
			"0.001": 23.7912614413,
			"0.002": 10.8853942196,
			"0.003": 3.63265793403,
			"0.004": 2.26585170296,
			"0.005": 2.59362628956,
			"0.006": 2.84276364628,
			"0.007": 2.74875650069,
			"0.008": 2.30249004474,
			"0.009": 2.60315474102,
			"0.01": 2.75828779259,
			"0.011": 2.23466277855,
			"0.012": 1.44136017348,
			"0.013": 2.15173481337,
			"0.014": 4.2459239018,
			"0.015": 5.2246103793,
			"0.016": 0.625314576447,
			"0.017": 0.575671526532,
			"0.018": 0.57769183184,
			"0.019": 0.464966257404,
			"0.02": 0.201685968757,
			"0.021": 0.0,
			"0.022": 0.0,
			"0.023": 0.0,
			"0.024": 0.0,
			"0.025": 0.0
		}
	}
}
