{
	 "smiles": "SC1=NN2C=CC=NC2=N1", 
	 "Tm": 508.15, 
	 "num_atms": 14, 
	 "gaussian": { 
		 "optdone": 1, 
		 "sigma_profile": "yes", 
		 "theory": "DFT", 
		 "functional": "B3LYP", 
		 "basiset": "6-31G**", 
		 "properties": { 
			 "R2extent": 1951.35, 
			 "electric_dipole_moment_norm": 4.979945575, 
			 "electric_quadrupole_moment_norm": 12.1578572512, 
			 "total_energy": -810.104309006, 
			 "HOMO_LUMO_gap": 0.17226, 
			 "cosmo_polarized_energy": -14.16, 
			 "cosmo_cavitation_energy": 20.69, 
			 "cosmo_dispersion_energy": -16.43, 
			 "cosmo_repulsion_energy": 1.26, 
			 "cosmo_total_nonelectrostatic_energy": 5.52, 
			 "SMD_solvation_energy": -1.12 
		},
		"coords": [
			{
				"x": 0.2011761107,
				"y": 3.1422384328,
				"z": -0.7183691971,
				"element": "S" 
			},
			{
				"x": 0.2255743188,
				"y": 1.6212441785,
				"z": 0.1677909473,
				"element": "C" 
			},
			{
				"x": 0.7848488257,
				"y": 0.5083228878,
				"z": -0.3337608094,
				"element": "N" 
			},
			{
				"x": 0.5636860793,
				"y": -0.3684846558,
				"z": 0.6767605507,
				"element": "N" 
			},
			{
				"x": 0.916549109,
				"y": -1.674458064,
				"z": 0.7325907918,
				"element": "C" 
			},
			{
				"x": 0.5795426093,
				"y": -2.362789527,
				"z": 1.8731634962,
				"element": "C" 
			},
			{
				"x": -0.1065897697,
				"y": -1.6720167649,
				"z": 2.904772398,
				"element": "C" 
			},
			{
				"x": -0.4512399765,
				"y": -0.3957319457,
				"z": 2.8498417626,
				"element": "N" 
			},
			{
				"x": -0.1168708121,
				"y": 0.2659525094,
				"z": 1.7313265416,
				"element": "C" 
			},
			{
				"x": -0.3283060258,
				"y": 1.5377269975,
				"z": 1.3961154194,
				"element": "N" 
			},
			{
				"x": 0.8498878691,
				"y": 2.651441713,
				"z": -1.792434555,
				"element": "H" 
			},
			{
				"x": 1.4381353083,
				"y": -2.0780355655,
				"z": -0.1265865095,
				"element": "H" 
			},
			{
				"x": 0.8348597474,
				"y": -3.4098977694,
				"z": 1.9766534505,
				"element": "H" 
			},
			{
				"x": -0.3798533935,
				"y": -2.2041124268,
				"z": 3.8137357129,
				"element": "H" 
			}
		],
		 "valence_orbital": [ 
			{
				"type": "occ",
				"energy": -0.31002,
				"method": "rhf"
			},
			{
				"type": "occ",
				"energy": -0.29301,
				"method": "rhf"
			},
			{
				"type": "occ",
				"energy": -0.28533,
				"method": "rhf"
			},
			{
				"type": "occ",
				"energy": -0.26302,
				"method": "rhf"
			},
			{
				"type": "occ",
				"energy": -0.24115,
				"method": "rhf"
			},
			{
				"type": "unocc",
				"energy": -0.06889,
				"method": "rhf"
			},
			{
				"type": "unocc",
				"energy": -0.02797,
				"method": "rhf"
			},
			{
				"type": "unocc",
				"energy": 0.01716,
				"method": "rhf"
			},
			{
				"type": "unocc",
				"energy": 0.04046,
				"method": "rhf"
			},
			{
				"type": "unocc",
				"energy": 0.0679,
				"method": "rhf"
			}
		],
		"cosmo_sigma_profile": { 
			"-0.025": 0.0,
			"-0.024": 0.0,
			"-0.023": 0.0,
			"-0.022": 0.0,
			"-0.021": 0.0,
			"-0.02": 0.0,
			"-0.019": 0.0,
			"-0.018": 0.0,
			"-0.017": 0.0,
			"-0.016": 0.0,
			"-0.015": 0.0,
			"-0.014": 0.0,
			"-0.013": 0.0,
			"-0.012": 0.86871706857,
			"-0.011": 3.90637882442,
			"-0.01": 3.15195993392,
			"-0.009": 5.52276970542,
			"-0.008": 8.89973727709,
			"-0.007": 6.76848854177,
			"-0.006": 7.75832425566,
			"-0.005": 8.41524581463,
			"-0.004": 8.77604148005,
			"-0.003": 10.1334150856,
			"-0.002": 10.1621881561,
			"-0.001": 10.933902771,
			"0.0": 9.96942408094,
			"0.001": 9.84840029148,
			"0.002": 8.54560608131,
			"0.003": 9.0653533486,
			"0.004": 7.58478112167,
			"0.005": 6.47789179246,
			"0.006": 6.79553885322,
			"0.007": 4.77901926835,
			"0.008": 2.71579319034,
			"0.009": 3.70782029838,
			"0.01": 2.84039882513,
			"0.011": 3.4885374009,
			"0.012": 3.39314183109,
			"0.013": 3.0198869438,
			"0.014": 1.65851019366,
			"0.015": 1.19898434429,
			"0.016": 0.0284030891662,
			"0.017": 0.0,
			"0.018": 0.0,
			"0.019": 0.0,
			"0.02": 0.0,
			"0.021": 0.0,
			"0.022": 0.0,
			"0.023": 0.0,
			"0.024": 0.0,
			"0.025": 0.0
		}
	}
}
