{
	 "smiles": "NC1=C(C(O)=O)C2=C(CCC2)S1", 
	 "Tm": 421.15, 
	 "num_atms": 21, 
	 "gaussian": { 
		 "optdone": 1, 
		 "sigma_profile": "yes", 
		 "theory": "DFT", 
		 "functional": "B3LYP", 
		 "basiset": "6-31G**", 
		 "properties": { 
			 "R2extent": 2362.3378, 
			 "electric_dipole_moment_norm": 5.5275497664, 
			 "electric_quadrupole_moment_norm": 21.0463767908, 
			 "total_energy": -913.666975706, 
			 "HOMO_LUMO_gap": 0.18716, 
			 "cosmo_polarized_energy": -16.02, 
			 "cosmo_cavitation_energy": 25.43, 
			 "cosmo_dispersion_energy": -19.81, 
			 "cosmo_repulsion_energy": 1.55, 
			 "cosmo_total_nonelectrostatic_energy": 7.17, 
			 "SMD_solvation_energy": 4.86 
		},
		"coords": [
			{
				"x": 2.2785794552,
				"y": 2.0961972073,
				"z": 0.4507592059,
				"element": "N" 
			},
			{
				"x": 1.1808333069,
				"y": 1.3855907076,
				"z": -0.1131454034,
				"element": "C" 
			},
			{
				"x": 0.31323187,
				"y": 0.579847428,
				"z": 0.595295007,
				"element": "C" 
			},
			{
				"x": 0.3604383866,
				"y": 0.3319354199,
				"z": 2.0710761999,
				"element": "C" 
			},
			{
				"x": 1.3392485329,
				"y": 0.9475934067,
				"z": 2.7544501435,
				"element": "O" 
			},
			{
				"x": -0.4469586255,
				"y": -0.3877987961,
				"z": 2.6223359403,
				"element": "O" 
			},
			{
				"x": -0.6701068884,
				"y": -0.0162268665,
				"z": -0.2599436974,
				"element": "C" 
			},
			{
				"x": -0.5409154584,
				"y": 0.3369083849,
				"z": -1.5706034219,
				"element": "C" 
			},
			{
				"x": -1.6088005982,
				"y": -0.2322160352,
				"z": -2.4626127029,
				"element": "C" 
			},
			{
				"x": -2.2434101094,
				"y": -1.3043925258,
				"z": -1.5204045455,
				"element": "C" 
			},
			{
				"x": -1.8638340825,
				"y": -0.9140427359,
				"z": -0.0588674167,
				"element": "C" 
			},
			{
				"x": 0.7899954952,
				"y": 1.4224673553,
				"z": -1.8312118045,
				"element": "S" 
			},
			{
				"x": 3.1758031657,
				"y": 1.787759684,
				"z": 0.082827862,
				"element": "H" 
			},
			{
				"x": 2.2067666617,
				"y": 3.1016563357,
				"z": 0.3130222715,
				"element": "H" 
			},
			{
				"x": 1.8798067704,
				"y": 1.4823472519,
				"z": 2.123249092,
				"element": "H" 
			},
			{
				"x": -2.334955773,
				"y": 0.5402283075,
				"z": -2.7507156483,
				"element": "H" 
			},
			{
				"x": -1.2242345281,
				"y": -0.6698382495,
				"z": -3.3901507713,
				"element": "H" 
			},
			{
				"x": -3.3239953368,
				"y": -1.3866430182,
				"z": -1.6644628395,
				"element": "H" 
			},
			{
				"x": -1.8088677332,
				"y": -2.2812148403,
				"z": -1.7552743987,
				"element": "H" 
			},
			{
				"x": -1.641821457,
				"y": -1.7800057733,
				"z": 0.5692713228,
				"element": "H" 
			},
			{
				"x": -2.6718030542,
				"y": -0.3692526482,
				"z": 0.445605605,
				"element": "H" 
			}
		],
		 "valence_orbital": [ 
			{
				"type": "occ",
				"energy": -0.29758,
				"method": "rhf"
			},
			{
				"type": "occ",
				"energy": -0.29315,
				"method": "rhf"
			},
			{
				"type": "occ",
				"energy": -0.25898,
				"method": "rhf"
			},
			{
				"type": "occ",
				"energy": -0.25577,
				"method": "rhf"
			},
			{
				"type": "occ",
				"energy": -0.22927,
				"method": "rhf"
			},
			{
				"type": "unocc",
				"energy": -0.04211,
				"method": "rhf"
			},
			{
				"type": "unocc",
				"energy": 0.00733,
				"method": "rhf"
			},
			{
				"type": "unocc",
				"energy": 0.01931,
				"method": "rhf"
			},
			{
				"type": "unocc",
				"energy": 0.05791,
				"method": "rhf"
			},
			{
				"type": "unocc",
				"energy": 0.08605,
				"method": "rhf"
			}
		],
		"cosmo_sigma_profile": { 
			"-0.025": 0.0,
			"-0.024": 0.0,
			"-0.023": 0.0,
			"-0.022": 0.0,
			"-0.021": 0.0,
			"-0.02": 0.0,
			"-0.019": 0.0,
			"-0.018": 0.0,
			"-0.017": 0.0,
			"-0.016": 0.0,
			"-0.015": 0.0,
			"-0.014": 1.58075660366,
			"-0.013": 2.99478457885,
			"-0.012": 3.51345716599,
			"-0.011": 3.2618840463,
			"-0.01": 2.80288096147,
			"-0.009": 2.43678463394,
			"-0.008": 2.17899760176,
			"-0.007": 2.648125043,
			"-0.006": 2.22922834135,
			"-0.005": 3.87034912096,
			"-0.004": 12.8164206861,
			"-0.003": 20.1077266519,
			"-0.002": 23.2583615625,
			"-0.001": 20.6694855556,
			"0.0": 17.5991739686,
			"0.001": 13.8984722398,
			"0.002": 13.2934952892,
			"0.003": 13.8804003331,
			"0.004": 7.66203833672,
			"0.005": 2.15507228764,
			"0.006": 2.46468627149,
			"0.007": 2.46975023025,
			"0.008": 3.22377390162,
			"0.009": 3.04606722338,
			"0.01": 2.99412041123,
			"0.011": 4.57117458052,
			"0.012": 6.11091010174,
			"0.013": 3.8049123896,
			"0.014": 1.66854536505,
			"0.015": 0.0994405836683,
			"0.016": 0.0,
			"0.017": 0.0,
			"0.018": 0.0,
			"0.019": 0.0,
			"0.02": 0.0,
			"0.021": 0.0,
			"0.022": 0.0,
			"0.023": 0.0,
			"0.024": 0.0,
			"0.025": 0.0
		}
	}
}
