{
	 "smiles": "CCCCCC(N)P(O)(O)=O", 
	 "Tm": 539.15, 
	 "num_atms": 27, 
	 "gaussian": { 
		 "optdone": 1, 
		 "sigma_profile": "yes", 
		 "theory": "DFT", 
		 "functional": "B3LYP", 
		 "basiset": "6-31G**", 
		 "properties": { 
			 "R2extent": 3581.1076, 
			 "electric_dipole_moment_norm": 4.76393177428, 
			 "electric_quadrupole_moment_norm": 20.9424185872, 
			 "total_energy": -860.144087163, 
			 "HOMO_LUMO_gap": 0.30694, 
			 "cosmo_polarized_energy": -17.86, 
			 "cosmo_cavitation_energy": 30.31, 
			 "cosmo_dispersion_energy": -22.04, 
			 "cosmo_repulsion_energy": 1.81, 
			 "cosmo_total_nonelectrostatic_energy": 10.08, 
			 "SMD_solvation_energy": 6.35 
		},
		"coords": [
			{
				"x": 0.8367630521,
				"y": 3.8266719172,
				"z": 2.4160730946,
				"element": "C" 
			},
			{
				"x": -0.1600724427,
				"y": 2.9076951521,
				"z": 1.7028567038,
				"element": "C" 
			},
			{
				"x": 0.5166881356,
				"y": 1.7880865929,
				"z": 0.9019950549,
				"element": "C" 
			},
			{
				"x": -0.4769077571,
				"y": 0.862924903,
				"z": 0.1869291957,
				"element": "C" 
			},
			{
				"x": 0.2252298976,
				"y": -0.2411916863,
				"z": -0.6149091522,
				"element": "C" 
			},
			{
				"x": -0.6785494772,
				"y": -1.2026604682,
				"z": -1.4131000119,
				"element": "C" 
			},
			{
				"x": -1.6415725433,
				"y": -0.6131925078,
				"z": -2.364298262,
				"element": "N" 
			},
			{
				"x": -1.6328653125,
				"y": -2.4275563591,
				"z": -0.4230327199,
				"element": "P" 
			},
			{
				"x": -2.7308042938,
				"y": -1.4721158733,
				"z": 0.3268763175,
				"element": "O" 
			},
			{
				"x": -2.4538815111,
				"y": -3.1837132492,
				"z": -1.5918785506,
				"element": "O" 
			},
			{
				"x": -0.8881281205,
				"y": -3.3238339694,
				"z": 0.4929003276,
				"element": "O" 
			},
			{
				"x": 1.4582276878,
				"y": 3.2646605034,
				"z": 3.122467009,
				"element": "H" 
			},
			{
				"x": 0.3239756469,
				"y": 4.6138336398,
				"z": 2.978316567,
				"element": "H" 
			},
			{
				"x": 1.5094887722,
				"y": 4.3135573996,
				"z": 1.7006838272,
				"element": "H" 
			},
			{
				"x": -0.8411365485,
				"y": 2.4625083269,
				"z": 2.4406532616,
				"element": "H" 
			},
			{
				"x": -0.7911205201,
				"y": 3.5038905071,
				"z": 1.0293975827,
				"element": "H" 
			},
			{
				"x": 1.2000265352,
				"y": 2.2326743735,
				"z": 0.1638605244,
				"element": "H" 
			},
			{
				"x": 1.1470251518,
				"y": 1.1907660643,
				"z": 1.5757977133,
				"element": "H" 
			},
			{
				"x": -1.1030688105,
				"y": 1.4683801291,
				"z": -0.4842997576,
				"element": "H" 
			},
			{
				"x": -1.1584160437,
				"y": 0.4157803054,
				"z": 0.9183686311,
				"element": "H" 
			},
			{
				"x": 0.8437191442,
				"y": -0.8489502339,
				"z": 0.0576058981,
				"element": "H" 
			},
			{
				"x": 0.9192127186,
				"y": 0.224778681,
				"z": -1.3294733537,
				"element": "H" 
			},
			{
				"x": -0.0208754644,
				"y": -1.8548297906,
				"z": -2.0023493344,
				"element": "H" 
			},
			{
				"x": -1.1537464429,
				"y": -0.1385532287,
				"z": -3.120218797,
				"element": "H" 
			},
			{
				"x": -2.219451527,
				"y": 0.0806822757,
				"z": -1.8957300355,
				"element": "H" 
			},
			{
				"x": -3.0582829055,
				"y": -1.9085856346,
				"z": 1.1268961957,
				"element": "H" 
			},
			{
				"x": -2.6039770214,
				"y": -2.5173077698,
				"z": -2.2949879294,
				"element": "H" 
			}
		],
		 "valence_orbital": [ 
			{
				"type": "occ",
				"energy": -0.32362,
				"method": "rhf"
			},
			{
				"type": "occ",
				"energy": -0.3184,
				"method": "rhf"
			},
			{
				"type": "occ",
				"energy": -0.29125,
				"method": "rhf"
			},
			{
				"type": "occ",
				"energy": -0.28158,
				"method": "rhf"
			},
			{
				"type": "occ",
				"energy": -0.26632,
				"method": "rhf"
			},
			{
				"type": "unocc",
				"energy": 0.04062,
				"method": "rhf"
			},
			{
				"type": "unocc",
				"energy": 0.06994,
				"method": "rhf"
			},
			{
				"type": "unocc",
				"energy": 0.0842,
				"method": "rhf"
			},
			{
				"type": "unocc",
				"energy": 0.09271,
				"method": "rhf"
			},
			{
				"type": "unocc",
				"energy": 0.09351,
				"method": "rhf"
			}
		],
		"cosmo_sigma_profile": { 
			"-0.025": 0.0,
			"-0.024": 0.0,
			"-0.023": 0.0,
			"-0.022": 0.0,
			"-0.021": 0.0,
			"-0.02": 0.0,
			"-0.019": 0.0701911620832,
			"-0.018": 1.47847010198,
			"-0.017": 0.379419209517,
			"-0.016": 1.12230989797,
			"-0.015": 0.68399679123,
			"-0.014": 0.973168491026,
			"-0.013": 0.872048838557,
			"-0.012": 0.885366558798,
			"-0.011": 2.62928482277,
			"-0.01": 3.96729802803,
			"-0.009": 3.51419119644,
			"-0.008": 4.99241609784,
			"-0.007": 5.19707445784,
			"-0.006": 7.14150992922,
			"-0.005": 6.34952130359,
			"-0.004": 6.94497317105,
			"-0.003": 11.7996479016,
			"-0.002": 25.1063961719,
			"-0.001": 33.1626841477,
			"0.0": 28.4275608734,
			"0.001": 22.6721621893,
			"0.002": 14.1152889741,
			"0.003": 4.17880489509,
			"0.004": 2.65558087977,
			"0.005": 4.48376526052,
			"0.006": 4.2543904439,
			"0.007": 3.76456926708,
			"0.008": 2.90036044781,
			"0.009": 3.65017308053,
			"0.01": 3.44382793527,
			"0.011": 3.17172574699,
			"0.012": 2.7931092402,
			"0.013": 1.68474451439,
			"0.014": 4.14804721781,
			"0.015": 6.67325507109,
			"0.016": 0.548066345622,
			"0.017": 0.0,
			"0.018": 0.0,
			"0.019": 0.0,
			"0.02": 0.0,
			"0.021": 0.0,
			"0.022": 0.0,
			"0.023": 0.0,
			"0.024": 0.0,
			"0.025": 0.0
		}
	}
}
