{
	 "smiles": "CS", 
	 "Tm": 151.15, 
	 "num_atms": 6, 
	 "gaussian": { 
		 "optdone": 1, 
		 "sigma_profile": "yes", 
		 "theory": "DFT", 
		 "functional": "B3LYP", 
		 "basiset": "6-31G**", 
		 "properties": { 
			 "R2extent": 1432.4887, 
			 "electric_dipole_moment_norm": 1.71856330986, 
			 "electric_quadrupole_moment_norm": 9.72990574209, 
			 "total_energy": -438.702076929, 
			 "HOMO_LUMO_gap": 0.26514, 
			 "cosmo_polarized_energy": -3.99, 
			 "cosmo_cavitation_energy": 10.48, 
			 "cosmo_dispersion_energy": -8.63, 
			 "cosmo_repulsion_energy": 0.79, 
			 "cosmo_total_nonelectrostatic_energy": 2.64, 
			 "SMD_solvation_energy": 2.14 
		},
		"coords": [
			{
				"x": 3.1579680635,
				"y": -1.0844432258,
				"z": -0.3951039336,
				"element": "C" 
			},
			{
				"x": 3.9906436769,
				"y": -0.1423817422,
				"z": 0.9411057662,
				"element": "S" 
			},
			{
				"x": 3.6227667575,
				"y": -2.0721535903,
				"z": -0.4037267086,
				"element": "H" 
			},
			{
				"x": 3.311859688,
				"y": -0.6164103305,
				"z": -1.3689572177,
				"element": "H" 
			},
			{
				"x": 2.0912400771,
				"y": -1.2010827878,
				"z": -0.1960750866,
				"element": "H" 
			},
			{
				"x": 3.297121737,
				"y": 1.0041716767,
				"z": 0.7920571803,
				"element": "H" 
			}
		],
		 "valence_orbital": [ 
			{
				"type": "occ",
				"energy": -0.44908,
				"method": "rhf"
			},
			{
				"type": "occ",
				"energy": -0.42977,
				"method": "rhf"
			},
			{
				"type": "occ",
				"energy": -0.39207,
				"method": "rhf"
			},
			{
				"type": "occ",
				"energy": -0.33222,
				"method": "rhf"
			},
			{
				"type": "occ",
				"energy": -0.23656,
				"method": "rhf"
			},
			{
				"type": "unocc",
				"energy": 0.02858,
				"method": "rhf"
			},
			{
				"type": "unocc",
				"energy": 0.07169,
				"method": "rhf"
			},
			{
				"type": "unocc",
				"energy": 0.12453,
				"method": "rhf"
			},
			{
				"type": "unocc",
				"energy": 0.14526,
				"method": "rhf"
			},
			{
				"type": "unocc",
				"energy": 0.15065,
				"method": "rhf"
			}
		],
		"cosmo_sigma_profile": { 
			"-0.025": 0.0,
			"-0.024": 0.0,
			"-0.023": 0.0,
			"-0.022": 0.0,
			"-0.021": 0.0,
			"-0.02": 0.0,
			"-0.019": 0.0,
			"-0.018": 0.0,
			"-0.017": 0.0,
			"-0.016": 0.0,
			"-0.015": 0.0,
			"-0.014": 0.0,
			"-0.013": 0.0,
			"-0.012": 0.0,
			"-0.011": 0.0,
			"-0.01": 0.0,
			"-0.009": 1.13349198682,
			"-0.008": 2.48696734683,
			"-0.007": 1.69668036886,
			"-0.006": 4.20441741506,
			"-0.005": 7.59555517972,
			"-0.004": 7.58289752454,
			"-0.003": 8.23705651121,
			"-0.002": 8.39610121528,
			"-0.001": 8.3392791262,
			"0.0": 3.80168991563,
			"0.001": 2.40960598988,
			"0.002": 2.70246892583,
			"0.003": 3.28465049881,
			"0.004": 3.06429302648,
			"0.005": 2.77922282342,
			"0.006": 4.09235905433,
			"0.007": 3.36276898262,
			"0.008": 2.70960321945,
			"0.009": 2.17765540383,
			"0.01": 2.45085185476,
			"0.011": 2.05894850834,
			"0.012": 0.322285730087,
			"0.013": 0.0,
			"0.014": 0.0,
			"0.015": 0.0,
			"0.016": 0.0,
			"0.017": 0.0,
			"0.018": 0.0,
			"0.019": 0.0,
			"0.02": 0.0,
			"0.021": 0.0,
			"0.022": 0.0,
			"0.023": 0.0,
			"0.024": 0.0,
			"0.025": 0.0
		}
	}
}
