{
	 "smiles": "COC(=O)C1=C(C)OC(=O)C=C1C", 
	 "Tm": 341.15, 
	 "num_atms": 23, 
	 "gaussian": { 
		 "optdone": 1, 
		 "sigma_profile": "yes", 
		 "theory": "DFT", 
		 "functional": "B3LYP", 
		 "basiset": "6-31G**", 
		 "properties": { 
			 "R2extent": 3153.0517, 
			 "electric_dipole_moment_norm": 4.82162304105, 
			 "electric_quadrupole_moment_norm": 17.253624261, 
			 "total_energy": -649.885594254, 
			 "HOMO_LUMO_gap": 0.17978, 
			 "cosmo_polarized_energy": -11.83, 
			 "cosmo_cavitation_energy": 27.09, 
			 "cosmo_dispersion_energy": -19.68, 
			 "cosmo_repulsion_energy": 1.55, 
			 "cosmo_total_nonelectrostatic_energy": 8.96, 
			 "SMD_solvation_energy": 7.66 
		},
		"coords": [
			{
				"x": -0.2436447556,
				"y": 0.7071752417,
				"z": -2.7405278518,
				"element": "C" 
			},
			{
				"x": 0.0136908941,
				"y": 0.1087883034,
				"z": -1.4590927377,
				"element": "O" 
			},
			{
				"x": 0.7905476381,
				"y": 0.8421866031,
				"z": -0.6279276713,
				"element": "C" 
			},
			{
				"x": 1.2131943549,
				"y": 1.9399723205,
				"z": -0.9450090867,
				"element": "O" 
			},
			{
				"x": 1.0311212814,
				"y": 0.1821674327,
				"z": 0.6823124909,
				"element": "C" 
			},
			{
				"x": 1.4008178146,
				"y": 0.9915865624,
				"z": 1.737509602,
				"element": "C" 
			},
			{
				"x": 1.5989235021,
				"y": 2.4783806864,
				"z": 1.7332775723,
				"element": "C" 
			},
			{
				"x": 1.6282966341,
				"y": 0.4895745759,
				"z": 2.9596648529,
				"element": "O" 
			},
			{
				"x": 1.532243612,
				"y": -0.8907498255,
				"z": 3.2853762301,
				"element": "C" 
			},
			{
				"x": 1.7643809011,
				"y": -1.1989785811,
				"z": 4.428141557,
				"element": "O" 
			},
			{
				"x": 1.1697186801,
				"y": -1.7303451183,
				"z": 2.1758199935,
				"element": "C" 
			},
			{
				"x": 0.9179280536,
				"y": -1.2507913839,
				"z": 0.9234586611,
				"element": "C" 
			},
			{
				"x": 0.5678919266,
				"y": -2.2409447534,
				"z": -0.1595065483,
				"element": "C" 
			},
			{
				"x": -0.8472353067,
				"y": -0.0187820916,
				"z": -3.2850831292,
				"element": "H" 
			},
			{
				"x": 0.6915077732,
				"y": 0.9062199423,
				"z": -3.2692216262,
				"element": "H" 
			},
			{
				"x": -0.7875230879,
				"y": 1.6474353922,
				"z": -2.6226479761,
				"element": "H" 
			},
			{
				"x": 0.8010756147,
				"y": 2.9888216372,
				"z": 1.1926281511,
				"element": "H" 
			},
			{
				"x": 2.5290907969,
				"y": 2.7364602744,
				"z": 1.2186012512,
				"element": "H" 
			},
			{
				"x": 1.6475205674,
				"y": 2.8263033192,
				"z": 2.7662280046,
				"element": "H" 
			},
			{
				"x": 1.1122621363,
				"y": -2.7903410636,
				"z": 2.3934964648,
				"element": "H" 
			},
			{
				"x": -0.456958471,
				"y": -2.0964810655,
				"z": -0.5096812975,
				"element": "H" 
			},
			{
				"x": 0.6729411584,
				"y": -3.2596405037,
				"z": 0.219833691,
				"element": "H" 
			},
			{
				"x": 1.2140082815,
				"y": -2.1222179048,
				"z": -1.0335505979,
				"element": "H" 
			}
		],
		 "valence_orbital": [ 
			{
				"type": "occ",
				"energy": -0.31634,
				"method": "rhf"
			},
			{
				"type": "occ",
				"energy": -0.31065,
				"method": "rhf"
			},
			{
				"type": "occ",
				"energy": -0.28465,
				"method": "rhf"
			},
			{
				"type": "occ",
				"energy": -0.27469,
				"method": "rhf"
			},
			{
				"type": "occ",
				"energy": -0.23711,
				"method": "rhf"
			},
			{
				"type": "unocc",
				"energy": -0.05733,
				"method": "rhf"
			},
			{
				"type": "unocc",
				"energy": -0.03755,
				"method": "rhf"
			},
			{
				"type": "unocc",
				"energy": 0.04593,
				"method": "rhf"
			},
			{
				"type": "unocc",
				"energy": 0.09124,
				"method": "rhf"
			},
			{
				"type": "unocc",
				"energy": 0.10751,
				"method": "rhf"
			}
		],
		"cosmo_sigma_profile": { 
			"-0.025": 0.0,
			"-0.024": 0.0,
			"-0.023": 0.0,
			"-0.022": 0.0,
			"-0.021": 0.0,
			"-0.02": 0.0,
			"-0.019": 0.0,
			"-0.018": 0.0,
			"-0.017": 0.0,
			"-0.016": 0.0,
			"-0.015": 0.0,
			"-0.014": 0.0,
			"-0.013": 0.0,
			"-0.012": 0.0,
			"-0.011": 0.0,
			"-0.01": 0.0,
			"-0.009": 0.0,
			"-0.008": 0.328962384286,
			"-0.007": 2.87724206949,
			"-0.006": 9.60794379952,
			"-0.005": 20.0017806885,
			"-0.004": 24.7713171261,
			"-0.003": 26.5142567816,
			"-0.002": 23.8092771312,
			"-0.001": 23.6219706772,
			"0.0": 15.2514681319,
			"0.001": 11.8576771245,
			"0.002": 7.45684568448,
			"0.003": 5.29373932663,
			"0.004": 4.37394591996,
			"0.005": 3.90117646448,
			"0.006": 3.49307299269,
			"0.007": 3.78931977594,
			"0.008": 3.0832710263,
			"0.009": 3.51093719199,
			"0.01": 3.90159143903,
			"0.011": 6.34979949677,
			"0.012": 8.74464892216,
			"0.013": 2.59056123225,
			"0.014": 0.035725123075,
			"0.015": 0.0,
			"0.016": 0.0,
			"0.017": 0.0,
			"0.018": 0.0,
			"0.019": 0.0,
			"0.02": 0.0,
			"0.021": 0.0,
			"0.022": 0.0,
			"0.023": 0.0,
			"0.024": 0.0,
			"0.025": 0.0
		}
	}
}
