{
	 "smiles": "FC1=C(F)C=C(NS(=O)(=O)C2=CN=C(Cl)C=C2)C=C1", 
	 "Tm": 433.15, 
	 "num_atms": 26, 
	 "gaussian": { 
		 "optdone": 1, 
		 "sigma_profile": "yes", 
		 "theory": "DFT", 
		 "functional": "B3LYP", 
		 "basiset": "6-31G**", 
		 "properties": { 
			 "R2extent": 8092.8658, 
			 "electric_dipole_moment_norm": 2.75587502801, 
			 "electric_quadrupole_moment_norm": 23.9281492774, 
			 "total_energy": -1741.29874909, 
			 "HOMO_LUMO_gap": 0.17629, 
			 "cosmo_polarized_energy": -17.25, 
			 "cosmo_cavitation_energy": 36.01, 
			 "cosmo_dispersion_energy": -25.32, 
			 "cosmo_repulsion_energy": 1.87, 
			 "cosmo_total_nonelectrostatic_energy": 12.56, 
			 "SMD_solvation_energy": 4.58 
		},
		"coords": [
			{
				"x": -2.6551648672,
				"y": 4.4397819047,
				"z": -0.1855383459,
				"element": "F" 
			},
			{
				"x": -2.474148861,
				"y": 3.121666792,
				"z": -0.0085844919,
				"element": "C" 
			},
			{
				"x": -2.9008006401,
				"y": 2.5304705562,
				"z": 1.1800298404,
				"element": "C" 
			},
			{
				"x": -3.476410231,
				"y": 3.2927795347,
				"z": 2.1224244287,
				"element": "F" 
			},
			{
				"x": -2.7177403691,
				"y": 1.1731387352,
				"z": 1.4001435866,
				"element": "C" 
			},
			{
				"x": -2.1290427302,
				"y": 0.3856458429,
				"z": 0.4000277131,
				"element": "C" 
			},
			{
				"x": -2.0003386105,
				"y": -1.0170828599,
				"z": 0.6021451788,
				"element": "N" 
			},
			{
				"x": -0.5164150276,
				"y": -1.8343868271,
				"z": 0.5297801292,
				"element": "S" 
			},
			{
				"x": 0.1035854409,
				"y": -1.4945303555,
				"z": -0.7476320745,
				"element": "O" 
			},
			{
				"x": -0.8462323965,
				"y": -3.2038366988,
				"z": 0.9205991846,
				"element": "O" 
			},
			{
				"x": 0.5166394435,
				"y": -1.1377334673,
				"z": 1.8196467517,
				"element": "C" 
			},
			{
				"x": 1.2654595826,
				"y": 0.0173391627,
				"z": 1.5842294201,
				"element": "C" 
			},
			{
				"x": 2.0276765109,
				"y": 0.5810652829,
				"z": 2.5290816619,
				"element": "N" 
			},
			{
				"x": 2.064191632,
				"y": -0.0023124678,
				"z": 3.7156233711,
				"element": "C" 
			},
			{
				"x": 3.0668314097,
				"y": 0.7600991283,
				"z": 4.9357316719,
				"element": "Cl" 
			},
			{
				"x": 1.3723511097,
				"y": -1.1719121736,
				"z": 4.0550722029,
				"element": "C" 
			},
			{
				"x": 0.5748345499,
				"y": -1.749728377,
				"z": 3.0753732808,
				"element": "C" 
			},
			{
				"x": -1.7167594915,
				"y": 0.9737152113,
				"z": -0.8031817222,
				"element": "C" 
			},
			{
				"x": -1.8775461589,
				"y": 2.3463336475,
				"z": -0.9936177926,
				"element": "C" 
			},
			{
				"x": -3.0384340627,
				"y": 0.7491927081,
				"z": 2.3462558233,
				"element": "H" 
			},
			{
				"x": -2.5760940646,
				"y": -1.4119939996,
				"z": 1.3386544472,
				"element": "H" 
			},
			{
				"x": 1.264179879,
				"y": 0.4926374566,
				"z": 0.6080373439,
				"element": "H" 
			},
			{
				"x": 1.4662268086,
				"y": -1.6050164141,
				"z": 5.0434551219,
				"element": "H" 
			},
			{
				"x": 0.0231642485,
				"y": -2.6649871341,
				"z": 3.2630462225,
				"element": "H" 
			},
			{
				"x": -1.2783602196,
				"y": 0.3565232423,
				"z": -1.5768530946,
				"element": "H" 
			},
			{
				"x": -1.5633528849,
				"y": 2.8241315691,
				"z": -1.9151498589,
				"element": "H" 
			}
		],
		 "valence_orbital": [ 
			{
				"type": "occ",
				"energy": -0.3219,
				"method": "rhf"
			},
			{
				"type": "occ",
				"energy": -0.29694,
				"method": "rhf"
			},
			{
				"type": "occ",
				"energy": -0.28474,
				"method": "rhf"
			},
			{
				"type": "occ",
				"energy": -0.27677,
				"method": "rhf"
			},
			{
				"type": "occ",
				"energy": -0.24673,
				"method": "rhf"
			},
			{
				"type": "unocc",
				"energy": -0.07044,
				"method": "rhf"
			},
			{
				"type": "unocc",
				"energy": -0.06129,
				"method": "rhf"
			},
			{
				"type": "unocc",
				"energy": -0.03142,
				"method": "rhf"
			},
			{
				"type": "unocc",
				"energy": -0.02317,
				"method": "rhf"
			},
			{
				"type": "unocc",
				"energy": 0.01618,
				"method": "rhf"
			}
		],
		"cosmo_sigma_profile": { 
			"-0.025": 0.0,
			"-0.024": 0.0,
			"-0.023": 0.0,
			"-0.022": 0.0,
			"-0.021": 0.0,
			"-0.02": 0.0,
			"-0.019": 0.0,
			"-0.018": 0.0,
			"-0.017": 0.204518155117,
			"-0.016": 1.25426480124,
			"-0.015": 1.34624894388,
			"-0.014": 1.74302152438,
			"-0.013": 0.898826161396,
			"-0.012": 1.35740570709,
			"-0.011": 1.52516511045,
			"-0.01": 2.44303421663,
			"-0.009": 6.2877956732,
			"-0.008": 8.63452871451,
			"-0.007": 7.7997302311,
			"-0.006": 10.9371302938,
			"-0.005": 7.4448241079,
			"-0.004": 11.7040764506,
			"-0.003": 15.5967427698,
			"-0.002": 24.9183291426,
			"-0.001": 28.3357970475,
			"0.0": 25.5960889955,
			"0.001": 19.5271474377,
			"0.002": 18.2733561688,
			"0.003": 31.5617598375,
			"0.004": 23.8044800685,
			"0.005": 6.46550200348,
			"0.006": 4.9345840195,
			"0.007": 5.4452250426,
			"0.008": 4.46804637902,
			"0.009": 6.26724487233,
			"0.01": 9.47864492812,
			"0.011": 3.5685089718,
			"0.012": 0.819591210372,
			"0.013": 0.562460563497,
			"0.014": 0.127047769104,
			"0.015": 0.0,
			"0.016": 0.0,
			"0.017": 0.0,
			"0.018": 0.0,
			"0.019": 0.0,
			"0.02": 0.0,
			"0.021": 0.0,
			"0.022": 0.0,
			"0.023": 0.0,
			"0.024": 0.0,
			"0.025": 0.0
		}
	}
}
