{
	 "smiles": "CC(F)(Cl)CCl", 
	 "Tm": 181.45, 
	 "num_atms": 11, 
	 "gaussian": { 
		 "optdone": 1, 
		 "sigma_profile": "yes", 
		 "theory": "DFT", 
		 "functional": "B3LYP", 
		 "basiset": "6-31G**", 
		 "properties": { 
			 "R2extent": 1340.0572, 
			 "electric_dipole_moment_norm": 1.91893287793, 
			 "electric_quadrupole_moment_norm": 5.77484327666, 
			 "total_energy": -1137.56286217, 
			 "HOMO_LUMO_gap": 0.30784, 
			 "cosmo_polarized_energy": -5.39, 
			 "cosmo_cavitation_energy": 17.96, 
			 "cosmo_dispersion_energy": -13.3, 
			 "cosmo_repulsion_energy": 1.13, 
			 "cosmo_total_nonelectrostatic_energy": 5.79, 
			 "SMD_solvation_energy": 2.99 
		},
		"coords": [
			{
				"x": -1.9336332248,
				"y": 1.8971560368,
				"z": -0.4749231048,
				"element": "C" 
			},
			{
				"x": -0.7955862225,
				"y": 1.5156440998,
				"z": 0.4485899385,
				"element": "C" 
			},
			{
				"x": 0.1373627731,
				"y": 2.5328691194,
				"z": 0.4518381386,
				"element": "F" 
			},
			{
				"x": -1.406536072,
				"y": 1.3522587497,
				"z": 2.1563516987,
				"element": "Cl" 
			},
			{
				"x": 0.0031413659,
				"y": 0.2702442678,
				"z": 0.0554120916,
				"element": "C" 
			},
			{
				"x": -0.9916217935,
				"y": -1.2186316424,
				"z": -0.1059946953,
				"element": "Cl" 
			},
			{
				"x": -1.5398331743,
				"y": 2.0297341482,
				"z": -1.4876869933,
				"element": "H" 
			},
			{
				"x": -2.3727756607,
				"y": 2.8380145312,
				"z": -0.1390381102,
				"element": "H" 
			},
			{
				"x": -2.7010571945,
				"y": 1.1227999715,
				"z": -0.4883793978,
				"element": "H" 
			},
			{
				"x": 0.466377019,
				"y": 0.4611825799,
				"z": -0.9144635914,
				"element": "H" 
			},
			{
				"x": 0.7751621843,
				"y": 0.0813281379,
				"z": 0.8003940253,
				"element": "H" 
			}
		],
		 "valence_orbital": [ 
			{
				"type": "occ",
				"energy": -0.36927,
				"method": "rhf"
			},
			{
				"type": "occ",
				"energy": -0.32246,
				"method": "rhf"
			},
			{
				"type": "occ",
				"energy": -0.31774,
				"method": "rhf"
			},
			{
				"type": "occ",
				"energy": -0.30952,
				"method": "rhf"
			},
			{
				"type": "occ",
				"energy": -0.30633,
				"method": "rhf"
			},
			{
				"type": "unocc",
				"energy": 0.00151,
				"method": "rhf"
			},
			{
				"type": "unocc",
				"energy": 0.01603,
				"method": "rhf"
			},
			{
				"type": "unocc",
				"energy": 0.08114,
				"method": "rhf"
			},
			{
				"type": "unocc",
				"energy": 0.11205,
				"method": "rhf"
			},
			{
				"type": "unocc",
				"energy": 0.13035,
				"method": "rhf"
			}
		],
		"cosmo_sigma_profile": { 
			"-0.025": 0.0,
			"-0.024": 0.0,
			"-0.023": 0.0,
			"-0.022": 0.0,
			"-0.021": 0.0,
			"-0.02": 0.0,
			"-0.019": 0.0,
			"-0.018": 0.0,
			"-0.017": 0.0,
			"-0.016": 0.0,
			"-0.015": 0.0,
			"-0.014": 0.0,
			"-0.013": 0.0,
			"-0.012": 0.0,
			"-0.011": 0.0,
			"-0.01": 0.50824141622,
			"-0.009": 3.67423270738,
			"-0.008": 4.3415765554,
			"-0.007": 4.50352624823,
			"-0.006": 7.19227332435,
			"-0.005": 7.17668039258,
			"-0.004": 8.60860782747,
			"-0.003": 8.27973486815,
			"-0.002": 9.84384855035,
			"-0.001": 9.42851747305,
			"0.0": 8.85289659455,
			"0.001": 7.58792639194,
			"0.002": 8.9060494819,
			"0.003": 13.1649212362,
			"0.004": 19.3231260843,
			"0.005": 18.9644835456,
			"0.006": 5.47652699743,
			"0.007": 0.155733150864,
			"0.008": 0.0,
			"0.009": 0.0,
			"0.01": 0.0,
			"0.011": 0.0,
			"0.012": 0.0,
			"0.013": 0.0,
			"0.014": 0.0,
			"0.015": 0.0,
			"0.016": 0.0,
			"0.017": 0.0,
			"0.018": 0.0,
			"0.019": 0.0,
			"0.02": 0.0,
			"0.021": 0.0,
			"0.022": 0.0,
			"0.023": 0.0,
			"0.024": 0.0,
			"0.025": 0.0
		}
	}
}
