{
	 "smiles": "CC1=CC(CC(O)=O)=CC(C)=C1", 
	 "Tm": 374.15, 
	 "num_atms": 24, 
	 "gaussian": { 
		 "optdone": 1, 
		 "sigma_profile": "yes", 
		 "theory": "DFT", 
		 "functional": "B3LYP", 
		 "basiset": "6-31G**", 
		 "properties": { 
			 "R2extent": 3252.0577, 
			 "electric_dipole_moment_norm": 1.09625590534, 
			 "electric_quadrupole_moment_norm": 9.76954349292, 
			 "total_energy": -538.77634432, 
			 "HOMO_LUMO_gap": 0.23307, 
			 "cosmo_polarized_energy": -11.16, 
			 "cosmo_cavitation_energy": 28.12, 
			 "cosmo_dispersion_energy": -19.87, 
			 "cosmo_repulsion_energy": 1.63, 
			 "cosmo_total_nonelectrostatic_energy": 9.88, 
			 "SMD_solvation_energy": 6.1 
		},
		"coords": [
			{
				"x": -1.3607297436,
				"y": -0.3389854146,
				"z": -3.0984659136,
				"element": "C" 
			},
			{
				"x": -1.0209885769,
				"y": 0.4993893147,
				"z": -1.8880046158,
				"element": "C" 
			},
			{
				"x": 0.0928297929,
				"y": 0.1965044282,
				"z": -1.0971498362,
				"element": "C" 
			},
			{
				"x": 0.4304845282,
				"y": 0.9815783264,
				"z": 0.0090171234,
				"element": "C" 
			},
			{
				"x": 1.6366960069,
				"y": 0.6405069945,
				"z": 0.8505218621,
				"element": "C" 
			},
			{
				"x": 2.9246493529,
				"y": 1.3056908127,
				"z": 0.3870890544,
				"element": "C" 
			},
			{
				"x": 3.9591351529,
				"y": 0.9496588644,
				"z": 1.1926724961,
				"element": "O" 
			},
			{
				"x": 3.0604309885,
				"y": 2.050869207,
				"z": -0.5546830039,
				"element": "O" 
			},
			{
				"x": -0.3677416274,
				"y": 2.0838538099,
				"z": 0.3280466152,
				"element": "C" 
			},
			{
				"x": -1.4882745531,
				"y": 2.4143787849,
				"z": -0.441979897,
				"element": "C" 
			},
			{
				"x": -2.3279560961,
				"y": 3.624831076,
				"z": -0.1054539367,
				"element": "C" 
			},
			{
				"x": -1.8019090534,
				"y": 1.6082951212,
				"z": -1.5423625084,
				"element": "C" 
			},
			{
				"x": -0.8611794736,
				"y": 0.0444774174,
				"z": -3.9970685517,
				"element": "H" 
			},
			{
				"x": -2.4364317307,
				"y": -0.3364226284,
				"z": -3.2991472235,
				"element": "H" 
			},
			{
				"x": -1.0421573068,
				"y": -1.3779040886,
				"z": -2.9694355345,
				"element": "H" 
			},
			{
				"x": 0.7046690583,
				"y": -0.6681239328,
				"z": -1.3463142672,
				"element": "H" 
			},
			{
				"x": 1.4868464599,
				"y": 0.927462816,
				"z": 1.8981065252,
				"element": "H" 
			},
			{
				"x": 1.821238334,
				"y": -0.4402208532,
				"z": 0.8644886209,
				"element": "H" 
			},
			{
				"x": 4.740948483,
				"y": 1.4070907633,
				"z": 0.8404388412,
				"element": "H" 
			},
			{
				"x": -0.1158422567,
				"y": 2.6943604466,
				"z": 1.1928242328,
				"element": "H" 
			},
			{
				"x": -1.9530405902,
				"y": 4.5200378186,
				"z": -0.6174350685,
				"element": "H" 
			},
			{
				"x": -2.3149281818,
				"y": 3.8365819841,
				"z": 0.9680805891,
				"element": "H" 
			},
			{
				"x": -3.36957601,
				"y": 3.4881897295,
				"z": -0.4116803011,
				"element": "H" 
			},
			{
				"x": -2.6785729573,
				"y": 1.8468992023,
				"z": -2.1416053023,
				"element": "H" 
			}
		],
		 "valence_orbital": [ 
			{
				"type": "occ",
				"energy": -0.33067,
				"method": "rhf"
			},
			{
				"type": "occ",
				"energy": -0.31669,
				"method": "rhf"
			},
			{
				"type": "occ",
				"energy": -0.27307,
				"method": "rhf"
			},
			{
				"type": "occ",
				"energy": -0.23495,
				"method": "rhf"
			},
			{
				"type": "occ",
				"energy": -0.23132,
				"method": "rhf"
			},
			{
				"type": "unocc",
				"energy": 0.00175,
				"method": "rhf"
			},
			{
				"type": "unocc",
				"energy": 0.00195,
				"method": "rhf"
			},
			{
				"type": "unocc",
				"energy": 0.01759,
				"method": "rhf"
			},
			{
				"type": "unocc",
				"energy": 0.08129,
				"method": "rhf"
			},
			{
				"type": "unocc",
				"energy": 0.0917,
				"method": "rhf"
			}
		],
		"cosmo_sigma_profile": { 
			"-0.025": 0.0,
			"-0.024": 0.0,
			"-0.023": 0.0,
			"-0.022": 0.0,
			"-0.021": 0.0,
			"-0.02": 0.0,
			"-0.019": 0.0,
			"-0.018": 0.477311567555,
			"-0.017": 1.05955986212,
			"-0.016": 0.666154039109,
			"-0.015": 1.0077754587,
			"-0.014": 0.695319671261,
			"-0.013": 0.653608431975,
			"-0.012": 0.59596323798,
			"-0.011": 0.696194479125,
			"-0.01": 0.983120087611,
			"-0.009": 0.476868642379,
			"-0.008": 0.526706358762,
			"-0.007": 3.02726168632,
			"-0.006": 7.94712410744,
			"-0.005": 10.5577292898,
			"-0.004": 20.6491852346,
			"-0.003": 23.7613093772,
			"-0.002": 20.9183647147,
			"-0.001": 19.2332754533,
			"0.0": 24.8346374617,
			"0.001": 14.0098891198,
			"0.002": 9.17108899731,
			"0.003": 8.04685547851,
			"0.004": 7.31857846418,
			"0.005": 8.27641867978,
			"0.006": 9.14801505457,
			"0.007": 5.63606840838,
			"0.008": 2.99647777664,
			"0.009": 4.7305727213,
			"0.01": 2.96623382244,
			"0.011": 4.14017002626,
			"0.012": 5.07765007725,
			"0.013": 1.11367551772,
			"0.014": 0.0142448543011,
			"0.015": 0.0,
			"0.016": 0.0,
			"0.017": 0.0,
			"0.018": 0.0,
			"0.019": 0.0,
			"0.02": 0.0,
			"0.021": 0.0,
			"0.022": 0.0,
			"0.023": 0.0,
			"0.024": 0.0,
			"0.025": 0.0
		}
	}
}
