{
	 "smiles": "CC1=CC=C(CC2=CC=CC=C2)C=C1", 
	 "Tm": 277.94, 
	 "num_atms": 28, 
	 "gaussian": { 
		 "optdone": 1, 
		 "sigma_profile": "yes", 
		 "theory": "DFT", 
		 "functional": "B3LYP", 
		 "basiset": "6-31G**", 
		 "properties": { 
			 "R2extent": 4201.3585, 
			 "electric_dipole_moment_norm": 0.346040199977, 
			 "electric_quadrupole_moment_norm": 4.87313977124, 
			 "total_energy": -541.943013945, 
			 "HOMO_LUMO_gap": 0.22317, 
			 "cosmo_polarized_energy": -5.36, 
			 "cosmo_cavitation_energy": 31.27, 
			 "cosmo_dispersion_energy": -22.23, 
			 "cosmo_repulsion_energy": 1.76, 
			 "cosmo_total_nonelectrostatic_energy": 10.8, 
			 "SMD_solvation_energy": 5.09 
		},
		"coords": [
			{
				"x": -4.1858950515,
				"y": -4.358936819,
				"z": 0.1149765909,
				"element": "C" 
			},
			{
				"x": -3.0849060841,
				"y": -3.3833127133,
				"z": 0.459547287,
				"element": "C" 
			},
			{
				"x": -3.3009289299,
				"y": -1.9983518643,
				"z": 0.3811367098,
				"element": "C" 
			},
			{
				"x": -2.2871748794,
				"y": -1.0927089715,
				"z": 0.6784748521,
				"element": "C" 
			},
			{
				"x": -1.0152923854,
				"y": -1.5362437606,
				"z": 1.0719263803,
				"element": "C" 
			},
			{
				"x": 0.0826529561,
				"y": -0.5450942086,
				"z": 1.4206226206,
				"element": "C" 
			},
			{
				"x": 0.4249867795,
				"y": 0.4385006833,
				"z": 0.3125298029,
				"element": "C" 
			},
			{
				"x": 0.8024940981,
				"y": -0.018623485,
				"z": -0.9589180809,
				"element": "C" 
			},
			{
				"x": 1.1400362469,
				"y": 0.8796918651,
				"z": -1.969689234,
				"element": "C" 
			},
			{
				"x": 1.1027872153,
				"y": 2.2561177679,
				"z": -1.729186914,
				"element": "C" 
			},
			{
				"x": 0.725485166,
				"y": 2.7233118379,
				"z": -0.4707027122,
				"element": "C" 
			},
			{
				"x": 0.389550569,
				"y": 1.8189893841,
				"z": 0.5402959169,
				"element": "C" 
			},
			{
				"x": -0.7986015223,
				"y": -2.9146566069,
				"z": 1.1508683078,
				"element": "C" 
			},
			{
				"x": -1.8170453973,
				"y": -3.8234002071,
				"z": 0.8504071937,
				"element": "C" 
			},
			{
				"x": -5.1265232869,
				"y": -4.0929112186,
				"z": 0.6095364408,
				"element": "H" 
			},
			{
				"x": -4.3838237265,
				"y": -4.3729053396,
				"z": -0.9639688884,
				"element": "H" 
			},
			{
				"x": -3.9253271543,
				"y": -5.3779767832,
				"z": 0.4147915051,
				"element": "H" 
			},
			{
				"x": -4.278725113,
				"y": -1.6268039647,
				"z": 0.0824005411,
				"element": "H" 
			},
			{
				"x": -2.4799703881,
				"y": -0.0255667899,
				"z": 0.6013475873,
				"element": "H" 
			},
			{
				"x": -0.2074579927,
				"y": 0.0217237979,
				"z": 2.3143660044,
				"element": "H" 
			},
			{
				"x": 0.984447056,
				"y": -1.1050406798,
				"z": 1.6991565411,
				"element": "H" 
			},
			{
				"x": 0.8233816555,
				"y": -1.0874222085,
				"z": -1.1557266348,
				"element": "H" 
			},
			{
				"x": 1.4313254332,
				"y": 0.5063471391,
				"z": -2.9477077724,
				"element": "H" 
			},
			{
				"x": 1.3641942261,
				"y": 2.9562314665,
				"z": -2.5175599047,
				"element": "H" 
			},
			{
				"x": 0.6902996575,
				"y": 3.7911445522,
				"z": -0.272796634,
				"element": "H" 
			},
			{
				"x": 0.098598788,
				"y": 2.190590089,
				"z": 1.5201371756,
				"element": "H" 
			},
			{
				"x": 0.1767277105,
				"y": -3.2865712152,
				"z": 1.4565720836,
				"element": "H" 
			},
			{
				"x": -1.6195956461,
				"y": -4.8904217472,
				"z": 0.9220632341,
				"element": "H" 
			}
		],
		 "valence_orbital": [ 
			{
				"type": "occ",
				"energy": -0.32377,
				"method": "rhf"
			},
			{
				"type": "occ",
				"energy": -0.24609,
				"method": "rhf"
			},
			{
				"type": "occ",
				"energy": -0.24409,
				"method": "rhf"
			},
			{
				"type": "occ",
				"energy": -0.24007,
				"method": "rhf"
			},
			{
				"type": "occ",
				"energy": -0.22509,
				"method": "rhf"
			},
			{
				"type": "unocc",
				"energy": -0.00192,
				"method": "rhf"
			},
			{
				"type": "unocc",
				"energy": 0.00132,
				"method": "rhf"
			},
			{
				"type": "unocc",
				"energy": 0.004,
				"method": "rhf"
			},
			{
				"type": "unocc",
				"energy": 0.01334,
				"method": "rhf"
			},
			{
				"type": "unocc",
				"energy": 0.09778,
				"method": "rhf"
			}
		],
		"cosmo_sigma_profile": { 
			"-0.025": 0.0,
			"-0.024": 0.0,
			"-0.023": 0.0,
			"-0.022": 0.0,
			"-0.021": 0.0,
			"-0.02": 0.0,
			"-0.019": 0.0,
			"-0.018": 0.0,
			"-0.017": 0.0,
			"-0.016": 0.0,
			"-0.015": 0.0,
			"-0.014": 0.0,
			"-0.013": 0.0,
			"-0.012": 0.0,
			"-0.011": 0.0,
			"-0.01": 0.0,
			"-0.009": 0.0,
			"-0.008": 0.0,
			"-0.007": 0.0,
			"-0.006": 1.48757421964,
			"-0.005": 17.2716943678,
			"-0.004": 27.121314328,
			"-0.003": 29.6722349491,
			"-0.002": 27.2157817245,
			"-0.001": 24.1057579772,
			"0.0": 22.0328458326,
			"0.001": 18.2772313324,
			"0.002": 13.6945440779,
			"0.003": 13.7534737739,
			"0.004": 14.6764553917,
			"0.005": 16.1479696909,
			"0.006": 16.0667644062,
			"0.007": 6.78146999901,
			"0.008": 0.0,
			"0.009": 0.0,
			"0.01": 0.0,
			"0.011": 0.0,
			"0.012": 0.0,
			"0.013": 0.0,
			"0.014": 0.0,
			"0.015": 0.0,
			"0.016": 0.0,
			"0.017": 0.0,
			"0.018": 0.0,
			"0.019": 0.0,
			"0.02": 0.0,
			"0.021": 0.0,
			"0.022": 0.0,
			"0.023": 0.0,
			"0.024": 0.0,
			"0.025": 0.0
		}
	}
}
