{
	 "smiles": "CN1C=C(CCC(O)=O)C=N1", 
	 "Tm": 411.15, 
	 "num_atms": 21, 
	 "gaussian": { 
		 "optdone": 1, 
		 "sigma_profile": "yes", 
		 "theory": "DFT", 
		 "functional": "B3LYP", 
		 "basiset": "6-31G**", 
		 "properties": { 
			 "R2extent": 3473.0658, 
			 "electric_dipole_moment_norm": 4.30636638595, 
			 "electric_quadrupole_moment_norm": 24.7884623763, 
			 "total_energy": -532.709912733, 
			 "HOMO_LUMO_gap": 0.24519, 
			 "cosmo_polarized_energy": -19.08, 
			 "cosmo_cavitation_energy": 25.69, 
			 "cosmo_dispersion_energy": -18.46, 
			 "cosmo_repulsion_energy": 1.52, 
			 "cosmo_total_nonelectrostatic_energy": 8.75, 
			 "SMD_solvation_energy": 5.11 
		},
		"coords": [
			{
				"x": -0.4074668514,
				"y": -1.0446839457,
				"z": 3.1300690122,
				"element": "C" 
			},
			{
				"x": -0.4403256101,
				"y": -0.6365437025,
				"z": 1.738766512,
				"element": "N" 
			},
			{
				"x": -1.5282065741,
				"y": -0.3291732137,
				"z": 0.9813643549,
				"element": "C" 
			},
			{
				"x": -1.0814647756,
				"y": -0.1036665111,
				"z": -0.3109030775,
				"element": "C" 
			},
			{
				"x": -1.8888114605,
				"y": 0.3037476875,
				"z": -1.5105742636,
				"element": "C" 
			},
			{
				"x": -1.7677197998,
				"y": 1.8022626379,
				"z": -1.832399419,
				"element": "C" 
			},
			{
				"x": -2.605338725,
				"y": 2.2188404984,
				"z": -3.0342898736,
				"element": "C" 
			},
			{
				"x": -2.5010680615,
				"y": 3.5300010559,
				"z": -3.3900395728,
				"element": "O" 
			},
			{
				"x": -3.3288553653,
				"y": 1.4825325505,
				"z": -3.656369853,
				"element": "O" 
			},
			{
				"x": 0.3168783358,
				"y": -0.3120760948,
				"z": -0.2171654776,
				"element": "C" 
			},
			{
				"x": 0.7003474602,
				"y": -0.6378861042,
				"z": 1.0171998426,
				"element": "N" 
			},
			{
				"x": -1.2910162792,
				"y": -0.6567405453,
				"z": 3.6411362535,
				"element": "H" 
			},
			{
				"x": 0.4903142634,
				"y": -0.6342967788,
				"z": 3.5948022179,
				"element": "H" 
			},
			{
				"x": -0.3882084429,
				"y": -2.1357875728,
				"z": 3.2223190387,
				"element": "H" 
			},
			{
				"x": -2.522383497,
				"y": -0.2973968117,
				"z": 1.4050997551,
				"element": "H" 
			},
			{
				"x": -2.9454890247,
				"y": 0.0637867773,
				"z": -1.3591217826,
				"element": "H" 
			},
			{
				"x": -1.578668651,
				"y": -0.2670038222,
				"z": -2.3923380495,
				"element": "H" 
			},
			{
				"x": -2.0782504731,
				"y": 2.4029928174,
				"z": -0.9663606869,
				"element": "H" 
			},
			{
				"x": -0.719317885,
				"y": 2.0700373791,
				"z": -2.0222289971,
				"element": "H" 
			},
			{
				"x": -1.8835534263,
				"y": 3.9871005073,
				"z": -2.8014090619,
				"element": "H" 
			},
			{
				"x": 1.0581048432,
				"y": -0.2382468083,
				"z": -1.0033568719,
				"element": "H" 
			}
		],
		 "valence_orbital": [ 
			{
				"type": "occ",
				"energy": -0.31553,
				"method": "rhf"
			},
			{
				"type": "occ",
				"energy": -0.28374,
				"method": "rhf"
			},
			{
				"type": "occ",
				"energy": -0.27319,
				"method": "rhf"
			},
			{
				"type": "occ",
				"energy": -0.24913,
				"method": "rhf"
			},
			{
				"type": "occ",
				"energy": -0.23557,
				"method": "rhf"
			},
			{
				"type": "unocc",
				"energy": 0.00962,
				"method": "rhf"
			},
			{
				"type": "unocc",
				"energy": 0.01838,
				"method": "rhf"
			},
			{
				"type": "unocc",
				"energy": 0.05318,
				"method": "rhf"
			},
			{
				"type": "unocc",
				"energy": 0.06665,
				"method": "rhf"
			},
			{
				"type": "unocc",
				"energy": 0.09546,
				"method": "rhf"
			}
		],
		"cosmo_sigma_profile": { 
			"-0.025": 0.0,
			"-0.024": 0.0,
			"-0.023": 0.0,
			"-0.022": 0.0,
			"-0.021": 0.0,
			"-0.02": 0.0,
			"-0.019": 0.432858871099,
			"-0.018": 1.06543388652,
			"-0.017": 1.1984315902,
			"-0.016": 1.12501998348,
			"-0.015": 1.22048461515,
			"-0.014": 0.699068763105,
			"-0.013": 0.941238163132,
			"-0.012": 1.08296403283,
			"-0.011": 1.33894369211,
			"-0.01": 1.40642990706,
			"-0.009": 1.74975717967,
			"-0.008": 4.84097127346,
			"-0.007": 7.37040209859,
			"-0.006": 12.5408112244,
			"-0.005": 13.6063722009,
			"-0.004": 21.1940796349,
			"-0.003": 18.8603067015,
			"-0.002": 11.7619111832,
			"-0.001": 9.4795438914,
			"0.0": 8.31888174177,
			"0.001": 6.93548894863,
			"0.002": 6.51868244536,
			"0.003": 7.12286555503,
			"0.004": 7.77224935047,
			"0.005": 7.81868909972,
			"0.006": 6.21479985045,
			"0.007": 4.44103807013,
			"0.008": 4.94908094331,
			"0.009": 4.95512733526,
			"0.01": 5.0857407649,
			"0.011": 7.05479641735,
			"0.012": 7.54785108981,
			"0.013": 2.99690100463,
			"0.014": 1.01012545084,
			"0.015": 1.20390802555,
			"0.016": 0.852476170034,
			"0.017": 0.126421379126,
			"0.018": 0.0,
			"0.019": 0.0,
			"0.02": 0.0,
			"0.021": 0.0,
			"0.022": 0.0,
			"0.023": 0.0,
			"0.024": 0.0,
			"0.025": 0.0
		}
	}
}
