{
	 "smiles": "CC(=CC1=CC=CC=C1)C(Cl)=O", 
	 "Tm": 318.65, 
	 "num_atms": 21, 
	 "gaussian": { 
		 "optdone": 1, 
		 "sigma_profile": "yes", 
		 "theory": "DFT", 
		 "functional": "B3LYP", 
		 "basiset": "6-31G**", 
		 "properties": { 
			 "R2extent": 2743.1131, 
			 "electric_dipole_moment_norm": 3.22123580168, 
			 "electric_quadrupole_moment_norm": 13.4415360261, 
			 "total_energy": -921.893714013, 
			 "HOMO_LUMO_gap": 0.17138, 
			 "cosmo_polarized_energy": -7.37, 
			 "cosmo_cavitation_energy": 27.12, 
			 "cosmo_dispersion_energy": -19.17, 
			 "cosmo_repulsion_energy": 1.55, 
			 "cosmo_total_nonelectrostatic_energy": 9.5, 
			 "SMD_solvation_energy": 5.14 
		},
		"coords": [
			{
				"x": 1.4907102643,
				"y": 3.4172018727,
				"z": -0.591998807,
				"element": "C" 
			},
			{
				"x": 1.2336501948,
				"y": 1.9730745269,
				"z": -0.2225939936,
				"element": "C" 
			},
			{
				"x": -0.0081592318,
				"y": 1.4637307826,
				"z": -0.1012966069,
				"element": "C" 
			},
			{
				"x": -0.4455831167,
				"y": 0.1426645668,
				"z": 0.3690080648,
				"element": "C" 
			},
			{
				"x": -1.6536889464,
				"y": -0.38206234,
				"z": -0.1263645376,
				"element": "C" 
			},
			{
				"x": -2.1167244987,
				"y": -1.6277119722,
				"z": 0.2891247129,
				"element": "C" 
			},
			{
				"x": -1.3916226361,
				"y": -2.3651792756,
				"z": 1.2280818055,
				"element": "C" 
			},
			{
				"x": -0.2065821175,
				"y": -1.8439290152,
				"z": 1.7518497826,
				"element": "C" 
			},
			{
				"x": 0.2604535538,
				"y": -0.6006200461,
				"z": 1.3317735727,
				"element": "C" 
			},
			{
				"x": 2.4957495787,
				"y": 1.2261964496,
				"z": 0.0442214757,
				"element": "C" 
			},
			{
				"x": 2.73475924,
				"y": -0.2505087533,
				"z": -1.0140590558,
				"element": "Cl" 
			},
			{
				"x": 3.3736574615,
				"y": 1.5679349918,
				"z": 0.776833297,
				"element": "O" 
			},
			{
				"x": 2.1076784822,
				"y": 3.4960867102,
				"z": -1.4947651991,
				"element": "H" 
			},
			{
				"x": 0.5492908237,
				"y": 3.9421293137,
				"z": -0.7693255413,
				"element": "H" 
			},
			{
				"x": 2.0314984722,
				"y": 3.9254094281,
				"z": 0.213521441,
				"element": "H" 
			},
			{
				"x": -0.8201856844,
				"y": 2.1387240454,
				"z": -0.3713168224,
				"element": "H" 
			},
			{
				"x": -2.2219330286,
				"y": 0.1909552855,
				"z": -0.8545919582,
				"element": "H" 
			},
			{
				"x": -3.045242094,
				"y": -2.0208763643,
				"z": -0.1144478999,
				"element": "H" 
			},
			{
				"x": -1.7549602162,
				"y": -3.3333736194,
				"z": 1.5598630071,
				"element": "H" 
			},
			{
				"x": 0.3509207369,
				"y": -2.4019016077,
				"z": 2.4982898594,
				"element": "H" 
			},
			{
				"x": 1.1623127623,
				"y": -0.1925449791,
				"z": 1.776593403,
				"element": "H" 
			}
		],
		 "valence_orbital": [ 
			{
				"type": "occ",
				"energy": -0.31558,
				"method": "rhf"
			},
			{
				"type": "occ",
				"energy": -0.29522,
				"method": "rhf"
			},
			{
				"type": "occ",
				"energy": -0.28986,
				"method": "rhf"
			},
			{
				"type": "occ",
				"energy": -0.25865,
				"method": "rhf"
			},
			{
				"type": "occ",
				"energy": -0.23766,
				"method": "rhf"
			},
			{
				"type": "unocc",
				"energy": -0.06628,
				"method": "rhf"
			},
			{
				"type": "unocc",
				"energy": -0.02504,
				"method": "rhf"
			},
			{
				"type": "unocc",
				"energy": -0.00803,
				"method": "rhf"
			},
			{
				"type": "unocc",
				"energy": 0.01688,
				"method": "rhf"
			},
			{
				"type": "unocc",
				"energy": 0.05653,
				"method": "rhf"
			}
		],
		"cosmo_sigma_profile": { 
			"-0.025": 0.0,
			"-0.024": 0.0,
			"-0.023": 0.0,
			"-0.022": 0.0,
			"-0.021": 0.0,
			"-0.02": 0.0,
			"-0.019": 0.0,
			"-0.018": 0.0,
			"-0.017": 0.0,
			"-0.016": 0.0,
			"-0.015": 0.0,
			"-0.014": 0.0,
			"-0.013": 0.0,
			"-0.012": 0.0,
			"-0.011": 0.0,
			"-0.01": 0.0,
			"-0.009": 0.0,
			"-0.008": 0.0807335553886,
			"-0.007": 4.93678712894,
			"-0.006": 14.7592459485,
			"-0.005": 19.2593591137,
			"-0.004": 17.8108484363,
			"-0.003": 15.0277122593,
			"-0.002": 16.4937422002,
			"-0.001": 16.5604068593,
			"0.0": 13.6949760431,
			"0.001": 14.729214376,
			"0.002": 14.6722410155,
			"0.003": 15.2319369803,
			"0.004": 19.7917256487,
			"0.005": 20.4140797926,
			"0.006": 4.81327447154,
			"0.007": 3.29859151577,
			"0.008": 4.64426960604,
			"0.009": 2.54973117341,
			"0.01": 0.063309459284,
			"0.011": 0.0,
			"0.012": 0.0,
			"0.013": 0.0,
			"0.014": 0.0,
			"0.015": 0.0,
			"0.016": 0.0,
			"0.017": 0.0,
			"0.018": 0.0,
			"0.019": 0.0,
			"0.02": 0.0,
			"0.021": 0.0,
			"0.022": 0.0,
			"0.023": 0.0,
			"0.024": 0.0,
			"0.025": 0.0
		}
	}
}
