{
	 "smiles": "COC1=CC(OC)=CC(OC)=C1", 
	 "Tm": 326.35, 
	 "num_atms": 24, 
	 "gaussian": { 
		 "optdone": 1, 
		 "sigma_profile": "yes", 
		 "theory": "DFT", 
		 "functional": "B3LYP", 
		 "basiset": "6-31G**", 
		 "properties": { 
			 "R2extent": 2657.0331, 
			 "electric_dipole_moment_norm": 2.41735579922, 
			 "electric_quadrupole_moment_norm": 15.1801486126, 
			 "total_energy": -575.823035253, 
			 "HOMO_LUMO_gap": 0.22359, 
			 "cosmo_polarized_energy": -9.62, 
			 "cosmo_cavitation_energy": 27.31, 
			 "cosmo_dispersion_energy": -20.16, 
			 "cosmo_repulsion_energy": 1.61, 
			 "cosmo_total_nonelectrostatic_energy": 8.76, 
			 "SMD_solvation_energy": 7.04 
		},
		"coords": [
			{
				"x": 1.0967012351,
				"y": 1.7065985312,
				"z": -2.0294056,
				"element": "C" 
			},
			{
				"x": 1.0117441384,
				"y": 1.5530727267,
				"z": -0.6233134302,
				"element": "O" 
			},
			{
				"x": 0.2220768289,
				"y": 0.5556151842,
				"z": -0.1219827377,
				"element": "C" 
			},
			{
				"x": -0.5120003531,
				"y": -0.327823167,
				"z": -0.9203561667,
				"element": "C" 
			},
			{
				"x": -1.2875194515,
				"y": -1.3126656506,
				"z": -0.2844509925,
				"element": "C" 
			},
			{
				"x": -2.0440095789,
				"y": -2.228493034,
				"z": -0.9609405828,
				"element": "O" 
			},
			{
				"x": -2.0519005704,
				"y": -2.1894990822,
				"z": -2.3771231578,
				"element": "C" 
			},
			{
				"x": -1.329169636,
				"y": -1.412558164,
				"z": 1.1043684259,
				"element": "C" 
			},
			{
				"x": -0.5848673403,
				"y": -0.5155596619,
				"z": 1.8787482843,
				"element": "C" 
			},
			{
				"x": -0.6856963946,
				"y": -0.687746502,
				"z": 3.2292919409,
				"element": "O" 
			},
			{
				"x": 0.0434730232,
				"y": 0.1875203701,
				"z": 4.0738251886,
				"element": "C" 
			},
			{
				"x": 0.1956099513,
				"y": 0.4741745745,
				"z": 1.2762288608,
				"element": "C" 
			},
			{
				"x": 1.5100772936,
				"y": 0.8113870748,
				"z": -2.5122703785,
				"element": "H" 
			},
			{
				"x": 0.1186867525,
				"y": 1.9332028467,
				"z": -2.4739140979,
				"element": "H" 
			},
			{
				"x": 1.7703222051,
				"y": 2.547978614,
				"z": -2.2006527891,
				"element": "H" 
			},
			{
				"x": -0.4836434719,
				"y": -0.2552372377,
				"z": -1.9972078742,
				"element": "H" 
			},
			{
				"x": -2.7115172833,
				"y": -2.9980860248,
				"z": -2.6966862904,
				"element": "H" 
			},
			{
				"x": -1.0506993738,
				"y": -2.3571898806,
				"z": -2.7955621032,
				"element": "H" 
			},
			{
				"x": -2.4432211847,
				"y": -1.2365075147,
				"z": -2.7569861223,
				"element": "H" 
			},
			{
				"x": -1.9313346715,
				"y": -2.1766620746,
				"z": 1.580046807,
				"element": "H" 
			},
			{
				"x": -0.2660621165,
				"y": 1.2320938773,
				"z": 3.9402660558,
				"element": "H" 
			},
			{
				"x": 1.1247288871,
				"y": 0.1112204543,
				"z": 3.9010662321,
				"element": "H" 
			},
			{
				"x": -0.1795234179,
				"y": -0.1248966106,
				"z": 5.0953852929,
				"element": "H" 
			},
			{
				"x": 0.7836445293,
				"y": 1.1843603508,
				"z": 1.8415252352,
				"element": "H" 
			}
		],
		 "valence_orbital": [ 
			{
				"type": "occ",
				"energy": -0.32611,
				"method": "rhf"
			},
			{
				"type": "occ",
				"energy": -0.32197,
				"method": "rhf"
			},
			{
				"type": "occ",
				"energy": -0.26665,
				"method": "rhf"
			},
			{
				"type": "occ",
				"energy": -0.21145,
				"method": "rhf"
			},
			{
				"type": "occ",
				"energy": -0.20135,
				"method": "rhf"
			},
			{
				"type": "unocc",
				"energy": 0.02224,
				"method": "rhf"
			},
			{
				"type": "unocc",
				"energy": 0.02878,
				"method": "rhf"
			},
			{
				"type": "unocc",
				"energy": 0.08948,
				"method": "rhf"
			},
			{
				"type": "unocc",
				"energy": 0.10676,
				"method": "rhf"
			},
			{
				"type": "unocc",
				"energy": 0.11304,
				"method": "rhf"
			}
		],
		"cosmo_sigma_profile": { 
			"-0.025": 0.0,
			"-0.024": 0.0,
			"-0.023": 0.0,
			"-0.022": 0.0,
			"-0.021": 0.0,
			"-0.02": 0.0,
			"-0.019": 0.0,
			"-0.018": 0.0,
			"-0.017": 0.0,
			"-0.016": 0.0,
			"-0.015": 0.0,
			"-0.014": 0.0,
			"-0.013": 0.0,
			"-0.012": 0.0,
			"-0.011": 0.0,
			"-0.01": 0.0,
			"-0.009": 0.0,
			"-0.008": 0.0,
			"-0.007": 0.384135776073,
			"-0.006": 10.4301606939,
			"-0.005": 29.4039869808,
			"-0.004": 25.6594064456,
			"-0.003": 28.6118539121,
			"-0.002": 16.2326087097,
			"-0.001": 9.1498451707,
			"0.0": 8.71370205056,
			"0.001": 6.64241745326,
			"0.002": 8.17154236054,
			"0.003": 9.05329059487,
			"0.004": 12.8503792118,
			"0.005": 21.4459817303,
			"0.006": 9.42860516115,
			"0.007": 4.1773791604,
			"0.008": 4.58835632348,
			"0.009": 3.97871915679,
			"0.01": 5.02879860201,
			"0.011": 2.01044573883,
			"0.012": 0.0,
			"0.013": 0.0,
			"0.014": 0.0,
			"0.015": 0.0,
			"0.016": 0.0,
			"0.017": 0.0,
			"0.018": 0.0,
			"0.019": 0.0,
			"0.02": 0.0,
			"0.021": 0.0,
			"0.022": 0.0,
			"0.023": 0.0,
			"0.024": 0.0,
			"0.025": 0.0
		}
	}
}
