{
	 "smiles": "NC1=CC=C(OCC2CCOCC2)C=C1", 
	 "Tm": 382.15, 
	 "num_atms": 32, 
	 "gaussian": { 
		 "optdone": 1, 
		 "sigma_profile": "yes", 
		 "theory": "DFT", 
		 "functional": "B3LYP", 
		 "basiset": "6-31G**", 
		 "properties": { 
			 "R2extent": 4636.2696, 
			 "electric_dipole_moment_norm": 3.07492905284, 
			 "electric_quadrupole_moment_norm": 11.227103023, 
			 "total_energy": -672.706801286, 
			 "HOMO_LUMO_gap": 0.18781, 
			 "cosmo_polarized_energy": -12.0, 
			 "cosmo_cavitation_energy": 33.06, 
			 "cosmo_dispersion_energy": -24.18, 
			 "cosmo_repulsion_energy": 1.89, 
			 "cosmo_total_nonelectrostatic_energy": 10.77, 
			 "SMD_solvation_energy": 5.13 
		},
		"coords": [
			{
				"x": -0.3603202301,
				"y": 0.7945195206,
				"z": 5.5146786744,
				"element": "N" 
			},
			{
				"x": -0.3710549659,
				"y": 0.5801155797,
				"z": 4.1264695686,
				"element": "C" 
			},
			{
				"x": -0.4296496996,
				"y": -0.712264198,
				"z": 3.5918433923,
				"element": "C" 
			},
			{
				"x": -0.5043475381,
				"y": -0.9263896046,
				"z": 2.2122881749,
				"element": "C" 
			},
			{
				"x": -0.5203684834,
				"y": 0.1610893566,
				"z": 1.3346632292,
				"element": "C" 
			},
			{
				"x": -0.588081331,
				"y": 0.0662493489,
				"z": -0.035610864,
				"element": "O" 
			},
			{
				"x": -0.658641287,
				"y": -1.2310173564,
				"z": -0.6174371832,
				"element": "C" 
			},
			{
				"x": -0.7356171553,
				"y": -1.1476204803,
				"z": -2.1441288639,
				"element": "C" 
			},
			{
				"x": 0.5171058012,
				"y": -0.5307583606,
				"z": -2.8100650006,
				"element": "C" 
			},
			{
				"x": 0.4764860328,
				"y": 1.0013470221,
				"z": -2.8496520817,
				"element": "C" 
			},
			{
				"x": -0.7191016554,
				"y": 1.4728798147,
				"z": -3.4619063622,
				"element": "O" 
			},
			{
				"x": -1.8730310832,
				"y": 1.0777171211,
				"z": -2.7274428091,
				"element": "C" 
			},
			{
				"x": -2.0083278038,
				"y": -0.4486600319,
				"z": -2.678090332,
				"element": "C" 
			},
			{
				"x": -0.4612901734,
				"y": 1.4588091335,
				"z": 1.8597546619,
				"element": "C" 
			},
			{
				"x": -0.3887804959,
				"y": 1.6649368768,
				"z": 3.2310440872,
				"element": "C" 
			},
			{
				"x": 0.0190247203,
				"y": 0.0235706786,
				"z": 6.0487786983,
				"element": "H" 
			},
			{
				"x": 0.0684109929,
				"y": 1.6672499203,
				"z": 5.7941660199,
				"element": "H" 
			},
			{
				"x": -0.4221495236,
				"y": -1.5698964167,
				"z": 4.2603999013,
				"element": "H" 
			},
			{
				"x": -0.5462064085,
				"y": -1.9442518546,
				"z": 1.8432967918,
				"element": "H" 
			},
			{
				"x": -1.5451693805,
				"y": -1.7603915079,
				"z": -0.2351245169,
				"element": "H" 
			},
			{
				"x": 0.2284642474,
				"y": -1.8156901257,
				"z": -0.3280355088,
				"element": "H" 
			},
			{
				"x": -0.7858823512,
				"y": -2.202112598,
				"z": -2.451440746,
				"element": "H" 
			},
			{
				"x": 0.5727412447,
				"y": -0.8938801642,
				"z": -3.8436701049,
				"element": "H" 
			},
			{
				"x": 1.4299123001,
				"y": -0.866191527,
				"z": -2.3012570971,
				"element": "H" 
			},
			{
				"x": 1.3007035556,
				"y": 1.3895001657,
				"z": -3.4568027111,
				"element": "H" 
			},
			{
				"x": 0.5713591974,
				"y": 1.4121216969,
				"z": -1.8346863501,
				"element": "H" 
			},
			{
				"x": -1.8355828513,
				"y": 1.4908414933,
				"z": -1.7097605377,
				"element": "H" 
			},
			{
				"x": -2.7287725883,
				"y": 1.5201215198,
				"z": -3.2475692304,
				"element": "H" 
			},
			{
				"x": -2.1948621586,
				"y": -0.8044052931,
				"z": -3.6988458202,
				"element": "H" 
			},
			{
				"x": -2.8828011226,
				"y": -0.7256634789,
				"z": -2.0755331793,
				"element": "H" 
			},
			{
				"x": -0.4721919368,
				"y": 2.2997756835,
				"z": 1.1736014471,
				"element": "H" 
			},
			{
				"x": -0.349977869,
				"y": 2.6803480661,
				"z": 3.6181746525,
				"element": "H" 
			}
		],
		 "valence_orbital": [ 
			{
				"type": "occ",
				"energy": -0.28285,
				"method": "rhf"
			},
			{
				"type": "occ",
				"energy": -0.27331,
				"method": "rhf"
			},
			{
				"type": "occ",
				"energy": -0.24536,
				"method": "rhf"
			},
			{
				"type": "occ",
				"energy": -0.23503,
				"method": "rhf"
			},
			{
				"type": "occ",
				"energy": -0.18527,
				"method": "rhf"
			},
			{
				"type": "unocc",
				"energy": 0.00254,
				"method": "rhf"
			},
			{
				"type": "unocc",
				"energy": 0.03099,
				"method": "rhf"
			},
			{
				"type": "unocc",
				"energy": 0.07727,
				"method": "rhf"
			},
			{
				"type": "unocc",
				"energy": 0.08409,
				"method": "rhf"
			},
			{
				"type": "unocc",
				"energy": 0.1011,
				"method": "rhf"
			}
		],
		"cosmo_sigma_profile": { 
			"-0.025": 0.0,
			"-0.024": 0.0,
			"-0.023": 0.0,
			"-0.022": 0.0,
			"-0.021": 0.0,
			"-0.02": 0.0,
			"-0.019": 0.0,
			"-0.018": 0.0,
			"-0.017": 0.0,
			"-0.016": 0.0,
			"-0.015": 0.0,
			"-0.014": 0.0,
			"-0.013": 0.0,
			"-0.012": 1.3432401827,
			"-0.011": 2.55236702948,
			"-0.01": 2.83873906762,
			"-0.009": 2.99098504338,
			"-0.008": 4.04748302909,
			"-0.007": 1.78604855922,
			"-0.006": 4.96343490207,
			"-0.005": 10.6862961789,
			"-0.004": 24.1438711295,
			"-0.003": 31.2515128275,
			"-0.002": 29.9605762889,
			"-0.001": 27.1106886807,
			"0.0": 19.3140725798,
			"0.001": 12.398189337,
			"0.002": 10.0552794429,
			"0.003": 8.99974097266,
			"0.004": 12.0040000187,
			"0.005": 13.0543581346,
			"0.006": 12.5204539437,
			"0.007": 9.91468846072,
			"0.008": 2.64110852449,
			"0.009": 1.56769161423,
			"0.01": 2.14840700995,
			"0.011": 1.28244304388,
			"0.012": 2.51319309383,
			"0.013": 2.32108722278,
			"0.014": 2.36083191552,
			"0.015": 1.01269819741,
			"0.016": 0.34121767979,
			"0.017": 0.0,
			"0.018": 0.0,
			"0.019": 0.0,
			"0.02": 0.0,
			"0.021": 0.0,
			"0.022": 0.0,
			"0.023": 0.0,
			"0.024": 0.0,
			"0.025": 0.0
		}
	}
}
