{
	 "smiles": "N#CCC1=CC=C(C=C1)N1C=CC=N1", 
	 "Tm": 401.15, 
	 "num_atms": 23, 
	 "gaussian": { 
		 "optdone": 1, 
		 "sigma_profile": "yes", 
		 "theory": "DFT", 
		 "functional": "B3LYP", 
		 "basiset": "6-31G**", 
		 "properties": { 
			 "R2extent": 4033.916, 
			 "electric_dipole_moment_norm": 2.29448821745, 
			 "electric_quadrupole_moment_norm": 21.5796622789, 
			 "total_energy": -588.807429637, 
			 "HOMO_LUMO_gap": 0.19627, 
			 "cosmo_polarized_energy": -13.66, 
			 "cosmo_cavitation_energy": 28.44, 
			 "cosmo_dispersion_energy": -20.4, 
			 "cosmo_repulsion_energy": 1.57, 
			 "cosmo_total_nonelectrostatic_energy": 9.6, 
			 "SMD_solvation_energy": 5.97 
		},
		"coords": [
			{
				"x": -2.5164997842,
				"y": -3.0610151847,
				"z": -2.481571587,
				"element": "N" 
			},
			{
				"x": -2.3707599027,
				"y": -2.4225796138,
				"z": -1.523538629,
				"element": "C" 
			},
			{
				"x": -2.1739720404,
				"y": -1.6217719377,
				"z": -0.312596733,
				"element": "C" 
			},
			{
				"x": -0.9454105018,
				"y": -0.719553724,
				"z": -0.3439279807,
				"element": "C" 
			},
			{
				"x": -0.8420278476,
				"y": 0.3163805298,
				"z": 0.5933564936,
				"element": "C" 
			},
			{
				"x": 0.2702897418,
				"y": 1.1495040381,
				"z": 0.6268902368,
				"element": "C" 
			},
			{
				"x": 1.3116712624,
				"y": 0.9515847808,
				"z": -0.2883412925,
				"element": "C" 
			},
			{
				"x": 1.2268707346,
				"y": -0.0860193226,
				"z": -1.2212032299,
				"element": "C" 
			},
			{
				"x": 0.1009375608,
				"y": -0.9082407859,
				"z": -1.2492696751,
				"element": "C" 
			},
			{
				"x": 2.4388955139,
				"y": 1.8101621943,
				"z": -0.2565351054,
				"element": "N" 
			},
			{
				"x": 3.3700904161,
				"y": 2.0250020713,
				"z": -1.2368342596,
				"element": "C" 
			},
			{
				"x": 4.2644124019,
				"y": 2.9495177152,
				"z": -0.7452155505,
				"element": "C" 
			},
			{
				"x": 3.7883635814,
				"y": 3.2452148509,
				"z": 0.5539639662,
				"element": "C" 
			},
			{
				"x": 2.6886688342,
				"y": 2.5615228064,
				"z": 0.8486965125,
				"element": "N" 
			},
			{
				"x": -2.1147109691,
				"y": -2.3147975111,
				"z": 0.5378706516,
				"element": "H" 
			},
			{
				"x": -3.0774409,
				"y": -1.0210292725,
				"z": -0.153016882,
				"element": "H" 
			},
			{
				"x": -1.6459533734,
				"y": 0.4822821182,
				"z": 1.3063632168,
				"element": "H" 
			},
			{
				"x": 0.3510162659,
				"y": 1.9532691022,
				"z": 1.3477000486,
				"element": "H" 
			},
			{
				"x": 2.0376430528,
				"y": -0.272343728,
				"z": -1.9166712045,
				"element": "H" 
			},
			{
				"x": 0.0449921435,
				"y": -1.7055945723,
				"z": -1.9839520587,
				"element": "H" 
			},
			{
				"x": 3.312103935,
				"y": 1.5357842045,
				"z": -2.1963474344,
				"element": "H" 
			},
			{
				"x": 5.1266640255,
				"y": 3.356527118,
				"z": -1.251474578,
				"element": "H" 
			},
			{
				"x": 4.2039558496,
				"y": 3.9257941228,
				"z": 1.2851550742,
				"element": "H" 
			}
		],
		 "valence_orbital": [ 
			{
				"type": "occ",
				"energy": -0.29597,
				"method": "rhf"
			},
			{
				"type": "occ",
				"energy": -0.29477,
				"method": "rhf"
			},
			{
				"type": "occ",
				"energy": -0.26916,
				"method": "rhf"
			},
			{
				"type": "occ",
				"energy": -0.25535,
				"method": "rhf"
			},
			{
				"type": "occ",
				"energy": -0.23089,
				"method": "rhf"
			},
			{
				"type": "unocc",
				"energy": -0.03462,
				"method": "rhf"
			},
			{
				"type": "unocc",
				"energy": -0.02077,
				"method": "rhf"
			},
			{
				"type": "unocc",
				"energy": 0.02719,
				"method": "rhf"
			},
			{
				"type": "unocc",
				"energy": 0.02835,
				"method": "rhf"
			},
			{
				"type": "unocc",
				"energy": 0.03916,
				"method": "rhf"
			}
		],
		"cosmo_sigma_profile": { 
			"-0.025": 0.0,
			"-0.024": 0.0,
			"-0.023": 0.0,
			"-0.022": 0.0,
			"-0.021": 0.0,
			"-0.02": 0.0,
			"-0.019": 0.0,
			"-0.018": 0.0,
			"-0.017": 0.0,
			"-0.016": 0.0,
			"-0.015": 0.0,
			"-0.014": 0.0,
			"-0.013": 0.0,
			"-0.012": 0.0,
			"-0.011": 0.00246857297571,
			"-0.01": 1.44887593044,
			"-0.009": 6.45753980184,
			"-0.008": 9.72742349577,
			"-0.007": 12.9439060376,
			"-0.006": 15.3611574034,
			"-0.005": 14.1759534076,
			"-0.004": 13.5470299578,
			"-0.003": 12.2106496161,
			"-0.002": 11.222424638,
			"-0.001": 11.9657494643,
			"0.0": 12.3070345187,
			"0.001": 13.8285461724,
			"0.002": 15.1948763144,
			"0.003": 17.5200114974,
			"0.004": 19.7860864042,
			"0.005": 9.14096710683,
			"0.006": 4.54395902899,
			"0.007": 4.31109224518,
			"0.008": 4.8340197027,
			"0.009": 4.43148705481,
			"0.01": 4.36541268943,
			"0.011": 4.06141838988,
			"0.012": 3.66211846676,
			"0.013": 2.49324927444,
			"0.014": 0.318804501976,
			"0.015": 0.0,
			"0.016": 0.0,
			"0.017": 0.0,
			"0.018": 0.0,
			"0.019": 0.0,
			"0.02": 0.0,
			"0.021": 0.0,
			"0.022": 0.0,
			"0.023": 0.0,
			"0.024": 0.0,
			"0.025": 0.0
		}
	}
}
