{
	 "smiles": "NC(CS(=O)(=O)C1=CC=C(Cl)C=C1)=NO", 
	 "Tm": 477.15, 
	 "num_atms": 24, 
	 "gaussian": { 
		 "optdone": 1, 
		 "sigma_profile": "yes", 
		 "theory": "DFT", 
		 "functional": "B3LYP", 
		 "basiset": "6-31G**", 
		 "properties": { 
			 "R2extent": 4835.3247, 
			 "electric_dipole_moment_norm": 5.18900163134, 
			 "electric_quadrupole_moment_norm": 13.279174364, 
			 "total_energy": -1503.70795693, 
			 "HOMO_LUMO_gap": 0.17385, 
			 "cosmo_polarized_energy": -22.91, 
			 "cosmo_cavitation_energy": 31.99, 
			 "cosmo_dispersion_energy": -23.19, 
			 "cosmo_repulsion_energy": 1.81, 
			 "cosmo_total_nonelectrostatic_energy": 10.6, 
			 "SMD_solvation_energy": 4.48 
		},
		"coords": [
			{
				"x": 0.892036122,
				"y": 1.9318482455,
				"z": -0.3213890356,
				"element": "N" 
			},
			{
				"x": 1.7891868218,
				"y": 1.375116971,
				"z": -1.2062444581,
				"element": "C" 
			},
			{
				"x": 1.4086291775,
				"y": 0.1308433177,
				"z": -1.9419015353,
				"element": "C" 
			},
			{
				"x": 1.337639955,
				"y": -1.4139403372,
				"z": -0.9331696736,
				"element": "S" 
			},
			{
				"x": 1.1288022795,
				"y": -2.4915326827,
				"z": -1.9140824553,
				"element": "O" 
			},
			{
				"x": 2.4729537615,
				"y": -1.421708489,
				"z": -0.0029460785,
				"element": "O" 
			},
			{
				"x": -0.172821257,
				"y": -1.28515708,
				"z": 0.041261208,
				"element": "C" 
			},
			{
				"x": -1.373438312,
				"y": -1.7467174786,
				"z": -0.5023197501,
				"element": "C" 
			},
			{
				"x": -2.5425570559,
				"y": -1.6697667181,
				"z": 0.2532899528,
				"element": "C" 
			},
			{
				"x": -2.4826538228,
				"y": -1.1392381874,
				"z": 1.5436534053,
				"element": "C" 
			},
			{
				"x": -3.9504155634,
				"y": -1.0408542513,
				"z": 2.4965192372,
				"element": "Cl" 
			},
			{
				"x": -1.2801476695,
				"y": -0.6917669285,
				"z": 2.0958131457,
				"element": "C" 
			},
			{
				"x": -0.1138493371,
				"y": -0.7660758399,
				"z": 1.3362128226,
				"element": "C" 
			},
			{
				"x": 2.9807442442,
				"y": 1.8190511624,
				"z": -1.4262747962,
				"element": "N" 
			},
			{
				"x": 3.1879481827,
				"y": 3.002862264,
				"z": -0.6737838259,
				"element": "O" 
			},
			{
				"x": 1.1447002223,
				"y": 2.8574449049,
				"z": -0.0025710403,
				"element": "H" 
			},
			{
				"x": -0.0903373616,
				"y": 1.7886505687,
				"z": -0.5005391025,
				"element": "H" 
			},
			{
				"x": 0.4359068588,
				"y": 0.2058457922,
				"z": -2.4386091312,
				"element": "H" 
			},
			{
				"x": 2.174069218,
				"y": -0.0968795994,
				"z": -2.6862540206,
				"element": "H" 
			},
			{
				"x": -1.3842903179,
				"y": -2.1841985372,
				"z": -1.4950419074,
				"element": "H" 
			},
			{
				"x": -3.4856324559,
				"y": -2.0261571161,
				"z": -0.1453453533,
				"element": "H" 
			},
			{
				"x": -1.2592149098,
				"y": -0.2978640303,
				"z": 3.1056389353,
				"element": "H" 
			},
			{
				"x": 0.8357763292,
				"y": -0.4354180334,
				"z": 1.7408383392,
				"element": "H" 
			},
			{
				"x": 4.0882648902,
				"y": 3.2457120829,
				"z": -0.9219548822,
				"element": "H" 
			}
		],
		 "valence_orbital": [ 
			{
				"type": "occ",
				"energy": -0.29618,
				"method": "rhf"
			},
			{
				"type": "occ",
				"energy": -0.28777,
				"method": "rhf"
			},
			{
				"type": "occ",
				"energy": -0.28363,
				"method": "rhf"
			},
			{
				"type": "occ",
				"energy": -0.27221,
				"method": "rhf"
			},
			{
				"type": "occ",
				"energy": -0.22792,
				"method": "rhf"
			},
			{
				"type": "unocc",
				"energy": -0.05407,
				"method": "rhf"
			},
			{
				"type": "unocc",
				"energy": -0.03743,
				"method": "rhf"
			},
			{
				"type": "unocc",
				"energy": 0.00039,
				"method": "rhf"
			},
			{
				"type": "unocc",
				"energy": 0.01304,
				"method": "rhf"
			},
			{
				"type": "unocc",
				"energy": 0.05785,
				"method": "rhf"
			}
		],
		"cosmo_sigma_profile": { 
			"-0.025": 0.0,
			"-0.024": 0.0,
			"-0.023": 0.0,
			"-0.022": 0.0,
			"-0.021": 0.0,
			"-0.02": 0.0,
			"-0.019": 0.0,
			"-0.018": 0.0151094827031,
			"-0.017": 0.720432684546,
			"-0.016": 1.08010237612,
			"-0.015": 0.732294819945,
			"-0.014": 1.33081237861,
			"-0.013": 2.77561743126,
			"-0.012": 3.29105475227,
			"-0.011": 3.06559673481,
			"-0.01": 5.21291684339,
			"-0.009": 6.74143446527,
			"-0.008": 11.2545163573,
			"-0.007": 12.8824961896,
			"-0.006": 9.68306157726,
			"-0.005": 10.4643307791,
			"-0.004": 8.627776428,
			"-0.003": 9.79199055173,
			"-0.002": 11.5059861206,
			"-0.001": 14.0914359631,
			"0.0": 20.4015549562,
			"0.001": 22.8838017546,
			"0.002": 12.4458276378,
			"0.003": 12.4306464467,
			"0.004": 15.267387036,
			"0.005": 6.1241890314,
			"0.006": 6.58611091364,
			"0.007": 8.16385800549,
			"0.008": 6.41542087008,
			"0.009": 6.3703098031,
			"0.01": 9.53772785305,
			"0.011": 11.0717590706,
			"0.012": 4.5604301213,
			"0.013": 0.742488378587,
			"0.014": 0.68178214493,
			"0.015": 0.0,
			"0.016": 0.0,
			"0.017": 0.0,
			"0.018": 0.0,
			"0.019": 0.0,
			"0.02": 0.0,
			"0.021": 0.0,
			"0.022": 0.0,
			"0.023": 0.0,
			"0.024": 0.0,
			"0.025": 0.0
		}
	}
}
