{
	 "smiles": "COC1=C(C=CC=C1)N1C=C(C=N1)S(Cl)(=O)=O", 
	 "Tm": 342.15, 
	 "num_atms": 26, 
	 "gaussian": { 
		 "optdone": 1, 
		 "sigma_profile": "yes", 
		 "theory": "DFT", 
		 "functional": "B3LYP", 
		 "basiset": "6-31G**", 
		 "properties": { 
			 "R2extent": 7107.4945, 
			 "electric_dipole_moment_norm": 7.62268058559, 
			 "electric_quadrupole_moment_norm": 25.3800344245, 
			 "total_energy": -1579.93253129, 
			 "HOMO_LUMO_gap": 0.16108, 
			 "cosmo_polarized_energy": -12.53, 
			 "cosmo_cavitation_energy": 34.37, 
			 "cosmo_dispersion_energy": -25.16, 
			 "cosmo_repulsion_energy": 1.91, 
			 "cosmo_total_nonelectrostatic_energy": 11.13, 
			 "SMD_solvation_energy": 5.03 
		},
		"coords": [
			{
				"x": -1.1834611629,
				"y": -3.0482669271,
				"z": -0.1307547321,
				"element": "C" 
			},
			{
				"x": -0.5433447572,
				"y": -1.7803941384,
				"z": -0.2373751436,
				"element": "O" 
			},
			{
				"x": -0.4865395739,
				"y": -0.979530254,
				"z": 0.864216993,
				"element": "C" 
			},
			{
				"x": 0.058663963,
				"y": 0.3123684608,
				"z": 0.6936447303,
				"element": "C" 
			},
			{
				"x": 0.1382884546,
				"y": 1.1865416903,
				"z": 1.7784812396,
				"element": "C" 
			},
			{
				"x": -0.3170883222,
				"y": 0.7967876709,
				"z": 3.0361402991,
				"element": "C" 
			},
			{
				"x": -0.8496305149,
				"y": -0.4785240938,
				"z": 3.2103531891,
				"element": "C" 
			},
			{
				"x": -0.9341515897,
				"y": -1.3619723537,
				"z": 2.1332968728,
				"element": "C" 
			},
			{
				"x": 0.5101977423,
				"y": 0.766627097,
				"z": -0.5819372222,
				"element": "N" 
			},
			{
				"x": 1.0348260417,
				"y": 0.0533534791,
				"z": -1.60716693,
				"element": "C" 
			},
			{
				"x": 1.3763401086,
				"y": 0.9816505354,
				"z": -2.5766026845,
				"element": "C" 
			},
			{
				"x": 1.0154197638,
				"y": 2.2449199191,
				"z": -2.0497184067,
				"element": "C" 
			},
			{
				"x": 0.4979456535,
				"y": 2.1121028072,
				"z": -0.8412555672,
				"element": "N" 
			},
			{
				"x": 2.0989413116,
				"y": 0.6229602168,
				"z": -4.1194058157,
				"element": "S" 
			},
			{
				"x": 0.3874190794,
				"y": 0.4266401888,
				"z": -5.3918792143,
				"element": "Cl" 
			},
			{
				"x": 2.705659776,
				"y": -0.7017938015,
				"z": -4.0699913549,
				"element": "O" 
			},
			{
				"x": 2.8109560268,
				"y": 1.7999155241,
				"z": -4.5992301657,
				"element": "O" 
			},
			{
				"x": -0.6502822142,
				"y": -3.7089938523,
				"z": 0.5629136969,
				"element": "H" 
			},
			{
				"x": -2.2252505841,
				"y": -2.9414482961,
				"z": 0.1926881484,
				"element": "H" 
			},
			{
				"x": -1.1564246239,
				"y": -3.4783841927,
				"z": -1.1322863523,
				"element": "H" 
			},
			{
				"x": 0.5503846961,
				"y": 2.1737489021,
				"z": 1.610255797,
				"element": "H" 
			},
			{
				"x": -0.2493904539,
				"y": 1.4864834443,
				"z": 3.8707236096,
				"element": "H" 
			},
			{
				"x": -1.2034079668,
				"y": -0.797197949,
				"z": 4.1860314119,
				"element": "H" 
			},
			{
				"x": -1.3540725983,
				"y": -2.3488096573,
				"z": 2.2830968511,
				"element": "H" 
			},
			{
				"x": 1.1351431464,
				"y": -1.0173862105,
				"z": -1.5839161778,
				"element": "H" 
			},
			{
				"x": 1.1205585983,
				"y": 3.2185017904,
				"z": -2.5065230718,
				"element": "H" 
			}
		],
		 "valence_orbital": [ 
			{
				"type": "occ",
				"energy": -0.30969,
				"method": "rhf"
			},
			{
				"type": "occ",
				"energy": -0.30543,
				"method": "rhf"
			},
			{
				"type": "occ",
				"energy": -0.28385,
				"method": "rhf"
			},
			{
				"type": "occ",
				"energy": -0.26324,
				"method": "rhf"
			},
			{
				"type": "occ",
				"energy": -0.24095,
				"method": "rhf"
			},
			{
				"type": "unocc",
				"energy": -0.07987,
				"method": "rhf"
			},
			{
				"type": "unocc",
				"energy": -0.0445,
				"method": "rhf"
			},
			{
				"type": "unocc",
				"energy": -0.01486,
				"method": "rhf"
			},
			{
				"type": "unocc",
				"energy": 0.00565,
				"method": "rhf"
			},
			{
				"type": "unocc",
				"energy": 0.01195,
				"method": "rhf"
			}
		],
		"cosmo_sigma_profile": { 
			"-0.025": 0.0,
			"-0.024": 0.0,
			"-0.023": 0.0,
			"-0.022": 0.0,
			"-0.021": 0.0,
			"-0.02": 0.0,
			"-0.019": 0.0,
			"-0.018": 0.0,
			"-0.017": 0.0,
			"-0.016": 0.0,
			"-0.015": 0.0,
			"-0.014": 0.0,
			"-0.013": 0.0,
			"-0.012": 0.0,
			"-0.011": 0.0458866696554,
			"-0.01": 1.22020195205,
			"-0.009": 2.13180122811,
			"-0.008": 2.94397657408,
			"-0.007": 7.54545112839,
			"-0.006": 18.7655115503,
			"-0.005": 21.5088143124,
			"-0.004": 20.7514549416,
			"-0.003": 17.4406212695,
			"-0.002": 18.2487597231,
			"-0.001": 21.6553727472,
			"0.0": 20.3653101459,
			"0.001": 18.5343402367,
			"0.002": 19.2983950577,
			"0.003": 24.0320382734,
			"0.004": 24.1511451337,
			"0.005": 7.60216112828,
			"0.006": 5.34993477158,
			"0.007": 7.33041927762,
			"0.008": 11.7696429578,
			"0.009": 6.23515282904,
			"0.01": 0.857786544743,
			"0.011": 1.09502225036,
			"0.012": 0.293836189766,
			"0.013": 0.0,
			"0.014": 0.0,
			"0.015": 0.0,
			"0.016": 0.0,
			"0.017": 0.0,
			"0.018": 0.0,
			"0.019": 0.0,
			"0.02": 0.0,
			"0.021": 0.0,
			"0.022": 0.0,
			"0.023": 0.0,
			"0.024": 0.0,
			"0.025": 0.0
		}
	}
}
