{
	 "smiles": "OC(=O)CC1=CC(=C(O)C(=C1)[N+]([O-])=O)[N+]([O-])=O", 
	 "Tm": 440.15, 
	 "num_atms": 23, 
	 "gaussian": { 
		 "optdone": 1, 
		 "sigma_profile": "yes", 
		 "theory": "DFT", 
		 "functional": "B3LYP", 
		 "basiset": "6-31G**", 
		 "properties": { 
			 "R2extent": 4470.2212, 
			 "electric_dipole_moment_norm": 1.73627174716, 
			 "electric_quadrupole_moment_norm": 22.3584488789, 
			 "total_energy": -944.33156268, 
			 "HOMO_LUMO_gap": 0.13993, 
			 "cosmo_polarized_energy": -24.97, 
			 "cosmo_cavitation_energy": 29.93, 
			 "cosmo_dispersion_energy": -21.52, 
			 "cosmo_repulsion_energy": 1.68, 
			 "cosmo_total_nonelectrostatic_energy": 10.09, 
			 "SMD_solvation_energy": 11.0 
		},
		"coords": [
			{
				"x": -0.5656389235,
				"y": 3.0218977453,
				"z": 2.4113989671,
				"element": "O" 
			},
			{
				"x": 0.5769904332,
				"y": 2.6495130373,
				"z": 3.0350910777,
				"element": "C" 
			},
			{
				"x": 1.2070518606,
				"y": 3.4354589999,
				"z": 3.6930102915,
				"element": "O" 
			},
			{
				"x": 0.9861619725,
				"y": 1.1720092917,
				"z": 2.8971707129,
				"element": "C" 
			},
			{
				"x": 0.6566016855,
				"y": 0.5189904629,
				"z": 1.5729607669,
				"element": "C" 
			},
			{
				"x": 1.4321879567,
				"y": 0.7626158085,
				"z": 0.4395829552,
				"element": "C" 
			},
			{
				"x": 1.1208435327,
				"y": 0.168558657,
				"z": -0.7831500597,
				"element": "C" 
			},
			{
				"x": 0.0182129866,
				"y": -0.7192748976,
				"z": -0.9476393482,
				"element": "C" 
			},
			{
				"x": -0.3074448044,
				"y": -1.270755805,
				"z": -2.102377339,
				"element": "O" 
			},
			{
				"x": -0.7453240698,
				"y": -0.9526822961,
				"z": 0.2221274779,
				"element": "C" 
			},
			{
				"x": -0.4387401966,
				"y": -0.3442920848,
				"z": 1.4337492792,
				"element": "C" 
			},
			{
				"x": -1.9020184167,
				"y": -1.8652653033,
				"z": 0.2114713781,
				"element": "N" 
			},
			{
				"x": -2.7588667237,
				"y": -1.6739282324,
				"z": 1.0766403348,
				"element": "O" 
			},
			{
				"x": -1.9268732148,
				"y": -2.7569339161,
				"z": -0.6267924317,
				"element": "O" 
			},
			{
				"x": 1.9770025742,
				"y": 0.4872401281,
				"z": -1.9181342604,
				"element": "N" 
			},
			{
				"x": 1.6914262845,
				"y": -0.0135381938,
				"z": -3.02880127,
				"element": "O" 
			},
			{
				"x": 2.9347121647,
				"y": 1.2259349134,
				"z": -1.7484560075,
				"element": "O" 
			},
			{
				"x": -0.9321328497,
				"y": 2.2841368405,
				"z": 1.9014093535,
				"element": "H" 
			},
			{
				"x": 2.0581152594,
				"y": 1.135164049,
				"z": 3.1024155068,
				"element": "H" 
			},
			{
				"x": 0.4903478535,
				"y": 0.6313726691,
				"z": 3.7123619518,
				"element": "H" 
			},
			{
				"x": 2.2942698938,
				"y": 1.4190331891,
				"z": 0.4781095048,
				"element": "H" 
			},
			{
				"x": 0.3518955337,
				"y": -0.9384699464,
				"z": -2.7651722759,
				"element": "H" 
			},
			{
				"x": -1.0808807921,
				"y": -0.5731851163,
				"z": 2.2777234341,
				"element": "H" 
			}
		],
		 "valence_orbital": [ 
			{
				"type": "occ",
				"energy": -0.3289,
				"method": "rhf"
			},
			{
				"type": "occ",
				"energy": -0.32426,
				"method": "rhf"
			},
			{
				"type": "occ",
				"energy": -0.30973,
				"method": "rhf"
			},
			{
				"type": "occ",
				"energy": -0.29978,
				"method": "rhf"
			},
			{
				"type": "occ",
				"energy": -0.27723,
				"method": "rhf"
			},
			{
				"type": "unocc",
				"energy": -0.1373,
				"method": "rhf"
			},
			{
				"type": "unocc",
				"energy": -0.10591,
				"method": "rhf"
			},
			{
				"type": "unocc",
				"energy": -0.05135,
				"method": "rhf"
			},
			{
				"type": "unocc",
				"energy": -0.03403,
				"method": "rhf"
			},
			{
				"type": "unocc",
				"energy": -0.00895,
				"method": "rhf"
			}
		],
		"cosmo_sigma_profile": { 
			"-0.025": 0.0,
			"-0.024": 0.0,
			"-0.023": 0.0,
			"-0.022": 0.0,
			"-0.021": 0.0,
			"-0.02": 0.0,
			"-0.019": 0.0,
			"-0.018": 0.0,
			"-0.017": 0.112373737974,
			"-0.016": 0.749765847217,
			"-0.015": 1.48497096594,
			"-0.014": 1.75930391588,
			"-0.013": 1.57133903625,
			"-0.012": 1.74068667313,
			"-0.011": 3.06430284972,
			"-0.01": 6.41780916724,
			"-0.009": 9.80553925176,
			"-0.008": 11.5499357926,
			"-0.007": 11.8265037635,
			"-0.006": 12.3786164377,
			"-0.005": 14.8743209373,
			"-0.004": 15.8270516303,
			"-0.003": 11.8846083195,
			"-0.002": 11.877061602,
			"-0.001": 6.51876005676,
			"0.0": 5.10690100703,
			"0.001": 6.52879579207,
			"0.002": 8.52116591196,
			"0.003": 5.1396496006,
			"0.004": 7.51377229831,
			"0.005": 10.2251518185,
			"0.006": 12.7410779268,
			"0.007": 16.9053681665,
			"0.008": 14.2148583278,
			"0.009": 10.1281966306,
			"0.01": 7.27101292482,
			"0.011": 6.78152518067,
			"0.012": 4.90816107001,
			"0.013": 0.883609408506,
			"0.014": 0.0,
			"0.015": 0.0,
			"0.016": 0.0,
			"0.017": 0.0,
			"0.018": 0.0,
			"0.019": 0.0,
			"0.02": 0.0,
			"0.021": 0.0,
			"0.022": 0.0,
			"0.023": 0.0,
			"0.024": 0.0,
			"0.025": 0.0
		}
	}
}
