{
	 "smiles": "CC1=C(C=C(F)C=C1)S(=O)(=O)NC1=CC(=CC=C1)C(O)=O", 
	 "Tm": 489.15, 
	 "num_atms": 33, 
	 "gaussian": { 
		 "optdone": 1, 
		 "sigma_profile": "yes", 
		 "theory": "DFT", 
		 "functional": "B3LYP", 
		 "basiset": "6-31G**", 
		 "properties": { 
			 "R2extent": 7009.8741, 
			 "electric_dipole_moment_norm": 2.41599576779, 
			 "electric_quadrupole_moment_norm": 24.2343877317, 
			 "total_energy": -1394.33884239, 
			 "HOMO_LUMO_gap": 0.18422, 
			 "cosmo_polarized_energy": -19.45, 
			 "cosmo_cavitation_energy": 39.53, 
			 "cosmo_dispersion_energy": -27.31, 
			 "cosmo_repulsion_energy": 2.0, 
			 "cosmo_total_nonelectrostatic_energy": 14.22, 
			 "SMD_solvation_energy": 7.71 
		},
		"coords": [
			{
				"x": -2.1653112208,
				"y": -0.565163737,
				"z": -1.1926310077,
				"element": "C" 
			},
			{
				"x": -1.1589596766,
				"y": -1.3292580176,
				"z": -0.3608079063,
				"element": "C" 
			},
			{
				"x": -0.5765113623,
				"y": -0.8821980777,
				"z": 0.8429623852,
				"element": "C" 
			},
			{
				"x": 0.3321895405,
				"y": -1.6631803116,
				"z": 1.5679022706,
				"element": "C" 
			},
			{
				"x": 0.6859318373,
				"y": -2.9078101467,
				"z": 1.0774411989,
				"element": "C" 
			},
			{
				"x": 1.5626969597,
				"y": -3.6610462955,
				"z": 1.7675941642,
				"element": "F" 
			},
			{
				"x": 0.1508094626,
				"y": -3.3950204959,
				"z": -0.1093363589,
				"element": "C" 
			},
			{
				"x": -0.7588811904,
				"y": -2.6040368051,
				"z": -0.8029642264,
				"element": "C" 
			},
			{
				"x": -0.9634853931,
				"y": 0.7010373748,
				"z": 1.6207840949,
				"element": "S" 
			},
			{
				"x": -1.1436900136,
				"y": 0.4672622333,
				"z": 3.0562834115,
				"element": "O" 
			},
			{
				"x": -1.9706441893,
				"y": 1.4017215891,
				"z": 0.826072255,
				"element": "O" 
			},
			{
				"x": 0.5306668562,
				"y": 1.5386607914,
				"z": 1.5599485512,
				"element": "N" 
			},
			{
				"x": 0.853390836,
				"y": 2.4487162004,
				"z": 0.5210574724,
				"element": "C" 
			},
			{
				"x": 0.7951624115,
				"y": 2.0508699871,
				"z": -0.8178770175,
				"element": "C" 
			},
			{
				"x": 1.1420565895,
				"y": 2.953960146,
				"z": -1.8276853073,
				"element": "C" 
			},
			{
				"x": 1.5846525351,
				"y": 4.2439307895,
				"z": -1.5085598114,
				"element": "C" 
			},
			{
				"x": 1.6631665928,
				"y": 4.6274833124,
				"z": -0.1728667705,
				"element": "C" 
			},
			{
				"x": 1.2864539174,
				"y": 3.7434466208,
				"z": 0.8382650824,
				"element": "C" 
			},
			{
				"x": 1.06624279,
				"y": 2.5784924286,
				"z": -3.2654597874,
				"element": "C" 
			},
			{
				"x": 0.5793601549,
				"y": 1.3261804813,
				"z": -3.4643527245,
				"element": "O" 
			},
			{
				"x": 1.3924642996,
				"y": 3.2961723321,
				"z": -4.1892301974,
				"element": "O" 
			},
			{
				"x": -2.482782365,
				"y": -1.18372272,
				"z": -2.0358267251,
				"element": "H" 
			},
			{
				"x": -3.0455205653,
				"y": -0.2855448578,
				"z": -0.6111187416,
				"element": "H" 
			},
			{
				"x": -1.747925277,
				"y": 0.3637397743,
				"z": -1.5906172449,
				"element": "H" 
			},
			{
				"x": 0.7520637403,
				"y": -1.3122606365,
				"z": 2.5027707997,
				"element": "H" 
			},
			{
				"x": 0.4427882391,
				"y": -4.3751127385,
				"z": -0.4704996768,
				"element": "H" 
			},
			{
				"x": -1.1862981159,
				"y": -2.9843672496,
				"z": -1.7259138433,
				"element": "H" 
			},
			{
				"x": 0.70919451,
				"y": 1.8823206029,
				"z": 2.4992987097,
				"element": "H" 
			},
			{
				"x": 0.4981127394,
				"y": 1.0434145819,
				"z": -1.0780994578,
				"element": "H" 
			},
			{
				"x": 1.8564274391,
				"y": 4.9189236606,
				"z": -2.3119985979,
				"element": "H" 
			},
			{
				"x": 2.0035944957,
				"y": 5.6245875245,
				"z": 0.0886536892,
				"element": "H" 
			},
			{
				"x": 1.3260374952,
				"y": 4.0567845659,
				"z": 1.8783861644,
				"element": "H" 
			},
			{
				"x": 0.5755459275,
				"y": 1.1962170925,
				"z": -4.4268748465,
				"element": "H" 
			}
		],
		 "valence_orbital": [ 
			{
				"type": "occ",
				"energy": -0.28415,
				"method": "rhf"
			},
			{
				"type": "occ",
				"energy": -0.28163,
				"method": "rhf"
			},
			{
				"type": "occ",
				"energy": -0.27214,
				"method": "rhf"
			},
			{
				"type": "occ",
				"energy": -0.25946,
				"method": "rhf"
			},
			{
				"type": "occ",
				"energy": -0.24095,
				"method": "rhf"
			},
			{
				"type": "unocc",
				"energy": -0.05673,
				"method": "rhf"
			},
			{
				"type": "unocc",
				"energy": -0.05185,
				"method": "rhf"
			},
			{
				"type": "unocc",
				"energy": -0.02038,
				"method": "rhf"
			},
			{
				"type": "unocc",
				"energy": -0.01862,
				"method": "rhf"
			},
			{
				"type": "unocc",
				"energy": 0.04195,
				"method": "rhf"
			}
		],
		"cosmo_sigma_profile": { 
			"-0.025": 0.0,
			"-0.024": 0.0,
			"-0.023": 0.0,
			"-0.022": 0.0,
			"-0.021": 0.0,
			"-0.02": 0.0,
			"-0.019": 0.183380825187,
			"-0.018": 0.73108367253,
			"-0.017": 0.994463441056,
			"-0.016": 1.09760528504,
			"-0.015": 2.29061528531,
			"-0.014": 1.47218814833,
			"-0.013": 1.29187106843,
			"-0.012": 1.9175544121,
			"-0.011": 1.88847653025,
			"-0.01": 2.31283652571,
			"-0.009": 2.57840444336,
			"-0.008": 6.05520356501,
			"-0.007": 11.2100186887,
			"-0.006": 13.6799853754,
			"-0.005": 13.1093212077,
			"-0.004": 15.1099203147,
			"-0.003": 16.740032822,
			"-0.002": 19.9456538303,
			"-0.001": 27.4341438621,
			"0.0": 30.6598011286,
			"0.001": 25.8211463224,
			"0.002": 26.1085121451,
			"0.003": 24.5753498385,
			"0.004": 17.0465088694,
			"0.005": 6.99628058691,
			"0.006": 5.77743575719,
			"0.007": 5.01330269215,
			"0.008": 5.44038683846,
			"0.009": 5.9621023409,
			"0.01": 10.5655440666,
			"0.011": 9.38918111566,
			"0.012": 3.28913102726,
			"0.013": 0.0129507437681,
			"0.014": 0.0,
			"0.015": 0.0,
			"0.016": 0.0,
			"0.017": 0.0,
			"0.018": 0.0,
			"0.019": 0.0,
			"0.02": 0.0,
			"0.021": 0.0,
			"0.022": 0.0,
			"0.023": 0.0,
			"0.024": 0.0,
			"0.0": 0.0
		}
	}
}
