{
	 "smiles": "CCOC(=O)C1=C(N)SC2=C1CCN(CC1=CC=CC=C1)C2", 
	 "Tm": 385.15, 
	 "num_atms": 42, 
	 "gaussian": { 
		 "optdone": 1, 
		 "sigma_profile": "yes", 
		 "theory": "DFT", 
		 "functional": "B3LYP", 
		 "basiset": "6-31G**", 
		 "properties": { 
			 "R2extent": 10144.3843, 
			 "electric_dipole_moment_norm": 1.00074272918, 
			 "electric_quadrupole_moment_norm": 9.53138435223, 
			 "total_energy": -1318.0132827, 
			 "HOMO_LUMO_gap": 0.17439, 
			 "cosmo_polarized_energy": -11.72, 
			 "cosmo_cavitation_energy": 44.99, 
			 "cosmo_dispersion_energy": -32.02, 
			 "cosmo_repulsion_energy": 2.43, 
			 "cosmo_total_nonelectrostatic_energy": 15.41, 
			 "SMD_solvation_energy": 5.78 
		},
		"coords": [
			{
				"x": 1.6362757342,
				"y": -2.0206248387,
				"z": 4.8887390265,
				"element": "C" 
			},
			{
				"x": 2.8259062305,
				"y": -1.8659586333,
				"z": 3.9523452874,
				"element": "C" 
			},
			{
				"x": 2.4025976522,
				"y": -1.6966140811,
				"z": 2.5807345985,
				"element": "O" 
			},
			{
				"x": 2.1496683431,
				"y": -2.8291174019,
				"z": 1.877981786,
				"element": "C" 
			},
			{
				"x": 2.2751576457,
				"y": -3.9473113298,
				"z": 2.382187427,
				"element": "O" 
			},
			{
				"x": 1.7176541749,
				"y": -2.5856100888,
				"z": 0.5092178431,
				"element": "C" 
			},
			{
				"x": 1.3757076641,
				"y": -3.6727640401,
				"z": -0.2994655412,
				"element": "C" 
			},
			{
				"x": 1.4921195517,
				"y": -4.9918130487,
				"z": 0.0044957801,
				"element": "N" 
			},
			{
				"x": 0.8099239182,
				"y": -3.1509754838,
				"z": -1.8708052316,
				"element": "S" 
			},
			{
				"x": 1.0324162324,
				"y": -1.4546309983,
				"z": -1.4340786717,
				"element": "C" 
			},
			{
				"x": 1.5262474137,
				"y": -1.3154302737,
				"z": -0.1735671615,
				"element": "C" 
			},
			{
				"x": 1.7995788026,
				"y": 0.0657265472,
				"z": 0.3756266781,
				"element": "C" 
			},
			{
				"x": 1.7425886175,
				"y": 1.1213747201,
				"z": -0.7494094791,
				"element": "C" 
			},
			{
				"x": 0.6233302408,
				"y": 0.9612367121,
				"z": -1.6844020353,
				"element": "N" 
			},
			{
				"x": -0.6893133584,
				"y": 1.1721700478,
				"z": -1.0644842043,
				"element": "C" 
			},
			{
				"x": -1.7847486783,
				"y": 1.4338441399,
				"z": -2.083492702,
				"element": "C" 
			},
			{
				"x": -3.0541317564,
				"y": 0.8661474446,
				"z": -1.925682457,
				"element": "C" 
			},
			{
				"x": -4.0804577653,
				"y": 1.1453178088,
				"z": -2.831302879,
				"element": "C" 
			},
			{
				"x": -3.8449812722,
				"y": 1.9931856654,
				"z": -3.9139129133,
				"element": "C" 
			},
			{
				"x": -2.5782304378,
				"y": 2.5586011707,
				"z": -4.084705212,
				"element": "C" 
			},
			{
				"x": -1.557142545,
				"y": 2.2818912912,
				"z": -3.1763747789,
				"element": "C" 
			},
			{
				"x": 0.7308214681,
				"y": -0.3220490958,
				"z": -2.387590202,
				"element": "C" 
			},
			{
				"x": 0.9512551657,
				"y": -1.1729398396,
				"z": 4.7919844762,
				"element": "H" 
			},
			{
				"x": 1.9826774398,
				"y": -2.0656510355,
				"z": 5.9268702457,
				"element": "H" 
			},
			{
				"x": 1.0934185508,
				"y": -2.9423912176,
				"z": 4.6671250665,
				"element": "H" 
			},
			{
				"x": 3.4898554112,
				"y": -2.7310614735,
				"z": 4.0152778916,
				"element": "H" 
			},
			{
				"x": 3.3917485409,
				"y": -0.9574743286,
				"z": 4.1741042239,
				"element": "H" 
			},
			{
				"x": 0.9438352283,
				"y": -5.6678757167,
				"z": -0.5030887648,
				"element": "H" 
			},
			{
				"x": 1.717813674,
				"y": -5.168711937,
				"z": 0.9803266016,
				"element": "H" 
			},
			{
				"x": 2.7799249691,
				"y": 0.0965787879,
				"z": 0.8610510858,
				"element": "H" 
			},
			{
				"x": 1.0759110805,
				"y": 0.2991343215,
				"z": 1.1676065722,
				"element": "H" 
			},
			{
				"x": 1.6959275767,
				"y": 2.1275715902,
				"z": -0.3180173618,
				"element": "H" 
			},
			{
				"x": 2.6657395672,
				"y": 1.0672347331,
				"z": -1.3400908679,
				"element": "H" 
			},
			{
				"x": -0.9981565513,
				"y": 0.3375598129,
				"z": -0.4117092493,
				"element": "H" 
			},
			{
				"x": -0.5921944879,
				"y": 2.0523133377,
				"z": -0.4143844309,
				"element": "H" 
			},
			{
				"x": -3.2402457907,
				"y": 0.1989666621,
				"z": -1.0870585734,
				"element": "H" 
			},
			{
				"x": -5.0595700646,
				"y": 0.6946391544,
				"z": -2.6940210768,
				"element": "H" 
			},
			{
				"x": -4.6399320128,
				"y": 2.2090337236,
				"z": -4.6222531639,
				"element": "H" 
			},
			{
				"x": -2.3867243279,
				"y": 3.2169882934,
				"z": -4.9278255046,
				"element": "H" 
			},
			{
				"x": -0.5669045628,
				"y": 2.7070137853,
				"z": -3.3088016199,
				"element": "H" 
			},
			{
				"x": -0.2012983523,
				"y": -0.4995445969,
				"z": -2.9345917393,
				"element": "H" 
			},
			{
				"x": 1.5246310696,
				"y": -0.2375802903,
				"z": -3.1445587686,
				"element": "H" 
			}
		],
		 "valence_orbital": [ 
			{
				"type": "occ",
				"energy": -0.24501,
				"method": "rhf"
			},
			{
				"type": "occ",
				"energy": -0.24416,
				"method": "rhf"
			},
			{
				"type": "occ",
				"energy": -0.23855,
				"method": "rhf"
			},
			{
				"type": "occ",
				"energy": -0.21132,
				"method": "rhf"
			},
			{
				"type": "occ",
				"energy": -0.19059,
				"method": "rhf"
			},
			{
				"type": "unocc",
				"energy": -0.0162,
				"method": "rhf"
			},
			{
				"type": "unocc",
				"energy": 0.00154,
				"method": "rhf"
			},
			{
				"type": "unocc",
				"energy": 0.00482,
				"method": "rhf"
			},
			{
				"type": "unocc",
				"energy": 0.01406,
				"method": "rhf"
			},
			{
				"type": "unocc",
				"energy": 0.02135,
				"method": "rhf"
			}
		],
		"cosmo_sigma_profile": { 
			"-0.025": 0.0,
			"-0.024": 0.0,
			"-0.023": 0.0,
			"-0.022": 0.0,
			"-0.021": 0.0,
			"-0.02": 0.0,
			"-0.019": 0.0,
			"-0.018": 0.0,
			"-0.017": 0.0,
			"-0.016": 0.0,
			"-0.015": 0.288984384508,
			"-0.014": 1.47547214628,
			"-0.013": 1.21621092311,
			"-0.012": 1.45072897004,
			"-0.011": 1.41615890015,
			"-0.01": 1.17422320415,
			"-0.009": 2.22514138232,
			"-0.008": 1.61596365972,
			"-0.007": 1.72625173499,
			"-0.006": 3.89342805295,
			"-0.005": 15.8349301224,
			"-0.004": 30.4957342546,
			"-0.003": 42.3755450705,
			"-0.002": 37.1613796195,
			"-0.001": 33.1974154492,
			"0.0": 29.8200285292,
			"0.001": 25.5461659384,
			"0.002": 24.7525491183,
			"0.003": 26.4483622676,
			"0.004": 25.0988919275,
			"0.005": 19.8940279697,
			"0.006": 11.960940321,
			"0.007": 5.02048620601,
			"0.008": 3.06597202454,
			"0.009": 2.97302221049,
			"0.01": 2.22688058414,
			"0.011": 2.58446015823,
			"0.012": 1.65790668953,
			"0.013": 0.528694570946,
			"0.014": 0.0,
			"0.015": 0.0,
			"0.016": 0.0,
			"0.017": 0.0,
			"0.018": 0.0,
			"0.019": 0.0,
			"0.02": 0.0,
			"0.021": 0.0,
			"0.022": 0.0,
			"0.023": 0.0,
			"0.024": 0.0,
			"0.025": 0.0
		}
	}
}
