{
	 "smiles": "CC1=C(C=NN1C1=NC=CC=C1)C(O)=O", 
	 "Tm": 448.15, 
	 "num_atms": 24, 
	 "gaussian": { 
		 "optdone": 1, 
		 "sigma_profile": "yes", 
		 "theory": "DFT", 
		 "functional": "B3LYP", 
		 "basiset": "6-31G**", 
		 "properties": { 
			 "R2extent": 3749.0049, 
			 "electric_dipole_moment_norm": 6.62762993083, 
			 "electric_quadrupole_moment_norm": 8.9964519473, 
			 "total_energy": -701.181985338, 
			 "HOMO_LUMO_gap": 0.19413, 
			 "cosmo_polarized_energy": -15.82, 
			 "cosmo_cavitation_energy": 28.65, 
			 "cosmo_dispersion_energy": -21.11, 
			 "cosmo_repulsion_energy": 1.62, 
			 "cosmo_total_nonelectrostatic_energy": 9.17, 
			 "SMD_solvation_energy": 5.05 
		},
		"coords": [
			{
				"x": -0.2400635994,
				"y": 1.6618092524,
				"z": -0.0643326609,
				"element": "C" 
			},
			{
				"x": -0.0742644837,
				"y": 0.2124850232,
				"z": -0.406891951,
				"element": "C" 
			},
			{
				"x": -0.3608615488,
				"y": -0.4604362228,
				"z": -1.594229114,
				"element": "C" 
			},
			{
				"x": -0.1282478519,
				"y": -1.8322977596,
				"z": -1.3120083972,
				"element": "C" 
			},
			{
				"x": 0.2928004559,
				"y": -2.0174002826,
				"z": -0.0790895643,
				"element": "N" 
			},
			{
				"x": 0.3241643493,
				"y": -0.7647940319,
				"z": 0.476650002,
				"element": "N" 
			},
			{
				"x": 0.7449652569,
				"y": -0.6522016602,
				"z": 1.8295286088,
				"element": "C" 
			},
			{
				"x": 1.0474188214,
				"y": 0.5693714687,
				"z": 2.2632469537,
				"element": "N" 
			},
			{
				"x": 1.4488846929,
				"y": 0.6943783137,
				"z": 3.5355985087,
				"element": "C" 
			},
			{
				"x": 1.5770373232,
				"y": -0.3802098947,
				"z": 4.4102731235,
				"element": "C" 
			},
			{
				"x": 1.2601188246,
				"y": -1.6550366405,
				"z": 3.9322695679,
				"element": "C" 
			},
			{
				"x": 0.8308635147,
				"y": -1.8079694972,
				"z": 2.6200002622,
				"element": "C" 
			},
			{
				"x": -0.8586712401,
				"y": 0.0197376973,
				"z": -2.9003307641,
				"element": "C" 
			},
			{
				"x": -0.6084193257,
				"y": 1.3231136099,
				"z": -3.2252062391,
				"element": "O" 
			},
			{
				"x": -1.4541102074,
				"y": -0.6880737716,
				"z": -3.678768636,
				"element": "O" 
			},
			{
				"x": -0.7590814607,
				"y": 1.7842964646,
				"z": 0.8878444746,
				"element": "H" 
			},
			{
				"x": -0.8298715332,
				"y": 2.1550878897,
				"z": -0.8404327087,
				"element": "H" 
			},
			{
				"x": 0.722261569,
				"y": 2.1701321212,
				"z": 0.0466821374,
				"element": "H" 
			},
			{
				"x": -0.2488650596,
				"y": -2.66632668,
				"z": -1.9892675132,
				"element": "H" 
			},
			{
				"x": 1.6840615959,
				"y": 1.7059649182,
				"z": 3.8598055379,
				"element": "H" 
			},
			{
				"x": 1.9135211623,
				"y": -0.2242342478,
				"z": 5.4295704026,
				"element": "H" 
			},
			{
				"x": 1.3425022461,
				"y": -2.5240998751,
				"z": 4.5781440772,
				"element": "H" 
			},
			{
				"x": 0.5733372539,
				"y": -2.7701804763,
				"z": 2.1990096522,
				"element": "H" 
			},
			{
				"x": 0.0386192446,
				"y": 1.6975842814,
				"z": -2.6122657602,
				"element": "H" 
			}
		],
		 "valence_orbital": [ 
			{
				"type": "occ",
				"energy": -0.29941,
				"method": "rhf"
			},
			{
				"type": "occ",
				"energy": -0.28266,
				"method": "rhf"
			},
			{
				"type": "occ",
				"energy": -0.27111,
				"method": "rhf"
			},
			{
				"type": "occ",
				"energy": -0.26099,
				"method": "rhf"
			},
			{
				"type": "occ",
				"energy": -0.24671,
				"method": "rhf"
			},
			{
				"type": "unocc",
				"energy": -0.05258,
				"method": "rhf"
			},
			{
				"type": "unocc",
				"energy": -0.03841,
				"method": "rhf"
			},
			{
				"type": "unocc",
				"energy": -0.00916,
				"method": "rhf"
			},
			{
				"type": "unocc",
				"energy": 0.02057,
				"method": "rhf"
			},
			{
				"type": "unocc",
				"energy": 0.0643,
				"method": "rhf"
			}
		],
		"cosmo_sigma_profile": { 
			"-0.025": 0.0,
			"-0.024": 0.0,
			"-0.023": 0.0,
			"-0.022": 0.0,
			"-0.021": 0.0,
			"-0.02": 0.0,
			"-0.019": 0.0,
			"-0.018": 0.247544017167,
			"-0.017": 0.698712396407,
			"-0.016": 0.615798446728,
			"-0.015": 1.24394807839,
			"-0.014": 0.6181774494,
			"-0.013": 1.04405357612,
			"-0.012": 1.23418704056,
			"-0.011": 1.06021439714,
			"-0.01": 0.808288801149,
			"-0.009": 0.992452519709,
			"-0.008": 3.33048891223,
			"-0.007": 10.1446368428,
			"-0.006": 12.6267800765,
			"-0.005": 16.8934750652,
			"-0.004": 13.5782970545,
			"-0.003": 14.7834362083,
			"-0.002": 15.3061289847,
			"-0.001": 16.5742797846,
			"0.0": 17.7592248364,
			"0.001": 19.2400818403,
			"0.002": 20.1229501691,
			"0.003": 9.55960175766,
			"0.004": 5.99477045289,
			"0.005": 5.29063184079,
			"0.006": 5.28785914318,
			"0.007": 6.47346247093,
			"0.008": 4.34169331947,
			"0.009": 4.6039051155,
			"0.01": 5.69628626973,
			"0.011": 6.29103996978,
			"0.012": 5.74526235649,
			"0.013": 2.01915189574,
			"0.014": 0.0964835803861,
			"0.015": 0.0,
			"0.016": 0.0,
			"0.017": 0.0,
			"0.018": 0.0,
			"0.019": 0.0,
			"0.02": 0.0,
			"0.021": 0.0,
			"0.022": 0.0,
			"0.023": 0.0,
			"0.024": 0.0,
			"0.025": 0.0
		}
	}
}
