{
	 "smiles": "CCN(CC)C(=O)C1CN2CCC3=CC(OC)=C(OC)C=C3C2CC1OC(C)=O", 
	 "Tm": 404.15, 
	 "num_atms": 61, 
	 "gaussian": { 
		 "optdone": 1, 
		 "sigma_profile": "yes", 
		 "theory": "DFT", 
		 "functional": "B3LYP", 
		 "basiset": "6-31G**", 
		 "properties": { 
			 "R2extent": 13182.4234, 
			 "electric_dipole_moment_norm": 5.29114007564, 
			 "electric_quadrupole_moment_norm": 7.69495872114, 
			 "total_energy": -1343.26030546, 
			 "HOMO_LUMO_gap": 0.206, 
			 "cosmo_polarized_energy": -19.98, 
			 "cosmo_cavitation_energy": 58.92, 
			 "cosmo_dispersion_energy": -37.75, 
			 "cosmo_repulsion_energy": 2.86, 
			 "cosmo_total_nonelectrostatic_energy": 24.03, 
			 "SMD_solvation_energy": 9.11 
		},
		"coords": [
			{
				"x": 3.0563091525,
				"y": -0.7447027706,
				"z": -3.7420810096,
				"element": "C" 
			},
			{
				"x": 1.5567914235,
				"y": -0.9773983757,
				"z": -3.9528116064,
				"element": "C" 
			},
			{
				"x": 0.6947354865,
				"y": 0.051392926,
				"z": -3.3480462656,
				"element": "N" 
			},
			{
				"x": 0.1973255175,
				"y": 1.1406333332,
				"z": -4.1953917297,
				"element": "C" 
			},
			{
				"x": 1.0961613376,
				"y": 2.3829810674,
				"z": -4.2252037802,
				"element": "C" 
			},
			{
				"x": 0.4774913275,
				"y": -0.0512553831,
				"z": -1.9973305324,
				"element": "C" 
			},
			{
				"x": 0.966247009,
				"y": -0.9714807638,
				"z": -1.3399948098,
				"element": "O" 
			},
			{
				"x": -0.4225146153,
				"y": 0.9704711314,
				"z": -1.2908008777,
				"element": "C" 
			},
			{
				"x": -1.7301579949,
				"y": 0.2708367726,
				"z": -0.8533479006,
				"element": "C" 
			},
			{
				"x": -2.5920915341,
				"y": 1.1842209997,
				"z": -0.0962054603,
				"element": "N" 
			},
			{
				"x": -3.889700869,
				"y": 0.5943843042,
				"z": 0.2409172666,
				"element": "C" 
			},
			{
				"x": -3.7960014609,
				"y": -0.607969255,
				"z": 1.201258541,
				"element": "C" 
			},
			{
				"x": -2.7213349269,
				"y": -0.4336487854,
				"z": 2.2612568659,
				"element": "C" 
			},
			{
				"x": -2.600006032,
				"y": -1.3864138295,
				"z": 3.2828054861,
				"element": "C" 
			},
			{
				"x": -1.598708529,
				"y": -1.3204433146,
				"z": 4.2429571076,
				"element": "C" 
			},
			{
				"x": -1.5795931436,
				"y": -2.2577751588,
				"z": 5.2480534913,
				"element": "O" 
			},
			{
				"x": -0.4625146767,
				"y": -3.1494729382,
				"z": 5.2465270975,
				"element": "C" 
			},
			{
				"x": -0.6635642621,
				"y": -0.2632740691,
				"z": 4.1871592383,
				"element": "C" 
			},
			{
				"x": 0.3055565729,
				"y": -0.2529996986,
				"z": 5.1496256609,
				"element": "O" 
			},
			{
				"x": 1.2857857033,
				"y": 0.7762619965,
				"z": 5.0974588393,
				"element": "C" 
			},
			{
				"x": -0.7800265269,
				"y": 0.691190701,
				"z": 3.1767138427,
				"element": "C" 
			},
			{
				"x": -1.7962164068,
				"y": 0.6204594582,
				"z": 2.2099971054,
				"element": "C" 
			},
			{
				"x": -1.9501809357,
				"y": 1.6994987652,
				"z": 1.1271747831,
				"element": "C" 
			},
			{
				"x": -0.6576061935,
				"y": 2.4305602531,
				"z": 0.7311194841,
				"element": "C" 
			},
			{
				"x": 0.2792850992,
				"y": 1.510403138,
				"z": -0.0431145993,
				"element": "C" 
			},
			{
				"x": 1.4542450108,
				"y": 2.2427074774,
				"z": -0.494924103,
				"element": "O" 
			},
			{
				"x": 2.4462221822,
				"y": 2.4196403005,
				"z": 0.4077983039,
				"element": "C" 
			},
			{
				"x": 3.62979705,
				"y": 3.1135576191,
				"z": -0.2245994341,
				"element": "C" 
			},
			{
				"x": 2.3849797974,
				"y": 2.0627091359,
				"z": 1.5660019081,
				"element": "O" 
			},
			{
				"x": 3.3906645259,
				"y": 0.194690753,
				"z": -4.1931651689,
				"element": "H" 
			},
			{
				"x": 3.2820195812,
				"y": -0.7243071089,
				"z": -2.6735935682,
				"element": "H" 
			},
			{
				"x": 3.628767668,
				"y": -1.5603928037,
				"z": -4.1970686782,
				"element": "H" 
			},
			{
				"x": 1.3201881175,
				"y": -1.0156859992,
				"z": -5.0209412901,
				"element": "H" 
			},
			{
				"x": 1.2795046993,
				"y": -1.9368266783,
				"z": -3.5092438307,
				"element": "H" 
			},
			{
				"x": -0.8112493852,
				"y": 1.4161698139,
				"z": -3.8764869249,
				"element": "H" 
			},
			{
				"x": 0.0889018159,
				"y": 0.7364170079,
				"z": -5.2072548076,
				"element": "H" 
			},
			{
				"x": 1.2401280408,
				"y": 2.7824541883,
				"z": -3.217260586,
				"element": "H" 
			},
			{
				"x": 0.6444037393,
				"y": 3.1624726287,
				"z": -4.8486164187,
				"element": "H" 
			},
			{
				"x": 2.0811148772,
				"y": 2.1485575431,
				"z": -4.639468059,
				"element": "H" 
			},
			{
				"x": -0.6801803977,
				"y": 1.8219266719,
				"z": -1.9238307043,
				"element": "H" 
			},
			{
				"x": -1.45049785,
				"y": -0.6379572178,
				"z": -0.2979507126,
				"element": "H" 
			},
			{
				"x": -2.2842883458,
				"y": -0.0502178716,
				"z": -1.7439305284,
				"element": "H" 
			},
			{
				"x": -4.3986842258,
				"y": 0.3021586488,
				"z": -0.6851890707,
				"element": "H" 
			},
			{
				"x": -4.4927728661,
				"y": 1.3882230756,
				"z": 0.6990103599,
				"element": "H" 
			},
			{
				"x": -4.7725047859,
				"y": -0.77594273,
				"z": 1.6729318649,
				"element": "H" 
			},
			{
				"x": -3.5819548438,
				"y": -1.5226518847,
				"z": 0.6311973831,
				"element": "H" 
			},
			{
				"x": -3.3003789988,
				"y": -2.2151137919,
				"z": 3.3479011618,
				"element": "H" 
			},
			{
				"x": -0.409945626,
				"y": -3.709768666,
				"z": 4.3036007806,
				"element": "H" 
			},
			{
				"x": 0.4788069108,
				"y": -2.6158901401,
				"z": 5.4056590542,
				"element": "H" 
			},
			{
				"x": -0.6305828583,
				"y": -3.8479106012,
				"z": 6.069399259,
				"element": "H" 
			},
			{
				"x": 0.8352203828,
				"y": 1.7654172275,
				"z": 5.2510538475,
				"element": "H" 
			},
			{
				"x": 1.9789904539,
				"y": 0.5691478036,
				"z": 5.9143424264,
				"element": "H" 
			},
			{
				"x": 1.8284874422,
				"y": 0.7769722851,
				"z": 4.1446521814,
				"element": "H" 
			},
			{
				"x": -0.0509970081,
				"y": 1.4887434074,
				"z": 3.1264809176,
				"element": "H" 
			},
			{
				"x": -2.6349014324,
				"y": 2.4647229533,
				"z": 1.5216528118,
				"element": "H" 
			},
			{
				"x": -0.9319842422,
				"y": 3.2755416652,
				"z": 0.0897787741,
				"element": "H" 
			},
			{
				"x": -0.1473877876,
				"y": 2.8357823796,
				"z": 1.606423594,
				"element": "H" 
			},
			{
				"x": 0.6204853716,
				"y": 0.6780011085,
				"z": 0.5748516695,
				"element": "H" 
			},
			{
				"x": 4.0519333714,
				"y": 2.4807764537,
				"z": -1.0112460215,
				"element": "H" 
			},
			{
				"x": 3.3149645216,
				"y": 4.050853335,
				"z": -0.6921222347,
				"element": "H" 
			},
			{
				"x": 4.3851145721,
				"y": 3.3090615063,
				"z": 0.5358596055,
				"element": "H" 
			}
		],
		 "valence_orbital": [ 
			{
				"type": "occ",
				"energy": -0.24405,
				"method": "rhf"
			},
			{
				"type": "occ",
				"energy": -0.23711,
				"method": "rhf"
			},
			{
				"type": "occ",
				"energy": -0.22543,
				"method": "rhf"
			},
			{
				"type": "occ",
				"energy": -0.20975,
				"method": "rhf"
			},
			{
				"type": "occ",
				"energy": -0.19697,
				"method": "rhf"
			},
			{
				"type": "unocc",
				"energy": 0.00903,
				"method": "rhf"
			},
			{
				"type": "unocc",
				"energy": 0.01166,
				"method": "rhf"
			},
			{
				"type": "unocc",
				"energy": 0.01849,
				"method": "rhf"
			},
			{
				"type": "unocc",
				"energy": 0.02515,
				"method": "rhf"
			},
			{
				"type": "unocc",
				"energy": 0.07521,
				"method": "rhf"
			}
		],
		"cosmo_sigma_profile": { 
			"-0.025": 0.0,
			"-0.024": 0.0,
			"-0.023": 0.0,
			"-0.022": 0.0,
			"-0.021": 0.0,
			"-0.02": 0.0,
			"-0.019": 0.0,
			"-0.018": 0.0,
			"-0.017": 0.0,
			"-0.016": 0.0,
			"-0.015": 0.0,
			"-0.014": 0.0,
			"-0.013": 0.0,
			"-0.012": 0.0,
			"-0.011": 0.0,
			"-0.01": 0.0,
			"-0.009": 0.0,
			"-0.008": 0.0,
			"-0.007": 0.759532853534,
			"-0.006": 13.0188148174,
			"-0.005": 26.9769970368,
			"-0.004": 48.8069454333,
			"-0.003": 61.7301038295,
			"-0.002": 63.7984827182,
			"-0.001": 46.4986621355,
			"0.0": 35.8426284636,
			"0.001": 33.4146598864,
			"0.002": 22.133173626,
			"0.003": 23.2871720457,
			"0.004": 18.3680172812,
			"0.005": 14.2029315197,
			"0.006": 9.34390987519,
			"0.007": 6.24886847143,
			"0.008": 5.71042257312,
			"0.009": 5.65856132336,
			"0.01": 5.93464623659,
			"0.011": 5.89108397471,
			"0.012": 4.7083175397,
			"0.013": 2.16454268579,
			"0.014": 3.95172944686,
			"0.015": 1.42705247732,
			"0.016": 0.152530595206,
			"0.017": 0.0,
			"0.018": 0.0,
			"0.019": 0.0,
			"0.02": 0.0,
			"0.021": 0.0,
			"0.022": 0.0,
			"0.023": 0.0,
			"0.024": 0.0,
			"0.025": 0.0
		}
	}
}
