{
	 "smiles": "OC(=O)CCC1=CC2=C(OCCO2)C=C1", 
	 "Tm": 338.15, 
	 "num_atms": 27, 
	 "gaussian": { 
		 "optdone": 1, 
		 "sigma_profile": "yes", 
		 "theory": "DFT", 
		 "functional": "B3LYP", 
		 "basiset": "6-31G**", 
		 "properties": { 
			 "R2extent": 4620.5751, 
			 "electric_dipole_moment_norm": 6.08661265894, 
			 "electric_quadrupole_moment_norm": 29.8124678469, 
			 "total_energy": -727.292777869, 
			 "HOMO_LUMO_gap": 0.20767, 
			 "cosmo_polarized_energy": -15.82, 
			 "cosmo_cavitation_energy": 30.09, 
			 "cosmo_dispersion_energy": -22.12, 
			 "cosmo_repulsion_energy": 1.74, 
			 "cosmo_total_nonelectrostatic_energy": 9.71, 
			 "SMD_solvation_energy": 6.25 
		},
		"coords": [
			{
				"x": -2.1831025938,
				"y": 2.7503498713,
				"z": -2.3278907129,
				"element": "O" 
			},
			{
				"x": -2.3758540583,
				"y": 2.1813568077,
				"z": -3.5434196547,
				"element": "C" 
			},
			{
				"x": -2.8597674663,
				"y": 2.822815119,
				"z": -4.4440126115,
				"element": "O" 
			},
			{
				"x": -1.9829188517,
				"y": 0.7121122574,
				"z": -3.6839099468,
				"element": "C" 
			},
			{
				"x": -0.5837554704,
				"y": 0.3248992096,
				"z": -3.1434100931,
				"element": "C" 
			},
			{
				"x": -0.4563757364,
				"y": 0.2975098291,
				"z": -1.6302537372,
				"element": "C" 
			},
			{
				"x": 0.3422375231,
				"y": 1.2309176122,
				"z": -0.9561378432,
				"element": "C" 
			},
			{
				"x": 0.469558362,
				"y": 1.2019626642,
				"z": 0.4353985336,
				"element": "C" 
			},
			{
				"x": -0.225906443,
				"y": 0.235784481,
				"z": 1.1805613068,
				"element": "C" 
			},
			{
				"x": -0.1506996889,
				"y": 0.1820175382,
				"z": 2.5488884815,
				"element": "O" 
			},
			{
				"x": 0.3775112538,
				"y": 1.3694396145,
				"z": 3.1431883833,
				"element": "C" 
			},
			{
				"x": 1.6138310606,
				"y": 1.8280114165,
				"z": 2.3870241736,
				"element": "C" 
			},
			{
				"x": 1.2782610493,
				"y": 2.1342074772,
				"z": 1.0319858591,
				"element": "O" 
			},
			{
				"x": -1.0157467465,
				"y": -0.7049348156,
				"z": 0.5161083575,
				"element": "C" 
			},
			{
				"x": -1.126418634,
				"y": -0.6778488185,
				"z": -0.8705938057,
				"element": "C" 
			},
			{
				"x": -1.7591306465,
				"y": 2.1246529913,
				"z": -1.7167170275,
				"element": "H" 
			},
			{
				"x": -2.0491461985,
				"y": 0.48523249,
				"z": -4.7499346917,
				"element": "H" 
			},
			{
				"x": -2.748900146,
				"y": 0.1096912907,
				"z": -3.1776520656,
				"element": "H" 
			},
			{
				"x": -0.3510655612,
				"y": -0.672623673,
				"z": -3.5343458881,
				"element": "H" 
			},
			{
				"x": 0.16768269,
				"y": 1.0011198663,
				"z": -3.5652404125,
				"element": "H" 
			},
			{
				"x": 0.8959603275,
				"y": 1.9906715956,
				"z": -1.5001973295,
				"element": "H" 
			},
			{
				"x": -0.3835314481,
				"y": 2.1613208245,
				"z": 3.1326114288,
				"element": "H" 
			},
			{
				"x": 0.6159852596,
				"y": 1.1176860559,
				"z": 4.1793699036,
				"element": "H" 
			},
			{
				"x": 2.3808264118,
				"y": 1.0422247649,
				"z": 2.4114550387,
				"element": "H" 
			},
			{
				"x": 2.0268799278,
				"y": 2.7433960337,
				"z": 2.8175680202,
				"element": "H" 
			},
			{
				"x": -1.5372023472,
				"y": -1.4482525408,
				"z": 1.1105985517,
				"element": "H" 
			},
			{
				"x": -1.7394118286,
				"y": -1.4238199628,
				"z": -1.3691422185,
				"element": "H" 
			}
		],
		 "valence_orbital": [ 
			{
				"type": "occ",
				"energy": -0.31596,
				"method": "rhf"
			},
			{
				"type": "occ",
				"energy": -0.30021,
				"method": "rhf"
			},
			{
				"type": "occ",
				"energy": -0.25627,
				"method": "rhf"
			},
			{
				"type": "occ",
				"energy": -0.25033,
				"method": "rhf"
			},
			{
				"type": "occ",
				"energy": -0.22266,
				"method": "rhf"
			},
			{
				"type": "unocc",
				"energy": -0.01499,
				"method": "rhf"
			},
			{
				"type": "unocc",
				"energy": -0.00812,
				"method": "rhf"
			},
			{
				"type": "unocc",
				"energy": 0.02175,
				"method": "rhf"
			},
			{
				"type": "unocc",
				"energy": 0.07125,
				"method": "rhf"
			},
			{
				"type": "unocc",
				"energy": 0.09284,
				"method": "rhf"
			}
		],
		"cosmo_sigma_profile": { 
			"-0.025": 0.0,
			"-0.024": 0.0,
			"-0.023": 0.0,
			"-0.022": 0.0,
			"-0.021": 0.0,
			"-0.02": 0.0,
			"-0.019": 0.0,
			"-0.018": 0.0,
			"-0.017": 0.0,
			"-0.016": 0.0,
			"-0.015": 0.0,
			"-0.014": 0.0,
			"-0.013": 0.0,
			"-0.012": 0.0,
			"-0.011": 0.0,
			"-0.01": 0.0239518296974,
			"-0.009": 1.02619592209,
			"-0.008": 2.26538748546,
			"-0.007": 9.59692089481,
			"-0.006": 25.3618308518,
			"-0.005": 27.2364514546,
			"-0.004": 24.0717853765,
			"-0.003": 18.0919403312,
			"-0.002": 15.020981539,
			"-0.001": 10.772809274,
			"0.0": 10.3125271276,
			"0.001": 9.62921614127,
			"0.002": 9.05185462907,
			"0.003": 12.3798810334,
			"0.004": 11.803360386,
			"0.005": 9.07384572569,
			"0.006": 4.2558983887,
			"0.007": 3.34868005061,
			"0.008": 5.33096578963,
			"0.009": 5.97842368624,
			"0.01": 6.64678226179,
			"0.011": 6.57273856955,
			"0.012": 5.87734170032,
			"0.013": 3.78632042743,
			"0.014": 0.576467952617,
			"0.015": 0.0,
			"0.016": 0.0,
			"0.017": 0.0,
			"0.018": 0.0,
			"0.019": 0.0,
			"0.02": 0.0,
			"0.021": 0.0,
			"0.022": 0.0,
			"0.023": 0.0,
			"0.024": 0.0,
			"0.025": 0.0
		}
	}
}
