{
	 "smiles": "[O-][N+](=O)C1=CC=CC=C1S(Cl)(=O)=O", 
	 "Tm": 340.15, 
	 "num_atms": 17, 
	 "gaussian": { 
		 "optdone": 1, 
		 "sigma_profile": "yes", 
		 "theory": "DFT", 
		 "functional": "B3LYP", 
		 "basiset": "6-31G**", 
		 "properties": { 
			 "R2extent": 3500.1396, 
			 "electric_dipole_moment_norm": 6.91046965842, 
			 "electric_quadrupole_moment_norm": 8.4710338519, 
			 "total_energy": -1444.88285494, 
			 "HOMO_LUMO_gap": 0.18534, 
			 "cosmo_polarized_energy": -13.81, 
			 "cosmo_cavitation_energy": 25.44, 
			 "cosmo_dispersion_energy": -19.24, 
			 "cosmo_repulsion_energy": 1.46, 
			 "cosmo_total_nonelectrostatic_energy": 7.67, 
			 "SMD_solvation_energy": 5.29 
		},
		"coords": [
			{
				"x": 1.3975731527,
				"y": -1.9800641277,
				"z": 3.1994855777,
				"element": "O" 
			},
			{
				"x": 1.180166569,
				"y": -2.000314959,
				"z": 1.9912798592,
				"element": "N" 
			},
			{
				"x": 1.3523297054,
				"y": -2.9562260271,
				"z": 1.2453296117,
				"element": "O" 
			},
			{
				"x": 0.6039734006,
				"y": -0.7766254149,
				"z": 1.3983935685,
				"element": "C" 
			},
			{
				"x": -0.2708790483,
				"y": -0.0575052466,
				"z": 2.2072699333,
				"element": "C" 
			},
			{
				"x": -0.9248274253,
				"y": 1.0649689826,
				"z": 1.7007286342,
				"element": "C" 
			},
			{
				"x": -0.6852360222,
				"y": 1.4785379385,
				"z": 0.3922604509,
				"element": "C" 
			},
			{
				"x": 0.2166822106,
				"y": 0.7771186901,
				"z": -0.4099311354,
				"element": "C" 
			},
			{
				"x": 0.8599524553,
				"y": -0.3597573914,
				"z": 0.08236722,
				"element": "C" 
			},
			{
				"x": 2.1223177072,
				"y": -1.0571091762,
				"z": -1.0193402872,
				"element": "S" 
			},
			{
				"x": 1.1387271395,
				"y": -2.7072551243,
				"z": -1.8836945014,
				"element": "Cl" 
			},
			{
				"x": 3.2533434313,
				"y": -1.531873011,
				"z": -0.2391167215,
				"element": "O" 
			},
			{
				"x": 2.2997442158,
				"y": -0.1050469796,
				"z": -2.1097505749,
				"element": "O" 
			},
			{
				"x": -0.428417366,
				"y": -0.3979345989,
				"z": 3.2234677193,
				"element": "H" 
			},
			{
				"x": -1.6164061069,
				"y": 1.6123533415,
				"z": 2.3327680501,
				"element": "H" 
			},
			{
				"x": -1.1850170116,
				"y": 2.3545808301,
				"z": -0.0078528312,
				"element": "H" 
			},
			{
				"x": 0.4431729929,
				"y": 1.1122522739,
				"z": -1.4148645731,
				"element": "H" 
			}
		],
		 "valence_orbital": [ 
			{
				"type": "occ",
				"energy": -0.32767,
				"method": "rhf"
			},
			{
				"type": "occ",
				"energy": -0.32182,
				"method": "rhf"
			},
			{
				"type": "occ",
				"energy": -0.31741,
				"method": "rhf"
			},
			{
				"type": "occ",
				"energy": -0.31076,
				"method": "rhf"
			},
			{
				"type": "occ",
				"energy": -0.3002,
				"method": "rhf"
			},
			{
				"type": "unocc",
				"energy": -0.11486,
				"method": "rhf"
			},
			{
				"type": "unocc",
				"energy": -0.0894,
				"method": "rhf"
			},
			{
				"type": "unocc",
				"energy": -0.06428,
				"method": "rhf"
			},
			{
				"type": "unocc",
				"energy": -0.03989,
				"method": "rhf"
			},
			{
				"type": "unocc",
				"energy": 0.02989,
				"method": "rhf"
			}
		],
		"cosmo_sigma_profile": { 
			"-0.025": 0.0,
			"-0.024": 0.0,
			"-0.023": 0.0,
			"-0.022": 0.0,
			"-0.021": 0.0,
			"-0.02": 0.0,
			"-0.019": 0.0,
			"-0.018": 0.0,
			"-0.017": 0.0,
			"-0.016": 0.0,
			"-0.015": 0.0,
			"-0.014": 0.0,
			"-0.013": 0.0,
			"-0.012": 0.0,
			"-0.011": 0.0,
			"-0.01": 0.369690878124,
			"-0.009": 7.08417659687,
			"-0.008": 11.1868200214,
			"-0.007": 9.71139705384,
			"-0.006": 9.19386711054,
			"-0.005": 8.71401060899,
			"-0.004": 9.01834934482,
			"-0.003": 13.8799273504,
			"-0.002": 17.8716186437,
			"-0.001": 16.6093565901,
			"0.0": 12.971517085,
			"0.001": 8.56450453683,
			"0.002": 11.5002081341,
			"0.003": 12.3731237583,
			"0.004": 7.74867136012,
			"0.005": 7.16935995679,
			"0.006": 12.1582030757,
			"0.007": 14.7721051184,
			"0.008": 13.0505862921,
			"0.009": 4.02728234435,
			"0.01": 0.00993456740582,
			"0.011": 0.0,
			"0.012": 0.0,
			"0.013": 0.0,
			"0.014": 0.0,
			"0.015": 0.0,
			"0.016": 0.0,
			"0.017": 0.0,
			"0.018": 0.0,
			"0.019": 0.0,
			"0.02": 0.0,
			"0.021": 0.0,
			"0.022": 0.0,
			"0.023": 0.0,
			"0.024": 0.0,
			"0.025": 0.0
		}
	}
}
