{
	 "smiles": "S=C(NC1=C2C=CC=CC2=CC=C1)NC1=C2C=CC=CC2=CC=C1", 
	 "Tm": 481.15, 
	 "num_atms": 40, 
	 "gaussian": { 
		 "optdone": 1, 
		 "sigma_profile": "yes", 
		 "theory": "DFT", 
		 "functional": "B3LYP", 
		 "basiset": "6-31G**", 
		 "properties": { 
			 "R2extent": 8927.0779, 
			 "electric_dipole_moment_norm": 5.79324677361, 
			 "electric_quadrupole_moment_norm": 13.5147795687, 
			 "total_energy": -1317.60241111, 
			 "HOMO_LUMO_gap": 0.13627, 
			 "cosmo_polarized_energy": -17.76, 
			 "cosmo_cavitation_energy": 45.18, 
			 "cosmo_dispersion_energy": -31.12, 
			 "cosmo_repulsion_energy": 2.31, 
			 "cosmo_total_nonelectrostatic_energy": 16.37, 
			 "SMD_solvation_energy": 6.23 
		},
		"coords": [
			{
				"x": 0.9484083423,
				"y": -2.5823957427,
				"z": -1.5123466797,
				"element": "S" 
			},
			{
				"x": 1.1337826924,
				"y": -1.1136292243,
				"z": -0.7182377125,
				"element": "C" 
			},
			{
				"x": 0.2119280481,
				"y": -0.4903162926,
				"z": 0.0709792938,
				"element": "N" 
			},
			{
				"x": -1.0840651969,
				"y": -0.9136553792,
				"z": 0.4606578644,
				"element": "C" 
			},
			{
				"x": -2.1203741725,
				"y": 0.0768218384,
				"z": 0.499539132,
				"element": "C" 
			},
			{
				"x": -1.9357152831,
				"y": 1.4188082679,
				"z": 0.0660321484,
				"element": "C" 
			},
			{
				"x": -2.9575785094,
				"y": 2.3395164986,
				"z": 0.1469116373,
				"element": "C" 
			},
			{
				"x": -4.2212440595,
				"y": 1.9658413956,
				"z": 0.6609310255,
				"element": "C" 
			},
			{
				"x": -4.4398470774,
				"y": 0.6692735363,
				"z": 1.0664611296,
				"element": "C" 
			},
			{
				"x": -3.4113682179,
				"y": -0.3086372737,
				"z": 0.9933552213,
				"element": "C" 
			},
			{
				"x": -3.6377174339,
				"y": -1.6541413111,
				"z": 1.385475653,
				"element": "C" 
			},
			{
				"x": -2.6262154995,
				"y": -2.5822700324,
				"z": 1.303554117,
				"element": "C" 
			},
			{
				"x": -1.339396435,
				"y": -2.2120376712,
				"z": 0.854744314,
				"element": "C" 
			},
			{
				"x": 2.3182232466,
				"y": -0.4191064439,
				"z": -0.8487525958,
				"element": "N" 
			},
			{
				"x": 2.5912199343,
				"y": 0.91196225,
				"z": -0.4006730451,
				"element": "C" 
			},
			{
				"x": 2.9297039787,
				"y": 1.1490904741,
				"z": 0.9716404394,
				"element": "C" 
			},
			{
				"x": 3.0070956595,
				"y": 0.1074631739,
				"z": 1.9358499302,
				"element": "C" 
			},
			{
				"x": 3.3295184624,
				"y": 0.3875637203,
				"z": 3.2449110516,
				"element": "C" 
			},
			{
				"x": 3.5894673381,
				"y": 1.7179574453,
				"z": 3.6546709859,
				"element": "C" 
			},
			{
				"x": 3.5346597154,
				"y": 2.7456884262,
				"z": 2.7414913563,
				"element": "C" 
			},
			{
				"x": 3.2111937657,
				"y": 2.4956819442,
				"z": 1.3801196322,
				"element": "C" 
			},
			{
				"x": 3.1771086669,
				"y": 3.5387594962,
				"z": 0.4164617387,
				"element": "C" 
			},
			{
				"x": 2.8741182117,
				"y": 3.2742408919,
				"z": -0.899641755,
				"element": "C" 
			},
			{
				"x": 2.5710128863,
				"y": 1.954934265,
				"z": -1.3077587452,
				"element": "C" 
			},
			{
				"x": 0.4703966262,
				"y": 0.4329429508,
				"z": 0.3964460084,
				"element": "H" 
			},
			{
				"x": -0.9868756998,
				"y": 1.7208733275,
				"z": -0.3659430277,
				"element": "H" 
			},
			{
				"x": -2.795143048,
				"y": 3.3570005564,
				"z": -0.1966518802,
				"element": "H" 
			},
			{
				"x": -5.0183795261,
				"y": 2.7008305498,
				"z": 0.7228171422,
				"element": "H" 
			},
			{
				"x": -5.4121288461,
				"y": 0.3686553638,
				"z": 1.4483548918,
				"element": "H" 
			},
			{
				"x": -4.6226697024,
				"y": -1.9364409847,
				"z": 1.7471768735,
				"element": "H" 
			},
			{
				"x": -2.8017769187,
				"y": -3.6114648147,
				"z": 1.6018406413,
				"element": "H" 
			},
			{
				"x": -0.5453547154,
				"y": -2.9456844874,
				"z": 0.8133941327,
				"element": "H" 
			},
			{
				"x": 2.9259428747,
				"y": -0.822299477,
				"z": -1.5491785454,
				"element": "H" 
			},
			{
				"x": 2.8192651558,
				"y": -0.913064945,
				"z": 1.6208934381,
				"element": "H" 
			},
			{
				"x": 3.3889648624,
				"y": -0.4185217204,
				"z": 3.9701462657,
				"element": "H" 
			},
			{
				"x": 3.8385326389,
				"y": 1.9224997663,
				"z": 4.6916839156,
				"element": "H" 
			},
			{
				"x": 3.7421307548,
				"y": 3.7676079821,
				"z": 3.0476528133,
				"element": "H" 
			},
			{
				"x": 3.3999112059,
				"y": 4.5529802081,
				"z": 0.7368543646,
				"element": "H" 
			},
			{
				"x": 2.854920454,
				"y": 4.0763591884,
				"z": -1.6309890378,
				"element": "H" 
			},
			{
				"x": 2.3140448206,
				"y": 1.7488122833,
				"z": -2.3425741334,
				"element": "H" 
			}
		],
		 "valence_orbital": [ 
			{
				"type": "occ",
				"energy": -0.24477,
				"method": "rhf"
			},
			{
				"type": "occ",
				"energy": -0.23507,
				"method": "rhf"
			},
			{
				"type": "occ",
				"energy": -0.21631,
				"method": "rhf"
			},
			{
				"type": "occ",
				"energy": -0.20486,
				"method": "rhf"
			},
			{
				"type": "occ",
				"energy": -0.19645,
				"method": "rhf"
			},
			{
				"type": "unocc",
				"energy": -0.06018,
				"method": "rhf"
			},
			{
				"type": "unocc",
				"energy": -0.04318,
				"method": "rhf"
			},
			{
				"type": "unocc",
				"energy": -0.02692,
				"method": "rhf"
			},
			{
				"type": "unocc",
				"energy": -0.00916,
				"method": "rhf"
			},
			{
				"type": "unocc",
				"energy": -0.00111,
				"method": "rhf"
			}
		],
		"cosmo_sigma_profile": { 
			"-0.025": 0.0,
			"-0.024": 0.0,
			"-0.023": 0.0,
			"-0.022": 0.0,
			"-0.021": 0.0,
			"-0.02": 0.0,
			"-0.019": 0.0,
			"-0.018": 0.0,
			"-0.017": 0.0,
			"-0.016": 0.0,
			"-0.015": 0.0918561393245,
			"-0.014": 0.777775295115,
			"-0.013": 0.832720719356,
			"-0.012": 0.605624756567,
			"-0.011": 2.34788935268,
			"-0.01": 1.99316852625,
			"-0.009": 1.5324937219,
			"-0.008": 2.30376552741,
			"-0.007": 6.09401379864,
			"-0.006": 26.2868235721,
			"-0.005": 29.5756014012,
			"-0.004": 32.8385230945,
			"-0.003": 23.8244073386,
			"-0.002": 22.6413525747,
			"-0.001": 20.1353997844,
			"0.0": 21.5995581624,
			"0.001": 23.2991438611,
			"0.002": 26.0132555684,
			"0.003": 35.349489736,
			"0.004": 36.3864284949,
			"0.005": 18.0121290459,
			"0.006": 3.93062312995,
			"0.007": 4.22018412862,
			"0.008": 4.75190794948,
			"0.009": 5.15434626935,
			"0.01": 5.50091144949,
			"0.011": 6.88688511271,
			"0.012": 3.01694655331,
			"0.013": 0.0290093794587,
			"0.014": 0.0,
			"0.015": 0.0,
			"0.016": 0.0,
			"0.017": 0.0,
			"0.018": 0.0,
			"0.019": 0.0,
			"0.02": 0.0,
			"0.021": 0.0,
			"0.022": 0.0,
			"0.023": 0.0,
			"0.024": 0.0,
			"0.025": 0.0
		}
	}
}
