{
	 "smiles": "NC(=S)NC1CCCCCC1", 
	 "Tm": 363.15, 
	 "num_atms": 27, 
	 "gaussian": { 
		 "optdone": 1, 
		 "sigma_profile": "yes", 
		 "theory": "DFT", 
		 "functional": "B3LYP", 
		 "basiset": "6-31G**", 
		 "properties": { 
			 "R2extent": 2906.0428, 
			 "electric_dipole_moment_norm": 6.33740777132, 
			 "electric_quadrupole_moment_norm": 23.9986670765, 
			 "total_energy": -822.210441615, 
			 "HOMO_LUMO_gap": 0.20142, 
			 "cosmo_polarized_energy": -17.21, 
			 "cosmo_cavitation_energy": 28.45, 
			 "cosmo_dispersion_energy": -21.54, 
			 "cosmo_repulsion_energy": 1.7, 
			 "cosmo_total_nonelectrostatic_energy": 8.61, 
			 "SMD_solvation_energy": 2.48 
		},
		"coords": [
			{
				"x": -2.0971603293,
				"y": -1.2837782402,
				"z": 1.1405002578,
				"element": "N" 
			},
			{
				"x": -1.7197201508,
				"y": -2.1087248411,
				"z": 0.1201974055,
				"element": "C" 
			},
			{
				"x": -2.5442892731,
				"y": -3.5468637628,
				"z": -0.192837671,
				"element": "S" 
			},
			{
				"x": -0.661255739,
				"y": -1.7225416185,
				"z": -0.6419559342,
				"element": "N" 
			},
			{
				"x": -0.002546945,
				"y": -0.4036101085,
				"z": -0.7430721997,
				"element": "C" 
			},
			{
				"x": 0.7386739269,
				"y": -0.0018439599,
				"z": 0.5563435082,
				"element": "C" 
			},
			{
				"x": 2.0550337915,
				"y": 0.7715001003,
				"z": 0.3464295582,
				"element": "C" 
			},
			{
				"x": 2.0306310696,
				"y": 1.9041558562,
				"z": -0.7040589784,
				"element": "C" 
			},
			{
				"x": 0.7036358736,
				"y": 2.6735447295,
				"z": -0.8489524412,
				"element": "C" 
			},
			{
				"x": -0.3217195354,
				"y": 1.9746397712,
				"z": -1.7611712036,
				"element": "C" 
			},
			{
				"x": -0.9802014439,
				"y": 0.6906404515,
				"z": -1.2295299998,
				"element": "C" 
			},
			{
				"x": -2.7851481209,
				"y": -1.6736564749,
				"z": 1.7660914975,
				"element": "H" 
			},
			{
				"x": -1.4462322939,
				"y": -0.6204051961,
				"z": 1.5328790721,
				"element": "H" 
			},
			{
				"x": -0.5056055125,
				"y": -2.359781517,
				"z": -1.4097923248,
				"element": "H" 
			},
			{
				"x": 0.75411468,
				"y": -0.5594782614,
				"z": -1.5213188539,
				"element": "H" 
			},
			{
				"x": 0.0725817359,
				"y": 0.6169165059,
				"z": 1.1737970761,
				"element": "H" 
			},
			{
				"x": 0.9596294048,
				"y": -0.9057158825,
				"z": 1.1342310338,
				"element": "H" 
			},
			{
				"x": 2.8465180773,
				"y": 0.0616754125,
				"z": 0.0758832287,
				"element": "H" 
			},
			{
				"x": 2.3469941955,
				"y": 1.1864348969,
				"z": 1.3188075309,
				"element": "H" 
			},
			{
				"x": 2.8352320215,
				"y": 2.6068324246,
				"z": -0.4578267917,
				"element": "H" 
			},
			{
				"x": 2.292294648,
				"y": 1.4974834337,
				"z": -1.6900146724,
				"element": "H" 
			},
			{
				"x": 0.9210658868,
				"y": 3.6546943672,
				"z": -1.2877420861,
				"element": "H" 
			},
			{
				"x": 0.2649207971,
				"y": 2.8795739915,
				"z": 0.1373620866,
				"element": "H" 
			},
			{
				"x": -1.1258752238,
				"y": 2.6812446307,
				"z": -2.0002895265,
				"element": "H" 
			},
			{
				"x": 0.1742582689,
				"y": 1.7515249826,
				"z": -2.7166168489,
				"element": "H" 
			},
			{
				"x": -1.6657297547,
				"y": 0.9368837799,
				"z": -0.4096748176,
				"element": "H" 
			},
			{
				"x": -1.6011000551,
				"y": 0.2651545289,
				"z": -2.0260679058,
				"element": "H" 
			}
		],
		 "valence_orbital": [ 
			{
				"type": "occ",
				"energy": -0.32659,
				"method": "rhf"
			},
			{
				"type": "occ",
				"energy": -0.32075,
				"method": "rhf"
			},
			{
				"type": "occ",
				"energy": -0.26538,
				"method": "rhf"
			},
			{
				"type": "occ",
				"energy": -0.2026,
				"method": "rhf"
			},
			{
				"type": "occ",
				"energy": -0.19461,
				"method": "rhf"
			},
			{
				"type": "unocc",
				"energy": 0.00681,
				"method": "rhf"
			},
			{
				"type": "unocc",
				"energy": 0.05554,
				"method": "rhf"
			},
			{
				"type": "unocc",
				"energy": 0.06489,
				"method": "rhf"
			},
			{
				"type": "unocc",
				"energy": 0.07398,
				"method": "rhf"
			},
			{
				"type": "unocc",
				"energy": 0.10011,
				"method": "rhf"
			}
		],
		"cosmo_sigma_profile": { 
			"-0.025": 0.0,
			"-0.024": 0.0,
			"-0.023": 0.0,
			"-0.022": 0.0,
			"-0.021": 0.0,
			"-0.02": 0.0,
			"-0.019": 0.0,
			"-0.018": 0.0,
			"-0.017": 0.0,
			"-0.016": 0.0,
			"-0.015": 0.0,
			"-0.014": 0.878623950952,
			"-0.013": 2.62985011141,
			"-0.012": 3.30723197525,
			"-0.011": 3.4155512275,
			"-0.01": 2.57069689474,
			"-0.009": 2.9829362356,
			"-0.008": 3.39383418428,
			"-0.007": 3.34234659717,
			"-0.006": 4.19834508536,
			"-0.005": 5.17997334461,
			"-0.004": 7.99662978272,
			"-0.003": 18.0541523143,
			"-0.002": 33.1973726473,
			"-0.001": 31.114049804,
			"0.0": 26.6755420572,
			"0.001": 19.0572866733,
			"0.002": 4.42951304028,
			"0.003": 2.88646353451,
			"0.004": 4.41503460438,
			"0.005": 4.51624450017,
			"0.006": 3.99170419752,
			"0.007": 3.25111470538,
			"0.008": 3.85976095295,
			"0.009": 3.29228738367,
			"0.01": 4.17656646674,
			"0.011": 5.5369575677,
			"0.012": 7.83960326902,
			"0.013": 5.91202074335,
			"0.014": 0.237226009627,
			"0.015": 0.0,
			"0.016": 0.0,
			"0.017": 0.0,
			"0.018": 0.0,
			"0.019": 0.0,
			"0.02": 0.0,
			"0.021": 0.0,
			"0.022": 0.0,
			"0.023": 0.0,
			"0.024": 0.0,
			"0.025": 0.0
		}
	}
}
