{
	 "smiles": "CC1=CC=C(C=C1)C1=NN(CC2=CC=CC=C2)C=C1C=CC(O)=O", 
	 "Tm": 381.15, 
	 "num_atms": 42, 
	 "gaussian": { 
		 "optdone": 1, 
		 "sigma_profile": "yes", 
		 "theory": "DFT", 
		 "functional": "B3LYP", 
		 "basiset": "6-31G**", 
		 "properties": { 
			 "R2extent": 11193.4484, 
			 "electric_dipole_moment_norm": 3.37885460474, 
			 "electric_quadrupole_moment_norm": 14.9668394593, 
			 "total_energy": -1032.9299248, 
			 "HOMO_LUMO_gap": 0.1631, 
			 "cosmo_polarized_energy": -17.68, 
			 "cosmo_cavitation_energy": 47.77, 
			 "cosmo_dispersion_energy": -32.73, 
			 "cosmo_repulsion_energy": 2.5, 
			 "cosmo_total_nonelectrostatic_energy": 17.54, 
			 "SMD_solvation_energy": 8.47 
		},
		"coords": [
			{
				"x": 4.5746530979,
				"y": -2.4859463873,
				"z": 4.0389090967,
				"element": "C" 
			},
			{
				"x": 3.340490918,
				"y": -1.9507062524,
				"z": 3.3528805736,
				"element": "C" 
			},
			{
				"x": 3.1450425371,
				"y": -0.5707707511,
				"z": 3.191916996,
				"element": "C" 
			},
			{
				"x": 2.0282156983,
				"y": -0.0723435773,
				"z": 2.5297810165,
				"element": "C" 
			},
			{
				"x": 1.0565318578,
				"y": -0.9409578261,
				"z": 2.0038196903,
				"element": "C" 
			},
			{
				"x": 1.2380597649,
				"y": -2.3214629712,
				"z": 2.1813431705,
				"element": "C" 
			},
			{
				"x": 2.3638693436,
				"y": -2.8129198733,
				"z": 2.8410600354,
				"element": "C" 
			},
			{
				"x": -0.1262564691,
				"y": -0.3923943843,
				"z": 1.3171083096,
				"element": "C" 
			},
			{
				"x": -0.6543845666,
				"y": 0.7666295371,
				"z": 1.7248328435,
				"element": "N" 
			},
			{
				"x": -1.7167991558,
				"y": 0.984812967,
				"z": 0.9131308106,
				"element": "N" 
			},
			{
				"x": -2.4863765252,
				"y": 2.2192992413,
				"z": 1.0523735987,
				"element": "C" 
			},
			{
				"x": -2.0831618378,
				"y": 3.3013133915,
				"z": 0.0670626703,
				"element": "C" 
			},
			{
				"x": -3.0401156328,
				"y": 3.894571375,
				"z": -0.7619366597,
				"element": "C" 
			},
			{
				"x": -2.6773143857,
				"y": 4.9069966743,
				"z": -1.6536981173,
				"element": "C" 
			},
			{
				"x": -1.3500431113,
				"y": 5.3287216047,
				"z": -1.7264499194,
				"element": "C" 
			},
			{
				"x": -0.3877339462,
				"y": 4.7371742282,
				"z": -0.9027916392,
				"element": "C" 
			},
			{
				"x": -0.7514018452,
				"y": 3.7316181246,
				"z": -0.0090264546,
				"element": "C" 
			},
			{
				"x": -1.878535867,
				"y": 0.0055979602,
				"z": -0.0007382322,
				"element": "C" 
			},
			{
				"x": -0.8663831618,
				"y": -0.9290968005,
				"z": 0.2099934801,
				"element": "C" 
			},
			{
				"x": -0.5850803311,
				"y": -2.1204774226,
				"z": -0.5607824013,
				"element": "C" 
			},
			{
				"x": -1.4019252512,
				"y": -2.7095352062,
				"z": -1.4586103417,
				"element": "C" 
			},
			{
				"x": -0.9543041265,
				"y": -3.9028677396,
				"z": -2.1906541866,
				"element": "C" 
			},
			{
				"x": -1.908748293,
				"y": -4.347996986,
				"z": -3.0540923776,
				"element": "O" 
			},
			{
				"x": 0.1207110303,
				"y": -4.4641423945,
				"z": -2.0746609302,
				"element": "O" 
			},
			{
				"x": 4.4046672691,
				"y": -3.4875052485,
				"z": 4.4447290685,
				"element": "H" 
			},
			{
				"x": 5.4175758713,
				"y": -2.5561346991,
				"z": 3.3396909878,
				"element": "H" 
			},
			{
				"x": 4.8904653466,
				"y": -1.8355173337,
				"z": 4.8607495911,
				"element": "H" 
			},
			{
				"x": 3.8829725811,
				"y": 0.122526166,
				"z": 3.5888597827,
				"element": "H" 
			},
			{
				"x": 1.8937019188,
				"y": 0.9978846821,
				"z": 2.4125610313,
				"element": "H" 
			},
			{
				"x": 0.4820082893,
				"y": -3.0169547556,
				"z": 1.8318847887,
				"element": "H" 
			},
			{
				"x": 2.477680748,
				"y": -3.8864942881,
				"z": 2.9689562206,
				"element": "H" 
			},
			{
				"x": -2.3264538309,
				"y": 2.5445175029,
				"z": 2.0836001789,
				"element": "H" 
			},
			{
				"x": -3.5467479945,
				"y": 1.976371299,
				"z": 0.9368030717,
				"element": "H" 
			},
			{
				"x": -4.0757372237,
				"y": 3.5662854158,
				"z": -0.7101020692,
				"element": "H" 
			},
			{
				"x": -3.430361587,
				"y": 5.3597969106,
				"z": -2.2922256252,
				"element": "H" 
			},
			{
				"x": -1.0645388679,
				"y": 6.1132373834,
				"z": -2.4212206222,
				"element": "H" 
			},
			{
				"x": 0.6473549469,
				"y": 5.0621723317,
				"z": -0.9562274551,
				"element": "H" 
			},
			{
				"x": -0.0054472779,
				"y": 3.2681590849,
				"z": 0.6303685869,
				"element": "H" 
			},
			{
				"x": -2.6605742061,
				"y": 0.0481584782,
				"z": -0.7448010501,
				"element": "H" 
			},
			{
				"x": 0.3880037843,
				"y": -2.5832377646,
				"z": -0.4137888666,
				"element": "H" 
			},
			{
				"x": -2.4025451999,
				"y": -2.3463775047,
				"z": -1.6708605871,
				"element": "H" 
			},
			{
				"x": -1.525634309,
				"y": -5.1303041921,
				"z": -3.4837480647,
				"element": "H" 
			}
		],
		 "valence_orbital": [ 
			{
				"type": "occ",
				"energy": -0.25944,
				"method": "rhf"
			},
			{
				"type": "occ",
				"energy": -0.2555,
				"method": "rhf"
			},
			{
				"type": "occ",
				"energy": -0.24606,
				"method": "rhf"
			},
			{
				"type": "occ",
				"energy": -0.23247,
				"method": "rhf"
			},
			{
				"type": "occ",
				"energy": -0.2154,
				"method": "rhf"
			},
			{
				"type": "unocc",
				"energy": -0.0523,
				"method": "rhf"
			},
			{
				"type": "unocc",
				"energy": -0.02028,
				"method": "rhf"
			},
			{
				"type": "unocc",
				"energy": -0.01271,
				"method": "rhf"
			},
			{
				"type": "unocc",
				"energy": -0.00823,
				"method": "rhf"
			},
			{
				"type": "unocc",
				"energy": 0.00194,
				"method": "rhf"
			}
		],
		"cosmo_sigma_profile": { 
			"-0.025": 0.0,
			"-0.024": 0.0,
			"-0.023": 0.0,
			"-0.022": 0.0,
			"-0.021": 0.0,
			"-0.02": 0.0,
			"-0.019": 0.0,
			"-0.018": 0.293283340379,
			"-0.017": 0.751068423406,
			"-0.016": 0.843089254277,
			"-0.015": 1.07417073767,
			"-0.014": 0.698294972406,
			"-0.013": 0.69353761728,
			"-0.012": 0.752508636907,
			"-0.011": 0.217012975467,
			"-0.01": 1.67831007876,
			"-0.009": 3.71365433502,
			"-0.008": 5.55178651497,
			"-0.007": 8.22920380749,
			"-0.006": 14.654292038,
			"-0.005": 23.827506317,
			"-0.004": 33.2821980221,
			"-0.003": 29.7154873415,
			"-0.002": 26.4711092635,
			"-0.001": 26.7489253674,
			"0.0": 29.4590301344,
			"0.001": 28.2860860518,
			"0.002": 31.1381836577,
			"0.003": 29.044908869,
			"0.004": 20.4166041032,
			"0.005": 23.8925439396,
			"0.006": 11.8252254458,
			"0.007": 3.58523376751,
			"0.008": 4.30721052831,
			"0.009": 4.29573660129,
			"0.01": 3.63979855536,
			"0.011": 2.88658777935,
			"0.012": 5.57238070064,
			"0.013": 3.62456623955,
			"0.014": 0.370077281297,
			"0.015": 0.060172092703,
			"0.016": 0.0,
			"0.017": 0.0,
			"0.018": 0.0,
			"0.019": 0.0,
			"0.02": 0.0,
			"0.021": 0.0,
			"0.022": 0.0,
			"0.023": 0.0,
			"0.024": 0.0,
			"0.025": 0.0
		}
	}
}
