{
	 "smiles": "CCC1=CC=CC(C=C)=C1", 
	 "Tm": 172.15, 
	 "num_atms": 22, 
	 "gaussian": { 
		 "optdone": 1, 
		 "sigma_profile": "yes", 
		 "theory": "DFT", 
		 "functional": "B3LYP", 
		 "basiset": "6-31G**", 
		 "properties": { 
			 "R2extent": 2542.1628, 
			 "electric_dipole_moment_norm": 0.4357130822, 
			 "electric_quadrupole_moment_norm": 5.61474342958, 
			 "total_energy": -388.289524195, 
			 "HOMO_LUMO_gap": 0.18965, 
			 "cosmo_polarized_energy": -3.98, 
			 "cosmo_cavitation_energy": 25.19, 
			 "cosmo_dispersion_energy": -17.94, 
			 "cosmo_repulsion_energy": 1.45, 
			 "cosmo_total_nonelectrostatic_energy": 8.7, 
			 "SMD_solvation_energy": 4.91 
		},
		"coords": [
			{
				"x": 1.7888498174,
				"y": 1.7429457291,
				"z": -2.3742385347,
				"element": "C" 
			},
			{
				"x": 1.4771550111,
				"y": 0.4641008902,
				"z": -1.5761041259,
				"element": "C" 
			},
			{
				"x": 0.0376216986,
				"y": 0.0155165159,
				"z": -1.7227223222,
				"element": "C" 
			},
			{
				"x": -0.3511598388,
				"y": -0.8010187083,
				"z": -2.796659293,
				"element": "C" 
			},
			{
				"x": -1.6831332263,
				"y": -1.1805238414,
				"z": -2.9508292411,
				"element": "C" 
			},
			{
				"x": -2.6435756717,
				"y": -0.7512113506,
				"z": -2.0361479096,
				"element": "C" 
			},
			{
				"x": -2.287091149,
				"y": 0.0644616322,
				"z": -0.9496614133,
				"element": "C" 
			},
			{
				"x": -3.3350382327,
				"y": 0.4883273814,
				"z": -0.0058646126,
				"element": "C" 
			},
			{
				"x": -3.1954031727,
				"y": 1.2537194101,
				"z": 1.0837046081,
				"element": "C" 
			},
			{
				"x": -0.9368135707,
				"y": 0.4346207426,
				"z": -0.8147713618,
				"element": "C" 
			},
			{
				"x": 1.1586420543,
				"y": 2.5744616651,
				"z": -2.0424967836,
				"element": "H" 
			},
			{
				"x": 2.8360259395,
				"y": 2.0382375815,
				"z": -2.2494149896,
				"element": "H" 
			},
			{
				"x": 1.6032816977,
				"y": 1.5935758129,
				"z": -3.4429045353,
				"element": "H" 
			},
			{
				"x": 2.1457864828,
				"y": -0.3394210116,
				"z": -1.9080998584,
				"element": "H" 
			},
			{
				"x": 1.7004325763,
				"y": 0.6363587034,
				"z": -0.5165711544,
				"element": "H" 
			},
			{
				"x": 0.3965766014,
				"y": -1.1417048878,
				"z": -3.5089694869,
				"element": "H" 
			},
			{
				"x": -1.9738460938,
				"y": -1.8161167652,
				"z": -3.7826780352,
				"element": "H" 
			},
			{
				"x": -3.6811725317,
				"y": -1.0519817593,
				"z": -2.1576170812,
				"element": "H" 
			},
			{
				"x": -4.3324682307,
				"y": 0.121253133,
				"z": -0.2470885851,
				"element": "H" 
			},
			{
				"x": -4.0507516557,
				"y": 1.4988477602,
				"z": 1.7047418564,
				"element": "H" 
			},
			{
				"x": -2.2397353945,
				"y": 1.6618976885,
				"z": 1.3993155053,
				"element": "H" 
			},
			{
				"x": -0.6350831107,
				"y": 1.062053678,
				"z": 0.0199773542,
				"element": "H" 
			}
		],
		 "valence_orbital": [ 
			{
				"type": "occ",
				"energy": -0.33056,
				"method": "rhf"
			},
			{
				"type": "occ",
				"energy": -0.32388,
				"method": "rhf"
			},
			{
				"type": "occ",
				"energy": -0.29199,
				"method": "rhf"
			},
			{
				"type": "occ",
				"energy": -0.24077,
				"method": "rhf"
			},
			{
				"type": "occ",
				"energy": -0.21924,
				"method": "rhf"
			},
			{
				"type": "unocc",
				"energy": -0.02959,
				"method": "rhf"
			},
			{
				"type": "unocc",
				"energy": 0.00359,
				"method": "rhf"
			},
			{
				"type": "unocc",
				"energy": 0.06165,
				"method": "rhf"
			},
			{
				"type": "unocc",
				"energy": 0.09377,
				"method": "rhf"
			},
			{
				"type": "unocc",
				"energy": 0.11071,
				"method": "rhf"
			}
		],
		"cosmo_sigma_profile": { 
			"-0.025": 0.0,
			"-0.024": 0.0,
			"-0.023": 0.0,
			"-0.022": 0.0,
			"-0.021": 0.0,
			"-0.02": 0.0,
			"-0.019": 0.0,
			"-0.018": 0.0,
			"-0.017": 0.0,
			"-0.016": 0.0,
			"-0.015": 0.0,
			"-0.014": 0.0,
			"-0.013": 0.0,
			"-0.012": 0.0,
			"-0.011": 0.0,
			"-0.01": 0.0,
			"-0.009": 0.0,
			"-0.008": 0.0,
			"-0.007": 0.370585295243,
			"-0.006": 3.91145912457,
			"-0.005": 12.9562531486,
			"-0.004": 14.2472066557,
			"-0.003": 22.6437700515,
			"-0.002": 20.3351671203,
			"-0.001": 22.7133188772,
			"0.0": 20.4391833476,
			"0.001": 18.099743699,
			"0.002": 13.5200358989,
			"0.003": 10.5335872408,
			"0.004": 12.2544545124,
			"0.005": 13.1889163837,
			"0.006": 12.0782057606,
			"0.007": 1.97473762879,
			"0.008": 0.0,
			"0.009": 0.0,
			"0.01": 0.0,
			"0.011": 0.0,
			"0.012": 0.0,
			"0.013": 0.0,
			"0.014": 0.0,
			"0.015": 0.0,
			"0.016": 0.0,
			"0.017": 0.0,
			"0.018": 0.0,
			"0.019": 0.0,
			"0.02": 0.0,
			"0.021": 0.0,
			"0.022": 0.0,
			"0.023": 0.0,
			"0.024": 0.0,
			"0.025": 0.0
		}
	}
}
