{
	 "smiles": "CCN1C(S)=NN=C1C1=CC=CS1", 
	 "Tm": 377.15, 
	 "num_atms": 22, 
	 "gaussian": { 
		 "optdone": 1, 
		 "sigma_profile": "yes", 
		 "theory": "DFT", 
		 "functional": "B3LYP", 
		 "basiset": "6-31G**", 
		 "properties": { 
			 "R2extent": 3586.6011, 
			 "electric_dipole_moment_norm": 4.32669991333, 
			 "electric_quadrupole_moment_norm": 11.2485131369, 
			 "total_energy": -1270.8670501, 
			 "HOMO_LUMO_gap": 0.17203, 
			 "cosmo_polarized_energy": -14.74, 
			 "cosmo_cavitation_energy": 28.7, 
			 "cosmo_dispersion_energy": -21.93, 
			 "cosmo_repulsion_energy": 1.63, 
			 "cosmo_total_nonelectrostatic_energy": 8.4, 
			 "SMD_solvation_energy": 2.7 
		},
		"coords": [
			{
				"x": -2.8064602493,
				"y": -0.4840367842,
				"z": 1.6211041498,
				"element": "C" 
			},
			{
				"x": -1.5250140299,
				"y": -1.3162619749,
				"z": 1.7089868128,
				"element": "C" 
			},
			{
				"x": -0.3096726005,
				"y": -0.5354859068,
				"z": 1.460287125,
				"element": "N" 
			},
			{
				"x": 0.3884315919,
				"y": 0.1982696865,
				"z": 2.385512617,
				"element": "C" 
			},
			{
				"x": -0.1330334153,
				"y": 0.3684374813,
				"z": 4.0666272641,
				"element": "S" 
			},
			{
				"x": 1.4690454546,
				"y": 0.7311083067,
				"z": 1.8625335986,
				"element": "N" 
			},
			{
				"x": 1.5013228214,
				"y": 0.3528920884,
				"z": 0.5420207436,
				"element": "N" 
			},
			{
				"x": 0.4436772668,
				"y": -0.4013658154,
				"z": 0.3028794044,
				"element": "C" 
			},
			{
				"x": 0.1965652882,
				"y": -1.0185241531,
				"z": -0.991752962,
				"element": "C" 
			},
			{
				"x": 1.1746842206,
				"y": -1.2939132094,
				"z": -1.9208744074,
				"element": "C" 
			},
			{
				"x": 0.6637562275,
				"y": -1.8152440502,
				"z": -3.1418398606,
				"element": "C" 
			},
			{
				"x": -0.6994040294,
				"y": -1.9330967427,
				"z": -3.1428156907,
				"element": "C" 
			},
			{
				"x": -1.3870130231,
				"y": -1.3935569776,
				"z": -1.6466484089,
				"element": "S" 
			},
			{
				"x": -3.6732493999,
				"y": -1.1203672429,
				"z": 1.8245084179,
				"element": "H" 
			},
			{
				"x": -2.9281217836,
				"y": -0.0487566472,
				"z": 0.625529623,
				"element": "H" 
			},
			{
				"x": -2.8000840747,
				"y": 0.3287592306,
				"z": 2.3527128806,
				"element": "H" 
			},
			{
				"x": -1.5402682539,
				"y": -2.1361828108,
				"z": 0.9877714444,
				"element": "H" 
			},
			{
				"x": -1.424534011,
				"y": -1.7656740667,
				"z": 2.7021850937,
				"element": "H" 
			},
			{
				"x": 0.9950763831,
				"y": 1.0149801997,
				"z": 4.4153454168,
				"element": "H" 
			},
			{
				"x": 2.2221521852,
				"y": -1.1146336739,
				"z": -1.7133619495,
				"element": "H" 
			},
			{
				"x": 1.2860232411,
				"y": -2.0994585654,
				"z": -3.9825592441,
				"element": "H" 
			},
			{
				"x": -1.3449798097,
				"y": -2.312888372,
				"z": -3.9223520685,
				"element": "H" 
			}
		],
		 "valence_orbital": [ 
			{
				"type": "occ",
				"energy": -0.29168,
				"method": "rhf"
			},
			{
				"type": "occ",
				"energy": -0.26176,
				"method": "rhf"
			},
			{
				"type": "occ",
				"energy": -0.26155,
				"method": "rhf"
			},
			{
				"type": "occ",
				"energy": -0.25371,
				"method": "rhf"
			},
			{
				"type": "occ",
				"energy": -0.2128,
				"method": "rhf"
			},
			{
				"type": "unocc",
				"energy": -0.04077,
				"method": "rhf"
			},
			{
				"type": "unocc",
				"energy": 0.00143,
				"method": "rhf"
			},
			{
				"type": "unocc",
				"energy": 0.01537,
				"method": "rhf"
			},
			{
				"type": "unocc",
				"energy": 0.02925,
				"method": "rhf"
			},
			{
				"type": "unocc",
				"energy": 0.03958,
				"method": "rhf"
			}
		],
		"cosmo_sigma_profile": { 
			"-0.025": 0.0,
			"-0.024": 0.0,
			"-0.023": 0.0,
			"-0.022": 0.0,
			"-0.021": 0.0,
			"-0.02": 0.0,
			"-0.019": 0.0,
			"-0.018": 0.0,
			"-0.017": 0.0,
			"-0.016": 0.0,
			"-0.015": 0.0,
			"-0.014": 0.0,
			"-0.013": 0.191873514971,
			"-0.012": 1.37504271289,
			"-0.011": 1.50695119588,
			"-0.01": 1.21820292947,
			"-0.009": 2.54214232437,
			"-0.008": 3.54794971538,
			"-0.007": 6.99689308089,
			"-0.006": 11.6196636813,
			"-0.005": 16.8972159115,
			"-0.004": 19.994615853,
			"-0.003": 17.4654202277,
			"-0.002": 19.1473510404,
			"-0.001": 18.9634465024,
			"0.0": 16.899932622,
			"0.001": 15.5835420412,
			"0.002": 15.1392141818,
			"0.003": 16.3365616274,
			"0.004": 13.2069410188,
			"0.005": 6.94483277348,
			"0.006": 4.45702555921,
			"0.007": 2.45942251682,
			"0.008": 1.87797816945,
			"0.009": 2.18108385246,
			"0.01": 2.02136652731,
			"0.011": 2.62714720726,
			"0.012": 1.87384052915,
			"0.013": 3.79397494638,
			"0.014": 3.10097102215,
			"0.015": 2.43404895688,
			"0.016": 1.55346040951,
			"0.017": 0.163559489671,
			"0.018": 0.0,
			"0.019": 0.0,
			"0.02": 0.0,
			"0.021": 0.0,
			"0.022": 0.0,
			"0.023": 0.0,
			"0.024": 0.0,
			"0.025": 0.0
		}
	}
}
