{
	 "smiles": "CCOC1=CC=C(C=C1)N=C=S", 
	 "Tm": 333.65, 
	 "num_atms": 21, 
	 "gaussian": { 
		 "optdone": 1, 
		 "sigma_profile": "yes", 
		 "theory": "DFT", 
		 "functional": "B3LYP", 
		 "basiset": "6-31G**", 
		 "properties": { 
			 "R2extent": 5610.8825, 
			 "electric_dipole_moment_norm": 5.53651298292, 
			 "electric_quadrupole_moment_norm": 22.0873460574, 
			 "total_energy": -876.534266138, 
			 "HOMO_LUMO_gap": 0.17768, 
			 "cosmo_polarized_energy": -7.69, 
			 "cosmo_cavitation_energy": 28.04, 
			 "cosmo_dispersion_energy": -20.89, 
			 "cosmo_repulsion_energy": 1.65, 
			 "cosmo_total_nonelectrostatic_energy": 8.8, 
			 "SMD_solvation_energy": 5.84 
		},
		"coords": [
			{
				"x": 1.683624193,
				"y": 0.5572200611,
				"z": 3.682347185,
				"element": "C" 
			},
			{
				"x": 1.8388847291,
				"y": 1.7400657077,
				"z": 2.7325814182,
				"element": "C" 
			},
			{
				"x": 1.0168131293,
				"y": 1.6191533429,
				"z": 1.5661178356,
				"element": "O" 
			},
			{
				"x": 1.4172437987,
				"y": 0.8407507334,
				"z": 0.5242250969,
				"element": "C" 
			},
			{
				"x": 0.5163399473,
				"y": 0.7686511779,
				"z": -0.5522608805,
				"element": "C" 
			},
			{
				"x": 0.8191783366,
				"y": 0.0226061272,
				"z": -1.6796885587,
				"element": "C" 
			},
			{
				"x": 2.0395017446,
				"y": -0.6740343333,
				"z": -1.7551499065,
				"element": "C" 
			},
			{
				"x": 2.9390134406,
				"y": -0.6059041111,
				"z": -0.6831044616,
				"element": "C" 
			},
			{
				"x": 2.6322426349,
				"y": 0.1440024121,
				"z": 0.4507301455,
				"element": "C" 
			},
			{
				"x": 2.344287585,
				"y": -1.4162882187,
				"z": -2.8699280989,
				"element": "N" 
			},
			{
				"x": 2.6074117248,
				"y": -2.0571556637,
				"z": -3.8323786018,
				"element": "C" 
			},
			{
				"x": 2.9626480064,
				"y": -2.920181027,
				"z": -5.1284664826,
				"element": "S" 
			},
			{
				"x": 2.2756777,
				"y": 0.7256782281,
				"z": 4.5880283591,
				"element": "H" 
			},
			{
				"x": 2.0174906707,
				"y": -0.3784749764,
				"z": 3.2258000044,
				"element": "H" 
			},
			{
				"x": 0.6358313901,
				"y": 0.4400573949,
				"z": 3.9726058298,
				"element": "H" 
			},
			{
				"x": 2.8860023859,
				"y": 1.8957772498,
				"z": 2.4442761402,
				"element": "H" 
			},
			{
				"x": 1.4922603391,
				"y": 2.6597326789,
				"z": 3.211514662,
				"element": "H" 
			},
			{
				"x": -0.4184436395,
				"y": 1.3140116872,
				"z": -0.4789335507,
				"element": "H" 
			},
			{
				"x": 0.1233494275,
				"y": -0.0305473287,
				"z": -2.5100897746,
				"element": "H" 
			},
			{
				"x": 3.8779708189,
				"y": -1.1458838274,
				"z": -0.7422064927,
				"element": "H" 
			},
			{
				"x": 3.3455716371,
				"y": 0.1733626849,
				"z": 1.2650801317,
				"element": "H" 
			}
		],
		 "valence_orbital": [ 
			{
				"type": "occ",
				"energy": -0.33325,
				"method": "rhf"
			},
			{
				"type": "occ",
				"energy": -0.27169,
				"method": "rhf"
			},
			{
				"type": "occ",
				"energy": -0.26637,
				"method": "rhf"
			},
			{
				"type": "occ",
				"energy": -0.24494,
				"method": "rhf"
			},
			{
				"type": "occ",
				"energy": -0.21279,
				"method": "rhf"
			},
			{
				"type": "unocc",
				"energy": -0.03511,
				"method": "rhf"
			},
			{
				"type": "unocc",
				"energy": -0.02014,
				"method": "rhf"
			},
			{
				"type": "unocc",
				"energy": 0.01149,
				"method": "rhf"
			},
			{
				"type": "unocc",
				"energy": 0.05579,
				"method": "rhf"
			},
			{
				"type": "unocc",
				"energy": 0.07333,
				"method": "rhf"
			}
		],
		"cosmo_sigma_profile": { 
			"-0.025": 0.0,
			"-0.024": 0.0,
			"-0.023": 0.0,
			"-0.022": 0.0,
			"-0.021": 0.0,
			"-0.02": 0.0,
			"-0.019": 0.0,
			"-0.018": 0.0,
			"-0.017": 0.0,
			"-0.016": 0.0,
			"-0.015": 0.0,
			"-0.014": 0.0,
			"-0.013": 0.0,
			"-0.012": 0.0,
			"-0.011": 0.0,
			"-0.01": 0.0,
			"-0.009": 0.0,
			"-0.008": 1.39696012279,
			"-0.007": 7.27559454281,
			"-0.006": 11.1015017999,
			"-0.005": 13.3495413867,
			"-0.004": 17.7534874472,
			"-0.003": 17.4669583299,
			"-0.002": 15.6486260028,
			"-0.001": 20.9231372847,
			"0.0": 24.8577084162,
			"0.001": 16.2937955173,
			"0.002": 17.0086541769,
			"0.003": 19.6151751047,
			"0.004": 11.2508272972,
			"0.005": 8.71234249814,
			"0.006": 12.4220404609,
			"0.007": 9.1046180513,
			"0.008": 1.51280702319,
			"0.009": 1.1438922044,
			"0.01": 1.08141275796,
			"0.011": 0.0,
			"0.012": 0.0,
			"0.013": 0.0,
			"0.014": 0.0,
			"0.015": 0.0,
			"0.016": 0.0,
			"0.017": 0.0,
			"0.018": 0.0,
			"0.019": 0.0,
			"0.02": 0.0,
			"0.021": 0.0,
			"0.022": 0.0,
			"0.023": 0.0,
			"0.024": 0.0,
			"0.025": 0.0
		}
	}
}
