{
	 "smiles": "CC(C)(C)OC(=O)NC1=C(C=CC(Br)=C1)C(O)=O", 
	 "Tm": 453.15, 
	 "num_atms": 32, 
	 "gaussian": { 
		 "optdone": 1, 
		 "sigma_profile": "yes", 
		 "theory": "DFT", 
		 "functional": "B3LYP", 
		 "basiset": "6-31G**", 
		 "properties": { 
			 "R2extent": 7567.4318, 
			 "electric_dipole_moment_norm": 1.70655561292, 
			 "electric_quadrupole_moment_norm": 6.74877847614, 
			 "total_energy": -3392.82467059, 
			 "HOMO_LUMO_gap": 0.17331, 
			 "cosmo_polarized_energy": -12.07, 
			 "cosmo_cavitation_energy": 37.9, 
			 "cosmo_dispersion_energy": -26.66, 
			 "cosmo_repulsion_energy": 2.05, 
			 "cosmo_total_nonelectrostatic_energy": 13.29, 
			 "SMD_solvation_energy": 7.44 
		},
		"coords": [
			{
				"x": -0.2242932946,
				"y": -3.305119876,
				"z": -1.9188636238,
				"element": "C" 
			},
			{
				"x": -1.4294257029,
				"y": -2.4969430865,
				"z": -1.430148765,
				"element": "C" 
			},
			{
				"x": -2.4269168759,
				"y": -2.1916844409,
				"z": -2.5509258588,
				"element": "C" 
			},
			{
				"x": -2.1206952478,
				"y": -3.2005209261,
				"z": -0.2602457263,
				"element": "C" 
			},
			{
				"x": -0.9669174372,
				"y": -1.2308980696,
				"z": -0.8118697055,
				"element": "O" 
			},
			{
				"x": -0.2982394123,
				"y": -0.3189528964,
				"z": -1.5339360368,
				"element": "C" 
			},
			{
				"x": -0.0035821258,
				"y": -0.4062388528,
				"z": -2.7133608138,
				"element": "O" 
			},
			{
				"x": 0.0665481632,
				"y": 0.8121496837,
				"z": -0.8144324337,
				"element": "N" 
			},
			{
				"x": -0.1025796713,
				"y": 1.2291205941,
				"z": 0.5063451032,
				"element": "C" 
			},
			{
				"x": 0.4146606601,
				"y": 2.4925523981,
				"z": 0.9276817959,
				"element": "C" 
			},
			{
				"x": 0.2344473947,
				"y": 2.8957579717,
				"z": 2.2625685105,
				"element": "C" 
			},
			{
				"x": -0.4282295694,
				"y": 2.1144402948,
				"z": 3.1938667099,
				"element": "C" 
			},
			{
				"x": -0.9254269948,
				"y": 0.8847715666,
				"z": 2.7623174187,
				"element": "C" 
			},
			{
				"x": -1.8476084664,
				"y": -0.2316445151,
				"z": 4.0071723048,
				"element": "Br" 
			},
			{
				"x": -0.775953878,
				"y": 0.4381539351,
				"z": 1.4580458202,
				"element": "C" 
			},
			{
				"x": 1.1526345338,
				"y": 3.4806501668,
				"z": 0.0977700769,
				"element": "C" 
			},
			{
				"x": 1.3442070147,
				"y": 3.1181950865,
				"z": -1.2053256687,
				"element": "O" 
			},
			{
				"x": 1.5742800352,
				"y": 4.5455077217,
				"z": 0.5026178595,
				"element": "O" 
			},
			{
				"x": -0.5628571648,
				"y": -4.2873397904,
				"z": -2.2638244843,
				"element": "H" 
			},
			{
				"x": 0.4873049973,
				"y": -3.4599336728,
				"z": -1.1018388947,
				"element": "H" 
			},
			{
				"x": 0.2821946743,
				"y": -2.7989058188,
				"z": -2.7406088589,
				"element": "H" 
			},
			{
				"x": -3.2464786285,
				"y": -1.5723257735,
				"z": -2.1733408827,
				"element": "H" 
			},
			{
				"x": -1.9424345469,
				"y": -1.6743873655,
				"z": -3.3790184014,
				"element": "H" 
			},
			{
				"x": -2.8537120165,
				"y": -3.1293450896,
				"z": -2.9210905389,
				"element": "H" 
			},
			{
				"x": -2.5146938588,
				"y": -4.1667095327,
				"z": -0.5884740928,
				"element": "H" 
			},
			{
				"x": -2.9531432491,
				"y": -2.6002852424,
				"z": 0.1183968713,
				"element": "H" 
			},
			{
				"x": -1.4174711881,
				"y": -3.3761995682,
				"z": 0.5590340037,
				"element": "H" 
			},
			{
				"x": 0.5656750242,
				"y": 1.4592912957,
				"z": -1.4129337951,
				"element": "H" 
			},
			{
				"x": 0.6404715315,
				"y": 3.8603234674,
				"z": 2.5453784352,
				"element": "H" 
			},
			{
				"x": -0.5568255924,
				"y": 2.4427885445,
				"z": 4.2176207949,
				"element": "H" 
			},
			{
				"x": -1.1751469815,
				"y": -0.5183217345,
				"z": 1.1657150539,
				"element": "H" 
			},
			{
				"x": 1.8325078739,
				"y": 3.8487535253,
				"z": -1.6195921773,
				"element": "H" 
			}
		],
		 "valence_orbital": [ 
			{
				"type": "occ",
				"energy": -0.29451,
				"method": "rhf"
			},
			{
				"type": "occ",
				"energy": -0.2907,
				"method": "rhf"
			},
			{
				"type": "occ",
				"energy": -0.27922,
				"method": "rhf"
			},
			{
				"type": "occ",
				"energy": -0.25623,
				"method": "rhf"
			},
			{
				"type": "occ",
				"energy": -0.2336,
				"method": "rhf"
			},
			{
				"type": "unocc",
				"energy": -0.06029,
				"method": "rhf"
			},
			{
				"type": "unocc",
				"energy": -0.02101,
				"method": "rhf"
			},
			{
				"type": "unocc",
				"energy": 0.00126,
				"method": "rhf"
			},
			{
				"type": "unocc",
				"energy": 0.04241,
				"method": "rhf"
			},
			{
				"type": "unocc",
				"energy": 0.05281,
				"method": "rhf"
			}
		],
		"cosmo_sigma_profile": { 
			"-0.025": 0.0,
			"-0.024": 0.0,
			"-0.023": 0.0,
			"-0.022": 0.0,
			"-0.021": 0.0,
			"-0.02": 0.0,
			"-0.019": 0.361261102149,
			"-0.018": 1.03496352193,
			"-0.017": 1.15754780609,
			"-0.016": 0.620930556836,
			"-0.015": 0.559470568382,
			"-0.014": 0.961381517648,
			"-0.013": 0.332731998257,
			"-0.012": 0.766180141042,
			"-0.011": 1.12847372092,
			"-0.01": 0.499762259985,
			"-0.009": 0.324026326792,
			"-0.008": 1.821687133,
			"-0.007": 2.6852249589,
			"-0.006": 4.24817978183,
			"-0.005": 6.7828515993,
			"-0.004": 21.4302988625,
			"-0.003": 29.7487381223,
			"-0.002": 32.2432514901,
			"-0.001": 33.9831624919,
			"0.0": 43.3376182888,
			"0.001": 36.1484681392,
			"0.002": 23.3378431455,
			"0.003": 14.2243200821,
			"0.004": 14.1779730583,
			"0.005": 4.13072296288,
			"0.006": 2.8007128717,
			"0.007": 2.95736239763,
			"0.008": 2.60742510482,
			"0.009": 3.29621059702,
			"0.01": 3.56155023278,
			"0.011": 6.36027696043,
			"0.012": 4.71986316441,
			"0.013": 1.59532553358,
			"0.014": 0.0,
			"0.015": 0.0,
			"0.016": 0.0,
			"0.017": 0.0,
			"0.018": 0.0,
			"0.019": 0.0,
			"0.02": 0.0,
			"0.021": 0.0,
			"0.022": 0.0,
			"0.023": 0.0,
			"0.024": 0.0,
			"0.025": 0.0
		}
	}
}
