{
	 "smiles": "COC1=C(O)C=C2C(C)=NCCC2=C1", 
	 "Tm": 457.15, 
	 "num_atms": 27, 
	 "gaussian": { 
		 "optdone": 1, 
		 "sigma_profile": "yes", 
		 "theory": "DFT", 
		 "functional": "B3LYP", 
		 "basiset": "6-31G**", 
		 "properties": { 
			 "R2extent": 3163.9853, 
			 "electric_dipole_moment_norm": 4.37564271508, 
			 "electric_quadrupole_moment_norm": 10.6941343357, 
			 "total_energy": -632.192583331, 
			 "HOMO_LUMO_gap": 0.17483, 
			 "cosmo_polarized_energy": -10.94, 
			 "cosmo_cavitation_energy": 29.33, 
			 "cosmo_dispersion_energy": -21.93, 
			 "cosmo_repulsion_energy": 1.73, 
			 "cosmo_total_nonelectrostatic_energy": 9.13, 
			 "SMD_solvation_energy": 2.67 
		},
		"coords": [
			{
				"x": -0.0754450229,
				"y": -4.1343702696,
				"z": 1.4660040431,
				"element": "C" 
			},
			{
				"x": 0.4706127358,
				"y": -2.9493321093,
				"z": 2.0267015795,
				"element": "O" 
			},
			{
				"x": 0.290062228,
				"y": -1.7666748324,
				"z": 1.354315807,
				"element": "C" 
			},
			{
				"x": 0.8686283719,
				"y": -0.6536411853,
				"z": 1.9982885789,
				"element": "C" 
			},
			{
				"x": 1.5309649195,
				"y": -0.8119391207,
				"z": 3.1787644427,
				"element": "O" 
			},
			{
				"x": 0.7591314387,
				"y": 0.6040297786,
				"z": 1.4218081165,
				"element": "C" 
			},
			{
				"x": 0.0850262886,
				"y": 0.7758824475,
				"z": 0.2004488031,
				"element": "C" 
			},
			{
				"x": -0.0477620406,
				"y": 2.1058459544,
				"z": -0.4534010275,
				"element": "C" 
			},
			{
				"x": 0.2348282962,
				"y": 3.3498212317,
				"z": 0.3563964898,
				"element": "C" 
			},
			{
				"x": -0.3768464733,
				"y": 2.2633287631,
				"z": -1.6852514163,
				"element": "N" 
			},
			{
				"x": -0.6045470778,
				"y": 1.0615811125,
				"z": -2.4900382013,
				"element": "C" 
			},
			{
				"x": -1.2497859039,
				"y": -0.0923143376,
				"z": -1.7178543925,
				"element": "C" 
			},
			{
				"x": -0.4901216443,
				"y": -0.3377252934,
				"z": -0.4364577728,
				"element": "C" 
			},
			{
				"x": -0.3870092456,
				"y": -1.6044962776,
				"z": 0.1474159086,
				"element": "C" 
			},
			{
				"x": -1.1665789281,
				"y": -4.0667592699,
				"z": 1.3758284244,
				"element": "H" 
			},
			{
				"x": 0.1811229538,
				"y": -4.9425171855,
				"z": 2.1523809735,
				"element": "H" 
			},
			{
				"x": 0.3563367974,
				"y": -4.3443987753,
				"z": 0.4797571781,
				"element": "H" 
			},
			{
				"x": 1.4907911484,
				"y": -1.7540667664,
				"z": 3.4031167952,
				"element": "H" 
			},
			{
				"x": 1.2146311116,
				"y": 1.4401954267,
				"z": 1.939996477,
				"element": "H" 
			},
			{
				"x": -0.3731777784,
				"y": 3.3815530556,
				"z": 1.2675997932,
				"element": "H" 
			},
			{
				"x": 1.2856837223,
				"y": 3.3899561345,
				"z": 0.6677611828,
				"element": "H" 
			},
			{
				"x": 0.0201098079,
				"y": 4.226663456,
				"z": -0.2553906796,
				"element": "H" 
			},
			{
				"x": 0.3671745195,
				"y": 0.7401568326,
				"z": -2.8973235885,
				"element": "H" 
			},
			{
				"x": -1.224770454,
				"y": 1.3404127544,
				"z": -3.3483827442,
				"element": "H" 
			},
			{
				"x": -2.2918098557,
				"y": 0.1729630428,
				"z": -1.4823236731,
				"element": "H" 
			},
			{
				"x": -1.2875382087,
				"y": -0.9966921264,
				"z": -2.3357048457,
				"element": "H" 
			},
			{
				"x": -0.8377117063,
				"y": -2.456962441,
				"z": -0.349856252,
				"element": "H" 
			}
		],
		 "valence_orbital": [ 
			{
				"type": "occ",
				"energy": -0.32471,
				"method": "rhf"
			},
			{
				"type": "occ",
				"energy": -0.27376,
				"method": "rhf"
			},
			{
				"type": "occ",
				"energy": -0.23828,
				"method": "rhf"
			},
			{
				"type": "occ",
				"energy": -0.22864,
				"method": "rhf"
			},
			{
				"type": "occ",
				"energy": -0.2026,
				"method": "rhf"
			},
			{
				"type": "unocc",
				"energy": -0.02777,
				"method": "rhf"
			},
			{
				"type": "unocc",
				"energy": 0.00553,
				"method": "rhf"
			},
			{
				"type": "unocc",
				"energy": 0.06035,
				"method": "rhf"
			},
			{
				"type": "unocc",
				"energy": 0.07444,
				"method": "rhf"
			},
			{
				"type": "unocc",
				"energy": 0.09002,
				"method": "rhf"
			}
		],
		"cosmo_sigma_profile": { 
			"-0.025": 0.0,
			"-0.024": 0.0,
			"-0.023": 0.0,
			"-0.022": 0.0,
			"-0.021": 0.0,
			"-0.02": 0.0,
			"-0.019": 0.0,
			"-0.018": 0.0,
			"-0.017": 0.0,
			"-0.016": 0.0,
			"-0.015": 0.0376107025366,
			"-0.014": 0.439155473038,
			"-0.013": 0.613462980846,
			"-0.012": 0.43515197788,
			"-0.011": 0.60301089669,
			"-0.01": 0.339758434674,
			"-0.009": 0.761857158344,
			"-0.008": 1.39741482039,
			"-0.007": 1.24678413718,
			"-0.006": 9.83594829458,
			"-0.005": 16.5753578842,
			"-0.004": 22.7043168904,
			"-0.003": 25.8520751858,
			"-0.002": 22.6000042149,
			"-0.001": 19.7451742608,
			"0.0": 18.5081009382,
			"0.001": 15.4343026594,
			"0.002": 13.5112607346,
			"0.003": 13.7892744322,
			"0.004": 13.2264110033,
			"0.005": 9.39716136339,
			"0.006": 3.1061626783,
			"0.007": 3.31279941316,
			"0.008": 2.71171329831,
			"0.009": 2.77315098941,
			"0.01": 2.19542426397,
			"0.011": 3.34671035119,
			"0.012": 2.17105743094,
			"0.013": 1.07443141395,
			"0.014": 1.12739508099,
			"0.015": 0.518109473402,
			"0.016": 0.780336798102,
			"0.017": 0.883193770125,
			"0.018": 0.360201972704,
			"0.019": 0.0,
			"0.02": 0.0,
			"0.021": 0.0,
			"0.022": 0.0,
			"0.023": 0.0,
			"0.024": 0.0,
			"0.025": 0.0
		}
	}
}
