{
	 "smiles": "NNC1=C(Cl)C=C(C=C1Cl)C(O)=O", 
	 "Tm": 481.15, 
	 "num_atms": 19, 
	 "gaussian": { 
		 "optdone": 1, 
		 "sigma_profile": "yes", 
		 "theory": "DFT", 
		 "functional": "B3LYP", 
		 "basiset": "6-31G**", 
		 "properties": { 
			 "R2extent": 3563.3772, 
			 "electric_dipole_moment_norm": 3.39043277621, 
			 "electric_quadrupole_moment_norm": 17.6784832189, 
			 "total_energy": -1450.66288452, 
			 "HOMO_LUMO_gap": 0.17614, 
			 "cosmo_polarized_energy": -16.98, 
			 "cosmo_cavitation_energy": 27.11, 
			 "cosmo_dispersion_energy": -20.3, 
			 "cosmo_repulsion_energy": 1.6, 
			 "cosmo_total_nonelectrostatic_energy": 8.41, 
			 "SMD_solvation_energy": 5.49 
		},
		"coords": [
			{
				"x": -1.758330601,
				"y": 0.1984458432,
				"z": 3.0513512911,
				"element": "N" 
			},
			{
				"x": -1.6240396887,
				"y": -0.846051898,
				"z": 2.1004389119,
				"element": "N" 
			},
			{
				"x": -0.8970024722,
				"y": -0.7088798689,
				"z": 0.9290780037,
				"element": "C" 
			},
			{
				"x": -1.0007835843,
				"y": 0.3983332478,
				"z": 0.0492046826,
				"element": "C" 
			},
			{
				"x": -2.1651619876,
				"y": 1.6832259022,
				"z": 0.35304821,
				"element": "Cl" 
			},
			{
				"x": -0.2505961037,
				"y": 0.493964453,
				"z": -1.1129061885,
				"element": "C" 
			},
			{
				"x": 0.6051706538,
				"y": -0.5428499938,
				"z": -1.4984085166,
				"element": "C" 
			},
			{
				"x": 0.7086514921,
				"y": -1.6702158732,
				"z": -0.6755525579,
				"element": "C" 
			},
			{
				"x": -0.0199128092,
				"y": -1.7387017016,
				"z": 0.5023971678,
				"element": "C" 
			},
			{
				"x": 0.1780914065,
				"y": -3.1677350624,
				"z": 1.5140022729,
				"element": "Cl" 
			},
			{
				"x": 1.3816604887,
				"y": -0.3668217539,
				"z": -2.7648584655,
				"element": "C" 
			},
			{
				"x": 1.9020354005,
				"y": -1.4894855533,
				"z": -3.3291391176,
				"element": "O" 
			},
			{
				"x": 1.5577225422,
				"y": 0.7097706249,
				"z": -3.2848863219,
				"element": "O" 
			},
			{
				"x": -0.9174024614,
				"y": 0.7746759671,
				"z": 3.0651262076,
				"element": "H" 
			},
			{
				"x": -2.5334182419,
				"y": 0.7930101361,
				"z": 2.7768049773,
				"element": "H" 
			},
			{
				"x": -1.4531407323,
				"y": -1.7226283628,
				"z": 2.5740846345,
				"element": "H" 
			},
			{
				"x": -0.3404037066,
				"y": 1.3645795841,
				"z": -1.7516508846,
				"element": "H" 
			},
			{
				"x": 1.392701535,
				"y": -2.4820849765,
				"z": -0.9009158702,
				"element": "H" 
			},
			{
				"x": 1.5254588701,
				"y": -2.2814507138,
				"z": -2.9218184367,
				"element": "H" 
			}
		],
		 "valence_orbital": [ 
			{
				"type": "occ",
				"energy": -0.31995,
				"method": "rhf"
			},
			{
				"type": "occ",
				"energy": -0.28418,
				"method": "rhf"
			},
			{
				"type": "occ",
				"energy": -0.2801,
				"method": "rhf"
			},
			{
				"type": "occ",
				"energy": -0.27075,
				"method": "rhf"
			},
			{
				"type": "occ",
				"energy": -0.23804,
				"method": "rhf"
			},
			{
				"type": "unocc",
				"energy": -0.0619,
				"method": "rhf"
			},
			{
				"type": "unocc",
				"energy": -0.04352,
				"method": "rhf"
			},
			{
				"type": "unocc",
				"energy": -0.01304,
				"method": "rhf"
			},
			{
				"type": "unocc",
				"energy": 0.03011,
				"method": "rhf"
			},
			{
				"type": "unocc",
				"energy": 0.03306,
				"method": "rhf"
			}
		],
		"cosmo_sigma_profile": { 
			"-0.025": 0.0,
			"-0.024": 0.0,
			"-0.023": 0.0,
			"-0.022": 0.0,
			"-0.021": 0.0,
			"-0.02": 0.0477534916491,
			"-0.019": 0.765648179964,
			"-0.018": 0.745663273293,
			"-0.017": 1.12548206678,
			"-0.016": 1.46842597415,
			"-0.015": 0.871628198442,
			"-0.014": 0.815116004731,
			"-0.013": 1.18722322855,
			"-0.012": 2.05803686272,
			"-0.011": 2.86836621885,
			"-0.01": 3.9685344893,
			"-0.009": 4.10375212224,
			"-0.008": 5.53106588395,
			"-0.007": 6.02389854831,
			"-0.006": 7.15730951892,
			"-0.005": 7.8812804806,
			"-0.004": 7.73241214082,
			"-0.003": 11.8486128764,
			"-0.002": 12.9694425665,
			"-0.001": 15.8376704532,
			"0.0": 22.6430136379,
			"0.001": 21.8562705557,
			"0.002": 13.9886226495,
			"0.003": 14.6855064796,
			"0.004": 13.8128197822,
			"0.005": 3.9115379421,
			"0.006": 3.00156789768,
			"0.007": 3.8117496823,
			"0.008": 3.92978908144,
			"0.009": 4.96526339779,
			"0.01": 5.16107449183,
			"0.011": 6.05966774232,
			"0.012": 4.87664546248,
			"0.013": 1.39055123031,
			"0.014": 1.06688250683,
			"0.015": 0.550783413551,
			"0.016": 0.409092521267,
			"0.017": 0.00561477972798,
			"0.018": 0.0,
			"0.019": 0.0,
			"0.02": 0.0,
			"0.021": 0.0,
			"0.022": 0.0,
			"0.023": 0.0,
			"0.024": 0.0,
			"0.025": 0.0
		}
	}
}
