{
	 "smiles": "CC(C)CCN1C(C)=CC(C(=O)CCl)=C1C", 
	 "Tm": 329.15, 
	 "num_atms": 36, 
	 "gaussian": { 
		 "optdone": 1, 
		 "sigma_profile": "yes", 
		 "theory": "DFT", 
		 "functional": "B3LYP", 
		 "basiset": "6-31G**", 
		 "properties": { 
			 "R2extent": 6346.0323, 
			 "electric_dipole_moment_norm": 6.32997250389, 
			 "electric_quadrupole_moment_norm": 16.8814241461, 
			 "total_energy": -1097.62453739, 
			 "HOMO_LUMO_gap": 0.16735, 
			 "cosmo_polarized_energy": -13.35, 
			 "cosmo_cavitation_energy": 39.08, 
			 "cosmo_dispersion_energy": -26.54, 
			 "cosmo_repulsion_energy": 2.09, 
			 "cosmo_total_nonelectrostatic_energy": 14.63, 
			 "SMD_solvation_energy": 6.55 
		},
		"coords": [
			{
				"x": -3.0875945983,
				"y": -0.0634211258,
				"z": -2.5277451864,
				"element": "C" 
			},
			{
				"x": -2.0118401491,
				"y": -1.0551879593,
				"z": -2.0599873551,
				"element": "C" 
			},
			{
				"x": -1.4831853691,
				"y": -1.8771988158,
				"z": -3.2464846993,
				"element": "C" 
			},
			{
				"x": -0.8907453781,
				"y": -0.3090046747,
				"z": -1.310041835,
				"element": "C" 
			},
			{
				"x": 0.1381304974,
				"y": -1.2302147648,
				"z": -0.6344363744,
				"element": "C" 
			},
			{
				"x": 1.1439753849,
				"y": -0.5003015715,
				"z": 0.1359925558,
				"element": "N" 
			},
			{
				"x": 2.3530526592,
				"y": -0.0388245592,
				"z": -0.3936104473,
				"element": "C" 
			},
			{
				"x": 2.7755013506,
				"y": -0.3083313271,
				"z": -1.8027114786,
				"element": "C" 
			},
			{
				"x": 3.0030906769,
				"y": 0.6365121677,
				"z": 0.6009591294,
				"element": "C" 
			},
			{
				"x": 2.1869260644,
				"y": 0.6018576319,
				"z": 1.7773753217,
				"element": "C" 
			},
			{
				"x": 2.6510647841,
				"y": 1.2016332457,
				"z": 3.0288780911,
				"element": "C" 
			},
			{
				"x": 3.7494346128,
				"y": 1.7418337111,
				"z": 3.1101190134,
				"element": "O" 
			},
			{
				"x": 1.8061286149,
				"y": 1.1500100945,
				"z": 4.3078635824,
				"element": "C" 
			},
			{
				"x": 0.4872483828,
				"y": 2.4076477892,
				"z": 4.2909182317,
				"element": "Cl" 
			},
			{
				"x": 1.02475423,
				"y": -0.1117773167,
				"z": 1.4512217584,
				"element": "C" 
			},
			{
				"x": -0.1734265243,
				"y": -0.4974427414,
				"z": 2.2669643944,
				"element": "C" 
			},
			{
				"x": -3.9119101248,
				"y": -0.5822198329,
				"z": -3.0282184915,
				"element": "H" 
			},
			{
				"x": -3.5061384387,
				"y": 0.5003096098,
				"z": -1.6871932208,
				"element": "H" 
			},
			{
				"x": -2.6702127392,
				"y": 0.6597195503,
				"z": -3.2387534046,
				"element": "H" 
			},
			{
				"x": -2.4839990052,
				"y": -1.7512595659,
				"z": -1.3495307819,
				"element": "H" 
			},
			{
				"x": -0.9736929678,
				"y": -1.2309318521,
				"z": -3.9718277411,
				"element": "H" 
			},
			{
				"x": -2.3051996311,
				"y": -2.3765165724,
				"z": -3.7699285568,
				"element": "H" 
			},
			{
				"x": -0.7767199262,
				"y": -2.6539542443,
				"z": -2.9365369616,
				"element": "H" 
			},
			{
				"x": -0.3694711034,
				"y": 0.3640581011,
				"z": -2.0036606574,
				"element": "H" 
			},
			{
				"x": -1.336396491,
				"y": 0.3346336969,
				"z": -0.5416549226,
				"element": "H" 
			},
			{
				"x": 0.6673605039,
				"y": -1.8296637536,
				"z": -1.3782968329,
				"element": "H" 
			},
			{
				"x": -0.3658180272,
				"y": -1.937150629,
				"z": 0.031122254,
				"element": "H" 
			},
			{
				"x": 3.7451980218,
				"y": 0.1628327516,
				"z": -1.9783955906,
				"element": "H" 
			},
			{
				"x": 2.073956551,
				"y": 0.0952298016,
				"z": -2.5432161852,
				"element": "H" 
			},
			{
				"x": 2.889951888,
				"y": -1.3800375285,
				"z": -2.0113026289,
				"element": "H" 
			},
			{
				"x": 3.9695607085,
				"y": 1.1135839071,
				"z": 0.5366883772,
				"element": "H" 
			},
			{
				"x": 2.4560872382,
				"y": 1.3974470913,
				"z": 5.1449354406,
				"element": "H" 
			},
			{
				"x": 1.3208710974,
				"y": 0.1866844143,
				"z": 4.4685275665,
				"element": "H" 
			},
			{
				"x": -0.3883970461,
				"y": 0.2544725775,
				"z": 3.0261756219,
				"element": "H" 
			},
			{
				"x": -0.0357925322,
				"y": -1.4636611918,
				"z": 2.7713948248,
				"element": "H" 
			},
			{
				"x": -1.0720532147,
				"y": -0.5813661146,
				"z": 1.6505971884,
				"element": "H" 
			}
		],
		 "valence_orbital": [ 
			{
				"type": "occ",
				"energy": -0.30448,
				"method": "rhf"
			},
			{
				"type": "occ",
				"energy": -0.29615,
				"method": "rhf"
			},
			{
				"type": "occ",
				"energy": -0.23867,
				"method": "rhf"
			},
			{
				"type": "occ",
				"energy": -0.23673,
				"method": "rhf"
			},
			{
				"type": "occ",
				"energy": -0.20748,
				"method": "rhf"
			},
			{
				"type": "unocc",
				"energy": -0.04013,
				"method": "rhf"
			},
			{
				"type": "unocc",
				"energy": 0.02482,
				"method": "rhf"
			},
			{
				"type": "unocc",
				"energy": 0.04845,
				"method": "rhf"
			},
			{
				"type": "unocc",
				"energy": 0.05963,
				"method": "rhf"
			},
			{
				"type": "unocc",
				"energy": 0.0829,
				"method": "rhf"
			}
		],
		"cosmo_sigma_profile": { 
			"-0.025": 0.0,
			"-0.024": 0.0,
			"-0.023": 0.0,
			"-0.022": 0.0,
			"-0.021": 0.0,
			"-0.02": 0.0,
			"-0.019": 0.0,
			"-0.018": 0.0,
			"-0.017": 0.0,
			"-0.016": 0.0,
			"-0.015": 0.0,
			"-0.014": 0.0,
			"-0.013": 0.0,
			"-0.012": 0.0,
			"-0.011": 0.0,
			"-0.01": 0.0,
			"-0.009": 0.0,
			"-0.008": 1.58210791502,
			"-0.007": 4.61192376259,
			"-0.006": 7.99243025986,
			"-0.005": 20.0937285982,
			"-0.004": 24.1766071085,
			"-0.003": 30.8696788028,
			"-0.002": 39.0497194213,
			"-0.001": 35.9814894944,
			"0.0": 31.3026524006,
			"0.001": 23.7542843726,
			"0.002": 17.3487669079,
			"0.003": 12.8038187225,
			"0.004": 11.5021803761,
			"0.005": 14.8417058715,
			"0.006": 11.5230668895,
			"0.007": 4.63240845256,
			"0.008": 1.46399814962,
			"0.009": 1.53626472299,
			"0.01": 2.08127582953,
			"0.011": 2.45112790283,
			"0.012": 3.87795449787,
			"0.013": 3.71098581971,
			"0.014": 0.379279952429,
			"0.015": 0.0,
			"0.016": 0.0,
			"0.017": 0.0,
			"0.018": 0.0,
			"0.019": 0.0,
			"0.02": 0.0,
			"0.021": 0.0,
			"0.022": 0.0,
			"0.023": 0.0,
			"0.024": 0.0,
			"0.025": 0.0
		}
	}
}
