{
	 "smiles": "COCCNC1=C(C=C2C(=O)NC=NC2=C1)[N+]([O-])=O", 
	 "Tm": 533.15, 
	 "num_atms": 31, 
	 "gaussian": { 
		 "optdone": 1, 
		 "sigma_profile": "yes", 
		 "theory": "DFT", 
		 "functional": "B3LYP", 
		 "basiset": "6-31G**", 
		 "properties": { 
			 "R2extent": 6487.4059, 
			 "electric_dipole_moment_norm": 5.16343057376, 
			 "electric_quadrupole_moment_norm": 22.2835548412, 
			 "total_energy": -946.200960044, 
			 "HOMO_LUMO_gap": 0.1379, 
			 "cosmo_polarized_energy": -22.9, 
			 "cosmo_cavitation_energy": 35.65, 
			 "cosmo_dispersion_energy": -25.24, 
			 "cosmo_repulsion_energy": 1.91, 
			 "cosmo_total_nonelectrostatic_energy": 12.31, 
			 "SMD_solvation_energy": 7.05 
		},
		"coords": [
			{
				"x": 2.8644422698,
				"y": -2.5643417038,
				"z": 1.9549113765,
				"element": "C" 
			},
			{
				"x": 1.8149091532,
				"y": -2.5721361848,
				"z": 2.9131553528,
				"element": "O" 
			},
			{
				"x": 0.5952611014,
				"y": -2.0496204322,
				"z": 2.4292772003,
				"element": "C" 
			},
			{
				"x": 0.5474238682,
				"y": -0.5156266675,
				"z": 2.5875618601,
				"element": "C" 
			},
			{
				"x": -0.6695045236,
				"y": 0.0939267956,
				"z": 2.0507883858,
				"element": "N" 
			},
			{
				"x": -1.2004034635,
				"y": 0.0048204315,
				"z": 0.7880530016,
				"element": "C" 
			},
			{
				"x": -0.4891320956,
				"y": -0.262909654,
				"z": -0.4259336252,
				"element": "C" 
			},
			{
				"x": -1.1517600358,
				"y": -0.4526465099,
				"z": -1.6329361323,
				"element": "C" 
			},
			{
				"x": -2.5318261151,
				"y": -0.3031343811,
				"z": -1.7222102529,
				"element": "C" 
			},
			{
				"x": -3.2198761926,
				"y": -0.4687660069,
				"z": -3.0024416345,
				"element": "C" 
			},
			{
				"x": -2.7188714172,
				"y": -0.7522197258,
				"z": -4.0795310296,
				"element": "O" 
			},
			{
				"x": -4.6080961369,
				"y": -0.2602181798,
				"z": -2.8855670696,
				"element": "N" 
			},
			{
				"x": -5.2347341611,
				"y": 0.0574317191,
				"z": -1.7089739765,
				"element": "C" 
			},
			{
				"x": -4.6493448699,
				"y": 0.2097777643,
				"z": -0.5683235807,
				"element": "N" 
			},
			{
				"x": -3.2682074328,
				"y": 0.0341575578,
				"z": -0.5517379298,
				"element": "C" 
			},
			{
				"x": -2.5966416841,
				"y": 0.1660472818,
				"z": 0.6607882574,
				"element": "C" 
			},
			{
				"x": 0.9681409629,
				"y": -0.2705482042,
				"z": -0.5101034612,
				"element": "N" 
			},
			{
				"x": 1.4986807475,
				"y": -1.0807763874,
				"z": -1.2721455484,
				"element": "O" 
			},
			{
				"x": 1.5852709301,
				"y": 0.5725967524,
				"z": 0.1496307891,
				"element": "O" 
			},
			{
				"x": 2.614171766,
				"y": -3.186769664,
				"z": 1.0833273121,
				"element": "H" 
			},
			{
				"x": 3.7449485818,
				"y": -2.9810692633,
				"z": 2.4490880826,
				"element": "H" 
			},
			{
				"x": 3.104656624,
				"y": -1.5546989634,
				"z": 1.5960030676,
				"element": "H" 
			},
			{
				"x": -0.2072211769,
				"y": -2.5056288029,
				"z": 3.0208205991,
				"element": "H" 
			},
			{
				"x": 0.431317214,
				"y": -2.3360469871,
				"z": 1.3790201146,
				"element": "H" 
			},
			{
				"x": 1.427099877,
				"y": -0.062401541,
				"z": 2.1310903158,
				"element": "H" 
			},
			{
				"x": 0.5728165442,
				"y": -0.2726736008,
				"z": 3.6529620711,
				"element": "H" 
			},
			{
				"x": -1.379628293,
				"y": 0.2616372704,
				"z": 2.7486787611,
				"element": "H" 
			},
			{
				"x": -0.5796811304,
				"y": -0.6870233765,
				"z": -2.5228545479,
				"element": "H" 
			},
			{
				"x": -5.1402707783,
				"y": -0.3609713852,
				"z": -3.741283803,
				"element": "H" 
			},
			{
				"x": -6.3136418119,
				"y": 0.1850320753,
				"z": -1.7766877977,
				"element": "H" 
			},
			{
				"x": -3.1933983215,
				"y": 0.3739999734,
				"z": 1.5439738416,
				"element": "H" 
			}
		],
		 "valence_orbital": [ 
			{
				"type": "occ",
				"energy": -0.28879,
				"method": "rhf"
			},
			{
				"type": "occ",
				"energy": -0.27483,
				"method": "rhf"
			},
			{
				"type": "occ",
				"energy": -0.26503,
				"method": "rhf"
			},
			{
				"type": "occ",
				"energy": -0.24908,
				"method": "rhf"
			},
			{
				"type": "occ",
				"energy": -0.22592,
				"method": "rhf"
			},
			{
				"type": "unocc",
				"energy": -0.08802,
				"method": "rhf"
			},
			{
				"type": "unocc",
				"energy": -0.0495,
				"method": "rhf"
			},
			{
				"type": "unocc",
				"energy": -0.03875,
				"method": "rhf"
			},
			{
				"type": "unocc",
				"energy": 0.01381,
				"method": "rhf"
			},
			{
				"type": "unocc",
				"energy": 0.05477,
				"method": "rhf"
			}
		],
		"cosmo_sigma_profile": { 
			"-0.025": 0.0,
			"-0.024": 0.0,
			"-0.023": 0.0,
			"-0.022": 0.0,
			"-0.021": 0.0,
			"-0.02": 0.0,
			"-0.019": 0.0,
			"-0.018": 0.0,
			"-0.017": 1.02395243181,
			"-0.016": 1.44466904095,
			"-0.015": 2.66253772657,
			"-0.014": 2.92897654289,
			"-0.013": 2.48551778651,
			"-0.012": 2.87741960823,
			"-0.011": 3.34797179656,
			"-0.01": 4.50217589723,
			"-0.009": 3.46825769409,
			"-0.008": 4.20034553682,
			"-0.007": 4.82348819957,
			"-0.006": 8.16980508985,
			"-0.005": 14.4933559923,
			"-0.004": 19.7559392542,
			"-0.003": 24.1268802667,
			"-0.002": 26.4326517448,
			"-0.001": 19.620728894,
			"0.0": 21.1637464187,
			"0.001": 16.2431927538,
			"0.002": 12.1627937151,
			"0.003": 9.87046268598,
			"0.004": 7.71257548123,
			"0.005": 7.11566764863,
			"0.006": 9.14373826442,
			"0.007": 9.49759082957,
			"0.008": 12.8810940186,
			"0.009": 7.19247090789,
			"0.01": 5.25349838443,
			"0.011": 4.67794786953,
			"0.012": 7.44757610685,
			"0.013": 5.46184704065,
			"0.014": 1.07297842326,
			"0.015": 0.456034071766,
			"0.016": 0.0376352056982,
			"0.017": 0.0,
			"0.018": 0.0,
			"0.019": 0.0,
			"0.02": 0.0,
			"0.021": 0.0,
			"0.022": 0.0,
			"0.023": 0.0,
			"0.024": 0.0,
			"0.025": 0.0
		}
	}
}
