{
	 "smiles": "CC1=NNC(C(O)=O)=C1C", 
	 "Tm": 562.15, 
	 "num_atms": 18, 
	 "gaussian": { 
		 "optdone": 1, 
		 "sigma_profile": "yes", 
		 "theory": "DFT", 
		 "functional": "B3LYP", 
		 "basiset": "6-31G**", 
		 "properties": { 
			 "R2extent": 2078.2817, 
			 "electric_dipole_moment_norm": 4.07150314012, 
			 "electric_quadrupole_moment_norm": 14.9554038374, 
			 "total_energy": -493.41227878, 
			 "HOMO_LUMO_gap": 0.21163, 
			 "cosmo_polarized_energy": -14.69, 
			 "cosmo_cavitation_energy": 22.03, 
			 "cosmo_dispersion_energy": -16.38, 
			 "cosmo_repulsion_energy": 1.33, 
			 "cosmo_total_nonelectrostatic_energy": 6.98, 
			 "SMD_solvation_energy": 4.06 
		},
		"coords": [
			{
				"x": 2.2043139143,
				"y": -0.0408905134,
				"z": 0.312939687,
				"element": "C" 
			},
			{
				"x": 0.8044176399,
				"y": -0.1523584663,
				"z": 0.8365586579,
				"element": "C" 
			},
			{
				"x": 0.4065468972,
				"y": 0.6079251084,
				"z": 1.8670923273,
				"element": "N" 
			},
			{
				"x": -0.8665966491,
				"y": 0.2669146891,
				"z": 2.0766079084,
				"element": "N" 
			},
			{
				"x": -1.3170004847,
				"y": -0.6895892995,
				"z": 1.220110315,
				"element": "C" 
			},
			{
				"x": -2.7128548285,
				"y": -1.1411296651,
				"z": 1.3637197198,
				"element": "C" 
			},
			{
				"x": -3.1478044959,
				"y": -2.0939861973,
				"z": 0.5040077078,
				"element": "O" 
			},
			{
				"x": -3.4523013665,
				"y": -0.6878922946,
				"z": 2.2109029696,
				"element": "O" 
			},
			{
				"x": -0.2426678434,
				"y": -0.9956596794,
				"z": 0.3823212622,
				"element": "C" 
			},
			{
				"x": -0.1830119456,
				"y": -1.9846974438,
				"z": -0.7463854797,
				"element": "C" 
			},
			{
				"x": 2.2212725567,
				"y": 0.2636446102,
				"z": -0.7396483482,
				"element": "H" 
			},
			{
				"x": 2.7433756538,
				"y": -0.9920041632,
				"z": 0.3889116374,
				"element": "H" 
			},
			{
				"x": 2.7499901628,
				"y": 0.7066242278,
				"z": 0.8922312051,
				"element": "H" 
			},
			{
				"x": -1.4179397282,
				"y": 0.6942731822,
				"z": 2.8075078531,
				"element": "H" 
			},
			{
				"x": -2.4450827691,
				"y": -2.3519779645,
				"z": -0.108794645,
				"element": "H" 
			},
			{
				"x": -0.8964602964,
				"y": -1.7488353355,
				"z": -1.5473932224,
				"element": "H" 
			},
			{
				"x": -0.3731359382,
				"y": -3.0133411787,
				"z": -0.4116962686,
				"element": "H" 
			},
			{
				"x": 0.808439521,
				"y": -1.9868196163,
				"z": -1.2054932868,
				"element": "H" 
			}
		],
		 "valence_orbital": [ 
			{
				"type": "occ",
				"energy": -0.32337,
				"method": "rhf"
			},
			{
				"type": "occ",
				"energy": -0.29915,
				"method": "rhf"
			},
			{
				"type": "occ",
				"energy": -0.28419,
				"method": "rhf"
			},
			{
				"type": "occ",
				"energy": -0.25947,
				"method": "rhf"
			},
			{
				"type": "occ",
				"energy": -0.25692,
				"method": "rhf"
			},
			{
				"type": "unocc",
				"energy": -0.04529,
				"method": "rhf"
			},
			{
				"type": "unocc",
				"energy": 0.03941,
				"method": "rhf"
			},
			{
				"type": "unocc",
				"energy": 0.04925,
				"method": "rhf"
			},
			{
				"type": "unocc",
				"energy": 0.08885,
				"method": "rhf"
			},
			{
				"type": "unocc",
				"energy": 0.09468,
				"method": "rhf"
			}
		],
		"cosmo_sigma_profile": { 
			"-0.025": 0.0,
			"-0.024": 0.0,
			"-0.023": 0.0,
			"-0.022": 0.0,
			"-0.021": 0.0,
			"-0.02": 0.0,
			"-0.019": 0.0,
			"-0.018": 0.0,
			"-0.017": 0.0318076885199,
			"-0.016": 0.636904309039,
			"-0.015": 1.36378876903,
			"-0.014": 2.33265721332,
			"-0.013": 2.80061389698,
			"-0.012": 1.63205727096,
			"-0.011": 2.63821274007,
			"-0.01": 1.93210391835,
			"-0.009": 2.00911674331,
			"-0.008": 2.4270402376,
			"-0.007": 3.42747333199,
			"-0.006": 3.91480945893,
			"-0.005": 7.78800584028,
			"-0.004": 15.2996575012,
			"-0.003": 15.0231034293,
			"-0.002": 15.0574581129,
			"-0.001": 16.4262970842,
			"0.0": 12.0119470482,
			"0.001": 6.78569154432,
			"0.002": 9.2509071569,
			"0.003": 7.3250692685,
			"0.004": 4.2064433982,
			"0.005": 3.21483011691,
			"0.006": 3.90448118937,
			"0.007": 4.22459071745,
			"0.008": 4.08460148484,
			"0.009": 4.37689505203,
			"0.01": 5.90932300261,
			"0.011": 6.2255986046,
			"0.012": 4.0906966301,
			"0.013": 2.26463541257,
			"0.014": 1.10912015497,
			"0.015": 0.688003467681,
			"0.016": 0.198388127733,
			"0.017": 0.0,
			"0.018": 0.0,
			"0.019": 0.0,
			"0.02": 0.0,
			"0.021": 0.0,
			"0.022": 0.0,
			"0.023": 0.0,
			"0.024": 0.0,
			"0.025": 0.0
		}
	}
}
