{
	 "smiles": "CC(C)(C)C(=O)NC1=C(CC2=CC=CC=C2)C=CC=C1", 
	 "Tm": 361.15, 
	 "num_atms": 41, 
	 "gaussian": { 
		 "optdone": 1, 
		 "sigma_profile": "yes", 
		 "theory": "DFT", 
		 "functional": "B3LYP", 
		 "basiset": "6-31G**", 
		 "properties": { 
			 "R2extent": 5804.7172, 
			 "electric_dipole_moment_norm": 3.66262916496, 
			 "electric_quadrupole_moment_norm": 9.24057458982, 
			 "total_energy": -828.588554625, 
			 "HOMO_LUMO_gap": 0.19914, 
			 "cosmo_polarized_energy": -11.17, 
			 "cosmo_cavitation_energy": 42.36, 
			 "cosmo_dispersion_energy": -27.73, 
			 "cosmo_repulsion_energy": 2.11, 
			 "cosmo_total_nonelectrostatic_energy": 16.74, 
			 "SMD_solvation_energy": 7.27 
		},
		"coords": [
			{
				"x": -4.1876226721,
				"y": 0.7183990355,
				"z": 0.0556276452,
				"element": "C" 
			},
			{
				"x": -2.7632672039,
				"y": 0.1602592886,
				"z": -0.0958754424,
				"element": "C" 
			},
			{
				"x": -2.7280258086,
				"y": -1.2962467455,
				"z": 0.4189618672,
				"element": "C" 
			},
			{
				"x": -2.3480041811,
				"y": 0.2036830428,
				"z": -1.5854417079,
				"element": "C" 
			},
			{
				"x": -1.8039848622,
				"y": 1.0633163119,
				"z": 0.7234749139,
				"element": "C" 
			},
			{
				"x": -2.1831406102,
				"y": 2.1008270185,
				"z": 1.2509634833,
				"element": "O" 
			},
			{
				"x": -0.5017389516,
				"y": 0.6092567998,
				"z": 0.7917331064,
				"element": "N" 
			},
			{
				"x": 0.6213061739,
				"y": 1.2258868826,
				"z": 1.3888847149,
				"element": "C" 
			},
			{
				"x": 1.7976224757,
				"y": 0.4529216849,
				"z": 1.5493414523,
				"element": "C" 
			},
			{
				"x": 1.8482850434,
				"y": -1.0181313235,
				"z": 1.1786784264,
				"element": "C" 
			},
			{
				"x": 1.727613386,
				"y": -1.3496169431,
				"z": -0.3065150541,
				"element": "C" 
			},
			{
				"x": 1.0913762075,
				"y": -2.5319064151,
				"z": -0.7136635329,
				"element": "C" 
			},
			{
				"x": 1.0041852533,
				"y": -2.8723804663,
				"z": -2.0653962437,
				"element": "C" 
			},
			{
				"x": 1.5521523311,
				"y": -2.0306530862,
				"z": -3.0344738879,
				"element": "C" 
			},
			{
				"x": 2.1868886202,
				"y": -0.8500640744,
				"z": -2.6413532802,
				"element": "C" 
			},
			{
				"x": 2.2733000165,
				"y": -0.5124034713,
				"z": -1.2901264223,
				"element": "C" 
			},
			{
				"x": 2.9263700863,
				"y": 1.0643954106,
				"z": 2.103750593,
				"element": "C" 
			},
			{
				"x": 2.9147185465,
				"y": 2.3979832631,
				"z": 2.5119605833,
				"element": "C" 
			},
			{
				"x": 1.7439918339,
				"y": 3.1392207611,
				"z": 2.3656587942,
				"element": "C" 
			},
			{
				"x": 0.6025261655,
				"y": 2.5653284756,
				"z": 1.8079007133,
				"element": "C" 
			},
			{
				"x": -4.5102796791,
				"y": 0.6996098822,
				"z": 1.1000552978,
				"element": "H" 
			},
			{
				"x": -4.8862797961,
				"y": 0.1171014567,
				"z": -0.535642283,
				"element": "H" 
			},
			{
				"x": -4.2413930168,
				"y": 1.7551680662,
				"z": -0.2831397928,
				"element": "H" 
			},
			{
				"x": -2.950471494,
				"y": -1.3452034706,
				"z": 1.4898459327,
				"element": "H" 
			},
			{
				"x": -1.7620812685,
				"y": -1.7833065558,
				"z": 0.2486191866,
				"element": "H" 
			},
			{
				"x": -3.4818009975,
				"y": -1.891262309,
				"z": -0.1078308998,
				"element": "H" 
			},
			{
				"x": -2.3579333974,
				"y": 1.2307416829,
				"z": -1.9643796841,
				"element": "H" 
			},
			{
				"x": -3.0530372678,
				"y": -0.3828086823,
				"z": -2.1847224388,
				"element": "H" 
			},
			{
				"x": -1.3483284641,
				"y": -0.2092284306,
				"z": -1.7546599869,
				"element": "H" 
			},
			{
				"x": -0.3032970791,
				"y": -0.2407733599,
				"z": 0.2845708444,
				"element": "H" 
			},
			{
				"x": 1.0633796265,
				"y": -1.5631256383,
				"z": 1.7206003816,
				"element": "H" 
			},
			{
				"x": 2.7967723467,
				"y": -1.426232316,
				"z": 1.5493776251,
				"element": "H" 
			},
			{
				"x": 0.6682424751,
				"y": -3.1960077404,
				"z": 0.0370473611,
				"element": "H" 
			},
			{
				"x": 0.5068579463,
				"y": -3.7925058142,
				"z": -2.3590725199,
				"element": "H" 
			},
			{
				"x": 1.4833052325,
				"y": -2.2904351291,
				"z": -4.0867864277,
				"element": "H" 
			},
			{
				"x": 2.6144448474,
				"y": -0.1879174901,
				"z": -3.3890400418,
				"element": "H" 
			},
			{
				"x": 2.7610445708,
				"y": 0.4109836102,
				"z": -0.9915339354,
				"element": "H" 
			},
			{
				"x": 3.8295142818,
				"y": 0.4714051177,
				"z": 2.2267443379,
				"element": "H" 
			},
			{
				"x": 3.8046990379,
				"y": 2.8450733782,
				"z": 2.9443285244,
				"element": "H" 
			},
			{
				"x": 1.7101643765,
				"y": 4.1772972549,
				"z": 2.6840712894,
				"element": "H" 
			},
			{
				"x": -0.3106741311,
				"y": 3.1325510377,
				"z": 1.7017565073,
				"element": "H" 
			}
		],
		 "valence_orbital": [ 
			{
				"type": "occ",
				"energy": -0.2589,
				"method": "rhf"
			},
			{
				"type": "occ",
				"energy": -0.25382,
				"method": "rhf"
			},
			{
				"type": "occ",
				"energy": -0.24277,
				"method": "rhf"
			},
			{
				"type": "occ",
				"energy": -0.2402,
				"method": "rhf"
			},
			{
				"type": "occ",
				"energy": -0.2138,
				"method": "rhf"
			},
			{
				"type": "unocc",
				"energy": -0.01466,
				"method": "rhf"
			},
			{
				"type": "unocc",
				"energy": -0.01258,
				"method": "rhf"
			},
			{
				"type": "unocc",
				"energy": -0.00784,
				"method": "rhf"
			},
			{
				"type": "unocc",
				"energy": 0.00548,
				"method": "rhf"
			},
			{
				"type": "unocc",
				"energy": 0.04759,
				"method": "rhf"
			}
		],
		"cosmo_sigma_profile": { 
			"-0.025": 0.0,
			"-0.024": 0.0,
			"-0.023": 0.0,
			"-0.022": 0.0,
			"-0.021": 0.0,
			"-0.02": 0.0,
			"-0.019": 0.0,
			"-0.018": 0.0,
			"-0.017": 0.0,
			"-0.016": 0.0,
			"-0.015": 0.0,
			"-0.014": 0.0,
			"-0.013": 0.0,
			"-0.012": 0.0,
			"-0.011": 0.0,
			"-0.01": 0.0972635095542,
			"-0.009": 0.55895274044,
			"-0.008": 0.758873491422,
			"-0.007": 0.962256432568,
			"-0.006": 8.87652754928,
			"-0.005": 21.3182730203,
			"-0.004": 26.4165287162,
			"-0.003": 39.5520627706,
			"-0.002": 34.309141485,
			"-0.001": 32.7765013504,
			"0.0": 36.4366008586,
			"0.001": 33.1110079,
			"0.002": 21.3621136326,
			"0.003": 19.1748505642,
			"0.004": 16.8820890585,
			"0.005": 15.0425213708,
			"0.006": 10.9165697546,
			"0.007": 2.36854575762,
			"0.008": 2.01806600087,
			"0.009": 1.71240122986,
			"0.01": 1.60968469319,
			"0.011": 2.11099635012,
			"0.012": 2.49368398004,
			"0.013": 2.83448870977,
			"0.014": 0.815144125311,
			"0.015": 0.0,
			"0.016": 0.0,
			"0.017": 0.0,
			"0.018": 0.0,
			"0.019": 0.0,
			"0.02": 0.0,
			"0.021": 0.0,
			"0.022": 0.0,
			"0.023": 0.0,
			"0.024": 0.0,
			"0.025": 0.0
		}
	}
}
