{
	 "smiles": "CC1=NN(C(NS(=O)(=O)C2=CC=C(N)C=C2)=C1)C1=CC=CC=C1", 
	 "Tm": 468.15, 
	 "num_atms": 39, 
	 "gaussian": { 
		 "optdone": 1, 
		 "sigma_profile": "yes", 
		 "theory": "DFT", 
		 "functional": "B3LYP", 
		 "basiset": "6-31G**", 
		 "properties": { 
			 "R2extent": 7900.2814, 
			 "electric_dipole_moment_norm": 6.64350689471, 
			 "electric_quadrupole_moment_norm": 33.6809733825, 
			 "total_energy": -1386.90592733, 
			 "HOMO_LUMO_gap": 0.18521, 
			 "cosmo_polarized_energy": -23.34, 
			 "cosmo_cavitation_energy": 44.41, 
			 "cosmo_dispersion_energy": -30.43, 
			 "cosmo_repulsion_energy": 2.3, 
			 "cosmo_total_nonelectrostatic_energy": 16.28, 
			 "SMD_solvation_energy": 5.74 
		},
		"coords": [
			{
				"x": -0.6059767909,
				"y": -0.8923801449,
				"z": 4.2095096734,
				"element": "C" 
			},
			{
				"x": -0.6864890646,
				"y": -0.1021529077,
				"z": 2.939338582,
				"element": "C" 
			},
			{
				"x": 0.1992598282,
				"y": 0.8591512918,
				"z": 2.6924290514,
				"element": "N" 
			},
			{
				"x": -0.129909944,
				"y": 1.3475567347,
				"z": 1.4578536494,
				"element": "N" 
			},
			{
				"x": -1.2591377844,
				"y": 0.7288549854,
				"z": 0.9645335149,
				"element": "C" 
			},
			{
				"x": -1.8777917827,
				"y": 1.1146648745,
				"z": -0.2284212057,
				"element": "N" 
			},
			{
				"x": -2.2826094931,
				"y": -0.006233073,
				"z": -1.4540942663,
				"element": "S" 
			},
			{
				"x": -3.0150995056,
				"y": -1.0830970188,
				"z": -0.7914389331,
				"element": "O" 
			},
			{
				"x": -2.8734491229,
				"y": 0.8349543417,
				"z": -2.4956825873,
				"element": "O" 
			},
			{
				"x": -0.7575289527,
				"y": -0.6806123611,
				"z": -2.076777879,
				"element": "C" 
			},
			{
				"x": -0.1453163069,
				"y": -1.7553804857,
				"z": -1.4200512174,
				"element": "C" 
			},
			{
				"x": 1.0581947158,
				"y": -2.256731953,
				"z": -1.8950135473,
				"element": "C" 
			},
			{
				"x": 1.6709850812,
				"y": -1.6994355939,
				"z": -3.0361701672,
				"element": "C" 
			},
			{
				"x": 2.8911927282,
				"y": -2.1712039668,
				"z": -3.4811394842,
				"element": "N" 
			},
			{
				"x": 1.0352111755,
				"y": -0.6237894233,
				"z": -3.69013166,
				"element": "C" 
			},
			{
				"x": -0.1664420088,
				"y": -0.117394309,
				"z": -3.2140300462,
				"element": "C" 
			},
			{
				"x": -1.6348817397,
				"y": -0.2219908789,
				"z": 1.8927516807,
				"element": "C" 
			},
			{
				"x": 0.5773403318,
				"y": 2.4659051165,
				"z": 0.939374215,
				"element": "C" 
			},
			{
				"x": 0.9525255156,
				"y": 2.5143293596,
				"z": -0.4092198337,
				"element": "C" 
			},
			{
				"x": 1.6350920294,
				"y": 3.6319013825,
				"z": -0.8939380367,
				"element": "C" 
			},
			{
				"x": 1.9673595685,
				"y": 4.683142435,
				"z": -0.0394198629,
				"element": "C" 
			},
			{
				"x": 1.6159726607,
				"y": 4.6130912216,
				"z": 1.3115878769,
				"element": "C" 
			},
			{
				"x": 0.9169938264,
				"y": 3.5136704263,
				"z": 1.8038336485,
				"element": "C" 
			},
			{
				"x": 0.2065983096,
				"y": -0.5115114189,
				"z": 4.8320380766,
				"element": "H" 
			},
			{
				"x": -1.540436026,
				"y": -0.8280793778,
				"z": 4.7776855165,
				"element": "H" 
			},
			{
				"x": -0.4199162843,
				"y": -1.9534929298,
				"z": 4.008722284,
				"element": "H" 
			},
			{
				"x": -1.6005137674,
				"y": 2.0089750315,
				"z": -0.6198510992,
				"element": "H" 
			},
			{
				"x": -0.6212090323,
				"y": -2.2010397772,
				"z": -0.5540656062,
				"element": "H" 
			},
			{
				"x": 1.5333209389,
				"y": -3.0911088557,
				"z": -1.3862659093,
				"element": "H" 
			},
			{
				"x": 3.1443617023,
				"y": -1.9644697676,
				"z": -4.4358469506,
				"element": "H" 
			},
			{
				"x": 3.1655690367,
				"y": -3.0938681918,
				"z": -3.1782906133,
				"element": "H" 
			},
			{
				"x": 1.4890144048,
				"y": -0.193818466,
				"z": -4.5790863923,
				"element": "H" 
			},
			{
				"x": -0.6662005591,
				"y": 0.6953313947,
				"z": -3.7302975526,
				"element": "H" 
			},
			{
				"x": -2.4877079434,
				"y": -0.8778389363,
				"z": 1.8180807309,
				"element": "H" 
			},
			{
				"x": 0.7501064346,
				"y": 1.672528631,
				"z": -1.0625382423,
				"element": "H" 
			},
			{
				"x": 1.9239784521,
				"y": 3.666333339,
				"z": -1.940248456,
				"element": "H" 
			},
			{
				"x": 2.5045138189,
				"y": 5.5467000864,
				"z": -0.4197585493,
				"element": "H" 
			},
			{
				"x": 1.8796480331,
				"y": 5.4232245092,
				"z": 1.9851195409,
				"element": "H" 
			},
			{
				"x": 0.6355775167,
				"y": 3.4418146761,
				"z": 2.847820057,
				"element": "H" 
			}
		],
		 "valence_orbital": [ 
			{
				"type": "occ",
				"energy": -0.27264,
				"method": "rhf"
			},
			{
				"type": "occ",
				"energy": -0.26139,
				"method": "rhf"
			},
			{
				"type": "occ",
				"energy": -0.23224,
				"method": "rhf"
			},
			{
				"type": "occ",
				"energy": -0.22671,
				"method": "rhf"
			},
			{
				"type": "occ",
				"energy": -0.21635,
				"method": "rhf"
			},
			{
				"type": "unocc",
				"energy": -0.03114,
				"method": "rhf"
			},
			{
				"type": "unocc",
				"energy": -0.0228,
				"method": "rhf"
			},
			{
				"type": "unocc",
				"energy": -0.01809,
				"method": "rhf"
			},
			{
				"type": "unocc",
				"energy": -0.01363,
				"method": "rhf"
			},
			{
				"type": "unocc",
				"energy": 0.02848,
				"method": "rhf"
			}
		],
		"cosmo_sigma_profile": { 
			"-0.025": 0.0,
			"-0.024": 0.0,
			"-0.023": 0.0,
			"-0.022": 0.0,
			"-0.021": 0.0,
			"-0.02": 0.0,
			"-0.019": 0.0,
			"-0.018": 0.0,
			"-0.017": 0.0,
			"-0.016": 0.0,
			"-0.015": 0.0,
			"-0.014": 0.822090483778,
			"-0.013": 3.40608524899,
			"-0.012": 4.58027818937,
			"-0.011": 5.38348337165,
			"-0.01": 4.1487245342,
			"-0.009": 5.24496022632,
			"-0.008": 4.26478504567,
			"-0.007": 6.85616638684,
			"-0.006": 17.1008635996,
			"-0.005": 19.7906647704,
			"-0.004": 24.3723743987,
			"-0.003": 21.2125813902,
			"-0.002": 24.3090908459,
			"-0.001": 25.0149781577,
			"0.0": 24.1609044446,
			"0.001": 23.4251097172,
			"0.002": 23.7697905539,
			"0.003": 27.578658965,
			"0.004": 27.3412884258,
			"0.005": 13.6803554004,
			"0.006": 7.03116896884,
			"0.007": 6.55901684313,
			"0.008": 5.83940891017,
			"0.009": 5.53309838478,
			"0.01": 9.49887857522,
			"0.011": 9.57423759117,
			"0.012": 2.33072601883,
			"0.013": 0.827951357343,
			"0.014": 0.962402770724,
			"0.015": 0.31728187671,
			"0.016": 0.144807220943,
			"0.017": 0.0,
			"0.018": 0.0,
			"0.019": 0.0,
			"0.02": 0.0,
			"0.021": 0.0,
			"0.022": 0.0,
			"0.023": 0.0,
			"0.024": 0.0,
			"0.025": 0.0
		}
	}
}
