{
	 "smiles": "C[C@]12CCC(=O)C=C1CCC[C@@H]2O", 
	 "Tm": 330.15, 
	 "num_atms": 29, 
	 "gaussian": { 
		 "optdone": 1, 
		 "sigma_profile": "yes", 
		 "theory": "DFT", 
		 "functional": "B3LYP", 
		 "basiset": "6-31G**", 
		 "properties": { 
			 "R2extent": 2453.7269, 
			 "electric_dipole_moment_norm": 4.97071029331, 
			 "electric_quadrupole_moment_norm": 13.7418892777, 
			 "total_energy": -579.252598756, 
			 "HOMO_LUMO_gap": 0.18645, 
			 "cosmo_polarized_energy": -12.52, 
			 "cosmo_cavitation_energy": 28.38, 
			 "cosmo_dispersion_energy": -20.8, 
			 "cosmo_repulsion_energy": 1.62, 
			 "cosmo_total_nonelectrostatic_energy": 9.2, 
			 "SMD_solvation_energy": 4.86 
		},
		"coords": [
			{
				"x": 0.5367856978,
				"y": 1.2948514342,
				"z": 0.5547316894,
				"element": "C" 
			},
			{
				"x": -0.3090086074,
				"y": 0.2408950674,
				"z": -0.2014569986,
				"element": "C" 
			},
			{
				"x": -1.5980337686,
				"y": -0.0742872891,
				"z": 0.5970916199,
				"element": "C" 
			},
			{
				"x": -1.3272042963,
				"y": -0.8430661655,
				"z": 1.8960870758,
				"element": "C" 
			},
			{
				"x": -0.4455966926,
				"y": -2.0708975369,
				"z": 1.6901404889,
				"element": "C" 
			},
			{
				"x": -0.4660311777,
				"y": -3.0113383859,
				"z": 2.4736078936,
				"element": "O" 
			},
			{
				"x": 0.4338384441,
				"y": -2.0642583343,
				"z": 0.5085506751,
				"element": "C" 
			},
			{
				"x": 0.5043775661,
				"y": -1.0435231444,
				"z": -0.3706897187,
				"element": "C" 
			},
			{
				"x": 1.3446452238,
				"y": -1.1113737203,
				"z": -1.6166967185,
				"element": "C" 
			},
			{
				"x": 0.4334711654,
				"y": -1.0927582502,
				"z": -2.8773221161,
				"element": "C" 
			},
			{
				"x": -0.9002162965,
				"y": -0.3592519181,
				"z": -2.6113038632,
				"element": "C" 
			},
			{
				"x": -0.7199072078,
				"y": 0.788761063,
				"z": -1.6097956833,
				"element": "C" 
			},
			{
				"x": 0.2843029268,
				"y": 1.6982982084,
				"z": -2.0710416375,
				"element": "O" 
			},
			{
				"x": 1.466589884,
				"y": 1.5125800292,
				"z": 0.0282175579,
				"element": "H" 
			},
			{
				"x": -0.0184739702,
				"y": 2.2344440584,
				"z": 0.642248244,
				"element": "H" 
			},
			{
				"x": 0.7856373068,
				"y": 0.9430321365,
				"z": 1.5590702032,
				"element": "H" 
			},
			{
				"x": -2.2687500696,
				"y": -0.6739640464,
				"z": -0.0317124502,
				"element": "H" 
			},
			{
				"x": -2.1273439519,
				"y": 0.8613643885,
				"z": 0.8146093496,
				"element": "H" 
			},
			{
				"x": -2.2555476457,
				"y": -1.1720963605,
				"z": 2.3724714768,
				"element": "H" 
			},
			{
				"x": -0.8201684895,
				"y": -0.2004312036,
				"z": 2.6280485206,
				"element": "H" 
			},
			{
				"x": 1.0323699013,
				"y": -2.9617897684,
				"z": 0.3685809858,
				"element": "H" 
			},
			{
				"x": 1.9961213373,
				"y": -0.2312140188,
				"z": -1.6508023941,
				"element": "H" 
			},
			{
				"x": 1.9822202363,
				"y": -2.0000293236,
				"z": -1.6103699269,
				"element": "H" 
			},
			{
				"x": 0.2203856687,
				"y": -2.1182366681,
				"z": -3.1959823216,
				"element": "H" 
			},
			{
				"x": 0.9739231395,
				"y": -0.6117827769,
				"z": -3.6979765734,
				"element": "H" 
			},
			{
				"x": -1.6419120524,
				"y": -1.0601423098,
				"z": -2.2097397714,
				"element": "H" 
			},
			{
				"x": -1.3224170217,
				"y": 0.0215636366,
				"z": -3.5502316469,
				"element": "H" 
			},
			{
				"x": -1.6707768005,
				"y": 1.3316057175,
				"z": -1.486796584,
				"element": "H" 
			},
			{
				"x": 0.0087195507,
				"y": 2.0202454811,
				"z": -2.938937376,
				"element": "H" 
			}
		],
		 "valence_orbital": [ 
			{
				"type": "occ",
				"energy": -0.31449,
				"method": "rhf"
			},
			{
				"type": "occ",
				"energy": -0.31235,
				"method": "rhf"
			},
			{
				"type": "occ",
				"energy": -0.27314,
				"method": "rhf"
			},
			{
				"type": "occ",
				"energy": -0.25193,
				"method": "rhf"
			},
			{
				"type": "occ",
				"energy": -0.22826,
				"method": "rhf"
			},
			{
				"type": "unocc",
				"energy": -0.04181,
				"method": "rhf"
			},
			{
				"type": "unocc",
				"energy": 0.05203,
				"method": "rhf"
			},
			{
				"type": "unocc",
				"energy": 0.07246,
				"method": "rhf"
			},
			{
				"type": "unocc",
				"energy": 0.09664,
				"method": "rhf"
			},
			{
				"type": "unocc",
				"energy": 0.10327,
				"method": "rhf"
			}
		],
		"cosmo_sigma_profile": { 
			"-0.025": 0.0,
			"-0.024": 0.0,
			"-0.023": 0.0,
			"-0.022": 0.0,
			"-0.021": 0.0,
			"-0.02": 0.0,
			"-0.019": 0.0,
			"-0.018": 0.0,
			"-0.017": 0.0,
			"-0.016": 0.0397888688974,
			"-0.015": 1.03038684259,
			"-0.014": 0.726905047494,
			"-0.013": 0.688803656806,
			"-0.012": 1.1308320059,
			"-0.011": 0.973575927285,
			"-0.01": 1.19566386186,
			"-0.009": 1.00264124855,
			"-0.008": 0.552134186878,
			"-0.007": 0.834058173479,
			"-0.006": 2.12914419939,
			"-0.005": 6.6529519065,
			"-0.004": 17.1651584199,
			"-0.003": 34.4081488495,
			"-0.002": 32.1173827717,
			"-0.001": 28.5763754471,
			"0.0": 24.3459711801,
			"0.001": 14.3810775543,
			"0.002": 7.667320874,
			"0.003": 5.80430362856,
			"0.004": 4.25919935009,
			"0.005": 3.10686557613,
			"0.006": 2.47114376301,
			"0.007": 3.17947070853,
			"0.008": 3.2626890889,
			"0.009": 2.29907273675,
			"0.01": 2.55061001808,
			"0.011": 3.70030526245,
			"0.012": 3.81638629444,
			"0.013": 5.4438050418,
			"0.014": 3.2451083869,
			"0.015": 0.646681516016,
			"0.016": 0.0,
			"0.017": 0.0,
			"0.018": 0.0,
			"0.019": 0.0,
			"0.02": 0.0,
			"0.021": 0.0,
			"0.022": 0.0,
			"0.023": 0.0,
			"0.024": 0.0,
			"0.025": 0.0
		}
	}
}
