{
	 "smiles": "CC(N)C(=O)NC1=CC=C(Cl)C=C1", 
	 "Tm": 358.15, 
	 "num_atms": 24, 
	 "gaussian": { 
		 "optdone": 1, 
		 "sigma_profile": "yes", 
		 "theory": "DFT", 
		 "functional": "B3LYP", 
		 "basiset": "6-31G**", 
		 "properties": { 
			 "R2extent": 4385.673, 
			 "electric_dipole_moment_norm": 1.55523924205, 
			 "electric_quadrupole_moment_norm": 12.573659694, 
			 "total_energy": -994.519637671, 
			 "HOMO_LUMO_gap": 0.20133, 
			 "cosmo_polarized_energy": -13.81, 
			 "cosmo_cavitation_energy": 29.44, 
			 "cosmo_dispersion_energy": -21.29, 
			 "cosmo_repulsion_energy": 1.71, 
			 "cosmo_total_nonelectrostatic_energy": 9.86, 
			 "SMD_solvation_energy": 4.22 
		},
		"coords": [
			{
				"x": 0.7080877226,
				"y": -1.2794420656,
				"z": 2.099831952,
				"element": "C" 
			},
			{
				"x": 0.0671903417,
				"y": -1.3756875912,
				"z": 0.7072852896,
				"element": "C" 
			},
			{
				"x": -0.2250871644,
				"y": -2.7820361589,
				"z": 0.4189331961,
				"element": "N" 
			},
			{
				"x": -1.2217817393,
				"y": -0.5333426623,
				"z": 0.6831897934,
				"element": "C" 
			},
			{
				"x": -2.2370695261,
				"y": -0.9446096199,
				"z": 1.2329741164,
				"element": "O" 
			},
			{
				"x": -1.2638941134,
				"y": 0.6759679299,
				"z": 0.0108823776,
				"element": "N" 
			},
			{
				"x": -0.2961865649,
				"y": 1.3728595556,
				"z": -0.7486788589,
				"element": "C" 
			},
			{
				"x": 1.0267091932,
				"y": 1.5424529847,
				"z": -0.316757939,
				"element": "C" 
			},
			{
				"x": 1.9402077359,
				"y": 2.2537922403,
				"z": -1.0936996717,
				"element": "C" 
			},
			{
				"x": 1.5246570434,
				"y": 2.8315872775,
				"z": -2.2917436034,
				"element": "C" 
			},
			{
				"x": 2.6705317606,
				"y": 3.741704389,
				"z": -3.2626074619,
				"element": "Cl" 
			},
			{
				"x": 0.2043537318,
				"y": 2.7022707947,
				"z": -2.7229097399,
				"element": "C" 
			},
			{
				"x": -0.6955365011,
				"y": 1.9684473557,
				"z": -1.9552512068,
				"element": "C" 
			},
			{
				"x": 1.5993836724,
				"y": -1.9101573082,
				"z": 2.1342963556,
				"element": "H" 
			},
			{
				"x": 0.9847973725,
				"y": -0.2523285426,
				"z": 2.3604126278,
				"element": "H" 
			},
			{
				"x": -0.0015517061,
				"y": -1.6324543152,
				"z": 2.8546509556,
				"element": "H" 
			},
			{
				"x": 0.7726085604,
				"y": -1.0196640516,
				"z": -0.0486306845,
				"element": "H" 
			},
			{
				"x": -0.5400971183,
				"y": -2.8759379466,
				"z": -0.5447962954,
				"element": "H" 
			},
			{
				"x": -1.0209466897,
				"y": -3.0534035482,
				"z": 0.9957547102,
				"element": "H" 
			},
			{
				"x": -2.2083120562,
				"y": 1.04382166,
				"z": -0.0191709798,
				"element": "H" 
			},
			{
				"x": 1.343262361,
				"y": 1.1408969085,
				"z": 0.6383630329,
				"element": "H" 
			},
			{
				"x": 2.9634208722,
				"y": 2.3772186955,
				"z": -0.7567918356,
				"element": "H" 
			},
			{
				"x": -0.1121550606,
				"y": 3.1593304384,
				"z": -3.6538194591,
				"element": "H" 
			},
			{
				"x": -1.7189921277,
				"y": 1.8460135806,
				"z": -2.298416671,
				"element": "H" 
			}
		],
		 "valence_orbital": [ 
			{
				"type": "occ",
				"energy": -0.29557,
				"method": "rhf"
			},
			{
				"type": "occ",
				"energy": -0.27766,
				"method": "rhf"
			},
			{
				"type": "occ",
				"energy": -0.26834,
				"method": "rhf"
			},
			{
				"type": "occ",
				"energy": -0.24362,
				"method": "rhf"
			},
			{
				"type": "occ",
				"energy": -0.23182,
				"method": "rhf"
			},
			{
				"type": "unocc",
				"energy": -0.03049,
				"method": "rhf"
			},
			{
				"type": "unocc",
				"energy": -0.02826,
				"method": "rhf"
			},
			{
				"type": "unocc",
				"energy": 0.0188,
				"method": "rhf"
			},
			{
				"type": "unocc",
				"energy": 0.02265,
				"method": "rhf"
			},
			{
				"type": "unocc",
				"energy": 0.08251,
				"method": "rhf"
			}
		],
		"cosmo_sigma_profile": { 
			"-0.025": 0.0,
			"-0.024": 0.0,
			"-0.023": 0.0,
			"-0.022": 0.0,
			"-0.021": 0.0,
			"-0.02": 0.0,
			"-0.019": 0.0,
			"-0.018": 0.0,
			"-0.017": 0.0,
			"-0.016": 0.0,
			"-0.015": 0.108392097635,
			"-0.014": 0.871143904549,
			"-0.013": 1.4382895141,
			"-0.012": 0.481858447061,
			"-0.011": 1.57546810981,
			"-0.01": 2.62754661184,
			"-0.009": 3.40056776501,
			"-0.008": 5.79306037038,
			"-0.007": 10.596036748,
			"-0.006": 11.9491810343,
			"-0.005": 12.3181756436,
			"-0.004": 11.9794489784,
			"-0.003": 15.1063147777,
			"-0.002": 15.2949888742,
			"-0.001": 17.8881158383,
			"0.0": 18.5097790866,
			"0.001": 17.2232853304,
			"0.002": 20.1461551552,
			"0.003": 20.0529397195,
			"0.004": 13.3177891315,
			"0.005": 9.10180391213,
			"0.006": 2.09926911003,
			"0.007": 1.82699070091,
			"0.008": 1.77840981987,
			"0.009": 1.76226346041,
			"0.01": 2.31475787017,
			"0.011": 2.5790831758,
			"0.012": 2.81895124095,
			"0.013": 5.36321065431,
			"0.014": 2.29933111649,
			"0.015": 0.780478953142,
			"0.016": 0.536542637123,
			"0.017": 0.714416369181,
			"0.018": 0.576795134819,
			"0.019": 0.16267466266,
			"0.02": 0.0,
			"0.021": 0.0,
			"0.022": 0.0,
			"0.023": 0.0,
			"0.024": 0.0,
			"0.025": 0.0
		}
	}
}
