{
	 "smiles": "OC(=O)C1=NNC(=O)NC1=O", 
	 "Tm": 498.15, 
	 "num_atms": 14, 
	 "gaussian": { 
		 "optdone": 1, 
		 "sigma_profile": "yes", 
		 "theory": "DFT", 
		 "functional": "B3LYP", 
		 "basiset": "6-31G**", 
		 "properties": { 
			 "R2extent": 2019.5939, 
			 "electric_dipole_moment_norm": 4.22363208033, 
			 "electric_quadrupole_moment_norm": 16.0287656867, 
			 "total_energy": -619.390940483, 
			 "HOMO_LUMO_gap": 0.17043, 
			 "cosmo_polarized_energy": -22.27, 
			 "cosmo_cavitation_energy": 19.96, 
			 "cosmo_dispersion_energy": -15.4, 
			 "cosmo_repulsion_energy": 1.25, 
			 "cosmo_total_nonelectrostatic_energy": 5.8, 
			 "SMD_solvation_energy": 5.9 
		},
		"coords": [
			{
				"x": -2.0170419362,
				"y": 0.5307268648,
				"z": 0.7043941635,
				"element": "O" 
			},
			{
				"x": -1.8131927059,
				"y": -0.7776281274,
				"z": 0.5113767404,
				"element": "C" 
			},
			{
				"x": -2.6764489766,
				"y": -1.6067344811,
				"z": 0.6512852627,
				"element": "O" 
			},
			{
				"x": -0.3990670479,
				"y": -1.157955705,
				"z": 0.0971391888,
				"element": "C" 
			},
			{
				"x": -0.1746161679,
				"y": -2.4222439659,
				"z": -0.0968673348,
				"element": "N" 
			},
			{
				"x": 1.0476964009,
				"y": -2.8122341525,
				"z": -0.4614283631,
				"element": "N" 
			},
			{
				"x": 2.169751255,
				"y": -2.0069970339,
				"z": -0.6721326445,
				"element": "C" 
			},
			{
				"x": 3.2501646812,
				"y": -2.4399747674,
				"z": -1.0038350279,
				"element": "O" 
			},
			{
				"x": 1.8851982278,
				"y": -0.6621473124,
				"z": -0.4536664894,
				"element": "N" 
			},
			{
				"x": 0.6609847206,
				"y": -0.1402346977,
				"z": -0.074487795,
				"element": "C" 
			},
			{
				"x": 0.5084695833,
				"y": 1.0684339866,
				"z": 0.0944836522,
				"element": "O" 
			},
			{
				"x": -1.1854856872,
				"y": 1.0328882843,
				"z": 0.537959005,
				"element": "H" 
			},
			{
				"x": 1.1704272124,
				"y": -3.8077362101,
				"z": -0.599917719,
				"element": "H" 
			},
			{
				"x": 2.6519604404,
				"y": -0.0107626823,
				"z": -0.5869026389,
				"element": "H" 
			}
		],
		 "valence_orbital": [ 
			{
				"type": "occ",
				"energy": -0.32156,
				"method": "rhf"
			},
			{
				"type": "occ",
				"energy": -0.31914,
				"method": "rhf"
			},
			{
				"type": "occ",
				"energy": -0.31371,
				"method": "rhf"
			},
			{
				"type": "occ",
				"energy": -0.29713,
				"method": "rhf"
			},
			{
				"type": "occ",
				"energy": -0.28199,
				"method": "rhf"
			},
			{
				"type": "unocc",
				"energy": -0.11156,
				"method": "rhf"
			},
			{
				"type": "unocc",
				"energy": -0.0465,
				"method": "rhf"
			},
			{
				"type": "unocc",
				"energy": 0.02023,
				"method": "rhf"
			},
			{
				"type": "unocc",
				"energy": 0.04482,
				"method": "rhf"
			},
			{
				"type": "unocc",
				"energy": 0.07066,
				"method": "rhf"
			}
		],
		"cosmo_sigma_profile": { 
			"-0.025": 0.0,
			"-0.024": 0.0,
			"-0.023": 0.0,
			"-0.022": 0.0,
			"-0.021": 0.0,
			"-0.02": 0.0,
			"-0.019": 0.417534309111,
			"-0.018": 2.33196878536,
			"-0.017": 1.85183180538,
			"-0.016": 2.28714480869,
			"-0.015": 1.90099302821,
			"-0.014": 1.45351387803,
			"-0.013": 2.11062696847,
			"-0.012": 1.66225278574,
			"-0.011": 2.4673823664,
			"-0.01": 3.58681429081,
			"-0.009": 4.7143698369,
			"-0.008": 8.14488779728,
			"-0.007": 7.52256141323,
			"-0.006": 7.67528513114,
			"-0.005": 11.0513115935,
			"-0.004": 6.63637049171,
			"-0.003": 4.68207840628,
			"-0.002": 5.73269914173,
			"-0.001": 4.85817692699,
			"0.0": 3.40744882695,
			"0.001": 3.1335840775,
			"0.002": 4.64420032022,
			"0.003": 4.56035608169,
			"0.004": 3.65841853485,
			"0.005": 5.20927010542,
			"0.006": 4.78311230101,
			"0.007": 5.98844790391,
			"0.008": 5.76564442773,
			"0.009": 7.35555807589,
			"0.01": 12.1368438533,
			"0.011": 11.4668337382,
			"0.012": 5.08330646431,
			"0.013": 2.02701034192,
			"0.014": 0.535412898122,
			"0.015": 0.0,
			"0.016": 0.0,
			"0.017": 0.0,
			"0.018": 0.0,
			"0.019": 0.0,
			"0.02": 0.0,
			"0.021": 0.0,
			"0.022": 0.0,
			"0.023": 0.0,
			"0.024": 0.0,
			"0.025": 0.0
		}
	}
}
