{
	 "smiles": "OC(C#C)C1=CC=CC=C1", 
	 "Tm": 301.15, 
	 "num_atms": 18, 
	 "gaussian": { 
		 "optdone": 1, 
		 "sigma_profile": "yes", 
		 "theory": "DFT", 
		 "functional": "B3LYP", 
		 "basiset": "6-31G**", 
		 "properties": { 
			 "R2extent": 3687.0712, 
			 "electric_dipole_moment_norm": 1.21897407684, 
			 "electric_quadrupole_moment_norm": 9.60529031784, 
			 "total_energy": -422.912141885, 
			 "HOMO_LUMO_gap": 0.23481, 
			 "cosmo_polarized_energy": -9.08, 
			 "cosmo_cavitation_energy": 22.99, 
			 "cosmo_dispersion_energy": -16.12, 
			 "cosmo_repulsion_energy": 1.32, 
			 "cosmo_total_nonelectrostatic_energy": 8.19, 
			 "SMD_solvation_energy": 5.4 
		},
		"coords": [
			{
				"x": 1.4347971282,
				"y": 4.6638784609,
				"z": 1.5172284624,
				"element": "O" 
			},
			{
				"x": 0.9374191344,
				"y": 3.419702107,
				"z": 2.0097125218,
				"element": "C" 
			},
			{
				"x": 1.5081911036,
				"y": 3.106605805,
				"z": 3.3323456078,
				"element": "C" 
			},
			{
				"x": 1.9592946829,
				"y": 2.8940678106,
				"z": 4.4329826075,
				"element": "C" 
			},
			{
				"x": 1.2559530509,
				"y": 2.3314416601,
				"z": 0.9911970101,
				"element": "C" 
			},
			{
				"x": 0.3817198397,
				"y": 1.2538221079,
				"z": 0.8228060699,
				"element": "C" 
			},
			{
				"x": 0.6817147208,
				"y": 0.2370648377,
				"z": -0.0847551343,
				"element": "C" 
			},
			{
				"x": 1.857328226,
				"y": 0.2958889818,
				"z": -0.8352066203,
				"element": "C" 
			},
			{
				"x": 2.7293774097,
				"y": 1.3748334833,
				"z": -0.6730534968,
				"element": "C" 
			},
			{
				"x": 2.4329819962,
				"y": 2.3883908638,
				"z": 0.2384758068,
				"element": "C" 
			},
			{
				"x": 1.456930457,
				"y": 5.2814009946,
				"z": 2.2600463538,
				"element": "H" 
			},
			{
				"x": -0.1584053237,
				"y": 3.4683604231,
				"z": 2.1235064318,
				"element": "H" 
			},
			{
				"x": 2.371673573,
				"y": 2.6844962994,
				"z": 5.3929090143,
				"element": "H" 
			},
			{
				"x": -0.5375493625,
				"y": 1.2094977215,
				"z": 1.4021257452,
				"element": "H" 
			},
			{
				"x": -0.0051821142,
				"y": -0.595096496,
				"z": -0.2101558384,
				"element": "H" 
			},
			{
				"x": 2.090075169,
				"y": -0.4917633244,
				"z": -1.5461911243,
				"element": "H" 
			},
			{
				"x": 3.6427175991,
				"y": 1.4281927535,
				"z": -1.2590087357,
				"element": "H" 
			},
			{
				"x": 3.0980627099,
				"y": 3.2357155102,
				"z": 0.3632353185,
				"element": "H" 
			}
		],
		 "valence_orbital": [ 
			{
				"type": "occ",
				"energy": -0.29626,
				"method": "rhf"
			},
			{
				"type": "occ",
				"energy": -0.27741,
				"method": "rhf"
			},
			{
				"type": "occ",
				"energy": -0.26812,
				"method": "rhf"
			},
			{
				"type": "occ",
				"energy": -0.24721,
				"method": "rhf"
			},
			{
				"type": "occ",
				"energy": -0.24193,
				"method": "rhf"
			},
			{
				"type": "unocc",
				"energy": -0.00712,
				"method": "rhf"
			},
			{
				"type": "unocc",
				"energy": -5e-05,
				"method": "rhf"
			},
			{
				"type": "unocc",
				"energy": 0.03723,
				"method": "rhf"
			},
			{
				"type": "unocc",
				"energy": 0.05317,
				"method": "rhf"
			},
			{
				"type": "unocc",
				"energy": 0.09461,
				"method": "rhf"
			}
		],
		"cosmo_sigma_profile": { 
			"-0.025": 0.0,
			"-0.024": 0.0,
			"-0.023": 0.0,
			"-0.022": 0.0,
			"-0.021": 0.0,
			"-0.02": 0.0,
			"-0.019": 0.0,
			"-0.018": 0.0,
			"-0.017": 0.0,
			"-0.016": 0.679361669247,
			"-0.015": 0.809615081869,
			"-0.014": 0.997323411582,
			"-0.013": 0.914681860808,
			"-0.012": 1.01738763423,
			"-0.011": 2.48624407841,
			"-0.01": 1.5922359137,
			"-0.009": 1.74564623048,
			"-0.008": 2.19980871585,
			"-0.007": 3.57493488558,
			"-0.006": 10.5391672589,
			"-0.005": 13.6231506565,
			"-0.004": 13.2618383379,
			"-0.003": 11.7996702648,
			"-0.002": 10.2008461266,
			"-0.001": 9.61398594676,
			"0.0": 7.62065800391,
			"0.001": 8.6659644662,
			"0.002": 11.3342028338,
			"0.003": 12.7786121633,
			"0.004": 14.3494884318,
			"0.005": 19.7642303601,
			"0.006": 13.8795906565,
			"0.007": 3.26610623712,
			"0.008": 1.62773306317,
			"0.009": 1.27470162108,
			"0.01": 1.47457333485,
			"0.011": 1.12749367147,
			"0.012": 1.13244259833,
			"0.013": 0.978376342209,
			"0.014": 0.109088750867,
			"0.015": 0.0,
			"0.016": 0.0,
			"0.017": 0.0,
			"0.018": 0.0,
			"0.019": 0.0,
			"0.02": 0.0,
			"0.021": 0.0,
			"0.022": 0.0,
			"0.023": 0.0,
			"0.024": 0.0,
			"0.025": 0.0
		}
	}
}
