{
	 "smiles": "OC1=NN=C2N1C=CC=C2Cl", 
	 "Tm": 543.15, 
	 "num_atms": 15, 
	 "gaussian": { 
		 "optdone": 1, 
		 "sigma_profile": "yes", 
		 "theory": "DFT", 
		 "functional": "B3LYP", 
		 "basiset": "6-31G**", 
		 "properties": { 
			 "R2extent": 1932.5446, 
			 "electric_dipole_moment_norm": 7.45862773706, 
			 "electric_quadrupole_moment_norm": 12.4480584141, 
			 "total_energy": -930.662650599, 
			 "HOMO_LUMO_gap": 0.15918, 
			 "cosmo_polarized_energy": -25.25, 
			 "cosmo_cavitation_energy": 21.66, 
			 "cosmo_dispersion_energy": -16.61, 
			 "cosmo_repulsion_energy": 1.31, 
			 "cosmo_total_nonelectrostatic_energy": 6.35, 
			 "SMD_solvation_energy": 2.32 
		},
		"coords": [
			{
				"x": 2.5009547374,
				"y": -1.6136208854,
				"z": 1.4790259238,
				"element": "O" 
			},
			{
				"x": 1.2696617889,
				"y": -1.1185039935,
				"z": 1.258452294,
				"element": "C" 
			},
			{
				"x": 0.1679446701,
				"y": -1.664370747,
				"z": 1.7095136531,
				"element": "N" 
			},
			{
				"x": -0.8941409406,
				"y": -0.8961162218,
				"z": 1.295639211,
				"element": "N" 
			},
			{
				"x": -0.4064241875,
				"y": 0.1078008243,
				"z": 0.5960333465,
				"element": "C" 
			},
			{
				"x": 0.9980302695,
				"y": 0.0200947748,
				"z": 0.5347798483,
				"element": "N" 
			},
			{
				"x": 1.7859663905,
				"y": 0.9385902673,
				"z": -0.134223244,
				"element": "C" 
			},
			{
				"x": 1.1763787588,
				"y": 1.97768475,
				"z": -0.764104388,
				"element": "C" 
			},
			{
				"x": -0.248631778,
				"y": 2.1215290529,
				"z": -0.7378834857,
				"element": "C" 
			},
			{
				"x": -1.0206485262,
				"y": 1.2076848322,
				"z": -0.0732796684,
				"element": "C" 
			},
			{
				"x": -2.7497109923,
				"y": 1.3377573098,
				"z": -0.0122871931,
				"element": "Cl" 
			},
			{
				"x": 3.1777155038,
				"y": -1.0659868184,
				"z": 1.0627614065,
				"element": "H" 
			},
			{
				"x": 2.8587318314,
				"y": 0.7843009513,
				"z": -0.1237952395,
				"element": "H" 
			},
			{
				"x": 1.7810165727,
				"y": 2.7053723386,
				"z": -1.2924580167,
				"element": "H" 
			},
			{
				"x": -0.7167440984,
				"y": 2.9563835647,
				"z": -1.2457744477,
				"element": "H" 
			}
		],
		 "valence_orbital": [ 
			{
				"type": "occ",
				"energy": -0.32252,
				"method": "rhf"
			},
			{
				"type": "occ",
				"energy": -0.31065,
				"method": "rhf"
			},
			{
				"type": "occ",
				"energy": -0.27389,
				"method": "rhf"
			},
			{
				"type": "occ",
				"energy": -0.26008,
				"method": "rhf"
			},
			{
				"type": "occ",
				"energy": -0.22325,
				"method": "rhf"
			},
			{
				"type": "unocc",
				"energy": -0.06407,
				"method": "rhf"
			},
			{
				"type": "unocc",
				"energy": -0.01266,
				"method": "rhf"
			},
			{
				"type": "unocc",
				"energy": 0.01432,
				"method": "rhf"
			},
			{
				"type": "unocc",
				"energy": 0.024,
				"method": "rhf"
			},
			{
				"type": "unocc",
				"energy": 0.0582,
				"method": "rhf"
			}
		],
		"cosmo_sigma_profile": { 
			"-0.025": 0.0,
			"-0.024": 0.0,
			"-0.023": 0.0,
			"-0.022": 0.0,
			"-0.021": 0.690948315099,
			"-0.02": 1.76229390624,
			"-0.019": 1.39924957865,
			"-0.018": 1.02473827094,
			"-0.017": 1.05251375275,
			"-0.016": 0.960863181428,
			"-0.015": 1.13366340736,
			"-0.014": 1.22372783936,
			"-0.013": 1.4984919524,
			"-0.012": 1.54555327618,
			"-0.011": 1.7207435849,
			"-0.01": 1.47582520641,
			"-0.009": 3.51219413576,
			"-0.008": 7.275583282,
			"-0.007": 6.49268891845,
			"-0.006": 6.04503754931,
			"-0.005": 5.18374636064,
			"-0.004": 7.99133607848,
			"-0.003": 8.99582137031,
			"-0.002": 8.84789122389,
			"-0.001": 11.7099545535,
			"0.0": 13.8707276597,
			"0.001": 12.8399058819,
			"0.002": 9.92501399412,
			"0.003": 9.38210689583,
			"0.004": 8.00636935147,
			"0.005": 2.67542543747,
			"0.006": 4.16499998155,
			"0.007": 4.30783571943,
			"0.008": 4.4004230606,
			"0.009": 4.84139458324,
			"0.01": 3.5726123645,
			"0.011": 2.81950558158,
			"0.012": 2.67153202862,
			"0.013": 4.33489089382,
			"0.014": 3.4754975477,
			"0.015": 2.65973006706,
			"0.016": 1.84181949811,
			"0.017": 0.139441950257,
			"0.018": 0.0,
			"0.019": 0.0,
			"0.02": 0.0,
			"0.021": 0.0,
			"0.022": 0.0,
			"0.023": 0.0,
			"0.024": 0.0,
			"0.025": 0.0
		}
	}
}
