{
	 "smiles": "C[C@]12C[C@H](O)[C@H]3[C@@H](CCC4=CC(=O)CC[C@]34C)[C@@H]1CC[C@@H]2C(=O)CO", 
	 "Tm": 454.15, 
	 "num_atms": 55, 
	 "gaussian": { 
		 "optdone": 1, 
		 "sigma_profile": "yes", 
		 "theory": "DFT", 
		 "functional": "B3LYP", 
		 "basiset": "6-31G**", 
		 "properties": { 
			 "R2extent": 10521.7642, 
			 "electric_dipole_moment_norm": 2.0718744822, 
			 "electric_quadrupole_moment_norm": 37.579498176, 
			 "total_energy": -1119.19986979, 
			 "HOMO_LUMO_gap": 0.18721, 
			 "cosmo_polarized_energy": -20.91, 
			 "cosmo_cavitation_energy": 48.45, 
			 "cosmo_dispersion_energy": -33.54, 
			 "cosmo_repulsion_energy": 2.46, 
			 "cosmo_total_nonelectrostatic_energy": 17.37, 
			 "SMD_solvation_energy": 7.98 
		},
		"coords": [
			{
				"x": -1.8955612368,
				"y": 1.1256630354,
				"z": 0.4168191293,
				"element": "C" 
			},
			{
				"x": -1.0847417356,
				"y": 0.1967136914,
				"z": 1.3465759751,
				"element": "C" 
			},
			{
				"x": 0.3897203544,
				"y": 0.6268173657,
				"z": 1.4226136368,
				"element": "C" 
			},
			{
				"x": 1.1813792763,
				"y": 0.3686144526,
				"z": 0.1171156322,
				"element": "C" 
			},
			{
				"x": 0.8217702916,
				"y": 1.286621686,
				"z": -0.9180227682,
				"element": "O" 
			},
			{
				"x": 1.0135480563,
				"y": -1.0770401913,
				"z": -0.407168359,
				"element": "C" 
			},
			{
				"x": -0.4714068359,
				"y": -1.5504060863,
				"z": -0.4632780904,
				"element": "C" 
			},
			{
				"x": -0.5642648358,
				"y": -3.045881018,
				"z": -0.8320569737,
				"element": "C" 
			},
			{
				"x": 0.2636631488,
				"y": -3.431975628,
				"z": -2.0792143184,
				"element": "C" 
			},
			{
				"x": 1.6692692125,
				"y": -2.9283340696,
				"z": -1.8893602891,
				"element": "C" 
			},
			{
				"x": 2.7032488131,
				"y": -3.7786288905,
				"z": -1.717388961,
				"element": "C" 
			},
			{
				"x": 4.0398212793,
				"y": -3.3693957166,
				"z": -1.247735548,
				"element": "C" 
			},
			{
				"x": 4.9618954429,
				"y": -4.1665323416,
				"z": -1.1407258217,
				"element": "O" 
			},
			{
				"x": 4.1681310385,
				"y": -1.9135434666,
				"z": -0.8207033498,
				"element": "C" 
			},
			{
				"x": 3.2910974061,
				"y": -1.0076236339,
				"z": -1.6887038233,
				"element": "C" 
			},
			{
				"x": 1.7959729411,
				"y": -1.4120998632,
				"z": -1.7395174149,
				"element": "C" 
			},
			{
				"x": 1.1968129858,
				"y": -0.7199825574,
				"z": -2.9935163926,
				"element": "C" 
			},
			{
				"x": -1.1200065741,
				"y": -1.2905674837,
				"z": 0.9037685398,
				"element": "C" 
			},
			{
				"x": -2.5722309738,
				"y": -1.725643897,
				"z": 1.1627005585,
				"element": "C" 
			},
			{
				"x": -2.971617798,
				"y": -0.9473809213,
				"z": 2.450606448,
				"element": "C" 
			},
			{
				"x": -1.8129172187,
				"y": 0.053555351,
				"z": 2.7372559087,
				"element": "C" 
			},
			{
				"x": -2.2755446283,
				"y": 1.3562745746,
				"z": 3.3534864453,
				"element": "C" 
			},
			{
				"x": -3.3444736343,
				"y": 1.8860526239,
				"z": 3.0852677108,
				"element": "O" 
			},
			{
				"x": -1.3639431442,
				"y": 2.0454493871,
				"z": 4.3625208979,
				"element": "C" 
			},
			{
				"x": -1.8778283202,
				"y": 3.2817595543,
				"z": 4.7609025762,
				"element": "O" 
			},
			{
				"x": -1.8270300682,
				"y": 2.1626364104,
				"z": 0.7618580999,
				"element": "H" 
			},
			{
				"x": -1.5118172669,
				"y": 1.097600684,
				"z": -0.6025608218,
				"element": "H" 
			},
			{
				"x": -2.9577067443,
				"y": 0.8714389099,
				"z": 0.4066428983,
				"element": "H" 
			},
			{
				"x": 0.4888126116,
				"y": 1.6920116256,
				"z": 1.6781407128,
				"element": "H" 
			},
			{
				"x": 0.887628046,
				"y": 0.0714520873,
				"z": 2.2295297683,
				"element": "H" 
			},
			{
				"x": 2.24546774,
				"y": 0.5086138183,
				"z": 0.3629648284,
				"element": "H" 
			},
			{
				"x": 0.8824476991,
				"y": 2.1814579529,
				"z": -0.5588397172,
				"element": "H" 
			},
			{
				"x": 1.4861221315,
				"y": -1.6951806654,
				"z": 0.3718778945,
				"element": "H" 
			},
			{
				"x": -1.0059467966,
				"y": -0.9717677738,
				"z": -1.2259217996,
				"element": "H" 
			},
			{
				"x": -1.6122799554,
				"y": -3.3266259134,
				"z": -0.9854510284,
				"element": "H" 
			},
			{
				"x": -0.1989917537,
				"y": -3.6406350126,
				"z": 0.0168575397,
				"element": "H" 
			},
			{
				"x": 0.257310666,
				"y": -4.5187569989,
				"z": -2.2094245246,
				"element": "H" 
			},
			{
				"x": -0.1944982389,
				"y": -2.9949808447,
				"z": -2.9740210084,
				"element": "H" 
			},
			{
				"x": 2.5663160191,
				"y": -4.8499513255,
				"z": -1.8496896566,
				"element": "H" 
			},
			{
				"x": 5.2228843837,
				"y": -1.6281181645,
				"z": -0.8686335835,
				"element": "H" 
			},
			{
				"x": 3.8738750021,
				"y": -1.8557030072,
				"z": 0.2373389692,
				"element": "H" 
			},
			{
				"x": 3.673502569,
				"y": -1.0545517718,
				"z": -2.7162157701,
				"element": "H" 
			},
			{
				"x": 3.3839897843,
				"y": 0.0397962776,
				"z": -1.3865616221,
				"element": "H" 
			},
			{
				"x": 1.4468154542,
				"y": 0.3407307762,
				"z": -2.9879801894,
				"element": "H" 
			},
			{
				"x": 0.1098833294,
				"y": -0.794847912,
				"z": -3.0538344203,
				"element": "H" 
			},
			{
				"x": 1.614600282,
				"y": -1.1766134387,
				"z": -3.8976250095,
				"element": "H" 
			},
			{
				"x": -0.500402785,
				"y": -1.8329198927,
				"z": 1.6383826728,
				"element": "H" 
			},
			{
				"x": -3.2191266576,
				"y": -1.4502580055,
				"z": 0.3223610313,
				"element": "H" 
			},
			{
				"x": -2.6638826577,
				"y": -2.8074752631,
				"z": 1.2927000024,
				"element": "H" 
			},
			{
				"x": -3.1115424641,
				"y": -1.6179607845,
				"z": 3.3034351464,
				"element": "H" 
			},
			{
				"x": -3.9058611281,
				"y": -0.3974676154,
				"z": 2.3179971991,
				"element": "H" 
			},
			{
				"x": -1.0895937626,
				"y": -0.4007353054,
				"z": 3.4276672247,
				"element": "H" 
			},
			{
				"x": -0.3598465785,
				"y": 2.1564999316,
				"z": 3.921088616,
				"element": "H" 
			},
			{
				"x": -1.243182573,
				"y": 1.3560259327,
				"z": 5.2182916404,
				"element": "H" 
			},
			{
				"x": -2.7539395985,
				"y": 3.3336993316,
				"z": 4.3369835589,
				"element": "H" 
			}
		],
		 "valence_orbital": [ 
			{
				"type": "occ",
				"energy": -0.27811,
				"method": "rhf"
			},
			{
				"type": "occ",
				"energy": -0.27207,
				"method": "rhf"
			},
			{
				"type": "occ",
				"energy": -0.26693,
				"method": "rhf"
			},
			{
				"type": "occ",
				"energy": -0.25332,
				"method": "rhf"
			},
			{
				"type": "occ",
				"energy": -0.2308,
				"method": "rhf"
			},
			{
				"type": "unocc",
				"energy": -0.04359,
				"method": "rhf"
			},
			{
				"type": "unocc",
				"energy": -0.0344,
				"method": "rhf"
			},
			{
				"type": "unocc",
				"energy": 0.04139,
				"method": "rhf"
			},
			{
				"type": "unocc",
				"energy": 0.05975,
				"method": "rhf"
			},
			{
				"type": "unocc",
				"energy": 0.07048,
				"method": "rhf"
			}
		],
		"cosmo_sigma_profile": { 
			"-0.025": 0.0,
			"-0.024": 0.0,
			"-0.023": 0.0,
			"-0.022": 0.0,
			"-0.021": 0.0,
			"-0.02": 0.0,
			"-0.019": 0.0,
			"-0.018": 0.0,
			"-0.017": 0.0,
			"-0.016": 0.0119104728818,
			"-0.015": 0.549346136256,
			"-0.014": 1.03295331409,
			"-0.013": 0.968714381491,
			"-0.012": 0.784335950109,
			"-0.011": 0.770577213837,
			"-0.01": 1.26110250976,
			"-0.009": 1.30429276307,
			"-0.008": 1.73901077675,
			"-0.007": 3.86089866531,
			"-0.006": 7.48453793726,
			"-0.005": 19.4347787157,
			"-0.004": 31.9344929787,
			"-0.003": 50.4634464773,
			"-0.002": 50.8569451856,
			"-0.001": 49.0269277961,
			"0.0": 32.1912068864,
			"0.001": 24.3338348506,
			"0.002": 16.5084126427,
			"0.003": 9.34283708384,
			"0.004": 9.23490859844,
			"0.005": 7.1262542277,
			"0.006": 5.06826773469,
			"0.007": 6.42091216987,
			"0.008": 7.09517619962,
			"0.009": 4.25983582372,
			"0.01": 4.73502559224,
			"0.011": 6.62766817424,
			"0.012": 5.07998465616,
			"0.013": 6.62540579036,
			"0.014": 5.71811783891,
			"0.015": 1.09343951421,
			"0.016": 0.0,
			"0.017": 0.0,
			"0.018": 0.0,
			"0.019": 0.0,
			"0.02": 0.0,
			"0.021": 0.0,
			"0.022": 0.0,
			"0.023": 0.0,
			"0.024": 0.0,
			"0.025": 0.0
		}
	}
}
