{
	 "smiles": "CCC1CCC(C)(C)C2=CC=C(Br)C=C12", 
	 "Tm": 308.65, 
	 "num_atms": 34, 
	 "gaussian": { 
		 "optdone": 1, 
		 "sigma_profile": "yes", 
		 "theory": "DFT", 
		 "functional": "B3LYP", 
		 "basiset": "6-31G**", 
		 "properties": { 
			 "R2extent": 5989.9517, 
			 "electric_dipole_moment_norm": 2.47035660584, 
			 "electric_quadrupole_moment_norm": 10.0605526528, 
			 "total_energy": -3116.37338777, 
			 "HOMO_LUMO_gap": 0.21927, 
			 "cosmo_polarized_energy": -3.98, 
			 "cosmo_cavitation_energy": 35.05, 
			 "cosmo_dispersion_energy": -25.05, 
			 "cosmo_repulsion_energy": 1.95, 
			 "cosmo_total_nonelectrostatic_energy": 11.95, 
			 "SMD_solvation_energy": 4.33 
		},
		"coords": [
			{
				"x": 2.3050580924,
				"y": 1.561007734,
				"z": -0.8724013275,
				"element": "C" 
			},
			{
				"x": 1.4913262077,
				"y": 2.5542140641,
				"z": -0.035360576,
				"element": "C" 
			},
			{
				"x": -0.0097780858,
				"y": 2.2261051131,
				"z": 0.2029748513,
				"element": "C" 
			},
			{
				"x": -0.8581774908,
				"y": 2.2254098066,
				"z": -1.0848965881,
				"element": "C" 
			},
			{
				"x": -0.9264984785,
				"y": 0.853830974,
				"z": -1.7595106768,
				"element": "C" 
			},
			{
				"x": -1.5125933815,
				"y": -0.2514139686,
				"z": -0.8523478721,
				"element": "C" 
			},
			{
				"x": -1.2448436656,
				"y": -1.607912166,
				"z": -1.5419785745,
				"element": "C" 
			},
			{
				"x": -3.0437293271,
				"y": -0.0677220237,
				"z": -0.7068154321,
				"element": "C" 
			},
			{
				"x": -0.8736670532,
				"y": -0.1929680537,
				"z": 0.5452237049,
				"element": "C" 
			},
			{
				"x": -1.0073325594,
				"y": -1.2940408748,
				"z": 1.409588801,
				"element": "C" 
			},
			{
				"x": -0.5043278276,
				"y": -1.2947477708,
				"z": 2.7059810747,
				"element": "C" 
			},
			{
				"x": 0.1476858691,
				"y": -0.1519184906,
				"z": 3.162058032,
				"element": "C" 
			},
			{
				"x": 0.841081902,
				"y": -0.1056097722,
				"z": 4.9463914142,
				"element": "Br" 
			},
			{
				"x": 0.2918959913,
				"y": 0.9559383471,
				"z": 2.340466092,
				"element": "C" 
			},
			{
				"x": -0.2070890451,
				"y": 0.953563917,
				"z": 1.0260608623,
				"element": "C" 
			},
			{
				"x": 3.363850702,
				"y": 1.8405229097,
				"z": -0.8668142785,
				"element": "H" 
			},
			{
				"x": 1.9825951133,
				"y": 1.5410417578,
				"z": -1.9177571083,
				"element": "H" 
			},
			{
				"x": 2.2292549695,
				"y": 0.5438276611,
				"z": -0.4743690723,
				"element": "H" 
			},
			{
				"x": 1.5413144318,
				"y": 3.5469792015,
				"z": -0.5019461789,
				"element": "H" 
			},
			{
				"x": 1.974513238,
				"y": 2.6602071697,
				"z": 0.943337247,
				"element": "H" 
			},
			{
				"x": -0.3771275851,
				"y": 3.0533021142,
				"z": 0.8263346718,
				"element": "H" 
			},
			{
				"x": -0.4593478916,
				"y": 2.9687421772,
				"z": -1.7857617498,
				"element": "H" 
			},
			{
				"x": -1.875109412,
				"y": 2.5565071211,
				"z": -0.8422388091,
				"element": "H" 
			},
			{
				"x": 0.075459237,
				"y": 0.5475540338,
				"z": -2.0775165204,
				"element": "H" 
			},
			{
				"x": -1.5326677068,
				"y": 0.9168461204,
				"z": -2.6719754608,
				"element": "H" 
			},
			{
				"x": -0.1730681844,
				"y": -1.8276610026,
				"z": -1.5817499797,
				"element": "H" 
			},
			{
				"x": -1.7426627285,
				"y": -2.4413914632,
				"z": -1.0379978024,
				"element": "H" 
			},
			{
				"x": -1.6232255349,
				"y": -1.5812624491,
				"z": -2.5700112815,
				"element": "H" 
			},
			{
				"x": -3.4723929916,
				"y": -0.8509467903,
				"z": -0.0735377332,
				"element": "H" 
			},
			{
				"x": -3.5310720088,
				"y": -0.1211012618,
				"z": -1.6874462665,
				"element": "H" 
			},
			{
				"x": -3.297708833,
				"y": 0.8942948114,
				"z": -0.2520880755,
				"element": "H" 
			},
			{
				"x": -1.5251496282,
				"y": -2.1833418722,
				"z": 1.0650944324,
				"element": "H" 
			},
			{
				"x": -0.6207362732,
				"y": -2.1597987927,
				"z": 3.3487579382,
				"element": "H" 
			},
			{
				"x": 0.7894699387,
				"y": 1.8406417185,
				"z": 2.7237522422,
				"element": "H" 
			}
		],
		 "valence_orbital": [ 
			{
				"type": "occ",
				"energy": -0.30157,
				"method": "rhf"
			},
			{
				"type": "occ",
				"energy": -0.29588,
				"method": "rhf"
			},
			{
				"type": "occ",
				"energy": -0.2804,
				"method": "rhf"
			},
			{
				"type": "occ",
				"energy": -0.24685,
				"method": "rhf"
			},
			{
				"type": "occ",
				"energy": -0.23012,
				"method": "rhf"
			},
			{
				"type": "unocc",
				"energy": -0.01085,
				"method": "rhf"
			},
			{
				"type": "unocc",
				"energy": -0.00481,
				"method": "rhf"
			},
			{
				"type": "unocc",
				"energy": 0.01355,
				"method": "rhf"
			},
			{
				"type": "unocc",
				"energy": 0.07503,
				"method": "rhf"
			},
			{
				"type": "unocc",
				"energy": 0.09359,
				"method": "rhf"
			}
		],
		"cosmo_sigma_profile": { 
			"-0.025": 0.0,
			"-0.024": 0.0,
			"-0.023": 0.0,
			"-0.022": 0.0,
			"-0.021": 0.0,
			"-0.02": 0.0,
			"-0.019": 0.0,
			"-0.018": 0.0,
			"-0.017": 0.0,
			"-0.016": 0.0,
			"-0.015": 0.0,
			"-0.014": 0.0,
			"-0.013": 0.0,
			"-0.012": 0.0,
			"-0.011": 0.0,
			"-0.01": 0.0,
			"-0.009": 0.0,
			"-0.008": 0.0,
			"-0.007": 0.348427047859,
			"-0.006": 4.24146198713,
			"-0.005": 7.43818690229,
			"-0.004": 8.98024410038,
			"-0.003": 22.3805918707,
			"-0.002": 42.6967854283,
			"-0.001": 39.3852266358,
			"0.0": 37.6427685366,
			"0.001": 41.2712817846,
			"0.002": 21.5451520891,
			"0.003": 15.6210433566,
			"0.004": 16.6283312422,
			"0.005": 17.1574262929,
			"0.006": 1.17067147357,
			"0.007": 0.0,
			"0.008": 0.0,
			"0.009": 0.0,
			"0.01": 0.0,
			"0.011": 0.0,
			"0.012": 0.0,
			"0.013": 0.0,
			"0.014": 0.0,
			"0.015": 0.0,
			"0.016": 0.0,
			"0.017": 0.0,
			"0.018": 0.0,
			"0.019": 0.0,
			"0.02": 0.0,
			"0.021": 0.0,
			"0.022": 0.0,
			"0.023": 0.0,
			"0.024": 0.0,
			"0.025": 0.0
		}
	}
}
