{
	 "smiles": "NC1=CC(=C(Cl)C=C1)S(N)(=O)=O", 
	 "Tm": 435.15, 
	 "num_atms": 19, 
	 "gaussian": { 
		 "optdone": 1, 
		 "sigma_profile": "yes", 
		 "theory": "DFT", 
		 "functional": "B3LYP", 
		 "basiset": "6-31G**", 
		 "properties": { 
			 "R2extent": 2649.4103, 
			 "electric_dipole_moment_norm": 6.37548889263, 
			 "electric_quadrupole_moment_norm": 15.3676949182, 
			 "total_energy": -1351.11575799, 
			 "HOMO_LUMO_gap": 0.18375, 
			 "cosmo_polarized_energy": -21.33, 
			 "cosmo_cavitation_energy": 25.95, 
			 "cosmo_dispersion_energy": -20.02, 
			 "cosmo_repulsion_energy": 1.55, 
			 "cosmo_total_nonelectrostatic_energy": 7.48, 
			 "SMD_solvation_energy": 3.76 
		},
		"coords": [
			{
				"x": 3.218589003,
				"y": 0.3454246813,
				"z": 1.3824577331,
				"element": "N" 
			},
			{
				"x": 2.1945416862,
				"y": 0.4674639284,
				"z": 0.4540577902,
				"element": "C" 
			},
			{
				"x": 0.8697145287,
				"y": 0.1598378669,
				"z": 0.8061665074,
				"element": "C" 
			},
			{
				"x": -0.1590970361,
				"y": 0.2293806992,
				"z": -0.1314885761,
				"element": "C" 
			},
			{
				"x": 0.1192739416,
				"y": 0.6105053086,
				"z": -1.4510522337,
				"element": "C" 
			},
			{
				"x": -1.1222673685,
				"y": 0.7062551058,
				"z": -2.6938246114,
				"element": "Cl" 
			},
			{
				"x": 1.4327231683,
				"y": 0.9111601861,
				"z": -1.8107924089,
				"element": "C" 
			},
			{
				"x": 2.4579599293,
				"y": 0.8452527762,
				"z": -0.87411488,
				"element": "C" 
			},
			{
				"x": -1.8256451861,
				"y": -0.1321884969,
				"z": 0.4893576288,
				"element": "S" 
			},
			{
				"x": -2.4211637791,
				"y": -1.3994138509,
				"z": -0.4262744147,
				"element": "N" 
			},
			{
				"x": -2.6719884605,
				"y": 1.023627655,
				"z": 0.2158837223,
				"element": "O" 
			},
			{
				"x": -1.6518354671,
				"y": -0.6673867675,
				"z": 1.8396486117,
				"element": "O" 
			},
			{
				"x": 2.9440746307,
				"y": 0.3737242,
				"z": 2.3539099299,
				"element": "H" 
			},
			{
				"x": 4.0567917755,
				"y": 0.8765476353,
				"z": 1.1956201127,
				"element": "H" 
			},
			{
				"x": 0.620743258,
				"y": -0.1395560836,
				"z": 1.8187602886,
				"element": "H" 
			},
			{
				"x": 1.6482101514,
				"y": 1.2028436103,
				"z": -2.832989153,
				"element": "H" 
			},
			{
				"x": 3.473844948,
				"y": 1.0835205219,
				"z": -1.1770283519,
				"element": "H" 
			},
			{
				"x": -2.5306140597,
				"y": -1.1592386076,
				"z": -1.4070646027,
				"element": "H" 
			},
			{
				"x": -1.9109556637,
				"y": -2.2633603685,
				"z": -0.2729330924,
				"element": "H" 
			}
		],
		 "valence_orbital": [ 
			{
				"type": "occ",
				"energy": -0.30895,
				"method": "rhf"
			},
			{
				"type": "occ",
				"energy": -0.30439,
				"method": "rhf"
			},
			{
				"type": "occ",
				"energy": -0.29753,
				"method": "rhf"
			},
			{
				"type": "occ",
				"energy": -0.27451,
				"method": "rhf"
			},
			{
				"type": "occ",
				"energy": -0.22429,
				"method": "rhf"
			},
			{
				"type": "unocc",
				"energy": -0.04054,
				"method": "rhf"
			},
			{
				"type": "unocc",
				"energy": -0.01705,
				"method": "rhf"
			},
			{
				"type": "unocc",
				"energy": 0.00907,
				"method": "rhf"
			},
			{
				"type": "unocc",
				"energy": 0.06357,
				"method": "rhf"
			},
			{
				"type": "unocc",
				"energy": 0.06613,
				"method": "rhf"
			}
		],
		"cosmo_sigma_profile": { 
			"-0.025": 0.0,
			"-0.024": 0.0,
			"-0.023": 0.0,
			"-0.022": 0.0,
			"-0.021": 0.0,
			"-0.02": 0.0,
			"-0.019": 0.0,
			"-0.018": 0.0,
			"-0.017": 0.0,
			"-0.016": 0.438767957248,
			"-0.015": 1.52103014587,
			"-0.014": 1.98476557668,
			"-0.013": 4.12310219621,
			"-0.012": 6.49919721578,
			"-0.011": 4.97360310115,
			"-0.01": 4.86750417165,
			"-0.009": 4.6970734624,
			"-0.008": 5.97049859411,
			"-0.007": 8.74733790497,
			"-0.006": 7.29950975659,
			"-0.005": 7.03282416456,
			"-0.004": 6.0109365633,
			"-0.003": 7.73606523552,
			"-0.002": 9.89128213317,
			"-0.001": 7.68254591127,
			"0.0": 10.8848666002,
			"0.001": 13.0466134906,
			"0.002": 17.0222400316,
			"0.003": 17.4060493253,
			"0.004": 9.21857309151,
			"0.005": 5.3548506812,
			"0.006": 4.78102401206,
			"0.007": 5.45447422199,
			"0.008": 5.86248361862,
			"0.009": 5.70172871429,
			"0.01": 9.63839247266,
			"0.011": 11.8231236701,
			"0.012": 3.00998468865,
			"0.013": 0.242356961756,
			"0.014": 0.0,
			"0.015": 0.0,
			"0.016": 0.0,
			"0.017": 0.0,
			"0.018": 0.0,
			"0.019": 0.0,
			"0.02": 0.0,
			"0.021": 0.0,
			"0.022": 0.0,
			"0.023": 0.0,
			"0.024": 0.0,
			"0.025": 0.0
		}
	}
}
