{
	 "smiles": "NC1=C(C=O)C=C2C=C3CCCCC3=NC2=C1", 
	 "Tm": 491.15, 
	 "num_atms": 31, 
	 "gaussian": { 
		 "optdone": 1, 
		 "sigma_profile": "yes", 
		 "theory": "DFT", 
		 "functional": "B3LYP", 
		 "basiset": "6-31G**", 
		 "properties": { 
			 "R2extent": 6410.5439, 
			 "electric_dipole_moment_norm": 2.61364122442, 
			 "electric_quadrupole_moment_norm": 23.8502360104, 
			 "total_energy": -726.67694455, 
			 "HOMO_LUMO_gap": 0.13707, 
			 "cosmo_polarized_energy": -14.65, 
			 "cosmo_cavitation_energy": 33.39, 
			 "cosmo_dispersion_energy": -24.96, 
			 "cosmo_repulsion_energy": 1.91, 
			 "cosmo_total_nonelectrostatic_energy": 10.33, 
			 "SMD_solvation_energy": 4.04 
		},
		"coords": [
			{
				"x": -4.4662606077,
				"y": -1.9080544098,
				"z": 3.1893587006,
				"element": "N" 
			},
			{
				"x": -3.5182000498,
				"y": -1.0608391092,
				"z": 2.6187346055,
				"element": "C" 
			},
			{
				"x": -3.7118801736,
				"y": 0.3663606521,
				"z": 2.6231804883,
				"element": "C" 
			},
			{
				"x": -4.8917143772,
				"y": 1.0004918773,
				"z": 3.2457711262,
				"element": "C" 
			},
			{
				"x": -5.1327022765,
				"y": 2.1957675863,
				"z": 3.2072224529,
				"element": "O" 
			},
			{
				"x": -2.7478071896,
				"y": 1.193113101,
				"z": 2.0664222563,
				"element": "C" 
			},
			{
				"x": -1.5570270477,
				"y": 0.6797700917,
				"z": 1.5171591632,
				"element": "C" 
			},
			{
				"x": -0.535145301,
				"y": 1.4807147129,
				"z": 0.9536429938,
				"element": "C" 
			},
			{
				"x": 0.6074098995,
				"y": 0.9054682545,
				"z": 0.442458672,
				"element": "C" 
			},
			{
				"x": 1.7343320834,
				"y": 1.7540771005,
				"z": -0.1190570144,
				"element": "C" 
			},
			{
				"x": 2.6857239556,
				"y": 0.9702834446,
				"z": -1.0323647574,
				"element": "C" 
			},
			{
				"x": 3.1132111849,
				"y": -0.3354625699,
				"z": -0.3525969356,
				"element": "C" 
			},
			{
				"x": 1.8972739117,
				"y": -1.2395055139,
				"z": -0.1158316922,
				"element": "C" 
			},
			{
				"x": 0.7039583793,
				"y": -0.5251743212,
				"z": 0.4919091508,
				"element": "C" 
			},
			{
				"x": -0.2267815752,
				"y": -1.3060729577,
				"z": 1.0158324969,
				"element": "N" 
			},
			{
				"x": -1.3512128464,
				"y": -0.7379005761,
				"z": 1.5345905556,
				"element": "C" 
			},
			{
				"x": -2.3469903795,
				"y": -1.5765554057,
				"z": 2.0837319165,
				"element": "C" 
			},
			{
				"x": -4.3247211322,
				"y": -2.8881006594,
				"z": 2.9867463116,
				"element": "H" 
			},
			{
				"x": -5.4342490955,
				"y": -1.6409429918,
				"z": 3.0870918593,
				"element": "H" 
			},
			{
				"x": -5.5750382669,
				"y": 0.3221064433,
				"z": 3.7988862721,
				"element": "H" 
			},
			{
				"x": -2.9316834787,
				"y": 2.2639337217,
				"z": 2.0833984722,
				"element": "H" 
			},
			{
				"x": -0.6621433202,
				"y": 2.5618196198,
				"z": 0.9324703464,
				"element": "H" 
			},
			{
				"x": 1.3147722857,
				"y": 2.6191502287,
				"z": -0.6462789795,
				"element": "H" 
			},
			{
				"x": 2.315415021,
				"y": 2.165358807,
				"z": 0.7197267889,
				"element": "H" 
			},
			{
				"x": 3.5570269985,
				"y": 1.5883318888,
				"z": -1.2757741208,
				"element": "H" 
			},
			{
				"x": 2.1851075304,
				"y": 0.7396473154,
				"z": -1.9825156808,
				"element": "H" 
			},
			{
				"x": 3.8562722964,
				"y": -0.8659387424,
				"z": -0.9582032612,
				"element": "H" 
			},
			{
				"x": 3.5980030429,
				"y": -0.1022832041,
				"z": 0.6053022258,
				"element": "H" 
			},
			{
				"x": 1.5693243286,
				"y": -1.6642386511,
				"z": -1.0759151811,
				"element": "H" 
			},
			{
				"x": 2.1434662541,
				"y": -2.0963230449,
				"z": 0.5190352553,
				"element": "H" 
			},
			{
				"x": -2.1688400543,
				"y": -2.6478026882,
				"z": 2.0622655128,
				"element": "H" 
			}
		],
		 "valence_orbital": [ 
			{
				"type": "occ",
				"energy": -0.2788,
				"method": "rhf"
			},
			{
				"type": "occ",
				"energy": -0.25115,
				"method": "rhf"
			},
			{
				"type": "occ",
				"energy": -0.2464,
				"method": "rhf"
			},
			{
				"type": "occ",
				"energy": -0.23734,
				"method": "rhf"
			},
			{
				"type": "occ",
				"energy": -0.20798,
				"method": "rhf"
			},
			{
				"type": "unocc",
				"energy": -0.07091,
				"method": "rhf"
			},
			{
				"type": "unocc",
				"energy": -0.02959,
				"method": "rhf"
			},
			{
				"type": "unocc",
				"energy": 0.01169,
				"method": "rhf"
			},
			{
				"type": "unocc",
				"energy": 0.03484,
				"method": "rhf"
			},
			{
				"type": "unocc",
				"energy": 0.06995,
				"method": "rhf"
			}
		],
		"cosmo_sigma_profile": { 
			"-0.025": 0.0,
			"-0.024": 0.0,
			"-0.023": 0.0,
			"-0.022": 0.0,
			"-0.021": 0.0,
			"-0.02": 0.0,
			"-0.019": 0.0,
			"-0.018": 0.0,
			"-0.017": 0.0,
			"-0.016": 0.0,
			"-0.015": 0.0133928752594,
			"-0.014": 0.758111569982,
			"-0.013": 2.60851957419,
			"-0.012": 2.55464222116,
			"-0.011": 3.33167657772,
			"-0.01": 2.94891377533,
			"-0.009": 3.02487622934,
			"-0.008": 3.31123980385,
			"-0.007": 4.87185971071,
			"-0.006": 7.05884672789,
			"-0.005": 7.28263144248,
			"-0.004": 13.1162437292,
			"-0.003": 24.4955984467,
			"-0.002": 29.0039043626,
			"-0.001": 29.5511108223,
			"0.0": 23.8306808659,
			"0.001": 17.6871522354,
			"0.002": 22.055157066,
			"0.003": 16.3099824195,
			"0.004": 9.80877550067,
			"0.005": 5.60246980397,
			"0.006": 4.23711318259,
			"0.007": 4.36324174035,
			"0.008": 3.54549785747,
			"0.009": 3.62384218424,
			"0.01": 4.14774056019,
			"0.011": 5.32938558927,
			"0.012": 5.14790067845,
			"0.013": 2.09943855591,
			"0.014": 1.12028918851,
			"0.015": 0.724020841605,
			"0.016": 0.476755248158,
			"0.017": 0.0547337612108,
			"0.018": 0.0,
			"0.019": 0.0,
			"0.02": 0.0,
			"0.021": 0.0,
			"0.022": 0.0,
			"0.023": 0.0,
			"0.024": 0.0,
			"0.025": 0.0
		}
	}
}
