{
	 "smiles": "CN1C(C(CCC1=O)C(O)=O)C1=CC=CS1", 
	 "Tm": 428.15, 
	 "num_atms": 29, 
	 "gaussian": { 
		 "optdone": 1, 
		 "sigma_profile": "yes", 
		 "theory": "DFT", 
		 "functional": "B3LYP", 
		 "basiset": "6-31G**", 
		 "properties": { 
			 "R2extent": 4249.1192, 
			 "electric_dipole_moment_norm": 4.29004069561, 
			 "electric_quadrupole_moment_norm": 22.9414059802, 
			 "total_energy": -1105.63088664, 
			 "HOMO_LUMO_gap": 0.21178, 
			 "cosmo_polarized_energy": -16.47, 
			 "cosmo_cavitation_energy": 32.71, 
			 "cosmo_dispersion_energy": -23.29, 
			 "cosmo_repulsion_energy": 1.77, 
			 "cosmo_total_nonelectrostatic_energy": 11.2, 
			 "SMD_solvation_energy": 7.37 
		},
		"coords": [
			{
				"x": -0.6920918048,
				"y": 1.895935011,
				"z": 2.3356239524,
				"element": "C" 
			},
			{
				"x": 0.1339992221,
				"y": 0.7144424501,
				"z": 2.100342819,
				"element": "N" 
			},
			{
				"x": 0.4445653682,
				"y": 0.4407136507,
				"z": 0.6901367843,
				"element": "C" 
			},
			{
				"x": 1.6565438936,
				"y": -0.505697168,
				"z": 0.5350791757,
				"element": "C" 
			},
			{
				"x": 1.5645438529,
				"y": -1.6915663186,
				"z": 1.5037864113,
				"element": "C" 
			},
			{
				"x": 1.5176219126,
				"y": -1.1791610285,
				"z": 2.9423237112,
				"element": "C" 
			},
			{
				"x": 0.5832604684,
				"y": 0.0003516979,
				"z": 3.1927248999,
				"element": "C" 
			},
			{
				"x": 0.2813756499,
				"y": 0.306913871,
				"z": 4.3408526697,
				"element": "O" 
			},
			{
				"x": 2.9595852651,
				"y": 0.2835029995,
				"z": 0.6608737134,
				"element": "C" 
			},
			{
				"x": 4.0289582792,
				"y": -0.5277838937,
				"z": 0.8352306697,
				"element": "O" 
			},
			{
				"x": 3.069035873,
				"y": 1.4868279757,
				"z": 0.5709639848,
				"element": "O" 
			},
			{
				"x": -0.7699042084,
				"y": -0.0328532253,
				"z": -0.0849771528,
				"element": "C" 
			},
			{
				"x": -1.1183668622,
				"y": 0.3240338361,
				"z": -1.3625691491,
				"element": "C" 
			},
			{
				"x": -2.2993697593,
				"y": -0.3252869479,
				"z": -1.8350083149,
				"element": "C" 
			},
			{
				"x": -2.8452244788,
				"y": -1.1638222347,
				"z": -0.903800757,
				"element": "C" 
			},
			{
				"x": -1.9235312082,
				"y": -1.1749479154,
				"z": 0.565621106,
				"element": "S" 
			},
			{
				"x": -1.6375246533,
				"y": 1.8177457732,
				"z": 1.7893358096,
				"element": "H" 
			},
			{
				"x": -0.8879722055,
				"y": 1.9626702889,
				"z": 3.4039403215,
				"element": "H" 
			},
			{
				"x": -0.1653151939,
				"y": 2.7980289324,
				"z": 2.001117521,
				"element": "H" 
			},
			{
				"x": 0.7415618863,
				"y": 1.3954529462,
				"z": 0.239683036,
				"element": "H" 
			},
			{
				"x": 1.6480536843,
				"y": -0.8806499066,
				"z": -0.4964031678,
				"element": "H" 
			},
			{
				"x": 2.4101385679,
				"y": -2.3685663321,
				"z": 1.3611616647,
				"element": "H" 
			},
			{
				"x": 0.656209546,
				"y": -2.2561800355,
				"z": 1.2696658506,
				"element": "H" 
			},
			{
				"x": 2.5155914911,
				"y": -0.8501558915,
				"z": 3.2595557273,
				"element": "H" 
			},
			{
				"x": 1.2221488179,
				"y": -1.9624502697,
				"z": 3.6451825196,
				"element": "H" 
			},
			{
				"x": 4.8078573232,
				"y": 0.0536458406,
				"z": 0.8637563457,
				"element": "H" 
			},
			{
				"x": -0.5470839909,
				"y": 1.0374830128,
				"z": -1.9478362596,
				"element": "H" 
			},
			{
				"x": -2.7275153274,
				"y": -0.1623986161,
				"z": -2.8176109006,
				"element": "H" 
			},
			{
				"x": -3.7412514092,
				"y": -1.7639285025,
				"z": -0.9815529913,
				"element": "H" 
			}
		],
		 "valence_orbital": [ 
			{
				"type": "occ",
				"energy": -0.28841,
				"method": "rhf"
			},
			{
				"type": "occ",
				"energy": -0.25738,
				"method": "rhf"
			},
			{
				"type": "occ",
				"energy": -0.24341,
				"method": "rhf"
			},
			{
				"type": "occ",
				"energy": -0.23898,
				"method": "rhf"
			},
			{
				"type": "occ",
				"energy": -0.23253,
				"method": "rhf"
			},
			{
				"type": "unocc",
				"energy": -0.02075,
				"method": "rhf"
			},
			{
				"type": "unocc",
				"energy": -0.00655,
				"method": "rhf"
			},
			{
				"type": "unocc",
				"energy": 0.025,
				"method": "rhf"
			},
			{
				"type": "unocc",
				"energy": 0.03279,
				"method": "rhf"
			},
			{
				"type": "unocc",
				"energy": 0.05503,
				"method": "rhf"
			}
		],
		"cosmo_sigma_profile": { 
			"-0.025": 0.0,
			"-0.024": 0.0,
			"-0.023": 0.0,
			"-0.022": 0.0,
			"-0.021": 0.0,
			"-0.02": 0.0,
			"-0.019": 0.266708203385,
			"-0.018": 0.669599301586,
			"-0.017": 1.25181103876,
			"-0.016": 0.984066908887,
			"-0.015": 0.158199831797,
			"-0.014": 0.645131989368,
			"-0.013": 0.643843022543,
			"-0.012": 0.835766101025,
			"-0.011": 1.32142473735,
			"-0.01": 0.329537524847,
			"-0.009": 0.664191105256,
			"-0.008": 3.76735794627,
			"-0.007": 7.37118502924,
			"-0.006": 12.8839258542,
			"-0.005": 16.5456650852,
			"-0.004": 21.0475074259,
			"-0.003": 25.0600584207,
			"-0.002": 26.6567464269,
			"-0.001": 19.743915052,
			"0.0": 13.2245779954,
			"0.001": 15.4547945589,
			"0.002": 13.5626097366,
			"0.003": 15.2153804212,
			"0.004": 12.7930651594,
			"0.005": 9.55881827335,
			"0.006": 6.69102541857,
			"0.007": 3.91672370299,
			"0.008": 3.83195892317,
			"0.009": 3.38225326307,
			"0.01": 3.34130613819,
			"0.011": 5.92516674761,
			"0.012": 2.84054606213,
			"0.013": 3.13618058174,
			"0.014": 5.07934193558,
			"0.015": 1.38135311707,
			"0.016": 0.0765723249499,
			"0.017": 0.0,
			"0.018": 0.0,
			"0.019": 0.0,
			"0.02": 0.0,
			"0.021": 0.0,
			"0.022": 0.0,
			"0.023": 0.0,
			"0.024": 0.0,
			"0.025": 0.0
		}
	}
}
