{
	 "smiles": "OS(=O)C1=CC=C(Cl)C=C1", 
	 "Tm": 372.15, 
	 "num_atms": 15, 
	 "gaussian": { 
		 "optdone": 1, 
		 "sigma_profile": "yes", 
		 "theory": "DFT", 
		 "functional": "B3LYP", 
		 "basiset": "6-31G**", 
		 "properties": { 
			 "R2extent": 2703.7179, 
			 "electric_dipole_moment_norm": 2.20794616556, 
			 "electric_quadrupole_moment_norm": 11.0752240018, 
			 "total_energy": -1240.42039756, 
			 "HOMO_LUMO_gap": 0.20497, 
			 "cosmo_polarized_energy": -11.11, 
			 "cosmo_cavitation_energy": 22.95, 
			 "cosmo_dispersion_energy": -17.73, 
			 "cosmo_repulsion_energy": 1.39, 
			 "cosmo_total_nonelectrostatic_energy": 6.61, 
			 "SMD_solvation_energy": 2.85 
		},
		"coords": [
			{
				"x": 3.1190200253,
				"y": 0.8066135831,
				"z": 0.3439886351,
				"element": "O" 
			},
			{
				"x": 2.1420738799,
				"y": 0.5251570003,
				"z": -0.9951138245,
				"element": "S" 
			},
			{
				"x": 2.1177539107,
				"y": -0.9271341078,
				"z": -1.3327783423,
				"element": "O" 
			},
			{
				"x": 0.549745766,
				"y": 0.8368536823,
				"z": -0.1656422222,
				"element": "C" 
			},
			{
				"x": -0.4382664529,
				"y": -0.1442414089,
				"z": -0.2245770606,
				"element": "C" 
			},
			{
				"x": -1.6817873563,
				"y": 0.0939173737,
				"z": 0.3615881187,
				"element": "C" 
			},
			{
				"x": -1.9136699396,
				"y": 1.3200532254,
				"z": 0.9860923991,
				"element": "C" 
			},
			{
				"x": -3.4769347901,
				"y": 1.6283022216,
				"z": 1.7188631302,
				"element": "Cl" 
			},
			{
				"x": -0.9294459583,
				"y": 2.3109623801,
				"z": 1.0400223352,
				"element": "C" 
			},
			{
				"x": 0.3111857827,
				"y": 2.0658119244,
				"z": 0.4553926126,
				"element": "C" 
			},
			{
				"x": 2.8661589903,
				"y": 0.1872677354,
				"z": 1.0529267165,
				"element": "H" 
			},
			{
				"x": -0.2196805329,
				"y": -1.0855955333,
				"z": -0.7192767303,
				"element": "H" 
			},
			{
				"x": -2.4627956048,
				"y": -0.6577879911,
				"z": 0.3337097023,
				"element": "H" 
			},
			{
				"x": -1.1351859583,
				"y": 3.2542644125,
				"z": 1.5334306214,
				"element": "H" 
			},
			{
				"x": 1.0907282382,
				"y": 2.8207555024,
				"z": 0.4986739089,
				"element": "H" 
			}
		],
		 "valence_orbital": [ 
			{
				"type": "occ",
				"energy": -0.32687,
				"method": "rhf"
			},
			{
				"type": "occ",
				"energy": -0.30799,
				"method": "rhf"
			},
			{
				"type": "occ",
				"energy": -0.28404,
				"method": "rhf"
			},
			{
				"type": "occ",
				"energy": -0.26866,
				"method": "rhf"
			},
			{
				"type": "occ",
				"energy": -0.25723,
				"method": "rhf"
			},
			{
				"type": "unocc",
				"energy": -0.05226,
				"method": "rhf"
			},
			{
				"type": "unocc",
				"energy": -0.03389,
				"method": "rhf"
			},
			{
				"type": "unocc",
				"energy": 0.01564,
				"method": "rhf"
			},
			{
				"type": "unocc",
				"energy": 0.01716,
				"method": "rhf"
			},
			{
				"type": "unocc",
				"energy": 0.04153,
				"method": "rhf"
			}
		],
		"cosmo_sigma_profile": { 
			"-0.025": 0.0,
			"-0.024": 0.0,
			"-0.023": 0.0,
			"-0.022": 0.0,
			"-0.021": 0.0,
			"-0.02": 0.0,
			"-0.019": 0.150524022887,
			"-0.018": 0.859709167947,
			"-0.017": 0.935951660531,
			"-0.016": 0.984975589284,
			"-0.015": 0.687494815876,
			"-0.014": 0.856670857909,
			"-0.013": 0.535249267122,
			"-0.012": 0.677470293627,
			"-0.011": 0.994524027005,
			"-0.01": 0.820044083698,
			"-0.009": 0.801480510691,
			"-0.008": 4.62185425423,
			"-0.007": 8.32547143102,
			"-0.006": 8.24588636562,
			"-0.005": 8.57853214352,
			"-0.004": 8.59830007189,
			"-0.003": 8.84006427399,
			"-0.002": 10.5309075122,
			"-0.001": 14.3350810675,
			"0.0": 17.3250850801,
			"0.001": 21.2425222056,
			"0.002": 18.2419296034,
			"0.003": 9.56455478654,
			"0.004": 12.1475083935,
			"0.005": 5.10463503469,
			"0.006": 2.32614231229,
			"0.007": 2.53054987165,
			"0.008": 2.17020191772,
			"0.009": 2.35864404503,
			"0.01": 3.04310697198,
			"0.011": 3.9458568852,
			"0.012": 4.46903394949,
			"0.013": 2.68930963187,
			"0.014": 0.140521411307,
			"0.015": 0.0,
			"0.016": 0.0,
			"0.017": 0.0,
			"0.018": 0.0,
			"0.019": 0.0,
			"0.02": 0.0,
			"0.021": 0.0,
			"0.022": 0.0,
			"0.023": 0.0,
			"0.024": 0.0,
			"0.025": 0.0
		}
	}
}
