{
	 "smiles": "[O-][N+](=O)C1=CC2=C(OC(S)=N2)C=C1", 
	 "Tm": 515.15, 
	 "num_atms": 17, 
	 "gaussian": { 
		 "optdone": 1, 
		 "sigma_profile": "yes", 
		 "theory": "DFT", 
		 "functional": "B3LYP", 
		 "basiset": "6-31G**", 
		 "properties": { 
			 "R2extent": 4278.4532, 
			 "electric_dipole_moment_norm": 5.65301040597, 
			 "electric_quadrupole_moment_norm": 18.5893031424, 
			 "total_energy": -1002.40348521, 
			 "HOMO_LUMO_gap": 0.1628, 
			 "cosmo_polarized_energy": -11.69, 
			 "cosmo_cavitation_energy": 24.85, 
			 "cosmo_dispersion_energy": -19.26, 
			 "cosmo_repulsion_energy": 1.46, 
			 "cosmo_total_nonelectrostatic_energy": 7.05, 
			 "SMD_solvation_energy": 4.4 
		},
		"coords": [
			{
				"x": 0.1742775962,
				"y": 0.9666150111,
				"z": -3.8017185809,
				"element": "O" 
			},
			{
				"x": -0.5837018016,
				"y": -0.0021474284,
				"z": -3.7973894885,
				"element": "N" 
			},
			{
				"x": -0.9455542173,
				"y": -0.6134923248,
				"z": -4.8024548116,
				"element": "O" 
			},
			{
				"x": -1.094462702,
				"y": -0.4628895739,
				"z": -2.4943625715,
				"element": "C" 
			},
			{
				"x": -0.6897007477,
				"y": 0.2238246875,
				"z": -1.3496369321,
				"element": "C" 
			},
			{
				"x": -1.1995474634,
				"y": -0.2500800973,
				"z": -0.1440381292,
				"element": "C" 
			},
			{
				"x": -2.0654697718,
				"y": -1.35595911,
				"z": -0.134359972,
				"element": "C" 
			},
			{
				"x": -2.4065146733,
				"y": -1.5987997052,
				"z": 1.1742393818,
				"element": "O" 
			},
			{
				"x": -1.7238298873,
				"y": -0.6229101184,
				"z": 1.8709235568,
				"element": "C" 
			},
			{
				"x": -1.8987036516,
				"y": -0.5891059858,
				"z": 3.6148971223,
				"element": "S" 
			},
			{
				"x": -1.0076915873,
				"y": 0.1889455772,
				"z": 1.1672064145,
				"element": "N" 
			},
			{
				"x": -2.4698844633,
				"y": -2.0408793858,
				"z": -1.2700385447,
				"element": "C" 
			},
			{
				"x": -1.960149419,
				"y": -1.5675562298,
				"z": -2.4784730594,
				"element": "C" 
			},
			{
				"x": -0.019953128,
				"y": 1.0710000713,
				"z": -1.4128202702,
				"element": "H" 
			},
			{
				"x": -2.7317465892,
				"y": -1.6465685407,
				"z": 3.6616834861,
				"element": "H" 
			},
			{
				"x": -3.1400342986,
				"y": -2.8912115163,
				"z": -1.2250304955,
				"element": "H" 
			},
			{
				"x": -2.2181331947,
				"y": -2.0363853307,
				"z": -3.4191271057,
				"element": "H" 
			}
		],
		 "valence_orbital": [ 
			{
				"type": "occ",
				"energy": -0.31065,
				"method": "rhf"
			},
			{
				"type": "occ",
				"energy": -0.30994,
				"method": "rhf"
			},
			{
				"type": "occ",
				"energy": -0.29278,
				"method": "rhf"
			},
			{
				"type": "occ",
				"energy": -0.28075,
				"method": "rhf"
			},
			{
				"type": "occ",
				"energy": -0.25259,
				"method": "rhf"
			},
			{
				"type": "unocc",
				"energy": -0.08979,
				"method": "rhf"
			},
			{
				"type": "unocc",
				"energy": -0.05153,
				"method": "rhf"
			},
			{
				"type": "unocc",
				"energy": -0.01489,
				"method": "rhf"
			},
			{
				"type": "unocc",
				"energy": -0.00318,
				"method": "rhf"
			},
			{
				"type": "unocc",
				"energy": 0.0184,
				"method": "rhf"
			}
		],
		"cosmo_sigma_profile": { 
			"-0.025": 0.0,
			"-0.024": 0.0,
			"-0.023": 0.0,
			"-0.022": 0.0,
			"-0.021": 0.0,
			"-0.02": 0.0,
			"-0.019": 0.0,
			"-0.018": 0.0,
			"-0.017": 0.0,
			"-0.016": 0.0,
			"-0.015": 0.0,
			"-0.014": 0.190062226405,
			"-0.013": 2.03091903203,
			"-0.012": 1.62962229219,
			"-0.011": 1.25332397544,
			"-0.01": 1.55830092024,
			"-0.009": 2.55565397204,
			"-0.008": 6.04661732312,
			"-0.007": 6.72027801856,
			"-0.006": 7.65782549781,
			"-0.005": 8.35845811172,
			"-0.004": 10.5641244361,
			"-0.003": 13.2006481686,
			"-0.002": 14.7807221448,
			"-0.001": 21.7025069769,
			"0.0": 21.7121534856,
			"0.001": 15.9951735074,
			"0.002": 9.76895682212,
			"0.003": 7.92118659724,
			"0.004": 8.55761798582,
			"0.005": 6.98539584696,
			"0.006": 5.16490358581,
			"0.007": 9.08714049213,
			"0.008": 8.45682342834,
			"0.009": 5.11106376906,
			"0.01": 3.70317704156,
			"0.011": 1.09147508248,
			"0.012": 0.781400206579,
			"0.013": 0.943804942144,
			"0.014": 0.45003697873,
			"0.015": 0.0,
			"0.016": 0.0,
			"0.017": 0.0,
			"0.018": 0.0,
			"0.019": 0.0,
			"0.02": 0.0,
			"0.021": 0.0,
			"0.022": 0.0,
			"0.023": 0.0,
			"0.024": 0.0,
			"0.025": 0.0
		}
	}
}
