{
	 "smiles": "COC1=CC=C(C=C1)C1=NN(C=C1C(O)=O)C1=CC=CC=C1", 
	 "Tm": 518.15, 
	 "num_atms": 36, 
	 "gaussian": { 
		 "optdone": 1, 
		 "sigma_profile": "yes", 
		 "theory": "DFT", 
		 "functional": "B3LYP", 
		 "basiset": "6-31G**", 
		 "properties": { 
			 "R2extent": 9819.6418, 
			 "electric_dipole_moment_norm": 5.8535509838, 
			 "electric_quadrupole_moment_norm": 33.7229842348, 
			 "total_energy": -991.403414588, 
			 "HOMO_LUMO_gap": 0.15812, 
			 "cosmo_polarized_energy": -20.64, 
			 "cosmo_cavitation_energy": 40.96, 
			 "cosmo_dispersion_energy": -29.72, 
			 "cosmo_repulsion_energy": 2.23, 
			 "cosmo_total_nonelectrostatic_energy": 13.47, 
			 "SMD_solvation_energy": 8.14 
		},
		"coords": [
			{
				"x": 2.5745380533,
				"y": 5.0561575759,
				"z": 3.5137956452,
				"element": "C" 
			},
			{
				"x": 3.4422077272,
				"y": 4.0827962031,
				"z": 2.9553574121,
				"element": "O" 
			},
			{
				"x": 2.8894905992,
				"y": 3.0257217876,
				"z": 2.294677045,
				"element": "C" 
			},
			{
				"x": 3.7930671756,
				"y": 2.0899970727,
				"z": 1.7715976994,
				"element": "C" 
			},
			{
				"x": 3.3366168103,
				"y": 0.9772067597,
				"z": 1.0789229262,
				"element": "C" 
			},
			{
				"x": 1.9578885003,
				"y": 0.7679911003,
				"z": 0.8852665878,
				"element": "C" 
			},
			{
				"x": 1.0639414514,
				"y": 1.7114771114,
				"z": 1.4163147478,
				"element": "C" 
			},
			{
				"x": 1.513642255,
				"y": 2.8302213437,
				"z": 2.1139624004,
				"element": "C" 
			},
			{
				"x": 1.4149809828,
				"y": -0.4101810595,
				"z": 0.1834207027,
				"element": "C" 
			},
			{
				"x": 0.1707584739,
				"y": -0.8021293941,
				"z": 0.4704717779,
				"element": "N" 
			},
			{
				"x": -0.1052203824,
				"y": -1.8492698022,
				"z": -0.3466839154,
				"element": "N" 
			},
			{
				"x": 0.938390749,
				"y": -2.1350596939,
				"z": -1.1617941034,
				"element": "C" 
			},
			{
				"x": 1.9531012713,
				"y": -1.2341203865,
				"z": -0.8691551094,
				"element": "C" 
			},
			{
				"x": 3.2704405662,
				"y": -1.2472998541,
				"z": -1.5453033604,
				"element": "C" 
			},
			{
				"x": 3.236344685,
				"y": -1.6677690304,
				"z": -2.8456686807,
				"element": "O" 
			},
			{
				"x": 4.3357355903,
				"y": -0.9656566783,
				"z": -1.0465982991,
				"element": "O" 
			},
			{
				"x": -1.3502366841,
				"y": -2.5283531324,
				"z": -0.2415983662,
				"element": "C" 
			},
			{
				"x": -1.8312327384,
				"y": -3.2886478593,
				"z": -1.3129493479,
				"element": "C" 
			},
			{
				"x": -3.0438611467,
				"y": -3.9648665596,
				"z": -1.1857353566,
				"element": "C" 
			},
			{
				"x": -3.78451341,
				"y": -3.8726507577,
				"z": -0.0063419299,
				"element": "C" 
			},
			{
				"x": -3.3030350268,
				"y": -3.0970165697,
				"z": 1.0507221209,
				"element": "C" 
			},
			{
				"x": -2.0868846201,
				"y": -2.4258215801,
				"z": 0.9430455616,
				"element": "C" 
			},
			{
				"x": 1.9056473902,
				"y": 4.6193859882,
				"z": 4.2666120897,
				"element": "H" 
			},
			{
				"x": 1.970113065,
				"y": 5.5512680413,
				"z": 2.742735462,
				"element": "H" 
			},
			{
				"x": 3.2188056179,
				"y": 5.7952135148,
				"z": 3.9926851222,
				"element": "H" 
			},
			{
				"x": 4.8546548617,
				"y": 2.2537060722,
				"z": 1.9254035642,
				"element": "H" 
			},
			{
				"x": 4.0471502663,
				"y": 0.2619129208,
				"z": 0.6843185401,
				"element": "H" 
			},
			{
				"x": -0.0011743673,
				"y": 1.5634204577,
				"z": 1.2749834533,
				"element": "H" 
			},
			{
				"x": 0.7914345904,
				"y": 3.5387817623,
				"z": 2.5019584333,
				"element": "H" 
			},
			{
				"x": 0.9281647535,
				"y": -2.9860832466,
				"z": -1.8263860864,
				"element": "H" 
			},
			{
				"x": 2.3231956942,
				"y": -1.6541704852,
				"z": -3.1641830347,
				"element": "H" 
			},
			{
				"x": -1.2804538593,
				"y": -3.3377369534,
				"z": -2.2463837787,
				"element": "H" 
			},
			{
				"x": -3.414224723,
				"y": -4.5540872214,
				"z": -2.0191584942,
				"element": "H" 
			},
			{
				"x": -4.7308534567,
				"y": -4.3964357873,
				"z": 0.0859742477,
				"element": "H" 
			},
			{
				"x": -3.873379544,
				"y": -3.0173756944,
				"z": 1.9713114035,
				"element": "H" 
			},
			{
				"x": -1.6965411712,
				"y": -1.8242259654,
				"z": 1.7544029201,
				"element": "H" 
			}
		],
		 "valence_orbital": [ 
			{
				"type": "occ",
				"energy": -0.27029,
				"method": "rhf"
			},
			{
				"type": "occ",
				"energy": -0.26776,
				"method": "rhf"
			},
			{
				"type": "occ",
				"energy": -0.24731,
				"method": "rhf"
			},
			{
				"type": "occ",
				"energy": -0.24321,
				"method": "rhf"
			},
			{
				"type": "occ",
				"energy": -0.20532,
				"method": "rhf"
			},
			{
				"type": "unocc",
				"energy": -0.0472,
				"method": "rhf"
			},
			{
				"type": "unocc",
				"energy": -0.02667,
				"method": "rhf"
			},
			{
				"type": "unocc",
				"energy": -0.01849,
				"method": "rhf"
			},
			{
				"type": "unocc",
				"energy": 0.00536,
				"method": "rhf"
			},
			{
				"type": "unocc",
				"energy": 0.01136,
				"method": "rhf"
			}
		],
		"cosmo_sigma_profile": { 
			"-0.025": 0.0,
			"-0.024": 0.0,
			"-0.023": 0.0,
			"-0.022": 0.0,
			"-0.021": 0.0,
			"-0.02": 0.0,
			"-0.019": 0.0209655317064,
			"-0.018": 0.777902842338,
			"-0.017": 1.38616168383,
			"-0.016": 0.738447005116,
			"-0.015": 0.927580655234,
			"-0.014": 1.55656121237,
			"-0.013": 1.02218931309,
			"-0.012": 1.66460746476,
			"-0.011": 3.10474468229,
			"-0.01": 2.21129522811,
			"-0.009": 2.6949318837,
			"-0.008": 3.12287409735,
			"-0.007": 4.14986379281,
			"-0.006": 19.0224528674,
			"-0.005": 24.9319241113,
			"-0.004": 24.7461668838,
			"-0.003": 22.0425973562,
			"-0.002": 19.3519765916,
			"-0.001": 16.4224824124,
			"0.0": 19.7145511266,
			"0.001": 22.8916052545,
			"0.002": 21.7306223831,
			"0.003": 25.2916578878,
			"0.004": 27.8908367252,
			"0.005": 21.9060305723,
			"0.006": 8.3723906714,
			"0.007": 4.25195013067,
			"0.008": 5.85047126114,
			"0.009": 6.60573648424,
			"0.01": 6.1348020721,
			"0.011": 4.87554401504,
			"0.012": 2.44597204388,
			"0.013": 1.27889394217,
			"0.014": 0.00813478751212,
			"0.015": 0.0,
			"0.016": 0.0,
			"0.017": 0.0,
			"0.018": 0.0,
			"0.019": 0.0,
			"0.02": 0.0,
			"0.021": 0.0,
			"0.022": 0.0,
			"0.023": 0.0,
			"0.024": 0.0,
			"0.0": 0.0
		}
	}
}
