{
	 "smiles": "COC(=O)C(O)C1=CC(Cl)=CC=C1", 
	 "Tm": 354.15, 
	 "num_atms": 22, 
	 "gaussian": { 
		 "optdone": 1, 
		 "sigma_profile": "yes", 
		 "theory": "DFT", 
		 "functional": "B3LYP", 
		 "basiset": "6-31G**", 
		 "properties": { 
			 "R2extent": 3301.3982, 
			 "electric_dipole_moment_norm": 3.41785363057, 
			 "electric_quadrupole_moment_norm": 13.1086047782, 
			 "total_energy": -1034.24301464, 
			 "HOMO_LUMO_gap": 0.22442, 
			 "cosmo_polarized_energy": -10.06, 
			 "cosmo_cavitation_energy": 28.25, 
			 "cosmo_dispersion_energy": -20.45, 
			 "cosmo_repulsion_energy": 1.65, 
			 "cosmo_total_nonelectrostatic_energy": 9.44, 
			 "SMD_solvation_energy": 6.01 
		},
		"coords": [
			{
				"x": 3.8765282811,
				"y": -1.6016517269,
				"z": 1.5471598967,
				"element": "C" 
			},
			{
				"x": 2.5760900997,
				"y": -1.0609912613,
				"z": 1.8518578226,
				"element": "O" 
			},
			{
				"x": 2.2476693495,
				"y": 0.0741771897,
				"z": 1.2006799192,
				"element": "C" 
			},
			{
				"x": 2.9671052876,
				"y": 0.6342019819,
				"z": 0.4047623487,
				"element": "O" 
			},
			{
				"x": 0.8300970141,
				"y": 0.5268954424,
				"z": 1.5693605876,
				"element": "C" 
			},
			{
				"x": 0.4614322868,
				"y": 0.1264139999,
				"z": 2.8710469666,
				"element": "O" 
			},
			{
				"x": -0.1589722801,
				"y": 0.0618032119,
				"z": 0.4885918772,
				"element": "C" 
			},
			{
				"x": 0.1004147645,
				"y": 0.3151164467,
				"z": -0.8648937916,
				"element": "C" 
			},
			{
				"x": -0.8242477419,
				"y": -0.0942123684,
				"z": -1.8219706212,
				"element": "C" 
			},
			{
				"x": -0.494970706,
				"y": 0.2228280176,
				"z": -3.5216431602,
				"element": "Cl" 
			},
			{
				"x": -2.0038971586,
				"y": -0.7497858811,
				"z": -1.4680414478,
				"element": "C" 
			},
			{
				"x": -2.2520274547,
				"y": -0.9908670489,
				"z": -0.1175694222,
				"element": "C" 
			},
			{
				"x": -1.3387408857,
				"y": -0.5881032027,
				"z": 0.8586170308,
				"element": "C" 
			},
			{
				"x": 4.6551166889,
				"y": -0.8784160126,
				"z": 1.7989740052,
				"element": "H" 
			},
			{
				"x": 3.9448838098,
				"y": -1.8455792188,
				"z": 0.4847194526,
				"element": "H" 
			},
			{
				"x": 3.9723954962,
				"y": -2.4994691842,
				"z": 2.1566163173,
				"element": "H" 
			},
			{
				"x": 0.855521567,
				"y": 1.6221365336,
				"z": 1.5729622592,
				"element": "H" 
			},
			{
				"x": 0.7820862529,
				"y": -0.778870007,
				"z": 2.9923314589,
				"element": "H" 
			},
			{
				"x": 1.0120621453,
				"y": 0.8186721569,
				"z": -1.1669169435,
				"element": "H" 
			},
			{
				"x": -2.7075211518,
				"y": -1.057871504,
				"z": -2.2332295508,
				"element": "H" 
			},
			{
				"x": -3.1684448239,
				"y": -1.4950052628,
				"z": 0.1752469817,
				"element": "H" 
			},
			{
				"x": -1.5382808408,
				"y": -0.7596223021,
				"z": 1.9099380132,
				"element": "H" 
			}
		],
		 "valence_orbital": [ 
			{
				"type": "occ",
				"energy": -0.31358,
				"method": "rhf"
			},
			{
				"type": "occ",
				"energy": -0.30581,
				"method": "rhf"
			},
			{
				"type": "occ",
				"energy": -0.27507,
				"method": "rhf"
			},
			{
				"type": "occ",
				"energy": -0.25778,
				"method": "rhf"
			},
			{
				"type": "occ",
				"energy": -0.24598,
				"method": "rhf"
			},
			{
				"type": "unocc",
				"energy": -0.02156,
				"method": "rhf"
			},
			{
				"type": "unocc",
				"energy": -0.01497,
				"method": "rhf"
			},
			{
				"type": "unocc",
				"energy": 0.00318,
				"method": "rhf"
			},
			{
				"type": "unocc",
				"energy": 0.0321,
				"method": "rhf"
			},
			{
				"type": "unocc",
				"energy": 0.07353,
				"method": "rhf"
			}
		],
		"cosmo_sigma_profile": { 
			"-0.025": 0.0,
			"-0.024": 0.0,
			"-0.023": 0.0,
			"-0.022": 0.0,
			"-0.021": 0.0,
			"-0.02": 0.0,
			"-0.019": 0.0,
			"-0.018": 0.0,
			"-0.017": 0.0,
			"-0.016": 0.0,
			"-0.015": 0.0117031628914,
			"-0.014": 0.304135855029,
			"-0.013": 0.668338734947,
			"-0.012": 0.516321993903,
			"-0.011": 0.530494435129,
			"-0.01": 0.181496503285,
			"-0.009": 0.719575511439,
			"-0.008": 2.92099248058,
			"-0.007": 7.65386478027,
			"-0.006": 13.2698327033,
			"-0.005": 16.5637424293,
			"-0.004": 21.8329919708,
			"-0.003": 16.6603709187,
			"-0.002": 12.2385638447,
			"-0.001": 11.2085629279,
			"0.0": 15.0824097069,
			"0.001": 18.4610784236,
			"0.002": 18.6634239135,
			"0.003": 20.0756407714,
			"0.004": 17.6828423037,
			"0.005": 10.4509495992,
			"0.006": 2.55223901039,
			"0.007": 1.96255980023,
			"0.008": 2.76616996262,
			"0.009": 2.26447780734,
			"0.01": 3.22074552881,
			"0.011": 5.54061079886,
			"0.012": 2.33105260295,
			"0.013": 0.955571839361,
			"0.014": 0.0,
			"0.015": 0.0,
			"0.016": 0.0,
			"0.017": 0.0,
			"0.018": 0.0,
			"0.019": 0.0,
			"0.02": 0.0,
			"0.021": 0.0,
			"0.022": 0.0,
			"0.023": 0.0,
			"0.024": 0.0,
			"0.025": 0.0
		}
	}
}
