{
	 "smiles": "[O-][N+](=O)C1=CC=C(C=C1)N=[N+]=[N-]", 
	 "Tm": 370.15, 
	 "num_atms": 16, 
	 "gaussian": { 
		 "optdone": 1, 
		 "sigma_profile": "yes", 
		 "theory": "DFT", 
		 "functional": "B3LYP", 
		 "basiset": "6-31G**", 
		 "properties": { 
			 "R2extent": 2641.7887, 
			 "electric_dipole_moment_norm": 2.54682788975, 
			 "electric_quadrupole_moment_norm": 17.540636066, 
			 "total_energy": -600.324231093, 
			 "HOMO_LUMO_gap": 0.18442, 
			 "cosmo_polarized_energy": -9.28, 
			 "cosmo_cavitation_energy": 23.32, 
			 "cosmo_dispersion_energy": -16.54, 
			 "cosmo_repulsion_energy": 1.33, 
			 "cosmo_total_nonelectrostatic_energy": 8.11, 
			 "SMD_solvation_energy": 4.48 
		},
		"coords": [
			{
				"x": 3.6810353562,
				"y": 1.0831156923,
				"z": -0.9700956193,
				"element": "O" 
			},
			{
				"x": 2.715676499,
				"y": 1.8361001154,
				"z": -0.8498924569,
				"element": "N" 
			},
			{
				"x": 2.7023729891,
				"y": 3.021166941,
				"z": -1.179722137,
				"element": "O" 
			},
			{
				"x": 1.4843007402,
				"y": 1.2771825342,
				"z": -0.2689290345,
				"element": "C" 
			},
			{
				"x": 1.4683098516,
				"y": -0.0619916566,
				"z": 0.1168387762,
				"element": "C" 
			},
			{
				"x": 0.3028526375,
				"y": -0.5869059689,
				"z": 0.6667425084,
				"element": "C" 
			},
			{
				"x": -0.8261607858,
				"y": 0.2277037357,
				"z": 0.8131194394,
				"element": "C" 
			},
			{
				"x": -0.7885087327,
				"y": 1.5743582623,
				"z": 0.4326328936,
				"element": "C" 
			},
			{
				"x": 0.3737470582,
				"y": 2.1056314763,
				"z": -0.1179410635,
				"element": "C" 
			},
			{
				"x": -1.9993746785,
				"y": -0.2952783153,
				"z": 1.4543217588,
				"element": "N" 
			},
			{
				"x": -2.8716225664,
				"y": -0.8124052293,
				"z": 0.7425202323,
				"element": "N" 
			},
			{
				"x": -3.7532044925,
				"y": -1.3135273183,
				"z": 0.2227126713,
				"element": "N" 
			},
			{
				"x": 2.3574729263,
				"y": -0.6653723167,
				"z": -0.0156710691,
				"element": "H" 
			},
			{
				"x": 0.2597626076,
				"y": -1.6218263612,
				"z": 0.9880679821,
				"element": "H" 
			},
			{
				"x": -1.6671074582,
				"y": 2.1940701096,
				"z": 0.5747216417,
				"element": "H" 
			},
			{
				"x": 0.4353480483,
				"y": 3.1411782995,
				"z": -0.4279265235,
				"element": "H" 
			}
		],
		 "valence_orbital": [ 
			{
				"type": "occ",
				"energy": -0.315,
				"method": "rhf"
			},
			{
				"type": "occ",
				"energy": -0.29966,
				"method": "rhf"
			},
			{
				"type": "occ",
				"energy": -0.29298,
				"method": "rhf"
			},
			{
				"type": "occ",
				"energy": -0.28511,
				"method": "rhf"
			},
			{
				"type": "occ",
				"energy": -0.28269,
				"method": "rhf"
			},
			{
				"type": "unocc",
				"energy": -0.09827,
				"method": "rhf"
			},
			{
				"type": "unocc",
				"energy": -0.04961,
				"method": "rhf"
			},
			{
				"type": "unocc",
				"energy": -0.04314,
				"method": "rhf"
			},
			{
				"type": "unocc",
				"energy": -0.0117,
				"method": "rhf"
			},
			{
				"type": "unocc",
				"energy": -0.00808,
				"method": "rhf"
			}
		],
		"cosmo_sigma_profile": { 
			"-0.025": 0.0,
			"-0.024": 0.0,
			"-0.023": 0.0,
			"-0.022": 0.0,
			"-0.021": 0.0,
			"-0.02": 0.0,
			"-0.019": 0.0,
			"-0.018": 0.0,
			"-0.017": 0.0,
			"-0.016": 0.0,
			"-0.015": 0.0,
			"-0.014": 0.0,
			"-0.013": 0.0,
			"-0.012": 0.0,
			"-0.011": 0.0,
			"-0.01": 0.0,
			"-0.009": 0.499865833447,
			"-0.008": 5.72568298044,
			"-0.007": 13.1882524268,
			"-0.006": 11.5669763891,
			"-0.005": 10.2720477302,
			"-0.004": 12.1510393269,
			"-0.003": 11.1104892315,
			"-0.002": 13.4222220079,
			"-0.001": 13.9415630858,
			"0.0": 18.8468984883,
			"0.001": 15.0395135161,
			"0.002": 6.56511794684,
			"0.003": 6.2106983373,
			"0.004": 6.85226708523,
			"0.005": 7.89777466636,
			"0.006": 8.0163797888,
			"0.007": 12.1304237581,
			"0.008": 8.60338234522,
			"0.009": 4.9832168763,
			"0.01": 2.25612114384,
			"0.011": 0.0551015323314,
			"0.012": 0.0,
			"0.013": 0.0,
			"0.014": 0.0,
			"0.015": 0.0,
			"0.016": 0.0,
			"0.017": 0.0,
			"0.018": 0.0,
			"0.019": 0.0,
			"0.02": 0.0,
			"0.021": 0.0,
			"0.022": 0.0,
			"0.023": 0.0,
			"0.024": 0.0,
			"0.025": 0.0
		}
	}
}
