{
	 "smiles": "CC1=NN=C(C)S1", 
	 "Tm": 337.15, 
	 "num_atms": 13, 
	 "gaussian": { 
		 "optdone": 1, 
		 "sigma_profile": "yes", 
		 "theory": "DFT", 
		 "functional": "B3LYP", 
		 "basiset": "6-31G**", 
		 "properties": { 
			 "R2extent": 1177.6918, 
			 "electric_dipole_moment_norm": 2.91595214295, 
			 "electric_quadrupole_moment_norm": 11.2545979328, 
			 "total_energy": -663.711953305, 
			 "HOMO_LUMO_gap": 0.22715, 
			 "cosmo_polarized_energy": -9.24, 
			 "cosmo_cavitation_energy": 18.51, 
			 "cosmo_dispersion_energy": -14.4, 
			 "cosmo_repulsion_energy": 1.17, 
			 "cosmo_total_nonelectrostatic_energy": 5.28, 
			 "SMD_solvation_energy": 1.38 
		},
		"coords": [
			{
				"x": 0.0931529106,
				"y": 0.0229121015,
				"z": -3.0511972048,
				"element": "C" 
			},
			{
				"x": -0.3484329366,
				"y": 0.4139689702,
				"z": -1.6763833695,
				"element": "C" 
			},
			{
				"x": 0.0913843652,
				"y": 1.4675668593,
				"z": -1.0517994358,
				"element": "N" 
			},
			{
				"x": -0.4492224909,
				"y": 1.6316382835,
				"z": 0.1964965965,
				"element": "N" 
			},
			{
				"x": -1.3006831997,
				"y": 0.7029757619,
				"z": 0.5223994345,
				"element": "C" 
			},
			{
				"x": -2.0219011733,
				"y": 0.6648492018,
				"z": 1.83252437,
				"element": "C" 
			},
			{
				"x": -1.517926063,
				"y": -0.5059386727,
				"z": -0.7373674677,
				"element": "S" 
			},
			{
				"x": -0.7494987473,
				"y": -0.0052993085,
				"z": -3.7496335411,
				"element": "H" 
			},
			{
				"x": 0.8176382721,
				"y": 0.7608302633,
				"z": -3.4006749073,
				"element": "H" 
			},
			{
				"x": 0.5638246714,
				"y": -0.9655852713,
				"z": -3.0546650092,
				"element": "H" 
			},
			{
				"x": -1.7045109653,
				"y": 1.5263406468,
				"z": 2.4229766091,
				"element": "H" 
			},
			{
				"x": -1.7936510919,
				"y": -0.2500460974,
				"z": 2.3888860133,
				"element": "H" 
			},
			{
				"x": -3.1069735512,
				"y": 0.7101872617,
				"z": 1.693837912,
				"element": "H" 
			}
		],
		 "valence_orbital": [ 
			{
				"type": "occ",
				"energy": -0.38155,
				"method": "rhf"
			},
			{
				"type": "occ",
				"energy": -0.2963,
				"method": "rhf"
			},
			{
				"type": "occ",
				"energy": -0.29042,
				"method": "rhf"
			},
			{
				"type": "occ",
				"energy": -0.26582,
				"method": "rhf"
			},
			{
				"type": "occ",
				"energy": -0.2594,
				"method": "rhf"
			},
			{
				"type": "unocc",
				"energy": -0.03225,
				"method": "rhf"
			},
			{
				"type": "unocc",
				"energy": 0.00516,
				"method": "rhf"
			},
			{
				"type": "unocc",
				"energy": 0.03632,
				"method": "rhf"
			},
			{
				"type": "unocc",
				"energy": 0.08791,
				"method": "rhf"
			},
			{
				"type": "unocc",
				"energy": 0.11114,
				"method": "rhf"
			}
		],
		"cosmo_sigma_profile": { 
			"-0.025": 0.0,
			"-0.024": 0.0,
			"-0.023": 0.0,
			"-0.022": 0.0,
			"-0.021": 0.0,
			"-0.02": 0.0,
			"-0.019": 0.0,
			"-0.018": 0.0,
			"-0.017": 0.0,
			"-0.016": 0.0,
			"-0.015": 0.0,
			"-0.014": 0.0,
			"-0.013": 0.0,
			"-0.012": 0.0,
			"-0.011": 0.0,
			"-0.01": 0.0,
			"-0.009": 0.0,
			"-0.008": 0.0,
			"-0.007": 1.11475700561,
			"-0.006": 11.7813395479,
			"-0.005": 15.9936768836,
			"-0.004": 14.5306711349,
			"-0.003": 14.87014895,
			"-0.002": 17.3151372486,
			"-0.001": 15.2958235712,
			"0.0": 10.5938414704,
			"0.001": 8.41658925403,
			"0.002": 7.18916514654,
			"0.003": 4.36901312917,
			"0.004": 2.08917968311,
			"0.005": 2.95433775809,
			"0.006": 1.69267933056,
			"0.007": 1.88727408879,
			"0.008": 1.94938689467,
			"0.009": 2.02745089136,
			"0.01": 2.85958974386,
			"0.011": 2.28093217232,
			"0.012": 3.11055187545,
			"0.013": 3.08893538467,
			"0.014": 2.22614791798,
			"0.015": 1.63008874632,
			"0.016": 0.302015908851,
			"0.017": 0.0,
			"0.018": 0.0,
			"0.019": 0.0,
			"0.02": 0.0,
			"0.021": 0.0,
			"0.022": 0.0,
			"0.023": 0.0,
			"0.024": 0.0,
			"0.025": 0.0
		}
	}
}
