{
	 "smiles": "CC(C)(C)OC(=O)NC1(CCCC1)C(O)=O", 
	 "Tm": 406.15, 
	 "num_atms": 35, 
	 "gaussian": { 
		 "optdone": 1, 
		 "sigma_profile": "yes", 
		 "theory": "DFT", 
		 "functional": "B3LYP", 
		 "basiset": "6-31G**", 
		 "properties": { 
			 "R2extent": 3963.1588, 
			 "electric_dipole_moment_norm": 3.55619365755, 
			 "electric_quadrupole_moment_norm": 13.4747282692, 
			 "total_energy": -786.325038856, 
			 "HOMO_LUMO_gap": 0.25395, 
			 "cosmo_polarized_energy": -14.72, 
			 "cosmo_cavitation_energy": 35.86, 
			 "cosmo_dispersion_energy": -24.09, 
			 "cosmo_repulsion_energy": 1.89, 
			 "cosmo_total_nonelectrostatic_energy": 13.66, 
			 "SMD_solvation_energy": 7.25 
		},
		"coords": [
			{
				"x": -1.9437375068,
				"y": 2.1393423426,
				"z": 1.7852236182,
				"element": "C" 
			},
			{
				"x": -0.8592009161,
				"y": 1.0733148326,
				"z": 1.9711042556,
				"element": "C" 
			},
			{
				"x": -1.4793756534,
				"y": -0.2740036328,
				"z": 2.3502399906,
				"element": "C" 
			},
			{
				"x": 0.2028246578,
				"y": 1.4897161021,
				"z": 2.9942085315,
				"element": "C" 
			},
			{
				"x": -0.2182890235,
				"y": 0.777744105,
				"z": 0.6780397051,
				"element": "O" 
			},
			{
				"x": 0.5014824149,
				"y": 1.7218085743,
				"z": 0.0325901363,
				"element": "C" 
			},
			{
				"x": 0.6136919968,
				"y": 2.892279068,
				"z": 0.3525721407,
				"element": "O" 
			},
			{
				"x": 1.0825242892,
				"y": 1.2071829068,
				"z": -1.1095962576,
				"element": "N" 
			},
			{
				"x": 1.2944877425,
				"y": -0.2108370822,
				"z": -1.3855499338,
				"element": "C" 
			},
			{
				"x": -0.0582048689,
				"y": -0.9571880543,
				"z": -1.6784887275,
				"element": "C" 
			},
			{
				"x": 0.0321857078,
				"y": -1.4759071038,
				"z": -3.1294865806,
				"element": "C" 
			},
			{
				"x": 1.0220438585,
				"y": -0.5196667635,
				"z": -3.8080904716,
				"element": "C" 
			},
			{
				"x": 2.0936896555,
				"y": -0.3360878942,
				"z": -2.7250897703,
				"element": "C" 
			},
			{
				"x": 2.1068096426,
				"y": -0.8540828776,
				"z": -0.2521020498,
				"element": "C" 
			},
			{
				"x": 2.1549658093,
				"y": -2.2053257906,
				"z": -0.3728500879,
				"element": "O" 
			},
			{
				"x": 2.6860734209,
				"y": -0.2629355489,
				"z": 0.6302610082,
				"element": "O" 
			},
			{
				"x": -2.6636903262,
				"y": 1.8219182151,
				"z": 1.0239301114,
				"element": "H" 
			},
			{
				"x": -2.48510748,
				"y": 2.2803526622,
				"z": 2.7265880449,
				"element": "H" 
			},
			{
				"x": -1.5048475592,
				"y": 3.0902334793,
				"z": 1.4830315832,
				"element": "H" 
			},
			{
				"x": -2.1970781812,
				"y": -0.5978353567,
				"z": 1.5906224246,
				"element": "H" 
			},
			{
				"x": -0.706021644,
				"y": -1.0418052177,
				"z": 2.4459278676,
				"element": "H" 
			},
			{
				"x": -2.0032375329,
				"y": -0.1895552121,
				"z": 3.3069923535,
				"element": "H" 
			},
			{
				"x": 1.0035997735,
				"y": 0.7451921188,
				"z": 3.0293358493,
				"element": "H" 
			},
			{
				"x": -0.2525677201,
				"y": 1.55812744,
				"z": 3.9876674877,
				"element": "H" 
			},
			{
				"x": 0.636280727,
				"y": 2.4561776292,
				"z": 2.7366157039,
				"element": "H" 
			},
			{
				"x": 1.782409651,
				"y": 1.8432376252,
				"z": -1.4654092634,
				"element": "H" 
			},
			{
				"x": -0.2479873001,
				"y": -1.7554405393,
				"z": -0.9598867289,
				"element": "H" 
			},
			{
				"x": -0.8627439448,
				"y": -0.228004549,
				"z": -1.5765606371,
				"element": "H" 
			},
			{
				"x": -0.9455881464,
				"y": -1.5073439462,
				"z": -3.6197995459,
				"element": "H" 
			},
			{
				"x": 0.4382447074,
				"y": -2.4945120285,
				"z": -3.1428555383,
				"element": "H" 
			},
			{
				"x": 1.4343548168,
				"y": -0.908072517,
				"z": -4.7445315408,
				"element": "H" 
			},
			{
				"x": 0.5385118859,
				"y": 0.4397313936,
				"z": -4.0268391335,
				"element": "H" 
			},
			{
				"x": 2.7557733458,
				"y": 0.5216712343,
				"z": -2.8827728628,
				"element": "H" 
			},
			{
				"x": 2.7230597947,
				"y": -1.2301902569,
				"z": -2.6823170911,
				"element": "H" 
			},
			{
				"x": 2.7164639057,
				"y": -2.5191353578,
				"z": 0.3555754086,
				"element": "H" 
			}
		],
		 "valence_orbital": [ 
			{
				"type": "occ",
				"energy": -0.31901,
				"method": "rhf"
			},
			{
				"type": "occ",
				"energy": -0.28523,
				"method": "rhf"
			},
			{
				"type": "occ",
				"energy": -0.27709,
				"method": "rhf"
			},
			{
				"type": "occ",
				"energy": -0.25908,
				"method": "rhf"
			},
			{
				"type": "occ",
				"energy": -0.2493,
				"method": "rhf"
			},
			{
				"type": "unocc",
				"energy": 0.00465,
				"method": "rhf"
			},
			{
				"type": "unocc",
				"energy": 0.05106,
				"method": "rhf"
			},
			{
				"type": "unocc",
				"energy": 0.06832,
				"method": "rhf"
			},
			{
				"type": "unocc",
				"energy": 0.08195,
				"method": "rhf"
			},
			{
				"type": "unocc",
				"energy": 0.09062,
				"method": "rhf"
			}
		],
		"cosmo_sigma_profile": { 
			"-0.025": 0.0,
			"-0.024": 0.0,
			"-0.023": 0.0,
			"-0.022": 0.0,
			"-0.021": 0.0,
			"-0.02": 0.0,
			"-0.019": 0.00308193729017,
			"-0.018": 0.750442353221,
			"-0.017": 1.13472068695,
			"-0.016": 0.458980319182,
			"-0.015": 1.01490832663,
			"-0.014": 1.07872260334,
			"-0.013": 1.33840008191,
			"-0.012": 1.51853315649,
			"-0.011": 2.12723243201,
			"-0.01": 1.60890369507,
			"-0.009": 1.45464176038,
			"-0.008": 1.73948676637,
			"-0.007": 2.38054462559,
			"-0.006": 2.57682078451,
			"-0.005": 3.6071029622,
			"-0.004": 15.6821312119,
			"-0.003": 30.1109691798,
			"-0.002": 33.4395840877,
			"-0.001": 35.5088267668,
			"0.0": 41.1217853482,
			"0.001": 28.5579869871,
			"0.002": 10.5888755027,
			"0.003": 8.26527437908,
			"0.004": 8.08381262336,
			"0.005": 8.84703349191,
			"0.006": 5.87339421417,
			"0.007": 5.29100943435,
			"0.008": 3.73193215145,
			"0.009": 3.213810971,
			"0.01": 2.9800003454,
			"0.011": 4.71290103668,
			"0.012": 4.0600827309,
			"0.013": 3.61281486782,
			"0.014": 1.41420953569,
			"0.015": 0.0,
			"0.016": 0.0,
			"0.017": 0.0,
			"0.018": 0.0,
			"0.019": 0.0,
			"0.02": 0.0,
			"0.021": 0.0,
			"0.022": 0.0,
			"0.023": 0.0,
			"0.024": 0.0,
			"0.025": 0.0
		}
	}
}
