{
	 "smiles": "CN1C2=C(C=CC=C2)N=C1C(C)=O", 
	 "Tm": 341.15, 
	 "num_atms": 23, 
	 "gaussian": { 
		 "optdone": 1, 
		 "sigma_profile": "yes", 
		 "theory": "DFT", 
		 "functional": "B3LYP", 
		 "basiset": "6-31G**", 
		 "properties": { 
			 "R2extent": 2667.7865, 
			 "electric_dipole_moment_norm": 5.70007134429, 
			 "electric_quadrupole_moment_norm": 13.1367102697, 
			 "total_energy": -571.816280347, 
			 "HOMO_LUMO_gap": 0.16766, 
			 "cosmo_polarized_energy": -17.8, 
			 "cosmo_cavitation_energy": 26.73, 
			 "cosmo_dispersion_energy": -19.61, 
			 "cosmo_repulsion_energy": 1.52, 
			 "cosmo_total_nonelectrostatic_energy": 8.64, 
			 "SMD_solvation_energy": 3.37 
		},
		"coords": [
			{
				"x": 1.0068106024,
				"y": -1.7296710577,
				"z": 0.5240662513,
				"element": "C" 
			},
			{
				"x": 0.6176297008,
				"y": -0.52042501,
				"z": -0.1859863301,
				"element": "N" 
			},
			{
				"x": -0.6224746084,
				"y": -0.3312883753,
				"z": -0.769555522,
				"element": "C" 
			},
			{
				"x": -0.6228959493,
				"y": 1.0096116146,
				"z": -1.2254096522,
				"element": "C" 
			},
			{
				"x": -1.7519318991,
				"y": 1.530650109,
				"z": -1.8781540339,
				"element": "C" 
			},
			{
				"x": -2.8476382629,
				"y": 0.6963052015,
				"z": -2.0477231257,
				"element": "C" 
			},
			{
				"x": -2.8333810446,
				"y": -0.6378106524,
				"z": -1.5823425215,
				"element": "C" 
			},
			{
				"x": -1.725941289,
				"y": -1.1766270151,
				"z": -0.9364290963,
				"element": "C" 
			},
			{
				"x": 0.572369015,
				"y": 1.6178143045,
				"z": -0.9207657679,
				"element": "N" 
			},
			{
				"x": 1.2910723647,
				"y": 0.6963896533,
				"z": -0.3118447513,
				"element": "C" 
			},
			{
				"x": 2.7025357481,
				"y": 0.9751774672,
				"z": 0.114741919,
				"element": "C" 
			},
			{
				"x": 3.7083423702,
				"y": -0.1642210506,
				"z": 0.198901637,
				"element": "C" 
			},
			{
				"x": 3.0428495903,
				"y": 2.1208074605,
				"z": 0.3396356795,
				"element": "O" 
			},
			{
				"x": 1.5966666363,
				"y": -1.4826421927,
				"z": 1.4070850172,
				"element": "H" 
			},
			{
				"x": 0.1041013522,
				"y": -2.2432564617,
				"z": 0.8602423948,
				"element": "H" 
			},
			{
				"x": 1.5813549293,
				"y": -2.4120505407,
				"z": -0.111162509,
				"element": "H" 
			},
			{
				"x": -1.7510776114,
				"y": 2.5573975863,
				"z": -2.2288009837,
				"element": "H" 
			},
			{
				"x": -3.7363485963,
				"y": 1.0699011643,
				"z": -2.5472830279,
				"element": "H" 
			},
			{
				"x": -3.7090988584,
				"y": -1.2610351565,
				"z": -1.7378771728,
				"element": "H" 
			},
			{
				"x": -1.7255601475,
				"y": -2.2070530632,
				"z": -0.5947859802,
				"element": "H" 
			},
			{
				"x": 3.5378162075,
				"y": -0.9355630548,
				"z": -0.5573954118,
				"element": "H" 
			},
			{
				"x": 3.6712107593,
				"y": -0.6411408128,
				"z": 1.1851664597,
				"element": "H" 
			},
			{
				"x": 4.7047889908,
				"y": 0.2630298824,
				"z": 0.0750765279,
				"element": "H" 
			}
		],
		 "valence_orbital": [ 
			{
				"type": "occ",
				"energy": -0.3038,
				"method": "rhf"
			},
			{
				"type": "occ",
				"energy": -0.27271,
				"method": "rhf"
			},
			{
				"type": "occ",
				"energy": -0.2545,
				"method": "rhf"
			},
			{
				"type": "occ",
				"energy": -0.23317,
				"method": "rhf"
			},
			{
				"type": "occ",
				"energy": -0.22869,
				"method": "rhf"
			},
			{
				"type": "unocc",
				"energy": -0.06103,
				"method": "rhf"
			},
			{
				"type": "unocc",
				"energy": 0.00411,
				"method": "rhf"
			},
			{
				"type": "unocc",
				"energy": 0.01814,
				"method": "rhf"
			},
			{
				"type": "unocc",
				"energy": 0.06241,
				"method": "rhf"
			},
			{
				"type": "unocc",
				"energy": 0.06597,
				"method": "rhf"
			}
		],
		"cosmo_sigma_profile": { 
			"-0.025": 0.0,
			"-0.024": 0.0,
			"-0.023": 0.0,
			"-0.022": 0.0,
			"-0.021": 0.0,
			"-0.02": 0.0,
			"-0.019": 0.0,
			"-0.018": 0.0,
			"-0.017": 0.0,
			"-0.016": 0.0,
			"-0.015": 0.0,
			"-0.014": 0.0,
			"-0.013": 0.0,
			"-0.012": 0.0,
			"-0.011": 0.0862855164057,
			"-0.01": 0.947461922723,
			"-0.009": 1.90947695747,
			"-0.008": 4.49642002037,
			"-0.007": 9.93870455674,
			"-0.006": 17.8491906033,
			"-0.005": 18.5594264801,
			"-0.004": 23.2189167775,
			"-0.003": 16.4824627179,
			"-0.002": 15.2151304504,
			"-0.001": 10.9579475309,
			"0.0": 9.18585593524,
			"0.001": 8.34206538355,
			"0.002": 9.85030825285,
			"0.003": 10.4661042503,
			"0.004": 11.9803287383,
			"0.005": 12.0147179954,
			"0.006": 3.43791813744,
			"0.007": 2.35511184424,
			"0.008": 2.29388386584,
			"0.009": 2.83257791062,
			"0.01": 3.2575330277,
			"0.011": 4.9332921413,
			"0.012": 4.15370630995,
			"0.013": 2.52043069239,
			"0.014": 1.43858957682,
			"0.015": 1.63010972267,
			"0.016": 1.64810304434,
			"0.017": 1.30649664616,
			"0.018": 0.231535817172,
			"0.019": 0.0,
			"0.02": 0.0,
			"0.021": 0.0,
			"0.022": 0.0,
			"0.023": 0.0,
			"0.024": 0.0,
			"0.025": 0.0
		}
	}
}
