{
	 "smiles": "CSC1=CC=C(O)C=C1C", 
	 "Tm": 329.15, 
	 "num_atms": 20, 
	 "gaussian": { 
		 "optdone": 1, 
		 "sigma_profile": "yes", 
		 "theory": "DFT", 
		 "functional": "B3LYP", 
		 "basiset": "6-31G**", 
		 "properties": { 
			 "R2extent": 2184.2813, 
			 "electric_dipole_moment_norm": 2.47360244583, 
			 "electric_quadrupole_moment_norm": 9.13282891332, 
			 "total_energy": -784.290947037, 
			 "HOMO_LUMO_gap": 0.21225, 
			 "cosmo_polarized_energy": -9.67, 
			 "cosmo_cavitation_energy": 24.81, 
			 "cosmo_dispersion_energy": -18.46, 
			 "cosmo_repulsion_energy": 1.45, 
			 "cosmo_total_nonelectrostatic_energy": 7.8, 
			 "SMD_solvation_energy": 4.79 
		},
		"coords": [
			{
				"x": 1.0469543838,
				"y": 2.642150793,
				"z": 0.8465834947,
				"element": "C" 
			},
			{
				"x": 0.3888021186,
				"y": 1.7488399781,
				"z": -0.6154019545,
				"element": "S" 
			},
			{
				"x": -0.6572167987,
				"y": 0.5135422153,
				"z": 0.1624255263,
				"element": "C" 
			},
			{
				"x": -2.0297532481,
				"y": 0.7766821882,
				"z": 0.2840236438,
				"element": "C" 
			},
			{
				"x": -2.9037737753,
				"y": -0.1490807222,
				"z": 0.8431379179,
				"element": "C" 
			},
			{
				"x": -2.3980774511,
				"y": -1.3722178334,
				"z": 1.2910661775,
				"element": "C" 
			},
			{
				"x": -3.2795641101,
				"y": -2.2601701267,
				"z": 1.8359464098,
				"element": "O" 
			},
			{
				"x": -1.0327985818,
				"y": -1.650027097,
				"z": 1.167820526,
				"element": "C" 
			},
			{
				"x": -0.1456391727,
				"y": -0.7263200374,
				"z": 0.6035993741,
				"element": "C" 
			},
			{
				"x": 1.3172051316,
				"y": -1.0813440302,
				"z": 0.4854037812,
				"element": "C" 
			},
			{
				"x": 1.682970047,
				"y": 3.4429069185,
				"z": 0.4609979054,
				"element": "H" 
			},
			{
				"x": 0.2351043508,
				"y": 3.0791035607,
				"z": 1.4317738625,
				"element": "H" 
			},
			{
				"x": 1.6480255098,
				"y": 1.9861234556,
				"z": 1.480399598,
				"element": "H" 
			},
			{
				"x": -2.4120826124,
				"y": 1.7279588392,
				"z": -0.072746117,
				"element": "H" 
			},
			{
				"x": -3.9650705053,
				"y": 0.0548428497,
				"z": 0.9362523156,
				"element": "H" 
			},
			{
				"x": -2.8042243886,
				"y": -3.0598823035,
				"z": 2.0963423233,
				"element": "H" 
			},
			{
				"x": -0.6504364749,
				"y": -2.6095030418,
				"z": 1.5129755112,
				"element": "H" 
			},
			{
				"x": 1.6777889347,
				"y": -0.94025499,
				"z": -0.5372910409,
				"element": "H" 
			},
			{
				"x": 1.9387330994,
				"y": -0.4461547921,
				"z": 1.1266482094,
				"element": "H" 
			},
			{
				"x": 1.4921535434,
				"y": -2.1203958239,
				"z": 0.7775425357,
				"element": "H" 
			}
		],
		 "valence_orbital": [ 
			{
				"type": "occ",
				"energy": -0.32976,
				"method": "rhf"
			},
			{
				"type": "occ",
				"energy": -0.30589,
				"method": "rhf"
			},
			{
				"type": "occ",
				"energy": -0.24878,
				"method": "rhf"
			},
			{
				"type": "occ",
				"energy": -0.22369,
				"method": "rhf"
			},
			{
				"type": "occ",
				"energy": -0.2183,
				"method": "rhf"
			},
			{
				"type": "unocc",
				"energy": -0.00605,
				"method": "rhf"
			},
			{
				"type": "unocc",
				"energy": -0.00168,
				"method": "rhf"
			},
			{
				"type": "unocc",
				"energy": 0.05779,
				"method": "rhf"
			},
			{
				"type": "unocc",
				"energy": 0.06947,
				"method": "rhf"
			},
			{
				"type": "unocc",
				"energy": 0.08209,
				"method": "rhf"
			}
		],
		"cosmo_sigma_profile": { 
			"-0.025": 0.0,
			"-0.024": 0.0,
			"-0.023": 0.0,
			"-0.022": 0.0,
			"-0.021": 0.0,
			"-0.02": 0.0,
			"-0.019": 0.0,
			"-0.018": 0.44084150186,
			"-0.017": 1.3454194702,
			"-0.016": 0.602987441563,
			"-0.015": 1.16383461798,
			"-0.014": 1.36090568529,
			"-0.013": 1.11782778835,
			"-0.012": 0.306501168039,
			"-0.011": 0.865506094671,
			"-0.01": 1.33601710792,
			"-0.009": 1.49630443111,
			"-0.008": 0.646486035984,
			"-0.007": 1.55763651123,
			"-0.006": 5.75997528385,
			"-0.005": 11.9335677994,
			"-0.004": 14.7054516467,
			"-0.003": 14.5293473495,
			"-0.002": 15.0663287682,
			"-0.001": 18.0051817424,
			"0.0": 17.126491019,
			"0.001": 12.3496085255,
			"0.002": 12.2054191673,
			"0.003": 12.700038349,
			"0.004": 13.5498549733,
			"0.005": 14.8350008428,
			"0.006": 6.19890892279,
			"0.007": 4.29703356783,
			"0.008": 3.61650396123,
			"0.009": 3.47316197352,
			"0.01": 2.75734987398,
			"0.011": 2.37163652071,
			"0.012": 0.32141057991,
			"0.013": 0.0,
			"0.014": 0.0,
			"0.015": 0.0,
			"0.016": 0.0,
			"0.017": 0.0,
			"0.018": 0.0,
			"0.019": 0.0,
			"0.02": 0.0,
			"0.021": 0.0,
			"0.022": 0.0,
			"0.023": 0.0,
			"0.024": 0.0,
			"0.025": 0.0
		}
	}
}
