{
	 "smiles": "CC(=O)C1=C(N)C2=C(O1)C=CC=C2", 
	 "Tm": 428.15, 
	 "num_atms": 22, 
	 "gaussian": { 
		 "optdone": 1, 
		 "sigma_profile": "yes", 
		 "theory": "DFT", 
		 "functional": "B3LYP", 
		 "basiset": "6-31G**", 
		 "properties": { 
			 "R2extent": 2998.0908, 
			 "electric_dipole_moment_norm": 5.29809223872, 
			 "electric_quadrupole_moment_norm": 21.4341510679, 
			 "total_energy": -591.67852862, 
			 "HOMO_LUMO_gap": 0.15691, 
			 "cosmo_polarized_energy": -18.22, 
			 "cosmo_cavitation_energy": 26.15, 
			 "cosmo_dispersion_energy": -19.45, 
			 "cosmo_repulsion_energy": 1.52, 
			 "cosmo_total_nonelectrostatic_energy": 8.22, 
			 "SMD_solvation_energy": 5.28 
		},
		"coords": [
			{
				"x": -2.8707043438,
				"y": -1.4116845491,
				"z": 2.6055507238,
				"element": "C" 
			},
			{
				"x": -2.8278512091,
				"y": -1.6692054968,
				"z": 1.1034777722,
				"element": "C" 
			},
			{
				"x": -3.7801830455,
				"y": -2.177749165,
				"z": 0.525778708,
				"element": "O" 
			},
			{
				"x": -1.6130571363,
				"y": -1.2887362884,
				"z": 0.3891370221,
				"element": "C" 
			},
			{
				"x": -0.4123172172,
				"y": -0.7121857141,
				"z": 0.7721886937,
				"element": "C" 
			},
			{
				"x": 0.0286778124,
				"y": -0.3375548088,
				"z": 2.0276376799,
				"element": "N" 
			},
			{
				"x": 0.3908497521,
				"y": -0.6212894652,
				"z": -0.4236707682,
				"element": "C" 
			},
			{
				"x": -0.4091744056,
				"y": -1.1509652936,
				"z": -1.4521303003,
				"element": "C" 
			},
			{
				"x": -1.6087133488,
				"y": -1.5548152467,
				"z": -0.9791248665,
				"element": "O" 
			},
			{
				"x": 0.0190258491,
				"y": -1.2308047333,
				"z": -2.775981057,
				"element": "C" 
			},
			{
				"x": 1.2993903526,
				"y": -0.7575616923,
				"z": -3.0481333873,
				"element": "C" 
			},
			{
				"x": 2.1226624281,
				"y": -0.2255590683,
				"z": -2.0336431112,
				"element": "C" 
			},
			{
				"x": 1.6817564193,
				"y": -0.1526979909,
				"z": -0.7179062261,
				"element": "C" 
			},
			{
				"x": -3.8037483076,
				"y": -1.8212695862,
				"z": 2.9944922648,
				"element": "H" 
			},
			{
				"x": -2.8502372908,
				"y": -0.3349293861,
				"z": 2.8207918207,
				"element": "H" 
			},
			{
				"x": -2.0263232594,
				"y": -1.8825504544,
				"z": 3.1217975629,
				"element": "H" 
			},
			{
				"x": 0.7657493792,
				"y": 0.3534697377,
				"z": 2.0265407024,
				"element": "H" 
			},
			{
				"x": -0.6797132188,
				"y": -0.1432060625,
				"z": 2.719020925,
				"element": "H" 
			},
			{
				"x": -0.6220161642,
				"y": -1.6445629072,
				"z": -3.5463588442,
				"element": "H" 
			},
			{
				"x": 1.6750288786,
				"y": -0.8007312944,
				"z": -4.0660560147,
				"element": "H" 
			},
			{
				"x": 3.1169644122,
				"y": 0.1281689847,
				"z": -2.2880399945,
				"element": "H" 
			},
			{
				"x": 2.3282336636,
				"y": 0.2487204809,
				"z": 0.0579306944,
				"element": "H" 
			}
		],
		 "valence_orbital": [ 
			{
				"type": "occ",
				"energy": -0.341,
				"method": "rhf"
			},
			{
				"type": "occ",
				"energy": -0.26872,
				"method": "rhf"
			},
			{
				"type": "occ",
				"energy": -0.24129,
				"method": "rhf"
			},
			{
				"type": "occ",
				"energy": -0.23864,
				"method": "rhf"
			},
			{
				"type": "occ",
				"energy": -0.20969,
				"method": "rhf"
			},
			{
				"type": "unocc",
				"energy": -0.05278,
				"method": "rhf"
			},
			{
				"type": "unocc",
				"energy": 0.00264,
				"method": "rhf"
			},
			{
				"type": "unocc",
				"energy": 0.01897,
				"method": "rhf"
			},
			{
				"type": "unocc",
				"energy": 0.05161,
				"method": "rhf"
			},
			{
				"type": "unocc",
				"energy": 0.08836,
				"method": "rhf"
			}
		],
		"cosmo_sigma_profile": { 
			"-0.025": 0.0,
			"-0.024": 0.0,
			"-0.023": 0.0,
			"-0.022": 0.0,
			"-0.021": 0.0,
			"-0.02": 0.0,
			"-0.019": 0.0,
			"-0.018": 0.0,
			"-0.017": 0.0,
			"-0.016": 0.0,
			"-0.015": 0.0,
			"-0.014": 0.507576304962,
			"-0.013": 2.1913631464,
			"-0.012": 3.02377263854,
			"-0.011": 4.2113767169,
			"-0.01": 3.36591417895,
			"-0.009": 3.29186603556,
			"-0.008": 3.29440369889,
			"-0.007": 5.93183293378,
			"-0.006": 10.3712686553,
			"-0.005": 14.6125955486,
			"-0.004": 13.9818699636,
			"-0.003": 12.6007135924,
			"-0.002": 12.2116212981,
			"-0.001": 11.3010691419,
			"0.0": 11.8510676988,
			"0.001": 15.5202806208,
			"0.002": 15.7265788011,
			"0.003": 13.2534023051,
			"0.004": 12.392286029,
			"0.005": 7.99522089426,
			"0.006": 2.50910414566,
			"0.007": 2.93558532712,
			"0.008": 2.52848632908,
			"0.009": 2.82740352209,
			"0.01": 3.15457571479,
			"0.011": 2.95706185652,
			"0.012": 4.02146429722,
			"0.013": 5.58463082158,
			"0.014": 3.64972263945,
			"0.015": 1.1600237936,
			"0.016": 0.0,
			"0.017": 0.0,
			"0.018": 0.0,
			"0.019": 0.0,
			"0.02": 0.0,
			"0.021": 0.0,
			"0.022": 0.0,
			"0.023": 0.0,
			"0.024": 0.0,
			"0.025": 0.0
		}
	}
}
