{
	 "smiles": "CC1CC(=O)N(CC2=CC=CC=C2)C2=C(N1)C=CC=C2", 
	 "Tm": 384.15, 
	 "num_atms": 38, 
	 "gaussian": { 
		 "optdone": 1, 
		 "sigma_profile": "yes", 
		 "theory": "DFT", 
		 "functional": "B3LYP", 
		 "basiset": "6-31G**", 
		 "properties": { 
			 "R2extent": 5123.7484, 
			 "electric_dipole_moment_norm": 3.45264222879, 
			 "electric_quadrupole_moment_norm": 10.1093587952, 
			 "total_energy": -843.403606301, 
			 "HOMO_LUMO_gap": 0.19265, 
			 "cosmo_polarized_energy": -14.12, 
			 "cosmo_cavitation_energy": 39.45, 
			 "cosmo_dispersion_energy": -26.67, 
			 "cosmo_repulsion_energy": 2.04, 
			 "cosmo_total_nonelectrostatic_energy": 14.82, 
			 "SMD_solvation_energy": 5.67 
		},
		"coords": [
			{
				"x": -2.560429819,
				"y": -0.969393334,
				"z": -2.1038334863,
				"element": "C" 
			},
			{
				"x": -1.3841532982,
				"y": -1.8155430034,
				"z": -1.6129807938,
				"element": "C" 
			},
			{
				"x": -0.1124364895,
				"y": -1.5975900549,
				"z": -2.4531768446,
				"element": "C" 
			},
			{
				"x": 0.5199227751,
				"y": -0.2437636709,
				"z": -2.1690121945,
				"element": "C" 
			},
			{
				"x": 0.3580409075,
				"y": 0.7154836157,
				"z": -2.9197221991,
				"element": "O" 
			},
			{
				"x": 1.2986529856,
				"y": -0.1695507673,
				"z": -1.0318737647,
				"element": "N" 
			},
			{
				"x": 1.9317026912,
				"y": 1.13261354,
				"z": -0.7229141249,
				"element": "C" 
			},
			{
				"x": 1.1198595551,
				"y": 1.99361314,
				"z": 0.2251703942,
				"element": "C" 
			},
			{
				"x": 1.45939684,
				"y": 2.0836570475,
				"z": 1.579937499,
				"element": "C" 
			},
			{
				"x": 0.7092126082,
				"y": 2.8759951458,
				"z": 2.4518091991,
				"element": "C" 
			},
			{
				"x": -0.3910456934,
				"y": 3.5887110559,
				"z": 1.9745694087,
				"element": "C" 
			},
			{
				"x": -0.7370229156,
				"y": 3.5052583231,
				"z": 0.623051993,
				"element": "C" 
			},
			{
				"x": 0.0123617145,
				"y": 2.7138911375,
				"z": -0.2465458514,
				"element": "C" 
			},
			{
				"x": 1.3265986633,
				"y": -1.2033025668,
				"z": -0.049297089,
				"element": "C" 
			},
			{
				"x": 0.1323909525,
				"y": -1.8392313622,
				"z": 0.3685754469,
				"element": "C" 
			},
			{
				"x": -1.1024325294,
				"y": -1.4723620443,
				"z": -0.2036727206,
				"element": "N" 
			},
			{
				"x": 0.201155262,
				"y": -2.7830852587,
				"z": 1.4048787037,
				"element": "C" 
			},
			{
				"x": 1.4083513432,
				"y": -3.0969874762,
				"z": 2.0247068009,
				"element": "C" 
			},
			{
				"x": 2.5875777718,
				"y": -2.4944128829,
				"z": 1.585749034,
				"element": "C" 
			},
			{
				"x": 2.5399315231,
				"y": -1.5624123326,
				"z": 0.5504695847,
				"element": "C" 
			},
			{
				"x": -3.428935399,
				"y": -1.0949423865,
				"z": -1.4474973607,
				"element": "H" 
			},
			{
				"x": -2.2924543638,
				"y": 0.0899261026,
				"z": -2.1222897925,
				"element": "H" 
			},
			{
				"x": -2.8567135181,
				"y": -1.2733450292,
				"z": -3.1128035514,
				"element": "H" 
			},
			{
				"x": -1.6551774249,
				"y": -2.8825684098,
				"z": -1.7061122867,
				"element": "H" 
			},
			{
				"x": -0.3690165858,
				"y": -1.6172967758,
				"z": -3.5139766402,
				"element": "H" 
			},
			{
				"x": 0.6036342163,
				"y": -2.4016312461,
				"z": -2.2565545147,
				"element": "H" 
			},
			{
				"x": 2.0572028617,
				"y": 1.6369524064,
				"z": -1.6816158416,
				"element": "H" 
			},
			{
				"x": 2.9213024015,
				"y": 0.9434324311,
				"z": -0.3018973468,
				"element": "H" 
			},
			{
				"x": 2.3165746442,
				"y": 1.5303769017,
				"z": 1.9557288467,
				"element": "H" 
			},
			{
				"x": 0.9862811891,
				"y": 2.9373566963,
				"z": 3.5006415228,
				"element": "H" 
			},
			{
				"x": -0.9740711632,
				"y": 4.208729361,
				"z": 2.6499599381,
				"element": "H" 
			},
			{
				"x": -1.5900585299,
				"y": 4.0623240525,
				"z": 0.2452266224,
				"element": "H" 
			},
			{
				"x": -0.2513792964,
				"y": 2.6429741696,
				"z": -1.2974411834,
				"element": "H" 
			},
			{
				"x": -1.8733796257,
				"y": -1.7634444059,
				"z": 0.3877778601,
				"element": "H" 
			},
			{
				"x": -0.7175144308,
				"y": -3.2684552581,
				"z": 1.7265070104,
				"element": "H" 
			},
			{
				"x": 1.4284680713,
				"y": -3.8229424061,
				"z": 2.8320955512,
				"element": "H" 
			},
			{
				"x": 3.5399756876,
				"y": -2.7482054246,
				"z": 2.0406859509,
				"element": "H" 
			},
			{
				"x": 3.457126418,
				"y": -1.0971290305,
				"z": 0.2036762201,
				"element": "H" 
			}
		],
		 "valence_orbital": [ 
			{
				"type": "occ",
				"energy": -0.24689,
				"method": "rhf"
			},
			{
				"type": "occ",
				"energy": -0.24141,
				"method": "rhf"
			},
			{
				"type": "occ",
				"energy": -0.23683,
				"method": "rhf"
			},
			{
				"type": "occ",
				"energy": -0.22979,
				"method": "rhf"
			},
			{
				"type": "occ",
				"energy": -0.20594,
				"method": "rhf"
			},
			{
				"type": "unocc",
				"energy": -0.01329,
				"method": "rhf"
			},
			{
				"type": "unocc",
				"energy": -0.00142,
				"method": "rhf"
			},
			{
				"type": "unocc",
				"energy": 0.002,
				"method": "rhf"
			},
			{
				"type": "unocc",
				"energy": 0.00797,
				"method": "rhf"
			},
			{
				"type": "unocc",
				"energy": 0.03249,
				"method": "rhf"
			}
		],
		"cosmo_sigma_profile": { 
			"-0.025": 0.0,
			"-0.024": 0.0,
			"-0.023": 0.0,
			"-0.022": 0.0,
			"-0.021": 0.0,
			"-0.02": 0.0,
			"-0.019": 0.0,
			"-0.018": 0.0,
			"-0.017": 0.0,
			"-0.016": 0.0,
			"-0.015": 0.0,
			"-0.014": 0.0,
			"-0.013": 0.0,
			"-0.012": 0.486745607572,
			"-0.011": 1.58847352298,
			"-0.01": 1.5352779061,
			"-0.009": 1.69598000901,
			"-0.008": 1.88870379818,
			"-0.007": 4.78793772571,
			"-0.006": 10.4017974929,
			"-0.005": 22.5441586948,
			"-0.004": 31.0908401366,
			"-0.003": 35.3195557364,
			"-0.002": 28.9440262396,
			"-0.001": 21.0148642961,
			"0.0": 21.1242993478,
			"0.001": 21.8720480355,
			"0.002": 16.5692847927,
			"0.003": 17.1048736741,
			"0.004": 18.2190777428,
			"0.005": 19.5267347548,
			"0.006": 14.6452541233,
			"0.007": 4.9130011173,
			"0.008": 3.1057293394,
			"0.009": 3.00926392284,
			"0.01": 1.48674450625,
			"0.011": 1.68982616692,
			"0.012": 2.1310028901,
			"0.013": 2.51393862035,
			"0.014": 2.57137784729,
			"0.015": 0.576868527708,
			"0.016": 0.0,
			"0.017": 0.0,
			"0.018": 0.0,
			"0.019": 0.0,
			"0.02": 0.0,
			"0.021": 0.0,
			"0.022": 0.0,
			"0.023": 0.0,
			"0.024": 0.0,
			"0.025": 0.0
		}
	}
}
