{
	 "smiles": "OC1=C(C=C(/C#N)C2=NC3=C(S2)C=CC=C3)C=CC=C1", 
	 "Tm": 461.15, 
	 "num_atms": 30, 
	 "gaussian": { 
		 "optdone": 1, 
		 "sigma_profile": "yes", 
		 "theory": "DFT", 
		 "functional": "B3LYP", 
		 "basiset": "6-31G**", 
		 "properties": { 
			 "R2extent": 7981.9362, 
			 "electric_dipole_moment_norm": 3.09002318438, 
			 "electric_quadrupole_moment_norm": 24.6955832468, 
			 "total_energy": -1198.61674948, 
			 "HOMO_LUMO_gap": 0.13411, 
			 "cosmo_polarized_energy": -15.69, 
			 "cosmo_cavitation_energy": 37.65, 
			 "cosmo_dispersion_energy": -27.33, 
			 "cosmo_repulsion_energy": 2.02, 
			 "cosmo_total_nonelectrostatic_energy": 12.34, 
			 "SMD_solvation_energy": 5.74 
		},
		"coords": [
			{
				"x": 0.4156745805,
				"y": -1.5980525784,
				"z": -3.0278551961,
				"element": "O" 
			},
			{
				"x": 1.7364916868,
				"y": -1.7520969582,
				"z": -2.7612633174,
				"element": "C" 
			},
			{
				"x": 2.221576671,
				"y": -1.2548653001,
				"z": -1.5268262127,
				"element": "C" 
			},
			{
				"x": 1.4310094032,
				"y": -0.5006535161,
				"z": -0.5638158802,
				"element": "C" 
			},
			{
				"x": 0.4290454316,
				"y": 0.4087381992,
				"z": -0.7370956039,
				"element": "C" 
			},
			{
				"x": -0.0013006774,
				"y": 0.9031736911,
				"z": -2.0102679658,
				"element": "C" 
			},
			{
				"x": -0.3563005744,
				"y": 1.3879670751,
				"z": -3.0070842246,
				"element": "N" 
			},
			{
				"x": -0.20033081,
				"y": 1.0225115979,
				"z": 0.4459837843,
				"element": "C" 
			},
			{
				"x": 0.0789419575,
				"y": 0.6844963158,
				"z": 1.6695204512,
				"element": "N" 
			},
			{
				"x": -0.6511324613,
				"y": 1.4248457379,
				"z": 2.5769369095,
				"element": "C" 
			},
			{
				"x": -1.5384249254,
				"y": 2.3747230446,
				"z": 2.0093969801,
				"element": "C" 
			},
			{
				"x": -1.4192525488,
				"y": 2.3091310891,
				"z": 0.2650200049,
				"element": "S" 
			},
			{
				"x": -2.3419886907,
				"y": 3.1904000485,
				"z": 2.8103735188,
				"element": "C" 
			},
			{
				"x": -2.2493624415,
				"y": 3.0474046733,
				"z": 4.1920968208,
				"element": "C" 
			},
			{
				"x": -1.3732090238,
				"y": 2.108834039,
				"z": 4.7676804979,
				"element": "C" 
			},
			{
				"x": -0.5745933701,
				"y": 1.2968756863,
				"z": 3.9735006859,
				"element": "C" 
			},
			{
				"x": 3.559775394,
				"y": -1.545639411,
				"z": -1.1864052966,
				"element": "C" 
			},
			{
				"x": 4.411471958,
				"y": -2.2178394914,
				"z": -2.05365376,
				"element": "C" 
			},
			{
				"x": 3.9235349709,
				"y": -2.6520393068,
				"z": -3.2898226735,
				"element": "C" 
			},
			{
				"x": 2.5929557315,
				"y": -2.4308680179,
				"z": -3.6347985403,
				"element": "C" 
			},
			{
				"x": 0.2280112602,
				"y": -1.8403799425,
				"z": -3.9440121928,
				"element": "H" 
			},
			{
				"x": 1.716341788,
				"y": -0.6400985864,
				"z": 0.4769395604,
				"element": "H" 
			},
			{
				"x": -3.0192674047,
				"y": 3.9157365317,
				"z": 2.3711250485,
				"element": "H" 
			},
			{
				"x": -2.864061259,
				"y": 3.6710643477,
				"z": 4.8341755688,
				"element": "H" 
			},
			{
				"x": -1.3228745113,
				"y": 2.019659942,
				"z": 5.8486679922,
				"element": "H" 
			},
			{
				"x": 0.1049574415,
				"y": 0.5681828611,
				"z": 4.4028833325,
				"element": "H" 
			},
			{
				"x": 3.9299611095,
				"y": -1.2004362306,
				"z": -0.2249256565,
				"element": "H" 
			},
			{
				"x": 5.4423949736,
				"y": -2.4047875346,
				"z": -1.7720151288,
				"element": "H" 
			},
			{
				"x": 4.5737039067,
				"y": -3.1802590415,
				"z": -3.9808399444,
				"element": "H" 
			},
			{
				"x": 2.202250434,
				"y": -2.8009289645,
				"z": -4.5800195622,
				"element": "H" 
			}
		],
		 "valence_orbital": [ 
			{
				"type": "occ",
				"energy": -0.28098,
				"method": "rhf"
			},
			{
				"type": "occ",
				"energy": -0.26347,
				"method": "rhf"
			},
			{
				"type": "occ",
				"energy": -0.24378,
				"method": "rhf"
			},
			{
				"type": "occ",
				"energy": -0.23618,
				"method": "rhf"
			},
			{
				"type": "occ",
				"energy": -0.21819,
				"method": "rhf"
			},
			{
				"type": "unocc",
				"energy": -0.08408,
				"method": "rhf"
			},
			{
				"type": "unocc",
				"energy": -0.01997,
				"method": "rhf"
			},
			{
				"type": "unocc",
				"energy": -0.00904,
				"method": "rhf"
			},
			{
				"type": "unocc",
				"energy": -0.0069,
				"method": "rhf"
			},
			{
				"type": "unocc",
				"energy": 0.00721,
				"method": "rhf"
			}
		],
		"cosmo_sigma_profile": { 
			"-0.025": 0.0,
			"-0.024": 0.0,
			"-0.023": 0.0,
			"-0.022": 0.0,
			"-0.021": 0.0,
			"-0.02": 0.0,
			"-0.019": 0.26037179851,
			"-0.018": 1.18387340867,
			"-0.017": 0.73005926133,
			"-0.016": 1.3023856042,
			"-0.015": 1.28353468003,
			"-0.014": 0.473018911853,
			"-0.013": 0.86474566506,
			"-0.012": 1.03610269091,
			"-0.011": 1.23725318938,
			"-0.01": 1.22304987382,
			"-0.009": 1.04380006657,
			"-0.008": 3.25455913087,
			"-0.007": 10.0448734399,
			"-0.006": 17.1765726667,
			"-0.005": 19.274602388,
			"-0.004": 17.4956219554,
			"-0.003": 15.4068787321,
			"-0.002": 16.2770900554,
			"-0.001": 18.769885447,
			"0.0": 23.9056007814,
			"0.001": 27.3982006912,
			"0.002": 29.003458857,
			"0.003": 31.2312321183,
			"0.004": 24.7534940973,
			"0.005": 9.39796214329,
			"0.006": 6.61341045187,
			"0.007": 5.63833846187,
			"0.008": 4.3931337168,
			"0.009": 4.85317112877,
			"0.01": 4.29961240615,
			"0.011": 3.052289487,
			"0.012": 2.48105763767,
			"0.013": 1.20612991072,
			"0.014": 0.0,
			"0.015": 0.0,
			"0.016": 0.0,
			"0.017": 0.0,
			"0.018": 0.0,
			"0.019": 0.0,
			"0.02": 0.0,
			"0.021": 0.0,
			"0.022": 0.0,
			"0.023": 0.0,
			"0.024": 0.0,
			"0.025": 0.0
		}
	}
}
