{
	 "smiles": "CCCCCCCCCOC(C)=O", 
	 "Tm": 247.15, 
	 "num_atms": 35, 
	 "gaussian": { 
		 "optdone": 1, 
		 "sigma_profile": "yes", 
		 "theory": "DFT", 
		 "functional": "B3LYP", 
		 "basiset": "6-31G**", 
		 "properties": { 
			 "R2extent": 4553.4181, 
			 "electric_dipole_moment_norm": 2.01737760967, 
			 "electric_quadrupole_moment_norm": 10.360556778, 
			 "total_energy": -582.917404593, 
			 "HOMO_LUMO_gap": 0.28248, 
			 "cosmo_polarized_energy": -6.64, 
			 "cosmo_cavitation_energy": 36.44, 
			 "cosmo_dispersion_energy": -24.69, 
			 "cosmo_repulsion_energy": 2.06, 
			 "cosmo_total_nonelectrostatic_energy": 13.81, 
			 "SMD_solvation_energy": 6.59 
		},
		"coords": [
			{
				"x": 4.1891314076,
				"y": -2.7853271911,
				"z": -2.3729315318,
				"element": "C" 
			},
			{
				"x": 2.8146844545,
				"y": -2.2206622636,
				"z": -2.7458076303,
				"element": "C" 
			},
			{
				"x": 2.1976432687,
				"y": -1.3494546553,
				"z": -1.6437408558,
				"element": "C" 
			},
			{
				"x": 0.8195168801,
				"y": -0.7849629388,
				"z": -2.0172024195,
				"element": "C" 
			},
			{
				"x": 0.1348573,
				"y": 0.034058979,
				"z": -0.9103128042,
				"element": "C" 
			},
			{
				"x": 0.8273691826,
				"y": 1.3699721562,
				"z": -0.588918224,
				"element": "C" 
			},
			{
				"x": 0.1079388333,
				"y": 2.2406406875,
				"z": 0.4653594224,
				"element": "C" 
			},
			{
				"x": 0.5600715766,
				"y": 2.0451515394,
				"z": 1.9242868382,
				"element": "C" 
			},
			{
				"x": 0.3545155392,
				"y": 0.6587290957,
				"z": 2.5163306571,
				"element": "C" 
			},
			{
				"x": -1.0583686286,
				"y": 0.3537653446,
				"z": 2.4676096226,
				"element": "O" 
			},
			{
				"x": -1.4213045401,
				"y": -0.8514033494,
				"z": 2.9643072836,
				"element": "C" 
			},
			{
				"x": -2.9157139802,
				"y": -1.0488187468,
				"z": 2.8592351264,
				"element": "C" 
			},
			{
				"x": -0.6359479736,
				"y": -1.6500373577,
				"z": 3.426649854,
				"element": "O" 
			},
			{
				"x": 4.1305710994,
				"y": -3.4085536512,
				"z": -1.4732422109,
				"element": "H" 
			},
			{
				"x": 4.6012891522,
				"y": -3.4024430564,
				"z": -3.1781397204,
				"element": "H" 
			},
			{
				"x": 4.9063493179,
				"y": -1.9815546258,
				"z": -2.1702014381,
				"element": "H" 
			},
			{
				"x": 2.1296474249,
				"y": -3.0474769627,
				"z": -2.9783263918,
				"element": "H" 
			},
			{
				"x": 2.8993407496,
				"y": -1.6299130644,
				"z": -3.6683155356,
				"element": "H" 
			},
			{
				"x": 2.890159216,
				"y": -0.5296517689,
				"z": -1.4101317049,
				"element": "H" 
			},
			{
				"x": 2.10701798,
				"y": -1.9428998703,
				"z": -0.7221647379,
				"element": "H" 
			},
			{
				"x": 0.1621280334,
				"y": -1.6209125197,
				"z": -2.2925618149,
				"element": "H" 
			},
			{
				"x": 0.9137283035,
				"y": -0.1651683585,
				"z": -2.9208998051,
				"element": "H" 
			},
			{
				"x": 0.051729937,
				"y": -0.5837915837,
				"z": -0.0075087777,
				"element": "H" 
			},
			{
				"x": -0.896829243,
				"y": 0.2507017341,
				"z": -1.218856138,
				"element": "H" 
			},
			{
				"x": 0.9002755475,
				"y": 1.9389637245,
				"z": -1.5254989796,
				"element": "H" 
			},
			{
				"x": 1.8633887961,
				"y": 1.1949478475,
				"z": -0.2690966394,
				"element": "H" 
			},
			{
				"x": -0.9747152288,
				"y": 2.0781581983,
				"z": 0.3999695922,
				"element": "H" 
			},
			{
				"x": 0.2697658426,
				"y": 3.2977717293,
				"z": 0.222334182,
				"element": "H" 
			},
			{
				"x": 1.6313936483,
				"y": 2.2733314819,
				"z": 2.0076064186,
				"element": "H" 
			},
			{
				"x": 0.0386618205,
				"y": 2.7732763891,
				"z": 2.5580761039,
				"element": "H" 
			},
			{
				"x": 0.6879899526,
				"y": 0.6183445279,
				"z": 3.5583798917,
				"element": "H" 
			},
			{
				"x": 0.9036861423,
				"y": -0.1137965748,
				"z": 1.9702666185,
				"element": "H" 
			},
			{
				"x": -3.4389692904,
				"y": -0.2564096919,
				"z": 3.4025000934,
				"element": "H" 
			},
			{
				"x": -3.1826672859,
				"y": -2.0214018858,
				"z": 3.2713259514,
				"element": "H" 
			},
			{
				"x": -3.2295352358,
				"y": -0.9880733181,
				"z": 1.8129197038,
				"element": "H" 
			}
		],
		 "valence_orbital": [ 
			{
				"type": "occ",
				"energy": -0.31155,
				"method": "rhf"
			},
			{
				"type": "occ",
				"energy": -0.30768,
				"method": "rhf"
			},
			{
				"type": "occ",
				"energy": -0.30319,
				"method": "rhf"
			},
			{
				"type": "occ",
				"energy": -0.29412,
				"method": "rhf"
			},
			{
				"type": "occ",
				"energy": -0.26609,
				"method": "rhf"
			},
			{
				"type": "unocc",
				"energy": 0.01639,
				"method": "rhf"
			},
			{
				"type": "unocc",
				"energy": 0.08048,
				"method": "rhf"
			},
			{
				"type": "unocc",
				"energy": 0.09587,
				"method": "rhf"
			},
			{
				"type": "unocc",
				"energy": 0.10253,
				"method": "rhf"
			},
			{
				"type": "unocc",
				"energy": 0.10942,
				"method": "rhf"
			}
		],
		"cosmo_sigma_profile": { 
			"-0.025": 0.0,
			"-0.024": 0.0,
			"-0.023": 0.0,
			"-0.022": 0.0,
			"-0.021": 0.0,
			"-0.02": 0.0,
			"-0.019": 0.0,
			"-0.018": 0.0,
			"-0.017": 0.0,
			"-0.016": 0.0,
			"-0.015": 0.0,
			"-0.014": 0.0,
			"-0.013": 0.0,
			"-0.012": 0.0,
			"-0.011": 0.0,
			"-0.01": 0.0,
			"-0.009": 0.0,
			"-0.008": 0.0,
			"-0.007": 0.334727913593,
			"-0.006": 3.97095907803,
			"-0.005": 7.73542669795,
			"-0.004": 11.5302643095,
			"-0.003": 23.6751094334,
			"-0.002": 44.2400368758,
			"-0.001": 51.9461771305,
			"0.0": 49.2155153865,
			"0.001": 37.6987105235,
			"0.002": 18.3392945524,
			"0.003": 3.85261194946,
			"0.004": 3.83265680968,
			"0.005": 3.5356180187,
			"0.006": 2.86884647081,
			"0.007": 1.90649763069,
			"0.008": 2.33995727149,
			"0.009": 2.36806649258,
			"0.01": 1.7621587928,
			"0.011": 1.90292787277,
			"0.012": 5.0192718673,
			"0.013": 2.62288046601,
			"0.014": 0.115174221483,
			"0.015": 0.0,
			"0.016": 0.0,
			"0.017": 0.0,
			"0.018": 0.0,
			"0.019": 0.0,
			"0.02": 0.0,
			"0.021": 0.0,
			"0.022": 0.0,
			"0.023": 0.0,
			"0.024": 0.0,
			"0.025": 0.0
		}
	}
}
