{
	 "smiles": "NS(=O)(=O)C1=NC=CC=N1", 
	 "Tm": 447.15, 
	 "num_atms": 15, 
	 "gaussian": { 
		 "optdone": 1, 
		 "sigma_profile": "yes", 
		 "theory": "DFT", 
		 "functional": "B3LYP", 
		 "basiset": "6-31G**", 
		 "properties": { 
			 "R2extent": 1841.9838, 
			 "electric_dipole_moment_norm": 5.05653670708, 
			 "electric_quadrupole_moment_norm": 13.4185465167, 
			 "total_energy": -868.233246797, 
			 "HOMO_LUMO_gap": 0.20698, 
			 "cosmo_polarized_energy": -20.95, 
			 "cosmo_cavitation_energy": 21.44, 
			 "cosmo_dispersion_energy": -16.72, 
			 "cosmo_repulsion_energy": 1.33, 
			 "cosmo_total_nonelectrostatic_energy": 6.05, 
			 "SMD_solvation_energy": 0.96 
		},
		"coords": [
			{
				"x": -1.954069863,
				"y": 0.4592284954,
				"z": 2.7153305182,
				"element": "N" 
			},
			{
				"x": -1.3315998148,
				"y": -0.5953691948,
				"z": 1.5742781185,
				"element": "S" 
			},
			{
				"x": -2.3537527834,
				"y": -0.79950081,
				"z": 0.5469149726,
				"element": "O" 
			},
			{
				"x": -0.7018283103,
				"y": -1.7075574034,
				"z": 2.2872714181,
				"element": "O" 
			},
			{
				"x": 0.0186683969,
				"y": 0.3582011358,
				"z": 0.7901203141,
				"element": "C" 
			},
			{
				"x": 0.6373752143,
				"y": -0.3377457868,
				"z": -0.1598913656,
				"element": "N" 
			},
			{
				"x": 1.6372703565,
				"y": 0.2986213676,
				"z": -0.7771158097,
				"element": "C" 
			},
			{
				"x": 2.0015144175,
				"y": 1.6038754268,
				"z": -0.442353534,
				"element": "C" 
			},
			{
				"x": 1.2695585897,
				"y": 2.2156527105,
				"z": 0.5712775649,
				"element": "C" 
			},
			{
				"x": 0.2620382328,
				"y": 1.593142333,
				"z": 1.2029709679,
				"element": "N" 
			},
			{
				"x": -2.917655047,
				"y": 0.6932550473,
				"z": 2.5015543064,
				"element": "H" 
			},
			{
				"x": -1.8253201715,
				"y": 0.0928207124,
				"z": 3.6524182486,
				"element": "H" 
			},
			{
				"x": 2.1560246436,
				"y": -0.2539544314,
				"z": -1.5575298246,
				"element": "H" 
			},
			{
				"x": 2.813757873,
				"y": 2.1152199097,
				"z": -0.9466728972,
				"element": "H" 
			},
			{
				"x": 1.4868182657,
				"y": 3.2314104879,
				"z": 0.8946270018,
				"element": "H" 
			}
		],
		 "valence_orbital": [ 
			{
				"type": "occ",
				"energy": -0.30766,
				"method": "rhf"
			},
			{
				"type": "occ",
				"energy": -0.30706,
				"method": "rhf"
			},
			{
				"type": "occ",
				"energy": -0.29382,
				"method": "rhf"
			},
			{
				"type": "occ",
				"energy": -0.29338,
				"method": "rhf"
			},
			{
				"type": "occ",
				"energy": -0.27111,
				"method": "rhf"
			},
			{
				"type": "unocc",
				"energy": -0.06413,
				"method": "rhf"
			},
			{
				"type": "unocc",
				"energy": -0.05853,
				"method": "rhf"
			},
			{
				"type": "unocc",
				"energy": 0.05545,
				"method": "rhf"
			},
			{
				"type": "unocc",
				"energy": 0.07734,
				"method": "rhf"
			},
			{
				"type": "unocc",
				"energy": 0.08503,
				"method": "rhf"
			}
		],
		"cosmo_sigma_profile": { 
			"-0.025": 0.0,
			"-0.024": 0.0,
			"-0.023": 0.0,
			"-0.022": 0.0,
			"-0.021": 0.0,
			"-0.02": 0.0,
			"-0.019": 0.0,
			"-0.018": 0.0,
			"-0.017": 0.0,
			"-0.016": 0.459234777451,
			"-0.015": 2.16416917738,
			"-0.014": 2.34839898551,
			"-0.013": 2.54928611556,
			"-0.012": 2.54396711312,
			"-0.011": 2.08494489418,
			"-0.01": 1.45364439457,
			"-0.009": 8.86053982564,
			"-0.008": 10.6988851743,
			"-0.007": 8.46136646662,
			"-0.006": 5.89708763501,
			"-0.005": 6.83159284052,
			"-0.004": 8.77501917803,
			"-0.003": 9.89691113805,
			"-0.002": 13.5915128744,
			"-0.001": 9.10912083516,
			"0.0": 5.38445764789,
			"0.001": 4.39253843683,
			"0.002": 3.34731320443,
			"0.003": 2.30145198414,
			"0.004": 3.83035880682,
			"0.005": 4.21329987462,
			"0.006": 4.12759609691,
			"0.007": 5.11111759326,
			"0.008": 5.65059961511,
			"0.009": 5.9694002374,
			"0.01": 13.8496267913,
			"0.011": 12.0929461389,
			"0.012": 3.04036400893,
			"0.013": 0.588541130571,
			"0.014": 0.708652827034,
			"0.015": 0.817001894229,
			"0.016": 0.714833019208,
			"0.017": 0.388129732874,
			"0.018": 0.005941562953,
			"0.019": 0.0,
			"0.02": 0.0,
			"0.021": 0.0,
			"0.022": 0.0,
			"0.023": 0.0,
			"0.024": 0.0,
			"0.025": 0.0
		}
	}
}
