{
	 "smiles": "OC(=O)CC1=CC=CC=C1OC(F)(F)F", 
	 "Tm": 328.15, 
	 "num_atms": 22, 
	 "gaussian": { 
		 "optdone": 1, 
		 "sigma_profile": "yes", 
		 "theory": "DFT", 
		 "functional": "B3LYP", 
		 "basiset": "6-31G**", 
		 "properties": { 
			 "R2extent": 3342.8996, 
			 "electric_dipole_moment_norm": 4.88944127074, 
			 "electric_quadrupole_moment_norm": 20.530905555, 
			 "total_energy": -872.383521999, 
			 "HOMO_LUMO_gap": 0.22277, 
			 "cosmo_polarized_energy": -12.02, 
			 "cosmo_cavitation_energy": 27.86, 
			 "cosmo_dispersion_energy": -19.41, 
			 "cosmo_repulsion_energy": 1.46, 
			 "cosmo_total_nonelectrostatic_energy": 9.91, 
			 "SMD_solvation_energy": 7.24 
		},
		"coords": [
			{
				"x": -0.7579590894,
				"y": 2.9519318708,
				"z": 1.0726856997,
				"element": "O" 
			},
			{
				"x": -0.6197141501,
				"y": 3.1138201324,
				"z": -0.2612732651,
				"element": "C" 
			},
			{
				"x": -0.2132802369,
				"y": 4.1501754518,
				"z": -0.7234000544,
				"element": "O" 
			},
			{
				"x": -1.0191923992,
				"y": 1.9095704043,
				"z": -1.1315346484,
				"element": "C" 
			},
			{
				"x": -0.1251925876,
				"y": 0.6996391457,
				"z": -0.9474831648,
				"element": "C" 
			},
			{
				"x": 0.9144077458,
				"y": 0.4288311101,
				"z": -1.8473330223,
				"element": "C" 
			},
			{
				"x": 1.743956992,
				"y": -0.6805791186,
				"z": -1.6853506049,
				"element": "C" 
			},
			{
				"x": 1.5552104231,
				"y": -1.5468995697,
				"z": -0.6076214423,
				"element": "C" 
			},
			{
				"x": 0.5358936412,
				"y": -1.2982006975,
				"z": 0.3113020725,
				"element": "C" 
			},
			{
				"x": -0.2819194586,
				"y": -0.1899977767,
				"z": 0.1208529833,
				"element": "C" 
			},
			{
				"x": -1.2630779484,
				"y": 0.1200096828,
				"z": 1.0974956231,
				"element": "O" 
			},
			{
				"x": -2.4149155012,
				"y": -0.6137530953,
				"z": 1.1082125358,
				"element": "C" 
			},
			{
				"x": -2.192306432,
				"y": -1.9061931663,
				"z": 1.3943020605,
				"element": "F" 
			},
			{
				"x": -3.0511589654,
				"y": -0.5666320603,
				"z": -0.0765223677,
				"element": "F" 
			},
			{
				"x": -3.205491016,
				"y": -0.0937367857,
				"z": 2.0442534872,
				"element": "F" 
			},
			{
				"x": -1.0962016899,
				"y": 2.0646374322,
				"z": 1.2810636497,
				"element": "H" 
			},
			{
				"x": -0.9692910099,
				"y": 2.2507711122,
				"z": -2.1657991552,
				"element": "H" 
			},
			{
				"x": -2.0592034046,
				"y": 1.6448289424,
				"z": -0.9132616783,
				"element": "H" 
			},
			{
				"x": 1.0672868476,
				"y": 1.1022853535,
				"z": -2.685599343,
				"element": "H" 
			},
			{
				"x": 2.5398685095,
				"y": -0.865794817,
				"z": -2.3999310343,
				"element": "H" 
			},
			{
				"x": 2.2011811893,
				"y": -2.4087475347,
				"z": -0.474117142,
				"element": "H" 
			},
			{
				"x": 0.3750985408,
				"y": -1.9423660164,
				"z": 1.1675588108,
				"element": "H" 
			}
		],
		 "valence_orbital": [ 
			{
				"type": "occ",
				"energy": -0.35522,
				"method": "rhf"
			},
			{
				"type": "occ",
				"energy": -0.30979,
				"method": "rhf"
			},
			{
				"type": "occ",
				"energy": -0.28625,
				"method": "rhf"
			},
			{
				"type": "occ",
				"energy": -0.27654,
				"method": "rhf"
			},
			{
				"type": "occ",
				"energy": -0.25667,
				"method": "rhf"
			},
			{
				"type": "unocc",
				"energy": -0.0339,
				"method": "rhf"
			},
			{
				"type": "unocc",
				"energy": -0.03019,
				"method": "rhf"
			},
			{
				"type": "unocc",
				"energy": 0.01641,
				"method": "rhf"
			},
			{
				"type": "unocc",
				"energy": 0.06777,
				"method": "rhf"
			},
			{
				"type": "unocc",
				"energy": 0.0893,
				"method": "rhf"
			}
		],
		"cosmo_sigma_profile": { 
			"-0.025": 0.0,
			"-0.024": 0.0,
			"-0.023": 0.0,
			"-0.022": 0.0,
			"-0.021": 0.0,
			"-0.02": 0.0,
			"-0.019": 0.0,
			"-0.018": 0.0,
			"-0.017": 0.0,
			"-0.016": 0.0,
			"-0.015": 0.0,
			"-0.014": 0.0375476366846,
			"-0.013": 0.537179178662,
			"-0.012": 0.39489971194,
			"-0.011": 0.803449725058,
			"-0.01": 1.3830511278,
			"-0.009": 1.85069316416,
			"-0.008": 2.9062269455,
			"-0.007": 10.1465574197,
			"-0.006": 13.5790455721,
			"-0.005": 13.222686407,
			"-0.004": 14.0883546476,
			"-0.003": 12.5273129759,
			"-0.002": 14.3423860598,
			"-0.001": 15.2959958103,
			"0.0": 18.8636145734,
			"0.001": 32.0350212393,
			"0.002": 25.1988828608,
			"0.003": 10.545530657,
			"0.004": 5.21223940623,
			"0.005": 2.12662396673,
			"0.006": 2.45586969303,
			"0.007": 2.30626156119,
			"0.008": 2.48266608245,
			"0.009": 3.16282469723,
			"0.01": 4.72839008071,
			"0.011": 5.87963260011,
			"0.012": 5.47551270494,
			"0.013": 1.83985530845,
			"0.014": 0.00552427322479,
			"0.015": 0.0,
			"0.016": 0.0,
			"0.017": 0.0,
			"0.018": 0.0,
			"0.019": 0.0,
			"0.02": 0.0,
			"0.021": 0.0,
			"0.022": 0.0,
			"0.023": 0.0,
			"0.024": 0.0,
			"0.025": 0.0
		}
	}
}
