{
	 "smiles": "CC1=CC=CC(C)=C1NC(=O)CN(CC(O)=O)CC(O)=O", 
	 "Tm": 487.15, 
	 "num_atms": 39, 
	 "gaussian": { 
		 "optdone": 1, 
		 "sigma_profile": "yes", 
		 "theory": "DFT", 
		 "functional": "B3LYP", 
		 "basiset": "6-31G**", 
		 "properties": { 
			 "R2extent": 7344.6036, 
			 "electric_dipole_moment_norm": 4.13882415548, 
			 "electric_quadrupole_moment_norm": 19.2554627768, 
			 "total_energy": -1029.99627908, 
			 "HOMO_LUMO_gap": 0.2047, 
			 "cosmo_polarized_energy": -26.56, 
			 "cosmo_cavitation_energy": 42.4, 
			 "cosmo_dispersion_energy": -28.11, 
			 "cosmo_repulsion_energy": 2.16, 
			 "cosmo_total_nonelectrostatic_energy": 16.45, 
			 "SMD_solvation_energy": 9.51 
		},
		"coords": [
			{
				"x": 0.754725644,
				"y": -1.7303191145,
				"z": -0.004950861,
				"element": "C" 
			},
			{
				"x": 0.7998116708,
				"y": -0.7527731069,
				"z": 1.1468976724,
				"element": "C" 
			},
			{
				"x": 1.7611700132,
				"y": -0.8858017181,
				"z": 2.153156538,
				"element": "C" 
			},
			{
				"x": 1.8112443179,
				"y": 0.0102876728,
				"z": 3.2194212563,
				"element": "C" 
			},
			{
				"x": 0.8816595295,
				"y": 1.0436526618,
				"z": 3.297710982,
				"element": "C" 
			},
			{
				"x": -0.1085204873,
				"y": 1.2090231433,
				"z": 2.3208905683,
				"element": "C" 
			},
			{
				"x": -1.1324223723,
				"y": 2.3068090455,
				"z": 2.4584821658,
				"element": "C" 
			},
			{
				"x": -0.1235044898,
				"y": 0.3098588063,
				"z": 1.2373375177,
				"element": "C" 
			},
			{
				"x": -1.1150885008,
				"y": 0.420030947,
				"z": 0.2162754416,
				"element": "N" 
			},
			{
				"x": -1.2594872819,
				"y": 1.4831847421,
				"z": -0.6325039468,
				"element": "C" 
			},
			{
				"x": -0.6702177917,
				"y": 2.5553666702,
				"z": -0.5423989348,
				"element": "O" 
			},
			{
				"x": -2.2168660618,
				"y": 1.189880804,
				"z": -1.7980991311,
				"element": "C" 
			},
			{
				"x": -1.5384349366,
				"y": 0.302028918,
				"z": -2.7501818898,
				"element": "N" 
			},
			{
				"x": -2.3900472505,
				"y": -0.645388974,
				"z": -3.4355857052,
				"element": "C" 
			},
			{
				"x": -2.8823343509,
				"y": -1.7389467875,
				"z": -2.5005474996,
				"element": "C" 
			},
			{
				"x": -3.6224486149,
				"y": -2.6417599633,
				"z": -3.1718115448,
				"element": "O" 
			},
			{
				"x": -2.6736251305,
				"y": -1.8227408393,
				"z": -1.3066428856,
				"element": "O" 
			},
			{
				"x": -0.5927505243,
				"y": 1.0105403606,
				"z": -3.5872884287,
				"element": "C" 
			},
			{
				"x": 0.5135938873,
				"y": 0.1172734431,
				"z": -4.1500255945,
				"element": "C" 
			},
			{
				"x": 1.4693868374,
				"y": 0.7824219641,
				"z": -4.8462741193,
				"element": "O" 
			},
			{
				"x": 0.5648196238,
				"y": -1.0818055305,
				"z": -4.03837687,
				"element": "O" 
			},
			{
				"x": -0.1313804226,
				"y": -2.3764811507,
				"z": 0.0419318266,
				"element": "H" 
			},
			{
				"x": 0.7174110748,
				"y": -1.2275471506,
				"z": -0.9766741359,
				"element": "H" 
			},
			{
				"x": 1.6330667136,
				"y": -2.3805688031,
				"z": 0.0089621279,
				"element": "H" 
			},
			{
				"x": 2.481233714,
				"y": -1.6974714069,
				"z": 2.0898886199,
				"element": "H" 
			},
			{
				"x": 2.5678320064,
				"y": -0.1020490886,
				"z": 3.9908625448,
				"element": "H" 
			},
			{
				"x": 0.9072522803,
				"y": 1.7330309544,
				"z": 4.1376267852,
				"element": "H" 
			},
			{
				"x": -2.1412592401,
				"y": 1.931804291,
				"z": 2.2531525287,
				"element": "H" 
			},
			{
				"x": -0.9405238679,
				"y": 3.111615324,
				"z": 1.7426415145,
				"element": "H" 
			},
			{
				"x": -1.1205160417,
				"y": 2.7212290496,
				"z": 3.4702329281,
				"element": "H" 
			},
			{
				"x": -1.521465942,
				"y": -0.4472335394,
				"z": -0.126652816,
				"element": "H" 
			},
			{
				"x": -2.5151625995,
				"y": 2.1506215998,
				"z": -2.2427427802,
				"element": "H" 
			},
			{
				"x": -3.11244518,
				"y": 0.6872448764,
				"z": -1.4276455102,
				"element": "H" 
			},
			{
				"x": -1.8122989984,
				"y": -1.1474767936,
				"z": -4.2155285631,
				"element": "H" 
			},
			{
				"x": -3.2756673155,
				"y": -0.1970967977,
				"z": -3.9243684721,
				"element": "H" 
			},
			{
				"x": -3.8999405936,
				"y": -3.3136176237,
				"z": -2.5261897863,
				"element": "H" 
			},
			{
				"x": -1.0661589614,
				"y": 1.5379322542,
				"z": -4.4417668692,
				"element": "H" 
			},
			{
				"x": -0.1219630713,
				"y": 1.7877115181,
				"z": -2.9729173015,
				"element": "H" 
			},
			{
				"x": 1.3154227142,
				"y": 1.7383293422,
				"z": -4.8157973718,
				"element": "H" 
			}
		],
		 "valence_orbital": [ 
			{
				"type": "occ",
				"energy": -0.27533,
				"method": "rhf"
			},
			{
				"type": "occ",
				"energy": -0.25813,
				"method": "rhf"
			},
			{
				"type": "occ",
				"energy": -0.23335,
				"method": "rhf"
			},
			{
				"type": "occ",
				"energy": -0.22585,
				"method": "rhf"
			},
			{
				"type": "occ",
				"energy": -0.21721,
				"method": "rhf"
			},
			{
				"type": "unocc",
				"energy": -0.01251,
				"method": "rhf"
			},
			{
				"type": "unocc",
				"energy": -0.00088,
				"method": "rhf"
			},
			{
				"type": "unocc",
				"energy": 0.00077,
				"method": "rhf"
			},
			{
				"type": "unocc",
				"energy": 0.01536,
				"method": "rhf"
			},
			{
				"type": "unocc",
				"energy": 0.02712,
				"method": "rhf"
			}
		],
		"cosmo_sigma_profile": { 
			"-0.025": 0.0,
			"-0.024": 0.0,
			"-0.023": 0.0,
			"-0.022": 0.0,
			"-0.021": 0.0,
			"-0.02": 0.254151948447,
			"-0.019": 1.61400671527,
			"-0.018": 2.18758186443,
			"-0.017": 1.8171003301,
			"-0.016": 2.07571925073,
			"-0.015": 2.14709730573,
			"-0.014": 1.80268830955,
			"-0.013": 1.67074849292,
			"-0.012": 1.98807221936,
			"-0.011": 2.26094868984,
			"-0.01": 1.75442802839,
			"-0.009": 1.51821080394,
			"-0.008": 3.84408391545,
			"-0.007": 7.97762496316,
			"-0.006": 14.2838950739,
			"-0.005": 22.094480136,
			"-0.004": 24.0339694592,
			"-0.003": 23.5477811982,
			"-0.002": 20.3819860189,
			"-0.001": 22.8690833568,
			"0.0": 22.6490751393,
			"0.001": 24.1906383361,
			"0.002": 16.4449715991,
			"0.003": 16.3358272135,
			"0.004": 16.3997727641,
			"0.005": 15.2772452827,
			"0.006": 13.7602654014,
			"0.007": 9.59140341611,
			"0.008": 7.32102390233,
			"0.009": 7.4530031883,
			"0.01": 7.51266844293,
			"0.011": 6.16845123716,
			"0.012": 4.9958970091,
			"0.013": 4.17524372324,
			"0.014": 1.7251816078,
			"0.015": 0.139220893338,
			"0.016": 0.0,
			"0.017": 0.0,
			"0.018": 0.0,
			"0.019": 0.0,
			"0.02": 0.0,
			"0.021": 0.0,
			"0.022": 0.0,
			"0.023": 0.0,
			"0.024": 0.0,
			"0.025": 0.0
		}
	}
}
