{
	 "smiles": "NCC(=O)NO", 
	 "Tm": 429.15, 
	 "num_atms": 12, 
	 "gaussian": { 
		 "optdone": 1, 
		 "sigma_profile": "yes", 
		 "theory": "DFT", 
		 "functional": "B3LYP", 
		 "basiset": "6-31G**", 
		 "properties": { 
			 "R2extent": 942.0059, 
			 "electric_dipole_moment_norm": 2.76694213528, 
			 "electric_quadrupole_moment_norm": 4.42773069981, 
			 "total_energy": -339.720590994, 
			 "HOMO_LUMO_gap": 0.2456, 
			 "cosmo_polarized_energy": -14.16, 
			 "cosmo_cavitation_energy": 16.17, 
			 "cosmo_dispersion_energy": -11.99, 
			 "cosmo_repulsion_energy": 1.08, 
			 "cosmo_total_nonelectrostatic_energy": 5.26, 
			 "SMD_solvation_energy": 3.24 
		},
		"coords": [
			{
				"x": 2.0939426118,
				"y": 2.3999912055,
				"z": -0.7120778354,
				"element": "N" 
			},
			{
				"x": 1.5576468981,
				"y": 1.1125051894,
				"z": -1.1187093131,
				"element": "C" 
			},
			{
				"x": 0.0792115592,
				"y": 0.9126217246,
				"z": -0.772605803,
				"element": "C" 
			},
			{
				"x": -0.607736527,
				"y": 1.7693302419,
				"z": -0.240106604,
				"element": "O" 
			},
			{
				"x": -0.4548023858,
				"y": -0.3436530461,
				"z": -1.0258123836,
				"element": "N" 
			},
			{
				"x": 0.1732344999,
				"y": -1.1087097212,
				"z": -2.0345323581,
				"element": "O" 
			},
			{
				"x": 1.918143657,
				"y": 2.5268925983,
				"z": 0.2827646032,
				"element": "H" 
			},
			{
				"x": 1.5488354824,
				"y": 3.1343060923,
				"z": -1.1591859848,
				"element": "H" 
			},
			{
				"x": 1.6805710666,
				"y": 0.9799521205,
				"z": -2.1995347527,
				"element": "H" 
			},
			{
				"x": 2.1401558759,
				"y": 0.3046568771,
				"z": -0.658610634,
				"element": "H" 
			},
			{
				"x": -1.4657696117,
				"y": -0.3528890668,
				"z": -1.132449832,
				"element": "H" 
			},
			{
				"x": 0.5094668737,
				"y": -1.8857042154,
				"z": -1.5636391024,
				"element": "H" 
			}
		],
		 "valence_orbital": [ 
			{
				"type": "occ",
				"energy": -0.35928,
				"method": "rhf"
			},
			{
				"type": "occ",
				"energy": -0.33343,
				"method": "rhf"
			},
			{
				"type": "occ",
				"energy": -0.27449,
				"method": "rhf"
			},
			{
				"type": "occ",
				"energy": -0.26423,
				"method": "rhf"
			},
			{
				"type": "occ",
				"energy": -0.23954,
				"method": "rhf"
			},
			{
				"type": "unocc",
				"energy": 0.00606,
				"method": "rhf"
			},
			{
				"type": "unocc",
				"energy": 0.05409,
				"method": "rhf"
			},
			{
				"type": "unocc",
				"energy": 0.08986,
				"method": "rhf"
			},
			{
				"type": "unocc",
				"energy": 0.09753,
				"method": "rhf"
			},
			{
				"type": "unocc",
				"energy": 0.12942,
				"method": "rhf"
			}
		],
		"cosmo_sigma_profile": { 
			"-0.025": 0.0,
			"-0.024": 0.0,
			"-0.023": 0.0,
			"-0.022": 0.0,
			"-0.021": 0.0,
			"-0.02": 0.0,
			"-0.019": 0.0,
			"-0.018": 0.151297714238,
			"-0.017": 1.26951068241,
			"-0.016": 0.827242597872,
			"-0.015": 1.0965164539,
			"-0.014": 2.22604552577,
			"-0.013": 1.32965233551,
			"-0.012": 2.05988120362,
			"-0.011": 1.75047615331,
			"-0.01": 2.63806021318,
			"-0.009": 3.93218317681,
			"-0.008": 3.76531714991,
			"-0.007": 4.62329153964,
			"-0.006": 7.19913105706,
			"-0.005": 9.9289864812,
			"-0.004": 7.30727794061,
			"-0.003": 6.23290549864,
			"-0.002": 5.26335405361,
			"-0.001": 5.34594639164,
			"0.0": 3.44687045866,
			"0.001": 3.88300041119,
			"0.002": 4.70102623855,
			"0.003": 4.35342494879,
			"0.004": 3.7120439607,
			"0.005": 3.8408611694,
			"0.006": 4.4539782785,
			"0.007": 3.11274069264,
			"0.008": 3.52462849868,
			"0.009": 3.12826483122,
			"0.01": 3.45281737159,
			"0.011": 2.94322447818,
			"0.012": 4.35915733678,
			"0.013": 5.76567427636,
			"0.014": 1.06711569197,
			"0.015": 0.351810530532,
			"0.016": 0.748460185504,
			"0.017": 0.969147216726,
			"0.018": 0.543071706039,
			"0.019": 0.457593516078,
			"0.02": 0.0,
			"0.021": 0.0,
			"0.022": 0.0,
			"0.023": 0.0,
			"0.024": 0.0,
			"0.025": 0.0
		}
	}
}
