{
	 "smiles": "OC(=O)CSCC1=CC=C(Cl)C=C1", 
	 "Tm": 331.15, 
	 "num_atms": 22, 
	 "gaussian": { 
		 "optdone": 1, 
		 "sigma_profile": "yes", 
		 "theory": "DFT", 
		 "functional": "B3LYP", 
		 "basiset": "6-31G**", 
		 "properties": { 
			 "R2extent": 4479.6067, 
			 "electric_dipole_moment_norm": 3.41826117346, 
			 "electric_quadrupole_moment_norm": 10.0611018532, 
			 "total_energy": -1357.2225071, 
			 "HOMO_LUMO_gap": 0.21388, 
			 "cosmo_polarized_energy": -13.65, 
			 "cosmo_cavitation_energy": 29.5, 
			 "cosmo_dispersion_energy": -21.44, 
			 "cosmo_repulsion_energy": 1.66, 
			 "cosmo_total_nonelectrostatic_energy": 9.73, 
			 "SMD_solvation_energy": 5.25 
		},
		"coords": [
			{
				"x": -3.8887292129,
				"y": -1.6572356281,
				"z": -0.0749690475,
				"element": "O" 
			},
			{
				"x": -3.2383884532,
				"y": -0.8365976032,
				"z": -0.9232710037,
				"element": "C" 
			},
			{
				"x": -2.7839354512,
				"y": -1.2329304718,
				"z": -1.9686505096,
				"element": "O" 
			},
			{
				"x": -3.1316109139,
				"y": 0.6317102157,
				"z": -0.4934312132,
				"element": "C" 
			},
			{
				"x": -3.0169473287,
				"y": 0.9004670245,
				"z": 1.312464748,
				"element": "S" 
			},
			{
				"x": -1.3813903315,
				"y": 0.0864537341,
				"z": 1.6596044837,
				"element": "C" 
			},
			{
				"x": -0.2049786311,
				"y": 0.7415562283,
				"z": 0.9862969916,
				"element": "C" 
			},
			{
				"x": 0.3068020718,
				"y": 0.229573065,
				"z": -0.2139739757,
				"element": "C" 
			},
			{
				"x": 1.3947932749,
				"y": 0.8326676943,
				"z": -0.8474960752,
				"element": "C" 
			},
			{
				"x": 1.9768966172,
				"y": 1.958783724,
				"z": -0.2697717442,
				"element": "C" 
			},
			{
				"x": 3.3507873763,
				"y": 2.7228234144,
				"z": -1.0534511653,
				"element": "Cl" 
			},
			{
				"x": 1.4867602743,
				"y": 2.4899921336,
				"z": 0.9246849679,
				"element": "C" 
			},
			{
				"x": 0.3985543601,
				"y": 1.8787782577,
				"z": 1.5419636913,
				"element": "C" 
			},
			{
				"x": -4.1087017968,
				"y": -1.1548211018,
				"z": 0.7333968764,
				"element": "H" 
			},
			{
				"x": -2.284937328,
				"y": 1.0802854236,
				"z": -1.0147098752,
				"element": "H" 
			},
			{
				"x": -4.0400815908,
				"y": 1.155737714,
				"z": -0.8103266088,
				"element": "H" 
			},
			{
				"x": -1.4633692491,
				"y": -0.967772274,
				"z": 1.3811416394,
				"element": "H" 
			},
			{
				"x": -1.2983623754,
				"y": 0.1383065842,
				"z": 2.7486190952,
				"element": "H" 
			},
			{
				"x": -0.1475300445,
				"y": -0.6474012027,
				"z": -0.6675597569,
				"element": "H" 
			},
			{
				"x": 1.785520412,
				"y": 0.4313509768,
				"z": -1.7758283638,
				"element": "H" 
			},
			{
				"x": 1.9537580198,
				"y": 3.3653870141,
				"z": 1.3621348642,
				"element": "H" 
			},
			{
				"x": 0.0131903006,
				"y": 2.2933850774,
				"z": 2.4697319815,
				"element": "H" 
			}
		],
		 "valence_orbital": [ 
			{
				"type": "occ",
				"energy": -0.31786,
				"method": "rhf"
			},
			{
				"type": "occ",
				"energy": -0.28748,
				"method": "rhf"
			},
			{
				"type": "occ",
				"energy": -0.27399,
				"method": "rhf"
			},
			{
				"type": "occ",
				"energy": -0.25696,
				"method": "rhf"
			},
			{
				"type": "occ",
				"energy": -0.24883,
				"method": "rhf"
			},
			{
				"type": "unocc",
				"energy": -0.03495,
				"method": "rhf"
			},
			{
				"type": "unocc",
				"energy": -0.02443,
				"method": "rhf"
			},
			{
				"type": "unocc",
				"energy": -0.00938,
				"method": "rhf"
			},
			{
				"type": "unocc",
				"energy": 0.02317,
				"method": "rhf"
			},
			{
				"type": "unocc",
				"energy": 0.02338,
				"method": "rhf"
			}
		],
		"cosmo_sigma_profile": { 
			"-0.025": 0.0,
			"-0.024": 0.0,
			"-0.023": 0.0,
			"-0.022": 0.0,
			"-0.021": 0.0,
			"-0.02": 0.0,
			"-0.019": 0.0,
			"-0.018": 0.0,
			"-0.017": 0.0,
			"-0.016": 0.0,
			"-0.015": 0.0,
			"-0.014": 0.17522529494,
			"-0.013": 0.607289163789,
			"-0.012": 0.936335797017,
			"-0.011": 1.46270165144,
			"-0.01": 2.93691894909,
			"-0.009": 4.30638765872,
			"-0.008": 5.41070484573,
			"-0.007": 12.983306025,
			"-0.006": 15.0415084368,
			"-0.005": 16.9290016603,
			"-0.004": 11.9246501581,
			"-0.003": 12.7069792599,
			"-0.002": 12.5421808951,
			"-0.001": 10.7539152619,
			"0.0": 13.8556116728,
			"0.001": 15.3870057883,
			"0.002": 19.8362912441,
			"0.003": 19.9747102697,
			"0.004": 19.8636466782,
			"0.005": 11.1417384627,
			"0.006": 4.52043319884,
			"0.007": 2.80037275887,
			"0.008": 4.0330129816,
			"0.009": 4.22680131079,
			"0.01": 4.94195406835,
			"0.011": 4.10703285125,
			"0.012": 4.74323097554,
			"0.013": 1.08642782608,
			"0.014": 0.0,
			"0.015": 0.0,
			"0.016": 0.0,
			"0.017": 0.0,
			"0.018": 0.0,
			"0.019": 0.0,
			"0.02": 0.0,
			"0.021": 0.0,
			"0.022": 0.0,
			"0.023": 0.0,
			"0.024": 0.0,
			"0.025": 0.0
		}
	}
}
