{
	 "smiles": "OCC1=NC=CN1CC1=CC=CC=C1", 
	 "Tm": 368.65, 
	 "num_atms": 26, 
	 "gaussian": { 
		 "optdone": 1, 
		 "sigma_profile": "yes", 
		 "theory": "DFT", 
		 "functional": "B3LYP", 
		 "basiset": "6-31G**", 
		 "properties": { 
			 "R2extent": 3439.0253, 
			 "electric_dipole_moment_norm": 2.66113915081, 
			 "electric_quadrupole_moment_norm": 11.216627416, 
			 "total_energy": -611.114666665, 
			 "HOMO_LUMO_gap": 0.21087, 
			 "cosmo_polarized_energy": -12.97, 
			 "cosmo_cavitation_energy": 29.57, 
			 "cosmo_dispersion_energy": -20.8, 
			 "cosmo_repulsion_energy": 1.64, 
			 "cosmo_total_nonelectrostatic_energy": 10.4, 
			 "SMD_solvation_energy": 3.65 
		},
		"coords": [
			{
				"x": 0.8998836144,
				"y": 2.7670497778,
				"z": 1.8854648423,
				"element": "O" 
			},
			{
				"x": 1.7354967471,
				"y": 1.6943554897,
				"z": 1.4352742942,
				"element": "C" 
			},
			{
				"x": 2.2179772574,
				"y": 1.8784968112,
				"z": 0.0297025921,
				"element": "C" 
			},
			{
				"x": 3.4831797546,
				"y": 2.0237296558,
				"z": -0.3268933118,
				"element": "N" 
			},
			{
				"x": 3.4649975236,
				"y": 2.1961635067,
				"z": -1.6900094507,
				"element": "C" 
			},
			{
				"x": 2.1748358241,
				"y": 2.1655464442,
				"z": -2.1608613271,
				"element": "C" 
			},
			{
				"x": 1.3758032116,
				"y": 1.9640307605,
				"z": -1.0531233101,
				"element": "N" 
			},
			{
				"x": -0.078987728,
				"y": 1.8357911669,
				"z": -1.0350257451,
				"element": "C" 
			},
			{
				"x": -0.5840225322,
				"y": 0.4017218857,
				"z": -0.9795295803,
				"element": "C" 
			},
			{
				"x": 0.1001941645,
				"y": -0.6458587314,
				"z": -1.607751671,
				"element": "C" 
			},
			{
				"x": -0.4125684056,
				"y": -1.9434405911,
				"z": -1.5766003643,
				"element": "C" 
			},
			{
				"x": -1.6158923375,
				"y": -2.20970201,
				"z": -0.9203400646,
				"element": "C" 
			},
			{
				"x": -2.3018349304,
				"y": -1.1709111115,
				"z": -0.288987736,
				"element": "C" 
			},
			{
				"x": -1.7854043057,
				"y": 0.1253423824,
				"z": -0.3153762273,
				"element": "C" 
			},
			{
				"x": 1.4256264075,
				"y": 3.5767207726,
				"z": 1.8307695655,
				"element": "H" 
			},
			{
				"x": 2.6222851647,
				"y": 1.5679420228,
				"z": 2.0678904632,
				"element": "H" 
			},
			{
				"x": 1.1185006838,
				"y": 0.7949256722,
				"z": 1.5293898021,
				"element": "H" 
			},
			{
				"x": 4.3756225001,
				"y": 2.3406781354,
				"z": -2.2550091778,
				"element": "H" 
			},
			{
				"x": 1.7545578698,
				"y": 2.2796558382,
				"z": -3.1491035333,
				"element": "H" 
			},
			{
				"x": -0.4555671521,
				"y": 2.3345480651,
				"z": -1.9353761547,
				"element": "H" 
			},
			{
				"x": -0.4494485407,
				"y": 2.3952940672,
				"z": -0.1722901208,
				"element": "H" 
			},
			{
				"x": 1.04072959,
				"y": -0.4473930276,
				"z": -2.1134850492,
				"element": "H" 
			},
			{
				"x": 0.1307190593,
				"y": -2.747729091,
				"z": -2.06452594,
				"element": "H" 
			},
			{
				"x": -2.0126740604,
				"y": -3.220470474,
				"z": -0.8958893855,
				"element": "H" 
			},
			{
				"x": -3.233483364,
				"y": -1.3697468992,
				"z": 0.2330208541,
				"element": "H" 
			},
			{
				"x": -2.3177260156,
				"y": 0.9291594815,
				"z": 0.187665736,
				"element": "H" 
			}
		],
		 "valence_orbital": [ 
			{
				"type": "occ",
				"energy": -0.26875,
				"method": "rhf"
			},
			{
				"type": "occ",
				"energy": -0.26241,
				"method": "rhf"
			},
			{
				"type": "occ",
				"energy": -0.2554,
				"method": "rhf"
			},
			{
				"type": "occ",
				"energy": -0.24902,
				"method": "rhf"
			},
			{
				"type": "occ",
				"energy": -0.22065,
				"method": "rhf"
			},
			{
				"type": "unocc",
				"energy": -0.00978,
				"method": "rhf"
			},
			{
				"type": "unocc",
				"energy": -0.00747,
				"method": "rhf"
			},
			{
				"type": "unocc",
				"energy": 0.01638,
				"method": "rhf"
			},
			{
				"type": "unocc",
				"energy": 0.06695,
				"method": "rhf"
			},
			{
				"type": "unocc",
				"energy": 0.09273,
				"method": "rhf"
			}
		],
		"cosmo_sigma_profile": { 
			"-0.025": 0.0,
			"-0.024": 0.0,
			"-0.023": 0.0,
			"-0.022": 0.0,
			"-0.021": 0.0,
			"-0.02": 0.0,
			"-0.019": 0.0,
			"-0.018": 0.0,
			"-0.017": 0.0,
			"-0.016": 0.471867565584,
			"-0.015": 0.905985749337,
			"-0.014": 1.07518338741,
			"-0.013": 0.974098480213,
			"-0.012": 0.904914392514,
			"-0.011": 0.57732939991,
			"-0.01": 0.621562666619,
			"-0.009": 1.41497465238,
			"-0.008": 4.34699833071,
			"-0.007": 5.5664617113,
			"-0.006": 11.6238841581,
			"-0.005": 18.6487360062,
			"-0.004": 21.5609050368,
			"-0.003": 21.3923948896,
			"-0.002": 16.8858309377,
			"-0.001": 15.2102806298,
			"0.0": 14.5901436983,
			"0.001": 14.426481707,
			"0.002": 10.6472121484,
			"0.003": 13.4967819881,
			"0.004": 13.0171021438,
			"0.005": 13.2799363314,
			"0.006": 11.0736035071,
			"0.007": 2.80408717444,
			"0.008": 2.12273327998,
			"0.009": 2.10179272125,
			"0.01": 3.08580206994,
			"0.011": 2.3278350909,
			"0.012": 1.80735966786,
			"0.013": 2.0192001894,
			"0.014": 2.36937632026,
			"0.015": 1.27356897282,
			"0.016": 0.900891753276,
			"0.017": 0.613794815731,
			"0.018": 1.04508210255,
			"0.019": 0.0466679844019,
			"0.02": 0.0,
			"0.021": 0.0,
			"0.022": 0.0,
			"0.023": 0.0,
			"0.024": 0.0,
			"0.025": 0.0
		}
	}
}
