{
	 "smiles": "CN1CCC2=C(C1)SC(N)=C2C#N", 
	 "Tm": 466.15, 
	 "num_atms": 24, 
	 "gaussian": { 
		 "optdone": 1, 
		 "sigma_profile": "yes", 
		 "theory": "DFT", 
		 "functional": "B3LYP", 
		 "basiset": "6-31G**", 
		 "properties": { 
			 "R2extent": 2821.5861, 
			 "electric_dipole_moment_norm": 3.52762845124, 
			 "electric_quadrupole_moment_norm": 18.9216836894, 
			 "total_energy": -911.995638644, 
			 "HOMO_LUMO_gap": 0.18331, 
			 "cosmo_polarized_energy": -13.87, 
			 "cosmo_cavitation_energy": 28.58, 
			 "cosmo_dispersion_energy": -20.91, 
			 "cosmo_repulsion_energy": 1.61, 
			 "cosmo_total_nonelectrostatic_energy": 9.29, 
			 "SMD_solvation_energy": 2.4 
		},
		"coords": [
			{
				"x": 0.885888172,
				"y": 2.8884735479,
				"z": 2.2798255217,
				"element": "C" 
			},
			{
				"x": -0.4454267306,
				"y": 2.5951102253,
				"z": 1.7546643059,
				"element": "N" 
			},
			{
				"x": -1.0271432673,
				"y": 1.3639723272,
				"z": 2.3000280671,
				"element": "C" 
			},
			{
				"x": -0.282097593,
				"y": 0.0718530195,
				"z": 1.8913862728,
				"element": "C" 
			},
			{
				"x": 0.0666203397,
				"y": 0.120552494,
				"z": 0.4263732155,
				"element": "C" 
			},
			{
				"x": -0.0205951263,
				"y": 1.2781387245,
				"z": -0.282639599,
				"element": "C" 
			},
			{
				"x": -0.4998004918,
				"y": 2.5933478931,
				"z": 0.2911264101,
				"element": "C" 
			},
			{
				"x": 0.4430180032,
				"y": 1.0436162461,
				"z": -1.9684820376,
				"element": "S" 
			},
			{
				"x": 0.7926545018,
				"y": -0.6468726017,
				"z": -1.6884223614,
				"element": "C" 
			},
			{
				"x": 1.1762558621,
				"y": -1.4775482525,
				"z": -2.7141218364,
				"element": "N" 
			},
			{
				"x": 0.5440880576,
				"y": -0.9916093889,
				"z": -0.3678962124,
				"element": "C" 
			},
			{
				"x": 0.768681994,
				"y": -2.3086174582,
				"z": 0.1088199853,
				"element": "C" 
			},
			{
				"x": 0.9723631916,
				"y": -3.4019968894,
				"z": 0.4614574963,
				"element": "N" 
			},
			{
				"x": 1.6690731987,
				"y": 2.1722572326,
				"z": 1.9783052515,
				"element": "H" 
			},
			{
				"x": 1.1955662307,
				"y": 3.8837900307,
				"z": 1.9447433244,
				"element": "H" 
			},
			{
				"x": 0.8425514368,
				"y": 2.9038654842,
				"z": 3.3736555485,
				"element": "H" 
			},
			{
				"x": -2.0636272246,
				"y": 1.3066468726,
				"z": 1.9452378681,
				"element": "H" 
			},
			{
				"x": -1.0636835022,
				"y": 1.4494006713,
				"z": 3.3912744626,
				"element": "H" 
			},
			{
				"x": 0.6328982624,
				"y": -0.0545364544,
				"z": 2.4862534669,
				"element": "H" 
			},
			{
				"x": -0.9048764558,
				"y": -0.8040994573,
				"z": 2.1104912428,
				"element": "H" 
			},
			{
				"x": 0.0973447195,
				"y": 3.4324183181,
				"z": -0.0841199736,
				"element": "H" 
			},
			{
				"x": -1.5375057427,
				"y": 2.783511229,
				"z": -0.0209694395,
				"element": "H" 
			},
			{
				"x": 1.7266571154,
				"y": -1.0708136961,
				"z": -3.4569351141,
				"element": "H" 
			},
			{
				"x": 1.5014950487,
				"y": -2.3907601172,
				"z": -2.4218558656,
				"element": "H" 
			}
		],
		 "valence_orbital": [ 
			{
				"type": "occ",
				"energy": -0.32296,
				"method": "rhf"
			},
			{
				"type": "occ",
				"energy": -0.31385,
				"method": "rhf"
			},
			{
				"type": "occ",
				"energy": -0.25229,
				"method": "rhf"
			},
			{
				"type": "occ",
				"energy": -0.21696,
				"method": "rhf"
			},
			{
				"type": "occ",
				"energy": -0.20554,
				"method": "rhf"
			},
			{
				"type": "unocc",
				"energy": -0.02223,
				"method": "rhf"
			},
			{
				"type": "unocc",
				"energy": -0.00406,
				"method": "rhf"
			},
			{
				"type": "unocc",
				"energy": 0.01878,
				"method": "rhf"
			},
			{
				"type": "unocc",
				"energy": 0.04479,
				"method": "rhf"
			},
			{
				"type": "unocc",
				"energy": 0.06337,
				"method": "rhf"
			}
		],
		"cosmo_sigma_profile": { 
			"-0.025": 0.0,
			"-0.024": 0.0,
			"-0.023": 0.0,
			"-0.022": 0.0,
			"-0.021": 0.0,
			"-0.02": 0.0,
			"-0.019": 0.0,
			"-0.018": 0.0,
			"-0.017": 0.0,
			"-0.016": 0.0,
			"-0.015": 0.794613015728,
			"-0.014": 2.11678972564,
			"-0.013": 2.34853718054,
			"-0.012": 2.76097162923,
			"-0.011": 2.72258591158,
			"-0.01": 1.9340426017,
			"-0.009": 1.69497531816,
			"-0.008": 2.43713339451,
			"-0.007": 1.9472480837,
			"-0.006": 3.37568133483,
			"-0.005": 7.28200829826,
			"-0.004": 21.444194893,
			"-0.003": 23.4765861047,
			"-0.002": 24.1236546814,
			"-0.001": 22.0035097567,
			"0.0": 16.4929426377,
			"0.001": 13.878759905,
			"0.002": 14.917163702,
			"0.003": 14.1317666679,
			"0.004": 10.0893784876,
			"0.005": 5.13135390357,
			"0.006": 2.72272995641,
			"0.007": 3.84225928878,
			"0.008": 4.1219367042,
			"0.009": 4.85479775435,
			"0.01": 3.87756250614,
			"0.011": 4.41351523614,
			"0.012": 3.74447053985,
			"0.013": 2.70837063934,
			"0.014": 1.75449510391,
			"0.015": 0.590817748973,
			"0.016": 0.363705801685,
			"0.017": 0.0656489456726,
			"0.018": 0.0,
			"0.019": 0.0,
			"0.02": 0.0,
			"0.021": 0.0,
			"0.022": 0.0,
			"0.023": 0.0,
			"0.024": 0.0,
			"0.025": 0.0
		}
	}
}
