{
	 "smiles": "CC(=C)C1CCC(=CC1)C(O)=O", 
	 "Tm": 405.15, 
	 "num_atms": 26, 
	 "gaussian": { 
		 "optdone": 1, 
		 "sigma_profile": "yes", 
		 "theory": "DFT", 
		 "functional": "B3LYP", 
		 "basiset": "6-31G**", 
		 "properties": { 
			 "R2extent": 2899.0032, 
			 "electric_dipole_moment_norm": 2.02328704093, 
			 "electric_quadrupole_moment_norm": 7.37493874076, 
			 "total_energy": -539.945452233, 
			 "HOMO_LUMO_gap": 0.21122, 
			 "cosmo_polarized_energy": -9.06, 
			 "cosmo_cavitation_energy": 28.16, 
			 "cosmo_dispersion_energy": -20.28, 
			 "cosmo_repulsion_energy": 1.62, 
			 "cosmo_total_nonelectrostatic_energy": 9.5, 
			 "SMD_solvation_energy": 6.28 
		},
		"coords": [
			{
				"x": -1.8859173797,
				"y": 2.7665510371,
				"z": 2.1283590025,
				"element": "C" 
			},
			{
				"x": -1.0015510208,
				"y": 1.5975881165,
				"z": 2.4971931201,
				"element": "C" 
			},
			{
				"x": -0.7110867919,
				"y": 1.3339846506,
				"z": 3.7758441465,
				"element": "C" 
			},
			{
				"x": -0.4901953889,
				"y": 0.7781526674,
				"z": 1.3207292858,
				"element": "C" 
			},
			{
				"x": -1.5747670148,
				"y": -0.1690771042,
				"z": 0.7546663,
				"element": "C" 
			},
			{
				"x": -1.1348745379,
				"y": -0.7996320684,
				"z": -0.5751914985,
				"element": "C" 
			},
			{
				"x": 0.2952254031,
				"y": -1.2912855671,
				"z": -0.523040808,
				"element": "C" 
			},
			{
				"x": 1.1417058418,
				"y": -0.9514362654,
				"z": 0.4636959006,
				"element": "C" 
			},
			{
				"x": 0.781099226,
				"y": -0.0402552047,
				"z": 1.6014291146,
				"element": "C" 
			},
			{
				"x": 0.8159913597,
				"y": -2.1807258614,
				"z": -1.5952542716,
				"element": "C" 
			},
			{
				"x": -0.1154478929,
				"y": -2.4313585306,
				"z": -2.5546482535,
				"element": "O" 
			},
			{
				"x": 1.9358142431,
				"y": -2.6521266364,
				"z": -1.6568354062,
				"element": "O" 
			},
			{
				"x": -2.2658349084,
				"y": 3.2804529938,
				"z": 3.0150782342,
				"element": "H" 
			},
			{
				"x": -1.3329486014,
				"y": 3.4961407572,
				"z": 1.5222609552,
				"element": "H" 
			},
			{
				"x": -2.7469662265,
				"y": 2.451702792,
				"z": 1.5262777058,
				"element": "H" 
			},
			{
				"x": -0.0660417029,
				"y": 0.51618702,
				"z": 4.0789462348,
				"element": "H" 
			},
			{
				"x": -1.1173128126,
				"y": 1.9430767334,
				"z": 4.5785616137,
				"element": "H" 
			},
			{
				"x": -0.2424404839,
				"y": 1.4913068805,
				"z": 0.518524062,
				"element": "H" 
			},
			{
				"x": -1.7660992143,
				"y": -0.9557415261,
				"z": 1.4958556446,
				"element": "H" 
			},
			{
				"x": -2.5210881397,
				"y": 0.3624641826,
				"z": 0.6111086726,
				"element": "H" 
			},
			{
				"x": -1.2401249852,
				"y": -0.0730441535,
				"z": -1.393393524,
				"element": "H" 
			},
			{
				"x": -1.8006220072,
				"y": -1.6288529249,
				"z": -0.8377843515,
				"element": "H" 
			},
			{
				"x": 2.1475018761,
				"y": -1.3643324906,
				"z": 0.4359290171,
				"element": "H" 
			},
			{
				"x": 1.623695142,
				"y": 0.6257500293,
				"z": 1.8259089136,
				"element": "H" 
			},
			{
				"x": 0.6500721036,
				"y": -0.6576038018,
				"z": 2.5024302437,
				"element": "H" 
			},
			{
				"x": 0.3247139134,
				"y": -3.0099857253,
				"z": -3.1989500542,
				"element": "H" 
			}
		],
		 "valence_orbital": [ 
			{
				"type": "occ",
				"energy": -0.31563,
				"method": "rhf"
			},
			{
				"type": "occ",
				"energy": -0.31329,
				"method": "rhf"
			},
			{
				"type": "occ",
				"energy": -0.26794,
				"method": "rhf"
			},
			{
				"type": "occ",
				"energy": -0.25388,
				"method": "rhf"
			},
			{
				"type": "occ",
				"energy": -0.24567,
				"method": "rhf"
			},
			{
				"type": "unocc",
				"energy": -0.03445,
				"method": "rhf"
			},
			{
				"type": "unocc",
				"energy": 0.02177,
				"method": "rhf"
			},
			{
				"type": "unocc",
				"energy": 0.0757,
				"method": "rhf"
			},
			{
				"type": "unocc",
				"energy": 0.08313,
				"method": "rhf"
			},
			{
				"type": "unocc",
				"energy": 0.09441,
				"method": "rhf"
			}
		],
		"cosmo_sigma_profile": { 
			"-0.025": 0.0,
			"-0.024": 0.0,
			"-0.023": 0.0,
			"-0.022": 0.0,
			"-0.021": 0.0,
			"-0.02": 0.0,
			"-0.019": 0.0,
			"-0.018": 0.368336618085,
			"-0.017": 0.987618430189,
			"-0.016": 0.997870433571,
			"-0.015": 0.483671474568,
			"-0.014": 0.502787075098,
			"-0.013": 0.489329521201,
			"-0.012": 0.754001176101,
			"-0.011": 0.998242644636,
			"-0.01": 1.2665652538,
			"-0.009": 0.439407582065,
			"-0.008": 0.163702260129,
			"-0.007": 0.743329811767,
			"-0.006": 1.45038896565,
			"-0.005": 5.07092225641,
			"-0.004": 15.6701457845,
			"-0.003": 28.8000853493,
			"-0.002": 31.3325345593,
			"-0.001": 27.9488394466,
			"0.0": 23.2123957204,
			"0.001": 15.9931532404,
			"0.002": 11.5631430543,
			"0.003": 9.93330481951,
			"0.004": 7.43425100697,
			"0.005": 5.75840165495,
			"0.006": 6.18221451928,
			"0.007": 4.96171582489,
			"0.008": 2.53652723559,
			"0.009": 2.44730253091,
			"0.01": 2.4696572356,
			"0.011": 1.80551890369,
			"0.012": 5.41269986264,
			"0.013": 1.92636812077,
			"0.014": 0.0,
			"0.015": 0.0,
			"0.016": 0.0,
			"0.017": 0.0,
			"0.018": 0.0,
			"0.019": 0.0,
			"0.02": 0.0,
			"0.021": 0.0,
			"0.022": 0.0,
			"0.023": 0.0,
			"0.024": 0.0,
			"0.025": 0.0
		}
	}
}
