{
	 "smiles": "NC1=C(O)C=CC(=C1)S(=O)(=O)NC1=C(Cl)C=CC=C1", 
	 "Tm": 469.15, 
	 "num_atms": 30, 
	 "gaussian": { 
		 "optdone": 1, 
		 "sigma_profile": "yes", 
		 "theory": "DFT", 
		 "functional": "B3LYP", 
		 "basiset": "6-31G**", 
		 "properties": { 
			 "R2extent": 6858.1898, 
			 "electric_dipole_moment_norm": 5.03406452978, 
			 "electric_quadrupole_moment_norm": 19.822572241, 
			 "total_energy": -1657.39115553, 
			 "HOMO_LUMO_gap": 0.19742, 
			 "cosmo_polarized_energy": -18.18, 
			 "cosmo_cavitation_energy": 37.43, 
			 "cosmo_dispersion_energy": -27.25, 
			 "cosmo_repulsion_energy": 2.09, 
			 "cosmo_total_nonelectrostatic_energy": 12.26, 
			 "SMD_solvation_energy": 5.89 
		},
		"coords": [
			{
				"x": 3.3714290208,
				"y": -0.997048866,
				"z": -3.6907815596,
				"element": "N" 
			},
			{
				"x": 2.8092756094,
				"y": -0.2658275395,
				"z": -2.583851409,
				"element": "C" 
			},
			{
				"x": 2.9242910632,
				"y": 1.1374983902,
				"z": -2.6806141824,
				"element": "C" 
			},
			{
				"x": 3.5158130314,
				"y": 1.6744015055,
				"z": -3.7624569767,
				"element": "O" 
			},
			{
				"x": 2.425609891,
				"y": 1.9632688716,
				"z": -1.6625905812,
				"element": "C" 
			},
			{
				"x": 1.8100438795,
				"y": 1.3931317995,
				"z": -0.5567996312,
				"element": "C" 
			},
			{
				"x": 1.6785707016,
				"y": 0.0011539837,
				"z": -0.4742633048,
				"element": "C" 
			},
			{
				"x": 2.1841012398,
				"y": -0.8311617669,
				"z": -1.4763588964,
				"element": "C" 
			},
			{
				"x": 0.9537072473,
				"y": -0.7429978886,
				"z": 0.9748468675,
				"element": "S" 
			},
			{
				"x": 1.6142108986,
				"y": -0.2231562872,
				"z": 2.1742363163,
				"element": "O" 
			},
			{
				"x": 0.8417225178,
				"y": -2.1810466933,
				"z": 0.7209832347,
				"element": "O" 
			},
			{
				"x": -0.5885838062,
				"y": -0.0233335618,
				"z": 1.0639678929,
				"element": "N" 
			},
			{
				"x": -1.7525400096,
				"y": -0.5151196588,
				"z": 0.4456950594,
				"element": "C" 
			},
			{
				"x": -3.0065569647,
				"y": -0.3157772193,
				"z": 1.0525993788,
				"element": "C" 
			},
			{
				"x": -3.0983479081,
				"y": 0.4940363191,
				"z": 2.6167804509,
				"element": "Cl" 
			},
			{
				"x": -4.1868815503,
				"y": -0.7369083399,
				"z": 0.4463128195,
				"element": "C" 
			},
			{
				"x": -4.1394120604,
				"y": -1.3816424941,
				"z": -0.7881261604,
				"element": "C" 
			},
			{
				"x": -2.9051204505,
				"y": -1.5891122073,
				"z": -1.4048070845,
				"element": "C" 
			},
			{
				"x": -1.7274514824,
				"y": -1.1566186843,
				"z": -0.8024493058,
				"element": "C" 
			},
			{
				"x": 2.7038748646,
				"y": -1.651376702,
				"z": -4.0892298374,
				"element": "H" 
			},
			{
				"x": 4.1906721148,
				"y": -1.5305531175,
				"z": -3.4096311597,
				"element": "H" 
			},
			{
				"x": 3.7415590568,
				"y": 0.9013286264,
				"z": -4.3234051158,
				"element": "H" 
			},
			{
				"x": 2.5290629949,
				"y": 3.0384276306,
				"z": -1.75866603,
				"element": "H" 
			},
			{
				"x": 1.4232727315,
				"y": 2.0227372352,
				"z": 0.2372388527,
				"element": "H" 
			},
			{
				"x": 2.086965634,
				"y": -1.9078859552,
				"z": -1.379237108,
				"element": "H" 
			},
			{
				"x": -0.7183399982,
				"y": 0.3490728418,
				"z": 2.0003993738,
				"element": "H" 
			},
			{
				"x": -5.1309974909,
				"y": -0.5602355786,
				"z": 0.9496850271,
				"element": "H" 
			},
			{
				"x": -5.058124859,
				"y": -1.7155967695,
				"z": -1.2590794275,
				"element": "H" 
			},
			{
				"x": -2.8539062863,
				"y": -2.0882588719,
				"z": -2.3675891406,
				"element": "H" 
			},
			{
				"x": -0.7778196301,
				"y": -1.3186990021,
				"z": -1.2963083626,
				"element": "H" 
			}
		],
		 "valence_orbital": [ 
			{
				"type": "occ",
				"energy": -0.29483,
				"method": "rhf"
			},
			{
				"type": "occ",
				"energy": -0.2742,
				"method": "rhf"
			},
			{
				"type": "occ",
				"energy": -0.25593,
				"method": "rhf"
			},
			{
				"type": "occ",
				"energy": -0.24358,
				"method": "rhf"
			},
			{
				"type": "occ",
				"energy": -0.22834,
				"method": "rhf"
			},
			{
				"type": "unocc",
				"energy": -0.03092,
				"method": "rhf"
			},
			{
				"type": "unocc",
				"energy": -0.02867,
				"method": "rhf"
			},
			{
				"type": "unocc",
				"energy": -0.01581,
				"method": "rhf"
			},
			{
				"type": "unocc",
				"energy": -0.01001,
				"method": "rhf"
			},
			{
				"type": "unocc",
				"energy": 0.0198,
				"method": "rhf"
			}
		],
		"cosmo_sigma_profile": { 
			"-0.025": 0.0,
			"-0.024": 0.0,
			"-0.023": 0.0,
			"-0.022": 0.0,
			"-0.021": 0.0,
			"-0.02": 0.0,
			"-0.019": 0.0,
			"-0.018": 0.0,
			"-0.017": 0.0,
			"-0.016": 0.0,
			"-0.015": 0.0,
			"-0.014": 0.0,
			"-0.013": 0.325226691035,
			"-0.012": 3.095657131,
			"-0.011": 3.62230703416,
			"-0.01": 3.97141268146,
			"-0.009": 4.6034590657,
			"-0.008": 6.38385094355,
			"-0.007": 13.192101878,
			"-0.006": 15.5472314806,
			"-0.005": 17.2276417441,
			"-0.004": 17.9061720221,
			"-0.003": 15.4106146116,
			"-0.002": 16.9119384923,
			"-0.001": 16.7463308928,
			"0.0": 19.3573203844,
			"0.001": 22.6855436162,
			"0.002": 29.6198129812,
			"0.003": 25.3820489327,
			"0.004": 20.676132237,
			"0.005": 7.35535666802,
			"0.006": 5.445849972,
			"0.007": 5.27091743314,
			"0.008": 4.50718174082,
			"0.009": 6.37267623594,
			"0.01": 10.9337116396,
			"0.011": 8.66960901409,
			"0.012": 0.629148855324,
			"0.013": 0.0,
			"0.014": 0.0,
			"0.015": 0.0,
			"0.016": 0.0,
			"0.017": 0.0,
			"0.018": 0.0,
			"0.019": 0.0,
			"0.02": 0.0,
			"0.021": 0.0,
			"0.022": 0.0,
			"0.023": 0.0,
			"0.024": 0.0,
			"0.025": 0.0
		}
	}
}
