{
	 "smiles": "CSC1=C(SC=C1)C(O)=O", 
	 "Tm": 468.15, 
	 "num_atms": 16, 
	 "gaussian": { 
		 "optdone": 1, 
		 "sigma_profile": "yes", 
		 "theory": "DFT", 
		 "functional": "B3LYP", 
		 "basiset": "6-31G**", 
		 "properties": { 
			 "R2extent": 2296.2597, 
			 "electric_dipole_moment_norm": 5.5222195257, 
			 "electric_quadrupole_moment_norm": 19.9637162928, 
			 "total_energy": -1179.07226166, 
			 "HOMO_LUMO_gap": 0.19212, 
			 "cosmo_polarized_energy": -12.58, 
			 "cosmo_cavitation_energy": 23.43, 
			 "cosmo_dispersion_energy": -18.02, 
			 "cosmo_repulsion_energy": 1.36, 
			 "cosmo_total_nonelectrostatic_energy": 6.77, 
			 "SMD_solvation_energy": 5.44 
		},
		"coords": [
			{
				"x": -0.1240701429,
				"y": 2.489597255,
				"z": 0.5737470971,
				"element": "C" 
			},
			{
				"x": 1.2204308262,
				"y": 1.3234287013,
				"z": 0.1129709671,
				"element": "S" 
			},
			{
				"x": 0.3589378533,
				"y": -0.2426552121,
				"z": 0.192681672,
				"element": "C" 
			},
			{
				"x": 0.3084899817,
				"y": -1.0584639543,
				"z": 1.312587466,
				"element": "C" 
			},
			{
				"x": -0.6008688547,
				"y": -2.5043591118,
				"z": 0.9853008304,
				"element": "S" 
			},
			{
				"x": -0.8942946234,
				"y": -2.0118055259,
				"z": -0.6424137111,
				"element": "C" 
			},
			{
				"x": -0.3292067239,
				"y": -0.7978861061,
				"z": -0.9281739363,
				"element": "C" 
			},
			{
				"x": 0.8508468211,
				"y": -0.9231569351,
				"z": 2.6938669622,
				"element": "C" 
			},
			{
				"x": 1.6180185809,
				"y": 0.1486836998,
				"z": 2.958547316,
				"element": "O" 
			},
			{
				"x": 0.6042022288,
				"y": -1.7486435788,
				"z": 3.5474990775,
				"element": "O" 
			},
			{
				"x": -0.9455668718,
				"y": 2.4224139913,
				"z": -0.1409919971,
				"element": "H" 
			},
			{
				"x": -0.4809371053,
				"y": 2.2848674172,
				"z": 1.5843111975,
				"element": "H" 
			},
			{
				"x": 0.311185518,
				"y": 3.4906184046,
				"z": 0.5347984672,
				"element": "H" 
			},
			{
				"x": -1.4643331169,
				"y": -2.6483045764,
				"z": -1.3058483616,
				"element": "H" 
			},
			{
				"x": -0.3843378526,
				"y": -0.3088635712,
				"z": -1.8934685367,
				"element": "H" 
			},
			{
				"x": 1.7607034815,
				"y": 0.6823291026,
				"z": 2.1461854899,
				"element": "H" 
			}
		],
		 "valence_orbital": [ 
			{
				"type": "occ",
				"energy": -0.31091,
				"method": "rhf"
			},
			{
				"type": "occ",
				"energy": -0.27584,
				"method": "rhf"
			},
			{
				"type": "occ",
				"energy": -0.27258,
				"method": "rhf"
			},
			{
				"type": "occ",
				"energy": -0.26543,
				"method": "rhf"
			},
			{
				"type": "occ",
				"energy": -0.26025,
				"method": "rhf"
			},
			{
				"type": "unocc",
				"energy": -0.06813,
				"method": "rhf"
			},
			{
				"type": "unocc",
				"energy": 0.00272,
				"method": "rhf"
			},
			{
				"type": "unocc",
				"energy": 0.01201,
				"method": "rhf"
			},
			{
				"type": "unocc",
				"energy": 0.03444,
				"method": "rhf"
			},
			{
				"type": "unocc",
				"energy": 0.0494,
				"method": "rhf"
			}
		],
		"cosmo_sigma_profile": { 
			"-0.025": 0.0,
			"-0.024": 0.0,
			"-0.023": 0.0,
			"-0.022": 0.0,
			"-0.021": 0.0,
			"-0.02": 0.0,
			"-0.019": 0.0,
			"-0.018": 0.0,
			"-0.017": 0.0,
			"-0.016": 0.0,
			"-0.015": 0.0,
			"-0.014": 0.0,
			"-0.013": 0.0,
			"-0.012": 0.0,
			"-0.011": 0.0,
			"-0.01": 0.66646260279,
			"-0.009": 2.71323492886,
			"-0.008": 5.02414974131,
			"-0.007": 9.07624132318,
			"-0.006": 12.7045306442,
			"-0.005": 12.980722676,
			"-0.004": 13.0637145825,
			"-0.003": 13.8716737494,
			"-0.002": 15.2912028238,
			"-0.001": 11.3892110167,
			"0.0": 12.3897115683,
			"0.001": 16.622065784,
			"0.002": 16.0866133469,
			"0.003": 11.4894511797,
			"0.004": 3.82826883885,
			"0.005": 4.4063838185,
			"0.006": 3.58693317249,
			"0.007": 3.18707575039,
			"0.008": 3.55716684227,
			"0.009": 3.29552335889,
			"0.01": 4.65566990968,
			"0.011": 5.65765627935,
			"0.012": 4.44521940119,
			"0.013": 1.76204422152,
			"0.014": 0.121699571157,
			"0.015": 0.0,
			"0.016": 0.0,
			"0.017": 0.0,
			"0.018": 0.0,
			"0.019": 0.0,
			"0.02": 0.0,
			"0.021": 0.0,
			"0.022": 0.0,
			"0.023": 0.0,
			"0.024": 0.0,
			"0.025": 0.0
		}
	}
}
