{
	 "smiles": "ClCC(=O)NCC1=CC=C(C=C1)C#N", 
	 "Tm": 416.15, 
	 "num_atms": 23, 
	 "gaussian": { 
		 "optdone": 1, 
		 "sigma_profile": "yes", 
		 "theory": "DFT", 
		 "functional": "B3LYP", 
		 "basiset": "6-31G**", 
		 "properties": { 
			 "R2extent": 4548.564, 
			 "electric_dipole_moment_norm": 4.77011656985, 
			 "electric_quadrupole_moment_norm": 28.4845192308, 
			 "total_energy": -1031.40120739, 
			 "HOMO_LUMO_gap": 0.20147, 
			 "cosmo_polarized_energy": -18.62, 
			 "cosmo_cavitation_energy": 30.86, 
			 "cosmo_dispersion_energy": -21.22, 
			 "cosmo_repulsion_energy": 1.69, 
			 "cosmo_total_nonelectrostatic_energy": 11.33, 
			 "SMD_solvation_energy": 6.92 
		},
		"coords": [
			{
				"x": 0.6653921189,
				"y": 2.6988718784,
				"z": -1.41628671,
				"element": "Cl" 
			},
			{
				"x": 0.6945015043,
				"y": 3.4068813577,
				"z": 0.2578853897,
				"element": "C" 
			},
			{
				"x": 1.4818705517,
				"y": 2.5525792885,
				"z": 1.2540369836,
				"element": "C" 
			},
			{
				"x": 2.5136874487,
				"y": 2.9892907067,
				"z": 1.7425008818,
				"element": "O" 
			},
			{
				"x": 0.9938582495,
				"y": 1.3180762921,
				"z": 1.5839692046,
				"element": "N" 
			},
			{
				"x": -0.2781296638,
				"y": 0.6980523081,
				"z": 1.2381893826,
				"element": "C" 
			},
			{
				"x": -0.1213981948,
				"y": -0.7535857572,
				"z": 0.8200200094,
				"element": "C" 
			},
			{
				"x": -0.9937260302,
				"y": -1.7275589714,
				"z": 1.3192164257,
				"element": "C" 
			},
			{
				"x": -0.884870736,
				"y": -3.0569097526,
				"z": 0.9198453158,
				"element": "C" 
			},
			{
				"x": 0.1162381968,
				"y": -3.4302876756,
				"z": 0.0094967291,
				"element": "C" 
			},
			{
				"x": 0.9994543692,
				"y": -2.4583507909,
				"z": -0.4927165585,
				"element": "C" 
			},
			{
				"x": 0.8770896464,
				"y": -1.1339657891,
				"z": -0.0877457414,
				"element": "C" 
			},
			{
				"x": 0.2395849464,
				"y": -4.7984073589,
				"z": -0.4028485217,
				"element": "C" 
			},
			{
				"x": 0.3385802724,
				"y": -5.9083495292,
				"z": -0.7365916339,
				"element": "N" 
			},
			{
				"x": 1.204602832,
				"y": 4.3645899787,
				"z": 0.1901011549,
				"element": "H" 
			},
			{
				"x": -0.3447293464,
				"y": 3.5547732925,
				"z": 0.5584120102,
				"element": "H" 
			},
			{
				"x": 1.5698815004,
				"y": 0.841490102,
				"z": 2.2675063577,
				"element": "H" 
			},
			{
				"x": -0.722585626,
				"y": 1.2596904775,
				"z": 0.4126796964,
				"element": "H" 
			},
			{
				"x": -0.9785352083,
				"y": 0.7575118428,
				"z": 2.0824848924,
				"element": "H" 
			},
			{
				"x": -1.7663357727,
				"y": -1.4456169546,
				"z": 2.0296714041,
				"element": "H" 
			},
			{
				"x": -1.5624635531,
				"y": -3.8078874532,
				"z": 1.3117618927,
				"element": "H" 
			},
			{
				"x": 1.7721332496,
				"y": -2.7491453966,
				"z": -1.1964547077,
				"element": "H" 
			},
			{
				"x": 1.5600992451,
				"y": -0.3848420956,
				"z": -0.4753338576,
				"element": "H" 
			}
		],
		 "valence_orbital": [ 
			{
				"type": "occ",
				"energy": -0.31808,
				"method": "rhf"
			},
			{
				"type": "occ",
				"energy": -0.28481,
				"method": "rhf"
			},
			{
				"type": "occ",
				"energy": -0.27961,
				"method": "rhf"
			},
			{
				"type": "occ",
				"energy": -0.27167,
				"method": "rhf"
			},
			{
				"type": "occ",
				"energy": -0.26221,
				"method": "rhf"
			},
			{
				"type": "unocc",
				"energy": -0.06074,
				"method": "rhf"
			},
			{
				"type": "unocc",
				"energy": -0.03555,
				"method": "rhf"
			},
			{
				"type": "unocc",
				"energy": -0.02938,
				"method": "rhf"
			},
			{
				"type": "unocc",
				"energy": 0.03218,
				"method": "rhf"
			},
			{
				"type": "unocc",
				"energy": 0.0394,
				"method": "rhf"
			}
		],
		"cosmo_sigma_profile": { 
			"-0.025": 0.0,
			"-0.024": 0.0,
			"-0.023": 0.0,
			"-0.022": 0.0,
			"-0.021": 0.0,
			"-0.02": 0.0,
			"-0.019": 0.0,
			"-0.018": 0.0,
			"-0.017": 0.0,
			"-0.016": 0.0,
			"-0.015": 0.0,
			"-0.014": 0.698526410896,
			"-0.013": 1.12860578307,
			"-0.012": 1.04444340025,
			"-0.011": 0.885553288847,
			"-0.01": 1.60946873846,
			"-0.009": 4.60990012018,
			"-0.008": 9.29451206414,
			"-0.007": 14.375053344,
			"-0.006": 18.0122477806,
			"-0.005": 16.1796819524,
			"-0.004": 13.1995217881,
			"-0.003": 10.8160959395,
			"-0.002": 12.7595856822,
			"-0.001": 19.1845711238,
			"0.0": 16.0486704085,
			"0.001": 16.4906619851,
			"0.002": 21.4468707017,
			"0.003": 11.7970719347,
			"0.004": 7.40275004395,
			"0.005": 9.8472131997,
			"0.006": 6.57810532266,
			"0.007": 4.01361675155,
			"0.008": 3.87774171711,
			"0.009": 4.2528105552,
			"0.01": 4.60085971626,
			"0.011": 4.8890769359,
			"0.012": 5.86649831071,
			"0.013": 7.09288898573,
			"0.014": 1.56734564068,
			"0.015": 0.0,
			"0.016": 0.0,
			"0.017": 0.0,
			"0.018": 0.0,
			"0.019": 0.0,
			"0.02": 0.0,
			"0.021": 0.0,
			"0.022": 0.0,
			"0.023": 0.0,
			"0.024": 0.0,
			"0.025": 0.0
		}
	}
}
