{
	 "smiles": "NC1=CC(=CC=C1)C1SCCCS1", 
	 "Tm": 414.15, 
	 "num_atms": 26, 
	 "gaussian": { 
		 "optdone": 1, 
		 "sigma_profile": "yes", 
		 "theory": "DFT", 
		 "functional": "B3LYP", 
		 "basiset": "6-31G**", 
		 "properties": { 
			 "R2extent": 3281.792, 
			 "electric_dipole_moment_norm": 2.04129503257, 
			 "electric_quadrupole_moment_norm": 16.5213658942, 
			 "total_energy": -1240.02247189, 
			 "HOMO_LUMO_gap": 0.19265, 
			 "cosmo_polarized_energy": -11.51, 
			 "cosmo_cavitation_energy": 29.99, 
			 "cosmo_dispersion_energy": -22.95, 
			 "cosmo_repulsion_energy": 1.73, 
			 "cosmo_total_nonelectrostatic_energy": 8.77, 
			 "SMD_solvation_energy": 3.57 
		},
		"coords": [
			{
				"x": 2.5027894892,
				"y": -0.5170233759,
				"z": -3.2154982259,
				"element": "N" 
			},
			{
				"x": 2.0064450634,
				"y": -0.9378680379,
				"z": -1.9790262766,
				"element": "C" 
			},
			{
				"x": 1.6184187296,
				"y": -0.0028114899,
				"z": -1.0095760874,
				"element": "C" 
			},
			{
				"x": 1.063203787,
				"y": -0.4045476937,
				"z": 0.2131918201,
				"element": "C" 
			},
			{
				"x": 0.9028017886,
				"y": -1.7697659681,
				"z": 0.4719192646,
				"element": "C" 
			},
			{
				"x": 1.2859968012,
				"y": -2.7062976917,
				"z": -0.4935975247,
				"element": "C" 
			},
			{
				"x": 1.830173149,
				"y": -2.3073346069,
				"z": -1.707785729,
				"element": "C" 
			},
			{
				"x": 0.7098769224,
				"y": 0.6865112891,
				"z": 1.2293692576,
				"element": "C" 
			},
			{
				"x": 0.1167684324,
				"y": 0.0975271151,
				"z": 2.889300892,
				"element": "S" 
			},
			{
				"x": -1.7064772773,
				"y": 0.3194383173,
				"z": 2.7278800912,
				"element": "C" 
			},
			{
				"x": -2.2482244611,
				"y": -0.0513472701,
				"z": 1.3444204082,
				"element": "C" 
			},
			{
				"x": -1.9135317478,
				"y": 0.9739582765,
				"z": 0.2374533799,
				"element": "C" 
			},
			{
				"x": -0.4094417989,
				"y": 1.9866548833,
				"z": 0.5567175273,
				"element": "S" 
			},
			{
				"x": 2.9061037194,
				"y": 0.4098011467,
				"z": -3.221891025,
				"element": "H" 
			},
			{
				"x": 3.093138144,
				"y": -1.186329773,
				"z": -3.6900068063,
				"element": "H" 
			},
			{
				"x": 1.7325034946,
				"y": 1.0573196739,
				"z": -1.2220133705,
				"element": "H" 
			},
			{
				"x": 0.5017650799,
				"y": -2.0940916933,
				"z": 1.4241951703,
				"element": "H" 
			},
			{
				"x": 1.1604623407,
				"y": -3.7661580882,
				"z": -0.2888789222,
				"element": "H" 
			},
			{
				"x": 2.1193166613,
				"y": -3.0454320728,
				"z": -2.4519623375,
				"element": "H" 
			},
			{
				"x": 1.6199808342,
				"y": 1.2477969004,
				"z": 1.460940753,
				"element": "H" 
			},
			{
				"x": -1.9643429186,
				"y": 1.3504177312,
				"z": 2.9853290303,
				"element": "H" 
			},
			{
				"x": -2.1258484327,
				"y": -0.3390193679,
				"z": 3.4936633457,
				"element": "H" 
			},
			{
				"x": -3.3398215837,
				"y": -0.1471051552,
				"z": 1.4051350642,
				"element": "H" 
			},
			{
				"x": -1.8597596619,
				"y": -1.0339062311,
				"z": 1.0622436105,
				"element": "H" 
			},
			{
				"x": -2.7078458689,
				"y": 1.7206045136,
				"z": 0.1438902409,
				"element": "H" 
			},
			{
				"x": -1.810050686,
				"y": 0.4735086688,
				"z": -0.7285135507,
				"element": "H" 
			}
		],
		 "valence_orbital": [ 
			{
				"type": "occ",
				"energy": -0.29181,
				"method": "rhf"
			},
			{
				"type": "occ",
				"energy": -0.24275,
				"method": "rhf"
			},
			{
				"type": "occ",
				"energy": -0.22555,
				"method": "rhf"
			},
			{
				"type": "occ",
				"energy": -0.21171,
				"method": "rhf"
			},
			{
				"type": "occ",
				"energy": -0.20133,
				"method": "rhf"
			},
			{
				"type": "unocc",
				"energy": -0.00868,
				"method": "rhf"
			},
			{
				"type": "unocc",
				"energy": 0.01751,
				"method": "rhf"
			},
			{
				"type": "unocc",
				"energy": 0.02455,
				"method": "rhf"
			},
			{
				"type": "unocc",
				"energy": 0.04684,
				"method": "rhf"
			},
			{
				"type": "unocc",
				"energy": 0.06985,
				"method": "rhf"
			}
		],
		"cosmo_sigma_profile": { 
			"-0.025": 0.0,
			"-0.024": 0.0,
			"-0.023": 0.0,
			"-0.022": 0.0,
			"-0.021": 0.0,
			"-0.02": 0.0,
			"-0.019": 0.0,
			"-0.018": 0.0,
			"-0.017": 0.0,
			"-0.016": 0.0,
			"-0.015": 0.0,
			"-0.014": 0.0,
			"-0.013": 0.121699479327,
			"-0.012": 1.87928101114,
			"-0.011": 3.06637952056,
			"-0.01": 3.24984675439,
			"-0.009": 2.7380384717,
			"-0.008": 3.82108317189,
			"-0.007": 4.63965036778,
			"-0.006": 8.93529636261,
			"-0.005": 15.3457800293,
			"-0.004": 19.21936298,
			"-0.003": 22.3100485151,
			"-0.002": 21.7712955376,
			"-0.001": 17.8436440536,
			"0.0": 11.1802507266,
			"0.001": 12.5087878092,
			"0.002": 10.1035453677,
			"0.003": 10.6274588118,
			"0.004": 14.0768468205,
			"0.005": 14.0378376934,
			"0.006": 15.2762281466,
			"0.007": 11.5820955953,
			"0.008": 6.02667046004,
			"0.009": 3.05676800414,
			"0.01": 2.62791095902,
			"0.011": 1.31157154686,
			"0.012": 0.720971486361,
			"0.013": 0.554658105667,
			"0.014": 0.706429582304,
			"0.015": 0.305104271578,
			"0.016": 0.0,
			"0.017": 0.0,
			"0.018": 0.0,
			"0.019": 0.0,
			"0.02": 0.0,
			"0.021": 0.0,
			"0.022": 0.0,
			"0.023": 0.0,
			"0.024": 0.0,
			"0.025": 0.0
		}
	}
}
