{
	 "smiles": "NC(CC1=CC(F)=CC(F)=C1)C(O)=O", 
	 "Tm": 517.15, 
	 "num_atms": 23, 
	 "gaussian": { 
		 "optdone": 1, 
		 "sigma_profile": "yes", 
		 "theory": "DFT", 
		 "functional": "B3LYP", 
		 "basiset": "6-31G**", 
		 "properties": { 
			 "R2extent": 3838.7064, 
			 "electric_dipole_moment_norm": 4.18794565509, 
			 "electric_quadrupole_moment_norm": 16.1488360729, 
			 "total_energy": -753.264863806, 
			 "HOMO_LUMO_gap": 0.22324, 
			 "cosmo_polarized_energy": -15.35, 
			 "cosmo_cavitation_energy": 28.32, 
			 "cosmo_dispersion_energy": -19.94, 
			 "cosmo_repulsion_energy": 1.54, 
			 "cosmo_total_nonelectrostatic_energy": 9.92, 
			 "SMD_solvation_energy": 6.42 
		},
		"coords": [
			{
				"x": 1.6191162567,
				"y": 0.3492319425,
				"z": -0.680954749,
				"element": "N" 
			},
			{
				"x": 0.6235845406,
				"y": 1.0677308548,
				"z": 0.1296739582,
				"element": "C" 
			},
			{
				"x": -0.0463894087,
				"y": 0.1293596509,
				"z": 1.1619332188,
				"element": "C" 
			},
			{
				"x": -0.8685801296,
				"y": -0.9692852279,
				"z": 0.5242999638,
				"element": "C" 
			},
			{
				"x": -2.123498238,
				"y": -0.6785896787,
				"z": -0.0306769361,
				"element": "C" 
			},
			{
				"x": -2.8497203154,
				"y": -1.6960293548,
				"z": -0.6364040966,
				"element": "C" 
			},
			{
				"x": -4.0551541029,
				"y": -1.4107189336,
				"z": -1.1621444887,
				"element": "F" 
			},
			{
				"x": -2.3841898616,
				"y": -3.0050542982,
				"z": -0.7220217599,
				"element": "C" 
			},
			{
				"x": -1.1401271565,
				"y": -3.2649538261,
				"z": -0.1633742118,
				"element": "C" 
			},
			{
				"x": -0.6559002067,
				"y": -4.5195619368,
				"z": -0.2209279143,
				"element": "F" 
			},
			{
				"x": -0.3748262157,
				"y": -2.2790539945,
				"z": 0.4550782282,
				"element": "C" 
			},
			{
				"x": 1.323365295,
				"y": 2.2059898856,
				"z": 0.9041243092,
				"element": "C" 
			},
			{
				"x": 2.6591426773,
				"y": 2.1052241024,
				"z": 0.9165701149,
				"element": "O" 
			},
			{
				"x": 0.7080937461,
				"y": 3.0777025069,
				"z": 1.4722475341,
				"element": "O" 
			},
			{
				"x": 1.3593573948,
				"y": -0.6261302062,
				"z": -0.8028333166,
				"element": "H" 
			},
			{
				"x": 1.691733171,
				"y": 0.7550133511,
				"z": -1.610000726,
				"element": "H" 
			},
			{
				"x": -0.1651829751,
				"y": 1.5351461013,
				"z": -0.4731468154,
				"element": "H" 
			},
			{
				"x": 0.7344765148,
				"y": -0.3069222945,
				"z": 1.7951855211,
				"element": "H" 
			},
			{
				"x": -0.6720662064,
				"y": 0.7568986173,
				"z": 1.8029759506,
				"element": "H" 
			},
			{
				"x": -2.5439369039,
				"y": 0.3206808099,
				"z": 0.0125388735,
				"element": "H" 
			},
			{
				"x": -2.9684601459,
				"y": -3.7842993531,
				"z": -1.195257816,
				"element": "H" 
			},
			{
				"x": 0.5803128222,
				"y": -2.5480038643,
				"z": 0.8942971776,
				"element": "H" 
			},
			{
				"x": 2.8516494479,
				"y": 1.3064251462,
				"z": 0.3675179803,
				"element": "H" 
			}
		],
		 "valence_orbital": [ 
			{
				"type": "occ",
				"energy": -0.30574,
				"method": "rhf"
			},
			{
				"type": "occ",
				"energy": -0.29945,
				"method": "rhf"
			},
			{
				"type": "occ",
				"energy": -0.27066,
				"method": "rhf"
			},
			{
				"type": "occ",
				"energy": -0.26338,
				"method": "rhf"
			},
			{
				"type": "occ",
				"energy": -0.25568,
				"method": "rhf"
			},
			{
				"type": "unocc",
				"energy": -0.03244,
				"method": "rhf"
			},
			{
				"type": "unocc",
				"energy": -0.01889,
				"method": "rhf"
			},
			{
				"type": "unocc",
				"energy": 0.01749,
				"method": "rhf"
			},
			{
				"type": "unocc",
				"energy": 0.05769,
				"method": "rhf"
			},
			{
				"type": "unocc",
				"energy": 0.07261,
				"method": "rhf"
			}
		],
		"cosmo_sigma_profile": { 
			"-0.025": 0.0,
			"-0.024": 0.0,
			"-0.023": 0.0,
			"-0.022": 0.0,
			"-0.021": 0.0,
			"-0.02": 0.0,
			"-0.019": 0.0,
			"-0.018": 0.0,
			"-0.017": 0.0,
			"-0.016": 0.0,
			"-0.015": 0.0,
			"-0.014": 0.0,
			"-0.013": 0.0803168822122,
			"-0.012": 1.56598853462,
			"-0.011": 2.25934063512,
			"-0.01": 2.91760370787,
			"-0.009": 3.67584927721,
			"-0.008": 6.16281988131,
			"-0.007": 12.8256390027,
			"-0.006": 14.5556718282,
			"-0.005": 13.7039462017,
			"-0.004": 11.9748357468,
			"-0.003": 10.4488198347,
			"-0.002": 10.8561630268,
			"-0.001": 9.86813770849,
			"0.0": 17.1005031365,
			"0.001": 19.802568198,
			"0.002": 17.0500422077,
			"0.003": 13.7738913864,
			"0.004": 21.9001608529,
			"0.005": 4.28510191254,
			"0.006": 2.51794689901,
			"0.007": 2.49736223922,
			"0.008": 2.46092219422,
			"0.009": 3.53900886758,
			"0.01": 3.91643643211,
			"0.011": 5.0517986702,
			"0.012": 5.47672832027,
			"0.013": 3.98438530432,
			"0.014": 0.668407360517,
			"0.015": 0.0,
			"0.016": 0.0,
			"0.017": 0.0,
			"0.018": 0.0,
			"0.019": 0.0,
			"0.02": 0.0,
			"0.021": 0.0,
			"0.022": 0.0,
			"0.023": 0.0,
			"0.024": 0.0,
			"0.025": 0.0
		}
	}
}
