{
	 "smiles": "CN1C=C(OCC2=CC=CC=C2)C(=O)C=C1CO", 
	 "Tm": 495.15, 
	 "num_atms": 33, 
	 "gaussian": { 
		 "optdone": 1, 
		 "sigma_profile": "yes", 
		 "theory": "DFT", 
		 "functional": "B3LYP", 
		 "basiset": "6-31G**", 
		 "properties": { 
			 "R2extent": 6178.0721, 
			 "electric_dipole_moment_norm": 6.41139185747, 
			 "electric_quadrupole_moment_norm": 18.7649276719, 
			 "total_energy": -822.914956754, 
			 "HOMO_LUMO_gap": 0.18304, 
			 "cosmo_polarized_energy": -22.74, 
			 "cosmo_cavitation_energy": 36.19, 
			 "cosmo_dispersion_energy": -25.55, 
			 "cosmo_repulsion_energy": 1.99, 
			 "cosmo_total_nonelectrostatic_energy": 12.63, 
			 "SMD_solvation_energy": 6.98 
		},
		"coords": [
			{
				"x": 2.1971783311,
				"y": -1.6751134686,
				"z": -2.0758117032,
				"element": "C" 
			},
			{
				"x": 2.1046626272,
				"y": -0.2942999544,
				"z": -1.6011185452,
				"element": "N" 
			},
			{
				"x": 1.9465178631,
				"y": -0.0603287068,
				"z": -0.250430166,
				"element": "C" 
			},
			{
				"x": 1.8427745345,
				"y": 1.1882293469,
				"z": 0.2904530296,
				"element": "C" 
			},
			{
				"x": 1.8080820707,
				"y": 1.2507304439,
				"z": 1.6522521392,
				"element": "O" 
			},
			{
				"x": 0.9346502413,
				"y": 2.2245010678,
				"z": 2.2882427895,
				"element": "C" 
			},
			{
				"x": -0.5277102931,
				"y": 1.9499443008,
				"z": 2.0298948994,
				"element": "C" 
			},
			{
				"x": -1.1836213052,
				"y": 0.9001259784,
				"z": 2.6878491007,
				"element": "C" 
			},
			{
				"x": -2.5300866012,
				"y": 0.6360755683,
				"z": 2.4399319457,
				"element": "C" 
			},
			{
				"x": -3.2389237252,
				"y": 1.4221181775,
				"z": 1.5269856221,
				"element": "C" 
			},
			{
				"x": -2.5938484508,
				"y": 2.4673861623,
				"z": 0.8641243889,
				"element": "C" 
			},
			{
				"x": -1.2441185056,
				"y": 2.7280312304,
				"z": 1.1115991769,
				"element": "C" 
			},
			{
				"x": 1.8709006185,
				"y": 2.3749270698,
				"z": -0.5770684084,
				"element": "C" 
			},
			{
				"x": 1.7911470441,
				"y": 3.5433158357,
				"z": -0.1588302034,
				"element": "O" 
			},
			{
				"x": 2.0121939297,
				"y": 2.0482685681,
				"z": -1.9853916822,
				"element": "C" 
			},
			{
				"x": 2.1236448464,
				"y": 0.7756668603,
				"z": -2.4677765178,
				"element": "C" 
			},
			{
				"x": 2.2673866125,
				"y": 0.4864845115,
				"z": -3.9541616168,
				"element": "C" 
			},
			{
				"x": 2.0854994102,
				"y": 1.6232353906,
				"z": -4.7662193431,
				"element": "O" 
			},
			{
				"x": 3.0503472125,
				"y": -1.8023413303,
				"z": -2.7473536219,
				"element": "H" 
			},
			{
				"x": 2.3428080101,
				"y": -2.3305989966,
				"z": -1.2174340585,
				"element": "H" 
			},
			{
				"x": 1.2853224909,
				"y": -1.9858066583,
				"z": -2.5977969649,
				"element": "H" 
			},
			{
				"x": 1.9309790607,
				"y": -0.9320508273,
				"z": 0.3920270427,
				"element": "H" 
			},
			{
				"x": 1.2122328369,
				"y": 3.2232568085,
				"z": 1.9543427909,
				"element": "H" 
			},
			{
				"x": 1.1684420377,
				"y": 2.1045901071,
				"z": 3.3493976222,
				"element": "H" 
			},
			{
				"x": -0.6329364783,
				"y": 0.2913853941,
				"z": 3.4013105059,
				"element": "H" 
			},
			{
				"x": -3.0292101799,
				"y": -0.1761322938,
				"z": 2.961518306,
				"element": "H" 
			},
			{
				"x": -4.2898286682,
				"y": 1.2214539906,
				"z": 1.3371033609,
				"element": "H" 
			},
			{
				"x": -3.1414407417,
				"y": 3.0815768966,
				"z": 0.1543972074,
				"element": "H" 
			},
			{
				"x": -0.7308634456,
				"y": 3.5317192888,
				"z": 0.5909946586,
				"element": "H" 
			},
			{
				"x": 2.0747369784,
				"y": 2.878838657,
				"z": -2.6776090562,
				"element": "H" 
			},
			{
				"x": 3.2809085237,
				"y": 0.1258999024,
				"z": -4.1709099309,
				"element": "H" 
			},
			{
				"x": 1.5779255802,
				"y": -0.3243402622,
				"z": -4.240938568,
				"element": "H" 
			},
			{
				"x": 1.1969475343,
				"y": 1.967250941,
				"z": -4.6012741999,
				"element": "H" 
			}
		],
		 "valence_orbital": [ 
			{
				"type": "occ",
				"energy": -0.25103,
				"method": "rhf"
			},
			{
				"type": "occ",
				"energy": -0.24362,
				"method": "rhf"
			},
			{
				"type": "occ",
				"energy": -0.24107,
				"method": "rhf"
			},
			{
				"type": "occ",
				"energy": -0.21596,
				"method": "rhf"
			},
			{
				"type": "occ",
				"energy": -0.20014,
				"method": "rhf"
			},
			{
				"type": "unocc",
				"energy": -0.0171,
				"method": "rhf"
			},
			{
				"type": "unocc",
				"energy": -0.00295,
				"method": "rhf"
			},
			{
				"type": "unocc",
				"energy": -0.00126,
				"method": "rhf"
			},
			{
				"type": "unocc",
				"energy": 0.0091,
				"method": "rhf"
			},
			{
				"type": "unocc",
				"energy": 0.06479,
				"method": "rhf"
			}
		],
		"cosmo_sigma_profile": { 
			"-0.025": 0.0,
			"-0.024": 0.0,
			"-0.023": 0.0,
			"-0.022": 0.0,
			"-0.021": 0.0,
			"-0.02": 0.0,
			"-0.019": 0.0,
			"-0.018": 0.0,
			"-0.017": 0.0,
			"-0.016": 0.640526974507,
			"-0.015": 0.835991117763,
			"-0.014": 0.940676329414,
			"-0.013": 1.06312504715,
			"-0.012": 0.796121575531,
			"-0.011": 0.759401054606,
			"-0.01": 2.16503008932,
			"-0.009": 3.74515895265,
			"-0.008": 7.96167903747,
			"-0.007": 12.8101742472,
			"-0.006": 16.669476433,
			"-0.005": 23.0644534202,
			"-0.004": 24.0940569515,
			"-0.003": 21.3274092683,
			"-0.002": 15.9645055178,
			"-0.001": 13.7991320892,
			"0.0": 13.4255436333,
			"0.001": 16.4335240643,
			"0.002": 14.3534422073,
			"0.003": 17.6015949123,
			"0.004": 17.5852141972,
			"0.005": 15.1294728168,
			"0.006": 10.7029280474,
			"0.007": 5.36059475071,
			"0.008": 4.15642135486,
			"0.009": 2.99439375279,
			"0.01": 4.27911835862,
			"0.011": 4.24437085447,
			"0.012": 2.78880802622,
			"0.013": 3.54357599771,
			"0.014": 2.30276579138,
			"0.015": 2.92029943032,
			"0.016": 2.11628495837,
			"0.017": 0.628559893195,
			"0.018": 0.0,
			"0.019": 0.0,
			"0.02": 0.0,
			"0.021": 0.0,
			"0.022": 0.0,
			"0.023": 0.0,
			"0.024": 0.0,
			"0.025": 0.0
		}
	}
}
