{
	 "smiles": "OC(=O)C1=CC=C(NC2=NS(=O)(=O)C3=C2C=CC=C3)C=C1", 
	 "Tm": 643.15, 
	 "num_atms": 31, 
	 "gaussian": { 
		 "optdone": 1, 
		 "sigma_profile": "yes", 
		 "theory": "DFT", 
		 "functional": "B3LYP", 
		 "basiset": "6-31G**", 
		 "properties": { 
			 "R2extent": 9309.9477, 
			 "electric_dipole_moment_norm": 11.3878583891, 
			 "electric_quadrupole_moment_norm": 16.7254807847, 
			 "total_energy": -1348.03962838, 
			 "HOMO_LUMO_gap": 0.15797, 
			 "cosmo_polarized_energy": -36.75, 
			 "cosmo_cavitation_energy": 37.97, 
			 "cosmo_dispersion_energy": -28.4, 
			 "cosmo_repulsion_energy": 2.09, 
			 "cosmo_total_nonelectrostatic_energy": 11.65, 
			 "SMD_solvation_energy": 5.68 
		},
		"coords": [
			{
				"x": 5.4302025297,
				"y": -1.1039580438,
				"z": 2.4197300623,
				"element": "O" 
			},
			{
				"x": 4.190987938,
				"y": -1.6694810992,
				"z": 2.4060904571,
				"element": "C" 
			},
			{
				"x": 3.9675276267,
				"y": -2.6474976716,
				"z": 3.079314246,
				"element": "O" 
			},
			{
				"x": 3.1645253354,
				"y": -1.0211934969,
				"z": 1.5304674702,
				"element": "C" 
			},
			{
				"x": 1.8142076983,
				"y": -1.2912102938,
				"z": 1.7877247844,
				"element": "C" 
			},
			{
				"x": 0.7994541283,
				"y": -0.7334338121,
				"z": 1.0180302875,
				"element": "C" 
			},
			{
				"x": 1.1367150652,
				"y": 0.1050252884,
				"z": -0.0575767421,
				"element": "C" 
			},
			{
				"x": 0.1881549248,
				"y": 0.7144370246,
				"z": -0.9005670814,
				"element": "N" 
			},
			{
				"x": -1.1719093852,
				"y": 0.6686475519,
				"z": -0.8750173951,
				"element": "C" 
			},
			{
				"x": -1.8553767323,
				"y": -0.000525171,
				"z": 0.0066332684,
				"element": "N" 
			},
			{
				"x": -3.5210149213,
				"y": 0.1864710367,
				"z": -0.2814875894,
				"element": "S" 
			},
			{
				"x": -4.1237814473,
				"y": 0.9346057437,
				"z": 0.8206369849,
				"element": "O" 
			},
			{
				"x": -4.0914095581,
				"y": -1.0962112043,
				"z": -0.6898481044,
				"element": "O" 
			},
			{
				"x": -3.2997379634,
				"y": 1.2557315792,
				"z": -1.7141114362,
				"element": "C" 
			},
			{
				"x": -1.9324639588,
				"y": 1.4287434022,
				"z": -1.9150891826,
				"element": "C" 
			},
			{
				"x": -1.4835381442,
				"y": 2.2211374373,
				"z": -2.9719236623,
				"element": "C" 
			},
			{
				"x": -2.4315829597,
				"y": 2.8234266757,
				"z": -3.8046367263,
				"element": "C" 
			},
			{
				"x": -3.800887208,
				"y": 2.638072348,
				"z": -3.5865500176,
				"element": "C" 
			},
			{
				"x": -4.2548073038,
				"y": 1.8435435991,
				"z": -2.5275355916,
				"element": "C" 
			},
			{
				"x": 2.488845523,
				"y": 0.362602186,
				"z": -0.3402693781,
				"element": "C" 
			},
			{
				"x": 3.4891216869,
				"y": -0.1931057215,
				"z": 0.4459235765,
				"element": "C" 
			},
			{
				"x": 5.4076041932,
				"y": -0.2383718854,
				"z": 1.9894986425,
				"element": "H" 
			},
			{
				"x": 1.570253319,
				"y": -1.9519174196,
				"z": 2.6125688631,
				"element": "H" 
			},
			{
				"x": -0.2392063159,
				"y": -0.9388908537,
				"z": 1.2345896589,
				"element": "H" 
			},
			{
				"x": 0.5854077343,
				"y": 1.2773365235,
				"z": -1.6380015855,
				"element": "H" 
			},
			{
				"x": -0.4263682615,
				"y": 2.3822567493,
				"z": -3.1661291391,
				"element": "H" 
			},
			{
				"x": -2.0988248795,
				"y": 3.4428153363,
				"z": -4.6314771696,
				"element": "H" 
			},
			{
				"x": -4.5190057894,
				"y": 3.1153853619,
				"z": -4.245961068,
				"element": "H" 
			},
			{
				"x": -5.3144675918,
				"y": 1.6930950172,
				"z": -2.3500743638,
				"element": "H" 
			},
			{
				"x": 2.7560002133,
				"y": 0.9933316053,
				"z": -1.1850405884,
				"element": "H" 
			},
			{
				"x": 4.5249745041,
				"y": -0.0039677936,
				"z": 0.17588852,
				"element": "H" 
			}
		],
		 "valence_orbital": [ 
			{
				"type": "occ",
				"energy": -0.2877,
				"method": "rhf"
			},
			{
				"type": "occ",
				"energy": -0.28316,
				"method": "rhf"
			},
			{
				"type": "occ",
				"energy": -0.2799,
				"method": "rhf"
			},
			{
				"type": "occ",
				"energy": -0.27537,
				"method": "rhf"
			},
			{
				"type": "occ",
				"energy": -0.24715,
				"method": "rhf"
			},
			{
				"type": "unocc",
				"energy": -0.08918,
				"method": "rhf"
			},
			{
				"type": "unocc",
				"energy": -0.05409,
				"method": "rhf"
			},
			{
				"type": "unocc",
				"energy": -0.04804,
				"method": "rhf"
			},
			{
				"type": "unocc",
				"energy": -0.03229,
				"method": "rhf"
			},
			{
				"type": "unocc",
				"energy": 0.0161,
				"method": "rhf"
			}
		],
		"cosmo_sigma_profile": { 
			"-0.025": 0.0,
			"-0.024": 0.0,
			"-0.023": 0.0,
			"-0.022": 0.0,
			"-0.021": 0.0,
			"-0.02": 0.0,
			"-0.019": 0.100411551685,
			"-0.018": 1.46502153341,
			"-0.017": 2.67409710177,
			"-0.016": 2.42302333776,
			"-0.015": 2.43693454688,
			"-0.014": 2.12259427853,
			"-0.013": 3.14288401514,
			"-0.012": 2.27104727613,
			"-0.011": 2.90389103301,
			"-0.01": 3.33528906113,
			"-0.009": 5.74828458589,
			"-0.008": 9.67038943222,
			"-0.007": 15.6353464547,
			"-0.006": 13.0275203677,
			"-0.005": 14.6587058971,
			"-0.004": 13.3798733107,
			"-0.003": 15.0679619625,
			"-0.002": 15.8124161862,
			"-0.001": 16.2197025954,
			"0.0": 19.9326184309,
			"0.001": 25.6019881506,
			"0.002": 24.8590020753,
			"0.003": 12.320831575,
			"0.004": 5.23228773018,
			"0.005": 5.28100648405,
			"0.006": 7.3104501476,
			"0.007": 5.63757687671,
			"0.008": 7.28106292588,
			"0.009": 8.76279199032,
			"0.01": 15.2095207508,
			"0.011": 19.0708746593,
			"0.012": 6.40280111241,
			"0.013": 1.71327868559,
			"0.014": 0.0767065664919,
			"0.015": 0.0,
			"0.016": 0.0,
			"0.017": 0.0,
			"0.018": 0.0,
			"0.019": 0.0,
			"0.02": 0.0,
			"0.021": 0.0,
			"0.022": 0.0,
			"0.023": 0.0,
			"0.024": 0.0,
			"0.025": 0.0
		}
	}
}
