{
	 "smiles": "NC1=CC=C(C=C1)N1C=CN=N1", 
	 "Tm": 411.15, 
	 "num_atms": 20, 
	 "gaussian": { 
		 "optdone": 1, 
		 "sigma_profile": "yes", 
		 "theory": "DFT", 
		 "functional": "B3LYP", 
		 "basiset": "6-31G**", 
		 "properties": { 
			 "R2extent": 2681.3041, 
			 "electric_dipole_moment_norm": 5.57174455086, 
			 "electric_quadrupole_moment_norm": 17.7800291929, 
			 "total_energy": -528.635477632, 
			 "HOMO_LUMO_gap": 0.18644, 
			 "cosmo_polarized_energy": -16.72, 
			 "cosmo_cavitation_energy": 24.59, 
			 "cosmo_dispersion_energy": -18.32, 
			 "cosmo_repulsion_energy": 1.44, 
			 "cosmo_total_nonelectrostatic_energy": 7.7, 
			 "SMD_solvation_energy": 3.37 
		},
		"coords": [
			{
				"x": 4.024488758,
				"y": 0.4255879654,
				"z": -1.5692255479,
				"element": "N" 
			},
			{
				"x": 2.7229826448,
				"y": 0.0497637607,
				"z": -1.247342742,
				"element": "C" 
			},
			{
				"x": 2.0585957499,
				"y": 0.6194692247,
				"z": -0.1470285669,
				"element": "C" 
			},
			{
				"x": 0.7772089166,
				"y": 0.2068889005,
				"z": 0.2029209466,
				"element": "C" 
			},
			{
				"x": 0.1388956736,
				"y": -0.7979069248,
				"z": -0.5283495943,
				"element": "C" 
			},
			{
				"x": 0.7859659608,
				"y": -1.3745597673,
				"z": -1.6257174981,
				"element": "C" 
			},
			{
				"x": 2.0592245451,
				"y": -0.9500477636,
				"z": -1.9825379172,
				"element": "C" 
			},
			{
				"x": -1.1673825621,
				"y": -1.2347456182,
				"z": -0.1716558189,
				"element": "N" 
			},
			{
				"x": -1.750797557,
				"y": -1.2837169919,
				"z": 1.0578360833,
				"element": "C" 
			},
			{
				"x": -3.0071978605,
				"y": -1.7898939706,
				"z": 0.8178235255,
				"element": "C" 
			},
			{
				"x": -3.1361180644,
				"y": -2.0282997856,
				"z": -0.5182676181,
				"element": "N" 
			},
			{
				"x": -2.0295617258,
				"y": -1.6917943849,
				"z": -1.1198062176,
				"element": "N" 
			},
			{
				"x": 4.3043693607,
				"y": 0.2547770541,
				"z": -2.5248798566,
				"element": "H" 
			},
			{
				"x": 4.309090216,
				"y": 1.339089463,
				"z": -1.2447817728,
				"element": "H" 
			},
			{
				"x": 2.5469807356,
				"y": 1.3996458064,
				"z": 0.4307682,
				"element": "H" 
			},
			{
				"x": 0.2683629783,
				"y": 0.6852863422,
				"z": 1.033732676,
				"element": "H" 
			},
			{
				"x": 0.2790250696,
				"y": -2.1462971566,
				"z": -2.1927652471,
				"element": "H" 
			},
			{
				"x": 2.555713466,
				"y": -1.4062688075,
				"z": -2.8349088345,
				"element": "H" 
			},
			{
				"x": -1.2361753335,
				"y": -0.9964665019,
				"z": 1.9601854628,
				"element": "H" 
			},
			{
				"x": -3.8063709718,
				"y": -1.9982108443,
				"z": 1.5134003376,
				"element": "H" 
			}
		],
		 "valence_orbital": [ 
			{
				"type": "occ",
				"energy": -0.2872,
				"method": "rhf"
			},
			{
				"type": "occ",
				"energy": -0.26378,
				"method": "rhf"
			},
			{
				"type": "occ",
				"energy": -0.25791,
				"method": "rhf"
			},
			{
				"type": "occ",
				"energy": -0.25524,
				"method": "rhf"
			},
			{
				"type": "occ",
				"energy": -0.20794,
				"method": "rhf"
			},
			{
				"type": "unocc",
				"energy": -0.0215,
				"method": "rhf"
			},
			{
				"type": "unocc",
				"energy": -0.01285,
				"method": "rhf"
			},
			{
				"type": "unocc",
				"energy": 0.0328,
				"method": "rhf"
			},
			{
				"type": "unocc",
				"energy": 0.05671,
				"method": "rhf"
			},
			{
				"type": "unocc",
				"energy": 0.07085,
				"method": "rhf"
			}
		],
		"cosmo_sigma_profile": { 
			"-0.025": 0.0,
			"-0.024": 0.0,
			"-0.023": 0.0,
			"-0.022": 0.0,
			"-0.021": 0.0,
			"-0.02": 0.0,
			"-0.019": 0.0,
			"-0.018": 0.0,
			"-0.017": 0.0,
			"-0.016": 0.0,
			"-0.015": 0.0,
			"-0.014": 0.0,
			"-0.013": 1.13973611895,
			"-0.012": 2.73143935147,
			"-0.011": 3.54969091045,
			"-0.01": 5.32409627255,
			"-0.009": 5.09749679084,
			"-0.008": 7.16600054351,
			"-0.007": 9.2831355819,
			"-0.006": 10.7475737404,
			"-0.005": 11.0949548423,
			"-0.004": 9.59264410578,
			"-0.003": 8.57258430378,
			"-0.002": 8.00590532864,
			"-0.001": 9.52861220401,
			"0.0": 11.8211748557,
			"0.001": 10.4266771462,
			"0.002": 11.9372377693,
			"0.003": 13.1647645008,
			"0.004": 13.6817369663,
			"0.005": 12.6834475753,
			"0.006": 3.81981614185,
			"0.007": 2.52305160599,
			"0.008": 3.51278469087,
			"0.009": 3.29843511034,
			"0.01": 3.74534525572,
			"0.011": 4.57535111988,
			"0.012": 3.63832719935,
			"0.013": 2.8424180783,
			"0.014": 1.67580222494,
			"0.015": 1.2214070704,
			"0.016": 0.747574528281,
			"0.017": 0.0728865999279,
			"0.018": 0.0,
			"0.019": 0.0,
			"0.02": 0.0,
			"0.021": 0.0,
			"0.022": 0.0,
			"0.023": 0.0,
			"0.024": 0.0,
			"0.025": 0.0
		}
	}
}
