{
	 "smiles": "CN1CCCCC1C(=O)NC1=C(C)C=CC=C1C", 
	 "Tm": 423.15, 
	 "num_atms": 40, 
	 "gaussian": { 
		 "optdone": 1, 
		 "sigma_profile": "yes", 
		 "theory": "DFT", 
		 "functional": "B3LYP", 
		 "basiset": "6-31G**", 
		 "properties": { 
			 "R2extent": 5155.3505, 
			 "electric_dipole_moment_norm": 3.32347694742, 
			 "electric_quadrupole_moment_norm": 9.56028755948, 
			 "total_energy": -769.595677152, 
			 "HOMO_LUMO_gap": 0.19037, 
			 "cosmo_polarized_energy": -13.08, 
			 "cosmo_cavitation_energy": 39.02, 
			 "cosmo_dispersion_energy": -26.67, 
			 "cosmo_repulsion_energy": 2.04, 
			 "cosmo_total_nonelectrostatic_energy": 14.4, 
			 "SMD_solvation_energy": 5.3 
		},
		"coords": [
			{
				"x": -1.4670634313,
				"y": 0.7250025312,
				"z": -0.8586933743,
				"element": "C" 
			},
			{
				"x": -0.6377677593,
				"y": 1.7749043071,
				"z": -0.2932838442,
				"element": "N" 
			},
			{
				"x": -1.396772152,
				"y": 2.7217904054,
				"z": 0.5225130743,
				"element": "C" 
			},
			{
				"x": -0.590887946,
				"y": 4.0190607325,
				"z": 0.732852333,
				"element": "C" 
			},
			{
				"x": 0.9212672421,
				"y": 3.7196429616,
				"z": 0.7942167616,
				"element": "C" 
			},
			{
				"x": 1.1520132352,
				"y": 2.3116889703,
				"z": 1.3502137478,
				"element": "C" 
			},
			{
				"x": 0.5346272244,
				"y": 1.2352814554,
				"z": 0.4097386687,
				"element": "C" 
			},
			{
				"x": 1.6033600211,
				"y": 0.8219834335,
				"z": -0.6196509135,
				"element": "C" 
			},
			{
				"x": 2.0463228057,
				"y": 1.6098951847,
				"z": -1.4428685958,
				"element": "O" 
			},
			{
				"x": 2.1251494775,
				"y": -0.4633248757,
				"z": -0.5558427324,
				"element": "N" 
			},
			{
				"x": 1.6200246557,
				"y": -1.6409599482,
				"z": 0.0854670909,
				"element": "C" 
			},
			{
				"x": 0.9833239168,
				"y": -2.6175493205,
				"z": -0.712259688,
				"element": "C" 
			},
			{
				"x": 0.840344127,
				"y": -2.4308256973,
				"z": -2.2043221379,
				"element": "C" 
			},
			{
				"x": 0.5137396018,
				"y": -3.7831078718,
				"z": -0.0997205945,
				"element": "C" 
			},
			{
				"x": 0.6763968543,
				"y": -3.9872395619,
				"z": 1.2695392814,
				"element": "C" 
			},
			{
				"x": 1.3386542411,
				"y": -3.0336254729,
				"z": 2.0367013757,
				"element": "C" 
			},
			{
				"x": 1.8355144275,
				"y": -1.8563279524,
				"z": 1.4615249438,
				"element": "C" 
			},
			{
				"x": 2.6004165583,
				"y": -0.8727433391,
				"z": 2.313689691,
				"element": "C" 
			},
			{
				"x": -0.8763551888,
				"y": 0.1088025415,
				"z": -1.5433599786,
				"element": "H" 
			},
			{
				"x": -1.9106392408,
				"y": 0.0525338603,
				"z": -0.0984117328,
				"element": "H" 
			},
			{
				"x": -2.2827124446,
				"y": 1.1702545434,
				"z": -1.4369499295,
				"element": "H" 
			},
			{
				"x": -1.6885521881,
				"y": 2.2824683914,
				"z": 1.4979071655,
				"element": "H" 
			},
			{
				"x": -2.3329329398,
				"y": 2.9407597031,
				"z": -0.0013599722,
				"element": "H" 
			},
			{
				"x": -0.9300423163,
				"y": 4.5004154016,
				"z": 1.6583957417,
				"element": "H" 
			},
			{
				"x": -0.7942749227,
				"y": 4.7192307844,
				"z": -0.0839920699,
				"element": "H" 
			},
			{
				"x": 1.3563154108,
				"y": 3.7651318181,
				"z": -0.2070404186,
				"element": "H" 
			},
			{
				"x": 1.4371850824,
				"y": 4.4620035914,
				"z": 1.4131805555,
				"element": "H" 
			},
			{
				"x": 0.6926102924,
				"y": 2.2234579679,
				"z": 2.3427636712,
				"element": "H" 
			},
			{
				"x": 2.2201633893,
				"y": 2.1154380906,
				"z": 1.482844151,
				"element": "H" 
			},
			{
				"x": 0.2515017889,
				"y": 0.3564285196,
				"z": 1.0146929942,
				"element": "H" 
			},
			{
				"x": 2.7791940841,
				"y": -0.6111179734,
				"z": -1.3177443342,
				"element": "H" 
			},
			{
				"x": 1.8105446817,
				"y": -2.5013094399,
				"z": -2.7137691687,
				"element": "H" 
			},
			{
				"x": 0.4240421538,
				"y": -1.4525830537,
				"z": -2.4615764463,
				"element": "H" 
			},
			{
				"x": 0.1935527008,
				"y": -3.2014634395,
				"z": -2.6310714344,
				"element": "H" 
			},
			{
				"x": 0.0163799275,
				"y": -4.5356490976,
				"z": -0.7058049979,
				"element": "H" 
			},
			{
				"x": 0.3023405845,
				"y": -4.8955878005,
				"z": 1.7330422006,
				"element": "H" 
			},
			{
				"x": 1.4945230385,
				"y": -3.205802622,
				"z": 3.0984901458,
				"element": "H" 
			},
			{
				"x": 3.0733880784,
				"y": -1.384360009,
				"z": 3.1565714127,
				"element": "H" 
			},
			{
				"x": 3.3755023668,
				"y": -0.364253793,
				"z": 1.7348145622,
				"element": "H" 
			},
			{
				"x": 1.9470025614,
				"y": -0.0977439268,
				"z": 2.7305627952,
				"element": "H" 
			}
		],
		 "valence_orbital": [ 
			{
				"type": "occ",
				"energy": -0.27002,
				"method": "rhf"
			},
			{
				"type": "occ",
				"energy": -0.24704,
				"method": "rhf"
			},
			{
				"type": "occ",
				"energy": -0.24374,
				"method": "rhf"
			},
			{
				"type": "occ",
				"energy": -0.23394,
				"method": "rhf"
			},
			{
				"type": "occ",
				"energy": -0.20197,
				"method": "rhf"
			},
			{
				"type": "unocc",
				"energy": -0.0116,
				"method": "rhf"
			},
			{
				"type": "unocc",
				"energy": -0.00464,
				"method": "rhf"
			},
			{
				"type": "unocc",
				"energy": 0.02467,
				"method": "rhf"
			},
			{
				"type": "unocc",
				"energy": 0.07396,
				"method": "rhf"
			},
			{
				"type": "unocc",
				"energy": 0.0883,
				"method": "rhf"
			}
		],
		"cosmo_sigma_profile": { 
			"-0.025": 0.0,
			"-0.024": 0.0,
			"-0.023": 0.0,
			"-0.022": 0.0,
			"-0.021": 0.0,
			"-0.02": 0.0,
			"-0.019": 0.0,
			"-0.018": 0.0,
			"-0.017": 0.0,
			"-0.016": 0.0,
			"-0.015": 0.0,
			"-0.014": 0.0,
			"-0.013": 0.476624768257,
			"-0.012": 1.00319076354,
			"-0.011": 0.778857200731,
			"-0.01": 1.40312724957,
			"-0.009": 0.903418656813,
			"-0.008": 0.849821999768,
			"-0.007": 1.43838024248,
			"-0.006": 3.72410486123,
			"-0.005": 11.2912283185,
			"-0.004": 24.2708318341,
			"-0.003": 32.1593972615,
			"-0.002": 44.7237040002,
			"-0.001": 45.7495986384,
			"0.0": 43.9462567524,
			"0.001": 23.008032009,
			"0.002": 12.1303082945,
			"0.003": 9.01870217659,
			"0.004": 8.58002397422,
			"0.005": 8.56321636106,
			"0.006": 6.73917675379,
			"0.007": 2.08559194415,
			"0.008": 1.66045219613,
			"0.009": 1.70650983805,
			"0.01": 2.10244833711,
			"0.011": 2.06711293263,
			"0.012": 1.73202773935,
			"0.013": 4.20088948194,
			"0.014": 4.58006374788,
			"0.015": 1.5165116845,
			"0.016": 0.799631549173,
			"0.017": 0.701421094688,
			"0.018": 0.373877920584,
			"0.019": 0.0,
			"0.02": 0.0,
			"0.021": 0.0,
			"0.022": 0.0,
			"0.023": 0.0,
			"0.024": 0.0,
			"0.025": 0.0
		}
	}
}
