{
	 "smiles": "CN(C1=CC=C(O)C=C1)S(=O)(=O)C1=CC=CS1", 
	 "Tm": 423.15, 
	 "num_atms": 28, 
	 "gaussian": { 
		 "optdone": 1, 
		 "sigma_profile": "yes", 
		 "theory": "DFT", 
		 "functional": "B3LYP", 
		 "basiset": "6-31G**", 
		 "properties": { 
			 "R2extent": 6570.0424, 
			 "electric_dipole_moment_norm": 5.90958013652, 
			 "electric_quadrupole_moment_norm": 25.1159921243, 
			 "total_energy": -1502.49140089, 
			 "HOMO_LUMO_gap": 0.1845, 
			 "cosmo_polarized_energy": -18.41, 
			 "cosmo_cavitation_energy": 35.17, 
			 "cosmo_dispersion_energy": -24.82, 
			 "cosmo_repulsion_energy": 1.86, 
			 "cosmo_total_nonelectrostatic_energy": 12.21, 
			 "SMD_solvation_energy": 5.49 
		},
		"coords": [
			{
				"x": -3.0210399198,
				"y": 2.4265461029,
				"z": 1.1215829916,
				"element": "C" 
			},
			{
				"x": -2.4908141503,
				"y": 1.0882571091,
				"z": 0.7947949679,
				"element": "N" 
			},
			{
				"x": -1.641868401,
				"y": 1.0144049592,
				"z": -0.3698139123,
				"element": "C" 
			},
			{
				"x": -2.1381792054,
				"y": 1.1785486797,
				"z": -1.6720655432,
				"element": "C" 
			},
			{
				"x": -1.2777611092,
				"y": 1.1415405115,
				"z": -2.7630819999,
				"element": "C" 
			},
			{
				"x": 0.0948463372,
				"y": 0.9432002047,
				"z": -2.5643264538,
				"element": "C" 
			},
			{
				"x": 0.8905117764,
				"y": 0.9199765593,
				"z": -3.6718308136,
				"element": "O" 
			},
			{
				"x": 0.5968676451,
				"y": 0.7776896138,
				"z": -1.2685973075,
				"element": "C" 
			},
			{
				"x": -0.2725400806,
				"y": 0.8117516659,
				"z": -0.1796344995,
				"element": "C" 
			},
			{
				"x": -3.6035204895,
				"y": -0.1886148875,
				"z": 1.0027129538,
				"element": "S" 
			},
			{
				"x": -4.3325055132,
				"y": -0.4940504061,
				"z": -0.2361772095,
				"element": "O" 
			},
			{
				"x": -4.3352448657,
				"y": 0.1263467906,
				"z": 2.232455766,
				"element": "O" 
			},
			{
				"x": -2.5285352834,
				"y": -1.563436819,
				"z": 1.30599782,
				"element": "C" 
			},
			{
				"x": -1.8746953718,
				"y": -1.8355045848,
				"z": 2.4820410902,
				"element": "C" 
			},
			{
				"x": -1.1339388482,
				"y": -3.0476259283,
				"z": 2.414444371,
				"element": "C" 
			},
			{
				"x": -1.2499326092,
				"y": -3.6662455653,
				"z": 1.1948961033,
				"element": "C" 
			},
			{
				"x": -2.2653010568,
				"y": -2.7918917521,
				"z": 0.1051197647,
				"element": "S" 
			},
			{
				"x": -3.6843701449,
				"y": 2.8258840919,
				"z": 0.3434363325,
				"element": "H" 
			},
			{
				"x": -3.5628167665,
				"y": 2.3745222226,
				"z": 2.0657186688,
				"element": "H" 
			},
			{
				"x": -2.165510371,
				"y": 3.0967885617,
				"z": 1.2327739069,
				"element": "H" 
			},
			{
				"x": -3.2032394284,
				"y": 1.3130345945,
				"z": -1.8254972576,
				"element": "H" 
			},
			{
				"x": -1.6480505364,
				"y": 1.2606768621,
				"z": -3.7757381186,
				"element": "H" 
			},
			{
				"x": 1.8068639232,
				"y": 0.7729690336,
				"z": -3.4037087648,
				"element": "H" 
			},
			{
				"x": 1.6619292922,
				"y": 0.6209034459,
				"z": -1.1116443139,
				"element": "H" 
			},
			{
				"x": 0.1038334136,
				"y": 0.682214046,
				"z": 0.8298242009,
				"element": "H" 
			},
			{
				"x": -1.938927214,
				"y": -1.1945201341,
				"z": 3.3529318424,
				"element": "H" 
			},
			{
				"x": -0.5493670799,
				"y": -3.44640701,
				"z": 3.2353096622,
				"element": "H" 
			},
			{
				"x": -0.8000939425,
				"y": -4.5971579679,
				"z": 0.876375752,
				"element": "H" 
			}
		],
		 "valence_orbital": [ 
			{
				"type": "occ",
				"energy": -0.26821,
				"method": "rhf"
			},
			{
				"type": "occ",
				"energy": -0.2659,
				"method": "rhf"
			},
			{
				"type": "occ",
				"energy": -0.26102,
				"method": "rhf"
			},
			{
				"type": "occ",
				"energy": -0.24328,
				"method": "rhf"
			},
			{
				"type": "occ",
				"energy": -0.22966,
				"method": "rhf"
			},
			{
				"type": "unocc",
				"energy": -0.04516,
				"method": "rhf"
			},
			{
				"type": "unocc",
				"energy": -0.0118,
				"method": "rhf"
			},
			{
				"type": "unocc",
				"energy": -0.00668,
				"method": "rhf"
			},
			{
				"type": "unocc",
				"energy": 0.01918,
				"method": "rhf"
			},
			{
				"type": "unocc",
				"energy": 0.03773,
				"method": "rhf"
			}
		],
		"cosmo_sigma_profile": { 
			"-0.025": 0.0,
			"-0.024": 0.0,
			"-0.023": 0.0,
			"-0.022": 0.0,
			"-0.021": 0.0,
			"-0.02": 0.0,
			"-0.019": 0.0,
			"-0.018": 0.868620861678,
			"-0.017": 0.899590780519,
			"-0.016": 1.29602432699,
			"-0.015": 1.06643951166,
			"-0.014": 0.896270052178,
			"-0.013": 1.21532795979,
			"-0.012": 0.49583695153,
			"-0.011": 0.99960118794,
			"-0.01": 2.50143392257,
			"-0.009": 3.51323551064,
			"-0.008": 5.93433696651,
			"-0.007": 8.85369897779,
			"-0.006": 12.850402755,
			"-0.005": 19.5002025026,
			"-0.004": 17.2382037442,
			"-0.003": 17.4354086348,
			"-0.002": 17.8732565793,
			"-0.001": 14.4410343765,
			"0.0": 17.2021477569,
			"0.001": 20.196776572,
			"0.002": 26.5063231002,
			"0.003": 26.108717772,
			"0.004": 17.4238579791,
			"0.005": 7.05708359624,
			"0.006": 5.10251276754,
			"0.007": 5.45127945063,
			"0.008": 4.54265764489,
			"0.009": 5.84581282383,
			"0.01": 9.29436933455,
			"0.011": 8.76176930062,
			"0.012": 1.8214404274,
			"0.013": 0.0,
			"0.014": 0.0,
			"0.015": 0.0,
			"0.016": 0.0,
			"0.017": 0.0,
			"0.018": 0.0,
			"0.019": 0.0,
			"0.02": 0.0,
			"0.021": 0.0,
			"0.022": 0.0,
			"0.023": 0.0,
			"0.024": 0.0,
			"0.025": 0.0
		}
	}
}
