{
	 "smiles": "CC1=CC=C(C=C1)C(C)(C)C(=O)ON", 
	 "Tm": 392.15, 
	 "num_atms": 29, 
	 "gaussian": { 
		 "optdone": 1, 
		 "sigma_profile": "yes", 
		 "theory": "DFT", 
		 "functional": "B3LYP", 
		 "basiset": "6-31G**", 
		 "properties": { 
			 "R2extent": 3792.5131, 
			 "electric_dipole_moment_norm": 2.22657762946, 
			 "electric_quadrupole_moment_norm": 7.98090357103, 
			 "total_energy": -633.37943483, 
			 "HOMO_LUMO_gap": 0.22578, 
			 "cosmo_polarized_energy": -10.14, 
			 "cosmo_cavitation_energy": 31.49, 
			 "cosmo_dispersion_energy": -22.07, 
			 "cosmo_repulsion_energy": 1.76, 
			 "cosmo_total_nonelectrostatic_energy": 11.18, 
			 "SMD_solvation_energy": 7.05 
		},
		"coords": [
			{
				"x": 1.0167681256,
				"y": -1.1645934204,
				"z": 3.2461439075,
				"element": "C" 
			},
			{
				"x": 0.5630670922,
				"y": -1.1815563281,
				"z": 1.8055746123,
				"element": "C" 
			},
			{
				"x": 1.4364652125,
				"y": -1.5245102657,
				"z": 0.7696818681,
				"element": "C" 
			},
			{
				"x": 1.0228115935,
				"y": -1.5166267947,
				"z": -0.5649829889,
				"element": "C" 
			},
			{
				"x": -0.2878240113,
				"y": -1.1722475992,
				"z": -0.9100376522,
				"element": "C" 
			},
			{
				"x": -1.1674250494,
				"y": -0.8282784629,
				"z": 0.1302966909,
				"element": "C" 
			},
			{
				"x": -0.7498926712,
				"y": -0.8323484894,
				"z": 1.4579556801,
				"element": "C" 
			},
			{
				"x": -0.8002878432,
				"y": -1.1899998888,
				"z": -2.3656258442,
				"element": "C" 
			},
			{
				"x": -1.8816416605,
				"y": -2.2816278935,
				"z": -2.5238439789,
				"element": "C" 
			},
			{
				"x": 0.318614969,
				"y": -1.4323175555,
				"z": -3.3984510805,
				"element": "C" 
			},
			{
				"x": -1.4541918456,
				"y": 0.1764067314,
				"z": -2.62149048,
				"element": "C" 
			},
			{
				"x": -2.6475851982,
				"y": 0.4091658219,
				"z": -2.586727537,
				"element": "O" 
			},
			{
				"x": -0.5300746846,
				"y": 1.1309194735,
				"z": -2.8761835349,
				"element": "O" 
			},
			{
				"x": -1.0818115979,
				"y": 2.4479706629,
				"z": -3.1358026955,
				"element": "N" 
			},
			{
				"x": 0.2696566213,
				"y": -1.6170099605,
				"z": 3.9067131625,
				"element": "H" 
			},
			{
				"x": 1.9561745496,
				"y": -1.7093736181,
				"z": 3.3761616795,
				"element": "H" 
			},
			{
				"x": 1.1797820368,
				"y": -0.1389411188,
				"z": 3.5999489324,
				"element": "H" 
			},
			{
				"x": 2.461166341,
				"y": -1.8025562208,
				"z": 1.004618355,
				"element": "H" 
			},
			{
				"x": 1.7397457115,
				"y": -1.7871502395,
				"z": -1.3319673379,
				"element": "H" 
			},
			{
				"x": -2.19091864,
				"y": -0.5482172475,
				"z": -0.103094033,
				"element": "H" 
			},
			{
				"x": -1.4567063944,
				"y": -0.5612801475,
				"z": 2.2389551166,
				"element": "H" 
			},
			{
				"x": -2.2659464173,
				"y": -2.2992348812,
				"z": -3.5484085878,
				"element": "H" 
			},
			{
				"x": -1.4466284765,
				"y": -3.2592222608,
				"z": -2.2969698609,
				"element": "H" 
			},
			{
				"x": -2.7252031021,
				"y": -2.1111970288,
				"z": -1.8537001818,
				"element": "H" 
			},
			{
				"x": -0.0889562192,
				"y": -1.3728510703,
				"z": -4.4118926375,
				"element": "H" 
			},
			{
				"x": 1.1212204148,
				"y": -0.6977097643,
				"z": -3.3157913551,
				"element": "H" 
			},
			{
				"x": 0.7395124082,
				"y": -2.4337982803,
				"z": -3.2693702137,
				"element": "H" 
			},
			{
				"x": -0.8024880688,
				"y": 2.9637794087,
				"z": -2.2987334652,
				"element": "H" 
			},
			{
				"x": -2.0941031955,
				"y": 2.2986064382,
				"z": -3.0501765399,
				"element": "H" 
			}
		],
		 "valence_orbital": [ 
			{
				"type": "occ",
				"energy": -0.32841,
				"method": "rhf"
			},
			{
				"type": "occ",
				"energy": -0.28211,
				"method": "rhf"
			},
			{
				"type": "occ",
				"energy": -0.26106,
				"method": "rhf"
			},
			{
				"type": "occ",
				"energy": -0.24995,
				"method": "rhf"
			},
			{
				"type": "occ",
				"energy": -0.23624,
				"method": "rhf"
			},
			{
				"type": "unocc",
				"energy": -0.01046,
				"method": "rhf"
			},
			{
				"type": "unocc",
				"energy": -0.00305,
				"method": "rhf"
			},
			{
				"type": "unocc",
				"energy": 0.01812,
				"method": "rhf"
			},
			{
				"type": "unocc",
				"energy": 0.0643,
				"method": "rhf"
			},
			{
				"type": "unocc",
				"energy": 0.09084,
				"method": "rhf"
			}
		],
		"cosmo_sigma_profile": { 
			"-0.025": 0.0,
			"-0.024": 0.0,
			"-0.023": 0.0,
			"-0.022": 0.0,
			"-0.021": 0.0,
			"-0.02": 0.0,
			"-0.019": 0.0,
			"-0.018": 0.0,
			"-0.017": 0.0,
			"-0.016": 0.0,
			"-0.015": 0.0,
			"-0.014": 0.108589051827,
			"-0.013": 1.75161988585,
			"-0.012": 1.89573065382,
			"-0.011": 2.24454540124,
			"-0.01": 1.86525366782,
			"-0.009": 2.06615343474,
			"-0.008": 0.866566520174,
			"-0.007": 2.26257183647,
			"-0.006": 2.47568735357,
			"-0.005": 10.3557599302,
			"-0.004": 25.3236639584,
			"-0.003": 27.1194157266,
			"-0.002": 23.3830539681,
			"-0.001": 24.5256118607,
			"0.0": 27.3277144246,
			"0.001": 18.7107004376,
			"0.002": 10.5399985879,
			"0.003": 10.2949198644,
			"0.004": 9.87944966255,
			"0.005": 11.338383407,
			"0.006": 11.2211519401,
			"0.007": 4.13486727082,
			"0.008": 3.18027999127,
			"0.009": 2.12110393522,
			"0.01": 2.84356231287,
			"0.011": 4.00530064303,
			"0.012": 2.28936371348,
			"0.013": 1.00841267601,
			"0.014": 0.592519375488,
			"0.015": 0.560766852363,
			"0.016": 0.856269455724,
			"0.017": 0.0,
			"0.018": 0.0,
			"0.019": 0.0,
			"0.02": 0.0,
			"0.021": 0.0,
			"0.022": 0.0,
			"0.023": 0.0,
			"0.024": 0.0,
			"0.025": 0.0
		}
	}
}
