{
	 "smiles": "FC(F)(F)C1=CC(=CN=C1)C(F)(F)F", 
	 "Tm": 310.15, 
	 "num_atms": 17, 
	 "gaussian": { 
		 "optdone": 1, 
		 "sigma_profile": "yes", 
		 "theory": "DFT", 
		 "functional": "B3LYP", 
		 "basiset": "6-31G**", 
		 "properties": { 
			 "R2extent": 3538.4541, 
			 "electric_dipole_moment_norm": 0.0119687092036, 
			 "electric_quadrupole_moment_norm": 2.80379200905, 
			 "total_energy": -922.347616504, 
			 "HOMO_LUMO_gap": 0.22335, 
			 "cosmo_polarized_energy": -5.26, 
			 "cosmo_cavitation_energy": 24.95, 
			 "cosmo_dispersion_energy": -17.23, 
			 "cosmo_repulsion_energy": 1.23, 
			 "cosmo_total_nonelectrostatic_energy": 8.95, 
			 "SMD_solvation_energy": 5.25 
		},
		"coords": [
			{
				"x": 0.3556114644,
				"y": 0.9018972728,
				"z": -2.8045914647,
				"element": "F" 
			},
			{
				"x": 0.6985516046,
				"y": -0.2638389824,
				"z": -2.216917673,
				"element": "C" 
			},
			{
				"x": -0.1803492288,
				"y": -1.2049686893,
				"z": -2.6185454587,
				"element": "F" 
			},
			{
				"x": 1.9090707615,
				"y": -0.6146687874,
				"z": -2.7027033641,
				"element": "F" 
			},
			{
				"x": 0.7253307181,
				"y": -0.1382472089,
				"z": -0.7167718371,
				"element": "C" 
			},
			{
				"x": 1.0270235425,
				"y": 1.0787838355,
				"z": -0.1102714681,
				"element": "C" 
			},
			{
				"x": 1.0903486491,
				"y": 1.1230684701,
				"z": 1.280520733,
				"element": "C" 
			},
			{
				"x": 0.8551339736,
				"y": -0.0511580019,
				"z": 2.0027389114,
				"element": "C" 
			},
			{
				"x": 0.5597805834,
				"y": -1.2206681556,
				"z": 1.4273387623,
				"element": "N" 
			},
			{
				"x": 0.4950398654,
				"y": -1.2550264016,
				"z": 0.0929908587,
				"element": "C" 
			},
			{
				"x": 1.3554270317,
				"y": 2.4208227236,
				"z": 1.9963985749,
				"element": "C" 
			},
			{
				"x": 0.2056266753,
				"y": 3.0724802187,
				"z": 2.2752068193,
				"element": "F" 
			},
			{
				"x": 2.1132525478,
				"y": 3.2513554314,
				"z": 1.2494551017,
				"element": "F" 
			},
			{
				"x": 1.9932457976,
				"y": 2.2182207321,
				"z": 3.1675285202,
				"element": "F" 
			},
			{
				"x": 1.2076547849,
				"y": 1.9673668511,
				"z": -0.7045075604,
				"element": "H" 
			},
			{
				"x": 0.9136018346,
				"y": -0.0450185714,
				"z": 3.0881300568,
				"element": "H" 
			},
			{
				"x": 0.2433493943,
				"y": -2.2122007367,
				"z": -0.3564995121,
				"element": "H" 
			}
		],
		 "valence_orbital": [ 
			{
				"type": "occ",
				"energy": -0.41255,
				"method": "rhf"
			},
			{
				"type": "occ",
				"energy": -0.38511,
				"method": "rhf"
			},
			{
				"type": "occ",
				"energy": -0.32407,
				"method": "rhf"
			},
			{
				"type": "occ",
				"energy": -0.30045,
				"method": "rhf"
			},
			{
				"type": "occ",
				"energy": -0.28647,
				"method": "rhf"
			},
			{
				"type": "unocc",
				"energy": -0.06312,
				"method": "rhf"
			},
			{
				"type": "unocc",
				"energy": -0.06005,
				"method": "rhf"
			},
			{
				"type": "unocc",
				"energy": 0.07793,
				"method": "rhf"
			},
			{
				"type": "unocc",
				"energy": 0.09598,
				"method": "rhf"
			},
			{
				"type": "unocc",
				"energy": 0.11218,
				"method": "rhf"
			}
		],
		"cosmo_sigma_profile": { 
			"-0.025": 0.0,
			"-0.024": 0.0,
			"-0.023": 0.0,
			"-0.022": 0.0,
			"-0.021": 0.0,
			"-0.02": 0.0,
			"-0.019": 0.0,
			"-0.018": 0.0,
			"-0.017": 0.0,
			"-0.016": 0.0,
			"-0.015": 0.0,
			"-0.014": 0.0,
			"-0.013": 0.0,
			"-0.012": 0.0,
			"-0.011": 0.0,
			"-0.01": 0.0,
			"-0.009": 1.9175847147,
			"-0.008": 3.978669853,
			"-0.007": 6.40948638161,
			"-0.006": 6.13897730912,
			"-0.005": 6.62105928966,
			"-0.004": 7.99609881656,
			"-0.003": 13.9469815698,
			"-0.002": 21.0722054532,
			"-0.001": 15.1690835222,
			"0.0": 12.5801313767,
			"0.001": 18.9642340113,
			"0.002": 51.5469804634,
			"0.003": 24.4010338112,
			"0.004": 0.840199479287,
			"0.005": 1.43650615188,
			"0.006": 0.889011043588,
			"0.007": 1.22907449365,
			"0.008": 0.866415984023,
			"0.009": 0.784271310552,
			"0.01": 1.29942944415,
			"0.011": 0.696453054381,
			"0.012": 0.995546334014,
			"0.013": 0.724781560145,
			"0.014": 0.831192233009,
			"0.015": 0.307851861895,
			"0.016": 0.0,
			"0.017": 0.0,
			"0.018": 0.0,
			"0.019": 0.0,
			"0.02": 0.0,
			"0.021": 0.0,
			"0.022": 0.0,
			"0.023": 0.0,
			"0.024": 0.0,
			"0.025": 0.0
		}
	}
}
