{
	 "smiles": "NC1=CC(=CC=C1)C(=O)NC1=CC(F)=CC=C1", 
	 "Tm": 397.15, 
	 "num_atms": 28, 
	 "gaussian": { 
		 "optdone": 1, 
		 "sigma_profile": "yes", 
		 "theory": "DFT", 
		 "functional": "B3LYP", 
		 "basiset": "6-31G**", 
		 "properties": { 
			 "R2extent": 4944.7331, 
			 "electric_dipole_moment_norm": 2.87785115147, 
			 "electric_quadrupole_moment_norm": 14.4766001958, 
			 "total_energy": -786.590641476, 
			 "HOMO_LUMO_gap": 0.16905, 
			 "cosmo_polarized_energy": -15.54, 
			 "cosmo_cavitation_energy": 33.14, 
			 "cosmo_dispersion_energy": -23.36, 
			 "cosmo_repulsion_energy": 1.8, 
			 "cosmo_total_nonelectrostatic_energy": 11.58, 
			 "SMD_solvation_energy": 6.65 
		},
		"coords": [
			{
				"x": -2.8648617084,
				"y": 3.484628321,
				"z": 2.7354402139,
				"element": "N" 
			},
			{
				"x": -1.8617359671,
				"y": 2.8716128839,
				"z": 1.9848894626,
				"element": "C" 
			},
			{
				"x": -1.3147790042,
				"y": 1.6445093964,
				"z": 2.3881325398,
				"element": "C" 
			},
			{
				"x": -0.36269533,
				"y": 0.9905754981,
				"z": 1.6009172338,
				"element": "C" 
			},
			{
				"x": 0.0866874821,
				"y": 1.5718624226,
				"z": 0.4067192478,
				"element": "C" 
			},
			{
				"x": -0.4416963632,
				"y": 2.8012792739,
				"z": 0.0137732027,
				"element": "C" 
			},
			{
				"x": -1.4100155428,
				"y": 3.4436827355,
				"z": 0.7815563602,
				"element": "C" 
			},
			{
				"x": 0.2209380151,
				"y": -0.2735962213,
				"z": 2.1559831133,
				"element": "C" 
			},
			{
				"x": 0.3758028984,
				"y": -0.4299240492,
				"z": 3.3619655167,
				"element": "O" 
			},
			{
				"x": 0.6674934486,
				"y": -1.2586592883,
				"z": 1.2837961663,
				"element": "N" 
			},
			{
				"x": 0.2504321167,
				"y": -1.6090443009,
				"z": -0.0211828055,
				"element": "C" 
			},
			{
				"x": 1.162794013,
				"y": -2.296846899,
				"z": -0.8345073305,
				"element": "C" 
			},
			{
				"x": 0.7647450943,
				"y": -2.70112066,
				"z": -2.1018105211,
				"element": "C" 
			},
			{
				"x": 1.6522387988,
				"y": -3.365774944,
				"z": -2.8709669883,
				"element": "F" 
			},
			{
				"x": -0.5019358119,
				"y": -2.4348351291,
				"z": -2.6075469504,
				"element": "C" 
			},
			{
				"x": -1.398192362,
				"y": -1.7475970825,
				"z": -1.7870490796,
				"element": "C" 
			},
			{
				"x": -1.0423009079,
				"y": -1.3461955421,
				"z": -0.5004050396,
				"element": "C" 
			},
			{
				"x": -2.9461561812,
				"y": 4.4845389726,
				"z": 2.6136221831,
				"element": "H" 
			},
			{
				"x": -2.8957477264,
				"y": 3.2182142776,
				"z": 3.7099205342,
				"element": "H" 
			},
			{
				"x": -1.6148178406,
				"y": 1.1888425185,
				"z": 3.3270148011,
				"element": "H" 
			},
			{
				"x": 0.8466723359,
				"y": 1.0845163461,
				"z": -0.192587482,
				"element": "H" 
			},
			{
				"x": -0.0929089249,
				"y": 3.2695813589,
				"z": -0.9022174867,
				"element": "H" 
			},
			{
				"x": -1.8200750984,
				"y": 4.3963998156,
				"z": 0.4551872828,
				"element": "H" 
			},
			{
				"x": 1.1956266685,
				"y": -1.9654728293,
				"z": 1.7821459574,
				"element": "H" 
			},
			{
				"x": 2.1712229456,
				"y": -2.5077513525,
				"z": -0.4947602665,
				"element": "H" 
			},
			{
				"x": -0.7673142276,
				"y": -2.7647504425,
				"z": -3.6053681351,
				"element": "H" 
			},
			{
				"x": -2.3997153846,
				"y": -1.5370475382,
				"z": -2.1496824161,
				"element": "H" 
			},
			{
				"x": -1.7614054358,
				"y": -0.8390275419,
				"z": 0.1307206858,
				"element": "H" 
			}
		],
		 "valence_orbital": [ 
			{
				"type": "occ",
				"energy": -0.2635,
				"method": "rhf"
			},
			{
				"type": "occ",
				"energy": -0.2536,
				"method": "rhf"
			},
			{
				"type": "occ",
				"energy": -0.24541,
				"method": "rhf"
			},
			{
				"type": "occ",
				"energy": -0.22942,
				"method": "rhf"
			},
			{
				"type": "occ",
				"energy": -0.20815,
				"method": "rhf"
			},
			{
				"type": "unocc",
				"energy": -0.0391,
				"method": "rhf"
			},
			{
				"type": "unocc",
				"energy": -0.011,
				"method": "rhf"
			},
			{
				"type": "unocc",
				"energy": -0.00184,
				"method": "rhf"
			},
			{
				"type": "unocc",
				"energy": 0.01095,
				"method": "rhf"
			},
			{
				"type": "unocc",
				"energy": 0.05848,
				"method": "rhf"
			}
		],
		"cosmo_sigma_profile": { 
			"-0.025": 0.0,
			"-0.024": 0.0,
			"-0.023": 0.0,
			"-0.022": 0.0,
			"-0.021": 0.0,
			"-0.02": 0.0,
			"-0.019": 0.0,
			"-0.018": 0.0,
			"-0.017": 0.0,
			"-0.016": 0.0,
			"-0.015": 0.0857887239295,
			"-0.014": 0.785360409987,
			"-0.013": 2.3097739856,
			"-0.012": 3.55913289987,
			"-0.011": 2.86954701233,
			"-0.01": 4.96460037557,
			"-0.009": 4.683074312,
			"-0.008": 4.63871954267,
			"-0.007": 8.30848433848,
			"-0.006": 12.0694613335,
			"-0.005": 16.0863189631,
			"-0.004": 15.669399729,
			"-0.003": 13.485134126,
			"-0.002": 12.7414055843,
			"-0.001": 14.3491900472,
			"0.0": 16.8714842637,
			"0.001": 19.9564825056,
			"0.002": 20.0985627871,
			"0.003": 19.3352379558,
			"0.004": 26.2648219253,
			"0.005": 17.3330375404,
			"0.006": 4.55899475397,
			"0.007": 2.29287120464,
			"0.008": 2.74591700748,
			"0.009": 2.08470363509,
			"0.01": 2.01489577213,
			"0.011": 3.03627729787,
			"0.012": 3.62782538893,
			"0.013": 5.44226091289,
			"0.014": 2.44373163754,
			"0.015": 0.0,
			"0.016": 0.0,
			"0.017": 0.0,
			"0.018": 0.0,
			"0.019": 0.0,
			"0.02": 0.0,
			"0.021": 0.0,
			"0.022": 0.0,
			"0.023": 0.0,
			"0.024": 0.0,
			"0.025": 0.0
		}
	}
}
