{
	 "smiles": "NC1=C(O)C=CN=C1", 
	 "Tm": 430.15, 
	 "num_atms": 14, 
	 "gaussian": { 
		 "optdone": 1, 
		 "sigma_profile": "yes", 
		 "theory": "DFT", 
		 "functional": "B3LYP", 
		 "basiset": "6-31G**", 
		 "properties": { 
			 "R2extent": 1443.7526, 
			 "electric_dipole_moment_norm": 3.31485949778, 
			 "electric_quadrupole_moment_norm": 13.2079672989, 
			 "total_energy": -378.865705314, 
			 "HOMO_LUMO_gap": 0.20286, 
			 "cosmo_polarized_energy": -14.24, 
			 "cosmo_cavitation_energy": 17.91, 
			 "cosmo_dispersion_energy": -13.77, 
			 "cosmo_repulsion_energy": 1.15, 
			 "cosmo_total_nonelectrostatic_energy": 5.28, 
			 "SMD_solvation_energy": 2.09 
		},
		"coords": [
			{
				"x": -1.4588698647,
				"y": 0.7793403532,
				"z": -1.9638860232,
				"element": "N" 
			},
			{
				"x": -0.1223902949,
				"y": 0.4060222391,
				"z": -1.8550290269,
				"element": "C" 
			},
			{
				"x": 0.6549634634,
				"y": 0.857687456,
				"z": -0.7696776165,
				"element": "C" 
			},
			{
				"x": 0.003722576,
				"y": 1.6028252048,
				"z": 0.1745714662,
				"element": "O" 
			},
			{
				"x": 2.0030136799,
				"y": 0.5229246493,
				"z": -0.7122774796,
				"element": "C" 
			},
			{
				"x": 2.5460275034,
				"y": -0.257855496,
				"z": -1.736707543,
				"element": "C" 
			},
			{
				"x": 1.8309198629,
				"y": -0.7047040394,
				"z": -2.7717089988,
				"element": "N" 
			},
			{
				"x": 0.5351376184,
				"y": -0.3737745794,
				"z": -2.8152736388,
				"element": "C" 
			},
			{
				"x": -1.8884401482,
				"y": 1.0479272223,
				"z": -1.0891283754,
				"element": "H" 
			},
			{
				"x": -2.0354276039,
				"y": 0.1526019552,
				"z": -2.5079145819,
				"element": "H" 
			},
			{
				"x": 0.6231620924,
				"y": 1.8454089052,
				"z": 0.874839154,
				"element": "H" 
			},
			{
				"x": 2.6218494421,
				"y": 0.8587921137,
				"z": 0.1168832907,
				"element": "H" 
			},
			{
				"x": 3.5989427087,
				"y": -0.5306748955,
				"z": -1.7130236105,
				"element": "H" 
			},
			{
				"x": -0.0337110356,
				"y": -0.7456210885,
				"z": -3.6680670163,
				"element": "H" 
			}
		],
		 "valence_orbital": [ 
			{
				"type": "occ",
				"energy": -0.35694,
				"method": "rhf"
			},
			{
				"type": "occ",
				"energy": -0.32306,
				"method": "rhf"
			},
			{
				"type": "occ",
				"energy": -0.25064,
				"method": "rhf"
			},
			{
				"type": "occ",
				"energy": -0.24372,
				"method": "rhf"
			},
			{
				"type": "occ",
				"energy": -0.20314,
				"method": "rhf"
			},
			{
				"type": "unocc",
				"energy": -0.00028,
				"method": "rhf"
			},
			{
				"type": "unocc",
				"energy": 0.01195,
				"method": "rhf"
			},
			{
				"type": "unocc",
				"energy": 0.05672,
				"method": "rhf"
			},
			{
				"type": "unocc",
				"energy": 0.09122,
				"method": "rhf"
			},
			{
				"type": "unocc",
				"energy": 0.11263,
				"method": "rhf"
			}
		],
		"cosmo_sigma_profile": { 
			"-0.025": 0.0,
			"-0.024": 0.0,
			"-0.023": 0.0,
			"-0.022": 0.0,
			"-0.021": 0.0,
			"-0.02": 0.0,
			"-0.019": 0.0264250534427,
			"-0.018": 0.86155497397,
			"-0.017": 1.49803139408,
			"-0.016": 0.834964055253,
			"-0.015": 0.887721704616,
			"-0.014": 1.4993173474,
			"-0.013": 1.31891464246,
			"-0.012": 2.53028797735,
			"-0.011": 3.23207174367,
			"-0.01": 3.18353553282,
			"-0.009": 4.22448943232,
			"-0.008": 3.48114619524,
			"-0.007": 3.98345808808,
			"-0.006": 5.10123271614,
			"-0.005": 7.84817512634,
			"-0.004": 6.39030460703,
			"-0.003": 5.69351995002,
			"-0.002": 4.73859628374,
			"-0.001": 4.78479114453,
			"0.0": 5.58597368589,
			"0.001": 7.08087890314,
			"0.002": 9.09747412217,
			"0.003": 10.6014452217,
			"0.004": 11.5134874267,
			"0.005": 7.66514958004,
			"0.006": 4.65921879441,
			"0.007": 4.9723954587,
			"0.008": 3.1322376188,
			"0.009": 3.6673240657,
			"0.01": 2.04402510854,
			"0.011": 2.52102422794,
			"0.012": 1.11953677272,
			"0.013": 1.67506709235,
			"0.014": 1.64316164318,
			"0.015": 0.938070440654,
			"0.016": 0.700015190299,
			"0.017": 1.16994116073,
			"0.018": 0.390260505817,
			"0.019": 0.0,
			"0.02": 0.0,
			"0.021": 0.0,
			"0.022": 0.0,
			"0.023": 0.0,
			"0.024": 0.0,
			"0.025": 0.0
		}
	}
}
