{
	 "smiles": "CC(C)(C)OC(=O)N1CCC(CC1)(OCC(F)(F)F)C(O)=O", 
	 "Tm": 533.15, 
	 "num_atms": 42, 
	 "gaussian": { 
		 "optdone": 1, 
		 "sigma_profile": "yes", 
		 "theory": "DFT", 
		 "functional": "B3LYP", 
		 "basiset": "6-31G**", 
		 "properties": { 
			 "R2extent": 9719.4243, 
			 "electric_dipole_moment_norm": 3.35805894677, 
			 "electric_quadrupole_moment_norm": 16.8588096932, 
			 "total_energy": -1237.87053208, 
			 "HOMO_LUMO_gap": 0.21753, 
			 "cosmo_polarized_energy": -16.89, 
			 "cosmo_cavitation_energy": 44.58, 
			 "cosmo_dispersion_energy": -29.8, 
			 "cosmo_repulsion_energy": 2.24, 
			 "cosmo_total_nonelectrostatic_energy": 17.03, 
			 "SMD_solvation_energy": 9.77 
		},
		"coords": [
			{
				"x": 1.1729885105,
				"y": -3.5153347861,
				"z": 3.3583660059,
				"element": "C" 
			},
			{
				"x": -0.0812397682,
				"y": -3.5390408259,
				"z": 2.4778078061,
				"element": "C" 
			},
			{
				"x": -1.3716353693,
				"y": -3.5356151594,
				"z": 3.304583419,
				"element": "C" 
			},
			{
				"x": -0.051009558,
				"y": -4.7372094888,
				"z": 1.5247783556,
				"element": "C" 
			},
			{
				"x": -0.0686828117,
				"y": -2.3959942685,
				"z": 1.5526820281,
				"element": "O" 
			},
			{
				"x": -0.1057127782,
				"y": -1.1225678643,
				"z": 2.0208776104,
				"element": "C" 
			},
			{
				"x": -0.1182652663,
				"y": -0.7959440698,
				"z": 3.2007810022,
				"element": "O" 
			},
			{
				"x": -0.1268514102,
				"y": -0.2260449117,
				"z": 0.9864299912,
				"element": "N" 
			},
			{
				"x": -0.0650986444,
				"y": -0.6200335567,
				"z": -0.4252938146,
				"element": "C" 
			},
			{
				"x": -0.6569314393,
				"y": 0.4832852906,
				"z": -1.3075651125,
				"element": "C" 
			},
			{
				"x": 0.063661082,
				"y": 1.8527026254,
				"z": -1.144987798,
				"element": "C" 
			},
			{
				"x": 0.7494628325,
				"y": 1.9348649877,
				"z": 0.2438576935,
				"element": "C" 
			},
			{
				"x": -0.0660158546,
				"y": 1.2031095487,
				"z": 1.3079124789,
				"element": "C" 
			},
			{
				"x": -0.856462585,
				"y": 2.9448651621,
				"z": -1.1548305639,
				"element": "O" 
			},
			{
				"x": -1.642789247,
				"y": 3.1322326302,
				"z": -2.3121912749,
				"element": "C" 
			},
			{
				"x": -3.0902359355,
				"y": 3.3375019055,
				"z": -1.8976326901,
				"element": "C" 
			},
			{
				"x": -3.5951194037,
				"y": 2.2479244327,
				"z": -1.2788635164,
				"element": "F" 
			},
			{
				"x": -3.8439617555,
				"y": 3.5716036927,
				"z": -2.9950558759,
				"element": "F" 
			},
			{
				"x": -3.2307464327,
				"y": 4.3815576675,
				"z": -1.0648127287,
				"element": "F" 
			},
			{
				"x": 1.1559964356,
				"y": 2.0106701041,
				"z": -2.2115459311,
				"element": "C" 
			},
			{
				"x": 1.3100795761,
				"y": 3.2845510957,
				"z": -2.632483843,
				"element": "O" 
			},
			{
				"x": 1.8433967299,
				"y": 1.0963672368,
				"z": -2.6129558499,
				"element": "O" 
			},
			{
				"x": 2.0726641653,
				"y": -3.4799398681,
				"z": 2.7356055197,
				"element": "H" 
			},
			{
				"x": 1.2148056163,
				"y": -4.4269121689,
				"z": 3.9635602047,
				"element": "H" 
			},
			{
				"x": 1.1663742326,
				"y": -2.6499235937,
				"z": 4.0210197557,
				"element": "H" 
			},
			{
				"x": -1.4256469066,
				"y": -4.4496774543,
				"z": 3.9049977206,
				"element": "H" 
			},
			{
				"x": -2.2449939421,
				"y": -3.5113177305,
				"z": 2.6448629932,
				"element": "H" 
			},
			{
				"x": -1.4062410133,
				"y": -2.6727584812,
				"z": 3.9697809043,
				"element": "H" 
			},
			{
				"x": 0.846747585,
				"y": -4.7112896523,
				"z": 0.9002354474,
				"element": "H" 
			},
			{
				"x": -0.9273610107,
				"y": -4.7329778254,
				"z": 0.8697994013,
				"element": "H" 
			},
			{
				"x": -0.0498874273,
				"y": -5.6710643373,
				"z": 2.094784857,
				"element": "H" 
			},
			{
				"x": 0.9665198497,
				"y": -0.8297374229,
				"z": -0.7367309533,
				"element": "H" 
			},
			{
				"x": -0.6366531406,
				"y": -1.5395103429,
				"z": -0.557672768,
				"element": "H" 
			},
			{
				"x": -1.7036801308,
				"y": 0.6400298776,
				"z": -1.0325621277,
				"element": "H" 
			},
			{
				"x": -0.6257546732,
				"y": 0.1440274034,
				"z": -2.3464226537,
				"element": "H" 
			},
			{
				"x": 1.7492254875,
				"y": 1.4924350052,
				"z": 0.187296342,
				"element": "H" 
			},
			{
				"x": 0.8587506449,
				"y": 2.9922321263,
				"z": 0.4985957741,
				"element": "H" 
			},
			{
				"x": 0.390557865,
				"y": 1.3064624238,
				"z": 2.2933771671,
				"element": "H" 
			},
			{
				"x": -1.0736277412,
				"y": 1.6360702591,
				"z": 1.3668285674,
				"element": "H" 
			},
			{
				"x": -1.6183781166,
				"y": 2.2765498924,
				"z": -2.9953325557,
				"element": "H" 
			},
			{
				"x": -1.3118295584,
				"y": 4.0212442575,
				"z": -2.8603400155,
				"element": "H" 
			},
			{
				"x": 2.0472813076,
				"y": 3.2694061835,
				"z": -3.2672409727,
				"element": "H" 
			}
		],
		 "valence_orbital": [ 
			{
				"type": "occ",
				"energy": -0.30403,
				"method": "rhf"
			},
			{
				"type": "occ",
				"energy": -0.28298,
				"method": "rhf"
			},
			{
				"type": "occ",
				"energy": -0.27502,
				"method": "rhf"
			},
			{
				"type": "occ",
				"energy": -0.25632,
				"method": "rhf"
			},
			{
				"type": "occ",
				"energy": -0.23255,
				"method": "rhf"
			},
			{
				"type": "unocc",
				"energy": -0.01502,
				"method": "rhf"
			},
			{
				"type": "unocc",
				"energy": 0.05411,
				"method": "rhf"
			},
			{
				"type": "unocc",
				"energy": 0.05863,
				"method": "rhf"
			},
			{
				"type": "unocc",
				"energy": 0.08067,
				"method": "rhf"
			},
			{
				"type": "unocc",
				"energy": 0.08347,
				"method": "rhf"
			}
		],
		"cosmo_sigma_profile": { 
			"-0.025": 0.0,
			"-0.024": 0.0,
			"-0.023": 0.0,
			"-0.022": 0.0,
			"-0.021": 0.0,
			"-0.02": 0.0,
			"-0.019": 0.376321290597,
			"-0.018": 1.00729516997,
			"-0.017": 1.1515662242,
			"-0.016": 0.800350542385,
			"-0.015": 0.412281382847,
			"-0.014": 0.531436095346,
			"-0.013": 0.291574237306,
			"-0.012": 1.16823313536,
			"-0.011": 1.01566477526,
			"-0.01": 1.26832308827,
			"-0.009": 3.03221573162,
			"-0.008": 4.6366687248,
			"-0.007": 5.37712882248,
			"-0.006": 5.97521014282,
			"-0.005": 13.1268433992,
			"-0.004": 28.1878652348,
			"-0.003": 36.504370434,
			"-0.002": 30.7890852849,
			"-0.001": 28.0795726662,
			"0.0": 34.3409875238,
			"0.001": 31.3256407953,
			"0.002": 26.9695211155,
			"0.003": 33.6681545996,
			"0.004": 10.3125180658,
			"0.005": 7.61870147421,
			"0.006": 6.20291339272,
			"0.007": 6.82462757022,
			"0.008": 5.08628967228,
			"0.009": 4.33909373535,
			"0.01": 4.29712259385,
			"0.011": 6.0787399589,
			"0.012": 2.75053174908,
			"0.013": 2.5017777357,
			"0.014": 1.88309689441,
			"0.015": 0.0,
			"0.016": 0.0,
			"0.017": 0.0,
			"0.018": 0.0,
			"0.019": 0.0,
			"0.02": 0.0,
			"0.021": 0.0,
			"0.022": 0.0,
			"0.023": 0.0,
			"0.024": 0.0,
			"0.025": 0.0
		}
	}
}
