{
	 "smiles": "O=C(OC1OC(=O)C2=CC=CC=C12)C1=CC=CC=C1", 
	 "Tm": 407.15, 
	 "num_atms": 29, 
	 "gaussian": { 
		 "optdone": 1, 
		 "sigma_profile": "yes", 
		 "theory": "DFT", 
		 "functional": "B3LYP", 
		 "basiset": "6-31G**", 
		 "properties": { 
			 "R2extent": 6440.8494, 
			 "electric_dipole_moment_norm": 4.21913072801, 
			 "electric_quadrupole_moment_norm": 22.3751466069, 
			 "total_energy": -878.543272877, 
			 "HOMO_LUMO_gap": 0.2073, 
			 "cosmo_polarized_energy": -12.44, 
			 "cosmo_cavitation_energy": 34.68, 
			 "cosmo_dispersion_energy": -25.04, 
			 "cosmo_repulsion_energy": 1.9, 
			 "cosmo_total_nonelectrostatic_energy": 11.54, 
			 "SMD_solvation_energy": 7.45 
		},
		"coords": [
			{
				"x": -1.4374307113,
				"y": -1.5628183196,
				"z": -1.4225731497,
				"element": "O" 
			},
			{
				"x": -0.7739563825,
				"y": -1.3383647662,
				"z": -0.4259795789,
				"element": "C" 
			},
			{
				"x": -1.1846770345,
				"y": -0.4931643433,
				"z": 0.5544887348,
				"element": "O" 
			},
			{
				"x": -2.5129630158,
				"y": 0.0356895503,
				"z": 0.4201820037,
				"element": "C" 
			},
			{
				"x": -2.9227319479,
				"y": 0.3773619142,
				"z": 1.7323785509,
				"element": "O" 
			},
			{
				"x": -3.1439669114,
				"y": 1.7441844599,
				"z": 1.8519957795,
				"element": "C" 
			},
			{
				"x": -3.4763956766,
				"y": 2.2500247825,
				"z": 2.8899364365,
				"element": "O" 
			},
			{
				"x": -2.9175451173,
				"y": 2.3407475436,
				"z": 0.5165133182,
				"element": "C" 
			},
			{
				"x": -3.0356543388,
				"y": 3.6663774407,
				"z": 0.1066166283,
				"element": "C" 
			},
			{
				"x": -2.7744669444,
				"y": 3.9481811421,
				"z": -1.2350542722,
				"element": "C" 
			},
			{
				"x": -2.4097571094,
				"y": 2.9257676075,
				"z": -2.1246928466,
				"element": "C" 
			},
			{
				"x": -2.2927317936,
				"y": 1.5970932274,
				"z": -1.7017986393,
				"element": "C" 
			},
			{
				"x": -2.5506911868,
				"y": 1.3280817767,
				"z": -0.3616789521,
				"element": "C" 
			},
			{
				"x": 0.5561937799,
				"y": -1.9355795456,
				"z": -0.1394762497,
				"element": "C" 
			},
			{
				"x": 1.1045479761,
				"y": -2.7979703794,
				"z": -1.0996618384,
				"element": "C" 
			},
			{
				"x": 2.3469939163,
				"y": -3.3855774296,
				"z": -0.8781577137,
				"element": "C" 
			},
			{
				"x": 3.046430053,
				"y": -3.114977149,
				"z": 0.3014774625,
				"element": "C" 
			},
			{
				"x": 2.5018491719,
				"y": -2.25662491,
				"z": 1.2601057601,
				"element": "C" 
			},
			{
				"x": 1.2584252766,
				"y": -1.665547415,
				"z": 1.0441827495,
				"element": "C" 
			},
			{
				"x": -3.1623241732,
				"y": -0.7472354105,
				"z": 0.0219385966,
				"element": "H" 
			},
			{
				"x": -3.3252815918,
				"y": 4.4396924606,
				"z": 0.8107778226,
				"element": "H" 
			},
			{
				"x": -2.8580198571,
				"y": 4.9676882292,
				"z": -1.5991921731,
				"element": "H" 
			},
			{
				"x": -2.2166899493,
				"y": 3.1717539873,
				"z": -3.1648393313,
				"element": "H" 
			},
			{
				"x": -2.0120499276,
				"y": 0.8051772367,
				"z": -2.3873875919,
				"element": "H" 
			},
			{
				"x": 0.5415661839,
				"y": -2.9930823057,
				"z": -2.0060785597,
				"element": "H" 
			},
			{
				"x": 2.7708939575,
				"y": -4.0535302873,
				"z": -1.6219455555,
				"element": "H" 
			},
			{
				"x": 4.0158344344,
				"y": -3.5738486114,
				"z": 0.4739836627,
				"element": "H" 
			},
			{
				"x": 3.0457931522,
				"y": -2.0490907107,
				"z": 2.1766446754,
				"element": "H" 
			},
			{
				"x": 0.8272057677,
				"y": -1.0006097755,
				"z": 1.7835942707,
				"element": "H" 
			}
		],
		 "valence_orbital": [ 
			{
				"type": "occ",
				"energy": -0.28098,
				"method": "rhf"
			},
			{
				"type": "occ",
				"energy": -0.27555,
				"method": "rhf"
			},
			{
				"type": "occ",
				"energy": -0.27358,
				"method": "rhf"
			},
			{
				"type": "occ",
				"energy": -0.26761,
				"method": "rhf"
			},
			{
				"type": "occ",
				"energy": -0.26557,
				"method": "rhf"
			},
			{
				"type": "unocc",
				"energy": -0.05827,
				"method": "rhf"
			},
			{
				"type": "unocc",
				"energy": -0.0572,
				"method": "rhf"
			},
			{
				"type": "unocc",
				"energy": -0.03051,
				"method": "rhf"
			},
			{
				"type": "unocc",
				"energy": -0.01462,
				"method": "rhf"
			},
			{
				"type": "unocc",
				"energy": 0.0463,
				"method": "rhf"
			}
		],
		"cosmo_sigma_profile": { 
			"-0.025": 0.0,
			"-0.024": 0.0,
			"-0.023": 0.0,
			"-0.022": 0.0,
			"-0.021": 0.0,
			"-0.02": 0.0,
			"-0.019": 0.0,
			"-0.018": 0.0,
			"-0.017": 0.0,
			"-0.016": 0.0,
			"-0.015": 0.0,
			"-0.014": 0.0,
			"-0.013": 0.0,
			"-0.012": 0.0,
			"-0.011": 0.0,
			"-0.01": 0.0106414444922,
			"-0.009": 1.4147372419,
			"-0.008": 3.07362333781,
			"-0.007": 11.2001637629,
			"-0.006": 19.4019731768,
			"-0.005": 22.1477777715,
			"-0.004": 19.7336712438,
			"-0.003": 19.0591479192,
			"-0.002": 17.5434957626,
			"-0.001": 19.2771717416,
			"0.0": 21.5550158252,
			"0.001": 25.218296951,
			"0.002": 26.8582833691,
			"0.003": 20.5076393252,
			"0.004": 12.6254844762,
			"0.005": 4.48527638029,
			"0.006": 4.12033265234,
			"0.007": 4.39039727739,
			"0.008": 5.74645894588,
			"0.009": 6.08894024526,
			"0.01": 6.18042569936,
			"0.011": 7.82164572872,
			"0.012": 1.42651000732,
			"0.013": 0.0,
			"0.014": 0.0,
			"0.015": 0.0,
			"0.016": 0.0,
			"0.017": 0.0,
			"0.018": 0.0,
			"0.019": 0.0,
			"0.02": 0.0,
			"0.021": 0.0,
			"0.022": 0.0,
			"0.023": 0.0,
			"0.024": 0.0,
			"0.025": 0.0
		}
	}
}
