{
	 "smiles": "CC1=C(C=C(S1)C(N)=O)S(Cl)(=O)=O", 
	 "Tm": 396.15, 
	 "num_atms": 19, 
	 "gaussian": { 
		 "optdone": 1, 
		 "sigma_profile": "yes", 
		 "theory": "DFT", 
		 "functional": "B3LYP", 
		 "basiset": "6-31G**", 
		 "properties": { 
			 "R2extent": 5242.2544, 
			 "electric_dipole_moment_norm": 6.7998239661, 
			 "electric_quadrupole_moment_norm": 15.4219405037, 
			 "total_energy": -1769.18124192, 
			 "HOMO_LUMO_gap": 0.17573, 
			 "cosmo_polarized_energy": -17.5, 
			 "cosmo_cavitation_energy": 28.89, 
			 "cosmo_dispersion_energy": -21.77, 
			 "cosmo_repulsion_energy": 1.65, 
			 "cosmo_total_nonelectrostatic_energy": 8.77, 
			 "SMD_solvation_energy": 4.29 
		},
		"coords": [
			{
				"x": -1.2695351964,
				"y": -1.1364341789,
				"z": -2.6375264822,
				"element": "C" 
			},
			{
				"x": -1.3274220694,
				"y": -0.4950712879,
				"z": -1.2838033387,
				"element": "C" 
			},
			{
				"x": -2.0044100516,
				"y": 0.6322564813,
				"z": -0.8581929369,
				"element": "C" 
			},
			{
				"x": -1.8109794725,
				"y": 0.9847584249,
				"z": 0.5075261659,
				"element": "C" 
			},
			{
				"x": -0.9873732831,
				"y": 0.1025540009,
				"z": 1.1515131066,
				"element": "C" 
			},
			{
				"x": -0.4313583299,
				"y": -1.1419317797,
				"z": 0.0507088603,
				"element": "S" 
			},
			{
				"x": -0.6157724504,
				"y": 0.2044291614,
				"z": 2.5915831701,
				"element": "C" 
			},
			{
				"x": 0.0293199398,
				"y": -0.8778138912,
				"z": 3.1348685244,
				"element": "N" 
			},
			{
				"x": -0.8575313385,
				"y": 1.2207168028,
				"z": 3.2261014461,
				"element": "O" 
			},
			{
				"x": -3.0522235634,
				"y": 1.5994510183,
				"z": -1.9078083497,
				"element": "S" 
			},
			{
				"x": -1.6269564887,
				"y": 2.8258246418,
				"z": -2.9250527031,
				"element": "Cl" 
			},
			{
				"x": -3.8480400965,
				"y": 2.4953805244,
				"z": -1.0809449924,
				"element": "O" 
			},
			{
				"x": -3.6464236035,
				"y": 0.7522691862,
				"z": -2.9352594518,
				"element": "O" 
			},
			{
				"x": -2.2649174646,
				"y": -1.4659768192,
				"z": -2.9469399247,
				"element": "H" 
			},
			{
				"x": -0.9182578314,
				"y": -0.4209594942,
				"z": -3.3879694782,
				"element": "H" 
			},
			{
				"x": -0.5950185371,
				"y": -1.9952009873,
				"z": -2.6374076187,
				"element": "H" 
			},
			{
				"x": -2.2644189247,
				"y": 1.8358650679,
				"z": 0.9981065767,
				"element": "H" 
			},
			{
				"x": -0.0476913805,
				"y": -1.7966685725,
				"z": 2.7256634796,
				"element": "H" 
			},
			{
				"x": 0.1926101425,
				"y": -0.8332482991,
				"z": 4.1306339465,
				"element": "H" 
			}
		],
		 "valence_orbital": [ 
			{
				"type": "occ",
				"energy": -0.3163,
				"method": "rhf"
			},
			{
				"type": "occ",
				"energy": -0.29849,
				"method": "rhf"
			},
			{
				"type": "occ",
				"energy": -0.29082,
				"method": "rhf"
			},
			{
				"type": "occ",
				"energy": -0.27632,
				"method": "rhf"
			},
			{
				"type": "occ",
				"energy": -0.26793,
				"method": "rhf"
			},
			{
				"type": "unocc",
				"energy": -0.0922,
				"method": "rhf"
			},
			{
				"type": "unocc",
				"energy": -0.07173,
				"method": "rhf"
			},
			{
				"type": "unocc",
				"energy": -0.02524,
				"method": "rhf"
			},
			{
				"type": "unocc",
				"energy": -0.01262,
				"method": "rhf"
			},
			{
				"type": "unocc",
				"energy": 0.04332,
				"method": "rhf"
			}
		],
		"cosmo_sigma_profile": { 
			"-0.025": 0.0,
			"-0.024": 0.0,
			"-0.023": 0.0,
			"-0.022": 0.0,
			"-0.021": 0.0,
			"-0.02": 0.0,
			"-0.019": 0.0,
			"-0.018": 0.0,
			"-0.017": 0.0,
			"-0.016": 0.0533334503913,
			"-0.015": 1.05458593423,
			"-0.014": 2.33214808245,
			"-0.013": 1.98993789571,
			"-0.012": 3.05760537833,
			"-0.011": 2.3449933706,
			"-0.01": 2.55335458749,
			"-0.009": 2.03654125015,
			"-0.008": 2.81758666099,
			"-0.007": 5.30070983604,
			"-0.006": 9.15020155262,
			"-0.005": 11.2435594673,
			"-0.004": 14.0330847504,
			"-0.003": 18.8677643807,
			"-0.002": 19.9942419926,
			"-0.001": 21.6046946506,
			"0.0": 17.4017441851,
			"0.001": 14.3960662568,
			"0.002": 12.7154338953,
			"0.003": 15.1252505904,
			"0.004": 11.3826645895,
			"0.005": 4.81026419411,
			"0.006": 6.42381726484,
			"0.007": 6.67952821271,
			"0.008": 10.4809851423,
			"0.009": 5.15449693957,
			"0.01": 1.82649289044,
			"0.011": 1.44675426086,
			"0.012": 3.6863463942,
			"0.013": 4.96397261531,
			"0.014": 0.673498377947,
			"0.015": 0.0,
			"0.016": 0.0,
			"0.017": 0.0,
			"0.018": 0.0,
			"0.019": 0.0,
			"0.02": 0.0,
			"0.021": 0.0,
			"0.022": 0.0,
			"0.023": 0.0,
			"0.024": 0.0,
			"0.025": 0.0
		}
	}
}
