{
	 "smiles": "CNC1=C(C#N)C(C)=CC(C)=N1", 
	 "Tm": 421.15, 
	 "num_atms": 23, 
	 "gaussian": { 
		 "optdone": 1, 
		 "sigma_profile": "yes", 
		 "theory": "DFT", 
		 "functional": "B3LYP", 
		 "basiset": "6-31G**", 
		 "properties": { 
			 "R2extent": 2558.3604, 
			 "electric_dipole_moment_norm": 2.91076598338, 
			 "electric_quadrupole_moment_norm": 16.646303948, 
			 "total_energy": -513.852056014, 
			 "HOMO_LUMO_gap": 0.16793, 
			 "cosmo_polarized_energy": -10.13, 
			 "cosmo_cavitation_energy": 27.33, 
			 "cosmo_dispersion_energy": -19.29, 
			 "cosmo_repulsion_energy": 1.56, 
			 "cosmo_total_nonelectrostatic_energy": 9.61, 
			 "SMD_solvation_energy": 4.47 
		},
		"coords": [
			{
				"x": 0.7010116548,
				"y": 1.7236375006,
				"z": 3.3538926425,
				"element": "C" 
			},
			{
				"x": 1.2206873331,
				"y": 0.6457293683,
				"z": 2.5326408167,
				"element": "N" 
			},
			{
				"x": 0.9713028975,
				"y": 0.5448252665,
				"z": 1.2006821345,
				"element": "C" 
			},
			{
				"x": 1.5102705439,
				"y": -0.5394354884,
				"z": 0.4372535881,
				"element": "C" 
			},
			{
				"x": 2.314586374,
				"y": -1.5157675122,
				"z": 1.090397067,
				"element": "C" 
			},
			{
				"x": 2.9653305938,
				"y": -2.2836709002,
				"z": 1.680042203,
				"element": "N" 
			},
			{
				"x": 1.2290461,
				"y": -0.6085431163,
				"z": -0.9373988198,
				"element": "C" 
			},
			{
				"x": 1.7744516762,
				"y": -1.7314115987,
				"z": -1.7800574685,
				"element": "C" 
			},
			{
				"x": 0.430476004,
				"y": 0.3965015081,
				"z": -1.4864938939,
				"element": "C" 
			},
			{
				"x": -0.0564927114,
				"y": 1.422385409,
				"z": -0.6682370338,
				"element": "C" 
			},
			{
				"x": -0.920937608,
				"y": 2.5238465577,
				"z": -1.225944786,
				"element": "C" 
			},
			{
				"x": 0.2069830407,
				"y": 1.4958757305,
				"z": 0.6441605646,
				"element": "N" 
			},
			{
				"x": 1.0534524638,
				"y": 2.6992092512,
				"z": 3.0029770833,
				"element": "H" 
			},
			{
				"x": 1.0437015741,
				"y": 1.569582931,
				"z": 4.3789550425,
				"element": "H" 
			},
			{
				"x": -0.393742416,
				"y": 1.7418148398,
				"z": 3.3428620083,
				"element": "H" 
			},
			{
				"x": 1.7953248127,
				"y": -0.0638524222,
				"z": 2.9599358371,
				"element": "H" 
			},
			{
				"x": 1.4312194947,
				"y": -2.7034509784,
				"z": -1.4095541552,
				"element": "H" 
			},
			{
				"x": 2.8692363266,
				"y": -1.7505273869,
				"z": -1.7488028993,
				"element": "H" 
			},
			{
				"x": 1.4610161976,
				"y": -1.6292518006,
				"z": -2.8213109395,
				"element": "H" 
			},
			{
				"x": 0.1886814562,
				"y": 0.3816954099,
				"z": -2.5438704706,
				"element": "H" 
			},
			{
				"x": -1.8868016776,
				"y": 2.5428853638,
				"z": -0.7104215737,
				"element": "H" 
			},
			{
				"x": -0.4495445893,
				"y": 3.4970607501,
				"z": -1.0536460519,
				"element": "H" 
			},
			{
				"x": -1.0958595412,
				"y": 2.4019613173,
				"z": -2.2974608952,
				"element": "H" 
			}
		],
		 "valence_orbital": [ 
			{
				"type": "occ",
				"energy": -0.33212,
				"method": "rhf"
			},
			{
				"type": "occ",
				"energy": -0.30401,
				"method": "rhf"
			},
			{
				"type": "occ",
				"energy": -0.2692,
				"method": "rhf"
			},
			{
				"type": "occ",
				"energy": -0.26329,
				"method": "rhf"
			},
			{
				"type": "occ",
				"energy": -0.21368,
				"method": "rhf"
			},
			{
				"type": "unocc",
				"energy": -0.04575,
				"method": "rhf"
			},
			{
				"type": "unocc",
				"energy": 0.00091,
				"method": "rhf"
			},
			{
				"type": "unocc",
				"energy": 0.03252,
				"method": "rhf"
			},
			{
				"type": "unocc",
				"energy": 0.07633,
				"method": "rhf"
			},
			{
				"type": "unocc",
				"energy": 0.08506,
				"method": "rhf"
			}
		],
		"cosmo_sigma_profile": { 
			"-0.025": 0.0,
			"-0.024": 0.0,
			"-0.023": 0.0,
			"-0.022": 0.0,
			"-0.021": 0.0,
			"-0.02": 0.0,
			"-0.019": 0.0,
			"-0.018": 0.0,
			"-0.017": 0.0,
			"-0.016": 0.0,
			"-0.015": 0.0,
			"-0.014": 0.0429903230217,
			"-0.013": 0.583959567742,
			"-0.012": 0.786734109203,
			"-0.011": 1.33420973865,
			"-0.01": 0.677414545871,
			"-0.009": 1.01781335399,
			"-0.008": 1.3211084,
			"-0.007": 1.72872318703,
			"-0.006": 7.24872557972,
			"-0.005": 14.7751615852,
			"-0.004": 19.7743794921,
			"-0.003": 19.0724902613,
			"-0.002": 22.9870084371,
			"-0.001": 26.6950119822,
			"0.0": 21.4274514309,
			"0.001": 15.7633428504,
			"0.002": 13.1520424892,
			"0.003": 10.7433541203,
			"0.004": 4.84093243639,
			"0.005": 2.74138957856,
			"0.006": 3.25574934184,
			"0.007": 4.50381469538,
			"0.008": 3.54484722627,
			"0.009": 4.40872348385,
			"0.01": 4.02149188882,
			"0.011": 4.1613789459,
			"0.012": 3.2993977203,
			"0.013": 2.7573152348,
			"0.014": 0.550374075919,
			"0.015": 0.0,
			"0.016": 0.0,
			"0.017": 0.0,
			"0.018": 0.0,
			"0.019": 0.0,
			"0.02": 0.0,
			"0.021": 0.0,
			"0.022": 0.0,
			"0.023": 0.0,
			"0.024": 0.0,
			"0.025": 0.0
		}
	}
}
