{
	 "smiles": "CC1CC2(C)C(CCC3C4CCC(O)C4(C)CCC23)CC1=O", 
	 "Tm": 424.15, 
	 "num_atms": 54, 
	 "gaussian": { 
		 "optdone": 1, 
		 "sigma_profile": "yes", 
		 "theory": "DFT", 
		 "functional": "B3LYP", 
		 "basiset": "6-31G**", 
		 "properties": { 
			 "R2extent": 7921.8672, 
			 "electric_dipole_moment_norm": 2.5330430474, 
			 "electric_quadrupole_moment_norm": 28.6312141805, 
			 "total_energy": -931.878273403, 
			 "HOMO_LUMO_gap": 0.22244, 
			 "cosmo_polarized_energy": -12.57, 
			 "cosmo_cavitation_energy": 45.0, 
			 "cosmo_dispersion_energy": -31.85, 
			 "cosmo_repulsion_energy": 2.33, 
			 "cosmo_total_nonelectrostatic_energy": 15.48, 
			 "SMD_solvation_energy": 6.56 
		},
		"coords": [
			{
				"x": -1.2160490593,
				"y": 4.5095431251,
				"z": 2.2703693164,
				"element": "C" 
			},
			{
				"x": -0.2605139287,
				"y": 3.4028067705,
				"z": 1.8277664451,
				"element": "C" 
			},
			{
				"x": -0.967465683,
				"y": 2.0177301066,
				"z": 1.7119753316,
				"element": "C" 
			},
			{
				"x": -0.2666498264,
				"y": 0.9624115261,
				"z": 0.7881440185,
				"element": "C" 
			},
			{
				"x": -0.9000263454,
				"y": 1.079992577,
				"z": -0.6184428414,
				"element": "C" 
			},
			{
				"x": 1.2550697182,
				"y": 1.3082637547,
				"z": 0.7248062342,
				"element": "C" 
			},
			{
				"x": 2.0792263615,
				"y": 0.2205403017,
				"z": 0.0249459321,
				"element": "C" 
			},
			{
				"x": 1.9489031185,
				"y": -1.1212278772,
				"z": 0.7517164875,
				"element": "C" 
			},
			{
				"x": 0.4873322758,
				"y": -1.5991399999,
				"z": 0.8963642591,
				"element": "C" 
			},
			{
				"x": -0.045359507,
				"y": -2.3198469477,
				"z": -0.3735686222,
				"element": "C" 
			},
			{
				"x": 0.6768082597,
				"y": -3.6901266712,
				"z": -0.5883563552,
				"element": "C" 
			},
			{
				"x": -0.2808819289,
				"y": -4.7938695439,
				"z": -0.0661692911,
				"element": "C" 
			},
			{
				"x": -1.4957399517,
				"y": -4.0515579105,
				"z": 0.5035276475,
				"element": "C" 
			},
			{
				"x": -2.6520246892,
				"y": -4.8723740743,
				"z": 0.3876729726,
				"element": "O" 
			},
			{
				"x": -1.5543282047,
				"y": -2.7144033324,
				"z": -0.2934928692,
				"element": "C" 
			},
			{
				"x": -2.1078530013,
				"y": -2.9808143187,
				"z": -1.7077266396,
				"element": "C" 
			},
			{
				"x": -2.4549524663,
				"y": -1.6652268278,
				"z": 0.3901545793,
				"element": "C" 
			},
			{
				"x": -1.8538840322,
				"y": -0.984885326,
				"z": 1.6306895047,
				"element": "C" 
			},
			{
				"x": -0.4118896552,
				"y": -0.4561148286,
				"z": 1.4542694423,
				"element": "C" 
			},
			{
				"x": 1.4980106,
				"y": 2.6982944736,
				"z": 0.1056266035,
				"element": "C" 
			},
			{
				"x": 0.4731899939,
				"y": 3.7409679523,
				"z": 0.5378287659,
				"element": "C" 
			},
			{
				"x": 0.2727273177,
				"y": 4.7579432798,
				"z": -0.1007158803,
				"element": "O" 
			},
			{
				"x": -1.719007793,
				"y": 4.2375877179,
				"z": 3.2041660337,
				"element": "H" 
			},
			{
				"x": -1.9782163667,
				"y": 4.6877472832,
				"z": 1.5060383119,
				"element": "H" 
			},
			{
				"x": -0.6838834717,
				"y": 5.4518631748,
				"z": 2.4249873966,
				"element": "H" 
			},
			{
				"x": 0.5349327115,
				"y": 3.2935757365,
				"z": 2.581960744,
				"element": "H" 
			},
			{
				"x": -1.9883710356,
				"y": 2.1905401151,
				"z": 1.3521827978,
				"element": "H" 
			},
			{
				"x": -1.068307036,
				"y": 1.6194813258,
				"z": 2.7280525105,
				"element": "H" 
			},
			{
				"x": -0.4716263724,
				"y": 0.3832405728,
				"z": -1.3423155235,
				"element": "H" 
			},
			{
				"x": -0.7770727307,
				"y": 2.0888352964,
				"z": -1.024393498,
				"element": "H" 
			},
			{
				"x": -1.9755260357,
				"y": 0.8981459869,
				"z": -0.5766096311,
				"element": "H" 
			},
			{
				"x": 1.6060408541,
				"y": 1.3422259226,
				"z": 1.7680506485,
				"element": "H" 
			},
			{
				"x": 1.7640498156,
				"y": 0.1264993951,
				"z": -1.0222557321,
				"element": "H" 
			},
			{
				"x": 3.13389337,
				"y": 0.5232002059,
				"z": -0.0046859666,
				"element": "H" 
			},
			{
				"x": 2.3777838137,
				"y": -1.0086886743,
				"z": 1.7572157148,
				"element": "H" 
			},
			{
				"x": 2.5556943077,
				"y": -1.881815434,
				"z": 0.248893397,
				"element": "H" 
			},
			{
				"x": 0.4898153679,
				"y": -2.3604781879,
				"z": 1.6909131026,
				"element": "H" 
			},
			{
				"x": 0.1185444108,
				"y": -1.6738030655,
				"z": -1.2434199544,
				"element": "H" 
			},
			{
				"x": 0.9031097152,
				"y": -3.8452516406,
				"z": -1.6475400858,
				"element": "H" 
			},
			{
				"x": 1.6371955672,
				"y": -3.7186200506,
				"z": -0.0663752238,
				"element": "H" 
			},
			{
				"x": 0.1851066016,
				"y": -5.4428477913,
				"z": 0.680616678,
				"element": "H" 
			},
			{
				"x": -0.6284266373,
				"y": -5.4430190638,
				"z": -0.8757466611,
				"element": "H" 
			},
			{
				"x": -1.3200426075,
				"y": -3.821067801,
				"z": 1.565923183,
				"element": "H" 
			},
			{
				"x": -3.3738845555,
				"y": -4.4434930085,
				"z": 0.865014101,
				"element": "H" 
			},
			{
				"x": -3.1340903401,
				"y": -3.3551358316,
				"z": -1.6572804441,
				"element": "H" 
			},
			{
				"x": -2.1056326816,
				"y": -2.0568333861,
				"z": -2.2960889119,
				"element": "H" 
			},
			{
				"x": -1.5199744032,
				"y": -3.7244325386,
				"z": -2.2532623076,
				"element": "H" 
			},
			{
				"x": -2.7356280626,
				"y": -0.9107142751,
				"z": -0.3495024201,
				"element": "H" 
			},
			{
				"x": -3.4042686633,
				"y": -2.1468427726,
				"z": 0.671352865,
				"element": "H" 
			},
			{
				"x": -1.8324294752,
				"y": -1.7086989504,
				"z": 2.4564100892,
				"element": "H" 
			},
			{
				"x": -2.5233135243,
				"y": -0.1831467873,
				"z": 1.9632184159,
				"element": "H" 
			},
			{
				"x": -0.0308850708,
				"y": -0.2869000899,
				"z": 2.4730035998,
				"element": "H" 
			},
			{
				"x": 1.5092426144,
				"y": 2.6692261431,
				"z": -0.9889267755,
				"element": "H" 
			},
			{
				"x": 2.4884283476,
				"y": 3.0688142639,
				"z": 0.405518505,
				"element": "H" 
			}
		],
		 "valence_orbital": [ 
			{
				"type": "occ",
				"energy": -0.28638,
				"method": "rhf"
			},
			{
				"type": "occ",
				"energy": -0.28444,
				"method": "rhf"
			},
			{
				"type": "occ",
				"energy": -0.2785,
				"method": "rhf"
			},
			{
				"type": "occ",
				"energy": -0.25417,
				"method": "rhf"
			},
			{
				"type": "occ",
				"energy": -0.23269,
				"method": "rhf"
			},
			{
				"type": "unocc",
				"energy": -0.01025,
				"method": "rhf"
			},
			{
				"type": "unocc",
				"energy": 0.05244,
				"method": "rhf"
			},
			{
				"type": "unocc",
				"energy": 0.07111,
				"method": "rhf"
			},
			{
				"type": "unocc",
				"energy": 0.07462,
				"method": "rhf"
			},
			{
				"type": "unocc",
				"energy": 0.08726,
				"method": "rhf"
			}
		],
		"cosmo_sigma_profile": { 
			"-0.025": 0.0,
			"-0.024": 0.0,
			"-0.023": 0.0,
			"-0.022": 0.0,
			"-0.021": 0.0,
			"-0.02": 0.0,
			"-0.019": 0.0,
			"-0.018": 0.0,
			"-0.017": 0.0,
			"-0.016": 0.0,
			"-0.015": 0.0511618719693,
			"-0.014": 0.669956198992,
			"-0.013": 0.856051504412,
			"-0.012": 1.4031493405,
			"-0.011": 0.401134613472,
			"-0.01": 1.01423752654,
			"-0.009": 1.0279376839,
			"-0.008": 1.18044080212,
			"-0.007": 1.06937127956,
			"-0.006": 1.87692524923,
			"-0.005": 8.31203207506,
			"-0.004": 10.8471259436,
			"-0.003": 30.2265396372,
			"-0.002": 67.3138250798,
			"-0.001": 64.6603511605,
			"0.0": 48.0365635423,
			"0.001": 40.1408257287,
			"0.002": 20.3062995828,
			"0.003": 5.66901652114,
			"0.004": 3.00569880527,
			"0.005": 2.68939060419,
			"0.006": 2.17815234023,
			"0.007": 2.82983153725,
			"0.008": 3.7473733754,
			"0.009": 3.14052367771,
			"0.01": 3.24209285955,
			"0.011": 3.24455540543,
			"0.012": 5.07591307273,
			"0.013": 5.62309897322,
			"0.014": 2.83891095422,
			"0.015": 0.709763168921,
			"0.016": 0.0,
			"0.017": 0.0,
			"0.018": 0.0,
			"0.019": 0.0,
			"0.02": 0.0,
			"0.021": 0.0,
			"0.022": 0.0,
			"0.023": 0.0,
			"0.024": 0.0,
			"0.025": 0.0
		}
	}
}
