{
	 "smiles": "O=C(C1CCNCC1)N1CCCCCC1", 
	 "Tm": 317.15, 
	 "num_atms": 37, 
	 "gaussian": { 
		 "optdone": 1, 
		 "sigma_profile": "yes", 
		 "theory": "DFT", 
		 "functional": "B3LYP", 
		 "basiset": "6-31G**", 
		 "properties": { 
			 "R2extent": 3743.6199, 
			 "electric_dipole_moment_norm": 2.97263748715, 
			 "electric_quadrupole_moment_norm": 13.5537497741, 
			 "total_energy": -655.273726937, 
			 "HOMO_LUMO_gap": 0.25312, 
			 "cosmo_polarized_energy": -11.38, 
			 "cosmo_cavitation_energy": 34.14, 
			 "cosmo_dispersion_energy": -24.8, 
			 "cosmo_repulsion_energy": 1.94, 
			 "cosmo_total_nonelectrostatic_energy": 11.28, 
			 "SMD_solvation_energy": 2.28 
		},
		"coords": [
			{
				"x": -1.9583563541,
				"y": 0.0434221041,
				"z": 1.1656607793,
				"element": "O" 
			},
			{
				"x": -0.8062141509,
				"y": -0.0804919238,
				"z": 0.7461300353,
				"element": "C" 
			},
			{
				"x": -0.0478550315,
				"y": -1.3761609536,
				"z": 1.0890219228,
				"element": "C" 
			},
			{
				"x": -0.0066749843,
				"y": -2.4108395505,
				"z": -0.0601800809,
				"element": "C" 
			},
			{
				"x": 0.5917599379,
				"y": -3.72889943,
				"z": 0.4462358221,
				"element": "C" 
			},
			{
				"x": 1.9208814781,
				"y": -3.4810560546,
				"z": 1.0071509245,
				"element": "N" 
			},
			{
				"x": 1.8657351548,
				"y": -2.5978857772,
				"z": 2.1736570414,
				"element": "C" 
			},
			{
				"x": 1.3390499953,
				"y": -1.2211557137,
				"z": 1.748848179,
				"element": "C" 
			},
			{
				"x": -0.2220627581,
				"y": 0.9291537635,
				"z": 0.0138897997,
				"element": "N" 
			},
			{
				"x": 1.0434210577,
				"y": 0.8478616918,
				"z": -0.7249582503,
				"element": "C" 
			},
			{
				"x": 0.9813787197,
				"y": 1.5326343592,
				"z": -2.1006689887,
				"element": "C" 
			},
			{
				"x": -0.1365842151,
				"y": 1.0529192541,
				"z": -3.0438323999,
				"element": "C" 
			},
			{
				"x": -1.556800041,
				"y": 1.0353992896,
				"z": -2.4357311556,
				"element": "C" 
			},
			{
				"x": -1.870628697,
				"y": 2.1775034455,
				"z": -1.4575686165,
				"element": "C" 
			},
			{
				"x": -1.0023280949,
				"y": 2.1580627732,
				"z": -0.1615285216,
				"element": "C" 
			},
			{
				"x": -0.7085798164,
				"y": -1.8055176359,
				"z": 1.8514197989,
				"element": "H" 
			},
			{
				"x": 0.602572153,
				"y": -2.0574239836,
				"z": -0.8989795613,
				"element": "H" 
			},
			{
				"x": -1.0215255899,
				"y": -2.5812619971,
				"z": -0.4369296848,
				"element": "H" 
			},
			{
				"x": 0.6869803368,
				"y": -4.4408356352,
				"z": -0.3812189501,
				"element": "H" 
			},
			{
				"x": -0.1053049072,
				"y": -4.1741560484,
				"z": 1.1836718646,
				"element": "H" 
			},
			{
				"x": 2.3575490981,
				"y": -4.3624430597,
				"z": 1.2616070793,
				"element": "H" 
			},
			{
				"x": 1.2170515656,
				"y": -2.9967191518,
				"z": 2.9788269932,
				"element": "H" 
			},
			{
				"x": 2.8753636012,
				"y": -2.5019846286,
				"z": 2.5883138323,
				"element": "H" 
			},
			{
				"x": 2.0662934257,
				"y": -0.7766927189,
				"z": 1.0646082657,
				"element": "H" 
			},
			{
				"x": 1.2654064235,
				"y": -0.5649860215,
				"z": 2.6240066829,
				"element": "H" 
			},
			{
				"x": 1.8546008041,
				"y": 1.3137367388,
				"z": -0.1448351077,
				"element": "H" 
			},
			{
				"x": 1.3088745602,
				"y": -0.1996274332,
				"z": -0.8608663774,
				"element": "H" 
			},
			{
				"x": 0.8944203502,
				"y": 2.6160005304,
				"z": -1.9613040525,
				"element": "H" 
			},
			{
				"x": 1.9550072569,
				"y": 1.3783852747,
				"z": -2.5824930705,
				"element": "H" 
			},
			{
				"x": 0.1005844307,
				"y": 0.0479255424,
				"z": -3.4165106515,
				"element": "H" 
			},
			{
				"x": -0.1240874525,
				"y": 1.7093909582,
				"z": -3.9233070684,
				"element": "H" 
			},
			{
				"x": -1.7239408974,
				"y": 0.0876127452,
				"z": -1.9139588047,
				"element": "H" 
			},
			{
				"x": -2.2890546802,
				"y": 1.0587394088,
				"z": -3.2518881713,
				"element": "H" 
			},
			{
				"x": -2.9257517249,
				"y": 2.1004766004,
				"z": -1.1758918269,
				"element": "H" 
			},
			{
				"x": -1.7507107357,
				"y": 3.1471162044,
				"z": -1.9579090234,
				"element": "H" 
			},
			{
				"x": -1.6437531293,
				"y": 2.2519356432,
				"z": 0.7137038463,
				"element": "H" 
			},
			{
				"x": -0.299517089,
				"y": 2.9972613899,
				"z": -0.1544925036,
				"element": "H" 
			}
		],
		 "valence_orbital": [ 
			{
				"type": "occ",
				"energy": -0.31168,
				"method": "rhf"
			},
			{
				"type": "occ",
				"energy": -0.30826,
				"method": "rhf"
			},
			{
				"type": "occ",
				"energy": -0.23227,
				"method": "rhf"
			},
			{
				"type": "occ",
				"energy": -0.22538,
				"method": "rhf"
			},
			{
				"type": "occ",
				"energy": -0.22039,
				"method": "rhf"
			},
			{
				"type": "unocc",
				"energy": 0.03273,
				"method": "rhf"
			},
			{
				"type": "unocc",
				"energy": 0.07114,
				"method": "rhf"
			},
			{
				"type": "unocc",
				"energy": 0.08294,
				"method": "rhf"
			},
			{
				"type": "unocc",
				"energy": 0.09654,
				"method": "rhf"
			},
			{
				"type": "unocc",
				"energy": 0.11482,
				"method": "rhf"
			}
		],
		"cosmo_sigma_profile": { 
			"-0.025": 0.0,
			"-0.024": 0.0,
			"-0.023": 0.0,
			"-0.022": 0.0,
			"-0.021": 0.0,
			"-0.02": 0.0,
			"-0.019": 0.0,
			"-0.018": 0.0,
			"-0.017": 0.0,
			"-0.016": 0.0,
			"-0.015": 0.0,
			"-0.014": 0.0,
			"-0.013": 0.0,
			"-0.012": 0.0,
			"-0.011": 0.00265246226613,
			"-0.01": 0.825864858939,
			"-0.009": 1.34018715674,
			"-0.008": 1.12209765593,
			"-0.007": 1.50121302016,
			"-0.006": 2.16650534879,
			"-0.005": 4.46822790317,
			"-0.004": 13.08629432,
			"-0.003": 34.8219123927,
			"-0.002": 49.8622312656,
			"-0.001": 54.3980024285,
			"0.0": 37.4773557285,
			"0.001": 17.624870365,
			"0.002": 6.10867063776,
			"0.003": 4.72262296718,
			"0.004": 2.92272684834,
			"0.005": 2.3862760013,
			"0.006": 2.05775480519,
			"0.007": 2.32305037987,
			"0.008": 2.0892155923,
			"0.009": 2.35082101534,
			"0.01": 1.72509186736,
			"0.011": 2.30343638887,
			"0.012": 2.07163322244,
			"0.013": 2.29907566647,
			"0.014": 3.57311427314,
			"0.015": 4.14296676543,
			"0.016": 1.30486312348,
			"0.017": 0.69940023542,
			"0.018": 0.490054676871,
			"0.019": 0.0134879079293,
			"0.02": 0.0,
			"0.021": 0.0,
			"0.022": 0.0,
			"0.023": 0.0,
			"0.024": 0.0,
			"0.025": 0.0
		}
	}
}
