{
	 "smiles": "COC1=C(C#N)C(OCC2=CC=CC=C2Cl)=CC=C1", 
	 "Tm": 426.15, 
	 "num_atms": 31, 
	 "gaussian": { 
		 "optdone": 1, 
		 "sigma_profile": "yes", 
		 "theory": "DFT", 
		 "functional": "B3LYP", 
		 "basiset": "6-31G**", 
		 "properties": { 
			 "R2extent": 7026.0479, 
			 "electric_dipole_moment_norm": 3.60224697238, 
			 "electric_quadrupole_moment_norm": 36.1205449706, 
			 "total_energy": -1244.17861273, 
			 "HOMO_LUMO_gap": 0.19157, 
			 "cosmo_polarized_energy": -13.94, 
			 "cosmo_cavitation_energy": 38.28, 
			 "cosmo_dispersion_energy": -26.44, 
			 "cosmo_repulsion_energy": 2.02, 
			 "cosmo_total_nonelectrostatic_energy": 13.86, 
			 "SMD_solvation_energy": 8.08 
		},
		"coords": [
			{
				"x": 2.4046575907,
				"y": 0.2281916317,
				"z": -5.4716716899,
				"element": "C" 
			},
			{
				"x": 2.218158684,
				"y": -0.0392444239,
				"z": -4.0869535127,
				"element": "O" 
			},
			{
				"x": 1.2442618953,
				"y": 0.6248834983,
				"z": -3.4211624802,
				"element": "C" 
			},
			{
				"x": 1.1355680919,
				"y": 0.3216225382,
				"z": -2.0419655558,
				"element": "C" 
			},
			{
				"x": 2.0339092169,
				"y": -0.6096487547,
				"z": -1.436942894,
				"element": "C" 
			},
			{
				"x": 2.7379480535,
				"y": -1.3716328772,
				"z": -0.9088899967,
				"element": "N" 
			},
			{
				"x": 0.1506327434,
				"y": 0.962753255,
				"z": -1.2602747708,
				"element": "C" 
			},
			{
				"x": 0.0696272174,
				"y": 0.7240073186,
				"z": 0.0835085309,
				"element": "O" 
			},
			{
				"x": -0.5308413536,
				"y": -0.5380792014,
				"z": 0.4712773074,
				"element": "C" 
			},
			{
				"x": -0.3370724464,
				"y": -0.7094900463,
				"z": 1.9525168039,
				"element": "C" 
			},
			{
				"x": 0.8184547304,
				"y": -1.3513358505,
				"z": 2.4216328645,
				"element": "C" 
			},
			{
				"x": 1.0512748879,
				"y": -1.521421612,
				"z": 3.7845807243,
				"element": "C" 
			},
			{
				"x": 0.1218543261,
				"y": -1.0447736747,
				"z": 4.7101467672,
				"element": "C" 
			},
			{
				"x": -1.032313978,
				"y": -0.395922576,
				"z": 4.2727669879,
				"element": "C" 
			},
			{
				"x": -1.2475075316,
				"y": -0.2303153435,
				"z": 2.9047635311,
				"element": "C" 
			},
			{
				"x": -2.7163214032,
				"y": 0.6074039222,
				"z": 2.4009378198,
				"element": "Cl" 
			},
			{
				"x": -0.707088711,
				"y": 1.8973871623,
				"z": -1.8415419294,
				"element": "C" 
			},
			{
				"x": -0.5816499168,
				"y": 2.1892050476,
				"z": -3.1976007193,
				"element": "C" 
			},
			{
				"x": 0.3784913208,
				"y": 1.5613185799,
				"z": -3.9946804712,
				"element": "C" 
			},
			{
				"x": 2.6626997874,
				"y": 1.27981031,
				"z": -5.6449782066,
				"element": "H" 
			},
			{
				"x": 3.2349076266,
				"y": -0.4048981777,
				"z": -5.7854483324,
				"element": "H" 
			},
			{
				"x": 1.5110716013,
				"y": -0.0288903441,
				"z": -6.0531615989,
				"element": "H" 
			},
			{
				"x": -1.5914967634,
				"y": -0.5235461288,
				"z": 0.2010303633,
				"element": "H" 
			},
			{
				"x": -0.0399186596,
				"y": -1.3586133358,
				"z": -0.0603101585,
				"element": "H" 
			},
			{
				"x": 1.5417482865,
				"y": -1.7103773113,
				"z": 1.6943652204,
				"element": "H" 
			},
			{
				"x": 1.9530286355,
				"y": -2.0229720735,
				"z": 4.1216268112,
				"element": "H" 
			},
			{
				"x": 0.2904237489,
				"y": -1.1740352401,
				"z": 5.7751870006,
				"element": "H" 
			},
			{
				"x": -1.7615261675,
				"y": -0.0174130736,
				"z": 4.9803193746,
				"element": "H" 
			},
			{
				"x": -1.4476820064,
				"y": 2.3832915367,
				"z": -1.2167805398,
				"element": "H" 
			},
			{
				"x": -1.2463380659,
				"y": 2.9183729259,
				"z": -3.6514364606,
				"element": "H" 
			},
			{
				"x": 0.449638559,
				"y": 1.8074623188,
				"z": -5.0464607903,
				"element": "H" 
			}
		],
		 "valence_orbital": [ 
			{
				"type": "occ",
				"energy": -0.28557,
				"method": "rhf"
			},
			{
				"type": "occ",
				"energy": -0.25964,
				"method": "rhf"
			},
			{
				"type": "occ",
				"energy": -0.25302,
				"method": "rhf"
			},
			{
				"type": "occ",
				"energy": -0.24572,
				"method": "rhf"
			},
			{
				"type": "occ",
				"energy": -0.23823,
				"method": "rhf"
			},
			{
				"type": "unocc",
				"energy": -0.04666,
				"method": "rhf"
			},
			{
				"type": "unocc",
				"energy": -0.02026,
				"method": "rhf"
			},
			{
				"type": "unocc",
				"energy": -0.01055,
				"method": "rhf"
			},
			{
				"type": "unocc",
				"energy": -0.00368,
				"method": "rhf"
			},
			{
				"type": "unocc",
				"energy": 0.02989,
				"method": "rhf"
			}
		],
		"cosmo_sigma_profile": { 
			"-0.025": 0.0,
			"-0.024": 0.0,
			"-0.023": 0.0,
			"-0.022": 0.0,
			"-0.021": 0.0,
			"-0.02": 0.0,
			"-0.019": 0.0,
			"-0.018": 0.0,
			"-0.017": 0.0,
			"-0.016": 0.0,
			"-0.015": 0.0,
			"-0.014": 0.0,
			"-0.013": 0.0,
			"-0.012": 0.0,
			"-0.011": 0.0,
			"-0.01": 0.0,
			"-0.009": 0.0,
			"-0.008": 1.01189765085,
			"-0.007": 12.0011854117,
			"-0.006": 22.7033827638,
			"-0.005": 26.1691844184,
			"-0.004": 26.1896653921,
			"-0.003": 20.0643190806,
			"-0.002": 17.3682927206,
			"-0.001": 17.5068391038,
			"0.0": 22.682271467,
			"0.001": 24.2834803286,
			"0.002": 28.279721161,
			"0.003": 27.1569598103,
			"0.004": 22.0107258391,
			"0.005": 10.490475541,
			"0.006": 6.00532117445,
			"0.007": 5.59352089435,
			"0.008": 6.60653159241,
			"0.009": 4.55687330154,
			"0.01": 3.52430033458,
			"0.011": 2.41111155562,
			"0.012": 1.93831965036,
			"0.013": 1.41106299122,
			"0.014": 0.00946055764836,
			"0.015": 0.0,
			"0.016": 0.0,
			"0.017": 0.0,
			"0.018": 0.0,
			"0.019": 0.0,
			"0.02": 0.0,
			"0.021": 0.0,
			"0.022": 0.0,
			"0.023": 0.0,
			"0.024": 0.0,
			"0.025": 0.0
		}
	}
}
