{
	 "smiles": "FC1=C(C#N)C(OCC(F)(F)F)=CC=C1", 
	 "Tm": 362.15, 
	 "num_atms": 20, 
	 "gaussian": { 
		 "optdone": 1, 
		 "sigma_profile": "yes", 
		 "theory": "DFT", 
		 "functional": "B3LYP", 
		 "basiset": "6-31G**", 
		 "properties": { 
			 "R2extent": 3709.2165, 
			 "electric_dipole_moment_norm": 3.72402034635, 
			 "electric_quadrupole_moment_norm": 14.0037195616, 
			 "total_energy": -875.270281072, 
			 "HOMO_LUMO_gap": 0.20247, 
			 "cosmo_polarized_energy": -9.6, 
			 "cosmo_cavitation_energy": 27.8, 
			 "cosmo_dispersion_energy": -18.58, 
			 "cosmo_repulsion_energy": 1.38, 
			 "cosmo_total_nonelectrostatic_energy": 10.61, 
			 "SMD_solvation_energy": 7.7 
		},
		"coords": [
			{
				"x": -2.7154040787,
				"y": -0.1238872221,
				"z": 3.2156765102,
				"element": "F" 
			},
			{
				"x": -2.1811823666,
				"y": 0.5936317824,
				"z": 2.2177001037,
				"element": "C" 
			},
			{
				"x": -1.2629841096,
				"y": -0.0410529973,
				"z": 1.3654848264,
				"element": "C" 
			},
			{
				"x": -0.8957469603,
				"y": -1.4012672522,
				"z": 1.5950102586,
				"element": "C" 
			},
			{
				"x": -0.5891391234,
				"y": -2.5111114529,
				"z": 1.7612099891,
				"element": "N" 
			},
			{
				"x": -0.7022936875,
				"y": 0.714921987,
				"z": 0.3108336088,
				"element": "C" 
			},
			{
				"x": 0.2568902133,
				"y": 0.1829490121,
				"z": -0.5131488092,
				"element": "O" 
			},
			{
				"x": -0.1005274141,
				"y": -0.8739012477,
				"z": -1.3958836985,
				"element": "C" 
			},
			{
				"x": -0.6700735245,
				"y": -0.3238757926,
				"z": -2.6953101658,
				"element": "C" 
			},
			{
				"x": -0.9246457507,
				"y": -1.3427657578,
				"z": -3.5415050666,
				"element": "F" 
			},
			{
				"x": -1.825142748,
				"y": 0.3427768703,
				"z": -2.4845777309,
				"element": "F" 
			},
			{
				"x": 0.1837635734,
				"y": 0.5217000909,
				"z": -3.297934856,
				"element": "F" 
			},
			{
				"x": -1.0436907226,
				"y": 2.0564779767,
				"z": 0.1522072611,
				"element": "C" 
			},
			{
				"x": -1.9505490968,
				"y": 2.6529411625,
				"z": 1.0279024929,
				"element": "C" 
			},
			{
				"x": -2.5343106524,
				"y": 1.925316161,
				"z": 2.0667769322,
				"element": "C" 
			},
			{
				"x": 0.8167836716,
				"y": -1.4198322529,
				"z": -1.6232704472,
				"element": "H" 
			},
			{
				"x": -0.8246575594,
				"y": -1.5661157802,
				"z": -0.9586975036,
				"element": "H" 
			},
			{
				"x": -0.5937265845,
				"y": 2.6092568457,
				"z": -0.6640000352,
				"element": "H" 
			},
			{
				"x": -2.214269599,
				"y": 3.6973032793,
				"z": 0.8950975029,
				"element": "H" 
			},
			{
				"x": -3.2454934801,
				"y": 2.3682345877,
				"z": 2.7540288272,
				"element": "H" 
			}
		],
		 "valence_orbital": [ 
			{
				"type": "occ",
				"energy": -0.35743,
				"method": "rhf"
			},
			{
				"type": "occ",
				"energy": -0.34477,
				"method": "rhf"
			},
			{
				"type": "occ",
				"energy": -0.32288,
				"method": "rhf"
			},
			{
				"type": "occ",
				"energy": -0.27537,
				"method": "rhf"
			},
			{
				"type": "occ",
				"energy": -0.26748,
				"method": "rhf"
			},
			{
				"type": "unocc",
				"energy": -0.06501,
				"method": "rhf"
			},
			{
				"type": "unocc",
				"energy": -0.027,
				"method": "rhf"
			},
			{
				"type": "unocc",
				"energy": 0.01803,
				"method": "rhf"
			},
			{
				"type": "unocc",
				"energy": 0.05996,
				"method": "rhf"
			},
			{
				"type": "unocc",
				"energy": 0.06223,
				"method": "rhf"
			}
		],
		"cosmo_sigma_profile": { 
			"-0.025": 0.0,
			"-0.024": 0.0,
			"-0.023": 0.0,
			"-0.022": 0.0,
			"-0.021": 0.0,
			"-0.02": 0.0,
			"-0.019": 0.0,
			"-0.018": 0.0,
			"-0.017": 0.0,
			"-0.016": 0.0,
			"-0.015": 0.0,
			"-0.014": 0.0,
			"-0.013": 0.0,
			"-0.012": 0.0,
			"-0.011": 0.0,
			"-0.01": 1.67978907881,
			"-0.009": 5.06466723084,
			"-0.008": 8.27545238963,
			"-0.007": 10.8069851281,
			"-0.006": 8.76894699658,
			"-0.005": 7.4602138512,
			"-0.004": 8.85408942689,
			"-0.003": 10.2738950412,
			"-0.002": 15.089304252,
			"-0.001": 17.0846671513,
			"0.0": 16.6114090547,
			"0.001": 19.0881733528,
			"0.002": 36.6894756028,
			"0.003": 29.3106821794,
			"0.004": 4.02822625788,
			"0.005": 3.2439959741,
			"0.006": 4.06574967554,
			"0.007": 3.88474846509,
			"0.008": 3.67448231802,
			"0.009": 3.33380134538,
			"0.01": 2.69599575491,
			"0.011": 2.39480077858,
			"0.012": 2.12838737386,
			"0.013": 0.244436214382,
			"0.014": 0.0,
			"0.015": 0.0,
			"0.016": 0.0,
			"0.017": 0.0,
			"0.018": 0.0,
			"0.019": 0.0,
			"0.02": 0.0,
			"0.021": 0.0,
			"0.022": 0.0,
			"0.023": 0.0,
			"0.024": 0.0,
			"0.025": 0.0
		}
	}
}
