{
	 "smiles": "OC(=O)C1OC1C(O)=O", 
	 "Tm": 421.15, 
	 "num_atms": 13, 
	 "gaussian": { 
		 "optdone": 1, 
		 "sigma_profile": "yes", 
		 "theory": "DFT", 
		 "functional": "B3LYP", 
		 "basiset": "6-31G**", 
		 "properties": { 
			 "R2extent": 2081.6187, 
			 "electric_dipole_moment_norm": 4.93797142661, 
			 "electric_quadrupole_moment_norm": 15.4029400262, 
			 "total_energy": -530.924394661, 
			 "HOMO_LUMO_gap": 0.22437, 
			 "cosmo_polarized_energy": -15.91, 
			 "cosmo_cavitation_energy": 18.26, 
			 "cosmo_dispersion_energy": -13.73, 
			 "cosmo_repulsion_energy": 1.15, 
			 "cosmo_total_nonelectrostatic_energy": 5.68, 
			 "SMD_solvation_energy": 5.58 
		},
		"coords": [
			{
				"x": 0.5069739521,
				"y": -0.6606552315,
				"z": 2.0600044876,
				"element": "O" 
			},
			{
				"x": -0.3611246147,
				"y": -0.408416492,
				"z": 1.0783478123,
				"element": "C" 
			},
			{
				"x": -1.1788907749,
				"y": -1.21338118,
				"z": 0.6984435075,
				"element": "O" 
			},
			{
				"x": -0.2733491377,
				"y": 0.9397784388,
				"z": 0.3823863543,
				"element": "C" 
			},
			{
				"x": 0.9462389339,
				"y": 1.6732120305,
				"z": 0.4430414444,
				"element": "O" 
			},
			{
				"x": -0.1872005407,
				"y": 2.2722977459,
				"z": 1.0539056253,
				"element": "C" 
			},
			{
				"x": -0.102108273,
				"y": 2.4168465381,
				"z": 2.5459277268,
				"element": "C" 
			},
			{
				"x": -0.9529913209,
				"y": 3.3509671908,
				"z": 2.993169268,
				"element": "O" 
			},
			{
				"x": 0.6481685305,
				"y": 1.7854860301,
				"z": 3.2637376069,
				"element": "O" 
			},
			{
				"x": 0.9847607879,
				"y": 0.1513614822,
				"z": 2.3265233818,
				"element": "H" 
			},
			{
				"x": -0.7684529881,
				"y": 0.9218950802,
				"z": -0.587357203,
				"element": "H" 
			},
			{
				"x": -0.6210957206,
				"y": 3.1256193628,
				"z": 0.5348389911,
				"element": "H" 
			},
			{
				"x": -0.8594288338,
				"y": 3.3887890041,
				"z": 3.9608309969,
				"element": "H" 
			}
		],
		 "valence_orbital": [ 
			{
				"type": "occ",
				"energy": -0.35601,
				"method": "rhf"
			},
			{
				"type": "occ",
				"energy": -0.32736,
				"method": "rhf"
			},
			{
				"type": "occ",
				"energy": -0.32216,
				"method": "rhf"
			},
			{
				"type": "occ",
				"energy": -0.31296,
				"method": "rhf"
			},
			{
				"type": "occ",
				"energy": -0.2778,
				"method": "rhf"
			},
			{
				"type": "unocc",
				"energy": -0.05343,
				"method": "rhf"
			},
			{
				"type": "unocc",
				"energy": -0.01088,
				"method": "rhf"
			},
			{
				"type": "unocc",
				"energy": 0.04599,
				"method": "rhf"
			},
			{
				"type": "unocc",
				"energy": 0.08549,
				"method": "rhf"
			},
			{
				"type": "unocc",
				"energy": 0.11469,
				"method": "rhf"
			}
		],
		"cosmo_sigma_profile": { 
			"-0.025": 0.0,
			"-0.024": 0.0,
			"-0.023": 0.0,
			"-0.022": 0.0,
			"-0.021": 0.0249221866876,
			"-0.02": 0.779171141816,
			"-0.019": 0.805556216027,
			"-0.018": 0.922315613056,
			"-0.017": 1.23977673245,
			"-0.016": 0.922555642302,
			"-0.015": 0.387297817661,
			"-0.014": 0.238728800077,
			"-0.013": 0.690076267032,
			"-0.012": 1.08477404422,
			"-0.011": 0.688302817025,
			"-0.01": 5.45721921868,
			"-0.009": 7.35558042593,
			"-0.008": 5.27972845412,
			"-0.007": 6.92284083357,
			"-0.006": 6.82741997024,
			"-0.005": 7.16021397568,
			"-0.004": 5.99556573536,
			"-0.003": 6.68742732533,
			"-0.002": 4.76345840411,
			"-0.001": 5.28335913132,
			"0.0": 5.46220748952,
			"0.001": 4.43999280292,
			"0.002": 4.92654806072,
			"0.003": 5.08011227648,
			"0.004": 6.7357058498,
			"0.005": 6.41425156649,
			"0.006": 6.04583023423,
			"0.007": 6.91872551243,
			"0.008": 8.23267783493,
			"0.009": 7.01379331912,
			"0.01": 5.92359423035,
			"0.011": 5.54428208186,
			"0.012": 3.10587896887,
			"0.013": 0.403647060575,
			"0.014": 0.0,
			"0.015": 0.0,
			"0.016": 0.0,
			"0.017": 0.0,
			"0.018": 0.0,
			"0.019": 0.0,
			"0.02": 0.0,
			"0.021": 0.0,
			"0.022": 0.0,
			"0.023": 0.0,
			"0.024": 0.0,
			"0.025": 0.0
		}
	}
}
