{
	 "smiles": "ClCC(=O)N=C1SC=CN1CC1=C(Cl)C=CC=C1", 
	 "Tm": 356.15, 
	 "num_atms": 28, 
	 "gaussian": { 
		 "optdone": 1, 
		 "sigma_profile": "yes", 
		 "theory": "DFT", 
		 "functional": "B3LYP", 
		 "basiset": "6-31G**", 
		 "properties": { 
			 "R2extent": 7011.3417, 
			 "electric_dipole_moment_norm": 3.62128559907, 
			 "electric_quadrupole_moment_norm": 15.2718747323, 
			 "total_energy": -1966.60335294, 
			 "HOMO_LUMO_gap": 0.1783, 
			 "cosmo_polarized_energy": -12.65, 
			 "cosmo_cavitation_energy": 36.98, 
			 "cosmo_dispersion_energy": -26.6, 
			 "cosmo_repulsion_energy": 1.99, 
			 "cosmo_total_nonelectrostatic_energy": 12.37, 
			 "SMD_solvation_energy": 6.11 
		},
		"coords": [
			{
				"x": 3.7266694574,
				"y": -0.9202623964,
				"z": -1.0124755753,
				"element": "Cl" 
			},
			{
				"x": 4.1054770004,
				"y": -1.4969489879,
				"z": 0.6639069058,
				"element": "C" 
			},
			{
				"x": 2.8770239398,
				"y": -1.8423195048,
				"z": 1.4991903084,
				"element": "C" 
			},
			{
				"x": 2.8938060559,
				"y": -2.8802376459,
				"z": 2.1671360186,
				"element": "O" 
			},
			{
				"x": 1.8674124032,
				"y": -0.9226443515,
				"z": 1.476484368,
				"element": "N" 
			},
			{
				"x": 0.808207463,
				"y": -1.1806963622,
				"z": 2.2078702503,
				"element": "C" 
			},
			{
				"x": 0.4975551239,
				"y": -2.5814748639,
				"z": 3.2495836179,
				"element": "S" 
			},
			{
				"x": -1.0793253105,
				"y": -1.9285274131,
				"z": 3.6692134997,
				"element": "C" 
			},
			{
				"x": -1.3089960525,
				"y": -0.7491776221,
				"z": 3.0621216714,
				"element": "C" 
			},
			{
				"x": -0.2570355999,
				"y": -0.327061791,
				"z": 2.2554412251,
				"element": "N" 
			},
			{
				"x": -0.2822295565,
				"y": 0.9258643492,
				"z": 1.475008103,
				"element": "C" 
			},
			{
				"x": -0.9831893431,
				"y": 0.7836967146,
				"z": 0.1385565735,
				"element": "C" 
			},
			{
				"x": -2.3178348706,
				"y": 1.1556001229,
				"z": -0.075535449,
				"element": "C" 
			},
			{
				"x": -3.290498896,
				"y": 1.839680787,
				"z": 1.2362069753,
				"element": "Cl" 
			},
			{
				"x": -2.9324641513,
				"y": 1.0136860143,
				"z": -1.3196795895,
				"element": "C" 
			},
			{
				"x": -2.2054635796,
				"y": 0.4828324011,
				"z": -2.3837523012,
				"element": "C" 
			},
			{
				"x": -0.8749159031,
				"y": 0.103259338,
				"z": -2.2002262928,
				"element": "C" 
			},
			{
				"x": -0.2741340991,
				"y": 0.2563317794,
				"z": -0.9529658983,
				"element": "C" 
			},
			{
				"x": 4.7290398445,
				"y": -2.3839944891,
				"z": 0.5726806093,
				"element": "H" 
			},
			{
				"x": 4.66785694,
				"y": -0.6937402143,
				"z": 1.1461365148,
				"element": "H" 
			},
			{
				"x": -1.7421591819,
				"y": -2.4530316065,
				"z": 4.3413948644,
				"element": "H" 
			},
			{
				"x": -2.1882948132,
				"y": -0.1242480641,
				"z": 3.1281723358,
				"element": "H" 
			},
			{
				"x": 0.7601001935,
				"y": 1.2021673988,
				"z": 1.3169284693,
				"element": "H" 
			},
			{
				"x": -0.7609464444,
				"y": 1.6857417946,
				"z": 2.0939373445,
				"element": "H" 
			},
			{
				"x": -3.9657056717,
				"y": 1.3172224094,
				"z": -1.4455071209,
				"element": "H" 
			},
			{
				"x": -2.6817975812,
				"y": 0.370764683,
				"z": -3.3531040917,
				"element": "H" 
			},
			{
				"x": -0.3032747834,
				"y": -0.3074840774,
				"z": -3.0265137962,
				"element": "H" 
			},
			{
				"x": 0.7604174162,
				"y": -0.0377984022,
				"z": -0.8015095402,
				"element": "H" 
			}
		],
		 "valence_orbital": [ 
			{
				"type": "occ",
				"energy": -0.28721,
				"method": "rhf"
			},
			{
				"type": "occ",
				"energy": -0.26784,
				"method": "rhf"
			},
			{
				"type": "occ",
				"energy": -0.25724,
				"method": "rhf"
			},
			{
				"type": "occ",
				"energy": -0.24782,
				"method": "rhf"
			},
			{
				"type": "occ",
				"energy": -0.22306,
				"method": "rhf"
			},
			{
				"type": "unocc",
				"energy": -0.04476,
				"method": "rhf"
			},
			{
				"type": "unocc",
				"energy": -0.02688,
				"method": "rhf"
			},
			{
				"type": "unocc",
				"energy": -0.02097,
				"method": "rhf"
			},
			{
				"type": "unocc",
				"energy": 0.00513,
				"method": "rhf"
			},
			{
				"type": "unocc",
				"energy": 0.01497,
				"method": "rhf"
			}
		],
		"cosmo_sigma_profile": { 
			"-0.025": 0.0,
			"-0.024": 0.0,
			"-0.023": 0.0,
			"-0.022": 0.0,
			"-0.021": 0.0,
			"-0.02": 0.0,
			"-0.019": 0.0,
			"-0.018": 0.0,
			"-0.017": 0.0,
			"-0.016": 0.0,
			"-0.015": 0.0,
			"-0.014": 0.0,
			"-0.013": 0.0,
			"-0.012": 0.0,
			"-0.011": 0.0,
			"-0.01": 0.583967192919,
			"-0.009": 3.309398936,
			"-0.008": 7.40926762481,
			"-0.007": 12.66678642,
			"-0.006": 17.6301801767,
			"-0.005": 17.7501348303,
			"-0.004": 17.4185452391,
			"-0.003": 15.1376613649,
			"-0.002": 18.7908120606,
			"-0.001": 23.6489967876,
			"0.0": 24.6647465044,
			"0.001": 27.9041653299,
			"0.002": 27.0924229106,
			"0.003": 26.8790922559,
			"0.004": 23.1940934359,
			"0.005": 10.4086561713,
			"0.006": 10.4104070838,
			"0.007": 3.57124821068,
			"0.008": 3.08222838191,
			"0.009": 2.75200535364,
			"0.01": 1.75896428999,
			"0.011": 2.21552099656,
			"0.012": 2.85929696454,
			"0.013": 2.07728712753,
			"0.014": 0.278293018452,
			"0.015": 0.0,
			"0.016": 0.0,
			"0.017": 0.0,
			"0.018": 0.0,
			"0.019": 0.0,
			"0.02": 0.0,
			"0.021": 0.0,
			"0.022": 0.0,
			"0.023": 0.0,
			"0.024": 0.0,
			"0.025": 0.0
		}
	}
}
