{
	 "smiles": "CCN1C2=C(C=CC=C2)C2=C1C=CC(C=CC(O)=O)=C2", 
	 "Tm": 517.15, 
	 "num_atms": 35, 
	 "gaussian": { 
		 "optdone": 1, 
		 "sigma_profile": "yes", 
		 "theory": "DFT", 
		 "functional": "B3LYP", 
		 "basiset": "6-31G**", 
		 "properties": { 
			 "R2extent": 8143.2884, 
			 "electric_dipole_moment_norm": 4.79359018482, 
			 "electric_quadrupole_moment_norm": 17.5320934512, 
			 "total_energy": -862.085453104, 
			 "HOMO_LUMO_gap": 0.14601, 
			 "cosmo_polarized_energy": -14.78, 
			 "cosmo_cavitation_energy": 39.5, 
			 "cosmo_dispersion_energy": -27.95, 
			 "cosmo_repulsion_energy": 2.11, 
			 "cosmo_total_nonelectrostatic_energy": 13.66, 
			 "SMD_solvation_energy": 7.26 
		},
		"coords": [
			{
				"x": 3.9617310842,
				"y": 3.5514001694,
				"z": 0.6428117618,
				"element": "C" 
			},
			{
				"x": 3.3415141018,
				"y": 2.5107899999,
				"z": 1.5815467362,
				"element": "C" 
			},
			{
				"x": 2.6622108282,
				"y": 1.4309879503,
				"z": 0.8808394474,
				"element": "N" 
			},
			{
				"x": 3.2645981249,
				"y": 0.2613855842,
				"z": 0.4169301299,
				"element": "C" 
			},
			{
				"x": 2.2979777716,
				"y": -0.5183769151,
				"z": -0.2704062885,
				"element": "C" 
			},
			{
				"x": 2.667282573,
				"y": -1.7522336349,
				"z": -0.8162444195,
				"element": "C" 
			},
			{
				"x": 3.9825459666,
				"y": -2.1884148517,
				"z": -0.6758233108,
				"element": "C" 
			},
			{
				"x": 4.9286307457,
				"y": -1.4025597842,
				"z": 0.0036815814,
				"element": "C" 
			},
			{
				"x": 4.5868579735,
				"y": -0.1694449324,
				"z": 0.5570435341,
				"element": "C" 
			},
			{
				"x": 1.057240218,
				"y": 0.2304557781,
				"z": -0.2270945109,
				"element": "C" 
			},
			{
				"x": 1.3346773957,
				"y": 1.4319569241,
				"z": 0.4872422784,
				"element": "C" 
			},
			{
				"x": 0.3394680601,
				"y": 2.391826924,
				"z": 0.702422608,
				"element": "C" 
			},
			{
				"x": -0.9303303648,
				"y": 2.1305987425,
				"z": 0.2042779149,
				"element": "C" 
			},
			{
				"x": -1.2408142528,
				"y": 0.9441004353,
				"z": -0.5059226113,
				"element": "C" 
			},
			{
				"x": -2.6049906692,
				"y": 0.766915919,
				"z": -0.9887981149,
				"element": "C" 
			},
			{
				"x": -3.1188167661,
				"y": -0.2722560291,
				"z": -1.67781021,
				"element": "C" 
			},
			{
				"x": -4.5338059648,
				"y": -0.2595873261,
				"z": -2.076238634,
				"element": "C" 
			},
			{
				"x": -4.8709304453,
				"y": -1.3876402823,
				"z": -2.7608064804,
				"element": "O" 
			},
			{
				"x": -5.3451460567,
				"y": 0.6208241836,
				"z": -1.8493055604,
				"element": "O" 
			},
			{
				"x": -0.2240842485,
				"y": -0.0051104891,
				"z": -0.7151103816,
				"element": "C" 
			},
			{
				"x": 4.4596416949,
				"y": 4.3359684311,
				"z": 1.2217703312,
				"element": "H" 
			},
			{
				"x": 4.7015970315,
				"y": 3.0896722116,
				"z": -0.0173592039,
				"element": "H" 
			},
			{
				"x": 3.1952392485,
				"y": 4.0193165383,
				"z": 0.0182577174,
				"element": "H" 
			},
			{
				"x": 4.1092202745,
				"y": 2.0635357586,
				"z": 2.2210388491,
				"element": "H" 
			},
			{
				"x": 2.6171194463,
				"y": 2.9819421006,
				"z": 2.253293147,
				"element": "H" 
			},
			{
				"x": 1.9385863405,
				"y": -2.3614697198,
				"z": -1.343572591,
				"element": "H" 
			},
			{
				"x": 4.2823887472,
				"y": -3.143498851,
				"z": -1.0958911812,
				"element": "H" 
			},
			{
				"x": 5.9498101954,
				"y": -1.7599670319,
				"z": 0.0991217219,
				"element": "H" 
			},
			{
				"x": 5.3298876458,
				"y": 0.4294297708,
				"z": 1.073960418,
				"element": "H" 
			},
			{
				"x": 0.5420084186,
				"y": 3.3147123022,
				"z": 1.2359899712,
				"element": "H" 
			},
			{
				"x": -1.7188893699,
				"y": 2.8616856249,
				"z": 0.3598757849,
				"element": "H" 
			},
			{
				"x": -3.2992744973,
				"y": 1.5760354622,
				"z": -0.7651430505,
				"element": "H" 
			},
			{
				"x": -2.5381728246,
				"y": -1.1423177163,
				"z": -1.9650985731,
				"element": "H" 
			},
			{
				"x": -5.8122837906,
				"y": -1.2876990779,
				"z": -2.9779931037,
				"element": "H" 
			},
			{
				"x": -0.4356946359,
				"y": -0.9210641691,
				"z": -1.2582857071,
				"element": "H" 
			}
		],
		 "valence_orbital": [ 
			{
				"type": "occ",
				"energy": -0.28145,
				"method": "rhf"
			},
			{
				"type": "occ",
				"energy": -0.26167,
				"method": "rhf"
			},
			{
				"type": "occ",
				"energy": -0.24621,
				"method": "rhf"
			},
			{
				"type": "occ",
				"energy": -0.22001,
				"method": "rhf"
			},
			{
				"type": "occ",
				"energy": -0.20147,
				"method": "rhf"
			},
			{
				"type": "unocc",
				"energy": -0.05546,
				"method": "rhf"
			},
			{
				"type": "unocc",
				"energy": -0.03429,
				"method": "rhf"
			},
			{
				"type": "unocc",
				"energy": 0.00799,
				"method": "rhf"
			},
			{
				"type": "unocc",
				"energy": 0.03016,
				"method": "rhf"
			},
			{
				"type": "unocc",
				"energy": 0.04461,
				"method": "rhf"
			}
		],
		"cosmo_sigma_profile": { 
			"-0.025": 0.0,
			"-0.024": 0.0,
			"-0.023": 0.0,
			"-0.022": 0.0,
			"-0.021": 0.0,
			"-0.02": 0.0,
			"-0.019": 0.0,
			"-0.018": 0.2180438178,
			"-0.017": 1.0102377278,
			"-0.016": 0.648542752445,
			"-0.015": 0.725759509414,
			"-0.014": 0.870619329527,
			"-0.013": 0.491966788837,
			"-0.012": 0.473756192837,
			"-0.011": 1.33959845524,
			"-0.01": 1.326870169,
			"-0.009": 1.06692812249,
			"-0.008": 2.78421677137,
			"-0.007": 7.80860487792,
			"-0.006": 17.4345407804,
			"-0.005": 19.7729377688,
			"-0.004": 23.7299767035,
			"-0.003": 27.2588691797,
			"-0.002": 20.0869449458,
			"-0.001": 21.7511950163,
			"0.0": 22.0413272322,
			"0.001": 22.4036343724,
			"0.002": 22.6403199243,
			"0.003": 24.0008860076,
			"0.004": 26.8886874955,
			"0.005": 15.75213321,
			"0.006": 9.5936126603,
			"0.007": 3.87023223783,
			"0.008": 3.18378776244,
			"0.009": 3.0105112144,
			"0.01": 2.87678362587,
			"0.011": 1.93698073438,
			"0.012": 4.67455394183,
			"0.013": 3.62654540175,
			"0.014": 0.0,
			"0.015": 0.0,
			"0.016": 0.0,
			"0.017": 0.0,
			"0.018": 0.0,
			"0.019": 0.0,
			"0.02": 0.0,
			"0.021": 0.0,
			"0.022": 0.0,
			"0.023": 0.0,
			"0.024": 0.0,
			"0.025": 0.0
		}
	}
}
