{
	 "smiles": "NC1=NC2=C(S1)C=CC(Cl)=C2F", 
	 "Tm": 354.15, 
	 "num_atms": 16, 
	 "gaussian": { 
		 "optdone": 1, 
		 "sigma_profile": "yes", 
		 "theory": "DFT", 
		 "functional": "B3LYP", 
		 "basiset": "6-31G**", 
		 "properties": { 
			 "R2extent": 4336.5028, 
			 "electric_dipole_moment_norm": 4.5544430373, 
			 "electric_quadrupole_moment_norm": 9.72936285324, 
			 "total_energy": -1336.87735904, 
			 "HOMO_LUMO_gap": 0.197, 
			 "cosmo_polarized_energy": -12.02, 
			 "cosmo_cavitation_energy": 24.6, 
			 "cosmo_dispersion_energy": -19.12, 
			 "cosmo_repulsion_energy": 1.46, 
			 "cosmo_total_nonelectrostatic_energy": 6.94, 
			 "SMD_solvation_energy": 2.3 
		},
		"coords": [
			{
				"x": -2.5908186521,
				"y": 0.3811683335,
				"z": -0.1185073255,
				"element": "N" 
			},
			{
				"x": -1.4037433445,
				"y": 0.9645819085,
				"z": 0.2252039989,
				"element": "C" 
			},
			{
				"x": -0.2983951414,
				"y": 0.310248775,
				"z": 0.4017436737,
				"element": "N" 
			},
			{
				"x": 0.7369263476,
				"y": 1.1845166262,
				"z": 0.6707878717,
				"element": "C" 
			},
			{
				"x": 0.4137167943,
				"y": 2.5613564781,
				"z": 0.7141767388,
				"element": "C" 
			},
			{
				"x": -1.3040460564,
				"y": 2.7466932627,
				"z": 0.3700953855,
				"element": "S" 
			},
			{
				"x": 1.3667096756,
				"y": 3.5401109248,
				"z": 0.9900959465,
				"element": "C" 
			},
			{
				"x": 2.6795034635,
				"y": 3.1377601656,
				"z": 1.2266642805,
				"element": "C" 
			},
			{
				"x": 3.0241481148,
				"y": 1.7797880133,
				"z": 1.1877483087,
				"element": "C" 
			},
			{
				"x": 4.6736831927,
				"y": 1.2838920841,
				"z": 1.4861951561,
				"element": "Cl" 
			},
			{
				"x": 2.0649300033,
				"y": 0.8082571395,
				"z": 0.9130465459,
				"element": "C" 
			},
			{
				"x": 2.39760198,
				"y": -0.486773343,
				"z": 0.8781030262,
				"element": "F" 
			},
			{
				"x": -2.603415676,
				"y": -0.6245360514,
				"z": -0.0151082138,
				"element": "H" 
			},
			{
				"x": -3.4468552041,
				"y": 0.8531926498,
				"z": 0.1305185861,
				"element": "H" 
			},
			{
				"x": 1.1046832819,
				"y": 4.5919894193,
				"z": 1.0207170943,
				"element": "H" 
			},
			{
				"x": 3.4493712207,
				"y": 3.869353614,
				"z": 1.4429189265,
				"element": "H" 
			}
		],
		 "valence_orbital": [ 
			{
				"type": "occ",
				"energy": -0.30634,
				"method": "rhf"
			},
			{
				"type": "occ",
				"energy": -0.29429,
				"method": "rhf"
			},
			{
				"type": "occ",
				"energy": -0.28803,
				"method": "rhf"
			},
			{
				"type": "occ",
				"energy": -0.23323,
				"method": "rhf"
			},
			{
				"type": "occ",
				"energy": -0.22411,
				"method": "rhf"
			},
			{
				"type": "unocc",
				"energy": -0.02711,
				"method": "rhf"
			},
			{
				"type": "unocc",
				"energy": -0.01181,
				"method": "rhf"
			},
			{
				"type": "unocc",
				"energy": -0.01157,
				"method": "rhf"
			},
			{
				"type": "unocc",
				"energy": 0.02996,
				"method": "rhf"
			},
			{
				"type": "unocc",
				"energy": 0.03307,
				"method": "rhf"
			}
		],
		"cosmo_sigma_profile": { 
			"-0.025": 0.0,
			"-0.024": 0.0,
			"-0.023": 0.0,
			"-0.022": 0.0,
			"-0.021": 0.0,
			"-0.02": 0.0,
			"-0.019": 0.0,
			"-0.018": 0.0,
			"-0.017": 0.0,
			"-0.016": 0.14055692514,
			"-0.015": 1.973220756,
			"-0.014": 2.37106653978,
			"-0.013": 2.85623001114,
			"-0.012": 2.77301091629,
			"-0.011": 2.39307887434,
			"-0.01": 1.98005653652,
			"-0.009": 2.18764446135,
			"-0.008": 4.47235983395,
			"-0.007": 6.19253973464,
			"-0.006": 5.72845602716,
			"-0.005": 5.52812461694,
			"-0.004": 4.71733897022,
			"-0.003": 6.65594839965,
			"-0.002": 7.17519235777,
			"-0.001": 11.8981909167,
			"0.0": 18.7162991905,
			"0.001": 24.1198193545,
			"0.002": 21.5647915877,
			"0.003": 22.559690361,
			"0.004": 22.9052913982,
			"0.005": 9.13863353877,
			"0.006": 3.3356724339,
			"0.007": 2.21223820091,
			"0.008": 1.79395120058,
			"0.009": 2.30018711406,
			"0.01": 1.08029514717,
			"0.011": 1.61381988039,
			"0.012": 0.871852379738,
			"0.013": 0.932057386189,
			"0.014": 0.644925760822,
			"0.015": 0.0186531200806,
			"0.016": 0.0,
			"0.017": 0.0,
			"0.018": 0.0,
			"0.019": 0.0,
			"0.02": 0.0,
			"0.021": 0.0,
			"0.022": 0.0,
			"0.023": 0.0,
			"0.024": 0.0,
			"0.025": 0.0
		}
	}
}
