{
	 "smiles": "CCOC(=O)C1=CC(C#N)=C(NC1=O)SCC(O)=O", 
	 "Tm": 469.15, 
	 "num_atms": 29, 
	 "gaussian": { 
		 "optdone": 1, 
		 "sigma_profile": "yes", 
		 "theory": "DFT", 
		 "functional": "B3LYP", 
		 "basiset": "6-31G**", 
		 "properties": { 
			 "R2extent": 7907.7472, 
			 "electric_dipole_moment_norm": 3.934182966, 
			 "electric_quadrupole_moment_norm": 21.2081077984, 
			 "total_energy": -1309.00952499, 
			 "HOMO_LUMO_gap": 0.14988, 
			 "cosmo_polarized_energy": -27.66, 
			 "cosmo_cavitation_energy": 38.17, 
			 "cosmo_dispersion_energy": -26.03, 
			 "cosmo_repulsion_energy": 2.0, 
			 "cosmo_total_nonelectrostatic_energy": 14.15, 
			 "SMD_solvation_energy": 10.51 
		},
		"coords": [
			{
				"x": -3.1839295455,
				"y": -3.7753869623,
				"z": 1.7428656085,
				"element": "C" 
			},
			{
				"x": -1.982256161,
				"y": -3.1713710274,
				"z": 2.4428178481,
				"element": "C" 
			},
			{
				"x": -1.4007614849,
				"y": -2.2015034908,
				"z": 1.5373221948,
				"element": "O" 
			},
			{
				"x": -0.3203885721,
				"y": -1.5581715609,
				"z": 1.9894456615,
				"element": "C" 
			},
			{
				"x": 0.1772546888,
				"y": -1.7451485372,
				"z": 3.0857738577,
				"element": "O" 
			},
			{
				"x": 0.2387004564,
				"y": -0.5676413108,
				"z": 1.0141826273,
				"element": "C" 
			},
			{
				"x": 1.3411979665,
				"y": 0.1329450123,
				"z": 1.4286952678,
				"element": "C" 
			},
			{
				"x": 1.9975870312,
				"y": 1.1116566723,
				"z": 0.6215787942,
				"element": "C" 
			},
			{
				"x": 3.1747692182,
				"y": 1.7607998636,
				"z": 1.1022086955,
				"element": "C" 
			},
			{
				"x": 4.134729789,
				"y": 2.2527463361,
				"z": 1.5379648161,
				"element": "N" 
			},
			{
				"x": 1.4783769178,
				"y": 1.3679914082,
				"z": -0.6365398327,
				"element": "C" 
			},
			{
				"x": 0.380894507,
				"y": 0.6797341032,
				"z": -1.0357876345,
				"element": "N" 
			},
			{
				"x": -0.3325519176,
				"y": -0.3276192512,
				"z": -0.3139127754,
				"element": "C" 
			},
			{
				"x": -1.2963763568,
				"y": -0.8406637174,
				"z": -0.8532068583,
				"element": "O" 
			},
			{
				"x": 2.1161032702,
				"y": 2.6128607684,
				"z": -1.7441200964,
				"element": "S" 
			},
			{
				"x": 2.9920278263,
				"y": 1.5671523356,
				"z": -2.9993378113,
				"element": "C" 
			},
			{
				"x": 4.4028678068,
				"y": 1.2118747719,
				"z": -2.5695869962,
				"element": "C" 
			},
			{
				"x": 4.3971773133,
				"y": 0.2881914932,
				"z": -1.5846813563,
				"element": "O" 
			},
			{
				"x": 5.4045300876,
				"y": 1.6927308231,
				"z": -3.0421424454,
				"element": "O" 
			},
			{
				"x": -2.8867635916,
				"y": -4.2683267393,
				"z": 0.8132733943,
				"element": "H" 
			},
			{
				"x": -3.9221874018,
				"y": -3.005863021,
				"z": 1.5015637717,
				"element": "H" 
			},
			{
				"x": -3.6558911606,
				"y": -4.5175515075,
				"z": 2.3942671133,
				"element": "H" 
			},
			{
				"x": -2.2545798645,
				"y": -2.6627574415,
				"z": 3.3729227822,
				"element": "H" 
			},
			{
				"x": -1.2231499496,
				"y": -3.9208865925,
				"z": 2.687737187,
				"element": "H" 
			},
			{
				"x": 1.7286915792,
				"y": -0.0828317876,
				"z": 2.4194522882,
				"element": "H" 
			},
			{
				"x": -0.0412029342,
				"y": 0.9031000937,
				"z": -1.9308892674,
				"element": "H" 
			},
			{
				"x": 2.4027491301,
				"y": 0.6701764543,
				"z": -3.2024489624,
				"element": "H" 
			},
			{
				"x": 3.0479379564,
				"y": 2.1830925697,
				"z": -3.897087202,
				"element": "H" 
			},
			{
				"x": 5.3204433953,
				"y": 0.1610702417,
				"z": -1.30703067,
				"element": "H" 
			}
		],
		 "valence_orbital": [ 
			{
				"type": "occ",
				"energy": -0.30548,
				"method": "rhf"
			},
			{
				"type": "occ",
				"energy": -0.28626,
				"method": "rhf"
			},
			{
				"type": "occ",
				"energy": -0.28487,
				"method": "rhf"
			},
			{
				"type": "occ",
				"energy": -0.27341,
				"method": "rhf"
			},
			{
				"type": "occ",
				"energy": -0.25145,
				"method": "rhf"
			},
			{
				"type": "unocc",
				"energy": -0.10157,
				"method": "rhf"
			},
			{
				"type": "unocc",
				"energy": -0.05076,
				"method": "rhf"
			},
			{
				"type": "unocc",
				"energy": -0.02999,
				"method": "rhf"
			},
			{
				"type": "unocc",
				"energy": -0.00128,
				"method": "rhf"
			},
			{
				"type": "unocc",
				"energy": 0.00528,
				"method": "rhf"
			}
		],
		"cosmo_sigma_profile": { 
			"-0.025": 0.0,
			"-0.024": 0.0,
			"-0.023": 0.0,
			"-0.022": 0.0,
			"-0.021": 0.0,
			"-0.02": 0.0,
			"-0.019": 0.38988226665,
			"-0.018": 1.01048329683,
			"-0.017": 1.21515825337,
			"-0.016": 1.66369087835,
			"-0.015": 2.20518793766,
			"-0.014": 1.89044938558,
			"-0.013": 2.34321818411,
			"-0.012": 1.08698900791,
			"-0.011": 2.30576276203,
			"-0.01": 4.12090746758,
			"-0.009": 7.16771373587,
			"-0.008": 7.68264412404,
			"-0.007": 7.13333863857,
			"-0.006": 12.6321210166,
			"-0.005": 19.9897850778,
			"-0.004": 25.5094004071,
			"-0.003": 26.3463717315,
			"-0.002": 22.2454626397,
			"-0.001": 17.8293580072,
			"0.0": 18.9175080646,
			"0.001": 13.2005728356,
			"0.002": 10.4440049699,
			"0.003": 9.74235719448,
			"0.004": 9.90739708887,
			"0.005": 8.96719189151,
			"0.006": 7.17585390383,
			"0.007": 6.90835594565,
			"0.008": 8.35225785602,
			"0.009": 8.2335032971,
			"0.01": 9.54080079435,
			"0.011": 14.2769656225,
			"0.012": 10.9730922067,
			"0.013": 3.88765453433,
			"0.014": 1.61597567235,
			"0.015": 0.0560411347713,
			"0.016": 0.0,
			"0.017": 0.0,
			"0.018": 0.0,
			"0.019": 0.0,
			"0.02": 0.0,
			"0.021": 0.0,
			"0.022": 0.0,
			"0.023": 0.0,
			"0.024": 0.0,
			"0.025": 0.0
		}
	}
}
