{
	 "smiles": "OCCC1=CC=CC=C1", 
	 "Tm": 246.15, 
	 "num_atms": 19, 
	 "gaussian": { 
		 "optdone": 1, 
		 "sigma_profile": "yes", 
		 "theory": "DFT", 
		 "functional": "B3LYP", 
		 "basiset": "6-31G**", 
		 "properties": { 
			 "R2extent": 1423.9297, 
			 "electric_dipole_moment_norm": 1.63197784911, 
			 "electric_quadrupole_moment_norm": 6.46445460654, 
			 "total_energy": -386.097736886, 
			 "HOMO_LUMO_gap": 0.2368, 
			 "cosmo_polarized_energy": -6.66, 
			 "cosmo_cavitation_energy": 21.83, 
			 "cosmo_dispersion_energy": -16.08, 
			 "cosmo_repulsion_energy": 1.33, 
			 "cosmo_total_nonelectrostatic_energy": 7.08, 
			 "SMD_solvation_energy": 3.53 
		},
		"coords": [
			{
				"x": 1.4346176477,
				"y": -0.5929166068,
				"z": 1.7300773126,
				"element": "O" 
			},
			{
				"x": 0.2529715824,
				"y": 0.1829652806,
				"z": 1.8347504414,
				"element": "C" 
			},
			{
				"x": -0.9317994043,
				"y": -0.4164961137,
				"z": 1.0511760861,
				"element": "C" 
			},
			{
				"x": -0.6580473551,
				"y": -0.4967382113,
				"z": -0.4342945943,
				"element": "C" 
			},
			{
				"x": 0.0353720532,
				"y": -1.5910467999,
				"z": -0.9757953269,
				"element": "C" 
			},
			{
				"x": 0.3423198861,
				"y": -1.6434729346,
				"z": -2.3375413653,
				"element": "C" 
			},
			{
				"x": -0.0400158279,
				"y": -0.6010525928,
				"z": -3.1828880249,
				"element": "C" 
			},
			{
				"x": -0.7313134101,
				"y": 0.4931061995,
				"z": -2.6576922372,
				"element": "C" 
			},
			{
				"x": -1.0338626842,
				"y": 0.5436659368,
				"z": -1.296704418,
				"element": "C" 
			},
			{
				"x": 1.6874155091,
				"y": -0.6072500487,
				"z": 0.7965849065,
				"element": "H" 
			},
			{
				"x": 0.4229498429,
				"y": 1.2201226979,
				"z": 1.5031431836,
				"element": "H" 
			},
			{
				"x": 0.0068839508,
				"y": 0.2149672728,
				"z": 2.9011936696,
				"element": "H" 
			},
			{
				"x": -1.8201882629,
				"y": 0.1986394485,
				"z": 1.2395631614,
				"element": "H" 
			},
			{
				"x": -1.1351696039,
				"y": -1.4161660548,
				"z": 1.4513705109,
				"element": "H" 
			},
			{
				"x": 0.32249417,
				"y": -2.412487969,
				"z": -0.3242291227,
				"element": "H" 
			},
			{
				"x": 0.8745710606,
				"y": -2.5021095827,
				"z": -2.7375137637,
				"element": "H" 
			},
			{
				"x": 0.1934922759,
				"y": -0.6425473917,
				"z": -4.2428439635,
				"element": "H" 
			},
			{
				"x": -1.0380920978,
				"y": 1.3066285508,
				"z": -3.3092963928,
				"element": "H" 
			},
			{
				"x": -1.5745993327,
				"y": 1.3982889193,
				"z": -0.896560063,
				"element": "H" 
			}
		],
		 "valence_orbital": [ 
			{
				"type": "occ",
				"energy": -0.33899,
				"method": "rhf"
			},
			{
				"type": "occ",
				"energy": -0.31818,
				"method": "rhf"
			},
			{
				"type": "occ",
				"energy": -0.26751,
				"method": "rhf"
			},
			{
				"type": "occ",
				"energy": -0.25277,
				"method": "rhf"
			},
			{
				"type": "occ",
				"energy": -0.24292,
				"method": "rhf"
			},
			{
				"type": "unocc",
				"energy": -0.00612,
				"method": "rhf"
			},
			{
				"type": "unocc",
				"energy": -0.00446,
				"method": "rhf"
			},
			{
				"type": "unocc",
				"energy": 0.08901,
				"method": "rhf"
			},
			{
				"type": "unocc",
				"energy": 0.1056,
				"method": "rhf"
			},
			{
				"type": "unocc",
				"energy": 0.1167,
				"method": "rhf"
			}
		],
		"cosmo_sigma_profile": { 
			"-0.025": 0.0,
			"-0.024": 0.0,
			"-0.023": 0.0,
			"-0.022": 0.0,
			"-0.021": 0.0,
			"-0.02": 0.0,
			"-0.019": 0.0,
			"-0.018": 0.0,
			"-0.017": 0.0,
			"-0.016": 0.0,
			"-0.015": 0.0,
			"-0.014": 0.0,
			"-0.013": 0.0452213232707,
			"-0.012": 0.395671998494,
			"-0.011": 0.974333116414,
			"-0.01": 0.804840191927,
			"-0.009": 0.327634874478,
			"-0.008": 0.930742421677,
			"-0.007": 1.23159642186,
			"-0.006": 2.96967694434,
			"-0.005": 11.606726713,
			"-0.004": 19.2738467112,
			"-0.003": 25.8787470059,
			"-0.002": 17.0472530147,
			"-0.001": 15.0510913562,
			"0.0": 11.3307614678,
			"0.001": 9.07671995995,
			"0.002": 8.20722574204,
			"0.003": 8.62239455762,
			"0.004": 8.38783199883,
			"0.005": 8.43033709382,
			"0.006": 8.54261137576,
			"0.007": 1.90480497745,
			"0.008": 1.40045085187,
			"0.009": 1.07054025929,
			"0.01": 0.895532373268,
			"0.011": 1.39617399416,
			"0.012": 1.43925393943,
			"0.013": 1.47639189815,
			"0.014": 2.39424014057,
			"0.015": 0.984558752593,
			"0.016": 0.0,
			"0.017": 0.0,
			"0.018": 0.0,
			"0.019": 0.0,
			"0.02": 0.0,
			"0.021": 0.0,
			"0.022": 0.0,
			"0.023": 0.0,
			"0.024": 0.0,
			"0.025": 0.0
		}
	}
}
