{
	 "smiles": "OC(=O)CC1=CC=CC=C1Br", 
	 "Tm": 378.65, 
	 "num_atms": 18, 
	 "gaussian": { 
		 "optdone": 1, 
		 "sigma_profile": "yes", 
		 "theory": "DFT", 
		 "functional": "B3LYP", 
		 "basiset": "6-31G**", 
		 "properties": { 
			 "R2extent": 3898.4656, 
			 "electric_dipole_moment_norm": 5.67993025133, 
			 "electric_quadrupole_moment_norm": 14.8528688404, 
			 "total_energy": -3030.93096295, 
			 "HOMO_LUMO_gap": 0.21803, 
			 "cosmo_polarized_energy": -13.62, 
			 "cosmo_cavitation_energy": 24.48, 
			 "cosmo_dispersion_energy": -17.95, 
			 "cosmo_repulsion_energy": 1.44, 
			 "cosmo_total_nonelectrostatic_energy": 7.97, 
			 "SMD_solvation_energy": 4.24 
		},
		"coords": [
			{
				"x": -2.7243284794,
				"y": -0.5375273282,
				"z": -1.2537448582,
				"element": "O" 
			},
			{
				"x": -2.0582716667,
				"y": 0.1637276032,
				"z": -2.1999108888,
				"element": "C" 
			},
			{
				"x": -2.484275101,
				"y": 0.2514346266,
				"z": -3.3226552462,
				"element": "O" 
			},
			{
				"x": -0.7097747773,
				"y": 0.7816071315,
				"z": -1.7845829658,
				"element": "C" 
			},
			{
				"x": -0.4614196244,
				"y": 0.9176439007,
				"z": -0.301646613,
				"element": "C" 
			},
			{
				"x": 0.3317182452,
				"y": -0.0278363936,
				"z": 0.3713299318,
				"element": "C" 
			},
			{
				"x": 0.5757917658,
				"y": 0.0579491228,
				"z": 1.7413322305,
				"element": "C" 
			},
			{
				"x": 0.0259496112,
				"y": 1.1079058945,
				"z": 2.4766737333,
				"element": "C" 
			},
			{
				"x": -0.7675466743,
				"y": 2.0622621266,
				"z": 1.8402478221,
				"element": "C" 
			},
			{
				"x": -1.0057929002,
				"y": 1.959276823,
				"z": 0.4702398609,
				"element": "C" 
			},
			{
				"x": -2.1137200937,
				"y": 3.2871312445,
				"z": -0.3482460987,
				"element": "Br" 
			},
			{
				"x": -2.2513851847,
				"y": -0.4801556549,
				"z": -0.4087384778,
				"element": "H" 
			},
			{
				"x": 0.0616682571,
				"y": 0.1417206463,
				"z": -2.2278434151,
				"element": "H" 
			},
			{
				"x": -0.6500296839,
				"y": 1.7459990852,
				"z": -2.2931127865,
				"element": "H" 
			},
			{
				"x": 0.7702597591,
				"y": -0.8397050991,
				"z": -0.2033630347,
				"element": "H" 
			},
			{
				"x": 1.1962396489,
				"y": -0.6877757206,
				"z": 2.2283562383,
				"element": "H" 
			},
			{
				"x": 0.2103372167,
				"y": 1.1898564196,
				"z": 3.5434389029,
				"element": "H" 
			},
			{
				"x": -1.2018203186,
				"y": 2.883185572,
				"z": 2.399225665,
				"element": "H" 
			}
		],
		 "valence_orbital": [ 
			{
				"type": "occ",
				"energy": -0.31014,
				"method": "rhf"
			},
			{
				"type": "occ",
				"energy": -0.3005,
				"method": "rhf"
			},
			{
				"type": "occ",
				"energy": -0.28883,
				"method": "rhf"
			},
			{
				"type": "occ",
				"energy": -0.26506,
				"method": "rhf"
			},
			{
				"type": "occ",
				"energy": -0.25506,
				"method": "rhf"
			},
			{
				"type": "unocc",
				"energy": -0.03703,
				"method": "rhf"
			},
			{
				"type": "unocc",
				"energy": -0.0341,
				"method": "rhf"
			},
			{
				"type": "unocc",
				"energy": -0.00652,
				"method": "rhf"
			},
			{
				"type": "unocc",
				"energy": 0.01555,
				"method": "rhf"
			},
			{
				"type": "unocc",
				"energy": 0.08191,
				"method": "rhf"
			}
		],
		"cosmo_sigma_profile": { 
			"-0.025": 0.0,
			"-0.024": 0.0,
			"-0.023": 0.0,
			"-0.022": 0.0,
			"-0.021": 0.0,
			"-0.02": 0.0,
			"-0.019": 0.0,
			"-0.018": 0.0,
			"-0.017": 0.0,
			"-0.016": 0.0,
			"-0.015": 0.405082272824,
			"-0.014": 0.346292609498,
			"-0.013": 0.509975743156,
			"-0.012": 0.527507573233,
			"-0.011": 1.25899461642,
			"-0.01": 1.56171790534,
			"-0.009": 2.68913983672,
			"-0.008": 5.85464293166,
			"-0.007": 9.96865484865,
			"-0.006": 12.0629483612,
			"-0.005": 13.6431174886,
			"-0.004": 11.5546615215,
			"-0.003": 12.2425533178,
			"-0.002": 10.8395529999,
			"-0.001": 10.1443295983,
			"0.0": 11.572802741,
			"0.001": 16.4141473554,
			"0.002": 17.7183726553,
			"0.003": 16.2279462661,
			"0.004": 11.5452754516,
			"0.005": 3.53062348382,
			"0.006": 2.03618640975,
			"0.007": 2.15290675854,
			"0.008": 2.83999196033,
			"0.009": 3.24424889046,
			"0.01": 4.95540657609,
			"0.011": 4.92367353272,
			"0.012": 5.68814795649,
			"0.013": 2.2674846403,
			"0.014": 0.0541904445356,
			"0.015": 0.0,
			"0.016": 0.0,
			"0.017": 0.0,
			"0.018": 0.0,
			"0.019": 0.0,
			"0.02": 0.0,
			"0.021": 0.0,
			"0.022": 0.0,
			"0.023": 0.0,
			"0.024": 0.0,
			"0.025": 0.0
		}
	}
}
