{
	 "smiles": "ClC1=CC2=C(N=C3CCCN3C2=O)C(Cl)=C1", 
	 "Tm": 519.15, 
	 "num_atms": 24, 
	 "gaussian": { 
		 "optdone": 1, 
		 "sigma_profile": "yes", 
		 "theory": "DFT", 
		 "functional": "B3LYP", 
		 "basiset": "6-31G**", 
		 "properties": { 
			 "R2extent": 5288.4323, 
			 "electric_dipole_moment_norm": 4.33428767504, 
			 "electric_quadrupole_moment_norm": 18.0795015883, 
			 "total_energy": -1529.14153256, 
			 "HOMO_LUMO_gap": 0.17607, 
			 "cosmo_polarized_energy": -12.11, 
			 "cosmo_cavitation_energy": 31.27, 
			 "cosmo_dispersion_energy": -23.65, 
			 "cosmo_repulsion_energy": 1.84, 
			 "cosmo_total_nonelectrostatic_energy": 9.46, 
			 "SMD_solvation_energy": 3.12 
		},
		"coords": [
			{
				"x": 2.9553620294,
				"y": -3.5889962968,
				"z": -2.4634533932,
				"element": "Cl" 
			},
			{
				"x": 2.057216024,
				"y": -2.3370481691,
				"z": -1.6254737039,
				"element": "C" 
			},
			{
				"x": 1.3506899134,
				"y": -2.642557613,
				"z": -0.4761532833,
				"element": "C" 
			},
			{
				"x": 0.6421518252,
				"y": -1.6217776999,
				"z": 0.1722581194,
				"element": "C" 
			},
			{
				"x": 0.6304003788,
				"y": -0.289963102,
				"z": -0.3161565004,
				"element": "C" 
			},
			{
				"x": -0.0618429358,
				"y": 0.7328260113,
				"z": 0.3063287232,
				"element": "N" 
			},
			{
				"x": -0.7159144146,
				"y": 0.41530603,
				"z": 1.3740543218,
				"element": "C" 
			},
			{
				"x": -1.5207654472,
				"y": 1.3553171848,
				"z": 2.2381393788,
				"element": "C" 
			},
			{
				"x": -2.4026053075,
				"y": 0.4049864891,
				"z": 3.0771471506,
				"element": "C" 
			},
			{
				"x": -1.5943276351,
				"y": -0.9071469279,
				"z": 3.1450695258,
				"element": "C" 
			},
			{
				"x": -0.7779113705,
				"y": -0.8466326156,
				"z": 1.9251700991,
				"element": "N" 
			},
			{
				"x": -0.1082385822,
				"y": -1.9516784266,
				"z": 1.3977255908,
				"element": "C" 
			},
			{
				"x": -0.1728272076,
				"y": -3.0524820101,
				"z": 1.9296738514,
				"element": "O" 
			},
			{
				"x": 1.3701365946,
				"y": -0.0294862385,
				"z": -1.4964306573,
				"element": "C" 
			},
			{
				"x": 1.4055356372,
				"y": 1.5853413035,
				"z": -2.1606197342,
				"element": "Cl" 
			},
			{
				"x": 2.0738109777,
				"y": -1.0332428621,
				"z": -2.1441180153,
				"element": "C" 
			},
			{
				"x": 1.3278999236,
				"y": -3.6434714822,
				"z": -0.0619328262,
				"element": "H" 
			},
			{
				"x": -0.8317491448,
				"y": 1.9311438833,
				"z": 2.869129125,
				"element": "H" 
			},
			{
				"x": -2.0794269535,
				"y": 2.0700326799,
				"z": 1.6309501766,
				"element": "H" 
			},
			{
				"x": -2.6303991961,
				"y": 0.7977300392,
				"z": 4.0699621358,
				"element": "H" 
			},
			{
				"x": -3.3514930315,
				"y": 0.2259833492,
				"z": 2.5620842502,
				"element": "H" 
			},
			{
				"x": -2.2026661898,
				"y": -1.8131052313,
				"z": 3.1354713537,
				"element": "H" 
			},
			{
				"x": -0.9372723476,
				"y": -0.9537759213,
				"z": 4.0212321187,
				"element": "H" 
			},
			{
				"x": 2.6325364599,
				"y": -0.810102374,
				"z": -3.0448578069,
				"element": "H" 
			}
		],
		 "valence_orbital": [ 
			{
				"type": "occ",
				"energy": -0.28853,
				"method": "rhf"
			},
			{
				"type": "occ",
				"energy": -0.28332,
				"method": "rhf"
			},
			{
				"type": "occ",
				"energy": -0.27228,
				"method": "rhf"
			},
			{
				"type": "occ",
				"energy": -0.26491,
				"method": "rhf"
			},
			{
				"type": "occ",
				"energy": -0.23224,
				"method": "rhf"
			},
			{
				"type": "unocc",
				"energy": -0.05617,
				"method": "rhf"
			},
			{
				"type": "unocc",
				"energy": -0.04836,
				"method": "rhf"
			},
			{
				"type": "unocc",
				"energy": 0.01004,
				"method": "rhf"
			},
			{
				"type": "unocc",
				"energy": 0.0128,
				"method": "rhf"
			},
			{
				"type": "unocc",
				"energy": 0.05094,
				"method": "rhf"
			}
		],
		"cosmo_sigma_profile": { 
			"-0.025": 0.0,
			"-0.024": 0.0,
			"-0.023": 0.0,
			"-0.022": 0.0,
			"-0.021": 0.0,
			"-0.02": 0.0,
			"-0.019": 0.0,
			"-0.018": 0.0,
			"-0.017": 0.0,
			"-0.016": 0.0,
			"-0.015": 0.0,
			"-0.014": 0.0,
			"-0.013": 0.0,
			"-0.012": 0.0,
			"-0.011": 0.0,
			"-0.01": 0.0,
			"-0.009": 0.787262451083,
			"-0.008": 1.60930218881,
			"-0.007": 4.71298299712,
			"-0.006": 15.8486258355,
			"-0.005": 26.6977615986,
			"-0.004": 21.6647251668,
			"-0.003": 18.168198625,
			"-0.002": 17.7020647148,
			"-0.001": 18.6425445295,
			"0.0": 27.90080927,
			"0.001": 19.0762440099,
			"0.002": 13.557165795,
			"0.003": 15.0729927343,
			"0.004": 19.2682290134,
			"0.005": 6.39286161151,
			"0.006": 3.81819708801,
			"0.007": 2.65168118882,
			"0.008": 2.66061999393,
			"0.009": 2.385107775,
			"0.01": 3.22387882816,
			"0.011": 3.26482672293,
			"0.012": 5.83750741069,
			"0.013": 3.15634823289,
			"0.014": 0.937930174277,
			"0.015": 0.0455206629929,
			"0.016": 0.0,
			"0.017": 0.0,
			"0.018": 0.0,
			"0.019": 0.0,
			"0.02": 0.0,
			"0.021": 0.0,
			"0.022": 0.0,
			"0.023": 0.0,
			"0.024": 0.0,
			"0.025": 0.0
		}
	}
}
