{
	 "smiles": "CC(C)(C)OC(=O)C(C)(C)SC1=NN=C(N)S1", 
	 "Tm": 449.15, 
	 "num_atms": 34, 
	 "gaussian": { 
		 "optdone": 1, 
		 "sigma_profile": "yes", 
		 "theory": "DFT", 
		 "functional": "B3LYP", 
		 "basiset": "6-31G**", 
		 "properties": { 
			 "R2extent": 5866.0892, 
			 "electric_dipole_moment_norm": 2.77298274246, 
			 "electric_quadrupole_moment_norm": 26.0123206485, 
			 "total_energy": -1502.38244838, 
			 "HOMO_LUMO_gap": 0.19478, 
			 "cosmo_polarized_energy": -17.88, 
			 "cosmo_cavitation_energy": 39.18, 
			 "cosmo_dispersion_energy": -26.94, 
			 "cosmo_repulsion_energy": 2.03, 
			 "cosmo_total_nonelectrostatic_energy": 14.26, 
			 "SMD_solvation_energy": 5.75 
		},
		"coords": [
			{
				"x": -2.2556810624,
				"y": 2.0765113029,
				"z": -1.2248043077,
				"element": "C" 
			},
			{
				"x": -1.8819765841,
				"y": 0.6064589034,
				"z": -1.0223780778,
				"element": "C" 
			},
			{
				"x": -1.00024556,
				"y": 0.104034466,
				"z": -2.169360424,
				"element": "C" 
			},
			{
				"x": -3.1317897889,
				"y": -0.2555228864,
				"z": -0.8201023706,
				"element": "C" 
			},
			{
				"x": -1.0991674306,
				"y": 0.6485356249,
				"z": 0.2333909305,
				"element": "O" 
			},
			{
				"x": -0.5222628754,
				"y": -0.4481189522,
				"z": 0.7367125586,
				"element": "C" 
			},
			{
				"x": -0.6347801961,
				"y": -1.5767474091,
				"z": 0.3079251616,
				"element": "O" 
			},
			{
				"x": 0.2387925318,
				"y": -0.1187898702,
				"z": 2.0459527018,
				"element": "C" 
			},
			{
				"x": 0.4607474684,
				"y": 1.3763230088,
				"z": 2.2946215219,
				"element": "C" 
			},
			{
				"x": -0.5578830548,
				"y": -0.7624527415,
				"z": 3.2010084835,
				"element": "C" 
			},
			{
				"x": 1.8621534407,
				"y": -1.0457569522,
				"z": 2.0632946164,
				"element": "S" 
			},
			{
				"x": 2.6653511281,
				"y": -0.446748637,
				"z": 0.618287452,
				"element": "C" 
			},
			{
				"x": 2.1545314063,
				"y": 0.3306833487,
				"z": -0.2849393439,
				"element": "N" 
			},
			{
				"x": 3.0216103612,
				"y": 0.642885512,
				"z": -1.3058642099,
				"element": "N" 
			},
			{
				"x": 4.1842895839,
				"y": 0.0724656264,
				"z": -1.1711492977,
				"element": "C" 
			},
			{
				"x": 5.1883370482,
				"y": 0.1517068133,
				"z": -2.1093626448,
				"element": "N" 
			},
			{
				"x": 4.3420504612,
				"y": -0.9258104512,
				"z": 0.2800550847,
				"element": "S" 
			},
			{
				"x": -2.8364372459,
				"y": 2.4497300531,
				"z": -0.3759053831,
				"element": "H" 
			},
			{
				"x": -2.857807453,
				"y": 2.1881576277,
				"z": -2.1315013106,
				"element": "H" 
			},
			{
				"x": -1.3568045324,
				"y": 2.6908767825,
				"z": -1.3264534899,
				"element": "H" 
			},
			{
				"x": -0.7568640695,
				"y": -0.9515385304,
				"z": -2.0474527104,
				"element": "H" 
			},
			{
				"x": -0.0680595918,
				"y": 0.673466383,
				"z": -2.2099559614,
				"element": "H" 
			},
			{
				"x": -1.5335184905,
				"y": 0.2359829824,
				"z": -3.1168038529,
				"element": "H" 
			},
			{
				"x": -3.7637663209,
				"y": -0.1967948141,
				"z": -1.7122944628,
				"element": "H" 
			},
			{
				"x": -3.7150390048,
				"y": 0.1086434584,
				"z": 0.0319485737,
				"element": "H" 
			},
			{
				"x": -2.8645796051,
				"y": -1.2985888364,
				"z": -0.6482881906,
				"element": "H" 
			},
			{
				"x": -0.5046245082,
				"y": 1.8867837842,
				"z": 2.3509929682,
				"element": "H" 
			},
			{
				"x": 1.0365614161,
				"y": 1.8281940602,
				"z": 1.4867874679,
				"element": "H" 
			},
			{
				"x": 0.9893374308,
				"y": 1.5196545594,
				"z": 3.2410162285,
				"element": "H" 
			},
			{
				"x": -0.7271708301,
				"y": -1.8252984197,
				"z": 3.0155557341,
				"element": "H" 
			},
			{
				"x": -1.5291037225,
				"y": -0.2639346737,
				"z": 3.2851056987,
				"element": "H" 
			},
			{
				"x": -0.0315289687,
				"y": -0.6388974335,
				"z": 4.1522957472,
				"element": "H" 
			},
			{
				"x": 4.9956757709,
				"y": 0.851285412,
				"z": -2.8159655092,
				"element": "H" 
			},
			{
				"x": 6.1340528482,
				"y": 0.1906208986,
				"z": -1.7550693821,
				"element": "H" 
			}
		],
		 "valence_orbital": [ 
			{
				"type": "occ",
				"energy": -0.28719,
				"method": "rhf"
			},
			{
				"type": "occ",
				"energy": -0.26731,
				"method": "rhf"
			},
			{
				"type": "occ",
				"energy": -0.26247,
				"method": "rhf"
			},
			{
				"type": "occ",
				"energy": -0.25599,
				"method": "rhf"
			},
			{
				"type": "occ",
				"energy": -0.214,
				"method": "rhf"
			},
			{
				"type": "unocc",
				"energy": -0.01922,
				"method": "rhf"
			},
			{
				"type": "unocc",
				"energy": -0.01086,
				"method": "rhf"
			},
			{
				"type": "unocc",
				"energy": -0.00114,
				"method": "rhf"
			},
			{
				"type": "unocc",
				"energy": 0.03685,
				"method": "rhf"
			},
			{
				"type": "unocc",
				"energy": 0.04404,
				"method": "rhf"
			}
		],
		"cosmo_sigma_profile": { 
			"-0.025": 0.0,
			"-0.024": 0.0,
			"-0.023": 0.0,
			"-0.022": 0.0,
			"-0.021": 0.0,
			"-0.02": 0.0,
			"-0.019": 0.0,
			"-0.018": 0.0,
			"-0.017": 0.0,
			"-0.016": 0.0649282282249,
			"-0.015": 1.12385203765,
			"-0.014": 2.85430626008,
			"-0.013": 2.91121913045,
			"-0.012": 2.86791447581,
			"-0.011": 2.51657370782,
			"-0.01": 2.17167487414,
			"-0.009": 1.99358633912,
			"-0.008": 1.89649674432,
			"-0.007": 1.83521798308,
			"-0.006": 2.17109157811,
			"-0.005": 10.9334839,
			"-0.004": 24.900019144,
			"-0.003": 26.1751367985,
			"-0.002": 29.8088239787,
			"-0.001": 37.9607397354,
			"0.0": 41.2068382593,
			"0.001": 27.1612014416,
			"0.002": 15.9286950454,
			"0.003": 11.5851799641,
			"0.004": 10.0288291727,
			"0.005": 9.75077951885,
			"0.006": 8.96427960736,
			"0.007": 7.35467594702,
			"0.008": 5.1670181451,
			"0.009": 4.85091012027,
			"0.01": 4.56256103693,
			"0.011": 4.55724802406,
			"0.012": 3.90120450925,
			"0.013": 2.30345795402,
			"0.014": 1.12386057128,
			"0.015": 0.220712254332,
			"0.016": 0.0,
			"0.017": 0.0,
			"0.018": 0.0,
			"0.019": 0.0,
			"0.02": 0.0,
			"0.021": 0.0,
			"0.022": 0.0,
			"0.023": 0.0,
			"0.024": 0.0,
			"0.025": 0.0
		}
	}
}
