{
	 "smiles": "CCOC(=O)C1=C(C)C=C(C)N1", 
	 "Tm": 399.15, 
	 "num_atms": 25, 
	 "gaussian": { 
		 "optdone": 1, 
		 "sigma_profile": "yes", 
		 "theory": "DFT", 
		 "functional": "B3LYP", 
		 "basiset": "6-31G**", 
		 "properties": { 
			 "R2extent": 3048.0001, 
			 "electric_dipole_moment_norm": 1.03839485746, 
			 "electric_quadrupole_moment_norm": 12.0788547218, 
			 "total_energy": -556.023143274, 
			 "HOMO_LUMO_gap": 0.19006, 
			 "cosmo_polarized_energy": -8.89, 
			 "cosmo_cavitation_energy": 28.73, 
			 "cosmo_dispersion_energy": -20.46, 
			 "cosmo_repulsion_energy": 1.67, 
			 "cosmo_total_nonelectrostatic_energy": 9.94, 
			 "SMD_solvation_energy": 6.07 
		},
		"coords": [
			{
				"x": -2.6282169752,
				"y": 2.6428156471,
				"z": 2.6008716706,
				"element": "C" 
			},
			{
				"x": -1.2155379052,
				"y": 2.943297448,
				"z": 2.1364292837,
				"element": "C" 
			},
			{
				"x": -0.7541748718,
				"y": 1.800715051,
				"z": 1.3851263493,
				"element": "O" 
			},
			{
				"x": 0.5029700648,
				"y": 1.8978848984,
				"z": 0.8887829202,
				"element": "C" 
			},
			{
				"x": 1.2199443442,
				"y": 2.87701203,
				"z": 1.0520980772,
				"element": "O" 
			},
			{
				"x": 0.9117396006,
				"y": 0.7199287319,
				"z": 0.1436407903,
				"element": "C" 
			},
			{
				"x": 0.3102747977,
				"y": -0.4972150965,
				"z": -0.1839299284,
				"element": "C" 
			},
			{
				"x": -1.0669044359,
				"y": -0.9665623694,
				"z": 0.1843772433,
				"element": "C" 
			},
			{
				"x": 1.2665276159,
				"y": -1.2162325167,
				"z": -0.9439235511,
				"element": "C" 
			},
			{
				"x": 2.4161139927,
				"y": -0.4422950884,
				"z": -1.066775785,
				"element": "C" 
			},
			{
				"x": 3.7090190449,
				"y": -0.7262144038,
				"z": -1.7620216477,
				"element": "C" 
			},
			{
				"x": 2.1820014814,
				"y": 0.7233475635,
				"z": -0.4031623036,
				"element": "N" 
			},
			{
				"x": -3.2924791444,
				"y": 2.4726322464,
				"z": 1.7485741467,
				"element": "H" 
			},
			{
				"x": -3.0177882979,
				"y": 3.4877284606,
				"z": 3.1774133618,
				"element": "H" 
			},
			{
				"x": -2.6501298873,
				"y": 1.7531513591,
				"z": 3.2369804719,
				"element": "H" 
			},
			{
				"x": -0.5353582176,
				"y": 3.1156194985,
				"z": 2.9769391149,
				"element": "H" 
			},
			{
				"x": -1.1741255954,
				"y": 3.8309797291,
				"z": 1.4968268388,
				"element": "H" 
			},
			{
				"x": -1.2032357389,
				"y": -1.0047969817,
				"z": 1.2700318284,
				"element": "H" 
			},
			{
				"x": -1.8393713611,
				"y": -0.2946212335,
				"z": -0.203556394,
				"element": "H" 
			},
			{
				"x": -1.2507334925,
				"y": -1.9665548579,
				"z": -0.218219504,
				"element": "H" 
			},
			{
				"x": 1.1326678818,
				"y": -2.2048956948,
				"z": -1.3632435629,
				"element": "H" 
			},
			{
				"x": 4.5584906955,
				"y": -0.7114011199,
				"z": -1.0682201172,
				"element": "H" 
			},
			{
				"x": 3.6749514518,
				"y": -1.7149963767,
				"z": -2.2247950618,
				"element": "H" 
			},
			{
				"x": 3.9178163163,
				"y": 0.005256863,
				"z": -2.5522926867,
				"element": "H" 
			},
			{
				"x": 2.8049386354,
				"y": 1.5105162125,
				"z": -0.2922515547,
				"element": "H" 
			}
		],
		 "valence_orbital": [ 
			{
				"type": "occ",
				"energy": -0.33612,
				"method": "rhf"
			},
			{
				"type": "occ",
				"energy": -0.28847,
				"method": "rhf"
			},
			{
				"type": "occ",
				"energy": -0.26384,
				"method": "rhf"
			},
			{
				"type": "occ",
				"energy": -0.23717,
				"method": "rhf"
			},
			{
				"type": "occ",
				"energy": -0.20635,
				"method": "rhf"
			},
			{
				"type": "unocc",
				"energy": -0.01629,
				"method": "rhf"
			},
			{
				"type": "unocc",
				"energy": 0.06742,
				"method": "rhf"
			},
			{
				"type": "unocc",
				"energy": 0.09343,
				"method": "rhf"
			},
			{
				"type": "unocc",
				"energy": 0.10276,
				"method": "rhf"
			},
			{
				"type": "unocc",
				"energy": 0.1189,
				"method": "rhf"
			}
		],
		"cosmo_sigma_profile": { 
			"-0.025": 0.0,
			"-0.024": 0.0,
			"-0.023": 0.0,
			"-0.022": 0.0,
			"-0.021": 0.0,
			"-0.02": 0.0,
			"-0.019": 0.0,
			"-0.018": 0.0,
			"-0.017": 0.0,
			"-0.016": 0.0,
			"-0.015": 0.0945956616689,
			"-0.014": 0.672023654155,
			"-0.013": 0.652880556446,
			"-0.012": 0.909581639612,
			"-0.011": 0.908665370117,
			"-0.01": 1.16941862114,
			"-0.009": 0.860275159566,
			"-0.008": 0.693259437425,
			"-0.007": 1.06465539818,
			"-0.006": 1.47412466023,
			"-0.005": 10.6894479948,
			"-0.004": 23.1596391683,
			"-0.003": 26.0875875492,
			"-0.002": 23.7234038028,
			"-0.001": 25.0845022777,
			"0.0": 24.9289436096,
			"0.001": 17.4264889357,
			"0.002": 11.673808592,
			"0.003": 10.1880161975,
			"0.004": 9.27617651693,
			"0.005": 10.2674839401,
			"0.006": 8.18355743367,
			"0.007": 3.71223787191,
			"0.008": 1.1987402472,
			"0.009": 1.81162938595,
			"0.01": 1.50949975523,
			"0.011": 1.15514983732,
			"0.012": 3.48864888989,
			"0.013": 3.63012196007,
			"0.014": 0.221338880764,
			"0.015": 0.0,
			"0.016": 0.0,
			"0.017": 0.0,
			"0.018": 0.0,
			"0.019": 0.0,
			"0.02": 0.0,
			"0.021": 0.0,
			"0.022": 0.0,
			"0.023": 0.0,
			"0.024": 0.0,
			"0.025": 0.0
		}
	}
}
