{
	 "smiles": "OC(=O)C1=CSC(C=O)=C1", 
	 "Tm": 447.15, 
	 "num_atms": 14, 
	 "gaussian": { 
		 "optdone": 1, 
		 "sigma_profile": "yes", 
		 "theory": "DFT", 
		 "functional": "B3LYP", 
		 "basiset": "6-31G**", 
		 "properties": { 
			 "R2extent": 2310.4225, 
			 "electric_dipole_moment_norm": 2.61834669591, 
			 "electric_quadrupole_moment_norm": 18.5379453789, 
			 "total_energy": -854.886095568, 
			 "HOMO_LUMO_gap": 0.18233, 
			 "cosmo_polarized_energy": -16.75, 
			 "cosmo_cavitation_energy": 21.42, 
			 "cosmo_dispersion_energy": -16.16, 
			 "cosmo_repulsion_energy": 1.26, 
			 "cosmo_total_nonelectrostatic_energy": 6.51, 
			 "SMD_solvation_energy": 5.99 
		},
		"coords": [
			{
				"x": 1.9452558984,
				"y": 0.7147810399,
				"z": -0.3617847647,
				"element": "O" 
			},
			{
				"x": 0.9208963223,
				"y": 1.3804069895,
				"z": 0.2270724881,
				"element": "C" 
			},
			{
				"x": 0.9104802254,
				"y": 2.5885298285,
				"z": 0.2444911729,
				"element": "O" 
			},
			{
				"x": -0.1669366906,
				"y": 0.5549974305,
				"z": 0.8332783436,
				"element": "C" 
			},
			{
				"x": -1.2649709679,
				"y": 1.1783342971,
				"z": 1.3941579509,
				"element": "C" 
			},
			{
				"x": -2.3965813422,
				"y": 0.0650030015,
				"z": 2.0362535517,
				"element": "S" 
			},
			{
				"x": -1.4006962975,
				"y": -1.2920744083,
				"z": 1.5591973146,
				"element": "C" 
			},
			{
				"x": -1.7878713174,
				"y": -2.6832952128,
				"z": 1.8203203707,
				"element": "C" 
			},
			{
				"x": -1.1001957529,
				"y": -3.6333944688,
				"z": 1.4942951673,
				"element": "O" 
			},
			{
				"x": -0.2523885122,
				"y": -0.8623251851,
				"z": 0.9332863929,
				"element": "C" 
			},
			{
				"x": 1.8107258611,
				"y": -0.2419288637,
				"z": -0.3281152082,
				"element": "H" 
			},
			{
				"x": -1.4280670475,
				"y": 2.2461144601,
				"z": 1.4424279267,
				"element": "H" 
			},
			{
				"x": -2.7571918915,
				"y": -2.8228831755,
				"z": 2.3433221939,
				"element": "H" 
			},
			{
				"x": 0.4773415125,
				"y": -1.5845657326,
				"z": 0.5817970996,
				"element": "H" 
			}
		],
		 "valence_orbital": [ 
			{
				"type": "occ",
				"energy": -0.32771,
				"method": "rhf"
			},
			{
				"type": "occ",
				"energy": -0.29395,
				"method": "rhf"
			},
			{
				"type": "occ",
				"energy": -0.28907,
				"method": "rhf"
			},
			{
				"type": "occ",
				"energy": -0.276,
				"method": "rhf"
			},
			{
				"type": "occ",
				"energy": -0.27322,
				"method": "rhf"
			},
			{
				"type": "unocc",
				"energy": -0.09089,
				"method": "rhf"
			},
			{
				"type": "unocc",
				"energy": -0.05189,
				"method": "rhf"
			},
			{
				"type": "unocc",
				"energy": -0.00839,
				"method": "rhf"
			},
			{
				"type": "unocc",
				"energy": 0.03577,
				"method": "rhf"
			},
			{
				"type": "unocc",
				"energy": 0.04608,
				"method": "rhf"
			}
		],
		"cosmo_sigma_profile": { 
			"-0.025": 0.0,
			"-0.024": 0.0,
			"-0.023": 0.0,
			"-0.022": 0.0,
			"-0.021": 0.0,
			"-0.02": 0.529162991743,
			"-0.019": 1.1808797926,
			"-0.018": 0.600541145824,
			"-0.017": 1.23457143461,
			"-0.016": 1.33647275618,
			"-0.015": 0.926964545283,
			"-0.014": 0.529954660518,
			"-0.013": 1.19957351773,
			"-0.012": 1.53807297909,
			"-0.011": 1.63453315562,
			"-0.01": 2.5334138957,
			"-0.009": 4.29360884545,
			"-0.008": 5.97317493513,
			"-0.007": 6.91446517922,
			"-0.006": 5.64330626186,
			"-0.005": 6.46504504055,
			"-0.004": 7.52397852368,
			"-0.003": 8.08637635248,
			"-0.002": 9.65102307431,
			"-0.001": 16.1588521043,
			"0.0": 20.9607863741,
			"0.001": 11.6425724328,
			"0.002": 5.00759745332,
			"0.003": 4.50295199782,
			"0.004": 3.29276193707,
			"0.005": 3.40676775572,
			"0.006": 3.18036933979,
			"0.007": 4.12541777324,
			"0.008": 4.66547751449,
			"0.009": 5.29156399387,
			"0.01": 8.45942955308,
			"0.011": 9.43298014736,
			"0.012": 5.41233867572,
			"0.013": 1.54147433289,
			"0.014": 0.013256032857,
			"0.015": 0.0,
			"0.016": 0.0,
			"0.017": 0.0,
			"0.018": 0.0,
			"0.019": 0.0,
			"0.02": 0.0,
			"0.021": 0.0,
			"0.022": 0.0,
			"0.023": 0.0,
			"0.024": 0.0,
			"0.025": 0.0
		}
	}
}
