{
	 "smiles": "NC1=NN=C(SCC2=CC=C(F)C=C2)S1", 
	 "Tm": 419.15, 
	 "num_atms": 23, 
	 "gaussian": { 
		 "optdone": 1, 
		 "sigma_profile": "yes", 
		 "theory": "DFT", 
		 "functional": "B3LYP", 
		 "basiset": "6-31G**", 
		 "properties": { 
			 "R2extent": 5533.6121, 
			 "electric_dipole_moment_norm": 2.24128472756, 
			 "electric_quadrupole_moment_norm": 18.5877310673, 
			 "total_energy": -1408.2103636, 
			 "HOMO_LUMO_gap": 0.19344, 
			 "cosmo_polarized_energy": -14.41, 
			 "cosmo_cavitation_energy": 31.62, 
			 "cosmo_dispersion_energy": -23.61, 
			 "cosmo_repulsion_energy": 1.75, 
			 "cosmo_total_nonelectrostatic_energy": 9.76, 
			 "SMD_solvation_energy": 3.69 
		},
		"coords": [
			{
				"x": 0.9261336166,
				"y": 0.8190362314,
				"z": 4.6682700454,
				"element": "N" 
			},
			{
				"x": 0.2049908517,
				"y": 0.3861705814,
				"z": 3.5793407687,
				"element": "C" 
			},
			{
				"x": 0.7134703706,
				"y": -0.3138236146,
				"z": 2.6062001647,
				"element": "N" 
			},
			{
				"x": -0.230042332,
				"y": -0.7152950502,
				"z": 1.6895095615,
				"element": "N" 
			},
			{
				"x": -1.4299944934,
				"y": -0.3019908807,
				"z": 1.9582325778,
				"element": "C" 
			},
			{
				"x": -2.8808021965,
				"y": -0.6157342362,
				"z": 1.0086760209,
				"element": "S" 
			},
			{
				"x": -2.1360855857,
				"y": -1.4193259917,
				"z": -0.497604238,
				"element": "C" 
			},
			{
				"x": -1.6331644343,
				"y": -0.463880522,
				"z": -1.5460480655,
				"element": "C" 
			},
			{
				"x": -2.5039686296,
				"y": 0.0462678282,
				"z": -2.5195730516,
				"element": "C" 
			},
			{
				"x": -2.0508453722,
				"y": 0.9230557967,
				"z": -3.5034609925,
				"element": "C" 
			},
			{
				"x": -0.7081462161,
				"y": 1.2851678847,
				"z": -3.5029146952,
				"element": "C" 
			},
			{
				"x": -0.2593266512,
				"y": 2.131681305,
				"z": -4.4538913407,
				"element": "F" 
			},
			{
				"x": 0.1844824733,
				"y": 0.7983677096,
				"z": -2.555263108,
				"element": "C" 
			},
			{
				"x": -0.2849932692,
				"y": -0.0777311197,
				"z": -1.5770195436,
				"element": "C" 
			},
			{
				"x": -1.539847375,
				"y": 0.647146092,
				"z": 3.4524506825,
				"element": "S" 
			},
			{
				"x": 0.6786659481,
				"y": 1.7248166006,
				"z": 5.0421745112,
				"element": "H" 
			},
			{
				"x": 1.9232581119,
				"y": 0.6971708692,
				"z": 4.5385727472,
				"element": "H" 
			},
			{
				"x": -2.9609229471,
				"y": -2.0286101531,
				"z": -0.8761225095,
				"element": "H" 
			},
			{
				"x": -1.3504825934,
				"y": -2.081942387,
				"z": -0.1330039576,
				"element": "H" 
			},
			{
				"x": -3.5512638444,
				"y": -0.2453493868,
				"z": -2.5111050112,
				"element": "H" 
			},
			{
				"x": -2.7142230243,
				"y": 1.3211100336,
				"z": -4.2636062487,
				"element": "H" 
			},
			{
				"x": 1.224675633,
				"y": 1.1036499381,
				"z": -2.59227995,
				"element": "H" 
			},
			{
				"x": 0.3917319593,
				"y": -0.4593575285,
				"z": -0.8196343679,
				"element": "H" 
			}
		],
		 "valence_orbital": [ 
			{
				"type": "occ",
				"energy": -0.27368,
				"method": "rhf"
			},
			{
				"type": "occ",
				"energy": -0.26517,
				"method": "rhf"
			},
			{
				"type": "occ",
				"energy": -0.25858,
				"method": "rhf"
			},
			{
				"type": "occ",
				"energy": -0.23859,
				"method": "rhf"
			},
			{
				"type": "occ",
				"energy": -0.21705,
				"method": "rhf"
			},
			{
				"type": "unocc",
				"energy": -0.02361,
				"method": "rhf"
			},
			{
				"type": "unocc",
				"energy": -0.01845,
				"method": "rhf"
			},
			{
				"type": "unocc",
				"energy": -0.0093,
				"method": "rhf"
			},
			{
				"type": "unocc",
				"energy": -0.0085,
				"method": "rhf"
			},
			{
				"type": "unocc",
				"energy": 0.03174,
				"method": "rhf"
			}
		],
		"cosmo_sigma_profile": { 
			"-0.025": 0.0,
			"-0.024": 0.0,
			"-0.023": 0.0,
			"-0.022": 0.0,
			"-0.021": 0.0,
			"-0.02": 0.0,
			"-0.019": 0.0,
			"-0.018": 0.0,
			"-0.017": 0.0,
			"-0.016": 0.00643090057043,
			"-0.015": 1.24503655737,
			"-0.014": 2.71113597549,
			"-0.013": 2.85513534168,
			"-0.012": 2.7919557809,
			"-0.011": 2.9254488938,
			"-0.01": 1.61191558496,
			"-0.009": 2.06474872916,
			"-0.008": 4.53290894596,
			"-0.007": 9.4413198645,
			"-0.006": 9.65263655431,
			"-0.005": 10.8252932636,
			"-0.004": 13.4185088568,
			"-0.003": 13.0355866087,
			"-0.002": 13.2300610256,
			"-0.001": 14.5812822646,
			"0.0": 20.3343463734,
			"0.001": 23.4248932761,
			"0.002": 21.9330939753,
			"0.003": 22.1193529289,
			"0.004": 27.9312655169,
			"0.005": 11.3652775894,
			"0.006": 5.77357734366,
			"0.007": 4.13632090951,
			"0.008": 2.38408758119,
			"0.009": 2.68288316674,
			"0.01": 3.01917383768,
			"0.011": 2.55268481692,
			"0.012": 2.06329559791,
			"0.013": 1.18931396944,
			"0.014": 1.32806354915,
			"0.015": 0.6767085134,
			"0.016": 0.0296679614335,
			"0.017": 0.0,
			"0.018": 0.0,
			"0.019": 0.0,
			"0.02": 0.0,
			"0.021": 0.0,
			"0.022": 0.0,
			"0.023": 0.0,
			"0.024": 0.0,
			"0.025": 0.0
		}
	}
}
