{
	 "smiles": "ClC1=C(Cl)C=C(C=C1)C1=CC=C(S1)C=O", 
	 "Tm": 400.15, 
	 "num_atms": 21, 
	 "gaussian": { 
		 "optdone": 1, 
		 "sigma_profile": "yes", 
		 "theory": "DFT", 
		 "functional": "B3LYP", 
		 "basiset": "6-31G**", 
		 "properties": { 
			 "R2extent": 6148.9746, 
			 "electric_dipole_moment_norm": 4.63995653105, 
			 "electric_quadrupole_moment_norm": 17.985250718, 
			 "total_energy": -1816.56412477, 
			 "HOMO_LUMO_gap": 0.14949, 
			 "cosmo_polarized_energy": -11.11, 
			 "cosmo_cavitation_energy": 31.57, 
			 "cosmo_dispersion_energy": -23.6, 
			 "cosmo_repulsion_energy": 1.78, 
			 "cosmo_total_nonelectrostatic_energy": 9.76, 
			 "SMD_solvation_energy": 5.5 
		},
		"coords": [
			{
				"x": 0.6883302332,
				"y": -0.3209153788,
				"z": -4.6164367071,
				"element": "Cl" 
			},
			{
				"x": 0.3220856805,
				"y": -0.2913915755,
				"z": -2.912672453,
				"element": "C" 
			},
			{
				"x": 0.9350797564,
				"y": -1.1732256986,
				"z": -2.0116499054,
				"element": "C" 
			},
			{
				"x": 2.0956339724,
				"y": -2.3606143324,
				"z": -2.5486238765,
				"element": "Cl" 
			},
			{
				"x": 0.6131458349,
				"y": -1.1208050318,
				"z": -0.656461897,
				"element": "C" 
			},
			{
				"x": -0.3162916251,
				"y": -0.1893969821,
				"z": -0.1679412216,
				"element": "C" 
			},
			{
				"x": -0.9173540941,
				"y": 0.6943509331,
				"z": -1.0825413716,
				"element": "C" 
			},
			{
				"x": -0.6047873566,
				"y": 0.639132936,
				"z": -2.4345551011,
				"element": "C" 
			},
			{
				"x": -0.6615375899,
				"y": -0.1335703701,
				"z": 1.2574488011,
				"element": "C" 
			},
			{
				"x": -1.8466090187,
				"y": 0.3114475682,
				"z": 1.8184457374,
				"element": "C" 
			},
			{
				"x": -1.8575708368,
				"y": 0.2315200842,
				"z": 3.2293866271,
				"element": "C" 
			},
			{
				"x": -0.6833309457,
				"y": -0.272983492,
				"z": 3.7513853079,
				"element": "C" 
			},
			{
				"x": 0.4607610827,
				"y": -0.6493648956,
				"z": 2.4908632694,
				"element": "S" 
			},
			{
				"x": -0.3516632327,
				"y": -0.4904423276,
				"z": 5.153599739,
				"element": "C" 
			},
			{
				"x": 0.7076906366,
				"y": -0.9417362908,
				"z": 5.5543107279,
				"element": "O" 
			},
			{
				"x": 1.0826847809,
				"y": -1.8322392583,
				"z": 0.0138662033,
				"element": "H" 
			},
			{
				"x": -1.615898819,
				"y": 1.445554105,
				"z": -0.7303975359,
				"element": "H" 
			},
			{
				"x": -1.0676259629,
				"y": 1.3261890824,
				"z": -3.1341352851,
				"element": "H" 
			},
			{
				"x": -2.688874109,
				"y": 0.652402228,
				"z": 1.2280136441,
				"element": "H" 
			},
			{
				"x": -2.6985957455,
				"y": 0.5228170847,
				"z": 3.8497632923,
				"element": "H" 
			},
			{
				"x": -1.1638726414,
				"y": -0.2036283883,
				"z": 5.8562320047,
				"element": "H" 
			}
		],
		 "valence_orbital": [ 
			{
				"type": "occ",
				"energy": -0.28805,
				"method": "rhf"
			},
			{
				"type": "occ",
				"energy": -0.27582,
				"method": "rhf"
			},
			{
				"type": "occ",
				"energy": -0.27002,
				"method": "rhf"
			},
			{
				"type": "occ",
				"energy": -0.26355,
				"method": "rhf"
			},
			{
				"type": "occ",
				"energy": -0.23756,
				"method": "rhf"
			},
			{
				"type": "unocc",
				"energy": -0.08807,
				"method": "rhf"
			},
			{
				"type": "unocc",
				"energy": -0.03744,
				"method": "rhf"
			},
			{
				"type": "unocc",
				"energy": -0.03325,
				"method": "rhf"
			},
			{
				"type": "unocc",
				"energy": -0.00657,
				"method": "rhf"
			},
			{
				"type": "unocc",
				"energy": 0.01864,
				"method": "rhf"
			}
		],
		"cosmo_sigma_profile": { 
			"-0.025": 0.0,
			"-0.024": 0.0,
			"-0.023": 0.0,
			"-0.022": 0.0,
			"-0.021": 0.0,
			"-0.02": 0.0,
			"-0.019": 0.0,
			"-0.018": 0.0,
			"-0.017": 0.0,
			"-0.016": 0.0,
			"-0.015": 0.0,
			"-0.014": 0.0,
			"-0.013": 0.0,
			"-0.012": 0.0,
			"-0.011": 0.0,
			"-0.01": 0.0,
			"-0.009": 1.59529868347,
			"-0.008": 10.8651490246,
			"-0.007": 12.6479299814,
			"-0.006": 11.867842348,
			"-0.005": 9.72738185062,
			"-0.004": 10.2646464576,
			"-0.003": 12.1286406007,
			"-0.002": 13.912788029,
			"-0.001": 19.9238142325,
			"0.0": 30.1997282269,
			"0.001": 37.0945890628,
			"0.002": 30.8220688664,
			"0.003": 20.1195347989,
			"0.004": 16.9439226608,
			"0.005": 5.28701557518,
			"0.006": 1.66278684669,
			"0.007": 1.80434662963,
			"0.008": 1.86048426786,
			"0.009": 1.69239389941,
			"0.01": 2.6470290456,
			"0.011": 4.22667393685,
			"0.012": 3.35238712914,
			"0.013": 0.946052678899,
			"0.014": 0.0,
			"0.015": 0.0,
			"0.016": 0.0,
			"0.017": 0.0,
			"0.018": 0.0,
			"0.019": 0.0,
			"0.02": 0.0,
			"0.021": 0.0,
			"0.022": 0.0,
			"0.023": 0.0,
			"0.024": 0.0,
			"0.025": 0.0
		}
	}
}
