{
	 "smiles": "CC1=CC(C(=O)NN)=C(C)O1", 
	 "Tm": 406.15, 
	 "num_atms": 21, 
	 "gaussian": { 
		 "optdone": 1, 
		 "sigma_profile": "yes", 
		 "theory": "DFT", 
		 "functional": "B3LYP", 
		 "basiset": "6-31G**", 
		 "properties": { 
			 "R2extent": 2394.8393, 
			 "electric_dipole_moment_norm": 2.54362951901, 
			 "electric_quadrupole_moment_norm": 8.0181685889, 
			 "total_energy": -532.696585012, 
			 "HOMO_LUMO_gap": 0.20242, 
			 "cosmo_polarized_energy": -12.29, 
			 "cosmo_cavitation_energy": 25.14, 
			 "cosmo_dispersion_energy": -18.43, 
			 "cosmo_repulsion_energy": 1.52, 
			 "cosmo_total_nonelectrostatic_energy": 8.23, 
			 "SMD_solvation_energy": 6.17 
		},
		"coords": [
			{
				"x": 3.0537357198,
				"y": -1.9346427323,
				"z": 2.1991404681,
				"element": "C" 
			},
			{
				"x": 2.2171775659,
				"y": -0.9946074773,
				"z": 1.4054952069,
				"element": "C" 
			},
			{
				"x": 2.2848821862,
				"y": -0.5028221515,
				"z": 0.1424393049,
				"element": "C" 
			},
			{
				"x": 1.1523738192,
				"y": 0.3701871416,
				"z": -0.0281046429,
				"element": "C" 
			},
			{
				"x": 0.8952906463,
				"y": 1.1233794472,
				"z": -1.2741839386,
				"element": "C" 
			},
			{
				"x": 1.7745831894,
				"y": 1.3476929472,
				"z": -2.1019113457,
				"element": "O" 
			},
			{
				"x": -0.402894918,
				"y": 1.566136582,
				"z": -1.4708110772,
				"element": "N" 
			},
			{
				"x": -0.7493823241,
				"y": 2.1299361063,
				"z": -2.7233672019,
				"element": "N" 
			},
			{
				"x": 0.4743815109,
				"y": 0.362528029,
				"z": 1.1677841122,
				"element": "C" 
			},
			{
				"x": -0.7268778514,
				"y": 1.0651938064,
				"z": 1.7012323942,
				"element": "C" 
			},
			{
				"x": 1.1141054149,
				"y": -0.4666555707,
				"z": 2.0413799679,
				"element": "O" 
			},
			{
				"x": 3.8997293613,
				"y": -2.2733476426,
				"z": 1.5969989545,
				"element": "H" 
			},
			{
				"x": 2.4820031069,
				"y": -2.8153394685,
				"z": 2.5140018571,
				"element": "H" 
			},
			{
				"x": 3.4457359423,
				"y": -1.4564276472,
				"z": 3.1041417649,
				"element": "H" 
			},
			{
				"x": 3.0344288238,
				"y": -0.7113915363,
				"z": -0.6060550822,
				"element": "H" 
			},
			{
				"x": -1.1467663633,
				"y": 1.0101578324,
				"z": -1.0710847674,
				"element": "H" 
			},
			{
				"x": -0.0584913311,
				"y": 1.7807906637,
				"z": -3.3912968451,
				"element": "H" 
			},
			{
				"x": -0.571396256,
				"y": 3.1316277798,
				"z": -2.65838927,
				"element": "H" 
			},
			{
				"x": -0.9673890599,
				"y": 1.9301067968,
				"z": 1.0801635423,
				"element": "H" 
			},
			{
				"x": -1.6060153872,
				"y": 0.4085913608,
				"z": 1.7355528028,
				"element": "H" 
			},
			{
				"x": -0.539613796,
				"y": 1.4091057333,
				"z": 2.7231737951,
				"element": "H" 
			}
		],
		 "valence_orbital": [ 
			{
				"type": "occ",
				"energy": -0.28728,
				"method": "rhf"
			},
			{
				"type": "occ",
				"energy": -0.27672,
				"method": "rhf"
			},
			{
				"type": "occ",
				"energy": -0.25624,
				"method": "rhf"
			},
			{
				"type": "occ",
				"energy": -0.24878,
				"method": "rhf"
			},
			{
				"type": "occ",
				"energy": -0.21943,
				"method": "rhf"
			},
			{
				"type": "unocc",
				"energy": -0.01701,
				"method": "rhf"
			},
			{
				"type": "unocc",
				"energy": 0.03,
				"method": "rhf"
			},
			{
				"type": "unocc",
				"energy": 0.07991,
				"method": "rhf"
			},
			{
				"type": "unocc",
				"energy": 0.09418,
				"method": "rhf"
			},
			{
				"type": "unocc",
				"energy": 0.10865,
				"method": "rhf"
			}
		],
		"cosmo_sigma_profile": { 
			"-0.025": 0.0,
			"-0.024": 0.0,
			"-0.023": 0.0,
			"-0.022": 0.0,
			"-0.021": 0.0,
			"-0.02": 0.0,
			"-0.019": 0.0,
			"-0.018": 0.0,
			"-0.017": 0.0,
			"-0.016": 0.0,
			"-0.015": 0.0,
			"-0.014": 0.225603396393,
			"-0.013": 0.788613440972,
			"-0.012": 1.16573924501,
			"-0.011": 2.37195110786,
			"-0.01": 2.2728317528,
			"-0.009": 3.85762892653,
			"-0.008": 3.14773186017,
			"-0.007": 3.53966543588,
			"-0.006": 6.02418347898,
			"-0.005": 16.3852544882,
			"-0.004": 14.443319965,
			"-0.003": 17.2146049539,
			"-0.002": 17.5760361869,
			"-0.001": 18.4551187925,
			"0.0": 12.6692630661,
			"0.001": 12.1131670883,
			"0.002": 11.4007978982,
			"0.003": 9.40202657681,
			"0.004": 8.47577066774,
			"0.005": 7.01542341311,
			"0.006": 3.98792080921,
			"0.007": 3.44544966613,
			"0.008": 2.88620239228,
			"0.009": 2.81440013167,
			"0.01": 2.23975704924,
			"0.011": 2.07546162344,
			"0.012": 2.69265303036,
			"0.013": 5.28137155821,
			"0.014": 2.73717913282,
			"0.015": 0.773376870486,
			"0.016": 0.655976741421,
			"0.017": 0.350736790413,
			"0.018": 0.0,
			"0.019": 0.0,
			"0.02": 0.0,
			"0.021": 0.0,
			"0.022": 0.0,
			"0.023": 0.0,
			"0.024": 0.0,
			"0.025": 0.0
		}
	}
}
