{
	 "smiles": "OC1=C(F)C=C(Br)C=C1Br", 
	 "Tm": 305.15, 
	 "num_atms": 13, 
	 "gaussian": { 
		 "optdone": 1, 
		 "sigma_profile": "yes", 
		 "theory": "DFT", 
		 "functional": "B3LYP", 
		 "basiset": "6-31G**", 
		 "properties": { 
			 "R2extent": 4156.1189, 
			 "electric_dipole_moment_norm": 1.56351845208, 
			 "electric_quadrupole_moment_norm": 6.6437593936, 
			 "total_energy": -5548.30041054, 
			 "HOMO_LUMO_gap": 0.20513, 
			 "cosmo_polarized_energy": -6.76, 
			 "cosmo_cavitation_energy": 22.78, 
			 "cosmo_dispersion_energy": -17.78, 
			 "cosmo_repulsion_energy": 1.42, 
			 "cosmo_total_nonelectrostatic_energy": 6.43, 
			 "SMD_solvation_energy": 2.52 
		},
		"coords": [
			{
				"x": -1.9016163328,
				"y": 1.8199055854,
				"z": 2.7309581358,
				"element": "O" 
			},
			{
				"x": -1.1438271524,
				"y": 1.0042314131,
				"z": 1.9621065603,
				"element": "C" 
			},
			{
				"x": 0.2258309834,
				"y": 1.2340800675,
				"z": 1.7879226957,
				"element": "C" 
			},
			{
				"x": 0.7359899534,
				"y": 2.3147381687,
				"z": 2.4326986829,
				"element": "F" 
			},
			{
				"x": 1.0432600173,
				"y": 0.4311208911,
				"z": 1.0135754237,
				"element": "C" 
			},
			{
				"x": 0.4570435193,
				"y": -0.663805516,
				"z": 0.3775009691,
				"element": "C" 
			},
			{
				"x": 1.5384411068,
				"y": -1.8047932199,
				"z": -0.702644281,
				"element": "Br" 
			},
			{
				"x": -0.9011974887,
				"y": -0.9382607748,
				"z": 0.5169757571,
				"element": "C" 
			},
			{
				"x": -1.693125212,
				"y": -0.1036300296,
				"z": 1.3075958236,
				"element": "C" 
			},
			{
				"x": -3.5459340127,
				"y": -0.4701040248,
				"z": 1.5035618498,
				"element": "Br" 
			},
			{
				"x": -1.3259231665,
				"y": 2.5144092431,
				"z": 3.0844126174,
				"element": "H" 
			},
			{
				"x": 2.0969519982,
				"y": 0.6599915285,
				"z": 0.9167272422,
				"element": "H" 
			},
			{
				"x": -1.3468942133,
				"y": -1.7897833324,
				"z": 0.0198085235,
				"element": "H" 
			}
		],
		 "valence_orbital": [ 
			{
				"type": "occ",
				"energy": -0.29969,
				"method": "rhf"
			},
			{
				"type": "occ",
				"energy": -0.2996,
				"method": "rhf"
			},
			{
				"type": "occ",
				"energy": -0.29278,
				"method": "rhf"
			},
			{
				"type": "occ",
				"energy": -0.26038,
				"method": "rhf"
			},
			{
				"type": "occ",
				"energy": -0.23583,
				"method": "rhf"
			},
			{
				"type": "unocc",
				"energy": -0.0307,
				"method": "rhf"
			},
			{
				"type": "unocc",
				"energy": -0.02466,
				"method": "rhf"
			},
			{
				"type": "unocc",
				"energy": -0.0185,
				"method": "rhf"
			},
			{
				"type": "unocc",
				"energy": 0.02141,
				"method": "rhf"
			},
			{
				"type": "unocc",
				"energy": 0.06331,
				"method": "rhf"
			}
		],
		"cosmo_sigma_profile": { 
			"-0.025": 0.0,
			"-0.024": 0.0,
			"-0.023": 0.0,
			"-0.022": 0.0,
			"-0.021": 0.0,
			"-0.02": 0.0,
			"-0.019": 0.0,
			"-0.018": 0.201806596418,
			"-0.017": 0.724016491526,
			"-0.016": 0.446137604856,
			"-0.015": 0.567451361647,
			"-0.014": 0.581365850313,
			"-0.013": 1.21203677648,
			"-0.012": 0.99589267278,
			"-0.011": 1.08277762515,
			"-0.01": 0.967436610108,
			"-0.009": 2.28645447484,
			"-0.008": 3.83796750715,
			"-0.007": 3.43371660823,
			"-0.006": 3.65726820671,
			"-0.005": 6.72638064944,
			"-0.004": 7.29453864862,
			"-0.003": 9.07066220584,
			"-0.002": 10.9549168424,
			"-0.001": 16.5842985428,
			"0.0": 19.4597808872,
			"0.001": 24.7634671736,
			"0.002": 18.3816279008,
			"0.003": 21.2128357223,
			"0.004": 21.2087250823,
			"0.005": 5.01712217535,
			"0.006": 1.77913361973,
			"0.007": 2.04054666875,
			"0.008": 1.86787858745,
			"0.009": 2.38716615558,
			"0.01": 1.52916722031,
			"0.011": 0.00176498330885,
			"0.012": 0.0,
			"0.013": 0.0,
			"0.014": 0.0,
			"0.015": 0.0,
			"0.016": 0.0,
			"0.017": 0.0,
			"0.018": 0.0,
			"0.019": 0.0,
			"0.02": 0.0,
			"0.021": 0.0,
			"0.022": 0.0,
			"0.023": 0.0,
			"0.024": 0.0,
			"0.025": 0.0
		}
	}
}
