{
	 "smiles": "CCCCCCCCC1=CC=C(NC(=O)C2=CC=C(CC)C=C2)C=C1", 
	 "Tm": 382.15, 
	 "num_atms": 56, 
	 "gaussian": { 
		 "optdone": 1, 
		 "sigma_profile": "yes", 
		 "theory": "DFT", 
		 "functional": "B3LYP", 
		 "basiset": "6-31G**", 
		 "properties": { 
			 "R2extent": 17145.7105, 
			 "electric_dipole_moment_norm": 3.48100195346, 
			 "electric_quadrupole_moment_norm": 22.4804134286, 
			 "total_energy": -1025.16509141, 
			 "HOMO_LUMO_gap": 0.16917, 
			 "cosmo_polarized_energy": -13.09, 
			 "cosmo_cavitation_energy": 56.79, 
			 "cosmo_dispersion_energy": -38.18, 
			 "cosmo_repulsion_energy": 2.95, 
			 "cosmo_total_nonelectrostatic_energy": 21.56, 
			 "SMD_solvation_energy": 8.76 
		},
		"coords": [
			{
				"x": 5.2849111415,
				"y": -3.6427910196,
				"z": 2.5052281547,
				"element": "C" 
			},
			{
				"x": 4.238261938,
				"y": -3.0869188888,
				"z": 1.5327682172,
				"element": "C" 
			},
			{
				"x": 2.8124866309,
				"y": -3.6177503122,
				"z": 1.7607638439,
				"element": "C" 
			},
			{
				"x": 2.1352199742,
				"y": -3.2759246329,
				"z": 3.1024461206,
				"element": "C" 
			},
			{
				"x": 1.8421465127,
				"y": -1.7789433423,
				"z": 3.3507282413,
				"element": "C" 
			},
			{
				"x": 2.9464510611,
				"y": -1.0195041337,
				"z": 4.1076098941,
				"element": "C" 
			},
			{
				"x": 2.621139483,
				"y": 0.4447355606,
				"z": 4.4601414168,
				"element": "C" 
			},
			{
				"x": 2.8225287512,
				"y": 1.483771493,
				"z": 3.3322559426,
				"element": "C" 
			},
			{
				"x": 1.8495659041,
				"y": 1.4206566673,
				"z": 2.1725087313,
				"element": "C" 
			},
			{
				"x": 2.2702951462,
				"y": 1.0791045491,
				"z": 0.8811716197,
				"element": "C" 
			},
			{
				"x": 1.3730514131,
				"y": 1.0271809722,
				"z": -0.1822729914,
				"element": "C" 
			},
			{
				"x": 0.016185005,
				"y": 1.3247088751,
				"z": 0.0129215257,
				"element": "C" 
			},
			{
				"x": -0.8345104785,
				"y": 1.242324172,
				"z": -1.1093129041,
				"element": "N" 
			},
			{
				"x": -2.1778047202,
				"y": 1.5382936793,
				"z": -1.2020157509,
				"element": "C" 
			},
			{
				"x": -2.8455192476,
				"y": 1.9731457355,
				"z": -0.2686206292,
				"element": "O" 
			},
			{
				"x": -2.7851469703,
				"y": 1.3089347214,
				"z": -2.5579498827,
				"element": "C" 
			},
			{
				"x": -3.9542686349,
				"y": 2.0181693275,
				"z": -2.8652124867,
				"element": "C" 
			},
			{
				"x": -4.5773625977,
				"y": 1.8547430239,
				"z": -4.0980506766,
				"element": "C" 
			},
			{
				"x": -4.0657861281,
				"y": 0.9686997074,
				"z": -5.0580394679,
				"element": "C" 
			},
			{
				"x": -4.7251351132,
				"y": 0.8218521664,
				"z": -6.4120780293,
				"element": "C" 
			},
			{
				"x": -4.1857621521,
				"y": 1.8248608745,
				"z": -7.4485786941,
				"element": "C" 
			},
			{
				"x": -2.9110194278,
				"y": 0.24346065,
				"z": -4.7356220689,
				"element": "C" 
			},
			{
				"x": -2.2771175375,
				"y": 0.40833015,
				"z": -3.5051954825,
				"element": "C" 
			},
			{
				"x": -0.4238205792,
				"y": 1.6797711007,
				"z": 1.2985385403,
				"element": "C" 
			},
			{
				"x": 0.4917908644,
				"y": 1.7232503516,
				"z": 2.3475034262,
				"element": "C" 
			},
			{
				"x": 6.2876897929,
				"y": -3.2780285748,
				"z": 2.2583090153,
				"element": "H" 
			},
			{
				"x": 5.3122406395,
				"y": -4.7382671839,
				"z": 2.468521305,
				"element": "H" 
			},
			{
				"x": 5.0763218793,
				"y": -3.3536987619,
				"z": 3.540245974,
				"element": "H" 
			},
			{
				"x": 4.5371382019,
				"y": -3.3436071114,
				"z": 0.5077650327,
				"element": "H" 
			},
			{
				"x": 4.2385312725,
				"y": -1.9904050975,
				"z": 1.5746571699,
				"element": "H" 
			},
			{
				"x": 2.169751144,
				"y": -3.248049315,
				"z": 0.9500477472,
				"element": "H" 
			},
			{
				"x": 2.8318057015,
				"y": -4.7118132366,
				"z": 1.6545410962,
				"element": "H" 
			},
			{
				"x": 1.184388246,
				"y": -3.8231308868,
				"z": 3.1250077307,
				"element": "H" 
			},
			{
				"x": 2.7235025417,
				"y": -3.6800713239,
				"z": 3.9377215793,
				"element": "H" 
			},
			{
				"x": 1.6252920695,
				"y": -1.2872743318,
				"z": 2.3961442108,
				"element": "H" 
			},
			{
				"x": 0.92137931,
				"y": -1.6940610274,
				"z": 3.943269225,
				"element": "H" 
			},
			{
				"x": 3.8902167525,
				"y": -1.049802382,
				"z": 3.5480882223,
				"element": "H" 
			},
			{
				"x": 3.1406326091,
				"y": -1.5595114289,
				"z": 5.0447507588,
				"element": "H" 
			},
			{
				"x": 3.2677278209,
				"y": 0.7501401646,
				"z": 5.2928398339,
				"element": "H" 
			},
			{
				"x": 1.5922290132,
				"y": 0.5102590475,
				"z": 4.8393235528,
				"element": "H" 
			},
			{
				"x": 2.7602902917,
				"y": 2.4820943864,
				"z": 3.7861826313,
				"element": "H" 
			},
			{
				"x": 3.8462373802,
				"y": 1.3903533839,
				"z": 2.9481264607,
				"element": "H" 
			},
			{
				"x": 3.3174950763,
				"y": 0.8486291765,
				"z": 0.7011503749,
				"element": "H" 
			},
			{
				"x": 1.7291573718,
				"y": 0.7557374014,
				"z": -1.174176805,
				"element": "H" 
			},
			{
				"x": -0.3702751572,
				"y": 1.0164621657,
				"z": -1.9763669475,
				"element": "H" 
			},
			{
				"x": -4.3595159605,
				"y": 2.6893659647,
				"z": -2.1155856456,
				"element": "H" 
			},
			{
				"x": -5.4808804686,
				"y": 2.4175557033,
				"z": -4.3202599886,
				"element": "H" 
			},
			{
				"x": -4.5736608491,
				"y": -0.1983750234,
				"z": -6.7839566962,
				"element": "H" 
			},
			{
				"x": -5.8078574178,
				"y": 0.9588407526,
				"z": -6.3072187879,
				"element": "H" 
			},
			{
				"x": -3.109573659,
				"y": 1.6923861123,
				"z": -7.599892315,
				"element": "H" 
			},
			{
				"x": -4.6837107296,
				"y": 1.6932735675,
				"z": -8.4147432561,
				"element": "H" 
			},
			{
				"x": -4.3497732076,
				"y": 2.8559381217,
				"z": -7.1193070081,
				"element": "H" 
			},
			{
				"x": -2.5109766342,
				"y": -0.4706284067,
				"z": -5.4513600779,
				"element": "H" 
			},
			{
				"x": -1.4104292747,
				"y": -0.2070368898,
				"z": -3.2774183493,
				"element": "H" 
			},
			{
				"x": -1.4647920819,
				"y": 1.92426447,
				"z": 1.4535068105,
				"element": "H" 
			},
			{
				"x": 0.1325380879,
				"y": 2.0070991153,
				"z": 3.3340505356,
				"element": "H" 
			}
		],
		 "valence_orbital": [ 
			{
				"type": "occ",
				"energy": -0.25941,
				"method": "rhf"
			},
			{
				"type": "occ",
				"energy": -0.25675,
				"method": "rhf"
			},
			{
				"type": "occ",
				"energy": -0.24728,
				"method": "rhf"
			},
			{
				"type": "occ",
				"energy": -0.24427,
				"method": "rhf"
			},
			{
				"type": "occ",
				"energy": -0.20945,
				"method": "rhf"
			},
			{
				"type": "unocc",
				"energy": -0.04028,
				"method": "rhf"
			},
			{
				"type": "unocc",
				"energy": -0.01079,
				"method": "rhf"
			},
			{
				"type": "unocc",
				"energy": 0.00063,
				"method": "rhf"
			},
			{
				"type": "unocc",
				"energy": 0.01091,
				"method": "rhf"
			},
			{
				"type": "unocc",
				"energy": 0.06363,
				"method": "rhf"
			}
		],
		"cosmo_sigma_profile": { 
			"-0.025": 0.0,
			"-0.024": 0.0,
			"-0.023": 0.0,
			"-0.022": 0.0,
			"-0.021": 0.0,
			"-0.02": 0.0,
			"-0.019": 0.0,
			"-0.018": 0.0,
			"-0.017": 0.0,
			"-0.016": 0.0,
			"-0.015": 0.323248578702,
			"-0.014": 1.1210885295,
			"-0.013": 1.21716751598,
			"-0.012": 1.60830064485,
			"-0.011": 1.38631553017,
			"-0.01": 1.31546149181,
			"-0.009": 1.5667815985,
			"-0.008": 2.1749667633,
			"-0.007": 2.67733505351,
			"-0.006": 5.37497113132,
			"-0.005": 12.3944911598,
			"-0.004": 20.4758571882,
			"-0.003": 30.4783878013,
			"-0.002": 49.5036397927,
			"-0.001": 65.1229161419,
			"0.0": 69.4197892622,
			"0.001": 61.2841836279,
			"0.002": 35.8429362524,
			"0.003": 19.5755337732,
			"0.004": 23.342624687,
			"0.005": 16.6633032963,
			"0.006": 6.23685775224,
			"0.007": 2.16587683434,
			"0.008": 2.03666975584,
			"0.009": 1.29695349849,
			"0.01": 1.64523810531,
			"0.011": 2.05980505377,
			"0.012": 2.41708887239,
			"0.013": 2.83330932759,
			"0.014": 0.746321380415,
			"0.015": 0.0,
			"0.016": 0.0,
			"0.017": 0.0,
			"0.018": 0.0,
			"0.019": 0.0,
			"0.02": 0.0,
			"0.021": 0.0,
			"0.022": 0.0,
			"0.023": 0.0,
			"0.024": 0.0,
			"0.025": 0.0
		}
	}
}
