{
	 "smiles": "CCOC(=O)C1=CC=C(C(C)=C1)[N+]([O-])=O", 
	 "Tm": 327.15, 
	 "num_atms": 26, 
	 "gaussian": { 
		 "optdone": 1, 
		 "sigma_profile": "yes", 
		 "theory": "DFT", 
		 "functional": "B3LYP", 
		 "basiset": "6-31G**", 
		 "properties": { 
			 "R2extent": 5316.7251, 
			 "electric_dipole_moment_norm": 4.66683183541, 
			 "electric_quadrupole_moment_norm": 7.60209230081, 
			 "total_energy": -743.263514854, 
			 "HOMO_LUMO_gap": 0.1749, 
			 "cosmo_polarized_energy": -10.11, 
			 "cosmo_cavitation_energy": 30.99, 
			 "cosmo_dispersion_energy": -22.37, 
			 "cosmo_repulsion_energy": 1.76, 
			 "cosmo_total_nonelectrostatic_energy": 10.39, 
			 "SMD_solvation_energy": 8.59 
		},
		"coords": [
			{
				"x": -1.0117147426,
				"y": -4.7981500467,
				"z": -0.202359864,
				"element": "C" 
			},
			{
				"x": -2.1150053031,
				"y": -3.9171668304,
				"z": -0.7552295142,
				"element": "C" 
			},
			{
				"x": -1.6859541874,
				"y": -2.5411864725,
				"z": -0.6136598051,
				"element": "O" 
			},
			{
				"x": -2.5504854881,
				"y": -1.6080457054,
				"z": -1.0584591785,
				"element": "C" 
			},
			{
				"x": -3.6296929915,
				"y": -1.8691042199,
				"z": -1.552502285,
				"element": "O" 
			},
			{
				"x": -2.034564632,
				"y": -0.2151153004,
				"z": -0.8771768533,
				"element": "C" 
			},
			{
				"x": -2.8480627479,
				"y": 0.8427127592,
				"z": -1.2998136331,
				"element": "C" 
			},
			{
				"x": -2.4037749863,
				"y": 2.1463368637,
				"z": -1.1419857046,
				"element": "C" 
			},
			{
				"x": -1.1475350615,
				"y": 2.3903015245,
				"z": -0.5785693855,
				"element": "C" 
			},
			{
				"x": -0.2979702958,
				"y": 1.3541362119,
				"z": -0.1412819572,
				"element": "C" 
			},
			{
				"x": 1.0604572948,
				"y": 1.5416286257,
				"z": 0.4897018612,
				"element": "C" 
			},
			{
				"x": -0.7877496921,
				"y": 0.0502538039,
				"z": -0.3043032135,
				"element": "C" 
			},
			{
				"x": -0.7575561411,
				"y": 3.8097983739,
				"z": -0.4658736219,
				"element": "N" 
			},
			{
				"x": 0.4282060977,
				"y": 4.0751460334,
				"z": -0.2668991537,
				"element": "O" 
			},
			{
				"x": -1.6438786833,
				"y": 4.6548089304,
				"z": -0.5876600625,
				"element": "O" 
			},
			{
				"x": -1.2997164707,
				"y": -5.8500578979,
				"z": -0.2919758862,
				"element": "H" 
			},
			{
				"x": -0.8288292764,
				"y": -4.5812844421,
				"z": 0.853982749,
				"element": "H" 
			},
			{
				"x": -0.0783488855,
				"y": -4.6498209052,
				"z": -0.7529534624,
				"element": "H" 
			},
			{
				"x": -2.3117197778,
				"y": -4.114755932,
				"z": -1.8134598339,
				"element": "H" 
			},
			{
				"x": -3.0580493156,
				"y": -4.0464994999,
				"z": -0.21527888,
				"element": "H" 
			},
			{
				"x": -3.8135658607,
				"y": 0.6243480801,
				"z": -1.7413787239,
				"element": "H" 
			},
			{
				"x": -3.0078251869,
				"y": 2.9915753994,
				"z": -1.4454460186,
				"element": "H" 
			},
			{
				"x": 1.7810827735,
				"y": 1.9390915977,
				"z": -0.2294158634,
				"element": "H" 
			},
			{
				"x": 1.4258007553,
				"y": 0.5814257959,
				"z": 0.86251899,
				"element": "H" 
			},
			{
				"x": 1.0316053492,
				"y": 2.2543548617,
				"z": 1.3172564543,
				"element": "H" 
			},
			{
				"x": -0.175852544,
				"y": -0.7811316091,
				"z": 0.0261228461,
				"element": "H" 
			}
		],
		 "valence_orbital": [ 
			{
				"type": "occ",
				"energy": -0.30821,
				"method": "rhf"
			},
			{
				"type": "occ",
				"energy": -0.29501,
				"method": "rhf"
			},
			{
				"type": "occ",
				"energy": -0.28663,
				"method": "rhf"
			},
			{
				"type": "occ",
				"energy": -0.28122,
				"method": "rhf"
			},
			{
				"type": "occ",
				"energy": -0.27287,
				"method": "rhf"
			},
			{
				"type": "unocc",
				"energy": -0.09797,
				"method": "rhf"
			},
			{
				"type": "unocc",
				"energy": -0.0364,
				"method": "rhf"
			},
			{
				"type": "unocc",
				"energy": -0.02735,
				"method": "rhf"
			},
			{
				"type": "unocc",
				"energy": 0.04528,
				"method": "rhf"
			},
			{
				"type": "unocc",
				"energy": 0.08521,
				"method": "rhf"
			}
		],
		"cosmo_sigma_profile": { 
			"-0.025": 0.0,
			"-0.024": 0.0,
			"-0.023": 0.0,
			"-0.022": 0.0,
			"-0.021": 0.0,
			"-0.02": 0.0,
			"-0.019": 0.0,
			"-0.018": 0.0,
			"-0.017": 0.0,
			"-0.016": 0.0,
			"-0.015": 0.0,
			"-0.014": 0.0,
			"-0.013": 0.0,
			"-0.012": 0.0,
			"-0.011": 0.0,
			"-0.01": 0.0,
			"-0.009": 0.0,
			"-0.008": 0.772618337244,
			"-0.007": 5.48088510132,
			"-0.006": 8.94212899636,
			"-0.005": 16.2431488972,
			"-0.004": 23.461204161,
			"-0.003": 26.07303968,
			"-0.002": 23.8336577933,
			"-0.001": 29.4381978004,
			"0.0": 28.1292045001,
			"0.001": 18.7628647219,
			"0.002": 8.76429680418,
			"0.003": 5.67478991239,
			"0.004": 7.03104098602,
			"0.005": 6.28171144335,
			"0.006": 4.88518044147,
			"0.007": 7.89154199253,
			"0.008": 8.08040104314,
			"0.009": 5.85247234266,
			"0.01": 4.76439726407,
			"0.011": 3.89196083496,
			"0.012": 2.1278387345,
			"0.013": 0.0,
			"0.014": 0.0,
			"0.015": 0.0,
			"0.016": 0.0,
			"0.017": 0.0,
			"0.018": 0.0,
			"0.019": 0.0,
			"0.02": 0.0,
			"0.021": 0.0,
			"0.022": 0.0,
			"0.023": 0.0,
			"0.024": 0.0,
			"0.025": 0.0
		}
	}
}
