{
	 "smiles": "CN1CCC2=C(C1)C(C(O)=O)=C1C=CC=CC1=N2", 
	 "Tm": 528.15, 
	 "num_atms": 32, 
	 "gaussian": { 
		 "optdone": 1, 
		 "sigma_profile": "yes", 
		 "theory": "DFT", 
		 "functional": "B3LYP", 
		 "basiset": "6-31G**", 
		 "properties": { 
			 "R2extent": 5289.3964, 
			 "electric_dipole_moment_norm": 1.12705408034, 
			 "electric_quadrupole_moment_norm": 13.3472529129, 
			 "total_energy": -801.894931442, 
			 "HOMO_LUMO_gap": 0.14758, 
			 "cosmo_polarized_energy": -12.21, 
			 "cosmo_cavitation_energy": 34.04, 
			 "cosmo_dispersion_energy": -25.25, 
			 "cosmo_repulsion_energy": 1.93, 
			 "cosmo_total_nonelectrostatic_energy": 10.71, 
			 "SMD_solvation_energy": 2.03 
		},
		"coords": [
			{
				"x": 0.4724257064,
				"y": -4.0098692617,
				"z": -1.1642603241,
				"element": "C" 
			},
			{
				"x": 0.2045074696,
				"y": -2.5951158325,
				"z": -0.9510400052,
				"element": "N" 
			},
			{
				"x": 1.1610113473,
				"y": -1.7353588707,
				"z": -1.6407783054,
				"element": "C" 
			},
			{
				"x": 0.6348153315,
				"y": -0.302798555,
				"z": -1.6326728704,
				"element": "C" 
			},
			{
				"x": 0.1897652517,
				"y": 0.1466395227,
				"z": -0.2583635516,
				"element": "C" 
			},
			{
				"x": -0.0811968397,
				"y": -0.8185881933,
				"z": 0.7625405799,
				"element": "C" 
			},
			{
				"x": 0.1670470398,
				"y": -2.2899725491,
				"z": 0.4765641628,
				"element": "C" 
			},
			{
				"x": -0.5427700787,
				"y": -0.3558616611,
				"z": 1.99055239,
				"element": "C" 
			},
			{
				"x": -0.8288640964,
				"y": -1.3596771519,
				"z": 3.0650488777,
				"element": "C" 
			},
			{
				"x": -1.974874226,
				"y": -1.1158625541,
				"z": 3.7465059432,
				"element": "O" 
			},
			{
				"x": -0.1411358432,
				"y": -2.331041404,
				"z": 3.3068569953,
				"element": "O" 
			},
			{
				"x": -0.7001194279,
				"y": 1.0514513849,
				"z": 2.2127171546,
				"element": "C" 
			},
			{
				"x": -1.1116925958,
				"y": 1.6492764547,
				"z": 3.4371820766,
				"element": "C" 
			},
			{
				"x": -1.1999192835,
				"y": 3.018496825,
				"z": 3.5574427304,
				"element": "C" 
			},
			{
				"x": -0.8845271604,
				"y": 3.8665122819,
				"z": 2.4688857777,
				"element": "C" 
			},
			{
				"x": -0.4765992142,
				"y": 3.3230941961,
				"z": 1.2740672029,
				"element": "C" 
			},
			{
				"x": -0.3697787644,
				"y": 1.9148184579,
				"z": 1.1193164641,
				"element": "C" 
			},
			{
				"x": 0.0536920091,
				"y": 1.446111107,
				"z": -0.0848331845,
				"element": "N" 
			},
			{
				"x": 0.4464550388,
				"y": -4.2317556413,
				"z": -2.2356343108,
				"element": "H" 
			},
			{
				"x": 1.4544629183,
				"y": -4.3342856646,
				"z": -0.7688036344,
				"element": "H" 
			},
			{
				"x": -0.3002841179,
				"y": -4.6113171624,
				"z": -0.6742702841,
				"element": "H" 
			},
			{
				"x": 1.2713464257,
				"y": -2.0853177943,
				"z": -2.6724283389,
				"element": "H" 
			},
			{
				"x": 2.1668800033,
				"y": -1.7823508515,
				"z": -1.175374721,
				"element": "H" 
			},
			{
				"x": 1.3826361539,
				"y": 0.4034784357,
				"z": -2.0061547207,
				"element": "H" 
			},
			{
				"x": -0.2292810188,
				"y": -0.2386612181,
				"z": -2.306025575,
				"element": "H" 
			},
			{
				"x": -0.6112317474,
				"y": -2.9037670477,
				"z": 0.9389790746,
				"element": "H" 
			},
			{
				"x": 1.1101028835,
				"y": -2.581823734,
				"z": 0.9804864718,
				"element": "H" 
			},
			{
				"x": -2.0471795754,
				"y": -1.832495528,
				"z": 4.4005006454,
				"element": "H" 
			},
			{
				"x": -1.3653066872,
				"y": 1.020181956,
				"z": 4.2800451342,
				"element": "H" 
			},
			{
				"x": -1.515793094,
				"y": 3.4526866908,
				"z": 4.5016106274,
				"element": "H" 
			},
			{
				"x": -0.9629219068,
				"y": 4.9436874498,
				"z": 2.5833079082,
				"element": "H" 
			},
			{
				"x": -0.2190719012,
				"y": 3.9370859126,
				"z": 0.4174296093,
				"element": "H" 
			}
		],
		 "valence_orbital": [ 
			{
				"type": "occ",
				"energy": -0.28611,
				"method": "rhf"
			},
			{
				"type": "occ",
				"energy": -0.25273,
				"method": "rhf"
			},
			{
				"type": "occ",
				"energy": -0.24454,
				"method": "rhf"
			},
			{
				"type": "occ",
				"energy": -0.23161,
				"method": "rhf"
			},
			{
				"type": "occ",
				"energy": -0.2159,
				"method": "rhf"
			},
			{
				"type": "unocc",
				"energy": -0.06832,
				"method": "rhf"
			},
			{
				"type": "unocc",
				"energy": -0.01565,
				"method": "rhf"
			},
			{
				"type": "unocc",
				"energy": -0.00817,
				"method": "rhf"
			},
			{
				"type": "unocc",
				"energy": 0.03863,
				"method": "rhf"
			},
			{
				"type": "unocc",
				"energy": 0.07058,
				"method": "rhf"
			}
		],
		"cosmo_sigma_profile": { 
			"-0.025": 0.0,
			"-0.024": 0.0,
			"-0.023": 0.0,
			"-0.022": 0.0,
			"-0.021": 0.0,
			"-0.02": 0.0,
			"-0.019": 0.34171678755,
			"-0.018": 0.728789153456,
			"-0.017": 1.34792769098,
			"-0.016": 0.4864655963,
			"-0.015": 0.740022752874,
			"-0.014": 0.458649172344,
			"-0.013": 0.47854188915,
			"-0.012": 1.04361165125,
			"-0.011": 1.00080688428,
			"-0.01": 0.400304717262,
			"-0.009": 0.519116644033,
			"-0.008": 0.926219800423,
			"-0.007": 1.92521683946,
			"-0.006": 6.96385859554,
			"-0.005": 12.7675221772,
			"-0.004": 25.8709658981,
			"-0.003": 25.4487185465,
			"-0.002": 30.3487255694,
			"-0.001": 28.1977634003,
			"0.0": 25.0137308421,
			"0.001": 16.690170108,
			"0.002": 14.9640052789,
			"0.003": 16.8979388906,
			"0.004": 15.3317974305,
			"0.005": 6.72054292477,
			"0.006": 5.72605199892,
			"0.007": 5.33171094749,
			"0.008": 3.79570439187,
			"0.009": 4.82278344344,
			"0.01": 4.03761301334,
			"0.011": 5.02668651376,
			"0.012": 1.63573335928,
			"0.013": 1.16744107173,
			"0.014": 1.55916960952,
			"0.015": 0.627156547828,
			"0.016": 0.110768474467,
			"0.017": 0.0,
			"0.018": 0.0,
			"0.019": 0.0,
			"0.02": 0.0,
			"0.021": 0.0,
			"0.022": 0.0,
			"0.023": 0.0,
			"0.024": 0.0,
			"0.0": 0.0
		}
	}
}
