{
	 "smiles": "OC(=O)C1C2=CC=CC=C2C2=CC=CC=C12", 
	 "Tm": 502.15, 
	 "num_atms": 26, 
	 "gaussian": { 
		 "optdone": 1, 
		 "sigma_profile": "yes", 
		 "theory": "DFT", 
		 "functional": "B3LYP", 
		 "basiset": "6-31G**", 
		 "properties": { 
			 "R2extent": 3257.8155, 
			 "electric_dipole_moment_norm": 4.36497858643, 
			 "electric_quadrupole_moment_norm": 13.894667865, 
			 "total_energy": -689.987033516, 
			 "HOMO_LUMO_gap": 0.18311, 
			 "cosmo_polarized_energy": -12.57, 
			 "cosmo_cavitation_energy": 29.8, 
			 "cosmo_dispersion_energy": -21.56, 
			 "cosmo_repulsion_energy": 1.64, 
			 "cosmo_total_nonelectrostatic_energy": 9.88, 
			 "SMD_solvation_energy": 5.58 
		},
		"coords": [
			{
				"x": -1.3769792038,
				"y": -2.0067313347,
				"z": 1.5001965736,
				"element": "O" 
			},
			{
				"x": -1.1244846384,
				"y": -0.8143118797,
				"z": 2.0814027082,
				"element": "C" 
			},
			{
				"x": -1.7689713528,
				"y": -0.4325695275,
				"z": 3.0272467046,
				"element": "O" 
			},
			{
				"x": -0.0077135102,
				"y": 0.043684137,
				"z": 1.4580001169,
				"element": "C" 
			},
			{
				"x": 0.9280948449,
				"y": -0.6398417463,
				"z": 0.4768770279,
				"element": "C" 
			},
			{
				"x": 1.7505982282,
				"y": -1.7474832114,
				"z": 0.6715716003,
				"element": "C" 
			},
			{
				"x": 2.5440955588,
				"y": -2.197822908,
				"z": -0.3915216473,
				"element": "C" 
			},
			{
				"x": 2.5136236617,
				"y": -1.5407975828,
				"z": -1.6256471843,
				"element": "C" 
			},
			{
				"x": 1.6928627084,
				"y": -0.4271473379,
				"z": -1.8250119946,
				"element": "C" 
			},
			{
				"x": 0.8962873011,
				"y": 0.0226564549,
				"z": -0.7706342146,
				"element": "C" 
			},
			{
				"x": -0.0496652695,
				"y": 1.1432346892,
				"z": -0.6831536589,
				"element": "C" 
			},
			{
				"x": -0.4391369553,
				"y": 2.09283578,
				"z": -1.6302854991,
				"element": "C" 
			},
			{
				"x": -1.3837645484,
				"y": 3.0552971888,
				"z": -1.266991154,
				"element": "C" 
			},
			{
				"x": -1.9343730754,
				"y": 3.0683987659,
				"z": 0.0199287529,
				"element": "C" 
			},
			{
				"x": -1.5462718224,
				"y": 2.1203211315,
				"z": 0.9733676682,
				"element": "C" 
			},
			{
				"x": -0.6002580382,
				"y": 1.1687375542,
				"z": 0.6133961987,
				"element": "C" 
			},
			{
				"x": -0.7529226334,
				"y": -2.149609711,
				"z": 0.7698153438,
				"element": "H" 
			},
			{
				"x": 0.5433710868,
				"y": 0.4586372625,
				"z": 2.3109193924,
				"element": "H" 
			},
			{
				"x": 1.7844178777,
				"y": -2.2543755586,
				"z": 1.6328123593,
				"element": "H" 
			},
			{
				"x": 3.1900337374,
				"y": -3.0596260837,
				"z": -0.2538753762,
				"element": "H" 
			},
			{
				"x": 3.1365519295,
				"y": -1.9002498551,
				"z": -2.4395677779,
				"element": "H" 
			},
			{
				"x": 1.6782549525,
				"y": 0.076419867,
				"z": -2.7873772413,
				"element": "H" 
			},
			{
				"x": -0.019932754,
				"y": 2.0857485617,
				"z": -2.6325524351,
				"element": "H" 
			},
			{
				"x": -1.6971609178,
				"y": 3.8003548146,
				"z": -1.992525569,
				"element": "H" 
			},
			{
				"x": -2.67234936,
				"y": 3.8211068247,
				"z": 0.2811088424,
				"element": "H" 
			},
			{
				"x": -1.9784078076,
				"y": 2.1146337047,
				"z": 1.969100463,
				"element": "H" 
			}
		],
		 "valence_orbital": [ 
			{
				"type": "occ",
				"energy": -0.29459,
				"method": "rhf"
			},
			{
				"type": "occ",
				"energy": -0.27927,
				"method": "rhf"
			},
			{
				"type": "occ",
				"energy": -0.26391,
				"method": "rhf"
			},
			{
				"type": "occ",
				"energy": -0.25048,
				"method": "rhf"
			},
			{
				"type": "occ",
				"energy": -0.22889,
				"method": "rhf"
			},
			{
				"type": "unocc",
				"energy": -0.04578,
				"method": "rhf"
			},
			{
				"type": "unocc",
				"energy": -0.02921,
				"method": "rhf"
			},
			{
				"type": "unocc",
				"energy": -0.00833,
				"method": "rhf"
			},
			{
				"type": "unocc",
				"energy": 0.01575,
				"method": "rhf"
			},
			{
				"type": "unocc",
				"energy": 0.0278,
				"method": "rhf"
			}
		],
		"cosmo_sigma_profile": { 
			"-0.025": 0.0,
			"-0.024": 0.0,
			"-0.023": 0.0,
			"-0.022": 0.0,
			"-0.021": 0.0,
			"-0.02": 0.0,
			"-0.019": 0.0,
			"-0.018": 0.0,
			"-0.017": 0.0,
			"-0.016": 0.0,
			"-0.015": 0.343940175279,
			"-0.014": 0.600963309984,
			"-0.013": 0.611317938814,
			"-0.012": 0.620956520572,
			"-0.011": 1.40859716789,
			"-0.01": 1.02057136851,
			"-0.009": 0.773634219019,
			"-0.008": 2.74503936179,
			"-0.007": 7.90860353779,
			"-0.006": 18.1693982857,
			"-0.005": 18.7446355521,
			"-0.004": 19.9814294516,
			"-0.003": 15.5507374105,
			"-0.002": 14.3843932647,
			"-0.001": 13.0027784179,
			"0.0": 13.3297926434,
			"0.001": 13.8007392913,
			"0.002": 17.8915915702,
			"0.003": 18.2114210084,
			"0.004": 19.3223901719,
			"0.005": 14.0951451909,
			"0.006": 3.1329535353,
			"0.007": 2.34253852413,
			"0.008": 2.68955710008,
			"0.009": 3.96621031994,
			"0.01": 4.85158725467,
			"0.011": 3.89192164304,
			"0.012": 4.705301337,
			"0.013": 1.12647824458,
			"0.014": 0.0,
			"0.015": 0.0,
			"0.016": 0.0,
			"0.017": 0.0,
			"0.018": 0.0,
			"0.019": 0.0,
			"0.02": 0.0,
			"0.021": 0.0,
			"0.022": 0.0,
			"0.023": 0.0,
			"0.024": 0.0,
			"0.025": 0.0
		}
	}
}
