{
	 "smiles": "COC1=CC=C(C=CC(O)=O)C=C1", 
	 "Tm": 447.15, 
	 "num_atms": 23, 
	 "gaussian": { 
		 "optdone": 1, 
		 "sigma_profile": "yes", 
		 "theory": "DFT", 
		 "functional": "B3LYP", 
		 "basiset": "6-31G**", 
		 "properties": { 
			 "R2extent": 4800.4064, 
			 "electric_dipole_moment_norm": 6.9764353541, 
			 "electric_quadrupole_moment_norm": 17.8940343646, 
			 "total_energy": -612.745948433, 
			 "HOMO_LUMO_gap": 0.15812, 
			 "cosmo_polarized_energy": -18.14, 
			 "cosmo_cavitation_energy": 28.12, 
			 "cosmo_dispersion_energy": -20.55, 
			 "cosmo_repulsion_energy": 1.62, 
			 "cosmo_total_nonelectrostatic_energy": 9.18, 
			 "SMD_solvation_energy": 6.94 
		},
		"coords": [
			{
				"x": 4.4976603754,
				"y": 1.1850657437,
				"z": 1.5243648457,
				"element": "C" 
			},
			{
				"x": 4.4360557841,
				"y": 0.7701742857,
				"z": 0.1664955442,
				"element": "O" 
			},
			{
				"x": 3.2178519978,
				"y": 0.5375045835,
				"z": -0.3885475617,
				"element": "C" 
			},
			{
				"x": 3.2254269615,
				"y": 0.1283858223,
				"z": -1.731315985,
				"element": "C" 
			},
			{
				"x": 2.0307121209,
				"y": -0.1322406924,
				"z": -2.3822325111,
				"element": "C" 
			},
			{
				"x": 0.787450788,
				"y": 0.0025230031,
				"z": -1.7285507904,
				"element": "C" 
			},
			{
				"x": -0.4325323737,
				"y": -0.2874731816,
				"z": -2.4711338042,
				"element": "C" 
			},
			{
				"x": -1.7101834083,
				"y": -0.2241788998,
				"z": -2.0467527159,
				"element": "C" 
			},
			{
				"x": -2.8103697786,
				"y": -0.5658766397,
				"z": -2.9792110203,
				"element": "C" 
			},
			{
				"x": -4.0718587758,
				"y": -0.472399976,
				"z": -2.4652910748,
				"element": "O" 
			},
			{
				"x": -2.6603622103,
				"y": -0.9112574119,
				"z": -4.1305337329,
				"element": "O" 
			},
			{
				"x": 0.8035885501,
				"y": 0.4134494202,
				"z": -0.3839459455,
				"element": "C" 
			},
			{
				"x": 1.9939283886,
				"y": 0.6793679833,
				"z": 0.2850762542,
				"element": "C" 
			},
			{
				"x": 5.5571871143,
				"y": 1.3081402388,
				"z": 1.7519971104,
				"element": "H" 
			},
			{
				"x": 3.9816733671,
				"y": 2.1410534441,
				"z": 1.6777767119,
				"element": "H" 
			},
			{
				"x": 4.0688328416,
				"y": 0.4311434291,
				"z": 2.1962107968,
				"element": "H" 
			},
			{
				"x": 4.1799209765,
				"y": 0.0239459079,
				"z": -2.2361232878,
				"element": "H" 
			},
			{
				"x": 2.0485111384,
				"y": -0.4484570481,
				"z": -3.4217357422,
				"element": "H" 
			},
			{
				"x": -0.3002539851,
				"y": -0.5969604876,
				"z": -3.5072393723,
				"element": "H" 
			},
			{
				"x": -1.9596654907,
				"y": 0.0731480176,
				"z": -1.0299838031,
				"element": "H" 
			},
			{
				"x": -4.0357739815,
				"y": -0.1864702428,
				"z": -1.5422665553,
				"element": "H" 
			},
			{
				"x": -0.1304494379,
				"y": 0.5300398052,
				"z": 0.1574184563,
				"element": "H" 
			},
			{
				"x": 1.9625490378,
				"y": 0.9938728955,
				"z": 1.321324183,
				"element": "H" 
			}
		],
		 "valence_orbital": [ 
			{
				"type": "occ",
				"energy": -0.30695,
				"method": "rhf"
			},
			{
				"type": "occ",
				"energy": -0.28538,
				"method": "rhf"
			},
			{
				"type": "occ",
				"energy": -0.26727,
				"method": "rhf"
			},
			{
				"type": "occ",
				"energy": -0.26204,
				"method": "rhf"
			},
			{
				"type": "occ",
				"energy": -0.22099,
				"method": "rhf"
			},
			{
				"type": "unocc",
				"energy": -0.06287,
				"method": "rhf"
			},
			{
				"type": "unocc",
				"energy": -0.01485,
				"method": "rhf"
			},
			{
				"type": "unocc",
				"energy": 0.02764,
				"method": "rhf"
			},
			{
				"type": "unocc",
				"energy": 0.0628,
				"method": "rhf"
			},
			{
				"type": "unocc",
				"energy": 0.08028,
				"method": "rhf"
			}
		],
		"cosmo_sigma_profile": { 
			"-0.025": 0.0,
			"-0.024": 0.0,
			"-0.023": 0.0,
			"-0.022": 0.0,
			"-0.021": 0.0,
			"-0.02": 0.0,
			"-0.019": 0.607879160163,
			"-0.018": 0.844724115413,
			"-0.017": 1.26082677518,
			"-0.016": 1.15209892451,
			"-0.015": 0.837063296463,
			"-0.014": 0.449991384207,
			"-0.013": 0.905503729953,
			"-0.012": 1.40814111754,
			"-0.011": 1.91296173467,
			"-0.01": 0.951174749118,
			"-0.009": 1.34233807761,
			"-0.008": 2.86283535299,
			"-0.007": 7.09005885401,
			"-0.006": 17.513954008,
			"-0.005": 16.7810251481,
			"-0.004": 16.7093205886,
			"-0.003": 14.5718727726,
			"-0.002": 10.6308575368,
			"-0.001": 9.48792412342,
			"0.0": 11.066233729,
			"0.001": 12.453756757,
			"0.002": 15.2449330286,
			"0.003": 19.2611786301,
			"0.004": 17.0965908322,
			"0.005": 6.34993125494,
			"0.006": 3.09379042371,
			"0.007": 3.96797912062,
			"0.008": 3.55554167206,
			"0.009": 3.98517679543,
			"0.01": 4.56328485706,
			"0.011": 5.2065315481,
			"0.012": 5.35053155661,
			"0.013": 4.48947792692,
			"0.014": 1.2462968997,
			"0.015": 0.00693492455558,
			"0.016": 0.0,
			"0.017": 0.0,
			"0.018": 0.0,
			"0.019": 0.0,
			"0.02": 0.0,
			"0.021": 0.0,
			"0.022": 0.0,
			"0.023": 0.0,
			"0.024": 0.0,
			"0.025": 0.0
		}
	}
}
