{
	 "smiles": "CCOC(=O)C(C#N)=C1SCCS1", 
	 "Tm": 379.15, 
	 "num_atms": 22, 
	 "gaussian": { 
		 "optdone": 1, 
		 "sigma_profile": "yes", 
		 "theory": "DFT", 
		 "functional": "B3LYP", 
		 "basiset": "6-31G**", 
		 "properties": { 
			 "R2extent": 3533.6225, 
			 "electric_dipole_moment_norm": 8.48812652827, 
			 "electric_quadrupole_moment_norm": 22.8247959303, 
			 "total_energy": -1311.82975201, 
			 "HOMO_LUMO_gap": 0.16928, 
			 "cosmo_polarized_energy": -18.97, 
			 "cosmo_cavitation_energy": 29.94, 
			 "cosmo_dispersion_energy": -21.94, 
			 "cosmo_repulsion_energy": 1.68, 
			 "cosmo_total_nonelectrostatic_energy": 9.68, 
			 "SMD_solvation_energy": 6.81 
		},
		"coords": [
			{
				"x": -1.2611554364,
				"y": 1.6971837268,
				"z": 3.2543666503,
				"element": "C" 
			},
			{
				"x": -1.1758274575,
				"y": 2.0305106765,
				"z": 1.7777466305,
				"element": "C" 
			},
			{
				"x": -0.602272815,
				"y": 0.8853575285,
				"z": 1.1000335188,
				"element": "O" 
			},
			{
				"x": -0.4475738458,
				"y": 1.0138268644,
				"z": -0.2363330215,
				"element": "C" 
			},
			{
				"x": -0.7743416273,
				"y": 2.0017622427,
				"z": -0.8614910457,
				"element": "O" 
			},
			{
				"x": 0.1476256496,
				"y": -0.1932312026,
				"z": -0.8606385012,
				"element": "C" 
			},
			{
				"x": 0.2173838608,
				"y": -0.1506727157,
				"z": -2.2876243457,
				"element": "C" 
			},
			{
				"x": 0.2982507757,
				"y": -0.1551578709,
				"z": -3.4491244459,
				"element": "N" 
			},
			{
				"x": 0.6281700985,
				"y": -1.3068809946,
				"z": -0.2113418819,
				"element": "C" 
			},
			{
				"x": 1.3460380764,
				"y": -2.6285370022,
				"z": -1.1450235183,
				"element": "S" 
			},
			{
				"x": 1.3742034145,
				"y": -3.8319434177,
				"z": 0.2379084246,
				"element": "C" 
			},
			{
				"x": 1.6717649522,
				"y": -3.056931963,
				"z": 1.5110085128,
				"element": "C" 
			},
			{
				"x": 0.6084758813,
				"y": -1.5577422356,
				"z": 1.5352654077,
				"element": "S" 
			},
			{
				"x": -1.6957766473,
				"y": 2.5426089915,
				"z": 3.7967052805,
				"element": "H" 
			},
			{
				"x": -0.2695471142,
				"y": 1.4957178433,
				"z": 3.6693712318,
				"element": "H" 
			},
			{
				"x": -1.8924412902,
				"y": 0.8200514249,
				"z": 3.4227666323,
				"element": "H" 
			},
			{
				"x": -0.5423909542,
				"y": 2.9016945851,
				"z": 1.5857975561,
				"element": "H" 
			},
			{
				"x": -2.1585408935,
				"y": 2.2343946117,
				"z": 1.3421538079,
				"element": "H" 
			},
			{
				"x": 2.1544557304,
				"y": -4.5648899081,
				"z": 0.0161760093,
				"element": "H" 
			},
			{
				"x": 0.4081119242,
				"y": -4.3406817398,
				"z": 0.2911915301,
				"element": "H" 
			},
			{
				"x": 2.7202828488,
				"y": -2.750667391,
				"z": 1.5559981256,
				"element": "H" 
			},
			{
				"x": 1.4297048691,
				"y": -3.6373720543,
				"z": 2.405687442,
				"element": "H" 
			}
		],
		 "valence_orbital": [ 
			{
				"type": "occ",
				"energy": -0.31795,
				"method": "rhf"
			},
			{
				"type": "occ",
				"energy": -0.30552,
				"method": "rhf"
			},
			{
				"type": "occ",
				"energy": -0.27901,
				"method": "rhf"
			},
			{
				"type": "occ",
				"energy": -0.26903,
				"method": "rhf"
			},
			{
				"type": "occ",
				"energy": -0.23779,
				"method": "rhf"
			},
			{
				"type": "unocc",
				"energy": -0.06851,
				"method": "rhf"
			},
			{
				"type": "unocc",
				"energy": -0.02567,
				"method": "rhf"
			},
			{
				"type": "unocc",
				"energy": 0.02573,
				"method": "rhf"
			},
			{
				"type": "unocc",
				"energy": 0.02816,
				"method": "rhf"
			},
			{
				"type": "unocc",
				"energy": 0.03604,
				"method": "rhf"
			}
		],
		"cosmo_sigma_profile": { 
			"-0.025": 0.0,
			"-0.024": 0.0,
			"-0.023": 0.0,
			"-0.022": 0.0,
			"-0.021": 0.0,
			"-0.02": 0.0,
			"-0.019": 0.0,
			"-0.018": 0.0,
			"-0.017": 0.0,
			"-0.016": 0.0,
			"-0.015": 0.0,
			"-0.014": 0.0,
			"-0.013": 0.0,
			"-0.012": 0.0,
			"-0.011": 0.0,
			"-0.01": 0.0,
			"-0.009": 3.18977503175,
			"-0.008": 8.22326061673,
			"-0.007": 12.7000879211,
			"-0.006": 13.0034062894,
			"-0.005": 17.1697540497,
			"-0.004": 20.4244482651,
			"-0.003": 17.6049369618,
			"-0.002": 18.159762609,
			"-0.001": 20.811945106,
			"0.0": 16.5168303225,
			"0.001": 11.0139468985,
			"0.002": 12.3001643031,
			"0.003": 10.8487431281,
			"0.004": 10.933201065,
			"0.005": 8.79070310189,
			"0.006": 4.52755281936,
			"0.007": 5.27138917594,
			"0.008": 5.1757467387,
			"0.009": 5.83141266239,
			"0.01": 5.01845206458,
			"0.011": 6.90895894134,
			"0.012": 6.26206856571,
			"0.013": 1.75751185818,
			"0.014": 0.0482173670717,
			"0.015": 0.0,
			"0.016": 0.0,
			"0.017": 0.0,
			"0.018": 0.0,
			"0.019": 0.0,
			"0.02": 0.0,
			"0.021": 0.0,
			"0.022": 0.0,
			"0.023": 0.0,
			"0.024": 0.0,
			"0.025": 0.0
		}
	}
}
