{
	 "smiles": "CN1C(S)=NN=C1C1=C(Cl)C=CC=C1", 
	 "Tm": 418.15, 
	 "num_atms": 22, 
	 "gaussian": { 
		 "optdone": 1, 
		 "sigma_profile": "yes", 
		 "theory": "DFT", 
		 "functional": "B3LYP", 
		 "basiset": "6-31G**", 
		 "properties": { 
			 "R2extent": 3663.8896, 
			 "electric_dipole_moment_norm": 4.71433426265, 
			 "electric_quadrupole_moment_norm": 16.0606940448, 
			 "total_energy": -1370.38565722, 
			 "HOMO_LUMO_gap": 0.1891, 
			 "cosmo_polarized_energy": -15.47, 
			 "cosmo_cavitation_energy": 29.59, 
			 "cosmo_dispersion_energy": -21.84, 
			 "cosmo_repulsion_energy": 1.66, 
			 "cosmo_total_nonelectrostatic_energy": 9.41, 
			 "SMD_solvation_energy": 2.32 
		},
		"coords": [
			{
				"x": -1.3811756942,
				"y": -0.6848466898,
				"z": 1.5165662583,
				"element": "C" 
			},
			{
				"x": -1.2007805318,
				"y": 0.3616907368,
				"z": 0.5201004922,
				"element": "N" 
			},
			{
				"x": -2.1243335811,
				"y": 1.2959411644,
				"z": 0.133847581,
				"element": "C" 
			},
			{
				"x": -3.7878188329,
				"y": 1.2863663854,
				"z": 0.7305872589,
				"element": "S" 
			},
			{
				"x": -1.6065049364,
				"y": 2.1655322017,
				"z": -0.7040306004,
				"element": "N" 
			},
			{
				"x": -0.2889449118,
				"y": 1.8060868295,
				"z": -0.8859989759,
				"element": "N" 
			},
			{
				"x": -0.0571635767,
				"y": 0.7284821106,
				"z": -0.1671345315,
				"element": "C" 
			},
			{
				"x": 1.2611234167,
				"y": 0.0774881628,
				"z": -0.0599253852,
				"element": "C" 
			},
			{
				"x": 1.507030721,
				"y": -1.2740358253,
				"z": -0.3588436162,
				"element": "C" 
			},
			{
				"x": 0.2124234063,
				"y": -2.317921102,
				"z": -0.9371648466,
				"element": "Cl" 
			},
			{
				"x": 2.786190109,
				"y": -1.8211535095,
				"z": -0.2584091692,
				"element": "C" 
			},
			{
				"x": 3.8537870581,
				"y": -1.0116964195,
				"z": 0.1265492965,
				"element": "C" 
			},
			{
				"x": 3.6428162658,
				"y": 0.3407104795,
				"z": 0.4001709008,
				"element": "C" 
			},
			{
				"x": 2.3604352082,
				"y": 0.8733865773,
				"z": 0.3077013725,
				"element": "C" 
			},
			{
				"x": -0.4020290167,
				"y": -1.0406731113,
				"z": 1.8366169635,
				"element": "H" 
			},
			{
				"x": -1.9096643031,
				"y": -0.2766429248,
				"z": 2.3822483027,
				"element": "H" 
			},
			{
				"x": -1.9453633055,
				"y": -1.525892849,
				"z": 1.1057668,
				"element": "H" 
			},
			{
				"x": -4.0814171839,
				"y": 2.450809726,
				"z": 0.1220485818,
				"element": "H" 
			},
			{
				"x": 2.9386126044,
				"y": -2.8673782543,
				"z": -0.4987505486,
				"element": "H" 
			},
			{
				"x": 4.8489701323,
				"y": -1.4395073109,
				"z": 0.2007189898,
				"element": "H" 
			},
			{
				"x": 4.4732260501,
				"y": 0.978047563,
				"z": 0.6870579338,
				"element": "H" 
			},
			{
				"x": 2.1803809022,
				"y": 1.9231060595,
				"z": 0.5130769418,
				"element": "H" 
			}
		],
		 "valence_orbital": [ 
			{
				"type": "occ",
				"energy": -0.29065,
				"method": "rhf"
			},
			{
				"type": "occ",
				"energy": -0.27482,
				"method": "rhf"
			},
			{
				"type": "occ",
				"energy": -0.26097,
				"method": "rhf"
			},
			{
				"type": "occ",
				"energy": -0.25363,
				"method": "rhf"
			},
			{
				"type": "occ",
				"energy": -0.22724,
				"method": "rhf"
			},
			{
				"type": "unocc",
				"energy": -0.03814,
				"method": "rhf"
			},
			{
				"type": "unocc",
				"energy": -0.02422,
				"method": "rhf"
			},
			{
				"type": "unocc",
				"energy": 0.00458,
				"method": "rhf"
			},
			{
				"type": "unocc",
				"energy": 0.01749,
				"method": "rhf"
			},
			{
				"type": "unocc",
				"energy": 0.02323,
				"method": "rhf"
			}
		],
		"cosmo_sigma_profile": { 
			"-0.025": 0.0,
			"-0.024": 0.0,
			"-0.023": 0.0,
			"-0.022": 0.0,
			"-0.021": 0.0,
			"-0.02": 0.0,
			"-0.019": 0.0,
			"-0.018": 0.0,
			"-0.017": 0.0,
			"-0.016": 0.0,
			"-0.015": 0.0,
			"-0.014": 0.0,
			"-0.013": 0.164024630246,
			"-0.012": 1.4879050504,
			"-0.011": 1.41823353181,
			"-0.01": 0.88445571615,
			"-0.009": 1.50853496175,
			"-0.008": 2.21403093378,
			"-0.007": 11.7310747946,
			"-0.006": 17.3933995306,
			"-0.005": 19.0045456122,
			"-0.004": 18.6897245191,
			"-0.003": 15.0704983116,
			"-0.002": 13.1368884227,
			"-0.001": 13.6537751546,
			"0.0": 17.3601234187,
			"0.001": 19.6151807691,
			"0.002": 21.7363495911,
			"0.003": 20.2187497225,
			"0.004": 12.5330437473,
			"0.005": 5.19809385592,
			"0.006": 4.64543696411,
			"0.007": 2.77683062718,
			"0.008": 1.78980508955,
			"0.009": 1.86203969694,
			"0.01": 1.89887317098,
			"0.011": 2.61282990964,
			"0.012": 2.33700779577,
			"0.013": 3.34616121934,
			"0.014": 3.19533657839,
			"0.015": 2.41407050407,
			"0.016": 1.78046255187,
			"0.017": 0.410336455005,
			"0.018": 0.0,
			"0.019": 0.0,
			"0.02": 0.0,
			"0.021": 0.0,
			"0.022": 0.0,
			"0.023": 0.0,
			"0.024": 0.0,
			"0.025": 0.0
		}
	}
}
