{
	 "smiles": "OC(=O)CS(=O)(=O)CC1=CC=C(Br)C=C1", 
	 "Tm": 430.15, 
	 "num_atms": 24, 
	 "gaussian": { 
		 "optdone": 1, 
		 "sigma_profile": "yes", 
		 "theory": "DFT", 
		 "functional": "B3LYP", 
		 "basiset": "6-31G**", 
		 "properties": { 
			 "R2extent": 8657.9722, 
			 "electric_dipole_moment_norm": 4.49340071994, 
			 "electric_quadrupole_moment_norm": 13.2951129555, 
			 "total_energy": -3618.81875548, 
			 "HOMO_LUMO_gap": 0.2027, 
			 "cosmo_polarized_energy": -20.78, 
			 "cosmo_cavitation_energy": 32.9, 
			 "cosmo_dispersion_energy": -23.89, 
			 "cosmo_repulsion_energy": 1.84, 
			 "cosmo_total_nonelectrostatic_energy": 10.85, 
			 "SMD_solvation_energy": 4.79 
		},
		"coords": [
			{
				"x": 1.8633621669,
				"y": -3.6070901722,
				"z": 0.904031501,
				"element": "O" 
			},
			{
				"x": 1.7032646971,
				"y": -2.4290251272,
				"z": 0.2788370874,
				"element": "C" 
			},
			{
				"x": 2.345018521,
				"y": -1.4342099934,
				"z": 0.5427319529,
				"element": "O" 
			},
			{
				"x": 0.6345500878,
				"y": -2.4991777693,
				"z": -0.7881183572,
				"element": "C" 
			},
			{
				"x": -0.7669518142,
				"y": -1.3583786548,
				"z": -0.4385594534,
				"element": "S" 
			},
			{
				"x": -1.7645200697,
				"y": -1.6177626777,
				"z": -1.4865992497,
				"element": "O" 
			},
			{
				"x": -1.1048581439,
				"y": -1.502495626,
				"z": 0.9835545898,
				"element": "O" 
			},
			{
				"x": -0.0416380375,
				"y": 0.308935556,
				"z": -0.7173992919,
				"element": "C" 
			},
			{
				"x": -1.0237592785,
				"y": 1.3819180341,
				"z": -0.343299361,
				"element": "C" 
			},
			{
				"x": -1.9847478813,
				"y": 1.8211574125,
				"z": -1.2635617024,
				"element": "C" 
			},
			{
				"x": -2.9046566844,
				"y": 2.8092980001,
				"z": -0.917870282,
				"element": "C" 
			},
			{
				"x": -2.8635733807,
				"y": 3.3552651853,
				"z": 0.3642534777,
				"element": "C" 
			},
			{
				"x": -4.1131707641,
				"y": 4.7179935004,
				"z": 0.8438035579,
				"element": "Br" 
			},
			{
				"x": -1.9255456952,
				"y": 2.9259306382,
				"z": 1.3018060446,
				"element": "C" 
			},
			{
				"x": -1.0119521522,
				"y": 1.9365805407,
				"z": 0.9427766706,
				"element": "C" 
			},
			{
				"x": 2.5465350688,
				"y": -3.4749119818,
				"z": 1.5841624042,
				"element": "H" 
			},
			{
				"x": 1.0489332647,
				"y": -2.2171665795,
				"z": -1.7589787783,
				"element": "H" 
			},
			{
				"x": 0.1761694935,
				"y": -3.4868521034,
				"z": -0.8540122489,
				"element": "H" 
			},
			{
				"x": 0.2175978851,
				"y": 0.3333680621,
				"z": -1.7793014949,
				"element": "H" 
			},
			{
				"x": 0.8716795795,
				"y": 0.3324275995,
				"z": -0.1189928029,
				"element": "H" 
			},
			{
				"x": -2.0193335718,
				"y": 1.3844523179,
				"z": -2.2571650165,
				"element": "H" 
			},
			{
				"x": -3.6437864168,
				"y": 3.1500321096,
				"z": -1.6335579881,
				"element": "H" 
			},
			{
				"x": -1.9099987549,
				"y": 3.3568732539,
				"z": 2.2961129357,
				"element": "H" 
			},
			{
				"x": -0.2844181192,
				"y": 1.5923384748,
				"z": 1.6716458053,
				"element": "H" 
			}
		],
		 "valence_orbital": [ 
			{
				"type": "occ",
				"energy": -0.3016,
				"method": "rhf"
			},
			{
				"type": "occ",
				"energy": -0.29609,
				"method": "rhf"
			},
			{
				"type": "occ",
				"energy": -0.28938,
				"method": "rhf"
			},
			{
				"type": "occ",
				"energy": -0.26861,
				"method": "rhf"
			},
			{
				"type": "occ",
				"energy": -0.24489,
				"method": "rhf"
			},
			{
				"type": "unocc",
				"energy": -0.04219,
				"method": "rhf"
			},
			{
				"type": "unocc",
				"energy": -0.02328,
				"method": "rhf"
			},
			{
				"type": "unocc",
				"energy": -0.02011,
				"method": "rhf"
			},
			{
				"type": "unocc",
				"energy": 0.00428,
				"method": "rhf"
			},
			{
				"type": "unocc",
				"energy": 0.05099,
				"method": "rhf"
			}
		],
		"cosmo_sigma_profile": { 
			"-0.025": 0.0,
			"-0.024": 0.0,
			"-0.023": 0.0,
			"-0.022": 0.0,
			"-0.021": 0.0,
			"-0.02": 0.0,
			"-0.019": 0.931255072226,
			"-0.018": 0.870301258373,
			"-0.017": 0.910243906615,
			"-0.016": 1.06007253563,
			"-0.015": 0.676030169859,
			"-0.014": 0.375117386607,
			"-0.013": 1.29603296317,
			"-0.012": 2.42621708711,
			"-0.011": 3.62507704221,
			"-0.01": 4.36707957972,
			"-0.009": 6.04776037291,
			"-0.008": 7.66734856852,
			"-0.007": 14.6210190302,
			"-0.006": 13.8611125481,
			"-0.005": 12.4769396576,
			"-0.004": 11.8645804991,
			"-0.003": 11.4184622207,
			"-0.002": 10.9044255868,
			"-0.001": 10.9731632737,
			"0.0": 12.7276051199,
			"0.001": 17.9363100673,
			"0.002": 20.6678486445,
			"0.003": 22.7476027123,
			"0.004": 17.1238220157,
			"0.005": 8.91198297971,
			"0.006": 6.67722939948,
			"0.007": 6.61256458422,
			"0.008": 5.44837655393,
			"0.009": 5.73619551642,
			"0.01": 10.6527303438,
			"0.011": 11.1265951148,
			"0.012": 2.85497456563,
			"0.013": 0.0,
			"0.014": 0.0,
			"0.015": 0.0,
			"0.016": 0.0,
			"0.017": 0.0,
			"0.018": 0.0,
			"0.019": 0.0,
			"0.02": 0.0,
			"0.021": 0.0,
			"0.022": 0.0,
			"0.023": 0.0,
			"0.024": 0.0,
			"0.025": 0.0
		}
	}
}
