{
	 "smiles": "CN1N=CC=C1C1=CC=CC(=C1)C(O)=O", 
	 "Tm": 412.15, 
	 "num_atms": 25, 
	 "gaussian": { 
		 "optdone": 1, 
		 "sigma_profile": "yes", 
		 "theory": "DFT", 
		 "functional": "B3LYP", 
		 "basiset": "6-31G**", 
		 "properties": { 
			 "R2extent": 4439.9823, 
			 "electric_dipole_moment_norm": 5.14166119168, 
			 "electric_quadrupole_moment_norm": 28.8228193437, 
			 "total_energy": -685.137027556, 
			 "HOMO_LUMO_gap": 0.17466, 
			 "cosmo_polarized_energy": -18.66, 
			 "cosmo_cavitation_energy": 29.64, 
			 "cosmo_dispersion_energy": -21.45, 
			 "cosmo_repulsion_energy": 1.66, 
			 "cosmo_total_nonelectrostatic_energy": 9.85, 
			 "SMD_solvation_energy": 5.37 
		},
		"coords": [
			{
				"x": -0.4690609752,
				"y": 0.4416581323,
				"z": 2.5741605527,
				"element": "C" 
			},
			{
				"x": 0.5059621525,
				"y": 0.4776090908,
				"z": 1.4969460828,
				"element": "N" 
			},
			{
				"x": 1.7481526894,
				"y": 0.9287023039,
				"z": 1.7783569206,
				"element": "N" 
			},
			{
				"x": 2.4322990753,
				"y": 0.790598109,
				"z": 0.6426511739,
				"element": "C" 
			},
			{
				"x": 1.6399359656,
				"y": 0.2381399464,
				"z": -0.3788248162,
				"element": "C" 
			},
			{
				"x": 0.3890774722,
				"y": 0.0466664138,
				"z": 0.1985687195,
				"element": "C" 
			},
			{
				"x": -0.8362805036,
				"y": -0.4957117419,
				"z": -0.4073126262,
				"element": "C" 
			},
			{
				"x": -2.1070068287,
				"y": 0.0616704483,
				"z": -0.1710598867,
				"element": "C" 
			},
			{
				"x": -3.2433592165,
				"y": -0.4698812262,
				"z": -0.7782462464,
				"element": "C" 
			},
			{
				"x": -3.1334717129,
				"y": -1.5475973413,
				"z": -1.6557216504,
				"element": "C" 
			},
			{
				"x": -1.8730072152,
				"y": -2.1003596109,
				"z": -1.9246422321,
				"element": "C" 
			},
			{
				"x": -0.7413044077,
				"y": -1.5852647494,
				"z": -1.2855244177,
				"element": "C" 
			},
			{
				"x": -1.6739260585,
				"y": -3.2688535614,
				"z": -2.8462797185,
				"element": "C" 
			},
			{
				"x": -2.6501495887,
				"y": -3.4923272065,
				"z": -3.7666550141,
				"element": "O" 
			},
			{
				"x": -0.7080165384,
				"y": -3.9928483878,
				"z": -2.8015852257,
				"element": "O" 
			},
			{
				"x": 0.0800985832,
				"y": 0.3291950532,
				"z": 3.5088706073,
				"element": "H" 
			},
			{
				"x": -1.1437657411,
				"y": -0.4054737004,
				"z": 2.4402984775,
				"element": "H" 
			},
			{
				"x": -1.0549080828,
				"y": 1.3663343763,
				"z": 2.6184960121,
				"element": "H" 
			},
			{
				"x": 3.4706680216,
				"y": 1.0914753629,
				"z": 0.6043484608,
				"element": "H" 
			},
			{
				"x": 1.9144305446,
				"y": 0.0274547726,
				"z": -1.4016723424,
				"element": "H" 
			},
			{
				"x": -2.205098155,
				"y": 0.9273896324,
				"z": 0.475410085,
				"element": "H" 
			},
			{
				"x": -4.2175238773,
				"y": -0.0375506382,
				"z": -0.5709510289,
				"element": "H" 
			},
			{
				"x": -4.0352200759,
				"y": -1.9709819264,
				"z": -2.0910607157,
				"element": "H" 
			},
			{
				"x": 0.2168710142,
				"y": -2.0563237409,
				"z": -1.4748548063,
				"element": "H" 
			},
			{
				"x": -3.2635965408,
				"y": -2.7450198108,
				"z": -3.7912163648,
				"element": "H" 
			}
		],
		 "valence_orbital": [ 
			{
				"type": "occ",
				"energy": -0.28553,
				"method": "rhf"
			},
			{
				"type": "occ",
				"energy": -0.28131,
				"method": "rhf"
			},
			{
				"type": "occ",
				"energy": -0.27089,
				"method": "rhf"
			},
			{
				"type": "occ",
				"energy": -0.25031,
				"method": "rhf"
			},
			{
				"type": "occ",
				"energy": -0.23367,
				"method": "rhf"
			},
			{
				"type": "unocc",
				"energy": -0.05901,
				"method": "rhf"
			},
			{
				"type": "unocc",
				"energy": -0.03981,
				"method": "rhf"
			},
			{
				"type": "unocc",
				"energy": 0.02001,
				"method": "rhf"
			},
			{
				"type": "unocc",
				"energy": 0.04489,
				"method": "rhf"
			},
			{
				"type": "unocc",
				"energy": 0.05564,
				"method": "rhf"
			}
		],
		"cosmo_sigma_profile": { 
			"-0.025": 0.0,
			"-0.024": 0.0,
			"-0.023": 0.0,
			"-0.022": 0.0,
			"-0.021": 0.0,
			"-0.02": 0.0,
			"-0.019": 0.326527449124,
			"-0.018": 0.703374741056,
			"-0.017": 1.23159348773,
			"-0.016": 0.732106030198,
			"-0.015": 1.03587528832,
			"-0.014": 0.653381326921,
			"-0.013": 1.08622632316,
			"-0.012": 1.48478982602,
			"-0.011": 1.29485325656,
			"-0.01": 1.35488185259,
			"-0.009": 0.930792948683,
			"-0.008": 2.35982896135,
			"-0.007": 10.2761885255,
			"-0.006": 16.2904291528,
			"-0.005": 18.0737449855,
			"-0.004": 17.596084672,
			"-0.003": 17.6600474641,
			"-0.002": 13.0581231455,
			"-0.001": 12.8021246936,
			"0.0": 13.4748777234,
			"0.001": 13.98014603,
			"0.002": 17.6324354709,
			"0.003": 13.6584372808,
			"0.004": 8.46504705671,
			"0.005": 8.92915455216,
			"0.006": 5.13748771612,
			"0.007": 4.96150424223,
			"0.008": 4.56419605157,
			"0.009": 3.87699227039,
			"0.01": 7.17010701865,
			"0.011": 6.51909996083,
			"0.012": 5.49605498788,
			"0.013": 2.48089916981,
			"0.014": 0.617628138228,
			"0.015": 1.2029684729,
			"0.016": 0.450883257691,
			"0.017": 0.0,
			"0.018": 0.0,
			"0.019": 0.0,
			"0.02": 0.0,
			"0.021": 0.0,
			"0.022": 0.0,
			"0.023": 0.0,
			"0.024": 0.0,
			"0.025": 0.0
		}
	}
}
