{
	 "smiles": "CC(C)[Si](Cl)(Cl)Cl", 
	 "Tm": 185.45, 
	 "num_atms": 14, 
	 "gaussian": { 
		 "optdone": 1, 
		 "sigma_profile": "yes", 
		 "theory": "DFT", 
		 "functional": "B3LYP", 
		 "basiset": "6-31G**", 
		 "properties": { 
			 "R2extent": 2261.5943, 
			 "electric_dipole_moment_norm": 2.79133128274, 
			 "electric_quadrupole_moment_norm": 3.81587844277, 
			 "total_energy": -1788.78263952, 
			 "HOMO_LUMO_gap": 0.30203, 
			 "cosmo_polarized_energy": -3.15, 
			 "cosmo_cavitation_energy": 23.6, 
			 "cosmo_dispersion_energy": -15.25, 
			 "cosmo_repulsion_energy": 1.38, 
			 "cosmo_total_nonelectrostatic_energy": 9.73, 
			 "SMD_solvation_energy": 3.06 
		},
		"coords": [
			{
				"x": -0.9597031259,
				"y": -0.6965350468,
				"z": 1.8813359442,
				"element": "C" 
			},
			{
				"x": -0.0058205785,
				"y": -0.9173175104,
				"z": 0.6905325378,
				"element": "C" 
			},
			{
				"x": -0.7482543676,
				"y": -0.8310087273,
				"z": -0.6578122703,
				"element": "C" 
			},
			{
				"x": 1.4736949399,
				"y": 0.2445360953,
				"z": 0.7523208401,
				"element": "Si" 
			},
			{
				"x": 2.5083840937,
				"y": 0.0184105455,
				"z": 2.5308144691,
				"element": "Cl" 
			},
			{
				"x": 2.7862941667,
				"y": -0.1580740868,
				"z": -0.7967728425,
				"element": "Cl" 
			},
			{
				"x": 0.8811946414,
				"y": 2.2222537487,
				"z": 0.5979509368,
				"element": "Cl" 
			},
			{
				"x": -0.4527734816,
				"y": -0.8072076819,
				"z": 2.8439899877,
				"element": "H" 
			},
			{
				"x": -1.4127342476,
				"y": 0.2996959621,
				"z": 1.8477299143,
				"element": "H" 
			},
			{
				"x": -1.7724278905,
				"y": -1.4303273518,
				"z": 1.844395606,
				"element": "H" 
			},
			{
				"x": 0.4398743694,
				"y": -1.9189893968,
				"z": 0.7806721344,
				"element": "H" 
			},
			{
				"x": -1.5621749978,
				"y": -1.5641136004,
				"z": -0.678775441,
				"element": "H" 
			},
			{
				"x": -0.0904252733,
				"y": -1.0373940365,
				"z": -1.5066983872,
				"element": "H" 
			},
			{
				"x": -1.1921282482,
				"y": 0.1591710872,
				"z": -0.8039834295,
				"element": "H" 
			}
		],
		 "valence_orbital": [ 
			{
				"type": "occ",
				"energy": -0.35478,
				"method": "rhf"
			},
			{
				"type": "occ",
				"energy": -0.33502,
				"method": "rhf"
			},
			{
				"type": "occ",
				"energy": -0.33402,
				"method": "rhf"
			},
			{
				"type": "occ",
				"energy": -0.3232,
				"method": "rhf"
			},
			{
				"type": "occ",
				"energy": -0.31265,
				"method": "rhf"
			},
			{
				"type": "unocc",
				"energy": -0.01062,
				"method": "rhf"
			},
			{
				"type": "unocc",
				"energy": 0.02377,
				"method": "rhf"
			},
			{
				"type": "unocc",
				"energy": 0.024,
				"method": "rhf"
			},
			{
				"type": "unocc",
				"energy": 0.06878,
				"method": "rhf"
			},
			{
				"type": "unocc",
				"energy": 0.08805,
				"method": "rhf"
			}
		],
		"cosmo_sigma_profile": { 
			"-0.025": 0.0,
			"-0.024": 0.0,
			"-0.023": 0.0,
			"-0.022": 0.0,
			"-0.021": 0.0,
			"-0.02": 0.0,
			"-0.019": 0.0,
			"-0.018": 0.0,
			"-0.017": 0.0,
			"-0.016": 0.0,
			"-0.015": 0.0,
			"-0.014": 0.0,
			"-0.013": 0.0,
			"-0.012": 0.0,
			"-0.011": 0.0,
			"-0.01": 0.0,
			"-0.009": 0.0,
			"-0.008": 0.00495945561305,
			"-0.007": 1.34834782691,
			"-0.006": 2.63213602282,
			"-0.005": 2.26091456554,
			"-0.004": 9.7434227434,
			"-0.003": 19.3652330479,
			"-0.002": 24.3310654931,
			"-0.001": 20.586404266,
			"0.0": 25.44328732,
			"0.001": 19.9170341386,
			"0.002": 20.9459837535,
			"0.003": 29.6946415959,
			"0.004": 12.7574915987,
			"0.005": 0.0,
			"0.006": 0.0,
			"0.007": 0.0,
			"0.008": 0.0,
			"0.009": 0.0,
			"0.01": 0.0,
			"0.011": 0.0,
			"0.012": 0.0,
			"0.013": 0.0,
			"0.014": 0.0,
			"0.015": 0.0,
			"0.016": 0.0,
			"0.017": 0.0,
			"0.018": 0.0,
			"0.019": 0.0,
			"0.02": 0.0,
			"0.021": 0.0,
			"0.022": 0.0,
			"0.023": 0.0,
			"0.024": 0.0,
			"0.025": 0.0
		}
	}
}
