{
	 "smiles": "FC1=CC=C(C=C1)N(CCC#N)C(=O)CCl", 
	 "Tm": 359.15, 
	 "num_atms": 26, 
	 "gaussian": { 
		 "optdone": 1, 
		 "sigma_profile": "yes", 
		 "theory": "DFT", 
		 "functional": "B3LYP", 
		 "basiset": "6-31G**", 
		 "properties": { 
			 "R2extent": 4899.6332, 
			 "electric_dipole_moment_norm": 5.87008055396, 
			 "electric_quadrupole_moment_norm": 17.0115786246, 
			 "total_energy": -1169.93092408, 
			 "HOMO_LUMO_gap": 0.21953, 
			 "cosmo_polarized_energy": -21.32, 
			 "cosmo_cavitation_energy": 33.37, 
			 "cosmo_dispersion_energy": -21.97, 
			 "cosmo_repulsion_energy": 1.71, 
			 "cosmo_total_nonelectrostatic_energy": 13.1, 
			 "SMD_solvation_energy": 7.79 
		},
		"coords": [
			{
				"x": 0.7227584779,
				"y": 2.6457593781,
				"z": 2.811666427,
				"element": "F" 
			},
			{
				"x": 0.5063296871,
				"y": 1.6383501841,
				"z": 1.9436293401,
				"element": "C" 
			},
			{
				"x": 1.5992079465,
				"y": 1.0120950085,
				"z": 1.3548004877,
				"element": "C" 
			},
			{
				"x": 1.3681087054,
				"y": -0.0322450293,
				"z": 0.4595682603,
				"element": "C" 
			},
			{
				"x": 0.0614117558,
				"y": -0.4256934423,
				"z": 0.1561322012,
				"element": "C" 
			},
			{
				"x": -1.0221718045,
				"y": 0.2223341922,
				"z": 0.7583389374,
				"element": "C" 
			},
			{
				"x": -0.8024136851,
				"y": 1.259013497,
				"z": 1.6629015951,
				"element": "C" 
			},
			{
				"x": -0.1673239537,
				"y": -1.4843658744,
				"z": -0.7947197241,
				"element": "N" 
			},
			{
				"x": 0.1647751369,
				"y": -1.2119855827,
				"z": -2.1935862233,
				"element": "C" 
			},
			{
				"x": -0.507540381,
				"y": 0.0661236701,
				"z": -2.7418063405,
				"element": "C" 
			},
			{
				"x": -1.9705982362,
				"y": 0.0476930856,
				"z": -2.6737501622,
				"element": "C" 
			},
			{
				"x": -3.1292449386,
				"y": 0.0522598779,
				"z": -2.6107300927,
				"element": "N" 
			},
			{
				"x": -0.5719003113,
				"y": -2.7101438555,
				"z": -0.2962613781,
				"element": "C" 
			},
			{
				"x": -0.7694919345,
				"y": -2.8944523481,
				"z": 0.8936055778,
				"element": "O" 
			},
			{
				"x": -0.7223466846,
				"y": -3.8909814421,
				"z": -1.2618816598,
				"element": "C" 
			},
			{
				"x": -2.134869144,
				"y": -3.7387505001,
				"z": -2.389072831,
				"element": "Cl" 
			},
			{
				"x": 2.6033866619,
				"y": 1.3340882017,
				"z": 1.6072819794,
				"element": "H" 
			},
			{
				"x": 2.2078087144,
				"y": -0.5501770316,
				"z": 0.0057186554,
				"element": "H" 
			},
			{
				"x": -2.031877501,
				"y": -0.0902086711,
				"z": 0.5158809781,
				"element": "H" 
			},
			{
				"x": -1.6257419577,
				"y": 1.7737998259,
				"z": 2.1454367341,
				"element": "H" 
			},
			{
				"x": 1.2488744498,
				"y": -1.082463527,
				"z": -2.3113950349,
				"element": "H" 
			},
			{
				"x": -0.1392966104,
				"y": -2.0583682538,
				"z": -2.8061059576,
				"element": "H" 
			},
			{
				"x": -0.1520703566,
				"y": 0.9421233959,
				"z": -2.1893602195,
				"element": "H" 
			},
			{
				"x": -0.2025477793,
				"y": 0.1982794585,
				"z": -3.7861510377,
				"element": "H" 
			},
			{
				"x": 0.1660632872,
				"y": -4.0509134524,
				"z": -1.8764071128,
				"element": "H" 
			},
			{
				"x": -0.9044895441,
				"y": -4.7653707651,
				"z": -0.6418333995,
				"element": "H" 
			}
		],
		 "valence_orbital": [ 
			{
				"type": "occ",
				"energy": -0.31015,
				"method": "rhf"
			},
			{
				"type": "occ",
				"energy": -0.27825,
				"method": "rhf"
			},
			{
				"type": "occ",
				"energy": -0.27505,
				"method": "rhf"
			},
			{
				"type": "occ",
				"energy": -0.26441,
				"method": "rhf"
			},
			{
				"type": "occ",
				"energy": -0.2498,
				"method": "rhf"
			},
			{
				"type": "unocc",
				"energy": -0.03027,
				"method": "rhf"
			},
			{
				"type": "unocc",
				"energy": -0.02613,
				"method": "rhf"
			},
			{
				"type": "unocc",
				"energy": -0.01416,
				"method": "rhf"
			},
			{
				"type": "unocc",
				"energy": 0.02096,
				"method": "rhf"
			},
			{
				"type": "unocc",
				"energy": 0.03157,
				"method": "rhf"
			}
		],
		"cosmo_sigma_profile": { 
			"-0.025": 0.0,
			"-0.024": 0.0,
			"-0.023": 0.0,
			"-0.022": 0.0,
			"-0.021": 0.0,
			"-0.02": 0.0,
			"-0.019": 0.0,
			"-0.018": 0.0,
			"-0.017": 0.0,
			"-0.016": 0.0,
			"-0.015": 0.0,
			"-0.014": 0.0,
			"-0.013": 0.0,
			"-0.012": 0.0,
			"-0.011": 0.000453139432923,
			"-0.01": 1.97563091402,
			"-0.009": 7.11447770255,
			"-0.008": 12.8994191089,
			"-0.007": 21.697578497,
			"-0.006": 20.41614137,
			"-0.005": 18.097020972,
			"-0.004": 10.5695674855,
			"-0.003": 10.9718018948,
			"-0.002": 8.75483979295,
			"-0.001": 13.4250302821,
			"0.0": 16.9147860967,
			"0.001": 17.4412300942,
			"0.002": 16.9505850611,
			"0.003": 15.74460544,
			"0.004": 19.0363500244,
			"0.005": 13.9420092499,
			"0.006": 6.36021975823,
			"0.007": 5.32450171351,
			"0.008": 4.09597531817,
			"0.009": 5.16947359697,
			"0.01": 3.93265506307,
			"0.011": 5.49466507824,
			"0.012": 6.85917203308,
			"0.013": 5.57948936528,
			"0.014": 0.366268100024,
			"0.015": 0.0,
			"0.016": 0.0,
			"0.017": 0.0,
			"0.018": 0.0,
			"0.019": 0.0,
			"0.02": 0.0,
			"0.021": 0.0,
			"0.022": 0.0,
			"0.023": 0.0,
			"0.024": 0.0,
			"0.025": 0.0
		}
	}
}
