{
	 "smiles": "CC1=CC(N)=C(Cl)C=C1F", 
	 "Tm": 343.15, 
	 "num_atms": 17, 
	 "gaussian": { 
		 "optdone": 1, 
		 "sigma_profile": "yes", 
		 "theory": "DFT", 
		 "functional": "B3LYP", 
		 "basiset": "6-31G**", 
		 "properties": { 
			 "R2extent": 2143.9734, 
			 "electric_dipole_moment_norm": 2.67974487218, 
			 "electric_quadrupole_moment_norm": 4.4867251409, 
			 "total_energy": -885.752334738, 
			 "HOMO_LUMO_gap": 0.19336, 
			 "cosmo_polarized_energy": -7.21, 
			 "cosmo_cavitation_energy": 22.81, 
			 "cosmo_dispersion_energy": -17.04, 
			 "cosmo_repulsion_energy": 1.36, 
			 "cosmo_total_nonelectrostatic_energy": 7.13, 
			 "SMD_solvation_energy": 4.09 
		},
		"coords": [
			{
				"x": 1.4113378067,
				"y": 1.9479071067,
				"z": -1.2786121762,
				"element": "C" 
			},
			{
				"x": 0.9141073691,
				"y": 0.6187195171,
				"z": -0.7718649017,
				"element": "C" 
			},
			{
				"x": -0.2272156406,
				"y": 0.4971959813,
				"z": 0.0203984366,
				"element": "C" 
			},
			{
				"x": -0.6991276832,
				"y": -0.7407175399,
				"z": 0.497364541,
				"element": "C" 
			},
			{
				"x": -1.8761824501,
				"y": -0.8198091922,
				"z": 1.2342238767,
				"element": "N" 
			},
			{
				"x": 0.0386135218,
				"y": -1.8842413805,
				"z": 0.1439358039,
				"element": "C" 
			},
			{
				"x": -0.4860918309,
				"y": -3.4649177659,
				"z": 0.7208393769,
				"element": "Cl" 
			},
			{
				"x": 1.1830702895,
				"y": -1.8021284898,
				"z": -0.6467402374,
				"element": "C" 
			},
			{
				"x": 1.5980479809,
				"y": -0.5570736509,
				"z": -1.0895186217,
				"element": "C" 
			},
			{
				"x": 2.7122283285,
				"y": -0.473728328,
				"z": -1.8577734087,
				"element": "F" 
			},
			{
				"x": 0.7682148554,
				"y": 2.7631740428,
				"z": -0.9385805009,
				"element": "H" 
			},
			{
				"x": 2.4310656302,
				"y": 2.1477020606,
				"z": -0.9323729584,
				"element": "H" 
			},
			{
				"x": 1.4398715337,
				"y": 1.9681035308,
				"z": -2.3733393779,
				"element": "H" 
			},
			{
				"x": -0.7849982347,
				"y": 1.3947350994,
				"z": 0.2772141871,
				"element": "H" 
			},
			{
				"x": -2.1185720078,
				"y": 0.0187677273,
				"z": 1.7423062824,
				"element": "H" 
			},
			{
				"x": -1.9806843292,
				"y": -1.6579169551,
				"z": 1.7893673401,
				"element": "H" 
			},
			{
				"x": 1.7445148606,
				"y": -2.6900717637,
				"z": -0.9110476619,
				"element": "H" 
			}
		],
		 "valence_orbital": [ 
			{
				"type": "occ",
				"energy": -0.33528,
				"method": "rhf"
			},
			{
				"type": "occ",
				"energy": -0.31871,
				"method": "rhf"
			},
			{
				"type": "occ",
				"energy": -0.30325,
				"method": "rhf"
			},
			{
				"type": "occ",
				"energy": -0.24735,
				"method": "rhf"
			},
			{
				"type": "occ",
				"energy": -0.20469,
				"method": "rhf"
			},
			{
				"type": "unocc",
				"energy": -0.01133,
				"method": "rhf"
			},
			{
				"type": "unocc",
				"energy": 0.01228,
				"method": "rhf"
			},
			{
				"type": "unocc",
				"energy": 0.02737,
				"method": "rhf"
			},
			{
				"type": "unocc",
				"energy": 0.0821,
				"method": "rhf"
			},
			{
				"type": "unocc",
				"energy": 0.10901,
				"method": "rhf"
			}
		],
		"cosmo_sigma_profile": { 
			"-0.025": 0.0,
			"-0.024": 0.0,
			"-0.023": 0.0,
			"-0.022": 0.0,
			"-0.021": 0.0,
			"-0.02": 0.0,
			"-0.019": 0.0,
			"-0.018": 0.0,
			"-0.017": 0.0,
			"-0.016": 0.0,
			"-0.015": 0.0,
			"-0.014": 0.0339933612051,
			"-0.013": 0.922284328815,
			"-0.012": 1.77203916796,
			"-0.011": 2.02013259769,
			"-0.01": 2.52484566356,
			"-0.009": 2.74347763947,
			"-0.008": 3.03823352454,
			"-0.007": 4.479578886,
			"-0.006": 5.54476279755,
			"-0.005": 7.08304095346,
			"-0.004": 10.0791319557,
			"-0.003": 7.88730756611,
			"-0.002": 11.8467148648,
			"-0.001": 13.9218015035,
			"0.0": 15.2344229713,
			"0.001": 15.2503085536,
			"0.002": 15.7138068497,
			"0.003": 19.767485868,
			"0.004": 23.5328270625,
			"0.005": 13.8281224235,
			"0.006": 1.08150470636,
			"0.007": 0.907631565531,
			"0.008": 1.00858663086,
			"0.009": 0.534065602651,
			"0.01": 0.651106500696,
			"0.011": 0.725135032381,
			"0.012": 0.658767894109,
			"0.013": 0.603647193847,
			"0.014": 0.259859673518,
			"0.015": 0.0,
			"0.016": 0.0,
			"0.017": 0.0,
			"0.018": 0.0,
			"0.019": 0.0,
			"0.02": 0.0,
			"0.021": 0.0,
			"0.022": 0.0,
			"0.023": 0.0,
			"0.024": 0.0,
			"0.025": 0.0
		}
	}
}
