{
	 "smiles": "FC(F)(F)OC1=CC=C(C=C1)N1N=NN=C1S", 
	 "Tm": 397.15, 
	 "num_atms": 22, 
	 "gaussian": { 
		 "optdone": 1, 
		 "sigma_profile": "yes", 
		 "theory": "DFT", 
		 "functional": "B3LYP", 
		 "basiset": "6-31G**", 
		 "properties": { 
			 "R2extent": 6277.123, 
			 "electric_dipole_moment_norm": 5.16466199281, 
			 "electric_quadrupole_moment_norm": 34.7266183155, 
			 "total_energy": -1299.73202412, 
			 "HOMO_LUMO_gap": 0.20831, 
			 "cosmo_polarized_energy": -15.05, 
			 "cosmo_cavitation_energy": 31.03, 
			 "cosmo_dispersion_energy": -22.51, 
			 "cosmo_repulsion_energy": 1.63, 
			 "cosmo_total_nonelectrostatic_energy": 10.15, 
			 "SMD_solvation_energy": 4.48 
		},
		"coords": [
			{
				"x": 2.6206283129,
				"y": 1.8706354244,
				"z": -0.9211152738,
				"element": "F" 
			},
			{
				"x": 3.0691281882,
				"y": 0.8038081474,
				"z": -0.2347145456,
				"element": "C" 
			},
			{
				"x": 3.3982169394,
				"y": -0.1432899955,
				"z": -1.1345492471,
				"element": "F" 
			},
			{
				"x": 4.1624000338,
				"y": 1.1510357289,
				"z": 0.4354722033,
				"element": "F" 
			},
			{
				"x": 2.1617301865,
				"y": 0.358644637,
				"z": 0.6758031995,
				"element": "O" 
			},
			{
				"x": 0.8775342257,
				"y": -0.0120544905,
				"z": 0.2944005821,
				"element": "C" 
			},
			{
				"x": 0.0167369129,
				"y": -0.2723657057,
				"z": 1.3632560587,
				"element": "C" 
			},
			{
				"x": -1.296145828,
				"y": -0.6525387005,
				"z": 1.1162910821,
				"element": "C" 
			},
			{
				"x": -1.7406110835,
				"y": -0.778182251,
				"z": -0.2038481511,
				"element": "C" 
			},
			{
				"x": -0.8703935528,
				"y": -0.5383683838,
				"z": -1.2689986624,
				"element": "C" 
			},
			{
				"x": 0.445722734,
				"y": -0.1439015603,
				"z": -1.0261279508,
				"element": "C" 
			},
			{
				"x": -3.0826113567,
				"y": -1.1873243462,
				"z": -0.446593201,
				"element": "N" 
			},
			{
				"x": -3.6019792225,
				"y": -2.2983973727,
				"z": 0.1692409165,
				"element": "N" 
			},
			{
				"x": -4.8202325741,
				"y": -2.4006137453,
				"z": -0.2294526874,
				"element": "N" 
			},
			{
				"x": -5.157728673,
				"y": -1.3961078091,
				"z": -1.0816894436,
				"element": "N" 
			},
			{
				"x": -4.0764321543,
				"y": -0.6489354418,
				"z": -1.2047940393,
				"element": "C" 
			},
			{
				"x": -4.0354841455,
				"y": 0.797013226,
				"z": -2.2039780642,
				"element": "S" 
			},
			{
				"x": 0.3888661511,
				"y": -0.1662451169,
				"z": 2.3760240348,
				"element": "H" 
			},
			{
				"x": -1.9776841546,
				"y": -0.8590355718,
				"z": 1.9333963863,
				"element": "H" 
			},
			{
				"x": -1.2081222976,
				"y": -0.6795279398,
				"z": -2.290142327,
				"element": "H" 
			},
			{
				"x": 1.1138559305,
				"y": 0.0312452054,
				"z": -1.8581700102,
				"element": "H" 
			},
			{
				"x": -2.8619945725,
				"y": 1.2579060617,
				"z": -1.7259108601,
				"element": "H" 
			}
		],
		 "valence_orbital": [ 
			{
				"type": "occ",
				"energy": -0.30462,
				"method": "rhf"
			},
			{
				"type": "occ",
				"energy": -0.29748,
				"method": "rhf"
			},
			{
				"type": "occ",
				"energy": -0.29519,
				"method": "rhf"
			},
			{
				"type": "occ",
				"energy": -0.27181,
				"method": "rhf"
			},
			{
				"type": "occ",
				"energy": -0.26248,
				"method": "rhf"
			},
			{
				"type": "unocc",
				"energy": -0.05417,
				"method": "rhf"
			},
			{
				"type": "unocc",
				"energy": -0.04905,
				"method": "rhf"
			},
			{
				"type": "unocc",
				"energy": -0.01328,
				"method": "rhf"
			},
			{
				"type": "unocc",
				"energy": -0.00514,
				"method": "rhf"
			},
			{
				"type": "unocc",
				"energy": 0.01594,
				"method": "rhf"
			}
		],
		"cosmo_sigma_profile": { 
			"-0.025": 0.0,
			"-0.024": 0.0,
			"-0.023": 0.0,
			"-0.022": 0.0,
			"-0.021": 0.0,
			"-0.02": 0.0,
			"-0.019": 0.0,
			"-0.018": 0.0,
			"-0.017": 0.0,
			"-0.016": 0.0,
			"-0.015": 0.0,
			"-0.014": 0.00555980175984,
			"-0.013": 0.657851234504,
			"-0.012": 1.34749701716,
			"-0.011": 1.42619070407,
			"-0.01": 2.06186578283,
			"-0.009": 3.52595429976,
			"-0.008": 10.6714546651,
			"-0.007": 10.5052629978,
			"-0.006": 10.4280419136,
			"-0.005": 9.90928239344,
			"-0.004": 8.77582942944,
			"-0.003": 9.80835775143,
			"-0.002": 15.5736223853,
			"-0.001": 19.7341588318,
			"0.0": 27.9051485645,
			"0.001": 40.0278774586,
			"0.002": 28.1581956761,
			"0.003": 7.90128069854,
			"0.004": 6.99383551114,
			"0.005": 6.74794313581,
			"0.006": 3.37045106418,
			"0.007": 4.93048932093,
			"0.008": 5.33152812395,
			"0.009": 3.96837227567,
			"0.01": 4.94166041443,
			"0.011": 3.5344583943,
			"0.012": 2.51824640968,
			"0.013": 2.05894220571,
			"0.014": 0.929738415739,
			"0.015": 0.0451785476513,
			"0.016": 0.0,
			"0.017": 0.0,
			"0.018": 0.0,
			"0.019": 0.0,
			"0.02": 0.0,
			"0.021": 0.0,
			"0.022": 0.0,
			"0.023": 0.0,
			"0.024": 0.0,
			"0.025": 0.0
		}
	}
}
