{
	 "smiles": "OC(=O)CC1CC(=O)OC1C(O)=O", 
	 "Tm": 432.15, 
	 "num_atms": 21, 
	 "gaussian": { 
		 "optdone": 1, 
		 "sigma_profile": "yes", 
		 "theory": "DFT", 
		 "functional": "B3LYP", 
		 "basiset": "6-31G**", 
		 "properties": { 
			 "R2extent": 2513.473, 
			 "electric_dipole_moment_norm": 4.39758549775, 
			 "electric_quadrupole_moment_norm": 19.658360322, 
			 "total_energy": -722.940630857, 
			 "HOMO_LUMO_gap": 0.25985, 
			 "cosmo_polarized_energy": -21.93, 
			 "cosmo_cavitation_energy": 25.62, 
			 "cosmo_dispersion_energy": -18.37, 
			 "cosmo_repulsion_energy": 1.48, 
			 "cosmo_total_nonelectrostatic_energy": 8.73, 
			 "SMD_solvation_energy": 7.3 
		},
		"coords": [
			{
				"x": -3.0401536642,
				"y": -0.1071773042,
				"z": 1.0933318615,
				"element": "O" 
			},
			{
				"x": -1.7106659394,
				"y": 0.1174676369,
				"z": 1.1208454208,
				"element": "C" 
			},
			{
				"x": -1.1551035422,
				"y": 0.6760026107,
				"z": 2.0441765834,
				"element": "O" 
			},
			{
				"x": -1.0295839607,
				"y": -0.4294741275,
				"z": -0.1144566968,
				"element": "C" 
			},
			{
				"x": 0.4941636694,
				"y": -0.2371969527,
				"z": -0.0987946769,
				"element": "C" 
			},
			{
				"x": 1.1744236553,
				"y": -1.0602278945,
				"z": -1.2038064227,
				"element": "C" 
			},
			{
				"x": 1.2055950701,
				"y": -0.1173184187,
				"z": -2.4007936344,
				"element": "C" 
			},
			{
				"x": 1.357951857,
				"y": -0.3746479574,
				"z": -3.5632318312,
				"element": "O" 
			},
			{
				"x": 1.0386126124,
				"y": 1.1657983969,
				"z": -1.9485137465,
				"element": "O" 
			},
			{
				"x": 0.9719312351,
				"y": 1.1879623907,
				"z": -0.5130203116,
				"element": "C" 
			},
			{
				"x": 0.0635460676,
				"y": 2.3399827553,
				"z": -0.1054662259,
				"element": "C" 
			},
			{
				"x": 0.6180950197,
				"y": 3.0622787757,
				"z": 0.8841721305,
				"element": "O" 
			},
			{
				"x": -1.0157056139,
				"y": 2.5757329641,
				"z": -0.597992065,
				"element": "O" 
			},
			{
				"x": -3.4026973071,
				"y": 0.2777630798,
				"z": 1.9089779203,
				"element": "H" 
			},
			{
				"x": -1.4890237732,
				"y": 0.0414136255,
				"z": -0.989940886,
				"element": "H" 
			},
			{
				"x": -1.2705513077,
				"y": -1.497381218,
				"z": -0.1742839494,
				"element": "H" 
			},
			{
				"x": 0.8729248715,
				"y": -0.4701343676,
				"z": 0.898332544,
				"element": "H" 
			},
			{
				"x": 0.6692636029,
				"y": -1.9922479154,
				"z": -1.4641094372,
				"element": "H" 
			},
			{
				"x": 2.2108609177,
				"y": -1.3051562821,
				"z": -0.9416703674,
				"element": "H" 
			},
			{
				"x": 1.9752852351,
				"y": 1.3716555467,
				"z": -0.1144872042,
				"element": "H" 
			},
			{
				"x": -0.0393687053,
				"y": 3.7280046559,
				"z": 1.1486309949,
				"element": "H" 
			}
		],
		 "valence_orbital": [ 
			{
				"type": "occ",
				"energy": -0.33092,
				"method": "rhf"
			},
			{
				"type": "occ",
				"energy": -0.30858,
				"method": "rhf"
			},
			{
				"type": "occ",
				"energy": -0.29182,
				"method": "rhf"
			},
			{
				"type": "occ",
				"energy": -0.28943,
				"method": "rhf"
			},
			{
				"type": "occ",
				"energy": -0.27535,
				"method": "rhf"
			},
			{
				"type": "unocc",
				"energy": -0.0155,
				"method": "rhf"
			},
			{
				"type": "unocc",
				"energy": -0.00556,
				"method": "rhf"
			},
			{
				"type": "unocc",
				"energy": 0.00398,
				"method": "rhf"
			},
			{
				"type": "unocc",
				"energy": 0.06474,
				"method": "rhf"
			},
			{
				"type": "unocc",
				"energy": 0.07,
				"method": "rhf"
			}
		],
		"cosmo_sigma_profile": { 
			"-0.025": 0.0,
			"-0.024": 0.0,
			"-0.023": 0.0,
			"-0.022": 0.0,
			"-0.021": 0.0,
			"-0.02": 0.0,
			"-0.019": 0.898816229352,
			"-0.018": 1.76213405959,
			"-0.017": 2.14863774692,
			"-0.016": 1.08140554568,
			"-0.015": 1.44235487279,
			"-0.014": 1.25653074047,
			"-0.013": 1.2723941191,
			"-0.012": 1.61164248394,
			"-0.011": 1.79710886074,
			"-0.01": 1.89775442096,
			"-0.009": 4.00252142722,
			"-0.008": 10.3653044009,
			"-0.007": 14.1664466331,
			"-0.006": 13.6026685722,
			"-0.005": 11.766050241,
			"-0.004": 10.1680882955,
			"-0.003": 8.51330115574,
			"-0.002": 6.82845458144,
			"-0.001": 6.25131597321,
			"0.0": 5.1853190001,
			"0.001": 6.96953900279,
			"0.002": 6.61691867734,
			"0.003": 6.63776800787,
			"0.004": 7.67695665654,
			"0.005": 6.41128079803,
			"0.006": 6.27131844339,
			"0.007": 7.2001665812,
			"0.008": 10.6927208666,
			"0.009": 10.546164607,
			"0.01": 8.15538054513,
			"0.011": 13.1972381403,
			"0.012": 5.03458007174,
			"0.013": 0.145191273075,
			"0.014": 0.0,
			"0.015": 0.0,
			"0.016": 0.0,
			"0.017": 0.0,
			"0.018": 0.0,
			"0.019": 0.0,
			"0.02": 0.0,
			"0.021": 0.0,
			"0.022": 0.0,
			"0.023": 0.0,
			"0.024": 0.0,
			"0.025": 0.0
		}
	}
}
