{
	 "smiles": "CS(=O)(=O)C1=NC(C(O)=O)=C(Cl)C=N1", 
	 "Tm": 445.15, 
	 "num_atms": 19, 
	 "gaussian": { 
		 "optdone": 1, 
		 "sigma_profile": "yes", 
		 "theory": "DFT", 
		 "functional": "B3LYP", 
		 "basiset": "6-31G**", 
		 "properties": { 
			 "R2extent": 3849.0215, 
			 "electric_dipole_moment_norm": 6.10180600888, 
			 "electric_quadrupole_moment_norm": 6.79701295423, 
			 "total_energy": -1500.34677622, 
			 "HOMO_LUMO_gap": 0.17054, 
			 "cosmo_polarized_energy": -21.2, 
			 "cosmo_cavitation_energy": 28.09, 
			 "cosmo_dispersion_energy": -21.04, 
			 "cosmo_repulsion_energy": 1.62, 
			 "cosmo_total_nonelectrostatic_energy": 8.67, 
			 "SMD_solvation_energy": 4.0 
		},
		"coords": [
			{
				"x": 4.151009816,
				"y": -0.3628827645,
				"z": -0.6929245913,
				"element": "C" 
			},
			{
				"x": 2.8784873575,
				"y": -1.1696018509,
				"z": 0.294215915,
				"element": "S" 
			},
			{
				"x": 3.1784449334,
				"y": -0.9576474002,
				"z": 1.7146459507,
				"element": "O" 
			},
			{
				"x": 2.6569666986,
				"y": -2.5201082235,
				"z": -0.2345303879,
				"element": "O" 
			},
			{
				"x": 1.3708024198,
				"y": -0.1985823182,
				"z": -0.0807811728,
				"element": "C" 
			},
			{
				"x": 0.2810847477,
				"y": -0.6150932262,
				"z": 0.5442747297,
				"element": "N" 
			},
			{
				"x": -0.8667368653,
				"y": 0.042565944,
				"z": 0.3241558695,
				"element": "C" 
			},
			{
				"x": -2.0650527737,
				"y": -0.5084865324,
				"z": 1.0860664318,
				"element": "C" 
			},
			{
				"x": -1.7641962078,
				"y": -1.5627035903,
				"z": 1.8503604074,
				"element": "O" 
			},
			{
				"x": -3.1730462799,
				"y": -0.0386532063,
				"z": 1.0057945469,
				"element": "O" 
			},
			{
				"x": -0.8857562962,
				"y": 1.1410558102,
				"z": -0.5509722523,
				"element": "C" 
			},
			{
				"x": -2.2861944974,
				"y": 2.0795505861,
				"z": -0.9286200043,
				"element": "Cl" 
			},
			{
				"x": 0.3308011043,
				"y": 1.48903777,
				"z": -1.155027862,
				"element": "C" 
			},
			{
				"x": 1.4647238501,
				"y": 0.8231373502,
				"z": -0.92456894,
				"element": "N" 
			},
			{
				"x": 4.2586430621,
				"y": 0.6738281212,
				"z": -0.3761173751,
				"element": "H" 
			},
			{
				"x": 5.0611743822,
				"y": -0.9285782063,
				"z": -0.4830767669,
				"element": "H" 
			},
			{
				"x": 3.8912394218,
				"y": -0.4265645924,
				"z": -1.7489478566,
				"element": "H" 
			},
			{
				"x": -0.8101466887,
				"y": -1.7552933559,
				"z": 1.7496117962,
				"element": "H" 
			},
			{
				"x": 0.3749518154,
				"y": 2.3307196855,
				"z": -1.8412584378,
				"element": "H" 
			}
		],
		 "valence_orbital": [ 
			{
				"type": "occ",
				"energy": -0.32813,
				"method": "rhf"
			},
			{
				"type": "occ",
				"energy": -0.31891,
				"method": "rhf"
			},
			{
				"type": "occ",
				"energy": -0.31064,
				"method": "rhf"
			},
			{
				"type": "occ",
				"energy": -0.30278,
				"method": "rhf"
			},
			{
				"type": "occ",
				"energy": -0.2868,
				"method": "rhf"
			},
			{
				"type": "unocc",
				"energy": -0.11626,
				"method": "rhf"
			},
			{
				"type": "unocc",
				"energy": -0.09346,
				"method": "rhf"
			},
			{
				"type": "unocc",
				"energy": -0.00395,
				"method": "rhf"
			},
			{
				"type": "unocc",
				"energy": 0.00496,
				"method": "rhf"
			},
			{
				"type": "unocc",
				"energy": 0.04344,
				"method": "rhf"
			}
		],
		"cosmo_sigma_profile": { 
			"-0.025": 0.0,
			"-0.024": 0.0,
			"-0.023": 0.0,
			"-0.022": 0.0,
			"-0.021": 0.0,
			"-0.02": 0.0,
			"-0.019": 0.0,
			"-0.018": 0.0,
			"-0.017": 0.0,
			"-0.016": 0.0,
			"-0.015": 0.477409434643,
			"-0.014": 0.65290546886,
			"-0.013": 0.200876527374,
			"-0.012": 0.532866824376,
			"-0.011": 2.21529433971,
			"-0.01": 3.96443384609,
			"-0.009": 9.20475074036,
			"-0.008": 14.4296741895,
			"-0.007": 14.0195884233,
			"-0.006": 13.5885621341,
			"-0.005": 17.4013161698,
			"-0.004": 13.8005787111,
			"-0.003": 10.1492936864,
			"-0.002": 8.86991646131,
			"-0.001": 8.69143061299,
			"0.0": 8.37892270364,
			"0.001": 10.3118217963,
			"0.002": 11.6150410415,
			"0.003": 6.34376603191,
			"0.004": 5.94231108402,
			"0.005": 5.41631540852,
			"0.006": 6.74177697816,
			"0.007": 7.966550312,
			"0.008": 6.99966749051,
			"0.009": 9.03797582937,
			"0.01": 16.389756418,
			"0.011": 13.6077763121,
			"0.012": 1.52684237309,
			"0.013": 0.0,
			"0.014": 0.0,
			"0.015": 0.0,
			"0.016": 0.0,
			"0.017": 0.0,
			"0.018": 0.0,
			"0.019": 0.0,
			"0.02": 0.0,
			"0.021": 0.0,
			"0.022": 0.0,
			"0.023": 0.0,
			"0.024": 0.0,
			"0.025": 0.0
		}
	}
}
