{
	 "smiles": "FC1=CC(Cl)=C(NC(=O)CCl)C=C1", 
	 "Tm": 350.15, 
	 "num_atms": 19, 
	 "gaussian": { 
		 "optdone": 1, 
		 "sigma_profile": "yes", 
		 "theory": "DFT", 
		 "functional": "B3LYP", 
		 "basiset": "6-31G**", 
		 "properties": { 
			 "R2extent": 4568.6127, 
			 "electric_dipole_moment_norm": 2.91108668885, 
			 "electric_quadrupole_moment_norm": 10.0538925362, 
			 "total_energy": -1458.66729272, 
			 "HOMO_LUMO_gap": 0.20015, 
			 "cosmo_polarized_energy": -10.91, 
			 "cosmo_cavitation_energy": 27.6, 
			 "cosmo_dispersion_energy": -19.97, 
			 "cosmo_repulsion_energy": 1.57, 
			 "cosmo_total_nonelectrostatic_energy": 9.2, 
			 "SMD_solvation_energy": 5.45 
		},
		"coords": [
			{
				"x": -4.1220399213,
				"y": -3.0580254965,
				"z": 0.8812380675,
				"element": "F" 
			},
			{
				"x": -3.1739131585,
				"y": -2.2752364332,
				"z": 0.3350625988,
				"element": "C" 
			},
			{
				"x": -1.8560768435,
				"y": -2.4396573515,
				"z": 0.7444064306,
				"element": "C" 
			},
			{
				"x": -0.8805472274,
				"y": -1.6175567039,
				"z": 0.1867274124,
				"element": "C" 
			},
			{
				"x": 0.7821963595,
				"y": -1.8175301651,
				"z": 0.709393044,
				"element": "Cl" 
			},
			{
				"x": -1.1984532269,
				"y": -0.646295912,
				"z": -0.7833063308,
				"element": "C" 
			},
			{
				"x": -0.1774004769,
				"y": 0.1417456901,
				"z": -1.3527507834,
				"element": "N" 
			},
			{
				"x": -0.1027041193,
				"y": 1.4990386603,
				"z": -1.6027105838,
				"element": "C" 
			},
			{
				"x": 0.9026269465,
				"y": 1.9845452909,
				"z": -2.0914721863,
				"element": "O" 
			},
			{
				"x": -1.2850982899,
				"y": 2.3793019939,
				"z": -1.2066024645,
				"element": "C" 
			},
			{
				"x": -2.340748544,
				"y": 2.7381036314,
				"z": -2.6379857952,
				"element": "Cl" 
			},
			{
				"x": -2.5371152882,
				"y": -0.5440259563,
				"z": -1.1926386505,
				"element": "C" 
			},
			{
				"x": -3.5314957364,
				"y": -1.3364744853,
				"z": -0.6245170889,
				"element": "C" 
			},
			{
				"x": -1.6023896346,
				"y": -3.1849425884,
				"z": 1.4881544172,
				"element": "H" 
			},
			{
				"x": 0.7170442258,
				"y": -0.3116640743,
				"z": -1.5030896952,
				"element": "H" 
			},
			{
				"x": -1.9210962233,
				"y": 1.9434792586,
				"z": -0.4373052069,
				"element": "H" 
			},
			{
				"x": -0.8786390396,
				"y": 3.3337180295,
				"z": -0.8767648914,
				"element": "H" 
			},
			{
				"x": -2.7949365965,
				"y": 0.1570274351,
				"z": -1.9782594242,
				"element": "H" 
			},
			{
				"x": -4.5659132053,
				"y": -1.2502508234,
				"z": -0.9368788694,
				"element": "H" 
			}
		],
		 "valence_orbital": [ 
			{
				"type": "occ",
				"energy": -0.31709,
				"method": "rhf"
			},
			{
				"type": "occ",
				"energy": -0.30853,
				"method": "rhf"
			},
			{
				"type": "occ",
				"energy": -0.27754,
				"method": "rhf"
			},
			{
				"type": "occ",
				"energy": -0.27272,
				"method": "rhf"
			},
			{
				"type": "occ",
				"energy": -0.24495,
				"method": "rhf"
			},
			{
				"type": "unocc",
				"energy": -0.0448,
				"method": "rhf"
			},
			{
				"type": "unocc",
				"energy": -0.04003,
				"method": "rhf"
			},
			{
				"type": "unocc",
				"energy": -0.01622,
				"method": "rhf"
			},
			{
				"type": "unocc",
				"energy": 0.00568,
				"method": "rhf"
			},
			{
				"type": "unocc",
				"energy": 0.0492,
				"method": "rhf"
			}
		],
		"cosmo_sigma_profile": { 
			"-0.025": 0.0,
			"-0.024": 0.0,
			"-0.023": 0.0,
			"-0.022": 0.0,
			"-0.021": 0.0,
			"-0.02": 0.0,
			"-0.019": 0.0,
			"-0.018": 0.0,
			"-0.017": 0.0,
			"-0.016": 0.0,
			"-0.015": 0.0,
			"-0.014": 0.197623185603,
			"-0.013": 0.620504860919,
			"-0.012": 1.22725146871,
			"-0.011": 0.484426240929,
			"-0.01": 0.87446704176,
			"-0.009": 3.66587934926,
			"-0.008": 8.51144118293,
			"-0.007": 9.50169856689,
			"-0.006": 10.4459078037,
			"-0.005": 10.2532269502,
			"-0.004": 8.90391964523,
			"-0.003": 9.64423651755,
			"-0.002": 13.3653701138,
			"-0.001": 17.2209946231,
			"0.0": 25.285280156,
			"0.001": 24.4748469857,
			"0.002": 16.3005756134,
			"0.003": 17.446670542,
			"0.004": 20.262633986,
			"0.005": 8.6335498985,
			"0.006": 2.1923143168,
			"0.007": 1.3069267394,
			"0.008": 1.50128576391,
			"0.009": 1.55288348413,
			"0.01": 2.11529116831,
			"0.011": 2.05435135085,
			"0.012": 5.2505786895,
			"0.013": 2.79016396966,
			"0.014": 0.0670019253377,
			"0.015": 0.0,
			"0.016": 0.0,
			"0.017": 0.0,
			"0.018": 0.0,
			"0.019": 0.0,
			"0.02": 0.0,
			"0.021": 0.0,
			"0.022": 0.0,
			"0.023": 0.0,
			"0.024": 0.0,
			"0.025": 0.0
		}
	}
}
