{
	 "smiles": "NC1=NC(=CS1)C1=CC(Cl)=CC=C1", 
	 "Tm": 399.15, 
	 "num_atms": 20, 
	 "gaussian": { 
		 "optdone": 1, 
		 "sigma_profile": "yes", 
		 "theory": "DFT", 
		 "functional": "B3LYP", 
		 "basiset": "6-31G**", 
		 "properties": { 
			 "R2extent": 4207.3985, 
			 "electric_dipole_moment_norm": 3.21749530536, 
			 "electric_quadrupole_moment_norm": 17.0659452982, 
			 "total_energy": -1315.06211878, 
			 "HOMO_LUMO_gap": 0.16976, 
			 "cosmo_polarized_energy": -11.64, 
			 "cosmo_cavitation_energy": 28.03, 
			 "cosmo_dispersion_energy": -21.59, 
			 "cosmo_repulsion_energy": 1.66, 
			 "cosmo_total_nonelectrostatic_energy": 8.1, 
			 "SMD_solvation_energy": 3.11 
		},
		"coords": [
			{
				"x": -0.9262367971,
				"y": 1.907127613,
				"z": -3.033812422,
				"element": "N" 
			},
			{
				"x": -0.4783915574,
				"y": 0.9139065811,
				"z": -2.1946461108,
				"element": "C" 
			},
			{
				"x": -0.7283068061,
				"y": 0.8687395341,
				"z": -0.9211784127,
				"element": "N" 
			},
			{
				"x": -0.0831876105,
				"y": -0.2005632456,
				"z": -0.3141982099,
				"element": "C" 
			},
			{
				"x": 0.6610285591,
				"y": -0.9823894265,
				"z": -1.1557897921,
				"element": "C" 
			},
			{
				"x": 0.5901752876,
				"y": -0.3682454801,
				"z": -2.7862795922,
				"element": "S" 
			},
			{
				"x": -0.2609930488,
				"y": -0.4019107341,
				"z": 1.1371670505,
				"element": "C" 
			},
			{
				"x": -1.0863105151,
				"y": 0.4807976846,
				"z": 1.8525555197,
				"element": "C" 
			},
			{
				"x": -1.2645545193,
				"y": 0.3020647972,
				"z": 3.2206936842,
				"element": "C" 
			},
			{
				"x": -2.3045915339,
				"y": 1.4194782768,
				"z": 4.1001741729,
				"element": "Cl" 
			},
			{
				"x": -0.6437996439,
				"y": -0.7356182723,
				"z": 3.9133629059,
				"element": "C" 
			},
			{
				"x": 0.1772756389,
				"y": -1.6105744427,
				"z": 3.1983080186,
				"element": "C" 
			},
			{
				"x": 0.3692853325,
				"y": -1.4498272813,
				"z": 1.8293139336,
				"element": "C" 
			},
			{
				"x": -1.0819258577,
				"y": 1.6575900957,
				"z": -3.9998458497,
				"element": "H" 
			},
			{
				"x": -1.6659119649,
				"y": 2.4650306828,
				"z": -2.6273875968,
				"element": "H" 
			},
			{
				"x": 1.233793263,
				"y": -1.8708036291,
				"z": -0.938186018,
				"element": "H" 
			},
			{
				"x": -1.5749766781,
				"y": 1.292519582,
				"z": 1.329090668,
				"element": "H" 
			},
			{
				"x": -0.7983046189,
				"y": -0.8537056921,
				"z": 4.9798368498,
				"element": "H" 
			},
			{
				"x": 0.6713401697,
				"y": -2.424833768,
				"z": 3.7201837775,
				"element": "H" 
			},
			{
				"x": 1.0150929009,
				"y": -2.1427828756,
				"z": 1.2999374236,
				"element": "H" 
			}
		],
		 "valence_orbital": [ 
			{
				"type": "occ",
				"energy": -0.28929,
				"method": "rhf"
			},
			{
				"type": "occ",
				"energy": -0.27909,
				"method": "rhf"
			},
			{
				"type": "occ",
				"energy": -0.255,
				"method": "rhf"
			},
			{
				"type": "occ",
				"energy": -0.24403,
				"method": "rhf"
			},
			{
				"type": "occ",
				"energy": -0.20728,
				"method": "rhf"
			},
			{
				"type": "unocc",
				"energy": -0.03752,
				"method": "rhf"
			},
			{
				"type": "unocc",
				"energy": -0.00799,
				"method": "rhf"
			},
			{
				"type": "unocc",
				"energy": 0.00326,
				"method": "rhf"
			},
			{
				"type": "unocc",
				"energy": 0.01142,
				"method": "rhf"
			},
			{
				"type": "unocc",
				"energy": 0.03828,
				"method": "rhf"
			}
		],
		"cosmo_sigma_profile": { 
			"-0.025": 0.0,
			"-0.024": 0.0,
			"-0.023": 0.0,
			"-0.022": 0.0,
			"-0.021": 0.0,
			"-0.02": 0.0,
			"-0.019": 0.0,
			"-0.018": 0.0,
			"-0.017": 0.0,
			"-0.016": 0.0,
			"-0.015": 0.626884592503,
			"-0.014": 1.80726155662,
			"-0.013": 2.61417940524,
			"-0.012": 3.3106510712,
			"-0.011": 2.23668534352,
			"-0.01": 2.22716721379,
			"-0.009": 4.31054319578,
			"-0.008": 4.99327750853,
			"-0.007": 5.9956220538,
			"-0.006": 9.52544821174,
			"-0.005": 8.02377889393,
			"-0.004": 9.84964309729,
			"-0.003": 8.46524086304,
			"-0.002": 9.47081882277,
			"-0.001": 10.7688825241,
			"0.0": 12.6723475427,
			"0.001": 18.5824660328,
			"0.002": 24.8977390367,
			"0.003": 32.714999024,
			"0.004": 29.1102199716,
			"0.005": 13.837543286,
			"0.006": 3.54273249629,
			"0.007": 2.09895343305,
			"0.008": 2.0117803446,
			"0.009": 2.7203885602,
			"0.01": 2.10957858177,
			"0.011": 1.14168276289,
			"0.012": 0.106838308564,
			"0.013": 0.0,
			"0.014": 0.0,
			"0.015": 0.0,
			"0.016": 0.0,
			"0.017": 0.0,
			"0.018": 0.0,
			"0.019": 0.0,
			"0.02": 0.0,
			"0.021": 0.0,
			"0.022": 0.0,
			"0.023": 0.0,
			"0.024": 0.0,
			"0.025": 0.0
		}
	}
}
