{
	 "smiles": "CCOC(=O)CCCCCCCC(=O)OCC", 
	 "Tm": 254.65, 
	 "num_atms": 41, 
	 "gaussian": { 
		 "optdone": 1, 
		 "sigma_profile": "yes", 
		 "theory": "DFT", 
		 "functional": "B3LYP", 
		 "basiset": "6-31G**", 
		 "properties": { 
			 "R2extent": 4849.5905, 
			 "electric_dipole_moment_norm": 2.3366121394, 
			 "electric_quadrupole_moment_norm": 12.0827461585, 
			 "total_energy": -810.796655327, 
			 "HOMO_LUMO_gap": 0.27509, 
			 "cosmo_polarized_energy": -11.36, 
			 "cosmo_cavitation_energy": 42.13, 
			 "cosmo_dispersion_energy": -26.59, 
			 "cosmo_repulsion_energy": 2.11, 
			 "cosmo_total_nonelectrostatic_energy": 17.66, 
			 "SMD_solvation_energy": 7.71 
		},
		"coords": [
			{
				"x": 2.1269408265,
				"y": 0.5178730081,
				"z": 3.7672053243,
				"element": "C" 
			},
			{
				"x": 0.9824769671,
				"y": 0.6289315408,
				"z": 2.7712519928,
				"element": "C" 
			},
			{
				"x": 1.4597554994,
				"y": 0.967851396,
				"z": 1.4440171578,
				"element": "O" 
			},
			{
				"x": 1.9432953496,
				"y": -0.0478249027,
				"z": 0.6934036486,
				"element": "C" 
			},
			{
				"x": 1.984275463,
				"y": -1.2044008575,
				"z": 1.0622344852,
				"element": "O" 
			},
			{
				"x": 2.4343465778,
				"y": 0.4456963854,
				"z": -0.6558957465,
				"element": "C" 
			},
			{
				"x": 2.0267564477,
				"y": -0.5004159869,
				"z": -1.7978921862,
				"element": "C" 
			},
			{
				"x": 0.5094949359,
				"y": -0.590813311,
				"z": -2.0290066959,
				"element": "C" 
			},
			{
				"x": -0.1342399483,
				"y": 0.6777457446,
				"z": -2.6158761399,
				"element": "C" 
			},
			{
				"x": -1.6741760344,
				"y": 0.596110684,
				"z": -2.743495388,
				"element": "C" 
			},
			{
				"x": -2.4712800307,
				"y": 1.272001985,
				"z": -1.61187598,
				"element": "C" 
			},
			{
				"x": -2.1754620061,
				"y": 0.7726368836,
				"z": -0.1903542059,
				"element": "C" 
			},
			{
				"x": -2.5336315918,
				"y": -0.6875513089,
				"z": 0.0145732452,
				"element": "C" 
			},
			{
				"x": -3.4109324681,
				"y": -1.284250004,
				"z": -0.5740937607,
				"element": "O" 
			},
			{
				"x": -1.7504659027,
				"y": -1.2558844568,
				"z": 0.959896907,
				"element": "O" 
			},
			{
				"x": -1.9873631057,
				"y": -2.6603832598,
				"z": 1.2247586525,
				"element": "C" 
			},
			{
				"x": -0.9751398403,
				"y": -3.1056510671,
				"z": 2.2632318623,
				"element": "C" 
			},
			{
				"x": 2.7174528692,
				"y": 1.4388172981,
				"z": 3.786761868,
				"element": "H" 
			},
			{
				"x": 2.7810075387,
				"y": -0.3186298989,
				"z": 3.5108526109,
				"element": "H" 
			},
			{
				"x": 1.7276037394,
				"y": 0.3461608992,
				"z": 4.772474097,
				"element": "H" 
			},
			{
				"x": 0.3092583492,
				"y": 1.4501629502,
				"z": 3.0282588304,
				"element": "H" 
			},
			{
				"x": 0.4092755666,
				"y": -0.297909644,
				"z": 2.709045301,
				"element": "H" 
			},
			{
				"x": 2.0820068773,
				"y": 1.4673615124,
				"z": -0.8167914963,
				"element": "H" 
			},
			{
				"x": 3.5293798735,
				"y": 0.4934691592,
				"z": -0.5940631463,
				"element": "H" 
			},
			{
				"x": 2.5253497129,
				"y": -0.1734057893,
				"z": -2.7191448611,
				"element": "H" 
			},
			{
				"x": 2.4131943347,
				"y": -1.4972283027,
				"z": -1.5615415495,
				"element": "H" 
			},
			{
				"x": 0.0265094017,
				"y": -0.8660346716,
				"z": -1.0838493426,
				"element": "H" 
			},
			{
				"x": 0.3096056976,
				"y": -1.4240069414,
				"z": -2.7152243354,
				"element": "H" 
			},
			{
				"x": 0.3062078479,
				"y": 0.8532221379,
				"z": -3.6059892748,
				"element": "H" 
			},
			{
				"x": 0.133727631,
				"y": 1.557439599,
				"z": -2.0148583029,
				"element": "H" 
			},
			{
				"x": -1.9865325854,
				"y": 1.0681561613,
				"z": -3.6825927128,
				"element": "H" 
			},
			{
				"x": -1.982466102,
				"y": -0.453681998,
				"z": -2.8205130828,
				"element": "H" 
			},
			{
				"x": -3.5399775682,
				"y": 1.1364639031,
				"z": -1.809321661,
				"element": "H" 
			},
			{
				"x": -2.2785856313,
				"y": 2.3523004261,
				"z": -1.633090256,
				"element": "H" 
			},
			{
				"x": -2.7757570598,
				"y": 1.3477360153,
				"z": 0.5281317586,
				"element": "H" 
			},
			{
				"x": -1.1318828796,
				"y": 0.9307081802,
				"z": 0.0954258098,
				"element": "H" 
			},
			{
				"x": -1.8818677198,
				"y": -3.212547619,
				"z": 0.2858991739,
				"element": "H" 
			},
			{
				"x": -3.0198636804,
				"y": -2.7864926839,
				"z": 1.5661007917,
				"element": "H" 
			},
			{
				"x": -1.0818905431,
				"y": -4.1793422144,
				"z": 2.4482059256,
				"element": "H" 
			},
			{
				"x": -1.1306492845,
				"y": -2.5814008833,
				"z": 3.2114991888,
				"element": "H" 
			},
			{
				"x": 0.0438424752,
				"y": -2.9063900682,
				"z": 1.9201414933,
				"element": "H" 
			}
		],
		 "valence_orbital": [ 
			{
				"type": "occ",
				"energy": -0.30597,
				"method": "rhf"
			},
			{
				"type": "occ",
				"energy": -0.29732,
				"method": "rhf"
			},
			{
				"type": "occ",
				"energy": -0.29418,
				"method": "rhf"
			},
			{
				"type": "occ",
				"energy": -0.26854,
				"method": "rhf"
			},
			{
				"type": "occ",
				"energy": -0.26394,
				"method": "rhf"
			},
			{
				"type": "unocc",
				"energy": 0.01115,
				"method": "rhf"
			},
			{
				"type": "unocc",
				"energy": 0.01622,
				"method": "rhf"
			},
			{
				"type": "unocc",
				"energy": 0.07686,
				"method": "rhf"
			},
			{
				"type": "unocc",
				"energy": 0.09587,
				"method": "rhf"
			},
			{
				"type": "unocc",
				"energy": 0.10317,
				"method": "rhf"
			}
		],
		"cosmo_sigma_profile": { 
			"-0.025": 0.0,
			"-0.024": 0.0,
			"-0.023": 0.0,
			"-0.022": 0.0,
			"-0.021": 0.0,
			"-0.02": 0.0,
			"-0.019": 0.0,
			"-0.018": 0.0,
			"-0.017": 0.0,
			"-0.016": 0.0,
			"-0.015": 0.0,
			"-0.014": 0.0,
			"-0.013": 0.0,
			"-0.012": 0.0,
			"-0.011": 0.0,
			"-0.01": 0.0,
			"-0.009": 0.0,
			"-0.008": 0.0,
			"-0.007": 0.0685411889996,
			"-0.006": 5.54894023388,
			"-0.005": 13.2039327139,
			"-0.004": 25.9586555186,
			"-0.003": 37.5077375219,
			"-0.002": 50.6403140846,
			"-0.001": 52.5882334276,
			"0.0": 43.1820040852,
			"0.001": 24.9123408847,
			"0.002": 10.9480267209,
			"0.003": 10.1115205258,
			"0.004": 9.7363866322,
			"0.005": 8.47139222286,
			"0.006": 5.62688359442,
			"0.007": 4.51823235839,
			"0.008": 4.74161869775,
			"0.009": 3.70965974348,
			"0.01": 3.00667413624,
			"0.011": 4.34079343052,
			"0.012": 5.68906046141,
			"0.013": 2.15300185162,
			"0.014": 0.0,
			"0.015": 0.0,
			"0.016": 0.0,
			"0.017": 0.0,
			"0.018": 0.0,
			"0.019": 0.0,
			"0.02": 0.0,
			"0.021": 0.0,
			"0.022": 0.0,
			"0.023": 0.0,
			"0.024": 0.0,
			"0.025": 0.0
		}
	}
}
