{
	 "smiles": "CC(=O)NC1=CN=C(NC(C)=O)S1", 
	 "Tm": 519.15, 
	 "num_atms": 22, 
	 "gaussian": { 
		 "optdone": 1, 
		 "sigma_profile": "yes", 
		 "theory": "DFT", 
		 "functional": "B3LYP", 
		 "basiset": "6-31G**", 
		 "properties": { 
			 "R2extent": 4323.6872, 
			 "electric_dipole_moment_norm": 3.70300490278, 
			 "electric_quadrupole_moment_norm": 29.1716879299, 
			 "total_energy": -985.072088474, 
			 "HOMO_LUMO_gap": 0.17882, 
			 "cosmo_polarized_energy": -26.6, 
			 "cosmo_cavitation_energy": 28.92, 
			 "cosmo_dispersion_energy": -21.61, 
			 "cosmo_repulsion_energy": 1.7, 
			 "cosmo_total_nonelectrostatic_energy": 9.01, 
			 "SMD_solvation_energy": 5.23 
		},
		"coords": [
			{
				"x": -2.8257959468,
				"y": 2.02427729,
				"z": 1.3169587936,
				"element": "C" 
			},
			{
				"x": -1.7403523279,
				"y": 1.3438437544,
				"z": 0.5057150991,
				"element": "C" 
			},
			{
				"x": -1.3755523608,
				"y": 1.7541702343,
				"z": -0.5878038932,
				"element": "O" 
			},
			{
				"x": -1.1855738716,
				"y": 0.2220497911,
				"z": 1.0815234307,
				"element": "N" 
			},
			{
				"x": -0.1599516531,
				"y": -0.5409146213,
				"z": 0.5259440735,
				"element": "C" 
			},
			{
				"x": 0.4438678501,
				"y": -1.6314883815,
				"z": 1.0945487613,
				"element": "C" 
			},
			{
				"x": 1.3966771861,
				"y": -2.2633160307,
				"z": 0.3343295521,
				"element": "N" 
			},
			{
				"x": 1.5483452145,
				"y": -1.6580808569,
				"z": -0.8022650038,
				"element": "C" 
			},
			{
				"x": 2.4537565149,
				"y": -2.0290725578,
				"z": -1.7991133761,
				"element": "N" 
			},
			{
				"x": 3.7923851592,
				"y": -2.3673555015,
				"z": -1.5854941728,
				"element": "C" 
			},
			{
				"x": 4.5072676068,
				"y": -2.8189201055,
				"z": -2.8510169154,
				"element": "C" 
			},
			{
				"x": 4.325752415,
				"y": -2.3302550967,
				"z": -0.4969705465,
				"element": "O" 
			},
			{
				"x": 0.5239861862,
				"y": -0.2304002392,
				"z": -1.0539026805,
				"element": "S" 
			},
			{
				"x": -2.5130568231,
				"y": 3.0503722585,
				"z": 1.529263073,
				"element": "H" 
			},
			{
				"x": -3.7341940757,
				"y": 2.0790018768,
				"z": 0.7112701322,
				"element": "H" 
			},
			{
				"x": -3.0556856655,
				"y": 1.5208623614,
				"z": 2.2598317184,
				"element": "H" 
			},
			{
				"x": -1.5184671319,
				"y": -0.0759699858,
				"z": 1.9873464713,
				"element": "H" 
			},
			{
				"x": 0.2026158256,
				"y": -2.0247225597,
				"z": 2.0762649892,
				"element": "H" 
			},
			{
				"x": 2.1269931796,
				"y": -1.9933234128,
				"z": -2.753978218,
				"element": "H" 
			},
			{
				"x": 4.3268232629,
				"y": -3.8878569969,
				"z": -3.0098366802,
				"element": "H" 
			},
			{
				"x": 4.1735116778,
				"y": -2.2820521322,
				"z": -3.7448139443,
				"element": "H" 
			},
			{
				"x": 5.5783477775,
				"y": -2.6685490879,
				"z": -2.7148006637,
				"element": "H" 
			}
		],
		 "valence_orbital": [ 
			{
				"type": "occ",
				"energy": -0.28159,
				"method": "rhf"
			},
			{
				"type": "occ",
				"energy": -0.27603,
				"method": "rhf"
			},
			{
				"type": "occ",
				"energy": -0.26528,
				"method": "rhf"
			},
			{
				"type": "occ",
				"energy": -0.24614,
				"method": "rhf"
			},
			{
				"type": "occ",
				"energy": -0.20942,
				"method": "rhf"
			},
			{
				"type": "unocc",
				"energy": -0.0306,
				"method": "rhf"
			},
			{
				"type": "unocc",
				"energy": 0.00864,
				"method": "rhf"
			},
			{
				"type": "unocc",
				"energy": 0.01859,
				"method": "rhf"
			},
			{
				"type": "unocc",
				"energy": 0.03538,
				"method": "rhf"
			},
			{
				"type": "unocc",
				"energy": 0.05126,
				"method": "rhf"
			}
		],
		"cosmo_sigma_profile": { 
			"-0.025": 0.0,
			"-0.024": 0.0,
			"-0.023": 0.0,
			"-0.022": 0.0,
			"-0.021": 0.0,
			"-0.02": 0.0,
			"-0.019": 0.0,
			"-0.018": 0.0,
			"-0.017": 0.419392349196,
			"-0.016": 2.33197328956,
			"-0.015": 2.52181563361,
			"-0.014": 3.14724873451,
			"-0.013": 2.23463757157,
			"-0.012": 3.51364019541,
			"-0.011": 2.91651769947,
			"-0.01": 3.00502802621,
			"-0.009": 2.39355102243,
			"-0.008": 5.7169466532,
			"-0.007": 5.56506754535,
			"-0.006": 11.9313948021,
			"-0.005": 13.6688612851,
			"-0.004": 15.4256324685,
			"-0.003": 16.5063060796,
			"-0.002": 18.1897220848,
			"-0.001": 14.0165312181,
			"0.0": 11.1684673174,
			"0.001": 12.278809609,
			"0.002": 11.9625214426,
			"0.003": 10.0889032051,
			"0.004": 7.81199597848,
			"0.005": 4.58601049901,
			"0.006": 4.4383839831,
			"0.007": 5.0172591942,
			"0.008": 3.99041140187,
			"0.009": 4.22552648134,
			"0.01": 4.21452882608,
			"0.011": 4.76434722954,
			"0.012": 7.82637632159,
			"0.013": 8.62289216166,
			"0.014": 3.95599616048,
			"0.015": 2.41522197642,
			"0.016": 1.22342807293,
			"0.017": 0.0204953394939,
			"0.018": 0.0,
			"0.019": 0.0,
			"0.02": 0.0,
			"0.021": 0.0,
			"0.022": 0.0,
			"0.023": 0.0,
			"0.024": 0.0,
			"0.025": 0.0
		}
	}
}
