{
	 "smiles": "NCCC1=NC2=C(S1)C=CC=C2", 
	 "Tm": 321.15, 
	 "num_atms": 22, 
	 "gaussian": { 
		 "optdone": 1, 
		 "sigma_profile": "yes", 
		 "theory": "DFT", 
		 "functional": "B3LYP", 
		 "basiset": "6-31G**", 
		 "properties": { 
			 "R2extent": 3160.9208, 
			 "electric_dipole_moment_norm": 1.80291014196, 
			 "electric_quadrupole_moment_norm": 9.23101633462, 
			 "total_energy": -856.680855376, 
			 "HOMO_LUMO_gap": 0.2019, 
			 "cosmo_polarized_energy": -10.98, 
			 "cosmo_cavitation_energy": 27.0, 
			 "cosmo_dispersion_energy": -20.39, 
			 "cosmo_repulsion_energy": 1.6, 
			 "cosmo_total_nonelectrostatic_energy": 8.21, 
			 "SMD_solvation_energy": 1.11 
		},
		"coords": [
			{
				"x": -0.292653413,
				"y": 1.0010201935,
				"z": -2.6207831057,
				"element": "N" 
			},
			{
				"x": -1.1437018473,
				"y": 1.93596813,
				"z": -1.8896602123,
				"element": "C" 
			},
			{
				"x": -1.5365827611,
				"y": 1.3569170979,
				"z": -0.5205850405,
				"element": "C" 
			},
			{
				"x": -0.3745194922,
				"y": 0.977459891,
				"z": 0.3512705206,
				"element": "C" 
			},
			{
				"x": -0.1774539708,
				"y": -0.2115726528,
				"z": 0.8176482284,
				"element": "N" 
			},
			{
				"x": 0.9618304316,
				"y": -0.2669303562,
				"z": 1.6084868477,
				"element": "C" 
			},
			{
				"x": 1.6629955496,
				"y": 0.9552881753,
				"z": 1.750139549,
				"element": "C" 
			},
			{
				"x": 0.8309220207,
				"y": 2.20121804,
				"z": 0.8417834879,
				"element": "S" 
			},
			{
				"x": 2.8263042015,
				"y": 1.0426615655,
				"z": 2.5183679227,
				"element": "C" 
			},
			{
				"x": 3.2850634838,
				"y": -0.1119251096,
				"z": 3.1486726484,
				"element": "C" 
			},
			{
				"x": 2.5984164069,
				"y": -1.3309703883,
				"z": 3.0158958703,
				"element": "C" 
			},
			{
				"x": 1.4408784678,
				"y": -1.4172990264,
				"z": 2.2508931542,
				"element": "C" 
			},
			{
				"x": -0.0165103349,
				"y": 1.396652041,
				"z": -3.5150112289,
				"element": "H" 
			},
			{
				"x": -0.8006595536,
				"y": 0.1427985237,
				"z": -2.8212090754,
				"element": "H" 
			},
			{
				"x": -0.5762798042,
				"y": 2.863389957,
				"z": -1.7433033316,
				"element": "H" 
			},
			{
				"x": -2.0757460967,
				"y": 2.22030199,
				"z": -2.4103593527,
				"element": "H" 
			},
			{
				"x": -2.169734409,
				"y": 2.0861972177,
				"z": 0.001110185,
				"element": "H" 
			},
			{
				"x": -2.1340041243,
				"y": 0.4482447578,
				"z": -0.6517182123,
				"element": "H" 
			},
			{
				"x": 3.360638182,
				"y": 1.9815129198,
				"z": 2.6234648538,
				"element": "H" 
			},
			{
				"x": 4.1874934792,
				"y": -0.0667222295,
				"z": 3.751202841,
				"element": "H" 
			},
			{
				"x": 2.9787111464,
				"y": -2.2157690601,
				"z": 3.5176250745,
				"element": "H" 
			},
			{
				"x": 0.8997924375,
				"y": -2.3510416774,
				"z": 2.137868376,
				"element": "H" 
			}
		],
		 "valence_orbital": [ 
			{
				"type": "occ",
				"energy": -0.29344,
				"method": "rhf"
			},
			{
				"type": "occ",
				"energy": -0.26667,
				"method": "rhf"
			},
			{
				"type": "occ",
				"energy": -0.23788,
				"method": "rhf"
			},
			{
				"type": "occ",
				"energy": -0.22895,
				"method": "rhf"
			},
			{
				"type": "occ",
				"energy": -0.22712,
				"method": "rhf"
			},
			{
				"type": "unocc",
				"energy": -0.02522,
				"method": "rhf"
			},
			{
				"type": "unocc",
				"energy": 0.0011,
				"method": "rhf"
			},
			{
				"type": "unocc",
				"energy": 0.01798,
				"method": "rhf"
			},
			{
				"type": "unocc",
				"energy": 0.04286,
				"method": "rhf"
			},
			{
				"type": "unocc",
				"energy": 0.07772,
				"method": "rhf"
			}
		],
		"cosmo_sigma_profile": { 
			"-0.025": 0.0,
			"-0.024": 0.0,
			"-0.023": 0.0,
			"-0.022": 0.0,
			"-0.021": 0.0,
			"-0.02": 0.0,
			"-0.019": 0.0,
			"-0.018": 0.0,
			"-0.017": 0.0,
			"-0.016": 0.0,
			"-0.015": 0.0,
			"-0.014": 0.0,
			"-0.013": 0.0,
			"-0.012": 0.0,
			"-0.011": 0.0167343268842,
			"-0.01": 1.43113164093,
			"-0.009": 3.10746098264,
			"-0.008": 2.83666812502,
			"-0.007": 5.35026591151,
			"-0.006": 12.3474323384,
			"-0.005": 18.3595052067,
			"-0.004": 17.9915546469,
			"-0.003": 19.3933356403,
			"-0.002": 17.9732548811,
			"-0.001": 13.7735384503,
			"0.0": 8.8302543762,
			"0.001": 12.6605940216,
			"0.002": 14.8618093732,
			"0.003": 16.205756699,
			"0.004": 17.0020370854,
			"0.005": 12.0237838557,
			"0.006": 3.15694683681,
			"0.007": 2.65396828768,
			"0.008": 1.49379907995,
			"0.009": 2.46347848742,
			"0.01": 3.09317710022,
			"0.011": 1.58303065354,
			"0.012": 1.69226914153,
			"0.013": 1.83046126691,
			"0.014": 1.47719542903,
			"0.015": 1.13507681993,
			"0.016": 0.367299134652,
			"0.017": 0.940215739328,
			"0.018": 0.235370185318,
			"0.019": 0.0,
			"0.02": 0.0,
			"0.021": 0.0,
			"0.022": 0.0,
			"0.023": 0.0,
			"0.024": 0.0,
			"0.025": 0.0
		}
	}
}
