{
	 "smiles": "COC1=C(SC)C=CC(CCl)=C1", 
	 "Tm": 352.15, 
	 "num_atms": 23, 
	 "gaussian": { 
		 "optdone": 1, 
		 "sigma_profile": "yes", 
		 "theory": "DFT", 
		 "functional": "B3LYP", 
		 "basiset": "6-31G**", 
		 "properties": { 
			 "R2extent": 3884.1187, 
			 "electric_dipole_moment_norm": 2.22658230703, 
			 "electric_quadrupole_moment_norm": 14.5337668221, 
			 "total_energy": -1283.17985348, 
			 "HOMO_LUMO_gap": 0.1825, 
			 "cosmo_polarized_energy": -8.47, 
			 "cosmo_cavitation_energy": 29.78, 
			 "cosmo_dispersion_energy": -21.55, 
			 "cosmo_repulsion_energy": 1.71, 
			 "cosmo_total_nonelectrostatic_energy": 9.94, 
			 "SMD_solvation_energy": 5.61 
		},
		"coords": [
			{
				"x": 2.2713697062,
				"y": -2.2214499446,
				"z": -2.1044198806,
				"element": "C" 
			},
			{
				"x": 1.5097631544,
				"y": -1.0153885736,
				"z": -1.9811730696,
				"element": "O" 
			},
			{
				"x": 0.4747781404,
				"y": -1.0835172626,
				"z": -1.0750660408,
				"element": "C" 
			},
			{
				"x": 0.6633803164,
				"y": -0.7034104874,
				"z": 0.2688064401,
				"element": "C" 
			},
			{
				"x": 2.2588635954,
				"y": -0.2090374891,
				"z": 0.909108622,
				"element": "S" 
			},
			{
				"x": 2.6395627019,
				"y": 1.2619508269,
				"z": -0.1187608182,
				"element": "C" 
			},
			{
				"x": -0.4309736354,
				"y": -0.7728696828,
				"z": 1.1419790327,
				"element": "C" 
			},
			{
				"x": -1.6783536273,
				"y": -1.2065210171,
				"z": 0.6985181628,
				"element": "C" 
			},
			{
				"x": -1.8694569603,
				"y": -1.563008593,
				"z": -0.6416489044,
				"element": "C" 
			},
			{
				"x": -3.2134974505,
				"y": -2.0105280125,
				"z": -1.1312856578,
				"element": "C" 
			},
			{
				"x": -4.2354268072,
				"y": -0.6139978232,
				"z": -1.7518810698,
				"element": "Cl" 
			},
			{
				"x": -0.7822799307,
				"y": -1.4927643718,
				"z": -1.5200457355,
				"element": "C" 
			},
			{
				"x": 1.6382893682,
				"y": -3.053192584,
				"z": -2.4388871307,
				"element": "H" 
			},
			{
				"x": 3.037622602,
				"y": -2.0261240459,
				"z": -2.8570248729,
				"element": "H" 
			},
			{
				"x": 2.7502523142,
				"y": -2.484936561,
				"z": -1.1549058264,
				"element": "H" 
			},
			{
				"x": 2.6640808537,
				"y": 0.9892101879,
				"z": -1.1734520251,
				"element": "H" 
			},
			{
				"x": 1.9073820029,
				"y": 2.0524142466,
				"z": 0.0564342762,
				"element": "H" 
			},
			{
				"x": 3.6259369787,
				"y": 1.6062567763,
				"z": 0.2006384674,
				"element": "H" 
			},
			{
				"x": -0.2931064685,
				"y": -0.4761019547,
				"z": 2.1767862841,
				"element": "H" 
			},
			{
				"x": -2.5127278235,
				"y": -1.2482544642,
				"z": 1.3931853495,
				"element": "H" 
			},
			{
				"x": -3.8042740118,
				"y": -2.4683347018,
				"z": -0.3378825268,
				"element": "H" 
			},
			{
				"x": -3.1347216294,
				"y": -2.7023326972,
				"z": -1.9699779296,
				"element": "H" 
			},
			{
				"x": -0.8980633898,
				"y": -1.7519617712,
				"z": -2.5687451466,
				"element": "H" 
			}
		],
		 "valence_orbital": [ 
			{
				"type": "occ",
				"energy": -0.29398,
				"method": "rhf"
			},
			{
				"type": "occ",
				"energy": -0.28021,
				"method": "rhf"
			},
			{
				"type": "occ",
				"energy": -0.26382,
				"method": "rhf"
			},
			{
				"type": "occ",
				"energy": -0.25372,
				"method": "rhf"
			},
			{
				"type": "occ",
				"energy": -0.22135,
				"method": "rhf"
			},
			{
				"type": "unocc",
				"energy": -0.03885,
				"method": "rhf"
			},
			{
				"type": "unocc",
				"energy": -0.01277,
				"method": "rhf"
			},
			{
				"type": "unocc",
				"energy": 0.03111,
				"method": "rhf"
			},
			{
				"type": "unocc",
				"energy": 0.04787,
				"method": "rhf"
			},
			{
				"type": "unocc",
				"energy": 0.07725,
				"method": "rhf"
			}
		],
		"cosmo_sigma_profile": { 
			"-0.025": 0.0,
			"-0.024": 0.0,
			"-0.023": 0.0,
			"-0.022": 0.0,
			"-0.021": 0.0,
			"-0.02": 0.0,
			"-0.019": 0.0,
			"-0.018": 0.0,
			"-0.017": 0.0,
			"-0.016": 0.0,
			"-0.015": 0.0,
			"-0.014": 0.0,
			"-0.013": 0.0,
			"-0.012": 0.0,
			"-0.011": 0.0,
			"-0.01": 0.0,
			"-0.009": 0.0,
			"-0.008": 2.87430190549,
			"-0.007": 9.48033630553,
			"-0.006": 12.1811231002,
			"-0.005": 16.4198624647,
			"-0.004": 18.8303846509,
			"-0.003": 20.7970734411,
			"-0.002": 19.6651384161,
			"-0.001": 17.2187234021,
			"0.0": 14.5931900329,
			"0.001": 15.4992539696,
			"0.002": 15.5151057325,
			"0.003": 19.1788487257,
			"0.004": 16.4431260259,
			"0.005": 11.6887889365,
			"0.006": 13.5177551827,
			"0.007": 10.4082374384,
			"0.008": 2.47956098528,
			"0.009": 1.7368467062,
			"0.01": 0.933942509465,
			"0.011": 0.798079780979,
			"0.012": 0.106680389675,
			"0.013": 0.0,
			"0.014": 0.0,
			"0.015": 0.0,
			"0.016": 0.0,
			"0.017": 0.0,
			"0.018": 0.0,
			"0.019": 0.0,
			"0.02": 0.0,
			"0.021": 0.0,
			"0.022": 0.0,
			"0.023": 0.0,
			"0.024": 0.0,
			"0.025": 0.0
		}
	}
}
