{
	 "smiles": "ClC1=CC=C(NN=C(/C#N)C2=NC3=C(C=CC=C3)C(=O)N2)C=C1", 
	 "Tm": 526.15, 
	 "num_atms": 33, 
	 "gaussian": { 
		 "optdone": 1, 
		 "sigma_profile": "yes", 
		 "theory": "DFT", 
		 "functional": "B3LYP", 
		 "basiset": "6-31G**", 
		 "properties": { 
			 "R2extent": 14508.0834, 
			 "electric_dipole_moment_norm": 0.979652208694, 
			 "electric_quadrupole_moment_norm": 23.4988057975, 
			 "total_energy": -1424.88858422, 
			 "HOMO_LUMO_gap": 0.12428, 
			 "cosmo_polarized_energy": -20.18, 
			 "cosmo_cavitation_energy": 42.45, 
			 "cosmo_dispersion_energy": -30.3, 
			 "cosmo_repulsion_energy": 2.28, 
			 "cosmo_total_nonelectrostatic_energy": 14.43, 
			 "SMD_solvation_energy": 6.74 
		},
		"coords": [
			{
				"x": 0.2204323005,
				"y": -2.0007960287,
				"z": 8.1848385803,
				"element": "Cl" 
			},
			{
				"x": 0.2734714403,
				"y": -1.1709954989,
				"z": 6.6405030713,
				"element": "C" 
			},
			{
				"x": 0.7703587049,
				"y": -1.8334337115,
				"z": 5.5166250767,
				"element": "C" 
			},
			{
				"x": 0.8149695938,
				"y": -1.1802930328,
				"z": 4.288715861,
				"element": "C" 
			},
			{
				"x": 0.3600376909,
				"y": 0.1407093669,
				"z": 4.187609133,
				"element": "C" 
			},
			{
				"x": 0.3828674797,
				"y": 0.8451822609,
				"z": 2.9743464752,
				"element": "N" 
			},
			{
				"x": 0.8312476784,
				"y": 0.3133206418,
				"z": 1.8564000927,
				"element": "N" 
			},
			{
				"x": 0.8328482522,
				"y": 1.0104014073,
				"z": 0.7484896473,
				"element": "C" 
			},
			{
				"x": 0.3509777639,
				"y": 2.3609391381,
				"z": 0.7202233194,
				"element": "C" 
			},
			{
				"x": -0.0756805439,
				"y": 3.4306502349,
				"z": 0.8943317451,
				"element": "N" 
			},
			{
				"x": 1.3364509836,
				"y": 0.4004582113,
				"z": -0.4871514045,
				"element": "C" 
			},
			{
				"x": 1.3314122652,
				"y": 1.1051204867,
				"z": -1.5776541553,
				"element": "N" 
			},
			{
				"x": 1.8147151664,
				"y": 0.4958236588,
				"z": -2.7254453525,
				"element": "C" 
			},
			{
				"x": 2.2992179227,
				"y": -0.8370011565,
				"z": -2.7366915033,
				"element": "C" 
			},
			{
				"x": 2.7778959775,
				"y": -1.4087164708,
				"z": -3.9237052134,
				"element": "C" 
			},
			{
				"x": 2.7792075619,
				"y": -0.6684877243,
				"z": -5.0975556692,
				"element": "C" 
			},
			{
				"x": 2.3002502443,
				"y": 0.6537443463,
				"z": -5.0937547796,
				"element": "C" 
			},
			{
				"x": 1.8237768965,
				"y": 1.2320226294,
				"z": -3.9267902652,
				"element": "C" 
			},
			{
				"x": 2.2960232701,
				"y": -1.6172847086,
				"z": -1.4912351672,
				"element": "C" 
			},
			{
				"x": 2.6804140357,
				"y": -2.7690418804,
				"z": -1.3517849499,
				"element": "O" 
			},
			{
				"x": 1.7858973671,
				"y": -0.8946853161,
				"z": -0.4043539288,
				"element": "N" 
			},
			{
				"x": -0.1374305165,
				"y": 0.7990584789,
				"z": 5.3203220356,
				"element": "C" 
			},
			{
				"x": -0.1812828778,
				"y": 0.1443123555,
				"z": 6.5475594709,
				"element": "C" 
			},
			{
				"x": 1.1210120147,
				"y": -2.8558965123,
				"z": 5.6013247411,
				"element": "H" 
			},
			{
				"x": 1.1991367611,
				"y": -1.6879528788,
				"z": 3.4129724306,
				"element": "H" 
			},
			{
				"x": 0.0374221302,
				"y": 1.8051231864,
				"z": 2.9661588666,
				"element": "H" 
			},
			{
				"x": 3.1401957929,
				"y": -2.4309797581,
				"z": -3.8917289733,
				"element": "H" 
			},
			{
				"x": 3.1492047604,
				"y": -1.1081212894,
				"z": -6.0186398416,
				"element": "H" 
			},
			{
				"x": 2.3033059439,
				"y": 1.2291145861,
				"z": -6.0150816803,
				"element": "H" 
			},
			{
				"x": 1.4506264972,
				"y": 2.2504349613,
				"z": -3.9053142376,
				"element": "H" 
			},
			{
				"x": 1.7532794754,
				"y": -1.3709576801,
				"z": 0.4894324771,
				"element": "H" 
			},
			{
				"x": -0.4910416261,
				"y": 1.8239566576,
				"z": 5.2447387348,
				"element": "H" 
			},
			{
				"x": -0.565720407,
				"y": 0.6518710388,
				"z": 7.4248953633,
				"element": "H" 
			}
		],
		 "valence_orbital": [ 
			{
				"type": "occ",
				"energy": -0.28558,
				"method": "rhf"
			},
			{
				"type": "occ",
				"energy": -0.26886,
				"method": "rhf"
			},
			{
				"type": "occ",
				"energy": -0.26576,
				"method": "rhf"
			},
			{
				"type": "occ",
				"energy": -0.24802,
				"method": "rhf"
			},
			{
				"type": "occ",
				"energy": -0.22378,
				"method": "rhf"
			},
			{
				"type": "unocc",
				"energy": -0.0995,
				"method": "rhf"
			},
			{
				"type": "unocc",
				"energy": -0.04555,
				"method": "rhf"
			},
			{
				"type": "unocc",
				"energy": -0.03509,
				"method": "rhf"
			},
			{
				"type": "unocc",
				"energy": -0.02759,
				"method": "rhf"
			},
			{
				"type": "unocc",
				"energy": -0.01281,
				"method": "rhf"
			}
		],
		"cosmo_sigma_profile": { 
			"-0.025": 0.0,
			"-0.024": 0.0,
			"-0.023": 0.0,
			"-0.022": 0.0,
			"-0.021": 0.0,
			"-0.02": 0.0,
			"-0.019": 0.0,
			"-0.018": 0.0,
			"-0.017": 0.0,
			"-0.016": 0.104163237795,
			"-0.015": 1.15847688595,
			"-0.014": 1.46631135021,
			"-0.013": 1.59491590024,
			"-0.012": 2.07172814045,
			"-0.011": 2.41130867211,
			"-0.01": 2.8017987994,
			"-0.009": 2.49788772417,
			"-0.008": 6.51947831019,
			"-0.007": 13.5724214839,
			"-0.006": 17.316097649,
			"-0.005": 17.9425746439,
			"-0.004": 21.7551232869,
			"-0.003": 23.8622923473,
			"-0.002": 21.7295800226,
			"-0.001": 21.3913999336,
			"0.0": 24.2366175184,
			"0.001": 27.8883642024,
			"0.002": 33.0817852758,
			"0.003": 31.4726519947,
			"0.004": 17.6878277483,
			"0.005": 9.48210374869,
			"0.006": 6.60735273205,
			"0.007": 5.8992137254,
			"0.008": 5.24230703538,
			"0.009": 5.45494107922,
			"0.01": 4.78979223883,
			"0.011": 5.69374936383,
			"0.012": 5.78818899409,
			"0.013": 4.5171933468,
			"0.014": 0.24067091633,
			"0.015": 0.0,
			"0.016": 0.0,
			"0.017": 0.0,
			"0.018": 0.0,
			"0.019": 0.0,
			"0.02": 0.0,
			"0.021": 0.0,
			"0.022": 0.0,
			"0.023": 0.0,
			"0.024": 0.0,
			"0.025": 0.0
		}
	}
}
