{
	 "smiles": "COCCO[Si](OCCOC)(OCCOC)C=C", 
	 "Tm": 243.15, 
	 "num_atms": 42, 
	 "gaussian": { 
		 "optdone": 1, 
		 "sigma_profile": "yes", 
		 "theory": "DFT", 
		 "functional": "B3LYP", 
		 "basiset": "6-31G**", 
		 "properties": { 
			 "R2extent": 6199.9644, 
			 "electric_dipole_moment_norm": 2.64310024782, 
			 "electric_quadrupole_moment_norm": 14.3464437238, 
			 "total_energy": -1174.51355467, 
			 "HOMO_LUMO_gap": 0.22345, 
			 "cosmo_polarized_energy": -16.04, 
			 "cosmo_cavitation_energy": 45.69, 
			 "cosmo_dispersion_energy": -27.14, 
			 "cosmo_repulsion_energy": 2.24, 
			 "cosmo_total_nonelectrostatic_energy": 20.79, 
			 "SMD_solvation_energy": 9.85 
		},
		"coords": [
			{
				"x": 1.8529580281,
				"y": 1.142539563,
				"z": 4.0962405736,
				"element": "C" 
			},
			{
				"x": 1.6895402773,
				"y": 1.7441229089,
				"z": 2.8291879747,
				"element": "O" 
			},
			{
				"x": 2.7986390983,
				"y": 1.5368752419,
				"z": 1.9795044805,
				"element": "C" 
			},
			{
				"x": 2.5771721985,
				"y": 2.2734053212,
				"z": 0.6675760509,
				"element": "C" 
			},
			{
				"x": 1.4850246306,
				"y": 1.7717309434,
				"z": -0.0861025444,
				"element": "O" 
			},
			{
				"x": 1.5123092311,
				"y": 0.5148808868,
				"z": -1.1553024248,
				"element": "Si" 
			},
			{
				"x": 0.1939086342,
				"y": 0.8538727058,
				"z": -2.0963414968,
				"element": "O" 
			},
			{
				"x": -0.2496214089,
				"y": 0.1022423224,
				"z": -3.2166718652,
				"element": "C" 
			},
			{
				"x": -1.7744488266,
				"y": 0.043217954,
				"z": -3.2284769939,
				"element": "C" 
			},
			{
				"x": -2.3288452407,
				"y": -0.8168639765,
				"z": -2.2427636348,
				"element": "O" 
			},
			{
				"x": -2.4004883943,
				"y": -2.1732160176,
				"z": -2.6419698093,
				"element": "C" 
			},
			{
				"x": 1.3700584581,
				"y": -0.9731588904,
				"z": -0.4462150596,
				"element": "O" 
			},
			{
				"x": 0.1524259906,
				"y": -1.4968759726,
				"z": 0.1011043599,
				"element": "C" 
			},
			{
				"x": -0.0127110776,
				"y": -1.1031235849,
				"z": 1.5724871502,
				"element": "C" 
			},
			{
				"x": -1.2245739136,
				"y": -1.6187769125,
				"z": 2.1026075057,
				"element": "O" 
			},
			{
				"x": -2.3563138058,
				"y": -0.8083217812,
				"z": 1.8318865571,
				"element": "C" 
			},
			{
				"x": 3.1078907914,
				"y": 0.4634430433,
				"z": -2.1099391642,
				"element": "C" 
			},
			{
				"x": 3.8998273628,
				"y": -0.6140657398,
				"z": -2.187647956,
				"element": "C" 
			},
			{
				"x": 0.951551047,
				"y": 1.3550028755,
				"z": 4.6757271618,
				"element": "H" 
			},
			{
				"x": 1.9761780158,
				"y": 0.0510794112,
				"z": 4.0204779676,
				"element": "H" 
			},
			{
				"x": 2.725400322,
				"y": 1.5510310848,
				"z": 4.6314676479,
				"element": "H" 
			},
			{
				"x": 2.9537119286,
				"y": 0.4613958646,
				"z": 1.7915809058,
				"element": "H" 
			},
			{
				"x": 3.7223242409,
				"y": 1.9279699541,
				"z": 2.4436777885,
				"element": "H" 
			},
			{
				"x": 2.361975946,
				"y": 3.3250985777,
				"z": 0.8853523822,
				"element": "H" 
			},
			{
				"x": 3.511397766,
				"y": 2.2288777956,
				"z": 0.0894997616,
				"element": "H" 
			},
			{
				"x": 0.170135364,
				"y": -0.9134330413,
				"z": -3.2182493356,
				"element": "H" 
			},
			{
				"x": 0.0873734844,
				"y": 0.5975796134,
				"z": -4.1385397481,
				"element": "H" 
			},
			{
				"x": -2.1184399894,
				"y": -0.2542917075,
				"z": -4.2325238548,
				"element": "H" 
			},
			{
				"x": -2.1581859873,
				"y": 1.046191161,
				"z": -3.0168460543,
				"element": "H" 
			},
			{
				"x": -2.8630092993,
				"y": -2.7251117233,
				"z": -1.8205415349,
				"element": "H" 
			},
			{
				"x": -1.4111354581,
				"y": -2.6111090792,
				"z": -2.8406530838,
				"element": "H" 
			},
			{
				"x": -3.0191626908,
				"y": -2.2921449514,
				"z": -3.5448710453,
				"element": "H" 
			},
			{
				"x": 0.2010790118,
				"y": -2.5884475501,
				"z": 0.0231000097,
				"element": "H" 
			},
			{
				"x": -0.7055853982,
				"y": -1.1499618594,
				"z": -0.483076899,
				"element": "H" 
			},
			{
				"x": 0.800976112,
				"y": -1.5434111311,
				"z": 2.1601574942,
				"element": "H" 
			},
			{
				"x": 0.0450403968,
				"y": -0.0110941883,
				"z": 1.6854129799,
				"element": "H" 
			},
			{
				"x": -3.2123956802,
				"y": -1.2892292272,
				"z": 2.3128121503,
				"element": "H" 
			},
			{
				"x": -2.5656118075,
				"y": -0.7113865181,
				"z": 0.7571743511,
				"element": "H" 
			},
			{
				"x": -2.2357958902,
				"y": 0.2023891637,
				"z": 2.2507683468,
				"element": "H" 
			},
			{
				"x": 3.411647498,
				"y": 1.3626915074,
				"z": -2.6499667059,
				"element": "H" 
			},
			{
				"x": 4.8242542793,
				"y": -0.6195426711,
				"z": -2.7632643532,
				"element": "H" 
			},
			{
				"x": 3.6480247549,
				"y": -1.5374713762,
				"z": -1.6718400362,
				"element": "H" 
			}
		],
		 "valence_orbital": [ 
			{
				"type": "occ",
				"energy": -0.27581,
				"method": "rhf"
			},
			{
				"type": "occ",
				"energy": -0.27031,
				"method": "rhf"
			},
			{
				"type": "occ",
				"energy": -0.2545,
				"method": "rhf"
			},
			{
				"type": "occ",
				"energy": -0.25307,
				"method": "rhf"
			},
			{
				"type": "occ",
				"energy": -0.23492,
				"method": "rhf"
			},
			{
				"type": "unocc",
				"energy": -0.01147,
				"method": "rhf"
			},
			{
				"type": "unocc",
				"energy": 0.07004,
				"method": "rhf"
			},
			{
				"type": "unocc",
				"energy": 0.07705,
				"method": "rhf"
			},
			{
				"type": "unocc",
				"energy": 0.0842,
				"method": "rhf"
			},
			{
				"type": "unocc",
				"energy": 0.09635,
				"method": "rhf"
			}
		],
		"cosmo_sigma_profile": { 
			"-0.025": 0.0,
			"-0.024": 0.0,
			"-0.023": 0.0,
			"-0.022": 0.0,
			"-0.021": 0.0,
			"-0.02": 0.0,
			"-0.019": 0.0,
			"-0.018": 0.0,
			"-0.017": 0.0,
			"-0.016": 0.0,
			"-0.015": 0.0,
			"-0.014": 0.0,
			"-0.013": 0.0,
			"-0.012": 0.0,
			"-0.011": 0.0,
			"-0.01": 0.0,
			"-0.009": 0.0,
			"-0.008": 0.0,
			"-0.007": 0.0,
			"-0.006": 2.54662375035,
			"-0.005": 26.697575917,
			"-0.004": 49.3626834458,
			"-0.003": 52.8219759634,
			"-0.002": 52.2963295099,
			"-0.001": 33.0639221834,
			"0.0": 21.5601038197,
			"0.001": 16.396521819,
			"0.002": 14.2663313256,
			"0.003": 11.815270118,
			"0.004": 11.3451649112,
			"0.005": 8.44753413739,
			"0.006": 6.41810240202,
			"0.007": 7.92363534222,
			"0.008": 7.22738014181,
			"0.009": 5.67325284867,
			"0.01": 4.15794525221,
			"0.011": 5.23859831531,
			"0.012": 5.57928979068,
			"0.013": 5.35503470867,
			"0.014": 2.4756573424,
			"0.015": 0.0120539113645,
			"0.016": 0.0,
			"0.017": 0.0,
			"0.018": 0.0,
			"0.019": 0.0,
			"0.02": 0.0,
			"0.021": 0.0,
			"0.022": 0.0,
			"0.023": 0.0,
			"0.024": 0.0,
			"0.025": 0.0
		}
	}
}
