{
	 "smiles": "CC1=CC(=CC=C1)C1(CCC1)C(O)=O", 
	 "Tm": 369.15, 
	 "num_atms": 28, 
	 "gaussian": { 
		 "optdone": 1, 
		 "sigma_profile": "yes", 
		 "theory": "DFT", 
		 "functional": "B3LYP", 
		 "basiset": "6-31G**", 
		 "properties": { 
			 "R2extent": 3123.6094, 
			 "electric_dipole_moment_norm": 1.2965812354, 
			 "electric_quadrupole_moment_norm": 5.72974820651, 
			 "total_energy": -616.161583443, 
			 "HOMO_LUMO_gap": 0.22276, 
			 "cosmo_polarized_energy": -9.27, 
			 "cosmo_cavitation_energy": 30.57, 
			 "cosmo_dispersion_energy": -21.53, 
			 "cosmo_repulsion_energy": 1.72, 
			 "cosmo_total_nonelectrostatic_energy": 10.76, 
			 "SMD_solvation_energy": 6.03 
		},
		"coords": [
			{
				"x": -1.6356713395,
				"y": 0.3824211879,
				"z": 3.5394378404,
				"element": "C" 
			},
			{
				"x": -1.2968463172,
				"y": -0.6112421028,
				"z": 2.4523702286,
				"element": "C" 
			},
			{
				"x": -0.6448571406,
				"y": -0.2020545122,
				"z": 1.2837173746,
				"element": "C" 
			},
			{
				"x": -0.3026270119,
				"y": -1.1118826099,
				"z": 0.2741481345,
				"element": "C" 
			},
			{
				"x": -0.6105421751,
				"y": -2.4651171246,
				"z": 0.4498406492,
				"element": "C" 
			},
			{
				"x": -1.2647344894,
				"y": -2.8880536477,
				"z": 1.6077198196,
				"element": "C" 
			},
			{
				"x": -1.6081597383,
				"y": -1.9700962003,
				"z": 2.5992292008,
				"element": "C" 
			},
			{
				"x": 0.4163177773,
				"y": -0.6164088819,
				"z": -0.9724350941,
				"element": "C" 
			},
			{
				"x": -0.0951834837,
				"y": 0.6913637476,
				"z": -1.6484847704,
				"element": "C" 
			},
			{
				"x": 0.105274426,
				"y": 0.0232799441,
				"z": -3.0337735423,
				"element": "C" 
			},
			{
				"x": 0.1722633666,
				"y": -1.3569841393,
				"z": -2.3301756611,
				"element": "C" 
			},
			{
				"x": 1.9045485146,
				"y": -0.5095079613,
				"z": -0.6458526786,
				"element": "C" 
			},
			{
				"x": 2.4908522395,
				"y": -1.728250032,
				"z": -0.5555060876,
				"element": "O" 
			},
			{
				"x": 2.5203272815,
				"y": 0.5181335277,
				"z": -0.4603426247,
				"element": "O" 
			},
			{
				"x": -0.8821898576,
				"y": 0.3691260449,
				"z": 4.336925285,
				"element": "H" 
			},
			{
				"x": -1.6796006035,
				"y": 1.4034849652,
				"z": 3.1497628987,
				"element": "H" 
			},
			{
				"x": -2.6005790996,
				"y": 0.1546436999,
				"z": 4.0036333796,
				"element": "H" 
			},
			{
				"x": -0.3984159762,
				"y": 0.8492787749,
				"z": 1.1546271617,
				"element": "H" 
			},
			{
				"x": -0.3410858142,
				"y": -3.1864408668,
				"z": -0.3154747754,
				"element": "H" 
			},
			{
				"x": -1.5108017389,
				"y": -3.9387727744,
				"z": 1.7347935068,
				"element": "H" 
			},
			{
				"x": -2.1234316815,
				"y": -2.3085265999,
				"z": 3.494966897,
				"element": "H" 
			},
			{
				"x": -1.1507490244,
				"y": 0.8585048863,
				"z": -1.4187599844,
				"element": "H" 
			},
			{
				"x": 0.4762470148,
				"y": 1.5956124149,
				"z": -1.4319556623,
				"element": "H" 
			},
			{
				"x": 1.0611548272,
				"y": 0.3020384554,
				"z": -3.4872952961,
				"element": "H" 
			},
			{
				"x": -0.6849941638,
				"y": 0.1635911881,
				"z": -3.7756120152,
				"element": "H" 
			},
			{
				"x": -0.7987012552,
				"y": -1.8599617556,
				"z": -2.3205953884,
				"element": "H" 
			},
			{
				"x": 0.9358146457,
				"y": -2.0672777771,
				"z": -2.6552576296,
				"element": "H" 
			},
			{
				"x": 3.4149708174,
				"y": -1.5631018511,
				"z": -0.3042511663,
				"element": "H" 
			}
		],
		 "valence_orbital": [ 
			{
				"type": "occ",
				"energy": -0.30891,
				"method": "rhf"
			},
			{
				"type": "occ",
				"energy": -0.30446,
				"method": "rhf"
			},
			{
				"type": "occ",
				"energy": -0.27368,
				"method": "rhf"
			},
			{
				"type": "occ",
				"energy": -0.24184,
				"method": "rhf"
			},
			{
				"type": "occ",
				"energy": -0.23384,
				"method": "rhf"
			},
			{
				"type": "unocc",
				"energy": -0.01108,
				"method": "rhf"
			},
			{
				"type": "unocc",
				"energy": 0.00182,
				"method": "rhf"
			},
			{
				"type": "unocc",
				"energy": 0.0243,
				"method": "rhf"
			},
			{
				"type": "unocc",
				"energy": 0.0753,
				"method": "rhf"
			},
			{
				"type": "unocc",
				"energy": 0.10006,
				"method": "rhf"
			}
		],
		"cosmo_sigma_profile": { 
			"-0.025": 0.0,
			"-0.024": 0.0,
			"-0.023": 0.0,
			"-0.022": 0.0,
			"-0.021": 0.0,
			"-0.02": 0.0,
			"-0.019": 0.0,
			"-0.018": 0.776604010376,
			"-0.017": 0.694790073274,
			"-0.016": 1.08305616671,
			"-0.015": 0.924998240643,
			"-0.014": 0.103042838183,
			"-0.013": 0.315629223961,
			"-0.012": 1.02150282741,
			"-0.011": 1.30071980328,
			"-0.01": 0.903349157214,
			"-0.009": 0.395340966051,
			"-0.008": 0.382516043311,
			"-0.007": 0.845031700647,
			"-0.006": 1.94932731734,
			"-0.005": 7.68478078965,
			"-0.004": 18.8202887331,
			"-0.003": 29.3378062655,
			"-0.002": 27.1765253384,
			"-0.001": 28.0339631865,
			"0.0": 27.1290812319,
			"0.001": 20.8303955114,
			"0.002": 12.2522465121,
			"0.003": 9.39373740482,
			"0.004": 9.8242209128,
			"0.005": 9.08516764194,
			"0.006": 10.4119822936,
			"0.007": 4.57777329064,
			"0.008": 3.27626048418,
			"0.009": 1.98022022576,
			"0.01": 2.01475070311,
			"0.011": 3.75303772607,
			"0.012": 3.91831249424,
			"0.013": 0.122173750848,
			"0.014": 0.0,
			"0.015": 0.0,
			"0.016": 0.0,
			"0.017": 0.0,
			"0.018": 0.0,
			"0.019": 0.0,
			"0.02": 0.0,
			"0.021": 0.0,
			"0.022": 0.0,
			"0.023": 0.0,
			"0.024": 0.0,
			"0.025": 0.0
		}
	}
}
