{
	 "smiles": "FC(F)(F)C(=O)C(F)(F)Cl", 
	 "Tm": 140.15, 
	 "num_atms": 10, 
	 "gaussian": { 
		 "optdone": 1, 
		 "sigma_profile": "yes", 
		 "theory": "DFT", 
		 "functional": "B3LYP", 
		 "basiset": "6-31G**", 
		 "properties": { 
			 "R2extent": 1831.658, 
			 "electric_dipole_moment_norm": 0.658507236103, 
			 "electric_quadrupole_moment_norm": 3.34764962922, 
			 "total_energy": -1148.89637121, 
			 "HOMO_LUMO_gap": 0.21032, 
			 "cosmo_polarized_energy": -2.78, 
			 "cosmo_cavitation_energy": 19.35, 
			 "cosmo_dispersion_energy": -13.42, 
			 "cosmo_repulsion_energy": 1.02, 
			 "cosmo_total_nonelectrostatic_energy": 6.95, 
			 "SMD_solvation_energy": 5.83 
		},
		"coords": [
			{
				"x": 0.2919657939,
				"y": 2.2085034108,
				"z": -2.5281138032,
				"element": "F" 
			},
			{
				"x": 0.0445303906,
				"y": 2.0078070609,
				"z": -1.2348942261,
				"element": "C" 
			},
			{
				"x": 0.7745853643,
				"y": 2.8694200236,
				"z": -0.5086581538,
				"element": "F" 
			},
			{
				"x": -1.2576594691,
				"y": 2.2419052321,
				"z": -0.9966140002,
				"element": "F" 
			},
			{
				"x": 0.3693020783,
				"y": 0.54166417,
				"z": -0.8499179019,
				"element": "C" 
			},
			{
				"x": 0.4963644596,
				"y": -0.3173203845,
				"z": -1.6767387613,
				"element": "O" 
			},
			{
				"x": 0.4860010538,
				"y": 0.2309808882,
				"z": 0.6639614795,
				"element": "C" 
			},
			{
				"x": -0.3189621102,
				"y": 1.0410087743,
				"z": 1.3742440398,
				"element": "F" 
			},
			{
				"x": 0.1316676254,
				"y": -1.0369228115,
				"z": 0.8864536485,
				"element": "F" 
			},
			{
				"x": 2.1870048136,
				"y": 0.4746536362,
				"z": 1.1839776788,
				"element": "Cl" 
			}
		],
		 "valence_orbital": [ 
			{
				"type": "occ",
				"energy": -0.43099,
				"method": "rhf"
			},
			{
				"type": "occ",
				"energy": -0.41759,
				"method": "rhf"
			},
			{
				"type": "occ",
				"energy": -0.35946,
				"method": "rhf"
			},
			{
				"type": "occ",
				"energy": -0.35385,
				"method": "rhf"
			},
			{
				"type": "occ",
				"energy": -0.31519,
				"method": "rhf"
			},
			{
				"type": "unocc",
				"energy": -0.10487,
				"method": "rhf"
			},
			{
				"type": "unocc",
				"energy": -0.00721,
				"method": "rhf"
			},
			{
				"type": "unocc",
				"energy": 0.07212,
				"method": "rhf"
			},
			{
				"type": "unocc",
				"energy": 0.13279,
				"method": "rhf"
			},
			{
				"type": "unocc",
				"energy": 0.14326,
				"method": "rhf"
			}
		],
		"cosmo_sigma_profile": { 
			"-0.025": 0.0,
			"-0.024": 0.0,
			"-0.023": 0.0,
			"-0.022": 0.0,
			"-0.021": 0.0,
			"-0.02": 0.0,
			"-0.019": 0.0,
			"-0.018": 0.0,
			"-0.017": 0.0,
			"-0.016": 0.0,
			"-0.015": 0.0,
			"-0.014": 0.0,
			"-0.013": 0.0,
			"-0.012": 0.0946226487384,
			"-0.011": 0.436092780101,
			"-0.01": 0.904149770026,
			"-0.009": 1.50836331941,
			"-0.008": 1.85661055715,
			"-0.007": 1.67142960503,
			"-0.006": 1.80553554493,
			"-0.005": 3.77227976282,
			"-0.004": 5.50439649032,
			"-0.003": 8.22318729576,
			"-0.002": 9.25194263252,
			"-0.001": 11.4783620576,
			"0.0": 30.0305565551,
			"0.001": 51.7112920252,
			"0.002": 14.728827899,
			"0.003": 3.24133743297,
			"0.004": 2.5414509106,
			"0.005": 2.52071528717,
			"0.006": 3.68786335934,
			"0.007": 3.37224444258,
			"0.008": 0.149571121543,
			"0.009": 0.0,
			"0.01": 0.0,
			"0.011": 0.0,
			"0.012": 0.0,
			"0.013": 0.0,
			"0.014": 0.0,
			"0.015": 0.0,
			"0.016": 0.0,
			"0.017": 0.0,
			"0.018": 0.0,
			"0.019": 0.0,
			"0.02": 0.0,
			"0.021": 0.0,
			"0.022": 0.0,
			"0.023": 0.0,
			"0.024": 0.0,
			"0.025": 0.0
		}
	}
}
