{
	 "smiles": "O=NN(C1=CC=CC=C1)C1=CC=CC=C1", 
	 "Tm": 339.65, 
	 "num_atms": 25, 
	 "gaussian": { 
		 "optdone": 1, 
		 "sigma_profile": "yes", 
		 "theory": "DFT", 
		 "functional": "B3LYP", 
		 "basiset": "6-31G**", 
		 "properties": { 
			 "R2extent": 3750.2399, 
			 "electric_dipole_moment_norm": 3.50589807182, 
			 "electric_quadrupole_moment_norm": 15.2889829168, 
			 "total_energy": -647.947048416, 
			 "HOMO_LUMO_gap": 0.16995, 
			 "cosmo_polarized_energy": -9.01, 
			 "cosmo_cavitation_energy": 29.67, 
			 "cosmo_dispersion_energy": -21.08, 
			 "cosmo_repulsion_energy": 1.65, 
			 "cosmo_total_nonelectrostatic_energy": 10.25, 
			 "SMD_solvation_energy": 5.81 
		},
		"coords": [
			{
				"x": 1.2246805194,
				"y": 1.6298068815,
				"z": 3.02386944,
				"element": "O" 
			},
			{
				"x": 0.5972278721,
				"y": 1.9123014885,
				"z": 2.0195718678,
				"element": "N" 
			},
			{
				"x": 0.8346490797,
				"y": 1.1103814031,
				"z": 0.9313751132,
				"element": "N" 
			},
			{
				"x": 0.0622341099,
				"y": 1.40586111,
				"z": -0.2296545535,
				"element": "C" 
			},
			{
				"x": -1.2228672157,
				"y": 1.9514936793,
				"z": -0.1024979588,
				"element": "C" 
			},
			{
				"x": -1.9539277268,
				"y": 2.2653338502,
				"z": -1.2466467708,
				"element": "C" 
			},
			{
				"x": -1.4285623076,
				"y": 2.021369848,
				"z": -2.517274728,
				"element": "C" 
			},
			{
				"x": -0.1534533463,
				"y": 1.4661826897,
				"z": -2.6373322576,
				"element": "C" 
			},
			{
				"x": 0.5967276365,
				"y": 1.1639093311,
				"z": -1.5019486763,
				"element": "C" 
			},
			{
				"x": 1.7586319317,
				"y": 0.0132014334,
				"z": 0.9730068641,
				"element": "C" 
			},
			{
				"x": 1.3050180738,
				"y": -1.2750557718,
				"z": 0.670947775,
				"element": "C" 
			},
			{
				"x": 2.1952309059,
				"y": -2.3474207404,
				"z": 0.7076874273,
				"element": "C" 
			},
			{
				"x": 3.5307428815,
				"y": -2.1385011579,
				"z": 1.058401767,
				"element": "C" 
			},
			{
				"x": 3.9756485253,
				"y": -0.8514285717,
				"z": 1.3678412094,
				"element": "C" 
			},
			{
				"x": 3.0949943953,
				"y": 0.2287631895,
				"z": 1.3240819118,
				"element": "C" 
			},
			{
				"x": -1.6328507531,
				"y": 2.1276443014,
				"z": 0.8842881716,
				"element": "H" 
			},
			{
				"x": -2.9480199309,
				"y": 2.6897256112,
				"z": -1.1405081036,
				"element": "H" 
			},
			{
				"x": -2.0086541683,
				"y": 2.25724994,
				"z": -3.404177803,
				"element": "H" 
			},
			{
				"x": 0.2680127754,
				"y": 1.2736768244,
				"z": -3.6196005089,
				"element": "H" 
			},
			{
				"x": 1.5931006047,
				"y": 0.7467916814,
				"z": -1.597640525,
				"element": "H" 
			},
			{
				"x": 0.2633920199,
				"y": -1.4279014619,
				"z": 0.4073564054,
				"element": "H" 
			},
			{
				"x": 1.842734322,
				"y": -3.3462246679,
				"z": 0.4682289358,
				"element": "H" 
			},
			{
				"x": 4.2218664995,
				"y": -2.975471365,
				"z": 1.0911905655,
				"element": "H" 
			},
			{
				"x": 5.0129149382,
				"y": -0.6847249981,
				"z": 1.6423522356,
				"element": "H" 
			},
			{
				"x": 3.4347283579,
				"y": 1.229535472,
				"z": 1.5631821959,
				"element": "H" 
			}
		],
		 "valence_orbital": [ 
			{
				"type": "occ",
				"energy": -0.27006,
				"method": "rhf"
			},
			{
				"type": "occ",
				"energy": -0.26307,
				"method": "rhf"
			},
			{
				"type": "occ",
				"energy": -0.25828,
				"method": "rhf"
			},
			{
				"type": "occ",
				"energy": -0.2293,
				"method": "rhf"
			},
			{
				"type": "occ",
				"energy": -0.2246,
				"method": "rhf"
			},
			{
				"type": "unocc",
				"energy": -0.05465,
				"method": "rhf"
			},
			{
				"type": "unocc",
				"energy": -0.02156,
				"method": "rhf"
			},
			{
				"type": "unocc",
				"energy": -0.01616,
				"method": "rhf"
			},
			{
				"type": "unocc",
				"energy": -0.00485,
				"method": "rhf"
			},
			{
				"type": "unocc",
				"energy": 0.01548,
				"method": "rhf"
			}
		],
		"cosmo_sigma_profile": { 
			"-0.025": 0.0,
			"-0.024": 0.0,
			"-0.023": 0.0,
			"-0.022": 0.0,
			"-0.021": 0.0,
			"-0.02": 0.0,
			"-0.019": 0.0,
			"-0.018": 0.0,
			"-0.017": 0.0,
			"-0.016": 0.0,
			"-0.015": 0.0,
			"-0.014": 0.0,
			"-0.013": 0.0,
			"-0.012": 0.0,
			"-0.011": 0.0,
			"-0.01": 0.0,
			"-0.009": 0.0,
			"-0.008": 0.00962226945604,
			"-0.007": 3.98007041842,
			"-0.006": 18.646451487,
			"-0.005": 21.8431719726,
			"-0.004": 22.6951420326,
			"-0.003": 17.4319219715,
			"-0.002": 17.9145667084,
			"-0.001": 15.0592051086,
			"0.0": 14.5064229827,
			"0.001": 15.2883432204,
			"0.002": 17.1164327891,
			"0.003": 17.0015272002,
			"0.004": 21.5465427028,
			"0.005": 12.1357631232,
			"0.006": 3.14703381512,
			"0.007": 4.11669922552,
			"0.008": 4.46468404614,
			"0.009": 6.19020290103,
			"0.01": 3.15876170321,
			"0.011": 1.74277715473,
			"0.012": 0.449522157223,
			"0.013": 0.0,
			"0.014": 0.0,
			"0.015": 0.0,
			"0.016": 0.0,
			"0.017": 0.0,
			"0.018": 0.0,
			"0.019": 0.0,
			"0.02": 0.0,
			"0.021": 0.0,
			"0.022": 0.0,
			"0.023": 0.0,
			"0.024": 0.0,
			"0.025": 0.0
		}
	}
}
