{
	 "smiles": "CC(O)CCNC1=C(N)C=C2C(=O)NC=NC2=C1", 
	 "Tm": 483.15, 
	 "num_atms": 34, 
	 "gaussian": { 
		 "optdone": 1, 
		 "sigma_profile": "yes", 
		 "theory": "DFT", 
		 "functional": "B3LYP", 
		 "basiset": "6-31G**", 
		 "properties": { 
			 "R2extent": 5673.015, 
			 "electric_dipole_moment_norm": 2.42596838809, 
			 "electric_quadrupole_moment_norm": 26.5128165627, 
			 "total_energy": -836.409317231, 
			 "HOMO_LUMO_gap": 0.17188, 
			 "cosmo_polarized_energy": -22.88, 
			 "cosmo_cavitation_energy": 36.33, 
			 "cosmo_dispersion_energy": -26.16, 
			 "cosmo_repulsion_energy": 2.03, 
			 "cosmo_total_nonelectrostatic_energy": 12.19, 
			 "SMD_solvation_energy": 4.84 
		},
		"coords": [
			{
				"x": 0.2021235936,
				"y": -4.1800112045,
				"z": 1.7104579133,
				"element": "C" 
			},
			{
				"x": -0.2483894244,
				"y": -2.889444176,
				"z": 1.0240496942,
				"element": "C" 
			},
			{
				"x": -1.4373283441,
				"y": -2.3754668405,
				"z": 1.6379493594,
				"element": "O" 
			},
			{
				"x": -0.5914297584,
				"y": -3.1067994819,
				"z": -0.4508974602,
				"element": "C" 
			},
			{
				"x": -1.0162615383,
				"y": -1.8392406696,
				"z": -1.2155840011,
				"element": "C" 
			},
			{
				"x": 0.0403162482,
				"y": -0.8746638311,
				"z": -1.4912884122,
				"element": "N" 
			},
			{
				"x": 0.424874852,
				"y": 0.1638645557,
				"z": -0.6620959972,
				"element": "C" 
			},
			{
				"x": 1.5183246886,
				"y": 0.975474612,
				"z": -1.1171535838,
				"element": "C" 
			},
			{
				"x": 2.1178423501,
				"y": 0.6206948591,
				"z": -2.3491310568,
				"element": "N" 
			},
			{
				"x": 1.9697519374,
				"y": 2.0196207968,
				"z": -0.3333102068,
				"element": "C" 
			},
			{
				"x": 1.3646951169,
				"y": 2.313785301,
				"z": 0.9014823768,
				"element": "C" 
			},
			{
				"x": 1.853726992,
				"y": 3.419727075,
				"z": 1.714951229,
				"element": "C" 
			},
			{
				"x": 2.7885848024,
				"y": 4.1724108501,
				"z": 1.4612914891,
				"element": "O" 
			},
			{
				"x": 1.1174055872,
				"y": 3.5726353546,
				"z": 2.9040144186,
				"element": "N" 
			},
			{
				"x": 0.0655160586,
				"y": 2.7662776547,
				"z": 3.2610939352,
				"element": "C" 
			},
			{
				"x": -0.3837675813,
				"y": 1.7856429624,
				"z": 2.5537732106,
				"element": "N" 
			},
			{
				"x": 0.2603097335,
				"y": 1.5447551742,
				"z": 1.3398418135,
				"element": "C" 
			},
			{
				"x": -0.1975985078,
				"y": 0.4793968159,
				"z": 0.5471815036,
				"element": "C" 
			},
			{
				"x": -0.5841291337,
				"y": -4.9395833669,
				"z": 1.6501618347,
				"element": "H" 
			},
			{
				"x": 0.4206803654,
				"y": -4.0011610222,
				"z": 2.7692649038,
				"element": "H" 
			},
			{
				"x": 1.1107477166,
				"y": -4.579354705,
				"z": 1.2467705079,
				"element": "H" 
			},
			{
				"x": 0.5581065529,
				"y": -2.1445434966,
				"z": 1.0941993429,
				"element": "H" 
			},
			{
				"x": -1.2039369274,
				"y": -2.0368700355,
				"z": 2.5120085126,
				"element": "H" 
			},
			{
				"x": 0.2684820344,
				"y": -3.5672268644,
				"z": -0.9542107528,
				"element": "H" 
			},
			{
				"x": -1.4166875941,
				"y": -3.8296568244,
				"z": -0.505229346,
				"element": "H" 
			},
			{
				"x": -1.8190022534,
				"y": -1.3358463732,
				"z": -0.6731243818,
				"element": "H" 
			},
			{
				"x": -1.434642824,
				"y": -2.1450836537,
				"z": -2.1824061241,
				"element": "H" 
			},
			{
				"x": 0.7900114704,
				"y": -1.2041199486,
				"z": -2.0875274988,
				"element": "H" 
			},
			{
				"x": 1.4425674306,
				"y": 0.6059759093,
				"z": -3.1101436747,
				"element": "H" 
			},
			{
				"x": 2.8809473939,
				"y": 1.2410397079,
				"z": -2.5946491701,
				"element": "H" 
			},
			{
				"x": 2.7953630769,
				"y": 2.6452014583,
				"z": -0.6609241915,
				"element": "H" 
			},
			{
				"x": 1.4168564413,
				"y": 4.3277119342,
				"z": 3.5080749577,
				"element": "H" 
			},
			{
				"x": -0.3985261507,
				"y": 3.0008935463,
				"z": 4.2175419965,
				"element": "H" 
			},
			{
				"x": -1.0122344052,
				"y": -0.1227360732,
				"z": 0.9303668585,
				"element": "H" 
			}
		],
		 "valence_orbital": [ 
			{
				"type": "occ",
				"energy": -0.26489,
				"method": "rhf"
			},
			{
				"type": "occ",
				"energy": -0.25684,
				"method": "rhf"
			},
			{
				"type": "occ",
				"energy": -0.24756,
				"method": "rhf"
			},
			{
				"type": "occ",
				"energy": -0.21268,
				"method": "rhf"
			},
			{
				"type": "occ",
				"energy": -0.18977,
				"method": "rhf"
			},
			{
				"type": "unocc",
				"energy": -0.01789,
				"method": "rhf"
			},
			{
				"type": "unocc",
				"energy": -0.01748,
				"method": "rhf"
			},
			{
				"type": "unocc",
				"energy": 0.0413,
				"method": "rhf"
			},
			{
				"type": "unocc",
				"energy": 0.06868,
				"method": "rhf"
			},
			{
				"type": "unocc",
				"energy": 0.07457,
				"method": "rhf"
			}
		],
		"cosmo_sigma_profile": { 
			"-0.025": 0.0,
			"-0.024": 0.0,
			"-0.023": 0.0,
			"-0.022": 0.0,
			"-0.021": 0.0,
			"-0.02": 0.0,
			"-0.019": 0.0,
			"-0.018": 0.0,
			"-0.017": 0.0,
			"-0.016": 1.01644799887,
			"-0.015": 2.11530939813,
			"-0.014": 1.89089489709,
			"-0.013": 1.89225964898,
			"-0.012": 3.90911693111,
			"-0.011": 4.97362939279,
			"-0.01": 5.49912947093,
			"-0.009": 9.30259465381,
			"-0.008": 7.91098937502,
			"-0.007": 5.90418364009,
			"-0.006": 6.68912348292,
			"-0.005": 7.53883178312,
			"-0.004": 14.0971280581,
			"-0.003": 21.9913866167,
			"-0.002": 24.2692107491,
			"-0.001": 23.9014265071,
			"0.0": 22.3245320121,
			"0.001": 17.6372730895,
			"0.002": 11.2630275862,
			"0.003": 12.3898702246,
			"0.004": 17.7928839955,
			"0.005": 13.1330319254,
			"0.006": 5.35247524907,
			"0.007": 5.56039256622,
			"0.008": 6.15465106698,
			"0.009": 4.20084617851,
			"0.01": 2.81151688538,
			"0.011": 4.21353982015,
			"0.012": 3.82247156135,
			"0.013": 7.21429536069,
			"0.014": 7.10342341461,
			"0.015": 1.05495354239,
			"0.016": 0.683697326547,
			"0.017": 0.0,
			"0.018": 0.0,
			"0.019": 0.0,
			"0.02": 0.0,
			"0.021": 0.0,
			"0.022": 0.0,
			"0.023": 0.0,
			"0.024": 0.0,
			"0.025": 0.0
		}
	}
}
