{
	 "smiles": "CC(C)COC(=O)C1=C(C)NC(=O)NC1C1=CC=CO1", 
	 "Tm": 443.15, 
	 "num_atms": 38, 
	 "gaussian": { 
		 "optdone": 1, 
		 "sigma_profile": "yes", 
		 "theory": "DFT", 
		 "functional": "B3LYP", 
		 "basiset": "6-31G**", 
		 "properties": { 
			 "R2extent": 6642.4595, 
			 "electric_dipole_moment_norm": 3.66349834721, 
			 "electric_quadrupole_moment_norm": 12.5124457445, 
			 "total_energy": -954.753209441, 
			 "HOMO_LUMO_gap": 0.17942, 
			 "cosmo_polarized_energy": -17.87, 
			 "cosmo_cavitation_energy": 41.32, 
			 "cosmo_dispersion_energy": -27.84, 
			 "cosmo_repulsion_energy": 2.18, 
			 "cosmo_total_nonelectrostatic_energy": 15.66, 
			 "SMD_solvation_energy": 8.77 
		},
		"coords": [
			{
				"x": 4.5548904827,
				"y": 0.1560867208,
				"z": -0.8506102645,
				"element": "C" 
			},
			{
				"x": 3.8680626491,
				"y": -1.1265636368,
				"z": -1.3429932058,
				"element": "C" 
			},
			{
				"x": 3.6779417416,
				"y": -2.1447676196,
				"z": -0.2088785363,
				"element": "C" 
			},
			{
				"x": 2.561172117,
				"y": -0.842447688,
				"z": -2.0814310509,
				"element": "C" 
			},
			{
				"x": 1.6095545726,
				"y": -0.25979263,
				"z": -1.1593633937,
				"element": "O" 
			},
			{
				"x": 0.3731190686,
				"y": -0.0339553462,
				"z": -1.6754860405,
				"element": "C" 
			},
			{
				"x": 0.1017132461,
				"y": -0.3129723841,
				"z": -2.8342779512,
				"element": "O" 
			},
			{
				"x": -0.6167736305,
				"y": 0.5477872277,
				"z": -0.7546353274,
				"element": "C" 
			},
			{
				"x": -0.4192671545,
				"y": 1.0203689627,
				"z": 0.507946108,
				"element": "C" 
			},
			{
				"x": 0.853134812,
				"y": 1.0169022869,
				"z": 1.3114748363,
				"element": "C" 
			},
			{
				"x": -1.4909605934,
				"y": 1.5724134016,
				"z": 1.1890132461,
				"element": "N" 
			},
			{
				"x": -2.7095914154,
				"y": 1.9549563767,
				"z": 0.6152557358,
				"element": "C" 
			},
			{
				"x": -3.5446363109,
				"y": 2.5747220976,
				"z": 1.2554610069,
				"element": "O" 
			},
			{
				"x": -2.8148251689,
				"y": 1.6303625824,
				"z": -0.709215449,
				"element": "N" 
			},
			{
				"x": -2.0272254623,
				"y": 0.5652139452,
				"z": -1.3412096623,
				"element": "C" 
			},
			{
				"x": -2.7040994564,
				"y": -0.7760319255,
				"z": -1.2479117443,
				"element": "C" 
			},
			{
				"x": -3.0510506034,
				"y": -1.7102892901,
				"z": -2.1790343141,
				"element": "C" 
			},
			{
				"x": -3.6602515385,
				"y": -2.7935314511,
				"z": -1.4626880136,
				"element": "C" 
			},
			{
				"x": -3.6395895571,
				"y": -2.4358316071,
				"z": -0.1498735092,
				"element": "C" 
			},
			{
				"x": -3.0583666328,
				"y": -1.2108269227,
				"z": 0.0015844677,
				"element": "O" 
			},
			{
				"x": 3.9622611618,
				"y": 0.653254195,
				"z": -0.0760447571,
				"element": "H" 
			},
			{
				"x": 4.7025009003,
				"y": 0.8696012031,
				"z": -1.6685716891,
				"element": "H" 
			},
			{
				"x": 5.5364463887,
				"y": -0.0702904261,
				"z": -0.4216361689,
				"element": "H" 
			},
			{
				"x": 4.5202047942,
				"y": -1.5834819058,
				"z": -2.1020985807,
				"element": "H" 
			},
			{
				"x": 3.2394705324,
				"y": -3.077238658,
				"z": -0.5805565056,
				"element": "H" 
			},
			{
				"x": 4.6364341924,
				"y": -2.3880625569,
				"z": 0.2609019329,
				"element": "H" 
			},
			{
				"x": 3.0133002241,
				"y": -1.7491111596,
				"z": 0.5652294122,
				"element": "H" 
			},
			{
				"x": 2.7152771301,
				"y": -0.1477605956,
				"z": -2.9140723694,
				"element": "H" 
			},
			{
				"x": 2.1293067896,
				"y": -1.7598145326,
				"z": -2.4932678627,
				"element": "H" 
			},
			{
				"x": 0.9407696859,
				"y": 1.9505006991,
				"z": 1.8774876858,
				"element": "H" 
			},
			{
				"x": 1.7254211579,
				"y": 0.8944702793,
				"z": 0.6781614786,
				"element": "H" 
			},
			{
				"x": 0.8368378231,
				"y": 0.1899506243,
				"z": 2.0320524339,
				"element": "H" 
			},
			{
				"x": -1.3634357149,
				"y": 1.9176869725,
				"z": 2.1290343944,
				"element": "H" 
			},
			{
				"x": -3.7378987078,
				"y": 1.8035800198,
				"z": -1.0838666057,
				"element": "H" 
			},
			{
				"x": -1.9378672584,
				"y": 0.7904876435,
				"z": -2.406370187,
				"element": "H" 
			},
			{
				"x": -2.874491676,
				"y": -1.63926777,
				"z": -3.2424197136,
				"element": "H" 
			},
			{
				"x": -4.0600250249,
				"y": -3.7094481537,
				"z": -1.8736547082,
				"element": "H" 
			},
			{
				"x": -3.9860635638,
				"y": -2.9066589786,
				"z": 0.7570648722,
				"element": "H" 
			}
		],
		 "valence_orbital": [ 
			{
				"type": "occ",
				"energy": -0.27113,
				"method": "rhf"
			},
			{
				"type": "occ",
				"energy": -0.26837,
				"method": "rhf"
			},
			{
				"type": "occ",
				"energy": -0.25614,
				"method": "rhf"
			},
			{
				"type": "occ",
				"energy": -0.22907,
				"method": "rhf"
			},
			{
				"type": "occ",
				"energy": -0.21776,
				"method": "rhf"
			},
			{
				"type": "unocc",
				"energy": -0.03834,
				"method": "rhf"
			},
			{
				"type": "unocc",
				"energy": 0.01304,
				"method": "rhf"
			},
			{
				"type": "unocc",
				"energy": 0.05779,
				"method": "rhf"
			},
			{
				"type": "unocc",
				"energy": 0.06918,
				"method": "rhf"
			},
			{
				"type": "unocc",
				"energy": 0.07692,
				"method": "rhf"
			}
		],
		"cosmo_sigma_profile": { 
			"-0.025": 0.0,
			"-0.024": 0.0,
			"-0.023": 0.0,
			"-0.022": 0.0,
			"-0.021": 0.0,
			"-0.02": 0.0,
			"-0.019": 0.0,
			"-0.018": 0.0,
			"-0.017": 0.0,
			"-0.016": 0.115725492295,
			"-0.015": 0.897709644966,
			"-0.014": 1.99603315043,
			"-0.013": 2.30706438981,
			"-0.012": 1.9625894999,
			"-0.011": 1.72407468152,
			"-0.01": 2.53417040887,
			"-0.009": 2.81972931642,
			"-0.008": 3.66826616139,
			"-0.007": 7.90628828573,
			"-0.006": 11.0401240382,
			"-0.005": 11.8521968949,
			"-0.004": 20.088330802,
			"-0.003": 31.7575197012,
			"-0.002": 29.8648879991,
			"-0.001": 33.9710885933,
			"0.0": 27.1456008596,
			"0.001": 29.4141453121,
			"0.002": 19.5082419919,
			"0.003": 16.4530106438,
			"0.004": 14.7676581246,
			"0.005": 13.6092641791,
			"0.006": 8.25673640526,
			"0.007": 4.06491791545,
			"0.008": 2.98159361147,
			"0.009": 2.35690080813,
			"0.01": 3.14430312815,
			"0.011": 2.74992946755,
			"0.012": 5.0913449729,
			"0.013": 7.87557250203,
			"0.014": 3.71133273642,
			"0.015": 0.0734853275688,
			"0.016": 0.0,
			"0.017": 0.0,
			"0.018": 0.0,
			"0.019": 0.0,
			"0.02": 0.0,
			"0.021": 0.0,
			"0.022": 0.0,
			"0.023": 0.0,
			"0.024": 0.0,
			"0.025": 0.0
		}
	}
}
