{
	 "smiles": "NCC1=CC(NC(=O)C2CC2)=CC=C1", 
	 "Tm": 370.15, 
	 "num_atms": 28, 
	 "gaussian": { 
		 "optdone": 1, 
		 "sigma_profile": "yes", 
		 "theory": "DFT", 
		 "functional": "B3LYP", 
		 "basiset": "6-31G**", 
		 "properties": { 
			 "R2extent": 3929.8357, 
			 "electric_dipole_moment_norm": 4.50594419961, 
			 "electric_quadrupole_moment_norm": 8.19520387239, 
			 "total_energy": -612.325462655, 
			 "HOMO_LUMO_gap": 0.20521, 
			 "cosmo_polarized_energy": -15.39, 
			 "cosmo_cavitation_energy": 31.51, 
			 "cosmo_dispersion_energy": -22.73, 
			 "cosmo_repulsion_energy": 1.81, 
			 "cosmo_total_nonelectrostatic_energy": 10.59, 
			 "SMD_solvation_energy": 3.86 
		},
		"coords": [
			{
				"x": -3.4134504494,
				"y": 1.9174557366,
				"z": 1.2798788719,
				"element": "N" 
			},
			{
				"x": -3.1996975141,
				"y": 0.4646548976,
				"z": 1.3867050979,
				"element": "C" 
			},
			{
				"x": -2.2652159507,
				"y": -0.1344721541,
				"z": 0.3475746434,
				"element": "C" 
			},
			{
				"x": -0.8790462429,
				"y": -0.0410636973,
				"z": 0.5295439793,
				"element": "C" 
			},
			{
				"x": -0.0033314529,
				"y": -0.5344150581,
				"z": -0.4474920512,
				"element": "C" 
			},
			{
				"x": 1.4016634287,
				"y": -0.478147474,
				"z": -0.3276294689,
				"element": "N" 
			},
			{
				"x": 2.1684324026,
				"y": 0.0845120016,
				"z": 0.6698644964,
				"element": "C" 
			},
			{
				"x": 1.7061790064,
				"y": 0.6463541431,
				"z": 1.657940535,
				"element": "O" 
			},
			{
				"x": 3.6456065593,
				"y": -0.0450921119,
				"z": 0.4518722462,
				"element": "C" 
			},
			{
				"x": 4.5096629945,
				"y": -0.2074864721,
				"z": 1.6910990405,
				"element": "C" 
			},
			{
				"x": 4.515926087,
				"y": 1.0931727383,
				"z": 0.9571494786,
				"element": "C" 
			},
			{
				"x": -0.5255661189,
				"y": -1.1283699281,
				"z": -1.6088732542,
				"element": "C" 
			},
			{
				"x": -1.9018993196,
				"y": -1.2253849868,
				"z": -1.7844051331,
				"element": "C" 
			},
			{
				"x": -2.7731931063,
				"y": -0.7313600916,
				"z": -0.8121087774,
				"element": "C" 
			},
			{
				"x": -3.7395020705,
				"y": 2.1372341705,
				"z": 0.3402753168,
				"element": "H" 
			},
			{
				"x": -2.5178379787,
				"y": 2.3928473834,
				"z": 1.3753895464,
				"element": "H" 
			},
			{
				"x": -4.1792964885,
				"y": -0.0225569404,
				"z": 1.3214673711,
				"element": "H" 
			},
			{
				"x": -2.8125527114,
				"y": 0.2625564568,
				"z": 2.3916698529,
				"element": "H" 
			},
			{
				"x": -0.4667073611,
				"y": 0.4084409364,
				"z": 1.4233994522,
				"element": "H" 
			},
			{
				"x": 1.9099550178,
				"y": -0.9030633012,
				"z": -1.089631316,
				"element": "H" 
			},
			{
				"x": 3.9724047578,
				"y": -0.5561698264,
				"z": -0.4504023353,
				"element": "H" 
			},
			{
				"x": 5.3723920924,
				"y": -0.861318253,
				"z": 1.6125071958,
				"element": "H" 
			},
			{
				"x": 3.9751635974,
				"y": -0.24477282,
				"z": 2.6344015213,
				"element": "H" 
			},
			{
				"x": 5.383103694,
				"y": 1.3574742196,
				"z": 0.360367895,
				"element": "H" 
			},
			{
				"x": 3.9859042962,
				"y": 1.9239094984,
				"z": 1.4108756187,
				"element": "H" 
			},
			{
				"x": 0.1493932021,
				"y": -1.5163134269,
				"z": -2.368846094,
				"element": "H" 
			},
			{
				"x": -2.2945584461,
				"y": -1.6925100443,
				"z": -2.6831828963,
				"element": "H" 
			},
			{
				"x": -3.8482319251,
				"y": -0.8143155962,
				"z": -0.9512108329,
				"element": "H" 
			}
		],
		 "valence_orbital": [ 
			{
				"type": "occ",
				"energy": -0.29239,
				"method": "rhf"
			},
			{
				"type": "occ",
				"energy": -0.25594,
				"method": "rhf"
			},
			{
				"type": "occ",
				"energy": -0.25244,
				"method": "rhf"
			},
			{
				"type": "occ",
				"energy": -0.22669,
				"method": "rhf"
			},
			{
				"type": "occ",
				"energy": -0.21776,
				"method": "rhf"
			},
			{
				"type": "unocc",
				"energy": -0.01255,
				"method": "rhf"
			},
			{
				"type": "unocc",
				"energy": -0.00298,
				"method": "rhf"
			},
			{
				"type": "unocc",
				"energy": 0.04298,
				"method": "rhf"
			},
			{
				"type": "unocc",
				"energy": 0.06093,
				"method": "rhf"
			},
			{
				"type": "unocc",
				"energy": 0.09422,
				"method": "rhf"
			}
		],
		"cosmo_sigma_profile": { 
			"-0.025": 0.0,
			"-0.024": 0.0,
			"-0.023": 0.0,
			"-0.022": 0.0,
			"-0.021": 0.0,
			"-0.02": 0.0,
			"-0.019": 0.0,
			"-0.018": 0.0,
			"-0.017": 0.0,
			"-0.016": 0.0,
			"-0.015": 1.0034969384,
			"-0.014": 1.2481602496,
			"-0.013": 1.58934154281,
			"-0.012": 1.65006924233,
			"-0.011": 1.4094756758,
			"-0.01": 2.00072503346,
			"-0.009": 3.53859577466,
			"-0.008": 4.23145577164,
			"-0.007": 4.71702158435,
			"-0.006": 8.5259641592,
			"-0.005": 16.2467482764,
			"-0.004": 23.2128659078,
			"-0.003": 20.4754827114,
			"-0.002": 16.0186474005,
			"-0.001": 16.437032325,
			"0.0": 17.3386802994,
			"0.001": 17.6531532587,
			"0.002": 17.8614067127,
			"0.003": 15.3628279436,
			"0.004": 12.9166697928,
			"0.005": 11.8548044567,
			"0.006": 9.67259007046,
			"0.007": 3.14223617294,
			"0.008": 2.26131712262,
			"0.009": 2.13014561293,
			"0.01": 2.8128735155,
			"0.011": 1.89219183094,
			"0.012": 2.6816164996,
			"0.013": 2.89400146203,
			"0.014": 2.4704599344,
			"0.015": 0.62600562248,
			"0.016": 0.612015893843,
			"0.017": 0.663344548422,
			"0.018": 0.140446296523,
			"0.019": 1.04971177352,
			"0.02": 0.318434950483,
			"0.021": 0.0,
			"0.022": 0.0,
			"0.023": 0.0,
			"0.024": 0.0,
			"0.025": 0.0
		}
	}
}
