{
	 "smiles": "OC(=O)C1=CN(CC2=CN=CC=C2)N=N1", 
	 "Tm": 480.15, 
	 "num_atms": 23, 
	 "gaussian": { 
		 "optdone": 1, 
		 "sigma_profile": "yes", 
		 "theory": "DFT", 
		 "functional": "B3LYP", 
		 "basiset": "6-31G**", 
		 "properties": { 
			 "R2extent": 5810.4131, 
			 "electric_dipole_moment_norm": 4.95625255006, 
			 "electric_quadrupole_moment_norm": 31.396068999, 
			 "total_energy": -717.197682172, 
			 "HOMO_LUMO_gap": 0.22289, 
			 "cosmo_polarized_energy": -19.39, 
			 "cosmo_cavitation_energy": 29.11, 
			 "cosmo_dispersion_energy": -20.84, 
			 "cosmo_repulsion_energy": 1.63, 
			 "cosmo_total_nonelectrostatic_energy": 9.9, 
			 "SMD_solvation_energy": 3.84 
		},
		"coords": [
			{
				"x": -5.4086682229,
				"y": -1.8810487434,
				"z": 3.4694012745,
				"element": "O" 
			},
			{
				"x": -4.1112869627,
				"y": -1.5974081774,
				"z": 3.704971255,
				"element": "C" 
			},
			{
				"x": -3.6981538303,
				"y": -1.2867484234,
				"z": 4.7980638256,
				"element": "O" 
			},
			{
				"x": -3.2477024526,
				"y": -1.7011055029,
				"z": 2.5055801726,
				"element": "C" 
			},
			{
				"x": -1.8902945223,
				"y": -1.4906089241,
				"z": 2.3754492398,
				"element": "C" 
			},
			{
				"x": -1.6441134221,
				"y": -1.7412650905,
				"z": 1.0700446545,
				"element": "N" 
			},
			{
				"x": -0.391342195,
				"y": -1.6284304362,
				"z": 0.3185028036,
				"element": "C" 
			},
			{
				"x": -0.0561912979,
				"y": -0.2027310452,
				"z": -0.0631459539,
				"element": "C" 
			},
			{
				"x": 1.1589080931,
				"y": 0.371757403,
				"z": 0.3214913383,
				"element": "C" 
			},
			{
				"x": 1.5335596499,
				"y": 1.6163803992,
				"z": 0.0056692789,
				"element": "N" 
			},
			{
				"x": 0.6800103914,
				"y": 2.3468531381,
				"z": -0.7196923277,
				"element": "C" 
			},
			{
				"x": -0.5620801212,
				"y": 1.8757314746,
				"z": -1.1552173185,
				"element": "C" 
			},
			{
				"x": -0.9358321343,
				"y": 0.5776055477,
				"z": -0.8225431556,
				"element": "C" 
			},
			{
				"x": -2.7851344117,
				"y": -2.0805448576,
				"z": 0.4149108872,
				"element": "N" 
			},
			{
				"x": -3.7489204921,
				"y": -2.0563025341,
				"z": 1.2877293269,
				"element": "N" 
			},
			{
				"x": -5.5090236812,
				"y": -2.1061536974,
				"z": 2.5263595414,
				"element": "H" 
			},
			{
				"x": -1.1332870585,
				"y": -1.1974307717,
				"z": 3.0850975865,
				"element": "H" 
			},
			{
				"x": -0.5302583506,
				"y": -2.2553201963,
				"z": -0.5660815849,
				"element": "H" 
			},
			{
				"x": 0.4090258749,
				"y": -2.0657812648,
				"z": 0.9212038212,
				"element": "H" 
			},
			{
				"x": 1.869348499,
				"y": -0.2052002164,
				"z": 0.9143655095,
				"element": "H" 
			},
			{
				"x": 1.0012097591,
				"y": 3.357579115,
				"z": -0.9642626302,
				"element": "H" 
			},
			{
				"x": -1.2158527638,
				"y": 2.5137486085,
				"z": -1.7411750748,
				"element": "H" 
			},
			{
				"x": -1.8937203482,
				"y": 0.1718241955,
				"z": -1.1372224702,
				"element": "H" 
			}
		],
		 "valence_orbital": [ 
			{
				"type": "occ",
				"energy": -0.30411,
				"method": "rhf"
			},
			{
				"type": "occ",
				"energy": -0.28602,
				"method": "rhf"
			},
			{
				"type": "occ",
				"energy": -0.28154,
				"method": "rhf"
			},
			{
				"type": "occ",
				"energy": -0.27568,
				"method": "rhf"
			},
			{
				"type": "occ",
				"energy": -0.27186,
				"method": "rhf"
			},
			{
				"type": "unocc",
				"energy": -0.04897,
				"method": "rhf"
			},
			{
				"type": "unocc",
				"energy": -0.04072,
				"method": "rhf"
			},
			{
				"type": "unocc",
				"energy": -0.03593,
				"method": "rhf"
			},
			{
				"type": "unocc",
				"energy": -0.02561,
				"method": "rhf"
			},
			{
				"type": "unocc",
				"energy": 0.07551,
				"method": "rhf"
			}
		],
		"cosmo_sigma_profile": { 
			"-0.025": 0.0,
			"-0.024": 0.0,
			"-0.023": 0.0,
			"-0.022": 0.0,
			"-0.021": 0.0,
			"-0.02": 0.0,
			"-0.019": 0.0,
			"-0.018": 0.0,
			"-0.017": 0.0,
			"-0.016": 0.0,
			"-0.015": 0.262275607091,
			"-0.014": 0.899922559231,
			"-0.013": 0.446698448379,
			"-0.012": 1.9621921775,
			"-0.011": 3.35530427839,
			"-0.01": 3.00722602165,
			"-0.009": 6.28924677845,
			"-0.008": 6.65664376354,
			"-0.007": 12.4374024864,
			"-0.006": 15.2330924045,
			"-0.005": 15.5904700563,
			"-0.004": 12.8566195786,
			"-0.003": 14.5519459622,
			"-0.002": 16.8178330487,
			"-0.001": 12.7956342219,
			"0.0": 10.7745221581,
			"0.001": 14.6168911702,
			"0.002": 15.1432457958,
			"0.003": 6.80699379586,
			"0.004": 6.46609269204,
			"0.005": 4.8115974774,
			"0.006": 4.98891735832,
			"0.007": 6.36610138518,
			"0.008": 7.04642776779,
			"0.009": 7.5853310627,
			"0.01": 9.24353659513,
			"0.011": 6.9150268465,
			"0.012": 5.74583558821,
			"0.013": 2.12417531694,
			"0.014": 0.710988927693,
			"0.015": 0.843253174544,
			"0.016": 0.923098759693,
			"0.017": 0.0295382950405,
			"0.018": 0.0,
			"0.019": 0.0,
			"0.02": 0.0,
			"0.021": 0.0,
			"0.022": 0.0,
			"0.023": 0.0,
			"0.024": 0.0,
			"0.025": 0.0
		}
	}
}
