{
	 "smiles": "CCC(C)C1=CC=C(C=C1)C1=CSC(N)=N1", 
	 "Tm": 351.15, 
	 "num_atms": 32, 
	 "gaussian": { 
		 "optdone": 1, 
		 "sigma_profile": "yes", 
		 "theory": "DFT", 
		 "functional": "B3LYP", 
		 "basiset": "6-31G**", 
		 "properties": { 
			 "R2extent": 7408.4037, 
			 "electric_dipole_moment_norm": 1.54482494154, 
			 "electric_quadrupole_moment_norm": 17.2985554215, 
			 "total_energy": -1012.73435446, 
			 "HOMO_LUMO_gap": 0.17064, 
			 "cosmo_polarized_energy": -11.46, 
			 "cosmo_cavitation_energy": 35.95, 
			 "cosmo_dispersion_energy": -26.48, 
			 "cosmo_repulsion_energy": 2.02, 
			 "cosmo_total_nonelectrostatic_energy": 11.5, 
			 "SMD_solvation_energy": 4.57 
		},
		"coords": [
			{
				"x": -2.3667868922,
				"y": 1.5968799104,
				"z": -2.8985885876,
				"element": "C" 
			},
			{
				"x": -2.9288143218,
				"y": 1.0840369755,
				"z": -1.5684382168,
				"element": "C" 
			},
			{
				"x": -2.3506891791,
				"y": 1.749216656,
				"z": -0.2874590478,
				"element": "C" 
			},
			{
				"x": -2.6903038736,
				"y": 3.246357843,
				"z": -0.2101818554,
				"element": "C" 
			},
			{
				"x": -0.8681436325,
				"y": 1.4417441626,
				"z": -0.113148705,
				"element": "C" 
			},
			{
				"x": 0.1510748499,
				"y": 2.3022618912,
				"z": -0.5480506514,
				"element": "C" 
			},
			{
				"x": 1.49475886,
				"y": 1.9682882846,
				"z": -0.396928354,
				"element": "C" 
			},
			{
				"x": 1.8785618449,
				"y": 0.7564342251,
				"z": 0.1983203883,
				"element": "C" 
			},
			{
				"x": 0.8623843321,
				"y": -0.1080015539,
				"z": 0.6373814625,
				"element": "C" 
			},
			{
				"x": -0.4777196079,
				"y": 0.2336580039,
				"z": 0.4830718718,
				"element": "C" 
			},
			{
				"x": 3.2940197512,
				"y": 0.3794272013,
				"z": 0.3738684487,
				"element": "C" 
			},
			{
				"x": 4.3846363121,
				"y": 1.1234469362,
				"z": 0.0115965735,
				"element": "C" 
			},
			{
				"x": 5.8625289442,
				"y": 0.281168715,
				"z": 0.4012293928,
				"element": "S" 
			},
			{
				"x": 4.8713834461,
				"y": -1.0308664395,
				"z": 1.0559868777,
				"element": "C" 
			},
			{
				"x": 5.4503795073,
				"y": -2.1840798801,
				"z": 1.5388315771,
				"element": "N" 
			},
			{
				"x": 3.5904208042,
				"y": -0.8403882166,
				"z": 0.9715089797,
				"element": "N" 
			},
			{
				"x": -1.2813547437,
				"y": 1.4668355163,
				"z": -2.9503282295,
				"element": "H" 
			},
			{
				"x": -2.8081420555,
				"y": 1.0480390733,
				"z": -3.7369466524,
				"element": "H" 
			},
			{
				"x": -2.5853101182,
				"y": 2.6585633545,
				"z": -3.0542425894,
				"element": "H" 
			},
			{
				"x": -2.7532963704,
				"y": 0.0033273792,
				"z": -1.500590208,
				"element": "H" 
			},
			{
				"x": -4.0186983188,
				"y": 1.2203149249,
				"z": -1.5575970107,
				"element": "H" 
			},
			{
				"x": -2.8648647191,
				"y": 1.2646725267,
				"z": 0.5541089335,
				"element": "H" 
			},
			{
				"x": -2.3191629598,
				"y": 3.6867421795,
				"z": 0.7205285362,
				"element": "H" 
			},
			{
				"x": -3.7756767553,
				"y": 3.3897015255,
				"z": -0.2436106734,
				"element": "H" 
			},
			{
				"x": -2.2629747671,
				"y": 3.8174041376,
				"z": -1.0399656427,
				"element": "H" 
			},
			{
				"x": -0.1007397868,
				"y": 3.2523489079,
				"z": -1.0087275171,
				"element": "H" 
			},
			{
				"x": 2.2494954511,
				"y": 2.6656027593,
				"z": -0.7488298796,
				"element": "H" 
			},
			{
				"x": 1.1431718985,
				"y": -1.0451847809,
				"z": 1.104348897,
				"element": "H" 
			},
			{
				"x": -1.2432555516,
				"y": -0.4530023103,
				"z": 0.8387147991,
				"element": "H" 
			},
			{
				"x": 4.4253144217,
				"y": 2.1000011676,
				"z": -0.4458777601,
				"element": "H" 
			},
			{
				"x": 4.7970590652,
				"y": -2.7630895841,
				"z": 2.0505834977,
				"element": "H" 
			},
			{
				"x": 6.3478441645,
				"y": -2.0858614915,
				"z": 1.9919313455,
				"element": "H" 
			}
		],
		 "valence_orbital": [ 
			{
				"type": "occ",
				"energy": -0.27894,
				"method": "rhf"
			},
			{
				"type": "occ",
				"energy": -0.27049,
				"method": "rhf"
			},
			{
				"type": "occ",
				"energy": -0.24257,
				"method": "rhf"
			},
			{
				"type": "occ",
				"energy": -0.23903,
				"method": "rhf"
			},
			{
				"type": "occ",
				"energy": -0.19582,
				"method": "rhf"
			},
			{
				"type": "unocc",
				"energy": -0.02518,
				"method": "rhf"
			},
			{
				"type": "unocc",
				"energy": 0.00609,
				"method": "rhf"
			},
			{
				"type": "unocc",
				"energy": 0.01172,
				"method": "rhf"
			},
			{
				"type": "unocc",
				"energy": 0.02055,
				"method": "rhf"
			},
			{
				"type": "unocc",
				"energy": 0.07134,
				"method": "rhf"
			}
		],
		"cosmo_sigma_profile": { 
			"-0.025": 0.0,
			"-0.024": 0.0,
			"-0.023": 0.0,
			"-0.022": 0.0,
			"-0.021": 0.0,
			"-0.02": 0.0,
			"-0.019": 0.0,
			"-0.018": 0.0,
			"-0.017": 0.0,
			"-0.016": 0.0,
			"-0.015": 0.232518864599,
			"-0.014": 1.67428978409,
			"-0.013": 2.74884968916,
			"-0.012": 2.92664900752,
			"-0.011": 2.48102269513,
			"-0.01": 2.67104774306,
			"-0.009": 2.13881213279,
			"-0.008": 5.03997628499,
			"-0.007": 4.07839502868,
			"-0.006": 3.81242644604,
			"-0.005": 7.51734770418,
			"-0.004": 11.1678218235,
			"-0.003": 19.1769056014,
			"-0.002": 27.2671165899,
			"-0.001": 28.9421066378,
			"0.0": 28.8019390688,
			"0.001": 32.4698876374,
			"0.002": 22.8907317623,
			"0.003": 16.8740660127,
			"0.004": 23.1180960684,
			"0.005": 15.9124177563,
			"0.006": 11.5002882722,
			"0.007": 2.98132327648,
			"0.008": 2.04970877057,
			"0.009": 2.71582882132,
			"0.01": 1.95812987191,
			"0.011": 2.17088236494,
			"0.012": 0.623240686872,
			"0.013": 0.0,
			"0.014": 0.0,
			"0.015": 0.0,
			"0.016": 0.0,
			"0.017": 0.0,
			"0.018": 0.0,
			"0.019": 0.0,
			"0.02": 0.0,
			"0.021": 0.0,
			"0.022": 0.0,
			"0.023": 0.0,
			"0.024": 0.0,
			"0.025": 0.0
		}
	}
}
