{
	 "smiles": "CCOC(=O)C1=C(NC(=O)C2=CC=C(Cl)C=C2Cl)SC=C1C1=CC=CC=C1", 
	 "Tm": 423.15, 
	 "num_atms": 42, 
	 "gaussian": { 
		 "optdone": 1, 
		 "sigma_profile": "yes", 
		 "theory": "DFT", 
		 "functional": "B3LYP", 
		 "basiset": "6-31G**", 
		 "properties": { 
			 "R2extent": 18511.0851, 
			 "electric_dipole_moment_norm": 2.80128290253, 
			 "electric_quadrupole_moment_norm": 11.0780908283, 
			 "total_energy": -2370.19365316, 
			 "HOMO_LUMO_gap": 0.14922, 
			 "cosmo_polarized_energy": -12.91, 
			 "cosmo_cavitation_energy": 52.18, 
			 "cosmo_dispersion_energy": -36.1, 
			 "cosmo_repulsion_energy": 2.69, 
			 "cosmo_total_nonelectrostatic_energy": 18.78, 
			 "SMD_solvation_energy": 9.18 
		},
		"coords": [
			{
				"x": 2.2945820762,
				"y": 3.2554653183,
				"z": -1.1997013493,
				"element": "C" 
			},
			{
				"x": 2.1657893439,
				"y": 1.7885800577,
				"z": -0.8361100097,
				"element": "C" 
			},
			{
				"x": 0.8388531784,
				"y": 1.5966083021,
				"z": -0.2906035427,
				"element": "O" 
			},
			{
				"x": 0.5499678216,
				"y": 0.366632507,
				"z": 0.1579021583,
				"element": "C" 
			},
			{
				"x": 1.3717689026,
				"y": -0.550361298,
				"z": 0.1238690247,
				"element": "O" 
			},
			{
				"x": -0.8059178637,
				"y": 0.2333166069,
				"z": 0.7109959346,
				"element": "C" 
			},
			{
				"x": -1.1455524354,
				"y": -0.9138583708,
				"z": 1.430810327,
				"element": "C" 
			},
			{
				"x": -0.3087560188,
				"y": -1.9965578553,
				"z": 1.6208281412,
				"element": "N" 
			},
			{
				"x": -0.6535070296,
				"y": -3.1284055166,
				"z": 2.3147142301,
				"element": "C" 
			},
			{
				"x": -1.7689092423,
				"y": -3.2667680122,
				"z": 2.8110046437,
				"element": "O" 
			},
			{
				"x": 0.3515307549,
				"y": -4.2467127827,
				"z": 2.3739350695,
				"element": "C" 
			},
			{
				"x": -0.1947134637,
				"y": -5.538401957,
				"z": 2.2837883214,
				"element": "C" 
			},
			{
				"x": 0.5943891604,
				"y": -6.6803430553,
				"z": 2.3262240164,
				"element": "C" 
			},
			{
				"x": 1.9723643634,
				"y": -6.5343923988,
				"z": 2.4872648998,
				"element": "C" 
			},
			{
				"x": 2.9957462553,
				"y": -7.9544128244,
				"z": 2.5470954833,
				"element": "Cl" 
			},
			{
				"x": 2.5530448996,
				"y": -5.2757409411,
				"z": 2.6159101407,
				"element": "C" 
			},
			{
				"x": 1.7403221346,
				"y": -4.1419001551,
				"z": 2.5583289673,
				"element": "C" 
			},
			{
				"x": 2.5397017343,
				"y": -2.5960059532,
				"z": 2.7959752556,
				"element": "Cl" 
			},
			{
				"x": -2.7440911785,
				"y": -0.8211705347,
				"z": 2.1104106105,
				"element": "S" 
			},
			{
				"x": -2.9594037841,
				"y": 0.760745403,
				"z": 1.418589231,
				"element": "C" 
			},
			{
				"x": -1.8847915134,
				"y": 1.2036928328,
				"z": 0.6986631135,
				"element": "C" 
			},
			{
				"x": -1.9367653619,
				"y": 2.5023745558,
				"z": -0.0235880816,
				"element": "C" 
			},
			{
				"x": -2.2433588897,
				"y": 3.6800088444,
				"z": 0.6735196464,
				"element": "C" 
			},
			{
				"x": -2.3715080304,
				"y": 4.8961553148,
				"z": -0.0002977858,
				"element": "C" 
			},
			{
				"x": -2.1990632475,
				"y": 4.9523898033,
				"z": -1.3832028343,
				"element": "C" 
			},
			{
				"x": -1.8988729984,
				"y": 3.7835959786,
				"z": -2.0889481257,
				"element": "C" 
			},
			{
				"x": -1.7687356139,
				"y": 2.5706129551,
				"z": -1.4160303107,
				"element": "C" 
			},
			{
				"x": 2.1815090317,
				"y": 3.8876968558,
				"z": -0.3146939508,
				"element": "H" 
			},
			{
				"x": 3.2812495327,
				"y": 3.4425126567,
				"z": -1.6349559112,
				"element": "H" 
			},
			{
				"x": 1.5314093886,
				"y": 3.5465080256,
				"z": -1.9263233365,
				"element": "H" 
			},
			{
				"x": 2.2859252868,
				"y": 1.1345915402,
				"z": -1.7058897348,
				"element": "H" 
			},
			{
				"x": 2.902417657,
				"y": 1.4798791564,
				"z": -0.0884690779,
				"element": "H" 
			},
			{
				"x": 0.5928500054,
				"y": -1.8872658492,
				"z": 1.147435912,
				"element": "H" 
			},
			{
				"x": -1.2711897618,
				"y": -5.6213482773,
				"z": 2.1825418702,
				"element": "H" 
			},
			{
				"x": 0.1530678704,
				"y": -7.6664901009,
				"z": 2.2415299332,
				"element": "H" 
			},
			{
				"x": 3.6199142877,
				"y": -5.1718221754,
				"z": 2.7689781856,
				"element": "H" 
			},
			{
				"x": -3.90865789,
				"y": 1.2651569995,
				"z": 1.5354644713,
				"element": "H" 
			},
			{
				"x": -2.3690335132,
				"y": 3.6386577949,
				"z": 1.7515102934,
				"element": "H" 
			},
			{
				"x": -2.6039335889,
				"y": 5.7987418145,
				"z": 0.5579159983,
				"element": "H" 
			},
			{
				"x": -2.2999874696,
				"y": 5.8973572934,
				"z": -1.9093128559,
				"element": "H" 
			},
			{
				"x": -1.7749016358,
				"y": 3.8163317171,
				"z": -3.1679478914,
				"element": "H" 
			},
			{
				"x": -1.545553155,
				"y": 1.6645457242,
				"z": -1.9709310806,
				"element": "H" 
			}
		],
		 "valence_orbital": [ 
			{
				"type": "occ",
				"energy": -0.26703,
				"method": "rhf"
			},
			{
				"type": "occ",
				"energy": -0.25926,
				"method": "rhf"
			},
			{
				"type": "occ",
				"energy": -0.25012,
				"method": "rhf"
			},
			{
				"type": "occ",
				"energy": -0.24069,
				"method": "rhf"
			},
			{
				"type": "occ",
				"energy": -0.21417,
				"method": "rhf"
			},
			{
				"type": "unocc",
				"energy": -0.06495,
				"method": "rhf"
			},
			{
				"type": "unocc",
				"energy": -0.03371,
				"method": "rhf"
			},
			{
				"type": "unocc",
				"energy": -0.02997,
				"method": "rhf"
			},
			{
				"type": "unocc",
				"energy": -0.01679,
				"method": "rhf"
			},
			{
				"type": "unocc",
				"energy": -0.00105,
				"method": "rhf"
			}
		],
		"cosmo_sigma_profile": { 
			"-0.025": 0.0,
			"-0.024": 0.0,
			"-0.023": 0.0,
			"-0.022": 0.0,
			"-0.021": 0.0,
			"-0.02": 0.0,
			"-0.019": 0.0,
			"-0.018": 0.0,
			"-0.017": 0.0,
			"-0.016": 0.0,
			"-0.015": 0.0,
			"-0.014": 0.0,
			"-0.013": 0.0,
			"-0.012": 0.0,
			"-0.011": 0.00895647757321,
			"-0.01": 0.167771451287,
			"-0.009": 1.99645015386,
			"-0.008": 6.20074208833,
			"-0.007": 7.88914255255,
			"-0.006": 11.8977989147,
			"-0.005": 22.7759890857,
			"-0.004": 32.2328960356,
			"-0.003": 36.0316322667,
			"-0.002": 35.8528989891,
			"-0.001": 40.9908631999,
			"0.0": 46.1860633106,
			"0.001": 42.6663665927,
			"0.002": 33.2589722302,
			"0.003": 34.2739137136,
			"0.004": 25.629112503,
			"0.005": 13.0456447975,
			"0.006": 10.1026473455,
			"0.007": 5.29364521932,
			"0.008": 4.38200625994,
			"0.009": 4.01859352195,
			"0.01": 3.55727197408,
			"0.011": 4.0010444448,
			"0.012": 2.60689265938,
			"0.013": 0.124206534049,
			"0.014": 0.0,
			"0.015": 0.0,
			"0.016": 0.0,
			"0.017": 0.0,
			"0.018": 0.0,
			"0.019": 0.0,
			"0.02": 0.0,
			"0.021": 0.0,
			"0.022": 0.0,
			"0.023": 0.0,
			"0.024": 0.0,
			"0.025": 0.0
		}
	}
}
