{
	 "smiles": "CC1=C(SC(=N1)N1CCCCC1)C=O", 
	 "Tm": 387.15, 
	 "num_atms": 28, 
	 "gaussian": { 
		 "optdone": 1, 
		 "sigma_profile": "yes", 
		 "theory": "DFT", 
		 "functional": "B3LYP", 
		 "basiset": "6-31G**", 
		 "properties": { 
			 "R2extent": 4070.0774, 
			 "electric_dipole_moment_norm": 5.54231205274, 
			 "electric_quadrupole_moment_norm": 20.5202497378, 
			 "total_energy": -972.424658289, 
			 "HOMO_LUMO_gap": 0.15991, 
			 "cosmo_polarized_energy": -11.94, 
			 "cosmo_cavitation_energy": 31.25, 
			 "cosmo_dispersion_energy": -23.57, 
			 "cosmo_repulsion_energy": 1.83, 
			 "cosmo_total_nonelectrostatic_energy": 9.51, 
			 "SMD_solvation_energy": 3.91 
		},
		"coords": [
			{
				"x": -2.5705137535,
				"y": 0.1379601212,
				"z": 3.0429246662,
				"element": "C" 
			},
			{
				"x": -2.0569234488,
				"y": 0.451209951,
				"z": 1.6676977348,
				"element": "C" 
			},
			{
				"x": -2.6111359634,
				"y": 1.3508501857,
				"z": 0.7738380279,
				"element": "C" 
			},
			{
				"x": -1.6616884574,
				"y": 1.3722922641,
				"z": -0.7144809962,
				"element": "S" 
			},
			{
				"x": -0.5932783145,
				"y": 0.1714044845,
				"z": 0.0242683899,
				"element": "C" 
			},
			{
				"x": -0.9395922915,
				"y": -0.2063894373,
				"z": 1.2445801276,
				"element": "N" 
			},
			{
				"x": 0.5075559918,
				"y": -0.3044814809,
				"z": -0.6107228591,
				"element": "N" 
			},
			{
				"x": 0.7869512705,
				"y": -0.0065838649,
				"z": -2.0157529184,
				"element": "C" 
			},
			{
				"x": 2.293064084,
				"y": 0.1583223423,
				"z": -2.2541413048,
				"element": "C" 
			},
			{
				"x": 3.0796803262,
				"y": -1.0470413572,
				"z": -1.7226056182,
				"element": "C" 
			},
			{
				"x": 2.7447484787,
				"y": -1.2899248749,
				"z": -0.2449729812,
				"element": "C" 
			},
			{
				"x": 1.2356708174,
				"y": -1.4461021921,
				"z": -0.0370466131,
				"element": "C" 
			},
			{
				"x": -3.7722840768,
				"y": 2.1993174903,
				"z": 0.8874195173,
				"element": "C" 
			},
			{
				"x": -4.1649332174,
				"y": 2.9612160917,
				"z": 0.0117626458,
				"element": "O" 
			},
			{
				"x": -1.7980784564,
				"y": 0.3566958661,
				"z": 3.7877232946,
				"element": "H" 
			},
			{
				"x": -3.4678532698,
				"y": 0.7050337089,
				"z": 3.2941612739,
				"element": "H" 
			},
			{
				"x": -2.7980429251,
				"y": -0.9304090375,
				"z": 3.1202567976,
				"element": "H" 
			},
			{
				"x": 0.264187161,
				"y": 0.9103820805,
				"z": -2.2971384498,
				"element": "H" 
			},
			{
				"x": 0.3913382685,
				"y": -0.8173299143,
				"z": -2.6490658573,
				"element": "H" 
			},
			{
				"x": 2.6321602569,
				"y": 1.0715000098,
				"z": -1.7495754209,
				"element": "H" 
			},
			{
				"x": 2.4664062071,
				"y": 0.2971141253,
				"z": -3.3271577141,
				"element": "H" 
			},
			{
				"x": 2.8204803235,
				"y": -1.9405549568,
				"z": -2.3081298847,
				"element": "H" 
			},
			{
				"x": 4.1554490771,
				"y": -0.886532994,
				"z": -1.8529167376,
				"element": "H" 
			},
			{
				"x": 3.246925844,
				"y": -2.1908013557,
				"z": 0.1255884178,
				"element": "H" 
			},
			{
				"x": 3.1035221895,
				"y": -0.4473474608,
				"z": 0.3593134379,
				"element": "H" 
			},
			{
				"x": 0.9746405362,
				"y": -1.5050225667,
				"z": 1.0187050511,
				"element": "H" 
			},
			{
				"x": 0.8848658346,
				"y": -2.371735288,
				"z": -0.5216959175,
				"element": "H" 
			},
			{
				"x": -4.3136224924,
				"y": 2.1192580601,
				"z": 1.8539638904,
				"element": "H" 
			}
		],
		 "valence_orbital": [ 
			{
				"type": "occ",
				"energy": -0.29021,
				"method": "rhf"
			},
			{
				"type": "occ",
				"energy": -0.2796,
				"method": "rhf"
			},
			{
				"type": "occ",
				"energy": -0.27218,
				"method": "rhf"
			},
			{
				"type": "occ",
				"energy": -0.23638,
				"method": "rhf"
			},
			{
				"type": "occ",
				"energy": -0.20605,
				"method": "rhf"
			},
			{
				"type": "unocc",
				"energy": -0.04614,
				"method": "rhf"
			},
			{
				"type": "unocc",
				"energy": 0.01939,
				"method": "rhf"
			},
			{
				"type": "unocc",
				"energy": 0.0279,
				"method": "rhf"
			},
			{
				"type": "unocc",
				"energy": 0.07418,
				"method": "rhf"
			},
			{
				"type": "unocc",
				"energy": 0.0861,
				"method": "rhf"
			}
		],
		"cosmo_sigma_profile": { 
			"-0.025": 0.0,
			"-0.024": 0.0,
			"-0.023": 0.0,
			"-0.022": 0.0,
			"-0.021": 0.0,
			"-0.02": 0.0,
			"-0.019": 0.0,
			"-0.018": 0.0,
			"-0.017": 0.0,
			"-0.016": 0.0,
			"-0.015": 0.0,
			"-0.014": 0.0,
			"-0.013": 0.0,
			"-0.012": 0.0,
			"-0.011": 0.0,
			"-0.01": 0.0,
			"-0.009": 0.0,
			"-0.008": 0.522927299948,
			"-0.007": 2.81609409191,
			"-0.006": 4.79083589823,
			"-0.005": 13.602175282,
			"-0.004": 25.1181492376,
			"-0.003": 36.3469483064,
			"-0.002": 33.6265616288,
			"-0.001": 29.9924715994,
			"0.0": 21.0761952055,
			"0.001": 13.5807199042,
			"0.002": 12.6593281784,
			"0.003": 9.63259027674,
			"0.004": 8.11588463185,
			"0.005": 6.53254817417,
			"0.006": 3.21826634739,
			"0.007": 3.09430566442,
			"0.008": 3.44389179116,
			"0.009": 3.53796353754,
			"0.01": 2.60998463493,
			"0.011": 3.6117674503,
			"0.012": 4.23333657812,
			"0.013": 4.42102942944,
			"0.014": 1.30351515557,
			"0.015": 0.115988443978,
			"0.016": 0.0,
			"0.017": 0.0,
			"0.018": 0.0,
			"0.019": 0.0,
			"0.02": 0.0,
			"0.021": 0.0,
			"0.022": 0.0,
			"0.023": 0.0,
			"0.024": 0.0,
			"0.025": 0.0
		}
	}
}
