{
	 "smiles": "CN(C)CC1=CC(N)=CC=C1", 
	 "Tm": 314.15, 
	 "num_atms": 25, 
	 "gaussian": { 
		 "optdone": 1, 
		 "sigma_profile": "yes", 
		 "theory": "DFT", 
		 "functional": "B3LYP", 
		 "basiset": "6-31G**", 
		 "properties": { 
			 "R2extent": 2623.3508, 
			 "electric_dipole_moment_norm": 1.25837000123, 
			 "electric_quadrupole_moment_norm": 9.24357076892, 
			 "total_energy": -460.893340509, 
			 "HOMO_LUMO_gap": 0.20324, 
			 "cosmo_polarized_energy": -8.57, 
			 "cosmo_cavitation_energy": 27.22, 
			 "cosmo_dispersion_energy": -19.62, 
			 "cosmo_repulsion_energy": 1.6, 
			 "cosmo_total_nonelectrostatic_energy": 9.19, 
			 "SMD_solvation_energy": 3.38 
		},
		"coords": [
			{
				"x": 1.41216807,
				"y": 1.2385466724,
				"z": 2.7418438166,
				"element": "C" 
			},
			{
				"x": 0.4101377084,
				"y": 0.8748106152,
				"z": 1.7500461445,
				"element": "N" 
			},
			{
				"x": -0.7465040909,
				"y": 0.2434593619,
				"z": 2.3752839723,
				"element": "C" 
			},
			{
				"x": 0.0307888776,
				"y": 2.0197302827,
				"z": 0.9224197731,
				"element": "C" 
			},
			{
				"x": -0.7502454996,
				"y": 1.6381319388,
				"z": -0.3226267959,
				"element": "C" 
			},
			{
				"x": -0.3656900544,
				"y": 0.5242783176,
				"z": -1.0740854744,
				"element": "C" 
			},
			{
				"x": -1.038173855,
				"y": 0.1807431703,
				"z": -2.2569476775,
				"element": "C" 
			},
			{
				"x": -0.6854813207,
				"y": -0.9716278359,
				"z": -2.9662699543,
				"element": "N" 
			},
			{
				"x": -2.109420102,
				"y": 0.9848722971,
				"z": -2.685899027,
				"element": "C" 
			},
			{
				"x": -2.4913078959,
				"y": 2.0940743031,
				"z": -1.9370567541,
				"element": "C" 
			},
			{
				"x": -1.823475989,
				"y": 2.4248122436,
				"z": -0.755913516,
				"element": "C" 
			},
			{
				"x": 1.7190639291,
				"y": 0.3472070052,
				"z": 3.2988543746,
				"element": "H" 
			},
			{
				"x": 1.0540070588,
				"y": 1.9874711513,
				"z": 3.475389,
				"element": "H" 
			},
			{
				"x": 2.2973238274,
				"y": 1.6497853496,
				"z": 2.245406632,
				"element": "H" 
			},
			{
				"x": -0.4282653365,
				"y": -0.653286731,
				"z": 2.916802384,
				"element": "H" 
			},
			{
				"x": -1.4649339728,
				"y": -0.0571297471,
				"z": 1.608923893,
				"element": "H" 
			},
			{
				"x": -1.2654422598,
				"y": 0.909720846,
				"z": 3.091995976,
				"element": "H" 
			},
			{
				"x": -0.5459366847,
				"y": 2.7722188266,
				"z": 1.4964850946,
				"element": "H" 
			},
			{
				"x": 0.9606126651,
				"y": 2.5180082045,
				"z": 0.6156994148,
				"element": "H" 
			},
			{
				"x": 0.4567239424,
				"y": -0.0893209128,
				"z": -0.7153471723,
				"element": "H" 
			},
			{
				"x": 0.2617566651,
				"y": -1.2900881916,
				"z": -2.8140607749,
				"element": "H" 
			},
			{
				"x": -0.92175725,
				"y": -0.956994897,
				"z": -3.9490323725,
				"element": "H" 
			},
			{
				"x": -2.6422563834,
				"y": 0.7289155468,
				"z": -3.5986716684,
				"element": "H" 
			},
			{
				"x": -3.3238969399,
				"y": 2.7045329327,
				"z": -2.2765667083,
				"element": "H" 
			},
			{
				"x": -2.1327951093,
				"y": 3.28902925,
				"z": -0.1744725797,
				"element": "H" 
			}
		],
		 "valence_orbital": [ 
			{
				"type": "occ",
				"energy": -0.32259,
				"method": "rhf"
			},
			{
				"type": "occ",
				"energy": -0.2959,
				"method": "rhf"
			},
			{
				"type": "occ",
				"energy": -0.23317,
				"method": "rhf"
			},
			{
				"type": "occ",
				"energy": -0.20875,
				"method": "rhf"
			},
			{
				"type": "occ",
				"energy": -0.19523,
				"method": "rhf"
			},
			{
				"type": "unocc",
				"energy": 0.00801,
				"method": "rhf"
			},
			{
				"type": "unocc",
				"energy": 0.02527,
				"method": "rhf"
			},
			{
				"type": "unocc",
				"energy": 0.08617,
				"method": "rhf"
			},
			{
				"type": "unocc",
				"energy": 0.09492,
				"method": "rhf"
			},
			{
				"type": "unocc",
				"energy": 0.11279,
				"method": "rhf"
			}
		],
		"cosmo_sigma_profile": { 
			"-0.025": 0.0,
			"-0.024": 0.0,
			"-0.023": 0.0,
			"-0.022": 0.0,
			"-0.021": 0.0,
			"-0.02": 0.0,
			"-0.019": 0.0,
			"-0.018": 0.0,
			"-0.017": 0.0,
			"-0.016": 0.0,
			"-0.015": 0.0,
			"-0.014": 0.0,
			"-0.013": 0.0301606480677,
			"-0.012": 1.71451405405,
			"-0.011": 2.79199310939,
			"-0.01": 2.33955135777,
			"-0.009": 3.34810102468,
			"-0.008": 2.9197901315,
			"-0.007": 2.34817973443,
			"-0.006": 3.55618492799,
			"-0.005": 6.01366091133,
			"-0.004": 13.4147574468,
			"-0.003": 19.4963980409,
			"-0.002": 20.7251224902,
			"-0.001": 29.0017786454,
			"0.0": 26.1632359844,
			"0.001": 13.1996225865,
			"0.002": 9.35347296728,
			"0.003": 8.89655788533,
			"0.004": 9.09038586283,
			"0.005": 8.22025800056,
			"0.006": 8.43957824469,
			"0.007": 9.56398236175,
			"0.008": 4.12152910117,
			"0.009": 1.625811601,
			"0.01": 1.18199283623,
			"0.011": 1.90486705033,
			"0.012": 1.03426137322,
			"0.013": 0.989950721043,
			"0.014": 0.82690453037,
			"0.015": 0.433195135884,
			"0.016": 0.0,
			"0.017": 0.0,
			"0.018": 0.0,
			"0.019": 0.0,
			"0.02": 0.0,
			"0.021": 0.0,
			"0.022": 0.0,
			"0.023": 0.0,
			"0.024": 0.0,
			"0.025": 0.0
		}
	}
}
