{
	 "smiles": "COC1=CC(=CC(OC)=C1)N=C=S", 
	 "Tm": 323.65, 
	 "num_atms": 22, 
	 "gaussian": { 
		 "optdone": 1, 
		 "sigma_profile": "yes", 
		 "theory": "DFT", 
		 "functional": "B3LYP", 
		 "basiset": "6-31G**", 
		 "properties": { 
			 "R2extent": 4150.4114, 
			 "electric_dipole_moment_norm": 2.5840511837, 
			 "electric_quadrupole_moment_norm": 23.4125051857, 
			 "total_energy": -951.738156104, 
			 "HOMO_LUMO_gap": 0.17785, 
			 "cosmo_polarized_energy": -8.72, 
			 "cosmo_cavitation_energy": 29.48, 
			 "cosmo_dispersion_energy": -21.86, 
			 "cosmo_repulsion_energy": 1.71, 
			 "cosmo_total_nonelectrostatic_energy": 9.33, 
			 "SMD_solvation_energy": 7.27 
		},
		"coords": [
			{
				"x": -3.0664805976,
				"y": 2.0069162127,
				"z": -1.8911064319,
				"element": "C" 
			},
			{
				"x": -1.7157393619,
				"y": 2.3479593071,
				"z": -1.6124241068,
				"element": "O" 
			},
			{
				"x": -1.0313252751,
				"y": 1.5990801654,
				"z": -0.704943278,
				"element": "C" 
			},
			{
				"x": -1.5787246404,
				"y": 0.5065393412,
				"z": -0.0202222345,
				"element": "C" 
			},
			{
				"x": -0.7649107284,
				"y": -0.1822626977,
				"z": 0.890559263,
				"element": "C" 
			},
			{
				"x": 0.5656965782,
				"y": 0.1891336219,
				"z": 1.1307616686,
				"element": "C" 
			},
			{
				"x": 1.085297463,
				"y": 1.2858913273,
				"z": 0.4312197006,
				"element": "C" 
			},
			{
				"x": 2.3586082014,
				"y": 1.7452285194,
				"z": 0.5745863429,
				"element": "O" 
			},
			{
				"x": 3.2210278967,
				"y": 1.0784183489,
				"z": 1.4856888769,
				"element": "C" 
			},
			{
				"x": 0.2925328424,
				"y": 1.987190484,
				"z": -0.4814086371,
				"element": "C" 
			},
			{
				"x": -1.2887576615,
				"y": -1.2571101365,
				"z": 1.5699237301,
				"element": "N" 
			},
			{
				"x": -1.7402356207,
				"y": -2.1847523677,
				"z": 2.1551390219,
				"element": "C" 
			},
			{
				"x": -2.3494977661,
				"y": -3.4329958018,
				"z": 2.9402674778,
				"element": "S" 
			},
			{
				"x": -3.6960889724,
				"y": 2.0851066436,
				"z": -0.9959495412,
				"element": "H" 
			},
			{
				"x": -3.4094445626,
				"y": 2.727564221,
				"z": -2.6346850494,
				"element": "H" 
			},
			{
				"x": -3.1502922527,
				"y": 0.9941124465,
				"z": -2.3046887113,
				"element": "H" 
			},
			{
				"x": -2.5984822688,
				"y": 0.1797024344,
				"z": -0.1689233901,
				"element": "H" 
			},
			{
				"x": 1.150779714,
				"y": -0.3751502379,
				"z": 1.8435605937,
				"element": "H" 
			},
			{
				"x": 4.1735548719,
				"y": 1.6078103638,
				"z": 1.437687438,
				"element": "H" 
			},
			{
				"x": 3.3762905239,
				"y": 0.0300734479,
				"z": 1.2016222862,
				"element": "H" 
			},
			{
				"x": 2.8358004695,
				"y": 1.1215348448,
				"z": 2.5121232361,
				"element": "H" 
			},
			{
				"x": 0.7052911471,
				"y": 2.8336095117,
				"z": -1.0169882557,
				"element": "H" 
			}
		],
		 "valence_orbital": [ 
			{
				"type": "occ",
				"energy": -0.32187,
				"method": "rhf"
			},
			{
				"type": "occ",
				"energy": -0.26222,
				"method": "rhf"
			},
			{
				"type": "occ",
				"energy": -0.24956,
				"method": "rhf"
			},
			{
				"type": "occ",
				"energy": -0.23278,
				"method": "rhf"
			},
			{
				"type": "occ",
				"energy": -0.22144,
				"method": "rhf"
			},
			{
				"type": "unocc",
				"energy": -0.04359,
				"method": "rhf"
			},
			{
				"type": "unocc",
				"energy": 0.00682,
				"method": "rhf"
			},
			{
				"type": "unocc",
				"energy": 0.00749,
				"method": "rhf"
			},
			{
				"type": "unocc",
				"energy": 0.05358,
				"method": "rhf"
			},
			{
				"type": "unocc",
				"energy": 0.07765,
				"method": "rhf"
			}
		],
		"cosmo_sigma_profile": { 
			"-0.025": 0.0,
			"-0.024": 0.0,
			"-0.023": 0.0,
			"-0.022": 0.0,
			"-0.021": 0.0,
			"-0.02": 0.0,
			"-0.019": 0.0,
			"-0.018": 0.0,
			"-0.017": 0.0,
			"-0.016": 0.0,
			"-0.015": 0.0,
			"-0.014": 0.0,
			"-0.013": 0.0,
			"-0.012": 0.0,
			"-0.011": 0.0,
			"-0.01": 0.0,
			"-0.009": 0.0,
			"-0.008": 0.908859548224,
			"-0.007": 5.72860867967,
			"-0.006": 16.0660661794,
			"-0.005": 20.7574530399,
			"-0.004": 20.0613515997,
			"-0.003": 19.9202893647,
			"-0.002": 12.9714767341,
			"-0.001": 19.2843331947,
			"0.0": 16.1438578142,
			"0.001": 13.8050548294,
			"0.002": 17.0112622406,
			"0.003": 25.1047164809,
			"0.004": 11.0799351373,
			"0.005": 10.8154383274,
			"0.006": 15.901220904,
			"0.007": 5.83830229513,
			"0.008": 2.95215693622,
			"0.009": 2.58803291412,
			"0.01": 2.45866816213,
			"0.011": 0.0448337472541,
			"0.012": 0.0,
			"0.013": 0.0,
			"0.014": 0.0,
			"0.015": 0.0,
			"0.016": 0.0,
			"0.017": 0.0,
			"0.018": 0.0,
			"0.019": 0.0,
			"0.02": 0.0,
			"0.021": 0.0,
			"0.022": 0.0,
			"0.023": 0.0,
			"0.024": 0.0,
			"0.025": 0.0
		}
	}
}
