{
	 "smiles": "CC(=O)C1=CC=C(C=C1)C(C)=O", 
	 "Tm": 385.15, 
	 "num_atms": 22, 
	 "gaussian": { 
		 "optdone": 1, 
		 "sigma_profile": "yes", 
		 "theory": "DFT", 
		 "functional": "B3LYP", 
		 "basiset": "6-31G**", 
		 "properties": { 
			 "R2extent": 2906.6306, 
			 "electric_dipole_moment_norm": 0.0, 
			 "electric_quadrupole_moment_norm": 21.7670074716, 
			 "total_energy": -537.54635008, 
			 "HOMO_LUMO_gap": 0.17248, 
			 "cosmo_polarized_energy": -11.54, 
			 "cosmo_cavitation_energy": 26.37, 
			 "cosmo_dispersion_energy": -19.04, 
			 "cosmo_repulsion_energy": 1.5, 
			 "cosmo_total_nonelectrostatic_energy": 8.83, 
			 "SMD_solvation_energy": 5.97 
		},
		"coords": [
			{
				"x": 4.0631063609,
				"y": 1.1883639329,
				"z": -1.2026163808,
				"element": "C" 
			},
			{
				"x": 2.7859921071,
				"y": 0.7144626764,
				"z": -1.8730927478,
				"element": "C" 
			},
			{
				"x": 2.7943709114,
				"y": 0.3314030944,
				"z": -3.0326882742,
				"element": "O" 
			},
			{
				"x": 1.5056311019,
				"y": 0.7237045431,
				"z": -1.0855017351,
				"element": "C" 
			},
			{
				"x": 1.435324086,
				"y": 1.1529494534,
				"z": 0.2498952317,
				"element": "C" 
			},
			{
				"x": 0.2226362718,
				"y": 1.1398573378,
				"z": 0.9297987996,
				"element": "C" 
			},
			{
				"x": -0.9467308031,
				"y": 0.6983742226,
				"z": 0.2928842397,
				"element": "C" 
			},
			{
				"x": -0.876423814,
				"y": 0.2691296066,
				"z": -1.0425126196,
				"element": "C" 
			},
			{
				"x": 0.3362641309,
				"y": 0.2822224269,
				"z": -1.7224165305,
				"element": "C" 
			},
			{
				"x": -2.2270915767,
				"y": 0.7076164707,
				"z": 1.0804759704,
				"element": "C" 
			},
			{
				"x": -3.5042058371,
				"y": 0.2337158412,
				"z": 0.409999234,
				"element": "C" 
			},
			{
				"x": -2.2354738391,
				"y": 1.0906959319,
				"z": 2.2400647112,
				"element": "O" 
			},
			{
				"x": 3.9686090358,
				"y": 2.2270008055,
				"z": -0.8668739846,
				"element": "H" 
			},
			{
				"x": 4.8819533745,
				"y": 1.1121261393,
				"z": -1.918290837,
				"element": "H" 
			},
			{
				"x": 4.2927904881,
				"y": 0.5803994433,
				"z": -0.320553617,
				"element": "H" 
			},
			{
				"x": 2.3271041291,
				"y": 1.4985865022,
				"z": 0.7625271192,
				"element": "H" 
			},
			{
				"x": 0.151024986,
				"y": 1.4679421979,
				"z": 1.9612100694,
				"element": "H" 
			},
			{
				"x": -1.7682036314,
				"y": -0.076507193,
				"z": -1.5551451132,
				"element": "H" 
			},
			{
				"x": 0.407874712,
				"y": -0.0458616253,
				"z": -2.7538281186,
				"element": "H" 
			},
			{
				"x": -4.3230514927,
				"y": 0.3099440207,
				"z": 1.1256762942,
				"element": "H" 
			},
			{
				"x": -3.7338943973,
				"y": 0.8416905769,
				"z": -0.4720556358,
				"element": "H" 
			},
			{
				"x": -3.4097063042,
				"y": -0.8049164054,
				"z": 0.0742439247,
				"element": "H" 
			}
		],
		 "valence_orbital": [ 
			{
				"type": "occ",
				"energy": -0.35162,
				"method": "rhf"
			},
			{
				"type": "occ",
				"energy": -0.27293,
				"method": "rhf"
			},
			{
				"type": "occ",
				"energy": -0.26609,
				"method": "rhf"
			},
			{
				"type": "occ",
				"energy": -0.25714,
				"method": "rhf"
			},
			{
				"type": "occ",
				"energy": -0.25524,
				"method": "rhf"
			},
			{
				"type": "unocc",
				"energy": -0.08276,
				"method": "rhf"
			},
			{
				"type": "unocc",
				"energy": -0.01896,
				"method": "rhf"
			},
			{
				"type": "unocc",
				"energy": -0.01674,
				"method": "rhf"
			},
			{
				"type": "unocc",
				"energy": 0.05738,
				"method": "rhf"
			},
			{
				"type": "unocc",
				"energy": 0.08467,
				"method": "rhf"
			}
		],
		"cosmo_sigma_profile": { 
			"-0.025": 0.0,
			"-0.024": 0.0,
			"-0.023": 0.0,
			"-0.022": 0.0,
			"-0.021": 0.0,
			"-0.02": 0.0,
			"-0.019": 0.0,
			"-0.018": 0.0,
			"-0.017": 0.0,
			"-0.016": 0.0,
			"-0.015": 0.0,
			"-0.014": 0.0,
			"-0.013": 0.0,
			"-0.012": 0.0,
			"-0.011": 0.0,
			"-0.01": 0.0,
			"-0.009": 0.0,
			"-0.008": 0.103811650726,
			"-0.007": 6.74153716426,
			"-0.006": 20.7575371269,
			"-0.005": 19.0775140989,
			"-0.004": 16.8542109827,
			"-0.003": 16.1637040548,
			"-0.002": 16.931974003,
			"-0.001": 19.3732124311,
			"0.0": 12.2694062892,
			"0.001": 12.7785511925,
			"0.002": 17.1187281671,
			"0.003": 12.3096841065,
			"0.004": 2.69230437084,
			"0.005": 4.72832198242,
			"0.006": 3.18420182498,
			"0.007": 1.56588440872,
			"0.008": 3.82362192146,
			"0.009": 3.75403190387,
			"0.01": 4.40415771407,
			"0.011": 7.18987866077,
			"0.012": 6.23009202943,
			"0.013": 1.95236236225,
			"0.014": 0.0267415612648,
			"0.015": 0.0,
			"0.016": 0.0,
			"0.017": 0.0,
			"0.018": 0.0,
			"0.019": 0.0,
			"0.02": 0.0,
			"0.021": 0.0,
			"0.022": 0.0,
			"0.023": 0.0,
			"0.024": 0.0,
			"0.025": 0.0
		}
	}
}
