{
	 "smiles": "CCN(CC)S(=O)(=O)C1=CC(C(O)=O)=C(NCCOC)C=C1", 
	 "Tm": 290.15, 
	 "num_atms": 44, 
	 "gaussian": { 
		 "optdone": 1, 
		 "sigma_profile": "yes", 
		 "theory": "DFT", 
		 "functional": "B3LYP", 
		 "basiset": "6-31G**", 
		 "properties": { 
			 "R2extent": 9220.1936, 
			 "electric_dipole_moment_norm": 9.53360577169, 
			 "electric_quadrupole_moment_norm": 22.7375055677, 
			 "total_energy": -1430.49087087, 
			 "HOMO_LUMO_gap": 0.1849, 
			 "cosmo_polarized_energy": -24.19, 
			 "cosmo_cavitation_energy": 47.28, 
			 "cosmo_dispersion_energy": -31.59, 
			 "cosmo_repulsion_energy": 2.42, 
			 "cosmo_total_nonelectrostatic_energy": 18.11, 
			 "SMD_solvation_energy": 8.11 
		},
		"coords": [
			{
				"x": 0.1236666091,
				"y": 3.7424960262,
				"z": -1.216015488,
				"element": "C" 
			},
			{
				"x": -1.1832650321,
				"y": 3.0446781067,
				"z": -1.5900636332,
				"element": "C" 
			},
			{
				"x": -2.0441740135,
				"y": 2.8338957854,
				"z": -0.4077094068,
				"element": "N" 
			},
			{
				"x": -2.6752877671,
				"y": 4.0503001467,
				"z": 0.1715978051,
				"element": "C" 
			},
			{
				"x": -2.2970745179,
				"y": 4.2595518676,
				"z": 1.6356018968,
				"element": "C" 
			},
			{
				"x": -3.0696543678,
				"y": 1.4856535419,
				"z": -0.5124843276,
				"element": "S" 
			},
			{
				"x": -3.9805419252,
				"y": 1.5845701642,
				"z": 0.6340056543,
				"element": "O" 
			},
			{
				"x": -3.5962462058,
				"y": 1.3138177512,
				"z": -1.8724517176,
				"element": "O" 
			},
			{
				"x": -1.9302801641,
				"y": 0.1288424116,
				"z": -0.2066566642,
				"element": "C" 
			},
			{
				"x": -1.5291409056,
				"y": -0.6900677639,
				"z": -1.2557926568,
				"element": "C" 
			},
			{
				"x": -0.6704692037,
				"y": -1.7715220737,
				"z": -1.0182378547,
				"element": "C" 
			},
			{
				"x": -0.3617670231,
				"y": -2.6565543718,
				"z": -2.2075938626,
				"element": "C" 
			},
			{
				"x": 0.1766955653,
				"y": -3.8561716332,
				"z": -1.9413342621,
				"element": "O" 
			},
			{
				"x": -0.61391041,
				"y": -2.307297227,
				"z": -3.3401283874,
				"element": "O" 
			},
			{
				"x": -0.2054091513,
				"y": -2.0026711532,
				"z": 0.2928594052,
				"element": "C" 
			},
			{
				"x": 0.6766377753,
				"y": -3.104761806,
				"z": 0.5498875159,
				"element": "N" 
			},
			{
				"x": 2.1219992903,
				"y": -2.8473544767,
				"z": 0.3294571957,
				"element": "C" 
			},
			{
				"x": 2.7254052859,
				"y": -1.8608561501,
				"z": 1.3230855669,
				"element": "C" 
			},
			{
				"x": 2.4389390874,
				"y": -2.3420589839,
				"z": 2.6251158788,
				"element": "O" 
			},
			{
				"x": 2.9995231993,
				"y": -1.5439391791,
				"z": 3.651306722,
				"element": "C" 
			},
			{
				"x": -0.6374036752,
				"y": -1.1767249676,
				"z": 1.342066784,
				"element": "C" 
			},
			{
				"x": -1.5042372689,
				"y": -0.1172743994,
				"z": 1.1020463472,
				"element": "C" 
			},
			{
				"x": -0.0489341126,
				"y": 4.7378699795,
				"z": -0.7951864364,
				"element": "H" 
			},
			{
				"x": 0.7474562679,
				"y": 3.8643503782,
				"z": -2.1073706392,
				"element": "H" 
			},
			{
				"x": 0.6785924129,
				"y": 3.1536666496,
				"z": -0.4798311718,
				"element": "H" 
			},
			{
				"x": -0.954460537,
				"y": 2.0666350575,
				"z": -2.0211287332,
				"element": "H" 
			},
			{
				"x": -1.7212846591,
				"y": 3.6093135485,
				"z": -2.3644046089,
				"element": "H" 
			},
			{
				"x": -3.7633289407,
				"y": 4.0002689329,
				"z": 0.0725725632,
				"element": "H" 
			},
			{
				"x": -2.3429920002,
				"y": 4.8982607246,
				"z": -0.4358360805,
				"element": "H" 
			},
			{
				"x": -1.2112284842,
				"y": 4.3210419214,
				"z": 1.757353233,
				"element": "H" 
			},
			{
				"x": -2.7403732192,
				"y": 5.1877937092,
				"z": 2.0128674619,
				"element": "H" 
			},
			{
				"x": -2.6708976102,
				"y": 3.4324960844,
				"z": 2.244121463,
				"element": "H" 
			},
			{
				"x": -1.8959604166,
				"y": -0.5273570037,
				"z": -2.2630503125,
				"element": "H" 
			},
			{
				"x": 0.3042455812,
				"y": -3.9354680866,
				"z": -0.9595982859,
				"element": "H" 
			},
			{
				"x": 0.5679447102,
				"y": -3.4123781671,
				"z": 1.5134034868,
				"element": "H" 
			},
			{
				"x": 2.266998835,
				"y": -2.4890480921,
				"z": -0.6931076736,
				"element": "H" 
			},
			{
				"x": 2.6332769226,
				"y": -3.8107869021,
				"z": 0.4194996492,
				"element": "H" 
			},
			{
				"x": 3.8127775278,
				"y": -1.7922633827,
				"z": 1.156593724,
				"element": "H" 
			},
			{
				"x": 2.3024057207,
				"y": -0.8530006714,
				"z": 1.1836239018,
				"element": "H" 
			},
			{
				"x": 2.6243008508,
				"y": -0.5100226349,
				"z": 3.613649463,
				"element": "H" 
			},
			{
				"x": 2.7116502894,
				"y": -1.9923362347,
				"z": 4.6047369354,
				"element": "H" 
			},
			{
				"x": 4.0974448724,
				"y": -1.516894557,
				"z": 3.5869572196,
				"element": "H" 
			},
			{
				"x": -0.2733201131,
				"y": -1.3728611393,
				"z": 2.3464847002,
				"element": "H" 
			},
			{
				"x": -1.8495190796,
				"y": 0.5134682697,
				"z": 1.9138876298,
				"element": "H" 
			}
		],
		 "valence_orbital": [ 
			{
				"type": "occ",
				"energy": -0.28592,
				"method": "rhf"
			},
			{
				"type": "occ",
				"energy": -0.27914,
				"method": "rhf"
			},
			{
				"type": "occ",
				"energy": -0.26548,
				"method": "rhf"
			},
			{
				"type": "occ",
				"energy": -0.26467,
				"method": "rhf"
			},
			{
				"type": "occ",
				"energy": -0.24573,
				"method": "rhf"
			},
			{
				"type": "unocc",
				"energy": -0.06083,
				"method": "rhf"
			},
			{
				"type": "unocc",
				"energy": -0.04062,
				"method": "rhf"
			},
			{
				"type": "unocc",
				"energy": 0.03432,
				"method": "rhf"
			},
			{
				"type": "unocc",
				"energy": 0.05487,
				"method": "rhf"
			},
			{
				"type": "unocc",
				"energy": 0.06279,
				"method": "rhf"
			}
		],
		"cosmo_sigma_profile": { 
			"-0.025": 0.0,
			"-0.024": 0.0,
			"-0.023": 0.0,
			"-0.022": 0.0,
			"-0.021": 0.0,
			"-0.02": 0.0,
			"-0.019": 0.0,
			"-0.018": 0.0,
			"-0.017": 0.0,
			"-0.016": 0.0,
			"-0.015": 0.0,
			"-0.014": 0.0,
			"-0.013": 0.0452858168351,
			"-0.012": 0.695104740282,
			"-0.011": 0.633674948231,
			"-0.01": 1.34906171883,
			"-0.009": 0.782947301758,
			"-0.008": 2.34398832199,
			"-0.007": 6.76695071877,
			"-0.006": 12.0030633852,
			"-0.005": 25.5365661362,
			"-0.004": 40.9027170686,
			"-0.003": 48.9519873952,
			"-0.002": 47.3518006349,
			"-0.001": 31.3633277439,
			"0.0": 33.5522861403,
			"0.001": 23.9339086177,
			"0.002": 10.4716338482,
			"0.003": 7.45833614808,
			"0.004": 7.62329072958,
			"0.005": 7.17386311553,
			"0.006": 6.78602589997,
			"0.007": 5.17097735885,
			"0.008": 6.33643705108,
			"0.009": 7.56850697839,
			"0.01": 10.4688085193,
			"0.011": 14.4491639069,
			"0.012": 9.28670478931,
			"0.013": 2.18678036113,
			"0.014": 0.389694063875,
			"0.015": 0.0,
			"0.016": 0.0,
			"0.017": 0.0,
			"0.018": 0.0,
			"0.019": 0.0,
			"0.02": 0.0,
			"0.021": 0.0,
			"0.022": 0.0,
			"0.023": 0.0,
			"0.024": 0.0,
			"0.025": 0.0
		}
	}
}
