{
	 "smiles": "OC(=O)CNC(=O)C1=CC=C(C=C1)[N+]([O-])=O", 
	 "Tm": 402.65, 
	 "num_atms": 24, 
	 "gaussian": { 
		 "optdone": 1, 
		 "sigma_profile": "yes", 
		 "theory": "DFT", 
		 "functional": "B3LYP", 
		 "basiset": "6-31G**", 
		 "properties": { 
			 "R2extent": 4547.3975, 
			 "electric_dipole_moment_norm": 6.55514701818, 
			 "electric_quadrupole_moment_norm": 22.2660236654, 
			 "total_energy": -833.310813626, 
			 "HOMO_LUMO_gap": 0.16643, 
			 "cosmo_polarized_energy": -27.63, 
			 "cosmo_cavitation_energy": 30.32, 
			 "cosmo_dispersion_energy": -21.57, 
			 "cosmo_repulsion_energy": 1.7, 
			 "cosmo_total_nonelectrostatic_energy": 10.45, 
			 "SMD_solvation_energy": 9.1 
		},
		"coords": [
			{
				"x": 2.5734677515,
				"y": 3.6170413928,
				"z": 0.1232351007,
				"element": "O" 
			},
			{
				"x": 1.410795537,
				"y": 3.2555321689,
				"z": -0.4716691433,
				"element": "C" 
			},
			{
				"x": 0.3654442479,
				"y": 3.7471806858,
				"z": -0.1359408279,
				"element": "O" 
			},
			{
				"x": 1.54938482,
				"y": 2.1617762855,
				"z": -1.5447544883,
				"element": "C" 
			},
			{
				"x": 0.3928286204,
				"y": 2.0248873876,
				"z": -2.3914444172,
				"element": "N" 
			},
			{
				"x": -0.5053795201,
				"y": 0.98358499,
				"z": -2.4672850358,
				"element": "C" 
			},
			{
				"x": -1.2310756872,
				"y": 0.8521732222,
				"z": -3.4434464263,
				"element": "O" 
			},
			{
				"x": -0.5895936002,
				"y": 0.021955163,
				"z": -1.3119143244,
				"element": "C" 
			},
			{
				"x": -0.6479885826,
				"y": 0.4563303235,
				"z": 0.0211456236,
				"element": "C" 
			},
			{
				"x": -0.8177025368,
				"y": -0.467233654,
				"z": 1.0511476852,
				"element": "C" 
			},
			{
				"x": -0.9198347454,
				"y": -1.8178051319,
				"z": 0.7279952396,
				"element": "C" 
			},
			{
				"x": -0.8830808847,
				"y": -2.2732995017,
				"z": -0.5897016058,
				"element": "C" 
			},
			{
				"x": -0.7319206453,
				"y": -1.3414118695,
				"z": -1.6101163481,
				"element": "C" 
			},
			{
				"x": -1.0811099576,
				"y": -2.7998574824,
				"z": 1.8159560732,
				"element": "N" 
			},
			{
				"x": -1.1722870351,
				"y": -3.985712459,
				"z": 1.5024924474,
				"element": "O" 
			},
			{
				"x": -1.1107981173,
				"y": -2.3724755394,
				"z": 2.968827623,
				"element": "O" 
			},
			{
				"x": 3.326649043,
				"y": 3.1496523666,
				"z": -0.2671681234,
				"element": "H" 
			},
			{
				"x": 2.4372531135,
				"y": 2.3688838584,
				"z": -2.1589520988,
				"element": "H" 
			},
			{
				"x": 1.742987709,
				"y": 1.2155240165,
				"z": -1.0283791157,
				"element": "H" 
			},
			{
				"x": 0.3083933924,
				"y": 2.6630144936,
				"z": -3.1723442436,
				"element": "H" 
			},
			{
				"x": -0.5940814148,
				"y": 1.5160148857,
				"z": 0.2494250225,
				"element": "H" 
			},
			{
				"x": -0.8769488618,
				"y": -0.1601228018,
				"z": 2.0877741182,
				"element": "H" 
			},
			{
				"x": -0.9808119858,
				"y": -3.3326549258,
				"z": -0.790705347,
				"element": "H" 
			},
			{
				"x": -0.7305906598,
				"y": -1.6558778746,
				"z": -2.6480773878,
				"element": "H" 
			}
		],
		 "valence_orbital": [ 
			{
				"type": "occ",
				"energy": -0.29747,
				"method": "rhf"
			},
			{
				"type": "occ",
				"energy": -0.29564,
				"method": "rhf"
			},
			{
				"type": "occ",
				"energy": -0.28779,
				"method": "rhf"
			},
			{
				"type": "occ",
				"energy": -0.27996,
				"method": "rhf"
			},
			{
				"type": "occ",
				"energy": -0.26652,
				"method": "rhf"
			},
			{
				"type": "unocc",
				"energy": -0.10009,
				"method": "rhf"
			},
			{
				"type": "unocc",
				"energy": -0.03703,
				"method": "rhf"
			},
			{
				"type": "unocc",
				"energy": -0.03089,
				"method": "rhf"
			},
			{
				"type": "unocc",
				"energy": -0.01788,
				"method": "rhf"
			},
			{
				"type": "unocc",
				"energy": 0.02269,
				"method": "rhf"
			}
		],
		"cosmo_sigma_profile": { 
			"-0.025": 0.0,
			"-0.024": 0.0,
			"-0.023": 0.0,
			"-0.022": 0.0,
			"-0.021": 0.0,
			"-0.02": 0.879095027073,
			"-0.019": 1.26102156476,
			"-0.018": 1.43995108345,
			"-0.017": 1.15204520837,
			"-0.016": 1.01673356918,
			"-0.015": 2.04213411956,
			"-0.014": 2.68381466589,
			"-0.013": 2.26747411354,
			"-0.012": 2.69668123787,
			"-0.011": 3.38751581423,
			"-0.01": 3.40308067949,
			"-0.009": 5.19809180975,
			"-0.008": 7.19082055766,
			"-0.007": 10.2985186333,
			"-0.006": 11.1477735357,
			"-0.005": 11.1121699545,
			"-0.004": 10.998600343,
			"-0.003": 12.6188910926,
			"-0.002": 12.905263769,
			"-0.001": 15.1262408356,
			"0.0": 15.787977776,
			"0.001": 13.5473522105,
			"0.002": 7.35487068151,
			"0.003": 5.09611770263,
			"0.004": 7.21157256851,
			"0.005": 6.38126576421,
			"0.006": 7.83515416868,
			"0.007": 13.1709234947,
			"0.008": 10.5222004248,
			"0.009": 9.32488365979,
			"0.01": 8.72459261239,
			"0.011": 6.63317900388,
			"0.012": 6.12789802055,
			"0.013": 5.35651593429,
			"0.014": 0.652027815065,
			"0.015": 0.0,
			"0.016": 0.0,
			"0.017": 0.0,
			"0.018": 0.0,
			"0.019": 0.0,
			"0.02": 0.0,
			"0.021": 0.0,
			"0.022": 0.0,
			"0.023": 0.0,
			"0.024": 0.0,
			"0.025": 0.0
		}
	}
}
