{
	 "smiles": "OC(=O)CCCCl", 
	 "Tm": 289.15, 
	 "num_atms": 14, 
	 "gaussian": { 
		 "optdone": 1, 
		 "sigma_profile": "yes", 
		 "theory": "DFT", 
		 "functional": "B3LYP", 
		 "basiset": "6-31G**", 
		 "properties": { 
			 "R2extent": 1385.2872, 
			 "electric_dipole_moment_norm": 5.14560880169, 
			 "electric_quadrupole_moment_norm": 13.7835371523, 
			 "total_energy": -767.298620223, 
			 "HOMO_LUMO_gap": 0.25938, 
			 "cosmo_polarized_energy": -13.35, 
			 "cosmo_cavitation_energy": 18.85, 
			 "cosmo_dispersion_energy": -14.22, 
			 "cosmo_repulsion_energy": 1.22, 
			 "cosmo_total_nonelectrostatic_energy": 5.84, 
			 "SMD_solvation_energy": 4.0 
		},
		"coords": [
			{
				"x": 0.7882657957,
				"y": 0.4894432364,
				"z": -0.1766047681,
				"element": "O" 
			},
			{
				"x": 1.0937597435,
				"y": 0.5950778587,
				"z": 1.1390788156,
				"element": "C" 
			},
			{
				"x": 2.1606054458,
				"y": 1.0378398076,
				"z": 1.4868587004,
				"element": "O" 
			},
			{
				"x": 0.0201890898,
				"y": 0.119001276,
				"z": 2.1164983627,
				"element": "C" 
			},
			{
				"x": -0.4024797805,
				"y": -1.3635478677,
				"z": 1.9228018789,
				"element": "C" 
			},
			{
				"x": -1.8627742363,
				"y": -1.5719552068,
				"z": 1.5475726976,
				"element": "C" 
			},
			{
				"x": -2.2712605808,
				"y": -0.8376038653,
				"z": -0.0801764992,
				"element": "Cl" 
			},
			{
				"x": -0.1219089479,
				"y": 0.1689532937,
				"z": -0.2996109113,
				"element": "H" 
			},
			{
				"x": -0.8526074869,
				"y": 0.7763134629,
				"z": 2.0109706776,
				"element": "H" 
			},
			{
				"x": 0.4262198202,
				"y": 0.2794619206,
				"z": 3.1157065832,
				"element": "H" 
			},
			{
				"x": -0.2491172648,
				"y": -1.9083099441,
				"z": 2.8621249007,
				"element": "H" 
			},
			{
				"x": 0.2325648542,
				"y": -1.8578635405,
				"z": 1.1802929363,
				"element": "H" 
			},
			{
				"x": -2.1116192678,
				"y": -2.6298449567,
				"z": 1.4589187592,
				"element": "H" 
			},
			{
				"x": -2.5423371841,
				"y": -1.0972654748,
				"z": 2.2573678663,
				"element": "H" 
			}
		],
		 "valence_orbital": [ 
			{
				"type": "occ",
				"energy": -0.36382,
				"method": "rhf"
			},
			{
				"type": "occ",
				"energy": -0.32826,
				"method": "rhf"
			},
			{
				"type": "occ",
				"energy": -0.32429,
				"method": "rhf"
			},
			{
				"type": "occ",
				"energy": -0.30763,
				"method": "rhf"
			},
			{
				"type": "occ",
				"energy": -0.26384,
				"method": "rhf"
			},
			{
				"type": "unocc",
				"energy": -0.00446,
				"method": "rhf"
			},
			{
				"type": "unocc",
				"energy": 0.01395,
				"method": "rhf"
			},
			{
				"type": "unocc",
				"energy": 0.06622,
				"method": "rhf"
			},
			{
				"type": "unocc",
				"energy": 0.0969,
				"method": "rhf"
			},
			{
				"type": "unocc",
				"energy": 0.10544,
				"method": "rhf"
			}
		],
		"cosmo_sigma_profile": { 
			"-0.025": 0.0,
			"-0.024": 0.0,
			"-0.023": 0.0,
			"-0.022": 0.0,
			"-0.021": 0.0,
			"-0.02": 0.0,
			"-0.019": 0.0,
			"-0.018": 0.0,
			"-0.017": 0.0,
			"-0.016": 0.0,
			"-0.015": 0.0,
			"-0.014": 0.0,
			"-0.013": 0.0,
			"-0.012": 0.0,
			"-0.011": 0.0,
			"-0.01": 0.0867050166677,
			"-0.009": 0.805912436971,
			"-0.008": 4.3349940476,
			"-0.007": 10.3612591027,
			"-0.006": 19.2505847612,
			"-0.005": 17.0977548462,
			"-0.004": 11.9463589103,
			"-0.003": 11.1923599304,
			"-0.002": 5.63095434113,
			"-0.001": 5.64018613064,
			"0.0": 3.4922437394,
			"0.001": 4.54626144058,
			"0.002": 4.71695412485,
			"0.003": 5.21083209222,
			"0.004": 5.24965495073,
			"0.005": 7.41294864035,
			"0.006": 6.16782188074,
			"0.007": 2.11674058044,
			"0.008": 2.64707695771,
			"0.009": 3.05109068781,
			"0.01": 3.99935616285,
			"0.011": 5.67958665,
			"0.012": 6.14730882403,
			"0.013": 3.27753834943,
			"0.014": 0.282639563966,
			"0.015": 0.0,
			"0.016": 0.0,
			"0.017": 0.0,
			"0.018": 0.0,
			"0.019": 0.0,
			"0.02": 0.0,
			"0.021": 0.0,
			"0.022": 0.0,
			"0.023": 0.0,
			"0.024": 0.0,
			"0.025": 0.0
		}
	}
}
