{
	 "smiles": "ClC1=NC=NC(NC2CCOC3=C2C=CC=C3)=C1", 
	 "Tm": 403.15, 
	 "num_atms": 30, 
	 "gaussian": { 
		 "optdone": 1, 
		 "sigma_profile": "yes", 
		 "theory": "DFT", 
		 "functional": "B3LYP", 
		 "basiset": "6-31G**", 
		 "properties": { 
			 "R2extent": 6755.6953, 
			 "electric_dipole_moment_norm": 4.74719824212, 
			 "electric_quadrupole_moment_norm": 21.516377605, 
			 "total_energy": -1202.28474665, 
			 "HOMO_LUMO_gap": 0.19759, 
			 "cosmo_polarized_energy": -13.17, 
			 "cosmo_cavitation_energy": 34.52, 
			 "cosmo_dispersion_energy": -24.68, 
			 "cosmo_repulsion_energy": 1.92, 
			 "cosmo_total_nonelectrostatic_energy": 11.75, 
			 "SMD_solvation_energy": 2.3 
		},
		"coords": [
			{
				"x": -5.2557075848,
				"y": 1.8728362487,
				"z": -0.3647643885,
				"element": "Cl" 
			},
			{
				"x": -3.8349642434,
				"y": 2.2943712098,
				"z": 0.585231235,
				"element": "C" 
			},
			{
				"x": -3.9047649874,
				"y": 3.4198858074,
				"z": 1.2834289626,
				"element": "N" 
			},
			{
				"x": -2.8007653379,
				"y": 3.6889900846,
				"z": 1.9938299251,
				"element": "C" 
			},
			{
				"x": -1.6833285393,
				"y": 2.9777565657,
				"z": 2.0589179268,
				"element": "N" 
			},
			{
				"x": -1.6362437913,
				"y": 1.8350706173,
				"z": 1.3295122255,
				"element": "C" 
			},
			{
				"x": -0.4627139462,
				"y": 1.147838846,
				"z": 1.4703111608,
				"element": "N" 
			},
			{
				"x": 0.1296129713,
				"y": 0.0337382901,
				"z": 0.7155955285,
				"element": "C" 
			},
			{
				"x": 0.8700477645,
				"y": 0.4765890448,
				"z": -0.566339371,
				"element": "C" 
			},
			{
				"x": -0.0772397539,
				"y": 0.5180024,
				"z": -1.7570348564,
				"element": "C" 
			},
			{
				"x": -0.6423698292,
				"y": -0.7729633137,
				"z": -2.0097911178,
				"element": "O" 
			},
			{
				"x": -1.1324314559,
				"y": -1.4461704098,
				"z": -0.9250914648,
				"element": "C" 
			},
			{
				"x": -0.8354230019,
				"y": -1.0972442797,
				"z": 0.4037663015,
				"element": "C" 
			},
			{
				"x": -1.4019670444,
				"y": -1.8577365674,
				"z": 1.4371118574,
				"element": "C" 
			},
			{
				"x": -2.235042265,
				"y": -2.9383777488,
				"z": 1.1704504035,
				"element": "C" 
			},
			{
				"x": -2.5076918193,
				"y": -3.282156694,
				"z": -0.1595468395,
				"element": "C" 
			},
			{
				"x": -1.9617415817,
				"y": -2.5431621582,
				"z": -1.2015321649,
				"element": "C" 
			},
			{
				"x": -2.7442433286,
				"y": 1.4389015064,
				"z": 0.5488071069,
				"element": "C" 
			},
			{
				"x": -2.8249906854,
				"y": 4.603285494,
				"z": 2.58418811,
				"element": "H" 
			},
			{
				"x": 0.1838023663,
				"y": 1.6620014735,
				"z": 2.0554443412,
				"element": "H" 
			},
			{
				"x": 0.8845022453,
				"y": -0.3678132635,
				"z": 1.4022245335,
				"element": "H" 
			},
			{
				"x": 1.6703057968,
				"y": -0.2423521507,
				"z": -0.7794794873,
				"element": "H" 
			},
			{
				"x": 1.3347814327,
				"y": 1.4560920515,
				"z": -0.4149795643,
				"element": "H" 
			},
			{
				"x": 0.4415299444,
				"y": 0.7922730431,
				"z": -2.6784173817,
				"element": "H" 
			},
			{
				"x": -0.885011717,
				"y": 1.2426834119,
				"z": -1.5888728526,
				"element": "H" 
			},
			{
				"x": -1.1781563233,
				"y": -1.5827578776,
				"z": 2.4649442859,
				"element": "H" 
			},
			{
				"x": -2.6652789382,
				"y": -3.5112455444,
				"z": 1.985652761,
				"element": "H" 
			},
			{
				"x": -3.1535676667,
				"y": -4.1261304851,
				"z": -0.3834025662,
				"element": "H" 
			},
			{
				"x": -2.1662033528,
				"y": -2.7839375407,
				"z": -2.2395053246,
				"element": "H" 
			},
			{
				"x": -2.7653353277,
				"y": 0.5264319387,
				"z": -0.0257592855,
				"element": "H" 
			}
		],
		 "valence_orbital": [ 
			{
				"type": "occ",
				"energy": -0.2759,
				"method": "rhf"
			},
			{
				"type": "occ",
				"energy": -0.2647,
				"method": "rhf"
			},
			{
				"type": "occ",
				"energy": -0.25596,
				"method": "rhf"
			},
			{
				"type": "occ",
				"energy": -0.23504,
				"method": "rhf"
			},
			{
				"type": "occ",
				"energy": -0.22797,
				"method": "rhf"
			},
			{
				"type": "unocc",
				"energy": -0.03038,
				"method": "rhf"
			},
			{
				"type": "unocc",
				"energy": -0.0193,
				"method": "rhf"
			},
			{
				"type": "unocc",
				"energy": -0.01443,
				"method": "rhf"
			},
			{
				"type": "unocc",
				"energy": 0.00217,
				"method": "rhf"
			},
			{
				"type": "unocc",
				"energy": 0.03687,
				"method": "rhf"
			}
		],
		"cosmo_sigma_profile": { 
			"-0.025": 0.0,
			"-0.024": 0.0,
			"-0.023": 0.0,
			"-0.022": 0.0,
			"-0.021": 0.0,
			"-0.02": 0.0,
			"-0.019": 0.0,
			"-0.018": 0.0,
			"-0.017": 0.0,
			"-0.016": 0.0,
			"-0.015": 0.0,
			"-0.014": 0.382721149636,
			"-0.013": 0.859420274544,
			"-0.012": 1.53374206011,
			"-0.011": 1.03776794977,
			"-0.01": 0.870199879598,
			"-0.009": 0.973634712712,
			"-0.008": 1.97705822974,
			"-0.007": 5.24188086051,
			"-0.006": 13.4572324014,
			"-0.005": 20.3275453018,
			"-0.004": 28.1229616243,
			"-0.003": 21.8317199665,
			"-0.002": 20.0863222773,
			"-0.001": 18.3359034938,
			"0.0": 20.1637136772,
			"0.001": 20.2358714079,
			"0.002": 18.2864754226,
			"0.003": 19.5776598542,
			"0.004": 20.8833573676,
			"0.005": 14.1882376138,
			"0.006": 6.78330382904,
			"0.007": 4.80485238551,
			"0.008": 2.90949143041,
			"0.009": 3.26318865995,
			"0.01": 4.10124346512,
			"0.011": 2.32030495721,
			"0.012": 1.8112334487,
			"0.013": 1.73692097986,
			"0.014": 1.14316186327,
			"0.015": 0.628994350018,
			"0.016": 0.0,
			"0.017": 0.0,
			"0.018": 0.0,
			"0.019": 0.0,
			"0.02": 0.0,
			"0.021": 0.0,
			"0.022": 0.0,
			"0.023": 0.0,
			"0.024": 0.0,
			"0.025": 0.0
		}
	}
}
