{
	 "smiles": "CC1=NC(COC2=CC=C(C=C2)C(N)=NO)=CS1", 
	 "Tm": 467.15, 
	 "num_atms": 31, 
	 "gaussian": { 
		 "optdone": 1, 
		 "sigma_profile": "yes", 
		 "theory": "DFT", 
		 "functional": "B3LYP", 
		 "basiset": "6-31G**", 
		 "properties": { 
			 "R2extent": 7856.7721, 
			 "electric_dipole_moment_norm": 1.57055106571, 
			 "electric_quadrupole_moment_norm": 9.96891374724, 
			 "total_energy": -1177.93281292, 
			 "HOMO_LUMO_gap": 0.17427, 
			 "cosmo_polarized_energy": -15.6, 
			 "cosmo_cavitation_energy": 37.36, 
			 "cosmo_dispersion_energy": -27.34, 
			 "cosmo_repulsion_energy": 2.12, 
			 "cosmo_total_nonelectrostatic_energy": 12.13, 
			 "SMD_solvation_energy": 4.9 
		},
		"coords": [
			{
				"x": 0.2670705086,
				"y": 2.6459135085,
				"z": 4.4443377867,
				"element": "C" 
			},
			{
				"x": -0.0892050656,
				"y": 2.6487461152,
				"z": 2.9889482794,
				"element": "C" 
			},
			{
				"x": 0.7812004557,
				"y": 2.6259959277,
				"z": 2.0201349108,
				"element": "N" 
			},
			{
				"x": 0.1671394511,
				"y": 2.6334896286,
				"z": 0.7836330252,
				"element": "C" 
			},
			{
				"x": 1.0459409046,
				"y": 2.6502353584,
				"z": -0.4419604773,
				"element": "C" 
			},
			{
				"x": 0.344161958,
				"y": 2.3479395957,
				"z": -1.6419729761,
				"element": "O" 
			},
			{
				"x": 0.1033032046,
				"y": 1.0398903189,
				"z": -1.9654444465,
				"element": "C" 
			},
			{
				"x": 0.3867408448,
				"y": -0.0559250486,
				"z": -1.142624838,
				"element": "C" 
			},
			{
				"x": 0.1051149384,
				"y": -1.3441451534,
				"z": -1.5973985878,
				"element": "C" 
			},
			{
				"x": -0.4713183753,
				"y": -1.5716790208,
				"z": -2.856030408,
				"element": "C" 
			},
			{
				"x": -0.7601072056,
				"y": -0.4550132624,
				"z": -3.6643532908,
				"element": "C" 
			},
			{
				"x": -0.4719629789,
				"y": 0.8293130123,
				"z": -3.2276160538,
				"element": "C" 
			},
			{
				"x": -0.7100301267,
				"y": -2.9630727927,
				"z": -3.3086071354,
				"element": "C" 
			},
			{
				"x": 0.1543304332,
				"y": -3.9297273694,
				"z": -2.7706416739,
				"element": "N" 
			},
			{
				"x": -1.6273299212,
				"y": -3.4222016614,
				"z": -4.0939230994,
				"element": "N" 
			},
			{
				"x": -2.5934524004,
				"y": -2.4491057057,
				"z": -4.4523361532,
				"element": "O" 
			},
			{
				"x": -1.1966904321,
				"y": 2.6621204508,
				"z": 0.7992571653,
				"element": "C" 
			},
			{
				"x": -1.7635822461,
				"y": 2.6762861203,
				"z": 2.4380277064,
				"element": "S" 
			},
			{
				"x": 1.3544355322,
				"y": 2.6151533176,
				"z": 4.5342059827,
				"element": "H" 
			},
			{
				"x": -0.1025921034,
				"y": 3.5440045628,
				"z": 4.9505280607,
				"element": "H" 
			},
			{
				"x": -0.1541473506,
				"y": 1.776769,
				"z": 4.9604968042,
				"element": "H" 
			},
			{
				"x": 1.4499454676,
				"y": 3.6566128061,
				"z": -0.5967219361,
				"element": "H" 
			},
			{
				"x": 1.8996578622,
				"y": 1.976993637,
				"z": -0.2966909778,
				"element": "H" 
			},
			{
				"x": 0.7999937812,
				"y": 0.079093455,
				"z": -0.1503743557,
				"element": "H" 
			},
			{
				"x": 0.3152028822,
				"y": -2.1920223347,
				"z": -0.9539024263,
				"element": "H" 
			},
			{
				"x": -1.2112344137,
				"y": -0.6041737834,
				"z": -4.6363732072,
				"element": "H" 
			},
			{
				"x": -0.6800136984,
				"y": 1.6926021631,
				"z": -3.8513641171,
				"element": "H" 
			},
			{
				"x": -0.0287954875,
				"y": -4.8460994293,
				"z": -3.1648156341,
				"element": "H" 
			},
			{
				"x": 1.1345404097,
				"y": -3.679741979,
				"z": -2.8407885375,
				"element": "H" 
			},
			{
				"x": -3.1962561437,
				"y": -2.9754088814,
				"z": -4.9921679608,
				"element": "H" 
			},
			{
				"x": -1.8751606846,
				"y": 2.6692574441,
				"z": -0.0406614289,
				"element": "H" 
			}
		],
		 "valence_orbital": [ 
			{
				"type": "occ",
				"energy": -0.26028,
				"method": "rhf"
			},
			{
				"type": "occ",
				"energy": -0.25085,
				"method": "rhf"
			},
			{
				"type": "occ",
				"energy": -0.23847,
				"method": "rhf"
			},
			{
				"type": "occ",
				"energy": -0.22937,
				"method": "rhf"
			},
			{
				"type": "occ",
				"energy": -0.1999,
				"method": "rhf"
			},
			{
				"type": "unocc",
				"energy": -0.02563,
				"method": "rhf"
			},
			{
				"type": "unocc",
				"energy": -0.01689,
				"method": "rhf"
			},
			{
				"type": "unocc",
				"energy": -0.00032,
				"method": "rhf"
			},
			{
				"type": "unocc",
				"energy": 0.01703,
				"method": "rhf"
			},
			{
				"type": "unocc",
				"energy": 0.04519,
				"method": "rhf"
			}
		],
		"cosmo_sigma_profile": { 
			"-0.025": 0.0,
			"-0.024": 0.0,
			"-0.023": 0.0,
			"-0.022": 0.0,
			"-0.021": 0.0,
			"-0.02": 0.0,
			"-0.019": 0.0,
			"-0.018": 0.0,
			"-0.017": 0.121325206833,
			"-0.016": 0.996054811686,
			"-0.015": 0.927783380473,
			"-0.014": 0.898045651607,
			"-0.013": 1.02173638383,
			"-0.012": 2.32893660502,
			"-0.011": 2.84692672577,
			"-0.01": 2.40930558996,
			"-0.009": 3.37719845346,
			"-0.008": 4.64201644619,
			"-0.007": 7.29639541202,
			"-0.006": 15.0004897399,
			"-0.005": 20.8359631142,
			"-0.004": 21.0866597432,
			"-0.003": 18.8275854363,
			"-0.002": 18.3019244164,
			"-0.001": 19.5862654257,
			"0.0": 18.0643289542,
			"0.001": 20.4412963319,
			"0.002": 22.9036849545,
			"0.003": 24.8270604259,
			"0.004": 18.593405343,
			"0.005": 11.6945294838,
			"0.006": 7.42180804896,
			"0.007": 7.98229987454,
			"0.008": 6.19090379115,
			"0.009": 5.9126334095,
			"0.01": 4.57342558861,
			"0.011": 3.43396954984,
			"0.012": 3.07493080855,
			"0.013": 2.05573064686,
			"0.014": 1.16485379873,
			"0.015": 0.466595101293,
			"0.016": 0.0,
			"0.017": 0.0,
			"0.018": 0.0,
			"0.019": 0.0,
			"0.02": 0.0,
			"0.021": 0.0,
			"0.022": 0.0,
			"0.023": 0.0,
			"0.024": 0.0,
			"0.025": 0.0
		}
	}
}
