{
	 "smiles": "OC(CC(O)=O)C1=CC=C(Cl)C=C1", 
	 "Tm": 471.15, 
	 "num_atms": 22, 
	 "gaussian": { 
		 "optdone": 1, 
		 "sigma_profile": "yes", 
		 "theory": "DFT", 
		 "functional": "B3LYP", 
		 "basiset": "6-31G**", 
		 "properties": { 
			 "R2extent": 4200.4832, 
			 "electric_dipole_moment_norm": 3.36380677953, 
			 "electric_quadrupole_moment_norm": 17.8202394403, 
			 "total_energy": -1034.24963485, 
			 "HOMO_LUMO_gap": 0.22518, 
			 "cosmo_polarized_energy": -17.24, 
			 "cosmo_cavitation_energy": 28.14, 
			 "cosmo_dispersion_energy": -20.4, 
			 "cosmo_repulsion_energy": 1.65, 
			 "cosmo_total_nonelectrostatic_energy": 9.38, 
			 "SMD_solvation_energy": 5.53 
		},
		"coords": [
			{
				"x": 1.9756281339,
				"y": 1.2497422851,
				"z": 2.2426925829,
				"element": "O" 
			},
			{
				"x": 1.2726748285,
				"y": 1.6623451838,
				"z": 1.0718134516,
				"element": "C" 
			},
			{
				"x": 2.1465407968,
				"y": 2.7659590813,
				"z": 0.4576594104,
				"element": "C" 
			},
			{
				"x": 1.4034841056,
				"y": 3.6451676268,
				"z": -0.5373313278,
				"element": "C" 
			},
			{
				"x": 2.1871304409,
				"y": 4.4408848094,
				"z": -1.3087924993,
				"element": "O" 
			},
			{
				"x": 0.2023038691,
				"y": 3.698751746,
				"z": -0.6451240927,
				"element": "O" 
			},
			{
				"x": 1.0243293758,
				"y": 0.5029337362,
				"z": 0.1155038812,
				"element": "C" 
			},
			{
				"x": 1.9161744969,
				"y": -0.5762731304,
				"z": 0.0711044722,
				"element": "C" 
			},
			{
				"x": 1.7128028911,
				"y": -1.6400670205,
				"z": -0.8075890034,
				"element": "C" 
			},
			{
				"x": 0.6030200834,
				"y": -1.6185504693,
				"z": -1.6513640822,
				"element": "C" 
			},
			{
				"x": 0.3346928481,
				"y": -2.9570976778,
				"z": -2.7604491096,
				"element": "Cl" 
			},
			{
				"x": -0.2995668916,
				"y": -0.5558652712,
				"z": -1.6265916359,
				"element": "C" 
			},
			{
				"x": -0.0845925642,
				"y": 0.4994439207,
				"z": -0.7402210863,
				"element": "C" 
			},
			{
				"x": 1.4613223087,
				"y": 0.5446590146,
				"z": 2.6582743386,
				"element": "H" 
			},
			{
				"x": 0.3082585916,
				"y": 2.1170275244,
				"z": 1.3351632326,
				"element": "H" 
			},
			{
				"x": 2.498245029,
				"y": 3.4084098902,
				"z": 1.2759122214,
				"element": "H" 
			},
			{
				"x": 3.036760842,
				"y": 2.3242327722,
				"z": -0.0063412183,
				"element": "H" 
			},
			{
				"x": 3.1222955363,
				"y": 4.2800635666,
				"z": -1.1182282738,
				"element": "H" 
			},
			{
				"x": 2.7710674814,
				"y": -0.5844995309,
				"z": 0.7402887363,
				"element": "H" 
			},
			{
				"x": 2.4028304183,
				"y": -2.4762744935,
				"z": -0.8374750784,
				"element": "H" 
			},
			{
				"x": -1.159145961,
				"y": -0.5569066507,
				"z": -2.2877155461,
				"element": "H" 
			},
			{
				"x": -0.7756566605,
				"y": 1.336113087,
				"z": -0.7226893733,
				"element": "H" 
			}
		],
		 "valence_orbital": [ 
			{
				"type": "occ",
				"energy": -0.31251,
				"method": "rhf"
			},
			{
				"type": "occ",
				"energy": -0.29271,
				"method": "rhf"
			},
			{
				"type": "occ",
				"energy": -0.27975,
				"method": "rhf"
			},
			{
				"type": "occ",
				"energy": -0.26507,
				"method": "rhf"
			},
			{
				"type": "occ",
				"energy": -0.24428,
				"method": "rhf"
			},
			{
				"type": "unocc",
				"energy": -0.0191,
				"method": "rhf"
			},
			{
				"type": "unocc",
				"energy": -0.01728,
				"method": "rhf"
			},
			{
				"type": "unocc",
				"energy": 0.00104,
				"method": "rhf"
			},
			{
				"type": "unocc",
				"energy": 0.03026,
				"method": "rhf"
			},
			{
				"type": "unocc",
				"energy": 0.05071,
				"method": "rhf"
			}
		],
		"cosmo_sigma_profile": { 
			"-0.025": 0.0,
			"-0.024": 0.0,
			"-0.023": 0.0,
			"-0.022": 0.0,
			"-0.021": 0.0,
			"-0.02": 0.0594681674146,
			"-0.019": 0.946285918351,
			"-0.018": 1.02885176041,
			"-0.017": 0.755133536496,
			"-0.016": 1.98075932328,
			"-0.015": 2.07037629538,
			"-0.014": 2.03020633262,
			"-0.013": 1.75813983287,
			"-0.012": 2.22671256199,
			"-0.011": 1.97314126601,
			"-0.01": 1.58515506901,
			"-0.009": 2.55168214708,
			"-0.008": 4.0553090725,
			"-0.007": 7.74886258407,
			"-0.006": 7.69140835078,
			"-0.005": 11.9476487462,
			"-0.004": 12.3920029448,
			"-0.003": 13.0715292711,
			"-0.002": 11.3540530555,
			"-0.001": 10.7918590796,
			"0.0": 12.6922966527,
			"0.001": 12.8493796832,
			"0.002": 17.2542720702,
			"0.003": 19.5506378485,
			"0.004": 19.8500385895,
			"0.005": 12.0316520589,
			"0.006": 3.15179626607,
			"0.007": 3.92673804281,
			"0.008": 3.02686103811,
			"0.009": 4.68327572486,
			"0.01": 5.56412286568,
			"0.011": 6.29142676661,
			"0.012": 3.70517212154,
			"0.013": 2.7341652824,
			"0.014": 0.0103023545023,
			"0.015": 0.0,
			"0.016": 0.0,
			"0.017": 0.0,
			"0.018": 0.0,
			"0.019": 0.0,
			"0.02": 0.0,
			"0.021": 0.0,
			"0.022": 0.0,
			"0.023": 0.0,
			"0.024": 0.0,
			"0.025": 0.0
		}
	}
}
