{
	 "smiles": "ClC1=C(C=CC=C1)C1=NC=NN1", 
	 "Tm": 428.15, 
	 "num_atms": 18, 
	 "gaussian": { 
		 "optdone": 1, 
		 "sigma_profile": "yes", 
		 "theory": "DFT", 
		 "functional": "B3LYP", 
		 "basiset": "6-31G**", 
		 "properties": { 
			 "R2extent": 2661.9402, 
			 "electric_dipole_moment_norm": 2.97955651901, 
			 "electric_quadrupole_moment_norm": 5.163530303, 
			 "total_energy": -932.904477517, 
			 "HOMO_LUMO_gap": 0.18927, 
			 "cosmo_polarized_energy": -9.18, 
			 "cosmo_cavitation_energy": 23.96, 
			 "cosmo_dispersion_energy": -18.39, 
			 "cosmo_repulsion_energy": 1.43, 
			 "cosmo_total_nonelectrostatic_energy": 7.0, 
			 "SMD_solvation_energy": 1.64 
		},
		"coords": [
			{
				"x": 1.2632859584,
				"y": -1.6981828784,
				"z": -1.2216865851,
				"element": "Cl" 
			},
			{
				"x": 0.4226222949,
				"y": -1.2083206266,
				"z": 0.2564646204,
				"element": "C" 
			},
			{
				"x": 0.6652927852,
				"y": 0.0265244589,
				"z": 0.8848569375,
				"element": "C" 
			},
			{
				"x": -0.0698806873,
				"y": 0.2987497439,
				"z": 2.0576239056,
				"element": "C" 
			},
			{
				"x": -0.9900604779,
				"y": -0.60433978,
				"z": 2.572080174,
				"element": "C" 
			},
			{
				"x": -1.2086887501,
				"y": -1.8224705562,
				"z": 1.9250217599,
				"element": "C" 
			},
			{
				"x": -0.4999144776,
				"y": -2.1228050955,
				"z": 0.7652615862,
				"element": "C" 
			},
			{
				"x": 1.6064506125,
				"y": 1.0702674289,
				"z": 0.4508578143,
				"element": "C" 
			},
			{
				"x": 1.7808667523,
				"y": 2.2209014197,
				"z": 1.1035980271,
				"element": "N" 
			},
			{
				"x": 2.7191046583,
				"y": 2.863551102,
				"z": 0.3665646972,
				"element": "C" 
			},
			{
				"x": 3.1488482897,
				"y": 2.2042863447,
				"z": -0.7019965522,
				"element": "N" 
			},
			{
				"x": 2.4274028434,
				"y": 1.0624511536,
				"z": -0.6310358884,
				"element": "N" 
			},
			{
				"x": 0.1148557625,
				"y": 1.2497007475,
				"z": 2.5443483971,
				"element": "H" 
			},
			{
				"x": -1.5363583577,
				"y": -0.3582444198,
				"z": 3.4771630057,
				"element": "H" 
			},
			{
				"x": -1.9251555784,
				"y": -2.5381938747,
				"z": 2.3159663892,
				"element": "H" 
			},
			{
				"x": -0.6533597696,
				"y": -3.062343111,
				"z": 0.2462281734,
				"element": "H" 
			},
			{
				"x": 3.1000741071,
				"y": 3.8437236182,
				"z": 0.6180822827,
				"element": "H" 
			},
			{
				"x": 2.5397140344,
				"y": 0.3430443247,
				"z": -1.3291987446,
				"element": "H" 
			}
		],
		 "valence_orbital": [ 
			{
				"type": "occ",
				"energy": -0.31145,
				"method": "rhf"
			},
			{
				"type": "occ",
				"energy": -0.29331,
				"method": "rhf"
			},
			{
				"type": "occ",
				"energy": -0.27811,
				"method": "rhf"
			},
			{
				"type": "occ",
				"energy": -0.26412,
				"method": "rhf"
			},
			{
				"type": "occ",
				"energy": -0.24174,
				"method": "rhf"
			},
			{
				"type": "unocc",
				"energy": -0.05247,
				"method": "rhf"
			},
			{
				"type": "unocc",
				"energy": -0.0241,
				"method": "rhf"
			},
			{
				"type": "unocc",
				"energy": 0.00871,
				"method": "rhf"
			},
			{
				"type": "unocc",
				"energy": 0.03203,
				"method": "rhf"
			},
			{
				"type": "unocc",
				"energy": 0.06263,
				"method": "rhf"
			}
		],
		"cosmo_sigma_profile": { 
			"-0.025": 0.0,
			"-0.024": 0.0,
			"-0.023": 0.0,
			"-0.022": 0.0,
			"-0.021": 0.0,
			"-0.02": 0.0,
			"-0.019": 0.0,
			"-0.018": 0.0,
			"-0.017": 0.0,
			"-0.016": 0.0340308403808,
			"-0.015": 0.572471136713,
			"-0.014": 0.380059789812,
			"-0.013": 0.5665590855,
			"-0.012": 1.03879590731,
			"-0.011": 1.11225815214,
			"-0.01": 0.600240022101,
			"-0.009": 1.51039836448,
			"-0.008": 3.90642767177,
			"-0.007": 7.49624030614,
			"-0.006": 10.9147897373,
			"-0.005": 10.9558805423,
			"-0.004": 10.2838794869,
			"-0.003": 11.6952618893,
			"-0.002": 11.5283789404,
			"-0.001": 13.366152741,
			"0.0": 15.8200130935,
			"0.001": 20.0040868185,
			"0.002": 21.6595078528,
			"0.003": 19.1154722141,
			"0.004": 8.76185338197,
			"0.005": 2.75857964332,
			"0.006": 3.13200652849,
			"0.007": 3.36688804396,
			"0.008": 2.18195461832,
			"0.009": 2.05837410952,
			"0.01": 2.56673393003,
			"0.011": 2.11834871848,
			"0.012": 2.18261374943,
			"0.013": 2.48144916749,
			"0.014": 1.31570768219,
			"0.015": 0.461959701296,
			"0.016": 0.0,
			"0.017": 0.0,
			"0.018": 0.0,
			"0.019": 0.0,
			"0.02": 0.0,
			"0.021": 0.0,
			"0.022": 0.0,
			"0.023": 0.0,
			"0.024": 0.0,
			"0.025": 0.0
		}
	}
}
