{
	 "smiles": "CC(=O)N(C1=NC(CCl)=CS1)C1=C(F)C=CC=C1", 
	 "Tm": 425.15, 
	 "num_atms": 28, 
	 "gaussian": { 
		 "optdone": 1, 
		 "sigma_profile": "yes", 
		 "theory": "DFT", 
		 "functional": "B3LYP", 
		 "basiset": "6-31G**", 
		 "properties": { 
			 "R2extent": 5643.2837, 
			 "electric_dipole_moment_norm": 4.34445826542, 
			 "electric_quadrupole_moment_norm": 20.4865792545, 
			 "total_energy": -1606.25050954, 
			 "HOMO_LUMO_gap": 0.19327, 
			 "cosmo_polarized_energy": -14.29, 
			 "cosmo_cavitation_energy": 36.4, 
			 "cosmo_dispersion_energy": -25.38, 
			 "cosmo_repulsion_energy": 1.96, 
			 "cosmo_total_nonelectrostatic_energy": 12.97, 
			 "SMD_solvation_energy": 6.15 
		},
		"coords": [
			{
				"x": 2.3839955479,
				"y": -0.7844462975,
				"z": 1.9920758941,
				"element": "C" 
			},
			{
				"x": 0.9007082642,
				"y": -0.5378176393,
				"z": 1.8253830596,
				"element": "C" 
			},
			{
				"x": 0.0917305588,
				"y": -0.7936835918,
				"z": 2.705225566,
				"element": "O" 
			},
			{
				"x": 0.4773918248,
				"y": -0.0032045121,
				"z": 0.6045850657,
				"element": "N" 
			},
			{
				"x": -0.8862684009,
				"y": 0.2039312439,
				"z": 0.335823064,
				"element": "C" 
			},
			{
				"x": -1.2891929655,
				"y": 0.6637807292,
				"z": -0.8128994266,
				"element": "N" 
			},
			{
				"x": -2.6634469042,
				"y": 0.7858779219,
				"z": -0.8367705346,
				"element": "C" 
			},
			{
				"x": -3.3234216041,
				"y": 1.2981726722,
				"z": -2.0696983813,
				"element": "C" 
			},
			{
				"x": -3.4844408555,
				"y": 0.0134409425,
				"z": -3.3729799956,
				"element": "Cl" 
			},
			{
				"x": -3.3026740993,
				"y": 0.4199107376,
				"z": 0.3126374515,
				"element": "C" 
			},
			{
				"x": -2.1621302755,
				"y": -0.117512505,
				"z": 1.5093024531,
				"element": "S" 
			},
			{
				"x": 1.4000287118,
				"y": 0.2819005701,
				"z": -0.4605340244,
				"element": "C" 
			},
			{
				"x": 1.915055566,
				"y": -0.7595315166,
				"z": -1.233702868,
				"element": "C" 
			},
			{
				"x": 1.5611454881,
				"y": -2.0247698337,
				"z": -0.935355091,
				"element": "F" 
			},
			{
				"x": 2.8054342451,
				"y": -0.5277753378,
				"z": -2.2743267236,
				"element": "C" 
			},
			{
				"x": 3.1801607606,
				"y": 0.7856775015,
				"z": -2.5575842525,
				"element": "C" 
			},
			{
				"x": 2.6722356071,
				"y": 1.8445740582,
				"z": -1.800301757,
				"element": "C" 
			},
			{
				"x": 1.7831192294,
				"y": 1.5915717797,
				"z": -0.7568512985,
				"element": "C" 
			},
			{
				"x": 2.5564195517,
				"y": -1.0490661283,
				"z": 3.0348803156,
				"element": "H" 
			},
			{
				"x": 2.7001711633,
				"y": -1.6152355514,
				"z": 1.353976069,
				"element": "H" 
			},
			{
				"x": 2.9807503251,
				"y": 0.091030589,
				"z": 1.7242011745,
				"element": "H" 
			},
			{
				"x": -2.7367114864,
				"y": 2.0953745608,
				"z": -2.5253616507,
				"element": "H" 
			},
			{
				"x": -4.3363754787,
				"y": 1.6449464666,
				"z": -1.8694362248,
				"element": "H" 
			},
			{
				"x": -4.3644257035,
				"y": 0.4230139526,
				"z": 0.5176091775,
				"element": "H" 
			},
			{
				"x": 3.183371828,
				"y": -1.3698634117,
				"z": -2.8435511398,
				"element": "H" 
			},
			{
				"x": 3.8717284349,
				"y": 0.9799453294,
				"z": -3.371478776,
				"element": "H" 
			},
			{
				"x": 2.9646018813,
				"y": 2.8651982212,
				"z": -2.0244098659,
				"element": "H" 
			},
			{
				"x": 1.3693387854,
				"y": 2.4021590487,
				"z": -0.1661572803,
				"element": "H" 
			}
		],
		 "valence_orbital": [ 
			{
				"type": "occ",
				"energy": -0.27569,
				"method": "rhf"
			},
			{
				"type": "occ",
				"energy": -0.27337,
				"method": "rhf"
			},
			{
				"type": "occ",
				"energy": -0.26818,
				"method": "rhf"
			},
			{
				"type": "occ",
				"energy": -0.26025,
				"method": "rhf"
			},
			{
				"type": "occ",
				"energy": -0.22652,
				"method": "rhf"
			},
			{
				"type": "unocc",
				"energy": -0.03325,
				"method": "rhf"
			},
			{
				"type": "unocc",
				"energy": -0.03006,
				"method": "rhf"
			},
			{
				"type": "unocc",
				"energy": -0.01678,
				"method": "rhf"
			},
			{
				"type": "unocc",
				"energy": -0.00493,
				"method": "rhf"
			},
			{
				"type": "unocc",
				"energy": 0.02968,
				"method": "rhf"
			}
		],
		"cosmo_sigma_profile": { 
			"-0.025": 0.0,
			"-0.024": 0.0,
			"-0.023": 0.0,
			"-0.022": 0.0,
			"-0.021": 0.0,
			"-0.02": 0.0,
			"-0.019": 0.0,
			"-0.018": 0.0,
			"-0.017": 0.0,
			"-0.016": 0.0,
			"-0.015": 0.0,
			"-0.014": 0.0,
			"-0.013": 0.0,
			"-0.012": 0.0,
			"-0.011": 0.0,
			"-0.01": 0.170035566153,
			"-0.009": 2.06382760478,
			"-0.008": 7.75130236448,
			"-0.007": 12.9394824693,
			"-0.006": 18.0326587935,
			"-0.005": 21.8668758289,
			"-0.004": 20.8470410769,
			"-0.003": 19.0537056716,
			"-0.002": 20.1566547092,
			"-0.001": 17.6232819903,
			"0.0": 19.5076342025,
			"0.001": 19.7191425334,
			"0.002": 23.2000416598,
			"0.003": 24.8380656402,
			"0.004": 16.1696406665,
			"0.005": 10.3474718919,
			"0.006": 12.5585825939,
			"0.007": 11.6395507779,
			"0.008": 3.66880893201,
			"0.009": 3.8121192383,
			"0.01": 2.935751603,
			"0.011": 3.50013367759,
			"0.012": 2.93320030658,
			"0.013": 0.704579825288,
			"0.014": 0.0,
			"0.015": 0.0,
			"0.016": 0.0,
			"0.017": 0.0,
			"0.018": 0.0,
			"0.019": 0.0,
			"0.02": 0.0,
			"0.021": 0.0,
			"0.022": 0.0,
			"0.023": 0.0,
			"0.024": 0.0,
			"0.025": 0.0
		}
	}
}
