{
	 "smiles": "CC(NC1=C(Cl)C=C(C=N1)C(O)=O)C1=CN=CC=C1", 
	 "Tm": 458.15, 
	 "num_atms": 31, 
	 "gaussian": { 
		 "optdone": 1, 
		 "sigma_profile": "yes", 
		 "theory": "DFT", 
		 "functional": "B3LYP", 
		 "basiset": "6-31G**", 
		 "properties": { 
			 "R2extent": 6158.26, 
			 "electric_dipole_moment_norm": 5.37596078204, 
			 "electric_quadrupole_moment_norm": 21.902698386, 
			 "total_energy": -1277.51303197, 
			 "HOMO_LUMO_gap": 0.17982, 
			 "cosmo_polarized_energy": -20.32, 
			 "cosmo_cavitation_energy": 37.44, 
			 "cosmo_dispersion_energy": -25.9, 
			 "cosmo_repulsion_energy": 2.0, 
			 "cosmo_total_nonelectrostatic_energy": 13.53, 
			 "SMD_solvation_energy": 3.75 
		},
		"coords": [
			{
				"x": 0.115057151,
				"y": -3.3391048313,
				"z": 1.4802535458,
				"element": "C" 
			},
			{
				"x": 0.2617913401,
				"y": -2.1200489705,
				"z": 0.5560309584,
				"element": "C" 
			},
			{
				"x": -1.0211990278,
				"y": -1.4010584666,
				"z": 0.5698848286,
				"element": "N" 
			},
			{
				"x": -1.3270602782,
				"y": -0.214086128,
				"z": -0.0547915903,
				"element": "C" 
			},
			{
				"x": -0.907644028,
				"y": 0.188893756,
				"z": -1.3514945192,
				"element": "C" 
			},
			{
				"x": 0.0115054913,
				"y": -0.8609539651,
				"z": -2.420412599,
				"element": "Cl" 
			},
			{
				"x": -1.2875584269,
				"y": 1.4269054308,
				"z": -1.8342811273,
				"element": "C" 
			},
			{
				"x": -2.1028417528,
				"y": 2.2642753925,
				"z": -1.059365833,
				"element": "C" 
			},
			{
				"x": -2.540238781,
				"y": 1.7513410593,
				"z": 0.1654821345,
				"element": "C" 
			},
			{
				"x": -2.1609438718,
				"y": 0.5757684121,
				"z": 0.6538713453,
				"element": "N" 
			},
			{
				"x": -2.5008277934,
				"y": 3.5862823691,
				"z": -1.622840929,
				"element": "C" 
			},
			{
				"x": -3.0356524538,
				"y": 4.4895259454,
				"z": -0.7573828686,
				"element": "O" 
			},
			{
				"x": -2.3710540455,
				"y": 3.8725176552,
				"z": -2.7905326249,
				"element": "O" 
			},
			{
				"x": 1.4554075352,
				"y": -1.2592803885,
				"z": 0.9609237238,
				"element": "C" 
			},
			{
				"x": 1.3786313945,
				"y": -0.3211956667,
				"z": 1.9991873844,
				"element": "C" 
			},
			{
				"x": 2.4077675429,
				"y": 0.4201092269,
				"z": 2.4239916329,
				"element": "N" 
			},
			{
				"x": 3.5846790193,
				"y": 0.2490668562,
				"z": 1.8090675608,
				"element": "C" 
			},
			{
				"x": 3.7779067195,
				"y": -0.6492512431,
				"z": 0.7589755009,
				"element": "C" 
			},
			{
				"x": 2.693580019,
				"y": -1.4119150013,
				"z": 0.330440266,
				"element": "C" 
			},
			{
				"x": -0.7192403509,
				"y": -3.9679792882,
				"z": 1.1555517699,
				"element": "H" 
			},
			{
				"x": -0.0608924809,
				"y": -3.0261119303,
				"z": 2.5159005056,
				"element": "H" 
			},
			{
				"x": 1.0304174332,
				"y": -3.9354618542,
				"z": 1.4662075888,
				"element": "H" 
			},
			{
				"x": 0.4412950097,
				"y": -2.4871464376,
				"z": -0.4562534169,
				"element": "H" 
			},
			{
				"x": -1.4996427637,
				"y": -1.4331390289,
				"z": 1.4633530356,
				"element": "H" 
			},
			{
				"x": -0.9807370268,
				"y": 1.7564619977,
				"z": -2.820607319,
				"element": "H" 
			},
			{
				"x": -3.2483515992,
				"y": 2.2983623946,
				"z": 0.7886283694,
				"element": "H" 
			},
			{
				"x": -2.9216701876,
				"y": 4.1962720581,
				"z": 0.1570433984,
				"element": "H" 
			},
			{
				"x": 0.4317117421,
				"y": -0.1487693891,
				"z": 2.5090663343,
				"element": "H" 
			},
			{
				"x": 4.408846393,
				"y": 0.8615653928,
				"z": 2.1702267155,
				"element": "H" 
			},
			{
				"x": 4.7507789807,
				"y": -0.7419402692,
				"z": 0.2863983263,
				"element": "H" 
			},
			{
				"x": 2.8038790967,
				"y": -2.1154050879,
				"z": -0.4915220981,
				"element": "H" 
			}
		],
		 "valence_orbital": [ 
			{
				"type": "occ",
				"energy": -0.2883,
				"method": "rhf"
			},
			{
				"type": "occ",
				"energy": -0.272,
				"method": "rhf"
			},
			{
				"type": "occ",
				"energy": -0.26554,
				"method": "rhf"
			},
			{
				"type": "occ",
				"energy": -0.25983,
				"method": "rhf"
			},
			{
				"type": "occ",
				"energy": -0.23482,
				"method": "rhf"
			},
			{
				"type": "unocc",
				"energy": -0.055,
				"method": "rhf"
			},
			{
				"type": "unocc",
				"energy": -0.04537,
				"method": "rhf"
			},
			{
				"type": "unocc",
				"energy": -0.0317,
				"method": "rhf"
			},
			{
				"type": "unocc",
				"energy": -0.02084,
				"method": "rhf"
			},
			{
				"type": "unocc",
				"energy": 0.01297,
				"method": "rhf"
			}
		],
		"cosmo_sigma_profile": { 
			"-0.025": 0.0,
			"-0.024": 0.0,
			"-0.023": 0.0,
			"-0.022": 0.0,
			"-0.021": 0.0,
			"-0.02": 0.00205411174764,
			"-0.019": 0.599958120802,
			"-0.018": 1.06948555275,
			"-0.017": 1.10180167633,
			"-0.016": 0.873143862336,
			"-0.015": 0.904416770481,
			"-0.014": 0.683303673035,
			"-0.013": 2.14327341737,
			"-0.012": 1.60213216721,
			"-0.011": 2.44451919721,
			"-0.01": 2.63029683921,
			"-0.009": 2.86588401392,
			"-0.008": 3.21176317505,
			"-0.007": 7.9628574384,
			"-0.006": 13.7881800256,
			"-0.005": 15.1655441933,
			"-0.004": 18.51745167,
			"-0.003": 19.7083514602,
			"-0.002": 22.8827337323,
			"-0.001": 27.4504189237,
			"0.0": 30.015655481,
			"0.001": 19.7000274835,
			"0.002": 21.1629609738,
			"0.003": 19.7868561656,
			"0.004": 12.0854996077,
			"0.005": 6.21995760033,
			"0.006": 6.01529320923,
			"0.007": 4.69888101218,
			"0.008": 5.5481343038,
			"0.009": 4.89439764107,
			"0.01": 6.30872544624,
			"0.011": 7.4419621896,
			"0.012": 6.06697188737,
			"0.013": 2.30997704752,
			"0.014": 1.51563625203,
			"0.015": 0.54612530821,
			"0.016": 0.906645910557,
			"0.017": 0.370191132374,
			"0.018": 0.0,
			"0.019": 0.0,
			"0.02": 0.0,
			"0.021": 0.0,
			"0.022": 0.0,
			"0.023": 0.0,
			"0.024": 0.0,
			"0.025": 0.0
		}
	}
}
