{
	 "smiles": "ClCC(=O)NC1=C(Cl)C=CC=C1Cl", 
	 "Tm": 452.15, 
	 "num_atms": 19, 
	 "gaussian": { 
		 "optdone": 1, 
		 "sigma_profile": "yes", 
		 "theory": "DFT", 
		 "functional": "B3LYP", 
		 "basiset": "6-31G**", 
		 "properties": { 
			 "R2extent": 4346.5781, 
			 "electric_dipole_moment_norm": 6.62419507714, 
			 "electric_quadrupole_moment_norm": 12.9619963246, 
			 "total_energy": -1819.02112691, 
			 "HOMO_LUMO_gap": 0.21309, 
			 "cosmo_polarized_energy": -14.75, 
			 "cosmo_cavitation_energy": 29.08, 
			 "cosmo_dispersion_energy": -20.65, 
			 "cosmo_repulsion_energy": 1.67, 
			 "cosmo_total_nonelectrostatic_energy": 10.1, 
			 "SMD_solvation_energy": 5.26 
		},
		"coords": [
			{
				"x": -1.4198541864,
				"y": -1.7793262563,
				"z": 3.7499984769,
				"element": "Cl" 
			},
			{
				"x": -0.4501465146,
				"y": -1.2321541174,
				"z": 2.3518236117,
				"element": "C" 
			},
			{
				"x": 0.704065419,
				"y": -2.1896660189,
				"z": 2.0318412478,
				"element": "C" 
			},
			{
				"x": 0.9472064211,
				"y": -3.2066174259,
				"z": 2.6455942038,
				"element": "O" 
			},
			{
				"x": 1.4781649432,
				"y": -1.7968852313,
				"z": 0.952533523,
				"element": "N" 
			},
			{
				"x": 1.3220276282,
				"y": -0.6459367447,
				"z": 0.1427746465,
				"element": "C" 
			},
			{
				"x": 1.976209259,
				"y": 0.563476256,
				"z": 0.4504224179,
				"element": "C" 
			},
			{
				"x": 2.9773526179,
				"y": 0.6579413898,
				"z": 1.8816638253,
				"element": "Cl" 
			},
			{
				"x": 1.8495494071,
				"y": 1.6936528652,
				"z": -0.3558573297,
				"element": "C" 
			},
			{
				"x": 1.0589193636,
				"y": 1.6288362538,
				"z": -1.5014315707,
				"element": "C" 
			},
			{
				"x": 0.4005471654,
				"y": 0.4497739153,
				"z": -1.8448918521,
				"element": "C" 
			},
			{
				"x": 0.5380048255,
				"y": -0.6712308285,
				"z": -1.0276301663,
				"element": "C" 
			},
			{
				"x": -0.2888388324,
				"y": -2.1462693863,
				"z": -1.4753841556,
				"element": "Cl" 
			},
			{
				"x": -0.0603327619,
				"y": -0.2385614037,
				"z": 2.5830674646,
				"element": "H" 
			},
			{
				"x": -1.1187744761,
				"y": -1.1500056897,
				"z": 1.4922697527,
				"element": "H" 
			},
			{
				"x": 2.2382333024,
				"y": -2.4355426302,
				"z": 0.7489659842,
				"element": "H" 
			},
			{
				"x": 2.3676057498,
				"y": 2.6060624318,
				"z": -0.0845227501,
				"element": "H" 
			},
			{
				"x": 0.9562695322,
				"y": 2.5051610653,
				"z": -2.1335923511,
				"element": "H" 
			},
			{
				"x": -0.212908863,
				"y": 0.3907915555,
				"z": -2.7363449787,
				"element": "H" 
			}
		],
		 "valence_orbital": [ 
			{
				"type": "occ",
				"energy": -0.2962,
				"method": "rhf"
			},
			{
				"type": "occ",
				"energy": -0.28933,
				"method": "rhf"
			},
			{
				"type": "occ",
				"energy": -0.27708,
				"method": "rhf"
			},
			{
				"type": "occ",
				"energy": -0.27164,
				"method": "rhf"
			},
			{
				"type": "occ",
				"energy": -0.26504,
				"method": "rhf"
			},
			{
				"type": "unocc",
				"energy": -0.05195,
				"method": "rhf"
			},
			{
				"type": "unocc",
				"energy": -0.04551,
				"method": "rhf"
			},
			{
				"type": "unocc",
				"energy": -0.01119,
				"method": "rhf"
			},
			{
				"type": "unocc",
				"energy": 0.01136,
				"method": "rhf"
			},
			{
				"type": "unocc",
				"energy": 0.02687,
				"method": "rhf"
			}
		],
		"cosmo_sigma_profile": { 
			"-0.025": 0.0,
			"-0.024": 0.0,
			"-0.023": 0.0,
			"-0.022": 0.0,
			"-0.021": 0.0,
			"-0.02": 0.0,
			"-0.019": 0.0,
			"-0.018": 0.0,
			"-0.017": 0.0,
			"-0.016": 0.0757964206999,
			"-0.015": 1.37050592092,
			"-0.014": 0.589128701451,
			"-0.013": 0.867533937481,
			"-0.012": 1.07319108251,
			"-0.011": 0.932116564743,
			"-0.01": 0.981395485265,
			"-0.009": 1.42586297876,
			"-0.008": 7.902772073,
			"-0.007": 11.6396622905,
			"-0.006": 12.7977513549,
			"-0.005": 12.1574361424,
			"-0.004": 9.65302983165,
			"-0.003": 11.7742990132,
			"-0.002": 13.3516439876,
			"-0.001": 16.8680450111,
			"0.0": 22.9628167826,
			"0.001": 21.1931011672,
			"0.002": 22.4386630559,
			"0.003": 19.7969314245,
			"0.004": 14.3979978815,
			"0.005": 7.66541087494,
			"0.006": 6.93733516825,
			"0.007": 2.50291956477,
			"0.008": 1.86432473813,
			"0.009": 1.43924338125,
			"0.01": 2.20968793752,
			"0.011": 3.00106792521,
			"0.012": 5.39598335288,
			"0.013": 3.48804736756,
			"0.014": 0.814903819764,
			"0.015": 0.0,
			"0.016": 0.0,
			"0.017": 0.0,
			"0.018": 0.0,
			"0.019": 0.0,
			"0.02": 0.0,
			"0.021": 0.0,
			"0.022": 0.0,
			"0.023": 0.0,
			"0.024": 0.0,
			"0.025": 0.0
		}
	}
}
