{
	 "smiles": "OCCNC1=NC=CC=N1", 
	 "Tm": 350.15, 
	 "num_atms": 19, 
	 "gaussian": { 
		 "optdone": 1, 
		 "sigma_profile": "yes", 
		 "theory": "DFT", 
		 "functional": "B3LYP", 
		 "basiset": "6-31G**", 
		 "properties": { 
			 "R2extent": 2066.131, 
			 "electric_dipole_moment_norm": 2.61071269388, 
			 "electric_quadrupole_moment_norm": 15.5595532339, 
			 "total_energy": -473.539206574, 
			 "HOMO_LUMO_gap": 0.18442, 
			 "cosmo_polarized_energy": -10.81, 
			 "cosmo_cavitation_energy": 22.18, 
			 "cosmo_dispersion_energy": -16.91, 
			 "cosmo_repulsion_energy": 1.38, 
			 "cosmo_total_nonelectrostatic_energy": 6.64, 
			 "SMD_solvation_energy": 1.49 
		},
		"coords": [
			{
				"x": -1.0457560768,
				"y": -0.9918453813,
				"z": 2.816172064,
				"element": "O" 
			},
			{
				"x": -1.781447332,
				"y": -1.2837261139,
				"z": 1.6529402601,
				"element": "C" 
			},
			{
				"x": -2.3415813542,
				"y": -0.0379971454,
				"z": 0.9421823597,
				"element": "C" 
			},
			{
				"x": -1.4289192575,
				"y": 0.6255277242,
				"z": 0.0109299789,
				"element": "N" 
			},
			{
				"x": -0.3204156575,
				"y": 1.3426269386,
				"z": 0.3342741123,
				"element": "C" 
			},
			{
				"x": 0.1784000429,
				"y": 1.2419646887,
				"z": 1.5856384057,
				"element": "N" 
			},
			{
				"x": 1.2672600801,
				"y": 1.9722689592,
				"z": 1.8519798939,
				"element": "C" 
			},
			{
				"x": 1.8806412774,
				"y": 2.785318089,
				"z": 0.9069106076,
				"element": "C" 
			},
			{
				"x": 1.2896437688,
				"y": 2.7956103074,
				"z": -0.3609785081,
				"element": "C" 
			},
			{
				"x": 0.2009338964,
				"y": 2.0967875682,
				"z": -0.663406698,
				"element": "N" 
			},
			{
				"x": -0.4648866739,
				"y": -0.2385259383,
				"z": 2.5886552467,
				"element": "H" 
			},
			{
				"x": -1.2024219882,
				"y": -1.8709666978,
				"z": 0.9186061986,
				"element": "H" 
			},
			{
				"x": -2.6316651287,
				"y": -1.9038214808,
				"z": 1.9642689488,
				"element": "H" 
			},
			{
				"x": -3.2110695732,
				"y": -0.3277485888,
				"z": 0.3444031287,
				"element": "H" 
			},
			{
				"x": -2.6860031662,
				"y": 0.665633934,
				"z": 1.7121902898,
				"element": "H" 
			},
			{
				"x": -1.7497120854,
				"y": 0.7990194688,
				"z": -0.929831888,
				"element": "H" 
			},
			{
				"x": 1.6592322477,
				"y": 1.8882049303,
				"z": 2.8638830394,
				"element": "H" 
			},
			{
				"x": 2.7647195074,
				"y": 3.3675284712,
				"z": 1.1355007545,
				"element": "H" 
			},
			{
				"x": 1.7102474727,
				"y": 3.3964402667,
				"z": -1.1666181946,
				"element": "H" 
			}
		],
		 "valence_orbital": [ 
			{
				"type": "occ",
				"energy": -0.32052,
				"method": "rhf"
			},
			{
				"type": "occ",
				"energy": -0.30194,
				"method": "rhf"
			},
			{
				"type": "occ",
				"energy": -0.25645,
				"method": "rhf"
			},
			{
				"type": "occ",
				"energy": -0.2428,
				"method": "rhf"
			},
			{
				"type": "occ",
				"energy": -0.22621,
				"method": "rhf"
			},
			{
				"type": "unocc",
				"energy": -0.04179,
				"method": "rhf"
			},
			{
				"type": "unocc",
				"energy": -0.00719,
				"method": "rhf"
			},
			{
				"type": "unocc",
				"energy": 0.07766,
				"method": "rhf"
			},
			{
				"type": "unocc",
				"energy": 0.10162,
				"method": "rhf"
			},
			{
				"type": "unocc",
				"energy": 0.12571,
				"method": "rhf"
			}
		],
		"cosmo_sigma_profile": { 
			"-0.025": 0.0,
			"-0.024": 0.0,
			"-0.023": 0.0,
			"-0.022": 0.0,
			"-0.021": 0.0,
			"-0.02": 0.0,
			"-0.019": 0.0,
			"-0.018": 0.0,
			"-0.017": 0.0,
			"-0.016": 0.0,
			"-0.015": 0.0,
			"-0.014": 0.329168175924,
			"-0.013": 1.06049611884,
			"-0.012": 0.941983466539,
			"-0.011": 1.26279655987,
			"-0.01": 1.08357736144,
			"-0.009": 1.28801838301,
			"-0.008": 1.4190136387,
			"-0.007": 8.4930941111,
			"-0.006": 10.3756626529,
			"-0.005": 9.90671772302,
			"-0.004": 12.8226307556,
			"-0.003": 12.826859221,
			"-0.002": 14.879301766,
			"-0.001": 12.0583504783,
			"0.0": 15.9933893106,
			"0.001": 16.123954627,
			"0.002": 12.1233493844,
			"0.003": 7.58431252698,
			"0.004": 5.2822369809,
			"0.005": 4.0557524243,
			"0.006": 3.07909476015,
			"0.007": 3.19246116486,
			"0.008": 2.56080047602,
			"0.009": 2.52164926794,
			"0.01": 1.62840691035,
			"0.011": 1.64910709459,
			"0.012": 2.33458243193,
			"0.013": 2.1236408893,
			"0.014": 2.77223784646,
			"0.015": 2.30731583642,
			"0.016": 1.66222491267,
			"0.017": 0.00308571976194,
			"0.018": 0.0,
			"0.019": 0.0,
			"0.02": 0.0,
			"0.021": 0.0,
			"0.022": 0.0,
			"0.023": 0.0,
			"0.024": 0.0,
			"0.025": 0.0
		}
	}
}
