{
	 "smiles": "NC1=CC(=CC(N)=C1)C(O)=O", 
	 "Tm": 508.15, 
	 "num_atms": 19, 
	 "gaussian": { 
		 "optdone": 1, 
		 "sigma_profile": "yes", 
		 "theory": "DFT", 
		 "functional": "B3LYP", 
		 "basiset": "6-31G**", 
		 "properties": { 
			 "R2extent": 2538.6784, 
			 "electric_dipole_moment_norm": 3.70275592768, 
			 "electric_quadrupole_moment_norm": 13.2293179492, 
			 "total_energy": -531.542431329, 
			 "HOMO_LUMO_gap": 0.16145, 
			 "cosmo_polarized_energy": -17.91, 
			 "cosmo_cavitation_energy": 23.59, 
			 "cosmo_dispersion_energy": -17.62, 
			 "cosmo_repulsion_energy": 1.43, 
			 "cosmo_total_nonelectrostatic_energy": 7.4, 
			 "SMD_solvation_energy": 5.2 
		},
		"coords": [
			{
				"x": -2.4920162831,
				"y": -0.9197951326,
				"z": -1.6348433393,
				"element": "N" 
			},
			{
				"x": -1.137920784,
				"y": -0.6190815185,
				"z": -1.4827378503,
				"element": "C" 
			},
			{
				"x": -0.223766645,
				"y": -1.619846844,
				"z": -1.1229960929,
				"element": "C" 
			},
			{
				"x": 1.1176778542,
				"y": -1.2867309875,
				"z": -0.9197468058,
				"element": "C" 
			},
			{
				"x": 1.5733957565,
				"y": 0.0265033137,
				"z": -1.068753116,
				"element": "C" 
			},
			{
				"x": 0.6632057196,
				"y": 1.0326667674,
				"z": -1.4295085726,
				"element": "C" 
			},
			{
				"x": 1.0833952356,
				"y": 2.3606225078,
				"z": -1.5291121988,
				"element": "N" 
			},
			{
				"x": -0.6834967223,
				"y": 0.6996889642,
				"z": -1.6354482755,
				"element": "C" 
			},
			{
				"x": 2.0426044164,
				"y": -2.3908428636,
				"z": -0.5469769115,
				"element": "C" 
			},
			{
				"x": 3.3255235353,
				"y": -1.9806559323,
				"z": -0.3653035856,
				"element": "O" 
			},
			{
				"x": 1.7230411162,
				"y": -3.5562197857,
				"z": -0.4097731181,
				"element": "O" 
			},
			{
				"x": -3.0128397845,
				"y": -0.2902196077,
				"z": -2.2292936757,
				"element": "H" 
			},
			{
				"x": -2.6936965681,
				"y": -1.8886633034,
				"z": -1.8389697007,
				"element": "H" 
			},
			{
				"x": -0.5366749606,
				"y": -2.6504885209,
				"z": -0.9956611792,
				"element": "H" 
			},
			{
				"x": 2.6179972641,
				"y": 0.2633304191,
				"z": -0.9030890874,
				"element": "H" 
			},
			{
				"x": 0.515738781,
				"y": 2.9504422779,
				"z": -2.1216467458,
				"element": "H" 
			},
			{
				"x": 2.0701265364,
				"y": 2.4827651683,
				"z": -1.7097911711,
				"element": "H" 
			},
			{
				"x": -1.3916250701,
				"y": 1.4812027781,
				"z": -1.9041779129,
				"element": "H" 
			},
			{
				"x": 3.8199306025,
				"y": -2.7816777003,
				"z": -0.1266706608,
				"element": "H" 
			}
		],
		 "valence_orbital": [ 
			{
				"type": "occ",
				"energy": -0.31086,
				"method": "rhf"
			},
			{
				"type": "occ",
				"energy": -0.28384,
				"method": "rhf"
			},
			{
				"type": "occ",
				"energy": -0.26683,
				"method": "rhf"
			},
			{
				"type": "occ",
				"energy": -0.21743,
				"method": "rhf"
			},
			{
				"type": "occ",
				"energy": -0.19529,
				"method": "rhf"
			},
			{
				"type": "unocc",
				"energy": -0.03384,
				"method": "rhf"
			},
			{
				"type": "unocc",
				"energy": 0.02524,
				"method": "rhf"
			},
			{
				"type": "unocc",
				"energy": 0.07029,
				"method": "rhf"
			},
			{
				"type": "unocc",
				"energy": 0.08367,
				"method": "rhf"
			},
			{
				"type": "unocc",
				"energy": 0.08572,
				"method": "rhf"
			}
		],
		"cosmo_sigma_profile": { 
			"-0.025": 0.0,
			"-0.024": 0.0,
			"-0.023": 0.0,
			"-0.022": 0.0,
			"-0.021": 0.0,
			"-0.02": 0.0,
			"-0.019": 0.0,
			"-0.018": 0.309599836028,
			"-0.017": 1.13276741084,
			"-0.016": 0.846649329627,
			"-0.015": 0.804383105294,
			"-0.014": 0.574041356208,
			"-0.013": 1.00232632109,
			"-0.012": 5.71902679158,
			"-0.011": 6.44660637449,
			"-0.01": 6.6363257379,
			"-0.009": 6.91597061635,
			"-0.008": 7.06322198596,
			"-0.007": 6.79772456295,
			"-0.006": 6.6752419737,
			"-0.005": 6.39591441786,
			"-0.004": 5.80421741309,
			"-0.003": 4.69543765488,
			"-0.002": 7.21565558316,
			"-0.001": 7.44921461456,
			"0.0": 6.97131418945,
			"0.001": 7.69682883559,
			"0.002": 8.70174776967,
			"0.003": 9.32609011124,
			"0.004": 11.7410557653,
			"0.005": 13.5409897678,
			"0.006": 14.522109865,
			"0.007": 5.61700722203,
			"0.008": 5.06821918729,
			"0.009": 3.53302068435,
			"0.01": 2.73851493992,
			"0.011": 3.60461711912,
			"0.012": 7.55866437222,
			"0.013": 1.84487140596,
			"0.014": 1.23715325881,
			"0.015": 0.269115659781,
			"0.016": 0.0,
			"0.017": 0.0,
			"0.018": 0.0,
			"0.019": 0.0,
			"0.02": 0.0,
			"0.021": 0.0,
			"0.022": 0.0,
			"0.023": 0.0,
			"0.024": 0.0,
			"0.025": 0.0
		}
	}
}
