{
	 "smiles": "CC(C)(C)OC(=O)N1CC(C1)C(O)=O", 
	 "Tm": 374.65, 
	 "num_atms": 29, 
	 "gaussian": { 
		 "optdone": 1, 
		 "sigma_profile": "yes", 
		 "theory": "DFT", 
		 "functional": "B3LYP", 
		 "basiset": "6-31G**", 
		 "properties": { 
			 "R2extent": 4476.6278, 
			 "electric_dipole_moment_norm": 2.24716464461, 
			 "electric_quadrupole_moment_norm": 15.2013264997, 
			 "total_energy": -707.664016187, 
			 "HOMO_LUMO_gap": 0.23599, 
			 "cosmo_polarized_energy": -14.04, 
			 "cosmo_cavitation_energy": 32.11, 
			 "cosmo_dispersion_energy": -22.26, 
			 "cosmo_repulsion_energy": 1.8, 
			 "cosmo_total_nonelectrostatic_energy": 11.66, 
			 "SMD_solvation_energy": 6.3 
		},
		"coords": [
			{
				"x": 2.3847117638,
				"y": 0.9776514308,
				"z": -0.1360834286,
				"element": "C" 
			},
			{
				"x": 1.0341997524,
				"y": 1.6269329556,
				"z": 0.1762359894,
				"element": "C" 
			},
			{
				"x": 0.9036734632,
				"y": 2.9812854975,
				"z": -0.5285611503,
				"element": "C" 
			},
			{
				"x": 0.8188099399,
				"y": 1.7365747268,
				"z": 1.6895064014,
				"element": "C" 
			},
			{
				"x": 0.0770409368,
				"y": 0.6679427146,
				"z": -0.3990747733,
				"element": "O" 
			},
			{
				"x": -1.255004774,
				"y": 0.8920465958,
				"z": -0.3313754532,
				"element": "C" 
			},
			{
				"x": -1.8192205758,
				"y": 1.8425653137,
				"z": 0.1876541062,
				"element": "O" 
			},
			{
				"x": -1.9266100102,
				"y": -0.1159141438,
				"z": -0.9704022707,
				"element": "N" 
			},
			{
				"x": -1.5216821605,
				"y": -1.5148579977,
				"z": -1.1826105955,
				"element": "C" 
			},
			{
				"x": -3.0218441883,
				"y": -1.9142444336,
				"z": -1.1667893787,
				"element": "C" 
			},
			{
				"x": -3.3369341201,
				"y": -0.4358969528,
				"z": -0.7432177433,
				"element": "C" 
			},
			{
				"x": -3.4089405652,
				"y": -2.9531752632,
				"z": -0.1457699548,
				"element": "C" 
			},
			{
				"x": -4.5827329274,
				"y": -3.5496486342,
				"z": -0.459332309,
				"element": "O" 
			},
			{
				"x": -2.7854523299,
				"y": -3.217922149,
				"z": 0.8592609417,
				"element": "O" 
			},
			{
				"x": 2.4553336044,
				"y": -0.0096868239,
				"z": 0.329574786,
				"element": "H" 
			},
			{
				"x": 2.516169464,
				"y": 0.8600074082,
				"z": -1.2156657776,
				"element": "H" 
			},
			{
				"x": 3.1986437792,
				"y": 1.6005190236,
				"z": 0.24675255,
				"element": "H" 
			},
			{
				"x": -0.0679432714,
				"y": 3.4332297339,
				"z": -0.3273222067,
				"element": "H" 
			},
			{
				"x": 1.6890870073,
				"y": 3.657054369,
				"z": -0.1745725359,
				"element": "H" 
			},
			{
				"x": 1.0220589162,
				"y": 2.8596391927,
				"z": -1.6099755063,
				"element": "H" 
			},
			{
				"x": -0.1525565919,
				"y": 2.1777449012,
				"z": 1.9141565319,
				"element": "H" 
			},
			{
				"x": 1.6025638091,
				"y": 2.3629431842,
				"z": 2.1279796813,
				"element": "H" 
			},
			{
				"x": 0.8755518869,
				"y": 0.7468971797,
				"z": 2.1538289571,
				"element": "H" 
			},
			{
				"x": -0.9583831991,
				"y": -1.9394717444,
				"z": -0.3462978234,
				"element": "H" 
			},
			{
				"x": -0.9882410599,
				"y": -1.692770651,
				"z": -2.1208806779,
				"element": "H" 
			},
			{
				"x": -3.4353668664,
				"y": -2.1686508443,
				"z": -2.1432398118,
				"element": "H" 
			},
			{
				"x": -3.6445181903,
				"y": -0.3141250425,
				"z": 0.3014404092,
				"element": "H" 
			},
			{
				"x": -4.0374705385,
				"y": 0.0993883613,
				"z": -1.3902831549,
				"element": "H" 
			},
			{
				"x": -4.777242954,
				"y": -4.1679579082,
				"z": 0.2656641977,
				"element": "H" 
			}
		],
		 "valence_orbital": [ 
			{
				"type": "occ",
				"energy": -0.32709,
				"method": "rhf"
			},
			{
				"type": "occ",
				"energy": -0.28631,
				"method": "rhf"
			},
			{
				"type": "occ",
				"energy": -0.28488,
				"method": "rhf"
			},
			{
				"type": "occ",
				"energy": -0.26089,
				"method": "rhf"
			},
			{
				"type": "occ",
				"energy": -0.243,
				"method": "rhf"
			},
			{
				"type": "unocc",
				"energy": -0.00701,
				"method": "rhf"
			},
			{
				"type": "unocc",
				"energy": 0.04633,
				"method": "rhf"
			},
			{
				"type": "unocc",
				"energy": 0.06981,
				"method": "rhf"
			},
			{
				"type": "unocc",
				"energy": 0.08477,
				"method": "rhf"
			},
			{
				"type": "unocc",
				"energy": 0.09266,
				"method": "rhf"
			}
		],
		"cosmo_sigma_profile": { 
			"-0.025": 0.0,
			"-0.024": 0.0,
			"-0.023": 0.0,
			"-0.022": 0.0,
			"-0.021": 0.0,
			"-0.02": 0.0,
			"-0.019": 0.150784108606,
			"-0.018": 0.819610699223,
			"-0.017": 1.22966991706,
			"-0.016": 0.373310620137,
			"-0.015": 0.929822737307,
			"-0.014": 0.882096517862,
			"-0.013": 0.658672943494,
			"-0.012": 0.493595602089,
			"-0.011": 0.63078467016,
			"-0.01": 0.607152996855,
			"-0.009": 0.680769243627,
			"-0.008": 0.890964028365,
			"-0.007": 3.00831921947,
			"-0.006": 10.0027035389,
			"-0.005": 14.7769994313,
			"-0.004": 23.8933866813,
			"-0.003": 26.207146719,
			"-0.002": 21.9380225084,
			"-0.001": 21.7627588753,
			"0.0": 27.3508792048,
			"0.001": 22.0347079691,
			"0.002": 8.56580635637,
			"0.003": 6.90427760186,
			"0.004": 7.23269213771,
			"0.005": 7.94270691759,
			"0.006": 6.6566377175,
			"0.007": 6.6988785916,
			"0.008": 4.25926958772,
			"0.009": 3.98940239368,
			"0.01": 3.69757638289,
			"0.011": 6.19674981962,
			"0.012": 4.62092975378,
			"0.013": 3.43366409065,
			"0.014": 1.21098620752,
			"0.015": 0.0,
			"0.016": 0.0,
			"0.017": 0.0,
			"0.018": 0.0,
			"0.019": 0.0,
			"0.02": 0.0,
			"0.021": 0.0,
			"0.022": 0.0,
			"0.023": 0.0,
			"0.024": 0.0,
			"0.025": 0.0
		}
	}
}
