{
	 "smiles": "BrCCOC1=CC=C(Br)C=C1", 
	 "Tm": 329.65, 
	 "num_atms": 19, 
	 "gaussian": { 
		 "optdone": 1, 
		 "sigma_profile": "yes", 
		 "theory": "DFT", 
		 "functional": "B3LYP", 
		 "basiset": "6-31G**", 
		 "properties": { 
			 "R2extent": 7483.8643, 
			 "electric_dipole_moment_norm": 2.76716191973, 
			 "electric_quadrupole_moment_norm": 13.2775369644, 
			 "total_energy": -5527.69479852, 
			 "HOMO_LUMO_gap": 0.204, 
			 "cosmo_polarized_energy": -9.69, 
			 "cosmo_cavitation_energy": 27.51, 
			 "cosmo_dispersion_energy": -20.86, 
			 "cosmo_repulsion_energy": 1.7, 
			 "cosmo_total_nonelectrostatic_energy": 8.34, 
			 "SMD_solvation_energy": 2.54 
		},
		"coords": [
			{
				"x": 1.4381996247,
				"y": -1.0438005187,
				"z": -1.6754934532,
				"element": "Br" 
			},
			{
				"x": 0.9688057252,
				"y": 0.7463847372,
				"z": -0.9910610182,
				"element": "C" 
			},
			{
				"x": 1.0901581941,
				"y": 0.8289891895,
				"z": 0.5234880157,
				"element": "C" 
			},
			{
				"x": 0.1986565782,
				"y": -0.0277558574,
				"z": 1.2180934121,
				"element": "O" 
			},
			{
				"x": -1.12434068,
				"y": 0.3028150627,
				"z": 1.3307084806,
				"element": "C" 
			},
			{
				"x": -1.6960211806,
				"y": 1.5117915567,
				"z": 0.916782114,
				"element": "C" 
			},
			{
				"x": -3.0612628024,
				"y": 1.7412327869,
				"z": 1.1144455085,
				"element": "C" 
			},
			{
				"x": -3.8484384736,
				"y": 0.7681720533,
				"z": 1.7189024707,
				"element": "C" 
			},
			{
				"x": -5.7151636357,
				"y": 1.0863394635,
				"z": 1.9831359509,
				"element": "Br" 
			},
			{
				"x": -3.2876491883,
				"y": -0.4423113043,
				"z": 2.1325594903,
				"element": "C" 
			},
			{
				"x": -1.9313345213,
				"y": -0.6713859501,
				"z": 1.9367078491,
				"element": "C" 
			},
			{
				"x": 1.6598321545,
				"y": 1.443056832,
				"z": -1.4668705324,
				"element": "H" 
			},
			{
				"x": -0.0451584318,
				"y": 0.9384733407,
				"z": -1.3386614522,
				"element": "H" 
			},
			{
				"x": 0.9537262828,
				"y": 1.8756005886,
				"z": 0.8332939444,
				"element": "H" 
			},
			{
				"x": 2.0887789436,
				"y": 0.5163461602,
				"z": 0.8364799545,
				"element": "H" 
			},
			{
				"x": -1.1042394102,
				"y": 2.2871711592,
				"z": 0.4449445728,
				"element": "H" 
			},
			{
				"x": -3.5026495541,
				"y": 2.6781487113,
				"z": 0.7939636065,
				"element": "H" 
			},
			{
				"x": -3.9067014468,
				"y": -1.1982467124,
				"z": 2.6021667818,
				"element": "H" 
			},
			{
				"x": -1.4718981781,
				"y": -1.603321299,
				"z": 2.2483143042,
				"element": "H" 
			}
		],
		 "valence_orbital": [ 
			{
				"type": "occ",
				"energy": -0.28594,
				"method": "rhf"
			},
			{
				"type": "occ",
				"energy": -0.27905,
				"method": "rhf"
			},
			{
				"type": "occ",
				"energy": -0.27758,
				"method": "rhf"
			},
			{
				"type": "occ",
				"energy": -0.26758,
				"method": "rhf"
			},
			{
				"type": "occ",
				"energy": -0.22466,
				"method": "rhf"
			},
			{
				"type": "unocc",
				"energy": -0.02066,
				"method": "rhf"
			},
			{
				"type": "unocc",
				"energy": -0.0062,
				"method": "rhf"
			},
			{
				"type": "unocc",
				"energy": -0.00307,
				"method": "rhf"
			},
			{
				"type": "unocc",
				"energy": 0.00825,
				"method": "rhf"
			},
			{
				"type": "unocc",
				"energy": 0.08227,
				"method": "rhf"
			}
		],
		"cosmo_sigma_profile": { 
			"-0.025": 0.0,
			"-0.024": 0.0,
			"-0.023": 0.0,
			"-0.022": 0.0,
			"-0.021": 0.0,
			"-0.02": 0.0,
			"-0.019": 0.0,
			"-0.018": 0.0,
			"-0.017": 0.0,
			"-0.016": 0.0,
			"-0.015": 0.0,
			"-0.014": 0.0,
			"-0.013": 0.0,
			"-0.012": 0.0,
			"-0.011": 0.0,
			"-0.01": 0.390856942688,
			"-0.009": 2.12603576545,
			"-0.008": 7.25409966703,
			"-0.007": 13.7804900476,
			"-0.006": 15.2358114694,
			"-0.005": 13.4226975712,
			"-0.004": 12.0905708891,
			"-0.003": 10.4104748205,
			"-0.002": 10.5821234944,
			"-0.001": 10.9949872677,
			"0.0": 10.9580973672,
			"0.001": 14.0029557852,
			"0.002": 18.3124894222,
			"0.003": 25.4128399809,
			"0.004": 23.1617009418,
			"0.005": 18.6411209898,
			"0.006": 11.1790868153,
			"0.007": 3.25940423373,
			"0.008": 2.36372209665,
			"0.009": 1.97542574224,
			"0.01": 0.572795107118,
			"0.011": 0.0,
			"0.012": 0.0,
			"0.013": 0.0,
			"0.014": 0.0,
			"0.015": 0.0,
			"0.016": 0.0,
			"0.017": 0.0,
			"0.018": 0.0,
			"0.019": 0.0,
			"0.02": 0.0,
			"0.021": 0.0,
			"0.022": 0.0,
			"0.023": 0.0,
			"0.024": 0.0,
			"0.025": 0.0
		}
	}
}
