{
	 "smiles": "NC1=NC(CC2=C(Br)C=CC=C2)=CS1", 
	 "Tm": 389.15, 
	 "num_atms": 23, 
	 "gaussian": { 
		 "optdone": 1, 
		 "sigma_profile": "yes", 
		 "theory": "DFT", 
		 "functional": "B3LYP", 
		 "basiset": "6-31G**", 
		 "properties": { 
			 "R2extent": 4943.2804, 
			 "electric_dipole_moment_norm": 2.60381433478, 
			 "electric_quadrupole_moment_norm": 13.8497214308, 
			 "total_energy": -3465.58273809, 
			 "HOMO_LUMO_gap": 0.19603, 
			 "cosmo_polarized_energy": -11.42, 
			 "cosmo_cavitation_energy": 31.14, 
			 "cosmo_dispersion_energy": -23.12, 
			 "cosmo_repulsion_energy": 1.79, 
			 "cosmo_total_nonelectrostatic_energy": 9.81, 
			 "SMD_solvation_energy": 2.63 
		},
		"coords": [
			{
				"x": -0.8176419271,
				"y": 1.6782750099,
				"z": 4.6203707329,
				"element": "N" 
			},
			{
				"x": -0.9427391797,
				"y": 1.9539719713,
				"z": 3.2763864696,
				"element": "C" 
			},
			{
				"x": 0.0236739619,
				"y": 1.8249908632,
				"z": 2.414426605,
				"element": "N" 
			},
			{
				"x": -0.4170595785,
				"y": 2.1051610008,
				"z": 1.1302471998,
				"element": "C" 
			},
			{
				"x": 0.566933805,
				"y": 1.9932042591,
				"z": -0.0101418142,
				"element": "C" 
			},
			{
				"x": 0.8908609754,
				"y": 0.5532662795,
				"z": -0.3681567551,
				"element": "C" 
			},
			{
				"x": 0.2667217368,
				"y": -0.1483836436,
				"z": -1.4077918321,
				"element": "C" 
			},
			{
				"x": -1.0749462013,
				"y": 0.6897438681,
				"z": -2.5031497557,
				"element": "Br" 
			},
			{
				"x": 0.5823282552,
				"y": -1.4751976756,
				"z": -1.7026638908,
				"element": "C" 
			},
			{
				"x": 1.5424037308,
				"y": -2.1384403899,
				"z": -0.9410452648,
				"element": "C" 
			},
			{
				"x": 2.1769119108,
				"y": -1.4703817615,
				"z": 0.1071510952,
				"element": "C" 
			},
			{
				"x": 1.850775241,
				"y": -0.1447068915,
				"z": 0.3818818973,
				"element": "C" 
			},
			{
				"x": -1.7259062678,
				"y": 2.4609824972,
				"z": 1.0148273789,
				"element": "C" 
			},
			{
				"x": -2.4985902102,
				"y": 2.4352590642,
				"z": 2.5850739282,
				"element": "S" 
			},
			{
				"x": -1.3998599805,
				"y": 2.2109373028,
				"z": 5.2507817641,
				"element": "H" 
			},
			{
				"x": 0.1470016934,
				"y": 1.6069606186,
				"z": 4.9169868353,
				"element": "H" 
			},
			{
				"x": 1.4935202453,
				"y": 2.4957289919,
				"z": 0.2881352011,
				"element": "H" 
			},
			{
				"x": 0.1731224844,
				"y": 2.516980192,
				"z": -0.8826967606,
				"element": "H" 
			},
			{
				"x": 0.0785408765,
				"y": -1.9779871329,
				"z": -2.5202683288,
				"element": "H" 
			},
			{
				"x": 1.789435148,
				"y": -3.170904931,
				"z": -1.1696572286,
				"element": "H" 
			},
			{
				"x": 2.9246281619,
				"y": -1.9793453814,
				"z": 0.7080678539,
				"element": "H" 
			},
			{
				"x": 2.3320596509,
				"y": 0.3750707385,
				"z": 1.2047885747,
				"element": "H" 
			},
			{
				"x": -2.2803745321,
				"y": 2.7186151503,
				"z": 0.1249460948,
				"element": "H" 
			}
		],
		 "valence_orbital": [ 
			{
				"type": "occ",
				"energy": -0.27198,
				"method": "rhf"
			},
			{
				"type": "occ",
				"energy": -0.26996,
				"method": "rhf"
			},
			{
				"type": "occ",
				"energy": -0.24887,
				"method": "rhf"
			},
			{
				"type": "occ",
				"energy": -0.23619,
				"method": "rhf"
			},
			{
				"type": "occ",
				"energy": -0.20695,
				"method": "rhf"
			},
			{
				"type": "unocc",
				"energy": -0.01092,
				"method": "rhf"
			},
			{
				"type": "unocc",
				"energy": -0.00698,
				"method": "rhf"
			},
			{
				"type": "unocc",
				"energy": 0.00223,
				"method": "rhf"
			},
			{
				"type": "unocc",
				"energy": 0.01128,
				"method": "rhf"
			},
			{
				"type": "unocc",
				"energy": 0.01663,
				"method": "rhf"
			}
		],
		"cosmo_sigma_profile": { 
			"-0.025": 0.0,
			"-0.024": 0.0,
			"-0.023": 0.0,
			"-0.022": 0.0,
			"-0.021": 0.0,
			"-0.02": 0.0,
			"-0.019": 0.0,
			"-0.018": 0.0,
			"-0.017": 0.0,
			"-0.016": 0.0,
			"-0.015": 0.0720175337764,
			"-0.014": 1.81753854681,
			"-0.013": 2.41229601695,
			"-0.012": 3.25985357104,
			"-0.011": 2.91453647115,
			"-0.01": 1.84206872694,
			"-0.009": 1.6746341056,
			"-0.008": 2.46732074001,
			"-0.007": 4.66942245687,
			"-0.006": 10.236412341,
			"-0.005": 13.5609164136,
			"-0.004": 15.5756023598,
			"-0.003": 14.8000522202,
			"-0.002": 15.464484554,
			"-0.001": 16.7330284651,
			"0.0": 15.3413392304,
			"0.001": 16.0831606503,
			"0.002": 22.5472225674,
			"0.003": 27.9268861139,
			"0.004": 29.3922339987,
			"0.005": 18.8727068192,
			"0.006": 3.71494441962,
			"0.007": 3.38059821209,
			"0.008": 2.03819574598,
			"0.009": 2.07119437615,
			"0.01": 2.25937767568,
			"0.011": 1.47455946415,
			"0.012": 1.10902526165,
			"0.013": 0.461728410169,
			"0.014": 0.110116750904,
			"0.015": 0.0,
			"0.016": 0.0,
			"0.017": 0.0,
			"0.018": 0.0,
			"0.019": 0.0,
			"0.02": 0.0,
			"0.021": 0.0,
			"0.022": 0.0,
			"0.023": 0.0,
			"0.024": 0.0,
			"0.025": 0.0
		}
	}
}
