{
	 "smiles": "COC(=O)C1CCC2=C(C=CC=C2)C1=O", 
	 "Tm": 345.15, 
	 "num_atms": 27, 
	 "gaussian": { 
		 "optdone": 1, 
		 "sigma_profile": "yes", 
		 "theory": "DFT", 
		 "functional": "B3LYP", 
		 "basiset": "6-31G**", 
		 "properties": { 
			 "R2extent": 3798.1654, 
			 "electric_dipole_moment_norm": 4.07258108452, 
			 "electric_quadrupole_moment_norm": 13.2307571155, 
			 "total_energy": -690.199186076, 
			 "HOMO_LUMO_gap": 0.18843, 
			 "cosmo_polarized_energy": -12.99, 
			 "cosmo_cavitation_energy": 30.46, 
			 "cosmo_dispersion_energy": -21.91, 
			 "cosmo_repulsion_energy": 1.72, 
			 "cosmo_total_nonelectrostatic_energy": 10.26, 
			 "SMD_solvation_energy": 6.68 
		},
		"coords": [
			{
				"x": 2.7356332615,
				"y": 0.4979103446,
				"z": -3.0441688529,
				"element": "C" 
			},
			{
				"x": 1.8255346266,
				"y": 0.3668689606,
				"z": -1.9398443429,
				"element": "O" 
			},
			{
				"x": 0.5926927661,
				"y": 0.8764033613,
				"z": -2.1462576792,
				"element": "C" 
			},
			{
				"x": 0.2281246334,
				"y": 1.3597532447,
				"z": -3.1939431025,
				"element": "O" 
			},
			{
				"x": -0.2710353276,
				"y": 0.7324269216,
				"z": -0.9022941425,
				"element": "C" 
			},
			{
				"x": -0.3870009107,
				"y": -0.7186008278,
				"z": -0.3989460153,
				"element": "C" 
			},
			{
				"x": -1.3169207206,
				"y": -0.7816777317,
				"z": 0.816878495,
				"element": "C" 
			},
			{
				"x": -0.8945979765,
				"y": 0.1753580187,
				"z": 1.910843379,
				"element": "C" 
			},
			{
				"x": -0.1626736511,
				"y": 1.341013862,
				"z": 1.6045960107,
				"element": "C" 
			},
			{
				"x": 0.2185235941,
				"y": 2.2263720484,
				"z": 2.62662248,
				"element": "C" 
			},
			{
				"x": -0.1247885975,
				"y": 1.9683366711,
				"z": 3.9472126304,
				"element": "C" 
			},
			{
				"x": -0.8514115379,
				"y": 0.8126964551,
				"z": 4.2565972747,
				"element": "C" 
			},
			{
				"x": -1.2279389893,
				"y": -0.0723265176,
				"z": 3.2480280102,
				"element": "C" 
			},
			{
				"x": 0.2285170481,
				"y": 1.6738755547,
				"z": 0.2047596243,
				"element": "C" 
			},
			{
				"x": 0.8882245712,
				"y": 2.6646759898,
				"z": -0.0666761485,
				"element": "O" 
			},
			{
				"x": 2.8902445798,
				"y": 1.5522305882,
				"z": -3.2854070069,
				"element": "H" 
			},
			{
				"x": 3.6678346262,
				"y": 0.0399068431,
				"z": -2.7138738815,
				"element": "H" 
			},
			{
				"x": 2.3464110539,
				"y": -0.014481678,
				"z": -3.9275865349,
				"element": "H" 
			},
			{
				"x": -1.267802522,
				"y": 1.0936953543,
				"z": -1.1895434132,
				"element": "H" 
			},
			{
				"x": -0.7654059729,
				"y": -1.3625752635,
				"z": -1.1998513435,
				"element": "H" 
			},
			{
				"x": 0.6091917139,
				"y": -1.0863233237,
				"z": -0.1311643706,
				"element": "H" 
			},
			{
				"x": -2.3421216888,
				"y": -0.5380457428,
				"z": 0.4995631831,
				"element": "H" 
			},
			{
				"x": -1.357048041,
				"y": -1.8019712845,
				"z": 1.2139601743,
				"element": "H" 
			},
			{
				"x": 0.7831970024,
				"y": 3.11008436,
				"z": 2.3482138024,
				"element": "H" 
			},
			{
				"x": 0.1698848717,
				"y": 2.6560072061,
				"z": 4.7341914629,
				"element": "H" 
			},
			{
				"x": -1.1190849532,
				"y": 0.59891412,
				"z": 5.2876678593,
				"element": "H" 
			},
			{
				"x": -1.7841834597,
				"y": -0.9721275343,
				"z": 3.4989224481,
				"element": "H" 
			}
		],
		 "valence_orbital": [ 
			{
				"type": "occ",
				"energy": -0.29816,
				"method": "rhf"
			},
			{
				"type": "occ",
				"energy": -0.26939,
				"method": "rhf"
			},
			{
				"type": "occ",
				"energy": -0.26134,
				"method": "rhf"
			},
			{
				"type": "occ",
				"energy": -0.25616,
				"method": "rhf"
			},
			{
				"type": "occ",
				"energy": -0.24821,
				"method": "rhf"
			},
			{
				"type": "unocc",
				"energy": -0.05978,
				"method": "rhf"
			},
			{
				"type": "unocc",
				"energy": -0.01326,
				"method": "rhf"
			},
			{
				"type": "unocc",
				"energy": 0.01339,
				"method": "rhf"
			},
			{
				"type": "unocc",
				"energy": 0.03555,
				"method": "rhf"
			},
			{
				"type": "unocc",
				"energy": 0.08883,
				"method": "rhf"
			}
		],
		"cosmo_sigma_profile": { 
			"-0.025": 0.0,
			"-0.024": 0.0,
			"-0.023": 0.0,
			"-0.022": 0.0,
			"-0.021": 0.0,
			"-0.02": 0.0,
			"-0.019": 0.0,
			"-0.018": 0.0,
			"-0.017": 0.0,
			"-0.016": 0.0,
			"-0.015": 0.0,
			"-0.014": 0.0,
			"-0.013": 0.0,
			"-0.012": 0.0,
			"-0.011": 0.0,
			"-0.01": 0.0,
			"-0.009": 0.0,
			"-0.008": 0.842162384887,
			"-0.007": 5.35401133612,
			"-0.006": 14.6001971896,
			"-0.005": 25.7299678204,
			"-0.004": 28.8869141131,
			"-0.003": 25.0006511291,
			"-0.002": 19.6617684314,
			"-0.001": 13.9436823011,
			"0.0": 11.5552004958,
			"0.001": 12.0673799233,
			"0.002": 13.3967874573,
			"0.003": 13.972850819,
			"0.004": 14.2143671954,
			"0.005": 5.73345662931,
			"0.006": 4.36176764492,
			"0.007": 5.3830300369,
			"0.008": 4.46071021577,
			"0.009": 3.2925351588,
			"0.01": 4.44671856402,
			"0.011": 7.74154829903,
			"0.012": 6.22427035058,
			"0.013": 0.451029820153,
			"0.014": 0.0,
			"0.015": 0.0,
			"0.016": 0.0,
			"0.017": 0.0,
			"0.018": 0.0,
			"0.019": 0.0,
			"0.02": 0.0,
			"0.021": 0.0,
			"0.022": 0.0,
			"0.023": 0.0,
			"0.024": 0.0,
			"0.025": 0.0
		}
	}
}
