{
	 "smiles": "CC(=O)OCC1OC(CC1OC(C)=O)N1C=C(I)C(=O)NC1=O", 
	 "Tm": 435.15, 
	 "num_atms": 38, 
	 "gaussian": { 
		 "optdone": 1, 
		 "sigma_profile": "no", 
		 "theory": "DFT", 
		 "functional": "B3LYP", 
		 "basiset": "6-31G**", 
		 "properties": { 
			 "R2extent": 9938.5038, 
			 "electric_dipole_moment_norm": 6.26739973992, 
			 "electric_quadrupole_moment_norm": 29.6159384612, 
			 "total_energy": -1151.92326351, 
			 "HOMO_LUMO_gap": 0.18423, 
			 "cosmo_polarized_energy": -99813.13, 
			 "cosmo_cavitation_energy": 46.88, 
			 "cosmo_dispersion_energy": -32.51, 
			 "cosmo_repulsion_energy": 2.5, 
			 "cosmo_total_nonelectrostatic_energy": 16.86, 
			 "SMD_solvation_energy": 10.58 
		},
		"coords": [
			{
				"x": -1.915613879,
				"y": -0.5815365155,
				"z": 5.7435376588,
				"element": "C" 
			},
			{
				"x": -0.8780581457,
				"y": 0.0920006312,
				"z": 4.8809344436,
				"element": "C" 
			},
			{
				"x": 0.3214212895,
				"y": 0.0174872706,
				"z": 5.0246079854,
				"element": "O" 
			},
			{
				"x": -1.4714748255,
				"y": 0.8274850468,
				"z": 3.9022906861,
				"element": "O" 
			},
			{
				"x": -0.5901555448,
				"y": 1.5654760133,
				"z": 3.0393859332,
				"element": "C" 
			},
			{
				"x": -0.01638182,
				"y": 0.6734635072,
				"z": 1.9410679442,
				"element": "C" 
			},
			{
				"x": 0.734055783,
				"y": 1.5379598259,
				"z": 1.0662249525,
				"element": "O" 
			},
			{
				"x": 0.559690681,
				"y": 1.1732123514,
				"z": -0.2914112056,
				"element": "C" 
			},
			{
				"x": -0.3138418243,
				"y": -0.0896484397,
				"z": -0.3092720432,
				"element": "C" 
			},
			{
				"x": -1.0472938675,
				"y": -0.0103990417,
				"z": 1.0341577491,
				"element": "C" 
			},
			{
				"x": -1.3644369019,
				"y": -1.2980962902,
				"z": 1.5817041369,
				"element": "O" 
			},
			{
				"x": -2.5054583541,
				"y": -1.8804202479,
				"z": 1.1170460555,
				"element": "C" 
			},
			{
				"x": -2.7310661429,
				"y": -3.2158300027,
				"z": 1.7806147921,
				"element": "C" 
			},
			{
				"x": -3.2172345828,
				"y": -1.3719982149,
				"z": 0.2817181295,
				"element": "O" 
			},
			{
				"x": 1.8921591581,
				"y": 0.9776632664,
				"z": -0.917853497,
				"element": "N" 
			},
			{
				"x": 3.0317386475,
				"y": 0.7866513413,
				"z": -0.1729231009,
				"element": "C" 
			},
			{
				"x": 4.2491449325,
				"y": 0.5944991129,
				"z": -0.7373502865,
				"element": "C" 
			},
			{
				"x": 5.9636841807,
				"y": 0.3143747438,
				"z": 0.4319528354,
				"element": "I" 
			},
			{
				"x": 4.399355579,
				"y": 0.5954261589,
				"z": -2.1948468809,
				"element": "C" 
			},
			{
				"x": 5.4222726598,
				"y": 0.43748459,
				"z": -2.8340103106,
				"element": "O" 
			},
			{
				"x": 3.1714951246,
				"y": 0.8136420682,
				"z": -2.8552962713,
				"element": "N" 
			},
			{
				"x": 1.9135222898,
				"y": 0.9959910207,
				"z": -2.3146897221,
				"element": "C" 
			},
			{
				"x": 0.9038024989,
				"y": 1.1542078932,
				"z": -2.9833104666,
				"element": "O" 
			},
			{
				"x": -1.422160952,
				"y": -1.2416090135,
				"z": 6.455893835,
				"element": "H" 
			},
			{
				"x": -2.496434701,
				"y": 0.1741939769,
				"z": 6.2813714401,
				"element": "H" 
			},
			{
				"x": -2.6152901782,
				"y": -1.1472467907,
				"z": 5.1222972599,
				"element": "H" 
			},
			{
				"x": 0.2206094822,
				"y": 2.0101026296,
				"z": 3.620899998,
				"element": "H" 
			},
			{
				"x": -1.202977447,
				"y": 2.3531822101,
				"z": 2.5954228384,
				"element": "H" 
			},
			{
				"x": 0.641375152,
				"y": -0.0840641705,
				"z": 2.3842802345,
				"element": "H" 
			},
			{
				"x": 0.0954081141,
				"y": 1.996746626,
				"z": -0.8402586096,
				"element": "H" 
			},
			{
				"x": 0.3193238955,
				"y": -0.983002565,
				"z": -0.3150412471,
				"element": "H" 
			},
			{
				"x": -0.978585767,
				"y": -0.1244754267,
				"z": -1.1715138304,
				"element": "H" 
			},
			{
				"x": -1.9667120156,
				"y": 0.5758149454,
				"z": 0.9500926727,
				"element": "H" 
			},
			{
				"x": -3.6530939871,
				"y": -3.6556725632,
				"z": 1.4026209632,
				"element": "H" 
			},
			{
				"x": -2.7913769856,
				"y": -3.0940512231,
				"z": 2.8660123475,
				"element": "H" 
			},
			{
				"x": -1.8880938073,
				"y": -3.8822780259,
				"z": 1.5752702514,
				"element": "H" 
			},
			{
				"x": 2.8798069249,
				"y": 0.8238515793,
				"z": 0.8973988723,
				"element": "H" 
			},
			{
				"x": 3.2128753365,
				"y": 0.8219117224,
				"z": -3.8678265435,
				"element": "H" 
			}
		],
		 "valence_orbital": [ 
			{
				"type": "occ",
				"energy": -0.28885,
				"method": "rhf"
			},
			{
				"type": "occ",
				"energy": -0.28533,
				"method": "rhf"
			},
			{
				"type": "occ",
				"energy": -0.27476,
				"method": "rhf"
			},
			{
				"type": "occ",
				"energy": -0.26703,
				"method": "rhf"
			},
			{
				"type": "occ",
				"energy": -0.23464,
				"method": "rhf"
			},
			{
				"type": "unocc",
				"energy": -0.05041,
				"method": "rhf"
			},
			{
				"type": "unocc",
				"energy": -0.04264,
				"method": "rhf"
			},
			{
				"type": "unocc",
				"energy": -0.00805,
				"method": "rhf"
			},
			{
				"type": "unocc",
				"energy": -0.0054,
				"method": "rhf"
			},
			{
				"type": "unocc",
				"energy": -0.00034,
				"method": "rhf"
			}
		],
		"cosmo_sigma_profile": { 
			"0.0": 0.0,
			"0.0": 0.0,
			"0.0": 0.0,
			"0.0": 0.0,
			"0.0": 0.0,
			"0.0": 0.0,
			"0.0": 0.0,
			"0.0": 0.0,
			"0.0": 0.0,
			"0.0": 0.0,
			"0.0": 0.0,
			"0.0": 0.0,
			"0.0": 0.0,
			"0.0": 0.0,
			"0.0": 0.0,
			"0.0": 0.0,
			"0.0": 0.0,
			"0.0": 0.0,
			"0.0": 0.0,
			"0.0": 0.0,
			"0.0": 0.0,
			"0.0": 0.0,
			"0.0": 0.0,
			"0.0": 0.0,
			"0.0": 0.0,
			"0.0": 0.0,
			"0.0": 0.0,
			"0.0": 0.0,
			"0.0": 0.0,
			"0.0": 0.0,
			"0.0": 0.0,
			"0.0": 0.0,
			"0.0": 0.0,
			"0.0": 0.0,
			"0.0": 0.0,
			"0.0": 0.0,
			"0.0": 0.0,
			"0.0": 0.0,
			"0.0": 0.0,
			"0.0": 0.0,
			"0.0": 0.0,
			"0.0": 0.0,
			"0.0": 0.0,
			"0.0": 0.0,
			"0.0": 0.0,
			"0.0": 0.0,
			"0.0": 0.0,
			"0.0": 0.0,
			"0.0": 0.0,
			"0.0": 0.0,
			"0.0": 0.0
		}
	}
}
