{
	 "smiles": "NCCCCN", 
	 "Tm": 300.35, 
	 "num_atms": 18, 
	 "gaussian": { 
		 "optdone": 1, 
		 "sigma_profile": "yes", 
		 "theory": "DFT", 
		 "functional": "B3LYP", 
		 "basiset": "6-31G**", 
		 "properties": { 
			 "R2extent": 1297.1986, 
			 "electric_dipole_moment_norm": 2.73726344549, 
			 "electric_quadrupole_moment_norm": 2.31206431139, 
			 "total_energy": -269.154202174, 
			 "HOMO_LUMO_gap": 0.27866, 
			 "cosmo_polarized_energy": -7.72, 
			 "cosmo_cavitation_energy": 19.06, 
			 "cosmo_dispersion_energy": -14.36, 
			 "cosmo_repulsion_energy": 1.26, 
			 "cosmo_total_nonelectrostatic_energy": 5.95, 
			 "SMD_solvation_energy": 1.14 
		},
		"coords": [
			{
				"x": -1.3208436047,
				"y": -0.5456519791,
				"z": 0.5216601193,
				"element": "N" 
			},
			{
				"x": -0.596592584,
				"y": -0.9605850099,
				"z": 1.7315818989,
				"element": "C" 
			},
			{
				"x": -0.8265715259,
				"y": 0.0022352205,
				"z": 2.9037945174,
				"element": "C" 
			},
			{
				"x": -0.5365544529,
				"y": 1.495838115,
				"z": 2.6489114001,
				"element": "C" 
			},
			{
				"x": 0.8322381029,
				"y": 1.7967818851,
				"z": 1.995379259,
				"element": "C" 
			},
			{
				"x": 0.8690661538,
				"y": 1.7744123728,
				"z": 0.5265427152,
				"element": "N" 
			},
			{
				"x": -1.2183945359,
				"y": -1.2500125662,
				"z": -0.2048118016,
				"element": "H" 
			},
			{
				"x": -2.3175257492,
				"y": -0.4776326302,
				"z": 0.7175776552,
				"element": "H" 
			},
			{
				"x": 0.4712472713,
				"y": -0.9841753615,
				"z": 1.4810137756,
				"element": "H" 
			},
			{
				"x": -0.8570499826,
				"y": -1.9779058702,
				"z": 2.0711224878,
				"element": "H" 
			},
			{
				"x": -1.8641891966,
				"y": -0.102645937,
				"z": 3.2526016042,
				"element": "H" 
			},
			{
				"x": -0.1977927386,
				"y": -0.3474828409,
				"z": 3.7334476863,
				"element": "H" 
			},
			{
				"x": -0.6044735182,
				"y": 2.0092254357,
				"z": 3.6176791692,
				"element": "H" 
			},
			{
				"x": -1.3217510307,
				"y": 1.9292556694,
				"z": 2.0170929893,
				"element": "H" 
			},
			{
				"x": 1.5764837468,
				"y": 1.0824732818,
				"z": 2.3775794062,
				"element": "H" 
			},
			{
				"x": 1.1802056491,
				"y": 2.7843872457,
				"z": 2.3201959525,
				"element": "H" 
			},
			{
				"x": 0.4357441629,
				"y": 2.6292382354,
				"z": 0.1829300502,
				"element": "H" 
			},
			{
				"x": 0.2586538324,
				"y": 1.0255447335,
				"z": 0.1953011151,
				"element": "H" 
			}
		],
		 "valence_orbital": [ 
			{
				"type": "occ",
				"energy": -0.33392,
				"method": "rhf"
			},
			{
				"type": "occ",
				"energy": -0.32228,
				"method": "rhf"
			},
			{
				"type": "occ",
				"energy": -0.31177,
				"method": "rhf"
			},
			{
				"type": "occ",
				"energy": -0.24499,
				"method": "rhf"
			},
			{
				"type": "occ",
				"energy": -0.20861,
				"method": "rhf"
			},
			{
				"type": "unocc",
				"energy": 0.07005,
				"method": "rhf"
			},
			{
				"type": "unocc",
				"energy": 0.10923,
				"method": "rhf"
			},
			{
				"type": "unocc",
				"energy": 0.12235,
				"method": "rhf"
			},
			{
				"type": "unocc",
				"energy": 0.12282,
				"method": "rhf"
			},
			{
				"type": "unocc",
				"energy": 0.14686,
				"method": "rhf"
			}
		],
		"cosmo_sigma_profile": { 
			"-0.025": 0.0,
			"-0.024": 0.0,
			"-0.023": 0.0,
			"-0.022": 0.0,
			"-0.021": 0.0,
			"-0.02": 0.0,
			"-0.019": 0.0,
			"-0.018": 0.0,
			"-0.017": 0.0,
			"-0.016": 0.0,
			"-0.015": 0.0,
			"-0.014": 0.0,
			"-0.013": 0.0,
			"-0.012": 0.0,
			"-0.011": 0.0,
			"-0.01": 1.12499967714,
			"-0.009": 2.9630682819,
			"-0.008": 3.95088007159,
			"-0.007": 3.66485499018,
			"-0.006": 4.42172408832,
			"-0.005": 4.18951717163,
			"-0.004": 4.07301215616,
			"-0.003": 7.68905647509,
			"-0.002": 21.8168787133,
			"-0.001": 27.9675434011,
			"0.0": 20.4797326134,
			"0.001": 13.2680628327,
			"0.002": 6.1375174059,
			"0.003": 2.43675293121,
			"0.004": 2.26649599683,
			"0.005": 1.37844071275,
			"0.006": 2.01691035996,
			"0.007": 1.96431931533,
			"0.008": 1.47033536184,
			"0.009": 1.74880157814,
			"0.01": 1.43096650207,
			"0.011": 1.41670711976,
			"0.012": 1.14808718676,
			"0.013": 0.787183988811,
			"0.014": 1.07355525604,
			"0.015": 0.718547490161,
			"0.016": 0.849754744267,
			"0.017": 0.326157284283,
			"0.018": 0.445432055554,
			"0.019": 0.939629412933,
			"0.02": 0.652248849783,
			"0.021": 0.557429027366,
			"0.022": 0.0925391486631,
			"0.023": 0.0,
			"0.024": 0.0,
			"0.025": 0.0
		}
	}
}
