{
	 "smiles": "CC1=CC(=NO1)N1C(C)=CC(C=O)=C1C", 
	 "Tm": 349.15, 
	 "num_atms": 27, 
	 "gaussian": { 
		 "optdone": 1, 
		 "sigma_profile": "yes", 
		 "theory": "DFT", 
		 "functional": "B3LYP", 
		 "basiset": "6-31G**", 
		 "properties": { 
			 "R2extent": 4058.6504, 
			 "electric_dipole_moment_norm": 6.61507927466, 
			 "electric_quadrupole_moment_norm": 11.0824942847, 
			 "total_energy": -686.294174288, 
			 "HOMO_LUMO_gap": 0.17603, 
			 "cosmo_polarized_energy": -13.72, 
			 "cosmo_cavitation_energy": 30.71, 
			 "cosmo_dispersion_energy": -22.41, 
			 "cosmo_repulsion_energy": 1.73, 
			 "cosmo_total_nonelectrostatic_energy": 10.04, 
			 "SMD_solvation_energy": 7.06 
		},
		"coords": [
			{
				"x": -0.6861276044,
				"y": -2.5813963725,
				"z": 3.7601419802,
				"element": "C" 
			},
			{
				"x": -0.3804937822,
				"y": -1.4490678122,
				"z": 2.8429645599,
				"element": "C" 
			},
			{
				"x": -0.6097679842,
				"y": -1.2323758133,
				"z": 1.5188318183,
				"element": "C" 
			},
			{
				"x": -0.0551851524,
				"y": 0.0669526116,
				"z": 1.2800627073,
				"element": "C" 
			},
			{
				"x": 0.4619964677,
				"y": 0.5754169135,
				"z": 2.3849054128,
				"element": "N" 
			},
			{
				"x": 0.2548339794,
				"y": -0.3856959007,
				"z": 3.3720245093,
				"element": "O" 
			},
			{
				"x": -0.0112873464,
				"y": 0.7963917002,
				"z": 0.0792789036,
				"element": "N" 
			},
			{
				"x": -0.5246694407,
				"y": 0.3677956352,
				"z": -1.1740699612,
				"element": "C" 
			},
			{
				"x": -1.2049709731,
				"y": -0.9360704494,
				"z": -1.4471926365,
				"element": "C" 
			},
			{
				"x": -0.2825972446,
				"y": 1.3599849591,
				"z": -2.0745257357,
				"element": "C" 
			},
			{
				"x": 0.3871003234,
				"y": 2.430413979,
				"z": -1.4045489692,
				"element": "C" 
			},
			{
				"x": 0.8097536012,
				"y": 3.669756448,
				"z": -2.0455701737,
				"element": "C" 
			},
			{
				"x": 0.6334513862,
				"y": 3.9187643927,
				"z": -3.2288733157,
				"element": "O" 
			},
			{
				"x": 0.5492620568,
				"y": 2.0708072277,
				"z": -0.0747578525,
				"element": "C" 
			},
			{
				"x": 1.1921543412,
				"y": 2.8587065872,
				"z": 1.0212127308,
				"element": "C" 
			},
			{
				"x": 0.2326336146,
				"y": -2.9881368095,
				"z": 4.1950767332,
				"element": "H" 
			},
			{
				"x": -1.1987231817,
				"y": -3.3785548439,
				"z": 3.2186599481,
				"element": "H" 
			},
			{
				"x": -1.3254357411,
				"y": -2.2514168981,
				"z": 4.5854442824,
				"element": "H" 
			},
			{
				"x": -1.0979803654,
				"y": -1.9045492925,
				"z": 0.8393350507,
				"element": "H" 
			},
			{
				"x": -0.5615655488,
				"y": -1.8041077564,
				"z": -1.262670868,
				"element": "H" 
			},
			{
				"x": -2.1297515623,
				"y": -1.0674650628,
				"z": -0.8735862348,
				"element": "H" 
			},
			{
				"x": -1.4754292898,
				"y": -0.952835763,
				"z": -2.5053307995,
				"element": "H" 
			},
			{
				"x": -0.5483781241,
				"y": 1.3488912273,
				"z": -3.1214997848,
				"element": "H" 
			},
			{
				"x": 1.3208508544,
				"y": 4.408133373,
				"z": -1.3912108764,
				"element": "H" 
			},
			{
				"x": 0.499682804,
				"y": 3.0574431245,
				"z": 1.8437580474,
				"element": "H" 
			},
			{
				"x": 2.0446284797,
				"y": 2.3321858244,
				"z": 1.4589685165,
				"element": "H" 
			},
			{
				"x": 1.5395154324,
				"y": 3.8120287708,
				"z": 0.6191720076,
				"element": "H" 
			}
		],
		 "valence_orbital": [ 
			{
				"type": "occ",
				"energy": -0.3116,
				"method": "rhf"
			},
			{
				"type": "occ",
				"energy": -0.27229,
				"method": "rhf"
			},
			{
				"type": "occ",
				"energy": -0.24101,
				"method": "rhf"
			},
			{
				"type": "occ",
				"energy": -0.2354,
				"method": "rhf"
			},
			{
				"type": "occ",
				"energy": -0.21684,
				"method": "rhf"
			},
			{
				"type": "unocc",
				"energy": -0.04081,
				"method": "rhf"
			},
			{
				"type": "unocc",
				"energy": -0.01451,
				"method": "rhf"
			},
			{
				"type": "unocc",
				"energy": 0.01991,
				"method": "rhf"
			},
			{
				"type": "unocc",
				"energy": 0.06954,
				"method": "rhf"
			},
			{
				"type": "unocc",
				"energy": 0.07195,
				"method": "rhf"
			}
		],
		"cosmo_sigma_profile": { 
			"-0.025": 0.0,
			"-0.024": 0.0,
			"-0.023": 0.0,
			"-0.022": 0.0,
			"-0.021": 0.0,
			"-0.02": 0.0,
			"-0.019": 0.0,
			"-0.018": 0.0,
			"-0.017": 0.0,
			"-0.016": 0.0,
			"-0.015": 0.0,
			"-0.014": 0.0,
			"-0.013": 0.0,
			"-0.012": 0.0,
			"-0.011": 0.0,
			"-0.01": 0.0,
			"-0.009": 0.177477726904,
			"-0.008": 1.83533649444,
			"-0.007": 7.06443347305,
			"-0.006": 15.5895175872,
			"-0.005": 19.2107968177,
			"-0.004": 20.2589376034,
			"-0.003": 22.3975038465,
			"-0.002": 26.4004391548,
			"-0.001": 26.0481974459,
			"0.0": 18.8953047309,
			"0.001": 12.5912516718,
			"0.002": 10.4388361744,
			"0.003": 9.67873757264,
			"0.004": 9.57609320692,
			"0.005": 7.56870227474,
			"0.006": 5.43765064789,
			"0.007": 5.7951803168,
			"0.008": 6.93207611952,
			"0.009": 3.05613138258,
			"0.01": 3.33052644223,
			"0.011": 3.44922257647,
			"0.012": 4.13584563382,
			"0.013": 3.80067321429,
			"0.014": 1.14617859201,
			"0.015": 0.0,
			"0.016": 0.0,
			"0.017": 0.0,
			"0.018": 0.0,
			"0.019": 0.0,
			"0.02": 0.0,
			"0.021": 0.0,
			"0.022": 0.0,
			"0.023": 0.0,
			"0.024": 0.0,
			"0.025": 0.0
		}
	}
}
