{
	 "smiles": "OC(=O)CCOC1=CC=C(Br)C=C1", 
	 "Tm": 419.15, 
	 "num_atms": 22, 
	 "gaussian": { 
		 "optdone": 1, 
		 "sigma_profile": "yes", 
		 "theory": "DFT", 
		 "functional": "B3LYP", 
		 "basiset": "6-31G**", 
		 "properties": { 
			 "R2extent": 5673.7907, 
			 "electric_dipole_moment_norm": 5.23055030183, 
			 "electric_quadrupole_moment_norm": 14.9653086861, 
			 "total_energy": -3145.44914143, 
			 "HOMO_LUMO_gap": 0.21883, 
			 "cosmo_polarized_energy": -18.08, 
			 "cosmo_cavitation_energy": 28.76, 
			 "cosmo_dispersion_energy": -21.06, 
			 "cosmo_repulsion_energy": 1.68, 
			 "cosmo_total_nonelectrostatic_energy": 9.38, 
			 "SMD_solvation_energy": 4.83 
		},
		"coords": [
			{
				"x": 0.8397044012,
				"y": -1.0159866205,
				"z": 4.2780132802,
				"element": "O" 
			},
			{
				"x": 0.3642923544,
				"y": -1.2249458487,
				"z": 3.0213452275,
				"element": "C" 
			},
			{
				"x": -0.7035281508,
				"y": -1.7620997307,
				"z": 2.8646729001,
				"element": "O" 
			},
			{
				"x": 1.2492461216,
				"y": -0.7317697946,
				"z": 1.8821158868,
				"element": "C" 
			},
			{
				"x": 1.3466329953,
				"y": 0.8017579287,
				"z": 1.8262750178,
				"element": "C" 
			},
			{
				"x": 0.0671296497,
				"y": 1.4268119291,
				"z": 1.7828307622,
				"element": "O" 
			},
			{
				"x": -0.5902904647,
				"y": 1.3866244679,
				"z": 0.5643314769,
				"element": "C" 
			},
			{
				"x": -0.2625123105,
				"y": 2.3091663079,
				"z": -0.4329822708,
				"element": "C" 
			},
			{
				"x": -0.9618664869,
				"y": 2.3087679755,
				"z": -1.639689924,
				"element": "C" 
			},
			{
				"x": -1.9876209999,
				"y": 1.383670333,
				"z": -1.8316640228,
				"element": "C" 
			},
			{
				"x": -2.9508219735,
				"y": 1.3819879771,
				"z": -3.4837425795,
				"element": "Br" 
			},
			{
				"x": -2.3243028267,
				"y": 0.4633611749,
				"z": -0.8399836234,
				"element": "C" 
			},
			{
				"x": -1.6194707944,
				"y": 0.4630178037,
				"z": 0.3646391207,
				"element": "C" 
			},
			{
				"x": 1.7091386097,
				"y": -0.5928298514,
				"z": 4.2496804822,
				"element": "H" 
			},
			{
				"x": 0.8243575322,
				"y": -1.1163729723,
				"z": 0.9533090793,
				"element": "H" 
			},
			{
				"x": 2.261113761,
				"y": -1.1461484817,
				"z": 1.9861546248,
				"element": "H" 
			},
			{
				"x": 1.9560635103,
				"y": 1.0965917547,
				"z": 0.961495938,
				"element": "H" 
			},
			{
				"x": 1.8300438968,
				"y": 1.1994035153,
				"z": 2.7254671615,
				"element": "H" 
			},
			{
				"x": 0.5240545559,
				"y": 3.0357667595,
				"z": -0.2535628883,
				"element": "H" 
			},
			{
				"x": -0.7192846559,
				"y": 3.0241097366,
				"z": -2.4172128261,
				"element": "H" 
			},
			{
				"x": -3.1253199708,
				"y": -0.2480723759,
				"z": -1.0052036908,
				"element": "H" 
			},
			{
				"x": -1.852158754,
				"y": -0.2503119879,
				"z": 1.1486108678,
				"element": "H" 
			}
		],
		 "valence_orbital": [ 
			{
				"type": "occ",
				"energy": -0.2934,
				"method": "rhf"
			},
			{
				"type": "occ",
				"energy": -0.28629,
				"method": "rhf"
			},
			{
				"type": "occ",
				"energy": -0.27641,
				"method": "rhf"
			},
			{
				"type": "occ",
				"energy": -0.26648,
				"method": "rhf"
			},
			{
				"type": "occ",
				"energy": -0.23756,
				"method": "rhf"
			},
			{
				"type": "unocc",
				"energy": -0.01873,
				"method": "rhf"
			},
			{
				"type": "unocc",
				"energy": -0.01352,
				"method": "rhf"
			},
			{
				"type": "unocc",
				"energy": -0.00181,
				"method": "rhf"
			},
			{
				"type": "unocc",
				"energy": 0.00701,
				"method": "rhf"
			},
			{
				"type": "unocc",
				"energy": 0.03737,
				"method": "rhf"
			}
		],
		"cosmo_sigma_profile": { 
			"-0.025": 0.0,
			"-0.024": 0.0,
			"-0.023": 0.0,
			"-0.022": 0.0,
			"-0.021": 0.0,
			"-0.02": 0.0715059314443,
			"-0.019": 0.731212290977,
			"-0.018": 1.14259859761,
			"-0.017": 1.54080358216,
			"-0.016": 1.0640621944,
			"-0.015": 0.72670862849,
			"-0.014": 1.31086351419,
			"-0.013": 1.08362531524,
			"-0.012": 1.52738821058,
			"-0.011": 1.36627439419,
			"-0.01": 1.42142366688,
			"-0.009": 1.61299252472,
			"-0.008": 2.99689415791,
			"-0.007": 8.40055185673,
			"-0.006": 13.3278008765,
			"-0.005": 16.2859817768,
			"-0.004": 14.6780007108,
			"-0.003": 14.0358518761,
			"-0.002": 9.6581860411,
			"-0.001": 9.83381356644,
			"0.0": 11.2022104705,
			"0.001": 12.7633381681,
			"0.002": 19.7906671492,
			"0.003": 25.859985414,
			"0.004": 16.7842631404,
			"0.005": 10.8907078542,
			"0.006": 3.47614180935,
			"0.007": 3.62885104399,
			"0.008": 3.91923383383,
			"0.009": 3.85343104024,
			"0.01": 6.10040933785,
			"0.011": 6.15617905055,
			"0.012": 3.67920760048,
			"0.013": 1.32972887385,
			"0.014": 0.0175217410688,
			"0.015": 0.0,
			"0.016": 0.0,
			"0.017": 0.0,
			"0.018": 0.0,
			"0.019": 0.0,
			"0.02": 0.0,
			"0.021": 0.0,
			"0.022": 0.0,
			"0.023": 0.0,
			"0.024": 0.0,
			"0.025": 0.0
		}
	}
}
