{
	 "smiles": "CC(C)NC(=O)NCC1=CC=C(C=C1)C(O)=O", 
	 "Tm": 442.15, 
	 "num_atms": 33, 
	 "gaussian": { 
		 "optdone": 1, 
		 "sigma_profile": "yes", 
		 "theory": "DFT", 
		 "functional": "B3LYP", 
		 "basiset": "6-31G**", 
		 "properties": { 
			 "R2extent": 5896.8783, 
			 "electric_dipole_moment_norm": 1.78781895336, 
			 "electric_quadrupole_moment_norm": 37.9720435507, 
			 "total_energy": -802.138273705, 
			 "HOMO_LUMO_gap": 0.18672, 
			 "cosmo_polarized_energy": -23.36, 
			 "cosmo_cavitation_energy": 36.52, 
			 "cosmo_dispersion_energy": -25.39, 
			 "cosmo_repulsion_energy": 2.02, 
			 "cosmo_total_nonelectrostatic_energy": 13.15, 
			 "SMD_solvation_energy": 7.34 
		},
		"coords": [
			{
				"x": -0.8183570472,
				"y": 3.6275119854,
				"z": 0.1083547514,
				"element": "C" 
			},
			{
				"x": -1.3285989657,
				"y": 2.7171554023,
				"z": -1.0187644492,
				"element": "C" 
			},
			{
				"x": -1.6109462846,
				"y": 3.4919701631,
				"z": -2.3117620489,
				"element": "C" 
			},
			{
				"x": -0.4316460343,
				"y": 1.5713627053,
				"z": -1.2661221033,
				"element": "N" 
			},
			{
				"x": 0.8718717991,
				"y": 1.7293499591,
				"z": -1.6745033263,
				"element": "C" 
			},
			{
				"x": 1.3787975038,
				"y": 2.8038363532,
				"z": -1.9850639547,
				"element": "O" 
			},
			{
				"x": 1.6213183091,
				"y": 0.5512869241,
				"z": -1.7239560854,
				"element": "N" 
			},
			{
				"x": 1.0506433915,
				"y": -0.7802667275,
				"z": -1.8655024907,
				"element": "C" 
			},
			{
				"x": 0.6346164417,
				"y": -1.4360605789,
				"z": -0.5536070594,
				"element": "C" 
			},
			{
				"x": -0.3595838419,
				"y": -2.425788497,
				"z": -0.5517873421,
				"element": "C" 
			},
			{
				"x": -0.7157951166,
				"y": -3.0759902992,
				"z": 0.6248327916,
				"element": "C" 
			},
			{
				"x": -0.1013639335,
				"y": -2.7326739443,
				"z": 1.8370160889,
				"element": "C" 
			},
			{
				"x": 0.8948067876,
				"y": -1.7463686599,
				"z": 1.8376340342,
				"element": "C" 
			},
			{
				"x": 1.2585759402,
				"y": -1.1049374904,
				"z": 0.6546586256,
				"element": "C" 
			},
			{
				"x": -0.5320703939,
				"y": -3.4726429048,
				"z": 3.0682716691,
				"element": "C" 
			},
			{
				"x": -0.2406127564,
				"y": -2.897494277,
				"z": 4.2655838264,
				"element": "O" 
			},
			{
				"x": -1.1133280364,
				"y": -4.5317156078,
				"z": 3.0335992194,
				"element": "O" 
			},
			{
				"x": -0.6714352051,
				"y": 3.0592510993,
				"z": 1.033170402,
				"element": "H" 
			},
			{
				"x": -1.5423456947,
				"y": 4.4236458722,
				"z": 0.3117050539,
				"element": "H" 
			},
			{
				"x": 0.1328801563,
				"y": 4.0817193872,
				"z": -0.1768981827,
				"element": "H" 
			},
			{
				"x": -2.2691400365,
				"y": 2.2572129826,
				"z": -0.6912346577,
				"element": "H" 
			},
			{
				"x": -0.6969233581,
				"y": 3.9571369257,
				"z": -2.684692978,
				"element": "H" 
			},
			{
				"x": -2.3546334815,
				"y": 4.2733039399,
				"z": -2.1240088362,
				"element": "H" 
			},
			{
				"x": -2.0029914055,
				"y": 2.8225934217,
				"z": -3.0836090021,
				"element": "H" 
			},
			{
				"x": -0.647751064,
				"y": 0.7281721383,
				"z": -0.7535259678,
				"element": "H" 
			},
			{
				"x": 2.5063576544,
				"y": 0.7207564201,
				"z": -2.1799283567,
				"element": "H" 
			},
			{
				"x": 0.1896621611,
				"y": -0.7708887181,
				"z": -2.5484677958,
				"element": "H" 
			},
			{
				"x": 1.8127760708,
				"y": -1.4102938668,
				"z": -2.3389313748,
				"element": "H" 
			},
			{
				"x": -0.8551898841,
				"y": -2.6906805385,
				"z": -1.4828415159,
				"element": "H" 
			},
			{
				"x": -1.4747710756,
				"y": -3.8508287871,
				"z": 0.6319182582,
				"element": "H" 
			},
			{
				"x": 1.4274027469,
				"y": -1.4918150444,
				"z": 2.7513099734,
				"element": "H" 
			},
			{
				"x": 2.0287671602,
				"y": -0.340415516,
				"z": 0.6574126313,
				"element": "H" 
			},
			{
				"x": 0.076207493,
				"y": -1.9931042217,
				"z": 4.1361402024,
				"element": "H" 
			}
		],
		 "valence_orbital": [ 
			{
				"type": "occ",
				"energy": -0.27976,
				"method": "rhf"
			},
			{
				"type": "occ",
				"energy": -0.26998,
				"method": "rhf"
			},
			{
				"type": "occ",
				"energy": -0.26298,
				"method": "rhf"
			},
			{
				"type": "occ",
				"energy": -0.25578,
				"method": "rhf"
			},
			{
				"type": "occ",
				"energy": -0.24627,
				"method": "rhf"
			},
			{
				"type": "unocc",
				"energy": -0.05955,
				"method": "rhf"
			},
			{
				"type": "unocc",
				"energy": -0.03109,
				"method": "rhf"
			},
			{
				"type": "unocc",
				"energy": 0.03655,
				"method": "rhf"
			},
			{
				"type": "unocc",
				"energy": 0.04805,
				"method": "rhf"
			},
			{
				"type": "unocc",
				"energy": 0.0559,
				"method": "rhf"
			}
		],
		"cosmo_sigma_profile": { 
			"-0.025": 0.0,
			"-0.024": 0.0,
			"-0.023": 0.0,
			"-0.022": 0.0,
			"-0.021": 0.0,
			"-0.02": 0.0,
			"-0.019": 0.264853605745,
			"-0.018": 0.786982947294,
			"-0.017": 1.36227475817,
			"-0.016": 0.674475550075,
			"-0.015": 0.495850879498,
			"-0.014": 0.637058833512,
			"-0.013": 1.92410515775,
			"-0.012": 3.21258445963,
			"-0.011": 2.50672101873,
			"-0.01": 2.29988982867,
			"-0.009": 4.03736371845,
			"-0.008": 4.49737685348,
			"-0.007": 8.31850584343,
			"-0.006": 12.3076992695,
			"-0.005": 15.7164536994,
			"-0.004": 15.4491126862,
			"-0.003": 23.0950480271,
			"-0.002": 22.0542855744,
			"-0.001": 22.5337174021,
			"0.0": 23.6707733271,
			"0.001": 25.6624101728,
			"0.002": 20.3271919263,
			"0.003": 14.6972810362,
			"0.004": 8.07263611238,
			"0.005": 5.51528366903,
			"0.006": 5.12679851566,
			"0.007": 4.09499474313,
			"0.008": 3.87249756699,
			"0.009": 4.98550712524,
			"0.01": 6.14694198356,
			"0.011": 6.81207437962,
			"0.012": 6.46417412271,
			"0.013": 3.49228273455,
			"0.014": 3.41321721682,
			"0.015": 3.04350421943,
			"0.016": 0.232453986267,
			"0.017": 0.0,
			"0.018": 0.0,
			"0.019": 0.0,
			"0.02": 0.0,
			"0.021": 0.0,
			"0.022": 0.0,
			"0.023": 0.0,
			"0.024": 0.0,
			"0.025": 0.0
		}
	}
}
