{
	 "smiles": "OC(=O)C1=CNC2=C1C(Br)=CC=C2", 
	 "Tm": 433.15, 
	 "num_atms": 19, 
	 "gaussian": { 
		 "optdone": 1, 
		 "sigma_profile": "yes", 
		 "theory": "DFT", 
		 "functional": "B3LYP", 
		 "basiset": "6-31G**", 
		 "properties": { 
			 "R2extent": 3346.194, 
			 "electric_dipole_moment_norm": 6.7142584289, 
			 "electric_quadrupole_moment_norm": 15.4251310088, 
			 "total_energy": -3123.18944159, 
			 "HOMO_LUMO_gap": 0.18582, 
			 "cosmo_polarized_energy": -17.52, 
			 "cosmo_cavitation_energy": 25.37, 
			 "cosmo_dispersion_energy": -19.62, 
			 "cosmo_repulsion_energy": 1.5, 
			 "cosmo_total_nonelectrostatic_energy": 7.25, 
			 "SMD_solvation_energy": 4.28 
		},
		"coords": [
			{
				"x": 1.9589800759,
				"y": 1.0875177723,
				"z": 2.0801342122,
				"element": "O" 
			},
			{
				"x": 0.8924535389,
				"y": 1.7211208417,
				"z": 1.5667161468,
				"element": "C" 
			},
			{
				"x": 0.4889893022,
				"y": 2.7379782966,
				"z": 2.0969628374,
				"element": "O" 
			},
			{
				"x": 0.2066708073,
				"y": 1.1817584652,
				"z": 0.3526175889,
				"element": "C" 
			},
			{
				"x": -0.8753978497,
				"y": 1.9163310017,
				"z": -0.08985264,
				"element": "C" 
			},
			{
				"x": -1.4262924775,
				"y": 1.3455896,
				"z": -1.1940955901,
				"element": "N" 
			},
			{
				"x": -0.7237138043,
				"y": 0.2046046509,
				"z": -1.5244243922,
				"element": "C" 
			},
			{
				"x": 0.3324909051,
				"y": 0.0528117366,
				"z": -0.5664635312,
				"element": "C" 
			},
			{
				"x": 1.1491033092,
				"y": -1.080164894,
				"z": -0.7698102884,
				"element": "C" 
			},
			{
				"x": 2.6353641395,
				"y": -1.521753698,
				"z": 0.3681833042,
				"element": "Br" 
			},
			{
				"x": 0.9288697018,
				"y": -1.96210822,
				"z": -1.8194326193,
				"element": "C" 
			},
			{
				"x": -0.1233990124,
				"y": -1.7588626488,
				"z": -2.7258763207,
				"element": "C" 
			},
			{
				"x": -0.9653659991,
				"y": -0.6670277541,
				"z": -2.5866420715,
				"element": "C" 
			},
			{
				"x": 2.1893428216,
				"y": 0.2884436708,
				"z": 1.5742932581,
				"element": "H" 
			},
			{
				"x": -1.2617257236,
				"y": 2.8224402247,
				"z": 0.3509862337,
				"element": "H" 
			},
			{
				"x": -2.2251153274,
				"y": 1.6983630914,
				"z": -1.6971428996,
				"element": "H" 
			},
			{
				"x": 1.5821408785,
				"y": -2.8187061534,
				"z": -1.9359279556,
				"element": "H" 
			},
			{
				"x": -0.2707357392,
				"y": -2.4651621181,
				"z": -3.5362122908,
				"element": "H" 
			},
			{
				"x": -1.7854595468,
				"y": -0.4905738654,
				"z": -3.2760129819,
				"element": "H" 
			}
		],
		 "valence_orbital": [ 
			{
				"type": "occ",
				"energy": -0.30143,
				"method": "rhf"
			},
			{
				"type": "occ",
				"energy": -0.28337,
				"method": "rhf"
			},
			{
				"type": "occ",
				"energy": -0.25738,
				"method": "rhf"
			},
			{
				"type": "occ",
				"energy": -0.25124,
				"method": "rhf"
			},
			{
				"type": "occ",
				"energy": -0.22778,
				"method": "rhf"
			},
			{
				"type": "unocc",
				"energy": -0.04196,
				"method": "rhf"
			},
			{
				"type": "unocc",
				"energy": -0.01282,
				"method": "rhf"
			},
			{
				"type": "unocc",
				"energy": -0.01207,
				"method": "rhf"
			},
			{
				"type": "unocc",
				"energy": 0.00169,
				"method": "rhf"
			},
			{
				"type": "unocc",
				"energy": 0.05851,
				"method": "rhf"
			}
		],
		"cosmo_sigma_profile": { 
			"-0.025": 0.0,
			"-0.024": 0.0,
			"-0.023": 0.0,
			"-0.022": 0.0,
			"-0.021": 0.0,
			"-0.02": 0.0,
			"-0.019": 0.0,
			"-0.018": 0.0,
			"-0.017": 1.54483436447,
			"-0.016": 1.75263187363,
			"-0.015": 1.33644790753,
			"-0.014": 1.39436548822,
			"-0.013": 1.46161333804,
			"-0.012": 1.27635295237,
			"-0.011": 1.59341042387,
			"-0.01": 1.47203361759,
			"-0.009": 3.62543409549,
			"-0.008": 3.68386235183,
			"-0.007": 6.48511076738,
			"-0.006": 9.73882936973,
			"-0.005": 11.3186019016,
			"-0.004": 11.0297059884,
			"-0.003": 10.6553769489,
			"-0.002": 10.6211734014,
			"-0.001": 10.3640621088,
			"0.0": 10.9745164279,
			"0.001": 20.4309283688,
			"0.002": 24.6012361822,
			"0.003": 19.9842200042,
			"0.004": 11.0481347354,
			"0.005": 2.98488418999,
			"0.006": 1.96198346287,
			"0.007": 1.91533730558,
			"0.008": 2.68103696531,
			"0.009": 2.60286921087,
			"0.01": 3.12840058514,
			"0.011": 3.66061622543,
			"0.012": 5.43023599978,
			"0.013": 4.59091842209,
			"0.014": 2.0346495642,
			"0.015": 0.301512244916,
			"0.016": 0.0,
			"0.017": 0.0,
			"0.018": 0.0,
			"0.019": 0.0,
			"0.02": 0.0,
			"0.021": 0.0,
			"0.022": 0.0,
			"0.023": 0.0,
			"0.024": 0.0,
			"0.025": 0.0
		}
	}
}
