{
	 "smiles": "FC(F)(F)C1=CC(Cl)=C(N2N=C(C=C2N=CC=CC2=CC=CC=C2)C#N)C(Cl)=C1", 
	 "Tm": 433.0, 
	 "num_atms": 40, 
	 "gaussian": { 
		 "optdone": 1, 
		 "sigma_profile": "yes", 
		 "theory": "DFT", 
		 "functional": "B3LYP", 
		 "basiset": "6-31G**", 
		 "properties": { 
			 "R2extent": 21951.8113, 
			 "electric_dipole_moment_norm": 8.04207481375, 
			 "electric_quadrupole_moment_norm": 25.0030561666, 
			 "total_energy": -2207.59788041, 
			 "HOMO_LUMO_gap": 0.13592, 
			 "cosmo_polarized_energy": -17.4, 
			 "cosmo_cavitation_energy": 53.86, 
			 "cosmo_dispersion_energy": -35.06, 
			 "cosmo_repulsion_energy": 2.59, 
			 "cosmo_total_nonelectrostatic_energy": 21.39, 
			 "SMD_solvation_energy": 9.5 
		},
		"coords": [
			{
				"x": 5.1417813771,
				"y": 0.9476667535,
				"z": -6.9951346726,
				"element": "F" 
			},
			{
				"x": 4.8849140683,
				"y": 1.704312816,
				"z": -5.9074052818,
				"element": "C" 
			},
			{
				"x": 4.6433148641,
				"y": 2.9585796215,
				"z": -6.3403320622,
				"element": "F" 
			},
			{
				"x": 6.0112308511,
				"y": 1.7326941014,
				"z": -5.1653422471,
				"element": "F" 
			},
			{
				"x": 3.7183558284,
				"y": 1.1533856811,
				"z": -5.1229292514,
				"element": "C" 
			},
			{
				"x": 2.4250168708,
				"y": 1.5717760124,
				"z": -5.4309492097,
				"element": "C" 
			},
			{
				"x": 1.3486145032,
				"y": 1.0204487957,
				"z": -4.7401554247,
				"element": "C" 
			},
			{
				"x": -0.2628394311,
				"y": 1.5562019329,
				"z": -5.1211734763,
				"element": "Cl" 
			},
			{
				"x": 1.5499603439,
				"y": 0.0529207535,
				"z": -3.7437594307,
				"element": "C" 
			},
			{
				"x": 0.4441604535,
				"y": -0.5139034261,
				"z": -3.0559545624,
				"element": "N" 
			},
			{
				"x": -0.2019895683,
				"y": -1.5726575458,
				"z": -3.5829863295,
				"element": "N" 
			},
			{
				"x": -1.1740397504,
				"y": -1.8305890169,
				"z": -2.6989039209,
				"element": "C" 
			},
			{
				"x": -1.1431880683,
				"y": -0.9529352057,
				"z": -1.589347398,
				"element": "C" 
			},
			{
				"x": -0.0699169736,
				"y": -0.1044173308,
				"z": -1.8387779769,
				"element": "C" 
			},
			{
				"x": 0.463181927,
				"y": 1.0225928916,
				"z": -1.2579298645,
				"element": "N" 
			},
			{
				"x": 0.4797709793,
				"y": 1.2190450814,
				"z": 0.020159786,
				"element": "C" 
			},
			{
				"x": 0.1140052139,
				"y": 0.3240926907,
				"z": 1.0973732065,
				"element": "C" 
			},
			{
				"x": 0.1438086431,
				"y": 0.7438614711,
				"z": 2.3852278096,
				"element": "C" 
			},
			{
				"x": -0.1558564789,
				"y": -0.0272423469,
				"z": 3.5872284311,
				"element": "C" 
			},
			{
				"x": -0.5071063411,
				"y": -1.392566039,
				"z": 3.5595674865,
				"element": "C" 
			},
			{
				"x": -0.783233011,
				"y": -2.0773692163,
				"z": 4.7374006737,
				"element": "C" 
			},
			{
				"x": -0.7161770461,
				"y": -1.418716856,
				"z": 5.9701742262,
				"element": "C" 
			},
			{
				"x": -0.3691534942,
				"y": -0.0675192107,
				"z": 6.0161562431,
				"element": "C" 
			},
			{
				"x": -0.0918969372,
				"y": 0.6193065076,
				"z": 4.8367497028,
				"element": "C" 
			},
			{
				"x": -2.0979325894,
				"y": -2.8964201483,
				"z": -2.9211043916,
				"element": "C" 
			},
			{
				"x": -2.8692416978,
				"y": -3.7552569427,
				"z": -3.0593503189,
				"element": "N" 
			},
			{
				"x": 2.8626524261,
				"y": -0.3490053866,
				"z": -3.4548674087,
				"element": "C" 
			},
			{
				"x": 3.1556138442,
				"y": -1.5494747952,
				"z": -2.2249377981,
				"element": "Cl" 
			},
			{
				"x": 3.9477326748,
				"y": 0.1955376997,
				"z": -4.1364611577,
				"element": "C" 
			},
			{
				"x": 2.2521613888,
				"y": 2.3235242106,
				"z": -6.190689414,
				"element": "H" 
			},
			{
				"x": -1.8355473638,
				"y": -0.9173420504,
				"z": -0.7639022003,
				"element": "H" 
			},
			{
				"x": 0.8606978797,
				"y": 2.1965112637,
				"z": 0.3300259974,
				"element": "H" 
			},
			{
				"x": -0.1511654716,
				"y": -0.6975438996,
				"z": 0.8460783102,
				"element": "H" 
			},
			{
				"x": 0.4175140021,
				"y": 1.7843946584,
				"z": 2.5643045043,
				"element": "H" 
			},
			{
				"x": -0.5615033605,
				"y": -1.9210972062,
				"z": 2.6130979707,
				"element": "H" 
			},
			{
				"x": -1.0516357217,
				"y": -3.1288322318,
				"z": 4.6976948365,
				"element": "H" 
			},
			{
				"x": -0.9330023578,
				"y": -1.9580010066,
				"z": 6.8874271315,
				"element": "H" 
			},
			{
				"x": -0.3146015945,
				"y": 0.4501705945,
				"z": 6.9691096392,
				"element": "H" 
			},
			{
				"x": 0.1776904573,
				"y": 1.671667978,
				"z": 4.8746747722,
				"element": "H" 
			},
			{
				"x": 4.9543486605,
				"y": -0.121501654,
				"z": -3.8947569291,
				"element": "H" 
			}
		],
		 "valence_orbital": [ 
			{
				"type": "occ",
				"energy": -0.27377,
				"method": "rhf"
			},
			{
				"type": "occ",
				"energy": -0.273,
				"method": "rhf"
			},
			{
				"type": "occ",
				"energy": -0.27178,
				"method": "rhf"
			},
			{
				"type": "occ",
				"energy": -0.26138,
				"method": "rhf"
			},
			{
				"type": "occ",
				"energy": -0.23149,
				"method": "rhf"
			},
			{
				"type": "unocc",
				"energy": -0.09557,
				"method": "rhf"
			},
			{
				"type": "unocc",
				"energy": -0.06295,
				"method": "rhf"
			},
			{
				"type": "unocc",
				"energy": -0.04803,
				"method": "rhf"
			},
			{
				"type": "unocc",
				"energy": -0.03069,
				"method": "rhf"
			},
			{
				"type": "unocc",
				"energy": -0.02287,
				"method": "rhf"
			}
		],
		"cosmo_sigma_profile": { 
			"-0.025": 0.0,
			"-0.024": 0.0,
			"-0.023": 0.0,
			"-0.022": 0.0,
			"-0.021": 0.0,
			"-0.02": 0.0,
			"-0.019": 0.0,
			"-0.018": 0.0,
			"-0.017": 0.0,
			"-0.016": 0.0,
			"-0.015": 0.0,
			"-0.014": 0.0,
			"-0.013": 0.0,
			"-0.012": 0.0,
			"-0.011": 0.0,
			"-0.01": 0.374678184653,
			"-0.009": 4.31776127683,
			"-0.008": 11.1018980752,
			"-0.007": 15.34773867,
			"-0.006": 19.6790717856,
			"-0.005": 20.2720516152,
			"-0.004": 23.0270800147,
			"-0.003": 23.6182637304,
			"-0.002": 34.6004354924,
			"-0.001": 38.3230042633,
			"0.0": 36.1605347891,
			"0.001": 46.0523056164,
			"0.002": 61.2841509099,
			"0.003": 42.3054727545,
			"0.004": 20.329675401,
			"0.005": 10.0465838909,
			"0.006": 5.60722417814,
			"0.007": 4.84654835248,
			"0.008": 5.97403888755,
			"0.009": 5.16215487626,
			"0.01": 4.25669245653,
			"0.011": 4.5904752786,
			"0.012": 2.91809084551,
			"0.013": 0.730055149153,
			"0.014": 0.0,
			"0.015": 0.0,
			"0.016": 0.0,
			"0.017": 0.0,
			"0.018": 0.0,
			"0.019": 0.0,
			"0.02": 0.0,
			"0.021": 0.0,
			"0.022": 0.0,
			"0.023": 0.0,
			"0.024": 0.0,
			"0.025": 0.0
		}
	}
}
