{
	 "smiles": "NNC(=O)CSC1CS(=O)(=O)C2=C1C=CC(=C2)[N+]([O-])=O", 
	 "Tm": 455.15, 
	 "num_atms": 31, 
	 "gaussian": { 
		 "optdone": 1, 
		 "sigma_profile": "yes", 
		 "theory": "DFT", 
		 "functional": "B3LYP", 
		 "basiset": "6-31G**", 
		 "properties": { 
			 "R2extent": 7880.1933, 
			 "electric_dipole_moment_norm": 5.32298330356, 
			 "electric_quadrupole_moment_norm": 25.1153255703, 
			 "total_energy": -1724.240712, 
			 "HOMO_LUMO_gap": 0.1331, 
			 "cosmo_polarized_energy": -28.67, 
			 "cosmo_cavitation_energy": 38.03, 
			 "cosmo_dispersion_energy": -27.3, 
			 "cosmo_repulsion_energy": 2.0, 
			 "cosmo_total_nonelectrostatic_energy": 12.73, 
			 "SMD_solvation_energy": 8.27 
		},
		"coords": [
			{
				"x": 2.6832410936,
				"y": -0.3099040501,
				"z": 1.144582902,
				"element": "N" 
			},
			{
				"x": 2.8480634949,
				"y": 1.0831966624,
				"z": 1.1675320124,
				"element": "N" 
			},
			{
				"x": 1.9298507047,
				"y": 2.0468689713,
				"z": 0.8482236369,
				"element": "C" 
			},
			{
				"x": 2.161937931,
				"y": 3.2377077262,
				"z": 0.995371843,
				"element": "O" 
			},
			{
				"x": 0.6048738986,
				"y": 1.5518678924,
				"z": 0.2616801408,
				"element": "C" 
			},
			{
				"x": -0.5192370126,
				"y": 1.0146049386,
				"z": 1.6295292256,
				"element": "S" 
			},
			{
				"x": -1.7238486475,
				"y": -0.1277202596,
				"z": 0.7916858859,
				"element": "C" 
			},
			{
				"x": -1.2631945076,
				"y": -1.5952445412,
				"z": 0.6365598757,
				"element": "C" 
			},
			{
				"x": -0.7397156818,
				"y": -1.8089441472,
				"z": -1.104023242,
				"element": "S" 
			},
			{
				"x": 0.6885199563,
				"y": -1.4544732231,
				"z": -1.2287128147,
				"element": "O" 
			},
			{
				"x": -1.2248331427,
				"y": -3.072651766,
				"z": -1.6665486313,
				"element": "O" 
			},
			{
				"x": -1.7445460481,
				"y": -0.4259289195,
				"z": -1.653719299,
				"element": "C" 
			},
			{
				"x": -2.1674628626,
				"y": 0.3559051859,
				"z": -0.5765728366,
				"element": "C" 
			},
			{
				"x": -2.9419465692,
				"y": 1.4937120068,
				"z": -0.8288658738,
				"element": "C" 
			},
			{
				"x": -3.2831013841,
				"y": 1.8150756365,
				"z": -2.1398117034,
				"element": "C" 
			},
			{
				"x": -2.8441527688,
				"y": 0.9975558051,
				"z": -3.1854272918,
				"element": "C" 
			},
			{
				"x": -2.0678308335,
				"y": -0.1372571695,
				"z": -2.9736982725,
				"element": "C" 
			},
			{
				"x": -3.2250033058,
				"y": 1.3451830179,
				"z": -4.5687196258,
				"element": "N" 
			},
			{
				"x": -2.8250744862,
				"y": 0.6071535803,
				"z": -5.4652892067,
				"element": "O" 
			},
			{
				"x": -3.9157997861,
				"y": 2.348691099,
				"z": -4.7284391227,
				"element": "O" 
			},
			{
				"x": 1.8956056681,
				"y": -0.5703177572,
				"z": 1.7339898134,
				"element": "H" 
			},
			{
				"x": 2.5019810897,
				"y": -0.6394434453,
				"z": 0.1990835915,
				"element": "H" 
			},
			{
				"x": 3.7142611629,
				"y": 1.4180260954,
				"z": 1.5691585469,
				"element": "H" 
			},
			{
				"x": 0.1561656818,
				"y": 2.3948287302,
				"z": -0.2623984229,
				"element": "H" 
			},
			{
				"x": 0.7667049744,
				"y": 0.7155394025,
				"z": -0.418963206,
				"element": "H" 
			},
			{
				"x": -2.5702835336,
				"y": -0.0992286371,
				"z": 1.4844683046,
				"element": "H" 
			},
			{
				"x": -0.430620169,
				"y": -1.8708060508,
				"z": 1.2830909526,
				"element": "H" 
			},
			{
				"x": -2.0953029888,
				"y": -2.2886361491,
				"z": 0.7854701151,
				"element": "H" 
			},
			{
				"x": -3.2716526618,
				"y": 2.1231689232,
				"z": -0.0082691642,
				"element": "H" 
			},
			{
				"x": -3.8868646014,
				"y": 2.6833928746,
				"z": -2.3724342769,
				"element": "H" 
			},
			{
				"x": -1.7523346646,
				"y": -0.7555224327,
				"z": -3.8055338561,
				"element": "H" 
			}
		],
		 "valence_orbital": [ 
			{
				"type": "occ",
				"energy": -0.30498,
				"method": "rhf"
			},
			{
				"type": "occ",
				"energy": -0.2912,
				"method": "rhf"
			},
			{
				"type": "occ",
				"energy": -0.26653,
				"method": "rhf"
			},
			{
				"type": "occ",
				"energy": -0.26195,
				"method": "rhf"
			},
			{
				"type": "occ",
				"energy": -0.25008,
				"method": "rhf"
			},
			{
				"type": "unocc",
				"energy": -0.11698,
				"method": "rhf"
			},
			{
				"type": "unocc",
				"energy": -0.07634,
				"method": "rhf"
			},
			{
				"type": "unocc",
				"energy": -0.04505,
				"method": "rhf"
			},
			{
				"type": "unocc",
				"energy": -0.00996,
				"method": "rhf"
			},
			{
				"type": "unocc",
				"energy": 0.00147,
				"method": "rhf"
			}
		],
		"cosmo_sigma_profile": { 
			"-0.025": 0.0,
			"-0.024": 0.0,
			"-0.023": 0.0,
			"-0.022": 0.0,
			"-0.021": 0.0,
			"-0.02": 0.0,
			"-0.019": 0.0,
			"-0.018": 0.0,
			"-0.017": 0.0,
			"-0.016": 0.0,
			"-0.015": 0.0,
			"-0.014": 0.511146681646,
			"-0.013": 0.860174848975,
			"-0.012": 1.13759355079,
			"-0.011": 0.877841022755,
			"-0.01": 10.2246644467,
			"-0.009": 14.0497399878,
			"-0.008": 15.0808056867,
			"-0.007": 15.5172379227,
			"-0.006": 14.2336351783,
			"-0.005": 15.1223941996,
			"-0.004": 19.4998916589,
			"-0.003": 21.109295407,
			"-0.002": 22.1927487455,
			"-0.001": 17.1258199286,
			"0.0": 11.5880993608,
			"0.001": 9.66531152616,
			"0.002": 11.1691998741,
			"0.003": 9.09092099695,
			"0.004": 9.02774150967,
			"0.005": 9.55070609615,
			"0.006": 10.3934276621,
			"0.007": 14.6202381993,
			"0.008": 11.3308797721,
			"0.009": 7.96517856433,
			"0.01": 9.9616317842,
			"0.011": 8.8285086664,
			"0.012": 2.93265915274,
			"0.013": 6.69964052683,
			"0.014": 3.71709939993,
			"0.015": 0.511729434449,
			"0.016": 0.463811823675,
			"0.017": 0.00027985318632,
			"0.018": 0.0,
			"0.019": 0.0,
			"0.02": 0.0,
			"0.021": 0.0,
			"0.022": 0.0,
			"0.023": 0.0,
			"0.024": 0.0,
			"0.025": 0.0
		}
	}
}
