{
	 "smiles": "CN(C)C1=CC2=NC3=CC(=CC=C3C=C2C=C1)N(C)C", 
	 "Tm": 438.15, 
	 "num_atms": 39, 
	 "gaussian": { 
		 "optdone": 1, 
		 "sigma_profile": "yes", 
		 "theory": "DFT", 
		 "functional": "B3LYP", 
		 "basiset": "6-31G**", 
		 "properties": { 
			 "R2extent": 8791.3737, 
			 "electric_dipole_moment_norm": 0.614876093209, 
			 "electric_quadrupole_moment_norm": 26.8796513281, 
			 "total_energy": -823.518060449, 
			 "HOMO_LUMO_gap": 0.12348, 
			 "cosmo_polarized_energy": -14.6, 
			 "cosmo_cavitation_energy": 40.34, 
			 "cosmo_dispersion_energy": -29.86, 
			 "cosmo_repulsion_energy": 2.22, 
			 "cosmo_total_nonelectrostatic_energy": 12.7, 
			 "SMD_solvation_energy": 4.0 
		},
		"coords": [
			{
				"x": -1.9305726575,
				"y": 4.6309164139,
				"z": 4.1495331262,
				"element": "C" 
			},
			{
				"x": -0.8354169403,
				"y": 3.9897633735,
				"z": 3.4384151028,
				"element": "N" 
			},
			{
				"x": 0.1857135378,
				"y": 4.8423905715,
				"z": 2.8542017117,
				"element": "C" 
			},
			{
				"x": -0.9778702973,
				"y": 2.6952237314,
				"z": 2.9548043491,
				"element": "C" 
			},
			{
				"x": -0.0870520724,
				"y": 2.1495242138,
				"z": 2.0377306477,
				"element": "C" 
			},
			{
				"x": -0.2114375024,
				"y": 0.8111451827,
				"z": 1.5727609158,
				"element": "C" 
			},
			{
				"x": 0.6970229774,
				"y": 0.3537659487,
				"z": 0.6892955996,
				"element": "N" 
			},
			{
				"x": 0.5821965035,
				"y": -0.9122894332,
				"z": 0.2432810925,
				"element": "C" 
			},
			{
				"x": 1.5421710795,
				"y": -1.3885956509,
				"z": -0.6918673505,
				"element": "C" 
			},
			{
				"x": 1.4990416636,
				"y": -2.6837222355,
				"z": -1.1949737743,
				"element": "C" 
			},
			{
				"x": 0.4277880053,
				"y": -3.5478410578,
				"z": -0.7635612332,
				"element": "C" 
			},
			{
				"x": -0.5115308586,
				"y": -3.1161888621,
				"z": 0.1308640373,
				"element": "C" 
			},
			{
				"x": -0.4772696024,
				"y": -1.7976931613,
				"z": 0.670327155,
				"element": "C" 
			},
			{
				"x": -1.4121479557,
				"y": -1.3076297396,
				"z": 1.5838845236,
				"element": "C" 
			},
			{
				"x": -1.305640493,
				"y": 0.0010904283,
				"z": 2.0578653582,
				"element": "C" 
			},
			{
				"x": -2.2159590483,
				"y": 0.5848903226,
				"z": 2.9858144413,
				"element": "C" 
			},
			{
				"x": -2.0686736748,
				"y": 1.8732292821,
				"z": 3.4183928589,
				"element": "C" 
			},
			{
				"x": 2.4577225395,
				"y": -3.1619848648,
				"z": -2.0794461372,
				"element": "N" 
			},
			{
				"x": 3.4436340199,
				"y": -2.2335236183,
				"z": -2.6057476022,
				"element": "C" 
			},
			{
				"x": 2.2250626622,
				"y": -4.395000013,
				"z": -2.8154866368,
				"element": "C" 
			},
			{
				"x": -1.6192797851,
				"y": 5.6337799428,
				"z": 4.4463699627,
				"element": "H" 
			},
			{
				"x": -2.8447214839,
				"y": 4.7241424551,
				"z": 3.5430024681,
				"element": "H" 
			},
			{
				"x": -2.1849620337,
				"y": 4.0873928454,
				"z": 5.0659727018,
				"element": "H" 
			},
			{
				"x": 0.0158617126,
				"y": 5.0413582098,
				"z": 1.7842920274,
				"element": "H" 
			},
			{
				"x": 0.2045673964,
				"y": 5.7962853812,
				"z": 3.3840316404,
				"element": "H" 
			},
			{
				"x": 1.175162831,
				"y": 4.3838223217,
				"z": 2.9560955182,
				"element": "H" 
			},
			{
				"x": 0.7421607337,
				"y": 2.7143013341,
				"z": 1.6332632131,
				"element": "H" 
			},
			{
				"x": 2.3054343367,
				"y": -0.6808799974,
				"z": -0.9863289147,
				"element": "H" 
			},
			{
				"x": 0.3598020897,
				"y": -4.5573938245,
				"z": -1.1490159092,
				"element": "H" 
			},
			{
				"x": -1.3089999607,
				"y": -3.787420675,
				"z": 0.4413562308,
				"element": "H" 
			},
			{
				"x": -2.2249351037,
				"y": -1.9461930498,
				"z": 1.9264888752,
				"element": "H" 
			},
			{
				"x": -3.0463802343,
				"y": -0.0149506294,
				"z": 3.3512005591,
				"element": "H" 
			},
			{
				"x": -2.7868864402,
				"y": 2.2753058232,
				"z": 4.12189119,
				"element": "H" 
			},
			{
				"x": 4.0072584796,
				"y": -1.7670485864,
				"z": -1.7906592396,
				"element": "H" 
			},
			{
				"x": 4.1525473772,
				"y": -2.7779490679,
				"z": -3.2318748569,
				"element": "H" 
			},
			{
				"x": 2.9940361469,
				"y": -1.4281236279,
				"z": -3.2077049542,
				"element": "H" 
			},
			{
				"x": 2.1139955769,
				"y": -5.2496153307,
				"z": -2.1392555664,
				"element": "H" 
			},
			{
				"x": 1.3340023732,
				"y": -4.3522484536,
				"z": -3.4607965477,
				"element": "H" 
			},
			{
				"x": 3.0905541018,
				"y": -4.5964359029,
				"z": -3.4488165838,
				"element": "H" 
			}
		],
		 "valence_orbital": [ 
			{
				"type": "occ",
				"energy": -0.23766,
				"method": "rhf"
			},
			{
				"type": "occ",
				"energy": -0.22822,
				"method": "rhf"
			},
			{
				"type": "occ",
				"energy": -0.22619,
				"method": "rhf"
			},
			{
				"type": "occ",
				"energy": -0.18153,
				"method": "rhf"
			},
			{
				"type": "occ",
				"energy": -0.17289,
				"method": "rhf"
			},
			{
				"type": "unocc",
				"energy": -0.04941,
				"method": "rhf"
			},
			{
				"type": "unocc",
				"energy": 0.00796,
				"method": "rhf"
			},
			{
				"type": "unocc",
				"energy": 0.02559,
				"method": "rhf"
			},
			{
				"type": "unocc",
				"energy": 0.05181,
				"method": "rhf"
			},
			{
				"type": "unocc",
				"energy": 0.08416,
				"method": "rhf"
			}
		],
		"cosmo_sigma_profile": { 
			"-0.025": 0.0,
			"-0.024": 0.0,
			"-0.023": 0.0,
			"-0.022": 0.0,
			"-0.021": 0.0,
			"-0.02": 0.0,
			"-0.019": 0.0,
			"-0.018": 0.0,
			"-0.017": 0.0,
			"-0.016": 0.0,
			"-0.015": 0.0,
			"-0.014": 0.0,
			"-0.013": 0.0,
			"-0.012": 0.0,
			"-0.011": 0.0,
			"-0.01": 0.0,
			"-0.009": 0.0,
			"-0.008": 0.0,
			"-0.007": 3.0798110798,
			"-0.006": 18.4810342809,
			"-0.005": 22.7369591539,
			"-0.004": 30.5044372514,
			"-0.003": 36.597532495,
			"-0.002": 38.3548870716,
			"-0.001": 32.6024736235,
			"0.0": 14.4718522152,
			"0.001": 11.7208338764,
			"0.002": 11.1910290755,
			"0.003": 19.6007213839,
			"0.004": 24.8752546156,
			"0.005": 23.8049584254,
			"0.006": 14.0135921107,
			"0.007": 4.76769122355,
			"0.008": 2.42231442484,
			"0.009": 1.30109777221,
			"0.01": 2.17722351997,
			"0.011": 1.4245082474,
			"0.012": 1.16798888809,
			"0.013": 0.928413297155,
			"0.014": 0.697916934144,
			"0.015": 1.36724290267,
			"0.016": 0.611979473215,
			"0.017": 0.777790072749,
			"0.018": 0.297025558461,
			"0.019": 0.0,
			"0.02": 0.0,
			"0.021": 0.0,
			"0.022": 0.0,
			"0.023": 0.0,
			"0.024": 0.0,
			"0.025": 0.0
		}
	}
}
