{
	 "smiles": "CC(C)CC(CNC(=O)OC(C)(C)C)C(O)=O", 
	 "Tm": 350.15, 
	 "num_atms": 40, 
	 "gaussian": { 
		 "optdone": 1, 
		 "sigma_profile": "yes", 
		 "theory": "DFT", 
		 "functional": "B3LYP", 
		 "basiset": "6-31G**", 
		 "properties": { 
			 "R2extent": 6191.6909, 
			 "electric_dipole_moment_norm": 1.68445226112, 
			 "electric_quadrupole_moment_norm": 10.404430908, 
			 "total_energy": -826.858222609, 
			 "HOMO_LUMO_gap": 0.25806, 
			 "cosmo_polarized_energy": -14.96, 
			 "cosmo_cavitation_energy": 40.96, 
			 "cosmo_dispersion_energy": -27.17, 
			 "cosmo_repulsion_energy": 2.14, 
			 "cosmo_total_nonelectrostatic_energy": 15.94, 
			 "SMD_solvation_energy": 7.72 
		},
		"coords": [
			{
				"x": -0.2093727416,
				"y": -4.2055598346,
				"z": 0.8853714081,
				"element": "C" 
			},
			{
				"x": -0.1097215061,
				"y": -3.7400607362,
				"z": -0.5755961819,
				"element": "C" 
			},
			{
				"x": 1.2624450989,
				"y": -4.0995710154,
				"z": -1.1651003713,
				"element": "C" 
			},
			{
				"x": -0.3823035662,
				"y": -2.2318219946,
				"z": -0.7573642481,
				"element": "C" 
			},
			{
				"x": -1.7651706124,
				"y": -1.7493939629,
				"z": -0.2840714315,
				"element": "C" 
			},
			{
				"x": -2.238482978,
				"y": -0.4717559654,
				"z": -1.0396164817,
				"element": "C" 
			},
			{
				"x": -1.3794298902,
				"y": 0.6835567383,
				"z": -0.8792853189,
				"element": "N" 
			},
			{
				"x": -1.6071599076,
				"y": 1.6009076527,
				"z": 0.1155424339,
				"element": "C" 
			},
			{
				"x": -2.6203163593,
				"y": 1.6335792335,
				"z": 0.7969781803,
				"element": "O" 
			},
			{
				"x": -0.5609740936,
				"y": 2.4552667865,
				"z": 0.1811514677,
				"element": "O" 
			},
			{
				"x": -0.5169975745,
				"y": 3.5180021152,
				"z": 1.1974137166,
				"element": "C" 
			},
			{
				"x": -0.5579717499,
				"y": 2.9038951864,
				"z": 2.6009836889,
				"element": "C" 
			},
			{
				"x": 0.8403287396,
				"y": 4.1744936609,
				"z": 0.9313915358,
				"element": "C" 
			},
			{
				"x": -1.6588848015,
				"y": 4.5125523199,
				"z": 0.9623530626,
				"element": "C" 
			},
			{
				"x": -1.7856868593,
				"y": -1.4566248257,
				"z": 1.2076191694,
				"element": "C" 
			},
			{
				"x": -3.0039755539,
				"y": -1.6884228859,
				"z": 1.7477407168,
				"element": "O" 
			},
			{
				"x": -0.8527194515,
				"y": -1.0288422886,
				"z": 1.8541145721,
				"element": "O" 
			},
			{
				"x": -1.2153739221,
				"y": -4.0679659941,
				"z": 1.2948983455,
				"element": "H" 
			},
			{
				"x": 0.4882483476,
				"y": -3.6533643713,
				"z": 1.5242397461,
				"element": "H" 
			},
			{
				"x": 0.0290956743,
				"y": -5.2717576134,
				"z": 0.9646458496,
				"element": "H" 
			},
			{
				"x": -0.874590225,
				"y": -4.2826697855,
				"z": -1.1525304232,
				"element": "H" 
			},
			{
				"x": 1.3375807619,
				"y": -3.806510339,
				"z": -2.218322271,
				"element": "H" 
			},
			{
				"x": 1.4491585371,
				"y": -5.1769049213,
				"z": -1.1034261064,
				"element": "H" 
			},
			{
				"x": 2.0668008478,
				"y": -3.5916733418,
				"z": -0.6194324692,
				"element": "H" 
			},
			{
				"x": 0.3867791702,
				"y": -1.654470202,
				"z": -0.2304585238,
				"element": "H" 
			},
			{
				"x": -0.281085436,
				"y": -2.0006902617,
				"z": -1.8267546,
				"element": "H" 
			},
			{
				"x": -2.5236667728,
				"y": -2.5155179402,
				"z": -0.4859737675,
				"element": "H" 
			},
			{
				"x": -3.230175627,
				"y": -0.1820305092,
				"z": -0.6871175472,
				"element": "H" 
			},
			{
				"x": -2.3107586929,
				"y": -0.7155079775,
				"z": -2.1054493047,
				"element": "H" 
			},
			{
				"x": -0.4478184415,
				"y": 0.6668436937,
				"z": -1.2668746316,
				"element": "H" 
			},
			{
				"x": 0.219158952,
				"y": 2.1406226235,
				"z": 2.7040480439,
				"element": "H" 
			},
			{
				"x": -1.5257887485,
				"y": 2.4430243414,
				"z": 2.7982459845,
				"element": "H" 
			},
			{
				"x": -0.3767345889,
				"y": 3.6840358797,
				"z": 3.3476981734,
				"element": "H" 
			},
			{
				"x": 1.6509604675,
				"y": 3.4520921252,
				"z": 1.0640860968,
				"element": "H" 
			},
			{
				"x": 0.8876169479,
				"y": 4.563229192,
				"z": -0.0901257357,
				"element": "H" 
			},
			{
				"x": 0.9986896707,
				"y": 5.0048645497,
				"z": 1.6259346966,
				"element": "H" 
			},
			{
				"x": -1.6174475888,
				"y": 4.9047986685,
				"z": -0.0588438581,
				"element": "H" 
			},
			{
				"x": -2.6269671835,
				"y": 4.0362916812,
				"z": 1.1195854824,
				"element": "H" 
			},
			{
				"x": -1.5617789762,
				"y": 5.3555301588,
				"z": 1.6544633942,
				"element": "H" 
			},
			{
				"x": -2.9587093665,
				"y": -1.3733698412,
				"z": 2.6663375067,
				"element": "H" 
			}
		],
		 "valence_orbital": [ 
			{
				"type": "occ",
				"energy": -0.31153,
				"method": "rhf"
			},
			{
				"type": "occ",
				"energy": -0.28306,
				"method": "rhf"
			},
			{
				"type": "occ",
				"energy": -0.27231,
				"method": "rhf"
			},
			{
				"type": "occ",
				"energy": -0.26173,
				"method": "rhf"
			},
			{
				"type": "occ",
				"energy": -0.24738,
				"method": "rhf"
			},
			{
				"type": "unocc",
				"energy": 0.01068,
				"method": "rhf"
			},
			{
				"type": "unocc",
				"energy": 0.05511,
				"method": "rhf"
			},
			{
				"type": "unocc",
				"energy": 0.07885,
				"method": "rhf"
			},
			{
				"type": "unocc",
				"energy": 0.08394,
				"method": "rhf"
			},
			{
				"type": "unocc",
				"energy": 0.09126,
				"method": "rhf"
			}
		],
		"cosmo_sigma_profile": { 
			"-0.025": 0.0,
			"-0.024": 0.0,
			"-0.023": 0.0,
			"-0.022": 0.0,
			"-0.021": 0.0,
			"-0.02": 0.0,
			"-0.019": 0.0119180647411,
			"-0.018": 0.74493408371,
			"-0.017": 0.787081734415,
			"-0.016": 0.719315071153,
			"-0.015": 0.743470854276,
			"-0.014": 0.670329323141,
			"-0.013": 0.972404713231,
			"-0.012": 1.26864057902,
			"-0.011": 1.65412464179,
			"-0.01": 2.18836566383,
			"-0.009": 1.28101842234,
			"-0.008": 2.44490341878,
			"-0.007": 2.27235623807,
			"-0.006": 4.48610329273,
			"-0.005": 9.50894921762,
			"-0.004": 19.2949600256,
			"-0.003": 29.5264705585,
			"-0.002": 38.8333528443,
			"-0.001": 37.3229273767,
			"0.0": 39.3221027005,
			"0.001": 36.845235077,
			"0.002": 16.8959198884,
			"0.003": 9.30557372794,
			"0.004": 9.30850665515,
			"0.005": 8.74551689891,
			"0.006": 8.62028850576,
			"0.007": 8.21267201985,
			"0.008": 5.9654874979,
			"0.009": 4.60124869345,
			"0.01": 2.91940656667,
			"0.011": 3.3272690539,
			"0.012": 4.48380314139,
			"0.013": 2.41234652913,
			"0.014": 0.232418836918,
			"0.015": 0.0,
			"0.016": 0.0,
			"0.017": 0.0,
			"0.018": 0.0,
			"0.019": 0.0,
			"0.02": 0.0,
			"0.021": 0.0,
			"0.022": 0.0,
			"0.023": 0.0,
			"0.024": 0.0,
			"0.025": 0.0
		}
	}
}
