{
	 "smiles": "CC[C@@H](CO)NCC1=CC=CC=C1", 
	 "Tm": 347.15, 
	 "num_atms": 30, 
	 "gaussian": { 
		 "optdone": 1, 
		 "sigma_profile": "yes", 
		 "theory": "DFT", 
		 "functional": "B3LYP", 
		 "basiset": "6-31G**", 
		 "properties": { 
			 "R2extent": 3393.5966, 
			 "electric_dipole_moment_norm": 2.6859235972, 
			 "electric_quadrupole_moment_norm": 10.989327595, 
			 "total_energy": -559.384520132, 
			 "HOMO_LUMO_gap": 0.22346, 
			 "cosmo_polarized_energy": -9.21, 
			 "cosmo_cavitation_energy": 31.41, 
			 "cosmo_dispersion_energy": -21.92, 
			 "cosmo_repulsion_energy": 1.76, 
			 "cosmo_total_nonelectrostatic_energy": 11.25, 
			 "SMD_solvation_energy": 4.08 
		},
		"coords": [
			{
				"x": 1.1606699271,
				"y": -3.5187334677,
				"z": 1.4606618514,
				"element": "C" 
			},
			{
				"x": 0.4841317551,
				"y": -2.1432726601,
				"z": 1.4731378356,
				"element": "C" 
			},
			{
				"x": -0.3075283466,
				"y": -1.8282090347,
				"z": 0.1926946819,
				"element": "C" 
			},
			{
				"x": -1.4666084381,
				"y": -2.8129294001,
				"z": -0.0325957452,
				"element": "C" 
			},
			{
				"x": -2.3994942059,
				"y": -2.7701853752,
				"z": 1.0309987705,
				"element": "O" 
			},
			{
				"x": -0.9484561754,
				"y": -0.498026595,
				"z": 0.2804274217,
				"element": "N" 
			},
			{
				"x": -0.0844338962,
				"y": 0.675576104,
				"z": 0.4785125094,
				"element": "C" 
			},
			{
				"x": 1.0128782247,
				"y": 0.8879622351,
				"z": -0.5570528036,
				"element": "C" 
			},
			{
				"x": 2.3651909449,
				"y": 0.8593227483,
				"z": -0.1969214342,
				"element": "C" 
			},
			{
				"x": 3.3678459154,
				"y": 1.0527311026,
				"z": -1.1505400686,
				"element": "C" 
			},
			{
				"x": 3.0291165789,
				"y": 1.2762119248,
				"z": -2.4849276558,
				"element": "C" 
			},
			{
				"x": 1.6828742574,
				"y": 1.3094617086,
				"z": -2.8588200203,
				"element": "C" 
			},
			{
				"x": 0.6872180894,
				"y": 1.1183652346,
				"z": -1.9019374234,
				"element": "C" 
			},
			{
				"x": 1.7930813138,
				"y": -3.646605058,
				"z": 0.5742742501,
				"element": "H" 
			},
			{
				"x": 0.429631507,
				"y": -4.3324190196,
				"z": 1.4738277186,
				"element": "H" 
			},
			{
				"x": 1.7993029396,
				"y": -3.6408561583,
				"z": 2.3411743969,
				"element": "H" 
			},
			{
				"x": 1.2564566992,
				"y": -1.3792683113,
				"z": 1.6122418899,
				"element": "H" 
			},
			{
				"x": -0.1965543823,
				"y": -2.0695670432,
				"z": 2.3282185844,
				"element": "H" 
			},
			{
				"x": 0.3812812207,
				"y": -1.9008296902,
				"z": -0.6679421541,
				"element": "H" 
			},
			{
				"x": -1.9491761321,
				"y": -2.5740641695,
				"z": -0.9988947283,
				"element": "H" 
			},
			{
				"x": -1.0979973429,
				"y": -3.8399040899,
				"z": -0.1092668221,
				"element": "H" 
			},
			{
				"x": -2.4786415992,
				"y": -1.8260873952,
				"z": 1.2461327976,
				"element": "H" 
			},
			{
				"x": -1.4824979297,
				"y": -0.35584642,
				"z": -0.5752709785,
				"element": "H" 
			},
			{
				"x": 0.3617473789,
				"y": 0.6223376941,
				"z": 1.4756961966,
				"element": "H" 
			},
			{
				"x": -0.7488376127,
				"y": 1.5485180213,
				"z": 0.4880908891,
				"element": "H" 
			},
			{
				"x": 2.6369411699,
				"y": 0.6903729276,
				"z": 0.8425120549,
				"element": "H" 
			},
			{
				"x": 4.4115786138,
				"y": 1.027517468,
				"z": -0.8498696043,
				"element": "H" 
			},
			{
				"x": 3.8060661251,
				"y": 1.4266604693,
				"z": -3.2289143629,
				"element": "H" 
			},
			{
				"x": 1.4102635517,
				"y": 1.4901107441,
				"z": -3.894946751,
				"element": "H" 
			},
			{
				"x": -0.3579501515,
				"y": 1.1560555053,
				"z": -2.2036012961,
				"element": "H" 
			}
		],
		 "valence_orbital": [ 
			{
				"type": "occ",
				"energy": -0.30529,
				"method": "rhf"
			},
			{
				"type": "occ",
				"energy": -0.25495,
				"method": "rhf"
			},
			{
				"type": "occ",
				"energy": -0.2535,
				"method": "rhf"
			},
			{
				"type": "occ",
				"energy": -0.24973,
				"method": "rhf"
			},
			{
				"type": "occ",
				"energy": -0.23191,
				"method": "rhf"
			},
			{
				"type": "unocc",
				"energy": -0.00845,
				"method": "rhf"
			},
			{
				"type": "unocc",
				"energy": -0.00426,
				"method": "rhf"
			},
			{
				"type": "unocc",
				"energy": 0.07187,
				"method": "rhf"
			},
			{
				"type": "unocc",
				"energy": 0.0912,
				"method": "rhf"
			},
			{
				"type": "unocc",
				"energy": 0.10074,
				"method": "rhf"
			}
		],
		"cosmo_sigma_profile": { 
			"-0.025": 0.0,
			"-0.024": 0.0,
			"-0.023": 0.0,
			"-0.022": 0.0,
			"-0.021": 0.0,
			"-0.02": 0.0,
			"-0.019": 0.0,
			"-0.018": 0.0,
			"-0.017": 0.0,
			"-0.016": 0.0,
			"-0.015": 0.0,
			"-0.014": 0.0,
			"-0.013": 0.0,
			"-0.012": 0.0,
			"-0.011": 0.0,
			"-0.01": 0.616679842054,
			"-0.009": 2.42242927529,
			"-0.008": 2.96771455469,
			"-0.007": 2.90659329596,
			"-0.006": 5.75496598931,
			"-0.005": 14.4918133112,
			"-0.004": 20.2648496251,
			"-0.003": 24.9277648598,
			"-0.002": 27.3435043242,
			"-0.001": 25.4295320146,
			"0.0": 23.8484212602,
			"0.001": 23.062440167,
			"0.002": 13.8234740157,
			"0.003": 10.2203570726,
			"0.004": 9.92585452212,
			"0.005": 10.1887148479,
			"0.006": 9.80111932854,
			"0.007": 3.73221210214,
			"0.008": 1.67941267499,
			"0.009": 1.80330611559,
			"0.01": 1.92315203971,
			"0.011": 1.08561937798,
			"0.012": 1.58458333561,
			"0.013": 1.07332473747,
			"0.014": 2.00784882379,
			"0.015": 2.2463017192,
			"0.016": 0.0511254421477,
			"0.017": 0.0,
			"0.018": 0.0,
			"0.019": 0.0,
			"0.02": 0.0,
			"0.021": 0.0,
			"0.022": 0.0,
			"0.023": 0.0,
			"0.024": 0.0,
			"0.025": 0.0
		}
	}
}
