{
	 "smiles": "CC(C)(C)SC(C)(C)C", 
	 "Tm": 264.15, 
	 "num_atms": 27, 
	 "gaussian": { 
		 "optdone": 1, 
		 "sigma_profile": "yes", 
		 "theory": "DFT", 
		 "functional": "B3LYP", 
		 "basiset": "6-31G**", 
		 "properties": { 
			 "R2extent": 1860.783, 
			 "electric_dipole_moment_norm": 1.54945679191, 
			 "electric_quadrupole_moment_norm": 5.2759103859, 
			 "total_energy": -713.907562289, 
			 "HOMO_LUMO_gap": 0.26303, 
			 "cosmo_polarized_energy": -4.51, 
			 "cosmo_cavitation_energy": 27.51, 
			 "cosmo_dispersion_energy": -19.7, 
			 "cosmo_repulsion_energy": 1.53, 
			 "cosmo_total_nonelectrostatic_energy": 9.34, 
			 "SMD_solvation_energy": 4.63 
		},
		"coords": [
			{
				"x": -0.6065401634,
				"y": 2.4308447735,
				"z": -1.1066155739,
				"element": "C" 
			},
			{
				"x": -0.1456673386,
				"y": 2.0778287415,
				"z": 0.3136795186,
				"element": "C" 
			},
			{
				"x": -0.6937152744,
				"y": 3.1254407718,
				"z": 1.3027189319,
				"element": "C" 
			},
			{
				"x": 1.3895551649,
				"y": 2.0587556281,
				"z": 0.4006872939,
				"element": "C" 
			},
			{
				"x": -0.8920000309,
				"y": 0.4812673632,
				"z": 0.9688268018,
				"element": "S" 
			},
			{
				"x": -0.7683874655,
				"y": -0.9358362647,
				"z": -0.2603801686,
				"element": "C" 
			},
			{
				"x": 0.6304612201,
				"y": -1.0967430086,
				"z": -0.8700503432,
				"element": "C" 
			},
			{
				"x": -1.0849368464,
				"y": -2.1613440312,
				"z": 0.61935197,
				"element": "C" 
			},
			{
				"x": -1.8342435419,
				"y": -0.8193950544,
				"z": -1.3628319488,
				"element": "C" 
			},
			{
				"x": -1.6971618874,
				"y": 2.4284909282,
				"z": -1.1844084939,
				"element": "H" 
			},
			{
				"x": -0.2040459648,
				"y": 1.7417835856,
				"z": -1.8538419597,
				"element": "H" 
			},
			{
				"x": -0.2489604994,
				"y": 3.4355354704,
				"z": -1.3659439764,
				"element": "H" 
			},
			{
				"x": -0.2702571947,
				"y": 4.1083379591,
				"z": 1.064045524,
				"element": "H" 
			},
			{
				"x": -1.7834305156,
				"y": 3.1964254747,
				"z": 1.2457121463,
				"element": "H" 
			},
			{
				"x": -0.419415245,
				"y": 2.8836661429,
				"z": 2.3344882439,
				"element": "H" 
			},
			{
				"x": 1.71983819,
				"y": 1.8205226047,
				"z": 1.4154055891,
				"element": "H" 
			},
			{
				"x": 1.8317475216,
				"y": 1.3282228679,
				"z": -0.2797163186,
				"element": "H" 
			},
			{
				"x": 1.788596703,
				"y": 3.0460706727,
				"z": 0.1335363193,
				"element": "H" 
			},
			{
				"x": 0.6657014085,
				"y": -2.0209953812,
				"z": -1.4608619066,
				"element": "H" 
			},
			{
				"x": 0.8841858958,
				"y": -0.2734474769,
				"z": -1.5430824918,
				"element": "H" 
			},
			{
				"x": 1.3988266278,
				"y": -1.1604186827,
				"z": -0.0947461967,
				"element": "H" 
			},
			{
				"x": -2.0606314847,
				"y": -2.0634987936,
				"z": 1.1058381475,
				"element": "H" 
			},
			{
				"x": -0.3276556495,
				"y": -2.3017218843,
				"z": 1.3956212801,
				"element": "H" 
			},
			{
				"x": -1.1100865724,
				"y": -3.0617584285,
				"z": -0.0059394451,
				"element": "H" 
			},
			{
				"x": -1.8209857366,
				"y": -1.7214476136,
				"z": -1.9885506679,
				"element": "H" 
			},
			{
				"x": -1.6598541629,
				"y": 0.0383273181,
				"z": -2.0155701654,
				"element": "H" 
			},
			{
				"x": -2.8334371577,
				"y": -0.718913683,
				"z": -0.9303721101,
				"element": "H" 
			}
		],
		 "valence_orbital": [ 
			{
				"type": "occ",
				"energy": -0.33428,
				"method": "rhf"
			},
			{
				"type": "occ",
				"energy": -0.33182,
				"method": "rhf"
			},
			{
				"type": "occ",
				"energy": -0.30095,
				"method": "rhf"
			},
			{
				"type": "occ",
				"energy": -0.27483,
				"method": "rhf"
			},
			{
				"type": "occ",
				"energy": -0.21017,
				"method": "rhf"
			},
			{
				"type": "unocc",
				"energy": 0.05286,
				"method": "rhf"
			},
			{
				"type": "unocc",
				"energy": 0.05618,
				"method": "rhf"
			},
			{
				"type": "unocc",
				"energy": 0.07333,
				"method": "rhf"
			},
			{
				"type": "unocc",
				"energy": 0.11171,
				"method": "rhf"
			},
			{
				"type": "unocc",
				"energy": 0.12329,
				"method": "rhf"
			}
		],
		"cosmo_sigma_profile": { 
			"-0.025": 0.0,
			"-0.024": 0.0,
			"-0.023": 0.0,
			"-0.022": 0.0,
			"-0.021": 0.0,
			"-0.02": 0.0,
			"-0.019": 0.0,
			"-0.018": 0.0,
			"-0.017": 0.0,
			"-0.016": 0.0,
			"-0.015": 0.0,
			"-0.014": 0.0,
			"-0.013": 0.0,
			"-0.012": 0.0,
			"-0.011": 0.0,
			"-0.01": 0.0,
			"-0.009": 0.0,
			"-0.008": 0.0,
			"-0.007": 0.0,
			"-0.006": 0.0536962406747,
			"-0.005": 1.84139006892,
			"-0.004": 7.71210762526,
			"-0.003": 30.7169890884,
			"-0.002": 32.0331767681,
			"-0.001": 33.834226286,
			"0.0": 35.0707131995,
			"0.001": 37.5008731903,
			"0.002": 7.72309922973,
			"0.003": 3.94876620032,
			"0.004": 3.77828151459,
			"0.005": 2.71928757362,
			"0.006": 2.49784297562,
			"0.007": 2.7807054358,
			"0.008": 2.326227998,
			"0.009": 3.29014971351,
			"0.01": 1.88698521275,
			"0.011": 1.77412078743,
			"0.012": 1.24302217927,
			"0.013": 0.0194292980993,
			"0.014": 0.0,
			"0.015": 0.0,
			"0.016": 0.0,
			"0.017": 0.0,
			"0.018": 0.0,
			"0.019": 0.0,
			"0.02": 0.0,
			"0.021": 0.0,
			"0.022": 0.0,
			"0.023": 0.0,
			"0.024": 0.0,
			"0.025": 0.0
		}
	}
}
