{
	 "smiles": "CC1=CC2=C(C1)C=CC=C2", 
	 "Tm": 353.15, 
	 "num_atms": 20, 
	 "gaussian": { 
		 "optdone": 1, 
		 "sigma_profile": "yes", 
		 "theory": "DFT", 
		 "functional": "B3LYP", 
		 "basiset": "6-31G**", 
		 "properties": { 
			 "R2extent": 2334.5291, 
			 "electric_dipole_moment_norm": 1.14583477867, 
			 "electric_quadrupole_moment_norm": 4.76111958052, 
			 "total_energy": -387.090671961, 
			 "HOMO_LUMO_gap": 0.18952, 
			 "cosmo_polarized_energy": -4.16, 
			 "cosmo_cavitation_energy": 22.89, 
			 "cosmo_dispersion_energy": -17.11, 
			 "cosmo_repulsion_energy": 1.38, 
			 "cosmo_total_nonelectrostatic_energy": 7.17, 
			 "SMD_solvation_energy": 3.59 
		},
		"coords": [
			{
				"x": 2.4779271869,
				"y": 0.4320231887,
				"z": -1.3607313684,
				"element": "C" 
			},
			{
				"x": 1.0808691223,
				"y": -0.1013347245,
				"z": -1.4024288077,
				"element": "C" 
			},
			{
				"x": 0.0463398867,
				"y": 0.3444024687,
				"z": -2.1476469013,
				"element": "C" 
			},
			{
				"x": -1.1519447463,
				"y": -0.4579001955,
				"z": -1.8905178927,
				"element": "C" 
			},
			{
				"x": -0.8235748818,
				"y": -1.4451947661,
				"z": -0.9353288295,
				"element": "C" 
			},
			{
				"x": 0.6317430301,
				"y": -1.2817218511,
				"z": -0.5585921954,
				"element": "C" 
			},
			{
				"x": -1.7775551278,
				"y": -2.3548716404,
				"z": -0.5004970742,
				"element": "C" 
			},
			{
				"x": -3.075225262,
				"y": -2.2778682635,
				"z": -1.0257605356,
				"element": "C" 
			},
			{
				"x": -3.4021592234,
				"y": -1.3011723381,
				"z": -1.9714381422,
				"element": "C" 
			},
			{
				"x": -2.4446245629,
				"y": -0.3823411808,
				"z": -2.4127786941,
				"element": "C" 
			},
			{
				"x": 2.7507148871,
				"y": 0.7630806726,
				"z": -0.3499865904,
				"element": "H" 
			},
			{
				"x": 2.6016486339,
				"y": 1.2814069422,
				"z": -2.0384770494,
				"element": "H" 
			},
			{
				"x": 3.2091195543,
				"y": -0.3364506825,
				"z": -1.6443276784,
				"element": "H" 
			},
			{
				"x": 0.0856511052,
				"y": 1.1780187812,
				"z": -2.842076384,
				"element": "H" 
			},
			{
				"x": 1.2230221777,
				"y": -2.1825386949,
				"z": -0.7774254861,
				"element": "H" 
			},
			{
				"x": 0.7651303868,
				"y": -1.0845129733,
				"z": 0.5148553828,
				"element": "H" 
			},
			{
				"x": -1.5295371468,
				"y": -3.1167536915,
				"z": 0.2346694261,
				"element": "H" 
			},
			{
				"x": -3.832853082,
				"y": -2.9827451799,
				"z": -0.6953434852,
				"element": "H" 
			},
			{
				"x": -4.4128306501,
				"y": -1.2560311604,
				"z": -2.3679341099,
				"element": "H" 
			},
			{
				"x": -2.7048612879,
				"y": 0.3745052891,
				"z": -3.1480335844,
				"element": "H" 
			}
		],
		 "valence_orbital": [ 
			{
				"type": "occ",
				"energy": -0.33267,
				"method": "rhf"
			},
			{
				"type": "occ",
				"energy": -0.32213,
				"method": "rhf"
			},
			{
				"type": "occ",
				"energy": -0.28291,
				"method": "rhf"
			},
			{
				"type": "occ",
				"energy": -0.23671,
				"method": "rhf"
			},
			{
				"type": "occ",
				"energy": -0.20433,
				"method": "rhf"
			},
			{
				"type": "unocc",
				"energy": -0.01481,
				"method": "rhf"
			},
			{
				"type": "unocc",
				"energy": 0.00793,
				"method": "rhf"
			},
			{
				"type": "unocc",
				"energy": 0.06128,
				"method": "rhf"
			},
			{
				"type": "unocc",
				"energy": 0.1014,
				"method": "rhf"
			},
			{
				"type": "unocc",
				"energy": 0.10934,
				"method": "rhf"
			}
		],
		"cosmo_sigma_profile": { 
			"-0.025": 0.0,
			"-0.024": 0.0,
			"-0.023": 0.0,
			"-0.022": 0.0,
			"-0.021": 0.0,
			"-0.02": 0.0,
			"-0.019": 0.0,
			"-0.018": 0.0,
			"-0.017": 0.0,
			"-0.016": 0.0,
			"-0.015": 0.0,
			"-0.014": 0.0,
			"-0.013": 0.0,
			"-0.012": 0.0,
			"-0.011": 0.0,
			"-0.01": 0.0,
			"-0.009": 0.0,
			"-0.008": 0.0,
			"-0.007": 0.0,
			"-0.006": 0.713215834337,
			"-0.005": 11.8799198495,
			"-0.004": 19.4769059388,
			"-0.003": 23.484634381,
			"-0.002": 22.5677032696,
			"-0.001": 17.5407634237,
			"0.0": 15.9010588723,
			"0.001": 10.5924067144,
			"0.002": 9.84356275916,
			"0.003": 9.30942825775,
			"0.004": 10.5133078571,
			"0.005": 13.2712447063,
			"0.006": 9.86310423253,
			"0.007": 6.56887908957,
			"0.008": 0.396621268884,
			"0.009": 0.0,
			"0.01": 0.0,
			"0.011": 0.0,
			"0.012": 0.0,
			"0.013": 0.0,
			"0.014": 0.0,
			"0.015": 0.0,
			"0.016": 0.0,
			"0.017": 0.0,
			"0.018": 0.0,
			"0.019": 0.0,
			"0.02": 0.0,
			"0.021": 0.0,
			"0.022": 0.0,
			"0.023": 0.0,
			"0.024": 0.0,
			"0.025": 0.0
		}
	}
}
