{
	 "smiles": "CC1=CC=C(C=C1)C1=NN(CC2=CC=CC=C2)C=C1C(O)=O", 
	 "Tm": 431.15, 
	 "num_atms": 38, 
	 "gaussian": { 
		 "optdone": 1, 
		 "sigma_profile": "yes", 
		 "theory": "DFT", 
		 "functional": "B3LYP", 
		 "basiset": "6-31G**", 
		 "properties": { 
			 "R2extent": 8769.226, 
			 "electric_dipole_moment_norm": 1.62839090516, 
			 "electric_quadrupole_moment_norm": 17.6410701733, 
			 "total_energy": -955.522497875, 
			 "HOMO_LUMO_gap": 0.19206, 
			 "cosmo_polarized_energy": -15.87, 
			 "cosmo_cavitation_energy": 43.04, 
			 "cosmo_dispersion_energy": -29.92, 
			 "cosmo_repulsion_energy": 2.29, 
			 "cosmo_total_nonelectrostatic_energy": 15.41, 
			 "SMD_solvation_energy": 7.66 
		},
		"coords": [
			{
				"x": -1.4990356657,
				"y": -0.2016051408,
				"z": 6.0886544921,
				"element": "C" 
			},
			{
				"x": -1.0068762294,
				"y": 0.0406381254,
				"z": 4.6816198619,
				"element": "C" 
			},
			{
				"x": -1.1099619678,
				"y": -0.9522849162,
				"z": 3.6979764423,
				"element": "C" 
			},
			{
				"x": -0.6861374879,
				"y": -0.7196618966,
				"z": 2.3927925166,
				"element": "C" 
			},
			{
				"x": -0.1440511555,
				"y": 0.5217454043,
				"z": 2.0220980531,
				"element": "C" 
			},
			{
				"x": -0.0274205302,
				"y": 1.5137165987,
				"z": 3.0064274148,
				"element": "C" 
			},
			{
				"x": -0.4529163428,
				"y": 1.2726264161,
				"z": 4.3108227767,
				"element": "C" 
			},
			{
				"x": 0.3464036608,
				"y": 0.7137036169,
				"z": 0.6412712285,
				"element": "C" 
			},
			{
				"x": 0.9391292871,
				"y": -0.3204822071,
				"z": 0.0332279428,
				"element": "N" 
			},
			{
				"x": 1.3053837553,
				"y": 0.1276686788,
				"z": -1.1939604904,
				"element": "N" 
			},
			{
				"x": 1.936980998,
				"y": -0.7942349055,
				"z": -2.1374083999,
				"element": "C" 
			},
			{
				"x": 0.9556856421,
				"y": -1.4656238749,
				"z": -3.0804471962,
				"element": "C" 
			},
			{
				"x": -0.093801284,
				"y": -2.245381853,
				"z": -2.5752469806,
				"element": "C" 
			},
			{
				"x": -0.9859272406,
				"y": -2.8709422462,
				"z": -3.4442173206,
				"element": "C" 
			},
			{
				"x": -0.8370239587,
				"y": -2.7303341367,
				"z": -4.8270771953,
				"element": "C" 
			},
			{
				"x": 0.2067641569,
				"y": -1.9582727749,
				"z": -5.3362322226,
				"element": "C" 
			},
			{
				"x": 1.0971755828,
				"y": -1.3266100278,
				"z": -4.4645474324,
				"element": "C" 
			},
			{
				"x": 0.9623386026,
				"y": 1.4119472127,
				"z": -1.3916487463,
				"element": "C" 
			},
			{
				"x": 0.3329624101,
				"y": 1.8521013514,
				"z": -0.2331461158,
				"element": "C" 
			},
			{
				"x": -0.2266537007,
				"y": 3.2060768827,
				"z": -0.1671887059,
				"element": "C" 
			},
			{
				"x": -0.9524827876,
				"y": 3.4638258013,
				"z": 0.9484014828,
				"element": "O" 
			},
			{
				"x": -0.0837177674,
				"y": 4.0423400343,
				"z": -1.042585403,
				"element": "O" 
			},
			{
				"x": -1.4092235035,
				"y": -1.2556539826,
				"z": 6.3689295879,
				"element": "H" 
			},
			{
				"x": -0.9383151803,
				"y": 0.3922015238,
				"z": 6.8170127589,
				"element": "H" 
			},
			{
				"x": -2.5567993834,
				"y": 0.0725014394,
				"z": 6.1920098632,
				"element": "H" 
			},
			{
				"x": -1.5290935024,
				"y": -1.9214548606,
				"z": 3.9582064445,
				"element": "H" 
			},
			{
				"x": -0.7677304811,
				"y": -1.5018681499,
				"z": 1.64551975,
				"element": "H" 
			},
			{
				"x": 0.4035888909,
				"y": 2.4745913343,
				"z": 2.7531024622,
				"element": "H" 
			},
			{
				"x": -0.3449021169,
				"y": 2.0555901437,
				"z": 5.0577467592,
				"element": "H" 
			},
			{
				"x": 2.6867164476,
				"y": -0.2347546411,
				"z": -2.7035875823,
				"element": "H" 
			},
			{
				"x": 2.4592739821,
				"y": -1.5307495204,
				"z": -1.5214031025,
				"element": "H" 
			},
			{
				"x": -0.2086594558,
				"y": -2.3494445627,
				"z": -1.5001469839,
				"element": "H" 
			},
			{
				"x": -1.7974397429,
				"y": -3.4714349525,
				"z": -3.0432307381,
				"element": "H" 
			},
			{
				"x": -1.5323148445,
				"y": -3.2203868471,
				"z": -5.502468276,
				"element": "H" 
			},
			{
				"x": 0.3277781533,
				"y": -1.8424408294,
				"z": -6.4094163292,
				"element": "H" 
			},
			{
				"x": 1.9083875352,
				"y": -0.723176329,
				"z": -4.865333076,
				"element": "H" 
			},
			{
				"x": 1.155119103,
				"y": 1.9411413945,
				"z": -2.3127299999,
				"element": "H" 
			},
			{
				"x": -1.271803879,
				"y": 4.3752826966,
				"z": 0.8406024593,
				"element": "H" 
			}
		],
		 "valence_orbital": [ 
			{
				"type": "occ",
				"energy": -0.25819,
				"method": "rhf"
			},
			{
				"type": "occ",
				"energy": -0.25473,
				"method": "rhf"
			},
			{
				"type": "occ",
				"energy": -0.25302,
				"method": "rhf"
			},
			{
				"type": "occ",
				"energy": -0.24148,
				"method": "rhf"
			},
			{
				"type": "occ",
				"energy": -0.21862,
				"method": "rhf"
			},
			{
				"type": "unocc",
				"energy": -0.02656,
				"method": "rhf"
			},
			{
				"type": "unocc",
				"energy": -0.01706,
				"method": "rhf"
			},
			{
				"type": "unocc",
				"energy": -0.00966,
				"method": "rhf"
			},
			{
				"type": "unocc",
				"energy": -0.00419,
				"method": "rhf"
			},
			{
				"type": "unocc",
				"energy": 0.00757,
				"method": "rhf"
			}
		],
		"cosmo_sigma_profile": { 
			"-0.025": 0.0,
			"-0.024": 0.0,
			"-0.023": 0.0,
			"-0.022": 0.0,
			"-0.021": 0.0,
			"-0.02": 0.0,
			"-0.019": 0.0,
			"-0.018": 0.383528076727,
			"-0.017": 1.07498743444,
			"-0.016": 0.953353280784,
			"-0.015": 0.309099910335,
			"-0.014": 0.642482390048,
			"-0.013": 1.0609540754,
			"-0.012": 0.624359174231,
			"-0.011": 0.621825187001,
			"-0.01": 2.53350303823,
			"-0.009": 2.55079079875,
			"-0.008": 4.02725271732,
			"-0.007": 7.01238977943,
			"-0.006": 12.2588920789,
			"-0.005": 19.9080575229,
			"-0.004": 30.7165407522,
			"-0.003": 28.6206688324,
			"-0.002": 24.5508113337,
			"-0.001": 25.094808782,
			"0.0": 26.3207427754,
			"0.001": 27.1698933857,
			"0.002": 26.467038052,
			"0.003": 18.8596030966,
			"0.004": 19.1765897247,
			"0.005": 22.2541300126,
			"0.006": 13.9701805259,
			"0.007": 5.18601862036,
			"0.008": 3.24231462976,
			"0.009": 3.5830163124,
			"0.01": 3.58606929067,
			"0.011": 2.73824439955,
			"0.012": 5.91270381753,
			"0.013": 2.04395757786,
			"0.014": 0.214467734146,
			"0.015": 0.0,
			"0.016": 0.0,
			"0.017": 0.0,
			"0.018": 0.0,
			"0.019": 0.0,
			"0.02": 0.0,
			"0.021": 0.0,
			"0.022": 0.0,
			"0.023": 0.0,
			"0.024": 0.0,
			"0.025": 0.0
		}
	}
}
