{
	 "smiles": "OC(=O)C1CCS(=O)(=O)CC1", 
	 "Tm": 458.15, 
	 "num_atms": 21, 
	 "gaussian": { 
		 "optdone": 1, 
		 "sigma_profile": "yes", 
		 "theory": "DFT", 
		 "functional": "B3LYP", 
		 "basiset": "6-31G**", 
		 "properties": { 
			 "R2extent": 2382.1416, 
			 "electric_dipole_moment_norm": 5.4538554473, 
			 "electric_quadrupole_moment_norm": 13.880414215, 
			 "total_energy": -933.712297912, 
			 "HOMO_LUMO_gap": 0.2602, 
			 "cosmo_polarized_energy": -19.68, 
			 "cosmo_cavitation_energy": 24.32, 
			 "cosmo_dispersion_energy": -18.66, 
			 "cosmo_repulsion_energy": 1.44, 
			 "cosmo_total_nonelectrostatic_energy": 7.11, 
			 "SMD_solvation_energy": 3.97 
		},
		"coords": [
			{
				"x": 2.5243444429,
				"y": -0.1479530919,
				"z": -1.3821429218,
				"element": "O" 
			},
			{
				"x": 1.2848862535,
				"y": 0.2936189056,
				"z": -1.0618287016,
				"element": "C" 
			},
			{
				"x": 1.1060755134,
				"y": 1.2461711978,
				"z": -0.3328384729,
				"element": "O" 
			},
			{
				"x": 0.1999647012,
				"y": -0.5374502653,
				"z": -1.7355877808,
				"element": "C" 
			},
			{
				"x": 0.3285098799,
				"y": -2.0405720997,
				"z": -1.3792310095,
				"element": "C" 
			},
			{
				"x": 0.0074694636,
				"y": -2.3501113381,
				"z": 0.0877975001,
				"element": "C" 
			},
			{
				"x": -1.698514404,
				"y": -1.8709538598,
				"z": 0.4929026401,
				"element": "S" 
			},
			{
				"x": -2.5914510521,
				"y": -2.5963006993,
				"z": -0.4307577088,
				"element": "O" 
			},
			{
				"x": -1.8903084257,
				"y": -1.9612795209,
				"z": 1.9482298541,
				"element": "O" 
			},
			{
				"x": -1.676890941,
				"y": -0.127979211,
				"z": -0.0054899409,
				"element": "C" 
			},
			{
				"x": -1.2056655608,
				"y": 0.0310802015,
				"z": -1.4576654951,
				"element": "C" 
			},
			{
				"x": 3.1510444155,
				"y": 0.4368141311,
				"z": -0.9231176253,
				"element": "H" 
			},
			{
				"x": 0.3968484732,
				"y": -0.452839295,
				"z": -2.8122257274,
				"element": "H" 
			},
			{
				"x": 1.3423767844,
				"y": -2.3843731479,
				"z": -1.6020909135,
				"element": "H" 
			},
			{
				"x": -0.3593004299,
				"y": -2.6082801952,
				"z": -2.0132041744,
				"element": "H" 
			},
			{
				"x": 0.0628308524,
				"y": -3.4213380077,
				"z": 0.3004729976,
				"element": "H" 
			},
			{
				"x": 0.6593213852,
				"y": -1.8230034596,
				"z": 0.7914827148,
				"element": "H" 
			},
			{
				"x": -1.0288101523,
				"y": 0.4017209348,
				"z": 0.6956222452,
				"element": "H" 
			},
			{
				"x": -2.7054369363,
				"y": 0.2190277584,
				"z": 0.1272745728,
				"element": "H" 
			},
			{
				"x": -1.9198206735,
				"y": -0.4704902063,
				"z": -2.1180126873,
				"element": "H" 
			},
			{
				"x": -1.2214735896,
				"y": 1.0974912687,
				"z": -1.7018893653,
				"element": "H" 
			}
		],
		 "valence_orbital": [ 
			{
				"type": "occ",
				"energy": -0.31894,
				"method": "rhf"
			},
			{
				"type": "occ",
				"energy": -0.30793,
				"method": "rhf"
			},
			{
				"type": "occ",
				"energy": -0.29477,
				"method": "rhf"
			},
			{
				"type": "occ",
				"energy": -0.29059,
				"method": "rhf"
			},
			{
				"type": "occ",
				"energy": -0.27679,
				"method": "rhf"
			},
			{
				"type": "unocc",
				"energy": -0.01659,
				"method": "rhf"
			},
			{
				"type": "unocc",
				"energy": 0.05263,
				"method": "rhf"
			},
			{
				"type": "unocc",
				"energy": 0.06675,
				"method": "rhf"
			},
			{
				"type": "unocc",
				"energy": 0.07537,
				"method": "rhf"
			},
			{
				"type": "unocc",
				"energy": 0.07981,
				"method": "rhf"
			}
		],
		"cosmo_sigma_profile": { 
			"-0.025": 0.0,
			"-0.024": 0.0,
			"-0.023": 0.0,
			"-0.022": 0.0,
			"-0.021": 0.0,
			"-0.02": 0.0,
			"-0.019": 0.0488285002656,
			"-0.018": 1.16426769885,
			"-0.017": 0.762509512956,
			"-0.016": 0.900681720467,
			"-0.015": 0.515914271312,
			"-0.014": 0.520485353828,
			"-0.013": 0.526465247785,
			"-0.012": 1.01653398239,
			"-0.011": 1.30546902008,
			"-0.01": 1.08726477145,
			"-0.009": 2.83158985202,
			"-0.008": 8.27411324125,
			"-0.007": 10.3485931977,
			"-0.006": 12.4562478161,
			"-0.005": 19.1860914589,
			"-0.004": 19.9303806185,
			"-0.003": 13.0856994956,
			"-0.002": 10.8848612919,
			"-0.001": 5.3395524069,
			"0.0": 4.40256736191,
			"0.001": 5.3517367296,
			"0.002": 5.22365444406,
			"0.003": 4.3542365727,
			"0.004": 4.79085552069,
			"0.005": 4.65722477523,
			"0.006": 3.77810547043,
			"0.007": 4.75821112668,
			"0.008": 4.12116584903,
			"0.009": 5.21640818731,
			"0.01": 5.78730504655,
			"0.011": 11.9915560528,
			"0.012": 12.2068771105,
			"0.013": 3.38965488537,
			"0.014": 0.0,
			"0.015": 0.0,
			"0.016": 0.0,
			"0.017": 0.0,
			"0.018": 0.0,
			"0.019": 0.0,
			"0.02": 0.0,
			"0.021": 0.0,
			"0.022": 0.0,
			"0.023": 0.0,
			"0.024": 0.0,
			"0.025": 0.0
		}
	}
}
