{
	 "smiles": "[O-][N+](=O)C1=C(Cl)C=C(C=C1)S(Cl)(=O)=O", 
	 "Tm": 311.15, 
	 "num_atms": 17, 
	 "gaussian": { 
		 "optdone": 1, 
		 "sigma_profile": "yes", 
		 "theory": "DFT", 
		 "functional": "B3LYP", 
		 "basiset": "6-31G**", 
		 "properties": { 
			 "R2extent": 4532.0935, 
			 "electric_dipole_moment_norm": 0.853334149088, 
			 "electric_quadrupole_moment_norm": 18.677116763, 
			 "total_energy": -1904.47311507, 
			 "HOMO_LUMO_gap": 0.17485, 
			 "cosmo_polarized_energy": -12.05, 
			 "cosmo_cavitation_energy": 28.3, 
			 "cosmo_dispersion_energy": -21.13, 
			 "cosmo_repulsion_energy": 1.63, 
			 "cosmo_total_nonelectrostatic_energy": 8.79, 
			 "SMD_solvation_energy": 5.6 
		},
		"coords": [
			{
				"x": 3.6286954829,
				"y": -0.0658583752,
				"z": 1.273670757,
				"element": "O" 
			},
			{
				"x": 2.5949816996,
				"y": -0.6404784812,
				"z": 1.5902530603,
				"element": "N" 
			},
			{
				"x": 2.4254126676,
				"y": -1.3126702839,
				"z": 2.6051356258,
				"element": "O" 
			},
			{
				"x": 1.4233682237,
				"y": -0.4876606805,
				"z": 0.7028271068,
				"element": "C" 
			},
			{
				"x": 1.5344943825,
				"y": -0.4257512999,
				"z": -0.6953297132,
				"element": "C" 
			},
			{
				"x": 3.0326872239,
				"y": -0.6151560291,
				"z": -1.5503392952,
				"element": "Cl" 
			},
			{
				"x": 0.3709000244,
				"y": -0.2591305075,
				"z": -1.4519637316,
				"element": "C" 
			},
			{
				"x": -0.8511844832,
				"y": -0.1441986006,
				"z": -0.7979113932,
				"element": "C" 
			},
			{
				"x": -0.9751428935,
				"y": -0.2176913188,
				"z": 0.5890001149,
				"element": "C" 
			},
			{
				"x": 0.1816458106,
				"y": -0.4034911525,
				"z": 1.3356140522,
				"element": "C" 
			},
			{
				"x": -2.3330658399,
				"y": 0.0631589426,
				"z": -1.7922372862,
				"element": "S" 
			},
			{
				"x": -2.4567330971,
				"y": 2.1788453869,
				"z": -1.878152897,
				"element": "Cl" 
			},
			{
				"x": -2.0615109916,
				"y": -0.3955460596,
				"z": -3.1471083625,
				"element": "O" 
			},
			{
				"x": -3.4807273267,
				"y": -0.3911653674,
				"z": -1.0199969415,
				"element": "O" 
			},
			{
				"x": 0.4257889938,
				"y": -0.2322842222,
				"z": -2.5337057048,
				"element": "H" 
			},
			{
				"x": -1.9463681268,
				"y": -0.1460852038,
				"z": 1.0639064558,
				"element": "H" 
			},
			{
				"x": 0.1468582499,
				"y": -0.4897367473,
				"z": 2.4148381526,
				"element": "H" 
			}
		],
		 "valence_orbital": [ 
			{
				"type": "occ",
				"energy": -0.33531,
				"method": "rhf"
			},
			{
				"type": "occ",
				"energy": -0.33336,
				"method": "rhf"
			},
			{
				"type": "occ",
				"energy": -0.326,
				"method": "rhf"
			},
			{
				"type": "occ",
				"energy": -0.30959,
				"method": "rhf"
			},
			{
				"type": "occ",
				"energy": -0.3012,
				"method": "rhf"
			},
			{
				"type": "unocc",
				"energy": -0.12635,
				"method": "rhf"
			},
			{
				"type": "unocc",
				"energy": -0.09715,
				"method": "rhf"
			},
			{
				"type": "unocc",
				"energy": -0.07172,
				"method": "rhf"
			},
			{
				"type": "unocc",
				"energy": -0.05529,
				"method": "rhf"
			},
			{
				"type": "unocc",
				"energy": -0.01508,
				"method": "rhf"
			}
		],
		"cosmo_sigma_profile": { 
			"-0.025": 0.0,
			"-0.024": 0.0,
			"-0.023": 0.0,
			"-0.022": 0.0,
			"-0.021": 0.0,
			"-0.02": 0.0,
			"-0.019": 0.0,
			"-0.018": 0.0,
			"-0.017": 0.0,
			"-0.016": 0.0,
			"-0.015": 0.0,
			"-0.014": 0.0,
			"-0.013": 0.0,
			"-0.012": 0.0,
			"-0.011": 0.289778115561,
			"-0.01": 3.92772033436,
			"-0.009": 7.2477010237,
			"-0.008": 7.50759549259,
			"-0.007": 6.42107595269,
			"-0.006": 8.3781306411,
			"-0.005": 9.59553020739,
			"-0.004": 16.9658607489,
			"-0.003": 20.0550822589,
			"-0.002": 16.8851561587,
			"-0.001": 13.075971807,
			"0.0": 12.2431875768,
			"0.001": 14.2850138241,
			"0.002": 22.2770802396,
			"0.003": 15.6479620007,
			"0.004": 7.26091181018,
			"0.005": 7.74842714277,
			"0.006": 12.0569093744,
			"0.007": 18.5412099062,
			"0.008": 10.9543290811,
			"0.009": 2.18915352629,
			"0.01": 0.0,
			"0.011": 0.0,
			"0.012": 0.0,
			"0.013": 0.0,
			"0.014": 0.0,
			"0.015": 0.0,
			"0.016": 0.0,
			"0.017": 0.0,
			"0.018": 0.0,
			"0.019": 0.0,
			"0.02": 0.0,
			"0.021": 0.0,
			"0.022": 0.0,
			"0.023": 0.0,
			"0.024": 0.0,
			"0.025": 0.0
		}
	}
}
