{
	 "smiles": "CC(C)(C)OC(=O)NC(CC1=CNC2=C1C=CC=C2)C(O)=O", 
	 "Tm": 409.15, 
	 "num_atms": 42, 
	 "gaussian": { 
		 "optdone": 1, 
		 "sigma_profile": "yes", 
		 "theory": "DFT", 
		 "functional": "B3LYP", 
		 "basiset": "6-31G**", 
		 "properties": { 
			 "R2extent": 8375.8101, 
			 "electric_dipole_moment_norm": 1.58877654817, 
			 "electric_quadrupole_moment_norm": 31.4970869713, 
			 "total_energy": -1032.21600318, 
			 "HOMO_LUMO_gap": 0.19114, 
			 "cosmo_polarized_energy": -19.82, 
			 "cosmo_cavitation_energy": 44.63, 
			 "cosmo_dispersion_energy": -29.56, 
			 "cosmo_repulsion_energy": 2.28, 
			 "cosmo_total_nonelectrostatic_energy": 17.35, 
			 "SMD_solvation_energy": 9.4 
		},
		"coords": [
			{
				"x": -4.0562719933,
				"y": -0.4802896472,
				"z": -3.2250467099,
				"element": "C" 
			},
			{
				"x": -3.5181229661,
				"y": 0.6983201196,
				"z": -2.4111222555,
				"element": "C" 
			},
			{
				"x": -3.123513851,
				"y": 1.8613876345,
				"z": -3.3260590104,
				"element": "C" 
			},
			{
				"x": -4.5173315624,
				"y": 1.1185520665,
				"z": -1.3292958694,
				"element": "C" 
			},
			{
				"x": -2.3108064671,
				"y": 0.1240095458,
				"z": -1.7793465158,
				"element": "O" 
			},
			{
				"x": -1.5339434453,
				"y": 0.8641184529,
				"z": -0.9659130556,
				"element": "C" 
			},
			{
				"x": -1.7062712002,
				"y": 2.0277281278,
				"z": -0.653561895,
				"element": "O" 
			},
			{
				"x": -0.4834497369,
				"y": 0.1076626432,
				"z": -0.4532499435,
				"element": "N" 
			},
			{
				"x": 0.0631558935,
				"y": -1.0931980256,
				"z": -1.0947253316,
				"element": "C" 
			},
			{
				"x": 1.4310659115,
				"y": -0.8500065891,
				"z": -1.7736941322,
				"element": "C" 
			},
			{
				"x": 2.4958583498,
				"y": -0.3488734436,
				"z": -0.8375403808,
				"element": "C" 
			},
			{
				"x": 3.3483768842,
				"y": -1.1285531069,
				"z": -0.0916409881,
				"element": "C" 
			},
			{
				"x": 4.1738205614,
				"y": -0.3277011568,
				"z": 0.6709267387,
				"element": "N" 
			},
			{
				"x": 3.8707502326,
				"y": 0.997850778,
				"z": 0.4376912851,
				"element": "C" 
			},
			{
				"x": 2.8096949923,
				"y": 1.0245680521,
				"z": -0.5119612973,
				"element": "C" 
			},
			{
				"x": 2.3078604782,
				"y": 2.2735015445,
				"z": -0.9273918849,
				"element": "C" 
			},
			{
				"x": 2.8599749496,
				"y": 3.4338428676,
				"z": -0.3990958099,
				"element": "C" 
			},
			{
				"x": 3.9108779716,
				"y": 3.3800185422,
				"z": 0.5393009138,
				"element": "C" 
			},
			{
				"x": 4.4302462484,
				"y": 2.1643216515,
				"z": 0.9693446728,
				"element": "C" 
			},
			{
				"x": 0.15831482,
				"y": -2.2629308407,
				"z": -0.0923724228,
				"element": "C" 
			},
			{
				"x": -0.5535236959,
				"y": -2.1081531401,
				"z": 1.0357395074,
				"element": "O" 
			},
			{
				"x": 0.7981041555,
				"y": -3.2637455582,
				"z": -0.320399051,
				"element": "O" 
			},
			{
				"x": -3.3226046254,
				"y": -0.8062367683,
				"z": -3.9681773312,
				"element": "H" 
			},
			{
				"x": -4.2887077622,
				"y": -1.3273646283,
				"z": -2.5733482098,
				"element": "H" 
			},
			{
				"x": -4.9702383634,
				"y": -0.1857247012,
				"z": -3.7489071235,
				"element": "H" 
			},
			{
				"x": -2.7211154721,
				"y": 2.6951397386,
				"z": -2.7503969335,
				"element": "H" 
			},
			{
				"x": -4.0041312147,
				"y": 2.2058738586,
				"z": -3.877508926,
				"element": "H" 
			},
			{
				"x": -2.3744616817,
				"y": 1.5358567019,
				"z": -4.0549414338,
				"element": "H" 
			},
			{
				"x": -5.4519006514,
				"y": 1.4383251987,
				"z": -1.8011159516,
				"element": "H" 
			},
			{
				"x": -4.1253924274,
				"y": 1.9419271101,
				"z": -0.7318146062,
				"element": "H" 
			},
			{
				"x": -4.7426553209,
				"y": 0.2743238522,
				"z": -0.6700856557,
				"element": "H" 
			},
			{
				"x": 0.2034933454,
				"y": 0.7081954684,
				"z": -0.006678016,
				"element": "H" 
			},
			{
				"x": -0.658909995,
				"y": -1.4093984279,
				"z": -1.8522396245,
				"element": "H" 
			},
			{
				"x": 1.7367625414,
				"y": -1.8020064779,
				"z": -2.21510014,
				"element": "H" 
			},
			{
				"x": 1.2823036096,
				"y": -0.1411774777,
				"z": -2.5959804281,
				"element": "H" 
			},
			{
				"x": 3.4163522475,
				"y": -2.205969393,
				"z": -0.044231236,
				"element": "H" 
			},
			{
				"x": 4.8856526886,
				"y": -0.6625320983,
				"z": 1.2994586362,
				"element": "H" 
			},
			{
				"x": 1.4953980049,
				"y": 2.3350918891,
				"z": -1.6463343232,
				"element": "H" 
			},
			{
				"x": 2.4753744904,
				"y": 4.4000471664,
				"z": -0.711379742,
				"element": "H" 
			},
			{
				"x": 4.3212623785,
				"y": 4.3045880104,
				"z": 0.9343028166,
				"element": "H" 
			},
			{
				"x": 5.2396246496,
				"y": 2.1229927639,
				"z": 1.6929642511,
				"element": "H" 
			},
			{
				"x": -0.943972972,
				"y": -1.2129823039,
				"z": 0.9963274135,
				"element": "H" 
			}
		],
		 "valence_orbital": [ 
			{
				"type": "occ",
				"energy": -0.28063,
				"method": "rhf"
			},
			{
				"type": "occ",
				"energy": -0.27625,
				"method": "rhf"
			},
			{
				"type": "occ",
				"energy": -0.25294,
				"method": "rhf"
			},
			{
				"type": "occ",
				"energy": -0.22435,
				"method": "rhf"
			},
			{
				"type": "occ",
				"energy": -0.20448,
				"method": "rhf"
			},
			{
				"type": "unocc",
				"energy": -0.01334,
				"method": "rhf"
			},
			{
				"type": "unocc",
				"energy": 0.01203,
				"method": "rhf"
			},
			{
				"type": "unocc",
				"energy": 0.02215,
				"method": "rhf"
			},
			{
				"type": "unocc",
				"energy": 0.03301,
				"method": "rhf"
			},
			{
				"type": "unocc",
				"energy": 0.05399,
				"method": "rhf"
			}
		],
		"cosmo_sigma_profile": { 
			"-0.025": 0.0,
			"-0.024": 0.0,
			"-0.023": 0.0,
			"-0.022": 0.0,
			"-0.021": 0.0,
			"-0.02": 0.0,
			"-0.019": 0.0,
			"-0.018": 0.0,
			"-0.017": 0.0,
			"-0.016": 0.318057233665,
			"-0.015": 1.94301611589,
			"-0.014": 1.17692754877,
			"-0.013": 2.1829346772,
			"-0.012": 2.1263518794,
			"-0.011": 2.05132563486,
			"-0.01": 3.75219461133,
			"-0.009": 3.64591988238,
			"-0.008": 4.22523385629,
			"-0.007": 6.25640506127,
			"-0.006": 8.63104668087,
			"-0.005": 17.9654789006,
			"-0.004": 28.8293118877,
			"-0.003": 33.4420698617,
			"-0.002": 30.3815475412,
			"-0.001": 29.3096584673,
			"0.0": 34.5148852387,
			"0.001": 25.2505801318,
			"0.002": 14.8689676171,
			"0.003": 14.7719302568,
			"0.004": 16.8942682354,
			"0.005": 15.3579991901,
			"0.006": 13.3149738467,
			"0.007": 8.56631406677,
			"0.008": 4.82411342952,
			"0.009": 4.73927145196,
			"0.01": 5.49863228028,
			"0.011": 5.57278483805,
			"0.012": 6.92413472535,
			"0.013": 4.08690531838,
			"0.014": 0.284581019645,
			"0.015": 0.0,
			"0.016": 0.0,
			"0.017": 0.0,
			"0.018": 0.0,
			"0.019": 0.0,
			"0.02": 0.0,
			"0.021": 0.0,
			"0.022": 0.0,
			"0.023": 0.0,
			"0.024": 0.0,
			"0.025": 0.0
		}
	}
}
