{
	 "smiles": "FC1=CC=C(C=C1)C(NC(=O)CCl)C1=CC=CS1", 
	 "Tm": 398.15, 
	 "num_atms": 29, 
	 "gaussian": { 
		 "optdone": 1, 
		 "sigma_profile": "yes", 
		 "theory": "DFT", 
		 "functional": "B3LYP", 
		 "basiset": "6-31G**", 
		 "properties": { 
			 "R2extent": 6720.5392, 
			 "electric_dipole_moment_norm": 1.68560805943, 
			 "electric_quadrupole_moment_norm": 10.0099573765, 
			 "total_energy": -1590.20295961, 
			 "HOMO_LUMO_gap": 0.21146, 
			 "cosmo_polarized_energy": -12.29, 
			 "cosmo_cavitation_energy": 37.58, 
			 "cosmo_dispersion_energy": -25.83, 
			 "cosmo_repulsion_energy": 1.97, 
			 "cosmo_total_nonelectrostatic_energy": 13.72, 
			 "SMD_solvation_energy": 7.22 
		},
		"coords": [
			{
				"x": 4.3804662887,
				"y": 3.4624074517,
				"z": 1.4402358886,
				"element": "F" 
			},
			{
				"x": 3.3652206166,
				"y": 2.6771858402,
				"z": 1.0246393663,
				"element": "C" 
			},
			{
				"x": 3.6566621563,
				"y": 1.4868928578,
				"z": 0.3670666016,
				"element": "C" 
			},
			{
				"x": 2.6029531754,
				"y": 0.6853542932,
				"z": -0.0660430612,
				"element": "C" 
			},
			{
				"x": 1.2685475609,
				"y": 1.0594071946,
				"z": 0.1536662757,
				"element": "C" 
			},
			{
				"x": 1.0135309207,
				"y": 2.258725287,
				"z": 0.8292567679,
				"element": "C" 
			},
			{
				"x": 2.0575041599,
				"y": 3.0772269252,
				"z": 1.2640793407,
				"element": "C" 
			},
			{
				"x": 0.1378010107,
				"y": 0.1210541354,
				"z": -0.2754173218,
				"element": "C" 
			},
			{
				"x": -1.166797716,
				"y": 0.7880581668,
				"z": -0.2444393385,
				"element": "N" 
			},
			{
				"x": -2.2369499866,
				"y": 0.2142321266,
				"z": 0.3594229232,
				"element": "C" 
			},
			{
				"x": -2.201343714,
				"y": -0.8251792648,
				"z": 1.0068499788,
				"element": "O" 
			},
			{
				"x": -3.5929387961,
				"y": 0.9135655558,
				"z": 0.2396104007,
				"element": "C" 
			},
			{
				"x": -3.6256232096,
				"y": 2.4923121666,
				"z": -0.6570926915,
				"element": "Cl" 
			},
			{
				"x": 0.3602092067,
				"y": -0.5645951646,
				"z": -1.6059142485,
				"element": "C" 
			},
			{
				"x": 0.1795280823,
				"y": -1.8940775199,
				"z": -1.8855182567,
				"element": "C" 
			},
			{
				"x": 0.3717012733,
				"y": -2.2166087448,
				"z": -3.2638591502,
				"element": "C" 
			},
			{
				"x": 0.6890628176,
				"y": -1.1236228931,
				"z": -4.0204489183,
				"element": "C" 
			},
			{
				"x": 0.7746227717,
				"y": 0.3189150005,
				"z": -3.0596183754,
				"element": "S" 
			},
			{
				"x": 4.6905015242,
				"y": 1.2051046134,
				"z": 0.1994777851,
				"element": "H" 
			},
			{
				"x": 2.8210699592,
				"y": -0.2437614538,
				"z": -0.5831540083,
				"element": "H" 
			},
			{
				"x": -0.0098649381,
				"y": 2.5588736472,
				"z": 1.0260704909,
				"element": "H" 
			},
			{
				"x": 1.86744735,
				"y": 4.0105468936,
				"z": 1.782883544,
				"element": "H" 
			},
			{
				"x": 0.0448320746,
				"y": -0.6789247822,
				"z": 0.468035304,
				"element": "H" 
			},
			{
				"x": -1.3216838877,
				"y": 1.5902044562,
				"z": -0.8412489392,
				"element": "H" 
			},
			{
				"x": -4.2819164212,
				"y": 0.2401956779,
				"z": -0.2711596544,
				"element": "H" 
			},
			{
				"x": -3.9673907798,
				"y": 1.1044804203,
				"z": 1.2452070225,
				"element": "H" 
			},
			{
				"x": -0.0973644895,
				"y": -2.6161606221,
				"z": -1.1249630468,
				"element": "H" 
			},
			{
				"x": 0.2793944202,
				"y": -3.2176932581,
				"z": -3.6693728326,
				"element": "H" 
			},
			{
				"x": 0.8962185697,
				"y": -1.0767190065,
				"z": -5.0806518467,
				"element": "H" 
			}
		],
		 "valence_orbital": [ 
			{
				"type": "occ",
				"energy": -0.26823,
				"method": "rhf"
			},
			{
				"type": "occ",
				"energy": -0.26581,
				"method": "rhf"
			},
			{
				"type": "occ",
				"energy": -0.25671,
				"method": "rhf"
			},
			{
				"type": "occ",
				"energy": -0.24488,
				"method": "rhf"
			},
			{
				"type": "occ",
				"energy": -0.23523,
				"method": "rhf"
			},
			{
				"type": "unocc",
				"energy": -0.02377,
				"method": "rhf"
			},
			{
				"type": "unocc",
				"energy": -0.01616,
				"method": "rhf"
			},
			{
				"type": "unocc",
				"energy": -0.008,
				"method": "rhf"
			},
			{
				"type": "unocc",
				"energy": 0.00927,
				"method": "rhf"
			},
			{
				"type": "unocc",
				"energy": 0.01327,
				"method": "rhf"
			}
		],
		"cosmo_sigma_profile": { 
			"-0.025": 0.0,
			"-0.024": 0.0,
			"-0.023": 0.0,
			"-0.022": 0.0,
			"-0.021": 0.0,
			"-0.02": 0.0,
			"-0.019": 0.0,
			"-0.018": 0.0,
			"-0.017": 0.0,
			"-0.016": 0.0,
			"-0.015": 0.0,
			"-0.014": 0.0,
			"-0.013": 0.0,
			"-0.012": 0.0373058389831,
			"-0.011": 0.945872296904,
			"-0.01": 1.26489949608,
			"-0.009": 5.1042472548,
			"-0.008": 7.75494675496,
			"-0.007": 11.2897231732,
			"-0.006": 17.1634715056,
			"-0.005": 19.5375238805,
			"-0.004": 20.3392110564,
			"-0.003": 16.8662268033,
			"-0.002": 17.1907866568,
			"-0.001": 17.0038194582,
			"0.0": 18.6834632447,
			"0.001": 24.2156076035,
			"0.002": 25.5794094303,
			"0.003": 27.9475410821,
			"0.004": 35.1302389482,
			"0.005": 18.8821841164,
			"0.006": 6.09175773129,
			"0.007": 1.22770506099,
			"0.008": 0.708243769386,
			"0.009": 1.20914493183,
			"0.01": 1.14433142034,
			"0.011": 1.92820099546,
			"0.012": 2.99770194809,
			"0.013": 4.33211758602,
			"0.014": 0.710571308678,
			"0.015": 0.0,
			"0.016": 0.0,
			"0.017": 0.0,
			"0.018": 0.0,
			"0.019": 0.0,
			"0.02": 0.0,
			"0.021": 0.0,
			"0.022": 0.0,
			"0.023": 0.0,
			"0.024": 0.0,
			"0.025": 0.0
		}
	}
}
