{
	 "smiles": "COC1=CC=C(C=C1)C1=CSC(=N1)C(=C/C1=CC=CN=C1)C#N", 
	 "Tm": 508.15, 
	 "num_atms": 36, 
	 "gaussian": { 
		 "optdone": 1, 
		 "sigma_profile": "yes", 
		 "theory": "DFT", 
		 "functional": "B3LYP", 
		 "basiset": "6-31G**", 
		 "properties": { 
			 "R2extent": 10975.6744, 
			 "electric_dipole_moment_norm": 6.01155884858, 
			 "electric_quadrupole_moment_norm": 17.6084474804, 
			 "total_energy": -1331.36270775, 
			 "HOMO_LUMO_gap": 0.11709, 
			 "cosmo_polarized_energy": -15.24, 
			 "cosmo_cavitation_energy": 44.14, 
			 "cosmo_dispersion_energy": -30.76, 
			 "cosmo_repulsion_energy": 2.24, 
			 "cosmo_total_nonelectrostatic_energy": 15.63, 
			 "SMD_solvation_energy": 7.28 
		},
		"coords": [
			{
				"x": 1.0275101056,
				"y": -4.7644168246,
				"z": 2.1880853772,
				"element": "C" 
			},
			{
				"x": -0.1647382154,
				"y": -4.0179372804,
				"z": 2.3804050859,
				"element": "O" 
			},
			{
				"x": -0.33677616,
				"y": -2.8761326034,
				"z": 1.6580489034,
				"element": "C" 
			},
			{
				"x": 0.5805903792,
				"y": -2.3717585082,
				"z": 0.7280458499,
				"element": "C" 
			},
			{
				"x": 0.2947079828,
				"y": -1.188523376,
				"z": 0.0461215152,
				"element": "C" 
			},
			{
				"x": -0.8963248118,
				"y": -0.4851589767,
				"z": 0.2681315113,
				"element": "C" 
			},
			{
				"x": -1.8029937918,
				"y": -1.0040670877,
				"z": 1.2116962245,
				"element": "C" 
			},
			{
				"x": -1.5327772033,
				"y": -2.179379944,
				"z": 1.8948705633,
				"element": "C" 
			},
			{
				"x": -1.1855533974,
				"y": 0.7522899575,
				"z": -0.4778960565,
				"element": "C" 
			},
			{
				"x": -2.4325549343,
				"y": 1.2924514251,
				"z": -0.7059313152,
				"element": "C" 
			},
			{
				"x": -2.3234323053,
				"y": 2.732517193,
				"z": -1.641352746,
				"element": "S" 
			},
			{
				"x": -0.5663425575,
				"y": 2.532831059,
				"z": -1.6801032868,
				"element": "C" 
			},
			{
				"x": -0.1533554938,
				"y": 1.4695390372,
				"z": -1.0415805162,
				"element": "N" 
			},
			{
				"x": 0.2569777061,
				"y": 3.5160206989,
				"z": -2.3928958846,
				"element": "C" 
			},
			{
				"x": 1.6158552293,
				"y": 3.7014483993,
				"z": -2.4400692056,
				"element": "C" 
			},
			{
				"x": 2.7809727717,
				"y": 3.1017167922,
				"z": -1.8090101981,
				"element": "C" 
			},
			{
				"x": 2.8139580327,
				"y": 2.0639334194,
				"z": -0.8560996122,
				"element": "C" 
			},
			{
				"x": 4.0435393067,
				"y": 1.6583388679,
				"z": -0.3488083079,
				"element": "C" 
			},
			{
				"x": 5.2086565009,
				"y": 2.2791316368,
				"z": -0.8017644103,
				"element": "C" 
			},
			{
				"x": 5.2106884576,
				"y": 3.2666682301,
				"z": -1.7089513372,
				"element": "N" 
			},
			{
				"x": 4.0299060262,
				"y": 3.6551409856,
				"z": -2.1826249114,
				"element": "C" 
			},
			{
				"x": -0.498984555,
				"y": 4.4521635886,
				"z": -3.1859888821,
				"element": "C" 
			},
			{
				"x": -1.1103243631,
				"y": 5.2119847541,
				"z": -3.821562674,
				"element": "N" 
			},
			{
				"x": 1.1201552037,
				"y": -5.1192824482,
				"z": 1.1537461758,
				"element": "H" 
			},
			{
				"x": 0.9559331362,
				"y": -5.623217651,
				"z": 2.8569318204,
				"element": "H" 
			},
			{
				"x": 1.9181538979,
				"y": -4.1780267999,
				"z": 2.4477463265,
				"element": "H" 
			},
			{
				"x": 1.5096052415,
				"y": -2.8902312347,
				"z": 0.5228273437,
				"element": "H" 
			},
			{
				"x": 1.0019917646,
				"y": -0.8095015026,
				"z": -0.6838930636,
				"element": "H" 
			},
			{
				"x": -2.7224152657,
				"y": -0.4687192526,
				"z": 1.4299391421,
				"element": "H" 
			},
			{
				"x": -2.2268342513,
				"y": -2.5769184822,
				"z": 2.6279120292,
				"element": "H" 
			},
			{
				"x": -3.3939948372,
				"y": 0.9021280051,
				"z": -0.4059572142,
				"element": "H" 
			},
			{
				"x": 1.8970823951,
				"y": 4.5190451845,
				"z": -3.1010798525,
				"element": "H" 
			},
			{
				"x": 1.8897410395,
				"y": 1.5950803647,
				"z": -0.5441370043,
				"element": "H" 
			},
			{
				"x": 4.1000603971,
				"y": 0.8643312074,
				"z": 0.3893912002,
				"element": "H" 
			},
			{
				"x": 6.1826858268,
				"y": 1.9733898888,
				"z": -0.4241487093,
				"element": "H" 
			},
			{
				"x": 4.0544307416,
				"y": 4.4648212765,
				"z": -2.9124438806,
				"element": "H" 
			}
		],
		 "valence_orbital": [ 
			{
				"type": "occ",
				"energy": -0.28175,
				"method": "rhf"
			},
			{
				"type": "occ",
				"energy": -0.26463,
				"method": "rhf"
			},
			{
				"type": "occ",
				"energy": -0.26274,
				"method": "rhf"
			},
			{
				"type": "occ",
				"energy": -0.24283,
				"method": "rhf"
			},
			{
				"type": "occ",
				"energy": -0.21313,
				"method": "rhf"
			},
			{
				"type": "unocc",
				"energy": -0.09604,
				"method": "rhf"
			},
			{
				"type": "unocc",
				"energy": -0.03841,
				"method": "rhf"
			},
			{
				"type": "unocc",
				"energy": -0.03054,
				"method": "rhf"
			},
			{
				"type": "unocc",
				"energy": -0.0154,
				"method": "rhf"
			},
			{
				"type": "unocc",
				"energy": -0.00866,
				"method": "rhf"
			}
		],
		"cosmo_sigma_profile": { 
			"-0.025": 0.0,
			"-0.024": 0.0,
			"-0.023": 0.0,
			"-0.022": 0.0,
			"-0.021": 0.0,
			"-0.02": 0.0,
			"-0.019": 0.0,
			"-0.018": 0.0,
			"-0.017": 0.0,
			"-0.016": 0.0,
			"-0.015": 0.0,
			"-0.014": 0.0,
			"-0.013": 0.0,
			"-0.012": 0.0,
			"-0.011": 0.0,
			"-0.01": 1.85626949966,
			"-0.009": 4.83731516234,
			"-0.008": 6.23627770144,
			"-0.007": 10.6171740915,
			"-0.006": 17.6044357909,
			"-0.005": 23.6604862945,
			"-0.004": 23.085371884,
			"-0.003": 25.1860596562,
			"-0.002": 26.6691185102,
			"-0.001": 26.6047949438,
			"0.0": 34.8771147581,
			"0.001": 36.6737656885,
			"0.002": 31.1234686628,
			"0.003": 20.043893307,
			"0.004": 17.1917493787,
			"0.005": 15.2692770325,
			"0.006": 5.54830822215,
			"0.007": 5.10703713272,
			"0.008": 5.7294194758,
			"0.009": 4.46341854294,
			"0.01": 6.11909251848,
			"0.011": 3.52057547836,
			"0.012": 3.19327901422,
			"0.013": 1.84695392738,
			"0.014": 0.492307257809,
			"0.015": 0.99599250144,
			"0.016": 0.462834919559,
			"0.017": 0.0,
			"0.018": 0.0,
			"0.019": 0.0,
			"0.02": 0.0,
			"0.021": 0.0,
			"0.022": 0.0,
			"0.023": 0.0,
			"0.024": 0.0,
			"0.025": 0.0
		}
	}
}
