{
	 "smiles": "CCCCCCCCCCNC(=O)C(C(F)(F)F)C(F)(F)F", 
	 "Tm": 339.15, 
	 "num_atms": 45, 
	 "gaussian": { 
		 "optdone": 1, 
		 "sigma_profile": "yes", 
		 "theory": "DFT", 
		 "functional": "B3LYP", 
		 "basiset": "6-31G**", 
		 "properties": { 
			 "R2extent": 13288.0789, 
			 "electric_dipole_moment_norm": 4.25459429441, 
			 "electric_quadrupole_moment_norm": 21.8345317403, 
			 "total_energy": -1276.41461538, 
			 "HOMO_LUMO_gap": 0.26565, 
			 "cosmo_polarized_energy": -12.57, 
			 "cosmo_cavitation_energy": 48.21, 
			 "cosmo_dispersion_energy": -30.56, 
			 "cosmo_repulsion_energy": 2.3, 
			 "cosmo_total_nonelectrostatic_energy": 19.95, 
			 "SMD_solvation_energy": 8.99 
		},
		"coords": [
			{
				"x": -1.4801564198,
				"y": 0.8355006396,
				"z": -4.2619306228,
				"element": "C" 
			},
			{
				"x": -2.8260820132,
				"y": 1.1159391536,
				"z": -3.5825836678,
				"element": "C" 
			},
			{
				"x": -3.4759767761,
				"y": -0.1270173486,
				"z": -2.9442451339,
				"element": "C" 
			},
			{
				"x": -2.7745406991,
				"y": -0.7101188908,
				"z": -1.6955702824,
				"element": "C" 
			},
			{
				"x": -3.2790110689,
				"y": -0.1793067996,
				"z": -0.3392090413,
				"element": "C" 
			},
			{
				"x": -3.0402433885,
				"y": 1.3093841679,
				"z": -0.0297217382,
				"element": "C" 
			},
			{
				"x": -1.5805192952,
				"y": 1.7990533552,
				"z": 0.0443744219,
				"element": "C" 
			},
			{
				"x": -0.7281570382,
				"y": 1.2246054434,
				"z": 1.1975235045,
				"element": "C" 
			},
			{
				"x": 0.0202437456,
				"y": -0.0782293734,
				"z": 0.8781914241,
				"element": "C" 
			},
			{
				"x": 0.8649463768,
				"y": -0.5621410004,
				"z": 2.0647344509,
				"element": "C" 
			},
			{
				"x": 1.6031649066,
				"y": -1.7939267951,
				"z": 1.7905974312,
				"element": "N" 
			},
			{
				"x": 1.0279200343,
				"y": -3.0144912722,
				"z": 1.974001512,
				"element": "C" 
			},
			{
				"x": -0.0631468224,
				"y": -3.1890220067,
				"z": 2.4894888778,
				"element": "O" 
			},
			{
				"x": 1.9087260041,
				"y": -4.2021970281,
				"z": 1.4971256363,
				"element": "C" 
			},
			{
				"x": 1.895088672,
				"y": -4.2957562479,
				"z": -0.0311522961,
				"element": "C" 
			},
			{
				"x": 2.5332667502,
				"y": -5.3849823106,
				"z": -0.4861898668,
				"element": "F" 
			},
			{
				"x": 2.5349920628,
				"y": -3.2139261482,
				"z": -0.5542805357,
				"element": "F" 
			},
			{
				"x": 0.6487057134,
				"y": -4.3037276647,
				"z": -0.5248224902,
				"element": "F" 
			},
			{
				"x": 1.4874280477,
				"y": -5.5126248345,
				"z": 2.171253373,
				"element": "C" 
			},
			{
				"x": 1.4483098816,
				"y": -5.3574928905,
				"z": 3.5050547548,
				"element": "F" 
			},
			{
				"x": 2.3944677663,
				"y": -6.4807747897,
				"z": 1.9106058403,
				"element": "F" 
			},
			{
				"x": 0.2944106032,
				"y": -5.9476727764,
				"z": 1.7479680866,
				"element": "F" 
			},
			{
				"x": -0.7321180361,
				"y": 0.463295986,
				"z": -3.5534775919,
				"element": "H" 
			},
			{
				"x": -1.5877036686,
				"y": 0.0816950319,
				"z": -5.0506112643,
				"element": "H" 
			},
			{
				"x": -1.0724435642,
				"y": 1.7420131273,
				"z": -4.7216793942,
				"element": "H" 
			},
			{
				"x": -3.5187864226,
				"y": 1.522004193,
				"z": -4.3312165908,
				"element": "H" 
			},
			{
				"x": -2.6982109525,
				"y": 1.9060256494,
				"z": -2.8332692233,
				"element": "H" 
			},
			{
				"x": -3.5282889,
				"y": -0.9060634565,
				"z": -3.7167693819,
				"element": "H" 
			},
			{
				"x": -4.5188219797,
				"y": 0.1041869601,
				"z": -2.6874201983,
				"element": "H" 
			},
			{
				"x": -1.6889153594,
				"y": -0.5723625655,
				"z": -1.7762858682,
				"element": "H" 
			},
			{
				"x": -2.9264279723,
				"y": -1.7964455791,
				"z": -1.6885507515,
				"element": "H" 
			},
			{
				"x": -2.8417404948,
				"y": -0.7900380526,
				"z": 0.4605476695,
				"element": "H" 
			},
			{
				"x": -4.3610132789,
				"y": -0.3629603338,
				"z": -0.2841965542,
				"element": "H" 
			},
			{
				"x": -3.5685473167,
				"y": 1.9192075509,
				"z": -0.7734570272,
				"element": "H" 
			},
			{
				"x": -3.5231065237,
				"y": 1.5372100465,
				"z": 0.9308042993,
				"element": "H" 
			},
			{
				"x": -1.068214205,
				"y": 1.6199021443,
				"z": -0.9102422375,
				"element": "H" 
			},
			{
				"x": -1.615184657,
				"y": 2.8898761636,
				"z": 0.1571976362,
				"element": "H" 
			},
			{
				"x": 0.0159758886,
				"y": 1.9773124717,
				"z": 1.4922376581,
				"element": "H" 
			},
			{
				"x": -1.3650935002,
				"y": 1.0736025099,
				"z": 2.0805306214,
				"element": "H" 
			},
			{
				"x": 0.6732088372,
				"y": 0.0802510218,
				"z": 0.0085641161,
				"element": "H" 
			},
			{
				"x": -0.6772450182,
				"y": -0.8762848348,
				"z": 0.6070686982,
				"element": "H" 
			},
			{
				"x": 1.5898459685,
				"y": 0.2043735558,
				"z": 2.3614760803,
				"element": "H" 
			},
			{
				"x": 0.2227944432,
				"y": -0.7655489341,
				"z": 2.9251161366,
				"element": "H" 
			},
			{
				"x": 2.4166091862,
				"y": -1.7368032887,
				"z": 1.1946239052,
				"element": "H" 
			},
			{
				"x": 2.949890483,
				"y": -4.0329239495,
				"z": 1.7874956241,
				"element": "H" 
			}
		],
		 "valence_orbital": [ 
			{
				"type": "occ",
				"energy": -0.30689,
				"method": "rhf"
			},
			{
				"type": "occ",
				"energy": -0.30303,
				"method": "rhf"
			},
			{
				"type": "occ",
				"energy": -0.30065,
				"method": "rhf"
			},
			{
				"type": "occ",
				"energy": -0.27475,
				"method": "rhf"
			},
			{
				"type": "occ",
				"energy": -0.26589,
				"method": "rhf"
			},
			{
				"type": "unocc",
				"energy": -0.00024,
				"method": "rhf"
			},
			{
				"type": "unocc",
				"energy": 0.0641,
				"method": "rhf"
			},
			{
				"type": "unocc",
				"energy": 0.07211,
				"method": "rhf"
			},
			{
				"type": "unocc",
				"energy": 0.08541,
				"method": "rhf"
			},
			{
				"type": "unocc",
				"energy": 0.09043,
				"method": "rhf"
			}
		],
		"cosmo_sigma_profile": { 
			"-0.025": 0.0,
			"-0.024": 0.0,
			"-0.023": 0.0,
			"-0.022": 0.0,
			"-0.021": 0.0,
			"-0.02": 0.0,
			"-0.019": 0.0,
			"-0.018": 0.0,
			"-0.017": 0.0,
			"-0.016": 0.0,
			"-0.015": 0.00090145970859,
			"-0.014": 0.931531219445,
			"-0.013": 1.90944664973,
			"-0.012": 3.38198284975,
			"-0.011": 3.35748120018,
			"-0.01": 2.28253941999,
			"-0.009": 2.57124202707,
			"-0.008": 2.25181630502,
			"-0.007": 2.47955683743,
			"-0.006": 2.39260443024,
			"-0.005": 4.67349643276,
			"-0.004": 6.46176651004,
			"-0.003": 13.6044328797,
			"-0.002": 42.4922170693,
			"-0.001": 62.5268928952,
			"0.0": 58.693396165,
			"0.001": 57.9039482743,
			"0.002": 63.2628260098,
			"0.003": 18.5000270844,
			"0.004": 4.37455516284,
			"0.005": 2.69812433785,
			"0.006": 2.00610501568,
			"0.007": 2.40386474879,
			"0.008": 1.76116886235,
			"0.009": 2.14495156747,
			"0.01": 1.94421586869,
			"0.011": 2.60036233277,
			"0.012": 3.8589997524,
			"0.013": 1.55689909015,
			"0.014": 0.0,
			"0.015": 0.0,
			"0.016": 0.0,
			"0.017": 0.0,
			"0.018": 0.0,
			"0.019": 0.0,
			"0.02": 0.0,
			"0.021": 0.0,
			"0.022": 0.0,
			"0.023": 0.0,
			"0.024": 0.0,
			"0.025": 0.0
		}
	}
}
