{
	 "smiles": "CCC(Br)CC", 
	 "Tm": 147.15, 
	 "num_atms": 17, 
	 "gaussian": { 
		 "optdone": 1, 
		 "sigma_profile": "yes", 
		 "theory": "DFT", 
		 "functional": "B3LYP", 
		 "basiset": "6-31G**", 
		 "properties": { 
			 "R2extent": 1381.6945, 
			 "electric_dipole_moment_norm": 2.27043537014, 
			 "electric_quadrupole_moment_norm": 4.52245879473, 
			 "total_energy": -2768.58395594, 
			 "HOMO_LUMO_gap": 0.26879, 
			 "cosmo_polarized_energy": -3.77, 
			 "cosmo_cavitation_energy": 20.27, 
			 "cosmo_dispersion_energy": -15.4, 
			 "cosmo_repulsion_energy": 1.31, 
			 "cosmo_total_nonelectrostatic_energy": 6.18, 
			 "SMD_solvation_energy": 2.44 
		},
		"coords": [
			{
				"x": -1.4893787183,
				"y": 0.7602705377,
				"z": 1.419537945,
				"element": "C" 
			},
			{
				"x": -1.5741936826,
				"y": 0.5413426115,
				"z": -0.0944157841,
				"element": "C" 
			},
			{
				"x": -0.6157343319,
				"y": -0.4603521429,
				"z": -0.7502545015,
				"element": "C" 
			},
			{
				"x": -0.8936806422,
				"y": -2.2981590896,
				"z": 0.0321185785,
				"element": "Br" 
			},
			{
				"x": 0.8814093386,
				"y": -0.1315005736,
				"z": -0.8029492028,
				"element": "C" 
			},
			{
				"x": 1.678707232,
				"y": -0.1126010001,
				"z": 0.5051598076,
				"element": "C" 
			},
			{
				"x": -2.3161749912,
				"y": 1.3989208416,
				"z": 1.7463285575,
				"element": "H" 
			},
			{
				"x": -0.5600236141,
				"y": 1.2483124211,
				"z": 1.721565772,
				"element": "H" 
			},
			{
				"x": -1.5652252513,
				"y": -0.1895827432,
				"z": 1.9555924183,
				"element": "H" 
			},
			{
				"x": -2.5927862342,
				"y": 0.2256851016,
				"z": -0.3459405413,
				"element": "H" 
			},
			{
				"x": -1.4147761916,
				"y": 1.49757341,
				"z": -0.6150723454,
				"element": "H" 
			},
			{
				"x": -0.9543586806,
				"y": -0.615478755,
				"z": -1.7762354511,
				"element": "H" 
			},
			{
				"x": 0.9583435475,
				"y": 0.8490371241,
				"z": -1.2964066954,
				"element": "H" 
			},
			{
				"x": 1.3462781963,
				"y": -0.8514381551,
				"z": -1.4856167275,
				"element": "H" 
			},
			{
				"x": 2.744054138,
				"y": 0.0100242524,
				"z": 0.2854768659,
				"element": "H" 
			},
			{
				"x": 1.3841869907,
				"y": 0.7069040677,
				"z": 1.1645035936,
				"element": "H" 
			},
			{
				"x": 1.5532528949,
				"y": -1.051257908,
				"z": 1.0515077108,
				"element": "H" 
			}
		],
		 "valence_orbital": [ 
			{
				"type": "occ",
				"energy": -0.34061,
				"method": "rhf"
			},
			{
				"type": "occ",
				"energy": -0.32518,
				"method": "rhf"
			},
			{
				"type": "occ",
				"energy": -0.3245,
				"method": "rhf"
			},
			{
				"type": "occ",
				"energy": -0.2664,
				"method": "rhf"
			},
			{
				"type": "occ",
				"energy": -0.26348,
				"method": "rhf"
			},
			{
				"type": "unocc",
				"energy": 0.00531,
				"method": "rhf"
			},
			{
				"type": "unocc",
				"energy": 0.07443,
				"method": "rhf"
			},
			{
				"type": "unocc",
				"energy": 0.10914,
				"method": "rhf"
			},
			{
				"type": "unocc",
				"energy": 0.12446,
				"method": "rhf"
			},
			{
				"type": "unocc",
				"energy": 0.13449,
				"method": "rhf"
			}
		],
		"cosmo_sigma_profile": { 
			"-0.025": 0.0,
			"-0.024": 0.0,
			"-0.023": 0.0,
			"-0.022": 0.0,
			"-0.021": 0.0,
			"-0.02": 0.0,
			"-0.019": 0.0,
			"-0.018": 0.0,
			"-0.017": 0.0,
			"-0.016": 0.0,
			"-0.015": 0.0,
			"-0.014": 0.0,
			"-0.013": 0.0,
			"-0.012": 0.0,
			"-0.011": 0.0,
			"-0.01": 0.0,
			"-0.009": 0.0,
			"-0.008": 0.0,
			"-0.007": 0.166183457102,
			"-0.006": 2.12935056635,
			"-0.005": 5.40944550915,
			"-0.004": 12.8588874707,
			"-0.003": 18.0207704913,
			"-0.002": 17.7297187043,
			"-0.001": 23.3954287764,
			"0.0": 19.2357197051,
			"0.001": 18.4869302927,
			"0.002": 9.71595594375,
			"0.003": 6.51675156194,
			"0.004": 5.97988461125,
			"0.005": 6.99122568264,
			"0.006": 7.01651631092,
			"0.007": 6.40026019366,
			"0.008": 0.214168649855,
			"0.009": 0.0,
			"0.01": 0.0,
			"0.011": 0.0,
			"0.012": 0.0,
			"0.013": 0.0,
			"0.014": 0.0,
			"0.015": 0.0,
			"0.016": 0.0,
			"0.017": 0.0,
			"0.018": 0.0,
			"0.019": 0.0,
			"0.02": 0.0,
			"0.021": 0.0,
			"0.022": 0.0,
			"0.023": 0.0,
			"0.024": 0.0,
			"0.025": 0.0
		}
	}
}
