{
	 "smiles": "NNC(=S)NC1CCCC1", 
	 "Tm": 350.15, 
	 "num_atms": 23, 
	 "gaussian": { 
		 "optdone": 1, 
		 "sigma_profile": "yes", 
		 "theory": "DFT", 
		 "functional": "B3LYP", 
		 "basiset": "6-31G**", 
		 "properties": { 
			 "R2extent": 4704.8427, 
			 "electric_dipole_moment_norm": 5.7796033947, 
			 "electric_quadrupole_moment_norm": 34.2997812266, 
			 "total_energy": -798.894996038, 
			 "HOMO_LUMO_gap": 0.187, 
			 "cosmo_polarized_energy": -16.74, 
			 "cosmo_cavitation_energy": 26.54, 
			 "cosmo_dispersion_energy": -19.58, 
			 "cosmo_repulsion_energy": 1.56, 
			 "cosmo_total_nonelectrostatic_energy": 8.52, 
			 "SMD_solvation_energy": 2.76 
		},
		"coords": [
			{
				"x": 2.647653251,
				"y": -3.2654605287,
				"z": -1.4890701081,
				"element": "N" 
			},
			{
				"x": 3.5905602213,
				"y": -2.4016627195,
				"z": -2.1003306838,
				"element": "N" 
			},
			{
				"x": 3.9305874955,
				"y": -1.165959721,
				"z": -1.5962273982,
				"element": "C" 
			},
			{
				"x": 5.5132412549,
				"y": -0.6090630661,
				"z": -1.690037851,
				"element": "S" 
			},
			{
				"x": 2.934614603,
				"y": -0.4340093321,
				"z": -1.0122819577,
				"element": "N" 
			},
			{
				"x": 1.5381020895,
				"y": -0.3585651249,
				"z": -1.4567656052,
				"element": "C" 
			},
			{
				"x": 1.136655671,
				"y": 1.0554289064,
				"z": -1.9211405597,
				"element": "C" 
			},
			{
				"x": -0.4050177776,
				"y": 1.0180636956,
				"z": -1.9498821267,
				"element": "C" 
			},
			{
				"x": -0.824485652,
				"y": -0.0707487878,
				"z": -0.9106112801,
				"element": "C" 
			},
			{
				"x": 0.4938420676,
				"y": -0.6637995876,
				"z": -0.364553844,
				"element": "C" 
			},
			{
				"x": 1.7208087444,
				"y": -3.0855390132,
				"z": -1.8622213135,
				"element": "H" 
			},
			{
				"x": 2.624508152,
				"y": -3.094783084,
				"z": -0.4848548043,
				"element": "H" 
			},
			{
				"x": 4.3998070549,
				"y": -2.9035159589,
				"z": -2.4433695535,
				"element": "H" 
			},
			{
				"x": 3.3000393214,
				"y": 0.4299595094,
				"z": -0.6308413669,
				"element": "H" 
			},
			{
				"x": 1.4169222061,
				"y": -1.0446343463,
				"z": -2.3008296369,
				"element": "H" 
			},
			{
				"x": 1.4868268585,
				"y": 1.782463834,
				"z": -1.1754718053,
				"element": "H" 
			},
			{
				"x": 1.5879781561,
				"y": 1.3280517162,
				"z": -2.8790709338,
				"element": "H" 
			},
			{
				"x": -0.8371669031,
				"y": 1.9966433806,
				"z": -1.7237112357,
				"element": "H" 
			},
			{
				"x": -0.7575368381,
				"y": 0.7434233905,
				"z": -2.9493817053,
				"element": "H" 
			},
			{
				"x": -1.4392670687,
				"y": 0.3424549969,
				"z": -0.1062684399,
				"element": "H" 
			},
			{
				"x": -1.4263203091,
				"y": -0.8463893783,
				"z": -1.3951275582,
				"element": "H" 
			},
			{
				"x": 0.4226636254,
				"y": -1.7294278235,
				"z": -0.1252033955,
				"element": "H" 
			},
			{
				"x": 0.8008837762,
				"y": -0.1503309577,
				"z": 0.5546531632,
				"element": "H" 
			}
		],
		 "valence_orbital": [ 
			{
				"type": "occ",
				"energy": -0.33421,
				"method": "rhf"
			},
			{
				"type": "occ",
				"energy": -0.28784,
				"method": "rhf"
			},
			{
				"type": "occ",
				"energy": -0.2593,
				"method": "rhf"
			},
			{
				"type": "occ",
				"energy": -0.217,
				"method": "rhf"
			},
			{
				"type": "occ",
				"energy": -0.20057,
				"method": "rhf"
			},
			{
				"type": "unocc",
				"energy": -0.01357,
				"method": "rhf"
			},
			{
				"type": "unocc",
				"energy": 0.04378,
				"method": "rhf"
			},
			{
				"type": "unocc",
				"energy": 0.06812,
				"method": "rhf"
			},
			{
				"type": "unocc",
				"energy": 0.07942,
				"method": "rhf"
			},
			{
				"type": "unocc",
				"energy": 0.09299,
				"method": "rhf"
			}
		],
		"cosmo_sigma_profile": { 
			"-0.025": 0.0,
			"-0.024": 0.0,
			"-0.023": 0.0,
			"-0.022": 0.0,
			"-0.021": 0.0,
			"-0.02": 0.0,
			"-0.019": 0.0,
			"-0.018": 0.0,
			"-0.017": 0.0,
			"-0.016": 0.0,
			"-0.015": 0.0,
			"-0.014": 0.0,
			"-0.013": 0.635410111111,
			"-0.012": 1.94680518441,
			"-0.011": 3.28635786181,
			"-0.01": 4.49738126561,
			"-0.009": 4.0371121862,
			"-0.008": 5.91425247821,
			"-0.007": 7.82966542501,
			"-0.006": 5.40521292248,
			"-0.005": 6.32902582802,
			"-0.004": 9.0759292118,
			"-0.003": 19.8588178002,
			"-0.002": 25.1875932729,
			"-0.001": 22.5624876203,
			"0.0": 17.6903844279,
			"0.001": 15.2498208911,
			"0.002": 4.55862496021,
			"0.003": 4.3297870223,
			"0.004": 5.94845977408,
			"0.005": 3.85737276202,
			"0.006": 4.08390459283,
			"0.007": 3.76070452841,
			"0.008": 4.28329798335,
			"0.009": 4.94792925261,
			"0.01": 7.10718074062,
			"0.011": 7.61394345726,
			"0.012": 5.06633719292,
			"0.013": 2.31005356107,
			"0.014": 0.820085872066,
			"0.015": 0.453393794538,
			"0.016": 0.239632642573,
			"0.017": 0.0,
			"0.018": 0.0,
			"0.019": 0.0,
			"0.02": 0.0,
			"0.021": 0.0,
			"0.022": 0.0,
			"0.023": 0.0,
			"0.024": 0.0,
			"0.025": 0.0
		}
	}
}
