{
	 "smiles": "[O-][N+](=O)C1=C(Br)C=CC(Cl)=C1", 
	 "Tm": 343.15, 
	 "num_atms": 14, 
	 "gaussian": { 
		 "optdone": 1, 
		 "sigma_profile": "yes", 
		 "theory": "DFT", 
		 "functional": "B3LYP", 
		 "basiset": "6-31G**", 
		 "properties": { 
			 "R2extent": 5079.4763, 
			 "electric_dipole_moment_norm": 3.82256608445, 
			 "electric_quadrupole_moment_norm": 13.6203111077, 
			 "total_energy": -3467.12480211, 
			 "HOMO_LUMO_gap": 0.1657, 
			 "cosmo_polarized_energy": -8.02, 
			 "cosmo_cavitation_energy": 23.53, 
			 "cosmo_dispersion_energy": -17.91, 
			 "cosmo_repulsion_energy": 1.44, 
			 "cosmo_total_nonelectrostatic_energy": 7.06, 
			 "SMD_solvation_energy": 4.98 
		},
		"coords": [
			{
				"x": -3.8428036385,
				"y": 0.3846435397,
				"z": 0.0930075461,
				"element": "O" 
			},
			{
				"x": -3.5005428739,
				"y": 0.8670213586,
				"z": -0.9800482457,
				"element": "N" 
			},
			{
				"x": -4.1779407609,
				"y": 1.6313259692,
				"z": -1.6659657936,
				"element": "O" 
			},
			{
				"x": -2.152223855,
				"y": 0.541279077,
				"z": -1.4883683748,
				"element": "C" 
			},
			{
				"x": -1.5077200884,
				"y": -0.6786581094,
				"z": -1.2422514117,
				"element": "C" 
			},
			{
				"x": -2.2830206232,
				"y": -2.1389577472,
				"z": -0.3145803516,
				"element": "Br" 
			},
			{
				"x": -0.2227092627,
				"y": -0.8650284482,
				"z": -1.7616021771,
				"element": "C" 
			},
			{
				"x": 0.4137247833,
				"y": 0.135145172,
				"z": -2.4901143716,
				"element": "C" 
			},
			{
				"x": -0.2506865166,
				"y": 1.339790858,
				"z": -2.7264625257,
				"element": "C" 
			},
			{
				"x": 0.5342899455,
				"y": 2.6023809786,
				"z": -3.6467843495,
				"element": "Cl" 
			},
			{
				"x": -1.5352623267,
				"y": 1.5437731434,
				"z": -2.2393303044,
				"element": "C" 
			},
			{
				"x": 0.278408772,
				"y": -1.8104735088,
				"z": -1.5904631844,
				"element": "H" 
			},
			{
				"x": 1.4143294672,
				"y": -0.0222100079,
				"z": -2.8766288577,
				"element": "H" 
			},
			{
				"x": -2.073543022,
				"y": 2.4636677251,
				"z": -2.4274075985,
				"element": "H" 
			}
		],
		 "valence_orbital": [ 
			{
				"type": "occ",
				"energy": -0.31814,
				"method": "rhf"
			},
			{
				"type": "occ",
				"energy": -0.31714,
				"method": "rhf"
			},
			{
				"type": "occ",
				"energy": -0.29964,
				"method": "rhf"
			},
			{
				"type": "occ",
				"energy": -0.28712,
				"method": "rhf"
			},
			{
				"type": "occ",
				"energy": -0.26577,
				"method": "rhf"
			},
			{
				"type": "unocc",
				"energy": -0.10007,
				"method": "rhf"
			},
			{
				"type": "unocc",
				"energy": -0.05063,
				"method": "rhf"
			},
			{
				"type": "unocc",
				"energy": -0.02915,
				"method": "rhf"
			},
			{
				"type": "unocc",
				"energy": -0.02058,
				"method": "rhf"
			},
			{
				"type": "unocc",
				"energy": 0.01032,
				"method": "rhf"
			}
		],
		"cosmo_sigma_profile": { 
			"-0.025": 0.0,
			"-0.024": 0.0,
			"-0.023": 0.0,
			"-0.022": 0.0,
			"-0.021": 0.0,
			"-0.02": 0.0,
			"-0.019": 0.0,
			"-0.018": 0.0,
			"-0.017": 0.0,
			"-0.016": 0.0,
			"-0.015": 0.0,
			"-0.014": 0.0,
			"-0.013": 0.0,
			"-0.012": 0.0,
			"-0.011": 0.0,
			"-0.01": 0.264119209553,
			"-0.009": 4.23852234643,
			"-0.008": 6.66832895156,
			"-0.007": 6.74709216701,
			"-0.006": 6.69664713433,
			"-0.005": 8.13940125107,
			"-0.004": 8.60877507893,
			"-0.003": 10.3894733609,
			"-0.002": 18.3810265085,
			"-0.001": 24.0512449464,
			"0.0": 17.602647548,
			"0.001": 10.982102156,
			"0.002": 12.8596260622,
			"0.003": 19.8968517689,
			"0.004": 10.5125001133,
			"0.005": 3.14957951282,
			"0.006": 5.73606692173,
			"0.007": 11.0475785563,
			"0.008": 6.10814495336,
			"0.009": 3.10221928543,
			"0.01": 0.369346646343,
			"0.011": 0.0,
			"0.012": 0.0,
			"0.013": 0.0,
			"0.014": 0.0,
			"0.015": 0.0,
			"0.016": 0.0,
			"0.017": 0.0,
			"0.018": 0.0,
			"0.019": 0.0,
			"0.02": 0.0,
			"0.021": 0.0,
			"0.022": 0.0,
			"0.023": 0.0,
			"0.024": 0.0,
			"0.025": 0.0
		}
	}
}
