{
	 "smiles": "COC1=CC2=C(OC(=O)C=C2)C(O)=C1O", 
	 "Tm": 504.15, 
	 "num_atms": 23, 
	 "gaussian": { 
		 "optdone": 1, 
		 "sigma_profile": "yes", 
		 "theory": "DFT", 
		 "functional": "B3LYP", 
		 "basiset": "6-31G**", 
		 "properties": { 
			 "R2extent": 3807.3228, 
			 "electric_dipole_moment_norm": 3.36171548171, 
			 "electric_quadrupole_moment_norm": 16.2459896818, 
			 "total_energy": -761.979126625, 
			 "HOMO_LUMO_gap": 0.14677, 
			 "cosmo_polarized_energy": -13.12, 
			 "cosmo_cavitation_energy": 27.57, 
			 "cosmo_dispersion_energy": -20.99, 
			 "cosmo_repulsion_energy": 1.62, 
			 "cosmo_total_nonelectrostatic_energy": 8.2, 
			 "SMD_solvation_energy": 7.19 
		},
		"coords": [
			{
				"x": 0.3209257394,
				"y": 3.159427766,
				"z": -1.2329674859,
				"element": "C" 
			},
			{
				"x": 0.2630763735,
				"y": 1.7496371273,
				"z": -1.4547155513,
				"element": "O" 
			},
			{
				"x": 0.0005290644,
				"y": 0.8621233577,
				"z": -0.4548530772,
				"element": "C" 
			},
			{
				"x": -0.0169465323,
				"y": -0.4765985982,
				"z": -0.8499097377,
				"element": "C" 
			},
			{
				"x": -0.2721739138,
				"y": -1.5143675225,
				"z": 0.0600619679,
				"element": "C" 
			},
			{
				"x": -0.5151668753,
				"y": -1.1853339748,
				"z": 1.4014170922,
				"element": "C" 
			},
			{
				"x": -0.7739527015,
				"y": -2.1235559694,
				"z": 2.3659331323,
				"element": "O" 
			},
			{
				"x": -0.8134427023,
				"y": -3.4954354891,
				"z": 2.0725888077,
				"element": "C" 
			},
			{
				"x": -1.0497162007,
				"y": -4.2540437241,
				"z": 2.9827644556,
				"element": "O" 
			},
			{
				"x": -0.5626351289,
				"y": -3.8483756944,
				"z": 0.6804863471,
				"element": "C" 
			},
			{
				"x": -0.307193978,
				"y": -2.9145054167,
				"z": -0.2688144745,
				"element": "C" 
			},
			{
				"x": -0.5024738831,
				"y": 0.1411542577,
				"z": 1.8154110194,
				"element": "C" 
			},
			{
				"x": -0.733816913,
				"y": 0.5121962796,
				"z": 3.1125698705,
				"element": "O" 
			},
			{
				"x": -0.2474313905,
				"y": 1.1744234343,
				"z": 0.9047388937,
				"element": "C" 
			},
			{
				"x": -0.2473227727,
				"y": 2.4580696101,
				"z": 1.3663019205,
				"element": "O" 
			},
			{
				"x": -0.6326115305,
				"y": 3.5533742538,
				"z": -0.8715155022,
				"element": "H" 
			},
			{
				"x": 1.1098836979,
				"y": 3.427351385,
				"z": -0.525258179,
				"element": "H" 
			},
			{
				"x": 0.5463561529,
				"y": 3.5871847981,
				"z": -2.2116916557,
				"element": "H" 
			},
			{
				"x": 0.1749590544,
				"y": -0.6965102372,
				"z": -1.8945188463,
				"element": "H" 
			},
			{
				"x": -0.594635496,
				"y": -4.9080911406,
				"z": 0.4585383629,
				"element": "H" 
			},
			{
				"x": -0.12440066,
				"y": -3.2144999848,
				"z": -1.2977022798,
				"element": "H" 
			},
			{
				"x": -0.8947525997,
				"y": -0.2897523552,
				"z": 3.6328534775,
				"element": "H" 
			},
			{
				"x": -0.4391568041,
				"y": 2.4180278373,
				"z": 2.3165814424,
				"element": "H" 
			}
		],
		 "valence_orbital": [ 
			{
				"type": "occ",
				"energy": -0.3316,
				"method": "rhf"
			},
			{
				"type": "occ",
				"energy": -0.27615,
				"method": "rhf"
			},
			{
				"type": "occ",
				"energy": -0.27447,
				"method": "rhf"
			},
			{
				"type": "occ",
				"energy": -0.22446,
				"method": "rhf"
			},
			{
				"type": "occ",
				"energy": -0.21083,
				"method": "rhf"
			},
			{
				"type": "unocc",
				"energy": -0.06406,
				"method": "rhf"
			},
			{
				"type": "unocc",
				"energy": 0.00304,
				"method": "rhf"
			},
			{
				"type": "unocc",
				"energy": 0.0134,
				"method": "rhf"
			},
			{
				"type": "unocc",
				"energy": 0.04361,
				"method": "rhf"
			},
			{
				"type": "unocc",
				"energy": 0.08968,
				"method": "rhf"
			}
		],
		"cosmo_sigma_profile": { 
			"-0.025": 0.0,
			"-0.024": 0.0,
			"-0.023": 0.0,
			"-0.022": 0.0,
			"-0.021": 0.0,
			"-0.02": 0.0,
			"-0.019": 0.0,
			"-0.018": 0.0,
			"-0.017": 0.198889140839,
			"-0.016": 0.658283909834,
			"-0.015": 0.975646895534,
			"-0.014": 1.29993559149,
			"-0.013": 0.748030352568,
			"-0.012": 1.09361109248,
			"-0.011": 2.37434980359,
			"-0.01": 1.2030194199,
			"-0.009": 1.91681408737,
			"-0.008": 4.655513008,
			"-0.007": 7.25905348088,
			"-0.006": 9.29764450466,
			"-0.005": 10.340702798,
			"-0.004": 13.5412072397,
			"-0.003": 17.9456330543,
			"-0.002": 14.5038573171,
			"-0.001": 15.1173404137,
			"0.0": 19.1317149932,
			"0.001": 22.4865803665,
			"0.002": 13.8312765901,
			"0.003": 12.5443691599,
			"0.004": 8.05728876007,
			"0.005": 6.91606030656,
			"0.006": 8.32204042364,
			"0.007": 3.80819421729,
			"0.008": 3.14460215681,
			"0.009": 3.59420508772,
			"0.01": 3.34117473004,
			"0.011": 3.41404258732,
			"0.012": 6.30792978994,
			"0.013": 2.63768999676,
			"0.014": 0.0784467832248,
			"0.015": 0.0,
			"0.016": 0.0,
			"0.017": 0.0,
			"0.018": 0.0,
			"0.019": 0.0,
			"0.02": 0.0,
			"0.021": 0.0,
			"0.022": 0.0,
			"0.023": 0.0,
			"0.024": 0.0,
			"0.025": 0.0
		}
	}
}
