{
	 "smiles": "COC1=CC=C(C=C1)C(=O)C(C)Br", 
	 "Tm": 340.15, 
	 "num_atms": 24, 
	 "gaussian": { 
		 "optdone": 1, 
		 "sigma_profile": "yes", 
		 "theory": "DFT", 
		 "functional": "B3LYP", 
		 "basiset": "6-31G**", 
		 "properties": { 
			 "R2extent": 6547.9334, 
			 "electric_dipole_moment_norm": 4.3737554184, 
			 "electric_quadrupole_moment_norm": 11.0751473448, 
			 "total_energy": -3109.53879195, 
			 "HOMO_LUMO_gap": 0.17186, 
			 "cosmo_polarized_energy": -9.97, 
			 "cosmo_cavitation_energy": 29.61, 
			 "cosmo_dispersion_energy": -21.8, 
			 "cosmo_repulsion_energy": 1.73, 
			 "cosmo_total_nonelectrostatic_energy": 9.55, 
			 "SMD_solvation_energy": 5.37 
		},
		"coords": [
			{
				"x": -1.3327497142,
				"y": -0.7172584948,
				"z": 2.8687799448,
				"element": "C" 
			},
			{
				"x": -1.059898465,
				"y": -1.1476640159,
				"z": 1.5413383518,
				"element": "O" 
			},
			{
				"x": -0.3557293179,
				"y": -0.3258895311,
				"z": 0.7227773189,
				"element": "C" 
			},
			{
				"x": 0.1343157097,
				"y": 0.9352225542,
				"z": 1.0894538198,
				"element": "C" 
			},
			{
				"x": 0.8491518077,
				"y": 1.6944127713,
				"z": 0.1642912067,
				"element": "C" 
			},
			{
				"x": 1.0908889905,
				"y": 1.2209372815,
				"z": -1.1337767208,
				"element": "C" 
			},
			{
				"x": 0.5813263659,
				"y": -0.0469722885,
				"z": -1.4855442793,
				"element": "C" 
			},
			{
				"x": -0.1265465825,
				"y": -0.8114964918,
				"z": -0.5775882854,
				"element": "C" 
			},
			{
				"x": 1.8562945352,
				"y": 1.9545179577,
				"z": -2.1768271339,
				"element": "C" 
			},
			{
				"x": 1.9382207452,
				"y": 1.5228866632,
				"z": -3.3197575524,
				"element": "O" 
			},
			{
				"x": 2.6699286782,
				"y": 3.2254072319,
				"z": -1.8778171367,
				"element": "C" 
			},
			{
				"x": 3.7981746022,
				"y": 3.0508075347,
				"z": -0.8679416967,
				"element": "C" 
			},
			{
				"x": 1.4804021046,
				"y": 4.7526101426,
				"z": -1.3563783094,
				"element": "Br" 
			},
			{
				"x": -0.4085177556,
				"y": -0.5498924637,
				"z": 3.4354117012,
				"element": "H" 
			},
			{
				"x": -1.8994986216,
				"y": -1.5244270438,
				"z": 3.3343260701,
				"element": "H" 
			},
			{
				"x": -1.9340326976,
				"y": 0.2000548892,
				"z": 2.8785367977,
				"element": "H" 
			},
			{
				"x": -0.0409890599,
				"y": 1.3354933104,
				"z": 2.0806342917,
				"element": "H" 
			},
			{
				"x": 1.189223004,
				"y": 2.6792145177,
				"z": 0.4601045884,
				"element": "H" 
			},
			{
				"x": 0.7631842956,
				"y": -0.4094726251,
				"z": -2.491344822,
				"element": "H" 
			},
			{
				"x": -0.5170535032,
				"y": -1.7889643847,
				"z": -0.8406716648,
				"element": "H" 
			},
			{
				"x": 3.0594781442,
				"y": 3.5443460995,
				"z": -2.842524083,
				"element": "H" 
			},
			{
				"x": 4.4617681579,
				"y": 2.2504211821,
				"z": -1.2169269625,
				"element": "H" 
			},
			{
				"x": 3.4339411833,
				"y": 2.7809985618,
				"z": 0.1244846837,
				"element": "H" 
			},
			{
				"x": 4.3825173935,
				"y": 3.9704066417,
				"z": -0.7879401278,
				"element": "H" 
			}
		],
		 "valence_orbital": [ 
			{
				"type": "occ",
				"energy": -0.28459,
				"method": "rhf"
			},
			{
				"type": "occ",
				"energy": -0.27564,
				"method": "rhf"
			},
			{
				"type": "occ",
				"energy": -0.26322,
				"method": "rhf"
			},
			{
				"type": "occ",
				"energy": -0.2504,
				"method": "rhf"
			},
			{
				"type": "occ",
				"energy": -0.23338,
				"method": "rhf"
			},
			{
				"type": "unocc",
				"energy": -0.06152,
				"method": "rhf"
			},
			{
				"type": "unocc",
				"energy": -0.01239,
				"method": "rhf"
			},
			{
				"type": "unocc",
				"energy": -0.00547,
				"method": "rhf"
			},
			{
				"type": "unocc",
				"energy": 0.05469,
				"method": "rhf"
			},
			{
				"type": "unocc",
				"energy": 0.08496,
				"method": "rhf"
			}
		],
		"cosmo_sigma_profile": { 
			"-0.025": 0.0,
			"-0.024": 0.0,
			"-0.023": 0.0,
			"-0.022": 0.0,
			"-0.021": 0.0,
			"-0.02": 0.0,
			"-0.019": 0.0,
			"-0.018": 0.0,
			"-0.017": 0.0,
			"-0.016": 0.0,
			"-0.015": 0.0,
			"-0.014": 0.0,
			"-0.013": 0.0,
			"-0.012": 0.0,
			"-0.011": 0.0,
			"-0.01": 0.0,
			"-0.009": 0.0,
			"-0.008": 0.17985216219,
			"-0.007": 4.94678504012,
			"-0.006": 17.5378701144,
			"-0.005": 22.4542979747,
			"-0.004": 22.361911121,
			"-0.003": 18.5711150983,
			"-0.002": 15.9345868277,
			"-0.001": 16.8572219126,
			"0.0": 13.1096543119,
			"0.001": 14.9352319535,
			"0.002": 18.5126274151,
			"0.003": 22.0461259616,
			"0.004": 16.8598205885,
			"0.005": 10.8612531431,
			"0.006": 5.04263400388,
			"0.007": 2.69608755083,
			"0.008": 3.38470181676,
			"0.009": 2.86190094594,
			"0.01": 2.63060674895,
			"0.011": 3.78613107811,
			"0.012": 2.67909494103,
			"0.013": 0.216460252954,
			"0.014": 0.0,
			"0.015": 0.0,
			"0.016": 0.0,
			"0.017": 0.0,
			"0.018": 0.0,
			"0.019": 0.0,
			"0.02": 0.0,
			"0.021": 0.0,
			"0.022": 0.0,
			"0.023": 0.0,
			"0.024": 0.0,
			"0.025": 0.0
		}
	}
}
