{
	 "smiles": "CCCCCCCNC(=O)OCC1OC(OC)C(O)C(O)C1O", 
	 "Tm": 377.15, 
	 "num_atms": 52, 
	 "gaussian": { 
		 "optdone": 1, 
		 "sigma_profile": "yes", 
		 "theory": "DFT", 
		 "functional": "B3LYP", 
		 "basiset": "6-31G**", 
		 "properties": { 
			 "R2extent": 8516.3506, 
			 "electric_dipole_moment_norm": 2.9646407354, 
			 "electric_quadrupole_moment_norm": 18.5223549291, 
			 "total_energy": -1170.3912697, 
			 "HOMO_LUMO_gap": 0.2998, 
			 "cosmo_polarized_energy": -20.57, 
			 "cosmo_cavitation_energy": 51.94, 
			 "cosmo_dispersion_energy": -31.93, 
			 "cosmo_repulsion_energy": 2.46, 
			 "cosmo_total_nonelectrostatic_energy": 22.47, 
			 "SMD_solvation_energy": 8.34 
		},
		"coords": [
			{
				"x": 3.8671576678,
				"y": 0.2351116426,
				"z": -1.1471076678,
				"element": "C" 
			},
			{
				"x": 4.4270695313,
				"y": -0.8363978889,
				"z": -0.2028744262,
				"element": "C" 
			},
			{
				"x": 3.6455603653,
				"y": -1.0095304292,
				"z": 1.111716258,
				"element": "C" 
			},
			{
				"x": 3.7288915871,
				"y": 0.1998855697,
				"z": 2.0558658392,
				"element": "C" 
			},
			{
				"x": 3.1100402795,
				"y": 0.0035826575,
				"z": 3.4527690607,
				"element": "C" 
			},
			{
				"x": 1.5835184182,
				"y": -0.2305453861,
				"z": 3.4800964996,
				"element": "C" 
			},
			{
				"x": 1.1757307362,
				"y": -1.7140103515,
				"z": 3.4593561188,
				"element": "C" 
			},
			{
				"x": -0.2671313961,
				"y": -1.9265386946,
				"z": 3.3953828979,
				"element": "N" 
			},
			{
				"x": -1.037426259,
				"y": -1.8165134116,
				"z": 2.274546487,
				"element": "C" 
			},
			{
				"x": -2.2542115284,
				"y": -1.8275477998,
				"z": 2.2657164928,
				"element": "O" 
			},
			{
				"x": -0.2488714364,
				"y": -1.7336502833,
				"z": 1.1578351618,
				"element": "O" 
			},
			{
				"x": -0.9149250957,
				"y": -1.5069273489,
				"z": -0.0885242538,
				"element": "C" 
			},
			{
				"x": -0.6996184206,
				"y": -0.0706634188,
				"z": -0.5406895305,
				"element": "C" 
			},
			{
				"x": -1.4628075089,
				"y": 0.771369743,
				"z": 0.3114234745,
				"element": "O" 
			},
			{
				"x": -1.1585937603,
				"y": 2.1538015247,
				"z": 0.1338623913,
				"element": "C" 
			},
			{
				"x": -2.0586088753,
				"y": 2.8940410432,
				"z": 0.8842149233,
				"element": "O" 
			},
			{
				"x": -2.0138963711,
				"y": 2.6260274041,
				"z": 2.2838448175,
				"element": "C" 
			},
			{
				"x": -1.3020150913,
				"y": 2.5865270414,
				"z": -1.3477371131,
				"element": "C" 
			},
			{
				"x": -0.0691177273,
				"y": 3.0068025082,
				"z": -1.9341181869,
				"element": "O" 
			},
			{
				"x": -1.9072059051,
				"y": 1.4523027737,
				"z": -2.1875351985,
				"element": "C" 
			},
			{
				"x": -1.9140731779,
				"y": 1.8115978043,
				"z": -3.566585422,
				"element": "O" 
			},
			{
				"x": -1.0844457488,
				"y": 0.1523544326,
				"z": -2.0191815665,
				"element": "C" 
			},
			{
				"x": 0.137419585,
				"y": 0.2575861662,
				"z": -2.7597077535,
				"element": "O" 
			},
			{
				"x": 3.8732696647,
				"y": 1.2290830973,
				"z": -0.6873313244,
				"element": "H" 
			},
			{
				"x": 4.4637311387,
				"y": 0.2979418425,
				"z": -2.0634410135,
				"element": "H" 
			},
			{
				"x": 2.8362056671,
				"y": 0.0085947131,
				"z": -1.4437587773,
				"element": "H" 
			},
			{
				"x": 5.4749862511,
				"y": -0.6035681193,
				"z": 0.0321782201,
				"element": "H" 
			},
			{
				"x": 4.4425316126,
				"y": -1.7988254199,
				"z": -0.730085807,
				"element": "H" 
			},
			{
				"x": 2.5963051071,
				"y": -1.2305247258,
				"z": 0.8762205576,
				"element": "H" 
			},
			{
				"x": 4.0366000757,
				"y": -1.8927795491,
				"z": 1.6362951105,
				"element": "H" 
			},
			{
				"x": 3.2530243602,
				"y": 1.0707846039,
				"z": 1.585673518,
				"element": "H" 
			},
			{
				"x": 4.7868220862,
				"y": 0.4683146714,
				"z": 2.1852870793,
				"element": "H" 
			},
			{
				"x": 3.3377180333,
				"y": 0.8976159606,
				"z": 4.0453971085,
				"element": "H" 
			},
			{
				"x": 3.6184852319,
				"y": -0.8267485886,
				"z": 3.964676594,
				"element": "H" 
			},
			{
				"x": 1.1111951687,
				"y": 0.2735497818,
				"z": 2.6280666578,
				"element": "H" 
			},
			{
				"x": 1.1549178586,
				"y": 0.2243814491,
				"z": 4.3822257793,
				"element": "H" 
			},
			{
				"x": 1.6311035331,
				"y": -2.2296337905,
				"z": 2.6129851049,
				"element": "H" 
			},
			{
				"x": 1.5385083135,
				"y": -2.2106199771,
				"z": 4.3664271204,
				"element": "H" 
			},
			{
				"x": -0.8055285118,
				"y": -1.902313655,
				"z": 4.2483700385,
				"element": "H" 
			},
			{
				"x": -1.9812586702,
				"y": -1.7189548742,
				"z": 0.0219123542,
				"element": "H" 
			},
			{
				"x": -0.4652922013,
				"y": -2.1900354353,
				"z": -0.8152129226,
				"element": "H" 
			},
			{
				"x": 0.3720760514,
				"y": 0.1678009453,
				"z": -0.4432156217,
				"element": "H" 
			},
			{
				"x": -0.1151031612,
				"y": 2.3321003408,
				"z": 0.4621911537,
				"element": "H" 
			},
			{
				"x": -2.3396384544,
				"y": 1.6054030663,
				"z": 2.5056610274,
				"element": "H" 
			},
			{
				"x": -2.6901942289,
				"y": 3.3411417497,
				"z": 2.7559567683,
				"element": "H" 
			},
			{
				"x": -0.9983649465,
				"y": 2.7753893724,
				"z": 2.6798095593,
				"element": "H" 
			},
			{
				"x": -1.9567193055,
				"y": 3.4617524846,
				"z": -1.3700587528,
				"element": "H" 
			},
			{
				"x": 0.456253068,
				"y": 2.2043332316,
				"z": -2.1027800259,
				"element": "H" 
			},
			{
				"x": -2.9366128883,
				"y": 1.2697593994,
				"z": -1.863884682,
				"element": "H" 
			},
			{
				"x": -1.2867328572,
				"y": 2.5497522779,
				"z": -3.6404916668,
				"element": "H" 
			},
			{
				"x": -1.6748845256,
				"y": -0.6918498104,
				"z": -2.4054853237,
				"element": "H" 
			},
			{
				"x": -0.1393433393,
				"y": 0.4930896592,
				"z": -3.6606571376,
				"element": "H" 
			}
		],
		 "valence_orbital": [ 
			{
				"type": "occ",
				"energy": -0.27386,
				"method": "rhf"
			},
			{
				"type": "occ",
				"energy": -0.27199,
				"method": "rhf"
			},
			{
				"type": "occ",
				"energy": -0.26854,
				"method": "rhf"
			},
			{
				"type": "occ",
				"energy": -0.26138,
				"method": "rhf"
			},
			{
				"type": "occ",
				"energy": -0.25046,
				"method": "rhf"
			},
			{
				"type": "unocc",
				"energy": 0.04934,
				"method": "rhf"
			},
			{
				"type": "unocc",
				"energy": 0.0555,
				"method": "rhf"
			},
			{
				"type": "unocc",
				"energy": 0.06017,
				"method": "rhf"
			},
			{
				"type": "unocc",
				"energy": 0.07972,
				"method": "rhf"
			},
			{
				"type": "unocc",
				"energy": 0.09068,
				"method": "rhf"
			}
		],
		"cosmo_sigma_profile": { 
			"-0.025": 0.0,
			"-0.024": 0.0,
			"-0.023": 0.0,
			"-0.022": 0.0,
			"-0.021": 0.0,
			"-0.02": 0.0,
			"-0.019": 0.0,
			"-0.018": 0.0,
			"-0.017": 0.0,
			"-0.016": 0.0,
			"-0.015": 0.0,
			"-0.014": 0.688491377578,
			"-0.013": 1.90235184397,
			"-0.012": 2.31355640928,
			"-0.011": 3.64047952658,
			"-0.01": 2.78112607907,
			"-0.009": 2.33235428708,
			"-0.008": 4.05581303588,
			"-0.007": 6.72445508213,
			"-0.006": 15.6264943937,
			"-0.005": 20.6939491528,
			"-0.004": 22.3301025412,
			"-0.003": 25.5831802319,
			"-0.002": 47.6403788653,
			"-0.001": 46.8034114674,
			"0.0": 48.7308976253,
			"0.001": 41.5819342485,
			"0.002": 21.5389672055,
			"0.003": 12.6535988681,
			"0.004": 10.8503218922,
			"0.005": 8.19162167768,
			"0.006": 7.51398584151,
			"0.007": 6.30886666246,
			"0.008": 6.20999639873,
			"0.009": 4.75152526495,
			"0.01": 7.18965706435,
			"0.011": 6.3465181699,
			"0.012": 5.20132851197,
			"0.013": 7.92714479172,
			"0.014": 2.81798787744,
			"0.015": 0.0,
			"0.016": 0.0,
			"0.017": 0.0,
			"0.018": 0.0,
			"0.019": 0.0,
			"0.02": 0.0,
			"0.021": 0.0,
			"0.022": 0.0,
			"0.023": 0.0,
			"0.024": 0.0,
			"0.025": 0.0
		}
	}
}
