{
	 "smiles": "FC1=CC(NS(=O)(=O)C2=CN=C(Cl)C=C2)=CC(F)=C1", 
	 "Tm": 473.15, 
	 "num_atms": 26, 
	 "gaussian": { 
		 "optdone": 1, 
		 "sigma_profile": "yes", 
		 "theory": "DFT", 
		 "functional": "B3LYP", 
		 "basiset": "6-31G**", 
		 "properties": { 
			 "R2extent": 7792.9464, 
			 "electric_dipole_moment_norm": 1.40202174377, 
			 "electric_quadrupole_moment_norm": 15.884394211, 
			 "total_energy": -1741.3038715, 
			 "HOMO_LUMO_gap": 0.17768, 
			 "cosmo_polarized_energy": -15.89, 
			 "cosmo_cavitation_energy": 35.99, 
			 "cosmo_dispersion_energy": -25.75, 
			 "cosmo_repulsion_energy": 1.89, 
			 "cosmo_total_nonelectrostatic_energy": 12.13, 
			 "SMD_solvation_energy": 4.68 
		},
		"coords": [
			{
				"x": 0.6706293864,
				"y": 3.1170370225,
				"z": -5.317606359,
				"element": "F" 
			},
			{
				"x": 0.1070911573,
				"y": 2.7458459163,
				"z": -4.1540860717,
				"element": "C" 
			},
			{
				"x": 0.8993755182,
				"y": 2.0984677698,
				"z": -3.2146613612,
				"element": "C" 
			},
			{
				"x": 0.3182456445,
				"y": 1.7039845073,
				"z": -2.00135017,
				"element": "C" 
			},
			{
				"x": 1.1168419399,
				"y": 0.9852168985,
				"z": -1.0820117211,
				"element": "N" 
			},
			{
				"x": 1.0611234412,
				"y": 1.1558116995,
				"z": 0.6092589515,
				"element": "S" 
			},
			{
				"x": 2.399246734,
				"y": 0.7370079319,
				"z": 1.0264957357,
				"element": "O" 
			},
			{
				"x": 0.48749467,
				"y": 2.4460181856,
				"z": 0.9859656797,
				"element": "O" 
			},
			{
				"x": -0.1104855187,
				"y": -0.1025592804,
				"z": 1.1114935341,
				"element": "C" 
			},
			{
				"x": 0.1545206468,
				"y": -1.4529920954,
				"z": 0.8749076271,
				"element": "C" 
			},
			{
				"x": -0.674568801,
				"y": -2.4241517804,
				"z": 1.2674105845,
				"element": "N" 
			},
			{
				"x": -1.7756325777,
				"y": -2.0665297641,
				"z": 1.9120494721,
				"element": "C" 
			},
			{
				"x": -2.8452606595,
				"y": -3.3612327263,
				"z": 2.4124341188,
				"element": "Cl" 
			},
			{
				"x": -2.1320805703,
				"y": -0.7482406245,
				"z": 2.2156743253,
				"element": "C" 
			},
			{
				"x": -1.2682669306,
				"y": 0.2602816632,
				"z": 1.8019203597,
				"element": "C" 
			},
			{
				"x": -1.0339361046,
				"y": 1.9662667129,
				"z": -1.7495198313,
				"element": "C" 
			},
			{
				"x": -1.7682741483,
				"y": 2.6327587662,
				"z": -2.7220660995,
				"element": "C" 
			},
			{
				"x": -3.0655689639,
				"y": 2.8884368487,
				"z": -2.4735959756,
				"element": "F" 
			},
			{
				"x": -1.2350418761,
				"y": 3.03535719,
				"z": -3.9407682275,
				"element": "C" 
			},
			{
				"x": 1.9452810648,
				"y": 1.9141462949,
				"z": -3.4339089819,
				"element": "H" 
			},
			{
				"x": 2.0875463887,
				"y": 0.8588202324,
				"z": -1.3506685471,
				"element": "H" 
			},
			{
				"x": 1.0567042684,
				"y": -1.7641879168,
				"z": 0.3554397934,
				"element": "H" 
			},
			{
				"x": -3.0458754576,
				"y": -0.530024431,
				"z": 2.7546237531,
				"element": "H" 
			},
			{
				"x": -1.4745724458,
				"y": 1.3053061293,
				"z": 2.0074645419,
				"element": "H" 
			},
			{
				"x": -1.5207422019,
				"y": 1.6721367705,
				"z": -0.8302262286,
				"element": "H" 
			},
			{
				"x": -1.8327946042,
				"y": 3.5484180795,
				"z": -4.6828689025,
				"element": "H" 
			}
		],
		 "valence_orbital": [ 
			{
				"type": "occ",
				"energy": -0.32366,
				"method": "rhf"
			},
			{
				"type": "occ",
				"energy": -0.29889,
				"method": "rhf"
			},
			{
				"type": "occ",
				"energy": -0.28684,
				"method": "rhf"
			},
			{
				"type": "occ",
				"energy": -0.26163,
				"method": "rhf"
			},
			{
				"type": "occ",
				"energy": -0.24894,
				"method": "rhf"
			},
			{
				"type": "unocc",
				"energy": -0.07126,
				"method": "rhf"
			},
			{
				"type": "unocc",
				"energy": -0.06345,
				"method": "rhf"
			},
			{
				"type": "unocc",
				"energy": -0.02413,
				"method": "rhf"
			},
			{
				"type": "unocc",
				"energy": -0.01522,
				"method": "rhf"
			},
			{
				"type": "unocc",
				"energy": 0.01518,
				"method": "rhf"
			}
		],
		"cosmo_sigma_profile": { 
			"-0.025": 0.0,
			"-0.024": 0.0,
			"-0.023": 0.0,
			"-0.022": 0.0,
			"-0.021": 0.0,
			"-0.02": 0.0,
			"-0.019": 0.0,
			"-0.018": 0.0,
			"-0.017": 0.195697006247,
			"-0.016": 0.711556585979,
			"-0.015": 1.47617074867,
			"-0.014": 1.15798351724,
			"-0.013": 1.01700377421,
			"-0.012": 1.0553861285,
			"-0.011": 1.14970379717,
			"-0.01": 2.43478488544,
			"-0.009": 7.95256661789,
			"-0.008": 8.82506357585,
			"-0.007": 9.77521410899,
			"-0.006": 10.2558063314,
			"-0.005": 10.6270561323,
			"-0.004": 12.4725880831,
			"-0.003": 16.8633348422,
			"-0.002": 19.4682368767,
			"-0.001": 18.7066853787,
			"0.0": 25.5767819614,
			"0.001": 27.1022326787,
			"0.002": 23.3603253004,
			"0.003": 23.7234053723,
			"0.004": 27.8238114679,
			"0.005": 5.84834161445,
			"0.006": 4.56677836573,
			"0.007": 4.84152054848,
			"0.008": 4.50170588571,
			"0.009": 8.94622808593,
			"0.01": 9.18445082537,
			"0.011": 2.29863679453,
			"0.012": 0.740618598888,
			"0.013": 0.511522332805,
			"0.014": 0.0272733187269,
			"0.015": 0.0,
			"0.016": 0.0,
			"0.017": 0.0,
			"0.018": 0.0,
			"0.019": 0.0,
			"0.02": 0.0,
			"0.021": 0.0,
			"0.022": 0.0,
			"0.023": 0.0,
			"0.024": 0.0,
			"0.025": 0.0
		}
	}
}
