{
	 "smiles": "OC1=C(Cl)C=CC=C1Cl", 
	 "Tm": 339.95, 
	 "num_atms": 13, 
	 "gaussian": { 
		 "optdone": 1, 
		 "sigma_profile": "yes", 
		 "theory": "DFT", 
		 "functional": "B3LYP", 
		 "basiset": "6-31G**", 
		 "properties": { 
			 "R2extent": 2962.1952, 
			 "electric_dipole_moment_norm": 2.0429350112, 
			 "electric_quadrupole_moment_norm": 9.79457819868, 
			 "total_energy": -1226.65207471, 
			 "HOMO_LUMO_gap": 0.21262, 
			 "cosmo_polarized_energy": -6.48, 
			 "cosmo_cavitation_energy": 20.64, 
			 "cosmo_dispersion_energy": -16.0, 
			 "cosmo_repulsion_energy": 1.31, 
			 "cosmo_total_nonelectrostatic_energy": 5.95, 
			 "SMD_solvation_energy": 3.43 
		},
		"coords": [
			{
				"x": -0.8508599289,
				"y": -3.5221157283,
				"z": -0.9054122324,
				"element": "O" 
			},
			{
				"x": -0.1091948224,
				"y": -2.4452635543,
				"z": -0.5739267472,
				"element": "C" 
			},
			{
				"x": -0.6173659491,
				"y": -1.3387098727,
				"z": 0.1271554244,
				"element": "C" 
			},
			{
				"x": -2.3181480634,
				"y": -1.3739204844,
				"z": 0.5920212996,
				"element": "Cl" 
			},
			{
				"x": 0.1727735445,
				"y": -0.2413948501,
				"z": 0.455182912,
				"element": "C" 
			},
			{
				"x": 1.514462928,
				"y": -0.2330621481,
				"z": 0.0786624207,
				"element": "C" 
			},
			{
				"x": 2.0509342975,
				"y": -1.3160424633,
				"z": -0.6185900984,
				"element": "C" 
			},
			{
				"x": 1.2478291232,
				"y": -2.4070389302,
				"z": -0.939755727,
				"element": "C" 
			},
			{
				"x": 1.923134359,
				"y": -3.7622968369,
				"z": -1.8134426827,
				"element": "Cl" 
			},
			{
				"x": -1.755401131,
				"y": -3.3891092864,
				"z": -0.5818134276,
				"element": "H" 
			},
			{
				"x": -0.2649037557,
				"y": 0.5891008961,
				"z": 0.9973491057,
				"element": "H" 
			},
			{
				"x": 2.1417575091,
				"y": 0.6160462883,
				"z": 0.3279977118,
				"element": "H" 
			},
			{
				"x": 3.0927818893,
				"y": -1.3243930296,
				"z": -0.9184279589,
				"element": "H" 
			}
		],
		 "valence_orbital": [ 
			{
				"type": "occ",
				"energy": -0.3403,
				"method": "rhf"
			},
			{
				"type": "occ",
				"energy": -0.32776,
				"method": "rhf"
			},
			{
				"type": "occ",
				"energy": -0.31354,
				"method": "rhf"
			},
			{
				"type": "occ",
				"energy": -0.25511,
				"method": "rhf"
			},
			{
				"type": "occ",
				"energy": -0.23817,
				"method": "rhf"
			},
			{
				"type": "unocc",
				"energy": -0.02555,
				"method": "rhf"
			},
			{
				"type": "unocc",
				"energy": -0.01021,
				"method": "rhf"
			},
			{
				"type": "unocc",
				"energy": -0.00146,
				"method": "rhf"
			},
			{
				"type": "unocc",
				"energy": 0.04738,
				"method": "rhf"
			},
			{
				"type": "unocc",
				"energy": 0.08304,
				"method": "rhf"
			}
		],
		"cosmo_sigma_profile": { 
			"-0.025": 0.0,
			"-0.024": 0.0,
			"-0.023": 0.0,
			"-0.022": 0.0,
			"-0.021": 0.0,
			"-0.02": 0.0,
			"-0.019": 0.0,
			"-0.018": 0.0,
			"-0.017": 0.0145987151886,
			"-0.016": 0.45662928685,
			"-0.015": 0.466420089335,
			"-0.014": 0.660085106485,
			"-0.013": 0.359212776756,
			"-0.012": 0.780062796515,
			"-0.011": 1.09482575284,
			"-0.01": 1.18740746432,
			"-0.009": 0.788337615194,
			"-0.008": 2.55335405948,
			"-0.007": 6.96473649855,
			"-0.006": 7.1957215298,
			"-0.005": 7.84372936586,
			"-0.004": 5.91484692559,
			"-0.003": 7.17900802458,
			"-0.002": 10.0797443503,
			"-0.001": 11.0829605841,
			"0.0": 14.0120200997,
			"0.001": 21.1663878925,
			"0.002": 18.8401858179,
			"0.003": 20.0465399618,
			"0.004": 15.6477362829,
			"0.005": 5.90939795861,
			"0.006": 2.01205427168,
			"0.007": 2.02553209335,
			"0.008": 1.61465586509,
			"0.009": 2.53156250629,
			"0.01": 1.77407496066,
			"0.011": 0.311055060672,
			"0.012": 0.0,
			"0.013": 0.0,
			"0.014": 0.0,
			"0.015": 0.0,
			"0.016": 0.0,
			"0.017": 0.0,
			"0.018": 0.0,
			"0.019": 0.0,
			"0.02": 0.0,
			"0.021": 0.0,
			"0.022": 0.0,
			"0.023": 0.0,
			"0.024": 0.0,
			"0.025": 0.0
		}
	}
}
