{
	 "smiles": "OC1=NC2=C(C=CC=C2O)C=C1", 
	 "Tm": 567.15, 
	 "num_atms": 19, 
	 "gaussian": { 
		 "optdone": 1, 
		 "sigma_profile": "yes", 
		 "theory": "DFT", 
		 "functional": "B3LYP", 
		 "basiset": "6-31G**", 
		 "properties": { 
			 "R2extent": 1895.9612, 
			 "electric_dipole_moment_norm": 1.46700584866, 
			 "electric_quadrupole_moment_norm": 8.92729712847, 
			 "total_energy": -552.394608899, 
			 "HOMO_LUMO_gap": 0.15869, 
			 "cosmo_polarized_energy": -9.05, 
			 "cosmo_cavitation_energy": 23.08, 
			 "cosmo_dispersion_energy": -17.73, 
			 "cosmo_repulsion_energy": 1.39, 
			 "cosmo_total_nonelectrostatic_energy": 6.75, 
			 "SMD_solvation_energy": 3.68 
		},
		"coords": [
			{
				"x": 1.876243068,
				"y": 2.1059426214,
				"z": -1.631948318,
				"element": "O" 
			},
			{
				"x": 1.3444349183,
				"y": 1.0435469002,
				"z": -0.9868640048,
				"element": "C" 
			},
			{
				"x": 0.0969519866,
				"y": 1.1055585017,
				"z": -0.5847738775,
				"element": "N" 
			},
			{
				"x": -0.4209632436,
				"y": 0.0202442334,
				"z": 0.0655462617,
				"element": "C" 
			},
			{
				"x": 0.3214569592,
				"y": -1.1643178593,
				"z": 0.3255307173,
				"element": "C" 
			},
			{
				"x": -0.3021908504,
				"y": -2.2391766165,
				"z": 1.0077730562,
				"element": "C" 
			},
			{
				"x": -1.6177116932,
				"y": -2.1215572656,
				"z": 1.4092343285,
				"element": "C" 
			},
			{
				"x": -2.3639685517,
				"y": -0.9489239168,
				"z": 1.1557413418,
				"element": "C" 
			},
			{
				"x": -1.778300638,
				"y": 0.1130806343,
				"z": 0.4921187201,
				"element": "C" 
			},
			{
				"x": -2.4648429551,
				"y": 1.2505839981,
				"z": 0.2333697465,
				"element": "O" 
			},
			{
				"x": 1.6693308213,
				"y": -1.1736515977,
				"z": -0.1340623714,
				"element": "C" 
			},
			{
				"x": 2.1884940726,
				"y": -0.0853457594,
				"z": -0.7860846304,
				"element": "C" 
			},
			{
				"x": 1.1777196769,
				"y": 2.7769787307,
				"z": -1.6836060843,
				"element": "H" 
			},
			{
				"x": 0.2637947724,
				"y": -3.1445496567,
				"z": 1.2069773197,
				"element": "H" 
			},
			{
				"x": -2.09818409,
				"y": -2.9432789994,
				"z": 1.9321133699,
				"element": "H" 
			},
			{
				"x": -3.3974036885,
				"y": -0.8657641327,
				"z": 1.4751305445,
				"element": "H" 
			},
			{
				"x": -1.8352733903,
				"y": 1.8296935502,
				"z": -0.235176689,
				"element": "H" 
			},
			{
				"x": 2.2834823921,
				"y": -2.053905157,
				"z": 0.0376400838,
				"element": "H" 
			},
			{
				"x": 3.2086304333,
				"y": -0.0545582088,
				"z": -1.1503595147,
				"element": "H" 
			}
		],
		 "valence_orbital": [ 
			{
				"type": "occ",
				"energy": -0.31583,
				"method": "rhf"
			},
			{
				"type": "occ",
				"energy": -0.29482,
				"method": "rhf"
			},
			{
				"type": "occ",
				"energy": -0.28877,
				"method": "rhf"
			},
			{
				"type": "occ",
				"energy": -0.23966,
				"method": "rhf"
			},
			{
				"type": "occ",
				"energy": -0.2074,
				"method": "rhf"
			},
			{
				"type": "unocc",
				"energy": -0.04871,
				"method": "rhf"
			},
			{
				"type": "unocc",
				"energy": -0.00957,
				"method": "rhf"
			},
			{
				"type": "unocc",
				"energy": 0.0315,
				"method": "rhf"
			},
			{
				"type": "unocc",
				"energy": 0.07862,
				"method": "rhf"
			},
			{
				"type": "unocc",
				"energy": 0.09771,
				"method": "rhf"
			}
		],
		"cosmo_sigma_profile": { 
			"-0.025": 0.0,
			"-0.024": 0.0,
			"-0.023": 0.0,
			"-0.022": 0.0,
			"-0.021": 0.0,
			"-0.02": 0.0,
			"-0.019": 0.0,
			"-0.018": 0.1098254616,
			"-0.017": 0.819478153163,
			"-0.016": 0.783105225352,
			"-0.015": 0.571890570773,
			"-0.014": 0.783242685661,
			"-0.013": 0.661741651065,
			"-0.012": 0.705905209379,
			"-0.011": 1.56127101892,
			"-0.01": 1.07454760779,
			"-0.009": 1.34132436388,
			"-0.008": 2.3963467563,
			"-0.007": 5.51527142233,
			"-0.006": 10.6007457745,
			"-0.005": 11.7471750208,
			"-0.004": 9.87014215569,
			"-0.003": 9.53688413323,
			"-0.002": 8.90975721252,
			"-0.001": 8.51649899257,
			"0.0": 13.5761191593,
			"0.001": 18.0144943869,
			"0.002": 18.9883426406,
			"0.003": 15.0406269426,
			"0.004": 12.9160581591,
			"0.005": 11.6551683121,
			"0.006": 4.46865023198,
			"0.007": 2.09117113115,
			"0.008": 2.6737169232,
			"0.009": 3.00162388226,
			"0.01": 3.97501221157,
			"0.011": 2.16180588647,
			"0.012": 1.10390369235,
			"0.013": 0.0,
			"0.014": 0.0,
			"0.015": 0.0,
			"0.016": 0.0,
			"0.017": 0.0,
			"0.018": 0.0,
			"0.019": 0.0,
			"0.02": 0.0,
			"0.021": 0.0,
			"0.022": 0.0,
			"0.023": 0.0,
			"0.024": 0.0,
			"0.025": 0.0
		}
	}
}
