{
	 "smiles": "O=C1OC=CC2=C1N=CC=C2", 
	 "Tm": 431.15, 
	 "num_atms": 16, 
	 "gaussian": { 
		 "optdone": 1, 
		 "sigma_profile": "yes", 
		 "theory": "DFT", 
		 "functional": "B3LYP", 
		 "basiset": "6-31G**", 
		 "properties": { 
			 "R2extent": 1738.9996, 
			 "electric_dipole_moment_norm": 6.00804076218, 
			 "electric_quadrupole_moment_norm": 12.9116610732, 
			 "total_energy": -513.049214768, 
			 "HOMO_LUMO_gap": 0.17332, 
			 "cosmo_polarized_energy": -15.34, 
			 "cosmo_cavitation_energy": 20.86, 
			 "cosmo_dispersion_energy": -15.85, 
			 "cosmo_repulsion_energy": 1.25, 
			 "cosmo_total_nonelectrostatic_energy": 6.25, 
			 "SMD_solvation_energy": 3.92 
		},
		"coords": [
			{
				"x": -2.7712827531,
				"y": -0.1704840461,
				"z": -0.6025990705,
				"element": "O" 
			},
			{
				"x": -1.6436788258,
				"y": 0.0079920404,
				"z": -0.9751843666,
				"element": "C" 
			},
			{
				"x": -1.2442242758,
				"y": -0.6158595086,
				"z": -2.1672865374,
				"element": "O" 
			},
			{
				"x": 0.0028258326,
				"y": -0.484129914,
				"z": -2.6817702693,
				"element": "C" 
			},
			{
				"x": 0.9738577137,
				"y": 0.2493263289,
				"z": -2.1096409996,
				"element": "C" 
			},
			{
				"x": 0.6903873556,
				"y": 0.943234463,
				"z": -0.8768368182,
				"element": "C" 
			},
			{
				"x": -0.5995845796,
				"y": 0.8306077947,
				"z": -0.308203946,
				"element": "C" 
			},
			{
				"x": -0.9671480649,
				"y": 1.4338903094,
				"z": 0.8330125007,
				"element": "N" 
			},
			{
				"x": -0.061167348,
				"y": 2.1778250385,
				"z": 1.4583441674,
				"element": "C" 
			},
			{
				"x": 1.2502043107,
				"y": 2.3608299754,
				"z": 0.9859790526,
				"element": "C" 
			},
			{
				"x": 1.6285955065,
				"y": 1.7384336531,
				"z": -0.1909575484,
				"element": "C" 
			},
			{
				"x": 0.1135203628,
				"y": -1.0415578729,
				"z": -3.6049463809,
				"element": "H" 
			},
			{
				"x": 1.9514184779,
				"y": 0.3134296162,
				"z": -2.5733344301,
				"element": "H" 
			},
			{
				"x": -0.3829866119,
				"y": 2.6564521962,
				"z": 2.3811521255,
				"element": "H" 
			},
			{
				"x": 1.9469851111,
				"y": 2.9811123495,
				"z": 1.5411132533,
				"element": "H" 
			},
			{
				"x": 2.6325777882,
				"y": 1.8543975763,
				"z": -0.5898407323,
				"element": "H" 
			}
		],
		 "valence_orbital": [ 
			{
				"type": "occ",
				"energy": -0.32147,
				"method": "rhf"
			},
			{
				"type": "occ",
				"energy": -0.29569,
				"method": "rhf"
			},
			{
				"type": "occ",
				"energy": -0.27863,
				"method": "rhf"
			},
			{
				"type": "occ",
				"energy": -0.26929,
				"method": "rhf"
			},
			{
				"type": "occ",
				"energy": -0.23907,
				"method": "rhf"
			},
			{
				"type": "unocc",
				"energy": -0.06575,
				"method": "rhf"
			},
			{
				"type": "unocc",
				"energy": -0.05313,
				"method": "rhf"
			},
			{
				"type": "unocc",
				"energy": 0.02011,
				"method": "rhf"
			},
			{
				"type": "unocc",
				"energy": 0.05469,
				"method": "rhf"
			},
			{
				"type": "unocc",
				"energy": 0.08198,
				"method": "rhf"
			}
		],
		"cosmo_sigma_profile": { 
			"-0.025": 0.0,
			"-0.024": 0.0,
			"-0.023": 0.0,
			"-0.022": 0.0,
			"-0.021": 0.0,
			"-0.02": 0.0,
			"-0.019": 0.0,
			"-0.018": 0.0,
			"-0.017": 0.0,
			"-0.016": 0.0,
			"-0.015": 0.0,
			"-0.014": 0.0,
			"-0.013": 0.0,
			"-0.012": 0.0,
			"-0.011": 0.0,
			"-0.01": 0.815862807698,
			"-0.009": 3.54964964089,
			"-0.008": 9.15171232208,
			"-0.007": 12.3001353244,
			"-0.006": 10.7578161155,
			"-0.005": 9.66999627996,
			"-0.004": 9.33248285483,
			"-0.003": 7.98499684161,
			"-0.002": 9.8743952714,
			"-0.001": 15.2779833105,
			"0.0": 18.46223503,
			"0.001": 12.4827917559,
			"0.002": 6.89450099387,
			"0.003": 3.59821627676,
			"0.004": 2.92493999343,
			"0.005": 2.64326412807,
			"0.006": 3.0487942005,
			"0.007": 3.07535154999,
			"0.008": 3.48193760535,
			"0.009": 2.73348220452,
			"0.01": 3.65329036225,
			"0.011": 6.3890074519,
			"0.012": 4.90110084977,
			"0.013": 1.80817045957,
			"0.014": 1.01013001599,
			"0.015": 1.60879501342,
			"0.016": 1.0645092277,
			"0.017": 0.567342942055,
			"0.018": 0.0,
			"0.019": 0.0,
			"0.02": 0.0,
			"0.021": 0.0,
			"0.022": 0.0,
			"0.023": 0.0,
			"0.024": 0.0,
			"0.025": 0.0
		}
	}
}
