{
	 "smiles": "NC1=C(C=CC=C1)C(=O)NC1=CC=C(F)C=C1", 
	 "Tm": 383.15, 
	 "num_atms": 28, 
	 "gaussian": { 
		 "optdone": 1, 
		 "sigma_profile": "yes", 
		 "theory": "DFT", 
		 "functional": "B3LYP", 
		 "basiset": "6-31G**", 
		 "properties": { 
			 "R2extent": 4798.5097, 
			 "electric_dipole_moment_norm": 0.710709152889, 
			 "electric_quadrupole_moment_norm": 12.7736630572, 
			 "total_energy": -786.595464865, 
			 "HOMO_LUMO_gap": 0.16357, 
			 "cosmo_polarized_energy": -12.07, 
			 "cosmo_cavitation_energy": 32.48, 
			 "cosmo_dispersion_energy": -23.17, 
			 "cosmo_repulsion_energy": 1.78, 
			 "cosmo_total_nonelectrostatic_energy": 11.09, 
			 "SMD_solvation_energy": 6.31 
		},
		"coords": [
			{
				"x": -0.3957587071,
				"y": 1.2780494563,
				"z": 4.42672524,
				"element": "N" 
			},
			{
				"x": -0.4125024915,
				"y": 1.8278085688,
				"z": 3.1663645302,
				"element": "C" 
			},
			{
				"x": 0.362802408,
				"y": 1.282545617,
				"z": 2.1010533308,
				"element": "C" 
			},
			{
				"x": 0.317569814,
				"y": 1.8995122647,
				"z": 0.8372700832,
				"element": "C" 
			},
			{
				"x": -0.4919077111,
				"y": 2.9985186024,
				"z": 0.5865727577,
				"element": "C" 
			},
			{
				"x": -1.290559932,
				"y": 3.4996146727,
				"z": 1.6229526804,
				"element": "C" 
			},
			{
				"x": -1.252461587,
				"y": 2.927622277,
				"z": 2.8849670562,
				"element": "C" 
			},
			{
				"x": 1.2786503453,
				"y": 0.1429993393,
				"z": 2.3692280559,
				"element": "C" 
			},
			{
				"x": 1.7765247723,
				"y": -0.0621409067,
				"z": 3.4828062236,
				"element": "O" 
			},
			{
				"x": 1.6558834423,
				"y": -0.6950853985,
				"z": 1.3300782175,
				"element": "N" 
			},
			{
				"x": 0.9601966115,
				"y": -1.0924240873,
				"z": 0.1571972918,
				"element": "C" 
			},
			{
				"x": -0.4387056973,
				"y": -1.1837876438,
				"z": 0.1088456625,
				"element": "C" 
			},
			{
				"x": -1.0759021854,
				"y": -1.6108723495,
				"z": -1.0541513223,
				"element": "C" 
			},
			{
				"x": -0.307269271,
				"y": -1.9749700573,
				"z": -2.1543079858,
				"element": "C" 
			},
			{
				"x": -0.9251971227,
				"y": -2.401037678,
				"z": -3.276197592,
				"element": "F" 
			},
			{
				"x": 1.0807624112,
				"y": -1.9159445378,
				"z": -2.1261913916,
				"element": "C" 
			},
			{
				"x": 1.7101872668,
				"y": -1.462233356,
				"z": -0.9679503555,
				"element": "C" 
			},
			{
				"x": 0.4372174018,
				"y": 0.7433712977,
				"z": 4.6455620471,
				"element": "H" 
			},
			{
				"x": -0.7771266377,
				"y": 1.8440015417,
				"z": 5.1692459984,
				"element": "H" 
			},
			{
				"x": 0.9474898559,
				"y": 1.5112316386,
				"z": 0.0448742324,
				"element": "H" 
			},
			{
				"x": -0.502000893,
				"y": 3.4610708476,
				"z": -0.3946932724,
				"element": "H" 
			},
			{
				"x": -1.9382233214,
				"y": 4.354177262,
				"z": 1.4462214811,
				"element": "H" 
			},
			{
				"x": -1.8630440326,
				"y": 3.3342872699,
				"z": 3.6874626854,
				"element": "H" 
			},
			{
				"x": 2.3921245082,
				"y": -1.3208573328,
				"z": 1.6364928744,
				"element": "H" 
			},
			{
				"x": -1.027253515,
				"y": -0.919189351,
				"z": 0.9796024078,
				"element": "H" 
			},
			{
				"x": -2.156738962,
				"y": -1.6817828565,
				"z": -1.1087804742,
				"element": "H" 
			},
			{
				"x": 1.6498210203,
				"y": -2.2091501307,
				"z": -3.0015833757,
				"element": "H" 
			},
			{
				"x": 2.7932222092,
				"y": -1.3886349697,
				"z": -0.9333670868,
				"element": "H" 
			}
		],
		 "valence_orbital": [ 
			{
				"type": "occ",
				"energy": -0.26945,
				"method": "rhf"
			},
			{
				"type": "occ",
				"energy": -0.26129,
				"method": "rhf"
			},
			{
				"type": "occ",
				"energy": -0.25011,
				"method": "rhf"
			},
			{
				"type": "occ",
				"energy": -0.22504,
				"method": "rhf"
			},
			{
				"type": "occ",
				"energy": -0.20265,
				"method": "rhf"
			},
			{
				"type": "unocc",
				"energy": -0.03908,
				"method": "rhf"
			},
			{
				"type": "unocc",
				"energy": -0.01944,
				"method": "rhf"
			},
			{
				"type": "unocc",
				"energy": -0.00229,
				"method": "rhf"
			},
			{
				"type": "unocc",
				"energy": 0.01574,
				"method": "rhf"
			},
			{
				"type": "unocc",
				"energy": 0.05663,
				"method": "rhf"
			}
		],
		"cosmo_sigma_profile": { 
			"-0.025": 0.0,
			"-0.024": 0.0,
			"-0.023": 0.0,
			"-0.022": 0.0,
			"-0.021": 0.0,
			"-0.02": 0.0,
			"-0.019": 0.0,
			"-0.018": 0.0,
			"-0.017": 0.0,
			"-0.016": 0.0,
			"-0.015": 0.0,
			"-0.014": 0.899765109514,
			"-0.013": 1.34173636443,
			"-0.012": 1.98288260795,
			"-0.011": 2.65156232867,
			"-0.01": 2.1131214284,
			"-0.009": 3.01853514789,
			"-0.008": 3.98323518769,
			"-0.007": 9.57379032131,
			"-0.006": 10.5356471398,
			"-0.005": 18.6484546152,
			"-0.004": 16.002928172,
			"-0.003": 14.0767201796,
			"-0.002": 14.4089409902,
			"-0.001": 13.3583903529,
			"0.0": 16.7463573961,
			"0.001": 20.9057282205,
			"0.002": 21.4523655088,
			"0.003": 23.4930438624,
			"0.004": 24.9557187148,
			"0.005": 15.1921771348,
			"0.006": 7.21369465663,
			"0.007": 2.83634446814,
			"0.008": 2.33089493832,
			"0.009": 1.4107115467,
			"0.01": 1.75247734876,
			"0.011": 3.10092036966,
			"0.012": 2.81665026589,
			"0.013": 2.69150528082,
			"0.014": 0.481274536299,
			"0.015": 0.0,
			"0.016": 0.0,
			"0.017": 0.0,
			"0.018": 0.0,
			"0.019": 0.0,
			"0.02": 0.0,
			"0.021": 0.0,
			"0.022": 0.0,
			"0.023": 0.0,
			"0.024": 0.0,
			"0.025": 0.0
		}
	}
}
