{
	 "smiles": "OC(=O)C1=C(Br)C=CC(=C1)S(=O)(=O)N1CCOCC1", 
	 "Tm": 462.15, 
	 "num_atms": 31, 
	 "gaussian": { 
		 "optdone": 1, 
		 "sigma_profile": "yes", 
		 "theory": "DFT", 
		 "functional": "B3LYP", 
		 "basiset": "6-31G**", 
		 "properties": { 
			 "R2extent": 9808.7613, 
			 "electric_dipole_moment_norm": 5.25701286474, 
			 "electric_quadrupole_moment_norm": 30.3443374523, 
			 "total_energy": -3826.76892224, 
			 "HOMO_LUMO_gap": 0.178, 
			 "cosmo_polarized_energy": -21.45, 
			 "cosmo_cavitation_energy": 37.53, 
			 "cosmo_dispersion_energy": -27.33, 
			 "cosmo_repulsion_energy": 2.05, 
			 "cosmo_total_nonelectrostatic_energy": 12.25, 
			 "SMD_solvation_energy": 4.54 
		},
		"coords": [
			{
				"x": -2.6382802333,
				"y": 4.1251874542,
				"z": -0.4814434058,
				"element": "O" 
			},
			{
				"x": -1.8882819389,
				"y": 3.1876400362,
				"z": 0.1157841472,
				"element": "C" 
			},
			{
				"x": -0.7776314964,
				"y": 3.4597360862,
				"z": 0.5113414216,
				"element": "O" 
			},
			{
				"x": -2.4516856387,
				"y": 1.7890265249,
				"z": 0.3235171239,
				"element": "C" 
			},
			{
				"x": -3.5615121601,
				"y": 1.1716654689,
				"z": -0.2803910869,
				"element": "C" 
			},
			{
				"x": -4.6730259722,
				"y": 2.041975679,
				"z": -1.5879155217,
				"element": "Br" 
			},
			{
				"x": -3.9309222626,
				"y": -0.1396949153,
				"z": 0.0257833467,
				"element": "C" 
			},
			{
				"x": -3.1945178213,
				"y": -0.8755045523,
				"z": 0.9488748371,
				"element": "C" 
			},
			{
				"x": -2.0833148405,
				"y": -0.2846056561,
				"z": 1.5539951614,
				"element": "C" 
			},
			{
				"x": -1.7237413812,
				"y": 1.0232042428,
				"z": 1.2501633233,
				"element": "C" 
			},
			{
				"x": -1.0906778565,
				"y": -1.2382360841,
				"z": 2.7236383766,
				"element": "S" 
			},
			{
				"x": -1.9377520075,
				"y": -2.3502292867,
				"z": 3.1582837197,
				"element": "O" 
			},
			{
				"x": -0.4896902967,
				"y": -0.2818625848,
				"z": 3.6522298859,
				"element": "O" 
			},
			{
				"x": 0.1604919361,
				"y": -1.9147495979,
				"z": 1.8532022454,
				"element": "N" 
			},
			{
				"x": -0.156855077,
				"y": -3.0128220841,
				"z": 0.9208068328,
				"element": "C" 
			},
			{
				"x": 1.1412772968,
				"y": -3.4603800833,
				"z": 0.2547704014,
				"element": "C" 
			},
			{
				"x": 1.7552617969,
				"y": -2.428221522,
				"z": -0.5071543001,
				"element": "O" 
			},
			{
				"x": 1.6172599715,
				"y": -1.1139883591,
				"z": 0.0349267244,
				"element": "C" 
			},
			{
				"x": 1.3654478877,
				"y": -1.118954757,
				"z": 1.5398890111,
				"element": "C" 
			},
			{
				"x": -3.4968667373,
				"y": 3.7755284994,
				"z": -0.7760161335,
				"element": "H" 
			},
			{
				"x": -4.7972357805,
				"y": -0.5777908027,
				"z": -0.4558168076,
				"element": "H" 
			},
			{
				"x": -3.4888273727,
				"y": -1.8839016315,
				"z": 1.2173897944,
				"element": "H" 
			},
			{
				"x": -0.8786365765,
				"y": 1.4979251777,
				"z": 1.7345307317,
				"element": "H" 
			},
			{
				"x": -0.6048854937,
				"y": -3.8390476663,
				"z": 1.4778510424,
				"element": "H" 
			},
			{
				"x": -0.8680000847,
				"y": -2.6921729542,
				"z": 0.1441163559,
				"element": "H" 
			},
			{
				"x": 0.9308862092,
				"y": -4.2794799333,
				"z": -0.439465418,
				"element": "H" 
			},
			{
				"x": 1.8308641338,
				"y": -3.8410873737,
				"z": 1.0234785017,
				"element": "H" 
			},
			{
				"x": 0.7949590331,
				"y": -0.5873210769,
				"z": -0.472592601,
				"element": "H" 
			},
			{
				"x": 2.5444216329,
				"y": -0.5737738301,
				"z": -0.1847768174,
				"element": "H" 
			},
			{
				"x": 1.2430000556,
				"y": -0.1010259629,
				"z": 1.9142009926,
				"element": "H" 
			},
			{
				"x": 2.2235710748,
				"y": -1.5509384551,
				"z": 2.0679981147,
				"element": "H" 
			}
		],
		 "valence_orbital": [ 
			{
				"type": "occ",
				"energy": -0.30032,
				"method": "rhf"
			},
			{
				"type": "occ",
				"energy": -0.29122,
				"method": "rhf"
			},
			{
				"type": "occ",
				"energy": -0.28783,
				"method": "rhf"
			},
			{
				"type": "occ",
				"energy": -0.26832,
				"method": "rhf"
			},
			{
				"type": "occ",
				"energy": -0.25877,
				"method": "rhf"
			},
			{
				"type": "unocc",
				"energy": -0.08077,
				"method": "rhf"
			},
			{
				"type": "unocc",
				"energy": -0.06116,
				"method": "rhf"
			},
			{
				"type": "unocc",
				"energy": -0.03879,
				"method": "rhf"
			},
			{
				"type": "unocc",
				"energy": 0.01847,
				"method": "rhf"
			},
			{
				"type": "unocc",
				"energy": 0.04762,
				"method": "rhf"
			}
		],
		"cosmo_sigma_profile": { 
			"-0.025": 0.0,
			"-0.024": 0.0,
			"-0.023": 0.0,
			"-0.022": 0.0,
			"-0.021": 0.0,
			"-0.02": 0.0,
			"-0.019": 0.0,
			"-0.018": 0.0,
			"-0.017": 0.0,
			"-0.016": 0.0,
			"-0.015": 0.0,
			"-0.014": 0.0201234717385,
			"-0.013": 0.29255800737,
			"-0.012": 0.578661412853,
			"-0.011": 1.7596334811,
			"-0.01": 0.896699131893,
			"-0.009": 2.92767618043,
			"-0.008": 6.82292493772,
			"-0.007": 8.56230214981,
			"-0.006": 21.9506576069,
			"-0.005": 31.2726773503,
			"-0.004": 28.3183451146,
			"-0.003": 24.422827188,
			"-0.002": 21.2927187541,
			"-0.001": 24.6909402712,
			"0.0": 16.9070014932,
			"0.001": 13.6015743623,
			"0.002": 12.2576232227,
			"0.003": 8.65151793823,
			"0.004": 6.57257265806,
			"0.005": 6.59147467433,
			"0.006": 6.55451992743,
			"0.007": 6.66232204856,
			"0.008": 7.69732256967,
			"0.009": 9.27012995448,
			"0.01": 13.3505871257,
			"0.011": 12.7193677645,
			"0.012": 5.05754406979,
			"0.013": 2.17760384993,
			"0.014": 0.0139137071607,
			"0.015": 0.0,
			"0.016": 0.0,
			"0.017": 0.0,
			"0.018": 0.0,
			"0.019": 0.0,
			"0.02": 0.0,
			"0.021": 0.0,
			"0.022": 0.0,
			"0.023": 0.0,
			"0.024": 0.0,
			"0.025": 0.0
		}
	}
}
