{
	 "smiles": "COC1=C(N)N=C(C)C=C1", 
	 "Tm": 361.15, 
	 "num_atms": 20, 
	 "gaussian": { 
		 "optdone": 1, 
		 "sigma_profile": "yes", 
		 "theory": "DFT", 
		 "functional": "B3LYP", 
		 "basiset": "6-31G**", 
		 "properties": { 
			 "R2extent": 2531.3035, 
			 "electric_dipole_moment_norm": 2.62100579168, 
			 "electric_quadrupole_moment_norm": 11.82180289, 
			 "total_energy": -457.499714314, 
			 "HOMO_LUMO_gap": 0.1916, 
			 "cosmo_polarized_energy": -9.48, 
			 "cosmo_cavitation_energy": 23.32, 
			 "cosmo_dispersion_energy": -17.57, 
			 "cosmo_repulsion_energy": 1.44, 
			 "cosmo_total_nonelectrostatic_energy": 7.2, 
			 "SMD_solvation_energy": 3.5 
		},
		"coords": [
			{
				"x": -1.8135939189,
				"y": -1.1055378141,
				"z": 4.113633628,
				"element": "C" 
			},
			{
				"x": -1.645373043,
				"y": 0.1986735699,
				"z": 3.5835466447,
				"element": "O" 
			},
			{
				"x": -1.0356123662,
				"y": 0.3120986365,
				"z": 2.3591533689,
				"element": "C" 
			},
			{
				"x": -0.8800262687,
				"y": 1.6433550953,
				"z": 1.8821958408,
				"element": "C" 
			},
			{
				"x": -1.3938435336,
				"y": 2.6900607011,
				"z": 2.6197243105,
				"element": "N" 
			},
			{
				"x": -0.2855145952,
				"y": 1.9206044307,
				"z": 0.7255885158,
				"element": "N" 
			},
			{
				"x": 0.1724822313,
				"y": 0.9081886161,
				"z": -0.0416174696,
				"element": "C" 
			},
			{
				"x": 0.8261649012,
				"y": 1.3079261033,
				"z": -1.3409807569,
				"element": "C" 
			},
			{
				"x": 0.0515040882,
				"y": -0.4210483754,
				"z": 0.3460594345,
				"element": "C" 
			},
			{
				"x": -0.5605427078,
				"y": -0.7232582452,
				"z": 1.5750786379,
				"element": "C" 
			},
			{
				"x": -2.3085850108,
				"y": -0.9825544895,
				"z": 5.0782793455,
				"element": "H" 
			},
			{
				"x": -2.4420881784,
				"y": -1.7261948923,
				"z": 3.4617637962,
				"element": "H" 
			},
			{
				"x": -0.8487520331,
				"y": -1.6081604163,
				"z": 4.262965538,
				"element": "H" 
			},
			{
				"x": -1.0243582897,
				"y": 3.5954248425,
				"z": 2.3688036347,
				"element": "H" 
			},
			{
				"x": -1.5304295188,
				"y": 2.5186953739,
				"z": 3.6043971558,
				"element": "H" 
			},
			{
				"x": 0.1214205645,
				"y": 1.8590527584,
				"z": -1.9731753167,
				"element": "H" 
			},
			{
				"x": 1.6755571599,
				"y": 1.9744476787,
				"z": -1.1559166151,
				"element": "H" 
			},
			{
				"x": 1.1830282931,
				"y": 0.437015445,
				"z": -1.8972985584,
				"element": "H" 
			},
			{
				"x": 0.4293711231,
				"y": -1.2183792297,
				"z": -0.285313468,
				"element": "H" 
			},
			{
				"x": -0.6538088971,
				"y": -1.7550097889,
				"z": 1.8955123333,
				"element": "H" 
			}
		],
		 "valence_orbital": [ 
			{
				"type": "occ",
				"energy": -0.32676,
				"method": "rhf"
			},
			{
				"type": "occ",
				"energy": -0.30034,
				"method": "rhf"
			},
			{
				"type": "occ",
				"energy": -0.2467,
				"method": "rhf"
			},
			{
				"type": "occ",
				"energy": -0.24416,
				"method": "rhf"
			},
			{
				"type": "occ",
				"energy": -0.19019,
				"method": "rhf"
			},
			{
				"type": "unocc",
				"energy": 0.00141,
				"method": "rhf"
			},
			{
				"type": "unocc",
				"energy": 0.02585,
				"method": "rhf"
			},
			{
				"type": "unocc",
				"energy": 0.09288,
				"method": "rhf"
			},
			{
				"type": "unocc",
				"energy": 0.09774,
				"method": "rhf"
			},
			{
				"type": "unocc",
				"energy": 0.11816,
				"method": "rhf"
			}
		],
		"cosmo_sigma_profile": { 
			"-0.025": 0.0,
			"-0.024": 0.0,
			"-0.023": 0.0,
			"-0.022": 0.0,
			"-0.021": 0.0,
			"-0.02": 0.0,
			"-0.019": 0.0,
			"-0.018": 0.0,
			"-0.017": 0.0,
			"-0.016": 0.0,
			"-0.015": 0.0,
			"-0.014": 0.0,
			"-0.013": 0.0917845847582,
			"-0.012": 1.23020780894,
			"-0.011": 1.48216141956,
			"-0.01": 1.92593865707,
			"-0.009": 2.35446571296,
			"-0.008": 2.14464728735,
			"-0.007": 1.50675492678,
			"-0.006": 7.317648595,
			"-0.005": 14.4303397484,
			"-0.004": 17.6360540532,
			"-0.003": 17.7970356972,
			"-0.002": 13.2841487438,
			"-0.001": 11.1662779446,
			"0.0": 13.2793833952,
			"0.001": 12.6033894061,
			"0.002": 9.5995228691,
			"0.003": 10.9567575254,
			"0.004": 11.1938320937,
			"0.005": 9.61029491424,
			"0.006": 6.18864032722,
			"0.007": 3.44803934852,
			"0.008": 3.88233180311,
			"0.009": 2.3581304073,
			"0.01": 1.92288588267,
			"0.011": 1.65419623329,
			"0.012": 1.61019873404,
			"0.013": 1.65535123003,
			"0.014": 0.618830451945,
			"0.015": 0.594043991147,
			"0.016": 0.577386536061,
			"0.017": 0.015601149201,
			"0.018": 0.0,
			"0.019": 0.0,
			"0.02": 0.0,
			"0.021": 0.0,
			"0.022": 0.0,
			"0.023": 0.0,
			"0.024": 0.0,
			"0.025": 0.0
		}
	}
}
