{
	 "smiles": "OC(=O)CC1CSCCS1", 
	 "Tm": 351.15, 
	 "num_atms": 20, 
	 "gaussian": { 
		 "optdone": 1, 
		 "sigma_profile": "yes", 
		 "theory": "DFT", 
		 "functional": "B3LYP", 
		 "basiset": "6-31G**", 
		 "properties": { 
			 "R2extent": 2733.7376, 
			 "electric_dipole_moment_norm": 3.70038283155, 
			 "electric_quadrupole_moment_norm": 14.0460978759, 
			 "total_energy": -1181.49346645, 
			 "HOMO_LUMO_gap": 0.23026, 
			 "cosmo_polarized_energy": -16.3, 
			 "cosmo_cavitation_energy": 24.97, 
			 "cosmo_dispersion_energy": -19.44, 
			 "cosmo_repulsion_energy": 1.48, 
			 "cosmo_total_nonelectrostatic_energy": 7.02, 
			 "SMD_solvation_energy": 4.02 
		},
		"coords": [
			{
				"x": 3.2549196444,
				"y": 1.0774031974,
				"z": 0.0951563,
				"element": "O" 
			},
			{
				"x": 2.7369546531,
				"y": -0.1356405443,
				"z": -0.2286875041,
				"element": "C" 
			},
			{
				"x": 3.4552951377,
				"y": -1.104765331,
				"z": -0.2740609526,
				"element": "O" 
			},
			{
				"x": 1.2418069106,
				"y": -0.1431926618,
				"z": -0.5295487386,
				"element": "C" 
			},
			{
				"x": 0.7011596314,
				"y": -1.5474154612,
				"z": -0.8253475964,
				"element": "C" 
			},
			{
				"x": 0.68435953,
				"y": -2.4722864435,
				"z": 0.3963977239,
				"element": "C" 
			},
			{
				"x": -0.333814493,
				"y": -1.9037616011,
				"z": 1.8161921599,
				"element": "S" 
			},
			{
				"x": -1.9772139283,
				"y": -1.6208982737,
				"z": 1.0074530659,
				"element": "C" 
			},
			{
				"x": -2.0742345127,
				"y": -2.2217143305,
				"z": -0.3900480293,
				"element": "C" 
			},
			{
				"x": -0.9750030974,
				"y": -1.4324134604,
				"z": -1.6327670145,
				"element": "S" 
			},
			{
				"x": 2.557793406,
				"y": 1.7490305627,
				"z": 0.1041530735,
				"element": "H" 
			},
			{
				"x": 1.0662584102,
				"y": 0.5146714651,
				"z": -1.3900277537,
				"element": "H" 
			},
			{
				"x": 0.700835923,
				"y": 0.2942467319,
				"z": 0.3189201254,
				"element": "H" 
			},
			{
				"x": 1.3546651304,
				"y": -2.0140168643,
				"z": -1.56815945,
				"element": "H" 
			},
			{
				"x": 0.3818037892,
				"y": -3.4791711867,
				"z": 0.09914726,
				"element": "H" 
			},
			{
				"x": 1.6994695441,
				"y": -2.5415789183,
				"z": 0.7953796813,
				"element": "H" 
			},
			{
				"x": -2.7270539933,
				"y": -2.0782781156,
				"z": 1.6607724179,
				"element": "H" 
			},
			{
				"x": -2.1669684332,
				"y": -0.5453125118,
				"z": 0.9640861283,
				"element": "H" 
			},
			{
				"x": -1.9081935949,
				"y": -3.3023028014,
				"z": -0.3680405289,
				"element": "H" 
			},
			{
				"x": -3.0787396572,
				"y": -2.0556034516,
				"z": -0.7921703679,
				"element": "H" 
			}
		],
		 "valence_orbital": [ 
			{
				"type": "occ",
				"energy": -0.32126,
				"method": "rhf"
			},
			{
				"type": "occ",
				"energy": -0.30287,
				"method": "rhf"
			},
			{
				"type": "occ",
				"energy": -0.28008,
				"method": "rhf"
			},
			{
				"type": "occ",
				"energy": -0.2325,
				"method": "rhf"
			},
			{
				"type": "occ",
				"energy": -0.23022,
				"method": "rhf"
			},
			{
				"type": "unocc",
				"energy": 4e-05,
				"method": "rhf"
			},
			{
				"type": "unocc",
				"energy": 0.02211,
				"method": "rhf"
			},
			{
				"type": "unocc",
				"energy": 0.03674,
				"method": "rhf"
			},
			{
				"type": "unocc",
				"energy": 0.03997,
				"method": "rhf"
			},
			{
				"type": "unocc",
				"energy": 0.05243,
				"method": "rhf"
			}
		],
		"cosmo_sigma_profile": { 
			"-0.025": 0.0,
			"-0.024": 0.0,
			"-0.023": 0.0,
			"-0.022": 0.0,
			"-0.021": 0.0,
			"-0.02": 0.0,
			"-0.019": 0.862263075978,
			"-0.018": 1.2327190265,
			"-0.017": 1.12260908715,
			"-0.016": 1.36294725841,
			"-0.015": 0.586164361284,
			"-0.014": 1.09242497778,
			"-0.013": 0.79427384799,
			"-0.012": 1.27104400191,
			"-0.011": 1.56724475636,
			"-0.01": 1.15207744913,
			"-0.009": 1.09415964852,
			"-0.008": 2.24783228447,
			"-0.007": 4.99015222087,
			"-0.006": 12.587403456,
			"-0.005": 17.670335256,
			"-0.004": 17.729118439,
			"-0.003": 16.8305919434,
			"-0.002": 15.0779690895,
			"-0.001": 8.53651831167,
			"0.0": 7.07075512481,
			"0.001": 6.04354398097,
			"0.002": 7.96667515117,
			"0.003": 6.38709026148,
			"0.004": 6.87373265849,
			"0.005": 7.45298599458,
			"0.006": 9.32830402369,
			"0.007": 7.75732773491,
			"0.008": 7.02828864637,
			"0.009": 6.78406767315,
			"0.01": 8.00004417339,
			"0.011": 6.10713457391,
			"0.012": 3.67460329656,
			"0.013": 1.23071335759,
			"0.014": 0.0,
			"0.015": 0.0,
			"0.016": 0.0,
			"0.017": 0.0,
			"0.018": 0.0,
			"0.019": 0.0,
			"0.02": 0.0,
			"0.021": 0.0,
			"0.022": 0.0,
			"0.023": 0.0,
			"0.024": 0.0,
			"0.025": 0.0
		}
	}
}
