{
	 "smiles": "CCC(=O)N1C(=O)N(C2CCN(CCC(C#N)(C3=CC=CC=C3)C3=CC=CC=C3)CC2)C2=CC=CC=C12", 
	 "Tm": 420.15, 
	 "num_atms": 69, 
	 "gaussian": { 
		 "optdone": 1, 
		 "sigma_profile": "yes", 
		 "theory": "DFT", 
		 "functional": "B3LYP", 
		 "basiset": "6-31G**", 
		 "properties": { 
			 "R2extent": 23125.4189, 
			 "electric_dipole_moment_norm": 3.86885096508, 
			 "electric_quadrupole_moment_norm": 34.2985363291, 
			 "total_energy": -1570.05688898, 
			 "HOMO_LUMO_gap": 0.19003, 
			 "cosmo_polarized_energy": -19.99, 
			 "cosmo_cavitation_energy": 68.37, 
			 "cosmo_dispersion_energy": -43.03, 
			 "cosmo_repulsion_energy": 3.15, 
			 "cosmo_total_nonelectrostatic_energy": 28.48, 
			 "SMD_solvation_energy": 11.76 
		},
		"coords": [
			{
				"x": -6.2259880938,
				"y": 3.9819801975,
				"z": 0.0305262454,
				"element": "C" 
			},
			{
				"x": -6.4847042322,
				"y": 3.0831414736,
				"z": -1.1934662435,
				"element": "C" 
			},
			{
				"x": -5.4303524295,
				"y": 3.2689888078,
				"z": -2.2660469551,
				"element": "C" 
			},
			{
				"x": -5.6000033079,
				"y": 4.0151652806,
				"z": -3.2135350672,
				"element": "O" 
			},
			{
				"x": -4.2011722726,
				"y": 2.5745275072,
				"z": -2.1479730083,
				"element": "N" 
			},
			{
				"x": -3.8339511564,
				"y": 1.6484884558,
				"z": -1.1264896776,
				"element": "C" 
			},
			{
				"x": -4.4969168103,
				"y": 1.3182628875,
				"z": -0.1528238992,
				"element": "O" 
			},
			{
				"x": -2.5679962945,
				"y": 1.1995546623,
				"z": -1.4496942385,
				"element": "N" 
			},
			{
				"x": -1.8246830294,
				"y": 0.2200687718,
				"z": -0.644751684,
				"element": "C" 
			},
			{
				"x": -2.5519116757,
				"y": -1.1283608628,
				"z": -0.5390607657,
				"element": "C" 
			},
			{
				"x": -1.6331666578,
				"y": -2.1705463878,
				"z": 0.1400577188,
				"element": "C" 
			},
			{
				"x": -0.5936447478,
				"y": -1.5264610089,
				"z": 0.9535367419,
				"element": "N" 
			},
			{
				"x": 0.1566269079,
				"y": -2.4807137087,
				"z": 1.7628391213,
				"element": "C" 
			},
			{
				"x": 1.1652606811,
				"y": -3.3148310356,
				"z": 0.942743598,
				"element": "C" 
			},
			{
				"x": 2.634180698,
				"y": -2.7630329202,
				"z": 0.8796314046,
				"element": "C" 
			},
			{
				"x": 3.341200043,
				"y": -3.648221411,
				"z": -0.0761644765,
				"element": "C" 
			},
			{
				"x": 3.8678405153,
				"y": -4.3625443423,
				"z": -0.8254862451,
				"element": "N" 
			},
			{
				"x": 2.6410330039,
				"y": -1.3164593281,
				"z": 0.3304683952,
				"element": "C" 
			},
			{
				"x": 2.602600979,
				"y": -1.08073539,
				"z": -1.0498651044,
				"element": "C" 
			},
			{
				"x": 2.5487703169,
				"y": 0.2209099592,
				"z": -1.5498401669,
				"element": "C" 
			},
			{
				"x": 2.5268002302,
				"y": 1.3107062489,
				"z": -0.6770375141,
				"element": "C" 
			},
			{
				"x": 2.5693680439,
				"y": 1.084758056,
				"z": 0.6994629453,
				"element": "C" 
			},
			{
				"x": 2.6305810859,
				"y": -0.2175826651,
				"z": 1.1987398722,
				"element": "C" 
			},
			{
				"x": 3.4066739573,
				"y": -2.8843735306,
				"z": 2.2163949282,
				"element": "C" 
			},
			{
				"x": 4.7320309618,
				"y": -2.42231526,
				"z": 2.270383591,
				"element": "C" 
			},
			{
				"x": 5.4850563379,
				"y": -2.5396015829,
				"z": 3.4354487014,
				"element": "C" 
			},
			{
				"x": 4.9277339625,
				"y": -3.1234487449,
				"z": 4.576209036,
				"element": "C" 
			},
			{
				"x": 3.6168528252,
				"y": -3.5917094054,
				"z": 4.5331014087,
				"element": "C" 
			},
			{
				"x": 2.8628696483,
				"y": -3.4777152773,
				"z": 3.3605742804,
				"element": "C" 
			},
			{
				"x": -1.1509791964,
				"y": -0.406798328,
				"z": 1.7160787373,
				"element": "C" 
			},
			{
				"x": -1.495662753,
				"y": 0.7590952789,
				"z": 0.7640765305,
				"element": "C" 
			},
			{
				"x": -2.1224391256,
				"y": 1.8096943862,
				"z": -2.6267126806,
				"element": "C" 
			},
			{
				"x": -0.9248201497,
				"y": 1.6755513852,
				"z": -3.3207416162,
				"element": "C" 
			},
			{
				"x": -0.7651684085,
				"y": 2.4292841777,
				"z": -4.4885769886,
				"element": "C" 
			},
			{
				"x": -1.7735854089,
				"y": 3.2854239647,
				"z": -4.9384310537,
				"element": "C" 
			},
			{
				"x": -2.9786394994,
				"y": 3.4229803484,
				"z": -4.2387787085,
				"element": "C" 
			},
			{
				"x": -3.1366967061,
				"y": 2.6728268762,
				"z": -3.0774301757,
				"element": "C" 
			},
			{
				"x": -7.0634345837,
				"y": 3.9027137013,
				"z": 0.7297459315,
				"element": "H" 
			},
			{
				"x": -6.1293989349,
				"y": 5.0309025214,
				"z": -0.2661070647,
				"element": "H" 
			},
			{
				"x": -5.3205223076,
				"y": 3.6725715474,
				"z": 0.5569382509,
				"element": "H" 
			},
			{
				"x": -6.5375955756,
				"y": 2.0416796955,
				"z": -0.8743368557,
				"element": "H" 
			},
			{
				"x": -7.4235163666,
				"y": 3.3695622818,
				"z": -1.6743982312,
				"element": "H" 
			},
			{
				"x": -0.8846008068,
				"y": 0.0571951492,
				"z": -1.1745309585,
				"element": "H" 
			},
			{
				"x": -3.4701278824,
				"y": -0.9829169316,
				"z": 0.0352988566,
				"element": "H" 
			},
			{
				"x": -2.8464617193,
				"y": -1.4792790182,
				"z": -1.5331227202,
				"element": "H" 
			},
			{
				"x": -1.1459349615,
				"y": -2.7869627886,
				"z": -0.623626398,
				"element": "H" 
			},
			{
				"x": -2.2509259305,
				"y": -2.8561798813,
				"z": 0.7530096567,
				"element": "H" 
			},
			{
				"x": -0.5222900805,
				"y": -3.1770868421,
				"z": 2.2944006177,
				"element": "H" 
			},
			{
				"x": 0.684193471,
				"y": -1.9206852475,
				"z": 2.5394874445,
				"element": "H" 
			},
			{
				"x": 0.8113587632,
				"y": -3.3944208244,
				"z": -0.087636123,
				"element": "H" 
			},
			{
				"x": 1.2098345046,
				"y": -4.3393349796,
				"z": 1.3247162763,
				"element": "H" 
			},
			{
				"x": 2.6330704922,
				"y": -1.9176398696,
				"z": -1.7411867449,
				"element": "H" 
			},
			{
				"x": 2.5417365328,
				"y": 0.3817489754,
				"z": -2.6244197276,
				"element": "H" 
			},
			{
				"x": 2.491540749,
				"y": 2.3240758222,
				"z": -1.065962559,
				"element": "H" 
			},
			{
				"x": 2.5681515448,
				"y": 1.9233592358,
				"z": 1.3900773405,
				"element": "H" 
			},
			{
				"x": 2.686671157,
				"y": -0.3748138751,
				"z": 2.2705850954,
				"element": "H" 
			},
			{
				"x": 5.1753898274,
				"y": -1.9694165372,
				"z": 1.3886210198,
				"element": "H" 
			},
			{
				"x": 6.5090178211,
				"y": -2.1779478729,
				"z": 3.4514523489,
				"element": "H" 
			},
			{
				"x": 5.5130187389,
				"y": -3.2151677909,
				"z": 5.4863600579,
				"element": "H" 
			},
			{
				"x": 3.1722778282,
				"y": -4.0533251417,
				"z": 5.4100115872,
				"element": "H" 
			},
			{
				"x": 1.8502329646,
				"y": -3.8636701694,
				"z": 3.3574796475,
				"element": "H" 
			},
			{
				"x": -2.045750532,
				"y": -0.7094898244,
				"z": 2.2929141287,
				"element": "H" 
			},
			{
				"x": -0.4060684621,
				"y": -0.0765648755,
				"z": 2.4455704281,
				"element": "H" 
			},
			{
				"x": -2.3556135913,
				"y": 1.3089436373,
				"z": 1.1541102379,
				"element": "H" 
			},
			{
				"x": -0.6507364736,
				"y": 1.4504091514,
				"z": 0.6887826259,
				"element": "H" 
			},
			{
				"x": -0.1371719859,
				"y": 1.0179589425,
				"z": -2.9699993428,
				"element": "H" 
			},
			{
				"x": 0.1595187473,
				"y": 2.3438333937,
				"z": -5.0513507134,
				"element": "H" 
			},
			{
				"x": -1.6255464613,
				"y": 3.8591647005,
				"z": -5.8479393483,
				"element": "H" 
			},
			{
				"x": -3.7645147298,
				"y": 4.081926179,
				"z": -4.576511752,
				"element": "H" 
			}
		],
		 "valence_orbital": [ 
			{
				"type": "occ",
				"energy": -0.25985,
				"method": "rhf"
			},
			{
				"type": "occ",
				"energy": -0.25232,
				"method": "rhf"
			},
			{
				"type": "occ",
				"energy": -0.24261,
				"method": "rhf"
			},
			{
				"type": "occ",
				"energy": -0.21814,
				"method": "rhf"
			},
			{
				"type": "occ",
				"energy": -0.21623,
				"method": "rhf"
			},
			{
				"type": "unocc",
				"energy": -0.0262,
				"method": "rhf"
			},
			{
				"type": "unocc",
				"energy": -0.02474,
				"method": "rhf"
			},
			{
				"type": "unocc",
				"energy": -0.02093,
				"method": "rhf"
			},
			{
				"type": "unocc",
				"energy": -0.01652,
				"method": "rhf"
			},
			{
				"type": "unocc",
				"energy": -0.00935,
				"method": "rhf"
			}
		],
		"cosmo_sigma_profile": { 
			"-0.025": 0.0,
			"-0.024": 0.0,
			"-0.023": 0.0,
			"-0.022": 0.0,
			"-0.021": 0.0,
			"-0.02": 0.0,
			"-0.019": 0.0,
			"-0.018": 0.0,
			"-0.017": 0.0,
			"-0.016": 0.0,
			"-0.015": 0.0,
			"-0.014": 0.0,
			"-0.013": 0.0,
			"-0.012": 0.0,
			"-0.011": 0.0,
			"-0.01": 0.0,
			"-0.009": 0.0,
			"-0.008": 0.0,
			"-0.007": 1.16246006307,
			"-0.006": 17.993185003,
			"-0.005": 39.0335480584,
			"-0.004": 54.6970343625,
			"-0.003": 58.9125436662,
			"-0.002": 69.7482897259,
			"-0.001": 59.0108986038,
			"0.0": 43.7226668612,
			"0.001": 33.7592320571,
			"0.002": 27.9664292667,
			"0.003": 28.5101146353,
			"0.004": 28.786007303,
			"0.005": 25.7249367559,
			"0.006": 8.15079897986,
			"0.007": 6.64372197339,
			"0.008": 7.53412099959,
			"0.009": 6.51239584583,
			"0.01": 7.724829331,
			"0.011": 6.82343537172,
			"0.012": 6.4947375798,
			"0.013": 2.79886947873,
			"0.014": 0.24766689615,
			"0.015": 0.0,
			"0.016": 0.0,
			"0.017": 0.0,
			"0.018": 0.0,
			"0.019": 0.0,
			"0.02": 0.0,
			"0.021": 0.0,
			"0.022": 0.0,
			"0.023": 0.0,
			"0.024": 0.0,
			"0.025": 0.0
		}
	}
}
