{
	 "smiles": "NC1=C(Cl)N=C2C=CC=CC2=C1N", 
	 "Tm": 452.15, 
	 "num_atms": 21, 
	 "gaussian": { 
		 "optdone": 1, 
		 "sigma_profile": "yes", 
		 "theory": "DFT", 
		 "functional": "B3LYP", 
		 "basiset": "6-31G**", 
		 "properties": { 
			 "R2extent": 3619.821, 
			 "electric_dipole_moment_norm": 4.10516535721, 
			 "electric_quadrupole_moment_norm": 13.2584495855, 
			 "total_energy": -972.245738992, 
			 "HOMO_LUMO_gap": 0.16035, 
			 "cosmo_polarized_energy": -13.75, 
			 "cosmo_cavitation_energy": 26.21, 
			 "cosmo_dispersion_energy": -20.15, 
			 "cosmo_repulsion_energy": 1.58, 
			 "cosmo_total_nonelectrostatic_energy": 7.63, 
			 "SMD_solvation_energy": 2.4 
		},
		"coords": [
			{
				"x": -0.7407455936,
				"y": 2.6237428811,
				"z": -1.5440661825,
				"element": "N" 
			},
			{
				"x": -0.8187501027,
				"y": 1.9046438551,
				"z": -0.3317736707,
				"element": "C" 
			},
			{
				"x": -1.4301368349,
				"y": 2.3807278512,
				"z": 0.8536928099,
				"element": "C" 
			},
			{
				"x": -2.1210805474,
				"y": 4.0216436277,
				"z": 0.8080199731,
				"element": "Cl" 
			},
			{
				"x": -1.5595548576,
				"y": 1.7327915953,
				"z": 1.9724328287,
				"element": "N" 
			},
			{
				"x": -1.0260235394,
				"y": 0.4784662037,
				"z": 2.0370047346,
				"element": "C" 
			},
			{
				"x": -1.1310568892,
				"y": -0.2346032911,
				"z": 3.2589651056,
				"element": "C" 
			},
			{
				"x": -0.6073427611,
				"y": -1.5025204646,
				"z": 3.3796280131,
				"element": "C" 
			},
			{
				"x": 0.0495465701,
				"y": -2.1093795578,
				"z": 2.283261618,
				"element": "C" 
			},
			{
				"x": 0.1654746015,
				"y": -1.4411856155,
				"z": 1.0831469821,
				"element": "C" 
			},
			{
				"x": -0.3726962839,
				"y": -0.137360872,
				"z": 0.9240501141,
				"element": "C" 
			},
			{
				"x": -0.3122264276,
				"y": 0.602366465,
				"z": -0.2978476451,
				"element": "C" 
			},
			{
				"x": 0.2666608414,
				"y": 0.0943382065,
				"z": -1.4494034379,
				"element": "N" 
			},
			{
				"x": -1.2266259303,
				"y": 3.5116763286,
				"z": -1.4881965906,
				"element": "H" 
			},
			{
				"x": 0.2227303393,
				"y": 2.7888012798,
				"z": -1.8262057646,
				"element": "H" 
			},
			{
				"x": -1.6340268114,
				"y": 0.2595085635,
				"z": 4.083622754,
				"element": "H" 
			},
			{
				"x": -0.6918116604,
				"y": -2.0392005757,
				"z": 4.3199756885,
				"element": "H" 
			},
			{
				"x": 0.4713853075,
				"y": -3.1042412611,
				"z": 2.3908699193,
				"element": "H" 
			},
			{
				"x": 0.6997943979,
				"y": -1.914260109,
				"z": 0.2640238427,
				"element": "H" 
			},
			{
				"x": -0.0944524449,
				"y": 0.5338276953,
				"z": -2.2899577893,
				"element": "H" 
			},
			{
				"x": 0.2902386267,
				"y": -0.9133828061,
				"z": -1.5174433031,
				"element": "H" 
			}
		],
		 "valence_orbital": [ 
			{
				"type": "occ",
				"energy": -0.30762,
				"method": "rhf"
			},
			{
				"type": "occ",
				"energy": -0.2654,
				"method": "rhf"
			},
			{
				"type": "occ",
				"energy": -0.26119,
				"method": "rhf"
			},
			{
				"type": "occ",
				"energy": -0.23513,
				"method": "rhf"
			},
			{
				"type": "occ",
				"energy": -0.20391,
				"method": "rhf"
			},
			{
				"type": "unocc",
				"energy": -0.04356,
				"method": "rhf"
			},
			{
				"type": "unocc",
				"energy": -0.01191,
				"method": "rhf"
			},
			{
				"type": "unocc",
				"energy": 0.02799,
				"method": "rhf"
			},
			{
				"type": "unocc",
				"energy": 0.03609,
				"method": "rhf"
			},
			{
				"type": "unocc",
				"energy": 0.06269,
				"method": "rhf"
			}
		],
		"cosmo_sigma_profile": { 
			"-0.025": 0.0,
			"-0.024": 0.0,
			"-0.023": 0.0,
			"-0.022": 0.0,
			"-0.021": 0.0,
			"-0.02": 0.0,
			"-0.019": 0.0,
			"-0.018": 0.0,
			"-0.017": 0.0,
			"-0.016": 0.0,
			"-0.015": 0.0,
			"-0.014": 0.527307381815,
			"-0.013": 1.27734730013,
			"-0.012": 2.53683959999,
			"-0.011": 4.37319223475,
			"-0.01": 4.58386580056,
			"-0.009": 4.69413838355,
			"-0.008": 4.882581856,
			"-0.007": 4.40785456791,
			"-0.006": 9.7305068297,
			"-0.005": 10.9560609684,
			"-0.004": 11.1259034333,
			"-0.003": 9.53529965459,
			"-0.002": 9.03154784527,
			"-0.001": 10.4205615731,
			"0.0": 13.3345516119,
			"0.001": 18.4039991995,
			"0.002": 15.7833666556,
			"0.003": 18.3887926679,
			"0.004": 20.1512993368,
			"0.005": 13.9361779787,
			"0.006": 4.50834992253,
			"0.007": 4.7480836027,
			"0.008": 2.84923313128,
			"0.009": 2.40762437378,
			"0.01": 2.31282542314,
			"0.011": 2.17796390996,
			"0.012": 2.29795522929,
			"0.013": 1.01731080421,
			"0.014": 1.10126140417,
			"0.015": 0.436492923822,
			"0.016": 0.0401999547705,
			"0.017": 0.0,
			"0.018": 0.0,
			"0.019": 0.0,
			"0.02": 0.0,
			"0.021": 0.0,
			"0.022": 0.0,
			"0.023": 0.0,
			"0.024": 0.0,
			"0.025": 0.0
		}
	}
}
