{
	 "smiles": "OC1=CC=CC=C1C(=O)OC1=CC2=CC=CC=C2C=C1", 
	 "Tm": 368.65, 
	 "num_atms": 32, 
	 "gaussian": { 
		 "optdone": 1, 
		 "sigma_profile": "yes", 
		 "theory": "DFT", 
		 "functional": "B3LYP", 
		 "basiset": "6-31G**", 
		 "properties": { 
			 "R2extent": 8581.6801, 
			 "electric_dipole_moment_norm": 3.47125421282, 
			 "electric_quadrupole_moment_norm": 17.626811832, 
			 "total_energy": -880.725354657, 
			 "HOMO_LUMO_gap": 0.16243, 
			 "cosmo_polarized_energy": -15.58, 
			 "cosmo_cavitation_energy": 37.08, 
			 "cosmo_dispersion_energy": -27.05, 
			 "cosmo_repulsion_energy": 2.03, 
			 "cosmo_total_nonelectrostatic_energy": 12.06, 
			 "SMD_solvation_energy": 7.25 
		},
		"coords": [
			{
				"x": 3.0303500942,
				"y": -0.6160257362,
				"z": 2.2371191098,
				"element": "O" 
			},
			{
				"x": 2.5605093051,
				"y": 0.5363472476,
				"z": 2.780630897,
				"element": "C" 
			},
			{
				"x": 3.3395626413,
				"y": 1.252297706,
				"z": 3.7031956721,
				"element": "C" 
			},
			{
				"x": 2.876999108,
				"y": 2.4352038639,
				"z": 4.2679349045,
				"element": "C" 
			},
			{
				"x": 1.6182556432,
				"y": 2.9336064943,
				"z": 3.9208342328,
				"element": "C" 
			},
			{
				"x": 0.8441143736,
				"y": 2.2305563449,
				"z": 3.0079980292,
				"element": "C" 
			},
			{
				"x": 1.28430178,
				"y": 1.0301050944,
				"z": 2.4218181751,
				"element": "C" 
			},
			{
				"x": 0.3289481088,
				"y": 0.4046435355,
				"z": 1.4629481117,
				"element": "C" 
			},
			{
				"x": -0.7374696497,
				"y": 0.9007539578,
				"z": 1.1626132147,
				"element": "O" 
			},
			{
				"x": 0.7691423638,
				"y": -0.7850770286,
				"z": 0.9671384066,
				"element": "O" 
			},
			{
				"x": -0.0009855579,
				"y": -1.4912029413,
				"z": 0.0437189457,
				"element": "C" 
			},
			{
				"x": -0.1551546435,
				"y": -2.8368768956,
				"z": 0.2743168009,
				"element": "C" 
			},
			{
				"x": -0.8451005937,
				"y": -3.6482993133,
				"z": -0.6640144342,
				"element": "C" 
			},
			{
				"x": -1.0293269611,
				"y": -5.0436992778,
				"z": -0.466326459,
				"element": "C" 
			},
			{
				"x": -1.7058572603,
				"y": -5.8031396979,
				"z": -1.3944543946,
				"element": "C" 
			},
			{
				"x": -2.2299387277,
				"y": -5.2038993188,
				"z": -2.5664053202,
				"element": "C" 
			},
			{
				"x": -2.0668797471,
				"y": -3.8544772,
				"z": -2.7869318493,
				"element": "C" 
			},
			{
				"x": -1.374746958,
				"y": -3.0419434162,
				"z": -1.8497434746,
				"element": "C" 
			},
			{
				"x": -1.1837245827,
				"y": -1.6471113726,
				"z": -2.0460094418,
				"element": "C" 
			},
			{
				"x": -0.5103968451,
				"y": -0.8776301366,
				"z": -1.1266403288,
				"element": "C" 
			},
			{
				"x": 3.9140486042,
				"y": -0.7835791035,
				"z": 2.5915341527,
				"element": "H" 
			},
			{
				"x": 4.3206377413,
				"y": 0.8664775377,
				"z": 3.9738448651,
				"element": "H" 
			},
			{
				"x": 3.5023063859,
				"y": 2.9668494328,
				"z": 4.9794808886,
				"element": "H" 
			},
			{
				"x": 1.2497552794,
				"y": 3.8562370562,
				"z": 4.3567408847,
				"element": "H" 
			},
			{
				"x": -0.1364354739,
				"y": 2.5883366811,
				"z": 2.7140997099,
				"element": "H" 
			},
			{
				"x": 0.2604865657,
				"y": -3.2735299623,
				"z": 1.1769312759,
				"element": "H" 
			},
			{
				"x": -0.6273948729,
				"y": -5.5023813346,
				"z": 0.4334257061,
				"element": "H" 
			},
			{
				"x": -1.8408135444,
				"y": -6.8684233937,
				"z": -1.2303419854,
				"element": "H" 
			},
			{
				"x": -2.7615064607,
				"y": -5.8144878626,
				"z": -3.2904953767,
				"element": "H" 
			},
			{
				"x": -2.4674882694,
				"y": -3.3906529347,
				"z": -3.6848239413,
				"element": "H" 
			},
			{
				"x": -1.5813163048,
				"y": -1.1861253237,
				"z": -2.9463005295,
				"element": "H" 
			},
			{
				"x": -0.3750815418,
				"y": 0.1852472979,
				"z": -1.2792364477,
				"element": "H" 
			}
		],
		 "valence_orbital": [ 
			{
				"type": "occ",
				"energy": -0.27221,
				"method": "rhf"
			},
			{
				"type": "occ",
				"energy": -0.26312,
				"method": "rhf"
			},
			{
				"type": "occ",
				"energy": -0.23592,
				"method": "rhf"
			},
			{
				"type": "occ",
				"energy": -0.23333,
				"method": "rhf"
			},
			{
				"type": "occ",
				"energy": -0.21043,
				"method": "rhf"
			},
			{
				"type": "unocc",
				"energy": -0.048,
				"method": "rhf"
			},
			{
				"type": "unocc",
				"energy": -0.03336,
				"method": "rhf"
			},
			{
				"type": "unocc",
				"energy": -0.00332,
				"method": "rhf"
			},
			{
				"type": "unocc",
				"energy": 6e-05,
				"method": "rhf"
			},
			{
				"type": "unocc",
				"energy": 0.03527,
				"method": "rhf"
			}
		],
		"cosmo_sigma_profile": { 
			"-0.025": 0.0,
			"-0.024": 0.0,
			"-0.023": 0.0,
			"-0.022": 0.0,
			"-0.021": 0.0,
			"-0.02": 0.0,
			"-0.019": 0.111497869692,
			"-0.018": 1.30571585278,
			"-0.017": 0.75338096714,
			"-0.016": 1.23030033867,
			"-0.015": 1.30073219639,
			"-0.014": 0.715564993057,
			"-0.013": 0.737012305562,
			"-0.012": 0.740007964026,
			"-0.011": 1.40943794514,
			"-0.01": 0.999567250211,
			"-0.009": 1.19085983227,
			"-0.008": 1.186807177,
			"-0.007": 5.36248811582,
			"-0.006": 20.4290618628,
			"-0.005": 22.1843862045,
			"-0.004": 21.200755441,
			"-0.003": 18.0315671691,
			"-0.002": 16.3907340858,
			"-0.001": 15.7726515852,
			"0.0": 16.8139572752,
			"0.001": 21.2171089143,
			"0.002": 23.5120586941,
			"0.003": 33.1524088531,
			"0.004": 30.885475455,
			"0.005": 13.937668399,
			"0.006": 4.30156781424,
			"0.007": 4.12969330622,
			"0.008": 3.79789358168,
			"0.009": 2.31221023833,
			"0.01": 3.65454417415,
			"0.011": 5.72699376029,
			"0.012": 3.64912390578,
			"0.013": 0.0874344164793,
			"0.014": 0.0,
			"0.015": 0.0,
			"0.016": 0.0,
			"0.017": 0.0,
			"0.018": 0.0,
			"0.019": 0.0,
			"0.02": 0.0,
			"0.021": 0.0,
			"0.022": 0.0,
			"0.023": 0.0,
			"0.024": 0.0,
			"0.025": 0.0
		}
	}
}
