{
	 "smiles": "NC1=NC=C(CC2=CC(=CC=C2)C#N)S1", 
	 "Tm": 417.15, 
	 "num_atms": 24, 
	 "gaussian": { 
		 "optdone": 1, 
		 "sigma_profile": "yes", 
		 "theory": "DFT", 
		 "functional": "B3LYP", 
		 "basiset": "6-31G**", 
		 "properties": { 
			 "R2extent": 5204.6745, 
			 "electric_dipole_moment_norm": 4.69488803061, 
			 "electric_quadrupole_moment_norm": 30.0591594337, 
			 "total_energy": -987.018599801, 
			 "HOMO_LUMO_gap": 0.16274, 
			 "cosmo_polarized_energy": -16.65, 
			 "cosmo_cavitation_energy": 31.77, 
			 "cosmo_dispersion_energy": -22.48, 
			 "cosmo_repulsion_energy": 1.74, 
			 "cosmo_total_nonelectrostatic_energy": 11.03, 
			 "SMD_solvation_energy": 4.59 
		},
		"coords": [
			{
				"x": -3.614323016,
				"y": 0.0629400164,
				"z": 1.272165028,
				"element": "N" 
			},
			{
				"x": -2.5644172392,
				"y": -0.7819143725,
				"z": 0.9950459122,
				"element": "C" 
			},
			{
				"x": -2.7016999452,
				"y": -2.0457815443,
				"z": 0.7139833155,
				"element": "N" 
			},
			{
				"x": -1.466182617,
				"y": -2.6393872869,
				"z": 0.5642873159,
				"element": "C" 
			},
			{
				"x": -0.3617296159,
				"y": -1.8555899459,
				"z": 0.7143758905,
				"element": "C" 
			},
			{
				"x": 1.0858167635,
				"y": -2.2347680958,
				"z": 0.5977419928,
				"element": "C" 
			},
			{
				"x": 1.8363562511,
				"y": -1.5770530555,
				"z": -0.5536705306,
				"element": "C" 
			},
			{
				"x": 3.075278277,
				"y": -0.9728849727,
				"z": -0.3377116062,
				"element": "C" 
			},
			{
				"x": 3.7831728307,
				"y": -0.3918044979,
				"z": -1.40445235,
				"element": "C" 
			},
			{
				"x": 3.2476137809,
				"y": -0.414174887,
				"z": -2.701214307,
				"element": "C" 
			},
			{
				"x": 2.0089476842,
				"y": -1.0156345793,
				"z": -2.9152625968,
				"element": "C" 
			},
			{
				"x": 1.3099415848,
				"y": -1.58860308,
				"z": -1.8535608379,
				"element": "C" 
			},
			{
				"x": 5.0548327321,
				"y": 0.2268519646,
				"z": -1.1625789127,
				"element": "C" 
			},
			{
				"x": 6.0861758829,
				"y": 0.727905892,
				"z": -0.9658616398,
				"element": "N" 
			},
			{
				"x": -0.8894886303,
				"y": -0.2147791806,
				"z": 1.0968374082,
				"element": "S" 
			},
			{
				"x": -4.5103094996,
				"y": -0.3214943749,
				"z": 1.0015396696,
				"element": "H" 
			},
			{
				"x": -3.4956279739,
				"y": 1.0377214358,
				"z": 1.0365062016,
				"element": "H" 
			},
			{
				"x": -1.421911391,
				"y": -3.6987333161,
				"z": 0.3319674751,
				"element": "H" 
			},
			{
				"x": 1.6169853152,
				"y": -2.0232458895,
				"z": 1.5338580598,
				"element": "H" 
			},
			{
				"x": 1.1202256575,
				"y": -3.324974457,
				"z": 0.4713855894,
				"element": "H" 
			},
			{
				"x": 3.5040265245,
				"y": -0.9467079657,
				"z": 0.6596218901,
				"element": "H" 
			},
			{
				"x": 3.798174575,
				"y": 0.0367740932,
				"z": -3.5197634266,
				"element": "H" 
			},
			{
				"x": 1.5862623226,
				"y": -1.0355448883,
				"z": -3.9151575789,
				"element": "H" 
			},
			{
				"x": 0.3391797462,
				"y": -2.0449170119,
				"z": -2.0260819623,
				"element": "H" 
			}
		],
		 "valence_orbital": [ 
			{
				"type": "occ",
				"energy": -0.28041,
				"method": "rhf"
			},
			{
				"type": "occ",
				"energy": -0.2773,
				"method": "rhf"
			},
			{
				"type": "occ",
				"energy": -0.26985,
				"method": "rhf"
			},
			{
				"type": "occ",
				"energy": -0.26091,
				"method": "rhf"
			},
			{
				"type": "occ",
				"energy": -0.2145,
				"method": "rhf"
			},
			{
				"type": "unocc",
				"energy": -0.05176,
				"method": "rhf"
			},
			{
				"type": "unocc",
				"energy": -0.02464,
				"method": "rhf"
			},
			{
				"type": "unocc",
				"energy": -0.01022,
				"method": "rhf"
			},
			{
				"type": "unocc",
				"energy": 0.00604,
				"method": "rhf"
			},
			{
				"type": "unocc",
				"energy": 0.03847,
				"method": "rhf"
			}
		],
		"cosmo_sigma_profile": { 
			"-0.025": 0.0,
			"-0.024": 0.0,
			"-0.023": 0.0,
			"-0.022": 0.0,
			"-0.021": 0.0,
			"-0.02": 0.0,
			"-0.019": 0.0,
			"-0.018": 0.0,
			"-0.017": 0.0,
			"-0.016": 0.0,
			"-0.015": 0.371782315528,
			"-0.014": 1.53440082127,
			"-0.013": 2.75494622497,
			"-0.012": 2.28611149065,
			"-0.011": 2.99914697374,
			"-0.01": 2.44704280142,
			"-0.009": 1.50919734938,
			"-0.008": 4.26428139436,
			"-0.007": 11.3956216456,
			"-0.006": 16.5041911736,
			"-0.005": 15.4282878915,
			"-0.004": 15.0416102747,
			"-0.003": 14.0492455234,
			"-0.002": 15.1762160239,
			"-0.001": 16.7383577781,
			"0.0": 14.4975431362,
			"0.001": 16.4193752863,
			"0.002": 23.2882572427,
			"0.003": 20.7673956015,
			"0.004": 11.4929816366,
			"0.005": 8.10045807153,
			"0.006": 5.38606745644,
			"0.007": 4.85456258293,
			"0.008": 5.73745392478,
			"0.009": 5.98936342857,
			"0.01": 4.68227917553,
			"0.011": 4.51063596909,
			"0.012": 3.802942041,
			"0.013": 3.11542733868,
			"0.014": 0.761300572826,
			"0.015": 0.96138614061,
			"0.016": 0.613759435666,
			"0.017": 0.0,
			"0.018": 0.0,
			"0.019": 0.0,
			"0.02": 0.0,
			"0.021": 0.0,
			"0.022": 0.0,
			"0.023": 0.0,
			"0.024": 0.0,
			"0.025": 0.0
		}
	}
}
