{
	 "smiles": "C(N1CCNCC1)C1=NN=C2CCCCCN12", 
	 "Tm": 433.15, 
	 "num_atms": 38, 
	 "gaussian": { 
		 "optdone": 1, 
		 "sigma_profile": "yes", 
		 "theory": "DFT", 
		 "functional": "B3LYP", 
		 "basiset": "6-31G**", 
		 "properties": { 
			 "R2extent": 5340.7311, 
			 "electric_dipole_moment_norm": 6.30920672351, 
			 "electric_quadrupole_moment_norm": 18.8792284053, 
			 "total_energy": -743.676721041, 
			 "HOMO_LUMO_gap": 0.246, 
			 "cosmo_polarized_energy": -18.72, 
			 "cosmo_cavitation_energy": 36.91, 
			 "cosmo_dispersion_energy": -26.02, 
			 "cosmo_repulsion_energy": 2.01, 
			 "cosmo_total_nonelectrostatic_energy": 12.9, 
			 "SMD_solvation_energy": -0.41 
		},
		"coords": [
			{
				"x": 0.1318850499,
				"y": 2.039245306,
				"z": -0.0142291249,
				"element": "C" 
			},
			{
				"x": 0.8412490416,
				"y": 0.774284899,
				"z": -0.2356091475,
				"element": "N" 
			},
			{
				"x": 0.1867279453,
				"y": -0.0580228137,
				"z": -1.2547913641,
				"element": "C" 
			},
			{
				"x": 0.9124035611,
				"y": -1.396112325,
				"z": -1.381676938,
				"element": "C" 
			},
			{
				"x": 2.3106178848,
				"y": -1.1505534661,
				"z": -1.7322235334,
				"element": "N" 
			},
			{
				"x": 2.974080631,
				"y": -0.3425379593,
				"z": -0.7114881796,
				"element": "C" 
			},
			{
				"x": 2.2481417659,
				"y": 0.9968440839,
				"z": -0.5855495915,
				"element": "C" 
			},
			{
				"x": -1.2238321469,
				"y": 1.8570662381,
				"z": 0.5962079251,
				"element": "C" 
			},
			{
				"x": -2.3458644209,
				"y": 2.2744314416,
				"z": 0.0538009943,
				"element": "N" 
			},
			{
				"x": -3.3716073009,
				"y": 1.9651194354,
				"z": 0.9219923101,
				"element": "N" 
			},
			{
				"x": -2.8406060573,
				"y": 1.3681361167,
				"z": 1.9674017278,
				"element": "C" 
			},
			{
				"x": -3.6050422684,
				"y": 0.8680393248,
				"z": 3.1506866463,
				"element": "C" 
			},
			{
				"x": -3.4235766941,
				"y": -0.6333331375,
				"z": 3.4477138237,
				"element": "C" 
			},
			{
				"x": -2.0493462846,
				"y": -1.0134220798,
				"z": 4.0208308803,
				"element": "C" 
			},
			{
				"x": -0.8456132342,
				"y": -0.7994364141,
				"z": 3.0889026632,
				"element": "C" 
			},
			{
				"x": -0.5193646224,
				"y": 0.6587012026,
				"z": 2.7393675161,
				"element": "C" 
			},
			{
				"x": -1.4780206929,
				"y": 1.2671429095,
				"z": 1.8154137841,
				"element": "N" 
			},
			{
				"x": 0.7571573558,
				"y": 2.6552546617,
				"z": 0.6459188959,
				"element": "H" 
			},
			{
				"x": -0.0214130185,
				"y": 2.6151508567,
				"z": -0.9425566061,
				"element": "H" 
			},
			{
				"x": -0.8553598038,
				"y": -0.220633212,
				"z": -0.9640745576,
				"element": "H" 
			},
			{
				"x": 0.1841635333,
				"y": 0.4466046955,
				"z": -2.2383450513,
				"element": "H" 
			},
			{
				"x": 0.4443083966,
				"y": -1.9905691723,
				"z": -2.1737314887,
				"element": "H" 
			},
			{
				"x": 0.7971550228,
				"y": -1.9484693522,
				"z": -0.4294855424,
				"element": "H" 
			},
			{
				"x": 2.8026197246,
				"y": -2.0299964098,
				"z": -1.8603555527,
				"element": "H" 
			},
			{
				"x": 4.0132068013,
				"y": -0.1679663648,
				"z": -1.0116076142,
				"element": "H" 
			},
			{
				"x": 2.9845564366,
				"y": -0.8259172295,
				"z": 0.2840815527,
				"element": "H" 
			},
			{
				"x": 2.7158200169,
				"y": 1.5979829637,
				"z": 0.2032347561,
				"element": "H" 
			},
			{
				"x": 2.3485924276,
				"y": 1.5507133425,
				"z": -1.5376399219,
				"element": "H" 
			},
			{
				"x": -4.6553776845,
				"y": 1.0872032895,
				"z": 2.9411829467,
				"element": "H" 
			},
			{
				"x": -3.3339720955,
				"y": 1.4470415889,
				"z": 4.0461678893,
				"element": "H" 
			},
			{
				"x": -3.6188535224,
				"y": -1.2074918947,
				"z": 2.5329588166,
				"element": "H" 
			},
			{
				"x": -4.1919399293,
				"y": -0.9315972255,
				"z": 4.1709135567,
				"element": "H" 
			},
			{
				"x": -2.0732545238,
				"y": -2.071598392,
				"z": 4.3087800911,
				"element": "H" 
			},
			{
				"x": -1.8823911014,
				"y": -0.4508788326,
				"z": 4.9512564756,
				"element": "H" 
			},
			{
				"x": -0.9806695421,
				"y": -1.3591107542,
				"z": 2.154830061,
				"element": "H" 
			},
			{
				"x": 0.0457312668,
				"y": -1.2161952385,
				"z": 3.5742767509,
				"element": "H" 
			},
			{
				"x": -0.466595997,
				"y": 1.2661102831,
				"z": 3.6525867432,
				"element": "H" 
			},
			{
				"x": 0.4501840793,
				"y": 0.6949696346,
				"z": 2.2416574071,
				"element": "H" 
			}
		],
		 "valence_orbital": [ 
			{
				"type": "occ",
				"energy": -0.27165,
				"method": "rhf"
			},
			{
				"type": "occ",
				"energy": -0.23537,
				"method": "rhf"
			},
			{
				"type": "occ",
				"energy": -0.23534,
				"method": "rhf"
			},
			{
				"type": "occ",
				"energy": -0.22692,
				"method": "rhf"
			},
			{
				"type": "occ",
				"energy": -0.22384,
				"method": "rhf"
			},
			{
				"type": "unocc",
				"energy": 0.02216,
				"method": "rhf"
			},
			{
				"type": "unocc",
				"energy": 0.05446,
				"method": "rhf"
			},
			{
				"type": "unocc",
				"energy": 0.06819,
				"method": "rhf"
			},
			{
				"type": "unocc",
				"energy": 0.08554,
				"method": "rhf"
			},
			{
				"type": "unocc",
				"energy": 0.09548,
				"method": "rhf"
			}
		],
		"cosmo_sigma_profile": { 
			"-0.025": 0.0,
			"-0.024": 0.0,
			"-0.023": 0.0,
			"-0.022": 0.0,
			"-0.021": 0.0,
			"-0.02": 0.0,
			"-0.019": 0.0,
			"-0.018": 0.0,
			"-0.017": 0.0,
			"-0.016": 0.0,
			"-0.015": 0.0,
			"-0.014": 0.0,
			"-0.013": 0.0,
			"-0.012": 0.0,
			"-0.011": 0.0762813149264,
			"-0.01": 1.01521202942,
			"-0.009": 1.44322325682,
			"-0.008": 1.1153915634,
			"-0.007": 1.18716656528,
			"-0.006": 6.70836796368,
			"-0.005": 14.4705994304,
			"-0.004": 27.0413400187,
			"-0.003": 42.7977123974,
			"-0.002": 49.4097844729,
			"-0.001": 47.0379135172,
			"0.0": 25.6180838654,
			"0.001": 9.8006631489,
			"0.002": 5.65302739696,
			"0.003": 5.18479430973,
			"0.004": 4.06677230603,
			"0.005": 4.29869855349,
			"0.006": 3.59088677899,
			"0.007": 3.63358280603,
			"0.008": 2.81849761722,
			"0.009": 2.46529920931,
			"0.01": 2.55943072747,
			"0.011": 2.56152267499,
			"0.012": 2.1644697899,
			"0.013": 2.89080886827,
			"0.014": 3.80419708387,
			"0.015": 4.43286141365,
			"0.016": 3.2621228964,
			"0.017": 2.80439260779,
			"0.018": 1.65073034704,
			"0.019": 0.0945985203805,
			"0.02": 0.0,
			"0.021": 0.0,
			"0.022": 0.0,
			"0.023": 0.0,
			"0.024": 0.0,
			"0.025": 0.0
		}
	}
}
