{
	 "smiles": "CC1=CC=NN1C1=CC(N)=CC=C1", 
	 "Tm": 367.15, 
	 "num_atms": 24, 
	 "gaussian": { 
		 "optdone": 1, 
		 "sigma_profile": "yes", 
		 "theory": "DFT", 
		 "functional": "B3LYP", 
		 "basiset": "6-31G**", 
		 "properties": { 
			 "R2extent": 2768.0526, 
			 "electric_dipole_moment_norm": 1.63624890833, 
			 "electric_quadrupole_moment_norm": 16.0641652142, 
			 "total_energy": -551.934179652, 
			 "HOMO_LUMO_gap": 0.19318, 
			 "cosmo_polarized_energy": -12.18, 
			 "cosmo_cavitation_energy": 27.47, 
			 "cosmo_dispersion_energy": -20.21, 
			 "cosmo_repulsion_energy": 1.59, 
			 "cosmo_total_nonelectrostatic_energy": 8.86, 
			 "SMD_solvation_energy": 4.18 
		},
		"coords": [
			{
				"x": -1.3872307599,
				"y": 0.592551276,
				"z": -2.1877724675,
				"element": "C" 
			},
			{
				"x": -1.2368564688,
				"y": -0.8166297565,
				"z": -1.704253292,
				"element": "C" 
			},
			{
				"x": -1.3975863099,
				"y": -2.0001486641,
				"z": -2.4019233465,
				"element": "C" 
			},
			{
				"x": -1.0696454661,
				"y": -3.0208709032,
				"z": -1.4850494258,
				"element": "C" 
			},
			{
				"x": -0.7256339856,
				"y": -2.5310035367,
				"z": -0.3003305949,
				"element": "N" 
			},
			{
				"x": -0.8403513099,
				"y": -1.1786409505,
				"z": -0.436098872,
				"element": "N" 
			},
			{
				"x": -0.4848194921,
				"y": -0.3513805305,
				"z": 0.6671409322,
				"element": "C" 
			},
			{
				"x": 0.6017112939,
				"y": -0.7344938013,
				"z": 1.4551820327,
				"element": "C" 
			},
			{
				"x": 0.978779811,
				"y": 0.0374935663,
				"z": 2.5634169058,
				"element": "C" 
			},
			{
				"x": 2.0943237921,
				"y": -0.3181039181,
				"z": 3.321537508,
				"element": "N" 
			},
			{
				"x": 0.2557388658,
				"y": 1.2088837346,
				"z": 2.8552322559,
				"element": "C" 
			},
			{
				"x": -0.8272961163,
				"y": 1.5744791812,
				"z": 2.0627921773,
				"element": "C" 
			},
			{
				"x": -1.219043222,
				"y": 0.8008846536,
				"z": 0.9689626351,
				"element": "C" 
			},
			{
				"x": -2.3562615249,
				"y": 1.0286162559,
				"z": -1.9180683879,
				"element": "H" 
			},
			{
				"x": -0.6095877294,
				"y": 1.2466735847,
				"z": -1.7832436014,
				"element": "H" 
			},
			{
				"x": -1.3150262497,
				"y": 0.606917631,
				"z": -3.2781382405,
				"element": "H" 
			},
			{
				"x": -1.6983692638,
				"y": -2.0989313206,
				"z": -3.4348574646,
				"element": "H" 
			},
			{
				"x": -1.0715054288,
				"y": -4.0923151896,
				"z": -1.638054571,
				"element": "H" 
			},
			{
				"x": 1.1373550042,
				"y": -1.6421855129,
				"z": 1.201091722,
				"element": "H" 
			},
			{
				"x": 2.1054945282,
				"y": 0.0414674623,
				"z": 4.2658541763,
				"element": "H" 
			},
			{
				"x": 2.3434115593,
				"y": -1.2969580174,
				"z": 3.2860427926,
				"element": "H" 
			},
			{
				"x": 0.5454313612,
				"y": 1.8223621868,
				"z": 3.704372031,
				"element": "H" 
			},
			{
				"x": -1.3903722353,
				"y": 2.469768242,
				"z": 2.3105767964,
				"element": "H" 
			},
			{
				"x": -2.0945606533,
				"y": 1.0671643273,
				"z": 0.3908882988,
				"element": "H" 
			}
		],
		 "valence_orbital": [ 
			{
				"type": "occ",
				"energy": -0.27648,
				"method": "rhf"
			},
			{
				"type": "occ",
				"energy": -0.2693,
				"method": "rhf"
			},
			{
				"type": "occ",
				"energy": -0.23006,
				"method": "rhf"
			},
			{
				"type": "occ",
				"energy": -0.22333,
				"method": "rhf"
			},
			{
				"type": "occ",
				"energy": -0.20414,
				"method": "rhf"
			},
			{
				"type": "unocc",
				"energy": -0.01096,
				"method": "rhf"
			},
			{
				"type": "unocc",
				"energy": 0.01184,
				"method": "rhf"
			},
			{
				"type": "unocc",
				"energy": 0.04235,
				"method": "rhf"
			},
			{
				"type": "unocc",
				"energy": 0.0794,
				"method": "rhf"
			},
			{
				"type": "unocc",
				"energy": 0.08031,
				"method": "rhf"
			}
		],
		"cosmo_sigma_profile": { 
			"-0.025": 0.0,
			"-0.024": 0.0,
			"-0.023": 0.0,
			"-0.022": 0.0,
			"-0.021": 0.0,
			"-0.02": 0.0,
			"-0.019": 0.0,
			"-0.018": 0.0,
			"-0.017": 0.0,
			"-0.016": 0.0,
			"-0.015": 0.0,
			"-0.014": 0.0,
			"-0.013": 0.619087315278,
			"-0.012": 2.41429231851,
			"-0.011": 2.88846113108,
			"-0.01": 2.9467278879,
			"-0.009": 3.2645230621,
			"-0.008": 2.70748418251,
			"-0.007": 5.27904339459,
			"-0.006": 10.9328117122,
			"-0.005": 14.2460724851,
			"-0.004": 17.1582996504,
			"-0.003": 16.4709816775,
			"-0.002": 14.3462328989,
			"-0.001": 17.9428294899,
			"0.0": 12.0943758341,
			"0.001": 9.97896593369,
			"0.002": 10.6190781468,
			"0.003": 11.4641397955,
			"0.004": 12.6651574268,
			"0.005": 17.2300782458,
			"0.006": 14.3255195117,
			"0.007": 3.57490946116,
			"0.008": 3.28219936616,
			"0.009": 1.77428374644,
			"0.01": 1.7355058662,
			"0.011": 2.49981466228,
			"0.012": 1.72991480463,
			"0.013": 1.72807380093,
			"0.014": 1.51698366843,
			"0.015": 0.868025897871,
			"0.016": 0.395167442539,
			"0.017": 0.0,
			"0.018": 0.0,
			"0.019": 0.0,
			"0.02": 0.0,
			"0.021": 0.0,
			"0.022": 0.0,
			"0.023": 0.0,
			"0.024": 0.0,
			"0.025": 0.0
		}
	}
}
