{
	 "smiles": "CC1=NC(=CS1)C1=CC=C(CO)C=C1", 
	 "Tm": 345.65, 
	 "num_atms": 25, 
	 "gaussian": { 
		 "optdone": 1, 
		 "sigma_profile": "yes", 
		 "theory": "DFT", 
		 "functional": "B3LYP", 
		 "basiset": "6-31G**", 
		 "properties": { 
			 "R2extent": 5868.1856, 
			 "electric_dipole_moment_norm": 1.98817670744, 
			 "electric_quadrupole_moment_norm": 4.55003511525, 
			 "total_energy": -953.959077882, 
			 "HOMO_LUMO_gap": 0.1751, 
			 "cosmo_polarized_energy": -10.75, 
			 "cosmo_cavitation_energy": 30.57, 
			 "cosmo_dispersion_energy": -23.08, 
			 "cosmo_repulsion_energy": 1.77, 
			 "cosmo_total_nonelectrostatic_energy": 9.26, 
			 "SMD_solvation_energy": 3.92 
		},
		"coords": [
			{
				"x": -3.3753313972,
				"y": -1.6225833027,
				"z": -5.2527674763,
				"element": "C" 
			},
			{
				"x": -2.480962955,
				"y": -1.7275476877,
				"z": -4.0551962881,
				"element": "C" 
			},
			{
				"x": -2.246994832,
				"y": -0.7569264711,
				"z": -3.2263147653,
				"element": "N" 
			},
			{
				"x": -1.3814788253,
				"y": -1.1256907206,
				"z": -2.2063189463,
				"element": "C" 
			},
			{
				"x": -0.951554676,
				"y": -2.4275028229,
				"z": -2.2766852798,
				"element": "C" 
			},
			{
				"x": -1.6385471905,
				"y": -3.2249623997,
				"z": -3.6504690522,
				"element": "S" 
			},
			{
				"x": -1.0162311781,
				"y": -0.1277817251,
				"z": -1.182463957,
				"element": "C" 
			},
			{
				"x": -1.5512271226,
				"y": 1.1691417209,
				"z": -1.2480324124,
				"element": "C" 
			},
			{
				"x": -1.223820951,
				"y": 2.1230184768,
				"z": -0.2874747349,
				"element": "C" 
			},
			{
				"x": -0.3480021469,
				"y": 1.82048006,
				"z": 0.7607330089,
				"element": "C" 
			},
			{
				"x": 0.0376530513,
				"y": 2.8681934888,
				"z": 1.7860554122,
				"element": "C" 
			},
			{
				"x": 0.31060075,
				"y": 2.334311524,
				"z": 3.0747486046,
				"element": "O" 
			},
			{
				"x": 0.1862380996,
				"y": 0.5268169446,
				"z": 0.8294711564,
				"element": "C" 
			},
			{
				"x": -0.1430499496,
				"y": -0.4311859758,
				"z": -0.1237845057,
				"element": "C" 
			},
			{
				"x": -3.7800824813,
				"y": -0.6098233405,
				"z": -5.294877543,
				"element": "H" 
			},
			{
				"x": -4.2071093802,
				"y": -2.3327379505,
				"z": -5.1966188228,
				"element": "H" 
			},
			{
				"x": -2.8293055232,
				"y": -1.822844904,
				"z": -6.1807072636,
				"element": "H" 
			},
			{
				"x": -0.2828869246,
				"y": -2.9566237918,
				"z": -1.6141948458,
				"element": "H" 
			},
			{
				"x": -2.2316269003,
				"y": 1.41041117,
				"z": -2.0566857082,
				"element": "H" 
			},
			{
				"x": -1.6594950675,
				"y": 3.1177372677,
				"z": -0.3535681273,
				"element": "H" 
			},
			{
				"x": 0.9665532329,
				"y": 3.3673955907,
				"z": 1.4836487647,
				"element": "H" 
			},
			{
				"x": -0.740244291,
				"y": 3.6473641615,
				"z": 1.8265340868,
				"element": "H" 
			},
			{
				"x": -0.4764608753,
				"y": 1.8498499647,
				"z": 3.3581800168,
				"element": "H" 
			},
			{
				"x": 0.8594100159,
				"y": 0.279124087,
				"z": 1.6445331342,
				"element": "H" 
			},
			{
				"x": 0.2879575179,
				"y": -1.4246333642,
				"z": -0.0404444558,
				"element": "H" 
			}
		],
		 "valence_orbital": [ 
			{
				"type": "occ",
				"energy": -0.27786,
				"method": "rhf"
			},
			{
				"type": "occ",
				"energy": -0.27207,
				"method": "rhf"
			},
			{
				"type": "occ",
				"energy": -0.26501,
				"method": "rhf"
			},
			{
				"type": "occ",
				"energy": -0.2489,
				"method": "rhf"
			},
			{
				"type": "occ",
				"energy": -0.21256,
				"method": "rhf"
			},
			{
				"type": "unocc",
				"energy": -0.03746,
				"method": "rhf"
			},
			{
				"type": "unocc",
				"energy": -0.00759,
				"method": "rhf"
			},
			{
				"type": "unocc",
				"energy": 0.00359,
				"method": "rhf"
			},
			{
				"type": "unocc",
				"energy": 0.01717,
				"method": "rhf"
			},
			{
				"type": "unocc",
				"energy": 0.07194,
				"method": "rhf"
			}
		],
		"cosmo_sigma_profile": { 
			"-0.025": 0.0,
			"-0.024": 0.0,
			"-0.023": 0.0,
			"-0.022": 0.0,
			"-0.021": 0.0,
			"-0.02": 0.0,
			"-0.019": 0.0,
			"-0.018": 0.0,
			"-0.017": 0.0,
			"-0.016": 0.00878666941918,
			"-0.015": 1.29726592155,
			"-0.014": 0.458691781612,
			"-0.013": 0.673066937613,
			"-0.012": 0.767510953869,
			"-0.011": 1.48473749782,
			"-0.01": 0.839881314841,
			"-0.009": 2.61185988722,
			"-0.008": 2.78413420435,
			"-0.007": 3.96348220269,
			"-0.006": 7.91211315225,
			"-0.005": 18.4991014154,
			"-0.004": 20.5292572051,
			"-0.003": 20.5508209389,
			"-0.002": 19.5690818835,
			"-0.001": 17.5304835197,
			"0.0": 13.7961728718,
			"0.001": 16.3766371602,
			"0.002": 16.8065935753,
			"0.003": 24.1626708167,
			"0.004": 17.3750167687,
			"0.005": 13.0155745487,
			"0.006": 6.67417058962,
			"0.007": 3.233350688,
			"0.008": 2.30672645164,
			"0.009": 2.40732250855,
			"0.01": 2.37978372465,
			"0.011": 2.50121407717,
			"0.012": 1.61241793629,
			"0.013": 1.71585132587,
			"0.014": 1.82289954259,
			"0.015": 0.123508723439,
			"0.016": 0.0,
			"0.017": 0.0,
			"0.018": 0.0,
			"0.019": 0.0,
			"0.02": 0.0,
			"0.021": 0.0,
			"0.022": 0.0,
			"0.023": 0.0,
			"0.024": 0.0,
			"0.025": 0.0
		}
	}
}
