{
	 "smiles": "NC1=CC=C(CC2=CC=C(N)C=C2)C=C1", 
	 "Tm": 364.35, 
	 "num_atms": 29, 
	 "gaussian": { 
		 "optdone": 1, 
		 "sigma_profile": "yes", 
		 "theory": "DFT", 
		 "functional": "B3LYP", 
		 "basiset": "6-31G**", 
		 "properties": { 
			 "R2extent": 4667.3155, 
			 "electric_dipole_moment_norm": 2.79084654899, 
			 "electric_quadrupole_moment_norm": 15.0799368457, 
			 "total_energy": -613.336715469, 
			 "HOMO_LUMO_gap": 0.1932, 
			 "cosmo_polarized_energy": -14.42, 
			 "cosmo_cavitation_energy": 32.65, 
			 "cosmo_dispersion_energy": -23.43, 
			 "cosmo_repulsion_energy": 1.86, 
			 "cosmo_total_nonelectrostatic_energy": 11.08, 
			 "SMD_solvation_energy": 5.1 
		},
		"coords": [
			{
				"x": 2.2799867423,
				"y": 4.5960240921,
				"z": 2.3126328702,
				"element": "N" 
			},
			{
				"x": 1.8516329644,
				"y": 3.6531705106,
				"z": 1.3705853988,
				"element": "C" 
			},
			{
				"x": 1.9256838596,
				"y": 2.2760849654,
				"z": 1.6463639861,
				"element": "C" 
			},
			{
				"x": 1.5524847093,
				"y": 1.3397329138,
				"z": 0.6884541786,
				"element": "C" 
			},
			{
				"x": 1.0958538648,
				"y": 1.7285099429,
				"z": -0.5795493787,
				"element": "C" 
			},
			{
				"x": 0.7156354118,
				"y": 0.6975265174,
				"z": -1.6294902968,
				"element": "C" 
			},
			{
				"x": -0.3379530711,
				"y": -0.3063102605,
				"z": -1.1911598234,
				"element": "C" 
			},
			{
				"x": -0.1093740605,
				"y": -1.6842151747,
				"z": -1.2691997642,
				"element": "C" 
			},
			{
				"x": -1.0795983566,
				"y": -2.6110883153,
				"z": -0.8890533279,
				"element": "C" 
			},
			{
				"x": -2.3272910017,
				"y": -2.1813877301,
				"z": -0.4132358281,
				"element": "C" 
			},
			{
				"x": -3.3301909582,
				"y": -3.1011740134,
				"z": -0.0844100509,
				"element": "N" 
			},
			{
				"x": -2.5648446109,
				"y": -0.7977531202,
				"z": -0.3294396482,
				"element": "C" 
			},
			{
				"x": -1.5864993804,
				"y": 0.1142841872,
				"z": -0.7097876253,
				"element": "C" 
			},
			{
				"x": 1.0232150263,
				"y": 3.1001619046,
				"z": -0.844584526,
				"element": "C" 
			},
			{
				"x": 1.3914141638,
				"y": 4.0512314126,
				"z": 0.1066500443,
				"element": "C" 
			},
			{
				"x": 1.8742924185,
				"y": 5.5157879987,
				"z": 2.2036165553,
				"element": "H" 
			},
			{
				"x": 2.2323489884,
				"y": 4.2841953633,
				"z": 3.2733268246,
				"element": "H" 
			},
			{
				"x": 2.2815550168,
				"y": 1.9443132708,
				"z": 2.6192867537,
				"element": "H" 
			},
			{
				"x": 1.6074611436,
				"y": 0.2817455228,
				"z": 0.9326433298,
				"element": "H" 
			},
			{
				"x": 1.6111273175,
				"y": 0.1445249652,
				"z": -1.9428307025,
				"element": "H" 
			},
			{
				"x": 0.3674563474,
				"y": 1.2284057296,
				"z": -2.5255025813,
				"element": "H" 
			},
			{
				"x": 0.8489917678,
				"y": -2.0459211195,
				"z": -1.6354432143,
				"element": "H" 
			},
			{
				"x": -0.8710433795,
				"y": -3.6759801238,
				"z": -0.9636368961,
				"element": "H" 
			},
			{
				"x": -2.9928006493,
				"y": -4.0179485053,
				"z": 0.1766141244,
				"element": "H" 
			},
			{
				"x": -4.0158682904,
				"y": -2.75962188,
				"z": 0.5756116918,
				"element": "H" 
			},
			{
				"x": -3.5260102136,
				"y": -0.4416736489,
				"z": 0.0347894094,
				"element": "H" 
			},
			{
				"x": -1.7919892865,
				"y": 1.1783124559,
				"z": -0.6225667386,
				"element": "H" 
			},
			{
				"x": 0.6708532875,
				"y": 3.4375342614,
				"z": -1.8169288368,
				"element": "H" 
			},
			{
				"x": 1.324970229,
				"y": 5.1104278772,
				"z": -0.1315559278,
				"element": "H" 
			}
		],
		 "valence_orbital": [ 
			{
				"type": "occ",
				"energy": -0.28846,
				"method": "rhf"
			},
			{
				"type": "occ",
				"energy": -0.23894,
				"method": "rhf"
			},
			{
				"type": "occ",
				"energy": -0.23681,
				"method": "rhf"
			},
			{
				"type": "occ",
				"energy": -0.19669,
				"method": "rhf"
			},
			{
				"type": "occ",
				"energy": -0.18673,
				"method": "rhf"
			},
			{
				"type": "unocc",
				"energy": 0.00647,
				"method": "rhf"
			},
			{
				"type": "unocc",
				"energy": 0.01224,
				"method": "rhf"
			},
			{
				"type": "unocc",
				"energy": 0.02179,
				"method": "rhf"
			},
			{
				"type": "unocc",
				"energy": 0.03029,
				"method": "rhf"
			},
			{
				"type": "unocc",
				"energy": 0.08538,
				"method": "rhf"
			}
		],
		"cosmo_sigma_profile": { 
			"-0.025": 0.0,
			"-0.024": 0.0,
			"-0.023": 0.0,
			"-0.022": 0.0,
			"-0.021": 0.0,
			"-0.02": 0.0,
			"-0.019": 0.0,
			"-0.018": 0.0,
			"-0.017": 0.0,
			"-0.016": 0.0,
			"-0.015": 0.0,
			"-0.014": 0.0,
			"-0.013": 0.105810880142,
			"-0.012": 3.32258467395,
			"-0.011": 5.77509534547,
			"-0.01": 5.02190827974,
			"-0.009": 5.80066640733,
			"-0.008": 7.39732770099,
			"-0.007": 5.42428402318,
			"-0.006": 6.7497077749,
			"-0.005": 11.6750031718,
			"-0.004": 19.3282078537,
			"-0.003": 19.9139551377,
			"-0.002": 18.6237427635,
			"-0.001": 17.2587334461,
			"0.0": 16.5833744091,
			"0.001": 12.6567226984,
			"0.002": 11.6404326866,
			"0.003": 13.2217294813,
			"0.004": 12.753121922,
			"0.005": 13.4734880206,
			"0.006": 17.5064419982,
			"0.007": 18.0448383644,
			"0.008": 5.82276757735,
			"0.009": 1.54296861188,
			"0.01": 1.65817822179,
			"0.011": 1.16384167738,
			"0.012": 1.47114036302,
			"0.013": 1.78029904744,
			"0.014": 1.25104529335,
			"0.015": 0.931169435723,
			"0.016": 0.132038488835,
			"0.017": 0.0,
			"0.018": 0.0,
			"0.019": 0.0,
			"0.02": 0.0,
			"0.021": 0.0,
			"0.022": 0.0,
			"0.023": 0.0,
			"0.024": 0.0,
			"0.025": 0.0
		}
	}
}
