{
	 "smiles": "CNC(=O)CNC1=CC(=CC=C1)C#C", 
	 "Tm": 401.15, 
	 "num_atms": 26, 
	 "gaussian": { 
		 "optdone": 1, 
		 "sigma_profile": "yes", 
		 "theory": "DFT", 
		 "functional": "B3LYP", 
		 "basiset": "6-31G**", 
		 "properties": { 
			 "R2extent": 3880.0031, 
			 "electric_dipole_moment_norm": 2.92096229863, 
			 "electric_quadrupole_moment_norm": 15.5703759492, 
			 "total_energy": -611.075985559, 
			 "HOMO_LUMO_gap": 0.18255, 
			 "cosmo_polarized_energy": -15.72, 
			 "cosmo_cavitation_energy": 31.08, 
			 "cosmo_dispersion_energy": -21.59, 
			 "cosmo_repulsion_energy": 1.72, 
			 "cosmo_total_nonelectrostatic_energy": 11.21, 
			 "SMD_solvation_energy": 6.78 
		},
		"coords": [
			{
				"x": -1.477738084,
				"y": -3.1086461744,
				"z": 2.331310382,
				"element": "C" 
			},
			{
				"x": -1.4630461512,
				"y": -1.6910580846,
				"z": 2.0283370383,
				"element": "N" 
			},
			{
				"x": -2.4077446379,
				"y": -1.0968681938,
				"z": 1.2556287009,
				"element": "C" 
			},
			{
				"x": -3.3725616396,
				"y": -1.6684844044,
				"z": 0.7605749389,
				"element": "O" 
			},
			{
				"x": -2.2210396574,
				"y": 0.4184199562,
				"z": 1.0611677034,
				"element": "C" 
			},
			{
				"x": -0.8945645678,
				"y": 0.9265127017,
				"z": 1.3846903395,
				"element": "N" 
			},
			{
				"x": 0.1237642393,
				"y": 0.9498691927,
				"z": 0.4189151224,
				"element": "C" 
			},
			{
				"x": 1.2171530763,
				"y": 1.8113320787,
				"z": 0.598187699,
				"element": "C" 
			},
			{
				"x": 2.2747975484,
				"y": 1.8365742507,
				"z": -0.3222912685,
				"element": "C" 
			},
			{
				"x": 2.2413912335,
				"y": 0.9864259326,
				"z": -1.444814846,
				"element": "C" 
			},
			{
				"x": 1.1563715286,
				"y": 0.1338340082,
				"z": -1.6184350526,
				"element": "C" 
			},
			{
				"x": 0.1023807736,
				"y": 0.1039621929,
				"z": -0.7037295223,
				"element": "C" 
			},
			{
				"x": 3.3768106548,
				"y": 2.7257827192,
				"z": -0.1191426005,
				"element": "C" 
			},
			{
				"x": 4.3108223937,
				"y": 3.4765305799,
				"z": 0.049856639,
				"element": "C" 
			},
			{
				"x": -1.5286140016,
				"y": -3.2837519321,
				"z": 3.4119311203,
				"element": "H" 
			},
			{
				"x": -0.5863652225,
				"y": -3.6098454369,
				"z": 1.9371641439,
				"element": "H" 
			},
			{
				"x": -2.3644762333,
				"y": -3.5346831615,
				"z": 1.8596768733,
				"element": "H" 
			},
			{
				"x": -0.7027322375,
				"y": -1.1027555874,
				"z": 2.3417228523,
				"element": "H" 
			},
			{
				"x": -2.9476016173,
				"y": 0.9069163294,
				"z": 1.7183356925,
				"element": "H" 
			},
			{
				"x": -2.5232797391,
				"y": 0.6446070031,
				"z": 0.0309854784,
				"element": "H" 
			},
			{
				"x": -0.902167092,
				"y": 1.7519441605,
				"z": 1.9675824098,
				"element": "H" 
			},
			{
				"x": 1.2508564372,
				"y": 2.4715926963,
				"z": 1.4605332101,
				"element": "H" 
			},
			{
				"x": 3.0576744792,
				"y": 1.0066763549,
				"z": -2.1579949603,
				"element": "H" 
			},
			{
				"x": 1.1233088703,
				"y": -0.5246651784,
				"z": -2.481607805,
				"element": "H" 
			},
			{
				"x": -0.7250749349,
				"y": -0.5781575567,
				"z": -0.8637802308,
				"element": "H" 
			},
			{
				"x": 5.1334745809,
				"y": 4.136935553,
				"z": 0.197195942,
				"element": "H" 
			}
		],
		 "valence_orbital": [ 
			{
				"type": "occ",
				"energy": -0.27345,
				"method": "rhf"
			},
			{
				"type": "occ",
				"energy": -0.24904,
				"method": "rhf"
			},
			{
				"type": "occ",
				"energy": -0.24866,
				"method": "rhf"
			},
			{
				"type": "occ",
				"energy": -0.23547,
				"method": "rhf"
			},
			{
				"type": "occ",
				"energy": -0.21205,
				"method": "rhf"
			},
			{
				"type": "unocc",
				"energy": -0.0295,
				"method": "rhf"
			},
			{
				"type": "unocc",
				"energy": 0.00181,
				"method": "rhf"
			},
			{
				"type": "unocc",
				"energy": 0.02979,
				"method": "rhf"
			},
			{
				"type": "unocc",
				"energy": 0.05418,
				"method": "rhf"
			},
			{
				"type": "unocc",
				"energy": 0.07374,
				"method": "rhf"
			}
		],
		"cosmo_sigma_profile": { 
			"-0.025": 0.0,
			"-0.024": 0.0,
			"-0.023": 0.0,
			"-0.022": 0.0,
			"-0.021": 0.0,
			"-0.02": 0.0,
			"-0.019": 0.0,
			"-0.018": 0.0,
			"-0.017": 0.0,
			"-0.016": 0.0,
			"-0.015": 0.0,
			"-0.014": 0.340074676381,
			"-0.013": 1.52581723408,
			"-0.012": 2.45667063835,
			"-0.011": 3.46371095784,
			"-0.01": 3.53061675841,
			"-0.009": 3.58950253721,
			"-0.008": 5.15043816599,
			"-0.007": 5.68515344625,
			"-0.006": 8.24678413728,
			"-0.005": 17.1597523443,
			"-0.004": 18.8660615695,
			"-0.003": 19.493245583,
			"-0.002": 19.8653942596,
			"-0.001": 17.3890876818,
			"0.0": 10.1559582241,
			"0.001": 12.8869689589,
			"0.002": 13.8255989135,
			"0.003": 17.3093162728,
			"0.004": 16.2392360703,
			"0.005": 16.2106975753,
			"0.006": 12.5757298082,
			"0.007": 4.77923895397,
			"0.008": 1.27801080155,
			"0.009": 1.69117495512,
			"0.01": 1.24029936829,
			"0.011": 1.20112059232,
			"0.012": 1.47169122813,
			"0.013": 1.81700626076,
			"0.014": 5.84090122966,
			"0.015": 2.71750544289,
			"0.016": 0.161718059117,
			"0.017": 0.0,
			"0.018": 0.0,
			"0.019": 0.0,
			"0.02": 0.0,
			"0.021": 0.0,
			"0.022": 0.0,
			"0.023": 0.0,
			"0.024": 0.0,
			"0.025": 0.0
		}
	}
}
