{
	 "smiles": "[O-][N+](=O)C1=C(C(F)=CC=C1)S(Cl)(=O)=O", 
	 "Tm": 363.15, 
	 "num_atms": 17, 
	 "gaussian": { 
		 "optdone": 1, 
		 "sigma_profile": "yes", 
		 "theory": "DFT", 
		 "functional": "B3LYP", 
		 "basiset": "6-31G**", 
		 "properties": { 
			 "R2extent": 3834.3404, 
			 "electric_dipole_moment_norm": 7.06596835826, 
			 "electric_quadrupole_moment_norm": 6.60423621852, 
			 "total_energy": -1544.10157015, 
			 "HOMO_LUMO_gap": 0.1842, 
			 "cosmo_polarized_energy": -13.98, 
			 "cosmo_cavitation_energy": 26.43, 
			 "cosmo_dispersion_energy": -19.38, 
			 "cosmo_repulsion_energy": 1.46, 
			 "cosmo_total_nonelectrostatic_energy": 8.51, 
			 "SMD_solvation_energy": 6.23 
		},
		"coords": [
			{
				"x": 0.8341038229,
				"y": -3.1720046423,
				"z": -0.2291167426,
				"element": "O" 
			},
			{
				"x": 0.1986987302,
				"y": -2.4363439067,
				"z": -0.972438425,
				"element": "N" 
			},
			{
				"x": -0.2298325336,
				"y": -2.7091301347,
				"z": -2.0872406011,
				"element": "O" 
			},
			{
				"x": 0.0218110405,
				"y": -1.037669775,
				"z": -0.5190703752,
				"element": "C" 
			},
			{
				"x": -0.5660485721,
				"y": -0.701640192,
				"z": 0.7090832505,
				"element": "C" 
			},
			{
				"x": -0.5117577861,
				"y": 0.6402017263,
				"z": 1.1050736771,
				"element": "C" 
			},
			{
				"x": -1.0417379352,
				"y": 0.9999455115,
				"z": 2.2755234928,
				"element": "F" 
			},
			{
				"x": 0.0564716648,
				"y": 1.6237399753,
				"z": 0.3029768436,
				"element": "C" 
			},
			{
				"x": 0.5900251431,
				"y": 1.2646446026,
				"z": -0.9307168016,
				"element": "C" 
			},
			{
				"x": 0.571979907,
				"y": -0.0666290725,
				"z": -1.3481323544,
				"element": "C" 
			},
			{
				"x": -1.4085893485,
				"y": -1.8974797414,
				"z": 1.7697123719,
				"element": "S" 
			},
			{
				"x": -3.3274004848,
				"y": -0.998313631,
				"z": 1.8984407446,
				"element": "Cl" 
			},
			{
				"x": -0.8191866221,
				"y": -1.8537312876,
				"z": 3.0968843316,
				"element": "O" 
			},
			{
				"x": -1.6178161417,
				"y": -3.1297254835,
				"z": 1.0308580104,
				"element": "O" 
			},
			{
				"x": 0.061604882,
				"y": 2.6472262164,
				"z": 0.660137351,
				"element": "H" 
			},
			{
				"x": 1.0300772008,
				"y": 2.0225530675,
				"z": -1.5700193227,
				"element": "H" 
			},
			{
				"x": 0.9980970328,
				"y": -0.3681432328,
				"z": -2.2975554509,
				"element": "H" 
			}
		],
		 "valence_orbital": [ 
			{
				"type": "occ",
				"energy": -0.33205,
				"method": "rhf"
			},
			{
				"type": "occ",
				"energy": -0.32761,
				"method": "rhf"
			},
			{
				"type": "occ",
				"energy": -0.32262,
				"method": "rhf"
			},
			{
				"type": "occ",
				"energy": -0.30995,
				"method": "rhf"
			},
			{
				"type": "occ",
				"energy": -0.29738,
				"method": "rhf"
			},
			{
				"type": "unocc",
				"energy": -0.11318,
				"method": "rhf"
			},
			{
				"type": "unocc",
				"energy": -0.09511,
				"method": "rhf"
			},
			{
				"type": "unocc",
				"energy": -0.06578,
				"method": "rhf"
			},
			{
				"type": "unocc",
				"energy": -0.05426,
				"method": "rhf"
			},
			{
				"type": "unocc",
				"energy": 0.00887,
				"method": "rhf"
			}
		],
		"cosmo_sigma_profile": { 
			"-0.025": 0.0,
			"-0.024": 0.0,
			"-0.023": 0.0,
			"-0.022": 0.0,
			"-0.021": 0.0,
			"-0.02": 0.0,
			"-0.019": 0.0,
			"-0.018": 0.0,
			"-0.017": 0.0,
			"-0.016": 0.0,
			"-0.015": 0.0,
			"-0.014": 0.0,
			"-0.013": 0.0,
			"-0.012": 0.0,
			"-0.011": 0.335310214728,
			"-0.01": 5.18069545904,
			"-0.009": 9.5299682364,
			"-0.008": 7.28313464762,
			"-0.007": 5.81170468773,
			"-0.006": 5.61345751492,
			"-0.005": 7.65705809887,
			"-0.004": 14.8201488655,
			"-0.003": 14.5131730365,
			"-0.002": 13.0153790476,
			"-0.001": 15.8076201973,
			"0.0": 10.1771710239,
			"0.001": 13.2695163665,
			"0.002": 22.1192438761,
			"0.003": 13.8339280767,
			"0.004": 6.8982684396,
			"0.005": 8.10818909523,
			"0.006": 16.9026259381,
			"0.007": 17.2416367446,
			"0.008": 7.53764405106,
			"0.009": 0.512538703027,
			"0.01": 0.0,
			"0.011": 0.0,
			"0.012": 0.0,
			"0.013": 0.0,
			"0.014": 0.0,
			"0.015": 0.0,
			"0.016": 0.0,
			"0.017": 0.0,
			"0.018": 0.0,
			"0.019": 0.0,
			"0.02": 0.0,
			"0.021": 0.0,
			"0.022": 0.0,
			"0.023": 0.0,
			"0.024": 0.0,
			"0.025": 0.0
		}
	}
}
