{
	 "smiles": "CN(C1CC1)S(=O)(=O)C1=CC=C(N)C=C1", 
	 "Tm": 405.15, 
	 "num_atms": 29, 
	 "gaussian": { 
		 "optdone": 1, 
		 "sigma_profile": "yes", 
		 "theory": "DFT", 
		 "functional": "B3LYP", 
		 "basiset": "6-31G**", 
		 "properties": { 
			 "R2extent": 4327.5054, 
			 "electric_dipole_moment_norm": 6.62015179962, 
			 "electric_quadrupole_moment_norm": 24.3606892766, 
			 "total_energy": -1047.53396675, 
			 "HOMO_LUMO_gap": 0.19898, 
			 "cosmo_polarized_energy": -19.34, 
			 "cosmo_cavitation_energy": 32.52, 
			 "cosmo_dispersion_energy": -23.4, 
			 "cosmo_repulsion_energy": 1.78, 
			 "cosmo_total_nonelectrostatic_energy": 10.9, 
			 "SMD_solvation_energy": 3.44 
		},
		"coords": [
			{
				"x": -0.7337722031,
				"y": -0.9491370026,
				"z": -2.4815354996,
				"element": "C" 
			},
			{
				"x": -0.3268422089,
				"y": -1.1489978298,
				"z": -1.0915512289,
				"element": "N" 
			},
			{
				"x": -1.2092592279,
				"y": -0.7366245366,
				"z": -0.0133256887,
				"element": "C" 
			},
			{
				"x": -1.7307294853,
				"y": 0.6775100349,
				"z": 0.1538485137,
				"element": "C" 
			},
			{
				"x": -2.6647289627,
				"y": -0.44146584,
				"z": -0.249633943,
				"element": "C" 
			},
			{
				"x": 1.3324421863,
				"y": -0.9890922801,
				"z": -0.761044262,
				"element": "S" 
			},
			{
				"x": 1.4962810759,
				"y": -1.4078665522,
				"z": 0.6336841874,
				"element": "O" 
			},
			{
				"x": 2.0262676323,
				"y": -1.665250251,
				"z": -1.8615403518,
				"element": "O" 
			},
			{
				"x": 1.7522601932,
				"y": 0.7452229865,
				"z": -0.8551774412,
				"element": "C" 
			},
			{
				"x": 1.6754965842,
				"y": 1.5464054387,
				"z": 0.2893563491,
				"element": "C" 
			},
			{
				"x": 1.9783744368,
				"y": 2.8991745861,
				"z": 0.2101873672,
				"element": "C" 
			},
			{
				"x": 2.3642857849,
				"y": 3.4787453691,
				"z": -1.0150234668,
				"element": "C" 
			},
			{
				"x": 2.6181248465,
				"y": 4.8383707948,
				"z": -1.1039687664,
				"element": "N" 
			},
			{
				"x": 2.4457791088,
				"y": 2.6568505826,
				"z": -2.1565038501,
				"element": "C" 
			},
			{
				"x": 2.1436399778,
				"y": 1.303485395,
				"z": -2.0770864352,
				"element": "C" 
			},
			{
				"x": 0.0418772968,
				"y": -1.3590790506,
				"z": -3.1275567409,
				"element": "H" 
			},
			{
				"x": -1.6542591764,
				"y": -1.5090408272,
				"z": -2.6618299396,
				"element": "H" 
			},
			{
				"x": -0.9001899383,
				"y": 0.1066351944,
				"z": -2.7446526452,
				"element": "H" 
			},
			{
				"x": -0.9741846149,
				"y": -1.2720373551,
				"z": 0.8990783384,
				"element": "H" 
			},
			{
				"x": -1.7911856115,
				"y": 1.083566605,
				"z": 1.1589559324,
				"element": "H" 
			},
			{
				"x": -1.4806174249,
				"y": 1.4086361417,
				"z": -0.6084859747,
				"element": "H" 
			},
			{
				"x": -3.371425687,
				"y": -0.8310792776,
				"z": 0.4766756609,
				"element": "H" 
			},
			{
				"x": -3.0454978354,
				"y": -0.42571361,
				"z": -1.2649482494,
				"element": "H" 
			},
			{
				"x": 1.4028406239,
				"y": 1.0978522149,
				"z": 1.2380166275,
				"element": "H" 
			},
			{
				"x": 1.925163347,
				"y": 3.518584188,
				"z": 1.1017996481,
				"element": "H" 
			},
			{
				"x": 3.1783053625,
				"y": 5.1413670003,
				"z": -1.88744161,
				"element": "H" 
			},
			{
				"x": 2.8535190227,
				"y": 5.3094299311,
				"z": -0.2424963947,
				"element": "H" 
			},
			{
				"x": 2.7566805417,
				"y": 3.0870368816,
				"z": -3.1050203998,
				"element": "H" 
			},
			{
				"x": 2.2388543549,
				"y": 0.6686110681,
				"z": -2.9512797366,
				"element": "H" 
			}
		],
		 "valence_orbital": [ 
			{
				"type": "occ",
				"energy": -0.28845,
				"method": "rhf"
			},
			{
				"type": "occ",
				"energy": -0.28415,
				"method": "rhf"
			},
			{
				"type": "occ",
				"energy": -0.26474,
				"method": "rhf"
			},
			{
				"type": "occ",
				"energy": -0.23777,
				"method": "rhf"
			},
			{
				"type": "occ",
				"energy": -0.21691,
				"method": "rhf"
			},
			{
				"type": "unocc",
				"energy": -0.01793,
				"method": "rhf"
			},
			{
				"type": "unocc",
				"energy": -0.01469,
				"method": "rhf"
			},
			{
				"type": "unocc",
				"energy": 0.06191,
				"method": "rhf"
			},
			{
				"type": "unocc",
				"energy": 0.07138,
				"method": "rhf"
			},
			{
				"type": "unocc",
				"energy": 0.08499,
				"method": "rhf"
			}
		],
		"cosmo_sigma_profile": { 
			"-0.025": 0.0,
			"-0.024": 0.0,
			"-0.023": 0.0,
			"-0.022": 0.0,
			"-0.021": 0.0,
			"-0.02": 0.0,
			"-0.019": 0.0,
			"-0.018": 0.0,
			"-0.017": 0.0,
			"-0.016": 0.0,
			"-0.015": 0.0,
			"-0.014": 0.180126231268,
			"-0.013": 2.48037770822,
			"-0.012": 3.07911933743,
			"-0.011": 2.98929655377,
			"-0.01": 3.46272243002,
			"-0.009": 2.65688462926,
			"-0.008": 3.62180461943,
			"-0.007": 4.04234309107,
			"-0.006": 11.3495084166,
			"-0.005": 20.942050395,
			"-0.004": 21.9796557381,
			"-0.003": 20.0152784515,
			"-0.002": 20.6268714242,
			"-0.001": 14.3096659885,
			"0.0": 14.8314042678,
			"0.001": 12.1425853782,
			"0.002": 14.6740371101,
			"0.003": 15.2452068908,
			"0.004": 17.5845402177,
			"0.005": 8.4713577656,
			"0.006": 4.75026831668,
			"0.007": 5.1872134934,
			"0.008": 4.83813544721,
			"0.009": 5.62451591387,
			"0.01": 5.27072933279,
			"0.011": 8.17686582419,
			"0.012": 7.36786635181,
			"0.013": 0.873967092396,
			"0.014": 0.0,
			"0.015": 0.0,
			"0.016": 0.0,
			"0.017": 0.0,
			"0.018": 0.0,
			"0.019": 0.0,
			"0.02": 0.0,
			"0.021": 0.0,
			"0.022": 0.0,
			"0.023": 0.0,
			"0.024": 0.0,
			"0.025": 0.0
		}
	}
}
