{
	 "smiles": "NC1=CC(=CC=C1)N1C(=O)CNC1=O", 
	 "Tm": 430.15, 
	 "num_atms": 23, 
	 "gaussian": { 
		 "optdone": 1, 
		 "sigma_profile": "yes", 
		 "theory": "DFT", 
		 "functional": "B3LYP", 
		 "basiset": "6-31G**", 
		 "properties": { 
			 "R2extent": 2865.5705, 
			 "electric_dipole_moment_norm": 2.13563147804, 
			 "electric_quadrupole_moment_norm": 24.7461373218, 
			 "total_energy": -663.120399784, 
			 "HOMO_LUMO_gap": 0.18275, 
			 "cosmo_polarized_energy": -19.65, 
			 "cosmo_cavitation_energy": 27.27, 
			 "cosmo_dispersion_energy": -20.36, 
			 "cosmo_repulsion_energy": 1.61, 
			 "cosmo_total_nonelectrostatic_energy": 8.52, 
			 "SMD_solvation_energy": 5.24 
		},
		"coords": [
			{
				"x": -3.1542891053,
				"y": 1.3458380382,
				"z": 1.2462796919,
				"element": "N" 
			},
			{
				"x": -2.3162925711,
				"y": 0.3431469203,
				"z": 0.752875738,
				"element": "C" 
			},
			{
				"x": -0.9874919895,
				"y": 0.6413998694,
				"z": 0.4135757447,
				"element": "C" 
			},
			{
				"x": -0.16125021,
				"y": -0.3500917709,
				"z": -0.1186989087,
				"element": "C" 
			},
			{
				"x": -0.6380513646,
				"y": -1.6482689197,
				"z": -0.3337476832,
				"element": "C" 
			},
			{
				"x": -1.9644030622,
				"y": -1.9290658063,
				"z": -0.0092933319,
				"element": "C" 
			},
			{
				"x": -2.8010072994,
				"y": -0.9563852575,
				"z": 0.5306855228,
				"element": "C" 
			},
			{
				"x": 1.1980637064,
				"y": -0.0288643678,
				"z": -0.4328923057,
				"element": "N" 
			},
			{
				"x": 2.0098593525,
				"y": 0.8348795371,
				"z": 0.2983585304,
				"element": "C" 
			},
			{
				"x": 1.7202915883,
				"y": 1.4624593291,
				"z": 1.2953097306,
				"element": "O" 
			},
			{
				"x": 3.3684891129,
				"y": 0.85599665,
				"z": -0.4048180896,
				"element": "C" 
			},
			{
				"x": 3.1846583967,
				"y": -0.1016586787,
				"z": -1.4700548178,
				"element": "N" 
			},
			{
				"x": 1.8977081065,
				"y": -0.5692248859,
				"z": -1.5572129622,
				"element": "C" 
			},
			{
				"x": 1.4399660557,
				"y": -1.3001738639,
				"z": -2.4088358106,
				"element": "O" 
			},
			{
				"x": -2.6792975785,
				"y": 2.1078220312,
				"z": 1.7107152877,
				"element": "H" 
			},
			{
				"x": -3.9441800735,
				"y": 1.0148237717,
				"z": 1.7829839166,
				"element": "H" 
			},
			{
				"x": -0.5966650453,
				"y": 1.636252704,
				"z": 0.5866945018,
				"element": "H" 
			},
			{
				"x": 0.0043178738,
				"y": -2.4052564775,
				"z": -0.761595994,
				"element": "H" 
			},
			{
				"x": -2.350349469,
				"y": -2.9306457264,
				"z": -0.1755503544,
				"element": "H" 
			},
			{
				"x": -3.8314015951,
				"y": -1.1962786688,
				"z": 0.7803045043,
				"element": "H" 
			},
			{
				"x": 4.1534755787,
				"y": 0.5716933368,
				"z": 0.3050938914,
				"element": "H" 
			},
			{
				"x": 3.5780987965,
				"y": 1.8726712087,
				"z": -0.7608536134,
				"element": "H" 
			},
			{
				"x": 3.7995507956,
				"y": -0.2132689732,
				"z": -2.2604231886,
				"element": "H" 
			}
		],
		 "valence_orbital": [ 
			{
				"type": "occ",
				"energy": -0.28472,
				"method": "rhf"
			},
			{
				"type": "occ",
				"energy": -0.27289,
				"method": "rhf"
			},
			{
				"type": "occ",
				"energy": -0.26524,
				"method": "rhf"
			},
			{
				"type": "occ",
				"energy": -0.23322,
				"method": "rhf"
			},
			{
				"type": "occ",
				"energy": -0.20063,
				"method": "rhf"
			},
			{
				"type": "unocc",
				"energy": -0.01788,
				"method": "rhf"
			},
			{
				"type": "unocc",
				"energy": 0.00389,
				"method": "rhf"
			},
			{
				"type": "unocc",
				"energy": 0.01748,
				"method": "rhf"
			},
			{
				"type": "unocc",
				"energy": 0.0652,
				"method": "rhf"
			},
			{
				"type": "unocc",
				"energy": 0.07782,
				"method": "rhf"
			}
		],
		"cosmo_sigma_profile": { 
			"-0.025": 0.0,
			"-0.024": 0.0,
			"-0.023": 0.0,
			"-0.022": 0.0,
			"-0.021": 0.0,
			"-0.02": 0.0,
			"-0.019": 0.0,
			"-0.018": 0.0,
			"-0.017": 0.0,
			"-0.016": 0.555974191617,
			"-0.015": 1.27406918338,
			"-0.014": 1.17709364112,
			"-0.013": 2.17313163282,
			"-0.012": 3.58165589957,
			"-0.011": 3.13259706201,
			"-0.01": 3.64281403215,
			"-0.009": 4.93076903776,
			"-0.008": 9.564151614,
			"-0.007": 10.5865974052,
			"-0.006": 12.1459241215,
			"-0.005": 12.7776217647,
			"-0.004": 12.5425383146,
			"-0.003": 12.930143058,
			"-0.002": 9.02069205772,
			"-0.001": 10.4380642893,
			"0.0": 7.81688747092,
			"0.001": 8.17854461959,
			"0.002": 8.07896551429,
			"0.003": 8.13619412989,
			"0.004": 11.0263958671,
			"0.005": 12.8150695982,
			"0.006": 11.1783862562,
			"0.007": 4.65524892332,
			"0.008": 4.64827190343,
			"0.009": 4.57627066767,
			"0.01": 4.10614817815,
			"0.011": 7.17903385529,
			"0.012": 9.22228467209,
			"0.013": 4.34611483501,
			"0.014": 0.642129428058,
			"0.015": 0.143730882266,
			"0.016": 0.0,
			"0.017": 0.0,
			"0.018": 0.0,
			"0.019": 0.0,
			"0.02": 0.0,
			"0.021": 0.0,
			"0.022": 0.0,
			"0.023": 0.0,
			"0.024": 0.0,
			"0.025": 0.0
		}
	}
}
