{
	 "smiles": "COCCC(=O)NC1=C(C=C(F)C=C1)C(O)=O", 
	 "Tm": 384.15, 
	 "num_atms": 29, 
	 "gaussian": { 
		 "optdone": 1, 
		 "sigma_profile": "yes", 
		 "theory": "DFT", 
		 "functional": "B3LYP", 
		 "basiset": "6-31G**", 
		 "properties": { 
			 "R2extent": 6166.4512, 
			 "electric_dipole_moment_norm": 2.83011054554, 
			 "electric_quadrupole_moment_norm": 24.4566362066, 
			 "total_energy": -881.898420506, 
			 "HOMO_LUMO_gap": 0.16097, 
			 "cosmo_polarized_energy": -16.44, 
			 "cosmo_cavitation_energy": 33.94, 
			 "cosmo_dispersion_energy": -24.38, 
			 "cosmo_repulsion_energy": 1.88, 
			 "cosmo_total_nonelectrostatic_energy": 11.45, 
			 "SMD_solvation_energy": 8.38 
		},
		"coords": [
			{
				"x": 2.9695517142,
				"y": 2.8788064868,
				"z": -1.7107599262,
				"element": "C" 
			},
			{
				"x": 1.596262313,
				"y": 3.2083622106,
				"z": -1.7412567095,
				"element": "O" 
			},
			{
				"x": 0.7579291234,
				"y": 2.1608961984,
				"z": -2.2006842452,
				"element": "C" 
			},
			{
				"x": 0.4281234634,
				"y": 1.1594722497,
				"z": -1.0822206947,
				"element": "C" 
			},
			{
				"x": -0.4790874015,
				"y": 0.0533112027,
				"z": -1.5957432877,
				"element": "C" 
			},
			{
				"x": -0.5534949989,
				"y": -0.20086711,
				"z": -2.7901358095,
				"element": "O" 
			},
			{
				"x": -1.2844880407,
				"y": -0.6659171329,
				"z": -0.7180769177,
				"element": "N" 
			},
			{
				"x": -1.4544291129,
				"y": -0.6307630226,
				"z": 0.6662216787,
				"element": "C" 
			},
			{
				"x": -2.6976721606,
				"y": -1.0350950611,
				"z": 1.2362216979,
				"element": "C" 
			},
			{
				"x": -2.8757458002,
				"y": -1.0044107918,
				"z": 2.6300004606,
				"element": "C" 
			},
			{
				"x": -1.8443796429,
				"y": -0.5897596547,
				"z": 3.4497352659,
				"element": "C" 
			},
			{
				"x": -2.0271506372,
				"y": -0.5604410159,
				"z": 4.7854170138,
				"element": "F" 
			},
			{
				"x": -0.6109270929,
				"y": -0.222546604,
				"z": 2.9218439261,
				"element": "C" 
			},
			{
				"x": -0.4201085268,
				"y": -0.2560965207,
				"z": 1.5460165803,
				"element": "C" 
			},
			{
				"x": -3.8125654815,
				"y": -1.5198021144,
				"z": 0.3894476638,
				"element": "C" 
			},
			{
				"x": -4.9604526079,
				"y": -1.7179036224,
				"z": 1.075731047,
				"element": "O" 
			},
			{
				"x": -3.754536589,
				"y": -1.7470374254,
				"z": -0.8114025339,
				"element": "O" 
			},
			{
				"x": 3.5093982891,
				"y": 3.7815373683,
				"z": -1.414084523,
				"element": "H" 
			},
			{
				"x": 3.3320807103,
				"y": 2.5566652558,
				"z": -2.6991562383,
				"element": "H" 
			},
			{
				"x": 3.2035148994,
				"y": 2.0839902709,
				"z": -0.98510416,
				"element": "H" 
			},
			{
				"x": 1.2029996142,
				"y": 1.6353754342,
				"z": -3.0548342719,
				"element": "H" 
			},
			{
				"x": -0.1637260686,
				"y": 2.6342504947,
				"z": -2.5515826486,
				"element": "H" 
			},
			{
				"x": -0.0269154548,
				"y": 1.6885575323,
				"z": -0.2392951315,
				"element": "H" 
			},
			{
				"x": 1.3573317076,
				"y": 0.7086287922,
				"z": -0.7098435984,
				"element": "H" 
			},
			{
				"x": -1.9951322378,
				"y": -1.2060253813,
				"z": -1.2119400134,
				"element": "H" 
			},
			{
				"x": -3.8196566654,
				"y": -1.3082599978,
				"z": 3.0635594278,
				"element": "H" 
			},
			{
				"x": 0.1943830121,
				"y": 0.0662687526,
				"z": 3.5887249232,
				"element": "H" 
			},
			{
				"x": 0.557452628,
				"y": -0.015671036,
				"z": 1.1536145769,
				"element": "H" 
			},
			{
				"x": -5.6024589554,
				"y": -2.0504257586,
				"z": 0.4268864476,
				"element": "H" 
			}
		],
		 "valence_orbital": [ 
			{
				"type": "occ",
				"energy": -0.29604,
				"method": "rhf"
			},
			{
				"type": "occ",
				"energy": -0.28463,
				"method": "rhf"
			},
			{
				"type": "occ",
				"energy": -0.26606,
				"method": "rhf"
			},
			{
				"type": "occ",
				"energy": -0.25076,
				"method": "rhf"
			},
			{
				"type": "occ",
				"energy": -0.23066,
				"method": "rhf"
			},
			{
				"type": "unocc",
				"energy": -0.06969,
				"method": "rhf"
			},
			{
				"type": "unocc",
				"energy": -0.02536,
				"method": "rhf"
			},
			{
				"type": "unocc",
				"energy": 0.02447,
				"method": "rhf"
			},
			{
				"type": "unocc",
				"energy": 0.04015,
				"method": "rhf"
			},
			{
				"type": "unocc",
				"energy": 0.06309,
				"method": "rhf"
			}
		],
		"cosmo_sigma_profile": { 
			"-0.025": 0.0,
			"-0.024": 0.0,
			"-0.023": 0.0,
			"-0.022": 0.0,
			"-0.021": 0.0,
			"-0.02": 0.0,
			"-0.019": 0.22839650166,
			"-0.018": 1.10329075528,
			"-0.017": 0.894847908604,
			"-0.016": 0.522113135779,
			"-0.015": 1.24487608303,
			"-0.014": 0.435549451194,
			"-0.013": 0.817497171606,
			"-0.012": 0.846988848598,
			"-0.011": 0.54701272725,
			"-0.01": 0.395065748369,
			"-0.009": 2.36902474982,
			"-0.008": 5.82252554377,
			"-0.007": 7.50304510453,
			"-0.006": 8.99964632658,
			"-0.005": 13.5845892617,
			"-0.004": 21.1559260475,
			"-0.003": 24.7726824058,
			"-0.002": 23.3552114899,
			"-0.001": 21.1158255991,
			"0.0": 23.4649646324,
			"0.001": 22.7509662845,
			"0.002": 15.0829790585,
			"0.003": 11.0519282256,
			"0.004": 14.9510177184,
			"0.005": 6.6835697937,
			"0.006": 6.50235512923,
			"0.007": 4.04494054396,
			"0.008": 3.34372116395,
			"0.009": 4.90478383536,
			"0.01": 4.6782928655,
			"0.011": 4.59383473185,
			"0.012": 5.3499486955,
			"0.013": 6.00458364587,
			"0.014": 0.765611647485,
			"0.015": 0.0,
			"0.016": 0.0,
			"0.017": 0.0,
			"0.018": 0.0,
			"0.019": 0.0,
			"0.02": 0.0,
			"0.021": 0.0,
			"0.022": 0.0,
			"0.023": 0.0,
			"0.024": 0.0,
			"0.025": 0.0
		}
	}
}
