{
	 "smiles": "NCCNC1=C2C=CSC2=NC=N1", 
	 "Tm": 391.15, 
	 "num_atms": 23, 
	 "gaussian": { 
		 "optdone": 1, 
		 "sigma_profile": "yes", 
		 "theory": "DFT", 
		 "functional": "B3LYP", 
		 "basiset": "6-31G**", 
		 "properties": { 
			 "R2extent": 4182.8707, 
			 "electric_dipole_moment_norm": 4.28794323423, 
			 "electric_quadrupole_moment_norm": 13.8400112135, 
			 "total_energy": -928.06728519, 
			 "HOMO_LUMO_gap": 0.18263, 
			 "cosmo_polarized_energy": -13.75, 
			 "cosmo_cavitation_energy": 27.73, 
			 "cosmo_dispersion_energy": -21.21, 
			 "cosmo_repulsion_energy": 1.63, 
			 "cosmo_total_nonelectrostatic_energy": 8.14, 
			 "SMD_solvation_energy": 0.17 
		},
		"coords": [
			{
				"x": 0.1323616075,
				"y": 0.6903289055,
				"z": -4.0571079123,
				"element": "N" 
			},
			{
				"x": -0.4565261214,
				"y": 0.8479562167,
				"z": -2.7260935975,
				"element": "C" 
			},
			{
				"x": -0.1364714127,
				"y": -0.383958531,
				"z": -1.8692957168,
				"element": "C" 
			},
			{
				"x": 1.2894343835,
				"y": -0.6050564882,
				"z": -1.6800800098,
				"element": "N" 
			},
			{
				"x": 2.1136013191,
				"y": -0.186908238,
				"z": -0.6768937493,
				"element": "C" 
			},
			{
				"x": 1.7757361636,
				"y": 0.7235317837,
				"z": 0.3690302547,
				"element": "C" 
			},
			{
				"x": 0.5961750113,
				"y": 1.4847763077,
				"z": 0.7009236795,
				"element": "C" 
			},
			{
				"x": 0.7524332382,
				"y": 2.2377217778,
				"z": 1.8220691612,
				"element": "C" 
			},
			{
				"x": 2.3332458089,
				"y": 2.0800330282,
				"z": 2.5489676313,
				"element": "S" 
			},
			{
				"x": 2.8229044283,
				"y": 0.9561277494,
				"z": 1.2911596083,
				"element": "C" 
			},
			{
				"x": 4.0487287326,
				"y": 0.4260907636,
				"z": 1.2527679387,
				"element": "N" 
			},
			{
				"x": 4.2336011856,
				"y": -0.3856611179,
				"z": 0.2118889792,
				"element": "C" 
			},
			{
				"x": 3.3527550698,
				"y": -0.7155178098,
				"z": -0.7351733435,
				"element": "N" 
			},
			{
				"x": -0.1666612565,
				"y": 1.4490134505,
				"z": -4.6636729228,
				"element": "H" 
			},
			{
				"x": 1.1445874637,
				"y": 0.7656263632,
				"z": -3.98504753,
				"element": "H" 
			},
			{
				"x": -1.5462780458,
				"y": 0.9108093589,
				"z": -2.8339073114,
				"element": "H" 
			},
			{
				"x": -0.1313956745,
				"y": 1.7581933431,
				"z": -2.1935048497,
				"element": "H" 
			},
			{
				"x": -0.5305471817,
				"y": -1.2655975434,
				"z": -2.3834773254,
				"element": "H" 
			},
			{
				"x": -0.6367958689,
				"y": -0.325164375,
				"z": -0.8984682178,
				"element": "H" 
			},
			{
				"x": 1.7472170744,
				"y": -1.265568399,
				"z": -2.2932169348,
				"element": "H" 
			},
			{
				"x": -0.323136795,
				"y": 1.4886735067,
				"z": 0.1326406568,
				"element": "H" 
			},
			{
				"x": 0.0217196496,
				"y": 2.8939408243,
				"z": 2.274585267,
				"element": "H" 
			},
			{
				"x": 5.2191112203,
				"y": -0.8389908771,
				"z": 0.1220062445,
				"element": "H" 
			}
		],
		 "valence_orbital": [ 
			{
				"type": "occ",
				"energy": -0.26749,
				"method": "rhf"
			},
			{
				"type": "occ",
				"energy": -0.2601,
				"method": "rhf"
			},
			{
				"type": "occ",
				"energy": -0.25134,
				"method": "rhf"
			},
			{
				"type": "occ",
				"energy": -0.24537,
				"method": "rhf"
			},
			{
				"type": "occ",
				"energy": -0.2113,
				"method": "rhf"
			},
			{
				"type": "unocc",
				"energy": -0.02867,
				"method": "rhf"
			},
			{
				"type": "unocc",
				"energy": -0.01202,
				"method": "rhf"
			},
			{
				"type": "unocc",
				"energy": 0.02498,
				"method": "rhf"
			},
			{
				"type": "unocc",
				"energy": 0.03388,
				"method": "rhf"
			},
			{
				"type": "unocc",
				"energy": 0.07088,
				"method": "rhf"
			}
		],
		"cosmo_sigma_profile": { 
			"-0.025": 0.0,
			"-0.024": 0.0,
			"-0.023": 0.0,
			"-0.022": 0.0,
			"-0.021": 0.0,
			"-0.02": 0.0,
			"-0.019": 0.0,
			"-0.018": 0.0,
			"-0.017": 0.0,
			"-0.016": 0.0,
			"-0.015": 0.0,
			"-0.014": 0.0614614765731,
			"-0.013": 0.726594602634,
			"-0.012": 0.695927431872,
			"-0.011": 1.05639165481,
			"-0.01": 1.56442784857,
			"-0.009": 4.4990107366,
			"-0.008": 6.61224800289,
			"-0.007": 8.46376821913,
			"-0.006": 12.2327862985,
			"-0.005": 12.343404556,
			"-0.004": 15.0167207201,
			"-0.003": 16.2602712128,
			"-0.002": 15.470475521,
			"-0.001": 13.3957954212,
			"0.0": 14.5167384741,
			"0.001": 17.9447656135,
			"0.002": 19.1369631918,
			"0.003": 16.0201894919,
			"0.004": 12.734765157,
			"0.005": 5.26514116823,
			"0.006": 2.84025171647,
			"0.007": 3.86419272301,
			"0.008": 3.39190718923,
			"0.009": 2.91294924234,
			"0.01": 2.44496295715,
			"0.011": 2.16989515494,
			"0.012": 2.02545104604,
			"0.013": 2.92933538277,
			"0.014": 2.25674588943,
			"0.015": 1.05873260421,
			"0.016": 1.22754177823,
			"0.017": 0.583363539981,
			"0.018": 0.327254783622,
			"0.019": 0.447278838552,
			"0.02": 0.155523256903,
			"0.021": 0.0,
			"0.022": 0.0,
			"0.023": 0.0,
			"0.024": 0.0,
			"0.025": 0.0
		}
	}
}
