{
	 "smiles": "C1=CC=C(C=C1)C1=CC=C2C=CC=CC2=N1", 
	 "Tm": 357.65, 
	 "num_atms": 27, 
	 "gaussian": { 
		 "optdone": 1, 
		 "sigma_profile": "yes", 
		 "theory": "DFT", 
		 "functional": "B3LYP", 
		 "basiset": "6-31G**", 
		 "properties": { 
			 "R2extent": 4375.6549, 
			 "electric_dipole_moment_norm": 1.53940982847, 
			 "electric_quadrupole_moment_norm": 11.0619463043, 
			 "total_energy": -632.994894545, 
			 "HOMO_LUMO_gap": 0.16379, 
			 "cosmo_polarized_energy": -8.13, 
			 "cosmo_cavitation_energy": 30.81, 
			 "cosmo_dispersion_energy": -22.96, 
			 "cosmo_repulsion_energy": 1.73, 
			 "cosmo_total_nonelectrostatic_energy": 9.58, 
			 "SMD_solvation_energy": 3.77 
		},
		"coords": [
			{
				"x": -3.1839173066,
				"y": 1.1505716259,
				"z": -2.8916532245,
				"element": "C" 
			},
			{
				"x": -2.6517308676,
				"y": 2.2579963848,
				"z": -2.2301925334,
				"element": "C" 
			},
			{
				"x": -1.6576051236,
				"y": 2.08927429,
				"z": -1.2666021164,
				"element": "C" 
			},
			{
				"x": -1.1777719401,
				"y": 0.8089592491,
				"z": -0.9451485682,
				"element": "C" 
			},
			{
				"x": -1.730600717,
				"y": -0.298829865,
				"z": -1.6105134555,
				"element": "C" 
			},
			{
				"x": -2.7197506661,
				"y": -0.1290780726,
				"z": -2.575120696,
				"element": "C" 
			},
			{
				"x": -0.1174473531,
				"y": 0.5963335269,
				"z": 0.0780189165,
				"element": "C" 
			},
			{
				"x": 0.7508105655,
				"y": 1.6588690517,
				"z": 0.4767904353,
				"element": "C" 
			},
			{
				"x": 1.7146951365,
				"y": 1.4263941032,
				"z": 1.4247435318,
				"element": "C" 
			},
			{
				"x": 1.8450899474,
				"y": 0.13484315,
				"z": 1.9956420294,
				"element": "C" 
			},
			{
				"x": 2.8103626739,
				"y": -0.1973146273,
				"z": 2.9803725444,
				"element": "C" 
			},
			{
				"x": 2.8826197886,
				"y": -1.4788717319,
				"z": 3.4805437183,
				"element": "C" 
			},
			{
				"x": 1.992668426,
				"y": -2.4791232966,
				"z": 3.0147025943,
				"element": "C" 
			},
			{
				"x": 1.0454234447,
				"y": -2.185735605,
				"z": 2.0593144942,
				"element": "C" 
			},
			{
				"x": 0.945061578,
				"y": -0.8728672255,
				"z": 1.5242616092,
				"element": "C" 
			},
			{
				"x": -0.0080757899,
				"y": -0.6238531303,
				"z": 0.5853493976,
				"element": "N" 
			},
			{
				"x": -3.9562112597,
				"y": 1.2825537371,
				"z": -3.6440923564,
				"element": "H" 
			},
			{
				"x": -3.0142651699,
				"y": 3.256180766,
				"z": -2.4588867866,
				"element": "H" 
			},
			{
				"x": -1.2766473133,
				"y": 2.9629252295,
				"z": -0.7473513382,
				"element": "H" 
			},
			{
				"x": -1.3671384497,
				"y": -1.2868704557,
				"z": -1.3519805017,
				"element": "H" 
			},
			{
				"x": -3.1298027091,
				"y": -0.997243231,
				"z": -3.0835852964,
				"element": "H" 
			},
			{
				"x": 0.6655055811,
				"y": 2.6357478878,
				"z": 0.0153957993,
				"element": "H" 
			},
			{
				"x": 2.3890879087,
				"y": 2.2200788078,
				"z": 1.7371779639,
				"element": "H" 
			},
			{
				"x": 3.4906852649,
				"y": 0.5742016292,
				"z": 3.3325296616,
				"element": "H" 
			},
			{
				"x": 3.6229605201,
				"y": -1.7283830761,
				"z": 4.2349509756,
				"element": "H" 
			},
			{
				"x": 2.0621086567,
				"y": -3.4850718322,
				"z": 3.4186977845,
				"element": "H" 
			},
			{
				"x": 0.3530851736,
				"y": -2.9348872898,
				"z": 1.6891354174,
				"element": "H" 
			}
		],
		 "valence_orbital": [ 
			{
				"type": "occ",
				"energy": -0.2693,
				"method": "rhf"
			},
			{
				"type": "occ",
				"energy": -0.25228,
				"method": "rhf"
			},
			{
				"type": "occ",
				"energy": -0.24731,
				"method": "rhf"
			},
			{
				"type": "occ",
				"energy": -0.2357,
				"method": "rhf"
			},
			{
				"type": "occ",
				"energy": -0.22082,
				"method": "rhf"
			},
			{
				"type": "unocc",
				"energy": -0.05703,
				"method": "rhf"
			},
			{
				"type": "unocc",
				"energy": -0.02811,
				"method": "rhf"
			},
			{
				"type": "unocc",
				"energy": 0.00212,
				"method": "rhf"
			},
			{
				"type": "unocc",
				"energy": 0.01461,
				"method": "rhf"
			},
			{
				"type": "unocc",
				"energy": 0.03061,
				"method": "rhf"
			}
		],
		"cosmo_sigma_profile": { 
			"-0.025": 0.0,
			"-0.024": 0.0,
			"-0.023": 0.0,
			"-0.022": 0.0,
			"-0.021": 0.0,
			"-0.02": 0.0,
			"-0.019": 0.0,
			"-0.018": 0.0,
			"-0.017": 0.0,
			"-0.016": 0.0,
			"-0.015": 0.0,
			"-0.014": 0.0,
			"-0.013": 0.0,
			"-0.012": 0.0,
			"-0.011": 0.0,
			"-0.01": 0.0,
			"-0.009": 0.0124329758063,
			"-0.008": 1.28896602037,
			"-0.007": 6.00243324079,
			"-0.006": 15.2426494604,
			"-0.005": 20.4557384641,
			"-0.004": 21.3382759531,
			"-0.003": 18.3272006571,
			"-0.002": 14.5990597605,
			"-0.001": 12.7008547699,
			"0.0": 13.0194091476,
			"0.001": 20.6387709144,
			"0.002": 26.6929019151,
			"0.003": 25.2259613127,
			"0.004": 22.2034640282,
			"0.005": 17.3655586208,
			"0.006": 5.13295763422,
			"0.007": 2.386117035,
			"0.008": 1.71976635061,
			"0.009": 1.26859217015,
			"0.01": 1.22874617662,
			"0.011": 0.717241136833,
			"0.012": 0.571774889719,
			"0.013": 0.28913485196,
			"0.014": 0.0,
			"0.015": 0.0,
			"0.016": 0.0,
			"0.017": 0.0,
			"0.018": 0.0,
			"0.019": 0.0,
			"0.02": 0.0,
			"0.021": 0.0,
			"0.022": 0.0,
			"0.023": 0.0,
			"0.024": 0.0,
			"0.025": 0.0
		}
	}
}
