{
	 "smiles": "ClC1=CN2C=CC=CC2=N1", 
	 "Tm": 346.15, 
	 "num_atms": 15, 
	 "gaussian": { 
		 "optdone": 1, 
		 "sigma_profile": "yes", 
		 "theory": "DFT", 
		 "functional": "B3LYP", 
		 "basiset": "6-31G**", 
		 "properties": { 
			 "R2extent": 2195.3435, 
			 "electric_dipole_moment_norm": 4.68251357072, 
			 "electric_quadrupole_moment_norm": 7.81490931553, 
			 "total_energy": -839.441082118, 
			 "HOMO_LUMO_gap": 0.17807, 
			 "cosmo_polarized_energy": -10.24, 
			 "cosmo_cavitation_energy": 21.15, 
			 "cosmo_dispersion_energy": -16.25, 
			 "cosmo_repulsion_energy": 1.3, 
			 "cosmo_total_nonelectrostatic_energy": 6.2, 
			 "SMD_solvation_energy": 2.15 
		},
		"coords": [
			{
				"x": -2.6671748375,
				"y": -0.1484362295,
				"z": 2.7102356153,
				"element": "Cl" 
			},
			{
				"x": -1.2371989862,
				"y": -0.4837661035,
				"z": 1.7875582376,
				"element": "C" 
			},
			{
				"x": -0.069373602,
				"y": 0.2530048936,
				"z": 1.8459061477,
				"element": "C" 
			},
			{
				"x": 0.7743373538,
				"y": -0.376649285,
				"z": 0.9546784329,
				"element": "N" 
			},
			{
				"x": 2.068604554,
				"y": -0.1043048595,
				"z": 0.5823148935,
				"element": "C" 
			},
			{
				"x": 2.6800263052,
				"y": -0.9060548561,
				"z": -0.3411624773,
				"element": "C" 
			},
			{
				"x": 1.9857487121,
				"y": -2.0098519528,
				"z": -0.9109339427,
				"element": "C" 
			},
			{
				"x": 0.6906591332,
				"y": -2.2830487379,
				"z": -0.5388807446,
				"element": "C" 
			},
			{
				"x": 0.0518922096,
				"y": -1.4595537854,
				"z": 0.4145754862,
				"element": "C" 
			},
			{
				"x": -1.1787256297,
				"y": -1.5207466757,
				"z": 0.9274257542,
				"element": "N" 
			},
			{
				"x": 0.2151048774,
				"y": 1.1225882127,
				"z": 2.4145778542,
				"element": "H" 
			},
			{
				"x": 2.5385405162,
				"y": 0.749969874,
				"z": 1.0540563676,
				"element": "H" 
			},
			{
				"x": 3.7010584685,
				"y": -0.68654071,
				"z": -0.6311837523,
				"element": "H" 
			},
			{
				"x": 2.4862874894,
				"y": -2.6355052143,
				"z": -1.6423105857,
				"element": "H" 
			},
			{
				"x": 0.1284134359,
				"y": -3.1135045705,
				"z": -0.9493572865,
				"element": "H" 
			}
		],
		 "valence_orbital": [ 
			{
				"type": "occ",
				"energy": -0.32175,
				"method": "rhf"
			},
			{
				"type": "occ",
				"energy": -0.31266,
				"method": "rhf"
			},
			{
				"type": "occ",
				"energy": -0.2865,
				"method": "rhf"
			},
			{
				"type": "occ",
				"energy": -0.24415,
				"method": "rhf"
			},
			{
				"type": "occ",
				"energy": -0.2195,
				"method": "rhf"
			},
			{
				"type": "unocc",
				"energy": -0.04143,
				"method": "rhf"
			},
			{
				"type": "unocc",
				"energy": -0.00664,
				"method": "rhf"
			},
			{
				"type": "unocc",
				"energy": 0.04817,
				"method": "rhf"
			},
			{
				"type": "unocc",
				"energy": 0.05669,
				"method": "rhf"
			},
			{
				"type": "unocc",
				"energy": 0.08224,
				"method": "rhf"
			}
		],
		"cosmo_sigma_profile": { 
			"-0.025": 0.0,
			"-0.024": 0.0,
			"-0.023": 0.0,
			"-0.022": 0.0,
			"-0.021": 0.0,
			"-0.02": 0.0,
			"-0.019": 0.0,
			"-0.018": 0.0,
			"-0.017": 0.0,
			"-0.016": 0.0,
			"-0.015": 0.0,
			"-0.014": 0.0,
			"-0.013": 0.0,
			"-0.012": 0.0,
			"-0.011": 0.351286353894,
			"-0.01": 3.72140326567,
			"-0.009": 4.12025964202,
			"-0.008": 3.72402094166,
			"-0.007": 9.16593511254,
			"-0.006": 10.2165485638,
			"-0.005": 7.54952712591,
			"-0.004": 6.82508212453,
			"-0.003": 8.41061585949,
			"-0.002": 7.48884020431,
			"-0.001": 11.7260505841,
			"0.0": 13.2705130513,
			"0.001": 14.3275433723,
			"0.002": 20.6371525008,
			"0.003": 16.1328228505,
			"0.004": 13.6751500959,
			"0.005": 6.85614061869,
			"0.006": 2.33223702419,
			"0.007": 2.21931066519,
			"0.008": 1.99315025014,
			"0.009": 0.803988556896,
			"0.01": 1.53874081431,
			"0.011": 0.907402257525,
			"0.012": 1.30227425688,
			"0.013": 0.931998322685,
			"0.014": 0.984301216731,
			"0.015": 1.23871662677,
			"0.016": 0.773671736615,
			"0.017": 0.268959506449,
			"0.018": 0.0,
			"0.019": 0.0,
			"0.02": 0.0,
			"0.021": 0.0,
			"0.022": 0.0,
			"0.023": 0.0,
			"0.024": 0.0,
			"0.025": 0.0
		}
	}
}
