{
	 "smiles": "CN1N=C(C)C=C1NC(N)=S", 
	 "Tm": 492.15, 
	 "num_atms": 21, 
	 "gaussian": { 
		 "optdone": 1, 
		 "sigma_profile": "yes", 
		 "theory": "DFT", 
		 "functional": "B3LYP", 
		 "basiset": "6-31G**", 
		 "properties": { 
			 "R2extent": 3905.4646, 
			 "electric_dipole_moment_norm": 3.69129526047, 
			 "electric_quadrupole_moment_norm": 29.1063933619, 
			 "total_energy": -851.860581315, 
			 "HOMO_LUMO_gap": 0.19389, 
			 "cosmo_polarized_energy": -18.7, 
			 "cosmo_cavitation_energy": 26.78, 
			 "cosmo_dispersion_energy": -19.76, 
			 "cosmo_repulsion_energy": 1.59, 
			 "cosmo_total_nonelectrostatic_energy": 8.6, 
			 "SMD_solvation_energy": 3.25 
		},
		"coords": [
			{
				"x": 0.8640882878,
				"y": 2.8128446579,
				"z": 2.1861913062,
				"element": "C" 
			},
			{
				"x": 0.4203415452,
				"y": 1.9276690061,
				"z": 1.1254487258,
				"element": "N" 
			},
			{
				"x": 1.3121517791,
				"y": 1.4403340025,
				"z": 0.2333955697,
				"element": "N" 
			},
			{
				"x": 0.601260075,
				"y": 0.6976494717,
				"z": -0.6191337488,
				"element": "C" 
			},
			{
				"x": 1.2794469044,
				"y": -0.0167674521,
				"z": -1.7482101837,
				"element": "C" 
			},
			{
				"x": -0.7756494172,
				"y": 0.7242496869,
				"z": -0.2914081563,
				"element": "C" 
			},
			{
				"x": -0.8556719642,
				"y": 1.5326572044,
				"z": 0.8337749022,
				"element": "C" 
			},
			{
				"x": -1.946335401,
				"y": 1.9365396394,
				"z": 1.6168177586,
				"element": "N" 
			},
			{
				"x": -2.8559895623,
				"y": 1.1125478716,
				"z": 2.2434343102,
				"element": "C" 
			},
			{
				"x": -2.6228480455,
				"y": -0.2131499502,
				"z": 2.1432025166,
				"element": "N" 
			},
			{
				"x": -4.1588874426,
				"y": 1.7587425978,
				"z": 3.0829215897,
				"element": "S" 
			},
			{
				"x": 1.8415259918,
				"y": 2.4722030086,
				"z": 2.5291920235,
				"element": "H" 
			},
			{
				"x": 0.1491648306,
				"y": 2.7720583092,
				"z": 3.0098328453,
				"element": "H" 
			},
			{
				"x": 0.9523020284,
				"y": 3.8457269074,
				"z": 1.832168492,
				"element": "H" 
			},
			{
				"x": 2.3503237633,
				"y": 0.1965411441,
				"z": -1.7279011231,
				"element": "H" 
			},
			{
				"x": 1.1420354625,
				"y": -1.1015703563,
				"z": -1.6777711739,
				"element": "H" 
			},
			{
				"x": 0.8818678787,
				"y": 0.3002126964,
				"z": -2.7185438414,
				"element": "H" 
			},
			{
				"x": -1.6000285009,
				"y": 0.2580964276,
				"z": -0.8109398609,
				"element": "H" 
			},
			{
				"x": -2.1864543637,
				"y": 2.917213172,
				"z": 1.6765370269,
				"element": "H" 
			},
			{
				"x": -3.2504117425,
				"y": -0.834235642,
				"z": 2.6258986045,
				"element": "H" 
			},
			{
				"x": -1.8262321067,
				"y": -0.5805624032,
				"z": 1.6422924169,
				"element": "H" 
			}
		],
		 "valence_orbital": [ 
			{
				"type": "occ",
				"energy": -0.28918,
				"method": "rhf"
			},
			{
				"type": "occ",
				"energy": -0.2537,
				"method": "rhf"
			},
			{
				"type": "occ",
				"energy": -0.25008,
				"method": "rhf"
			},
			{
				"type": "occ",
				"energy": -0.21478,
				"method": "rhf"
			},
			{
				"type": "occ",
				"energy": -0.20867,
				"method": "rhf"
			},
			{
				"type": "unocc",
				"energy": -0.01478,
				"method": "rhf"
			},
			{
				"type": "unocc",
				"energy": 0.01441,
				"method": "rhf"
			},
			{
				"type": "unocc",
				"energy": 0.04706,
				"method": "rhf"
			},
			{
				"type": "unocc",
				"energy": 0.06735,
				"method": "rhf"
			},
			{
				"type": "unocc",
				"energy": 0.09572,
				"method": "rhf"
			}
		],
		"cosmo_sigma_profile": { 
			"-0.025": 0.0,
			"-0.024": 0.0,
			"-0.023": 0.0,
			"-0.022": 0.0,
			"-0.021": 0.0,
			"-0.02": 0.0,
			"-0.019": 0.0,
			"-0.018": 0.0,
			"-0.017": 0.0,
			"-0.016": 0.0696528832831,
			"-0.015": 1.43356939476,
			"-0.014": 1.93075455304,
			"-0.013": 2.7564074274,
			"-0.012": 3.12784568385,
			"-0.011": 3.71556363218,
			"-0.01": 2.40828748556,
			"-0.009": 2.36772405863,
			"-0.008": 3.21781562225,
			"-0.007": 4.47562606406,
			"-0.006": 11.3178963422,
			"-0.005": 13.5631769397,
			"-0.004": 16.3288167617,
			"-0.003": 18.7993979669,
			"-0.002": 15.5560969909,
			"-0.001": 14.2578282767,
			"0.0": 13.4751628022,
			"0.001": 9.62324800978,
			"0.002": 8.27217083062,
			"0.003": 7.46300035161,
			"0.004": 8.35469494141,
			"0.005": 5.76465753852,
			"0.006": 4.7695375988,
			"0.007": 5.4279469205,
			"0.008": 4.95592243858,
			"0.009": 4.86531195701,
			"0.01": 6.81238144009,
			"0.011": 8.79006351413,
			"0.012": 7.30042279516,
			"0.013": 1.64256888365,
			"0.014": 0.607126687883,
			"0.015": 1.1412138493,
			"0.016": 0.296355892608,
			"0.017": 0.0,
			"0.018": 0.0,
			"0.019": 0.0,
			"0.02": 0.0,
			"0.021": 0.0,
			"0.022": 0.0,
			"0.023": 0.0,
			"0.024": 0.0,
			"0.025": 0.0
		}
	}
}
