{
	 "smiles": "CC(C)(C)OC(=O)N1N=CC2=C1C=C(N)C=C2", 
	 "Tm": 444.65, 
	 "num_atms": 32, 
	 "gaussian": { 
		 "optdone": 1, 
		 "sigma_profile": "yes", 
		 "theory": "DFT", 
		 "functional": "B3LYP", 
		 "basiset": "6-31G**", 
		 "properties": { 
			 "R2extent": 5156.0422, 
			 "electric_dipole_moment_norm": 1.93384681141, 
			 "electric_quadrupole_moment_norm": 20.303735688, 
			 "total_energy": -781.039620323, 
			 "HOMO_LUMO_gap": 0.17484, 
			 "cosmo_polarized_energy": -14.76, 
			 "cosmo_cavitation_energy": 35.09, 
			 "cosmo_dispersion_energy": -25.22, 
			 "cosmo_repulsion_energy": 1.95, 
			 "cosmo_total_nonelectrostatic_energy": 11.82, 
			 "SMD_solvation_energy": 6.27 
		},
		"coords": [
			{
				"x": 3.1417490034,
				"y": 1.532563567,
				"z": 0.2119061139,
				"element": "C" 
			},
			{
				"x": 2.9512164916,
				"y": 0.5731979241,
				"z": -0.9667809356,
				"element": "C" 
			},
			{
				"x": 3.5920017175,
				"y": -0.7955886159,
				"z": -0.7184009809,
				"element": "C" 
			},
			{
				"x": 3.4690083261,
				"y": 1.1928039444,
				"z": -2.2664136773,
				"element": "C" 
			},
			{
				"x": 1.5105495139,
				"y": 0.4088598393,
				"z": -1.2529710741,
				"element": "O" 
			},
			{
				"x": 0.6890552288,
				"y": -0.1127855996,
				"z": -0.34541809,
				"element": "C" 
			},
			{
				"x": 0.9694153133,
				"y": -0.5048636201,
				"z": 0.7734856957,
				"element": "O" 
			},
			{
				"x": -0.6245894634,
				"y": -0.173281558,
				"z": -0.832078265,
				"element": "N" 
			},
			{
				"x": -0.965876931,
				"y": 0.277529377,
				"z": -2.0979140785,
				"element": "N" 
			},
			{
				"x": -2.2555519269,
				"y": 0.0718939079,
				"z": -2.2079849597,
				"element": "C" 
			},
			{
				"x": -2.8218875993,
				"y": -0.5189449545,
				"z": -1.0320045615,
				"element": "C" 
			},
			{
				"x": -1.7323463142,
				"y": -0.6697275559,
				"z": -0.1457506271,
				"element": "C" 
			},
			{
				"x": -1.8695240035,
				"y": -1.2144268294,
				"z": 1.1321595122,
				"element": "C" 
			},
			{
				"x": -3.1519400939,
				"y": -1.6219996872,
				"z": 1.5209946076,
				"element": "C" 
			},
			{
				"x": -3.349655638,
				"y": -2.2264328793,
				"z": 2.7597721041,
				"element": "N" 
			},
			{
				"x": -4.2561444687,
				"y": -1.4752627717,
				"z": 0.6364139968,
				"element": "C" 
			},
			{
				"x": -4.1008303135,
				"y": -0.9308110803,
				"z": -0.6251443707,
				"element": "C" 
			},
			{
				"x": 2.6267567177,
				"y": 2.4786653951,
				"z": 0.0186715029,
				"element": "H" 
			},
			{
				"x": 2.7588007052,
				"y": 1.102404786,
				"z": 1.1377608654,
				"element": "H" 
			},
			{
				"x": 4.2080681966,
				"y": 1.7460355282,
				"z": 0.3379102291,
				"element": "H" 
			},
			{
				"x": 4.6768732753,
				"y": -0.6782220436,
				"z": -0.6303150637,
				"element": "H" 
			},
			{
				"x": 3.39038704,
				"y": -1.4674235389,
				"z": -1.5583944081,
				"element": "H" 
			},
			{
				"x": 3.2131125543,
				"y": -1.2492842382,
				"z": 0.1978448248,
				"element": "H" 
			},
			{
				"x": 4.5458304724,
				"y": 1.3715410811,
				"z": -2.1920666173,
				"element": "H" 
			},
			{
				"x": 3.2829124603,
				"y": 0.5251771162,
				"z": -3.1121009292,
				"element": "H" 
			},
			{
				"x": 2.9693388431,
				"y": 2.1449059473,
				"z": -2.4648952523,
				"element": "H" 
			},
			{
				"x": -2.7605749663,
				"y": 0.3487108358,
				"z": -3.1253723275,
				"element": "H" 
			},
			{
				"x": -1.0150233431,
				"y": -1.3171136273,
				"z": 1.7878410028,
				"element": "H" 
			},
			{
				"x": -2.6373942533,
				"y": -2.0440756586,
				"z": 3.4526324559,
				"element": "H" 
			},
			{
				"x": -4.2837355369,
				"y": -2.1576650802,
				"z": 3.1379637875,
				"element": "H" 
			},
			{
				"x": -5.2367445899,
				"y": -1.8079415445,
				"z": 0.966679134,
				"element": "H" 
			},
			{
				"x": -4.9561564176,
				"y": -0.8251383661,
				"z": -1.2860296141,
				"element": "H" 
			}
		],
		 "valence_orbital": [ 
			{
				"type": "occ",
				"energy": -0.28755,
				"method": "rhf"
			},
			{
				"type": "occ",
				"energy": -0.27932,
				"method": "rhf"
			},
			{
				"type": "occ",
				"energy": -0.27364,
				"method": "rhf"
			},
			{
				"type": "occ",
				"energy": -0.22912,
				"method": "rhf"
			},
			{
				"type": "occ",
				"energy": -0.20047,
				"method": "rhf"
			},
			{
				"type": "unocc",
				"energy": -0.02563,
				"method": "rhf"
			},
			{
				"type": "unocc",
				"energy": -0.00226,
				"method": "rhf"
			},
			{
				"type": "unocc",
				"energy": 0.05115,
				"method": "rhf"
			},
			{
				"type": "unocc",
				"energy": 0.08157,
				"method": "rhf"
			},
			{
				"type": "unocc",
				"energy": 0.08412,
				"method": "rhf"
			}
		],
		"cosmo_sigma_profile": { 
			"-0.025": 0.0,
			"-0.024": 0.0,
			"-0.023": 0.0,
			"-0.022": 0.0,
			"-0.021": 0.0,
			"-0.02": 0.0,
			"-0.019": 0.0,
			"-0.018": 0.0,
			"-0.017": 0.0,
			"-0.016": 0.0,
			"-0.015": 0.0,
			"-0.014": 7.39002364332e-05,
			"-0.013": 1.40453537505,
			"-0.012": 3.05075832084,
			"-0.011": 2.7243228927,
			"-0.01": 2.81181230321,
			"-0.009": 3.44567950484,
			"-0.008": 4.69836339809,
			"-0.007": 5.96571529045,
			"-0.006": 7.55589797056,
			"-0.005": 11.4454946967,
			"-0.004": 20.2303292119,
			"-0.003": 20.5951784507,
			"-0.002": 25.3621566476,
			"-0.001": 23.9229125955,
			"0.0": 32.3237694234,
			"0.001": 18.7154405651,
			"0.002": 14.7924554625,
			"0.003": 14.7963486014,
			"0.004": 18.4340873261,
			"0.005": 12.8023389259,
			"0.006": 4.73859177881,
			"0.007": 4.19171588023,
			"0.008": 3.85163885364,
			"0.009": 3.96767451683,
			"0.01": 4.36912626126,
			"0.011": 3.38988293883,
			"0.012": 2.25154451671,
			"0.013": 1.64726713622,
			"0.014": 1.14237144283,
			"0.015": 1.39615783527,
			"0.016": 1.12402435439,
			"0.017": 0.258904702215,
			"0.018": 0.0,
			"0.019": 0.0,
			"0.02": 0.0,
			"0.021": 0.0,
			"0.022": 0.0,
			"0.023": 0.0,
			"0.024": 0.0,
			"0.025": 0.0
		}
	}
}
