{
	 "smiles": "NC1=C(C=C2OCCOC2=C1)C(O)=O", 
	 "Tm": 463.15, 
	 "num_atms": 23, 
	 "gaussian": { 
		 "optdone": 1, 
		 "sigma_profile": "yes", 
		 "theory": "DFT", 
		 "functional": "B3LYP", 
		 "basiset": "6-31G**", 
		 "properties": { 
			 "R2extent": 3969.8858, 
			 "electric_dipole_moment_norm": 3.19635962464, 
			 "electric_quadrupole_moment_norm": 18.4077747509, 
			 "total_energy": -704.031798757, 
			 "HOMO_LUMO_gap": 0.16027, 
			 "cosmo_polarized_energy": -15.48, 
			 "cosmo_cavitation_energy": 26.56, 
			 "cosmo_dispersion_energy": -20.61, 
			 "cosmo_repulsion_energy": 1.61, 
			 "cosmo_total_nonelectrostatic_energy": 7.56, 
			 "SMD_solvation_energy": 5.82 
		},
		"coords": [
			{
				"x": 2.4596153356,
				"y": 3.3257852038,
				"z": -1.9885357275,
				"element": "N" 
			},
			{
				"x": 1.7381819046,
				"y": 2.3840856784,
				"z": -1.2849599995,
				"element": "C" 
			},
			{
				"x": 2.1325800144,
				"y": 1.8750029197,
				"z": -0.0127374337,
				"element": "C" 
			},
			{
				"x": 1.3689886569,
				"y": 0.8519154527,
				"z": 0.5856401256,
				"element": "C" 
			},
			{
				"x": 0.2316081883,
				"y": 0.3435467211,
				"z": -0.0057235471,
				"element": "C" 
			},
			{
				"x": -0.4826618817,
				"y": -0.6521704885,
				"z": 0.6300600876,
				"element": "O" 
			},
			{
				"x": -1.342104426,
				"y": -1.3668113599,
				"z": -0.2520030664,
				"element": "C" 
			},
			{
				"x": -2.1609491964,
				"y": -0.3918723626,
				"z": -1.0820035442,
				"element": "C" 
			},
			{
				"x": -1.3016820119,
				"y": 0.4233375332,
				"z": -1.8866733165,
				"element": "O" 
			},
			{
				"x": -0.1783498746,
				"y": 0.8700769182,
				"z": -1.2497913892,
				"element": "C" 
			},
			{
				"x": 0.5697284523,
				"y": 1.8605863202,
				"z": -1.8705948041,
				"element": "C" 
			},
			{
				"x": 3.2960217601,
				"y": 2.3212795714,
				"z": 0.7726449193,
				"element": "C" 
			},
			{
				"x": 4.0051955874,
				"y": 3.3559675203,
				"z": 0.2158229203,
				"element": "O" 
			},
			{
				"x": 3.6465886197,
				"y": 1.8576341233,
				"z": 1.8427996777,
				"element": "O" 
			},
			{
				"x": 1.9663566843,
				"y": 3.8207086313,
				"z": -2.714915077,
				"element": "H" 
			},
			{
				"x": 3.1522737789,
				"y": 3.8530958782,
				"z": -1.4801619405,
				"element": "H" 
			},
			{
				"x": 1.6915080151,
				"y": 0.4630705072,
				"z": 1.5446087356,
				"element": "H" 
			},
			{
				"x": -1.9880576569,
				"y": -1.9879530161,
				"z": 0.373792515,
				"element": "H" 
			},
			{
				"x": -0.7529062307,
				"y": -2.0178435009,
				"z": -0.9139332912,
				"element": "H" 
			},
			{
				"x": -2.8248856254,
				"y": -0.9137113154,
				"z": -1.7758962158,
				"element": "H" 
			},
			{
				"x": -2.7623541266,
				"y": 0.2473810356,
				"z": -0.4222987716,
				"element": "H" 
			},
			{
				"x": 0.230725788,
				"y": 2.2269684315,
				"z": -2.8348403801,
				"element": "H" 
			},
			{
				"x": 4.7236782447,
				"y": 3.5334195975,
				"z": 0.8446995233,
				"element": "H" 
			}
		],
		 "valence_orbital": [ 
			{
				"type": "occ",
				"energy": -0.30409,
				"method": "rhf"
			},
			{
				"type": "occ",
				"energy": -0.27296,
				"method": "rhf"
			},
			{
				"type": "occ",
				"energy": -0.26862,
				"method": "rhf"
			},
			{
				"type": "occ",
				"energy": -0.23028,
				"method": "rhf"
			},
			{
				"type": "occ",
				"energy": -0.19106,
				"method": "rhf"
			},
			{
				"type": "unocc",
				"energy": -0.03079,
				"method": "rhf"
			},
			{
				"type": "unocc",
				"energy": 0.01728,
				"method": "rhf"
			},
			{
				"type": "unocc",
				"energy": 0.07141,
				"method": "rhf"
			},
			{
				"type": "unocc",
				"energy": 0.0763,
				"method": "rhf"
			},
			{
				"type": "unocc",
				"energy": 0.08875,
				"method": "rhf"
			}
		],
		"cosmo_sigma_profile": { 
			"-0.025": 0.0,
			"-0.024": 0.0,
			"-0.023": 0.0,
			"-0.022": 0.0,
			"-0.021": 0.0,
			"-0.02": 0.0,
			"-0.019": 0.0,
			"-0.018": 0.37711218352,
			"-0.017": 1.20918846841,
			"-0.016": 0.468229480161,
			"-0.015": 0.458776069945,
			"-0.014": 1.0146903356,
			"-0.013": 1.86951661553,
			"-0.012": 2.08553085727,
			"-0.011": 2.50900043783,
			"-0.01": 2.28594932468,
			"-0.009": 2.53697681176,
			"-0.008": 3.48285050876,
			"-0.007": 9.42990969102,
			"-0.006": 15.2265207217,
			"-0.005": 14.7018002117,
			"-0.004": 11.096904796,
			"-0.003": 8.30167283267,
			"-0.002": 9.53495419508,
			"-0.001": 8.83709319015,
			"0.0": 10.9928608258,
			"0.001": 11.4248188952,
			"0.002": 13.8185155946,
			"0.003": 18.0801286781,
			"0.004": 17.9731323056,
			"0.005": 8.04581793211,
			"0.006": 4.89835069802,
			"0.007": 3.78731866147,
			"0.008": 5.01021472994,
			"0.009": 5.38535504566,
			"0.01": 4.89721614592,
			"0.011": 3.9110912066,
			"0.012": 5.65425090689,
			"0.013": 1.63202750128,
			"0.014": 0.0,
			"0.015": 0.0,
			"0.016": 0.0,
			"0.017": 0.0,
			"0.018": 0.0,
			"0.019": 0.0,
			"0.02": 0.0,
			"0.021": 0.0,
			"0.022": 0.0,
			"0.023": 0.0,
			"0.024": 0.0,
			"0.025": 0.0
		}
	}
}
