{
	 "smiles": "CC(C)C(NC(N)=O)C(O)=O", 
	 "Tm": 478.15, 
	 "num_atms": 23, 
	 "gaussian": { 
		 "optdone": 1, 
		 "sigma_profile": "yes", 
		 "theory": "DFT", 
		 "functional": "B3LYP", 
		 "basiset": "6-31G**", 
		 "properties": { 
			 "R2extent": 2093.1849, 
			 "electric_dipole_moment_norm": 2.69875090366, 
			 "electric_quadrupole_moment_norm": 16.3400047552, 
			 "total_energy": -571.08678278, 
			 "HOMO_LUMO_gap": 0.22954, 
			 "cosmo_polarized_energy": -17.98, 
			 "cosmo_cavitation_energy": 25.41, 
			 "cosmo_dispersion_energy": -18.13, 
			 "cosmo_repulsion_energy": 1.48, 
			 "cosmo_total_nonelectrostatic_energy": 8.76, 
			 "SMD_solvation_energy": 5.64 
		},
		"coords": [
			{
				"x": 0.2017055443,
				"y": -0.0507007008,
				"z": 2.5092233112,
				"element": "C" 
			},
			{
				"x": -0.1120231184,
				"y": -1.2146534938,
				"z": 1.5576778627,
				"element": "C" 
			},
			{
				"x": -1.5739641585,
				"y": -1.6607239992,
				"z": 1.698674768,
				"element": "C" 
			},
			{
				"x": 0.3017212686,
				"y": -0.848847516,
				"z": 0.1037594667,
				"element": "C" 
			},
			{
				"x": -0.35764812,
				"y": 0.3201980632,
				"z": -0.4805990981,
				"element": "N" 
			},
			{
				"x": -1.7040425279,
				"y": 0.4561794416,
				"z": -0.8317864325,
				"element": "C" 
			},
			{
				"x": -2.2744263599,
				"y": -0.6436955802,
				"z": -1.4478769215,
				"element": "N" 
			},
			{
				"x": -2.3122002145,
				"y": 1.4960400247,
				"z": -0.616892646,
				"element": "O" 
			},
			{
				"x": 0.3490569095,
				"y": -2.0860468473,
				"z": -0.7925263993,
				"element": "C" 
			},
			{
				"x": 0.3269266417,
				"y": -1.8005908151,
				"z": -2.1231705816,
				"element": "O" 
			},
			{
				"x": 0.4808932994,
				"y": -3.2181450361,
				"z": -0.387740622,
				"element": "O" 
			},
			{
				"x": 1.2518778023,
				"y": 0.2588308485,
				"z": 2.4447708031,
				"element": "H" 
			},
			{
				"x": -0.4261734679,
				"y": 0.8214563556,
				"z": 2.2952223458,
				"element": "H" 
			},
			{
				"x": 0.0074003183,
				"y": -0.3437831168,
				"z": 3.5454254832,
				"element": "H" 
			},
			{
				"x": 0.5267620279,
				"y": -2.0633571975,
				"z": 1.8280884751,
				"element": "H" 
			},
			{
				"x": -2.2684606011,
				"y": -0.842533241,
				"z": 1.4865107593,
				"element": "H" 
			},
			{
				"x": -1.7586002458,
				"y": -1.992013488,
				"z": 2.7259887677,
				"element": "H" 
			},
			{
				"x": -1.8097774545,
				"y": -2.4922496472,
				"z": 1.03043909,
				"element": "H" 
			},
			{
				"x": 1.3646595773,
				"y": -0.5645389352,
				"z": 0.1518210972,
				"element": "H" 
			},
			{
				"x": -0.052750976,
				"y": 1.1882633272,
				"z": -0.059727474,
				"element": "H" 
			},
			{
				"x": -3.1968299191,
				"y": -0.4365929861,
				"z": -1.8046537452,
				"element": "H" 
			},
			{
				"x": -1.6760683467,
				"y": -1.1620459907,
				"z": -2.0774824239,
				"element": "H" 
			},
			{
				"x": 0.4541621212,
				"y": -2.6552494701,
				"z": -2.570945886,
				"element": "H" 
			}
		],
		 "valence_orbital": [ 
			{
				"type": "occ",
				"energy": -0.33405,
				"method": "rhf"
			},
			{
				"type": "occ",
				"energy": -0.29527,
				"method": "rhf"
			},
			{
				"type": "occ",
				"energy": -0.27407,
				"method": "rhf"
			},
			{
				"type": "occ",
				"energy": -0.26086,
				"method": "rhf"
			},
			{
				"type": "occ",
				"energy": -0.24315,
				"method": "rhf"
			},
			{
				"type": "unocc",
				"energy": -0.01361,
				"method": "rhf"
			},
			{
				"type": "unocc",
				"energy": 0.04511,
				"method": "rhf"
			},
			{
				"type": "unocc",
				"energy": 0.05801,
				"method": "rhf"
			},
			{
				"type": "unocc",
				"energy": 0.07525,
				"method": "rhf"
			},
			{
				"type": "unocc",
				"energy": 0.1089,
				"method": "rhf"
			}
		],
		"cosmo_sigma_profile": { 
			"-0.025": 0.0,
			"-0.024": 0.0,
			"-0.023": 0.0,
			"-0.022": 0.0,
			"-0.021": 0.0,
			"-0.02": 0.0,
			"-0.019": 0.180709592132,
			"-0.018": 1.3839297955,
			"-0.017": 0.486901732581,
			"-0.016": 1.08000583774,
			"-0.015": 0.892926092281,
			"-0.014": 0.558886224249,
			"-0.013": 1.35725622252,
			"-0.012": 2.84913519025,
			"-0.011": 3.69321168892,
			"-0.01": 4.31835737552,
			"-0.009": 5.90262176728,
			"-0.008": 6.33222868529,
			"-0.007": 5.2602892853,
			"-0.006": 4.68259433636,
			"-0.005": 5.85237963962,
			"-0.004": 6.26112204259,
			"-0.003": 12.6665051478,
			"-0.002": 17.3421677238,
			"-0.001": 17.7415241481,
			"0.0": 15.958774305,
			"0.001": 16.0899859995,
			"0.002": 9.05539769163,
			"0.003": 5.67162259798,
			"0.004": 4.62842338857,
			"0.005": 4.8219335993,
			"0.006": 4.83585147252,
			"0.007": 5.23896294808,
			"0.008": 4.56328492411,
			"0.009": 3.41135674702,
			"0.01": 4.86532630448,
			"0.011": 6.28323903333,
			"0.012": 2.23823984151,
			"0.013": 2.45185331272,
			"0.014": 6.81492957967,
			"0.015": 1.66746587986,
			"0.016": 0.0,
			"0.017": 0.0,
			"0.018": 0.0,
			"0.019": 0.0,
			"0.02": 0.0,
			"0.021": 0.0,
			"0.022": 0.0,
			"0.023": 0.0,
			"0.024": 0.0,
			"0.025": 0.0
		}
	}
}
