{
	 "smiles": "CS(=O)(=O)OCCC(=O)N1CCN(CC1)C(=O)CCOS(C)(=O)=O", 
	 "Tm": 448.15, 
	 "num_atms": 46, 
	 "gaussian": { 
		 "optdone": 1, 
		 "sigma_profile": "yes", 
		 "theory": "DFT", 
		 "functional": "B3LYP", 
		 "basiset": "6-31G**", 
		 "properties": { 
			 "R2extent": 14545.9437, 
			 "electric_dipole_moment_norm": 7.65683776372, 
			 "electric_quadrupole_moment_norm": 30.8187601063, 
			 "total_energy": -1978.09222194, 
			 "HOMO_LUMO_gap": 0.25577, 
			 "cosmo_polarized_energy": -33.72, 
			 "cosmo_cavitation_energy": 48.89, 
			 "cosmo_dispersion_energy": -35.31, 
			 "cosmo_repulsion_energy": 2.59, 
			 "cosmo_total_nonelectrostatic_energy": 16.16, 
			 "SMD_solvation_energy": 6.18 
		},
		"coords": [
			{
				"x": 0.9928396744,
				"y": -3.4917537583,
				"z": -3.4372588683,
				"element": "C" 
			},
			{
				"x": 1.5751380799,
				"y": -3.4762356029,
				"z": -1.7384760302,
				"element": "S" 
			},
			{
				"x": 2.96086931,
				"y": -3.9129081623,
				"z": -1.6868417584,
				"element": "O" 
			},
			{
				"x": 1.1750696314,
				"y": -2.2076232441,
				"z": -1.1203038885,
				"element": "O" 
			},
			{
				"x": 0.7476051918,
				"y": -4.709422857,
				"z": -1.0474340419,
				"element": "O" 
			},
			{
				"x": -0.7031099856,
				"y": -4.720368649,
				"z": -0.9324992164,
				"element": "C" 
			},
			{
				"x": -1.2951513358,
				"y": -3.55810151,
				"z": -0.1384393556,
				"element": "C" 
			},
			{
				"x": -1.6379087192,
				"y": -2.3626710186,
				"z": -1.0343607462,
				"element": "C" 
			},
			{
				"x": -1.9139686632,
				"y": -2.5452657031,
				"z": -2.223161549,
				"element": "O" 
			},
			{
				"x": -1.6923947212,
				"y": -1.1264023824,
				"z": -0.4589374743,
				"element": "N" 
			},
			{
				"x": -1.1799390433,
				"y": -0.8494848876,
				"z": 0.8891361181,
				"element": "C" 
			},
			{
				"x": -1.5108900886,
				"y": 0.5843936045,
				"z": 1.308933421,
				"element": "C" 
			},
			{
				"x": -0.9436557478,
				"y": 1.5485275952,
				"z": 0.3654015018,
				"element": "N" 
			},
			{
				"x": -0.8407864554,
				"y": 1.1108932227,
				"z": -1.0365612876,
				"element": "C" 
			},
			{
				"x": -1.8843790701,
				"y": 0.0401668856,
				"z": -1.3337296026,
				"element": "C" 
			},
			{
				"x": -0.6307120473,
				"y": 2.8489746276,
				"z": 0.6614110624,
				"element": "C" 
			},
			{
				"x": -0.212755187,
				"y": 3.6143029578,
				"z": -0.2084582125,
				"element": "O" 
			},
			{
				"x": -0.8006381849,
				"y": 3.3377520841,
				"z": 2.0977198935,
				"element": "C" 
			},
			{
				"x": 0.4304640174,
				"y": 3.0998219577,
				"z": 2.9837831896,
				"element": "C" 
			},
			{
				"x": 1.6607918286,
				"y": 3.5554301969,
				"z": 2.380857392,
				"element": "O" 
			},
			{
				"x": 2.0344317678,
				"y": 5.1651717965,
				"z": 2.4838621982,
				"element": "S" 
			},
			{
				"x": 2.2115209849,
				"y": 5.5239495551,
				"z": 0.7378877182,
				"element": "C" 
			},
			{
				"x": 0.8732716359,
				"y": 5.8736840076,
				"z": 3.0284416429,
				"element": "O" 
			},
			{
				"x": 3.3322701327,
				"y": 5.26515284,
				"z": 3.1394965146,
				"element": "O" 
			},
			{
				"x": 1.1835609343,
				"y": -4.4794426227,
				"z": -3.8579588978,
				"element": "H" 
			},
			{
				"x": -0.0678210376,
				"y": -3.2334554156,
				"z": -3.4466766335,
				"element": "H" 
			},
			{
				"x": 1.5748163119,
				"y": -2.7355240345,
				"z": -3.9670645447,
				"element": "H" 
			},
			{
				"x": -1.1584198584,
				"y": -4.7617036798,
				"z": -1.9251737702,
				"element": "H" 
			},
			{
				"x": -0.8824160407,
				"y": -5.6650559837,
				"z": -0.4167329405,
				"element": "H" 
			},
			{
				"x": -0.6253623607,
				"y": -3.3021216677,
				"z": 0.6829967488,
				"element": "H" 
			},
			{
				"x": -2.2383517565,
				"y": -3.9042491262,
				"z": 0.3058360975,
				"element": "H" 
			},
			{
				"x": -1.6442183948,
				"y": -1.5230131459,
				"z": 1.6156093998,
				"element": "H" 
			},
			{
				"x": -0.0935879223,
				"y": -1.0022275435,
				"z": 0.9221386012,
				"element": "H" 
			},
			{
				"x": -1.0927830864,
				"y": 0.7388556714,
				"z": 2.3050739368,
				"element": "H" 
			},
			{
				"x": -2.6022393582,
				"y": 0.6993379856,
				"z": 1.3882182381,
				"element": "H" 
			},
			{
				"x": -0.9897297432,
				"y": 1.9854631531,
				"z": -1.6723182718,
				"element": "H" 
			},
			{
				"x": 0.1630172523,
				"y": 0.7171959581,
				"z": -1.2389476988,
				"element": "H" 
			},
			{
				"x": -2.8960826007,
				"y": 0.4467354069,
				"z": -1.2063418075,
				"element": "H" 
			},
			{
				"x": -1.7951304871,
				"y": -0.3073412339,
				"z": -2.3630500278,
				"element": "H" 
			},
			{
				"x": -0.9816349844,
				"y": 4.4117517921,
				"z": 2.0339243697,
				"element": "H" 
			},
			{
				"x": -1.6661781186,
				"y": 2.885464756,
				"z": 2.5940925975,
				"element": "H" 
			},
			{
				"x": 0.2818227459,
				"y": 3.585057377,
				"z": 3.9516546364,
				"element": "H" 
			},
			{
				"x": 0.6126017039,
				"y": 2.0348109707,
				"z": 3.1519097399,
				"element": "H" 
			},
			{
				"x": 2.4057407459,
				"y": 6.5946812521,
				"z": 0.6548592676,
				"element": "H" 
			},
			{
				"x": 1.2883432057,
				"y": 5.2287736297,
				"z": 0.2357360742,
				"element": "H" 
			},
			{
				"x": 3.0591698443,
				"y": 4.9501229444,
				"z": 0.3621462642,
				"element": "H" 
			}
		],
		 "valence_orbital": [ 
			{
				"type": "occ",
				"energy": -0.29279,
				"method": "rhf"
			},
			{
				"type": "occ",
				"energy": -0.27149,
				"method": "rhf"
			},
			{
				"type": "occ",
				"energy": -0.26404,
				"method": "rhf"
			},
			{
				"type": "occ",
				"energy": -0.25906,
				"method": "rhf"
			},
			{
				"type": "occ",
				"energy": -0.25335,
				"method": "rhf"
			},
			{
				"type": "unocc",
				"energy": 0.00242,
				"method": "rhf"
			},
			{
				"type": "unocc",
				"energy": 0.00537,
				"method": "rhf"
			},
			{
				"type": "unocc",
				"energy": 0.03568,
				"method": "rhf"
			},
			{
				"type": "unocc",
				"energy": 0.03911,
				"method": "rhf"
			},
			{
				"type": "unocc",
				"energy": 0.05281,
				"method": "rhf"
			}
		],
		"cosmo_sigma_profile": { 
			"-0.025": 0.0,
			"-0.024": 0.0,
			"-0.023": 0.0,
			"-0.022": 0.0,
			"-0.021": 0.0,
			"-0.02": 0.0,
			"-0.019": 0.0,
			"-0.018": 0.0,
			"-0.017": 0.0,
			"-0.016": 0.0,
			"-0.015": 0.0,
			"-0.014": 0.0,
			"-0.013": 0.0,
			"-0.012": 0.0,
			"-0.011": 0.0208673191628,
			"-0.01": 2.32137952498,
			"-0.009": 9.37000443897,
			"-0.008": 12.593436358,
			"-0.007": 25.5683147628,
			"-0.006": 32.7359743575,
			"-0.005": 37.43199279,
			"-0.004": 37.6586933389,
			"-0.003": 28.3562576055,
			"-0.002": 16.9371448927,
			"-0.001": 15.1996359324,
			"0.0": 11.1931892141,
			"0.001": 12.6366467342,
			"0.002": 14.0006924957,
			"0.003": 11.034235328,
			"0.004": 10.942326532,
			"0.005": 10.0702275792,
			"0.006": 10.3459088742,
			"0.007": 13.4511434976,
			"0.008": 11.2757858411,
			"0.009": 12.9123759891,
			"0.01": 21.2951022737,
			"0.011": 17.6965327732,
			"0.012": 3.66269175099,
			"0.013": 4.72423329518,
			"0.014": 0.941764849609,
			"0.015": 0.0,
			"0.016": 0.0,
			"0.017": 0.0,
			"0.018": 0.0,
			"0.019": 0.0,
			"0.02": 0.0,
			"0.021": 0.0,
			"0.022": 0.0,
			"0.023": 0.0,
			"0.024": 0.0,
			"0.025": 0.0
		}
	}
}
