{
	 "smiles": "FC1=CC(F)=C(C=C1)C(=O)CCl", 
	 "Tm": 319.15, 
	 "num_atms": 17, 
	 "gaussian": { 
		 "optdone": 1, 
		 "sigma_profile": "yes", 
		 "theory": "DFT", 
		 "functional": "B3LYP", 
		 "basiset": "6-31G**", 
		 "properties": { 
			 "R2extent": 3913.3392, 
			 "electric_dipole_moment_norm": 3.71834092708, 
			 "electric_quadrupole_moment_norm": 17.1573060974, 
			 "total_energy": -1042.94395538, 
			 "HOMO_LUMO_gap": 0.20033, 
			 "cosmo_polarized_energy": -9.75, 
			 "cosmo_cavitation_energy": 24.42, 
			 "cosmo_dispersion_energy": -17.96, 
			 "cosmo_repulsion_energy": 1.39, 
			 "cosmo_total_nonelectrostatic_energy": 7.84, 
			 "SMD_solvation_energy": 5.33 
		},
		"coords": [
			{
				"x": 3.098319643,
				"y": 0.1957009878,
				"z": -0.8790604866,
				"element": "F" 
			},
			{
				"x": 1.9030879171,
				"y": -0.3968952394,
				"z": -0.7409214459,
				"element": "C" 
			},
			{
				"x": 0.8997626592,
				"y": 0.2815412761,
				"z": -0.0603125498,
				"element": "C" 
			},
			{
				"x": -0.3302282761,
				"y": -0.3499216867,
				"z": 0.0713928549,
				"element": "C" 
			},
			{
				"x": -1.2942079262,
				"y": 0.3247119813,
				"z": 0.7359431354,
				"element": "F" 
			},
			{
				"x": -0.5931821828,
				"y": -1.6244789796,
				"z": -0.4478164327,
				"element": "C" 
			},
			{
				"x": 0.4628168328,
				"y": -2.2618866031,
				"z": -1.1273447871,
				"element": "C" 
			},
			{
				"x": 1.7066253174,
				"y": -1.6670515822,
				"z": -1.2814163139,
				"element": "C" 
			},
			{
				"x": -1.8917427532,
				"y": -2.374494538,
				"z": -0.3490608272,
				"element": "C" 
			},
			{
				"x": -1.9957673157,
				"y": -3.4799043051,
				"z": -0.8431558381,
				"element": "O" 
			},
			{
				"x": -3.0558335314,
				"y": -1.7043032153,
				"z": 0.3840260549,
				"element": "C" 
			},
			{
				"x": -4.5306729281,
				"y": -2.7178733618,
				"z": 0.4186187073,
				"element": "Cl" 
			},
			{
				"x": 1.0651669106,
				"y": 1.2679636465,
				"z": 0.3548711564,
				"element": "H" 
			},
			{
				"x": 0.2634182798,
				"y": -3.2485492818,
				"z": -1.5307620314,
				"element": "H" 
			},
			{
				"x": 2.5172990934,
				"y": -2.1603763987,
				"z": -1.8049985354,
				"element": "H" 
			},
			{
				"x": -2.7718825866,
				"y": -1.4820180717,
				"z": 1.4144621295,
				"element": "H" 
			},
			{
				"x": -3.3057791534,
				"y": -0.7566646282,
				"z": -0.0970647905,
				"element": "H" 
			}
		],
		 "valence_orbital": [ 
			{
				"type": "occ",
				"energy": -0.30002,
				"method": "rhf"
			},
			{
				"type": "occ",
				"energy": -0.29847,
				"method": "rhf"
			},
			{
				"type": "occ",
				"energy": -0.28328,
				"method": "rhf"
			},
			{
				"type": "occ",
				"energy": -0.27391,
				"method": "rhf"
			},
			{
				"type": "occ",
				"energy": -0.27263,
				"method": "rhf"
			},
			{
				"type": "unocc",
				"energy": -0.0723,
				"method": "rhf"
			},
			{
				"type": "unocc",
				"energy": -0.03217,
				"method": "rhf"
			},
			{
				"type": "unocc",
				"energy": 0.0194,
				"method": "rhf"
			},
			{
				"type": "unocc",
				"energy": 0.02826,
				"method": "rhf"
			},
			{
				"type": "unocc",
				"energy": 0.06428,
				"method": "rhf"
			}
		],
		"cosmo_sigma_profile": { 
			"-0.025": 0.0,
			"-0.024": 0.0,
			"-0.023": 0.0,
			"-0.022": 0.0,
			"-0.021": 0.0,
			"-0.02": 0.0,
			"-0.019": 0.0,
			"-0.018": 0.0,
			"-0.017": 0.0,
			"-0.016": 0.0,
			"-0.015": 0.0,
			"-0.014": 0.0,
			"-0.013": 0.0,
			"-0.012": 0.0,
			"-0.011": 0.0,
			"-0.01": 1.21132763222,
			"-0.009": 6.3414901028,
			"-0.008": 7.1420732965,
			"-0.007": 7.624364935,
			"-0.006": 8.85391605252,
			"-0.005": 7.66400623706,
			"-0.004": 9.21653537584,
			"-0.003": 8.10462047995,
			"-0.002": 12.6927868147,
			"-0.001": 22.0206738964,
			"0.0": 19.7340146197,
			"0.001": 15.7897668468,
			"0.002": 13.7976990522,
			"0.003": 17.2008123947,
			"0.004": 9.40869205039,
			"0.005": 6.91832108765,
			"0.006": 8.19552536617,
			"0.007": 2.94501186022,
			"0.008": 2.0395828922,
			"0.009": 2.77804093949,
			"0.01": 3.40255794657,
			"0.011": 3.37163515596,
			"0.012": 1.96351402746,
			"0.013": 0.547912482464,
			"0.014": 0.0,
			"0.015": 0.0,
			"0.016": 0.0,
			"0.017": 0.0,
			"0.018": 0.0,
			"0.019": 0.0,
			"0.02": 0.0,
			"0.021": 0.0,
			"0.022": 0.0,
			"0.023": 0.0,
			"0.024": 0.0,
			"0.025": 0.0
		}
	}
}
