{
	 "smiles": "CC1=CC=C(C#N)C(F)=C1", 
	 "Tm": 326.15, 
	 "num_atms": 16, 
	 "gaussian": { 
		 "optdone": 1, 
		 "sigma_profile": "yes", 
		 "theory": "DFT", 
		 "functional": "B3LYP", 
		 "basiset": "6-31G**", 
		 "properties": { 
			 "R2extent": 1835.5882, 
			 "electric_dipole_moment_norm": 5.80488562936, 
			 "electric_quadrupole_moment_norm": 15.1623117278, 
			 "total_energy": -463.041908926, 
			 "HOMO_LUMO_gap": 0.20552, 
			 "cosmo_polarized_energy": -8.89, 
			 "cosmo_cavitation_energy": 21.79, 
			 "cosmo_dispersion_energy": -15.3, 
			 "cosmo_repulsion_energy": 1.22, 
			 "cosmo_total_nonelectrostatic_energy": 7.72, 
			 "SMD_solvation_energy": 5.74 
		},
		"coords": [
			{
				"x": 2.5634463318,
				"y": -0.3432329049,
				"z": 1.3738089294,
				"element": "C" 
			},
			{
				"x": 1.1892530129,
				"y": 0.1663322923,
				"z": 1.0151643779,
				"element": "C" 
			},
			{
				"x": 1.0088832118,
				"y": 1.0655232913,
				"z": -0.0483920732,
				"element": "C" 
			},
			{
				"x": -0.2579816154,
				"y": 1.5144689644,
				"z": -0.4015868975,
				"element": "C" 
			},
			{
				"x": -1.3923967291,
				"y": 1.0769652486,
				"z": 0.3050306956,
				"element": "C" 
			},
			{
				"x": -2.7051901913,
				"y": 1.5278144769,
				"z": -0.0365816908,
				"element": "C" 
			},
			{
				"x": -3.7656727011,
				"y": 1.9051492578,
				"z": -0.3294412767,
				"element": "N" 
			},
			{
				"x": -1.1984125527,
				"y": 0.1822153628,
				"z": 1.3662007675,
				"element": "C" 
			},
			{
				"x": -2.2670757735,
				"y": -0.2442584014,
				"z": 2.0560437783,
				"element": "F" 
			},
			{
				"x": 0.0627819088,
				"y": -0.2699195985,
				"z": 1.7237566244,
				"element": "C" 
			},
			{
				"x": 2.6337992822,
				"y": -0.5941438739,
				"z": 2.4357606454,
				"element": "H" 
			},
			{
				"x": 3.3350875913,
				"y": 0.3966572477,
				"z": 1.1436737573,
				"element": "H" 
			},
			{
				"x": 2.8012339508,
				"y": -1.2512925999,
				"z": 0.8060747904,
				"element": "H" 
			},
			{
				"x": 1.8732905481,
				"y": 1.4174709197,
				"z": -0.6034542806,
				"element": "H" 
			},
			{
				"x": -0.3887469293,
				"y": 2.2103216322,
				"z": -1.2233610459,
				"element": "H" 
			},
			{
				"x": 0.1513006548,
				"y": -0.9597713151,
				"z": 2.5567028987,
				"element": "H" 
			}
		],
		 "valence_orbital": [ 
			{
				"type": "occ",
				"energy": -0.35661,
				"method": "rhf"
			},
			{
				"type": "occ",
				"energy": -0.34251,
				"method": "rhf"
			},
			{
				"type": "occ",
				"energy": -0.33122,
				"method": "rhf"
			},
			{
				"type": "occ",
				"energy": -0.27425,
				"method": "rhf"
			},
			{
				"type": "occ",
				"energy": -0.25989,
				"method": "rhf"
			},
			{
				"type": "unocc",
				"energy": -0.05437,
				"method": "rhf"
			},
			{
				"type": "unocc",
				"energy": -0.02318,
				"method": "rhf"
			},
			{
				"type": "unocc",
				"energy": 0.03291,
				"method": "rhf"
			},
			{
				"type": "unocc",
				"energy": 0.06793,
				"method": "rhf"
			},
			{
				"type": "unocc",
				"energy": 0.07728,
				"method": "rhf"
			}
		],
		"cosmo_sigma_profile": { 
			"-0.025": 0.0,
			"-0.024": 0.0,
			"-0.023": 0.0,
			"-0.022": 0.0,
			"-0.021": 0.0,
			"-0.02": 0.0,
			"-0.019": 0.0,
			"-0.018": 0.0,
			"-0.017": 0.0,
			"-0.016": 0.0,
			"-0.015": 0.0,
			"-0.014": 0.0,
			"-0.013": 0.0,
			"-0.012": 0.0,
			"-0.011": 0.0,
			"-0.01": 0.0,
			"-0.009": 0.174305456718,
			"-0.008": 3.35134082744,
			"-0.007": 5.46928706387,
			"-0.006": 8.83571833911,
			"-0.005": 12.2677185999,
			"-0.004": 10.5043790563,
			"-0.003": 12.6949402775,
			"-0.002": 16.8803220622,
			"-0.001": 20.6104537538,
			"0.0": 15.5816400171,
			"0.001": 13.7355318988,
			"0.002": 12.5635178064,
			"0.003": 14.6169113622,
			"0.004": 3.97328527648,
			"0.005": 2.67256705039,
			"0.006": 2.0650552852,
			"0.007": 3.67692530511,
			"0.008": 3.09980534287,
			"0.009": 3.58279520259,
			"0.01": 3.12825497893,
			"0.011": 2.53949435118,
			"0.012": 2.51003264841,
			"0.013": 1.2853564375,
			"0.014": 0.0,
			"0.015": 0.0,
			"0.016": 0.0,
			"0.017": 0.0,
			"0.018": 0.0,
			"0.019": 0.0,
			"0.02": 0.0,
			"0.021": 0.0,
			"0.022": 0.0,
			"0.023": 0.0,
			"0.024": 0.0,
			"0.025": 0.0
		}
	}
}
