{
	 "smiles": "CC(C)(C)S(=O)(=O)C1=NC=C(Br)C=C1", 
	 "Tm": 390.15, 
	 "num_atms": 26, 
	 "gaussian": { 
		 "optdone": 1, 
		 "sigma_profile": "yes", 
		 "theory": "DFT", 
		 "functional": "B3LYP", 
		 "basiset": "6-31G**", 
		 "properties": { 
			 "R2extent": 7033.1482, 
			 "electric_dipole_moment_norm": 4.20083044766, 
			 "electric_quadrupole_moment_norm": 12.6451796393, 
			 "total_energy": -3524.92019531, 
			 "HOMO_LUMO_gap": 0.20283, 
			 "cosmo_polarized_energy": -14.15, 
			 "cosmo_cavitation_energy": 32.26, 
			 "cosmo_dispersion_energy": -23.46, 
			 "cosmo_repulsion_energy": 1.78, 
			 "cosmo_total_nonelectrostatic_energy": 10.58, 
			 "SMD_solvation_energy": 3.19 
		},
		"coords": [
			{
				"x": -1.9678225907,
				"y": 0.8805358772,
				"z": 0.46877228,
				"element": "C" 
			},
			{
				"x": -0.9086529512,
				"y": 0.1928106667,
				"z": 1.3384612778,
				"element": "C" 
			},
			{
				"x": -1.3130194846,
				"y": -1.2320584135,
				"z": 1.7356887342,
				"element": "C" 
			},
			{
				"x": -0.5774886521,
				"y": 1.038759459,
				"z": 2.5803622554,
				"element": "C" 
			},
			{
				"x": 0.6970865551,
				"y": 0.1384274594,
				"z": 0.3816962216,
				"element": "S" 
			},
			{
				"x": 1.6265631844,
				"y": -0.7698112931,
				"z": 1.0734203418,
				"element": "O" 
			},
			{
				"x": 1.093287103,
				"y": 1.5336035617,
				"z": 0.0960922038,
				"element": "O" 
			},
			{
				"x": 0.3233359778,
				"y": -0.5841278036,
				"z": -1.2599404187,
				"element": "C" 
			},
			{
				"x": -0.1382704811,
				"y": -1.8317168307,
				"z": -1.2844199645,
				"element": "N" 
			},
			{
				"x": -0.3469308965,
				"y": -2.396343564,
				"z": -2.4758414653,
				"element": "C" 
			},
			{
				"x": -0.0832615027,
				"y": -1.722106004,
				"z": -3.6724386258,
				"element": "C" 
			},
			{
				"x": -0.3934765223,
				"y": -2.5972059191,
				"z": -5.3307202681,
				"element": "Br" 
			},
			{
				"x": 0.4007335677,
				"y": -0.4163813235,
				"z": -3.6379243667,
				"element": "C" 
			},
			{
				"x": 0.6068704801,
				"y": 0.1770302843,
				"z": -2.3928696965,
				"element": "C" 
			},
			{
				"x": -1.6342991168,
				"y": 1.8694295265,
				"z": 0.1436744837,
				"element": "H" 
			},
			{
				"x": -2.8813609418,
				"y": 1.0054435153,
				"z": 1.0597895384,
				"element": "H" 
			},
			{
				"x": -2.2236895143,
				"y": 0.285011785,
				"z": -0.4124176183,
				"element": "H" 
			},
			{
				"x": -2.2150470034,
				"y": -1.1774792693,
				"z": 2.3555378688,
				"element": "H" 
			},
			{
				"x": -1.5245195207,
				"y": -1.8531486903,
				"z": 0.863451215,
				"element": "H" 
			},
			{
				"x": -0.5222973075,
				"y": -1.7138151336,
				"z": 2.3148406909,
				"element": "H" 
			},
			{
				"x": -0.2662664454,
				"y": 2.0486071172,
				"z": 2.3046406196,
				"element": "H" 
			},
			{
				"x": 0.2169467947,
				"y": 0.5761285283,
				"z": 3.1720136157,
				"element": "H" 
			},
			{
				"x": -1.4752983771,
				"y": 1.1049722646,
				"z": 3.2037353346,
				"element": "H" 
			},
			{
				"x": -0.7297067548,
				"y": -3.4128823012,
				"z": -2.4846763565,
				"element": "H" 
			},
			{
				"x": 0.6091815514,
				"y": 0.120761241,
				"z": -4.5565000081,
				"element": "H" 
			},
			{
				"x": 0.9792028488,
				"y": 1.18915526,
				"z": -2.2883278927,
				"element": "H" 
			}
		],
		 "valence_orbital": [ 
			{
				"type": "occ",
				"energy": -0.30937,
				"method": "rhf"
			},
			{
				"type": "occ",
				"energy": -0.29987,
				"method": "rhf"
			},
			{
				"type": "occ",
				"energy": -0.29302,
				"method": "rhf"
			},
			{
				"type": "occ",
				"energy": -0.27343,
				"method": "rhf"
			},
			{
				"type": "occ",
				"energy": -0.26844,
				"method": "rhf"
			},
			{
				"type": "unocc",
				"energy": -0.06561,
				"method": "rhf"
			},
			{
				"type": "unocc",
				"energy": -0.05121,
				"method": "rhf"
			},
			{
				"type": "unocc",
				"energy": -0.01432,
				"method": "rhf"
			},
			{
				"type": "unocc",
				"energy": 0.04901,
				"method": "rhf"
			},
			{
				"type": "unocc",
				"energy": 0.0688,
				"method": "rhf"
			}
		],
		"cosmo_sigma_profile": { 
			"-0.025": 0.0,
			"-0.024": 0.0,
			"-0.023": 0.0,
			"-0.022": 0.0,
			"-0.021": 0.0,
			"-0.02": 0.0,
			"-0.019": 0.0,
			"-0.018": 0.0,
			"-0.017": 0.0,
			"-0.016": 0.0,
			"-0.015": 0.0,
			"-0.014": 0.0,
			"-0.013": 0.0,
			"-0.012": 0.0,
			"-0.011": 0.0,
			"-0.01": 0.341109633611,
			"-0.009": 3.07856080105,
			"-0.008": 5.39862003144,
			"-0.007": 4.88386187026,
			"-0.006": 6.65697773162,
			"-0.005": 14.4618957849,
			"-0.004": 19.0499732851,
			"-0.003": 25.6550859088,
			"-0.002": 34.6267241275,
			"-0.001": 37.6175532276,
			"0.0": 21.7431903492,
			"0.001": 11.8358360875,
			"0.002": 11.696379655,
			"0.003": 14.4310284774,
			"0.004": 6.48409666713,
			"0.005": 3.2803883417,
			"0.006": 3.73856293933,
			"0.007": 2.88471162018,
			"0.008": 4.1171411564,
			"0.009": 5.30376835456,
			"0.01": 5.84034384286,
			"0.011": 8.85988332159,
			"0.012": 6.36181484667,
			"0.013": 0.528541538704,
			"0.014": 0.0,
			"0.015": 0.0,
			"0.016": 0.0,
			"0.017": 0.0,
			"0.018": 0.0,
			"0.019": 0.0,
			"0.02": 0.0,
			"0.021": 0.0,
			"0.022": 0.0,
			"0.023": 0.0,
			"0.024": 0.0,
			"0.025": 0.0
		}
	}
}
