{
	 "smiles": "NC1=CC=C(C=C1)C1=CC2=NN(N=C2C=C1)C1=CC=CC=C1", 
	 "Tm": 497.15, 
	 "num_atms": 36, 
	 "gaussian": { 
		 "optdone": 1, 
		 "sigma_profile": "yes", 
		 "theory": "DFT", 
		 "functional": "B3LYP", 
		 "basiset": "6-31G**", 
		 "properties": { 
			 "R2extent": 11694.173, 
			 "electric_dipole_moment_norm": 2.34610913855, 
			 "electric_quadrupole_moment_norm": 36.0792357526, 
			 "total_energy": -913.342311974, 
			 "HOMO_LUMO_gap": 0.13153, 
			 "cosmo_polarized_energy": -13.55, 
			 "cosmo_cavitation_energy": 40.7, 
			 "cosmo_dispersion_energy": -30.21, 
			 "cosmo_repulsion_energy": 2.25, 
			 "cosmo_total_nonelectrostatic_energy": 12.74, 
			 "SMD_solvation_energy": 4.58 
		},
		"coords": [
			{
				"x": 0.2525553848,
				"y": 6.2705725929,
				"z": -5.4706758489,
				"element": "N" 
			},
			{
				"x": 0.328998318,
				"y": 5.2896143738,
				"z": -4.4831533374,
				"element": "C" 
			},
			{
				"x": -0.7560443473,
				"y": 4.4318120242,
				"z": -4.2309553073,
				"element": "C" 
			},
			{
				"x": -0.6556293608,
				"y": 3.4206010465,
				"z": -3.2830561643,
				"element": "C" 
			},
			{
				"x": 0.5227880485,
				"y": 3.2142764491,
				"z": -2.5444671541,
				"element": "C" 
			},
			{
				"x": 1.6000941335,
				"y": 4.0798903171,
				"z": -2.8024001498,
				"element": "C" 
			},
			{
				"x": 1.5116678101,
				"y": 5.0940641537,
				"z": -3.7490242535,
				"element": "C" 
			},
			{
				"x": 0.623560835,
				"y": 2.1263410912,
				"z": -1.541895386,
				"element": "C" 
			},
			{
				"x": 0.007682478,
				"y": 0.9023181313,
				"z": -1.755832996,
				"element": "C" 
			},
			{
				"x": 0.1311386099,
				"y": -0.08855338,
				"z": -0.7572374287,
				"element": "C" 
			},
			{
				"x": -0.35592011,
				"y": -1.3460863967,
				"z": -0.7107777958,
				"element": "N" 
			},
			{
				"x": 0.0934722347,
				"y": -1.7984571355,
				"z": 0.4636183866,
				"element": "N" 
			},
			{
				"x": 0.8324895853,
				"y": -0.9624539583,
				"z": 1.1977355833,
				"element": "N" 
			},
			{
				"x": 0.8759687004,
				"y": 0.1483362352,
				"z": 0.4364863011,
				"element": "C" 
			},
			{
				"x": 1.5064885471,
				"y": 1.3960882641,
				"z": 0.6531734393,
				"element": "C" 
			},
			{
				"x": 1.3670626453,
				"y": 2.3486705859,
				"z": -0.3279780252,
				"element": "C" 
			},
			{
				"x": -0.2032004988,
				"y": -3.1169088922,
				"z": 0.9137393282,
				"element": "C" 
			},
			{
				"x": -0.9758103311,
				"y": -3.9599307505,
				"z": 0.1090982794,
				"element": "C" 
			},
			{
				"x": -1.2610836644,
				"y": -5.2479204146,
				"z": 0.5576456348,
				"element": "C" 
			},
			{
				"x": -0.7833319873,
				"y": -5.692514528,
				"z": 1.7925015626,
				"element": "C" 
			},
			{
				"x": -0.0127968586,
				"y": -4.8376956031,
				"z": 2.584021344,
				"element": "C" 
			},
			{
				"x": 0.2829075839,
				"y": -3.5463230768,
				"z": 2.152469165,
				"element": "C" 
			},
			{
				"x": 0.8912100666,
				"y": 7.0461879609,
				"z": -5.3627063176,
				"element": "H" 
			},
			{
				"x": -0.6811005396,
				"y": 6.5765845723,
				"z": -5.7067797259,
				"element": "H" 
			},
			{
				"x": -1.6855931373,
				"y": 4.5687185547,
				"z": -4.7784191745,
				"element": "H" 
			},
			{
				"x": -1.5211907352,
				"y": 2.7934885237,
				"z": -3.0901264969,
				"element": "H" 
			},
			{
				"x": 2.5372751406,
				"y": 3.942164847,
				"z": -2.2708358058,
				"element": "H" 
			},
			{
				"x": 2.3696769777,
				"y": 5.735609156,
				"z": -3.935227216,
				"element": "H" 
			},
			{
				"x": -0.5315208242,
				"y": 0.6927387216,
				"z": -2.6729601228,
				"element": "H" 
			},
			{
				"x": 2.0639403138,
				"y": 1.5902257073,
				"z": 1.5632770193,
				"element": "H" 
			},
			{
				"x": 1.8128826407,
				"y": 3.3269737353,
				"z": -0.178601713,
				"element": "H" 
			},
			{
				"x": -1.3374306821,
				"y": -3.5982942243,
				"z": -0.8451765048,
				"element": "H" 
			},
			{
				"x": -1.8606495539,
				"y": -5.9060581883,
				"z": -0.0640923599,
				"element": "H" 
			},
			{
				"x": -1.0096618063,
				"y": -6.6975921769,
				"z": 2.1354054056,
				"element": "H" 
			},
			{
				"x": 0.3627056591,
				"y": -5.1753195916,
				"z": 3.5453698069,
				"element": "H" 
			},
			{
				"x": 0.8786987239,
				"y": -2.8702687268,
				"z": 2.7526380283,
				"element": "H" 
			}
		],
		 "valence_orbital": [ 
			{
				"type": "occ",
				"energy": -0.25744,
				"method": "rhf"
			},
			{
				"type": "occ",
				"energy": -0.2487,
				"method": "rhf"
			},
			{
				"type": "occ",
				"energy": -0.23296,
				"method": "rhf"
			},
			{
				"type": "occ",
				"energy": -0.22579,
				"method": "rhf"
			},
			{
				"type": "occ",
				"energy": -0.19311,
				"method": "rhf"
			},
			{
				"type": "unocc",
				"energy": -0.06158,
				"method": "rhf"
			},
			{
				"type": "unocc",
				"energy": -0.00851,
				"method": "rhf"
			},
			{
				"type": "unocc",
				"energy": -0.00337,
				"method": "rhf"
			},
			{
				"type": "unocc",
				"energy": -9e-05,
				"method": "rhf"
			},
			{
				"type": "unocc",
				"energy": 0.00993,
				"method": "rhf"
			}
		],
		"cosmo_sigma_profile": { 
			"-0.025": 0.0,
			"-0.024": 0.0,
			"-0.023": 0.0,
			"-0.022": 0.0,
			"-0.021": 0.0,
			"-0.02": 0.0,
			"-0.019": 0.0,
			"-0.018": 0.0,
			"-0.017": 0.0,
			"-0.016": 0.0,
			"-0.015": 0.0,
			"-0.014": 0.0,
			"-0.013": 0.545571059072,
			"-0.012": 2.59346825438,
			"-0.011": 2.98747913745,
			"-0.01": 3.04643539185,
			"-0.009": 2.66106549201,
			"-0.008": 3.05712888336,
			"-0.007": 6.57669505345,
			"-0.006": 18.9346655403,
			"-0.005": 24.5811378846,
			"-0.004": 22.5480884292,
			"-0.003": 18.699418259,
			"-0.002": 16.3059617279,
			"-0.001": 19.4800648448,
			"0.0": 20.11240759,
			"0.001": 25.739868129,
			"0.002": 29.8352200691,
			"0.003": 33.1345663323,
			"0.004": 29.6068730369,
			"0.005": 14.3252063582,
			"0.006": 13.440084209,
			"0.007": 5.18800823081,
			"0.008": 3.52779318579,
			"0.009": 3.55409353929,
			"0.01": 3.43167951795,
			"0.011": 1.56482467646,
			"0.012": 0.604249435195,
			"0.013": 0.638048197379,
			"0.014": 0.609305621147,
			"0.015": 0.0,
			"0.016": 0.0,
			"0.017": 0.0,
			"0.018": 0.0,
			"0.019": 0.0,
			"0.02": 0.0,
			"0.021": 0.0,
			"0.022": 0.0,
			"0.023": 0.0,
			"0.024": 0.0,
			"0.025": 0.0
		}
	}
}
