{
	 "smiles": "CC1=C2OC(S)=NC2=CC(Cl)=C1", 
	 "Tm": 527.15, 
	 "num_atms": 18, 
	 "gaussian": { 
		 "optdone": 1, 
		 "sigma_profile": "yes", 
		 "theory": "DFT", 
		 "functional": "B3LYP", 
		 "basiset": "6-31G**", 
		 "properties": { 
			 "R2extent": 3393.0905, 
			 "electric_dipole_moment_norm": 2.04660545783, 
			 "electric_quadrupole_moment_norm": 8.83314203893, 
			 "total_energy": -1296.81985657, 
			 "HOMO_LUMO_gap": 0.19758, 
			 "cosmo_polarized_energy": -6.83, 
			 "cosmo_cavitation_energy": 26.26, 
			 "cosmo_dispersion_energy": -20.25, 
			 "cosmo_repulsion_energy": 1.57, 
			 "cosmo_total_nonelectrostatic_energy": 7.58, 
			 "SMD_solvation_energy": 2.18 
		},
		"coords": [
			{
				"x": 1.7210929197,
				"y": 0.9705649298,
				"z": -1.8973852399,
				"element": "C" 
			},
			{
				"x": 0.4840497933,
				"y": 0.7104004357,
				"z": -1.075498667,
				"element": "C" 
			},
			{
				"x": 0.1009433376,
				"y": -0.5585515544,
				"z": -0.663714757,
				"element": "C" 
			},
			{
				"x": 0.7402819478,
				"y": -1.7604077182,
				"z": -0.9117130536,
				"element": "O" 
			},
			{
				"x": -0.0548561289,
				"y": -2.6798431558,
				"z": -0.2838319741,
				"element": "C" 
			},
			{
				"x": 0.5029373241,
				"y": -4.3402588289,
				"z": -0.4192514937,
				"element": "S" 
			},
			{
				"x": -1.1029634126,
				"y": -2.2247115688,
				"z": 0.3231922216,
				"element": "N" 
			},
			{
				"x": -1.0382509451,
				"y": -0.8455749224,
				"z": 0.0995298961,
				"element": "C" 
			},
			{
				"x": -1.888830669,
				"y": 0.1830985002,
				"z": 0.5049210023,
				"element": "C" 
			},
			{
				"x": -1.5244801532,
				"y": 1.467385879,
				"z": 0.1030231292,
				"element": "C" 
			},
			{
				"x": -2.5473965522,
				"y": 2.8216460699,
				"z": 0.5750463929,
				"element": "Cl" 
			},
			{
				"x": -0.3795072747,
				"y": 1.7362868712,
				"z": -0.661464415,
				"element": "C" 
			},
			{
				"x": 2.2541990224,
				"y": 0.0426529644,
				"z": -2.1138912172,
				"element": "H" 
			},
			{
				"x": 2.4076308441,
				"y": 1.6416427,
				"z": -1.370439947,
				"element": "H" 
			},
			{
				"x": 1.4655679528,
				"y": 1.4457385233,
				"z": -2.8504171791,
				"element": "H" 
			},
			{
				"x": -0.5265005755,
				"y": -4.8238570133,
				"z": 0.3005558016,
				"element": "H" 
			},
			{
				"x": -2.7767683528,
				"y": -0.0051397015,
				"z": 1.0950950011,
				"element": "H" 
			},
			{
				"x": -0.1601490778,
				"y": 2.7624275897,
				"z": -0.9368555013,
				"element": "H" 
			}
		],
		 "valence_orbital": [ 
			{
				"type": "occ",
				"energy": -0.31303,
				"method": "rhf"
			},
			{
				"type": "occ",
				"energy": -0.3047,
				"method": "rhf"
			},
			{
				"type": "occ",
				"energy": -0.29106,
				"method": "rhf"
			},
			{
				"type": "occ",
				"energy": -0.24517,
				"method": "rhf"
			},
			{
				"type": "occ",
				"energy": -0.23333,
				"method": "rhf"
			},
			{
				"type": "unocc",
				"energy": -0.03575,
				"method": "rhf"
			},
			{
				"type": "unocc",
				"energy": -0.00525,
				"method": "rhf"
			},
			{
				"type": "unocc",
				"energy": -0.00381,
				"method": "rhf"
			},
			{
				"type": "unocc",
				"energy": 0.0247,
				"method": "rhf"
			},
			{
				"type": "unocc",
				"energy": 0.02727,
				"method": "rhf"
			}
		],
		"cosmo_sigma_profile": { 
			"-0.025": 0.0,
			"-0.024": 0.0,
			"-0.023": 0.0,
			"-0.022": 0.0,
			"-0.021": 0.0,
			"-0.02": 0.0,
			"-0.019": 0.0,
			"-0.018": 0.0,
			"-0.017": 0.0,
			"-0.016": 0.0,
			"-0.015": 0.0,
			"-0.014": 0.0,
			"-0.013": 1.00492402397,
			"-0.012": 1.69978934848,
			"-0.011": 1.60549324733,
			"-0.01": 1.00523571925,
			"-0.009": 1.14727754256,
			"-0.008": 2.25593246807,
			"-0.007": 4.21706442428,
			"-0.006": 4.44990889958,
			"-0.005": 9.51518661091,
			"-0.004": 11.7392775341,
			"-0.003": 13.7458521468,
			"-0.002": 17.3653559812,
			"-0.001": 25.1036742305,
			"0.0": 20.0133208305,
			"0.001": 22.0096788875,
			"0.002": 23.2772542175,
			"0.003": 18.9482901263,
			"0.004": 15.4071212908,
			"0.005": 12.2206735022,
			"0.006": 2.02212313049,
			"0.007": 0.663936677071,
			"0.008": 1.40577265129,
			"0.009": 0.788793045972,
			"0.01": 0.704232798756,
			"0.011": 1.05977925442,
			"0.012": 0.966117841882,
			"0.013": 0.65225716331,
			"0.014": 0.920650957735,
			"0.015": 0.13976614321,
			"0.016": 0.0,
			"0.017": 0.0,
			"0.018": 0.0,
			"0.019": 0.0,
			"0.02": 0.0,
			"0.021": 0.0,
			"0.022": 0.0,
			"0.023": 0.0,
			"0.024": 0.0,
			"0.025": 0.0
		}
	}
}
