{
	 "smiles": "CC(C)N1N=CC2=C1N=C(Cl)C(C=O)=C2", 
	 "Tm": 352.15, 
	 "num_atms": 25, 
	 "gaussian": { 
		 "optdone": 1, 
		 "sigma_profile": "yes", 
		 "theory": "DFT", 
		 "functional": "B3LYP", 
		 "basiset": "6-31G**", 
		 "properties": { 
			 "R2extent": 4181.1543, 
			 "electric_dipole_moment_norm": 4.27679254115, 
			 "electric_quadrupole_moment_norm": 19.3696750339, 
			 "total_energy": -1086.74529831, 
			 "HOMO_LUMO_gap": 0.17991, 
			 "cosmo_polarized_energy": -12.64, 
			 "cosmo_cavitation_energy": 31.13, 
			 "cosmo_dispersion_energy": -22.33, 
			 "cosmo_repulsion_energy": 1.75, 
			 "cosmo_total_nonelectrostatic_energy": 10.55, 
			 "SMD_solvation_energy": 4.38 
		},
		"coords": [
			{
				"x": -3.1107610607,
				"y": -1.6271865008,
				"z": -2.3187345826,
				"element": "C" 
			},
			{
				"x": -2.5456967588,
				"y": -0.3086439459,
				"z": -1.7802308085,
				"element": "C" 
			},
			{
				"x": -3.639626158,
				"y": 0.7071780932,
				"z": -1.4347969042,
				"element": "C" 
			},
			{
				"x": -1.6966703301,
				"y": -0.5606963001,
				"z": -0.6062703979,
				"element": "N" 
			},
			{
				"x": -2.2152247815,
				"y": -1.1091957082,
				"z": 0.5303553501,
				"element": "N" 
			},
			{
				"x": -1.2249241765,
				"y": -1.2128521769,
				"z": 1.3993517712,
				"element": "C" 
			},
			{
				"x": -0.006002619,
				"y": -0.7246461681,
				"z": 0.843040555,
				"element": "C" 
			},
			{
				"x": -0.3683549376,
				"y": -0.3116345073,
				"z": -0.4653652623,
				"element": "C" 
			},
			{
				"x": 0.4472845999,
				"y": 0.2226543716,
				"z": -1.3854757905,
				"element": "N" 
			},
			{
				"x": 1.7004734763,
				"y": 0.3670014654,
				"z": -1.0125198225,
				"element": "C" 
			},
			{
				"x": 2.7510090979,
				"y": 1.0644065718,
				"z": -2.222098465,
				"element": "Cl" 
			},
			{
				"x": 2.2203417762,
				"y": -0.0013896989,
				"z": 0.2732149029,
				"element": "C" 
			},
			{
				"x": 3.6253068504,
				"y": 0.1471605436,
				"z": 0.7273309968,
				"element": "C" 
			},
			{
				"x": 4.5637761205,
				"y": 0.5970189833,
				"z": 0.1056606479,
				"element": "O" 
			},
			{
				"x": 1.331405724,
				"y": -0.5549336707,
				"z": 1.199703531,
				"element": "C" 
			},
			{
				"x": -3.7481913256,
				"y": -2.105149662,
				"z": -1.5698539983,
				"element": "H" 
			},
			{
				"x": -3.7089095058,
				"y": -1.4373452456,
				"z": -3.2149298315,
				"element": "H" 
			},
			{
				"x": -2.3063994995,
				"y": -2.3196212314,
				"z": -2.5831222498,
				"element": "H" 
			},
			{
				"x": -1.8608811493,
				"y": 0.1248396872,
				"z": -2.515203705,
				"element": "H" 
			},
			{
				"x": -4.2430568805,
				"y": 0.9205887227,
				"z": -2.3221027389,
				"element": "H" 
			},
			{
				"x": -4.2960215389,
				"y": 0.3128286444,
				"z": -0.654267143,
				"element": "H" 
			},
			{
				"x": -3.2049168405,
				"y": 1.6465100328,
				"z": -1.0811765373,
				"element": "H" 
			},
			{
				"x": -1.4092960062,
				"y": -1.6268416238,
				"z": 2.381620949,
				"element": "H" 
			},
			{
				"x": 3.7619822326,
				"y": -0.2175019899,
				"z": 1.7718915685,
				"element": "H" 
			},
			{
				"x": 1.7020536905,
				"y": -0.8421486864,
				"z": 2.181277965,
				"element": "H" 
			}
		],
		 "valence_orbital": [ 
			{
				"type": "occ",
				"energy": -0.3092,
				"method": "rhf"
			},
			{
				"type": "occ",
				"energy": -0.29479,
				"method": "rhf"
			},
			{
				"type": "occ",
				"energy": -0.26062,
				"method": "rhf"
			},
			{
				"type": "occ",
				"energy": -0.25557,
				"method": "rhf"
			},
			{
				"type": "occ",
				"energy": -0.25336,
				"method": "rhf"
			},
			{
				"type": "unocc",
				"energy": -0.07345,
				"method": "rhf"
			},
			{
				"type": "unocc",
				"energy": -0.05655,
				"method": "rhf"
			},
			{
				"type": "unocc",
				"energy": 0.01979,
				"method": "rhf"
			},
			{
				"type": "unocc",
				"energy": 0.03522,
				"method": "rhf"
			},
			{
				"type": "unocc",
				"energy": 0.04656,
				"method": "rhf"
			}
		],
		"cosmo_sigma_profile": { 
			"-0.025": 0.0,
			"-0.024": 0.0,
			"-0.023": 0.0,
			"-0.022": 0.0,
			"-0.021": 0.0,
			"-0.02": 0.0,
			"-0.019": 0.0,
			"-0.018": 0.0,
			"-0.017": 0.0,
			"-0.016": 0.0,
			"-0.015": 0.0,
			"-0.014": 0.0,
			"-0.013": 0.0,
			"-0.012": 0.0,
			"-0.011": 0.0,
			"-0.01": 1.67992493659,
			"-0.009": 4.78384431042,
			"-0.008": 5.86314158878,
			"-0.007": 5.23857540135,
			"-0.006": 6.0424544952,
			"-0.005": 8.22864626339,
			"-0.004": 19.3400957026,
			"-0.003": 24.8280525563,
			"-0.002": 31.7875937893,
			"-0.001": 27.9495304541,
			"0.0": 25.603755736,
			"0.001": 15.0825372228,
			"0.002": 9.87274238179,
			"0.003": 10.6675148498,
			"0.004": 11.1379682184,
			"0.005": 7.85838608656,
			"0.006": 5.10877674453,
			"0.007": 5.07331917812,
			"0.008": 4.87653703708,
			"0.009": 4.0345676443,
			"0.01": 5.27196103633,
			"0.011": 6.27630681516,
			"0.012": 3.38702737888,
			"0.013": 0.84064046613,
			"0.014": 0.0172501369998,
			"0.015": 0.0,
			"0.016": 0.0,
			"0.017": 0.0,
			"0.018": 0.0,
			"0.019": 0.0,
			"0.02": 0.0,
			"0.021": 0.0,
			"0.022": 0.0,
			"0.023": 0.0,
			"0.024": 0.0,
			"0.025": 0.0
		}
	}
}
