{
	 "smiles": "NC(=O)NC(=O)OCCCCl", 
	 "Tm": 439.15, 
	 "num_atms": 20, 
	 "gaussian": { 
		 "optdone": 1, 
		 "sigma_profile": "yes", 
		 "theory": "DFT", 
		 "functional": "B3LYP", 
		 "basiset": "6-31G**", 
		 "properties": { 
			 "R2extent": 3406.0551, 
			 "electric_dipole_moment_norm": 2.76423428819, 
			 "electric_quadrupole_moment_norm": 23.5688419779, 
			 "total_energy": -991.383534835, 
			 "HOMO_LUMO_gap": 0.27198, 
			 "cosmo_polarized_energy": -15.09, 
			 "cosmo_cavitation_energy": 26.14, 
			 "cosmo_dispersion_energy": -19.42, 
			 "cosmo_repulsion_energy": 1.63, 
			 "cosmo_total_nonelectrostatic_energy": 8.35, 
			 "SMD_solvation_energy": 5.88 
		},
		"coords": [
			{
				"x": -1.4864040272,
				"y": -2.8715552288,
				"z": 1.5500991037,
				"element": "N" 
			},
			{
				"x": -0.9475488844,
				"y": -3.4966957374,
				"z": 0.477962876,
				"element": "C" 
			},
			{
				"x": -0.6295425301,
				"y": -4.6719830151,
				"z": 0.4172220196,
				"element": "O" 
			},
			{
				"x": -0.7460701491,
				"y": -2.6736116601,
				"z": -0.6661952218,
				"element": "N" 
			},
			{
				"x": -1.0260807743,
				"y": -1.3408807147,
				"z": -0.8270852437,
				"element": "C" 
			},
			{
				"x": -1.5203891711,
				"y": -0.6067502369,
				"z": 0.0171041274,
				"element": "O" 
			},
			{
				"x": -0.6674702161,
				"y": -0.950913087,
				"z": -2.069754347,
				"element": "O" 
			},
			{
				"x": -0.947869478,
				"y": 0.4213696491,
				"z": -2.4363264837,
				"element": "C" 
			},
			{
				"x": 0.2951833594,
				"y": 1.3026695874,
				"z": -2.330284909,
				"element": "C" 
			},
			{
				"x": 0.750142374,
				"y": 1.5427539542,
				"z": -0.8945885347,
				"element": "C" 
			},
			{
				"x": 2.1787219834,
				"y": 2.6657883277,
				"z": -0.8515560826,
				"element": "Cl" 
			},
			{
				"x": -1.6463013183,
				"y": -3.4321534965,
				"z": 2.370315328,
				"element": "H" 
			},
			{
				"x": -1.7325933342,
				"y": -1.8908116243,
				"z": 1.5061021421,
				"element": "H" 
			},
			{
				"x": -0.34413377,
				"y": -3.1709232091,
				"z": -1.4491939259,
				"element": "H" 
			},
			{
				"x": -1.7634884209,
				"y": 0.7946182873,
				"z": -1.8131781852,
				"element": "H" 
			},
			{
				"x": -1.2793997506,
				"y": 0.3684959338,
				"z": -3.4759304046,
				"element": "H" 
			},
			{
				"x": 0.0585208764,
				"y": 2.2648223561,
				"z": -2.7992769837,
				"element": "H" 
			},
			{
				"x": 1.1105134329,
				"y": 0.8561516533,
				"z": -2.908914595,
				"element": "H" 
			},
			{
				"x": -0.0309866141,
				"y": 2.0058989933,
				"z": -0.2909016457,
				"element": "H" 
			},
			{
				"x": 1.0721964123,
				"y": 0.6243092678,
				"z": -0.404619034,
				"element": "H" 
			}
		],
		 "valence_orbital": [ 
			{
				"type": "occ",
				"energy": -0.30065,
				"method": "rhf"
			},
			{
				"type": "occ",
				"energy": -0.29785,
				"method": "rhf"
			},
			{
				"type": "occ",
				"energy": -0.29408,
				"method": "rhf"
			},
			{
				"type": "occ",
				"energy": -0.27512,
				"method": "rhf"
			},
			{
				"type": "occ",
				"energy": -0.2729,
				"method": "rhf"
			},
			{
				"type": "unocc",
				"energy": -0.00092,
				"method": "rhf"
			},
			{
				"type": "unocc",
				"energy": 0.01816,
				"method": "rhf"
			},
			{
				"type": "unocc",
				"energy": 0.07714,
				"method": "rhf"
			},
			{
				"type": "unocc",
				"energy": 0.08251,
				"method": "rhf"
			},
			{
				"type": "unocc",
				"energy": 0.09786,
				"method": "rhf"
			}
		],
		"cosmo_sigma_profile": { 
			"-0.025": 0.0,
			"-0.024": 0.0,
			"-0.023": 0.0,
			"-0.022": 0.0,
			"-0.021": 0.0,
			"-0.02": 0.0,
			"-0.019": 0.0,
			"-0.018": 0.0,
			"-0.017": 0.0,
			"-0.016": 0.00489830875701,
			"-0.015": 1.4184135968,
			"-0.014": 1.7332594314,
			"-0.013": 1.58554534827,
			"-0.012": 1.49020139884,
			"-0.011": 2.19684589556,
			"-0.01": 2.71890484431,
			"-0.009": 2.54683546934,
			"-0.008": 1.82413039575,
			"-0.007": 7.06705743359,
			"-0.006": 13.6210127796,
			"-0.005": 15.4495422617,
			"-0.004": 15.6457549536,
			"-0.003": 15.1673233458,
			"-0.002": 13.0616970235,
			"-0.001": 11.6455398746,
			"0.0": 10.6505459304,
			"0.001": 10.8022474022,
			"0.002": 9.49617018016,
			"0.003": 8.81479282576,
			"0.004": 8.60786476937,
			"0.005": 10.1789097072,
			"0.006": 11.5483918604,
			"0.007": 9.25787620413,
			"0.008": 1.77616230695,
			"0.009": 3.19214980799,
			"0.01": 2.82242571983,
			"0.011": 2.43970116352,
			"0.012": 1.9251805892,
			"0.013": 6.31954281648,
			"0.014": 3.14581422731,
			"0.015": 0.0696255717138,
			"0.016": 0.0,
			"0.017": 0.0,
			"0.018": 0.0,
			"0.019": 0.0,
			"0.02": 0.0,
			"0.021": 0.0,
			"0.022": 0.0,
			"0.023": 0.0,
			"0.024": 0.0,
			"0.025": 0.0
		}
	}
}
