{
	 "smiles": "NNC1=NC2=CC=C(Cl)C=C2S1", 
	 "Tm": 537.15, 
	 "num_atms": 18, 
	 "gaussian": { 
		 "optdone": 1, 
		 "sigma_profile": "yes", 
		 "theory": "DFT", 
		 "functional": "B3LYP", 
		 "basiset": "6-31G**", 
		 "properties": { 
			 "R2extent": 4369.6557, 
			 "electric_dipole_moment_norm": 2.84677219672, 
			 "electric_quadrupole_moment_norm": 12.1310973246, 
			 "total_energy": -1292.97017299, 
			 "HOMO_LUMO_gap": 0.19088, 
			 "cosmo_polarized_energy": -11.37, 
			 "cosmo_cavitation_energy": 25.85, 
			 "cosmo_dispersion_energy": -20.15, 
			 "cosmo_repulsion_energy": 1.56, 
			 "cosmo_total_nonelectrostatic_energy": 7.25, 
			 "SMD_solvation_energy": 2.36 
		},
		"coords": [
			{
				"x": -1.6311670435,
				"y": -2.3354853872,
				"z": 2.6991838163,
				"element": "N" 
			},
			{
				"x": -1.0634148314,
				"y": -1.0618961819,
				"z": 2.8230754565,
				"element": "N" 
			},
			{
				"x": -0.0759730191,
				"y": -0.5977158878,
				"z": 1.9991371732,
				"element": "C" 
			},
			{
				"x": 0.263746642,
				"y": 0.6484373107,
				"z": 1.8962430804,
				"element": "N" 
			},
			{
				"x": 1.3289905387,
				"y": 0.7883355943,
				"z": 1.0224471712,
				"element": "C" 
			},
			{
				"x": 1.9465133168,
				"y": 1.9999609442,
				"z": 0.6853014459,
				"element": "C" 
			},
			{
				"x": 3.0066856418,
				"y": 2.0066873823,
				"z": -0.2157965441,
				"element": "C" 
			},
			{
				"x": 3.4525469762,
				"y": 0.8059205786,
				"z": -0.7832059798,
				"element": "C" 
			},
			{
				"x": 4.7953081704,
				"y": 0.8413334141,
				"z": -1.9206106306,
				"element": "Cl" 
			},
			{
				"x": 2.8645440135,
				"y": -0.4194606269,
				"z": -0.4742511148,
				"element": "C" 
			},
			{
				"x": 1.8065805432,
				"y": -0.4082031381,
				"z": 0.4312314299,
				"element": "C" 
			},
			{
				"x": 0.8595300713,
				"y": -1.7728082929,
				"z": 1.0218774795,
				"element": "S" 
			},
			{
				"x": -1.8237119613,
				"y": -2.5616314882,
				"z": 1.7238357761,
				"element": "H" 
			},
			{
				"x": -0.9998916461,
				"y": -3.0322918126,
				"z": 3.0859494085,
				"element": "H" 
			},
			{
				"x": -1.6770453493,
				"y": -0.3545761851,
				"z": 3.2056027324,
				"element": "H" 
			},
			{
				"x": 1.5891332613,
				"y": 2.9212039959,
				"z": 1.1327696288,
				"element": "H" 
			},
			{
				"x": 3.4937153393,
				"y": 2.9372124421,
				"z": -0.4845157588,
				"element": "H" 
			},
			{
				"x": 3.2269093362,
				"y": -1.3355226615,
				"z": -0.9259745706,
				"element": "H" 
			}
		],
		 "valence_orbital": [ 
			{
				"type": "occ",
				"energy": -0.29425,
				"method": "rhf"
			},
			{
				"type": "occ",
				"energy": -0.28426,
				"method": "rhf"
			},
			{
				"type": "occ",
				"energy": -0.28346,
				"method": "rhf"
			},
			{
				"type": "occ",
				"energy": -0.24372,
				"method": "rhf"
			},
			{
				"type": "occ",
				"energy": -0.21428,
				"method": "rhf"
			},
			{
				"type": "unocc",
				"energy": -0.0234,
				"method": "rhf"
			},
			{
				"type": "unocc",
				"energy": -0.01327,
				"method": "rhf"
			},
			{
				"type": "unocc",
				"energy": -0.00529,
				"method": "rhf"
			},
			{
				"type": "unocc",
				"energy": 0.03265,
				"method": "rhf"
			},
			{
				"type": "unocc",
				"energy": 0.03464,
				"method": "rhf"
			}
		],
		"cosmo_sigma_profile": { 
			"-0.025": 0.0,
			"-0.024": 0.0,
			"-0.023": 0.0,
			"-0.022": 0.0,
			"-0.021": 0.0,
			"-0.02": 0.0,
			"-0.019": 0.0,
			"-0.018": 0.0,
			"-0.017": 0.0,
			"-0.016": 0.0,
			"-0.015": 0.265499777305,
			"-0.014": 1.07825729172,
			"-0.013": 1.2604384723,
			"-0.012": 2.68647318269,
			"-0.011": 4.05114369498,
			"-0.01": 4.15867466145,
			"-0.009": 4.02886190508,
			"-0.008": 6.09335078909,
			"-0.007": 6.84770516076,
			"-0.006": 7.33745751165,
			"-0.005": 8.30475987542,
			"-0.004": 8.36314135122,
			"-0.003": 7.5312286678,
			"-0.002": 8.40170843335,
			"-0.001": 12.0846829479,
			"0.0": 14.0515256052,
			"0.001": 16.3923265547,
			"0.002": 22.9091801905,
			"0.003": 25.9220108505,
			"0.004": 19.7757793945,
			"0.005": 12.553831527,
			"0.006": 3.37145864125,
			"0.007": 1.75548371928,
			"0.008": 1.33715744698,
			"0.009": 1.9904240014,
			"0.01": 1.63971888984,
			"0.011": 1.51567724164,
			"0.012": 2.10439780067,
			"0.013": 1.41808430479,
			"0.014": 1.04892686122,
			"0.015": 1.09179919426,
			"0.016": 0.0366112835146,
			"0.017": 0.0,
			"0.018": 0.0,
			"0.019": 0.0,
			"0.02": 0.0,
			"0.021": 0.0,
			"0.022": 0.0,
			"0.023": 0.0,
			"0.024": 0.0,
			"0.025": 0.0
		}
	}
}
