{
	 "smiles": "COC1=C(C=C(C)C=C1)N1N=NN=C1S", 
	 "Tm": 438.15, 
	 "num_atms": 25, 
	 "gaussian": { 
		 "optdone": 1, 
		 "sigma_profile": "yes", 
		 "theory": "DFT", 
		 "functional": "B3LYP", 
		 "basiset": "6-31G**", 
		 "properties": { 
			 "R2extent": 3649.4076, 
			 "electric_dipole_moment_norm": 5.30247936913, 
			 "electric_quadrupole_moment_norm": 17.8673138138, 
			 "total_energy": -1041.32401806, 
			 "HOMO_LUMO_gap": 0.21031, 
			 "cosmo_polarized_energy": -13.88, 
			 "cosmo_cavitation_energy": 31.41, 
			 "cosmo_dispersion_energy": -22.39, 
			 "cosmo_repulsion_energy": 1.73, 
			 "cosmo_total_nonelectrostatic_energy": 10.75, 
			 "SMD_solvation_energy": 4.25 
		},
		"coords": [
			{
				"x": -1.3770387527,
				"y": 0.3909400697,
				"z": -2.5315829424,
				"element": "C" 
			},
			{
				"x": -0.5281947114,
				"y": -0.4153779892,
				"z": -1.7022780687,
				"element": "O" 
			},
			{
				"x": 0.273841642,
				"y": 0.2678604177,
				"z": -0.8328702034,
				"element": "C" 
			},
			{
				"x": -0.0310152425,
				"y": 0.2885606645,
				"z": 0.5371393038,
				"element": "C" 
			},
			{
				"x": 0.8185462086,
				"y": 0.9138401469,
				"z": 1.4538032644,
				"element": "C" 
			},
			{
				"x": 1.9951624426,
				"y": 1.5375220064,
				"z": 1.0298772727,
				"element": "C" 
			},
			{
				"x": 2.9302876211,
				"y": 2.1914077775,
				"z": 2.019427068,
				"element": "C" 
			},
			{
				"x": 2.2863302034,
				"y": 1.5263073204,
				"z": -0.3425393073,
				"element": "C" 
			},
			{
				"x": 1.4431991029,
				"y": 0.9043226002,
				"z": -1.2598294658,
				"element": "C" 
			},
			{
				"x": -1.2298635135,
				"y": -0.3332533171,
				"z": 0.9949990805,
				"element": "N" 
			},
			{
				"x": -2.4699531633,
				"y": 0.1067681072,
				"z": 0.6144992814,
				"element": "N" 
			},
			{
				"x": -3.3228728157,
				"y": -0.6725385357,
				"z": 1.1806333852,
				"element": "N" 
			},
			{
				"x": -2.7111104575,
				"y": -1.6277052244,
				"z": 1.9332208238,
				"element": "N" 
			},
			{
				"x": -1.415349526,
				"y": -1.4044112677,
				"z": 1.8029252224,
				"element": "C" 
			},
			{
				"x": -0.1108852175,
				"y": -2.3304911215,
				"z": 2.5312394189,
				"element": "S" 
			},
			{
				"x": -1.8847539185,
				"y": -0.3003282168,
				"z": -3.2059737599,
				"element": "H" 
			},
			{
				"x": -2.1153326471,
				"y": 0.9205063005,
				"z": -1.9211668221,
				"element": "H" 
			},
			{
				"x": -0.7927666325,
				"y": 1.1092361696,
				"z": -3.1198598418,
				"element": "H" 
			},
			{
				"x": 0.5427767997,
				"y": 0.9204836686,
				"z": 2.5042736829,
				"element": "H" 
			},
			{
				"x": 3.3219116334,
				"y": 3.1373678589,
				"z": 1.6325208607,
				"element": "H" 
			},
			{
				"x": 2.428546827,
				"y": 2.3968693691,
				"z": 2.9688641975,
				"element": "H" 
			},
			{
				"x": 3.7916110467,
				"y": 1.5474862475,
				"z": 2.2351003202,
				"element": "H" 
			},
			{
				"x": 3.1930538336,
				"y": 2.0088441848,
				"z": -0.6983791915,
				"element": "H" 
			},
			{
				"x": 1.6905773014,
				"y": 0.8838214153,
				"z": -2.3165391225,
				"element": "H" 
			},
			{
				"x": -0.9628080641,
				"y": -3.2081386524,
				"z": 3.0953955429,
				"element": "H" 
			}
		],
		 "valence_orbital": [ 
			{
				"type": "occ",
				"energy": -0.29141,
				"method": "rhf"
			},
			{
				"type": "occ",
				"energy": -0.28659,
				"method": "rhf"
			},
			{
				"type": "occ",
				"energy": -0.26786,
				"method": "rhf"
			},
			{
				"type": "occ",
				"energy": -0.2552,
				"method": "rhf"
			},
			{
				"type": "occ",
				"energy": -0.24735,
				"method": "rhf"
			},
			{
				"type": "unocc",
				"energy": -0.03704,
				"method": "rhf"
			},
			{
				"type": "unocc",
				"energy": -0.02153,
				"method": "rhf"
			},
			{
				"type": "unocc",
				"energy": -0.00622,
				"method": "rhf"
			},
			{
				"type": "unocc",
				"energy": 0.0036,
				"method": "rhf"
			},
			{
				"type": "unocc",
				"energy": 0.02593,
				"method": "rhf"
			}
		],
		"cosmo_sigma_profile": { 
			"-0.025": 0.0,
			"-0.024": 0.0,
			"-0.023": 0.0,
			"-0.022": 0.0,
			"-0.021": 0.0,
			"-0.02": 0.0,
			"-0.019": 0.0,
			"-0.018": 0.0,
			"-0.017": 0.0,
			"-0.016": 0.0,
			"-0.015": 0.0,
			"-0.014": 0.0617355461064,
			"-0.013": 1.4506216339,
			"-0.012": 1.70945240596,
			"-0.011": 1.11233584015,
			"-0.01": 1.08011241669,
			"-0.009": 1.61079738886,
			"-0.008": 1.35158157084,
			"-0.007": 6.68897093616,
			"-0.006": 11.1224293042,
			"-0.005": 17.3412265022,
			"-0.004": 21.23455881,
			"-0.003": 21.5726684564,
			"-0.002": 22.2867881016,
			"-0.001": 21.5390530994,
			"0.0": 21.0132855488,
			"0.001": 17.6524813693,
			"0.002": 17.0637795697,
			"0.003": 15.0059870571,
			"0.004": 9.46043366306,
			"0.005": 6.82902939005,
			"0.006": 3.97340009587,
			"0.007": 5.16541115404,
			"0.008": 7.25870674282,
			"0.009": 4.47789013747,
			"0.01": 5.86176993908,
			"0.011": 4.11314081042,
			"0.012": 2.04405173199,
			"0.013": 2.22545247238,
			"0.014": 1.06408144188,
			"0.015": 0.110111098589,
			"0.016": 0.0,
			"0.017": 0.0,
			"0.018": 0.0,
			"0.019": 0.0,
			"0.02": 0.0,
			"0.021": 0.0,
			"0.022": 0.0,
			"0.023": 0.0,
			"0.024": 0.0,
			"0.025": 0.0
		}
	}
}
