{
	 "smiles": "OC(=O)C=C/C(=O)NCC1=CC=CC=C1", 
	 "Tm": 410.15, 
	 "num_atms": 26, 
	 "gaussian": { 
		 "optdone": 1, 
		 "sigma_profile": "yes", 
		 "theory": "DFT", 
		 "functional": "B3LYP", 
		 "basiset": "6-31G**", 
		 "properties": { 
			 "R2extent": 4569.5878, 
			 "electric_dipole_moment_norm": 3.66324005219, 
			 "electric_quadrupole_moment_norm": 10.2635750151, 
			 "total_energy": -706.234136036, 
			 "HOMO_LUMO_gap": 0.14974, 
			 "cosmo_polarized_energy": -14.27, 
			 "cosmo_cavitation_energy": 31.08, 
			 "cosmo_dispersion_energy": -22.08, 
			 "cosmo_repulsion_energy": 1.74, 
			 "cosmo_total_nonelectrostatic_energy": 10.75, 
			 "SMD_solvation_energy": 6.4 
		},
		"coords": [
			{
				"x": 4.8363400591,
				"y": 3.0733423753,
				"z": 0.6085303684,
				"element": "O" 
			},
			{
				"x": 3.5994808015,
				"y": 2.5839680166,
				"z": 0.3782700915,
				"element": "C" 
			},
			{
				"x": 3.3841520679,
				"y": 1.8248190566,
				"z": -0.5559134561,
				"element": "O" 
			},
			{
				"x": 2.6448450522,
				"y": 3.1038498852,
				"z": 1.3798104085,
				"element": "C" 
			},
			{
				"x": 1.3338399792,
				"y": 2.8378440945,
				"z": 1.5380300705,
				"element": "C" 
			},
			{
				"x": 0.3234051493,
				"y": 1.9469938574,
				"z": 0.8613350258,
				"element": "C" 
			},
			{
				"x": -0.7904095807,
				"y": 1.8700164753,
				"z": 1.3889514116,
				"element": "O" 
			},
			{
				"x": 0.6681136697,
				"y": 1.3038965574,
				"z": -0.2775548938,
				"element": "N" 
			},
			{
				"x": -0.2736311704,
				"y": 0.4219119798,
				"z": -0.9641832614,
				"element": "C" 
			},
			{
				"x": -0.145241254,
				"y": -1.0386938992,
				"z": -0.5663471001,
				"element": "C" 
			},
			{
				"x": 0.4390649268,
				"y": -1.9687646459,
				"z": -1.4325579983,
				"element": "C" 
			},
			{
				"x": 0.5637863532,
				"y": -3.3096483849,
				"z": -1.0608786882,
				"element": "C" 
			},
			{
				"x": 0.1043844383,
				"y": -3.7327065209,
				"z": 0.1864619067,
				"element": "C" 
			},
			{
				"x": -0.4811674003,
				"y": -2.8101711135,
				"z": 1.0583002639,
				"element": "C" 
			},
			{
				"x": -0.6070817418,
				"y": -1.4725975323,
				"z": 0.6854946889,
				"element": "C" 
			},
			{
				"x": 5.4134359191,
				"y": 2.6989225224,
				"z": -0.0781411515,
				"element": "H" 
			},
			{
				"x": 3.1002691313,
				"y": 3.7981301772,
				"z": 2.0797600532,
				"element": "H" 
			},
			{
				"x": 0.8422947384,
				"y": 3.3467184796,
				"z": 2.363336688,
				"element": "H" 
			},
			{
				"x": 1.6377213198,
				"y": 1.3457059794,
				"z": -0.5856960321,
				"element": "H" 
			},
			{
				"x": -1.2762082305,
				"y": 0.7895028368,
				"z": -0.7320914431,
				"element": "H" 
			},
			{
				"x": -0.1090538279,
				"y": 0.5300588002,
				"z": -2.0410939901,
				"element": "H" 
			},
			{
				"x": 0.7970394925,
				"y": -1.6431913767,
				"z": -2.4068275892,
				"element": "H" 
			},
			{
				"x": 1.0178235509,
				"y": -4.0207829444,
				"z": -1.7454775207,
				"element": "H" 
			},
			{
				"x": 0.1983635645,
				"y": -4.7751332281,
				"z": 0.4776852403,
				"element": "H" 
			},
			{
				"x": -0.8453101204,
				"y": -3.1356399246,
				"z": 2.0289423673,
				"element": "H" 
			},
			{
				"x": -1.0622568876,
				"y": -0.7513515231,
				"z": 1.3581545399,
				"element": "H" 
			}
		],
		 "valence_orbital": [ 
			{
				"type": "occ",
				"energy": -0.29849,
				"method": "rhf"
			},
			{
				"type": "occ",
				"energy": -0.25929,
				"method": "rhf"
			},
			{
				"type": "occ",
				"energy": -0.24834,
				"method": "rhf"
			},
			{
				"type": "occ",
				"energy": -0.24422,
				"method": "rhf"
			},
			{
				"type": "occ",
				"energy": -0.23609,
				"method": "rhf"
			},
			{
				"type": "unocc",
				"energy": -0.08635,
				"method": "rhf"
			},
			{
				"type": "unocc",
				"energy": 0.00049,
				"method": "rhf"
			},
			{
				"type": "unocc",
				"energy": 0.00512,
				"method": "rhf"
			},
			{
				"type": "unocc",
				"energy": 0.02939,
				"method": "rhf"
			},
			{
				"type": "unocc",
				"energy": 0.06518,
				"method": "rhf"
			}
		],
		"cosmo_sigma_profile": { 
			"-0.025": 0.0,
			"-0.024": 0.0,
			"-0.023": 0.0,
			"-0.022": 0.0,
			"-0.021": 0.0,
			"-0.02": 0.0,
			"-0.019": 0.377504791673,
			"-0.018": 1.48597449688,
			"-0.017": 0.585700314186,
			"-0.016": 0.345729641306,
			"-0.015": 0.982367547491,
			"-0.014": 0.72884628716,
			"-0.013": 1.00405846476,
			"-0.012": 1.08911435809,
			"-0.011": 0.525740057042,
			"-0.01": 0.302621269012,
			"-0.009": 0.808427353512,
			"-0.008": 3.83181985393,
			"-0.007": 5.84709720911,
			"-0.006": 10.9881634515,
			"-0.005": 15.0519963178,
			"-0.004": 18.2621041223,
			"-0.003": 22.2159855849,
			"-0.002": 21.3158652203,
			"-0.001": 19.5083479977,
			"0.0": 17.8540539579,
			"0.001": 16.2410577392,
			"0.002": 13.5335005963,
			"0.003": 12.5465500697,
			"0.004": 12.2569273179,
			"0.005": 12.2965172361,
			"0.006": 12.2513863646,
			"0.007": 5.70676384063,
			"0.008": 3.92403790441,
			"0.009": 2.85788611182,
			"0.01": 3.11916381637,
			"0.011": 1.57945138764,
			"0.012": 2.15225675893,
			"0.013": 2.76503265714,
			"0.014": 3.50898156699,
			"0.015": 0.42509717276,
			"0.016": 0.0,
			"0.017": 0.0,
			"0.018": 0.0,
			"0.019": 0.0,
			"0.02": 0.0,
			"0.021": 0.0,
			"0.022": 0.0,
			"0.023": 0.0,
			"0.024": 0.0,
			"0.025": 0.0
		}
	}
}
