{
	 "smiles": "COC1=C(C=C(C(Br)=C1)S(Cl)(=O)=O)C(O)=O", 
	 "Tm": 470.15, 
	 "num_atms": 22, 
	 "gaussian": { 
		 "optdone": 1, 
		 "sigma_profile": "yes", 
		 "theory": "DFT", 
		 "functional": "B3LYP", 
		 "basiset": "6-31G**", 
		 "properties": { 
			 "R2extent": 6284.0693, 
			 "electric_dipole_moment_norm": 9.29835784749, 
			 "electric_quadrupole_moment_norm": 19.3789942445, 
			 "total_energy": -4114.28926257, 
			 "HOMO_LUMO_gap": 0.1833, 
			 "cosmo_polarized_energy": -20.41, 
			 "cosmo_cavitation_energy": 32.51, 
			 "cosmo_dispersion_energy": -24.37, 
			 "cosmo_repulsion_energy": 1.85, 
			 "cosmo_total_nonelectrostatic_energy": 9.99, 
			 "SMD_solvation_energy": 5.31 
		},
		"coords": [
			{
				"x": -0.0101239838,
				"y": -0.013078253,
				"z": 3.7835931956,
				"element": "C" 
			},
			{
				"x": -0.1560049504,
				"y": 0.9415234362,
				"z": 2.7257866497,
				"element": "O" 
			},
			{
				"x": -0.414076474,
				"y": 0.5245128114,
				"z": 1.4551904608,
				"element": "C" 
			},
			{
				"x": -0.5438621876,
				"y": 1.5196697764,
				"z": 0.4603210572,
				"element": "C" 
			},
			{
				"x": -0.8090591241,
				"y": 1.1068747887,
				"z": -0.8444290833,
				"element": "C" 
			},
			{
				"x": -0.9502794346,
				"y": -0.2398986108,
				"z": -1.1770036952,
				"element": "C" 
			},
			{
				"x": -0.8123765941,
				"y": -1.2197093949,
				"z": -0.182634598,
				"element": "C" 
			},
			{
				"x": -0.9441039604,
				"y": -3.0805297165,
				"z": -0.5121688476,
				"element": "Br" 
			},
			{
				"x": -0.5455038019,
				"y": -0.8294299924,
				"z": 1.1278528887,
				"element": "C" 
			},
			{
				"x": -1.3500352035,
				"y": -0.5827124787,
				"z": -2.895722257,
				"element": "S" 
			},
			{
				"x": 0.4648012463,
				"y": -1.4435087283,
				"z": -3.589546828,
				"element": "Cl" 
			},
			{
				"x": -1.4835762378,
				"y": 0.6906632059,
				"z": -3.5888970906,
				"element": "O" 
			},
			{
				"x": -2.3714787142,
				"y": -1.6151408209,
				"z": -2.9847246612,
				"element": "O" 
			},
			{
				"x": -0.4231035376,
				"y": 3.0146674398,
				"z": 0.6665128941,
				"element": "C" 
			},
			{
				"x": -0.1674101858,
				"y": 3.459590332,
				"z": 1.9079501268,
				"element": "O" 
			},
			{
				"x": -0.552415038,
				"y": 3.7838316506,
				"z": -0.258008839,
				"element": "O" 
			},
			{
				"x": -0.9299866574,
				"y": -0.5913609131,
				"z": 3.9151504971,
				"element": "H" 
			},
			{
				"x": 0.1861597368,
				"y": 0.5726087554,
				"z": 4.6809620131,
				"element": "H" 
			},
			{
				"x": 0.8332019242,
				"y": -0.6831221999,
				"z": 3.5894037991,
				"element": "H" 
			},
			{
				"x": -0.907883137,
				"y": 1.8732673353,
				"z": -1.6050659649,
				"element": "H" 
			},
			{
				"x": -0.4414969329,
				"y": -1.5969997051,
				"z": 1.8817914907,
				"element": "H" 
			},
			{
				"x": -0.0947867523,
				"y": 2.709881282,
				"z": 2.5252867917,
				"element": "H" 
			}
		],
		 "valence_orbital": [ 
			{
				"type": "occ",
				"energy": -0.31679,
				"method": "rhf"
			},
			{
				"type": "occ",
				"energy": -0.31161,
				"method": "rhf"
			},
			{
				"type": "occ",
				"energy": -0.29218,
				"method": "rhf"
			},
			{
				"type": "occ",
				"energy": -0.28634,
				"method": "rhf"
			},
			{
				"type": "occ",
				"energy": -0.2792,
				"method": "rhf"
			},
			{
				"type": "unocc",
				"energy": -0.0959,
				"method": "rhf"
			},
			{
				"type": "unocc",
				"energy": -0.07967,
				"method": "rhf"
			},
			{
				"type": "unocc",
				"energy": -0.05479,
				"method": "rhf"
			},
			{
				"type": "unocc",
				"energy": -0.02719,
				"method": "rhf"
			},
			{
				"type": "unocc",
				"energy": 0.01596,
				"method": "rhf"
			}
		],
		"cosmo_sigma_profile": { 
			"-0.025": 0.0,
			"-0.024": 0.0,
			"-0.023": 0.0,
			"-0.022": 0.0,
			"-0.021": 0.0,
			"-0.02": 0.0,
			"-0.019": 0.0,
			"-0.018": 0.0,
			"-0.017": 0.0,
			"-0.016": 0.0,
			"-0.015": 0.0,
			"-0.014": 0.0,
			"-0.013": 0.0,
			"-0.012": 0.292231296895,
			"-0.011": 0.37544023164,
			"-0.01": 2.5712723798,
			"-0.009": 3.7709068685,
			"-0.008": 8.82072848056,
			"-0.007": 13.6101992158,
			"-0.006": 14.0976889146,
			"-0.005": 16.1370088882,
			"-0.004": 15.3927600392,
			"-0.003": 21.2286374265,
			"-0.002": 25.3174270666,
			"-0.001": 17.2521757566,
			"0.0": 11.5971710244,
			"0.001": 14.2328412338,
			"0.002": 21.5112306141,
			"0.003": 19.3538153391,
			"0.004": 7.8917001016,
			"0.005": 4.61635968342,
			"0.006": 7.23152727915,
			"0.007": 10.117249251,
			"0.008": 11.7120538178,
			"0.009": 5.77752029802,
			"0.01": 5.27953904889,
			"0.011": 4.94861609398,
			"0.012": 3.16033473213,
			"0.013": 0.988028932614,
			"0.014": 0.0,
			"0.015": 0.0,
			"0.016": 0.0,
			"0.017": 0.0,
			"0.018": 0.0,
			"0.019": 0.0,
			"0.02": 0.0,
			"0.021": 0.0,
			"0.022": 0.0,
			"0.023": 0.0,
			"0.024": 0.0,
			"0.025": 0.0
		}
	}
}
