{
	 "smiles": "C[N+]12CCC(CC1)C(C2)OC(=O)C(O)(C1=CC=CC=C1)C1=CC=CC=C1", 
	 "Tm": 513.65, 
	 "num_atms": 52, 
	 "gaussian": { 
		 "optdone": 1, 
		 "sigma_profile": "yes", 
		 "theory": "DFT", 
		 "functional": "B3LYP", 
		 "basiset": "6-31G**", 
		 "properties": { 
			 "R2extent": 9070.5078, 
			 "electric_dipole_moment_norm": 14.0029504712, 
			 "electric_quadrupole_moment_norm": 43.9393177721, 
			 "total_energy": -1134.22084553, 
			 "HOMO_LUMO_gap": 0.20532, 
			 "cosmo_polarized_energy": -60.57, 
			 "cosmo_cavitation_energy": 50.37, 
			 "cosmo_dispersion_energy": -32.87, 
			 "cosmo_repulsion_energy": 2.46, 
			 "cosmo_total_nonelectrostatic_energy": 19.96, 
			 "SMD_solvation_energy": 8.65 
		},
		"coords": [
			{
				"x": 1.6866209761,
				"y": 1.0914563897,
				"z": 3.8768708803,
				"element": "C" 
			},
			{
				"x": 1.1484501397,
				"y": -0.1666757002,
				"z": 3.2666435697,
				"element": "N" 
			},
			{
				"x": 1.0641130248,
				"y": -1.2719044005,
				"z": 4.3119707871,
				"element": "C" 
			},
			{
				"x": 0.2848889173,
				"y": -2.4725411476,
				"z": 3.7310813859,
				"element": "C" 
			},
			{
				"x": 0.2128024983,
				"y": -2.3313744945,
				"z": 2.1983687157,
				"element": "C" 
			},
			{
				"x": 1.6256178708,
				"y": -2.03464122,
				"z": 1.6576253138,
				"element": "C" 
			},
			{
				"x": 2.0579968379,
				"y": -0.6310945231,
				"z": 2.1283227664,
				"element": "C" 
			},
			{
				"x": -0.7075426085,
				"y": -1.1440947911,
				"z": 1.8828604484,
				"element": "C" 
			},
			{
				"x": -0.2462249795,
				"y": 0.0780525351,
				"z": 2.7110137782,
				"element": "C" 
			},
			{
				"x": -0.5854222633,
				"y": -0.8796085359,
				"z": 0.4760795153,
				"element": "O" 
			},
			{
				"x": -1.4379357337,
				"y": 0.0469570176,
				"z": -0.0383806005,
				"element": "C" 
			},
			{
				"x": -2.2831842706,
				"y": 0.5934161489,
				"z": 0.6358959026,
				"element": "O" 
			},
			{
				"x": -1.1770901797,
				"y": 0.3719554848,
				"z": -1.5300296354,
				"element": "C" 
			},
			{
				"x": -1.6739476826,
				"y": 1.6834013327,
				"z": -1.7291222081,
				"element": "O" 
			},
			{
				"x": -1.9155543055,
				"y": -0.6392342144,
				"z": -2.427595851,
				"element": "C" 
			},
			{
				"x": -2.0861104657,
				"y": -1.9865871941,
				"z": -2.0826330562,
				"element": "C" 
			},
			{
				"x": -2.75716081,
				"y": -2.857907132,
				"z": -2.9437727163,
				"element": "C" 
			},
			{
				"x": -3.2625951834,
				"y": -2.3936408137,
				"z": -4.1578752214,
				"element": "C" 
			},
			{
				"x": -3.0934161229,
				"y": -1.0523493947,
				"z": -4.5073374739,
				"element": "C" 
			},
			{
				"x": -2.4266488515,
				"y": -0.1794261301,
				"z": -3.6484363025,
				"element": "C" 
			},
			{
				"x": 0.3414904178,
				"y": 0.4325569934,
				"z": -1.7682596032,
				"element": "C" 
			},
			{
				"x": 1.0361721802,
				"y": 1.5894178549,
				"z": -1.3847899518,
				"element": "C" 
			},
			{
				"x": 2.4236862655,
				"y": 1.66028204,
				"z": -1.5265719928,
				"element": "C" 
			},
			{
				"x": 3.1330593715,
				"y": 0.5777806389,
				"z": -2.0536902953,
				"element": "C" 
			},
			{
				"x": 2.4436352137,
				"y": -0.571148572,
				"z": -2.4453967824,
				"element": "C" 
			},
			{
				"x": 1.0553183155,
				"y": -0.6444655326,
				"z": -2.3038626092,
				"element": "C" 
			},
			{
				"x": 0.9791144104,
				"y": 1.459224507,
				"z": 4.621371573,
				"element": "H" 
			},
			{
				"x": 1.8207987512,
				"y": 1.8364783648,
				"z": 3.0916782375,
				"element": "H" 
			},
			{
				"x": 2.6451292041,
				"y": 0.8745433717,
				"z": 4.3502614629,
				"element": "H" 
			},
			{
				"x": 2.094348012,
				"y": -1.5240111961,
				"z": 4.5727085272,
				"element": "H" 
			},
			{
				"x": 0.5829065238,
				"y": -0.8429367307,
				"z": 5.1932577454,
				"element": "H" 
			},
			{
				"x": 0.794104491,
				"y": -3.4002931237,
				"z": 4.0026321123,
				"element": "H" 
			},
			{
				"x": -0.7195669259,
				"y": -2.5216279579,
				"z": 4.1626090907,
				"element": "H" 
			},
			{
				"x": -0.1872737226,
				"y": -3.2419150415,
				"z": 1.7471335034,
				"element": "H" 
			},
			{
				"x": 1.6400982812,
				"y": -2.0595039686,
				"z": 0.5674755995,
				"element": "H" 
			},
			{
				"x": 2.3229285935,
				"y": -2.7956880279,
				"z": 2.0195656017,
				"element": "H" 
			},
			{
				"x": 3.0790113441,
				"y": -0.6074178401,
				"z": 2.5145533035,
				"element": "H" 
			},
			{
				"x": 1.9633553921,
				"y": 0.115036099,
				"z": 1.335937834,
				"element": "H" 
			},
			{
				"x": -1.7524120153,
				"y": -1.3594101568,
				"z": 2.1186667286,
				"element": "H" 
			},
			{
				"x": -0.207565969,
				"y": 0.98277172,
				"z": 2.1053692668,
				"element": "H" 
			},
			{
				"x": -0.9013185209,
				"y": 0.2618959187,
				"z": 3.5649245396,
				"element": "H" 
			},
			{
				"x": -2.5440665228,
				"y": 1.7314960421,
				"z": -1.3031308957,
				"element": "H" 
			},
			{
				"x": -1.6942625944,
				"y": -2.3685998941,
				"z": -1.145423815,
				"element": "H" 
			},
			{
				"x": -2.8867359995,
				"y": -3.898554474,
				"z": -2.6615370341,
				"element": "H" 
			},
			{
				"x": -3.7860266602,
				"y": -3.0707250824,
				"z": -4.8258632166,
				"element": "H" 
			},
			{
				"x": -3.4835041492,
				"y": -0.6819931952,
				"z": -5.4505576133,
				"element": "H" 
			},
			{
				"x": -2.3019494703,
				"y": 0.8643466448,
				"z": -3.9132370559,
				"element": "H" 
			},
			{
				"x": 0.4777557859,
				"y": 2.4418686896,
				"z": -1.0128678452,
				"element": "H" 
			},
			{
				"x": 2.9472609939,
				"y": 2.5709913026,
				"z": -1.2488922403,
				"element": "H" 
			},
			{
				"x": 4.210221734,
				"y": 0.6380457195,
				"z": -2.1781811944,
				"element": "H" 
			},
			{
				"x": 2.9827960604,
				"y": -1.4080973916,
				"z": -2.8795732762,
				"element": "H" 
			},
			{
				"x": 0.5281344003,
				"y": -1.5355069384,
				"z": -2.626759703,
				"element": "H" 
			}
		],
		 "valence_orbital": [ 
			{
				"type": "occ",
				"energy": -0.3775,
				"method": "rhf"
			},
			{
				"type": "occ",
				"energy": -0.34254,
				"method": "rhf"
			},
			{
				"type": "occ",
				"energy": -0.33719,
				"method": "rhf"
			},
			{
				"type": "occ",
				"energy": -0.32998,
				"method": "rhf"
			},
			{
				"type": "occ",
				"energy": -0.32643,
				"method": "rhf"
			},
			{
				"type": "unocc",
				"energy": -0.12111,
				"method": "rhf"
			},
			{
				"type": "unocc",
				"energy": -0.10906,
				"method": "rhf"
			},
			{
				"type": "unocc",
				"energy": -0.09907,
				"method": "rhf"
			},
			{
				"type": "unocc",
				"energy": -0.09116,
				"method": "rhf"
			},
			{
				"type": "unocc",
				"energy": -0.08616,
				"method": "rhf"
			}
		],
		"cosmo_sigma_profile": { 
			"-0.025": 0.0,
			"-0.024": 0.0,
			"-0.023": 0.0,
			"-0.022": 0.0,
			"-0.021": 0.0,
			"-0.02": 0.0,
			"-0.019": 0.0,
			"-0.018": 0.0,
			"-0.017": 0.0,
			"-0.016": 0.0,
			"-0.015": 0.102194294183,
			"-0.014": 0.737676412918,
			"-0.013": 1.77018879218,
			"-0.012": 3.00732414271,
			"-0.011": 5.85076578012,
			"-0.01": 9.00712053748,
			"-0.009": 14.567196606,
			"-0.008": 20.6434122367,
			"-0.007": 21.8454044805,
			"-0.006": 34.6406305655,
			"-0.005": 40.5466927929,
			"-0.004": 36.3524229536,
			"-0.003": 31.1255447802,
			"-0.002": 25.208010985,
			"-0.001": 22.7549399149,
			"0.0": 19.6316924593,
			"0.001": 20.6937404666,
			"0.002": 19.8058832764,
			"0.003": 16.8794125312,
			"0.004": 15.9752859636,
			"0.005": 15.8857963249,
			"0.006": 4.72225837676,
			"0.007": 3.1171633823,
			"0.008": 2.63197955309,
			"0.009": 2.78519979032,
			"0.01": 3.4295388173,
			"0.011": 0.85709926958,
			"0.012": 0.309261463711,
			"0.013": 0.0,
			"0.014": 0.0,
			"0.015": 0.0,
			"0.016": 0.0,
			"0.017": 0.0,
			"0.018": 0.0,
			"0.019": 0.0,
			"0.02": 0.0,
			"0.021": 0.0,
			"0.022": 0.0,
			"0.023": 0.0,
			"0.024": 0.0,
			"0.025": 0.0
		}
	}
}
