{
	 "smiles": "NC1=CN=C(Cl)C=C1", 
	 "Tm": 356.15, 
	 "num_atms": 13, 
	 "gaussian": { 
		 "optdone": 1, 
		 "sigma_profile": "yes", 
		 "theory": "DFT", 
		 "functional": "B3LYP", 
		 "basiset": "6-31G**", 
		 "properties": { 
			 "R2extent": 1659.885, 
			 "electric_dipole_moment_norm": 5.04994229373, 
			 "electric_quadrupole_moment_norm": 7.22314155337, 
			 "total_energy": -763.237663526, 
			 "HOMO_LUMO_gap": 0.18794, 
			 "cosmo_polarized_energy": -12.19, 
			 "cosmo_cavitation_energy": 19.03, 
			 "cosmo_dispersion_energy": -14.6, 
			 "cosmo_repulsion_energy": 1.22, 
			 "cosmo_total_nonelectrostatic_energy": 5.66, 
			 "SMD_solvation_energy": 1.7 
		},
		"coords": [
			{
				"x": -0.1403163976,
				"y": -0.1835999782,
				"z": 1.9005585299,
				"element": "N" 
			},
			{
				"x": 0.0309614943,
				"y": -0.1468972697,
				"z": 0.5210334808,
				"element": "C" 
			},
			{
				"x": 1.1363357517,
				"y": -0.760053957,
				"z": -0.093845049,
				"element": "C" 
			},
			{
				"x": 1.3212331364,
				"y": -0.8018753671,
				"z": -1.415799812,
				"element": "N" 
			},
			{
				"x": 0.4146779852,
				"y": -0.2340524597,
				"z": -2.1873267288,
				"element": "C" 
			},
			{
				"x": 0.6848158582,
				"y": -0.3000978111,
				"z": -3.9320700932,
				"element": "Cl" 
			},
			{
				"x": -0.7276385329,
				"y": 0.4093213029,
				"z": -1.7045565027,
				"element": "C" 
			},
			{
				"x": -0.9164267548,
				"y": 0.4495212725,
				"z": -0.3291821688,
				"element": "C" 
			},
			{
				"x": 0.6992649459,
				"y": -0.3433910144,
				"z": 2.4398880278,
				"element": "H" 
			},
			{
				"x": -0.7125568022,
				"y": 0.5510445075,
				"z": 2.2924833607,
				"element": "H" 
			},
			{
				"x": 1.9022207284,
				"y": -1.2393133081,
				"z": 0.5151047523,
				"element": "H" 
			},
			{
				"x": -1.4396962162,
				"y": 0.861767964,
				"z": -2.3845846182,
				"element": "H" 
			},
			{
				"x": -1.7946751964,
				"y": 0.9361261185,
				"z": 0.0872968212,
				"element": "H" 
			}
		],
		 "valence_orbital": [ 
			{
				"type": "occ",
				"energy": -0.30799,
				"method": "rhf"
			},
			{
				"type": "occ",
				"energy": -0.30411,
				"method": "rhf"
			},
			{
				"type": "occ",
				"energy": -0.28583,
				"method": "rhf"
			},
			{
				"type": "occ",
				"energy": -0.26839,
				"method": "rhf"
			},
			{
				"type": "occ",
				"energy": -0.21805,
				"method": "rhf"
			},
			{
				"type": "unocc",
				"energy": -0.03011,
				"method": "rhf"
			},
			{
				"type": "unocc",
				"energy": -0.00405,
				"method": "rhf"
			},
			{
				"type": "unocc",
				"energy": 0.04079,
				"method": "rhf"
			},
			{
				"type": "unocc",
				"energy": 0.06938,
				"method": "rhf"
			},
			{
				"type": "unocc",
				"energy": 0.10677,
				"method": "rhf"
			}
		],
		"cosmo_sigma_profile": { 
			"-0.025": 0.0,
			"-0.024": 0.0,
			"-0.023": 0.0,
			"-0.022": 0.0,
			"-0.021": 0.0,
			"-0.02": 0.0,
			"-0.019": 0.0,
			"-0.018": 0.0,
			"-0.017": 0.0,
			"-0.016": 0.0,
			"-0.015": 0.0,
			"-0.014": 0.129561940026,
			"-0.013": 2.69186226748,
			"-0.012": 3.22722610692,
			"-0.011": 3.07724095438,
			"-0.01": 3.53275245368,
			"-0.009": 3.23757261165,
			"-0.008": 4.87085805894,
			"-0.007": 7.11969424988,
			"-0.006": 6.41956199384,
			"-0.005": 6.18397491183,
			"-0.004": 4.20866332896,
			"-0.003": 5.0359660909,
			"-0.002": 4.47201762926,
			"-0.001": 6.73461786548,
			"0.0": 7.74730167711,
			"0.001": 13.4073883674,
			"0.002": 17.2776851106,
			"0.003": 12.4130897893,
			"0.004": 8.90014239064,
			"0.005": 11.8546054122,
			"0.006": 5.23315135072,
			"0.007": 3.76542777561,
			"0.008": 2.49341646394,
			"0.009": 1.8597511408,
			"0.01": 2.62396881114,
			"0.011": 1.67343510338,
			"0.012": 1.26145176112,
			"0.013": 1.01205468689,
			"0.014": 1.46938659825,
			"0.015": 0.543317156904,
			"0.016": 0.0103583037587,
			"0.017": 0.0,
			"0.018": 0.0,
			"0.019": 0.0,
			"0.02": 0.0,
			"0.021": 0.0,
			"0.022": 0.0,
			"0.023": 0.0,
			"0.024": 0.0,
			"0.025": 0.0
		}
	}
}
