{
	 "smiles": "ClCC1=NC(=NO1)C1=C(Cl)C=CC=C1", 
	 "Tm": 311.15, 
	 "num_atms": 20, 
	 "gaussian": { 
		 "optdone": 1, 
		 "sigma_profile": "yes", 
		 "theory": "DFT", 
		 "functional": "B3LYP", 
		 "basiset": "6-31G**", 
		 "properties": { 
			 "R2extent": 4832.693, 
			 "electric_dipole_moment_norm": 3.03101145824, 
			 "electric_quadrupole_moment_norm": 14.2135257287, 
			 "total_energy": -1451.64017758, 
			 "HOMO_LUMO_gap": 0.19122, 
			 "cosmo_polarized_energy": -10.43, 
			 "cosmo_cavitation_energy": 29.04, 
			 "cosmo_dispersion_energy": -21.38, 
			 "cosmo_repulsion_energy": 1.7, 
			 "cosmo_total_nonelectrostatic_energy": 9.36, 
			 "SMD_solvation_energy": 2.86 
		},
		"coords": [
			{
				"x": -4.1771759045,
				"y": 3.1420818269,
				"z": -2.1219966684,
				"element": "Cl" 
			},
			{
				"x": -3.1009559447,
				"y": 1.8999445849,
				"z": -2.8937465615,
				"element": "C" 
			},
			{
				"x": -1.9246718995,
				"y": 1.5844959334,
				"z": -2.0417742651,
				"element": "C" 
			},
			{
				"x": -1.7380752681,
				"y": 0.5327463553,
				"z": -1.3034837912,
				"element": "N" 
			},
			{
				"x": -0.4911356188,
				"y": 0.7729281363,
				"z": -0.760311111,
				"element": "C" 
			},
			{
				"x": 0.0527283801,
				"y": 1.9100279104,
				"z": -1.1447957717,
				"element": "N" 
			},
			{
				"x": -0.901055527,
				"y": 2.4545984265,
				"z": -2.0083967548,
				"element": "O" 
			},
			{
				"x": 0.2482958735,
				"y": -0.1537793063,
				"z": 0.1159383657,
				"element": "C" 
			},
			{
				"x": -0.349601068,
				"y": -0.9367455356,
				"z": 1.1199733915,
				"element": "C" 
			},
			{
				"x": -2.0617633333,
				"y": -0.831798932,
				"z": 1.4792421848,
				"element": "Cl" 
			},
			{
				"x": 0.4179918839,
				"y": -1.8007345494,
				"z": 1.9029152545,
				"element": "C" 
			},
			{
				"x": 1.7940510577,
				"y": -1.889065426,
				"z": 1.702933632,
				"element": "C" 
			},
			{
				"x": 2.4095888304,
				"y": -1.1081457125,
				"z": 0.7236651178,
				"element": "C" 
			},
			{
				"x": 1.6404452849,
				"y": -0.2535827546,
				"z": -0.0585319828,
				"element": "C" 
			},
			{
				"x": -3.6915487944,
				"y": 0.9965730693,
				"z": -3.0326932456,
				"element": "H" 
			},
			{
				"x": -2.7900757918,
				"y": 2.3087374991,
				"z": -3.8552153173,
				"element": "H" 
			},
			{
				"x": -0.0704683572,
				"y": -2.390571384,
				"z": 2.6703451441,
				"element": "H" 
			},
			{
				"x": 2.3809050937,
				"y": -2.5659451487,
				"z": 2.3164580805,
				"element": "H" 
			},
			{
				"x": 3.4814094902,
				"y": -1.1690087523,
				"z": 0.5645538751,
				"element": "H" 
			},
			{
				"x": 2.103311613,
				"y": 0.3520437593,
				"z": -0.8300795767,
				"element": "H" 
			}
		],
		 "valence_orbital": [ 
			{
				"type": "occ",
				"energy": -0.31246,
				"method": "rhf"
			},
			{
				"type": "occ",
				"energy": -0.3072,
				"method": "rhf"
			},
			{
				"type": "occ",
				"energy": -0.29944,
				"method": "rhf"
			},
			{
				"type": "occ",
				"energy": -0.26599,
				"method": "rhf"
			},
			{
				"type": "occ",
				"energy": -0.25357,
				"method": "rhf"
			},
			{
				"type": "unocc",
				"energy": -0.06235,
				"method": "rhf"
			},
			{
				"type": "unocc",
				"energy": -0.03916,
				"method": "rhf"
			},
			{
				"type": "unocc",
				"energy": -0.02261,
				"method": "rhf"
			},
			{
				"type": "unocc",
				"energy": 0.02447,
				"method": "rhf"
			},
			{
				"type": "unocc",
				"energy": 0.02967,
				"method": "rhf"
			}
		],
		"cosmo_sigma_profile": { 
			"-0.025": 0.0,
			"-0.024": 0.0,
			"-0.023": 0.0,
			"-0.022": 0.0,
			"-0.021": 0.0,
			"-0.02": 0.0,
			"-0.019": 0.0,
			"-0.018": 0.0,
			"-0.017": 0.0,
			"-0.016": 0.0,
			"-0.015": 0.0,
			"-0.014": 0.0,
			"-0.013": 0.0,
			"-0.012": 0.0,
			"-0.011": 0.380009254917,
			"-0.01": 4.30585810347,
			"-0.009": 4.45330529673,
			"-0.008": 4.86821029222,
			"-0.007": 11.7773446382,
			"-0.006": 12.6997220601,
			"-0.005": 12.3659168601,
			"-0.004": 8.98439562458,
			"-0.003": 11.5963292741,
			"-0.002": 13.0687094899,
			"-0.001": 13.0433304278,
			"0.0": 18.2649972062,
			"0.001": 22.5156835129,
			"0.002": 24.8606147163,
			"0.003": 20.7083635938,
			"0.004": 18.1179255223,
			"0.005": 16.8291183474,
			"0.006": 5.85091026145,
			"0.007": 2.70971914765,
			"0.008": 3.00386430437,
			"0.009": 2.3820349672,
			"0.01": 1.6181935635,
			"0.011": 2.4535240144,
			"0.012": 1.39330874555,
			"0.013": 0.413316318858,
			"0.014": 0.0,
			"0.015": 0.0,
			"0.016": 0.0,
			"0.017": 0.0,
			"0.018": 0.0,
			"0.019": 0.0,
			"0.02": 0.0,
			"0.021": 0.0,
			"0.022": 0.0,
			"0.023": 0.0,
			"0.024": 0.0,
			"0.025": 0.0
		}
	}
}
