{
	 "smiles": "COC(=O)C1=C(C)NC(C)=C(C1C1=C(C=CC=C1)C(F)(F)F)[N+]([O-])=O", 
	 "Tm": 442.15, 
	 "num_atms": 40, 
	 "gaussian": { 
		 "optdone": 1, 
		 "sigma_profile": "yes", 
		 "theory": "DFT", 
		 "functional": "B3LYP", 
		 "basiset": "6-31G**", 
		 "properties": { 
			 "R2extent": 7412.1666, 
			 "electric_dipole_moment_norm": 2.91151705302, 
			 "electric_quadrupole_moment_norm": 36.2592741753, 
			 "total_energy": -1328.56650132, 
			 "HOMO_LUMO_gap": 0.14203, 
			 "cosmo_polarized_energy": -19.9, 
			 "cosmo_cavitation_energy": 42.77, 
			 "cosmo_dispersion_energy": -28.8, 
			 "cosmo_repulsion_energy": 2.12, 
			 "cosmo_total_nonelectrostatic_energy": 16.09, 
			 "SMD_solvation_energy": 11.37 
		},
		"coords": [
			{
				"x": 3.2512139902,
				"y": 2.7164414092,
				"z": 0.7215955559,
				"element": "C" 
			},
			{
				"x": 2.4991545245,
				"y": 1.5321749638,
				"z": 1.0173584994,
				"element": "O" 
			},
			{
				"x": 1.2562991811,
				"y": 1.7449796366,
				"z": 1.5203892895,
				"element": "C" 
			},
			{
				"x": 0.8248390192,
				"y": 2.8685676369,
				"z": 1.7258753121,
				"element": "O" 
			},
			{
				"x": 0.5570367249,
				"y": 0.4730421428,
				"z": 1.7809797534,
				"element": "C" 
			},
			{
				"x": -0.6170439605,
				"y": 0.486034622,
				"z": 2.4664802497,
				"element": "C" 
			},
			{
				"x": -1.3764537745,
				"y": 1.7037571253,
				"z": 2.9198350731,
				"element": "C" 
			},
			{
				"x": -1.2183118414,
				"y": -0.7157263256,
				"z": 2.8077217434,
				"element": "N" 
			},
			{
				"x": -0.6712972396,
				"y": -1.9578448207,
				"z": 2.5985359633,
				"element": "C" 
			},
			{
				"x": -1.4505809373,
				"y": -3.0904658838,
				"z": 3.2109407378,
				"element": "C" 
			},
			{
				"x": 0.502674221,
				"y": -2.0274185104,
				"z": 1.9048840422,
				"element": "C" 
			},
			{
				"x": 1.194752881,
				"y": -0.8220477349,
				"z": 1.2828194717,
				"element": "C" 
			},
			{
				"x": 1.3502803396,
				"y": -0.9195125743,
				"z": -0.2610775451,
				"element": "C" 
			},
			{
				"x": 0.3549696078,
				"y": -0.7127111512,
				"z": -1.2470465707,
				"element": "C" 
			},
			{
				"x": 0.6736335972,
				"y": -0.8383701066,
				"z": -2.6075876865,
				"element": "C" 
			},
			{
				"x": 1.9580111888,
				"y": -1.1709828479,
				"z": -3.0236964958,
				"element": "C" 
			},
			{
				"x": 2.9476015633,
				"y": -1.3749286032,
				"z": -2.0662017624,
				"element": "C" 
			},
			{
				"x": 2.6372985985,
				"y": -1.2461362941,
				"z": -0.715679353,
				"element": "C" 
			},
			{
				"x": -1.065362299,
				"y": -0.2929464499,
				"z": -0.9474767756,
				"element": "C" 
			},
			{
				"x": -1.6385094057,
				"y": -1.0299203871,
				"z": 0.0339074604,
				"element": "F" 
			},
			{
				"x": -1.8728170623,
				"y": -0.4171558931,
				"z": -2.025505504,
				"element": "F" 
			},
			{
				"x": -1.1487898602,
				"y": 1.0063236755,
				"z": -0.5646848701,
				"element": "F" 
			},
			{
				"x": 1.2149668214,
				"y": -3.2739478935,
				"z": 1.8274899171,
				"element": "N" 
			},
			{
				"x": 0.6324882844,
				"y": -4.335240655,
				"z": 2.0991779889,
				"element": "O" 
			},
			{
				"x": 2.4072490338,
				"y": -3.2249862443,
				"z": 1.4938829097,
				"element": "O" 
			},
			{
				"x": 3.4300309964,
				"y": 3.2983873779,
				"z": 1.6296363439,
				"element": "H" 
			},
			{
				"x": 2.7168727095,
				"y": 3.343518495,
				"z": 0.0036521283,
				"element": "H" 
			},
			{
				"x": 4.1935151009,
				"y": 2.3674425154,
				"z": 0.2991499027,
				"element": "H" 
			},
			{
				"x": -0.7340360398,
				"y": 2.3900719937,
				"z": 3.4720308523,
				"element": "H" 
			},
			{
				"x": -2.2267115063,
				"y": 1.419771072,
				"z": 3.5487859478,
				"element": "H" 
			},
			{
				"x": -1.7445258802,
				"y": 2.2587534885,
				"z": 2.053091939,
				"element": "H" 
			},
			{
				"x": -2.1110252807,
				"y": -0.6734233834,
				"z": 3.2741686135,
				"element": "H" 
			},
			{
				"x": -2.3006292965,
				"y": -2.7000095714,
				"z": 3.7798552883,
				"element": "H" 
			},
			{
				"x": -0.822393938,
				"y": -3.688782139,
				"z": 3.8728506274,
				"element": "H" 
			},
			{
				"x": -1.8149879406,
				"y": -3.771048273,
				"z": 2.4391744766,
				"element": "H" 
			},
			{
				"x": 2.2271058532,
				"y": -0.8343213675,
				"z": 1.6431814898,
				"element": "H" 
			},
			{
				"x": -0.1031657193,
				"y": -0.6740008418,
				"z": -3.3438299659,
				"element": "H" 
			},
			{
				"x": 2.1777722397,
				"y": -1.2668632042,
				"z": -4.0825378319,
				"element": "H" 
			},
			{
				"x": 3.959419342,
				"y": -1.6343166393,
				"z": -2.3638263758,
				"element": "H" 
			},
			{
				"x": 3.4115561638,
				"y": -1.4137583594,
				"z": 0.0233991597,
				"element": "H" 
			}
		],
		 "valence_orbital": [ 
			{
				"type": "occ",
				"energy": -0.27178,
				"method": "rhf"
			},
			{
				"type": "occ",
				"energy": -0.2627,
				"method": "rhf"
			},
			{
				"type": "occ",
				"energy": -0.26017,
				"method": "rhf"
			},
			{
				"type": "occ",
				"energy": -0.25052,
				"method": "rhf"
			},
			{
				"type": "occ",
				"energy": -0.21807,
				"method": "rhf"
			},
			{
				"type": "unocc",
				"energy": -0.07604,
				"method": "rhf"
			},
			{
				"type": "unocc",
				"energy": -0.02917,
				"method": "rhf"
			},
			{
				"type": "unocc",
				"energy": -0.02147,
				"method": "rhf"
			},
			{
				"type": "unocc",
				"energy": -0.00432,
				"method": "rhf"
			},
			{
				"type": "unocc",
				"energy": 0.03892,
				"method": "rhf"
			}
		],
		"cosmo_sigma_profile": { 
			"-0.025": 0.0,
			"-0.024": 0.0,
			"-0.023": 0.0,
			"-0.022": 0.0,
			"-0.021": 0.0,
			"-0.02": 0.0,
			"-0.019": 0.0,
			"-0.018": 0.0,
			"-0.017": 0.307168326265,
			"-0.016": 1.34376009915,
			"-0.015": 1.42399580117,
			"-0.014": 1.40801669499,
			"-0.013": 1.30634464409,
			"-0.012": 1.5748771742,
			"-0.011": 1.35047393296,
			"-0.01": 1.33678440429,
			"-0.009": 1.84606718743,
			"-0.008": 1.29998855915,
			"-0.007": 4.14714309554,
			"-0.006": 13.3973131234,
			"-0.005": 21.4100184159,
			"-0.004": 26.5179330418,
			"-0.003": 31.5184959879,
			"-0.002": 31.7341096085,
			"-0.001": 27.7756814754,
			"0.0": 23.1846528045,
			"0.001": 23.578113761,
			"0.002": 24.1768614892,
			"0.003": 30.5128202012,
			"0.004": 16.7006593482,
			"0.005": 9.46588917555,
			"0.006": 6.06525958999,
			"0.007": 4.83835714938,
			"0.008": 5.43986986111,
			"0.009": 6.50188498733,
			"0.01": 6.48259696053,
			"0.011": 5.69047200172,
			"0.012": 5.73151012769,
			"0.013": 1.71095290828,
			"0.014": 0.0,
			"0.015": 0.0,
			"0.016": 0.0,
			"0.017": 0.0,
			"0.018": 0.0,
			"0.019": 0.0,
			"0.02": 0.0,
			"0.021": 0.0,
			"0.022": 0.0,
			"0.023": 0.0,
			"0.024": 0.0,
			"0.025": 0.0
		}
	}
}
