{
	 "smiles": "NC(=NO)C1=CC=C(C=C1)[N+]([O-])=O", 
	 "Tm": 461.15, 
	 "num_atms": 20, 
	 "gaussian": { 
		 "optdone": 1, 
		 "sigma_profile": "yes", 
		 "theory": "DFT", 
		 "functional": "B3LYP", 
		 "basiset": "6-31G**", 
		 "properties": { 
			 "R2extent": 2953.9778, 
			 "electric_dipole_moment_norm": 5.05022671768, 
			 "electric_quadrupole_moment_norm": 10.8421905194, 
			 "total_energy": -660.731915455, 
			 "HOMO_LUMO_gap": 0.13304, 
			 "cosmo_polarized_energy": -14.36, 
			 "cosmo_cavitation_energy": 25.57, 
			 "cosmo_dispersion_energy": -18.92, 
			 "cosmo_repulsion_energy": 1.52, 
			 "cosmo_total_nonelectrostatic_energy": 8.17, 
			 "SMD_solvation_energy": 6.85 
		},
		"coords": [
			{
				"x": -1.218613298,
				"y": -0.1647679019,
				"z": -3.2974894998,
				"element": "N" 
			},
			{
				"x": -1.7564352984,
				"y": -0.2336411148,
				"z": -2.0063310984,
				"element": "C" 
			},
			{
				"x": -3.0446364661,
				"y": -0.188199791,
				"z": -1.9290414548,
				"element": "N" 
			},
			{
				"x": -3.5227478934,
				"y": -0.0620822664,
				"z": -0.6084195428,
				"element": "O" 
			},
			{
				"x": -0.7629182683,
				"y": -0.282832871,
				"z": -0.9014766568,
				"element": "C" 
			},
			{
				"x": 0.4878051752,
				"y": 0.3355559344,
				"z": -1.0814223523,
				"element": "C" 
			},
			{
				"x": 1.4602881903,
				"y": 0.280735413,
				"z": -0.0884206016,
				"element": "C" 
			},
			{
				"x": 1.1747970182,
				"y": -0.4099614335,
				"z": 1.0868186828,
				"element": "C" 
			},
			{
				"x": -0.0524255504,
				"y": -1.0375848635,
				"z": 1.2943987985,
				"element": "C" 
			},
			{
				"x": -1.0209329382,
				"y": -0.968636791,
				"z": 0.2993457967,
				"element": "C" 
			},
			{
				"x": 2.2000562439,
				"y": -0.4794217969,
				"z": 2.1403843297,
				"element": "N" 
			},
			{
				"x": 1.9188765547,
				"y": -1.0903384803,
				"z": 3.1709650959,
				"element": "O" 
			},
			{
				"x": 3.2769662225,
				"y": 0.0765698644,
				"z": 1.9259029701,
				"element": "O" 
			},
			{
				"x": -0.5024215022,
				"y": -0.8576321258,
				"z": -3.4846375439,
				"element": "H" 
			},
			{
				"x": -1.9452178508,
				"y": -0.1727911323,
				"z": -4.0047993274,
				"element": "H" 
			},
			{
				"x": -4.4755683089,
				"y": -0.0010084274,
				"z": -0.7536227389,
				"element": "H" 
			},
			{
				"x": 0.6830347817,
				"y": 0.8735149404,
				"z": -2.002275006,
				"element": "H" 
			},
			{
				"x": 2.4242707901,
				"y": 0.7593955923,
				"z": -0.2061255258,
				"element": "H" 
			},
			{
				"x": -0.2292300537,
				"y": -1.5663087268,
				"z": 2.2224839119,
				"element": "H" 
			},
			{
				"x": -1.9827475479,
				"y": -1.4401640218,
				"z": 0.448461763,
				"element": "H" 
			}
		],
		 "valence_orbital": [ 
			{
				"type": "occ",
				"energy": -0.29065,
				"method": "rhf"
			},
			{
				"type": "occ",
				"energy": -0.28455,
				"method": "rhf"
			},
			{
				"type": "occ",
				"energy": -0.28308,
				"method": "rhf"
			},
			{
				"type": "occ",
				"energy": -0.27709,
				"method": "rhf"
			},
			{
				"type": "occ",
				"energy": -0.22713,
				"method": "rhf"
			},
			{
				"type": "unocc",
				"energy": -0.09409,
				"method": "rhf"
			},
			{
				"type": "unocc",
				"energy": -0.0276,
				"method": "rhf"
			},
			{
				"type": "unocc",
				"energy": -0.02438,
				"method": "rhf"
			},
			{
				"type": "unocc",
				"energy": 0.04502,
				"method": "rhf"
			},
			{
				"type": "unocc",
				"energy": 0.06486,
				"method": "rhf"
			}
		],
		"cosmo_sigma_profile": { 
			"-0.025": 0.0,
			"-0.024": 0.0,
			"-0.023": 0.0,
			"-0.022": 0.0,
			"-0.021": 0.0,
			"-0.02": 0.0,
			"-0.019": 0.0,
			"-0.018": 0.0372787638994,
			"-0.017": 0.604603459098,
			"-0.016": 1.37250843266,
			"-0.015": 0.303012326678,
			"-0.014": 0.727210570695,
			"-0.013": 2.44323969891,
			"-0.012": 3.06111331799,
			"-0.011": 3.22197717502,
			"-0.01": 3.09610311386,
			"-0.009": 2.43183496751,
			"-0.008": 4.1868678458,
			"-0.007": 7.33655022899,
			"-0.006": 10.0729538203,
			"-0.005": 10.7548732943,
			"-0.004": 8.80715920341,
			"-0.003": 8.3018462109,
			"-0.002": 13.0552991751,
			"-0.001": 14.6622079351,
			"0.0": 14.5813021676,
			"0.001": 16.9396961644,
			"0.002": 9.18896978647,
			"0.003": 7.19421519636,
			"0.004": 7.2530062746,
			"0.005": 7.01246238534,
			"0.006": 8.63647590684,
			"0.007": 12.6097828063,
			"0.008": 10.0969243623,
			"0.009": 7.37267932835,
			"0.01": 4.64417275144,
			"0.011": 2.19421535322,
			"0.012": 1.48416744215,
			"0.013": 0.300911043186,
			"0.014": 0.166390290248,
			"0.015": 0.0,
			"0.016": 0.0,
			"0.017": 0.0,
			"0.018": 0.0,
			"0.019": 0.0,
			"0.02": 0.0,
			"0.021": 0.0,
			"0.022": 0.0,
			"0.023": 0.0,
			"0.024": 0.0,
			"0.025": 0.0
		}
	}
}
