{
	 "smiles": "NC1=NC=C(CC2=C(Cl)C=C(Cl)C=C2)S1", 
	 "Tm": 383.15, 
	 "num_atms": 23, 
	 "gaussian": { 
		 "optdone": 1, 
		 "sigma_profile": "yes", 
		 "theory": "DFT", 
		 "functional": "B3LYP", 
		 "basiset": "6-31G**", 
		 "properties": { 
			 "R2extent": 6351.8698, 
			 "electric_dipole_moment_norm": 2.21839470113, 
			 "electric_quadrupole_moment_norm": 9.95746782972, 
			 "total_energy": -1813.95743918, 
			 "HOMO_LUMO_gap": 0.17928, 
			 "cosmo_polarized_energy": -12.43, 
			 "cosmo_cavitation_energy": 32.93, 
			 "cosmo_dispersion_energy": -24.1, 
			 "cosmo_repulsion_energy": 1.86, 
			 "cosmo_total_nonelectrostatic_energy": 10.69, 
			 "SMD_solvation_energy": 2.79 
		},
		"coords": [
			{
				"x": 3.4394516127,
				"y": 1.5629338135,
				"z": -2.2777659375,
				"element": "N" 
			},
			{
				"x": 2.2154115316,
				"y": 1.2916062871,
				"z": -1.7044062056,
				"element": "C" 
			},
			{
				"x": 2.0580438751,
				"y": 0.8648547051,
				"z": -0.4868400677,
				"element": "N" 
			},
			{
				"x": 0.7152681983,
				"y": 0.7670338377,
				"z": -0.1774885991,
				"element": "C" 
			},
			{
				"x": -0.1810158609,
				"y": 1.1023369337,
				"z": -1.1460284675,
				"element": "C" 
			},
			{
				"x": -1.6895662361,
				"y": 1.1027948105,
				"z": -1.1292850897,
				"element": "C" 
			},
			{
				"x": -2.2687474119,
				"y": 0.4816660732,
				"z": 0.1238115637,
				"element": "C" 
			},
			{
				"x": -2.511244281,
				"y": -0.8941538391,
				"z": 0.2549363281,
				"element": "C" 
			},
			{
				"x": -2.1514464929,
				"y": -1.9938048995,
				"z": -1.0694993379,
				"element": "Cl" 
			},
			{
				"x": -3.046964299,
				"y": -1.4475093811,
				"z": 1.4185116289,
				"element": "C" 
			},
			{
				"x": -3.3422782558,
				"y": -0.6040193245,
				"z": 2.486628952,
				"element": "C" 
			},
			{
				"x": -4.0165112979,
				"y": -1.2886722938,
				"z": 3.9552236698,
				"element": "Cl" 
			},
			{
				"x": -3.1135392339,
				"y": 0.768139846,
				"z": 2.4045589826,
				"element": "C" 
			},
			{
				"x": -2.5822982621,
				"y": 1.2883656558,
				"z": 1.2266831763,
				"element": "C" 
			},
			{
				"x": 0.7098965079,
				"y": 1.6135206678,
				"z": -2.5816604171,
				"element": "S" 
			},
			{
				"x": 3.5168602035,
				"y": 1.4073386886,
				"z": -3.2731491046,
				"element": "H" 
			},
			{
				"x": 4.2069918682,
				"y": 1.1709347135,
				"z": -1.7466870647,
				"element": "H" 
			},
			{
				"x": 0.4349069886,
				"y": 0.4162066652,
				"z": 0.8086160936,
				"element": "H" 
			},
			{
				"x": -2.0682930077,
				"y": 0.5715895047,
				"z": -2.0096394857,
				"element": "H" 
			},
			{
				"x": -2.0606447557,
				"y": 2.1330599064,
				"z": -1.2086689337,
				"element": "H" 
			},
			{
				"x": -3.2282493117,
				"y": -2.5129596155,
				"z": 1.4859598121,
				"element": "H" 
			},
			{
				"x": -3.3488526723,
				"y": 1.4138850058,
				"z": 3.2426691096,
				"element": "H" 
			},
			{
				"x": -2.403279407,
				"y": 2.357552239,
				"z": 1.154819394,
				"element": "H" 
			}
		],
		 "valence_orbital": [ 
			{
				"type": "occ",
				"energy": -0.27174,
				"method": "rhf"
			},
			{
				"type": "occ",
				"energy": -0.27081,
				"method": "rhf"
			},
			{
				"type": "occ",
				"energy": -0.26479,
				"method": "rhf"
			},
			{
				"type": "occ",
				"energy": -0.25058,
				"method": "rhf"
			},
			{
				"type": "occ",
				"energy": -0.20783,
				"method": "rhf"
			},
			{
				"type": "unocc",
				"energy": -0.02855,
				"method": "rhf"
			},
			{
				"type": "unocc",
				"energy": -0.02727,
				"method": "rhf"
			},
			{
				"type": "unocc",
				"energy": -0.00376,
				"method": "rhf"
			},
			{
				"type": "unocc",
				"energy": 0.00513,
				"method": "rhf"
			},
			{
				"type": "unocc",
				"energy": 0.01103,
				"method": "rhf"
			}
		],
		"cosmo_sigma_profile": { 
			"-0.025": 0.0,
			"-0.024": 0.0,
			"-0.023": 0.0,
			"-0.022": 0.0,
			"-0.021": 0.0,
			"-0.02": 0.0,
			"-0.019": 0.0,
			"-0.018": 0.0,
			"-0.017": 0.0,
			"-0.016": 0.0,
			"-0.015": 0.267151824866,
			"-0.014": 1.57857854265,
			"-0.013": 2.83611434458,
			"-0.012": 2.13077415019,
			"-0.011": 2.94274270298,
			"-0.01": 2.69698528158,
			"-0.009": 1.95038315037,
			"-0.008": 4.03995660203,
			"-0.007": 8.4229576014,
			"-0.006": 10.6701568151,
			"-0.005": 13.0611411759,
			"-0.004": 12.1304709992,
			"-0.003": 12.9624939278,
			"-0.002": 15.7501762065,
			"-0.001": 16.1794453777,
			"0.0": 20.4667700838,
			"0.001": 29.0533239964,
			"0.002": 29.6044597717,
			"0.003": 23.8423905175,
			"0.004": 27.888752119,
			"0.005": 13.5497956838,
			"0.006": 2.84578296165,
			"0.007": 2.14103780068,
			"0.008": 2.64292185644,
			"0.009": 1.7744184954,
			"0.01": 1.64637710317,
			"0.011": 2.29073295946,
			"0.012": 1.49205326747,
			"0.013": 0.875821458859,
			"0.014": 0.90630603082,
			"0.015": 1.08935136417,
			"0.016": 0.487833789381,
			"0.017": 0.00180184256006,
			"0.018": 0.0,
			"0.019": 0.0,
			"0.02": 0.0,
			"0.021": 0.0,
			"0.022": 0.0,
			"0.023": 0.0,
			"0.024": 0.0,
			"0.025": 0.0
		}
	}
}
