{
	 "smiles": "NNC1=NC=C(C=C1)[NH+](O)[O-]", 
	 "Tm": 479.15, 
	 "num_atms": 19, 
	 "gaussian": { 
		 "optdone": 1, 
		 "sigma_profile": "yes", 
		 "theory": "DFT", 
		 "functional": "B3LYP", 
		 "basiset": "6-31G**", 
		 "properties": { 
			 "R2extent": 2175.5503, 
			 "electric_dipole_moment_norm": 3.39081229501, 
			 "electric_quadrupole_moment_norm": 7.01066401349, 
			 "total_energy": -564.635837674, 
			 "HOMO_LUMO_gap": 0.19079, 
			 "cosmo_polarized_energy": -18.93, 
			 "cosmo_cavitation_energy": 23.62, 
			 "cosmo_dispersion_energy": -17.56, 
			 "cosmo_repulsion_energy": 1.43, 
			 "cosmo_total_nonelectrostatic_energy": 7.49, 
			 "SMD_solvation_energy": 5.52 
		},
		"coords": [
			{
				"x": 1.5751453853,
				"y": -2.8142337188,
				"z": 2.6766319638,
				"element": "N" 
			},
			{
				"x": 1.9039831646,
				"y": -1.5698868384,
				"z": 2.1025860625,
				"element": "N" 
			},
			{
				"x": 1.0984933693,
				"y": -0.9645429563,
				"z": 1.1644645886,
				"element": "C" 
			},
			{
				"x": 0.1076109126,
				"y": -1.7031929914,
				"z": 0.6431987964,
				"element": "N" 
			},
			{
				"x": -0.6691367035,
				"y": -1.1424490636,
				"z": -0.2940212263,
				"element": "C" 
			},
			{
				"x": -0.4859114326,
				"y": 0.1560483238,
				"z": -0.7375666158,
				"element": "C" 
			},
			{
				"x": 0.5410588862,
				"y": 0.937551569,
				"z": -0.195742692,
				"element": "C" 
			},
			{
				"x": 1.3462921996,
				"y": 0.3764565092,
				"z": 0.7741115426,
				"element": "C" 
			},
			{
				"x": -1.4101100605,
				"y": 0.7018828332,
				"z": -1.7540163539,
				"element": "N" 
			},
			{
				"x": -0.4786916327,
				"y": 1.4009705297,
				"z": -2.8192549031,
				"element": "O" 
			},
			{
				"x": -2.2339185189,
				"y": -0.1256517649,
				"z": -2.2705309159,
				"element": "O" 
			},
			{
				"x": 1.825192112,
				"y": -3.5353068334,
				"z": 2.0012622829,
				"element": "H" 
			},
			{
				"x": 0.558172852,
				"y": -2.8652952549,
				"z": 2.7541873534,
				"element": "H" 
			},
			{
				"x": 2.4360974271,
				"y": -0.9726550833,
				"z": 2.7180665745,
				"element": "H" 
			},
			{
				"x": -1.4736225173,
				"y": -1.7372221351,
				"z": -0.7142149769,
				"element": "H" 
			},
			{
				"x": 0.7106021958,
				"y": 1.9484691173,
				"z": -0.5513750812,
				"element": "H" 
			},
			{
				"x": 2.1637224938,
				"y": 0.9372211432,
				"z": 1.2171783791,
				"element": "H" 
			},
			{
				"x": -1.8371297699,
				"y": 1.5799604734,
				"z": -1.4098942501,
				"element": "H" 
			},
			{
				"x": -0.5370503628,
				"y": 0.7056761413,
				"z": -3.4978705286,
				"element": "H" 
			}
		],
		 "valence_orbital": [ 
			{
				"type": "occ",
				"energy": -0.2827,
				"method": "rhf"
			},
			{
				"type": "occ",
				"energy": -0.26986,
				"method": "rhf"
			},
			{
				"type": "occ",
				"energy": -0.25218,
				"method": "rhf"
			},
			{
				"type": "occ",
				"energy": -0.24006,
				"method": "rhf"
			},
			{
				"type": "occ",
				"energy": -0.22444,
				"method": "rhf"
			},
			{
				"type": "unocc",
				"energy": -0.03365,
				"method": "rhf"
			},
			{
				"type": "unocc",
				"energy": -0.02273,
				"method": "rhf"
			},
			{
				"type": "unocc",
				"energy": 0.03197,
				"method": "rhf"
			},
			{
				"type": "unocc",
				"energy": 0.06908,
				"method": "rhf"
			},
			{
				"type": "unocc",
				"energy": 0.08105,
				"method": "rhf"
			}
		],
		"cosmo_sigma_profile": { 
			"-0.025": 0.0,
			"-0.024": 0.0,
			"-0.023": 0.0,
			"-0.022": 0.0,
			"-0.021": 0.0,
			"-0.02": 0.0,
			"-0.019": 0.0,
			"-0.018": 0.0,
			"-0.017": 0.873831767832,
			"-0.016": 1.52347556168,
			"-0.015": 1.68829721414,
			"-0.014": 2.32496610857,
			"-0.013": 2.76932786683,
			"-0.012": 3.31680674307,
			"-0.011": 4.26204073132,
			"-0.01": 4.34292461,
			"-0.009": 4.70429268717,
			"-0.008": 7.15686227354,
			"-0.007": 8.06943166107,
			"-0.006": 6.37298215095,
			"-0.005": 7.14945941959,
			"-0.004": 7.83613518281,
			"-0.003": 6.98861960411,
			"-0.002": 7.45297988697,
			"-0.001": 7.53794251677,
			"0.0": 10.0857271233,
			"0.001": 12.874217697,
			"0.002": 13.8953098903,
			"0.003": 9.09867978952,
			"0.004": 6.62010138586,
			"0.005": 5.59098986722,
			"0.006": 4.94827639957,
			"0.007": 5.97156245805,
			"0.008": 5.27077462682,
			"0.009": 3.00077710577,
			"0.01": 3.78697041675,
			"0.011": 4.50449350458,
			"0.012": 5.47321347304,
			"0.013": 5.19955146101,
			"0.014": 3.2883507516,
			"0.015": 1.45764320144,
			"0.016": 0.441800135424,
			"0.017": 0.421319665297,
			"0.018": 0.0,
			"0.019": 0.0,
			"0.02": 0.0,
			"0.021": 0.0,
			"0.022": 0.0,
			"0.023": 0.0,
			"0.024": 0.0,
			"0.025": 0.0
		}
	}
}
