{
	 "smiles": "CCCCCCCCCCCCCCCO", 
	 "Tm": 318.95, 
	 "num_atms": 48, 
	 "gaussian": { 
		 "optdone": 1, 
		 "sigma_profile": "yes", 
		 "theory": "DFT", 
		 "functional": "B3LYP", 
		 "basiset": "6-31G**", 
		 "properties": { 
			 "R2extent": 8427.2039, 
			 "electric_dipole_moment_norm": 1.83818401962, 
			 "electric_quadrupole_moment_norm": 12.4493701403, 
			 "total_energy": -666.138455339, 
			 "HOMO_LUMO_gap": 0.32142, 
			 "cosmo_polarized_energy": -6.24, 
			 "cosmo_cavitation_energy": 46.45, 
			 "cosmo_dispersion_energy": -31.15, 
			 "cosmo_repulsion_energy": 2.56, 
			 "cosmo_total_nonelectrostatic_energy": 17.85, 
			 "SMD_solvation_energy": 6.01 
		},
		"coords": [
			{
				"x": 3.5453185347,
				"y": -2.7151235551,
				"z": -1.5316171506,
				"element": "C" 
			},
			{
				"x": 3.9301851678,
				"y": -1.8225804087,
				"z": -2.7174083543,
				"element": "C" 
			},
			{
				"x": 2.8892828754,
				"y": -1.7893029049,
				"z": -3.8507560944,
				"element": "C" 
			},
			{
				"x": 1.507397505,
				"y": -1.2219155418,
				"z": -3.4810967228,
				"element": "C" 
			},
			{
				"x": 1.5116274305,
				"y": 0.2539737919,
				"z": -3.0578352208,
				"element": "C" 
			},
			{
				"x": 0.1027174866,
				"y": 0.8044623767,
				"z": -2.7942218684,
				"element": "C" 
			},
			{
				"x": 0.0500977143,
				"y": 2.3038412681,
				"z": -2.4519384171,
				"element": "C" 
			},
			{
				"x": 0.774222077,
				"y": 2.7249314659,
				"z": -1.1587799848,
				"element": "C" 
			},
			{
				"x": 0.2621371698,
				"y": 2.0743338372,
				"z": 0.1387584667,
				"element": "C" 
			},
			{
				"x": -1.1956405807,
				"y": 2.4155028952,
				"z": 0.4842566703,
				"element": "C" 
			},
			{
				"x": -1.662331263,
				"y": 1.9129413873,
				"z": 1.8616315774,
				"element": "C" 
			},
			{
				"x": -1.7410289347,
				"y": 0.384044031,
				"z": 1.9893767606,
				"element": "C" 
			},
			{
				"x": -2.1957800947,
				"y": -0.116534158,
				"z": 3.3732149509,
				"element": "C" 
			},
			{
				"x": -3.6299600759,
				"y": 0.2524693796,
				"z": 3.7939377199,
				"element": "C" 
			},
			{
				"x": -4.7294798753,
				"y": -0.3259045143,
				"z": 2.8965213713,
				"element": "C" 
			},
			{
				"x": -4.7359340916,
				"y": -1.7492410465,
				"z": 2.8611026334,
				"element": "O" 
			},
			{
				"x": 3.3493462714,
				"y": -3.7431833941,
				"z": -1.8584379979,
				"element": "H" 
			},
			{
				"x": 2.6450662252,
				"y": -2.35438159,
				"z": -1.0230032127,
				"element": "H" 
			},
			{
				"x": 4.3483491593,
				"y": -2.7509050881,
				"z": -0.7879652812,
				"element": "H" 
			},
			{
				"x": 4.1248853731,
				"y": -0.8035116087,
				"z": -2.3595404212,
				"element": "H" 
			},
			{
				"x": 4.8810667468,
				"y": -2.1770157155,
				"z": -3.135619775,
				"element": "H" 
			},
			{
				"x": 3.2975921422,
				"y": -1.2035234531,
				"z": -4.6858741494,
				"element": "H" 
			},
			{
				"x": 2.7572678048,
				"y": -2.8106280363,
				"z": -4.2340307704,
				"element": "H" 
			},
			{
				"x": 1.0564821686,
				"y": -1.8264143525,
				"z": -2.6824092917,
				"element": "H" 
			},
			{
				"x": 0.8442953101,
				"y": -1.3374773151,
				"z": -4.3493608695,
				"element": "H" 
			},
			{
				"x": 1.9928469597,
				"y": 0.8546412034,
				"z": -3.8438876488,
				"element": "H" 
			},
			{
				"x": 2.1303450825,
				"y": 0.3783966779,
				"z": -2.1605396047,
				"element": "H" 
			},
			{
				"x": -0.3692980417,
				"y": 0.2205424463,
				"z": -1.9920455157,
				"element": "H" 
			},
			{
				"x": -0.5147417216,
				"y": 0.633011639,
				"z": -3.6865722894,
				"element": "H" 
			},
			{
				"x": -1.0009515164,
				"y": 2.614383648,
				"z": -2.3966823905,
				"element": "H" 
			},
			{
				"x": 0.483028249,
				"y": 2.8705757956,
				"z": -3.2876585781,
				"element": "H" 
			},
			{
				"x": 1.8465181745,
				"y": 2.5139203708,
				"z": -1.2575356157,
				"element": "H" 
			},
			{
				"x": 0.6940203484,
				"y": 3.8162979094,
				"z": -1.0602227602,
				"element": "H" 
			},
			{
				"x": 0.3890684124,
				"y": 0.986201104,
				"z": 0.078800875,
				"element": "H" 
			},
			{
				"x": 0.9047433103,
				"y": 2.4043029939,
				"z": 0.9669395198,
				"element": "H" 
			},
			{
				"x": -1.8677725614,
				"y": 2.0150069133,
				"z": -0.2867434961,
				"element": "H" 
			},
			{
				"x": -1.3156565561,
				"y": 3.5072564503,
				"z": 0.4506064577,
				"element": "H" 
			},
			{
				"x": -2.6479203585,
				"y": 2.3468517724,
				"z": 2.0717032164,
				"element": "H" 
			},
			{
				"x": -0.9881174328,
				"y": 2.303398414,
				"z": 2.6379312535,
				"element": "H" 
			},
			{
				"x": -0.7557009252,
				"y": -0.0500746166,
				"z": 1.7804014102,
				"element": "H" 
			},
			{
				"x": -2.4086253771,
				"y": -0.005027797,
				"z": 1.2066585555,
				"element": "H" 
			},
			{
				"x": -1.5001509582,
				"y": 0.2642075736,
				"z": 4.132317455,
				"element": "H" 
			},
			{
				"x": -2.0936664517,
				"y": -1.2099611077,
				"z": 3.4091767314,
				"element": "H" 
			},
			{
				"x": -3.7493334771,
				"y": 1.3431910157,
				"z": 3.8277366727,
				"element": "H" 
			},
			{
				"x": -3.7978634396,
				"y": -0.1110937935,
				"z": 4.8149728332,
				"element": "H" 
			},
			{
				"x": -4.6594708577,
				"y": 0.0938021838,
				"z": 1.8802828322,
				"element": "H" 
			},
			{
				"x": -5.7097795591,
				"y": -0.0376215333,
				"z": 3.2901109063,
				"element": "H" 
			},
			{
				"x": -3.9448035492,
				"y": -2.0371670134,
				"z": 2.3893446117,
				"element": "H" 
			}
		],
		 "valence_orbital": [ 
			{
				"type": "occ",
				"energy": -0.30607,
				"method": "rhf"
			},
			{
				"type": "occ",
				"energy": -0.30498,
				"method": "rhf"
			},
			{
				"type": "occ",
				"energy": -0.30128,
				"method": "rhf"
			},
			{
				"type": "occ",
				"energy": -0.29704,
				"method": "rhf"
			},
			{
				"type": "occ",
				"energy": -0.25998,
				"method": "rhf"
			},
			{
				"type": "unocc",
				"energy": 0.06144,
				"method": "rhf"
			},
			{
				"type": "unocc",
				"energy": 0.07183,
				"method": "rhf"
			},
			{
				"type": "unocc",
				"energy": 0.08817,
				"method": "rhf"
			},
			{
				"type": "unocc",
				"energy": 0.09933,
				"method": "rhf"
			},
			{
				"type": "unocc",
				"energy": 0.10412,
				"method": "rhf"
			}
		],
		"cosmo_sigma_profile": { 
			"-0.025": 0.0,
			"-0.024": 0.0,
			"-0.023": 0.0,
			"-0.022": 0.0,
			"-0.021": 0.0,
			"-0.02": 0.0,
			"-0.019": 0.0,
			"-0.018": 0.0,
			"-0.017": 0.0,
			"-0.016": 0.0,
			"-0.015": 0.0,
			"-0.014": 0.450951658253,
			"-0.013": 0.585550163367,
			"-0.012": 0.894222015009,
			"-0.011": 1.04086296664,
			"-0.01": 1.50573883869,
			"-0.009": 1.0958263846,
			"-0.008": 0.799038391337,
			"-0.007": 1.20304824344,
			"-0.006": 1.16010872688,
			"-0.005": 2.09593178597,
			"-0.004": 2.84354650971,
			"-0.003": 10.371472484,
			"-0.002": 45.199565545,
			"-0.001": 79.0265211671,
			"0.0": 85.9799740629,
			"0.001": 73.2749073771,
			"0.002": 27.2994071133,
			"0.003": 2.36674343008,
			"0.004": 1.61390476385,
			"0.005": 1.20861135909,
			"0.006": 1.47995485635,
			"0.007": 1.36792469686,
			"0.008": 0.880025934988,
			"0.009": 1.23387463241,
			"0.01": 0.923170767061,
			"0.011": 1.65889051664,
			"0.012": 1.18828758087,
			"0.013": 1.56003214079,
			"0.014": 1.93462306867,
			"0.015": 2.03372767509,
			"0.016": 0.0236961080679,
			"0.017": 0.0,
			"0.018": 0.0,
			"0.019": 0.0,
			"0.02": 0.0,
			"0.021": 0.0,
			"0.022": 0.0,
			"0.023": 0.0,
			"0.024": 0.0,
			"0.025": 0.0
		}
	}
}
