{
	 "smiles": "CC1=C(SC2=CC=C(C=C2)C(O)=O)C=CC=C1", 
	 "Tm": 452.15, 
	 "num_atms": 29, 
	 "gaussian": { 
		 "optdone": 1, 
		 "sigma_profile": "yes", 
		 "theory": "DFT", 
		 "functional": "B3LYP", 
		 "basiset": "6-31G**", 
		 "properties": { 
			 "R2extent": 6541.132, 
			 "electric_dipole_moment_norm": 4.46276105679, 
			 "electric_quadrupole_moment_norm": 32.5191617829, 
			 "total_energy": -1089.37152478, 
			 "HOMO_LUMO_gap": 0.17655, 
			 "cosmo_polarized_energy": -15.27, 
			 "cosmo_cavitation_energy": 34.72, 
			 "cosmo_dispersion_energy": -25.01, 
			 "cosmo_repulsion_energy": 1.88, 
			 "cosmo_total_nonelectrostatic_energy": 11.59, 
			 "SMD_solvation_energy": 6.65 
		},
		"coords": [
			{
				"x": 0.0357311811,
				"y": 0.287176786,
				"z": -1.8095332633,
				"element": "C" 
			},
			{
				"x": -0.6785046789,
				"y": -0.9811572406,
				"z": -1.4144308928,
				"element": "C" 
			},
			{
				"x": -0.0764164047,
				"y": -1.963560593,
				"z": -0.5966232734,
				"element": "C" 
			},
			{
				"x": 1.6268980813,
				"y": -1.8138665051,
				"z": -0.0466445762,
				"element": "S" 
			},
			{
				"x": 1.5642726603,
				"y": -0.615862148,
				"z": 1.276091936,
				"element": "C" 
			},
			{
				"x": 2.7937295902,
				"y": -0.107827655,
				"z": 1.726027262,
				"element": "C" 
			},
			{
				"x": 2.8330549122,
				"y": 0.7957208972,
				"z": 2.782259796,
				"element": "C" 
			},
			{
				"x": 1.6506473359,
				"y": 1.2242173909,
				"z": 3.4049569215,
				"element": "C" 
			},
			{
				"x": 0.4264152099,
				"y": 0.7336836889,
				"z": 2.931093171,
				"element": "C" 
			},
			{
				"x": 0.3779570321,
				"y": -0.1864482578,
				"z": 1.8897376429,
				"element": "C" 
			},
			{
				"x": 1.6193695801,
				"y": 2.2100841891,
				"z": 4.528901712,
				"element": "C" 
			},
			{
				"x": 2.7770162911,
				"y": 2.3863166874,
				"z": 5.2246709702,
				"element": "O" 
			},
			{
				"x": 0.6329459975,
				"y": 2.838671237,
				"z": 4.8361681435,
				"element": "O" 
			},
			{
				"x": -0.7664191667,
				"y": -3.1352780826,
				"z": -0.2591754546,
				"element": "C" 
			},
			{
				"x": -2.0649674104,
				"y": -3.3504804097,
				"z": -0.7199978626,
				"element": "C" 
			},
			{
				"x": -2.6763657579,
				"y": -2.3845068427,
				"z": -1.5177885571,
				"element": "C" 
			},
			{
				"x": -1.9876311491,
				"y": -1.2185335331,
				"z": -1.8543750886,
				"element": "C" 
			},
			{
				"x": -0.5666875279,
				"y": 0.8680368728,
				"z": -2.5123699403,
				"element": "H" 
			},
			{
				"x": 1.0014182533,
				"y": 0.0699681928,
				"z": -2.2766872688,
				"element": "H" 
			},
			{
				"x": 0.2408850203,
				"y": 0.9188241566,
				"z": -0.9382340392,
				"element": "H" 
			},
			{
				"x": 3.7162635652,
				"y": -0.4116468005,
				"z": 1.240164645,
				"element": "H" 
			},
			{
				"x": 3.7985808795,
				"y": 1.1983178829,
				"z": 3.0802528498,
				"element": "H" 
			},
			{
				"x": -0.4855692465,
				"y": 1.0830405221,
				"z": 3.4036171892,
				"element": "H" 
			},
			{
				"x": -0.5777336458,
				"y": -0.5719201452,
				"z": 1.5521484806,
				"element": "H" 
			},
			{
				"x": 3.4179071247,
				"y": 1.7035520087,
				"z": 4.9837714042,
				"element": "H" 
			},
			{
				"x": -0.2760734848,
				"y": -3.8741508068,
				"z": 0.3664723633,
				"element": "H" 
			},
			{
				"x": -2.5916406087,
				"y": -4.2618815043,
				"z": -0.4538187694,
				"element": "H" 
			},
			{
				"x": -3.6882210766,
				"y": -2.5366699772,
				"z": -1.8822433008,
				"element": "H" 
			},
			{
				"x": -2.4703625565,
				"y": -0.4735200109,
				"z": -2.4813122001,
				"element": "H" 
			}
		],
		 "valence_orbital": [ 
			{
				"type": "occ",
				"energy": -0.27294,
				"method": "rhf"
			},
			{
				"type": "occ",
				"energy": -0.26902,
				"method": "rhf"
			},
			{
				"type": "occ",
				"energy": -0.26493,
				"method": "rhf"
			},
			{
				"type": "occ",
				"energy": -0.2568,
				"method": "rhf"
			},
			{
				"type": "occ",
				"energy": -0.22622,
				"method": "rhf"
			},
			{
				"type": "unocc",
				"energy": -0.04967,
				"method": "rhf"
			},
			{
				"type": "unocc",
				"energy": -0.03143,
				"method": "rhf"
			},
			{
				"type": "unocc",
				"energy": -0.02419,
				"method": "rhf"
			},
			{
				"type": "unocc",
				"energy": -0.01243,
				"method": "rhf"
			},
			{
				"type": "unocc",
				"energy": 0.03593,
				"method": "rhf"
			}
		],
		"cosmo_sigma_profile": { 
			"-0.025": 0.0,
			"-0.024": 0.0,
			"-0.023": 0.0,
			"-0.022": 0.0,
			"-0.021": 0.0,
			"-0.02": 0.0,
			"-0.019": 0.102576947913,
			"-0.018": 0.694731595471,
			"-0.017": 0.880025901858,
			"-0.016": 1.13661031849,
			"-0.015": 1.06568940702,
			"-0.014": 1.38073209531,
			"-0.013": 0.693805496338,
			"-0.012": 1.16577860143,
			"-0.011": 1.11233187729,
			"-0.01": 1.48127361101,
			"-0.009": 0.928431390468,
			"-0.008": 1.99864149257,
			"-0.007": 5.5452310796,
			"-0.006": 12.9809299019,
			"-0.005": 17.5155247645,
			"-0.004": 18.7324930211,
			"-0.003": 17.9012704088,
			"-0.002": 19.2193651041,
			"-0.001": 24.4934873624,
			"0.0": 25.9375790869,
			"0.001": 20.5722431751,
			"0.002": 23.6337800289,
			"0.003": 24.0391814284,
			"0.004": 15.6296384763,
			"0.005": 9.85318350904,
			"0.006": 4.06484584591,
			"0.007": 3.95558811387,
			"0.008": 2.5560469919,
			"0.009": 3.29258346815,
			"0.01": 3.88440870674,
			"0.011": 5.7368807457,
			"0.012": 5.38780235289,
			"0.013": 1.95857075697,
			"0.014": 0.126150993616,
			"0.015": 0.0,
			"0.016": 0.0,
			"0.017": 0.0,
			"0.018": 0.0,
			"0.019": 0.0,
			"0.02": 0.0,
			"0.021": 0.0,
			"0.022": 0.0,
			"0.023": 0.0,
			"0.024": 0.0,
			"0.025": 0.0
		}
	}
}
