{
	 "smiles": "CCOC(=O)C=CC=O", 
	 "Tm": 264.15, 
	 "num_atms": 17, 
	 "gaussian": { 
		 "optdone": 1, 
		 "sigma_profile": "yes", 
		 "theory": "DFT", 
		 "functional": "B3LYP", 
		 "basiset": "6-31G**", 
		 "properties": { 
			 "R2extent": 2172.6192, 
			 "electric_dipole_moment_norm": 4.27966281499, 
			 "electric_quadrupole_moment_norm": 5.42603423413, 
			 "total_energy": -459.111105092, 
			 "HOMO_LUMO_gap": 0.16999, 
			 "cosmo_polarized_energy": -10.33, 
			 "cosmo_cavitation_energy": 22.63, 
			 "cosmo_dispersion_energy": -16.13, 
			 "cosmo_repulsion_energy": 1.37, 
			 "cosmo_total_nonelectrostatic_energy": 7.86, 
			 "SMD_solvation_energy": 6.62 
		},
		"coords": [
			{
				"x": 4.2778811813,
				"y": -0.4400127775,
				"z": 0.3336460841,
				"element": "C" 
			},
			{
				"x": 3.2162751057,
				"y": 0.6424107625,
				"z": 0.3595134109,
				"element": "C" 
			},
			{
				"x": 1.9271223919,
				"y": -0.0119495732,
				"z": 0.4429468979,
				"element": "O" 
			},
			{
				"x": 0.8553329164,
				"y": 0.8057666833,
				"z": 0.4764404338,
				"element": "C" 
			},
			{
				"x": 0.9166493909,
				"y": 2.0183250284,
				"z": 0.4417701505,
				"element": "O" 
			},
			{
				"x": -0.4020208195,
				"y": 0.015753558,
				"z": 0.5621891329,
				"element": "C" 
			},
			{
				"x": -1.6012979122,
				"y": 0.6137587519,
				"z": 0.6085089781,
				"element": "C" 
			},
			{
				"x": -2.8452476987,
				"y": -0.1757999664,
				"z": 0.6934393337,
				"element": "C" 
			},
			{
				"x": -3.9552524746,
				"y": 0.3168025544,
				"z": 0.7378097138,
				"element": "O" 
			},
			{
				"x": 5.2700105711,
				"y": 0.0173076896,
				"z": 0.2705554378,
				"element": "H" 
			},
			{
				"x": 4.2376470286,
				"y": -1.050149161,
				"z": 1.240468223,
				"element": "H" 
			},
			{
				"x": 4.1466352231,
				"y": -1.0970683579,
				"z": -0.5307964068,
				"element": "H" 
			},
			{
				"x": 3.3256655808,
				"y": 1.3097480384,
				"z": 1.2201792438,
				"element": "H" 
			},
			{
				"x": 3.2352496644,
				"y": 1.263171438,
				"z": -0.5417943185,
				"element": "H" 
			},
			{
				"x": -0.3056660937,
				"y": -1.0671105085,
				"z": 0.5855858304,
				"element": "H" 
			},
			{
				"x": -1.6854103331,
				"y": 1.6970189523,
				"z": 0.5844831366,
				"element": "H" 
			},
			{
				"x": -2.7004737223,
				"y": -1.2788731124,
				"z": 0.714854718,
				"element": "H" 
			}
		],
		 "valence_orbital": [ 
			{
				"type": "occ",
				"energy": -0.36349,
				"method": "rhf"
			},
			{
				"type": "occ",
				"energy": -0.3121,
				"method": "rhf"
			},
			{
				"type": "occ",
				"energy": -0.2997,
				"method": "rhf"
			},
			{
				"type": "occ",
				"energy": -0.28759,
				"method": "rhf"
			},
			{
				"type": "occ",
				"energy": -0.26619,
				"method": "rhf"
			},
			{
				"type": "unocc",
				"energy": -0.0962,
				"method": "rhf"
			},
			{
				"type": "unocc",
				"energy": 0.01429,
				"method": "rhf"
			},
			{
				"type": "unocc",
				"energy": 0.08085,
				"method": "rhf"
			},
			{
				"type": "unocc",
				"energy": 0.09304,
				"method": "rhf"
			},
			{
				"type": "unocc",
				"energy": 0.10238,
				"method": "rhf"
			}
		],
		"cosmo_sigma_profile": { 
			"-0.025": 0.0,
			"-0.024": 0.0,
			"-0.023": 0.0,
			"-0.022": 0.0,
			"-0.021": 0.0,
			"-0.02": 0.0,
			"-0.019": 0.0,
			"-0.018": 0.0,
			"-0.017": 0.0,
			"-0.016": 0.0,
			"-0.015": 0.0,
			"-0.014": 0.0,
			"-0.013": 0.0,
			"-0.012": 0.0,
			"-0.011": 0.0,
			"-0.01": 0.140964518836,
			"-0.009": 2.59056095332,
			"-0.008": 3.59615454705,
			"-0.007": 5.1234361362,
			"-0.006": 7.10625931157,
			"-0.005": 12.2870143923,
			"-0.004": 20.3289372818,
			"-0.003": 21.4204170837,
			"-0.002": 17.9438248219,
			"-0.001": 16.4987773972,
			"0.0": 12.5260799608,
			"0.001": 6.48783002156,
			"0.002": 6.48021348105,
			"0.003": 3.9149209797,
			"0.004": 4.48951818019,
			"0.005": 4.03983902873,
			"0.006": 3.83971363462,
			"0.007": 4.52170116178,
			"0.008": 3.77371329569,
			"0.009": 3.77029792216,
			"0.01": 5.77570586552,
			"0.011": 8.71740136421,
			"0.012": 4.03216490203,
			"0.013": 0.100698771083,
			"0.014": 0.0,
			"0.015": 0.0,
			"0.016": 0.0,
			"0.017": 0.0,
			"0.018": 0.0,
			"0.019": 0.0,
			"0.02": 0.0,
			"0.021": 0.0,
			"0.022": 0.0,
			"0.023": 0.0,
			"0.024": 0.0,
			"0.025": 0.0
		}
	}
}
