{
	 "smiles": "CC(=O)C1=CC=C(OCC2=CC=CC=C2)C=C1", 
	 "Tm": 365.15, 
	 "num_atms": 31, 
	 "gaussian": { 
		 "optdone": 1, 
		 "sigma_profile": "yes", 
		 "theory": "DFT", 
		 "functional": "B3LYP", 
		 "basiset": "6-31G**", 
		 "properties": { 
			 "R2extent": 7647.2559, 
			 "electric_dipole_moment_norm": 4.56490851387, 
			 "electric_quadrupole_moment_norm": 14.2843420724, 
			 "total_energy": -730.479576001, 
			 "HOMO_LUMO_gap": 0.18529, 
			 "cosmo_polarized_energy": -12.36, 
			 "cosmo_cavitation_energy": 35.53, 
			 "cosmo_dispersion_energy": -25.6, 
			 "cosmo_repulsion_energy": 1.97, 
			 "cosmo_total_nonelectrostatic_energy": 11.9, 
			 "SMD_solvation_energy": 6.76 
		},
		"coords": [
			{
				"x": -1.3394068152,
				"y": -1.7297938965,
				"z": -4.145081713,
				"element": "C" 
			},
			{
				"x": -2.0611591314,
				"y": -1.9288612137,
				"z": -2.8205031297,
				"element": "C" 
			},
			{
				"x": -3.0701829444,
				"y": -2.6188607712,
				"z": -2.7656875279,
				"element": "O" 
			},
			{
				"x": -1.5176776697,
				"y": -1.2699533714,
				"z": -1.5967619295,
				"element": "C" 
			},
			{
				"x": -2.192846003,
				"y": -1.4620544107,
				"z": -0.3754661862,
				"element": "C" 
			},
			{
				"x": -1.7370448573,
				"y": -0.8762359343,
				"z": 0.7912580229,
				"element": "C" 
			},
			{
				"x": -0.5818745761,
				"y": -0.0730788063,
				"z": 0.771689777,
				"element": "C" 
			},
			{
				"x": -0.2153792269,
				"y": 0.4554148496,
				"z": 1.9693689768,
				"element": "O" 
			},
			{
				"x": 0.9258005389,
				"y": 1.3147451531,
				"z": 2.0239986288,
				"element": "C" 
			},
			{
				"x": 1.0847361984,
				"y": 1.8298254618,
				"z": 3.4336849452,
				"element": "C" 
			},
			{
				"x": -0.0278841591,
				"y": 2.2590237985,
				"z": 4.1683880128,
				"element": "C" 
			},
			{
				"x": 0.1336920698,
				"y": 2.7756193018,
				"z": 5.4532233994,
				"element": "C" 
			},
			{
				"x": 1.4087571264,
				"y": 2.8780273364,
				"z": 6.0154271784,
				"element": "C" 
			},
			{
				"x": 2.5210414407,
				"y": 2.4533547826,
				"z": 5.2882929782,
				"element": "C" 
			},
			{
				"x": 2.3573437133,
				"y": 1.9266371485,
				"z": 4.0055375881,
				"element": "C" 
			},
			{
				"x": 0.1055337145,
				"y": 0.1279240972,
				"z": -0.4332230094,
				"element": "C" 
			},
			{
				"x": -0.3684154944,
				"y": -0.4701889909,
				"z": -1.6016063061,
				"element": "C" 
			},
			{
				"x": -1.8756996157,
				"y": -2.280062522,
				"z": -4.9186421401,
				"element": "H" 
			},
			{
				"x": -1.2983673274,
				"y": -0.6692047838,
				"z": -4.4169444045,
				"element": "H" 
			},
			{
				"x": -0.3073651145,
				"y": -2.0936632988,
				"z": -4.0907907702,
				"element": "H" 
			},
			{
				"x": -3.0821797689,
				"y": -2.0833691208,
				"z": -0.3771351596,
				"element": "H" 
			},
			{
				"x": -2.2497733338,
				"y": -1.0184966468,
				"z": 1.7369593783,
				"element": "H" 
			},
			{
				"x": 0.7818206517,
				"y": 2.1496373389,
				"z": 1.3216741817,
				"element": "H" 
			},
			{
				"x": 1.8262392704,
				"y": 0.7692060223,
				"z": 1.7114550404,
				"element": "H" 
			},
			{
				"x": -1.0185748467,
				"y": 2.1716799096,
				"z": 3.7336671796,
				"element": "H" 
			},
			{
				"x": -0.7365469533,
				"y": 3.0999101085,
				"z": 6.0167801047,
				"element": "H" 
			},
			{
				"x": 1.5328243594,
				"y": 3.2821959174,
				"z": 7.0159446676,
				"element": "H" 
			},
			{
				"x": 3.5150238087,
				"y": 2.5219072921,
				"z": 5.7208957505,
				"element": "H" 
			},
			{
				"x": 3.225957336,
				"y": 1.5855784824,
				"z": 3.4472055719,
				"element": "H" 
			},
			{
				"x": 1.000016378,
				"y": 0.7375184196,
				"z": -0.472128893,
				"element": "H" 
			},
			{
				"x": 0.1774912316,
				"y": -0.302581653,
				"z": -2.524680213,
				"element": "H" 
			}
		],
		 "valence_orbital": [ 
			{
				"type": "occ",
				"energy": -0.26058,
				"method": "rhf"
			},
			{
				"type": "occ",
				"energy": -0.25608,
				"method": "rhf"
			},
			{
				"type": "occ",
				"energy": -0.25175,
				"method": "rhf"
			},
			{
				"type": "occ",
				"energy": -0.24068,
				"method": "rhf"
			},
			{
				"type": "occ",
				"energy": -0.22982,
				"method": "rhf"
			},
			{
				"type": "unocc",
				"energy": -0.04453,
				"method": "rhf"
			},
			{
				"type": "unocc",
				"energy": -0.01287,
				"method": "rhf"
			},
			{
				"type": "unocc",
				"energy": -0.00778,
				"method": "rhf"
			},
			{
				"type": "unocc",
				"energy": -0.00653,
				"method": "rhf"
			},
			{
				"type": "unocc",
				"energy": 0.05096,
				"method": "rhf"
			}
		],
		"cosmo_sigma_profile": { 
			"-0.025": 0.0,
			"-0.024": 0.0,
			"-0.023": 0.0,
			"-0.022": 0.0,
			"-0.021": 0.0,
			"-0.02": 0.0,
			"-0.019": 0.0,
			"-0.018": 0.0,
			"-0.017": 0.0,
			"-0.016": 0.0,
			"-0.015": 0.0,
			"-0.014": 0.0,
			"-0.013": 0.0,
			"-0.012": 0.0,
			"-0.011": 0.0,
			"-0.01": 0.0,
			"-0.009": 0.0,
			"-0.008": 0.140752112353,
			"-0.007": 4.90444734816,
			"-0.006": 23.08489467,
			"-0.005": 27.1429035304,
			"-0.004": 26.5167001139,
			"-0.003": 21.7629411009,
			"-0.002": 19.9708043525,
			"-0.001": 19.0825977423,
			"0.0": 17.8444388896,
			"0.001": 15.4310712054,
			"0.002": 19.1447040294,
			"0.003": 22.4958731034,
			"0.004": 22.5464732269,
			"0.005": 13.6876144639,
			"0.006": 10.6871984078,
			"0.007": 2.19375096131,
			"0.008": 2.96642037499,
			"0.009": 2.28913635652,
			"0.01": 2.07995820849,
			"0.011": 2.65636135557,
			"0.012": 3.59608073757,
			"0.013": 2.76478520648,
			"0.014": 0.550515383108,
			"0.015": 0.0,
			"0.016": 0.0,
			"0.017": 0.0,
			"0.018": 0.0,
			"0.019": 0.0,
			"0.02": 0.0,
			"0.021": 0.0,
			"0.022": 0.0,
			"0.023": 0.0,
			"0.024": 0.0,
			"0.025": 0.0
		}
	}
}
