{
	 "smiles": "OCC1=CC(OC2=CC=CC=C2)=CC=C1", 
	 "Tm": 281.15, 
	 "num_atms": 27, 
	 "gaussian": { 
		 "optdone": 1, 
		 "sigma_profile": "yes", 
		 "theory": "DFT", 
		 "functional": "B3LYP", 
		 "basiset": "6-31G**", 
		 "properties": { 
			 "R2extent": 4158.0031, 
			 "electric_dipole_moment_norm": 1.57325011362, 
			 "electric_quadrupole_moment_norm": 9.23936953802, 
			 "total_energy": -653.044203653, 
			 "HOMO_LUMO_gap": 0.20557, 
			 "cosmo_polarized_energy": -9.58, 
			 "cosmo_cavitation_energy": 31.12, 
			 "cosmo_dispersion_energy": -22.44, 
			 "cosmo_repulsion_energy": 1.78, 
			 "cosmo_total_nonelectrostatic_energy": 10.47, 
			 "SMD_solvation_energy": 5.5 
		},
		"coords": [
			{
				"x": 3.5627932003,
				"y": -1.3594559056,
				"z": -1.226795466,
				"element": "O" 
			},
			{
				"x": 2.1607171283,
				"y": -1.4945982951,
				"z": -1.0486086421,
				"element": "C" 
			},
			{
				"x": 1.4258421323,
				"y": -0.1699450677,
				"z": -0.943848641,
				"element": "C" 
			},
			{
				"x": 0.231626934,
				"y": -0.0884126767,
				"z": -0.2195872531,
				"element": "C" 
			},
			{
				"x": -0.4630298369,
				"y": 1.1223373463,
				"z": -0.1562568089,
				"element": "C" 
			},
			{
				"x": -1.6819781776,
				"y": 1.2526867602,
				"z": 0.4799628384,
				"element": "O" 
			},
			{
				"x": -1.9529897497,
				"y": 0.5641495689,
				"z": 1.6469778354,
				"element": "C" 
			},
			{
				"x": -1.0223861224,
				"y": 0.4478895627,
				"z": 2.6844252176,
				"element": "C" 
			},
			{
				"x": -1.3953768392,
				"y": -0.1950618277,
				"z": 3.8652399765,
				"element": "C" 
			},
			{
				"x": -2.684472123,
				"y": -0.7101063122,
				"z": 4.0193930541,
				"element": "C" 
			},
			{
				"x": -3.6070207576,
				"y": -0.5783259871,
				"z": 2.9792497672,
				"element": "C" 
			},
			{
				"x": -3.2451726099,
				"y": 0.0543624403,
				"z": 1.7900212023,
				"element": "C" 
			},
			{
				"x": 0.0235064979,
				"y": 2.2572814199,
				"z": -0.8092984798,
				"element": "C" 
			},
			{
				"x": 1.2140286136,
				"y": 2.1696739736,
				"z": -1.5290140179,
				"element": "C" 
			},
			{
				"x": 1.9171523023,
				"y": 0.96596043,
				"z": -1.5981301188,
				"element": "C" 
			},
			{
				"x": 3.9018159867,
				"y": -0.8484509351,
				"z": -0.4795994044,
				"element": "H" 
			},
			{
				"x": 1.8127109677,
				"y": -2.044656646,
				"z": -1.9313227299,
				"element": "H" 
			},
			{
				"x": 1.9216336486,
				"y": -2.118863128,
				"z": -0.1729762324,
				"element": "H" 
			},
			{
				"x": -0.1591770101,
				"y": -0.9617763049,
				"z": 0.2938490188,
				"element": "H" 
			},
			{
				"x": -0.0257762945,
				"y": 0.8593780856,
				"z": 2.5662219188,
				"element": "H" 
			},
			{
				"x": -0.6736227897,
				"y": -0.2847096177,
				"z": 4.6722260634,
				"element": "H" 
			},
			{
				"x": -2.9676474265,
				"y": -1.2066916247,
				"z": 4.9423473891,
				"element": "H" 
			},
			{
				"x": -4.6129077378,
				"y": -0.9732478942,
				"z": 3.0891720463,
				"element": "H" 
			},
			{
				"x": -3.9460755204,
				"y": 0.1665263292,
				"z": 0.9694270834,
				"element": "H" 
			},
			{
				"x": -0.536962691,
				"y": 3.1836303878,
				"z": -0.7415689188,
				"element": "H" 
			},
			{
				"x": 1.5965741761,
				"y": 3.0501816562,
				"z": -2.0375021368,
				"element": "H" 
			},
			{
				"x": 2.8461940985,
				"y": 0.8942442619,
				"z": -2.1538045614,
				"element": "H" 
			}
		],
		 "valence_orbital": [ 
			{
				"type": "occ",
				"energy": -0.27837,
				"method": "rhf"
			},
			{
				"type": "occ",
				"energy": -0.2577,
				"method": "rhf"
			},
			{
				"type": "occ",
				"energy": -0.25151,
				"method": "rhf"
			},
			{
				"type": "occ",
				"energy": -0.24503,
				"method": "rhf"
			},
			{
				"type": "occ",
				"energy": -0.2183,
				"method": "rhf"
			},
			{
				"type": "unocc",
				"energy": -0.01273,
				"method": "rhf"
			},
			{
				"type": "unocc",
				"energy": -0.00599,
				"method": "rhf"
			},
			{
				"type": "unocc",
				"energy": -0.00077,
				"method": "rhf"
			},
			{
				"type": "unocc",
				"energy": 0.01122,
				"method": "rhf"
			},
			{
				"type": "unocc",
				"energy": 0.08465,
				"method": "rhf"
			}
		],
		"cosmo_sigma_profile": { 
			"-0.025": 0.0,
			"-0.024": 0.0,
			"-0.023": 0.0,
			"-0.022": 0.0,
			"-0.021": 0.0,
			"-0.02": 0.0,
			"-0.019": 0.0,
			"-0.018": 0.0,
			"-0.017": 0.0,
			"-0.016": 0.0125817884811,
			"-0.015": 1.23177363311,
			"-0.014": 0.53723458444,
			"-0.013": 0.711707511017,
			"-0.012": 0.784946163724,
			"-0.011": 1.34290009646,
			"-0.01": 0.873770791936,
			"-0.009": 0.638459565645,
			"-0.008": 0.830946651317,
			"-0.007": 1.45760987441,
			"-0.006": 12.4318684363,
			"-0.005": 21.137212318,
			"-0.004": 23.114622667,
			"-0.003": 20.9746287255,
			"-0.002": 18.6507917741,
			"-0.001": 15.8428123359,
			"0.0": 12.9573746647,
			"0.001": 16.787293761,
			"0.002": 17.1179907796,
			"0.003": 19.0061297061,
			"0.004": 19.9732677406,
			"0.005": 19.8318051235,
			"0.006": 7.5679420745,
			"0.007": 2.36648236406,
			"0.008": 2.34176141809,
			"0.009": 2.27131685621,
			"0.01": 1.06102491881,
			"0.011": 1.15072266442,
			"0.012": 1.5392292471,
			"0.013": 1.64470121648,
			"0.014": 1.8357008215,
			"0.015": 0.0858705187884,
			"0.016": 0.0,
			"0.017": 0.0,
			"0.018": 0.0,
			"0.019": 0.0,
			"0.02": 0.0,
			"0.021": 0.0,
			"0.022": 0.0,
			"0.023": 0.0,
			"0.024": 0.0,
			"0.025": 0.0
		}
	}
}
