{
	 "smiles": "NC(=O)C1=C(N=CN1)C#N", 
	 "Tm": 550.15, 
	 "num_atms": 14, 
	 "gaussian": { 
		 "optdone": 1, 
		 "sigma_profile": "yes", 
		 "theory": "DFT", 
		 "functional": "B3LYP", 
		 "basiset": "6-31G**", 
		 "properties": { 
			 "R2extent": 1586.2693, 
			 "electric_dipole_moment_norm": 3.25138699019, 
			 "electric_quadrupole_moment_norm": 20.1309042266, 
			 "total_energy": -487.171274273, 
			 "HOMO_LUMO_gap": 0.20074, 
			 "cosmo_polarized_energy": -17.63, 
			 "cosmo_cavitation_energy": 20.14, 
			 "cosmo_dispersion_energy": -14.61, 
			 "cosmo_repulsion_energy": 1.19, 
			 "cosmo_total_nonelectrostatic_energy": 6.73, 
			 "SMD_solvation_energy": 4.06 
		},
		"coords": [
			{
				"x": 2.4420163718,
				"y": -0.7349562873,
				"z": 0.3860962642,
				"element": "N" 
			},
			{
				"x": 1.2157802358,
				"y": -1.278359216,
				"z": 0.5864467823,
				"element": "C" 
			},
			{
				"x": 0.9647915388,
				"y": -2.4767676142,
				"z": 0.4699614705,
				"element": "O" 
			},
			{
				"x": 0.12512298,
				"y": -0.3477353395,
				"z": 0.9702985615,
				"element": "C" 
			},
			{
				"x": -0.0299772859,
				"y": 1.0151607872,
				"z": 1.2038590503,
				"element": "C" 
			},
			{
				"x": -1.3307049927,
				"y": 1.311605511,
				"z": 1.5432354861,
				"element": "N" 
			},
			{
				"x": -1.9553277884,
				"y": 0.1517460948,
				"z": 1.5170642823,
				"element": "C" 
			},
			{
				"x": -1.1214744772,
				"y": -0.8700662086,
				"z": 1.1784724671,
				"element": "N" 
			},
			{
				"x": 0.9991486912,
				"y": 1.9942032829,
				"z": 1.1117230735,
				"element": "C" 
			},
			{
				"x": 1.9009243527,
				"y": 2.7240203811,
				"z": 1.0123226754,
				"element": "N" 
			},
			{
				"x": 3.1910706652,
				"y": -1.3577785666,
				"z": 0.1250930103,
				"element": "H" 
			},
			{
				"x": 2.6317857373,
				"y": 0.2518408979,
				"z": 0.4859856629,
				"element": "H" 
			},
			{
				"x": -3.0035672618,
				"y": 0.0022194074,
				"z": 1.734170158,
				"element": "H" 
			},
			{
				"x": -1.3090887668,
				"y": -1.8603331302,
				"z": 1.0773710555,
				"element": "H" 
			}
		],
		 "valence_orbital": [ 
			{
				"type": "occ",
				"energy": -0.31673,
				"method": "rhf"
			},
			{
				"type": "occ",
				"energy": -0.31309,
				"method": "rhf"
			},
			{
				"type": "occ",
				"energy": -0.28913,
				"method": "rhf"
			},
			{
				"type": "occ",
				"energy": -0.27819,
				"method": "rhf"
			},
			{
				"type": "occ",
				"energy": -0.26531,
				"method": "rhf"
			},
			{
				"type": "unocc",
				"energy": -0.06457,
				"method": "rhf"
			},
			{
				"type": "unocc",
				"energy": -0.00203,
				"method": "rhf"
			},
			{
				"type": "unocc",
				"energy": 0.00944,
				"method": "rhf"
			},
			{
				"type": "unocc",
				"energy": 0.05511,
				"method": "rhf"
			},
			{
				"type": "unocc",
				"energy": 0.06857,
				"method": "rhf"
			}
		],
		"cosmo_sigma_profile": { 
			"-0.025": 0.0,
			"-0.024": 0.0,
			"-0.023": 0.0,
			"-0.022": 0.0,
			"-0.021": 0.0,
			"-0.02": 0.0,
			"-0.019": 0.0,
			"-0.018": 0.117072048217,
			"-0.017": 1.21336181408,
			"-0.016": 0.8223584892,
			"-0.015": 2.00429238013,
			"-0.014": 2.36102191934,
			"-0.013": 1.6880396066,
			"-0.012": 2.97384198969,
			"-0.011": 4.91576462497,
			"-0.01": 4.90363963278,
			"-0.009": 4.04116272292,
			"-0.008": 4.94587120038,
			"-0.007": 4.27806314299,
			"-0.006": 4.45538171054,
			"-0.005": 4.81319392029,
			"-0.004": 6.93618981748,
			"-0.003": 8.38579682373,
			"-0.002": 13.1268277597,
			"-0.001": 10.1556813866,
			"0.0": 7.57805462502,
			"0.001": 8.67470936229,
			"0.002": 6.45429085037,
			"0.003": 6.25620638047,
			"0.004": 5.24181085738,
			"0.005": 4.2487756516,
			"0.006": 4.56102400422,
			"0.007": 5.20654277753,
			"0.008": 4.86781580449,
			"0.009": 4.24849461196,
			"0.01": 6.16693028475,
			"0.011": 4.57526218236,
			"0.012": 6.20476753134,
			"0.013": 4.52175559338,
			"0.014": 1.58333838708,
			"0.015": 0.654089816388,
			"0.016": 0.0177283557946,
			"0.017": 0.0,
			"0.018": 0.0,
			"0.019": 0.0,
			"0.02": 0.0,
			"0.021": 0.0,
			"0.022": 0.0,
			"0.023": 0.0,
			"0.024": 0.0,
			"0.025": 0.0
		}
	}
}
