{
	 "smiles": "CC1(C)O[C@@H]2C[C@H]3[C@@H]4C[C@H](F)C5=CC(=O)C=C[C@]5(C)[C@H]4[C@@H](O)C[C@]3(C)[C@@]2(O1)C(=O)CO", 
	 "Tm": 518.15, 
	 "num_atms": 62, 
	 "gaussian": { 
		 "optdone": 1, 
		 "sigma_profile": "yes", 
		 "theory": "DFT", 
		 "functional": "B3LYP", 
		 "basiset": "6-31G**", 
		 "properties": { 
			 "R2extent": 13823.6882, 
			 "electric_dipole_moment_norm": 4.17299819794, 
			 "electric_quadrupole_moment_norm": 39.8442978567, 
			 "total_energy": -1484.38018391, 
			 "HOMO_LUMO_gap": 0.17722, 
			 "cosmo_polarized_energy": -24.66, 
			 "cosmo_cavitation_energy": 55.65, 
			 "cosmo_dispersion_energy": -37.1, 
			 "cosmo_repulsion_energy": 2.67, 
			 "cosmo_total_nonelectrostatic_energy": 21.22, 
			 "SMD_solvation_energy": 10.01 
		},
		"coords": [
			{
				"x": -1.8938542468,
				"y": 2.9754477378,
				"z": 2.702893334,
				"element": "C" 
			},
			{
				"x": -2.4732030731,
				"y": 2.9719020586,
				"z": 1.2970394636,
				"element": "C" 
			},
			{
				"x": -3.3778030815,
				"y": 4.17953381,
				"z": 1.0284133144,
				"element": "C" 
			},
			{
				"x": -3.1809787484,
				"y": 1.7591618938,
				"z": 1.091006038,
				"element": "O" 
			},
			{
				"x": -3.0291119438,
				"y": 1.345184168,
				"z": -0.2694001641,
				"element": "C" 
			},
			{
				"x": -2.6012039344,
				"y": -0.1323279339,
				"z": -0.2891080285,
				"element": "C" 
			},
			{
				"x": -1.0734104449,
				"y": -0.029892891,
				"z": -0.1939322416,
				"element": "C" 
			},
			{
				"x": -0.1934635709,
				"y": -1.2796563042,
				"z": -0.3303893537,
				"element": "C" 
			},
			{
				"x": -0.6084171313,
				"y": -2.3389067783,
				"z": 0.7084517778,
				"element": "C" 
			},
			{
				"x": 0.3563657574,
				"y": -3.5233346492,
				"z": 0.7819549999,
				"element": "C" 
			},
			{
				"x": -0.0287397012,
				"y": -4.3372305184,
				"z": 1.846196063,
				"element": "F" 
			},
			{
				"x": 1.7742310693,
				"y": -3.0455728467,
				"z": 0.9571817638,
				"element": "C" 
			},
			{
				"x": 2.5024074937,
				"y": -3.3863458678,
				"z": 2.034002283,
				"element": "C" 
			},
			{
				"x": 3.8732746537,
				"y": -2.8879515684,
				"z": 2.2527118535,
				"element": "C" 
			},
			{
				"x": 4.5323402844,
				"y": -3.1963195972,
				"z": 3.242428916,
				"element": "O" 
			},
			{
				"x": 4.4105388338,
				"y": -1.9955274412,
				"z": 1.2026903872,
				"element": "C" 
			},
			{
				"x": 3.6850787662,
				"y": -1.6474916823,
				"z": 0.1306323151,
				"element": "C" 
			},
			{
				"x": 2.2728881909,
				"y": -2.1087382016,
				"z": -0.1341076372,
				"element": "C" 
			},
			{
				"x": 2.297992178,
				"y": -2.8777831722,
				"z": -1.4910688727,
				"element": "C" 
			},
			{
				"x": 1.2889816921,
				"y": -0.8624964884,
				"z": -0.1144617448,
				"element": "C" 
			},
			{
				"x": 1.73684957,
				"y": 0.3456705715,
				"z": -0.9710742684,
				"element": "C" 
			},
			{
				"x": 1.9792118177,
				"y": -0.0958623851,
				"z": -2.3109495402,
				"element": "O" 
			},
			{
				"x": 0.7388233213,
				"y": 1.5263199538,
				"z": -0.9208638006,
				"element": "C" 
			},
			{
				"x": -0.7157269869,
				"y": 1.1073720189,
				"z": -1.1891618555,
				"element": "C" 
			},
			{
				"x": -0.9215642429,
				"y": 0.6998440255,
				"z": -2.6661427203,
				"element": "C" 
			},
			{
				"x": -1.8036237014,
				"y": 2.1850896127,
				"z": -0.785547746,
				"element": "C" 
			},
			{
				"x": -1.380183593,
				"y": 2.9244013304,
				"z": 0.3601650913,
				"element": "O" 
			},
			{
				"x": -2.1529132799,
				"y": 3.1510771101,
				"z": -1.9179317302,
				"element": "C" 
			},
			{
				"x": -3.0545807519,
				"y": 2.9245025211,
				"z": -2.7109858148,
				"element": "O" 
			},
			{
				"x": -1.333227388,
				"y": 4.4244858837,
				"z": -2.0812124979,
				"element": "C" 
			},
			{
				"x": -1.740704643,
				"y": 5.1473621679,
				"z": -3.2077639338,
				"element": "O" 
			},
			{
				"x": -2.7010336511,
				"y": 2.9495791914,
				"z": 3.4391891549,
				"element": "H" 
			},
			{
				"x": -1.2591409308,
				"y": 2.0981702892,
				"z": 2.8438093635,
				"element": "H" 
			},
			{
				"x": -1.2989155294,
				"y": 3.8777281514,
				"z": 2.8663395884,
				"element": "H" 
			},
			{
				"x": -2.8206543579,
				"y": 5.1141357317,
				"z": 1.139356394,
				"element": "H" 
			},
			{
				"x": -4.2084456762,
				"y": 4.1815281169,
				"z": 1.7393524494,
				"element": "H" 
			},
			{
				"x": -3.801509947,
				"y": 4.1416533496,
				"z": 0.020848286,
				"element": "H" 
			},
			{
				"x": -3.9385983235,
				"y": 1.5468792082,
				"z": -0.8424790954,
				"element": "H" 
			},
			{
				"x": -2.922955215,
				"y": -0.6189968538,
				"z": -1.2158433111,
				"element": "H" 
			},
			{
				"x": -3.0626235238,
				"y": -0.6614659347,
				"z": 0.5479328982,
				"element": "H" 
			},
			{
				"x": -0.8673735789,
				"y": 0.3772693468,
				"z": 0.8071432019,
				"element": "H" 
			},
			{
				"x": -0.313900488,
				"y": -1.702381725,
				"z": -1.3350269851,
				"element": "H" 
			},
			{
				"x": -1.6164242696,
				"y": -2.7128382997,
				"z": 0.5022825208,
				"element": "H" 
			},
			{
				"x": -0.6292426275,
				"y": -1.8826757079,
				"z": 1.706848512,
				"element": "H" 
			},
			{
				"x": 0.275021148,
				"y": -4.1361271409,
				"z": -0.1259827706,
				"element": "H" 
			},
			{
				"x": 2.0973501765,
				"y": -4.0474397405,
				"z": 2.792330809,
				"element": "H" 
			},
			{
				"x": 5.4314771469,
				"y": -1.651281136,
				"z": 1.3423685098,
				"element": "H" 
			},
			{
				"x": 4.1238973968,
				"y": -1.0196197068,
				"z": -0.641847458,
				"element": "H" 
			},
			{
				"x": 2.75191926,
				"y": -2.2649830991,
				"z": -2.2679962848,
				"element": "H" 
			},
			{
				"x": 1.2965118492,
				"y": -3.1503031291,
				"z": -1.8325279319,
				"element": "H" 
			},
			{
				"x": 2.8775200871,
				"y": -3.7980813943,
				"z": -1.3714928201,
				"element": "H" 
			},
			{
				"x": 1.3445700483,
				"y": -0.4881473739,
				"z": 0.9186484615,
				"element": "H" 
			},
			{
				"x": 2.6809677705,
				"y": 0.7142838953,
				"z": -0.5426552881,
				"element": "H" 
			},
			{
				"x": 2.2085125404,
				"y": 0.6775884388,
				"z": -2.842599019,
				"element": "H" 
			},
			{
				"x": 0.7963881115,
				"y": 1.9895525363,
				"z": 0.0690739127,
				"element": "H" 
			},
			{
				"x": 1.0801406422,
				"y": 2.2867906046,
				"z": -1.6382609238,
				"element": "H" 
			},
			{
				"x": -1.9674863101,
				"y": 0.4917713734,
				"z": -2.901448795,
				"element": "H" 
			},
			{
				"x": -0.317715385,
				"y": -0.1710517673,
				"z": -2.9177466283,
				"element": "H" 
			},
			{
				"x": -0.605058671,
				"y": 1.5086341429,
				"z": -3.3339845104,
				"element": "H" 
			},
			{
				"x": -0.2690043853,
				"y": 4.1425972439,
				"z": -2.1483116445,
				"element": "H" 
			},
			{
				"x": -1.4258740699,
				"y": 5.0178496132,
				"z": -1.1605705008,
				"element": "H" 
			},
			{
				"x": -2.4785924025,
				"y": 4.6378652372,
				"z": -3.5872157452,
				"element": "H" 
			}
		],
		 "valence_orbital": [ 
			{
				"type": "occ",
				"energy": -0.27503,
				"method": "rhf"
			},
			{
				"type": "occ",
				"energy": -0.27145,
				"method": "rhf"
			},
			{
				"type": "occ",
				"energy": -0.2626,
				"method": "rhf"
			},
			{
				"type": "occ",
				"energy": -0.25687,
				"method": "rhf"
			},
			{
				"type": "occ",
				"energy": -0.23497,
				"method": "rhf"
			},
			{
				"type": "unocc",
				"energy": -0.05775,
				"method": "rhf"
			},
			{
				"type": "unocc",
				"energy": -0.04509,
				"method": "rhf"
			},
			{
				"type": "unocc",
				"energy": -0.00406,
				"method": "rhf"
			},
			{
				"type": "unocc",
				"energy": 0.04131,
				"method": "rhf"
			},
			{
				"type": "unocc",
				"energy": 0.06417,
				"method": "rhf"
			}
		],
		"cosmo_sigma_profile": { 
			"-0.025": 0.0,
			"-0.024": 0.0,
			"-0.023": 0.0,
			"-0.022": 0.0,
			"-0.021": 0.0,
			"-0.02": 0.0,
			"-0.019": 0.0,
			"-0.018": 0.0,
			"-0.017": 0.0,
			"-0.016": 0.0218280991436,
			"-0.015": 0.769592297077,
			"-0.014": 1.02292294045,
			"-0.013": 1.12706725774,
			"-0.012": 0.727310771207,
			"-0.011": 1.38062245356,
			"-0.01": 1.52675562145,
			"-0.009": 1.59069769069,
			"-0.008": 3.19125054985,
			"-0.007": 6.23860664134,
			"-0.006": 11.8792656649,
			"-0.005": 26.2067922833,
			"-0.004": 52.8466628035,
			"-0.003": 49.8812699703,
			"-0.002": 40.0558302912,
			"-0.001": 39.4383446293,
			"0.0": 38.8187128172,
			"0.001": 26.9694757193,
			"0.002": 22.2900945858,
			"0.003": 15.2992096313,
			"0.004": 12.6028246771,
			"0.005": 12.4804690789,
			"0.006": 13.3962459359,
			"0.007": 8.92509029001,
			"0.008": 6.80578083979,
			"0.009": 6.3559894517,
			"0.01": 6.40487053219,
			"0.011": 4.91123373942,
			"0.012": 5.21935641475,
			"0.013": 6.99893894984,
			"0.014": 5.60469302634,
			"0.015": 0.833998748515,
			"0.016": 0.0,
			"0.017": 0.0,
			"0.018": 0.0,
			"0.019": 0.0,
			"0.02": 0.0,
			"0.021": 0.0,
			"0.022": 0.0,
			"0.023": 0.0,
			"0.024": 0.0,
			"0.025": 0.0
		}
	}
}
