{
	 "smiles": "COC(=O)CC(=O)CCl", 
	 "Tm": 288.15, 
	 "num_atms": 16, 
	 "gaussian": { 
		 "optdone": 1, 
		 "sigma_profile": "yes", 
		 "theory": "DFT", 
		 "functional": "B3LYP", 
		 "basiset": "6-31G**", 
		 "properties": { 
			 "R2extent": 2318.0143, 
			 "electric_dipole_moment_norm": 3.87250926403, 
			 "electric_quadrupole_moment_norm": 10.3537893276, 
			 "total_energy": -880.608637077, 
			 "HOMO_LUMO_gap": 0.20911, 
			 "cosmo_polarized_energy": -11.57, 
			 "cosmo_cavitation_energy": 22.29, 
			 "cosmo_dispersion_energy": -15.74, 
			 "cosmo_repulsion_energy": 1.32, 
			 "cosmo_total_nonelectrostatic_energy": 7.87, 
			 "SMD_solvation_energy": 5.84 
		},
		"coords": [
			{
				"x": -0.8685230046,
				"y": 0.8886770923,
				"z": 0.7330557502,
				"element": "C" 
			},
			{
				"x": 0.3236993455,
				"y": 0.5231752178,
				"z": 0.0116678926,
				"element": "O" 
			},
			{
				"x": 0.6233131146,
				"y": 1.3159600118,
				"z": -1.0433566548,
				"element": "C" 
			},
			{
				"x": -0.0033686371,
				"y": 2.3032075074,
				"z": -1.3475383794,
				"element": "O" 
			},
			{
				"x": 1.8607694829,
				"y": 0.8156181435,
				"z": -1.7672694929,
				"element": "C" 
			},
			{
				"x": 1.7116799125,
				"y": -0.4300847965,
				"z": -2.6500184166,
				"element": "C" 
			},
			{
				"x": 2.3682517727,
				"y": -0.5458005063,
				"z": -3.6610951826,
				"element": "O" 
			},
			{
				"x": 0.7849229758,
				"y": -1.5591618777,
				"z": -2.2001712842,
				"element": "C" 
			},
			{
				"x": -0.9254076793,
				"y": -1.1628968173,
				"z": -2.6610939474,
				"element": "Cl" 
			},
			{
				"x": -0.7874380171,
				"y": 1.9106685117,
				"z": 1.1095143898,
				"element": "H" 
			},
			{
				"x": -0.9423449915,
				"y": 0.179141992,
				"z": 1.5566934132,
				"element": "H" 
			},
			{
				"x": -1.7417157524,
				"y": 0.8139349349,
				"z": 0.081084045,
				"element": "H" 
			},
			{
				"x": 2.6159042105,
				"y": 0.556192024,
				"z": -1.012916669,
				"element": "H" 
			},
			{
				"x": 2.2524735875,
				"y": 1.6171093112,
				"z": -2.3932737237,
				"element": "H" 
			},
			{
				"x": 0.7953405056,
				"y": -1.6954617742,
				"z": -1.1188779072,
				"element": "H" 
			},
			{
				"x": 1.0598431744,
				"y": -2.4706789746,
				"z": -2.7282038332,
				"element": "H" 
			}
		],
		 "valence_orbital": [ 
			{
				"type": "occ",
				"energy": -0.32524,
				"method": "rhf"
			},
			{
				"type": "occ",
				"energy": -0.31501,
				"method": "rhf"
			},
			{
				"type": "occ",
				"energy": -0.31271,
				"method": "rhf"
			},
			{
				"type": "occ",
				"energy": -0.28869,
				"method": "rhf"
			},
			{
				"type": "occ",
				"energy": -0.2679,
				"method": "rhf"
			},
			{
				"type": "unocc",
				"energy": -0.05879,
				"method": "rhf"
			},
			{
				"type": "unocc",
				"energy": -0.00471,
				"method": "rhf"
			},
			{
				"type": "unocc",
				"energy": 0.02878,
				"method": "rhf"
			},
			{
				"type": "unocc",
				"energy": 0.09104,
				"method": "rhf"
			},
			{
				"type": "unocc",
				"energy": 0.10863,
				"method": "rhf"
			}
		],
		"cosmo_sigma_profile": { 
			"-0.025": 0.0,
			"-0.024": 0.0,
			"-0.023": 0.0,
			"-0.022": 0.0,
			"-0.021": 0.0,
			"-0.02": 0.0,
			"-0.019": 0.0,
			"-0.018": 0.0,
			"-0.017": 0.0,
			"-0.016": 0.0,
			"-0.015": 0.0,
			"-0.014": 0.0,
			"-0.013": 0.0,
			"-0.012": 0.0,
			"-0.011": 0.438408298386,
			"-0.01": 1.78121159564,
			"-0.009": 3.7857765291,
			"-0.008": 6.03140247813,
			"-0.007": 8.7130529081,
			"-0.006": 11.8753521918,
			"-0.005": 13.8555271971,
			"-0.004": 14.9809621538,
			"-0.003": 11.4691739427,
			"-0.002": 8.45013621128,
			"-0.001": 9.70841360069,
			"0.0": 9.43111144365,
			"0.001": 11.2452060159,
			"0.002": 7.49114879734,
			"0.003": 8.90892843837,
			"0.004": 9.92890298129,
			"0.005": 8.55856460735,
			"0.006": 3.67804719664,
			"0.007": 4.53231736282,
			"0.008": 2.9776997493,
			"0.009": 4.44106935712,
			"0.01": 6.71325610358,
			"0.011": 6.67953921661,
			"0.012": 2.70682912567,
			"0.013": 0.0847313706028,
			"0.014": 0.0,
			"0.015": 0.0,
			"0.016": 0.0,
			"0.017": 0.0,
			"0.018": 0.0,
			"0.019": 0.0,
			"0.02": 0.0,
			"0.021": 0.0,
			"0.022": 0.0,
			"0.023": 0.0,
			"0.024": 0.0,
			"0.025": 0.0
		}
	}
}
