{
	 "smiles": "COC1=C(N)C=C(Cl)C(=C1)[N+]([O-])=O", 
	 "Tm": 405.15, 
	 "num_atms": 20, 
	 "gaussian": { 
		 "optdone": 1, 
		 "sigma_profile": "yes", 
		 "theory": "DFT", 
		 "functional": "B3LYP", 
		 "basiset": "6-31G**", 
		 "properties": { 
			 "R2extent": 3161.4794, 
			 "electric_dipole_moment_norm": 7.40524167465, 
			 "electric_quadrupole_moment_norm": 9.82302815226, 
			 "total_energy": -1066.2133194, 
			 "HOMO_LUMO_gap": 0.14747, 
			 "cosmo_polarized_energy": -15.68, 
			 "cosmo_cavitation_energy": 26.49, 
			 "cosmo_dispersion_energy": -19.83, 
			 "cosmo_repulsion_energy": 1.58, 
			 "cosmo_total_nonelectrostatic_energy": 8.24, 
			 "SMD_solvation_energy": 7.23 
		},
		"coords": [
			{
				"x": 2.1208549639,
				"y": 0.0221686533,
				"z": 2.0396195034,
				"element": "C" 
			},
			{
				"x": 1.4203656661,
				"y": -1.0736047336,
				"z": 1.4626598099,
				"element": "O" 
			},
			{
				"x": 0.5018280203,
				"y": -0.8040552711,
				"z": 0.4874112129,
				"element": "C" 
			},
			{
				"x": -0.142997903,
				"y": -1.9540850933,
				"z": -0.0458062151,
				"element": "C" 
			},
			{
				"x": 0.1560464007,
				"y": -3.1863542185,
				"z": 0.4752754144,
				"element": "N" 
			},
			{
				"x": -1.0868789432,
				"y": -1.773185166,
				"z": -1.0615619179,
				"element": "C" 
			},
			{
				"x": -1.417587337,
				"y": -0.5061207365,
				"z": -1.5466510455,
				"element": "C" 
			},
			{
				"x": -2.5980058178,
				"y": -0.4698191619,
				"z": -2.8318622744,
				"element": "Cl" 
			},
			{
				"x": -0.7779790744,
				"y": 0.6204585509,
				"z": -1.005713329,
				"element": "C" 
			},
			{
				"x": 0.1848128693,
				"y": 0.4491553434,
				"z": 0.0078936774,
				"element": "C" 
			},
			{
				"x": -1.0320340996,
				"y": 1.9999451456,
				"z": -1.4159037788,
				"element": "N" 
			},
			{
				"x": -0.2817040473,
				"y": 2.8708268374,
				"z": -0.9578000907,
				"element": "O" 
			},
			{
				"x": -1.9683128247,
				"y": 2.2344798227,
				"z": -2.1767768841,
				"element": "O" 
			},
			{
				"x": 2.7947962949,
				"y": -0.4075282527,
				"z": 2.7815269767,
				"element": "H" 
			},
			{
				"x": 2.7044265835,
				"y": 0.5637989686,
				"z": 1.285344158,
				"element": "H" 
			},
			{
				"x": 1.4320094917,
				"y": 0.7185191786,
				"z": 2.5325665059,
				"element": "H" 
			},
			{
				"x": 0.9907762396,
				"y": -3.2482077598,
				"z": 1.0378668238,
				"element": "H" 
			},
			{
				"x": -0.0876335977,
				"y": -4.0055615107,
				"z": -0.0584374328,
				"element": "H" 
			},
			{
				"x": -1.5841058935,
				"y": -2.6378024606,
				"z": -1.4873847278,
				"element": "H" 
			},
			{
				"x": 0.6605230082,
				"y": 1.3432718641,
				"z": 0.3841336137,
				"element": "H" 
			}
		],
		 "valence_orbital": [ 
			{
				"type": "occ",
				"energy": -0.29281,
				"method": "rhf"
			},
			{
				"type": "occ",
				"energy": -0.291,
				"method": "rhf"
			},
			{
				"type": "occ",
				"energy": -0.26808,
				"method": "rhf"
			},
			{
				"type": "occ",
				"energy": -0.25258,
				"method": "rhf"
			},
			{
				"type": "occ",
				"energy": -0.22191,
				"method": "rhf"
			},
			{
				"type": "unocc",
				"energy": -0.07444,
				"method": "rhf"
			},
			{
				"type": "unocc",
				"energy": -0.01632,
				"method": "rhf"
			},
			{
				"type": "unocc",
				"energy": 0.01587,
				"method": "rhf"
			},
			{
				"type": "unocc",
				"energy": 0.02269,
				"method": "rhf"
			},
			{
				"type": "unocc",
				"energy": 0.06236,
				"method": "rhf"
			}
		],
		"cosmo_sigma_profile": { 
			"-0.025": 0.0,
			"-0.024": 0.0,
			"-0.023": 0.0,
			"-0.022": 0.0,
			"-0.021": 0.0,
			"-0.02": 0.0,
			"-0.019": 0.0,
			"-0.018": 0.0,
			"-0.017": 0.0,
			"-0.016": 0.0,
			"-0.015": 0.308656558152,
			"-0.014": 1.69703599775,
			"-0.013": 2.143087038,
			"-0.012": 2.60611774908,
			"-0.011": 2.50425433559,
			"-0.01": 2.81472783204,
			"-0.009": 2.12606089423,
			"-0.008": 2.26231640911,
			"-0.007": 6.27514911446,
			"-0.006": 11.5673857841,
			"-0.005": 11.5568208528,
			"-0.004": 12.5786922964,
			"-0.003": 11.2865831766,
			"-0.002": 11.8990319926,
			"-0.001": 11.2485175229,
			"0.0": 16.5349270365,
			"0.001": 23.7322878946,
			"0.002": 15.3975923693,
			"0.003": 11.2313165881,
			"0.004": 11.066871606,
			"0.005": 6.3201168657,
			"0.006": 5.1616080996,
			"0.007": 5.08325764226,
			"0.008": 7.7402412318,
			"0.009": 10.5176394864,
			"0.01": 5.11559140948,
			"0.011": 2.63545522125,
			"0.012": 0.129865045227,
			"0.013": 0.0,
			"0.014": 0.0,
			"0.015": 0.0,
			"0.016": 0.0,
			"0.017": 0.0,
			"0.018": 0.0,
			"0.019": 0.0,
			"0.02": 0.0,
			"0.021": 0.0,
			"0.022": 0.0,
			"0.023": 0.0,
			"0.024": 0.0,
			"0.025": 0.0
		}
	}
}
