{
	 "smiles": "OC(=O)C1(O)CCCCC1", 
	 "Tm": 376.15, 
	 "num_atms": 22, 
	 "gaussian": { 
		 "optdone": 1, 
		 "sigma_profile": "yes", 
		 "theory": "DFT", 
		 "functional": "B3LYP", 
		 "basiset": "6-31G**", 
		 "properties": { 
			 "R2extent": 1501.9758, 
			 "electric_dipole_moment_norm": 1.71417138875, 
			 "electric_quadrupole_moment_norm": 9.63462542603, 
			 "total_energy": -499.664447809, 
			 "HOMO_LUMO_gap": 0.25947, 
			 "cosmo_polarized_energy": -9.66, 
			 "cosmo_cavitation_energy": 23.29, 
			 "cosmo_dispersion_energy": -17.4, 
			 "cosmo_repulsion_energy": 1.42, 
			 "cosmo_total_nonelectrostatic_energy": 7.31, 
			 "SMD_solvation_energy": 4.42 
		},
		"coords": [
			{
				"x": 0.0309380624,
				"y": -2.2003330154,
				"z": 0.0732708937,
				"element": "O" 
			},
			{
				"x": -0.4344567626,
				"y": -1.0329104811,
				"z": 0.590030476,
				"element": "C" 
			},
			{
				"x": -0.9879133172,
				"y": -0.9795183683,
				"z": 1.66610349,
				"element": "O" 
			},
			{
				"x": -0.084103849,
				"y": 0.1599159271,
				"z": -0.3104341438,
				"element": "C" 
			},
			{
				"x": -0.03634505,
				"y": -0.2406837813,
				"z": -1.6754919212,
				"element": "O" 
			},
			{
				"x": -1.1646051834,
				"y": 1.2566707274,
				"z": -0.1924122793,
				"element": "C" 
			},
			{
				"x": -0.5682945379,
				"y": 2.6589954792,
				"z": -0.3549084778,
				"element": "C" 
			},
			{
				"x": 0.4189047612,
				"y": 2.9865925121,
				"z": 0.7898792413,
				"element": "C" 
			},
			{
				"x": 1.1751490506,
				"y": 1.7270992885,
				"z": 1.2799211345,
				"element": "C" 
			},
			{
				"x": 1.3074292591,
				"y": 0.6943975242,
				"z": 0.1543479469,
				"element": "C" 
			},
			{
				"x": -0.1790928965,
				"y": -2.8910747319,
				"z": 0.7235057251,
				"element": "H" 
			},
			{
				"x": 0.543542881,
				"y": -1.0121864581,
				"z": -1.7378095342,
				"element": "H" 
			},
			{
				"x": -1.9183920869,
				"y": 1.0528574723,
				"z": -0.9590652659,
				"element": "H" 
			},
			{
				"x": -1.6520738933,
				"y": 1.1677045453,
				"z": 0.7829501816,
				"element": "H" 
			},
			{
				"x": -1.3696037261,
				"y": 3.4048770436,
				"z": -0.3892655155,
				"element": "H" 
			},
			{
				"x": -0.0566368628,
				"y": 2.7158133063,
				"z": -1.3231286836,
				"element": "H" 
			},
			{
				"x": -0.1211226772,
				"y": 3.4340827079,
				"z": 1.6322252854,
				"element": "H" 
			},
			{
				"x": 1.1338570014,
				"y": 3.7430707154,
				"z": 0.4454642353,
				"element": "H" 
			},
			{
				"x": 2.1655954771,
				"y": 1.9987455285,
				"z": 1.66053321,
				"element": "H" 
			},
			{
				"x": 0.6391179722,
				"y": 1.2651138646,
				"z": 2.117084905,
				"element": "H" 
			},
			{
				"x": 1.7649653575,
				"y": 1.1512209802,
				"z": -0.7308782447,
				"element": "H" 
			},
			{
				"x": 1.9547410204,
				"y": -0.1402507865,
				"z": 0.449377341,
				"element": "H" 
			}
		],
		 "valence_orbital": [ 
			{
				"type": "occ",
				"energy": -0.31685,
				"method": "rhf"
			},
			{
				"type": "occ",
				"energy": -0.31431,
				"method": "rhf"
			},
			{
				"type": "occ",
				"energy": -0.30635,
				"method": "rhf"
			},
			{
				"type": "occ",
				"energy": -0.28807,
				"method": "rhf"
			},
			{
				"type": "occ",
				"energy": -0.25664,
				"method": "rhf"
			},
			{
				"type": "unocc",
				"energy": 0.00283,
				"method": "rhf"
			},
			{
				"type": "unocc",
				"energy": 0.05982,
				"method": "rhf"
			},
			{
				"type": "unocc",
				"energy": 0.08856,
				"method": "rhf"
			},
			{
				"type": "unocc",
				"energy": 0.11152,
				"method": "rhf"
			},
			{
				"type": "unocc",
				"energy": 0.11729,
				"method": "rhf"
			}
		],
		"cosmo_sigma_profile": { 
			"-0.025": 0.0,
			"-0.024": 0.0,
			"-0.023": 0.0,
			"-0.022": 0.0,
			"-0.021": 0.0,
			"-0.02": 0.0,
			"-0.019": 0.243735228381,
			"-0.018": 0.951433715157,
			"-0.017": 0.640543825955,
			"-0.016": 0.968596212757,
			"-0.015": 0.762283220627,
			"-0.014": 1.34458367921,
			"-0.013": 0.981685568528,
			"-0.012": 0.946615557524,
			"-0.011": 1.01657221055,
			"-0.01": 0.871349649253,
			"-0.009": 1.45750163025,
			"-0.008": 1.98893889799,
			"-0.007": 2.17307811084,
			"-0.006": 1.63336633354,
			"-0.005": 1.90021705996,
			"-0.004": 5.21590067568,
			"-0.003": 14.0589442695,
			"-0.002": 26.0396412848,
			"-0.001": 31.429229889,
			"0.0": 21.9048610145,
			"0.001": 17.5754295676,
			"0.002": 5.1349433626,
			"0.003": 4.47091599274,
			"0.004": 4.80416321511,
			"0.005": 5.10649013956,
			"0.006": 3.91399458632,
			"0.007": 3.38224414504,
			"0.008": 2.46801996437,
			"0.009": 2.82035254379,
			"0.01": 2.54412429942,
			"0.011": 5.8409932385,
			"0.012": 3.33283821877,
			"0.013": 1.68338130636,
			"0.014": 0.24782105581,
			"0.015": 0.0,
			"0.016": 0.0,
			"0.017": 0.0,
			"0.018": 0.0,
			"0.019": 0.0,
			"0.02": 0.0,
			"0.021": 0.0,
			"0.022": 0.0,
			"0.023": 0.0,
			"0.024": 0.0,
			"0.025": 0.0
		}
	}
}
