{
	 "smiles": "CN(C)C=O", 
	 "Tm": 212.45, 
	 "num_atms": 12, 
	 "gaussian": { 
		 "optdone": 1, 
		 "sigma_profile": "yes", 
		 "theory": "DFT", 
		 "functional": "B3LYP", 
		 "basiset": "6-31G**", 
		 "properties": { 
			 "R2extent": 789.0878, 
			 "electric_dipole_moment_norm": 3.82010055627, 
			 "electric_quadrupole_moment_norm": 9.96054751005, 
			 "total_energy": -248.51679118, 
			 "HOMO_LUMO_gap": 0.27319, 
			 "cosmo_polarized_energy": -9.02, 
			 "cosmo_cavitation_energy": 15.17, 
			 "cosmo_dispersion_energy": -11.24, 
			 "cosmo_repulsion_energy": 0.99, 
			 "cosmo_total_nonelectrostatic_energy": 4.92, 
			 "SMD_solvation_energy": 4.53 
		},
		"coords": [
			{
				"x": -0.4657670676,
				"y": -1.2781501398,
				"z": 1.1138604391,
				"element": "C" 
			},
			{
				"x": 0.5905134193,
				"y": -0.3228146811,
				"z": 1.3793589652,
				"element": "N" 
			},
			{
				"x": 0.7170496432,
				"y": 0.1997737864,
				"z": 2.7290031307,
				"element": "C" 
			},
			{
				"x": 1.4539369233,
				"y": 0.0888183883,
				"z": 0.4034915721,
				"element": "C" 
			},
			{
				"x": 2.3643994745,
				"y": 0.8874494925,
				"z": 0.5515189993,
				"element": "O" 
			},
			{
				"x": -0.4342317393,
				"y": -1.5787511815,
				"z": 0.0632717419,
				"element": "H" 
			},
			{
				"x": -0.3525824694,
				"y": -2.1770665816,
				"z": 1.7337823633,
				"element": "H" 
			},
			{
				"x": -1.4533595963,
				"y": -0.8451293278,
				"z": 1.3196466114,
				"element": "H" 
			},
			{
				"x": 1.5552500774,
				"y": 0.8966556738,
				"z": 2.7408683232,
				"element": "H" 
			},
			{
				"x": 0.9043953683,
				"y": -0.6106865426,
				"z": 3.4445166836,
				"element": "H" 
			},
			{
				"x": -0.1986851927,
				"y": 0.7230320935,
				"z": 3.0315184548,
				"element": "H" 
			},
			{
				"x": 1.2340811594,
				"y": -0.3943309801,
				"z": -0.5694372846,
				"element": "H" 
			}
		],
		 "valence_orbital": [ 
			{
				"type": "occ",
				"energy": -0.40091,
				"method": "rhf"
			},
			{
				"type": "occ",
				"energy": -0.38674,
				"method": "rhf"
			},
			{
				"type": "occ",
				"energy": -0.37208,
				"method": "rhf"
			},
			{
				"type": "occ",
				"energy": -0.2505,
				"method": "rhf"
			},
			{
				"type": "occ",
				"energy": -0.24171,
				"method": "rhf"
			},
			{
				"type": "unocc",
				"energy": 0.03148,
				"method": "rhf"
			},
			{
				"type": "unocc",
				"energy": 0.08485,
				"method": "rhf"
			},
			{
				"type": "unocc",
				"energy": 0.11621,
				"method": "rhf"
			},
			{
				"type": "unocc",
				"energy": 0.13695,
				"method": "rhf"
			},
			{
				"type": "unocc",
				"energy": 0.14947,
				"method": "rhf"
			}
		],
		"cosmo_sigma_profile": { 
			"-0.025": 0.0,
			"-0.024": 0.0,
			"-0.023": 0.0,
			"-0.022": 0.0,
			"-0.021": 0.0,
			"-0.02": 0.0,
			"-0.019": 0.0,
			"-0.018": 0.0,
			"-0.017": 0.0,
			"-0.016": 0.0,
			"-0.015": 0.0,
			"-0.014": 0.0,
			"-0.013": 0.0,
			"-0.012": 0.0,
			"-0.011": 0.0,
			"-0.01": 0.0,
			"-0.009": 0.0,
			"-0.008": 0.379188683669,
			"-0.007": 3.60121397379,
			"-0.006": 3.94214295599,
			"-0.005": 11.7365138448,
			"-0.004": 16.2238072187,
			"-0.003": 16.073944294,
			"-0.002": 18.7384268412,
			"-0.001": 9.76940973023,
			"0.0": 5.33496164327,
			"0.001": 4.50641629718,
			"0.002": 2.78943633704,
			"0.003": 2.21013910452,
			"0.004": 1.0956200834,
			"0.005": 1.20872556214,
			"0.006": 2.3227933283,
			"0.007": 1.15221252421,
			"0.008": 1.65035647393,
			"0.009": 1.19688818397,
			"0.01": 1.37275849061,
			"0.011": 1.83420332489,
			"0.012": 1.87824529977,
			"0.013": 3.61455151018,
			"0.014": 5.06195898325,
			"0.015": 1.45094781423,
			"0.016": 0.0798400167995,
			"0.017": 0.0,
			"0.018": 0.0,
			"0.019": 0.0,
			"0.02": 0.0,
			"0.021": 0.0,
			"0.022": 0.0,
			"0.023": 0.0,
			"0.024": 0.0,
			"0.025": 0.0
		}
	}
}
