{
	 "smiles": "CCC(=O)C1=CC2=C(OCCO2)C=C1", 
	 "Tm": 458.15, 
	 "num_atms": 26, 
	 "gaussian": { 
		 "optdone": 1, 
		 "sigma_profile": "yes", 
		 "theory": "DFT", 
		 "functional": "B3LYP", 
		 "basiset": "6-31G**", 
		 "properties": { 
			 "R2extent": 3360.6051, 
			 "electric_dipole_moment_norm": 4.80229060033, 
			 "electric_quadrupole_moment_norm": 4.17212843522, 
			 "total_energy": -652.061619314, 
			 "HOMO_LUMO_gap": 0.17394, 
			 "cosmo_polarized_energy": -11.26, 
			 "cosmo_cavitation_energy": 29.02, 
			 "cosmo_dispersion_energy": -21.56, 
			 "cosmo_repulsion_energy": 1.7, 
			 "cosmo_total_nonelectrostatic_energy": 9.16, 
			 "SMD_solvation_energy": 5.82 
		},
		"coords": [
			{
				"x": -3.8330761988,
				"y": 1.4574826733,
				"z": -1.2990790968,
				"element": "C" 
			},
			{
				"x": -2.4953021553,
				"y": 2.0076287706,
				"z": -1.8300522947,
				"element": "C" 
			},
			{
				"x": -1.4835186731,
				"y": 2.208290316,
				"z": -0.7056602359,
				"element": "C" 
			},
			{
				"x": -1.3729308864,
				"y": 3.3079959009,
				"z": -0.1787802819,
				"element": "O" 
			},
			{
				"x": -0.6632410414,
				"y": 1.0524614781,
				"z": -0.2270775769,
				"element": "C" 
			},
			{
				"x": -0.7455686616,
				"y": -0.2289166952,
				"z": -0.7911814579,
				"element": "C" 
			},
			{
				"x": 0.0415778996,
				"y": -1.2699174428,
				"z": -0.3064046799,
				"element": "C" 
			},
			{
				"x": 0.9396232359,
				"y": -1.0353963665,
				"z": 0.7505558071,
				"element": "C" 
			},
			{
				"x": 1.7496040211,
				"y": -2.0210298857,
				"z": 1.2442770828,
				"element": "O" 
			},
			{
				"x": 1.8390962674,
				"y": -3.1812009033,
				"z": 0.413231613,
				"element": "C" 
			},
			{
				"x": 0.4615738078,
				"y": -3.5676552195,
				"z": -0.0993114971,
				"element": "C" 
			},
			{
				"x": -0.0821748914,
				"y": -2.5097788768,
				"z": -0.8881765225,
				"element": "O" 
			},
			{
				"x": 1.0143826693,
				"y": 0.2370566803,
				"z": 1.3269714369,
				"element": "C" 
			},
			{
				"x": 0.2201872763,
				"y": 1.267413366,
				"z": 0.8461400759,
				"element": "C" 
			},
			{
				"x": -4.248247453,
				"y": 2.1292384437,
				"z": -0.5418449951,
				"element": "H" 
			},
			{
				"x": -4.5613225077,
				"y": 1.3692617432,
				"z": -2.1109998735,
				"element": "H" 
			},
			{
				"x": -3.7126958845,
				"y": 0.4697555471,
				"z": -0.8435241498,
				"element": "H" 
			},
			{
				"x": -2.0969454204,
				"y": 1.3460364528,
				"z": -2.6066894248,
				"element": "H" 
			},
			{
				"x": -2.6547755042,
				"y": 2.9918045236,
				"z": -2.2785312815,
				"element": "H" 
			},
			{
				"x": -1.4198662585,
				"y": -0.4548769359,
				"z": -1.6095064711,
				"element": "H" 
			},
			{
				"x": 2.2716285354,
				"y": -3.971357291,
				"z": 1.0318721292,
				"element": "H" 
			},
			{
				"x": 2.5103993474,
				"y": -2.9794284405,
				"z": -0.4320407507,
				"element": "H" 
			},
			{
				"x": -0.205052975,
				"y": -3.7857191708,
				"z": 0.7464399926,
				"element": "H" 
			},
			{
				"x": 0.5123478666,
				"y": -4.4454148435,
				"z": -0.7482659955,
				"element": "H" 
			},
			{
				"x": 1.7112807729,
				"y": 0.3888911583,
				"z": 2.1450140869,
				"element": "H" 
			},
			{
				"x": 0.2690168115,
				"y": 2.2606750177,
				"z": 1.2777243611,
				"element": "H" 
			}
		],
		 "valence_orbital": [ 
			{
				"type": "occ",
				"energy": -0.31403,
				"method": "rhf"
			},
			{
				"type": "occ",
				"energy": -0.31282,
				"method": "rhf"
			},
			{
				"type": "occ",
				"energy": -0.24446,
				"method": "rhf"
			},
			{
				"type": "occ",
				"energy": -0.23677,
				"method": "rhf"
			},
			{
				"type": "occ",
				"energy": -0.21916,
				"method": "rhf"
			},
			{
				"type": "unocc",
				"energy": -0.04522,
				"method": "rhf"
			},
			{
				"type": "unocc",
				"energy": -0.0023,
				"method": "rhf"
			},
			{
				"type": "unocc",
				"energy": 0.05081,
				"method": "rhf"
			},
			{
				"type": "unocc",
				"energy": 0.07724,
				"method": "rhf"
			},
			{
				"type": "unocc",
				"energy": 0.09806,
				"method": "rhf"
			}
		],
		"cosmo_sigma_profile": { 
			"-0.025": 0.0,
			"-0.024": 0.0,
			"-0.023": 0.0,
			"-0.022": 0.0,
			"-0.021": 0.0,
			"-0.02": 0.0,
			"-0.019": 0.0,
			"-0.018": 0.0,
			"-0.017": 0.0,
			"-0.016": 0.0,
			"-0.015": 0.0,
			"-0.014": 0.0,
			"-0.013": 0.0,
			"-0.012": 0.0,
			"-0.011": 0.0,
			"-0.01": 0.0,
			"-0.009": 0.0,
			"-0.008": 1.16339106476,
			"-0.007": 10.3925437284,
			"-0.006": 17.0220403428,
			"-0.005": 15.5961947089,
			"-0.004": 17.7327631985,
			"-0.003": 19.0501119791,
			"-0.002": 19.5817403173,
			"-0.001": 20.7822042621,
			"0.0": 17.2036453752,
			"0.001": 13.5266156949,
			"0.002": 13.9844549707,
			"0.003": 16.4815695979,
			"0.004": 11.769268927,
			"0.005": 4.78247211805,
			"0.006": 4.59682715574,
			"0.007": 3.97390289123,
			"0.008": 3.655986767,
			"0.009": 4.35513472774,
			"0.01": 4.32831962372,
			"0.011": 2.85066192779,
			"0.012": 3.62078035666,
			"0.013": 2.65513999894,
			"0.014": 0.702313311705,
			"0.015": 0.0,
			"0.016": 0.0,
			"0.017": 0.0,
			"0.018": 0.0,
			"0.019": 0.0,
			"0.02": 0.0,
			"0.021": 0.0,
			"0.022": 0.0,
			"0.023": 0.0,
			"0.024": 0.0,
			"0.025": 0.0
		}
	}
}
