{
	 "smiles": "ClC1=C(C=O)C(=NN1C1=CC=CC=C1)C1=CC=CC=C1", 
	 "Tm": 383.15, 
	 "num_atms": 31, 
	 "gaussian": { 
		 "optdone": 1, 
		 "sigma_profile": "yes", 
		 "theory": "DFT", 
		 "functional": "B3LYP", 
		 "basiset": "6-31G**", 
		 "properties": { 
			 "R2extent": 8151.1404, 
			 "electric_dipole_moment_norm": 3.59153986752, 
			 "electric_quadrupole_moment_norm": 25.6984728132, 
			 "total_energy": -1261.21820348, 
			 "HOMO_LUMO_gap": 0.17907, 
			 "cosmo_polarized_energy": -11.97, 
			 "cosmo_cavitation_energy": 37.92, 
			 "cosmo_dispersion_energy": -27.01, 
			 "cosmo_repulsion_energy": 2.05, 
			 "cosmo_total_nonelectrostatic_energy": 12.97, 
			 "SMD_solvation_energy": 6.33 
		},
		"coords": [
			{
				"x": -4.4429814394,
				"y": 0.1236759543,
				"z": 0.0581861471,
				"element": "Cl" 
			},
			{
				"x": -2.8354982125,
				"y": -0.2864548839,
				"z": -0.3772374314,
				"element": "C" 
			},
			{
				"x": -2.3077389052,
				"y": -0.5277803388,
				"z": -1.6452163311,
				"element": "C" 
			},
			{
				"x": -3.0079766296,
				"y": -0.4519876072,
				"z": -2.9289001924,
				"element": "C" 
			},
			{
				"x": -4.2140541923,
				"y": -0.3316289003,
				"z": -3.061851148,
				"element": "O" 
			},
			{
				"x": -0.9093949116,
				"y": -0.7210792283,
				"z": -1.4008010879,
				"element": "C" 
			},
			{
				"x": -0.6244983973,
				"y": -0.5998916372,
				"z": -0.1066325778,
				"element": "N" 
			},
			{
				"x": -1.8124294253,
				"y": -0.3373955258,
				"z": 0.5165692366,
				"element": "N" 
			},
			{
				"x": -1.8158666522,
				"y": -0.1435136091,
				"z": 1.9325064954,
				"element": "C" 
			},
			{
				"x": -2.7630592778,
				"y": -0.7787622125,
				"z": 2.7392916255,
				"element": "C" 
			},
			{
				"x": -2.7284846056,
				"y": -0.5751808499,
				"z": 4.1188338156,
				"element": "C" 
			},
			{
				"x": -1.7481676714,
				"y": 0.2385755139,
				"z": 4.6886233504,
				"element": "C" 
			},
			{
				"x": -0.7938400416,
				"y": 0.8519028216,
				"z": 3.8735554566,
				"element": "C" 
			},
			{
				"x": -0.8243686926,
				"y": 0.6664809599,
				"z": 2.4931137676,
				"element": "C" 
			},
			{
				"x": 0.1712159095,
				"y": -1.0255405014,
				"z": -2.3582247676,
				"element": "C" 
			},
			{
				"x": 1.4432807923,
				"y": -0.4592991197,
				"z": -2.172354616,
				"element": "C" 
			},
			{
				"x": 2.480612193,
				"y": -0.746051214,
				"z": -3.0564273432,
				"element": "C" 
			},
			{
				"x": 2.2656325408,
				"y": -1.6019138021,
				"z": -4.1397405336,
				"element": "C" 
			},
			{
				"x": 1.0085548979,
				"y": -2.1784659327,
				"z": -4.3266721528,
				"element": "C" 
			},
			{
				"x": -0.0313913932,
				"y": -1.8968723015,
				"z": -3.4407013975,
				"element": "C" 
			},
			{
				"x": -2.340745615,
				"y": -0.4933855018,
				"z": -3.8132887763,
				"element": "H" 
			},
			{
				"x": -3.5065230518,
				"y": -1.4319645781,
				"z": 2.2982225798,
				"element": "H" 
			},
			{
				"x": -3.4640387754,
				"y": -1.0666066363,
				"z": 4.7482265053,
				"element": "H" 
			},
			{
				"x": -1.7237633583,
				"y": 0.3892675178,
				"z": 5.7635876513,
				"element": "H" 
			},
			{
				"x": -0.0248981658,
				"y": 1.4809006332,
				"z": 4.3116191693,
				"element": "H" 
			},
			{
				"x": -0.0901678666,
				"y": 1.1305673388,
				"z": 1.8450761857,
				"element": "H" 
			},
			{
				"x": 1.6034212559,
				"y": 0.207021952,
				"z": -1.3313441459,
				"element": "H" 
			},
			{
				"x": 3.4578169385,
				"y": -0.297342186,
				"z": -2.9029217583,
				"element": "H" 
			},
			{
				"x": 3.0744857139,
				"y": -1.821724308,
				"z": -4.8304276031,
				"element": "H" 
			},
			{
				"x": 0.8375374373,
				"y": -2.8573520327,
				"z": -5.1569644875,
				"element": "H" 
			},
			{
				"x": -0.9942703987,
				"y": -2.3802997841,
				"z": -3.5721056361,
				"element": "H" 
			}
		],
		 "valence_orbital": [ 
			{
				"type": "occ",
				"energy": -0.26816,
				"method": "rhf"
			},
			{
				"type": "occ",
				"energy": -0.25917,
				"method": "rhf"
			},
			{
				"type": "occ",
				"energy": -0.25498,
				"method": "rhf"
			},
			{
				"type": "occ",
				"energy": -0.24675,
				"method": "rhf"
			},
			{
				"type": "occ",
				"energy": -0.2339,
				"method": "rhf"
			},
			{
				"type": "unocc",
				"energy": -0.05483,
				"method": "rhf"
			},
			{
				"type": "unocc",
				"energy": -0.03888,
				"method": "rhf"
			},
			{
				"type": "unocc",
				"energy": -0.01842,
				"method": "rhf"
			},
			{
				"type": "unocc",
				"energy": -0.00901,
				"method": "rhf"
			},
			{
				"type": "unocc",
				"energy": -0.00686,
				"method": "rhf"
			}
		],
		"cosmo_sigma_profile": { 
			"-0.025": 0.0,
			"-0.024": 0.0,
			"-0.023": 0.0,
			"-0.022": 0.0,
			"-0.021": 0.0,
			"-0.02": 0.0,
			"-0.019": 0.0,
			"-0.018": 0.0,
			"-0.017": 0.0,
			"-0.016": 0.0,
			"-0.015": 0.0,
			"-0.014": 0.0,
			"-0.013": 0.0,
			"-0.012": 0.0,
			"-0.011": 0.0,
			"-0.01": 0.0,
			"-0.009": 0.0,
			"-0.008": 0.243569729576,
			"-0.007": 7.80596329072,
			"-0.006": 22.3356559262,
			"-0.005": 25.5949501355,
			"-0.004": 25.3724565391,
			"-0.003": 23.5302180708,
			"-0.002": 22.2195349631,
			"-0.001": 22.1655798174,
			"0.0": 25.262934292,
			"0.001": 21.2108282304,
			"0.002": 23.04443754,
			"0.003": 25.659023206,
			"0.004": 24.2928052967,
			"0.005": 12.1405431489,
			"0.006": 3.57419797056,
			"0.007": 2.7333133917,
			"0.008": 3.365247203,
			"0.009": 2.93065071992,
			"0.01": 4.22849147397,
			"0.011": 4.8408620507,
			"0.012": 4.05342419765,
			"0.013": 1.51989161328,
			"0.014": 0.0234324167354,
			"0.015": 0.0,
			"0.016": 0.0,
			"0.017": 0.0,
			"0.018": 0.0,
			"0.019": 0.0,
			"0.02": 0.0,
			"0.021": 0.0,
			"0.022": 0.0,
			"0.023": 0.0,
			"0.024": 0.0,
			"0.025": 0.0
		}
	}
}
