{
	 "smiles": "CC(C)N(CCC#N)C(C)=O", 
	 "Tm": 333.15, 
	 "num_atms": 25, 
	 "gaussian": { 
		 "optdone": 1, 
		 "sigma_profile": "yes", 
		 "theory": "DFT", 
		 "functional": "B3LYP", 
		 "basiset": "6-31G**", 
		 "properties": { 
			 "R2extent": 2742.5566, 
			 "electric_dipole_moment_norm": 6.50244548228, 
			 "electric_quadrupole_moment_norm": 15.7736152372, 
			 "total_energy": -498.016854967, 
			 "HOMO_LUMO_gap": 0.26341, 
			 "cosmo_polarized_energy": -15.57, 
			 "cosmo_cavitation_energy": 27.97, 
			 "cosmo_dispersion_energy": -18.88, 
			 "cosmo_repulsion_energy": 1.52, 
			 "cosmo_total_nonelectrostatic_energy": 10.62, 
			 "SMD_solvation_energy": 7.12 
		},
		"coords": [
			{
				"x": -1.3684665448,
				"y": -0.6218066168,
				"z": -2.2365842795,
				"element": "C" 
			},
			{
				"x": -0.1583968872,
				"y": -1.4286091736,
				"z": -1.7387027162,
				"element": "C" 
			},
			{
				"x": 0.6943691001,
				"y": -1.9912884379,
				"z": -2.8864971252,
				"element": "C" 
			},
			{
				"x": 0.6064181699,
				"y": -0.7127908186,
				"z": -0.6867041428,
				"element": "N" 
			},
			{
				"x": 0.322670391,
				"y": -1.0837968048,
				"z": 0.70121803,
				"element": "C" 
			},
			{
				"x": 1.3738948857,
				"y": -2.0716281678,
				"z": 1.2624090271,
				"element": "C" 
			},
			{
				"x": 1.0418746479,
				"y": -2.5150382626,
				"z": 2.6171101445,
				"element": "C" 
			},
			{
				"x": 0.7491247294,
				"y": -2.8596934999,
				"z": 3.6863220686,
				"element": "N" 
			},
			{
				"x": 1.5350792191,
				"y": 0.2973754296,
				"z": -0.8441564222,
				"element": "C" 
			},
			{
				"x": 1.8346310423,
				"y": 0.8540204132,
				"z": -2.2267681665,
				"element": "C" 
			},
			{
				"x": 2.1313571913,
				"y": 0.7465039239,
				"z": 0.1330721692,
				"element": "O" 
			},
			{
				"x": -1.9922462993,
				"y": -0.3000321063,
				"z": -1.3973741016,
				"element": "H" 
			},
			{
				"x": -1.9839604416,
				"y": -1.2352204066,
				"z": -2.9028906969,
				"element": "H" 
			},
			{
				"x": -1.064913393,
				"y": 0.270498809,
				"z": -2.7915841807,
				"element": "H" 
			},
			{
				"x": -0.5563044477,
				"y": -2.3046132693,
				"z": -1.2157313917,
				"element": "H" 
			},
			{
				"x": 1.584076522,
				"y": -2.4982237737,
				"z": -2.5011170776,
				"element": "H" 
			},
			{
				"x": 0.1017720507,
				"y": -2.7248127882,
				"z": -3.4423320672,
				"element": "H" 
			},
			{
				"x": 1.0130045741,
				"y": -1.2276291932,
				"z": -3.598183149,
				"element": "H" 
			},
			{
				"x": 0.3296086495,
				"y": -0.1829529808,
				"z": 1.3167255704,
				"element": "H" 
			},
			{
				"x": -0.6743196045,
				"y": -1.5287301081,
				"z": 0.7492063857,
				"element": "H" 
			},
			{
				"x": 2.3456259553,
				"y": -1.5689229193,
				"z": 1.2722299322,
				"element": "H" 
			},
			{
				"x": 1.454459655,
				"y": -2.9534064504,
				"z": 0.6160588258,
				"element": "H" 
			},
			{
				"x": 2.2604889561,
				"y": 1.8467628382,
				"z": -2.0782260762,
				"element": "H" 
			},
			{
				"x": 0.9626069817,
				"y": 0.9253213916,
				"z": -2.8781637698,
				"element": "H" 
			},
			{
				"x": 2.5875448971,
				"y": 0.2369129723,
				"z": -2.7272367901,
				"element": "H" 
			}
		],
		 "valence_orbital": [ 
			{
				"type": "occ",
				"energy": -0.35112,
				"method": "rhf"
			},
			{
				"type": "occ",
				"energy": -0.32267,
				"method": "rhf"
			},
			{
				"type": "occ",
				"energy": -0.31853,
				"method": "rhf"
			},
			{
				"type": "occ",
				"energy": -0.25521,
				"method": "rhf"
			},
			{
				"type": "occ",
				"energy": -0.24957,
				"method": "rhf"
			},
			{
				"type": "unocc",
				"energy": 0.01384,
				"method": "rhf"
			},
			{
				"type": "unocc",
				"energy": 0.03408,
				"method": "rhf"
			},
			{
				"type": "unocc",
				"energy": 0.04302,
				"method": "rhf"
			},
			{
				"type": "unocc",
				"energy": 0.05774,
				"method": "rhf"
			},
			{
				"type": "unocc",
				"energy": 0.08337,
				"method": "rhf"
			}
		],
		"cosmo_sigma_profile": { 
			"-0.025": 0.0,
			"-0.024": 0.0,
			"-0.023": 0.0,
			"-0.022": 0.0,
			"-0.021": 0.0,
			"-0.02": 0.0,
			"-0.019": 0.0,
			"-0.018": 0.0,
			"-0.017": 0.0,
			"-0.016": 0.0,
			"-0.015": 0.0,
			"-0.014": 0.0,
			"-0.013": 0.0,
			"-0.012": 0.0,
			"-0.011": 0.0,
			"-0.01": 0.0,
			"-0.009": 0.0,
			"-0.008": 2.37302234363,
			"-0.007": 8.71900135068,
			"-0.006": 10.8826547914,
			"-0.005": 15.8275810786,
			"-0.004": 26.6226999461,
			"-0.003": 26.2029974843,
			"-0.002": 22.1895784963,
			"-0.001": 22.2152071666,
			"0.0": 19.3136062302,
			"0.001": 10.2681667131,
			"0.002": 3.92411839726,
			"0.003": 3.73712992329,
			"0.004": 3.44151663427,
			"0.005": 3.00677344786,
			"0.006": 4.50033269656,
			"0.007": 3.67752410657,
			"0.008": 4.71361011885,
			"0.009": 4.68437635482,
			"0.01": 4.81974243386,
			"0.011": 3.90085871183,
			"0.012": 4.5489223409,
			"0.013": 4.40395217369,
			"0.014": 3.91874652981,
			"0.015": 1.66997838208,
			"0.016": 0.0557705474396,
			"0.017": 0.0,
			"0.018": 0.0,
			"0.019": 0.0,
			"0.02": 0.0,
			"0.021": 0.0,
			"0.022": 0.0,
			"0.023": 0.0,
			"0.024": 0.0,
			"0.025": 0.0
		}
	}
}
