{
	 "smiles": "CCOC(=O)C(=O)CC(=O)C1=CC2=C(OCO2)C=C1", 
	 "Tm": 335.15, 
	 "num_atms": 31, 
	 "gaussian": { 
		 "optdone": 1, 
		 "sigma_profile": "yes", 
		 "theory": "DFT", 
		 "functional": "B3LYP", 
		 "basiset": "6-31G**", 
		 "properties": { 
			 "R2extent": 7270.4771, 
			 "electric_dipole_moment_norm": 7.26955274553, 
			 "electric_quadrupole_moment_norm": 26.745134556, 
			 "total_energy": -953.926885075, 
			 "HOMO_LUMO_gap": 0.16343, 
			 "cosmo_polarized_energy": -18.85, 
			 "cosmo_cavitation_energy": 36.99, 
			 "cosmo_dispersion_energy": -25.82, 
			 "cosmo_repulsion_energy": 2.03, 
			 "cosmo_total_nonelectrostatic_energy": 13.19, 
			 "SMD_solvation_energy": 9.22 
		},
		"coords": [
			{
				"x": -3.1552084543,
				"y": 2.1283909827,
				"z": 1.5040521212,
				"element": "C" 
			},
			{
				"x": -3.0758413924,
				"y": 1.1488028572,
				"z": 2.6582936766,
				"element": "C" 
			},
			{
				"x": -1.7158147349,
				"y": 0.649722839,
				"z": 2.7179752537,
				"element": "O" 
			},
			{
				"x": -1.4634029563,
				"y": -0.2397828096,
				"z": 3.6978503657,
				"element": "C" 
			},
			{
				"x": -2.2549334962,
				"y": -0.6008185313,
				"z": 4.5329799355,
				"element": "O" 
			},
			{
				"x": 0.0047593913,
				"y": -0.7176209141,
				"z": 3.6468896437,
				"element": "C" 
			},
			{
				"x": 0.4926313711,
				"y": -1.216338913,
				"z": 4.6336411247,
				"element": "O" 
			},
			{
				"x": 0.7778071885,
				"y": -0.5211772975,
				"z": 2.3518827152,
				"element": "C" 
			},
			{
				"x": 0.1588951313,
				"y": -1.3402043728,
				"z": 1.2158470253,
				"element": "C" 
			},
			{
				"x": -0.8269951123,
				"y": -2.0313402099,
				"z": 1.4387312297,
				"element": "O" 
			},
			{
				"x": 0.7798227349,
				"y": -1.2868080275,
				"z": -0.1346902952,
				"element": "C" 
			},
			{
				"x": 0.1804442674,
				"y": -2.0722655677,
				"z": -1.1514599378,
				"element": "C" 
			},
			{
				"x": 0.7538386066,
				"y": -2.0251409022,
				"z": -2.3984704749,
				"element": "C" 
			},
			{
				"x": 1.879859754,
				"y": -1.2412013977,
				"z": -2.6679672018,
				"element": "C" 
			},
			{
				"x": 2.2360354446,
				"y": -1.3750379813,
				"z": -3.9777867527,
				"element": "O" 
			},
			{
				"x": 1.3175869726,
				"y": -2.3225171035,
				"z": -4.5498910056,
				"element": "C" 
			},
			{
				"x": 0.366463492,
				"y": -2.6773284154,
				"z": -3.5429650668,
				"element": "O" 
			},
			{
				"x": 2.4826683616,
				"y": -0.4665361782,
				"z": -1.6943592594,
				"element": "C" 
			},
			{
				"x": 1.909352211,
				"y": -0.5039236902,
				"z": -0.4137849589,
				"element": "C" 
			},
			{
				"x": -2.9037301899,
				"y": 1.6395343108,
				"z": 0.5585834121,
				"element": "H" 
			},
			{
				"x": -4.17209067,
				"y": 2.5252659689,
				"z": 1.4259751573,
				"element": "H" 
			},
			{
				"x": -2.470266339,
				"y": 2.9681415972,
				"z": 1.6536754993,
				"element": "H" 
			},
			{
				"x": -3.7483841333,
				"y": 0.2961025697,
				"z": 2.5255069736,
				"element": "H" 
			},
			{
				"x": -3.3173005884,
				"y": 1.6163186197,
				"z": 3.6178716024,
				"element": "H" 
			},
			{
				"x": 0.7775629196,
				"y": 0.5404300407,
				"z": 2.0785614067,
				"element": "H" 
			},
			{
				"x": 1.812429413,
				"y": -0.8309030579,
				"z": 2.5288194431,
				"element": "H" 
			},
			{
				"x": -0.6908382187,
				"y": -2.6745601033,
				"z": -0.9254979598,
				"element": "H" 
			},
			{
				"x": 0.8023067392,
				"y": -1.8583739246,
				"z": -5.3979966469,
				"element": "H" 
			},
			{
				"x": 1.8711748596,
				"y": -3.2143527454,
				"z": -4.868569655,
				"element": "H" 
			},
			{
				"x": 3.3555170224,
				"y": 0.136919658,
				"z": -1.9142760963,
				"element": "H" 
			},
			{
				"x": 2.364250405,
				"y": 0.091502699,
				"z": 0.3698787253,
				"element": "H" 
			}
		],
		 "valence_orbital": [ 
			{
				"type": "occ",
				"energy": -0.29431,
				"method": "rhf"
			},
			{
				"type": "occ",
				"energy": -0.26689,
				"method": "rhf"
			},
			{
				"type": "occ",
				"energy": -0.26503,
				"method": "rhf"
			},
			{
				"type": "occ",
				"energy": -0.25151,
				"method": "rhf"
			},
			{
				"type": "occ",
				"energy": -0.2281,
				"method": "rhf"
			},
			{
				"type": "unocc",
				"energy": -0.06467,
				"method": "rhf"
			},
			{
				"type": "unocc",
				"energy": -0.0622,
				"method": "rhf"
			},
			{
				"type": "unocc",
				"energy": -0.01587,
				"method": "rhf"
			},
			{
				"type": "unocc",
				"energy": 0.03827,
				"method": "rhf"
			},
			{
				"type": "unocc",
				"energy": 0.05874,
				"method": "rhf"
			}
		],
		"cosmo_sigma_profile": { 
			"-0.025": 0.0,
			"-0.024": 0.0,
			"-0.023": 0.0,
			"-0.022": 0.0,
			"-0.021": 0.0,
			"-0.02": 0.0,
			"-0.019": 0.0,
			"-0.018": 0.0,
			"-0.017": 0.0,
			"-0.016": 0.0,
			"-0.015": 0.0,
			"-0.014": 0.0,
			"-0.013": 0.0,
			"-0.012": 0.0,
			"-0.011": 0.0,
			"-0.01": 0.0,
			"-0.009": 0.870935419261,
			"-0.008": 14.7166852308,
			"-0.007": 17.2450364736,
			"-0.006": 17.4476721189,
			"-0.005": 20.1339645144,
			"-0.004": 23.2411327146,
			"-0.003": 18.7668450237,
			"-0.002": 18.5435181815,
			"-0.001": 17.6456415593,
			"0.0": 19.5028913806,
			"0.001": 20.1991507748,
			"0.002": 20.4351346886,
			"0.003": 16.3032766215,
			"0.004": 9.72419809466,
			"0.005": 6.70640100252,
			"0.006": 7.09957576683,
			"0.007": 7.19769788223,
			"0.008": 7.83563985994,
			"0.009": 10.0933709594,
			"0.01": 9.91012274611,
			"0.011": 8.18911759117,
			"0.012": 2.86913383358,
			"0.013": 0.182558121002,
			"0.014": 0.0,
			"0.015": 0.0,
			"0.016": 0.0,
			"0.017": 0.0,
			"0.018": 0.0,
			"0.019": 0.0,
			"0.02": 0.0,
			"0.021": 0.0,
			"0.022": 0.0,
			"0.023": 0.0,
			"0.024": 0.0,
			"0.025": 0.0
		}
	}
}
