{
	 "smiles": "OC1=CC2=CC=CC(O)=C2C=C1", 
	 "Tm": 411.15, 
	 "num_atms": 20, 
	 "gaussian": { 
		 "optdone": 1, 
		 "sigma_profile": "yes", 
		 "theory": "DFT", 
		 "functional": "B3LYP", 
		 "basiset": "6-31G**", 
		 "properties": { 
			 "R2extent": 2337.0067, 
			 "electric_dipole_moment_norm": 2.59434732833, 
			 "electric_quadrupole_moment_norm": 11.561365912, 
			 "total_energy": -536.332358203, 
			 "HOMO_LUMO_gap": 0.16144, 
			 "cosmo_polarized_energy": -13.68, 
			 "cosmo_cavitation_energy": 23.69, 
			 "cosmo_dispersion_energy": -18.1, 
			 "cosmo_repulsion_energy": 1.41, 
			 "cosmo_total_nonelectrostatic_energy": 7.0, 
			 "SMD_solvation_energy": 4.36 
		},
		"coords": [
			{
				"x": 2.5708087802,
				"y": 0.7285051411,
				"z": 0.400580229,
				"element": "O" 
			},
			{
				"x": 1.3070307908,
				"y": 0.351003266,
				"z": 0.0424442708,
				"element": "C" 
			},
			{
				"x": 0.4720021472,
				"y": -0.1508221604,
				"z": 1.0188625912,
				"element": "C" 
			},
			{
				"x": -0.849120141,
				"y": -0.5606508569,
				"z": 0.7095487825,
				"element": "C" 
			},
			{
				"x": -1.7266114231,
				"y": -1.0614792367,
				"z": 1.7090009636,
				"element": "C" 
			},
			{
				"x": -3.0064292898,
				"y": -1.4451251018,
				"z": 1.3776434213,
				"element": "C" 
			},
			{
				"x": -3.4706033119,
				"y": -1.3699105928,
				"z": 0.0463532666,
				"element": "C" 
			},
			{
				"x": -2.6415997155,
				"y": -0.89484962,
				"z": -0.9491204075,
				"element": "C" 
			},
			{
				"x": -3.1473282277,
				"y": -0.8482958806,
				"z": -2.2190948267,
				"element": "O" 
			},
			{
				"x": -1.3127557948,
				"y": -0.4590711117,
				"z": -0.6470065591,
				"element": "C" 
			},
			{
				"x": -0.4311757172,
				"y": 0.0792573543,
				"z": -1.6195932315,
				"element": "C" 
			},
			{
				"x": 0.8463241301,
				"y": 0.4734623313,
				"z": -1.2923087705,
				"element": "C" 
			},
			{
				"x": 3.0365050227,
				"y": 1.0609884785,
				"z": -0.377178636,
				"element": "H" 
			},
			{
				"x": 0.8374016586,
				"y": -0.2264005891,
				"z": 2.0381009124,
				"element": "H" 
			},
			{
				"x": -1.3721592554,
				"y": -1.1320148377,
				"z": 2.732967053,
				"element": "H" 
			},
			{
				"x": -3.674573957,
				"y": -1.8242973941,
				"z": 2.1457195724,
				"element": "H" 
			},
			{
				"x": -4.4724444742,
				"y": -1.6904109665,
				"z": -0.2180406129,
				"element": "H" 
			},
			{
				"x": -2.4321510903,
				"y": -0.7087218823,
				"z": -2.8509554318,
				"element": "H" 
			},
			{
				"x": -0.7566273846,
				"y": 0.2166892994,
				"z": -2.6483931093,
				"element": "H" 
			},
			{
				"x": 1.5028072529,
				"y": 0.8884443599,
				"z": -2.0542294773,
				"element": "H" 
			}
		],
		 "valence_orbital": [ 
			{
				"type": "occ",
				"energy": -0.33548,
				"method": "rhf"
			},
			{
				"type": "occ",
				"energy": -0.30783,
				"method": "rhf"
			},
			{
				"type": "occ",
				"energy": -0.26177,
				"method": "rhf"
			},
			{
				"type": "occ",
				"energy": -0.23085,
				"method": "rhf"
			},
			{
				"type": "occ",
				"energy": -0.19569,
				"method": "rhf"
			},
			{
				"type": "unocc",
				"energy": -0.03425,
				"method": "rhf"
			},
			{
				"type": "unocc",
				"energy": -0.00164,
				"method": "rhf"
			},
			{
				"type": "unocc",
				"energy": 0.04218,
				"method": "rhf"
			},
			{
				"type": "unocc",
				"energy": 0.05952,
				"method": "rhf"
			},
			{
				"type": "unocc",
				"energy": 0.0664,
				"method": "rhf"
			}
		],
		"cosmo_sigma_profile": { 
			"-0.025": 0.0,
			"-0.024": 0.0,
			"-0.023": 0.0,
			"-0.022": 0.0,
			"-0.021": 0.0,
			"-0.02": 0.0,
			"-0.019": 0.0,
			"-0.018": 0.547587451021,
			"-0.017": 2.11323108497,
			"-0.016": 2.15374953081,
			"-0.015": 1.84193672456,
			"-0.014": 2.48894019715,
			"-0.013": 2.03717120843,
			"-0.012": 1.24716827722,
			"-0.011": 1.72799206667,
			"-0.01": 2.4859831575,
			"-0.009": 2.53101048261,
			"-0.008": 2.50672816555,
			"-0.007": 3.1360983698,
			"-0.006": 5.73686180919,
			"-0.005": 12.2468307183,
			"-0.004": 10.6254067047,
			"-0.003": 10.6093582031,
			"-0.002": 7.86909724342,
			"-0.001": 6.90259041948,
			"0.0": 6.86641916844,
			"0.001": 9.94262561579,
			"0.002": 10.6060121315,
			"0.003": 13.456685714,
			"0.004": 25.1066966508,
			"0.005": 18.6328162894,
			"0.006": 8.62208321911,
			"0.007": 2.93436994797,
			"0.008": 3.28529803487,
			"0.009": 2.64866357312,
			"0.01": 3.568597739,
			"0.011": 3.68494475547,
			"0.012": 1.34725968904,
			"0.013": 0.0,
			"0.014": 0.0,
			"0.015": 0.0,
			"0.016": 0.0,
			"0.017": 0.0,
			"0.018": 0.0,
			"0.019": 0.0,
			"0.02": 0.0,
			"0.021": 0.0,
			"0.022": 0.0,
			"0.023": 0.0,
			"0.024": 0.0,
			"0.025": 0.0
		}
	}
}
