{
	 "smiles": "CC1=CC=CC(C)=C1NS(=O)(=O)C1=CC=C(N)C=C1", 
	 "Tm": 486.15, 
	 "num_atms": 35, 
	 "gaussian": { 
		 "optdone": 1, 
		 "sigma_profile": "yes", 
		 "theory": "DFT", 
		 "functional": "B3LYP", 
		 "basiset": "6-31G**", 
		 "properties": { 
			 "R2extent": 6216.5508, 
			 "electric_dipole_moment_norm": 6.02846794717, 
			 "electric_quadrupole_moment_norm": 27.0882452955, 
			 "total_energy": -1201.21914645, 
			 "HOMO_LUMO_gap": 0.19872, 
			 "cosmo_polarized_energy": -19.7, 
			 "cosmo_cavitation_energy": 38.68, 
			 "cosmo_dispersion_energy": -27.17, 
			 "cosmo_repulsion_energy": 2.04, 
			 "cosmo_total_nonelectrostatic_energy": 13.54, 
			 "SMD_solvation_energy": 5.75 
		},
		"coords": [
			{
				"x": -2.3068579485,
				"y": -0.4357917169,
				"z": -0.5472042731,
				"element": "C" 
			},
			{
				"x": -1.3878279544,
				"y": 0.0761921961,
				"z": -1.6302898722,
				"element": "C" 
			},
			{
				"x": -1.6727970709,
				"y": 1.2933463329,
				"z": -2.2632288118,
				"element": "C" 
			},
			{
				"x": -0.8700703302,
				"y": 1.7736564238,
				"z": -3.2931967603,
				"element": "C" 
			},
			{
				"x": 0.2334584676,
				"y": 1.0343703708,
				"z": -3.7157476561,
				"element": "C" 
			},
			{
				"x": 0.5636779002,
				"y": -0.1786471936,
				"z": -3.104454405,
				"element": "C" 
			},
			{
				"x": 1.7654017616,
				"y": -0.9621946858,
				"z": -3.5762972702,
				"element": "C" 
			},
			{
				"x": -0.2520012281,
				"y": -0.644427478,
				"z": -2.0495490214,
				"element": "C" 
			},
			{
				"x": 0.0254994203,
				"y": -1.9115620731,
				"z": -1.4226780272,
				"element": "N" 
			},
			{
				"x": 1.2119943226,
				"y": -2.0359780075,
				"z": -0.1851136209,
				"element": "S" 
			},
			{
				"x": 1.6437291491,
				"y": -3.4366605541,
				"z": -0.2819469417,
				"element": "O" 
			},
			{
				"x": 2.1764680767,
				"y": -0.932703492,
				"z": -0.2798810211,
				"element": "O" 
			},
			{
				"x": 0.3087739412,
				"y": -1.8142296122,
				"z": 1.3303042146,
				"element": "C" 
			},
			{
				"x": -0.5024448627,
				"y": -2.8467253967,
				"z": 1.8128600519,
				"element": "C" 
			},
			{
				"x": -1.2030499709,
				"y": -2.6757892966,
				"z": 2.9974224049,
				"element": "C" 
			},
			{
				"x": -1.1017089065,
				"y": -1.4709546044,
				"z": 3.7248179641,
				"element": "C" 
			},
			{
				"x": -1.7619613379,
				"y": -1.3214685886,
				"z": 4.9310502811,
				"element": "N" 
			},
			{
				"x": -0.2707275386,
				"y": -0.4470533778,
				"z": 3.2285570924,
				"element": "C" 
			},
			{
				"x": 0.4318305621,
				"y": -0.6184233417,
				"z": 2.041888549,
				"element": "C" 
			},
			{
				"x": -3.3118733047,
				"y": -0.0227969436,
				"z": -0.6743336971,
				"element": "H" 
			},
			{
				"x": -2.366332767,
				"y": -1.526108906,
				"z": -0.5630637307,
				"element": "H" 
			},
			{
				"x": -1.9562728821,
				"y": -0.1500631521,
				"z": 0.4507120694,
				"element": "H" 
			},
			{
				"x": -2.5473106106,
				"y": 1.8573159612,
				"z": -1.9492789301,
				"element": "H" 
			},
			{
				"x": -1.110141172,
				"y": 2.7165543311,
				"z": -3.7765485458,
				"element": "H" 
			},
			{
				"x": 0.8538092407,
				"y": 1.4016590479,
				"z": -4.5287853403,
				"element": "H" 
			},
			{
				"x": 1.4979317184,
				"y": -1.9767225505,
				"z": -3.8992111433,
				"element": "H" 
			},
			{
				"x": 2.2358074911,
				"y": -0.4661359101,
				"z": -4.4289254539,
				"element": "H" 
			},
			{
				"x": 2.5092868878,
				"y": -1.0574544835,
				"z": -2.7800237347,
				"element": "H" 
			},
			{
				"x": 0.2648395917,
				"y": -2.6539038262,
				"z": -2.0769013601,
				"element": "H" 
			},
			{
				"x": -0.5736712603,
				"y": -3.7799089713,
				"z": 1.2643597726,
				"element": "H" 
			},
			{
				"x": -1.8276990757,
				"y": -3.4794698443,
				"z": 3.3781856584,
				"element": "H" 
			},
			{
				"x": -2.5493696601,
				"y": -1.9291025719,
				"z": 5.1014629012,
				"element": "H" 
			},
			{
				"x": -1.8960942257,
				"y": -0.3792827152,
				"z": 5.2666030733,
				"element": "H" 
			},
			{
				"x": -0.1703440226,
				"y": 0.4795935346,
				"z": 3.7873987278,
				"element": "H" 
			},
			{
				"x": 1.0808475984,
				"y": 0.1632710953,
				"z": 1.6631368564,
				"element": "H" 
			}
		],
		 "valence_orbital": [ 
			{
				"type": "occ",
				"energy": -0.27405,
				"method": "rhf"
			},
			{
				"type": "occ",
				"energy": -0.26639,
				"method": "rhf"
			},
			{
				"type": "occ",
				"energy": -0.23528,
				"method": "rhf"
			},
			{
				"type": "occ",
				"energy": -0.23433,
				"method": "rhf"
			},
			{
				"type": "occ",
				"energy": -0.22131,
				"method": "rhf"
			},
			{
				"type": "unocc",
				"energy": -0.02259,
				"method": "rhf"
			},
			{
				"type": "unocc",
				"energy": -0.01531,
				"method": "rhf"
			},
			{
				"type": "unocc",
				"energy": -0.00644,
				"method": "rhf"
			},
			{
				"type": "unocc",
				"energy": 0.00545,
				"method": "rhf"
			},
			{
				"type": "unocc",
				"energy": 0.05902,
				"method": "rhf"
			}
		],
		"cosmo_sigma_profile": { 
			"-0.025": 0.0,
			"-0.024": 0.0,
			"-0.023": 0.0,
			"-0.022": 0.0,
			"-0.021": 0.0,
			"-0.02": 0.0,
			"-0.019": 0.0,
			"-0.018": 0.0,
			"-0.017": 0.0,
			"-0.016": 0.0,
			"-0.015": 0.0,
			"-0.014": 0.336394750683,
			"-0.013": 3.73963092981,
			"-0.012": 3.39622900284,
			"-0.011": 4.1582936671,
			"-0.01": 5.66399219194,
			"-0.009": 3.37602388626,
			"-0.008": 3.89255248728,
			"-0.007": 7.15537383413,
			"-0.006": 11.5350624601,
			"-0.005": 16.886940759,
			"-0.004": 19.2248497948,
			"-0.003": 17.4491786626,
			"-0.002": 19.8223281912,
			"-0.001": 22.4749508833,
			"0.0": 26.9588818152,
			"0.001": 24.7069996249,
			"0.002": 21.8963245814,
			"0.003": 19.530662388,
			"0.004": 19.7516320925,
			"0.005": 11.926505536,
			"0.006": 8.80376891222,
			"0.007": 4.66545519412,
			"0.008": 4.5103385389,
			"0.009": 5.29173964356,
			"0.01": 5.68214006232,
			"0.011": 9.25150709772,
			"0.012": 4.62025277857,
			"0.013": 0.109117653467,
			"0.014": 0.0,
			"0.015": 0.0,
			"0.016": 0.0,
			"0.017": 0.0,
			"0.018": 0.0,
			"0.019": 0.0,
			"0.02": 0.0,
			"0.021": 0.0,
			"0.022": 0.0,
			"0.023": 0.0,
			"0.024": 0.0,
			"0.025": 0.0
		}
	}
}
