{
	 "smiles": "CSC1=NN(C(C)=O)C(NC(C)=O)=N1", 
	 "Tm": 500.15, 
	 "num_atms": 24, 
	 "gaussian": { 
		 "optdone": 1, 
		 "sigma_profile": "yes", 
		 "theory": "DFT", 
		 "functional": "B3LYP", 
		 "basiset": "6-31G**", 
		 "properties": { 
			 "R2extent": 4120.9919, 
			 "electric_dipole_moment_norm": 7.61598025601, 
			 "electric_quadrupole_moment_norm": 14.725273137, 
			 "total_energy": -1040.41000415, 
			 "HOMO_LUMO_gap": 0.17134, 
			 "cosmo_polarized_energy": -22.11, 
			 "cosmo_cavitation_energy": 30.39, 
			 "cosmo_dispersion_energy": -22.28, 
			 "cosmo_repulsion_energy": 1.75, 
			 "cosmo_total_nonelectrostatic_energy": 9.86, 
			 "SMD_solvation_energy": 4.71 
		},
		"coords": [
			{
				"x": 4.5329519002,
				"y": 0.6179092262,
				"z": -1.1140710865,
				"element": "C" 
			},
			{
				"x": 4.3496490423,
				"y": 0.3666234247,
				"z": 0.6858727898,
				"element": "S" 
			},
			{
				"x": 2.6097547577,
				"y": 0.0920090078,
				"z": 0.7833979037,
				"element": "C" 
			},
			{
				"x": 2.0435569197,
				"y": -0.2207664719,
				"z": 1.9322644347,
				"element": "N" 
			},
			{
				"x": 0.7075315558,
				"y": -0.2861137158,
				"z": 1.600749581,
				"element": "N" 
			},
			{
				"x": -0.2496665876,
				"y": -0.5335507658,
				"z": 2.6660825796,
				"element": "C" 
			},
			{
				"x": -1.5885230948,
				"y": 0.156251908,
				"z": 2.5495343779,
				"element": "C" 
			},
			{
				"x": 0.0970031126,
				"y": -1.1671208372,
				"z": 3.6254413302,
				"element": "O" 
			},
			{
				"x": 0.5854565963,
				"y": -0.0590266241,
				"z": 0.2585989308,
				"element": "C" 
			},
			{
				"x": -0.586181008,
				"y": -0.0947832566,
				"z": -0.4972441004,
				"element": "N" 
			},
			{
				"x": -1.5233221247,
				"y": -1.132534505,
				"z": -0.4454354614,
				"element": "C" 
			},
			{
				"x": -2.4625322196,
				"y": -1.1730003465,
				"z": -1.6342246837,
				"element": "C" 
			},
			{
				"x": -1.570503213,
				"y": -1.9157434383,
				"z": 0.4837013199,
				"element": "O" 
			},
			{
				"x": 1.7584894223,
				"y": 0.1910959343,
				"z": -0.2880689325,
				"element": "N" 
			},
			{
				"x": 4.2310866323,
				"y": -0.2731258721,
				"z": -1.6656627791,
				"element": "H" 
			},
			{
				"x": 3.9495290943,
				"y": 1.4754205321,
				"z": -1.4501869251,
				"element": "H" 
			},
			{
				"x": 5.5960344528,
				"y": 0.808330886,
				"z": -1.2750773859,
				"element": "H" 
			},
			{
				"x": -1.6952326489,
				"y": 0.7616814001,
				"z": 1.6500789302,
				"element": "H" 
			},
			{
				"x": -2.3786131213,
				"y": -0.5955183871,
				"z": 2.5836796756,
				"element": "H" 
			},
			{
				"x": -1.6900148878,
				"y": 0.7988277816,
				"z": 3.4292905736,
				"element": "H" 
			},
			{
				"x": -0.4643411767,
				"y": 0.3662259376,
				"z": -1.3907612418,
				"element": "H" 
			},
			{
				"x": -2.7871629225,
				"y": -0.1715124104,
				"z": -1.9322892703,
				"element": "H" 
			},
			{
				"x": -1.9569270269,
				"y": -1.6355574883,
				"z": -2.4895758869,
				"element": "H" 
			},
			{
				"x": -3.3293234547,
				"y": -1.7800219191,
				"z": -1.3742946735,
				"element": "H" 
			}
		],
		 "valence_orbital": [ 
			{
				"type": "occ",
				"energy": -0.29474,
				"method": "rhf"
			},
			{
				"type": "occ",
				"energy": -0.29004,
				"method": "rhf"
			},
			{
				"type": "occ",
				"energy": -0.27488,
				"method": "rhf"
			},
			{
				"type": "occ",
				"energy": -0.26963,
				"method": "rhf"
			},
			{
				"type": "occ",
				"energy": -0.21948,
				"method": "rhf"
			},
			{
				"type": "unocc",
				"energy": -0.04814,
				"method": "rhf"
			},
			{
				"type": "unocc",
				"energy": -0.01218,
				"method": "rhf"
			},
			{
				"type": "unocc",
				"energy": 0.0297,
				"method": "rhf"
			},
			{
				"type": "unocc",
				"energy": 0.03368,
				"method": "rhf"
			},
			{
				"type": "unocc",
				"energy": 0.04478,
				"method": "rhf"
			}
		],
		"cosmo_sigma_profile": { 
			"-0.025": 0.0,
			"-0.024": 0.0,
			"-0.023": 0.0,
			"-0.022": 0.0,
			"-0.021": 0.0,
			"-0.02": 0.0,
			"-0.019": 0.0,
			"-0.018": 0.0,
			"-0.017": 0.343101130029,
			"-0.016": 0.96523090454,
			"-0.015": 1.02695858316,
			"-0.014": 1.08694418896,
			"-0.013": 0.908819785456,
			"-0.012": 1.3569752653,
			"-0.011": 1.5665256389,
			"-0.01": 1.34881098652,
			"-0.009": 1.71910339571,
			"-0.008": 3.3962888894,
			"-0.007": 9.876971494,
			"-0.006": 15.9939099499,
			"-0.005": 19.2053675418,
			"-0.004": 20.3835926118,
			"-0.003": 22.5464731285,
			"-0.002": 22.3207538354,
			"-0.001": 11.5782635068,
			"0.0": 8.32645801956,
			"0.001": 9.1388969599,
			"0.002": 8.26510758915,
			"0.003": 11.0125722435,
			"0.004": 10.5649714644,
			"0.005": 10.2694796665,
			"0.006": 7.58577448542,
			"0.007": 7.60600696542,
			"0.008": 6.06778752029,
			"0.009": 6.65770035426,
			"0.01": 7.02144273449,
			"0.011": 7.25429844796,
			"0.012": 3.50007424013,
			"0.013": 2.27454522913,
			"0.014": 1.60654051748,
			"0.015": 0.889422465328,
			"0.016": 0.0108903049592,
			"0.017": 0.0,
			"0.018": 0.0,
			"0.019": 0.0,
			"0.02": 0.0,
			"0.021": 0.0,
			"0.022": 0.0,
			"0.023": 0.0,
			"0.024": 0.0,
			"0.025": 0.0
		}
	}
}
