{
	 "smiles": "ClC1=C2C(SC=C2C2=CC=CS2)=NC(CN2CCOCC2)=N1", 
	 "Tm": 379.15, 
	 "num_atms": 36, 
	 "gaussian": { 
		 "optdone": 1, 
		 "sigma_profile": "yes", 
		 "theory": "DFT", 
		 "functional": "B3LYP", 
		 "basiset": "6-31G**", 
		 "properties": { 
			 "R2extent": 9225.6497, 
			 "electric_dipole_moment_norm": 3.36897257187, 
			 "electric_quadrupole_moment_norm": 6.95218325132, 
			 "total_energy": -2076.03156897, 
			 "HOMO_LUMO_gap": 0.13097, 
			 "cosmo_polarized_energy": -11.48, 
			 "cosmo_cavitation_energy": 43.45, 
			 "cosmo_dispersion_energy": -30.93, 
			 "cosmo_repulsion_energy": 2.29, 
			 "cosmo_total_nonelectrostatic_energy": 14.8, 
			 "SMD_solvation_energy": 1.98 
		},
		"coords": [
			{
				"x": 0.6486294635,
				"y": -0.2482065702,
				"z": -2.6218950678,
				"element": "Cl" 
			},
			{
				"x": 1.20598137,
				"y": -0.0132348388,
				"z": -0.9766713333,
				"element": "C" 
			},
			{
				"x": 0.8911344027,
				"y": -0.9397505578,
				"z": 0.0377707538,
				"element": "C" 
			},
			{
				"x": 1.4816798314,
				"y": -0.6028081581,
				"z": 1.2835211527,
				"element": "C" 
			},
			{
				"x": 1.1251220032,
				"y": -1.8025187257,
				"z": 2.5109210353,
				"element": "S" 
			},
			{
				"x": 0.1921929372,
				"y": -2.7174700993,
				"z": 1.3559214286,
				"element": "C" 
			},
			{
				"x": 0.1354094018,
				"y": -2.1773159882,
				"z": 0.1015580576,
				"element": "C" 
			},
			{
				"x": -0.6161298675,
				"y": -2.8329540775,
				"z": -0.9863763391,
				"element": "C" 
			},
			{
				"x": -0.2408116179,
				"y": -3.9236816986,
				"z": -1.7301404528,
				"element": "C" 
			},
			{
				"x": -1.2291441925,
				"y": -4.3326729657,
				"z": -2.6748195166,
				"element": "C" 
			},
			{
				"x": -2.3520067068,
				"y": -3.5531234341,
				"z": -2.6341814866,
				"element": "C" 
			},
			{
				"x": -2.2233236574,
				"y": -2.3064833047,
				"z": -1.4383771877,
				"element": "S" 
			},
			{
				"x": 2.2327613076,
				"y": 0.468983882,
				"z": 1.5255888424,
				"element": "N" 
			},
			{
				"x": 2.4242285152,
				"y": 1.2762278547,
				"z": 0.4785904295,
				"element": "C" 
			},
			{
				"x": 3.2380438014,
				"y": 2.5446535167,
				"z": 0.6962268637,
				"element": "C" 
			},
			{
				"x": 2.5126312313,
				"y": 3.7639546856,
				"z": 1.0241896521,
				"element": "N" 
			},
			{
				"x": 1.8631373894,
				"y": 3.8524215236,
				"z": 2.3315495673,
				"element": "C" 
			},
			{
				"x": 0.3675078252,
				"y": 3.5165118471,
				"z": 2.284134704,
				"element": "C" 
			},
			{
				"x": -0.2946239537,
				"y": 4.3068618184,
				"z": 1.3024715026,
				"element": "O" 
			},
			{
				"x": 0.2493940975,
				"y": 4.0792015261,
				"z": 0.0050852065,
				"element": "C" 
			},
			{
				"x": 1.7421185114,
				"y": 4.4292245476,
				"z": -0.0265341012,
				"element": "C" 
			},
			{
				"x": 1.9392990836,
				"y": 1.0586594589,
				"z": -0.7653465162,
				"element": "N" 
			},
			{
				"x": -0.2940431662,
				"y": -3.6308699384,
				"z": 1.6708602662,
				"element": "H" 
			},
			{
				"x": 0.7217174075,
				"y": -4.407825923,
				"z": -1.6097487265,
				"element": "H" 
			},
			{
				"x": -1.1062673963,
				"y": -5.1689443097,
				"z": -3.3534271456,
				"element": "H" 
			},
			{
				"x": -3.2487313444,
				"y": -3.6363288134,
				"z": -3.2327436955,
				"element": "H" 
			},
			{
				"x": 3.8113934534,
				"y": 2.7312058324,
				"z": -0.2178125294,
				"element": "H" 
			},
			{
				"x": 3.9419775695,
				"y": 2.3418872028,
				"z": 1.5102665547,
				"element": "H" 
			},
			{
				"x": 2.3799523087,
				"y": 3.195720997,
				"z": 3.0387410271,
				"element": "H" 
			},
			{
				"x": 1.9641243392,
				"y": 4.8864354256,
				"z": 2.6944081842,
				"element": "H" 
			},
			{
				"x": -0.1120830289,
				"y": 3.745766912,
				"z": 3.2415545577,
				"element": "H" 
			},
			{
				"x": 0.2199261796,
				"y": 2.4450215621,
				"z": 2.0726822987,
				"element": "H" 
			},
			{
				"x": 0.0947715643,
				"y": 3.0308376876,
				"z": -0.2937636597,
				"element": "H" 
			},
			{
				"x": -0.3132040248,
				"y": 4.7193646523,
				"z": -0.6823122844,
				"element": "H" 
			},
			{
				"x": 2.170147364,
				"y": 4.1813051093,
				"z": -1.0028462461,
				"element": "H" 
			},
			{
				"x": 1.8365875978,
				"y": 5.5160433609,
				"z": 0.1188542036,
				"element": "H" 
			}
		],
		 "valence_orbital": [ 
			{
				"type": "occ",
				"energy": -0.259,
				"method": "rhf"
			},
			{
				"type": "occ",
				"energy": -0.25703,
				"method": "rhf"
			},
			{
				"type": "occ",
				"energy": -0.2505,
				"method": "rhf"
			},
			{
				"type": "occ",
				"energy": -0.23704,
				"method": "rhf"
			},
			{
				"type": "occ",
				"energy": -0.19448,
				"method": "rhf"
			},
			{
				"type": "unocc",
				"energy": -0.06351,
				"method": "rhf"
			},
			{
				"type": "unocc",
				"energy": -0.04631,
				"method": "rhf"
			},
			{
				"type": "unocc",
				"energy": -0.02701,
				"method": "rhf"
			},
			{
				"type": "unocc",
				"energy": -4e-05,
				"method": "rhf"
			},
			{
				"type": "unocc",
				"energy": 0.0066,
				"method": "rhf"
			}
		],
		"cosmo_sigma_profile": { 
			"-0.025": 0.0,
			"-0.024": 0.0,
			"-0.023": 0.0,
			"-0.022": 0.0,
			"-0.021": 0.0,
			"-0.02": 0.0,
			"-0.019": 0.0,
			"-0.018": 0.0,
			"-0.017": 0.0,
			"-0.016": 0.0,
			"-0.015": 0.0,
			"-0.014": 0.0,
			"-0.013": 0.0,
			"-0.012": 0.0,
			"-0.011": 0.0169562835317,
			"-0.01": 1.64577073738,
			"-0.009": 2.27537540928,
			"-0.008": 3.83958198244,
			"-0.007": 6.22116528651,
			"-0.006": 6.86066053347,
			"-0.005": 17.3799030507,
			"-0.004": 27.2557937982,
			"-0.003": 37.8024227236,
			"-0.002": 40.4118927338,
			"-0.001": 34.9192612292,
			"0.0": 32.3579125241,
			"0.001": 26.1009410092,
			"0.002": 24.7764219118,
			"0.003": 23.471088467,
			"0.004": 21.8998350956,
			"0.005": 17.0391464574,
			"0.006": 4.80894874328,
			"0.007": 4.89383135181,
			"0.008": 3.06777607534,
			"0.009": 3.37779862075,
			"0.01": 3.23002815025,
			"0.011": 3.37341681539,
			"0.012": 2.13265175445,
			"0.013": 2.63701857608,
			"0.014": 0.952409033572,
			"0.015": 0.0,
			"0.016": 0.0,
			"0.017": 0.0,
			"0.018": 0.0,
			"0.019": 0.0,
			"0.02": 0.0,
			"0.021": 0.0,
			"0.022": 0.0,
			"0.023": 0.0,
			"0.024": 0.0,
			"0.025": 0.0
		}
	}
}
