{
	 "smiles": "O=C(CC1=CC=C(OC2=CC=CC=C2)C=C1)C1=CC=CC=C1", 
	 "Tm": 332.25, 
	 "num_atms": 38, 
	 "gaussian": { 
		 "optdone": 1, 
		 "sigma_profile": "yes", 
		 "theory": "DFT", 
		 "functional": "B3LYP", 
		 "basiset": "6-31G**", 
		 "properties": { 
			 "R2extent": 9521.8071, 
			 "electric_dipole_moment_norm": 2.45744304715, 
			 "electric_quadrupole_moment_norm": 17.1353663252, 
			 "total_energy": -922.214403605, 
			 "HOMO_LUMO_gap": 0.15679, 
			 "cosmo_polarized_energy": -11.57, 
			 "cosmo_cavitation_energy": 42.69, 
			 "cosmo_dispersion_energy": -29.84, 
			 "cosmo_repulsion_energy": 2.28, 
			 "cosmo_total_nonelectrostatic_energy": 15.12, 
			 "SMD_solvation_energy": 7.6 
		},
		"coords": [
			{
				"x": -2.6951593086,
				"y": 0.6549393911,
				"z": 2.1941981593,
				"element": "O" 
			},
			{
				"x": -1.5335696769,
				"y": 0.5485971596,
				"z": 2.5632955202,
				"element": "C" 
			},
			{
				"x": -0.575265051,
				"y": 1.7284718944,
				"z": 2.3740856893,
				"element": "C" 
			},
			{
				"x": 0.2324930326,
				"y": 1.6109001751,
				"z": 1.0899564294,
				"element": "C" 
			},
			{
				"x": 1.6283005249,
				"y": 1.7176817178,
				"z": 1.0960129428,
				"element": "C" 
			},
			{
				"x": 2.3649982523,
				"y": 1.6215849425,
				"z": -0.0838682594,
				"element": "C" 
			},
			{
				"x": 1.7037721269,
				"y": 1.4202188426,
				"z": -1.2960846153,
				"element": "C" 
			},
			{
				"x": 2.4839202539,
				"y": 1.412507042,
				"z": -2.4344596528,
				"element": "O" 
			},
			{
				"x": 2.1771225391,
				"y": 0.5883960436,
				"z": -3.5010007057,
				"element": "C" 
			},
			{
				"x": 1.7284530384,
				"y": -0.7255562255,
				"z": -3.3351815039,
				"element": "C" 
			},
			{
				"x": 1.5122641286,
				"y": -1.5181921503,
				"z": -4.4631507331,
				"element": "C" 
			},
			{
				"x": 1.7488908405,
				"y": -1.0149793319,
				"z": -5.7441585984,
				"element": "C" 
			},
			{
				"x": 2.2065943772,
				"y": 0.2959798547,
				"z": -5.8945127393,
				"element": "C" 
			},
			{
				"x": 2.4186762425,
				"y": 1.1025827452,
				"z": -4.7768312256,
				"element": "C" 
			},
			{
				"x": 0.3086153668,
				"y": 1.321701724,
				"z": -1.3278945203,
				"element": "C" 
			},
			{
				"x": -0.4125434756,
				"y": 1.4126168608,
				"z": -0.1395259962,
				"element": "C" 
			},
			{
				"x": -1.0405302112,
				"y": -0.7279519734,
				"z": 3.1727871485,
				"element": "C" 
			},
			{
				"x": -1.9776511878,
				"y": -1.7496171285,
				"z": 3.4001151601,
				"element": "C" 
			},
			{
				"x": -1.583626944,
				"y": -2.9560016487,
				"z": 3.969626643,
				"element": "C" 
			},
			{
				"x": -0.2437784876,
				"y": -3.1613951178,
				"z": 4.3138759616,
				"element": "C" 
			},
			{
				"x": 0.6973600115,
				"y": -2.1559050241,
				"z": 4.0853521573,
				"element": "C" 
			},
			{
				"x": 0.301760253,
				"y": -0.9435068802,
				"z": 3.5204098185,
				"element": "C" 
			},
			{
				"x": 0.0981758703,
				"y": 1.8299911267,
				"z": 3.2301629109,
				"element": "H" 
			},
			{
				"x": -1.2088724568,
				"y": 2.6204037471,
				"z": 2.3396497911,
				"element": "H" 
			},
			{
				"x": 2.1521166032,
				"y": 1.8833670625,
				"z": 2.0344539674,
				"element": "H" 
			},
			{
				"x": 3.4467361747,
				"y": 1.7053427056,
				"z": -0.0827881881,
				"element": "H" 
			},
			{
				"x": 1.5548566101,
				"y": -1.1185050494,
				"z": -2.3392925775,
				"element": "H" 
			},
			{
				"x": 1.1634688676,
				"y": -2.5390047946,
				"z": -4.3352176588,
				"element": "H" 
			},
			{
				"x": 1.5800318573,
				"y": -1.6390930843,
				"z": -6.6162702275,
				"element": "H" 
			},
			{
				"x": 2.3954850235,
				"y": 0.6974468115,
				"z": -6.8859852466,
				"element": "H" 
			},
			{
				"x": 2.7722332267,
				"y": 2.1240004727,
				"z": -4.8713536425,
				"element": "H" 
			},
			{
				"x": -0.2045932725,
				"y": 1.1788829962,
				"z": -2.2725803847,
				"element": "H" 
			},
			{
				"x": -1.4958035969,
				"y": 1.3353694104,
				"z": -0.1646878356,
				"element": "H" 
			},
			{
				"x": -3.0098204542,
				"y": -1.5668416738,
				"z": 3.1208289978,
				"element": "H" 
			},
			{
				"x": -2.3164739944,
				"y": -3.7380917756,
				"z": 4.1457883639,
				"element": "H" 
			},
			{
				"x": 0.0655328135,
				"y": -4.1034908487,
				"z": 4.7577318388,
				"element": "H" 
			},
			{
				"x": 1.7394043309,
				"y": -2.3156660049,
				"z": 4.3463162291,
				"element": "H" 
			},
			{
				"x": 1.0458257514,
				"y": -0.1765840146,
				"z": 3.3362965823,
				"element": "H" 
			}
		],
		 "valence_orbital": [ 
			{
				"type": "occ",
				"energy": -0.25828,
				"method": "rhf"
			},
			{
				"type": "occ",
				"energy": -0.25415,
				"method": "rhf"
			},
			{
				"type": "occ",
				"energy": -0.25245,
				"method": "rhf"
			},
			{
				"type": "occ",
				"energy": -0.24213,
				"method": "rhf"
			},
			{
				"type": "occ",
				"energy": -0.21536,
				"method": "rhf"
			},
			{
				"type": "unocc",
				"energy": -0.05857,
				"method": "rhf"
			},
			{
				"type": "unocc",
				"energy": -0.01306,
				"method": "rhf"
			},
			{
				"type": "unocc",
				"energy": -0.01031,
				"method": "rhf"
			},
			{
				"type": "unocc",
				"energy": -0.00509,
				"method": "rhf"
			},
			{
				"type": "unocc",
				"energy": 0.00021,
				"method": "rhf"
			}
		],
		"cosmo_sigma_profile": { 
			"-0.025": 0.0,
			"-0.024": 0.0,
			"-0.023": 0.0,
			"-0.022": 0.0,
			"-0.021": 0.0,
			"-0.02": 0.0,
			"-0.019": 0.0,
			"-0.018": 0.0,
			"-0.017": 0.0,
			"-0.016": 0.0,
			"-0.015": 0.0,
			"-0.014": 0.0,
			"-0.013": 0.0,
			"-0.012": 0.0,
			"-0.011": 0.0,
			"-0.01": 0.0,
			"-0.009": 0.23458575868,
			"-0.008": 1.28802774242,
			"-0.007": 5.14703625237,
			"-0.006": 21.8439542464,
			"-0.005": 29.2121468993,
			"-0.004": 31.9865388786,
			"-0.003": 25.8774409189,
			"-0.002": 24.1050173343,
			"-0.001": 21.5795627869,
			"0.0": 23.0141569631,
			"0.001": 24.071234131,
			"0.002": 28.6116007937,
			"0.003": 30.3526122499,
			"0.004": 33.5268137678,
			"0.005": 18.6857525946,
			"0.006": 6.21459638887,
			"0.007": 2.6770845283,
			"0.008": 2.16589258847,
			"0.009": 2.87516839029,
			"0.01": 2.23728078103,
			"0.011": 2.31707909111,
			"0.012": 3.51446046287,
			"0.013": 0.847924488217,
			"0.014": 0.0135569368055,
			"0.015": 0.0,
			"0.016": 0.0,
			"0.017": 0.0,
			"0.018": 0.0,
			"0.019": 0.0,
			"0.02": 0.0,
			"0.021": 0.0,
			"0.022": 0.0,
			"0.023": 0.0,
			"0.024": 0.0,
			"0.025": 0.0
		}
	}
}
