{
	 "smiles": "CC(=O)C1=CC(F)=CC=C1O", 
	 "Tm": 330.15, 
	 "num_atms": 18, 
	 "gaussian": { 
		 "optdone": 1, 
		 "sigma_profile": "yes", 
		 "theory": "DFT", 
		 "functional": "B3LYP", 
		 "basiset": "6-31G**", 
		 "properties": { 
			 "R2extent": 2433.3399, 
			 "electric_dipole_moment_norm": 4.98681866624, 
			 "electric_quadrupole_moment_norm": 9.65062636309, 
			 "total_energy": -559.346497347, 
			 "HOMO_LUMO_gap": 0.1759, 
			 "cosmo_polarized_energy": -12.19, 
			 "cosmo_cavitation_energy": 22.72, 
			 "cosmo_dispersion_energy": -16.72, 
			 "cosmo_repulsion_energy": 1.31, 
			 "cosmo_total_nonelectrostatic_energy": 7.31, 
			 "SMD_solvation_energy": 5.53 
		},
		"coords": [
			{
				"x": -1.7595620244,
				"y": 1.5194013137,
				"z": -1.1457881089,
				"element": "C" 
			},
			{
				"x": -0.2932324965,
				"y": 1.4611631767,
				"z": -0.7733571729,
				"element": "C" 
			},
			{
				"x": 0.5618781652,
				"y": 1.6836482599,
				"z": -1.618838377,
				"element": "O" 
			},
			{
				"x": 0.1376208031,
				"y": 1.1312432981,
				"z": 0.6339913985,
				"element": "C" 
			},
			{
				"x": 1.5247525191,
				"y": 1.1091814639,
				"z": 0.8592153355,
				"element": "C" 
			},
			{
				"x": 2.0330492791,
				"y": 0.8189376218,
				"z": 2.1106276142,
				"element": "C" 
			},
			{
				"x": 3.3698382525,
				"y": 0.8040473953,
				"z": 2.3022879316,
				"element": "F" 
			},
			{
				"x": 1.1948926109,
				"y": 0.539464988,
				"z": 3.1862869489,
				"element": "C" 
			},
			{
				"x": -0.1804240108,
				"y": 0.5567108353,
				"z": 2.9813856457,
				"element": "C" 
			},
			{
				"x": -0.7187520435,
				"y": 0.8488586286,
				"z": 1.7202640918,
				"element": "C" 
			},
			{
				"x": -2.0726474067,
				"y": 0.8624246401,
				"z": 1.5328260678,
				"element": "O" 
			},
			{
				"x": -2.2883195571,
				"y": 2.261561824,
				"z": -0.5405181327,
				"element": "H" 
			},
			{
				"x": -1.8298649525,
				"y": 1.7742743723,
				"z": -2.203921443,
				"element": "H" 
			},
			{
				"x": -2.2513050064,
				"y": 0.5615010318,
				"z": -0.9525711177,
				"element": "H" 
			},
			{
				"x": 2.1825469724,
				"y": 1.3258095438,
				"z": 0.0255064843,
				"element": "H" 
			},
			{
				"x": 1.6179309916,
				"y": 0.3143030308,
				"z": 4.1592526781,
				"element": "H" 
			},
			{
				"x": -0.850563282,
				"y": 0.3404888708,
				"z": 3.8107554574,
				"element": "H" 
			},
			{
				"x": -2.5073388139,
				"y": 0.6517797051,
				"z": 2.3693946986,
				"element": "H" 
			}
		],
		 "valence_orbital": [ 
			{
				"type": "occ",
				"energy": -0.35105,
				"method": "rhf"
			},
			{
				"type": "occ",
				"energy": -0.33369,
				"method": "rhf"
			},
			{
				"type": "occ",
				"energy": -0.26903,
				"method": "rhf"
			},
			{
				"type": "occ",
				"energy": -0.24785,
				"method": "rhf"
			},
			{
				"type": "occ",
				"energy": -0.23289,
				"method": "rhf"
			},
			{
				"type": "unocc",
				"energy": -0.05699,
				"method": "rhf"
			},
			{
				"type": "unocc",
				"energy": -0.001,
				"method": "rhf"
			},
			{
				"type": "unocc",
				"energy": 0.03818,
				"method": "rhf"
			},
			{
				"type": "unocc",
				"energy": 0.05041,
				"method": "rhf"
			},
			{
				"type": "unocc",
				"energy": 0.08633,
				"method": "rhf"
			}
		],
		"cosmo_sigma_profile": { 
			"-0.025": 0.0,
			"-0.024": 0.0,
			"-0.023": 0.0,
			"-0.022": 0.0,
			"-0.021": 0.0,
			"-0.02": 0.0,
			"-0.019": 0.257776280506,
			"-0.018": 1.24176568834,
			"-0.017": 1.01801953873,
			"-0.016": 0.974395072662,
			"-0.015": 1.48991079195,
			"-0.014": 0.810685756298,
			"-0.013": 0.716789036306,
			"-0.012": 1.27129965835,
			"-0.011": 1.08554099187,
			"-0.01": 0.798301442883,
			"-0.009": 1.38586401658,
			"-0.008": 3.08167112045,
			"-0.007": 3.19143132933,
			"-0.006": 5.57339285098,
			"-0.005": 7.63153175232,
			"-0.004": 9.88487124256,
			"-0.003": 9.69213423851,
			"-0.002": 10.2717101059,
			"-0.001": 13.8742528175,
			"0.0": 16.2576229718,
			"0.001": 17.8927528102,
			"0.002": 20.6779001048,
			"0.003": 11.3638508765,
			"0.004": 12.9945380369,
			"0.005": 8.7473052333,
			"0.006": 3.75429334332,
			"0.007": 1.84055398393,
			"0.008": 1.6099262304,
			"0.009": 1.89162160908,
			"0.01": 1.58234290477,
			"0.011": 3.04300956029,
			"0.012": 3.72585412219,
			"0.013": 1.58932025843,
			"0.014": 0.226505293002,
			"0.015": 0.0,
			"0.016": 0.0,
			"0.017": 0.0,
			"0.018": 0.0,
			"0.019": 0.0,
			"0.02": 0.0,
			"0.021": 0.0,
			"0.022": 0.0,
			"0.023": 0.0,
			"0.024": 0.0,
			"0.025": 0.0
		}
	}
}
