{
	 "smiles": "OC(=O)CCCS(=O)(=O)C1=CC=C(Br)C=C1", 
	 "Tm": 391.15, 
	 "num_atms": 27, 
	 "gaussian": { 
		 "optdone": 1, 
		 "sigma_profile": "yes", 
		 "theory": "DFT", 
		 "functional": "B3LYP", 
		 "basiset": "6-31G**", 
		 "properties": { 
			 "R2extent": 8293.2775, 
			 "electric_dipole_moment_norm": 1.58627206052, 
			 "electric_quadrupole_moment_norm": 28.2430853187, 
			 "total_energy": -3658.12842134, 
			 "HOMO_LUMO_gap": 0.21147, 
			 "cosmo_polarized_energy": -23.91, 
			 "cosmo_cavitation_energy": 35.16, 
			 "cosmo_dispersion_energy": -25.47, 
			 "cosmo_repulsion_energy": 1.97, 
			 "cosmo_total_nonelectrostatic_energy": 11.66, 
			 "SMD_solvation_energy": 5.12 
		},
		"coords": [
			{
				"x": -4.3340940672,
				"y": -2.3676884757,
				"z": -0.3068733622,
				"element": "O" 
			},
			{
				"x": -3.485189456,
				"y": -1.6504482658,
				"z": -1.0899941611,
				"element": "C" 
			},
			{
				"x": -3.9043036065,
				"y": -0.7411533197,
				"z": -1.7624026269,
				"element": "O" 
			},
			{
				"x": -2.028594421,
				"y": -2.0876448426,
				"z": -1.0390654115,
				"element": "C" 
			},
			{
				"x": -1.1351106474,
				"y": -1.2023515196,
				"z": -1.9126122686,
				"element": "C" 
			},
			{
				"x": 0.3418902282,
				"y": -1.6032206219,
				"z": -1.9105060394,
				"element": "C" 
			},
			{
				"x": 1.2769196386,
				"y": -1.1975566492,
				"z": -0.3947020148,
				"element": "S" 
			},
			{
				"x": 0.4611004163,
				"y": -1.5754302537,
				"z": 0.7758657746,
				"element": "O" 
			},
			{
				"x": 2.6303423745,
				"y": -1.7430149035,
				"z": -0.5827339403,
				"element": "O" 
			},
			{
				"x": 1.400894702,
				"y": 0.5989954535,
				"z": -0.4087021622,
				"element": "C" 
			},
			{
				"x": 2.4399165355,
				"y": 1.2027218373,
				"z": -1.1207728719,
				"element": "C" 
			},
			{
				"x": 2.5439200276,
				"y": 2.592251759,
				"z": -1.1334749639,
				"element": "C" 
			},
			{
				"x": 1.6082111288,
				"y": 3.3519170965,
				"z": -0.4281729994,
				"element": "C" 
			},
			{
				"x": 1.7493209462,
				"y": 5.2520344745,
				"z": -0.4464852779,
				"element": "Br" 
			},
			{
				"x": 0.5782588494,
				"y": 2.7512496618,
				"z": 0.2966785947,
				"element": "C" 
			},
			{
				"x": 0.4758624278,
				"y": 1.3603921939,
				"z": 0.3077421136,
				"element": "C" 
			},
			{
				"x": -3.8463411282,
				"y": -3.0428004877,
				"z": 0.1866105376,
				"element": "H" 
			},
			{
				"x": -1.9717167254,
				"y": -3.1346064035,
				"z": -1.3700877547,
				"element": "H" 
			},
			{
				"x": -1.6804110583,
				"y": -2.0753848847,
				"z": 0.0001099543,
				"element": "H" 
			},
			{
				"x": -1.4930726948,
				"y": -1.2465428749,
				"z": -2.9462747323,
				"element": "H" 
			},
			{
				"x": -1.2485526786,
				"y": -0.1555753766,
				"z": -1.6130516785,
				"element": "H" 
			},
			{
				"x": 0.4840694736,
				"y": -2.6849452857,
				"z": -2.010371769,
				"element": "H" 
			},
			{
				"x": 0.8945927427,
				"y": -1.1195311282,
				"z": -2.7207585955,
				"element": "H" 
			},
			{
				"x": 3.1711759683,
				"y": 0.5902894501,
				"z": -1.6378982263,
				"element": "H" 
			},
			{
				"x": 3.3451060282,
				"y": 3.0806236234,
				"z": -1.6758395106,
				"element": "H" 
			},
			{
				"x": -0.1286519811,
				"y": 3.3602353931,
				"z": 0.847916402,
				"element": "H" 
			},
			{
				"x": -0.2995430233,
				"y": 0.8675843498,
				"z": 0.8839569901,
				"element": "H" 
			}
		],
		 "valence_orbital": [ 
			{
				"type": "occ",
				"energy": -0.30362,
				"method": "rhf"
			},
			{
				"type": "occ",
				"energy": -0.29369,
				"method": "rhf"
			},
			{
				"type": "occ",
				"energy": -0.2895,
				"method": "rhf"
			},
			{
				"type": "occ",
				"energy": -0.27764,
				"method": "rhf"
			},
			{
				"type": "occ",
				"energy": -0.26828,
				"method": "rhf"
			},
			{
				"type": "unocc",
				"energy": -0.05681,
				"method": "rhf"
			},
			{
				"type": "unocc",
				"energy": -0.04062,
				"method": "rhf"
			},
			{
				"type": "unocc",
				"energy": -0.01053,
				"method": "rhf"
			},
			{
				"type": "unocc",
				"energy": 0.00546,
				"method": "rhf"
			},
			{
				"type": "unocc",
				"energy": 0.05096,
				"method": "rhf"
			}
		],
		"cosmo_sigma_profile": { 
			"-0.025": 0.0,
			"-0.024": 0.0,
			"-0.023": 0.0,
			"-0.022": 0.0,
			"-0.021": 0.0,
			"-0.02": 0.0,
			"-0.019": 0.744257690167,
			"-0.018": 1.31528084786,
			"-0.017": 1.03943373672,
			"-0.016": 0.750416689429,
			"-0.015": 0.868784853031,
			"-0.014": 0.732725977807,
			"-0.013": 1.50868207101,
			"-0.012": 0.998648353198,
			"-0.011": 1.63442641199,
			"-0.01": 0.695623351807,
			"-0.009": 2.4813995752,
			"-0.008": 13.2614674659,
			"-0.007": 17.5960444357,
			"-0.006": 16.3335801094,
			"-0.005": 18.8717300304,
			"-0.004": 16.7641550679,
			"-0.003": 13.5628917411,
			"-0.002": 12.5477178169,
			"-0.001": 13.4794510514,
			"0.0": 20.2354453193,
			"0.001": 26.1698262422,
			"0.002": 11.8781272305,
			"0.003": 13.8551292527,
			"0.004": 13.0154391792,
			"0.005": 5.3135497172,
			"0.006": 4.68189192953,
			"0.007": 4.56713383149,
			"0.008": 5.10346247044,
			"0.009": 7.21654311646,
			"0.01": 8.66918767385,
			"0.011": 13.1101219337,
			"0.012": 11.777857962,
			"0.013": 2.0590769289,
			"0.014": 0.073024260417,
			"0.015": 0.0,
			"0.016": 0.0,
			"0.017": 0.0,
			"0.018": 0.0,
			"0.019": 0.0,
			"0.02": 0.0,
			"0.021": 0.0,
			"0.022": 0.0,
			"0.023": 0.0,
			"0.024": 0.0,
			"0.025": 0.0
		}
	}
}
