{
	 "smiles": "COC1=NC2=C(C=C1)C=C(N)C=C2", 
	 "Tm": 375.15, 
	 "num_atms": 23, 
	 "gaussian": { 
		 "optdone": 1, 
		 "sigma_profile": "yes", 
		 "theory": "DFT", 
		 "functional": "B3LYP", 
		 "basiset": "6-31G**", 
		 "properties": { 
			 "R2extent": 3093.2513, 
			 "electric_dipole_moment_norm": 2.35624046735, 
			 "electric_quadrupole_moment_norm": 17.4286928205, 
			 "total_energy": -571.827916696, 
			 "HOMO_LUMO_gap": 0.15384, 
			 "cosmo_polarized_energy": -11.45, 
			 "cosmo_cavitation_energy": 26.87, 
			 "cosmo_dispersion_energy": -20.15, 
			 "cosmo_repulsion_energy": 1.59, 
			 "cosmo_total_nonelectrostatic_energy": 8.31, 
			 "SMD_solvation_energy": 4.19 
		},
		"coords": [
			{
				"x": 3.0331464134,
				"y": 0.1353692273,
				"z": -1.1450695829,
				"element": "C" 
			},
			{
				"x": 2.5849419815,
				"y": -1.0328863667,
				"z": -0.4563889228,
				"element": "O" 
			},
			{
				"x": 1.2673886855,
				"y": -1.0850696819,
				"z": -0.143220393,
				"element": "C" 
			},
			{
				"x": 0.4702645512,
				"y": -0.0998918316,
				"z": -0.4701136606,
				"element": "N" 
			},
			{
				"x": -0.8515885958,
				"y": -0.2052076695,
				"z": -0.1281423057,
				"element": "C" 
			},
			{
				"x": -1.3838537858,
				"y": -1.3362924626,
				"z": 0.5618274237,
				"element": "C" 
			},
			{
				"x": -0.4673278484,
				"y": -2.3782598458,
				"z": 0.8904308769,
				"element": "C" 
			},
			{
				"x": 0.8514196451,
				"y": -2.2642079531,
				"z": 0.5457485605,
				"element": "C" 
			},
			{
				"x": -2.7604524005,
				"y": -1.3866081262,
				"z": 0.8808781144,
				"element": "C" 
			},
			{
				"x": -3.6113790722,
				"y": -0.3448090644,
				"z": 0.539346681,
				"element": "C" 
			},
			{
				"x": -4.9622870476,
				"y": -0.3468854172,
				"z": 0.9012344222,
				"element": "N" 
			},
			{
				"x": -3.0728897582,
				"y": 0.7808767439,
				"z": -0.1447974737,
				"element": "C" 
			},
			{
				"x": -1.7373881094,
				"y": 0.8465466622,
				"z": -0.4697918599,
				"element": "C" 
			},
			{
				"x": 4.1028955651,
				"y": -0.0111703598,
				"z": -1.3024880039,
				"element": "H" 
			},
			{
				"x": 2.8553226274,
				"y": 1.0365093056,
				"z": -0.5504498271,
				"element": "H" 
			},
			{
				"x": 2.518991779,
				"y": 0.2497480252,
				"z": -2.1041650117,
				"element": "H" 
			},
			{
				"x": -0.8270239116,
				"y": -3.2592505686,
				"z": 1.4161561108,
				"element": "H" 
			},
			{
				"x": 1.5842254674,
				"y": -3.0295648888,
				"z": 0.7751045268,
				"element": "H" 
			},
			{
				"x": -3.1490540854,
				"y": -2.2567230057,
				"z": 1.4061466275,
				"element": "H" 
			},
			{
				"x": -5.3505781861,
				"y": -1.2613186748,
				"z": 1.0886980003,
				"element": "H" 
			},
			{
				"x": -5.564874642,
				"y": 0.1946315355,
				"z": 0.2964213741,
				"element": "H" 
			},
			{
				"x": -3.7358587171,
				"y": 1.6023094538,
				"z": -0.4065636822,
				"element": "H" 
			},
			{
				"x": -1.3298405557,
				"y": 1.7047549634,
				"z": -0.9944019947,
				"element": "H" 
			}
		],
		 "valence_orbital": [ 
			{
				"type": "occ",
				"energy": -0.29662,
				"method": "rhf"
			},
			{
				"type": "occ",
				"energy": -0.26436,
				"method": "rhf"
			},
			{
				"type": "occ",
				"energy": -0.25483,
				"method": "rhf"
			},
			{
				"type": "occ",
				"energy": -0.22987,
				"method": "rhf"
			},
			{
				"type": "occ",
				"energy": -0.19052,
				"method": "rhf"
			},
			{
				"type": "unocc",
				"energy": -0.03668,
				"method": "rhf"
			},
			{
				"type": "unocc",
				"energy": 0.00959,
				"method": "rhf"
			},
			{
				"type": "unocc",
				"energy": 0.03265,
				"method": "rhf"
			},
			{
				"type": "unocc",
				"energy": 0.07867,
				"method": "rhf"
			},
			{
				"type": "unocc",
				"energy": 0.10744,
				"method": "rhf"
			}
		],
		"cosmo_sigma_profile": { 
			"-0.025": 0.0,
			"-0.024": 0.0,
			"-0.023": 0.0,
			"-0.022": 0.0,
			"-0.021": 0.0,
			"-0.02": 0.0,
			"-0.019": 0.0,
			"-0.018": 0.0,
			"-0.017": 0.0,
			"-0.016": 0.0,
			"-0.015": 0.0,
			"-0.014": 0.0,
			"-0.013": 0.262893110304,
			"-0.012": 2.23216095101,
			"-0.011": 3.34042966541,
			"-0.01": 2.8507259247,
			"-0.009": 3.22676457125,
			"-0.008": 3.30728424251,
			"-0.007": 5.24569204165,
			"-0.006": 11.2790307269,
			"-0.005": 13.1322747032,
			"-0.004": 15.7368440687,
			"-0.003": 16.4478393533,
			"-0.002": 13.2688999736,
			"-0.001": 9.63341345321,
			"0.0": 8.99895132133,
			"0.001": 12.4286089475,
			"0.002": 16.4069633326,
			"0.003": 17.4860665835,
			"0.004": 15.8049313522,
			"0.005": 17.3768469502,
			"0.006": 6.17256568979,
			"0.007": 3.1006343033,
			"0.008": 4.39529355491,
			"0.009": 3.65358291952,
			"0.01": 3.17196176529,
			"0.011": 1.86018405198,
			"0.012": 1.08922607274,
			"0.013": 1.29205335311,
			"0.014": 0.566636080706,
			"0.015": 0.242493926447,
			"0.016": 0.0,
			"0.017": 0.0,
			"0.018": 0.0,
			"0.019": 0.0,
			"0.02": 0.0,
			"0.021": 0.0,
			"0.022": 0.0,
			"0.023": 0.0,
			"0.024": 0.0,
			"0.025": 0.0
		}
	}
}
