{
	 "smiles": "NC1CCCCCC1", 
	 "Tm": 255.15, 
	 "num_atms": 23, 
	 "gaussian": { 
		 "optdone": 1, 
		 "sigma_profile": "yes", 
		 "theory": "DFT", 
		 "functional": "B3LYP", 
		 "basiset": "6-31G**", 
		 "properties": { 
			 "R2extent": 1283.4196, 
			 "electric_dipole_moment_norm": 1.3226850759, 
			 "electric_quadrupole_moment_norm": 8.26312992031, 
			 "total_energy": -330.544570238, 
			 "HOMO_LUMO_gap": 0.3002, 
			 "cosmo_polarized_energy": -4.81, 
			 "cosmo_cavitation_energy": 22.51, 
			 "cosmo_dispersion_energy": -17.0, 
			 "cosmo_repulsion_energy": 1.41, 
			 "cosmo_total_nonelectrostatic_energy": 6.92, 
			 "SMD_solvation_energy": 1.74 
		},
		"coords": [
			{
				"x": 0.0810568746,
				"y": -3.0566153627,
				"z": -1.2269225698,
				"element": "N" 
			},
			{
				"x": -0.3873838012,
				"y": -1.8916308553,
				"z": -0.4514105762,
				"element": "C" 
			},
			{
				"x": 0.2010045627,
				"y": -1.9634124357,
				"z": 0.9756487672,
				"element": "C" 
			},
			{
				"x": 1.550683871,
				"y": -1.2589608138,
				"z": 1.2175572727,
				"element": "C" 
			},
			{
				"x": 1.4180059396,
				"y": 0.2403638545,
				"z": 1.5400377153,
				"element": "C" 
			},
			{
				"x": 0.9843779796,
				"y": 1.1488596962,
				"z": 0.3795159507,
				"element": "C" 
			},
			{
				"x": -0.2991393558,
				"y": 0.738122001,
				"z": -0.3637586662,
				"element": "C" 
			},
			{
				"x": -0.1460819077,
				"y": -0.5534346385,
				"z": -1.1898670732,
				"element": "C" 
			},
			{
				"x": 1.0927208522,
				"y": -2.9949929688,
				"z": -1.3412369167,
				"element": "H" 
			},
			{
				"x": -0.3003665068,
				"y": -3.0093907634,
				"z": -2.1708127073,
				"element": "H" 
			},
			{
				"x": -1.4734932599,
				"y": -2.0220301225,
				"z": -0.3489964823,
				"element": "H" 
			},
			{
				"x": -0.5262743696,
				"y": -1.547232644,
				"z": 1.6842880854,
				"element": "H" 
			},
			{
				"x": 0.2842901708,
				"y": -3.0283849858,
				"z": 1.2176073514,
				"element": "H" 
			},
			{
				"x": 2.0429050169,
				"y": -1.7438795978,
				"z": 2.0695078449,
				"element": "H" 
			},
			{
				"x": 2.2287149922,
				"y": -1.4036143402,
				"z": 0.3641665719,
				"element": "H" 
			},
			{
				"x": 0.7009115233,
				"y": 0.3466085392,
				"z": 2.3669353514,
				"element": "H" 
			},
			{
				"x": 2.3771102719,
				"y": 0.6115675617,
				"z": 1.92430334,
				"element": "H" 
			},
			{
				"x": 0.8625692291,
				"y": 2.1682072281,
				"z": 0.7685659154,
				"element": "H" 
			},
			{
				"x": 1.7997019598,
				"y": 1.2034309731,
				"z": -0.3564201561,
				"element": "H" 
			},
			{
				"x": -1.135516613,
				"y": 0.6423653064,
				"z": 0.342857271,
				"element": "H" 
			},
			{
				"x": -0.5728389587,
				"y": 1.5574880929,
				"z": -1.0399339846,
				"element": "H" 
			},
			{
				"x": 0.8650784597,
				"y": -0.5714737548,
				"z": -1.6217274783,
				"element": "H" 
			},
			{
				"x": -0.8308369308,
				"y": -0.52555997,
				"z": -2.0481048267,
				"element": "H" 
			}
		],
		 "valence_orbital": [ 
			{
				"type": "occ",
				"energy": -0.31754,
				"method": "rhf"
			},
			{
				"type": "occ",
				"energy": -0.31244,
				"method": "rhf"
			},
			{
				"type": "occ",
				"energy": -0.30317,
				"method": "rhf"
			},
			{
				"type": "occ",
				"energy": -0.29882,
				"method": "rhf"
			},
			{
				"type": "occ",
				"energy": -0.22575,
				"method": "rhf"
			},
			{
				"type": "unocc",
				"energy": 0.07445,
				"method": "rhf"
			},
			{
				"type": "unocc",
				"energy": 0.09236,
				"method": "rhf"
			},
			{
				"type": "unocc",
				"energy": 0.10289,
				"method": "rhf"
			},
			{
				"type": "unocc",
				"energy": 0.13001,
				"method": "rhf"
			},
			{
				"type": "unocc",
				"energy": 0.13655,
				"method": "rhf"
			}
		],
		"cosmo_sigma_profile": { 
			"-0.025": 0.0,
			"-0.024": 0.0,
			"-0.023": 0.0,
			"-0.022": 0.0,
			"-0.021": 0.0,
			"-0.02": 0.0,
			"-0.019": 0.0,
			"-0.018": 0.0,
			"-0.017": 0.0,
			"-0.016": 0.0,
			"-0.015": 0.0,
			"-0.014": 0.0,
			"-0.013": 0.0,
			"-0.012": 0.0,
			"-0.011": 0.0,
			"-0.01": 0.0,
			"-0.009": 0.700586969937,
			"-0.008": 2.03026735415,
			"-0.007": 2.67752176352,
			"-0.006": 3.39882579861,
			"-0.005": 3.77844080409,
			"-0.004": 3.62772156368,
			"-0.003": 4.95292460283,
			"-0.002": 23.5963049912,
			"-0.001": 38.075327064,
			"0.0": 33.1073838167,
			"0.001": 29.8548207404,
			"0.002": 11.2704169819,
			"0.003": 1.58477224865,
			"0.004": 0.874303551497,
			"0.005": 1.0846603305,
			"0.006": 0.320771170247,
			"0.007": 1.24560684834,
			"0.008": 1.44633070181,
			"0.009": 0.47892216828,
			"0.01": 0.90118113037,
			"0.011": 0.389249219782,
			"0.012": 0.959082932834,
			"0.013": 0.63692881063,
			"0.014": 0.653814443169,
			"0.015": 0.504332317663,
			"0.016": 0.96177619908,
			"0.017": 0.325368598308,
			"0.018": 0.287416228355,
			"0.019": 0.965431946209,
			"0.02": 0.422717899514,
			"0.021": 0.0296298988086,
			"0.022": 0.0,
			"0.023": 0.0,
			"0.024": 0.0,
			"0.025": 0.0
		}
	}
}
