{
	 "smiles": "CCN(CC)C(=O)C1=CC(C)=CC=C1", 
	 "Tm": 228.15, 
	 "num_atms": 31, 
	 "gaussian": { 
		 "optdone": 1, 
		 "sigma_profile": "yes", 
		 "theory": "DFT", 
		 "functional": "B3LYP", 
		 "basiset": "6-31G**", 
		 "properties": { 
			 "R2extent": 3609.9186, 
			 "electric_dipole_moment_norm": 3.25155617205, 
			 "electric_quadrupole_moment_norm": 12.8578297356, 
			 "total_energy": -597.524088235, 
			 "HOMO_LUMO_gap": 0.21046, 
			 "cosmo_polarized_energy": -10.48, 
			 "cosmo_cavitation_energy": 32.93, 
			 "cosmo_dispersion_energy": -22.84, 
			 "cosmo_repulsion_energy": 1.83, 
			 "cosmo_total_nonelectrostatic_energy": 11.92, 
			 "SMD_solvation_energy": 5.9 
		},
		"coords": [
			{
				"x": 2.8319193041,
				"y": -0.0985300379,
				"z": 2.2116540202,
				"element": "C" 
			},
			{
				"x": 2.0314478302,
				"y": 0.9807175704,
				"z": 1.4738128369,
				"element": "C" 
			},
			{
				"x": 0.9831042599,
				"y": 0.4801142316,
				"z": 0.5710659845,
				"element": "N" 
			},
			{
				"x": 1.3389904387,
				"y": 0.173619536,
				"z": -0.8210090589,
				"element": "C" 
			},
			{
				"x": 1.825380255,
				"y": -1.2618290264,
				"z": -1.0588814118,
				"element": "C" 
			},
			{
				"x": -0.1971843543,
				"y": 0.0912639054,
				"z": 1.162916068,
				"element": "C" 
			},
			{
				"x": -0.3344876081,
				"y": 0.0859486282,
				"z": 2.3863043976,
				"element": "O" 
			},
			{
				"x": -1.3604135459,
				"y": -0.303980181,
				"z": 0.2865473763,
				"element": "C" 
			},
			{
				"x": -2.0054527141,
				"y": -1.5163913895,
				"z": 0.5581798881,
				"element": "C" 
			},
			{
				"x": -3.1417991659,
				"y": -1.9144353617,
				"z": -0.1545838707,
				"element": "C" 
			},
			{
				"x": -3.8344029372,
				"y": -3.2198307163,
				"z": 0.1609383354,
				"element": "C" 
			},
			{
				"x": -3.6420839405,
				"y": -1.0538271594,
				"z": -1.1415629318,
				"element": "C" 
			},
			{
				"x": -3.0282042863,
				"y": 0.1719884065,
				"z": -1.3995495031,
				"element": "C" 
			},
			{
				"x": -1.8866719541,
				"y": 0.5492191362,
				"z": -0.6923134016,
				"element": "C" 
			},
			{
				"x": 3.3983456886,
				"y": -0.7346317634,
				"z": 1.5252062152,
				"element": "H" 
			},
			{
				"x": 3.5460949672,
				"y": 0.3738273179,
				"z": 2.8951939084,
				"element": "H" 
			},
			{
				"x": 2.1576229443,
				"y": -0.7236415973,
				"z": 2.8006601508,
				"element": "H" 
			},
			{
				"x": 1.5376121508,
				"y": 1.6177004099,
				"z": 2.211518297,
				"element": "H" 
			},
			{
				"x": 2.6984339726,
				"y": 1.6114620557,
				"z": 0.8758774217,
				"element": "H" 
			},
			{
				"x": 0.4774246039,
				"y": 0.3648876443,
				"z": -1.4615984848,
				"element": "H" 
			},
			{
				"x": 2.1148038308,
				"y": 0.8871419086,
				"z": -1.1184135443,
				"element": "H" 
			},
			{
				"x": 2.7274434128,
				"y": -1.4889456951,
				"z": -0.4849334635,
				"element": "H" 
			},
			{
				"x": 1.0508206009,
				"y": -1.9819548004,
				"z": -0.778209201,
				"element": "H" 
			},
			{
				"x": 2.0535188344,
				"y": -1.4072184498,
				"z": -2.1205978431,
				"element": "H" 
			},
			{
				"x": -1.6125102781,
				"y": -2.1490472309,
				"z": 1.3493027153,
				"element": "H" 
			},
			{
				"x": -4.3331509597,
				"y": -3.6322678569,
				"z": -0.7214147154,
				"element": "H" 
			},
			{
				"x": -4.6006234357,
				"y": -3.0822417427,
				"z": 0.9340425848,
				"element": "H" 
			},
			{
				"x": -3.1288744817,
				"y": -3.9681301903,
				"z": 0.5337483936,
				"element": "H" 
			},
			{
				"x": -4.5251892148,
				"y": -1.3435975215,
				"z": -1.7058827809,
				"element": "H" 
			},
			{
				"x": -3.4411022871,
				"y": 0.8359001419,
				"z": -2.1539045502,
				"element": "H" 
			},
			{
				"x": -1.4193119309,
				"y": 1.5109098282,
				"z": -0.8836138326,
				"element": "H" 
			}
		],
		 "valence_orbital": [ 
			{
				"type": "occ",
				"energy": -0.33283,
				"method": "rhf"
			},
			{
				"type": "occ",
				"energy": -0.25893,
				"method": "rhf"
			},
			{
				"type": "occ",
				"energy": -0.24339,
				"method": "rhf"
			},
			{
				"type": "occ",
				"energy": -0.23526,
				"method": "rhf"
			},
			{
				"type": "occ",
				"energy": -0.22923,
				"method": "rhf"
			},
			{
				"type": "unocc",
				"energy": -0.01877,
				"method": "rhf"
			},
			{
				"type": "unocc",
				"energy": -0.00301,
				"method": "rhf"
			},
			{
				"type": "unocc",
				"energy": 0.04537,
				"method": "rhf"
			},
			{
				"type": "unocc",
				"energy": 0.08782,
				"method": "rhf"
			},
			{
				"type": "unocc",
				"energy": 0.09528,
				"method": "rhf"
			}
		],
		"cosmo_sigma_profile": { 
			"-0.025": 0.0,
			"-0.024": 0.0,
			"-0.023": 0.0,
			"-0.022": 0.0,
			"-0.021": 0.0,
			"-0.02": 0.0,
			"-0.019": 0.0,
			"-0.018": 0.0,
			"-0.017": 0.0,
			"-0.016": 0.0,
			"-0.015": 0.0,
			"-0.014": 0.0,
			"-0.013": 0.0,
			"-0.012": 0.0,
			"-0.011": 0.0,
			"-0.01": 0.0,
			"-0.009": 0.0,
			"-0.008": 0.0,
			"-0.007": 0.043881691168,
			"-0.006": 4.8531010564,
			"-0.005": 14.1349302421,
			"-0.004": 26.7803898224,
			"-0.003": 30.8121033641,
			"-0.002": 33.8759802471,
			"-0.001": 30.2981290293,
			"0.0": 30.6190929779,
			"0.001": 25.8218239476,
			"0.002": 11.7449704625,
			"0.003": 8.97348969837,
			"0.004": 8.50160614727,
			"0.005": 9.83463021853,
			"0.006": 3.57946610643,
			"0.007": 1.78171807119,
			"0.008": 1.86023051413,
			"0.009": 1.82409121848,
			"0.01": 1.61804744501,
			"0.011": 1.51447119938,
			"0.012": 1.77482267537,
			"0.013": 2.26307044547,
			"0.014": 4.38964651569,
			"0.015": 1.63420047439,
			"0.016": 0.119955291715,
			"0.017": 0.0,
			"0.018": 0.0,
			"0.019": 0.0,
			"0.02": 0.0,
			"0.021": 0.0,
			"0.022": 0.0,
			"0.023": 0.0,
			"0.024": 0.0,
			"0.025": 0.0
		}
	}
}
