{
	 "smiles": "COC1=CC(OC)=C(C(OC)=C1)[N+]([O-])=O", 
	 "Tm": 424.65, 
	 "num_atms": 26, 
	 "gaussian": { 
		 "optdone": 1, 
		 "sigma_profile": "yes", 
		 "theory": "DFT", 
		 "functional": "B3LYP", 
		 "basiset": "6-31G**", 
		 "properties": { 
			 "R2extent": 3417.4148, 
			 "electric_dipole_moment_norm": 6.22805539474, 
			 "electric_quadrupole_moment_norm": 17.8200726171, 
			 "total_energy": -780.303415857, 
			 "HOMO_LUMO_gap": 0.1678, 
			 "cosmo_polarized_energy": -15.08, 
			 "cosmo_cavitation_energy": 31.15, 
			 "cosmo_dispersion_energy": -21.83, 
			 "cosmo_repulsion_energy": 1.74, 
			 "cosmo_total_nonelectrostatic_energy": 11.06, 
			 "SMD_solvation_energy": 10.5 
		},
		"coords": [
			{
				"x": 3.912124835,
				"y": 0.6880317812,
				"z": 1.3114941854,
				"element": "C" 
			},
			{
				"x": 2.6179040478,
				"y": 1.0523753134,
				"z": 1.7667896652,
				"element": "O" 
			},
			{
				"x": 1.538124873,
				"y": 0.7113674895,
				"z": 1.0098691158,
				"element": "C" 
			},
			{
				"x": 1.6271139617,
				"y": 0.0163119349,
				"z": -0.2016000146,
				"element": "C" 
			},
			{
				"x": 0.4465152246,
				"y": -0.2822854295,
				"z": -0.8983378657,
				"element": "C" 
			},
			{
				"x": 0.3957412538,
				"y": -0.9487362069,
				"z": -2.0790298584,
				"element": "O" 
			},
			{
				"x": 1.6109093275,
				"y": -1.3860869523,
				"z": -2.6708823439,
				"element": "C" 
			},
			{
				"x": -0.7829657237,
				"y": 0.1160045023,
				"z": -0.3748505666,
				"element": "C" 
			},
			{
				"x": -0.8677925609,
				"y": 0.8116332796,
				"z": 0.8383375039,
				"element": "C" 
			},
			{
				"x": -2.119723749,
				"y": 1.1417873784,
				"z": 1.2388608183,
				"element": "O" 
			},
			{
				"x": -2.2738021713,
				"y": 1.8491150937,
				"z": 2.4628207128,
				"element": "C" 
			},
			{
				"x": 0.3018364628,
				"y": 1.1114987602,
				"z": 1.535833991,
				"element": "C" 
			},
			{
				"x": -2.0188350467,
				"y": -0.2011484083,
				"z": -1.1119760905,
				"element": "N" 
			},
			{
				"x": -2.565996638,
				"y": -1.268145913,
				"z": -0.853362458,
				"element": "O" 
			},
			{
				"x": -2.4098790285,
				"y": 0.625319345,
				"z": -1.9297705024,
				"element": "O" 
			},
			{
				"x": 4.0187832222,
				"y": -0.4007717884,
				"z": 1.2254197493,
				"element": "H" 
			},
			{
				"x": 4.1460667507,
				"y": 1.1517863461,
				"z": 0.3448049411,
				"element": "H" 
			},
			{
				"x": 4.6095755374,
				"y": 1.0578569425,
				"z": 2.0643000743,
				"element": "H" 
			},
			{
				"x": 2.5834852394,
				"y": -0.2880518839,
				"z": -0.5992719944,
				"element": "H" 
			},
			{
				"x": 1.325428304,
				"y": -1.8883055703,
				"z": -3.595615634,
				"element": "H" 
			},
			{
				"x": 2.2700969007,
				"y": -0.5413924163,
				"z": -2.9058297899,
				"element": "H" 
			},
			{
				"x": 2.1412300362,
				"y": -2.0943758064,
				"z": -2.022565714,
				"element": "H" 
			},
			{
				"x": -1.8932536424,
				"y": 1.2675481688,
				"z": 3.3110228577,
				"element": "H" 
			},
			{
				"x": -3.3464096701,
				"y": 2.0045147748,
				"z": 2.5815533712,
				"element": "H" 
			},
			{
				"x": -1.7658348305,
				"y": 2.8203754941,
				"z": 2.4296577386,
				"element": "H" 
			},
			{
				"x": 0.2917570842,
				"y": 1.6459737707,
				"z": 2.475828108,
				"element": "H" 
			}
		],
		 "valence_orbital": [ 
			{
				"type": "occ",
				"energy": -0.29285,
				"method": "rhf"
			},
			{
				"type": "occ",
				"energy": -0.28641,
				"method": "rhf"
			},
			{
				"type": "occ",
				"energy": -0.28067,
				"method": "rhf"
			},
			{
				"type": "occ",
				"energy": -0.23304,
				"method": "rhf"
			},
			{
				"type": "occ",
				"energy": -0.21953,
				"method": "rhf"
			},
			{
				"type": "unocc",
				"energy": -0.05173,
				"method": "rhf"
			},
			{
				"type": "unocc",
				"energy": -0.00182,
				"method": "rhf"
			},
			{
				"type": "unocc",
				"energy": 0.00541,
				"method": "rhf"
			},
			{
				"type": "unocc",
				"energy": 0.07038,
				"method": "rhf"
			},
			{
				"type": "unocc",
				"energy": 0.08586,
				"method": "rhf"
			}
		],
		"cosmo_sigma_profile": { 
			"-0.025": 0.0,
			"-0.024": 0.0,
			"-0.023": 0.0,
			"-0.022": 0.0,
			"-0.021": 0.0,
			"-0.02": 0.0,
			"-0.019": 0.0,
			"-0.018": 0.0,
			"-0.017": 0.0,
			"-0.016": 0.0,
			"-0.015": 0.0,
			"-0.014": 0.0,
			"-0.013": 0.0,
			"-0.012": 0.0,
			"-0.011": 0.0,
			"-0.01": 0.0,
			"-0.009": 0.0,
			"-0.008": 0.778482348175,
			"-0.007": 7.80159278335,
			"-0.006": 25.3258201609,
			"-0.005": 24.9227658721,
			"-0.004": 27.9005734238,
			"-0.003": 19.9950219384,
			"-0.002": 9.96866170436,
			"-0.001": 7.46288456654,
			"0.0": 8.10622202923,
			"0.001": 11.7854249543,
			"0.002": 17.2466403391,
			"0.003": 17.7335498947,
			"0.004": 13.1373190346,
			"0.005": 11.7071929438,
			"0.006": 11.5347839208,
			"0.007": 12.7283807605,
			"0.008": 10.6171187982,
			"0.009": 6.88829013663,
			"0.01": 1.72490267266,
			"0.011": 0.0,
			"0.012": 0.0,
			"0.013": 0.0,
			"0.014": 0.0,
			"0.015": 0.0,
			"0.016": 0.0,
			"0.017": 0.0,
			"0.018": 0.0,
			"0.019": 0.0,
			"0.02": 0.0,
			"0.021": 0.0,
			"0.022": 0.0,
			"0.023": 0.0,
			"0.024": 0.0,
			"0.025": 0.0
		}
	}
}
