{
	 "smiles": "OC(=O)C(C1CC1)C1=CC=CC=C1", 
	 "Tm": 358.15, 
	 "num_atms": 25, 
	 "gaussian": { 
		 "optdone": 1, 
		 "sigma_profile": "yes", 
		 "theory": "DFT", 
		 "functional": "B3LYP", 
		 "basiset": "6-31G**", 
		 "properties": { 
			 "R2extent": 3515.3307, 
			 "electric_dipole_moment_norm": 1.24162075128, 
			 "electric_quadrupole_moment_norm": 6.75052963552, 
			 "total_energy": -576.837240973, 
			 "HOMO_LUMO_gap": 0.23271, 
			 "cosmo_polarized_energy": -10.16, 
			 "cosmo_cavitation_energy": 28.81, 
			 "cosmo_dispersion_energy": -19.94, 
			 "cosmo_repulsion_energy": 1.61, 
			 "cosmo_total_nonelectrostatic_energy": 10.49, 
			 "SMD_solvation_energy": 5.65 
		},
		"coords": [
			{
				"x": -2.6355046859,
				"y": -0.6124676073,
				"z": -1.7579646128,
				"element": "O" 
			},
			{
				"x": -1.8153176807,
				"y": -1.6730632113,
				"z": -1.5735047207,
				"element": "C" 
			},
			{
				"x": -1.4589559964,
				"y": -2.3871880642,
				"z": -2.4867856654,
				"element": "O" 
			},
			{
				"x": -1.3953424678,
				"y": -1.8271771622,
				"z": -0.1170584138,
				"element": "C" 
			},
			{
				"x": -1.412610077,
				"y": -3.3016898089,
				"z": 0.272482897,
				"element": "C" 
			},
			{
				"x": -1.5608498236,
				"y": -3.6913086116,
				"z": 1.7187660591,
				"element": "C" 
			},
			{
				"x": -2.6926393531,
				"y": -3.943523768,
				"z": 0.749274672,
				"element": "C" 
			},
			{
				"x": -0.0260452137,
				"y": -1.1829871611,
				"z": 0.1003036353,
				"element": "C" 
			},
			{
				"x": 1.0722768744,
				"y": -1.53235168,
				"z": -0.6982725774,
				"element": "C" 
			},
			{
				"x": 2.3255505131,
				"y": -0.9669716517,
				"z": -0.4630903346,
				"element": "C" 
			},
			{
				"x": 2.5003525095,
				"y": -0.0449092926,
				"z": 0.5713242284,
				"element": "C" 
			},
			{
				"x": 1.4114512735,
				"y": 0.311562643,
				"z": 1.3675652953,
				"element": "C" 
			},
			{
				"x": 0.1568244109,
				"y": -0.2530774309,
				"z": 1.1305500489,
				"element": "C" 
			},
			{
				"x": -2.818746666,
				"y": -0.5760968099,
				"z": -2.7125945043,
				"element": "H" 
			},
			{
				"x": -2.1252153165,
				"y": -1.2869281182,
				"z": 0.4943879966,
				"element": "H" 
			},
			{
				"x": -0.7621596143,
				"y": -3.9192397482,
				"z": -0.3403417039,
				"element": "H" 
			},
			{
				"x": -0.9899939594,
				"y": -4.5397793527,
				"z": 2.0833020046,
				"element": "H" 
			},
			{
				"x": -1.6858767382,
				"y": -2.8975011604,
				"z": 2.4503053737,
				"element": "H" 
			},
			{
				"x": -2.8989833014,
				"y": -4.9649194129,
				"z": 0.4446646387,
				"element": "H" 
			},
			{
				"x": -3.5782581661,
				"y": -3.3186768995,
				"z": 0.831232184,
				"element": "H" 
			},
			{
				"x": 0.9373114325,
				"y": -2.2378795844,
				"z": -1.5125484287,
				"element": "H" 
			},
			{
				"x": 3.1669464069,
				"y": -1.2456432882,
				"z": -1.0913960516,
				"element": "H" 
			},
			{
				"x": 3.4770433587,
				"y": 0.3945753626,
				"z": 0.7525469635,
				"element": "H" 
			},
			{
				"x": 1.5354151842,
				"y": 1.0312747448,
				"z": 2.1719027361,
				"element": "H" 
			},
			{
				"x": -0.6887729038,
				"y": 0.032267074,
				"z": 1.7514482798,
				"element": "H" 
			}
		],
		 "valence_orbital": [ 
			{
				"type": "occ",
				"energy": -0.29386,
				"method": "rhf"
			},
			{
				"type": "occ",
				"energy": -0.29179,
				"method": "rhf"
			},
			{
				"type": "occ",
				"energy": -0.27047,
				"method": "rhf"
			},
			{
				"type": "occ",
				"energy": -0.24926,
				"method": "rhf"
			},
			{
				"type": "occ",
				"energy": -0.24247,
				"method": "rhf"
			},
			{
				"type": "unocc",
				"energy": -0.00976,
				"method": "rhf"
			},
			{
				"type": "unocc",
				"energy": -0.00213,
				"method": "rhf"
			},
			{
				"type": "unocc",
				"energy": 0.01999,
				"method": "rhf"
			},
			{
				"type": "unocc",
				"energy": 0.08006,
				"method": "rhf"
			},
			{
				"type": "unocc",
				"energy": 0.08766,
				"method": "rhf"
			}
		],
		"cosmo_sigma_profile": { 
			"-0.025": 0.0,
			"-0.024": 0.0,
			"-0.023": 0.0,
			"-0.022": 0.0,
			"-0.021": 0.0,
			"-0.02": 0.0,
			"-0.019": 0.0,
			"-0.018": 0.658739403283,
			"-0.017": 0.927758451705,
			"-0.016": 0.66890255439,
			"-0.015": 0.990383757824,
			"-0.014": 0.544211418667,
			"-0.013": 1.07595087752,
			"-0.012": 0.676777777568,
			"-0.011": 0.82324495233,
			"-0.01": 0.650397487314,
			"-0.009": 0.387224933444,
			"-0.008": 0.500435827411,
			"-0.007": 1.14580372615,
			"-0.006": 9.2062286204,
			"-0.005": 16.2546742411,
			"-0.004": 21.1592843584,
			"-0.003": 21.9563131512,
			"-0.002": 18.1199687907,
			"-0.001": 16.8960476701,
			"0.0": 14.6482307138,
			"0.001": 14.7432287728,
			"0.002": 14.5657365895,
			"0.003": 13.8071027099,
			"0.004": 13.6129866032,
			"0.005": 15.4036955109,
			"0.006": 10.5798304955,
			"0.007": 2.79916819804,
			"0.008": 2.36550204701,
			"0.009": 3.25615448008,
			"0.01": 2.44468617249,
			"0.011": 3.10441344751,
			"0.012": 3.63056515896,
			"0.013": 0.206360033783,
			"0.014": 0.0,
			"0.015": 0.0,
			"0.016": 0.0,
			"0.017": 0.0,
			"0.018": 0.0,
			"0.019": 0.0,
			"0.02": 0.0,
			"0.021": 0.0,
			"0.022": 0.0,
			"0.023": 0.0,
			"0.024": 0.0,
			"0.025": 0.0
		}
	}
}
