{
	 "smiles": "CCC(C)C(C(O)=O)C1=CC=CC=C1", 
	 "Tm": 324.15, 
	 "num_atms": 30, 
	 "gaussian": { 
		 "optdone": 1, 
		 "sigma_profile": "yes", 
		 "theory": "DFT", 
		 "functional": "B3LYP", 
		 "basiset": "6-31G**", 
		 "properties": { 
			 "R2extent": 3189.2217, 
			 "electric_dipole_moment_norm": 1.68235902827, 
			 "electric_quadrupole_moment_norm": 11.8782648346, 
			 "total_energy": -617.396969521, 
			 "HOMO_LUMO_gap": 0.22903, 
			 "cosmo_polarized_energy": -9.37, 
			 "cosmo_cavitation_energy": 31.86, 
			 "cosmo_dispersion_energy": -21.92, 
			 "cosmo_repulsion_energy": 1.74, 
			 "cosmo_total_nonelectrostatic_energy": 11.69, 
			 "SMD_solvation_energy": 6.49 
		},
		"coords": [
			{
				"x": -2.3378880361,
				"y": 0.8634066899,
				"z": 3.4650133798,
				"element": "C" 
			},
			{
				"x": -1.0481291869,
				"y": 1.5226391167,
				"z": 2.9564286499,
				"element": "C" 
			},
			{
				"x": -0.2261002823,
				"y": 0.7119650643,
				"z": 1.9257747244,
				"element": "C" 
			},
			{
				"x": 0.3744899463,
				"y": -0.5591821728,
				"z": 2.5449778545,
				"element": "C" 
			},
			{
				"x": -1.0448173388,
				"y": 0.3623016643,
				"z": 0.645154135,
				"element": "C" 
			},
			{
				"x": -1.7800918055,
				"y": 1.5734400987,
				"z": 0.0838170711,
				"element": "C" 
			},
			{
				"x": -0.9544031789,
				"y": 2.6198304054,
				"z": -0.1795300109,
				"element": "O" 
			},
			{
				"x": -2.9730270668,
				"y": 1.6330947382,
				"z": -0.1182452445,
				"element": "O" 
			},
			{
				"x": -0.2129722003,
				"y": -0.3125986174,
				"z": -0.4449079134,
				"element": "C" 
			},
			{
				"x": 0.8929952531,
				"y": 0.319286853,
				"z": -1.0337521884,
				"element": "C" 
			},
			{
				"x": 1.6409378596,
				"y": -0.3282469133,
				"z": -2.0171532386,
				"element": "C" 
			},
			{
				"x": 1.2971219899,
				"y": -1.6165732896,
				"z": -2.4324568879,
				"element": "C" 
			},
			{
				"x": 0.1968058772,
				"y": -2.2525068759,
				"z": -1.8573751816,
				"element": "C" 
			},
			{
				"x": -0.5506812595,
				"y": -1.6032012478,
				"z": -0.8732438028,
				"element": "C" 
			},
			{
				"x": -2.8046856766,
				"y": 1.4881612356,
				"z": 4.2333780559,
				"element": "H" 
			},
			{
				"x": -3.0713923655,
				"y": 0.734668378,
				"z": 2.6630846637,
				"element": "H" 
			},
			{
				"x": -2.1489016523,
				"y": -0.1171421413,
				"z": 3.9140379844,
				"element": "H" 
			},
			{
				"x": -1.2934051429,
				"y": 2.5006235722,
				"z": 2.5245676061,
				"element": "H" 
			},
			{
				"x": -0.3898451006,
				"y": 1.7320441819,
				"z": 3.809450649,
				"element": "H" 
			},
			{
				"x": 0.6045115173,
				"y": 1.3563406928,
				"z": 1.6118482754,
				"element": "H" 
			},
			{
				"x": 0.9584914069,
				"y": -0.3093938948,
				"z": 3.4371150456,
				"element": "H" 
			},
			{
				"x": 1.0358403162,
				"y": -1.0720463789,
				"z": 1.8418028523,
				"element": "H" 
			},
			{
				"x": -0.403351513,
				"y": -1.2698684455,
				"z": 2.8453747887,
				"element": "H" 
			},
			{
				"x": -1.8446411561,
				"y": -0.3293229008,
				"z": 0.9236158853,
				"element": "H" 
			},
			{
				"x": -1.5204950669,
				"y": 3.3188408459,
				"z": -0.5484347541,
				"element": "H" 
			},
			{
				"x": 1.1601251207,
				"y": 1.3266110186,
				"z": -0.7320428309,
				"element": "H" 
			},
			{
				"x": 2.4935795863,
				"y": 0.177075443,
				"z": -2.4623017055,
				"element": "H" 
			},
			{
				"x": 1.8807565411,
				"y": -2.1182956271,
				"z": -3.198951618,
				"element": "H" 
			},
			{
				"x": -0.0828347649,
				"y": -3.2535673344,
				"z": -2.1734071408,
				"element": "H" 
			},
			{
				"x": -1.4077926205,
				"y": -2.1044841589,
				"z": -0.4309391038,
				"element": "H" 
			}
		],
		 "valence_orbital": [ 
			{
				"type": "occ",
				"energy": -0.31943,
				"method": "rhf"
			},
			{
				"type": "occ",
				"energy": -0.31036,
				"method": "rhf"
			},
			{
				"type": "occ",
				"energy": -0.27583,
				"method": "rhf"
			},
			{
				"type": "occ",
				"energy": -0.25027,
				"method": "rhf"
			},
			{
				"type": "occ",
				"energy": -0.2412,
				"method": "rhf"
			},
			{
				"type": "unocc",
				"energy": -0.01217,
				"method": "rhf"
			},
			{
				"type": "unocc",
				"energy": -0.00233,
				"method": "rhf"
			},
			{
				"type": "unocc",
				"energy": 0.02154,
				"method": "rhf"
			},
			{
				"type": "unocc",
				"energy": 0.06955,
				"method": "rhf"
			},
			{
				"type": "unocc",
				"energy": 0.09458,
				"method": "rhf"
			}
		],
		"cosmo_sigma_profile": { 
			"-0.025": 0.0,
			"-0.024": 0.0,
			"-0.023": 0.0,
			"-0.022": 0.0,
			"-0.021": 0.0,
			"-0.02": 0.0,
			"-0.019": 0.0,
			"-0.018": 0.649897823108,
			"-0.017": 1.07798877985,
			"-0.016": 0.479159304612,
			"-0.015": 0.817740046493,
			"-0.014": 0.960813940755,
			"-0.013": 0.651759856284,
			"-0.012": 0.756553321861,
			"-0.011": 0.763398974626,
			"-0.01": 0.490015856188,
			"-0.009": 0.429882524466,
			"-0.008": 0.4816859038,
			"-0.007": 1.10283068126,
			"-0.006": 5.68190302088,
			"-0.005": 11.7073919184,
			"-0.004": 12.9794951983,
			"-0.003": 24.1211954993,
			"-0.002": 26.2206742228,
			"-0.001": 28.0634061238,
			"0.0": 27.120155991,
			"0.001": 29.5136654214,
			"0.002": 17.0831909029,
			"0.003": 11.8636349436,
			"0.004": 12.4429388255,
			"0.005": 11.4323308041,
			"0.006": 7.00329139723,
			"0.007": 2.00633340922,
			"0.008": 1.61734010984,
			"0.009": 2.19656502734,
			"0.01": 1.13066385137,
			"0.011": 3.53290683334,
			"0.012": 4.42432683791,
			"0.013": 0.71223323027,
			"0.014": 0.0,
			"0.015": 0.0,
			"0.016": 0.0,
			"0.017": 0.0,
			"0.018": 0.0,
			"0.019": 0.0,
			"0.02": 0.0,
			"0.021": 0.0,
			"0.022": 0.0,
			"0.023": 0.0,
			"0.024": 0.0,
			"0.025": 0.0
		}
	}
}
