{
	 "smiles": "CC(C)SC1=CC(SC(C)C)=C(SC(C)C)C=C1SC(C)C", 
	 "Tm": 350.15, 
	 "num_atms": 52, 
	 "gaussian": { 
		 "optdone": 1, 
		 "sigma_profile": "yes", 
		 "theory": "DFT", 
		 "functional": "B3LYP", 
		 "basiset": "6-31G**", 
		 "properties": { 
			 "R2extent": 11216.3408, 
			 "electric_dipole_moment_norm": 1.21365720449, 
			 "electric_quadrupole_moment_norm": 11.0392923528, 
			 "total_energy": -2296.77959163, 
			 "HOMO_LUMO_gap": 0.17146, 
			 "cosmo_polarized_energy": -10.84, 
			 "cosmo_cavitation_energy": 57.65, 
			 "cosmo_dispersion_energy": -37.53, 
			 "cosmo_repulsion_energy": 2.87, 
			 "cosmo_total_nonelectrostatic_energy": 22.99, 
			 "SMD_solvation_energy": 8.46 
		},
		"coords": [
			{
				"x": -2.0660478427,
				"y": -5.016303798,
				"z": 1.0254431628,
				"element": "C" 
			},
			{
				"x": -1.3388825989,
				"y": -3.8386594463,
				"z": 0.3709910467,
				"element": "C" 
			},
			{
				"x": -0.0244861429,
				"y": -4.2560036021,
				"z": -0.2863512415,
				"element": "C" 
			},
			{
				"x": -1.0894286002,
				"y": -2.5566510725,
				"z": 1.7024356095,
				"element": "S" 
			},
			{
				"x": -0.4719702404,
				"y": -1.1624273225,
				"z": 0.7579616035,
				"element": "C" 
			},
			{
				"x": -1.3273804058,
				"y": -0.5062375111,
				"z": -0.1304565482,
				"element": "C" 
			},
			{
				"x": -0.9313905313,
				"y": 0.6060624518,
				"z": -0.8846062118,
				"element": "C" 
			},
			{
				"x": -2.1310868613,
				"y": 1.3665772208,
				"z": -1.978535311,
				"element": "S" 
			},
			{
				"x": -3.2845239999,
				"y": 2.1914979976,
				"z": -0.7672155045,
				"element": "C" 
			},
			{
				"x": -4.491512238,
				"y": 2.6818499445,
				"z": -1.5712571945,
				"element": "C" 
			},
			{
				"x": -2.6025667102,
				"y": 3.3167930348,
				"z": 0.0084766398,
				"element": "C" 
			},
			{
				"x": 0.4013406998,
				"y": 1.0570223232,
				"z": -0.7554437261,
				"element": "C" 
			},
			{
				"x": 1.0621246472,
				"y": 2.5019583667,
				"z": -1.5856841996,
				"element": "S" 
			},
			{
				"x": 1.0984298845,
				"y": 2.0009657389,
				"z": -3.378595856,
				"element": "C" 
			},
			{
				"x": 2.0110921491,
				"y": 0.8007730875,
				"z": -3.6251248453,
				"element": "C" 
			},
			{
				"x": 1.5359051893,
				"y": 3.2398437929,
				"z": -4.1650189038,
				"element": "C" 
			},
			{
				"x": 1.2633777845,
				"y": 0.3982133128,
				"z": 0.1340761996,
				"element": "C" 
			},
			{
				"x": 0.8543174318,
				"y": -0.6942975722,
				"z": 0.9121052575,
				"element": "C" 
			},
			{
				"x": 1.927722686,
				"y": -1.5593021513,
				"z": 2.043589088,
				"element": "S" 
			},
			{
				"x": 3.4688744392,
				"y": -0.5315485729,
				"z": 2.1188045822,
				"element": "C" 
			},
			{
				"x": 4.5375545024,
				"y": -1.4216920679,
				"z": 2.7658755471,
				"element": "C" 
			},
			{
				"x": 3.2655012448,
				"y": 0.7704192892,
				"z": 2.8988595409,
				"element": "C" 
			},
			{
				"x": -2.2659031488,
				"y": -5.7893216061,
				"z": 0.2755405874,
				"element": "H" 
			},
			{
				"x": -3.0204230735,
				"y": -4.7097411922,
				"z": 1.4630491257,
				"element": "H" 
			},
			{
				"x": -1.454690104,
				"y": -5.4660951906,
				"z": 1.8150714212,
				"element": "H" 
			},
			{
				"x": -1.9955368047,
				"y": -3.3812108044,
				"z": -0.3769173771,
				"element": "H" 
			},
			{
				"x": -0.2215650891,
				"y": -4.9816535389,
				"z": -1.0852600399,
				"element": "H" 
			},
			{
				"x": 0.6469883819,
				"y": -4.7186142585,
				"z": 0.4432143826,
				"element": "H" 
			},
			{
				"x": 0.491938286,
				"y": -3.4000170794,
				"z": -0.7286433692,
				"element": "H" 
			},
			{
				"x": -2.3462816747,
				"y": -0.8671216269,
				"z": -0.2305347952,
				"element": "H" 
			},
			{
				"x": -3.6079040049,
				"y": 1.4081666094,
				"z": -0.0730012094,
				"element": "H" 
			},
			{
				"x": -5.2178201849,
				"y": 3.1502587626,
				"z": -0.8982565949,
				"element": "H" 
			},
			{
				"x": -4.1922959059,
				"y": 3.4305151212,
				"z": -2.3127332366,
				"element": "H" 
			},
			{
				"x": -4.9899592442,
				"y": 1.8606562432,
				"z": -2.0942944059,
				"element": "H" 
			},
			{
				"x": -2.2661843852,
				"y": 4.1088574119,
				"z": -0.667029835,
				"element": "H" 
			},
			{
				"x": -1.7332733479,
				"y": 2.9522921426,
				"z": 0.5616948477,
				"element": "H" 
			},
			{
				"x": -3.3058231675,
				"y": 3.7501247947,
				"z": 0.7305740324,
				"element": "H" 
			},
			{
				"x": 0.0678004095,
				"y": 1.7528846593,
				"z": -3.6477573163,
				"element": "H" 
			},
			{
				"x": 3.0490162609,
				"y": 1.0386814555,
				"z": -3.369930281,
				"element": "H" 
			},
			{
				"x": 1.7044020606,
				"y": -0.0663710054,
				"z": -3.0337408284,
				"element": "H" 
			},
			{
				"x": 1.9750086002,
				"y": 0.5157156441,
				"z": -4.6838393738,
				"element": "H" 
			},
			{
				"x": 1.5532814827,
				"y": 3.0094690661,
				"z": -5.2357911263,
				"element": "H" 
			},
			{
				"x": 0.85081511,
				"y": 4.077724094,
				"z": -4.0080211346,
				"element": "H" 
			},
			{
				"x": 2.543158144,
				"y": 3.5584440121,
				"z": -3.8747544189,
				"element": "H" 
			},
			{
				"x": 2.2795527636,
				"y": 0.764237376,
				"z": 0.1954148559,
				"element": "H" 
			},
			{
				"x": 3.7770559999,
				"y": -0.3171570211,
				"z": 1.0902425755,
				"element": "H" 
			},
			{
				"x": 4.7194892204,
				"y": -2.3257691404,
				"z": 2.1785817013,
				"element": "H" 
			},
			{
				"x": 4.2425072757,
				"y": -1.7225405271,
				"z": 3.7768912056,
				"element": "H" 
			},
			{
				"x": 5.4784501624,
				"y": -0.8668391161,
				"z": 2.8445385035,
				"element": "H" 
			},
			{
				"x": 2.9897570646,
				"y": 0.5550595748,
				"z": 3.9357893674,
				"element": "H" 
			},
			{
				"x": 2.4799722231,
				"y": 1.3929050779,
				"z": 2.4637800492,
				"element": "H" 
			},
			{
				"x": 4.1945022024,
				"y": 1.3532066179,
				"z": 2.9047939516,
				"element": "H" 
			}
		],
		 "valence_orbital": [ 
			{
				"type": "occ",
				"energy": -0.25917,
				"method": "rhf"
			},
			{
				"type": "occ",
				"energy": -0.2324,
				"method": "rhf"
			},
			{
				"type": "occ",
				"energy": -0.22472,
				"method": "rhf"
			},
			{
				"type": "occ",
				"energy": -0.21272,
				"method": "rhf"
			},
			{
				"type": "occ",
				"energy": -0.20573,
				"method": "rhf"
			},
			{
				"type": "unocc",
				"energy": -0.03427,
				"method": "rhf"
			},
			{
				"type": "unocc",
				"energy": -0.02081,
				"method": "rhf"
			},
			{
				"type": "unocc",
				"energy": 0.02769,
				"method": "rhf"
			},
			{
				"type": "unocc",
				"energy": 0.04113,
				"method": "rhf"
			},
			{
				"type": "unocc",
				"energy": 0.04818,
				"method": "rhf"
			}
		],
		"cosmo_sigma_profile": { 
			"-0.025": 0.0,
			"-0.024": 0.0,
			"-0.023": 0.0,
			"-0.022": 0.0,
			"-0.021": 0.0,
			"-0.02": 0.0,
			"-0.019": 0.0,
			"-0.018": 0.0,
			"-0.017": 0.0,
			"-0.016": 0.0,
			"-0.015": 0.0,
			"-0.014": 0.0,
			"-0.013": 0.0,
			"-0.012": 0.0,
			"-0.011": 0.0,
			"-0.01": 0.0,
			"-0.009": 0.0,
			"-0.008": 0.264013566569,
			"-0.007": 1.48302244619,
			"-0.006": 4.22829651259,
			"-0.005": 8.41959633003,
			"-0.004": 32.3501310364,
			"-0.003": 58.1618264353,
			"-0.002": 62.3019834019,
			"-0.001": 59.9355831221,
			"0.0": 72.6357121054,
			"0.001": 48.0972250326,
			"0.002": 23.1617329445,
			"0.003": 19.6109382041,
			"0.004": 12.5119052006,
			"0.005": 12.6143029833,
			"0.006": 12.4031007366,
			"0.007": 11.6397175591,
			"0.008": 7.1642942606,
			"0.009": 7.00532608743,
			"0.01": 2.30347473482,
			"0.011": 0.0220698246831,
			"0.012": 0.0,
			"0.013": 0.0,
			"0.014": 0.0,
			"0.015": 0.0,
			"0.016": 0.0,
			"0.017": 0.0,
			"0.018": 0.0,
			"0.019": 0.0,
			"0.02": 0.0,
			"0.021": 0.0,
			"0.022": 0.0,
			"0.023": 0.0,
			"0.024": 0.0,
			"0.025": 0.0
		}
	}
}
