{
	 "smiles": "CCOC(=O)CN1C(=O)C(=O)C2=C1C=CC=C2", 
	 "Tm": 401.15, 
	 "num_atms": 28, 
	 "gaussian": { 
		 "optdone": 1, 
		 "sigma_profile": "yes", 
		 "theory": "DFT", 
		 "functional": "B3LYP", 
		 "basiset": "6-31G**", 
		 "properties": { 
			 "R2extent": 4315.7136, 
			 "electric_dipole_moment_norm": 5.09813975681, 
			 "electric_quadrupole_moment_norm": 21.2188205266, 
			 "total_energy": -819.5668135, 
			 "HOMO_LUMO_gap": 0.13846, 
			 "cosmo_polarized_energy": -16.25, 
			 "cosmo_cavitation_energy": 33.54, 
			 "cosmo_dispersion_energy": -22.56, 
			 "cosmo_repulsion_energy": 1.77, 
			 "cosmo_total_nonelectrostatic_energy": 12.75, 
			 "SMD_solvation_energy": 8.12 
		},
		"coords": [
			{
				"x": 2.1621514928,
				"y": -2.1754603429,
				"z": -0.3256061128,
				"element": "C" 
			},
			{
				"x": 1.9687962303,
				"y": -1.0994179098,
				"z": -1.3821841381,
				"element": "C" 
			},
			{
				"x": 0.915221806,
				"y": -0.1737362995,
				"z": -1.0031015308,
				"element": "O" 
			},
			{
				"x": 1.2691734403,
				"y": 0.8519730829,
				"z": -0.2147825586,
				"element": "C" 
			},
			{
				"x": 2.3856919788,
				"y": 1.0644951153,
				"z": 0.2051943582,
				"element": "O" 
			},
			{
				"x": 0.0906226604,
				"y": 1.7860568846,
				"z": 0.0683591825,
				"element": "C" 
			},
			{
				"x": -1.2056471052,
				"y": 1.1529625863,
				"z": 0.0774337853,
				"element": "N" 
			},
			{
				"x": -2.1411849935,
				"y": 1.327011669,
				"z": -0.9366210982,
				"element": "C" 
			},
			{
				"x": -2.0267631346,
				"y": 2.0525174324,
				"z": -1.8998727239,
				"element": "O" 
			},
			{
				"x": -3.3498889888,
				"y": 0.4074657128,
				"z": -0.5560506259,
				"element": "C" 
			},
			{
				"x": -4.3676748351,
				"y": 0.3066408066,
				"z": -1.2055856549,
				"element": "O" 
			},
			{
				"x": -2.945267686,
				"y": -0.2447210319,
				"z": 0.6983714271,
				"element": "C" 
			},
			{
				"x": -1.6580061784,
				"y": 0.2234731959,
				"z": 1.0310426332,
				"element": "C" 
			},
			{
				"x": -1.0060436081,
				"y": -0.2254849769,
				"z": 2.1735963155,
				"element": "C" 
			},
			{
				"x": -1.6801533871,
				"y": -1.1548032161,
				"z": 2.9793605333,
				"element": "C" 
			},
			{
				"x": -2.9596301517,
				"y": -1.6241520234,
				"z": 2.660125833,
				"element": "C" 
			},
			{
				"x": -3.6025025682,
				"y": -1.1669229739,
				"z": 1.5064031709,
				"element": "C" 
			},
			{
				"x": 1.2232616448,
				"y": -2.7001957992,
				"z": -0.1270404625,
				"element": "H" 
			},
			{
				"x": 2.8981411417,
				"y": -2.9069318305,
				"z": -0.6751248243,
				"element": "H" 
			},
			{
				"x": 2.5304222069,
				"y": -1.7395256862,
				"z": 0.606329606,
				"element": "H" 
			},
			{
				"x": 2.8881528294,
				"y": -0.5327386498,
				"z": -1.5462649208,
				"element": "H" 
			},
			{
				"x": 1.6248044565,
				"y": -1.5204999178,
				"z": -2.3290893559,
				"element": "H" 
			},
			{
				"x": 0.060186581,
				"y": 2.5395424128,
				"z": -0.7265984802,
				"element": "H" 
			},
			{
				"x": 0.2943783183,
				"y": 2.2956151606,
				"z": 1.0144104605,
				"element": "H" 
			},
			{
				"x": -0.0135647205,
				"y": 0.1222205572,
				"z": 2.4403688194,
				"element": "H" 
			},
			{
				"x": -1.1894118504,
				"y": -1.5183674313,
				"z": 3.8776649539,
				"element": "H" 
			},
			{
				"x": -3.4481785086,
				"y": -2.3431428258,
				"z": 3.3094663439,
				"element": "H" 
			},
			{
				"x": -4.5937870711,
				"y": -1.5139737016,
				"z": 1.2309950643,
				"element": "H" 
			}
		],
		 "valence_orbital": [ 
			{
				"type": "occ",
				"energy": -0.3123,
				"method": "rhf"
			},
			{
				"type": "occ",
				"energy": -0.28977,
				"method": "rhf"
			},
			{
				"type": "occ",
				"energy": -0.27964,
				"method": "rhf"
			},
			{
				"type": "occ",
				"energy": -0.2492,
				"method": "rhf"
			},
			{
				"type": "occ",
				"energy": -0.23728,
				"method": "rhf"
			},
			{
				"type": "unocc",
				"energy": -0.09882,
				"method": "rhf"
			},
			{
				"type": "unocc",
				"energy": -0.0242,
				"method": "rhf"
			},
			{
				"type": "unocc",
				"energy": -0.00554,
				"method": "rhf"
			},
			{
				"type": "unocc",
				"energy": 0.0031,
				"method": "rhf"
			},
			{
				"type": "unocc",
				"energy": 0.07571,
				"method": "rhf"
			}
		],
		"cosmo_sigma_profile": { 
			"-0.025": 0.0,
			"-0.024": 0.0,
			"-0.023": 0.0,
			"-0.022": 0.0,
			"-0.021": 0.0,
			"-0.02": 0.0,
			"-0.019": 0.0,
			"-0.018": 0.0,
			"-0.017": 0.0,
			"-0.016": 0.0,
			"-0.015": 0.0,
			"-0.014": 0.0,
			"-0.013": 0.0,
			"-0.012": 0.0,
			"-0.011": 0.0,
			"-0.01": 0.0708390192145,
			"-0.009": 2.1023716622,
			"-0.008": 7.0135423888,
			"-0.007": 12.5383730188,
			"-0.006": 18.0782790103,
			"-0.005": 18.8657810434,
			"-0.004": 23.1221084234,
			"-0.003": 22.2472962206,
			"-0.002": 19.6743574036,
			"-0.001": 17.9653769664,
			"0.0": 19.643243717,
			"0.001": 17.6891057413,
			"0.002": 17.0236936561,
			"0.003": 13.1843891402,
			"0.004": 6.27043806875,
			"0.005": 5.82062601177,
			"0.006": 3.63464192584,
			"0.007": 4.84323315042,
			"0.008": 5.1096989944,
			"0.009": 6.64706844583,
			"0.01": 10.1632856492,
			"0.011": 11.9075737066,
			"0.012": 4.10098543147,
			"0.013": 0.133596186538,
			"0.014": 0.0,
			"0.015": 0.0,
			"0.016": 0.0,
			"0.017": 0.0,
			"0.018": 0.0,
			"0.019": 0.0,
			"0.02": 0.0,
			"0.021": 0.0,
			"0.022": 0.0,
			"0.023": 0.0,
			"0.024": 0.0,
			"0.025": 0.0
		}
	}
}
