{
	 "smiles": "CC1=CC=C(O)N=C1", 
	 "Tm": 458.15, 
	 "num_atms": 15, 
	 "gaussian": { 
		 "optdone": 1, 
		 "sigma_profile": "yes", 
		 "theory": "DFT", 
		 "functional": "B3LYP", 
		 "basiset": "6-31G**", 
		 "properties": { 
			 "R2extent": 1737.4224, 
			 "electric_dipole_moment_norm": 1.51035054871, 
			 "electric_quadrupole_moment_norm": 5.03982115853, 
			 "total_energy": -362.840908309, 
			 "HOMO_LUMO_gap": 0.206, 
			 "cosmo_polarized_energy": -6.73, 
			 "cosmo_cavitation_energy": 18.8, 
			 "cosmo_dispersion_energy": -14.23, 
			 "cosmo_repulsion_energy": 1.19, 
			 "cosmo_total_nonelectrostatic_energy": 5.76, 
			 "SMD_solvation_energy": 2.52 
		},
		"coords": [
			{
				"x": -0.0467505599,
				"y": 0.2021507888,
				"z": -3.3454016849,
				"element": "C" 
			},
			{
				"x": 0.591838202,
				"y": 0.7285989268,
				"z": -2.0842994409,
				"element": "C" 
			},
			{
				"x": 1.7127400662,
				"y": 0.1094945862,
				"z": -1.5022819984,
				"element": "C" 
			},
			{
				"x": 2.2752807128,
				"y": 0.6191643268,
				"z": -0.3428031654,
				"element": "C" 
			},
			{
				"x": 1.684096135,
				"y": 1.7634076626,
				"z": 0.2148989716,
				"element": "C" 
			},
			{
				"x": 2.2121729879,
				"y": 2.2843338678,
				"z": 1.3482114267,
				"element": "O" 
			},
			{
				"x": 0.6262327806,
				"y": 2.3735718202,
				"z": -0.3070014637,
				"element": "N" 
			},
			{
				"x": 0.1017334713,
				"y": 1.8582678434,
				"z": -1.4305420053,
				"element": "C" 
			},
			{
				"x": -0.4067686791,
				"y": -0.8252891828,
				"z": -3.2167495174,
				"element": "H" 
			},
			{
				"x": 0.660900667,
				"y": 0.193474133,
				"z": -4.1826161647,
				"element": "H" 
			},
			{
				"x": -0.9013834624,
				"y": 0.8173731693,
				"z": -3.6411829648,
				"element": "H" 
			},
			{
				"x": 2.1425092854,
				"y": -0.776146852,
				"z": -1.9646115169,
				"element": "H" 
			},
			{
				"x": 3.1387210637,
				"y": 0.1672564876,
				"z": 0.1318279408,
				"element": "H" 
			},
			{
				"x": 1.6651219335,
				"y": 3.0569448747,
				"z": 1.561518624,
				"element": "H" 
			},
			{
				"x": -0.7645446039,
				"y": 2.3843975476,
				"z": -1.8299670409,
				"element": "H" 
			}
		],
		 "valence_orbital": [ 
			{
				"type": "occ",
				"energy": -0.36024,
				"method": "rhf"
			},
			{
				"type": "occ",
				"energy": -0.33678,
				"method": "rhf"
			},
			{
				"type": "occ",
				"energy": -0.28105,
				"method": "rhf"
			},
			{
				"type": "occ",
				"energy": -0.26566,
				"method": "rhf"
			},
			{
				"type": "occ",
				"energy": -0.22608,
				"method": "rhf"
			},
			{
				"type": "unocc",
				"energy": -0.02008,
				"method": "rhf"
			},
			{
				"type": "unocc",
				"energy": 0.00868,
				"method": "rhf"
			},
			{
				"type": "unocc",
				"energy": 0.09514,
				"method": "rhf"
			},
			{
				"type": "unocc",
				"energy": 0.10344,
				"method": "rhf"
			},
			{
				"type": "unocc",
				"energy": 0.12192,
				"method": "rhf"
			}
		],
		"cosmo_sigma_profile": { 
			"-0.025": 0.0,
			"-0.024": 0.0,
			"-0.023": 0.0,
			"-0.022": 0.0,
			"-0.021": 0.0,
			"-0.02": 0.0,
			"-0.019": 0.0,
			"-0.018": 0.0,
			"-0.017": 0.191863729574,
			"-0.016": 0.773886219464,
			"-0.015": 0.786035362645,
			"-0.014": 0.712080048395,
			"-0.013": 0.729207273908,
			"-0.012": 0.360445084351,
			"-0.011": 0.544280444746,
			"-0.01": 0.92898502424,
			"-0.009": 0.673665836629,
			"-0.008": 0.340860296903,
			"-0.007": 1.80815209066,
			"-0.006": 5.81423688847,
			"-0.005": 9.29464212683,
			"-0.004": 13.4971143451,
			"-0.003": 12.2474959336,
			"-0.002": 10.5082528634,
			"-0.001": 10.8295399322,
			"0.0": 12.8035791676,
			"0.001": 11.3737642658,
			"0.002": 12.5811190808,
			"0.003": 14.2207683964,
			"0.004": 6.6372332976,
			"0.005": 3.55350469157,
			"0.006": 2.52786341885,
			"0.007": 2.39937097452,
			"0.008": 2.42332676159,
			"0.009": 3.45888872847,
			"0.01": 2.11344534108,
			"0.011": 2.3776081393,
			"0.012": 1.10099353936,
			"0.013": 1.0576434516,
			"0.014": 0.549125594293,
			"0.015": 0.135908022978,
			"0.016": 0.0,
			"0.017": 0.0,
			"0.018": 0.0,
			"0.019": 0.0,
			"0.02": 0.0,
			"0.021": 0.0,
			"0.022": 0.0,
			"0.023": 0.0,
			"0.024": 0.0,
			"0.025": 0.0
		}
	}
}
