{
	 "smiles": "NC(=O)C1=CC=C(C=C1)C1=CC=CC=C1", 
	 "Tm": 499.15, 
	 "num_atms": 26, 
	 "gaussian": { 
		 "optdone": 1, 
		 "sigma_profile": "yes", 
		 "theory": "DFT", 
		 "functional": "B3LYP", 
		 "basiset": "6-31G**", 
		 "properties": { 
			 "R2extent": 4527.4021, 
			 "electric_dipole_moment_norm": 3.63735024709, 
			 "electric_quadrupole_moment_norm": 18.5400873175, 
			 "total_energy": -632.016421021, 
			 "HOMO_LUMO_gap": 0.18188, 
			 "cosmo_polarized_energy": -14.36, 
			 "cosmo_cavitation_energy": 30.3, 
			 "cosmo_dispersion_energy": -22.29, 
			 "cosmo_repulsion_energy": 1.73, 
			 "cosmo_total_nonelectrostatic_energy": 9.73, 
			 "SMD_solvation_energy": 5.7 
		},
		"coords": [
			{
				"x": 2.34873105,
				"y": -3.9687301361,
				"z": 2.2846759611,
				"element": "N" 
			},
			{
				"x": 2.0354786123,
				"y": -3.5895389922,
				"z": 0.9990635445,
				"element": "C" 
			},
			{
				"x": 2.2712543801,
				"y": -4.3146279007,
				"z": 0.0399749292,
				"element": "O" 
			},
			{
				"x": 1.3674937423,
				"y": -2.2545003955,
				"z": 0.842317584,
				"element": "C" 
			},
			{
				"x": 1.3454364357,
				"y": -1.6869796027,
				"z": -0.4383020208,
				"element": "C" 
			},
			{
				"x": 0.747420134,
				"y": -0.4513539512,
				"z": -0.6558599525,
				"element": "C" 
			},
			{
				"x": 0.1391330093,
				"y": 0.2560514209,
				"z": 0.3971483015,
				"element": "C" 
			},
			{
				"x": 0.1488426692,
				"y": -0.3284507382,
				"z": 1.6752126185,
				"element": "C" 
			},
			{
				"x": 0.7521173007,
				"y": -1.5638312263,
				"z": 1.8954645843,
				"element": "C" 
			},
			{
				"x": -0.4995097953,
				"y": 1.575891331,
				"z": 0.1646727309,
				"element": "C" 
			},
			{
				"x": -1.6871956509,
				"y": 1.9312318335,
				"z": 0.827027345,
				"element": "C" 
			},
			{
				"x": -2.2855646708,
				"y": 3.1710939434,
				"z": 0.6078409578,
				"element": "C" 
			},
			{
				"x": -1.7092849977,
				"y": 4.083298089,
				"z": -0.2782701234,
				"element": "C" 
			},
			{
				"x": -0.5296590935,
				"y": 3.7441914739,
				"z": -0.9437512499,
				"element": "C" 
			},
			{
				"x": 0.0683798583,
				"y": 2.50409394,
				"z": -0.7250005245,
				"element": "C" 
			},
			{
				"x": 2.4778401774,
				"y": -3.2729413665,
				"z": 3.0025435346,
				"element": "H" 
			},
			{
				"x": 2.9076978638,
				"y": -4.8066881071,
				"z": 2.3585775686,
				"element": "H" 
			},
			{
				"x": 1.7978147872,
				"y": -2.2429248353,
				"z": -1.2525834846,
				"element": "H" 
			},
			{
				"x": 0.7241104575,
				"y": -0.0376653017,
				"z": -1.6594836796,
				"element": "H" 
			},
			{
				"x": -0.3054505365,
				"y": 0.1996964793,
				"z": 2.50799081,
				"element": "H" 
			},
			{
				"x": 0.7162125223,
				"y": -1.996661871,
				"z": 2.8911268721,
				"element": "H" 
			},
			{
				"x": -2.1588616229,
				"y": 1.2184955844,
				"z": 1.4970618234,
				"element": "H" 
			},
			{
				"x": -3.2084894297,
				"y": 3.4212138806,
				"z": 1.1234020506,
				"element": "H" 
			},
			{
				"x": -2.175548462,
				"y": 5.0492160761,
				"z": -0.4491402687,
				"element": "H" 
			},
			{
				"x": -0.068828385,
				"y": 4.4497078834,
				"z": -1.6293213583,
				"element": "H" 
			},
			{
				"x": 0.9993296443,
				"y": 2.2604124889,
				"z": -1.2282885536,
				"element": "H" 
			}
		],
		 "valence_orbital": [ 
			{
				"type": "occ",
				"energy": -0.27134,
				"method": "rhf"
			},
			{
				"type": "occ",
				"energy": -0.25914,
				"method": "rhf"
			},
			{
				"type": "occ",
				"energy": -0.25486,
				"method": "rhf"
			},
			{
				"type": "occ",
				"energy": -0.24803,
				"method": "rhf"
			},
			{
				"type": "occ",
				"energy": -0.23001,
				"method": "rhf"
			},
			{
				"type": "unocc",
				"energy": -0.04813,
				"method": "rhf"
			},
			{
				"type": "unocc",
				"energy": -0.01108,
				"method": "rhf"
			},
			{
				"type": "unocc",
				"energy": -0.00532,
				"method": "rhf"
			},
			{
				"type": "unocc",
				"energy": 0.00548,
				"method": "rhf"
			},
			{
				"type": "unocc",
				"energy": 0.06311,
				"method": "rhf"
			}
		],
		"cosmo_sigma_profile": { 
			"-0.025": 0.0,
			"-0.024": 0.0,
			"-0.023": 0.0,
			"-0.022": 0.0,
			"-0.021": 0.0,
			"-0.02": 0.0,
			"-0.019": 0.0,
			"-0.018": 0.0,
			"-0.017": 0.0,
			"-0.016": 0.0,
			"-0.015": 0.0294473911254,
			"-0.014": 1.3311429301,
			"-0.013": 2.39907338933,
			"-0.012": 2.56486019536,
			"-0.011": 2.20446798688,
			"-0.01": 2.47034746146,
			"-0.009": 2.26549792462,
			"-0.008": 3.06631210371,
			"-0.007": 2.36164759425,
			"-0.006": 12.311047861,
			"-0.005": 19.7893558712,
			"-0.004": 19.1427300225,
			"-0.003": 15.8278121502,
			"-0.002": 14.5914935846,
			"-0.001": 12.0256217814,
			"0.0": 14.9199356902,
			"0.001": 15.2355126711,
			"0.002": 18.5620332865,
			"0.003": 19.4207234781,
			"0.004": 23.0134277294,
			"0.005": 13.6507609496,
			"0.006": 5.28229036175,
			"0.007": 2.27971312503,
			"0.008": 2.6054420519,
			"0.009": 1.37049408512,
			"0.01": 1.2143116545,
			"0.011": 1.82830453172,
			"0.012": 1.88177467234,
			"0.013": 4.19924901913,
			"0.014": 4.41366552526,
			"0.015": 0.271301442571,
			"0.016": 0.0,
			"0.017": 0.0,
			"0.018": 0.0,
			"0.019": 0.0,
			"0.02": 0.0,
			"0.021": 0.0,
			"0.022": 0.0,
			"0.023": 0.0,
			"0.024": 0.0,
			"0.025": 0.0
		}
	}
}
