{
	 "smiles": "CC1(C)CC(=O)C2=C(O1)C=C(O)C=C2", 
	 "Tm": 442.15, 
	 "num_atms": 26, 
	 "gaussian": { 
		 "optdone": 1, 
		 "sigma_profile": "yes", 
		 "theory": "DFT", 
		 "functional": "B3LYP", 
		 "basiset": "6-31G**", 
		 "properties": { 
			 "R2extent": 3160.5131, 
			 "electric_dipole_moment_norm": 1.78406567704, 
			 "electric_quadrupole_moment_norm": 24.3499976684, 
			 "total_energy": -652.086545457, 
			 "HOMO_LUMO_gap": 0.18114, 
			 "cosmo_polarized_energy": -13.73, 
			 "cosmo_cavitation_energy": 28.69, 
			 "cosmo_dispersion_energy": -20.85, 
			 "cosmo_repulsion_energy": 1.63, 
			 "cosmo_total_nonelectrostatic_energy": 9.47, 
			 "SMD_solvation_energy": 5.91 
		},
		"coords": [
			{
				"x": 1.8956572432,
				"y": -0.8853013038,
				"z": 0.8614336929,
				"element": "C" 
			},
			{
				"x": 0.4102439214,
				"y": -0.5877047522,
				"z": 1.1084609094,
				"element": "C" 
			},
			{
				"x": 0.1622678622,
				"y": -0.2120225132,
				"z": 2.5675425289,
				"element": "C" 
			},
			{
				"x": -0.4891943698,
				"y": -1.7529564988,
				"z": 0.6685125584,
				"element": "C" 
			},
			{
				"x": -0.4948115,
				"y": -1.9620148701,
				"z": -0.8410484528,
				"element": "C" 
			},
			{
				"x": -0.6497385908,
				"y": -3.0689294948,
				"z": -1.3400726596,
				"element": "O" 
			},
			{
				"x": -0.3652174231,
				"y": -0.7255398116,
				"z": -1.6274840155,
				"element": "C" 
			},
			{
				"x": -0.1264004584,
				"y": 0.5089491948,
				"z": -0.9821377817,
				"element": "C" 
			},
			{
				"x": 0.0496810612,
				"y": 0.6142964294,
				"z": 0.3598308407,
				"element": "O" 
			},
			{
				"x": -0.0752191553,
				"y": 1.6951970645,
				"z": -1.7171187742,
				"element": "C" 
			},
			{
				"x": -0.2569473367,
				"y": 1.6531624783,
				"z": -3.0992965129,
				"element": "C" 
			},
			{
				"x": -0.1994406306,
				"y": 2.8363989526,
				"z": -3.7674888618,
				"element": "O" 
			},
			{
				"x": -0.4773389078,
				"y": 0.430266106,
				"z": -3.763277545,
				"element": "C" 
			},
			{
				"x": -0.5278155986,
				"y": -0.7373713015,
				"z": -3.0226495958,
				"element": "C" 
			},
			{
				"x": 2.5027823032,
				"y": -0.021607883,
				"z": 1.1461835702,
				"element": "H" 
			},
			{
				"x": 2.0921079985,
				"y": -1.1123221904,
				"z": -0.1900493954,
				"element": "H" 
			},
			{
				"x": 2.2138255054,
				"y": -1.7459849843,
				"z": 1.4578374407,
				"element": "H" 
			},
			{
				"x": 0.7779218354,
				"y": 0.6470740824,
				"z": 2.8490974485,
				"element": "H" 
			},
			{
				"x": -0.8877717681,
				"y": 0.0506915415,
				"z": 2.7234044959,
				"element": "H" 
			},
			{
				"x": 0.4142200324,
				"y": -1.0501939929,
				"z": 3.223989821,
				"element": "H" 
			},
			{
				"x": -1.5246758728,
				"y": -1.5405988082,
				"z": 0.9693267692,
				"element": "H" 
			},
			{
				"x": -0.192314029,
				"y": -2.6856162957,
				"z": 1.1555728305,
				"element": "H" 
			},
			{
				"x": 0.1120075446,
				"y": 2.6385333021,
				"z": -1.2181300975,
				"element": "H" 
			},
			{
				"x": -0.3273493718,
				"y": 2.6752375539,
				"z": -4.7116192813,
				"element": "H" 
			},
			{
				"x": -0.6121029515,
				"y": 0.4121693622,
				"z": -4.84213382,
				"element": "H" 
			},
			{
				"x": -0.7079773431,
				"y": -1.696911367,
				"z": -3.496986113,
				"element": "H" 
			}
		],
		 "valence_orbital": [ 
			{
				"type": "occ",
				"energy": -0.32135,
				"method": "rhf"
			},
			{
				"type": "occ",
				"energy": -0.3081,
				"method": "rhf"
			},
			{
				"type": "occ",
				"energy": -0.23903,
				"method": "rhf"
			},
			{
				"type": "occ",
				"energy": -0.23838,
				"method": "rhf"
			},
			{
				"type": "occ",
				"energy": -0.22568,
				"method": "rhf"
			},
			{
				"type": "unocc",
				"energy": -0.04454,
				"method": "rhf"
			},
			{
				"type": "unocc",
				"energy": 0.00049,
				"method": "rhf"
			},
			{
				"type": "unocc",
				"energy": 0.05119,
				"method": "rhf"
			},
			{
				"type": "unocc",
				"energy": 0.06281,
				"method": "rhf"
			},
			{
				"type": "unocc",
				"energy": 0.08308,
				"method": "rhf"
			}
		],
		"cosmo_sigma_profile": { 
			"-0.025": 0.0,
			"-0.024": 0.0,
			"-0.023": 0.0,
			"-0.022": 0.0,
			"-0.021": 0.0,
			"-0.02": 0.0,
			"-0.019": 0.136917182016,
			"-0.018": 1.09465602769,
			"-0.017": 0.92459313558,
			"-0.016": 0.799409307858,
			"-0.015": 1.06426404877,
			"-0.014": 1.74697587053,
			"-0.013": 0.639254306918,
			"-0.012": 0.713498613914,
			"-0.011": 0.853038422825,
			"-0.01": 1.37749248458,
			"-0.009": 1.26709592891,
			"-0.008": 0.915400722642,
			"-0.007": 2.71713629453,
			"-0.006": 8.44549190997,
			"-0.005": 13.9618226204,
			"-0.004": 20.8256650888,
			"-0.003": 18.0013118974,
			"-0.002": 18.8353944447,
			"-0.001": 18.4232799231,
			"0.0": 19.3331029532,
			"0.001": 11.8015517652,
			"0.002": 14.4227313503,
			"0.003": 18.5214604703,
			"0.004": 11.0984604205,
			"0.005": 5.1197809943,
			"0.006": 4.75956925446,
			"0.007": 4.14445421071,
			"0.008": 3.03980093852,
			"0.009": 5.54763101735,
			"0.01": 3.39432648444,
			"0.011": 3.60380072779,
			"0.012": 4.08458567904,
			"0.013": 3.66972900713,
			"0.014": 0.822356329897,
			"0.015": 0.00710083466302,
			"0.016": 0.0,
			"0.017": 0.0,
			"0.018": 0.0,
			"0.019": 0.0,
			"0.02": 0.0,
			"0.021": 0.0,
			"0.022": 0.0,
			"0.023": 0.0,
			"0.024": 0.0,
			"0.025": 0.0
		}
	}
}
