{
	 "smiles": "CN(CCC(N)=S)C(=O)OC(C)(C)C", 
	 "Tm": 353.15, 
	 "num_atms": 32, 
	 "gaussian": { 
		 "optdone": 1, 
		 "sigma_profile": "yes", 
		 "theory": "DFT", 
		 "functional": "B3LYP", 
		 "basiset": "6-31G**", 
		 "properties": { 
			 "R2extent": 4236.3052, 
			 "electric_dipole_moment_norm": 3.7295711724, 
			 "electric_quadrupole_moment_norm": 20.4845131263, 
			 "total_energy": -1011.9909267, 
			 "HOMO_LUMO_gap": 0.17492, 
			 "cosmo_polarized_energy": -18.25, 
			 "cosmo_cavitation_energy": 35.55, 
			 "cosmo_dispersion_energy": -23.82, 
			 "cosmo_repulsion_energy": 1.85, 
			 "cosmo_total_nonelectrostatic_energy": 13.58, 
			 "SMD_solvation_energy": 6.36 
		},
		"coords": [
			{
				"x": -1.5662055493,
				"y": 0.7104653397,
				"z": 2.3790615882,
				"element": "C" 
			},
			{
				"x": -0.6485034968,
				"y": -0.0004423994,
				"z": 1.4928651608,
				"element": "N" 
			},
			{
				"x": 0.6279448901,
				"y": -0.458886504,
				"z": 2.0387051936,
				"element": "C" 
			},
			{
				"x": 1.8429640338,
				"y": 0.3940703346,
				"z": 1.6085200594,
				"element": "C" 
			},
			{
				"x": 1.7532925467,
				"y": 1.829013402,
				"z": 2.0903251558,
				"element": "C" 
			},
			{
				"x": 1.2692800378,
				"y": 2.6973181051,
				"z": 1.1825923061,
				"element": "N" 
			},
			{
				"x": 2.1736803464,
				"y": 2.2898207137,
				"z": 3.6359088978,
				"element": "S" 
			},
			{
				"x": -1.0768173203,
				"y": -0.3266090537,
				"z": 0.2303224236,
				"element": "C" 
			},
			{
				"x": -2.1679949482,
				"y": -0.0185980978,
				"z": -0.2285997824,
				"element": "O" 
			},
			{
				"x": -0.1110942417,
				"y": -1.0146076306,
				"z": -0.4368316766,
				"element": "O" 
			},
			{
				"x": -0.3565761199,
				"y": -1.5346493762,
				"z": -1.7924294146,
				"element": "C" 
			},
			{
				"x": -0.5882701176,
				"y": -0.3741047738,
				"z": -2.7661072848,
				"element": "C" 
			},
			{
				"x": -1.5295080341,
				"y": -2.5206293252,
				"z": -1.7749822066,
				"element": "C" 
			},
			{
				"x": 0.9536000825,
				"y": -2.2589226155,
				"z": -2.1136722677,
				"element": "C" 
			},
			{
				"x": -1.0642337869,
				"y": 1.566345863,
				"z": 2.8388903695,
				"element": "H" 
			},
			{
				"x": -1.9294895328,
				"y": 0.0508533186,
				"z": 3.177406257,
				"element": "H" 
			},
			{
				"x": -2.4157330369,
				"y": 1.054142775,
				"z": 1.7913980176,
				"element": "H" 
			},
			{
				"x": 0.5492234266,
				"y": -0.4380471996,
				"z": 3.1288937747,
				"element": "H" 
			},
			{
				"x": 0.8090263122,
				"y": -1.491003543,
				"z": 1.7299231186,
				"element": "H" 
			},
			{
				"x": 2.7418690236,
				"y": -0.0546126955,
				"z": 2.0375621877,
				"element": "H" 
			},
			{
				"x": 1.9268840016,
				"y": 0.3514380876,
				"z": 0.5170262456,
				"element": "H" 
			},
			{
				"x": 0.9608330248,
				"y": 2.3940425132,
				"z": 0.2704561457,
				"element": "H" 
			},
			{
				"x": 1.1323896187,
				"y": 3.6624834243,
				"z": 1.4471768144,
				"element": "H" 
			},
			{
				"x": 0.2541246616,
				"y": 0.3251215188,
				"z": -2.7317827477,
				"element": "H" 
			},
			{
				"x": -1.5059944446,
				"y": 0.1610096245,
				"z": -2.5223162625,
				"element": "H" 
			},
			{
				"x": -0.66221685,
				"y": -0.7602149357,
				"z": -3.7878791895,
				"element": "H" 
			},
			{
				"x": -1.6288514635,
				"y": -2.9892423931,
				"z": -2.7594298439,
				"element": "H" 
			},
			{
				"x": -2.462881181,
				"y": -2.0143325884,
				"z": -1.5289641324,
				"element": "H" 
			},
			{
				"x": -1.3491265854,
				"y": -3.311691962,
				"z": -1.0401148101,
				"element": "H" 
			},
			{
				"x": 1.1408109083,
				"y": -3.0592821186,
				"z": -1.391900176,
				"element": "H" 
			},
			{
				"x": 0.9029700685,
				"y": -2.7000632538,
				"z": -3.1134628399,
				"element": "H" 
			},
			{
				"x": 1.7988037257,
				"y": -1.5645845543,
				"z": -2.0861610812,
				"element": "H" 
			}
		],
		 "valence_orbital": [ 
			{
				"type": "occ",
				"energy": -0.29381,
				"method": "rhf"
			},
			{
				"type": "occ",
				"energy": -0.26622,
				"method": "rhf"
			},
			{
				"type": "occ",
				"energy": -0.2472,
				"method": "rhf"
			},
			{
				"type": "occ",
				"energy": -0.22939,
				"method": "rhf"
			},
			{
				"type": "occ",
				"energy": -0.20863,
				"method": "rhf"
			},
			{
				"type": "unocc",
				"energy": -0.03371,
				"method": "rhf"
			},
			{
				"type": "unocc",
				"energy": 0.04716,
				"method": "rhf"
			},
			{
				"type": "unocc",
				"energy": 0.05177,
				"method": "rhf"
			},
			{
				"type": "unocc",
				"energy": 0.07723,
				"method": "rhf"
			},
			{
				"type": "unocc",
				"energy": 0.08814,
				"method": "rhf"
			}
		],
		"cosmo_sigma_profile": { 
			"-0.025": 0.0,
			"-0.024": 0.0,
			"-0.023": 0.0,
			"-0.022": 0.0,
			"-0.021": 0.0,
			"-0.02": 0.0,
			"-0.019": 0.0,
			"-0.018": 0.0,
			"-0.017": 0.0,
			"-0.016": 0.0245105759018,
			"-0.015": 1.34700705743,
			"-0.014": 2.23394406001,
			"-0.013": 2.72771015098,
			"-0.012": 2.18908183595,
			"-0.011": 2.21880489231,
			"-0.01": 2.49232956506,
			"-0.009": 2.41818651071,
			"-0.008": 2.16243482113,
			"-0.007": 2.1224586736,
			"-0.006": 3.09102497239,
			"-0.005": 9.98879353197,
			"-0.004": 21.3952628433,
			"-0.003": 31.1720271921,
			"-0.002": 31.0727523994,
			"-0.001": 30.7869973789,
			"0.0": 31.3336626815,
			"0.001": 24.8119769071,
			"0.002": 8.98648026493,
			"0.003": 8.18411245442,
			"0.004": 6.83529642116,
			"0.005": 5.50694832554,
			"0.006": 6.46684636082,
			"0.007": 4.88750138041,
			"0.008": 6.18246149284,
			"0.009": 8.17381309766,
			"0.01": 5.82314348071,
			"0.011": 4.95209696884,
			"0.012": 4.81197530678,
			"0.013": 4.09072519811,
			"0.014": 1.14697748392,
			"0.015": 0.0,
			"0.016": 0.0,
			"0.017": 0.0,
			"0.018": 0.0,
			"0.019": 0.0,
			"0.02": 0.0,
			"0.021": 0.0,
			"0.022": 0.0,
			"0.023": 0.0,
			"0.024": 0.0,
			"0.025": 0.0
		}
	}
}
