{
	 "smiles": "NSCC1=CC2=CC=CC=C2OC1=N", 
	 "Tm": 438.15, 
	 "num_atms": 24, 
	 "gaussian": { 
		 "optdone": 1, 
		 "sigma_profile": "yes", 
		 "theory": "DFT", 
		 "functional": "B3LYP", 
		 "basiset": "6-31G**", 
		 "properties": { 
			 "R2extent": 3760.3822, 
			 "electric_dipole_moment_norm": 2.79123944333, 
			 "electric_quadrupole_moment_norm": 16.3152935275, 
			 "total_energy": -969.975458809, 
			 "HOMO_LUMO_gap": 0.15469, 
			 "cosmo_polarized_energy": -15.37, 
			 "cosmo_cavitation_energy": 29.23, 
			 "cosmo_dispersion_energy": -22.13, 
			 "cosmo_repulsion_energy": 1.67, 
			 "cosmo_total_nonelectrostatic_energy": 8.78, 
			 "SMD_solvation_energy": 3.89 
		},
		"coords": [
			{
				"x": 0.6941547546,
				"y": -3.925608743,
				"z": 1.1283294996,
				"element": "N" 
			},
			{
				"x": 1.6643005355,
				"y": -3.1366775887,
				"z": -0.0744826311,
				"element": "S" 
			},
			{
				"x": 1.7185920096,
				"y": -1.4124997206,
				"z": 0.6079892075,
				"element": "C" 
			},
			{
				"x": 0.6546108184,
				"y": -0.47734401,
				"z": 0.1089009921,
				"element": "C" 
			},
			{
				"x": 0.9389613897,
				"y": 0.4879712985,
				"z": -0.7986438133,
				"element": "C" 
			},
			{
				"x": -0.0696864555,
				"y": 1.3975459175,
				"z": -1.2837308596,
				"element": "C" 
			},
			{
				"x": 0.166699223,
				"y": 2.4090654853,
				"z": -2.2307201772,
				"element": "C" 
			},
			{
				"x": -0.8612539149,
				"y": 3.2501835834,
				"z": -2.6399598787,
				"element": "C" 
			},
			{
				"x": -2.1461629038,
				"y": 3.0898632425,
				"z": -2.1024973256,
				"element": "C" 
			},
			{
				"x": -2.4055315767,
				"y": 2.0957203692,
				"z": -1.1625744061,
				"element": "C" 
			},
			{
				"x": -1.3666439373,
				"y": 1.2550334349,
				"z": -0.7585345775,
				"element": "C" 
			},
			{
				"x": -1.6571774997,
				"y": 0.298185704,
				"z": 0.1631043598,
				"element": "O" 
			},
			{
				"x": -0.7219533315,
				"y": -0.6226361716,
				"z": 0.625000531,
				"element": "C" 
			},
			{
				"x": -1.187546355,
				"y": -1.4696871232,
				"z": 1.4505140649,
				"element": "N" 
			},
			{
				"x": 1.2136070569,
				"y": -4.679525491,
				"z": 1.5676956927,
				"element": "H" 
			},
			{
				"x": -0.1588795028,
				"y": -4.2926710816,
				"z": 0.7168004144,
				"element": "H" 
			},
			{
				"x": 2.7047959782,
				"y": -1.0317907298,
				"z": 0.3272129547,
				"element": "H" 
			},
			{
				"x": 1.698083843,
				"y": -1.5235697416,
				"z": 1.6960601726,
				"element": "H" 
			},
			{
				"x": 1.9532387554,
				"y": 0.5938853417,
				"z": -1.1783862693,
				"element": "H" 
			},
			{
				"x": 1.1677029231,
				"y": 2.5223815792,
				"z": -2.6388789741,
				"element": "H" 
			},
			{
				"x": -0.6701650469,
				"y": 4.0281460008,
				"z": -3.3722243463,
				"element": "H" 
			},
			{
				"x": -2.9513473689,
				"y": 3.745865978,
				"z": -2.4197225349,
				"element": "H" 
			},
			{
				"x": -3.3918292474,
				"y": 1.9545060589,
				"z": -0.734145371,
				"element": "H" 
			},
			{
				"x": -0.4711701469,
				"y": -2.134243593,
				"z": 1.7447932755,
				"element": "H" 
			}
		],
		 "valence_orbital": [ 
			{
				"type": "occ",
				"energy": -0.27478,
				"method": "rhf"
			},
			{
				"type": "occ",
				"energy": -0.25667,
				"method": "rhf"
			},
			{
				"type": "occ",
				"energy": -0.24465,
				"method": "rhf"
			},
			{
				"type": "occ",
				"energy": -0.23778,
				"method": "rhf"
			},
			{
				"type": "occ",
				"energy": -0.21028,
				"method": "rhf"
			},
			{
				"type": "unocc",
				"energy": -0.05559,
				"method": "rhf"
			},
			{
				"type": "unocc",
				"energy": -0.00212,
				"method": "rhf"
			},
			{
				"type": "unocc",
				"energy": 0.01081,
				"method": "rhf"
			},
			{
				"type": "unocc",
				"energy": 0.01569,
				"method": "rhf"
			},
			{
				"type": "unocc",
				"energy": 0.04928,
				"method": "rhf"
			}
		],
		"cosmo_sigma_profile": { 
			"-0.025": 0.0,
			"-0.024": 0.0,
			"-0.023": 0.0,
			"-0.022": 0.0,
			"-0.021": 0.0,
			"-0.02": 0.0,
			"-0.019": 0.0,
			"-0.018": 0.0,
			"-0.017": 0.0,
			"-0.016": 0.0,
			"-0.015": 0.0,
			"-0.014": 0.0,
			"-0.013": 0.373647909803,
			"-0.012": 2.64341727399,
			"-0.011": 2.36025391582,
			"-0.01": 2.44702846311,
			"-0.009": 2.88042716767,
			"-0.008": 4.72364660267,
			"-0.007": 11.1886844547,
			"-0.006": 14.5311604257,
			"-0.005": 14.8715287199,
			"-0.004": 15.8538234114,
			"-0.003": 12.8870270002,
			"-0.002": 15.2677316644,
			"-0.001": 12.6847685374,
			"0.0": 14.7045183875,
			"0.001": 17.5089308935,
			"0.002": 17.3435222459,
			"0.003": 17.8244419009,
			"0.004": 15.5166684704,
			"0.005": 8.18468866179,
			"0.006": 4.43979664962,
			"0.007": 4.98764658744,
			"0.008": 4.15105413816,
			"0.009": 3.7154559433,
			"0.01": 2.12689492518,
			"0.011": 1.86114518182,
			"0.012": 1.70934264933,
			"0.013": 1.31740671036,
			"0.014": 1.69494144304,
			"0.015": 1.51549903179,
			"0.016": 1.31400493919,
			"0.017": 1.37261534951,
			"0.018": 1.20910257878,
			"0.019": 0.211839400566,
			"0.02": 0.0,
			"0.021": 0.0,
			"0.022": 0.0,
			"0.023": 0.0,
			"0.024": 0.0,
			"0.025": 0.0
		}
	}
}
