{
	 "smiles": "CC(=O)NC1=CC=CC2=C1C=CC1=C2N=C(C2=CC=CC=C2)C(=N1)C1=CC=CC=C1", 
	 "Tm": 522.15, 
	 "num_atms": 49, 
	 "gaussian": { 
		 "optdone": 1, 
		 "sigma_profile": "yes", 
		 "theory": "DFT", 
		 "functional": "B3LYP", 
		 "basiset": "6-31G**", 
		 "properties": { 
			 "R2extent": 16903.2629, 
			 "electric_dipole_moment_norm": 4.20652174249, 
			 "electric_quadrupole_moment_norm": 21.2386460884, 
			 "total_energy": -1241.74185417, 
			 "HOMO_LUMO_gap": 0.14195, 
			 "cosmo_polarized_energy": -17.21, 
			 "cosmo_cavitation_energy": 53.12, 
			 "cosmo_dispersion_energy": -36.78, 
			 "cosmo_repulsion_energy": 2.73, 
			 "cosmo_total_nonelectrostatic_energy": 19.07, 
			 "SMD_solvation_energy": 7.23 
		},
		"coords": [
			{
				"x": -4.726248597,
				"y": -2.9680877291,
				"z": 2.4820356736,
				"element": "C" 
			},
			{
				"x": -4.0225749649,
				"y": -3.9401329832,
				"z": 1.5525843327,
				"element": "C" 
			},
			{
				"x": -4.5203812057,
				"y": -5.0087454223,
				"z": 1.2302349216,
				"element": "O" 
			},
			{
				"x": -2.7845192668,
				"y": -3.5794576649,
				"z": 1.0452567126,
				"element": "N" 
			},
			{
				"x": -1.9764176891,
				"y": -2.4469671617,
				"z": 1.3175685688,
				"element": "C" 
			},
			{
				"x": -1.6502964242,
				"y": -2.1040454325,
				"z": 2.6227886204,
				"element": "C" 
			},
			{
				"x": -0.8319344567,
				"y": -0.9929742585,
				"z": 2.8908936089,
				"element": "C" 
			},
			{
				"x": -0.2985288054,
				"y": -0.2493310477,
				"z": 1.8557724282,
				"element": "C" 
			},
			{
				"x": -0.5906355025,
				"y": -0.5882624186,
				"z": 0.5184220524,
				"element": "C" 
			},
			{
				"x": -1.4585595708,
				"y": -1.6817956863,
				"z": 0.2296918307,
				"element": "C" 
			},
			{
				"x": -1.7962190787,
				"y": -1.9737303974,
				"z": -1.1375293847,
				"element": "C" 
			},
			{
				"x": -1.2708016522,
				"y": -1.2595663406,
				"z": -2.1733408334,
				"element": "C" 
			},
			{
				"x": -0.3604101685,
				"y": -0.1839201695,
				"z": -1.9223356784,
				"element": "C" 
			},
			{
				"x": -0.0402496469,
				"y": 0.1704390981,
				"z": -0.587821602,
				"element": "C" 
			},
			{
				"x": 0.7464020838,
				"y": 1.2373653865,
				"z": -0.3421485757,
				"element": "N" 
			},
			{
				"x": 1.2544096852,
				"y": 1.9208829797,
				"z": -1.3629690375,
				"element": "C" 
			},
			{
				"x": 1.9896301447,
				"y": 3.1628978108,
				"z": -0.9948500138,
				"element": "C" 
			},
			{
				"x": 2.8224125188,
				"y": 3.1605683121,
				"z": 0.1356322474,
				"element": "C" 
			},
			{
				"x": 3.4801135092,
				"y": 4.3224417714,
				"z": 0.5350698938,
				"element": "C" 
			},
			{
				"x": 3.3002445402,
				"y": 5.5103968683,
				"z": -0.1770027566,
				"element": "C" 
			},
			{
				"x": 2.4584406781,
				"y": 5.5278882787,
				"z": -1.2910599603,
				"element": "C" 
			},
			{
				"x": 1.8111353138,
				"y": 4.3633985258,
				"z": -1.7010366781,
				"element": "C" 
			},
			{
				"x": 1.0383539058,
				"y": 1.4729411899,
				"z": -2.7160102025,
				"element": "C" 
			},
			{
				"x": 0.2074542993,
				"y": 0.4655973289,
				"z": -2.9625220768,
				"element": "N" 
			},
			{
				"x": 1.7267720702,
				"y": 2.0379337647,
				"z": -3.910090598,
				"element": "C" 
			},
			{
				"x": 1.0169929491,
				"y": 2.1621372254,
				"z": -5.1153573771,
				"element": "C" 
			},
			{
				"x": 1.64696597,
				"y": 2.6367167487,
				"z": -6.2640596245,
				"element": "C" 
			},
			{
				"x": 3.0016281288,
				"y": 2.9753641871,
				"z": -6.2323635751,
				"element": "C" 
			},
			{
				"x": 3.7216433561,
				"y": 2.8348635915,
				"z": -5.0442187843,
				"element": "C" 
			},
			{
				"x": 3.0900167927,
				"y": 2.3740467249,
				"z": -3.8901086046,
				"element": "C" 
			},
			{
				"x": -4.4722504044,
				"y": -1.9244051891,
				"z": 2.2868218482,
				"element": "H" 
			},
			{
				"x": -5.7992154381,
				"y": -3.1247482913,
				"z": 2.3635756723,
				"element": "H" 
			},
			{
				"x": -4.4702058277,
				"y": -3.1918237074,
				"z": 3.5229621565,
				"element": "H" 
			},
			{
				"x": -2.4357091802,
				"y": -4.2606585188,
				"z": 0.3814119639,
				"element": "H" 
			},
			{
				"x": -2.016864975,
				"y": -2.7173798808,
				"z": 3.4388731163,
				"element": "H" 
			},
			{
				"x": -0.6003780117,
				"y": -0.738710595,
				"z": 3.9208687856,
				"element": "H" 
			},
			{
				"x": 0.3479634876,
				"y": 0.6000407589,
				"z": 2.0427024484,
				"element": "H" 
			},
			{
				"x": -2.5004190445,
				"y": -2.7733899387,
				"z": -1.3403478603,
				"element": "H" 
			},
			{
				"x": -1.5184020589,
				"y": -1.4814211695,
				"z": -3.2062185573,
				"element": "H" 
			},
			{
				"x": 2.9440482057,
				"y": 2.2384961943,
				"z": 0.6942341006,
				"element": "H" 
			},
			{
				"x": 4.1305183792,
				"y": 4.3016027082,
				"z": 1.4048956005,
				"element": "H" 
			},
			{
				"x": 3.8089848823,
				"y": 6.4174429406,
				"z": 0.1365903641,
				"element": "H" 
			},
			{
				"x": 2.3019067776,
				"y": 6.450977386,
				"z": -1.8416076978,
				"element": "H" 
			},
			{
				"x": 1.1555913019,
				"y": 4.3886456155,
				"z": -2.5649930143,
				"element": "H" 
			},
			{
				"x": -0.0291487302,
				"y": 1.8760448366,
				"z": -5.1372867301,
				"element": "H" 
			},
			{
				"x": 1.0813645759,
				"y": 2.7377952548,
				"z": -7.185954991,
				"element": "H" 
			},
			{
				"x": 3.4943130631,
				"y": 3.3409830399,
				"z": -7.1287583706,
				"element": "H" 
			},
			{
				"x": 4.7791349599,
				"y": 3.0810231164,
				"z": -5.0151829355,
				"element": "H" 
			},
			{
				"x": 3.6603291211,
				"y": 2.263122359,
				"z": -2.9741114273,
				"element": "H" 
			}
		],
		 "valence_orbital": [ 
			{
				"type": "occ",
				"energy": -0.25031,
				"method": "rhf"
			},
			{
				"type": "occ",
				"energy": -0.24857,
				"method": "rhf"
			},
			{
				"type": "occ",
				"energy": -0.24442,
				"method": "rhf"
			},
			{
				"type": "occ",
				"energy": -0.23412,
				"method": "rhf"
			},
			{
				"type": "occ",
				"energy": -0.21589,
				"method": "rhf"
			},
			{
				"type": "unocc",
				"energy": -0.07394,
				"method": "rhf"
			},
			{
				"type": "unocc",
				"energy": -0.06014,
				"method": "rhf"
			},
			{
				"type": "unocc",
				"energy": -0.02974,
				"method": "rhf"
			},
			{
				"type": "unocc",
				"energy": -0.01088,
				"method": "rhf"
			},
			{
				"type": "unocc",
				"energy": -0.00591,
				"method": "rhf"
			}
		],
		"cosmo_sigma_profile": { 
			"-0.025": 0.0,
			"-0.024": 0.0,
			"-0.023": 0.0,
			"-0.022": 0.0,
			"-0.021": 0.0,
			"-0.02": 0.0,
			"-0.019": 0.0,
			"-0.018": 0.0,
			"-0.017": 0.0,
			"-0.016": 0.0,
			"-0.015": 0.00361021897297,
			"-0.014": 0.6993368324,
			"-0.013": 0.840284833622,
			"-0.012": 1.47874657297,
			"-0.011": 0.963919451187,
			"-0.01": 1.49691873258,
			"-0.009": 1.19957629297,
			"-0.008": 1.5048774135,
			"-0.007": 6.88135129466,
			"-0.006": 20.1337301839,
			"-0.005": 32.0788518923,
			"-0.004": 38.4530735535,
			"-0.003": 34.5647509988,
			"-0.002": 33.6222128099,
			"-0.001": 35.8655143338,
			"0.0": 29.6394747423,
			"0.001": 31.9445432115,
			"0.002": 35.7538227805,
			"0.003": 32.6072966027,
			"0.004": 28.4481659029,
			"0.005": 23.8690446466,
			"0.006": 6.56696467011,
			"0.007": 3.51879410731,
			"0.008": 3.94129078211,
			"0.009": 3.03708147783,
			"0.01": 2.42485261451,
			"0.011": 2.4900918834,
			"0.012": 2.4901264995,
			"0.013": 5.2807353328,
			"0.014": 4.36890531687,
			"0.015": 0.720163196973,
			"0.016": 0.0,
			"0.017": 0.0,
			"0.018": 0.0,
			"0.019": 0.0,
			"0.02": 0.0,
			"0.021": 0.0,
			"0.022": 0.0,
			"0.023": 0.0,
			"0.024": 0.0,
			"0.025": 0.0
		}
	}
}
