{
	 "smiles": "CCC(C(=O)NC1=CC=C(C)C=C1)C1=CC=C(C)C=C1", 
	 "Tm": 391.15, 
	 "num_atms": 41, 
	 "gaussian": { 
		 "optdone": 1, 
		 "sigma_profile": "yes", 
		 "theory": "DFT", 
		 "functional": "B3LYP", 
		 "basiset": "6-31G**", 
		 "properties": { 
			 "R2extent": 8104.2005, 
			 "electric_dipole_moment_norm": 3.65888536716, 
			 "electric_quadrupole_moment_norm": 6.40443014717, 
			 "total_energy": -828.593497888, 
			 "HOMO_LUMO_gap": 0.19816, 
			 "cosmo_polarized_energy": -11.3, 
			 "cosmo_cavitation_energy": 43.08, 
			 "cosmo_dispersion_energy": -29.85, 
			 "cosmo_repulsion_energy": 2.32, 
			 "cosmo_total_nonelectrostatic_energy": 15.54, 
			 "SMD_solvation_energy": 7.56 
		},
		"coords": [
			{
				"x": -2.7586339849,
				"y": -1.7695861961,
				"z": -0.3319225363,
				"element": "C" 
			},
			{
				"x": -1.9066399297,
				"y": -1.9907494826,
				"z": -1.5846149761,
				"element": "C" 
			},
			{
				"x": -0.685478803,
				"y": -1.0505776293,
				"z": -1.7522677873,
				"element": "C" 
			},
			{
				"x": 0.3911050919,
				"y": -1.358166583,
				"z": -0.6834799823,
				"element": "C" 
			},
			{
				"x": 0.3973665021,
				"y": -2.4152093357,
				"z": -0.0640192914,
				"element": "O" 
			},
			{
				"x": 1.361987355,
				"y": -0.3934363817,
				"z": -0.5612378284,
				"element": "N" 
			},
			{
				"x": 2.5187126717,
				"y": -0.3905384447,
				"z": 0.247826617,
				"element": "C" 
			},
			{
				"x": 2.8879660473,
				"y": -1.4570776113,
				"z": 1.0812335245,
				"element": "C" 
			},
			{
				"x": 4.0547110418,
				"y": -1.3621490721,
				"z": 1.8388453863,
				"element": "C" 
			},
			{
				"x": 4.881081753,
				"y": -0.2324552147,
				"z": 1.8028140525,
				"element": "C" 
			},
			{
				"x": 6.1231931651,
				"y": -0.1401922335,
				"z": 2.6575414792,
				"element": "C" 
			},
			{
				"x": 4.4981770698,
				"y": 0.8202520033,
				"z": 0.9616154327,
				"element": "C" 
			},
			{
				"x": 3.3381735741,
				"y": 0.7476821243,
				"z": 0.1968998635,
				"element": "C" 
			},
			{
				"x": -1.0593965113,
				"y": 0.4184373766,
				"z": -1.8929360323,
				"element": "C" 
			},
			{
				"x": -1.3675715017,
				"y": 1.226928161,
				"z": -0.7855065814,
				"element": "C" 
			},
			{
				"x": -1.748177208,
				"y": 2.5577968301,
				"z": -0.9509299741,
				"element": "C" 
			},
			{
				"x": -1.8397377639,
				"y": 3.1363365606,
				"z": -2.2243144517,
				"element": "C" 
			},
			{
				"x": -2.2826994163,
				"y": 4.5698433322,
				"z": -2.3982350608,
				"element": "C" 
			},
			{
				"x": -1.5241447741,
				"y": 2.3345734863,
				"z": -3.3277213253,
				"element": "C" 
			},
			{
				"x": -1.1407515649,
				"y": 1.0032392668,
				"z": -3.1644055406,
				"element": "C" 
			},
			{
				"x": -2.15974285,
				"y": -1.8958286493,
				"z": 0.5744130493,
				"element": "H" 
			},
			{
				"x": -3.2132897063,
				"y": -0.7744090847,
				"z": -0.3157445135,
				"element": "H" 
			},
			{
				"x": -3.5708399704,
				"y": -2.5030402662,
				"z": -0.2970577492,
				"element": "H" 
			},
			{
				"x": -2.5305915017,
				"y": -1.8814054357,
				"z": -2.4796457519,
				"element": "H" 
			},
			{
				"x": -1.522787393,
				"y": -3.0150950135,
				"z": -1.5785571343,
				"element": "H" 
			},
			{
				"x": -0.2071298537,
				"y": -1.3446835147,
				"z": -2.6985693048,
				"element": "H" 
			},
			{
				"x": 1.2108053014,
				"y": 0.4477536471,
				"z": -1.1011539342,
				"element": "H" 
			},
			{
				"x": 2.2641822251,
				"y": -2.3384285508,
				"z": 1.1229725644,
				"element": "H" 
			},
			{
				"x": 4.3276676595,
				"y": -2.1994870847,
				"z": 2.4769894234,
				"element": "H" 
			},
			{
				"x": 6.8853330131,
				"y": 0.4916829674,
				"z": 2.1907568466,
				"element": "H" 
			},
			{
				"x": 6.5638106627,
				"y": -1.1269212912,
				"z": 2.8305147,
				"element": "H" 
			},
			{
				"x": 5.9018003614,
				"y": 0.2924880736,
				"z": 3.6417523926,
				"element": "H" 
			},
			{
				"x": 5.1169925787,
				"y": 1.7122708128,
				"z": 0.9005151067,
				"element": "H" 
			},
			{
				"x": 3.0664252587,
				"y": 1.5788298302,
				"z": -0.4505664711,
				"element": "H" 
			},
			{
				"x": -1.297080847,
				"y": 0.8164995435,
				"z": 0.2175971517,
				"element": "H" 
			},
			{
				"x": -1.9758880424,
				"y": 3.1584165139,
				"z": -0.0734675459,
				"element": "H" 
			},
			{
				"x": -1.915296007,
				"y": 4.99167541,
				"z": -3.3383367998,
				"element": "H" 
			},
			{
				"x": -3.3771822159,
				"y": 4.6467635056,
				"z": -2.4117208692,
				"element": "H" 
			},
			{
				"x": -1.9250604373,
				"y": 5.2023979394,
				"z": -1.5798105596,
				"element": "H" 
			},
			{
				"x": -1.5735847036,
				"y": 2.7573528904,
				"z": -4.3283170823,
				"element": "H" 
			},
			{
				"x": -0.9002863463,
				"y": 0.4065168004,
				"z": -4.0414485064,
				"element": "H" 
			}
		],
		 "valence_orbital": [ 
			{
				"type": "occ",
				"energy": -0.25607,
				"method": "rhf"
			},
			{
				"type": "occ",
				"energy": -0.25434,
				"method": "rhf"
			},
			{
				"type": "occ",
				"energy": -0.24445,
				"method": "rhf"
			},
			{
				"type": "occ",
				"energy": -0.23601,
				"method": "rhf"
			},
			{
				"type": "occ",
				"energy": -0.20832,
				"method": "rhf"
			},
			{
				"type": "unocc",
				"energy": -0.01016,
				"method": "rhf"
			},
			{
				"type": "unocc",
				"energy": -0.00942,
				"method": "rhf"
			},
			{
				"type": "unocc",
				"energy": -0.00555,
				"method": "rhf"
			},
			{
				"type": "unocc",
				"energy": 0.00423,
				"method": "rhf"
			},
			{
				"type": "unocc",
				"energy": 0.04535,
				"method": "rhf"
			}
		],
		"cosmo_sigma_profile": { 
			"-0.025": 0.0,
			"-0.024": 0.0,
			"-0.023": 0.0,
			"-0.022": 0.0,
			"-0.021": 0.0,
			"-0.02": 0.0,
			"-0.019": 0.0,
			"-0.018": 0.0,
			"-0.017": 0.0,
			"-0.016": 0.0,
			"-0.015": 0.0,
			"-0.014": 0.0,
			"-0.013": 0.11971289662,
			"-0.012": 1.10772595591,
			"-0.011": 0.68487389414,
			"-0.01": 1.13100091031,
			"-0.009": 1.19774583715,
			"-0.008": 1.4007003104,
			"-0.007": 2.17185598751,
			"-0.006": 7.2579009408,
			"-0.005": 17.676836237,
			"-0.004": 29.8658039821,
			"-0.003": 33.5081909849,
			"-0.002": 33.6848865531,
			"-0.001": 34.9879696282,
			"0.0": 42.1618032997,
			"0.001": 29.1217623943,
			"0.002": 20.9732347157,
			"0.003": 18.0847868049,
			"0.004": 17.6526267186,
			"0.005": 17.4978828827,
			"0.006": 14.6746872303,
			"0.007": 3.10725416447,
			"0.008": 1.38971868486,
			"0.009": 1.57139631206,
			"0.01": 1.99846047725,
			"0.011": 2.2646414632,
			"0.012": 1.84619180634,
			"0.013": 2.28924544592,
			"0.014": 0.472888429628,
			"0.015": 0.0,
			"0.016": 0.0,
			"0.017": 0.0,
			"0.018": 0.0,
			"0.019": 0.0,
			"0.02": 0.0,
			"0.021": 0.0,
			"0.022": 0.0,
			"0.023": 0.0,
			"0.024": 0.0,
			"0.025": 0.0
		}
	}
}
