{
	 "smiles": "ClC1=C2C(SC=C2C2=CC=CC=C2)=NC(CN2CCOCC2)=N1", 
	 "Tm": 356.15, 
	 "num_atms": 39, 
	 "gaussian": { 
		 "optdone": 1, 
		 "sigma_profile": "yes", 
		 "theory": "DFT", 
		 "functional": "B3LYP", 
		 "basiset": "6-31G**", 
		 "properties": { 
			 "R2extent": 10612.7224, 
			 "electric_dipole_moment_norm": 4.03916974885, 
			 "electric_quadrupole_moment_norm": 4.14511489346, 
			 "total_energy": -1755.27615432, 
			 "HOMO_LUMO_gap": 0.1438, 
			 "cosmo_polarized_energy": -12.12, 
			 "cosmo_cavitation_energy": 44.89, 
			 "cosmo_dispersion_energy": -32.07, 
			 "cosmo_repulsion_energy": 2.42, 
			 "cosmo_total_nonelectrostatic_energy": 15.23, 
			 "SMD_solvation_energy": 2.13 
		},
		"coords": [
			{
				"x": 1.4665814818,
				"y": 2.2284061061,
				"z": -1.5289775316,
				"element": "Cl" 
			},
			{
				"x": 1.3334412512,
				"y": 0.5998389983,
				"z": -0.8869806629,
				"element": "C" 
			},
			{
				"x": 0.4742557897,
				"y": -0.3519986254,
				"z": -1.4753087578,
				"element": "C" 
			},
			{
				"x": 0.5967888813,
				"y": -1.6315278685,
				"z": -0.8681495332,
				"element": "C" 
			},
			{
				"x": -0.3940423766,
				"y": -2.8273863927,
				"z": -1.6764080661,
				"element": "S" 
			},
			{
				"x": -0.9653540808,
				"y": -1.6099857979,
				"z": -2.7875387795,
				"element": "C" 
			},
			{
				"x": -0.4588389121,
				"y": -0.3560697499,
				"z": -2.588402273,
				"element": "C" 
			},
			{
				"x": -0.8956676069,
				"y": 0.7875542403,
				"z": -3.4323883038,
				"element": "C" 
			},
			{
				"x": -1.5598598139,
				"y": 1.8907508301,
				"z": -2.8735861825,
				"element": "C" 
			},
			{
				"x": -2.0265703669,
				"y": 2.9216675062,
				"z": -3.6865553896,
				"element": "C" 
			},
			{
				"x": -1.8399650449,
				"y": 2.8663817008,
				"z": -5.0700678268,
				"element": "C" 
			},
			{
				"x": -1.185407745,
				"y": 1.7720631514,
				"z": -5.6361170851,
				"element": "C" 
			},
			{
				"x": -0.7178496699,
				"y": 0.7386673945,
				"z": -4.822995129,
				"element": "C" 
			},
			{
				"x": 1.3761746922,
				"y": -1.9352335599,
				"z": 0.1678159434,
				"element": "N" 
			},
			{
				"x": 2.1002090199,
				"y": -0.9216767588,
				"z": 0.6501909935,
				"element": "C" 
			},
			{
				"x": 2.9498136035,
				"y": -1.1664201296,
				"z": 1.8854749136,
				"element": "C" 
			},
			{
				"x": 2.316050947,
				"y": -0.8088503375,
				"z": 3.1488921667,
				"element": "N" 
			},
			{
				"x": 2.052355116,
				"y": 0.6047786105,
				"z": 3.3800240668,
				"element": "C" 
			},
			{
				"x": 1.8904438624,
				"y": 0.8237925774,
				"z": 4.8956254081,
				"element": "C" 
			},
			{
				"x": 1.2303193935,
				"y": -0.2645603637,
				"z": 5.5431450132,
				"element": "O" 
			},
			{
				"x": 0.3900582129,
				"y": -0.9866336807,
				"z": 4.6633887939,
				"element": "C" 
			},
			{
				"x": 1.2046576714,
				"y": -1.6765166647,
				"z": 3.5558199635,
				"element": "C" 
			},
			{
				"x": 2.1067554587,
				"y": 0.3321820707,
				"z": 0.1426743323,
				"element": "N" 
			},
			{
				"x": -1.6961788556,
				"y": -1.8818722243,
				"z": -3.5373038047,
				"element": "H" 
			},
			{
				"x": -1.7158971263,
				"y": 1.9348090651,
				"z": -1.800133097,
				"element": "H" 
			},
			{
				"x": -2.5408286846,
				"y": 3.7675878663,
				"z": -3.2396947922,
				"element": "H" 
			},
			{
				"x": -2.2033041557,
				"y": 3.6717756271,
				"z": -5.7016961784,
				"element": "H" 
			},
			{
				"x": -1.0339283839,
				"y": 1.7222559496,
				"z": -6.7105406111,
				"element": "H" 
			},
			{
				"x": -0.1986009855,
				"y": -0.1080791169,
				"z": -5.2623333328,
				"element": "H" 
			},
			{
				"x": 3.2021209131,
				"y": -2.2313076164,
				"z": 1.9197806285,
				"element": "H" 
			},
			{
				"x": 3.8734668891,
				"y": -0.5866377902,
				"z": 1.7873650706,
				"element": "H" 
			},
			{
				"x": 1.1675230619,
				"y": 0.9814146807,
				"z": 2.8364913131,
				"element": "H" 
			},
			{
				"x": 2.9014486549,
				"y": 1.1916162501,
				"z": 3.0157603124,
				"element": "H" 
			},
			{
				"x": 2.8733289983,
				"y": 0.9033103754,
				"z": 5.3713293367,
				"element": "H" 
			},
			{
				"x": 1.3426589655,
				"y": 1.7629709006,
				"z": 5.0764057025,
				"element": "H" 
			},
			{
				"x": -0.374708005,
				"y": -0.3267110331,
				"z": 4.2221778962,
				"element": "H" 
			},
			{
				"x": -0.1345907767,
				"y": -1.7325738598,
				"z": 5.2670005818,
				"element": "H" 
			},
			{
				"x": 0.5229758217,
				"y": -1.9263073635,
				"z": 2.7244450726,
				"element": "H" 
			},
			{
				"x": 1.6247639045,
				"y": -2.6223749677,
				"z": 3.9228698277,
				"element": "H" 
			}
		],
		 "valence_orbital": [ 
			{
				"type": "occ",
				"energy": -0.26374,
				"method": "rhf"
			},
			{
				"type": "occ",
				"energy": -0.25777,
				"method": "rhf"
			},
			{
				"type": "occ",
				"energy": -0.24175,
				"method": "rhf"
			},
			{
				"type": "occ",
				"energy": -0.23637,
				"method": "rhf"
			},
			{
				"type": "occ",
				"energy": -0.20488,
				"method": "rhf"
			},
			{
				"type": "unocc",
				"energy": -0.06108,
				"method": "rhf"
			},
			{
				"type": "unocc",
				"energy": -0.04434,
				"method": "rhf"
			},
			{
				"type": "unocc",
				"energy": -0.02318,
				"method": "rhf"
			},
			{
				"type": "unocc",
				"energy": -0.00942,
				"method": "rhf"
			},
			{
				"type": "unocc",
				"energy": 0.00451,
				"method": "rhf"
			}
		],
		"cosmo_sigma_profile": { 
			"-0.025": 0.0,
			"-0.024": 0.0,
			"-0.023": 0.0,
			"-0.022": 0.0,
			"-0.021": 0.0,
			"-0.02": 0.0,
			"-0.019": 0.0,
			"-0.018": 0.0,
			"-0.017": 0.0,
			"-0.016": 0.0,
			"-0.015": 0.0,
			"-0.014": 0.0,
			"-0.013": 0.0,
			"-0.012": 0.0,
			"-0.011": 0.0,
			"-0.01": 0.541879786704,
			"-0.009": 2.23975267725,
			"-0.008": 2.00372527278,
			"-0.007": 1.59855834111,
			"-0.006": 8.21090505923,
			"-0.005": 20.739640046,
			"-0.004": 34.8200196481,
			"-0.003": 49.0038366394,
			"-0.002": 39.3047911652,
			"-0.001": 31.9739417655,
			"0.0": 29.2725257207,
			"0.001": 26.6464005316,
			"0.002": 23.8683128538,
			"0.003": 22.5515938657,
			"0.004": 18.4538396262,
			"0.005": 14.7353018183,
			"0.006": 9.69427241742,
			"0.007": 3.79324705802,
			"0.008": 3.42862948485,
			"0.009": 4.18006317179,
			"0.01": 3.91182253895,
			"0.011": 3.21339307672,
			"0.012": 2.93532236229,
			"0.013": 2.83580939766,
			"0.014": 1.38410443959,
			"0.015": 0.0,
			"0.016": 0.0,
			"0.017": 0.0,
			"0.018": 0.0,
			"0.019": 0.0,
			"0.02": 0.0,
			"0.021": 0.0,
			"0.022": 0.0,
			"0.023": 0.0,
			"0.024": 0.0,
			"0.025": 0.0
		}
	}
}
