{
	 "smiles": "CN1CCN(CC1)S(=O)(=O)C1=CN=C(NN)C=C1", 
	 "Tm": 442.15, 
	 "num_atms": 35, 
	 "gaussian": { 
		 "optdone": 1, 
		 "sigma_profile": "yes", 
		 "theory": "DFT", 
		 "functional": "B3LYP", 
		 "basiset": "6-31G**", 
		 "properties": { 
			 "R2extent": 6242.922, 
			 "electric_dipole_moment_norm": 5.94458256482, 
			 "electric_quadrupole_moment_norm": 26.0801442799, 
			 "total_energy": -1213.57675495, 
			 "HOMO_LUMO_gap": 0.17538, 
			 "cosmo_polarized_energy": -21.89, 
			 "cosmo_cavitation_energy": 38.01, 
			 "cosmo_dispersion_energy": -27.41, 
			 "cosmo_repulsion_energy": 2.08, 
			 "cosmo_total_nonelectrostatic_energy": 12.68, 
			 "SMD_solvation_energy": 0.7 
		},
		"coords": [
			{
				"x": 4.0972064381,
				"y": 0.1777427359,
				"z": -0.1613110925,
				"element": "C" 
			},
			{
				"x": 2.7158617209,
				"y": -0.2750097745,
				"z": -0.1075895565,
				"element": "N" 
			},
			{
				"x": 1.7189226263,
				"y": 0.7964362229,
				"z": -0.2839656332,
				"element": "C" 
			},
			{
				"x": 1.0664318208,
				"y": 0.7904956892,
				"z": -1.6708153433,
				"element": "C" 
			},
			{
				"x": 0.4291409211,
				"y": -0.5171526082,
				"z": -1.9314971098,
				"element": "N" 
			},
			{
				"x": 1.0036664417,
				"y": -1.6705022357,
				"z": -1.211248882,
				"element": "C" 
			},
			{
				"x": 2.4923378191,
				"y": -1.4197564915,
				"z": -0.995231937,
				"element": "C" 
			},
			{
				"x": -1.2108514403,
				"y": -0.5746036545,
				"z": -2.2794019225,
				"element": "S" 
			},
			{
				"x": -1.4990585009,
				"y": 0.616081501,
				"z": -3.0844740207,
				"element": "O" 
			},
			{
				"x": -1.4667916034,
				"y": -1.9348306869,
				"z": -2.7583126432,
				"element": "O" 
			},
			{
				"x": -2.1036882731,
				"y": -0.3891532636,
				"z": -0.7433277474,
				"element": "C" 
			},
			{
				"x": -2.4079827871,
				"y": -1.5019489678,
				"z": 0.0501224076,
				"element": "C" 
			},
			{
				"x": -3.0415121089,
				"y": -1.4173745029,
				"z": 1.2176101443,
				"element": "N" 
			},
			{
				"x": -3.420501751,
				"y": -0.1966987962,
				"z": 1.6467140887,
				"element": "C" 
			},
			{
				"x": -4.0814824113,
				"y": -0.1889930753,
				"z": 2.846457923,
				"element": "N" 
			},
			{
				"x": -4.3792724595,
				"y": 0.9534891901,
				"z": 3.5916493533,
				"element": "N" 
			},
			{
				"x": -3.18167005,
				"y": 0.98433952,
				"z": 0.9067941808,
				"element": "C" 
			},
			{
				"x": -2.5145097584,
				"y": 0.8755539904,
				"z": -0.3015127912,
				"element": "C" 
			},
			{
				"x": 4.4041823172,
				"y": 0.5693874489,
				"z": -1.1508174583,
				"element": "H" 
			},
			{
				"x": 4.7631452314,
				"y": -0.657637991,
				"z": 0.0815458599,
				"element": "H" 
			},
			{
				"x": 4.2647150263,
				"y": 0.96114109,
				"z": 0.584134055,
				"element": "H" 
			},
			{
				"x": 0.9307473862,
				"y": 0.6960040462,
				"z": 0.4752460254,
				"element": "H" 
			},
			{
				"x": 2.1986909876,
				"y": 1.7659837055,
				"z": -0.1145881597,
				"element": "H" 
			},
			{
				"x": 0.3196238764,
				"y": 1.581974171,
				"z": -1.7598632687,
				"element": "H" 
			},
			{
				"x": 1.8164362171,
				"y": 0.9778398928,
				"z": -2.4492748626,
				"element": "H" 
			},
			{
				"x": 0.8517570514,
				"y": -2.568080463,
				"z": -1.8129631572,
				"element": "H" 
			},
			{
				"x": 0.5192211842,
				"y": -1.8236319984,
				"z": -0.234229987,
				"element": "H" 
			},
			{
				"x": 2.969583938,
				"y": -1.2823735018,
				"z": -1.9843681406,
				"element": "H" 
			},
			{
				"x": 2.9430318562,
				"y": -2.3141718943,
				"z": -0.5475782673,
				"element": "H" 
			},
			{
				"x": -2.1431474173,
				"y": -2.5000437912,
				"z": -0.2894565559,
				"element": "H" 
			},
			{
				"x": -4.0979095165,
				"y": -1.0637208124,
				"z": 3.3517403846,
				"element": "H" 
			},
			{
				"x": -5.121793588,
				"y": 1.4819370352,
				"z": 3.1393498008,
				"element": "H" 
			},
			{
				"x": -3.5596000243,
				"y": 1.5529306117,
				"z": 3.6805591872,
				"element": "H" 
			},
			{
				"x": -3.5300989247,
				"y": 1.9454754664,
				"z": 1.2660682752,
				"element": "H" 
			},
			{
				"x": -2.3343322453,
				"y": 1.7485721919,
				"z": -0.920063149,
				"element": "H" 
			}
		],
		 "valence_orbital": [ 
			{
				"type": "occ",
				"energy": -0.2878,
				"method": "rhf"
			},
			{
				"type": "occ",
				"energy": -0.27177,
				"method": "rhf"
			},
			{
				"type": "occ",
				"energy": -0.25425,
				"method": "rhf"
			},
			{
				"type": "occ",
				"energy": -0.22602,
				"method": "rhf"
			},
			{
				"type": "occ",
				"energy": -0.21312,
				"method": "rhf"
			},
			{
				"type": "unocc",
				"energy": -0.03774,
				"method": "rhf"
			},
			{
				"type": "unocc",
				"energy": -0.02402,
				"method": "rhf"
			},
			{
				"type": "unocc",
				"energy": 0.05651,
				"method": "rhf"
			},
			{
				"type": "unocc",
				"energy": 0.0637,
				"method": "rhf"
			},
			{
				"type": "unocc",
				"energy": 0.07434,
				"method": "rhf"
			}
		],
		"cosmo_sigma_profile": { 
			"-0.025": 0.0,
			"-0.024": 0.0,
			"-0.023": 0.0,
			"-0.022": 0.0,
			"-0.021": 0.0,
			"-0.02": 0.0,
			"-0.019": 0.0,
			"-0.018": 0.0,
			"-0.017": 0.0,
			"-0.016": 0.0,
			"-0.015": 0.0,
			"-0.014": 0.0483182284073,
			"-0.013": 0.734445499582,
			"-0.012": 2.48916919279,
			"-0.011": 4.05304114852,
			"-0.01": 4.70466285161,
			"-0.009": 5.17444382915,
			"-0.008": 4.42963662791,
			"-0.007": 5.65566466863,
			"-0.006": 9.59231461935,
			"-0.005": 16.7891044022,
			"-0.004": 30.019390763,
			"-0.003": 31.2694475083,
			"-0.002": 27.9661666693,
			"-0.001": 23.7125161347,
			"0.0": 20.7106405612,
			"0.001": 16.212351363,
			"0.002": 13.6479209519,
			"0.003": 8.24272830944,
			"0.004": 8.81057619296,
			"0.005": 6.63141421292,
			"0.006": 8.02559238564,
			"0.007": 6.5451466089,
			"0.008": 5.84879239376,
			"0.009": 5.84828103498,
			"0.01": 7.15876455831,
			"0.011": 10.4572203291,
			"0.012": 8.13909951984,
			"0.013": 1.7080863652,
			"0.014": 1.91155497595,
			"0.015": 0.95573720223,
			"0.016": 0.686832105231,
			"0.017": 0.0,
			"0.018": 0.0,
			"0.019": 0.0,
			"0.02": 0.0,
			"0.021": 0.0,
			"0.022": 0.0,
			"0.023": 0.0,
			"0.024": 0.0,
			"0.025": 0.0
		}
	}
}
