{
	 "smiles": "CN(C)C1=C(CCl)C(Cl)=NC=N1", 
	 "Tm": 338.15, 
	 "num_atms": 21, 
	 "gaussian": { 
		 "optdone": 1, 
		 "sigma_profile": "yes", 
		 "theory": "DFT", 
		 "functional": "B3LYP", 
		 "basiset": "6-31G**", 
		 "properties": { 
			 "R2extent": 2957.3341, 
			 "electric_dipole_moment_norm": 4.38291407399, 
			 "electric_quadrupole_moment_norm": 5.95972280899, 
			 "total_energy": -1356.80362034, 
			 "HOMO_LUMO_gap": 0.18417, 
			 "cosmo_polarized_energy": -9.63, 
			 "cosmo_cavitation_energy": 27.06, 
			 "cosmo_dispersion_energy": -20.16, 
			 "cosmo_repulsion_energy": 1.59, 
			 "cosmo_total_nonelectrostatic_energy": 8.49, 
			 "SMD_solvation_energy": 1.65 
		},
		"coords": [
			{
				"x": -0.2785290247,
				"y": 2.2327610614,
				"z": -0.8608566621,
				"element": "C" 
			},
			{
				"x": -0.1235312243,
				"y": 1.5119296336,
				"z": 0.4015612708,
				"element": "N" 
			},
			{
				"x": -0.5053202936,
				"y": 2.2979278674,
				"z": 1.573927994,
				"element": "C" 
			},
			{
				"x": -0.124949062,
				"y": 0.1432033669,
				"z": 0.4992107357,
				"element": "C" 
			},
			{
				"x": 0.5045381987,
				"y": -0.7322461254,
				"z": -0.4463860983,
				"element": "C" 
			},
			{
				"x": 1.4156933068,
				"y": -0.2741831535,
				"z": -1.5372815825,
				"element": "C" 
			},
			{
				"x": 0.6459512194,
				"y": -0.2235592256,
				"z": -3.2142097072,
				"element": "Cl" 
			},
			{
				"x": 0.3275321726,
				"y": -2.0941753868,
				"z": -0.171046933,
				"element": "C" 
			},
			{
				"x": 1.0114243842,
				"y": -3.2941984389,
				"z": -1.2627209778,
				"element": "Cl" 
			},
			{
				"x": -0.3000912109,
				"y": -2.5935714523,
				"z": 0.8823972739,
				"element": "N" 
			},
			{
				"x": -0.7519166863,
				"y": -1.6766383264,
				"z": 1.7439335894,
				"element": "C" 
			},
			{
				"x": -0.7044692316,
				"y": -0.3599756544,
				"z": 1.6127592248,
				"element": "N" 
			},
			{
				"x": 0.551044664,
				"y": 2.930347127,
				"z": -1.0291685455,
				"element": "H" 
			},
			{
				"x": -0.3492052543,
				"y": 1.5528916048,
				"z": -1.7064569576,
				"element": "H" 
			},
			{
				"x": -1.2079287265,
				"y": 2.8159400004,
				"z": -0.8302784659,
				"element": "H" 
			},
			{
				"x": -0.1263462722,
				"y": 1.8330792636,
				"z": 2.4820670943,
				"element": "H" 
			},
			{
				"x": -0.0722191527,
				"y": 3.2971023846,
				"z": 1.4674152526,
				"element": "H" 
			},
			{
				"x": -1.5953119435,
				"y": 2.3937710872,
				"z": 1.6675391433,
				"element": "H" 
			},
			{
				"x": 2.2540899979,
				"y": -0.9581578476,
				"z": -1.6519369529,
				"element": "H" 
			},
			{
				"x": 1.7909588625,
				"y": 0.7304159339,
				"z": -1.353841577,
				"element": "H" 
			},
			{
				"x": -1.2236147235,
				"y": -2.0588637198,
				"z": 2.647372881,
				"element": "H" 
			}
		],
		 "valence_orbital": [ 
			{
				"type": "occ",
				"energy": -0.30211,
				"method": "rhf"
			},
			{
				"type": "occ",
				"energy": -0.29946,
				"method": "rhf"
			},
			{
				"type": "occ",
				"energy": -0.28235,
				"method": "rhf"
			},
			{
				"type": "occ",
				"energy": -0.26673,
				"method": "rhf"
			},
			{
				"type": "occ",
				"energy": -0.23545,
				"method": "rhf"
			},
			{
				"type": "unocc",
				"energy": -0.05128,
				"method": "rhf"
			},
			{
				"type": "unocc",
				"energy": -0.03026,
				"method": "rhf"
			},
			{
				"type": "unocc",
				"energy": 0.01949,
				"method": "rhf"
			},
			{
				"type": "unocc",
				"energy": 0.03319,
				"method": "rhf"
			},
			{
				"type": "unocc",
				"energy": 0.07821,
				"method": "rhf"
			}
		],
		"cosmo_sigma_profile": { 
			"-0.025": 0.0,
			"-0.024": 0.0,
			"-0.023": 0.0,
			"-0.022": 0.0,
			"-0.021": 0.0,
			"-0.02": 0.0,
			"-0.019": 0.0,
			"-0.018": 0.0,
			"-0.017": 0.0,
			"-0.016": 0.0,
			"-0.015": 0.0,
			"-0.014": 0.0,
			"-0.013": 0.0,
			"-0.012": 0.0,
			"-0.011": 0.0,
			"-0.01": 0.0,
			"-0.009": 0.136835151686,
			"-0.008": 3.44717293331,
			"-0.007": 5.39596216392,
			"-0.006": 8.01453140638,
			"-0.005": 16.1247840195,
			"-0.004": 19.1746538839,
			"-0.003": 20.8504328866,
			"-0.002": 25.987488145,
			"-0.001": 17.2083681173,
			"0.0": 14.0400387575,
			"0.001": 12.6592651705,
			"0.002": 12.2497509055,
			"0.003": 12.3407801646,
			"0.004": 14.1304221445,
			"0.005": 11.1119497089,
			"0.006": 10.7945449403,
			"0.007": 4.127650086,
			"0.008": 2.53859543338,
			"0.009": 2.13628921411,
			"0.01": 2.24005443385,
			"0.011": 1.9360359812,
			"0.012": 1.46206381421,
			"0.013": 0.902919628945,
			"0.014": 0.79160871194,
			"0.015": 0.114992040902,
			"0.016": 0.0,
			"0.017": 0.0,
			"0.018": 0.0,
			"0.019": 0.0,
			"0.02": 0.0,
			"0.021": 0.0,
			"0.022": 0.0,
			"0.023": 0.0,
			"0.024": 0.0,
			"0.025": 0.0
		}
	}
}
