{
	 "smiles": "[O-][N+](=O)C1=CC=C(C=C1)C(=O)C=CC1=CC=CS1", 
	 "Tm": 442.15, 
	 "num_atms": 27, 
	 "gaussian": { 
		 "optdone": 1, 
		 "sigma_profile": "yes", 
		 "theory": "DFT", 
		 "functional": "B3LYP", 
		 "basiset": "6-31G**", 
		 "properties": { 
			 "R2extent": 9978.8198, 
			 "electric_dipole_moment_norm": 6.39689444887, 
			 "electric_quadrupole_moment_norm": 16.9803816188, 
			 "total_energy": -1179.28964201, 
			 "HOMO_LUMO_gap": 0.12722, 
			 "cosmo_polarized_energy": -14.19, 
			 "cosmo_cavitation_energy": 35.35, 
			 "cosmo_dispersion_energy": -26.05, 
			 "cosmo_repulsion_energy": 1.92, 
			 "cosmo_total_nonelectrostatic_energy": 11.23, 
			 "SMD_solvation_energy": 8.78 
		},
		"coords": [
			{
				"x": -4.1180482273,
				"y": -3.3670871665,
				"z": -5.2873823572,
				"element": "O" 
			},
			{
				"x": -2.9640875471,
				"y": -3.227394146,
				"z": -4.8855056915,
				"element": "N" 
			},
			{
				"x": -1.9643066094,
				"y": -3.6681463098,
				"z": -5.4514005338,
				"element": "O" 
			},
			{
				"x": -2.7642013126,
				"y": -2.4758361928,
				"z": -3.6336734214,
				"element": "C" 
			},
			{
				"x": -3.8772374052,
				"y": -1.9644678999,
				"z": -2.9665155012,
				"element": "C" 
			},
			{
				"x": -3.6765269544,
				"y": -1.2590502571,
				"z": -1.7867285078,
				"element": "C" 
			},
			{
				"x": -2.3822297799,
				"y": -1.0528634427,
				"z": -1.2811296196,
				"element": "C" 
			},
			{
				"x": -1.2841144537,
				"y": -1.5856169855,
				"z": -1.9747257607,
				"element": "C" 
			},
			{
				"x": -1.4685350687,
				"y": -2.303401827,
				"z": -3.1536885342,
				"element": "C" 
			},
			{
				"x": -2.2593060633,
				"y": -0.2828343387,
				"z": 0.0105729289,
				"element": "C" 
			},
			{
				"x": -3.2673475528,
				"y": -0.0847828856,
				"z": 0.6869298887,
				"element": "O" 
			},
			{
				"x": -0.936331899,
				"y": 0.2274399784,
				"z": 0.4187448215,
				"element": "C" 
			},
			{
				"x": -0.8015435496,
				"y": 0.8697939693,
				"z": 1.6026851027,
				"element": "C" 
			},
			{
				"x": 0.4085171328,
				"y": 1.4416673803,
				"z": 2.1388550415,
				"element": "C" 
			},
			{
				"x": 1.6878691984,
				"y": 1.4968358107,
				"z": 1.6116257331,
				"element": "C" 
			},
			{
				"x": 2.6183152,
				"y": 2.1541985055,
				"z": 2.453859268,
				"element": "C" 
			},
			{
				"x": 2.0528350107,
				"y": 2.6018722426,
				"z": 3.6236842073,
				"element": "C" 
			},
			{
				"x": 0.3730107084,
				"y": 2.2239794889,
				"z": 3.7087964036,
				"element": "S" 
			},
			{
				"x": -4.8660968117,
				"y": -2.1272319377,
				"z": -3.3764160595,
				"element": "H" 
			},
			{
				"x": -4.5131428614,
				"y": -0.8539110437,
				"z": -1.228746954,
				"element": "H" 
			},
			{
				"x": -0.276706592,
				"y": -1.4658916704,
				"z": -1.592815536,
				"element": "H" 
			},
			{
				"x": -0.6366100998,
				"y": -2.7285372851,
				"z": -3.7007067474,
				"element": "H" 
			},
			{
				"x": -0.089106161,
				"y": 0.1038398608,
				"z": -0.2463763014,
				"element": "H" 
			},
			{
				"x": -1.7063591912,
				"y": 0.95837767,
				"z": 2.2020851785,
				"element": "H" 
			},
			{
				"x": 1.9460352508,
				"y": 1.0766857588,
				"z": 0.6463562974,
				"element": "H" 
			},
			{
				"x": 3.6646465368,
				"y": 2.2929178856,
				"z": 2.2077598976,
				"element": "H" 
			},
			{
				"x": 2.5324091021,
				"y": 3.1310448377,
				"z": 4.435556757,
				"element": "H" 
			}
		],
		 "valence_orbital": [ 
			{
				"type": "occ",
				"energy": -0.28521,
				"method": "rhf"
			},
			{
				"type": "occ",
				"energy": -0.2814,
				"method": "rhf"
			},
			{
				"type": "occ",
				"energy": -0.27342,
				"method": "rhf"
			},
			{
				"type": "occ",
				"energy": -0.26227,
				"method": "rhf"
			},
			{
				"type": "occ",
				"energy": -0.23492,
				"method": "rhf"
			},
			{
				"type": "unocc",
				"energy": -0.1077,
				"method": "rhf"
			},
			{
				"type": "unocc",
				"energy": -0.0797,
				"method": "rhf"
			},
			{
				"type": "unocc",
				"energy": -0.03177,
				"method": "rhf"
			},
			{
				"type": "unocc",
				"energy": -0.02658,
				"method": "rhf"
			},
			{
				"type": "unocc",
				"energy": 0.00744,
				"method": "rhf"
			}
		],
		"cosmo_sigma_profile": { 
			"-0.025": 0.0,
			"-0.024": 0.0,
			"-0.023": 0.0,
			"-0.022": 0.0,
			"-0.021": 0.0,
			"-0.02": 0.0,
			"-0.019": 0.0,
			"-0.018": 0.0,
			"-0.017": 0.0,
			"-0.016": 0.0,
			"-0.015": 0.0,
			"-0.014": 0.0,
			"-0.013": 0.0,
			"-0.012": 0.0,
			"-0.011": 0.0,
			"-0.01": 0.68970778461,
			"-0.009": 4.95033070582,
			"-0.008": 9.33325813298,
			"-0.007": 14.1138175097,
			"-0.006": 15.1271904102,
			"-0.005": 14.9057178515,
			"-0.004": 14.9416211946,
			"-0.003": 16.514946368,
			"-0.002": 19.5832309513,
			"-0.001": 20.9279089009,
			"0.0": 25.1650705612,
			"0.001": 27.1997274868,
			"0.002": 24.9582366281,
			"0.003": 22.5688279305,
			"0.004": 11.0108103558,
			"0.005": 4.88455187487,
			"0.006": 6.13595155777,
			"0.007": 10.3608497764,
			"0.008": 7.68136988638,
			"0.009": 5.99709167656,
			"0.01": 3.91845448072,
			"0.011": 2.49550249378,
			"0.012": 3.72667464043,
			"0.013": 0.60764962615,
			"0.014": 0.0,
			"0.015": 0.0,
			"0.016": 0.0,
			"0.017": 0.0,
			"0.018": 0.0,
			"0.019": 0.0,
			"0.02": 0.0,
			"0.021": 0.0,
			"0.022": 0.0,
			"0.023": 0.0,
			"0.024": 0.0,
			"0.025": 0.0
		}
	}
}
