{
	 "smiles": "CC1=CC(=CC=C1Br)S(Cl)(=O)=O", 
	 "Tm": 332.15, 
	 "num_atms": 18, 
	 "gaussian": { 
		 "optdone": 1, 
		 "sigma_profile": "yes", 
		 "theory": "DFT", 
		 "functional": "B3LYP", 
		 "basiset": "6-31G**", 
		 "properties": { 
			 "R2extent": 4640.8525, 
			 "electric_dipole_moment_norm": 4.42002748747, 
			 "electric_quadrupole_moment_norm": 13.247167304, 
			 "total_energy": -3850.53019569, 
			 "HOMO_LUMO_gap": 0.17961, 
			 "cosmo_polarized_energy": -8.39, 
			 "cosmo_cavitation_energy": 27.98, 
			 "cosmo_dispersion_energy": -21.24, 
			 "cosmo_repulsion_energy": 1.65, 
			 "cosmo_total_nonelectrostatic_energy": 8.39, 
			 "SMD_solvation_energy": 2.46 
		},
		"coords": [
			{
				"x": -2.2992362973,
				"y": -1.0699441033,
				"z": 1.7562924184,
				"element": "C" 
			},
			{
				"x": -1.0149660298,
				"y": -0.6164743573,
				"z": 1.1142742398,
				"element": "C" 
			},
			{
				"x": -1.0298396856,
				"y": 0.0137848372,
				"z": -0.1356091093,
				"element": "C" 
			},
			{
				"x": 0.1610676612,
				"y": 0.4278867662,
				"z": -0.7294022153,
				"element": "C" 
			},
			{
				"x": 1.4016682956,
				"y": 0.2393674557,
				"z": -0.123317741,
				"element": "C" 
			},
			{
				"x": 1.4324269202,
				"y": -0.3864055593,
				"z": 1.1194670392,
				"element": "C" 
			},
			{
				"x": 0.2413302665,
				"y": -0.8000359117,
				"z": 1.7187019868,
				"element": "C" 
			},
			{
				"x": 0.3567585805,
				"y": -1.6493903377,
				"z": 3.4233740256,
				"element": "Br" 
			},
			{
				"x": 0.0935004065,
				"y": 1.2116710673,
				"z": -2.332490252,
				"element": "S" 
			},
			{
				"x": -0.1070098589,
				"y": 3.2662936651,
				"z": -1.7866471945,
				"element": "Cl" 
			},
			{
				"x": 1.3922475102,
				"y": 1.0904294572,
				"z": -2.9825956558,
				"element": "O" 
			},
			{
				"x": -1.1511220665,
				"y": 0.8473679308,
				"z": -2.9977795295,
				"element": "O" 
			},
			{
				"x": -3.1551295971,
				"y": -0.8321792175,
				"z": 1.1210114473,
				"element": "H" 
			},
			{
				"x": -2.4448030909,
				"y": -0.5875221344,
				"z": 2.7283476023,
				"element": "H" 
			},
			{
				"x": -2.2902741965,
				"y": -2.1500476432,
				"z": 1.935513108,
				"element": "H" 
			},
			{
				"x": -1.9714078905,
				"y": 0.1722841433,
				"z": -0.6502578809,
				"element": "H" 
			},
			{
				"x": 2.313485239,
				"y": 0.5621629757,
				"z": -0.6122847356,
				"element": "H" 
			},
			{
				"x": 2.3765038333,
				"y": -0.5570490341,
				"z": 1.6233024464,
				"element": "H" 
			}
		],
		 "valence_orbital": [ 
			{
				"type": "occ",
				"energy": -0.32765,
				"method": "rhf"
			},
			{
				"type": "occ",
				"energy": -0.31563,
				"method": "rhf"
			},
			{
				"type": "occ",
				"energy": -0.30982,
				"method": "rhf"
			},
			{
				"type": "occ",
				"energy": -0.28941,
				"method": "rhf"
			},
			{
				"type": "occ",
				"energy": -0.2735,
				"method": "rhf"
			},
			{
				"type": "unocc",
				"energy": -0.09389,
				"method": "rhf"
			},
			{
				"type": "unocc",
				"energy": -0.05074,
				"method": "rhf"
			},
			{
				"type": "unocc",
				"energy": -0.04322,
				"method": "rhf"
			},
			{
				"type": "unocc",
				"energy": -0.01456,
				"method": "rhf"
			},
			{
				"type": "unocc",
				"energy": 0.04888,
				"method": "rhf"
			}
		],
		"cosmo_sigma_profile": { 
			"-0.025": 0.0,
			"-0.024": 0.0,
			"-0.023": 0.0,
			"-0.022": 0.0,
			"-0.021": 0.0,
			"-0.02": 0.0,
			"-0.019": 0.0,
			"-0.018": 0.0,
			"-0.017": 0.0,
			"-0.016": 0.0,
			"-0.015": 0.0,
			"-0.014": 0.0,
			"-0.013": 0.0,
			"-0.012": 0.0,
			"-0.011": 0.0,
			"-0.01": 0.016696496768,
			"-0.009": 2.03520064082,
			"-0.008": 5.80787305541,
			"-0.007": 5.5857601347,
			"-0.006": 7.55575392049,
			"-0.005": 11.2579015259,
			"-0.004": 13.4797003714,
			"-0.003": 14.3303530124,
			"-0.002": 19.8828381059,
			"-0.001": 25.2329640076,
			"0.0": 28.7851080013,
			"0.001": 17.2526797183,
			"0.002": 15.6876779263,
			"0.003": 23.3851970811,
			"0.004": 13.4367550654,
			"0.005": 3.34400087434,
			"0.006": 2.54254009653,
			"0.007": 6.98989895191,
			"0.008": 9.60132397537,
			"0.009": 3.9593881611,
			"0.01": 0.0,
			"0.011": 0.0,
			"0.012": 0.0,
			"0.013": 0.0,
			"0.014": 0.0,
			"0.015": 0.0,
			"0.016": 0.0,
			"0.017": 0.0,
			"0.018": 0.0,
			"0.019": 0.0,
			"0.02": 0.0,
			"0.021": 0.0,
			"0.022": 0.0,
			"0.023": 0.0,
			"0.024": 0.0,
			"0.025": 0.0
		}
	}
}
