{
	 "smiles": "CC=CC1NN2C(S1)=NN=C2C1=CN=CC=C1", 
	 "Tm": 394.15, 
	 "num_atms": 28, 
	 "gaussian": { 
		 "optdone": 1, 
		 "sigma_profile": "yes", 
		 "theory": "DFT", 
		 "functional": "B3LYP", 
		 "basiset": "6-31G**", 
		 "properties": { 
			 "R2extent": 4876.3965, 
			 "electric_dipole_moment_norm": 7.66945484503, 
			 "electric_quadrupole_moment_norm": 12.5808744672, 
			 "total_energy": -1097.64850292, 
			 "HOMO_LUMO_gap": 0.17425, 
			 "cosmo_polarized_energy": -22.47, 
			 "cosmo_cavitation_energy": 34.05, 
			 "cosmo_dispersion_energy": -24.49, 
			 "cosmo_repulsion_energy": 1.85, 
			 "cosmo_total_nonelectrostatic_energy": 11.42, 
			 "SMD_solvation_energy": 2.05 
		},
		"coords": [
			{
				"x": 2.9836326499,
				"y": -1.8761524251,
				"z": 1.4517938136,
				"element": "C" 
			},
			{
				"x": 2.1066364824,
				"y": -1.666812632,
				"z": 0.2537988559,
				"element": "C" 
			},
			{
				"x": 2.5548736222,
				"y": -1.5144275528,
				"z": -0.9950113299,
				"element": "C" 
			},
			{
				"x": 1.6968026533,
				"y": -1.2933746813,
				"z": -2.2032420359,
				"element": "C" 
			},
			{
				"x": 0.2707191353,
				"y": -1.1366055981,
				"z": -1.9037671182,
				"element": "N" 
			},
			{
				"x": 0.0947385031,
				"y": 0.2313153838,
				"z": -1.615248241,
				"element": "N" 
			},
			{
				"x": 0.980074454,
				"y": 1.1260822136,
				"z": -2.1564867953,
				"element": "C" 
			},
			{
				"x": 2.2318298894,
				"y": 0.3291404259,
				"z": -3.0990747043,
				"element": "S" 
			},
			{
				"x": 0.6820593512,
				"y": 2.349730917,
				"z": -1.8031116224,
				"element": "N" 
			},
			{
				"x": -0.4507540143,
				"y": 2.2562135568,
				"z": -1.0104875726,
				"element": "N" 
			},
			{
				"x": -0.7963663273,
				"y": 0.9856237676,
				"z": -0.8812862391,
				"element": "C" 
			},
			{
				"x": -1.9266043698,
				"y": 0.496052085,
				"z": -0.0935320161,
				"element": "C" 
			},
			{
				"x": -2.7610599048,
				"y": 1.4331275779,
				"z": 0.548433336,
				"element": "C" 
			},
			{
				"x": -3.8139352423,
				"y": 1.0995938449,
				"z": 1.2946175786,
				"element": "N" 
			},
			{
				"x": -4.0874336014,
				"y": -0.2057031341,
				"z": 1.4376438244,
				"element": "C" 
			},
			{
				"x": -3.3288660818,
				"y": -1.2163670657,
				"z": 0.8489372304,
				"element": "C" 
			},
			{
				"x": -2.2301246053,
				"y": -0.8629433621,
				"z": 0.0687347703,
				"element": "C" 
			},
			{
				"x": 4.0431952497,
				"y": -1.9029009007,
				"z": 1.1822051612,
				"element": "H" 
			},
			{
				"x": 2.7339624039,
				"y": -2.8144328759,
				"z": 1.9624117637,
				"element": "H" 
			},
			{
				"x": 2.8373278908,
				"y": -1.0728509392,
				"z": 2.1843784598,
				"element": "H" 
			},
			{
				"x": 1.033724552,
				"y": -1.6395639221,
				"z": 0.4335136573,
				"element": "H" 
			},
			{
				"x": 3.623213625,
				"y": -1.5393373768,
				"z": -1.201490533,
				"element": "H" 
			},
			{
				"x": 1.81176454,
				"y": -2.0937036244,
				"z": -2.9389465504,
				"element": "H" 
			},
			{
				"x": -0.2678639484,
				"y": -1.3329973948,
				"z": -2.7496924646,
				"element": "H" 
			},
			{
				"x": -2.5455302604,
				"y": 2.4925553869,
				"z": 0.4389945596,
				"element": "H" 
			},
			{
				"x": -4.9527836745,
				"y": -0.4502524492,
				"z": 2.0508580009,
				"element": "H" 
			},
			{
				"x": -3.5924594505,
				"y": -2.2588792494,
				"z": 0.9974561952,
				"element": "H" 
			},
			{
				"x": -1.6160735217,
				"y": -1.6243299757,
				"z": -0.400399984,
				"element": "H" 
			}
		],
		 "valence_orbital": [ 
			{
				"type": "occ",
				"energy": -0.27439,
				"method": "rhf"
			},
			{
				"type": "occ",
				"energy": -0.26711,
				"method": "rhf"
			},
			{
				"type": "occ",
				"energy": -0.26206,
				"method": "rhf"
			},
			{
				"type": "occ",
				"energy": -0.25183,
				"method": "rhf"
			},
			{
				"type": "occ",
				"energy": -0.22401,
				"method": "rhf"
			},
			{
				"type": "unocc",
				"energy": -0.04976,
				"method": "rhf"
			},
			{
				"type": "unocc",
				"energy": -0.03193,
				"method": "rhf"
			},
			{
				"type": "unocc",
				"energy": -0.02704,
				"method": "rhf"
			},
			{
				"type": "unocc",
				"energy": 0.00896,
				"method": "rhf"
			},
			{
				"type": "unocc",
				"energy": 0.02395,
				"method": "rhf"
			}
		],
		"cosmo_sigma_profile": { 
			"-0.025": 0.0,
			"-0.024": 0.0,
			"-0.023": 0.0,
			"-0.022": 0.0,
			"-0.021": 0.0,
			"-0.02": 0.0,
			"-0.019": 0.0,
			"-0.018": 0.0,
			"-0.017": 0.0,
			"-0.016": 0.427459432355,
			"-0.015": 2.37180858454,
			"-0.014": 1.69501282218,
			"-0.013": 1.99010428586,
			"-0.012": 1.42725569194,
			"-0.011": 2.04342120963,
			"-0.01": 3.87814863047,
			"-0.009": 4.07942516466,
			"-0.008": 3.22227080304,
			"-0.007": 6.37712709396,
			"-0.006": 11.0041250682,
			"-0.005": 13.0753700726,
			"-0.004": 18.4028078496,
			"-0.003": 20.2748765302,
			"-0.002": 20.5914928904,
			"-0.001": 20.7107815778,
			"0.0": 26.262263378,
			"0.001": 26.2529045774,
			"0.002": 19.8712553891,
			"0.003": 13.0178202674,
			"0.004": 12.0242272737,
			"0.005": 7.42419797762,
			"0.006": 5.84234515946,
			"0.007": 3.16189952893,
			"0.008": 2.99231221863,
			"0.009": 3.19134476628,
			"0.01": 3.2959880906,
			"0.011": 3.67786952549,
			"0.012": 4.02565174399,
			"0.013": 4.08301253474,
			"0.014": 3.41293857281,
			"0.015": 3.36331398086,
			"0.016": 1.61860236261,
			"0.017": 0.128511736024,
			"0.018": 0.0,
			"0.019": 0.0,
			"0.02": 0.0,
			"0.021": 0.0,
			"0.022": 0.0,
			"0.023": 0.0,
			"0.024": 0.0,
			"0.025": 0.0
		}
	}
}
