{
	 "smiles": "CC1CC(C)CN(C1)S(=O)(=O)C1=CC=C(C=C1)S(Cl)(=O)=O", 
	 "Tm": 427.15, 
	 "num_atms": 39, 
	 "gaussian": { 
		 "optdone": 1, 
		 "sigma_profile": "yes", 
		 "theory": "DFT", 
		 "functional": "B3LYP", 
		 "basiset": "6-31G**", 
		 "properties": { 
			 "R2extent": 10987.7429, 
			 "electric_dipole_moment_norm": 5.59715282711, 
			 "electric_quadrupole_moment_norm": 18.758003656, 
			 "total_energy": -2118.30764945, 
			 "HOMO_LUMO_gap": 0.15608, 
			 "cosmo_polarized_energy": -16.25, 
			 "cosmo_cavitation_energy": 44.82, 
			 "cosmo_dispersion_energy": -31.55, 
			 "cosmo_repulsion_energy": 2.35, 
			 "cosmo_total_nonelectrostatic_energy": 15.61, 
			 "SMD_solvation_energy": 4.53 
		},
		"coords": [
			{
				"x": -1.0031507182,
				"y": -2.0247413859,
				"z": -4.2473540613,
				"element": "C" 
			},
			{
				"x": -0.6017981154,
				"y": -2.2477079436,
				"z": -2.7789311022,
				"element": "C" 
			},
			{
				"x": 0.8576068694,
				"y": -1.8599385546,
				"z": -2.4676277167,
				"element": "C" 
			},
			{
				"x": 1.1346932849,
				"y": -0.3310757477,
				"z": -2.4774958984,
				"element": "C" 
			},
			{
				"x": 1.7722014098,
				"y": 0.179621521,
				"z": -3.7768973311,
				"element": "C" 
			},
			{
				"x": -0.1534156832,
				"y": 0.4544884697,
				"z": -2.1551772363,
				"element": "C" 
			},
			{
				"x": -0.9675503914,
				"y": -0.3289633107,
				"z": -1.2088931164,
				"element": "N" 
			},
			{
				"x": -1.5789988668,
				"y": -1.5559015031,
				"z": -1.7859555805,
				"element": "C" 
			},
			{
				"x": -1.9941579616,
				"y": 0.5596960051,
				"z": -0.210539114,
				"element": "S" 
			},
			{
				"x": -2.8300796287,
				"y": -0.4149418401,
				"z": 0.4948738127,
				"element": "O" 
			},
			{
				"x": -2.5998974716,
				"y": 1.6961108023,
				"z": -0.9179366672,
				"element": "O" 
			},
			{
				"x": -0.8173877018,
				"y": 1.2536554012,
				"z": 0.971471962,
				"element": "C" 
			},
			{
				"x": -0.1393683595,
				"y": 0.3928506761,
				"z": 1.8397385558,
				"element": "C" 
			},
			{
				"x": 0.7385023963,
				"y": 0.9261187955,
				"z": 2.7785900705,
				"element": "C" 
			},
			{
				"x": 0.9051636367,
				"y": 2.3128448783,
				"z": 2.8206517564,
				"element": "C" 
			},
			{
				"x": 0.2224651584,
				"y": 3.1814555385,
				"z": 1.9712141078,
				"element": "C" 
			},
			{
				"x": -0.6563474209,
				"y": 2.6376230127,
				"z": 1.0329998526,
				"element": "C" 
			},
			{
				"x": 2.0259003283,
				"y": 3.0048386691,
				"z": 4.0353123063,
				"element": "S" 
			},
			{
				"x": 3.8564195614,
				"y": 3.0016934586,
				"z": 2.9407640334,
				"element": "Cl" 
			},
			{
				"x": 1.6866974299,
				"y": 4.403302397,
				"z": 4.2610745066,
				"element": "O" 
			},
			{
				"x": 2.2001300574,
				"y": 2.0534716723,
				"z": 5.1246290822,
				"element": "O" 
			},
			{
				"x": -0.3124532916,
				"y": -2.5443220797,
				"z": -4.9200876968,
				"element": "H" 
			},
			{
				"x": -1.0102867639,
				"y": -0.967650256,
				"z": -4.5287460357,
				"element": "H" 
			},
			{
				"x": -2.0084159572,
				"y": -2.4169045683,
				"z": -4.4352603784,
				"element": "H" 
			},
			{
				"x": -0.6908767082,
				"y": -3.3253580511,
				"z": -2.5945931019,
				"element": "H" 
			},
			{
				"x": 1.5277669917,
				"y": -2.3665494814,
				"z": -3.1718729945,
				"element": "H" 
			},
			{
				"x": 1.1022330185,
				"y": -2.2523551493,
				"z": -1.4743631158,
				"element": "H" 
			},
			{
				"x": 1.8421237596,
				"y": -0.1293705631,
				"z": -1.6637185452,
				"element": "H" 
			},
			{
				"x": 1.9560472169,
				"y": 1.2591842183,
				"z": -3.7300160076,
				"element": "H" 
			},
			{
				"x": 2.7341875273,
				"y": -0.3114886472,
				"z": -3.9550856918,
				"element": "H" 
			},
			{
				"x": 1.1348907221,
				"y": -0.010956152,
				"z": -4.646338357,
				"element": "H" 
			},
			{
				"x": -0.7279201792,
				"y": 0.682725147,
				"z": -3.0640658233,
				"element": "H" 
			},
			{
				"x": 0.1001863673,
				"y": 1.4149715969,
				"z": -1.6990709887,
				"element": "H" 
			},
			{
				"x": -1.818185919,
				"y": -2.216752106,
				"z": -0.9515092077,
				"element": "H" 
			},
			{
				"x": -2.5213990504,
				"y": -1.3215117519,
				"z": -2.2999951932,
				"element": "H" 
			},
			{
				"x": -0.3038122752,
				"y": -0.6773135853,
				"z": 1.7834376985,
				"element": "H" 
			},
			{
				"x": 1.2748390144,
				"y": 0.2890162715,
				"z": 3.4725757707,
				"element": "H" 
			},
			{
				"x": 0.3671101546,
				"y": 4.2529387816,
				"z": 2.0501804642,
				"element": "H" 
			},
			{
				"x": -1.2212624415,
				"y": 3.2716953641,
				"z": 0.3588169823,
				"element": "H" 
			}
		],
		 "valence_orbital": [ 
			{
				"type": "occ",
				"energy": -0.31718,
				"method": "rhf"
			},
			{
				"type": "occ",
				"energy": -0.30909,
				"method": "rhf"
			},
			{
				"type": "occ",
				"energy": -0.30418,
				"method": "rhf"
			},
			{
				"type": "occ",
				"energy": -0.30198,
				"method": "rhf"
			},
			{
				"type": "occ",
				"energy": -0.25896,
				"method": "rhf"
			},
			{
				"type": "unocc",
				"energy": -0.10288,
				"method": "rhf"
			},
			{
				"type": "unocc",
				"energy": -0.06502,
				"method": "rhf"
			},
			{
				"type": "unocc",
				"energy": -0.052,
				"method": "rhf"
			},
			{
				"type": "unocc",
				"energy": 0.03112,
				"method": "rhf"
			},
			{
				"type": "unocc",
				"energy": 0.04626,
				"method": "rhf"
			}
		],
		"cosmo_sigma_profile": { 
			"-0.025": 0.0,
			"-0.024": 0.0,
			"-0.023": 0.0,
			"-0.022": 0.0,
			"-0.021": 0.0,
			"-0.02": 0.0,
			"-0.019": 0.0,
			"-0.018": 0.0,
			"-0.017": 0.0,
			"-0.016": 0.0,
			"-0.015": 0.0,
			"-0.014": 0.0,
			"-0.013": 0.0,
			"-0.012": 0.0,
			"-0.011": 0.0,
			"-0.01": 0.708637419365,
			"-0.009": 5.20747982836,
			"-0.008": 6.617363584,
			"-0.007": 7.13536756937,
			"-0.006": 6.69498493592,
			"-0.005": 14.2606173397,
			"-0.004": 23.8731077293,
			"-0.003": 37.6645638667,
			"-0.002": 49.5453610852,
			"-0.001": 44.6462383518,
			"0.0": 33.3096122435,
			"0.001": 24.4819395821,
			"0.002": 16.4963276013,
			"0.003": 18.9755165478,
			"0.004": 9.36805453251,
			"0.005": 5.25463371282,
			"0.006": 5.68554691539,
			"0.007": 10.6351553931,
			"0.008": 12.3027091397,
			"0.009": 6.33889042747,
			"0.01": 7.71077005761,
			"0.011": 7.47827532361,
			"0.012": 1.7381754613,
			"0.013": 0.0,
			"0.014": 0.0,
			"0.015": 0.0,
			"0.016": 0.0,
			"0.017": 0.0,
			"0.018": 0.0,
			"0.019": 0.0,
			"0.02": 0.0,
			"0.021": 0.0,
			"0.022": 0.0,
			"0.023": 0.0,
			"0.024": 0.0,
			"0.025": 0.0
		}
	}
}
