{
	 "smiles": "COC1=CC=C(C=C1O)C1CC(=O)C2=C(O1)C=C(OC1OC(COC3OC(C)C(O)C(O)C3O)C(O)C(O)C1O)C=C2O", 
	 "Tm": 535.15, 
	 "num_atms": 77, 
	 "gaussian": { 
		 "optdone": 1, 
		 "sigma_profile": "yes", 
		 "theory": "DFT", 
		 "functional": "B3LYP", 
		 "basiset": "6-31G**", 
		 "properties": { 
			 "R2extent": 31478.2344, 
			 "electric_dipole_moment_norm": 6.7854312759, 
			 "electric_quadrupole_moment_norm": 31.1055527226, 
			 "total_energy": -2215.77014664, 
			 "HOMO_LUMO_gap": 0.158, 
			 "cosmo_polarized_energy": -37.57, 
			 "cosmo_cavitation_energy": 76.54, 
			 "cosmo_dispersion_energy": -50.07, 
			 "cosmo_repulsion_energy": 3.75, 
			 "cosmo_total_nonelectrostatic_energy": 30.22, 
			 "SMD_solvation_energy": 13.51 
		},
		"coords": [
			{
				"x": -6.21520171,
				"y": 3.3387654048,
				"z": 0.4350008731,
				"element": "C" 
			},
			{
				"x": -6.1550682685,
				"y": 2.3375778598,
				"z": 1.4400723222,
				"element": "O" 
			},
			{
				"x": -5.3416704704,
				"y": 1.2512732427,
				"z": 1.2253268926,
				"element": "C" 
			},
			{
				"x": -4.551804924,
				"y": 1.021603598,
				"z": 0.1030902735,
				"element": "C" 
			},
			{
				"x": -3.7708505495,
				"y": -0.1379914446,
				"z": 0.0256890386,
				"element": "C" 
			},
			{
				"x": -3.7711508951,
				"y": -1.0609770087,
				"z": 1.0718532615,
				"element": "C" 
			},
			{
				"x": -4.5622064282,
				"y": -0.8213903369,
				"z": 2.2045754064,
				"element": "C" 
			},
			{
				"x": -5.3478258082,
				"y": 0.3217507255,
				"z": 2.2862316632,
				"element": "C" 
			},
			{
				"x": -6.1123609907,
				"y": 0.5477412914,
				"z": 3.3890659586,
				"element": "O" 
			},
			{
				"x": -2.982441435,
				"y": -2.3473264833,
				"z": 0.9845981662,
				"element": "C" 
			},
			{
				"x": -3.7633638686,
				"y": -3.4868579536,
				"z": 0.318476503,
				"element": "C" 
			},
			{
				"x": -2.8949865567,
				"y": -4.7196476933,
				"z": 0.159254667,
				"element": "C" 
			},
			{
				"x": -3.3909684611,
				"y": -5.8593314671,
				"z": 0.1492200297,
				"element": "O" 
			},
			{
				"x": -1.4804183719,
				"y": -4.4732279976,
				"z": -0.0229570828,
				"element": "C" 
			},
			{
				"x": -0.9696320004,
				"y": -3.1523026266,
				"z": -0.0177594404,
				"element": "C" 
			},
			{
				"x": -1.7669145165,
				"y": -2.0832564485,
				"z": 0.2513097442,
				"element": "O" 
			},
			{
				"x": 0.3638348273,
				"y": -2.8790316059,
				"z": -0.3068375642,
				"element": "C" 
			},
			{
				"x": 1.2115287579,
				"y": -3.960816212,
				"z": -0.5947134806,
				"element": "C" 
			},
			{
				"x": 2.5440934295,
				"y": -3.8429628987,
				"z": -0.9076747806,
				"element": "O" 
			},
			{
				"x": 3.3078972098,
				"y": -2.6890062495,
				"z": -0.6282421422,
				"element": "C" 
			},
			{
				"x": 2.790326623,
				"y": -1.5883936164,
				"z": -1.3407184681,
				"element": "O" 
			},
			{
				"x": 3.56330616,
				"y": -0.3944381837,
				"z": -1.1869773619,
				"element": "C" 
			},
			{
				"x": 2.8814167129,
				"y": 0.6605143601,
				"z": -2.0517499533,
				"element": "C" 
			},
			{
				"x": 3.6611645274,
				"y": 1.8431062396,
				"z": -1.9343723602,
				"element": "O" 
			},
			{
				"x": 3.0897509634,
				"y": 2.9942607148,
				"z": -2.5068984774,
				"element": "C" 
			},
			{
				"x": 1.8757696352,
				"y": 3.379666128,
				"z": -1.8973353999,
				"element": "O" 
			},
			{
				"x": 1.973647756,
				"y": 3.7361485596,
				"z": -0.5038080774,
				"element": "C" 
			},
			{
				"x": 0.5583908605,
				"y": 3.9949078425,
				"z": -0.0145943091,
				"element": "C" 
			},
			{
				"x": 2.8877982157,
				"y": 4.9596824271,
				"z": -0.3804331001,
				"element": "C" 
			},
			{
				"x": 3.0566392438,
				"y": 5.2318473359,
				"z": 1.0182513643,
				"element": "O" 
			},
			{
				"x": 4.2664315725,
				"y": 4.695339258,
				"z": -1.0103922549,
				"element": "C" 
			},
			{
				"x": 4.9995885299,
				"y": 3.779332231,
				"z": -0.2107233341,
				"element": "O" 
			},
			{
				"x": 4.1381300024,
				"y": 4.1225422051,
				"z": -2.4303944977,
				"element": "C" 
			},
			{
				"x": 5.3857674856,
				"y": 3.715781843,
				"z": -2.9442263866,
				"element": "O" 
			},
			{
				"x": 3.6843098239,
				"y": 0.0295068985,
				"z": 0.2822453715,
				"element": "C" 
			},
			{
				"x": 2.4001570038,
				"y": 0.4029856223,
				"z": 0.7672952286,
				"element": "O" 
			},
			{
				"x": 4.2353484003,
				"y": -1.1368546207,
				"z": 1.1051447667,
				"element": "C" 
			},
			{
				"x": 4.1992369248,
				"y": -0.7514456722,
				"z": 2.4732762494,
				"element": "O" 
			},
			{
				"x": 3.3980425845,
				"y": -2.3925402892,
				"z": 0.8766052727,
				"element": "C" 
			},
			{
				"x": 4.0454294424,
				"y": -3.444537897,
				"z": 1.5814686066,
				"element": "O" 
			},
			{
				"x": 0.7535247563,
				"y": -5.2835153413,
				"z": -0.5939732862,
				"element": "C" 
			},
			{
				"x": -0.5862719868,
				"y": -5.5456842152,
				"z": -0.3179148115,
				"element": "C" 
			},
			{
				"x": -1.0251528381,
				"y": -6.8094751055,
				"z": -0.3389958094,
				"element": "O" 
			},
			{
				"x": -5.2316865751,
				"y": 3.7948488793,
				"z": 0.2670396056,
				"element": "H" 
			},
			{
				"x": -6.9079359106,
				"y": 4.0976710059,
				"z": 0.8013674966,
				"element": "H" 
			},
			{
				"x": -6.5903983057,
				"y": 2.9311852818,
				"z": -0.5118957682,
				"element": "H" 
			},
			{
				"x": -4.5331134947,
				"y": 1.7346232569,
				"z": -0.7132492247,
				"element": "H" 
			},
			{
				"x": -3.1455031286,
				"y": -0.3083302515,
				"z": -0.8431545885,
				"element": "H" 
			},
			{
				"x": -4.5762633863,
				"y": -1.5148795321,
				"z": 3.0404853166,
				"element": "H" 
			},
			{
				"x": -6.56867108,
				"y": 1.391860719,
				"z": 3.2495924033,
				"element": "H" 
			},
			{
				"x": -2.6926617843,
				"y": -2.6673940148,
				"z": 1.9966770453,
				"element": "H" 
			},
			{
				"x": -4.0966309657,
				"y": -3.1656100807,
				"z": -0.6775273918,
				"element": "H" 
			},
			{
				"x": -4.6556918119,
				"y": -3.7407752166,
				"z": 0.8962737685,
				"element": "H" 
			},
			{
				"x": 0.7109811814,
				"y": -1.8561899043,
				"z": -0.3166699631,
				"element": "H" 
			},
			{
				"x": 4.3108852632,
				"y": -2.9509203499,
				"z": -0.999312423,
				"element": "H" 
			},
			{
				"x": 4.5844419282,
				"y": -0.5649270687,
				"z": -1.5670126456,
				"element": "H" 
			},
			{
				"x": 1.8615067775,
				"y": 0.8251727279,
				"z": -1.6925814753,
				"element": "H" 
			},
			{
				"x": 2.8412175352,
				"y": 0.3159867182,
				"z": -3.095093936,
				"element": "H" 
			},
			{
				"x": 2.8239908041,
				"y": 2.7997380611,
				"z": -3.5557514589,
				"element": "H" 
			},
			{
				"x": 2.4133144056,
				"y": 2.9037993901,
				"z": 0.0563754384,
				"element": "H" 
			},
			{
				"x": 0.0818428936,
				"y": 4.7799985929,
				"z": -0.6117215892,
				"element": "H" 
			},
			{
				"x": -0.0408851133,
				"y": 3.0846416489,
				"z": -0.0985415892,
				"element": "H" 
			},
			{
				"x": 0.5789153426,
				"y": 4.3097358794,
				"z": 1.0315201802,
				"element": "H" 
			},
			{
				"x": 2.4057836368,
				"y": 5.807431651,
				"z": -0.8895709282,
				"element": "H" 
			},
			{
				"x": 3.3837511284,
				"y": 6.1362601396,
				"z": 1.1128190044,
				"element": "H" 
			},
			{
				"x": 4.8197006534,
				"y": 5.6490564309,
				"z": -1.0805440118,
				"element": "H" 
			},
			{
				"x": 4.7633321716,
				"y": 3.9926882303,
				"z": 0.7059401996,
				"element": "H" 
			},
			{
				"x": 3.7752593618,
				"y": 4.925888809,
				"z": -3.0820124924,
				"element": "H" 
			},
			{
				"x": 5.6992701974,
				"y": 3.0285755124,
				"z": -2.3374828375,
				"element": "H" 
			},
			{
				"x": 4.3777017522,
				"y": 0.8799184691,
				"z": 0.3321364874,
				"element": "H" 
			},
			{
				"x": 2.4823437709,
				"y": 0.4138780727,
				"z": 1.7334145718,
				"element": "H" 
			},
			{
				"x": 5.2700778961,
				"y": -1.3483723583,
				"z": 0.7898520833,
				"element": "H" 
			},
			{
				"x": 4.3352237265,
				"y": -1.5593487781,
				"z": 2.9894876598,
				"element": "H" 
			},
			{
				"x": 2.3910506014,
				"y": -2.2116952868,
				"z": 1.2690652267,
				"element": "H" 
			},
			{
				"x": 3.4982492416,
				"y": -4.2378503626,
				"z": 1.5074069352,
				"element": "H" 
			},
			{
				"x": 1.4319891213,
				"y": -6.095847219,
				"z": -0.8234876764,
				"element": "H" 
			},
			{
				"x": -2.0003292039,
				"y": -6.7729414732,
				"z": -0.1498027044,
				"element": "H" 
			}
		],
		 "valence_orbital": [ 
			{
				"type": "occ",
				"energy": -0.2457,
				"method": "rhf"
			},
			{
				"type": "occ",
				"energy": -0.24277,
				"method": "rhf"
			},
			{
				"type": "occ",
				"energy": -0.23409,
				"method": "rhf"
			},
			{
				"type": "occ",
				"energy": -0.21862,
				"method": "rhf"
			},
			{
				"type": "occ",
				"energy": -0.21166,
				"method": "rhf"
			},
			{
				"type": "unocc",
				"energy": -0.05366,
				"method": "rhf"
			},
			{
				"type": "unocc",
				"energy": -0.00244,
				"method": "rhf"
			},
			{
				"type": "unocc",
				"energy": 0.00602,
				"method": "rhf"
			},
			{
				"type": "unocc",
				"energy": 0.01217,
				"method": "rhf"
			},
			{
				"type": "unocc",
				"energy": 0.04175,
				"method": "rhf"
			}
		],
		"cosmo_sigma_profile": { 
			"-0.025": 0.0,
			"-0.024": 0.0,
			"-0.023": 0.0,
			"-0.022": 0.0,
			"-0.021": 0.0,
			"-0.02": 0.0,
			"-0.019": 0.0,
			"-0.018": 0.0,
			"-0.017": 0.421580185376,
			"-0.016": 1.08509777596,
			"-0.015": 1.50326787415,
			"-0.014": 2.8268596577,
			"-0.013": 2.82461501816,
			"-0.012": 3.24952871014,
			"-0.011": 5.58325846362,
			"-0.01": 4.79667345236,
			"-0.009": 5.70070269546,
			"-0.008": 7.70440605508,
			"-0.007": 20.3321743251,
			"-0.006": 37.3474580203,
			"-0.005": 43.322198361,
			"-0.004": 42.078257681,
			"-0.003": 43.4685016401,
			"-0.002": 37.4454514565,
			"-0.001": 33.1828737206,
			"0.0": 33.1778604079,
			"0.001": 38.1740348235,
			"0.002": 39.109224955,
			"0.003": 35.0133390969,
			"0.004": 32.3189633159,
			"0.005": 25.2943117139,
			"0.006": 20.3749912122,
			"0.007": 17.3607398571,
			"0.008": 15.7277408255,
			"0.009": 14.3156041405,
			"0.01": 11.4424139039,
			"0.011": 10.7105621931,
			"0.012": 7.93157320283,
			"0.013": 3.93524640166,
			"0.014": 1.41398032238,
			"0.015": 0.0,
			"0.016": 0.0,
			"0.017": 0.0,
			"0.018": 0.0,
			"0.019": 0.0,
			"0.02": 0.0,
			"0.021": 0.0,
			"0.022": 0.0,
			"0.023": 0.0,
			"0.024": 0.0,
			"0.025": 0.0
		}
	}
}
