{
	 "smiles": "O=C1NC=C(C=C1)S(=O)(=O)N1CCCCC1", 
	 "Tm": 513.15, 
	 "num_atms": 30, 
	 "gaussian": { 
		 "optdone": 1, 
		 "sigma_profile": "yes", 
		 "theory": "DFT", 
		 "functional": "B3LYP", 
		 "basiset": "6-31G**", 
		 "properties": { 
			 "R2extent": 4507.2167, 
			 "electric_dipole_moment_norm": 3.82868030919, 
			 "electric_quadrupole_moment_norm": 18.9530794324, 
			 "total_energy": -1122.80490931, 
			 "HOMO_LUMO_gap": 0.17905, 
			 "cosmo_polarized_energy": -19.49, 
			 "cosmo_cavitation_energy": 33.12, 
			 "cosmo_dispersion_energy": -24.35, 
			 "cosmo_repulsion_energy": 1.85, 
			 "cosmo_total_nonelectrostatic_energy": 10.63, 
			 "SMD_solvation_energy": 4.64 
		},
		"coords": [
			{
				"x": -4.4472696748,
				"y": 0.034827023,
				"z": -3.2318737167,
				"element": "O" 
			},
			{
				"x": -3.3721145221,
				"y": 0.0416107258,
				"z": -2.6491357304,
				"element": "C" 
			},
			{
				"x": -3.0481369652,
				"y": -1.0150166578,
				"z": -1.7569319895,
				"element": "N" 
			},
			{
				"x": -1.8973491841,
				"y": -1.1224697314,
				"z": -1.0481388427,
				"element": "C" 
			},
			{
				"x": -0.9393141411,
				"y": -0.1541743264,
				"z": -1.1623583142,
				"element": "C" 
			},
			{
				"x": -1.1603643789,
				"y": 0.9479250022,
				"z": -2.0479993162,
				"element": "C" 
			},
			{
				"x": -2.3210699463,
				"y": 1.0438687113,
				"z": -2.7535205269,
				"element": "C" 
			},
			{
				"x": 0.5960737376,
				"y": -0.3486688064,
				"z": -0.2879310697,
				"element": "S" 
			},
			{
				"x": 1.7057951297,
				"y": -0.2281324184,
				"z": -1.2391320345,
				"element": "O" 
			},
			{
				"x": 0.4533980808,
				"y": -1.5630690107,
				"z": 0.5333677405,
				"element": "O" 
			},
			{
				"x": 0.6239909518,
				"y": 1.0562258028,
				"z": 0.6483174157,
				"element": "N" 
			},
			{
				"x": 1.940442255,
				"y": 1.695273305,
				"z": 0.8673050042,
				"element": "C" 
			},
			{
				"x": 2.679197907,
				"y": 1.1342322348,
				"z": 2.0891913196,
				"element": "C" 
			},
			{
				"x": 1.7910748336,
				"y": 1.1886600226,
				"z": 3.34201401,
				"element": "C" 
			},
			{
				"x": 0.4447484292,
				"y": 0.4910764921,
				"z": 3.0918729679,
				"element": "C" 
			},
			{
				"x": -0.2446597726,
				"y": 1.0614667264,
				"z": 1.8447934642,
				"element": "C" 
			},
			{
				"x": -3.7642939989,
				"y": -1.7276644741,
				"z": -1.679826068,
				"element": "H" 
			},
			{
				"x": -1.7705795904,
				"y": -1.986569512,
				"z": -0.4062451828,
				"element": "H" 
			},
			{
				"x": -0.3894174261,
				"y": 1.7058571492,
				"z": -2.1443685318,
				"element": "H" 
			},
			{
				"x": -2.5147459902,
				"y": 1.868910684,
				"z": -3.4287875648,
				"element": "H" 
			},
			{
				"x": 2.5266663553,
				"y": 1.5876980376,
				"z": -0.045521774,
				"element": "H" 
			},
			{
				"x": 1.7346672632,
				"y": 2.7646408806,
				"z": 1.0109880659,
				"element": "H" 
			},
			{
				"x": 2.9753954505,
				"y": 0.0978496869,
				"z": 1.884586546,
				"element": "H" 
			},
			{
				"x": 3.6019272841,
				"y": 1.7063147471,
				"z": 2.2439583332,
				"element": "H" 
			},
			{
				"x": 2.3036747045,
				"y": 0.7290309914,
				"z": 4.194197902,
				"element": "H" 
			},
			{
				"x": 1.6130515623,
				"y": 2.239570333,
				"z": 3.6133674034,
				"element": "H" 
			},
			{
				"x": -0.2198533542,
				"y": 0.6134132769,
				"z": 3.9557223026,
				"element": "H" 
			},
			{
				"x": 0.6004781356,
				"y": -0.5830580004,
				"z": 2.9458236811,
				"element": "H" 
			},
			{
				"x": -0.5266887531,
				"y": 2.1094790327,
				"z": 2.0125063579,
				"element": "H" 
			},
			{
				"x": -1.1648243823,
				"y": 0.5182920724,
				"z": 1.6130581481,
				"element": "H" 
			}
		],
		 "valence_orbital": [ 
			{
				"type": "occ",
				"energy": -0.31027,
				"method": "rhf"
			},
			{
				"type": "occ",
				"energy": -0.30419,
				"method": "rhf"
			},
			{
				"type": "occ",
				"energy": -0.26592,
				"method": "rhf"
			},
			{
				"type": "occ",
				"energy": -0.25373,
				"method": "rhf"
			},
			{
				"type": "occ",
				"energy": -0.23613,
				"method": "rhf"
			},
			{
				"type": "unocc",
				"energy": -0.05708,
				"method": "rhf"
			},
			{
				"type": "unocc",
				"energy": -0.02226,
				"method": "rhf"
			},
			{
				"type": "unocc",
				"energy": 0.04492,
				"method": "rhf"
			},
			{
				"type": "unocc",
				"energy": 0.07587,
				"method": "rhf"
			},
			{
				"type": "unocc",
				"energy": 0.07705,
				"method": "rhf"
			}
		],
		"cosmo_sigma_profile": { 
			"-0.025": 0.0,
			"-0.024": 0.0,
			"-0.023": 0.0,
			"-0.022": 0.0,
			"-0.021": 0.0,
			"-0.02": 0.0,
			"-0.019": 0.0,
			"-0.018": 0.00222566468564,
			"-0.017": 1.42052269672,
			"-0.016": 1.36291176734,
			"-0.015": 1.32858537984,
			"-0.014": 1.5773344535,
			"-0.013": 1.05776246419,
			"-0.012": 1.23371636017,
			"-0.011": 1.4937802834,
			"-0.01": 1.65981403612,
			"-0.009": 2.18351753043,
			"-0.008": 3.00822407017,
			"-0.007": 5.33915820684,
			"-0.006": 5.40535337044,
			"-0.005": 12.6974048409,
			"-0.004": 18.368780384,
			"-0.003": 29.9701746786,
			"-0.002": 32.4665494645,
			"-0.001": 28.3324781272,
			"0.0": 24.6902335706,
			"0.001": 14.8255860391,
			"0.002": 9.99191098702,
			"0.003": 5.38719745029,
			"0.004": 4.58375085264,
			"0.005": 4.3052519832,
			"0.006": 3.82051816457,
			"0.007": 4.51654533438,
			"0.008": 3.96797839391,
			"0.009": 4.40333581749,
			"0.01": 7.77557605376,
			"0.011": 8.56632241496,
			"0.012": 5.88450461912,
			"0.013": 5.62458470179,
			"0.014": 3.46138312927,
			"0.015": 0.245612365854,
			"0.016": 0.0,
			"0.017": 0.0,
			"0.018": 0.0,
			"0.019": 0.0,
			"0.02": 0.0,
			"0.021": 0.0,
			"0.022": 0.0,
			"0.023": 0.0,
			"0.024": 0.0,
			"0.025": 0.0
		}
	}
}
