{
	 "smiles": "CC1=CC2=C(SC(Br)=C2)C=C1", 
	 "Tm": 365.65, 
	 "num_atms": 18, 
	 "gaussian": { 
		 "optdone": 1, 
		 "sigma_profile": "yes", 
		 "theory": "DFT", 
		 "functional": "B3LYP", 
		 "basiset": "6-31G**", 
		 "properties": { 
			 "R2extent": 4167.0786, 
			 "electric_dipole_moment_norm": 2.09056166137, 
			 "electric_quadrupole_moment_norm": 6.58004828782, 
			 "total_energy": -3316.77000157, 
			 "HOMO_LUMO_gap": 0.18802, 
			 "cosmo_polarized_energy": -4.25, 
			 "cosmo_cavitation_energy": 25.71, 
			 "cosmo_dispersion_energy": -20.07, 
			 "cosmo_repulsion_energy": 1.55, 
			 "cosmo_total_nonelectrostatic_energy": 7.19, 
			 "SMD_solvation_energy": 2.7 
		},
		"coords": [
			{
				"x": -2.2597659853,
				"y": 1.6798362258,
				"z": 3.0255556008,
				"element": "C" 
			},
			{
				"x": -1.4407713855,
				"y": 1.1260697073,
				"z": 1.8827590042,
				"element": "C" 
			},
			{
				"x": -0.1792600305,
				"y": 0.581039004,
				"z": 2.1003990721,
				"element": "C" 
			},
			{
				"x": 0.5743917169,
				"y": 0.068214711,
				"z": 1.0277957488,
				"element": "C" 
			},
			{
				"x": 0.0281948099,
				"y": 0.1156623262,
				"z": -0.2771390326,
				"element": "C" 
			},
			{
				"x": 1.1324386231,
				"y": -0.5750779262,
				"z": -1.4604955408,
				"element": "S" 
			},
			{
				"x": 2.2947378016,
				"y": -0.9100286667,
				"z": -0.1873251338,
				"element": "C" 
			},
			{
				"x": 3.9361287531,
				"y": -1.7303122406,
				"z": -0.6222854891,
				"element": "Br" 
			},
			{
				"x": 1.8851909264,
				"y": -0.5296364168,
				"z": 1.0496659198,
				"element": "C" 
			},
			{
				"x": -1.2377736595,
				"y": 0.659822727,
				"z": -0.513154379,
				"element": "C" 
			},
			{
				"x": -1.9555407785,
				"y": 1.1574051871,
				"z": 0.566947182,
				"element": "C" 
			},
			{
				"x": -2.4902669789,
				"y": 2.7406991636,
				"z": 2.8736183494,
				"element": "H" 
			},
			{
				"x": -3.2168965306,
				"y": 1.154175632,
				"z": 3.1216787816,
				"element": "H" 
			},
			{
				"x": -1.7310386253,
				"y": 1.5865755476,
				"z": 3.9779521636,
				"element": "H" 
			},
			{
				"x": 0.2323408123,
				"y": 0.5487739399,
				"z": 3.1060328659,
				"element": "H" 
			},
			{
				"x": 2.4808034025,
				"y": -0.6635459881,
				"z": 1.9441649545,
				"element": "H" 
			},
			{
				"x": -1.6537667612,
				"y": 0.6947082776,
				"z": -1.5153871258,
				"element": "H" 
			},
			{
				"x": -2.9410461107,
				"y": 1.5830187892,
				"z": 0.3957170583,
				"element": "H" 
			}
		],
		 "valence_orbital": [ 
			{
				"type": "occ",
				"energy": -0.29782,
				"method": "rhf"
			},
			{
				"type": "occ",
				"energy": -0.29644,
				"method": "rhf"
			},
			{
				"type": "occ",
				"energy": -0.28629,
				"method": "rhf"
			},
			{
				"type": "occ",
				"energy": -0.22974,
				"method": "rhf"
			},
			{
				"type": "occ",
				"energy": -0.22073,
				"method": "rhf"
			},
			{
				"type": "unocc",
				"energy": -0.03271,
				"method": "rhf"
			},
			{
				"type": "unocc",
				"energy": -0.00389,
				"method": "rhf"
			},
			{
				"type": "unocc",
				"energy": -0.00378,
				"method": "rhf"
			},
			{
				"type": "unocc",
				"energy": 0.01465,
				"method": "rhf"
			},
			{
				"type": "unocc",
				"energy": 0.03847,
				"method": "rhf"
			}
		],
		"cosmo_sigma_profile": { 
			"-0.025": 0.0,
			"-0.024": 0.0,
			"-0.023": 0.0,
			"-0.022": 0.0,
			"-0.021": 0.0,
			"-0.02": 0.0,
			"-0.019": 0.0,
			"-0.018": 0.0,
			"-0.017": 0.0,
			"-0.016": 0.0,
			"-0.015": 0.0,
			"-0.014": 0.0,
			"-0.013": 0.0,
			"-0.012": 0.0,
			"-0.011": 0.0,
			"-0.01": 0.0,
			"-0.009": 0.0,
			"-0.008": 1.06519349517,
			"-0.007": 4.71620609742,
			"-0.006": 7.99079587075,
			"-0.005": 11.2542585258,
			"-0.004": 13.817707415,
			"-0.003": 15.3573796961,
			"-0.002": 15.3588913059,
			"-0.001": 16.7570791722,
			"0.0": 19.2442101413,
			"0.001": 21.9370383511,
			"0.002": 24.4943952056,
			"0.003": 29.4239273041,
			"0.004": 19.7405808804,
			"0.005": 10.1343864087,
			"0.006": 0.410210371375,
			"0.007": 0.0,
			"0.008": 0.0,
			"0.009": 0.0,
			"0.01": 0.0,
			"0.011": 0.0,
			"0.012": 0.0,
			"0.013": 0.0,
			"0.014": 0.0,
			"0.015": 0.0,
			"0.016": 0.0,
			"0.017": 0.0,
			"0.018": 0.0,
			"0.019": 0.0,
			"0.02": 0.0,
			"0.021": 0.0,
			"0.022": 0.0,
			"0.023": 0.0,
			"0.024": 0.0,
			"0.025": 0.0
		}
	}
}
