{
	 "smiles": "OC(=O)C1=CC(=C(I)C=C1)[N+]([O-])=O", 
	 "Tm": 482.65, 
	 "num_atms": 17, 
	 "gaussian": { 
		 "optdone": 1, 
		 "sigma_profile": "yes", 
		 "theory": "DFT", 
		 "functional": "B3LYP", 
		 "basiset": "6-31G**", 
		 "properties": { 
			 "R2extent": 2873.1903, 
			 "electric_dipole_moment_norm": 4.89830397383, 
			 "electric_quadrupole_moment_norm": 9.11723958608, 
			 "total_energy": -636.086217126, 
			 "HOMO_LUMO_gap": 0.18333, 
			 "cosmo_polarized_energy": -13.07, 
			 "cosmo_cavitation_energy": 26.82, 
			 "cosmo_dispersion_energy": -20.31, 
			 "cosmo_repulsion_energy": 1.58, 
			 "cosmo_total_nonelectrostatic_energy": 8.09, 
			 "SMD_solvation_energy": 7.73 
		},
		"coords": [
			{
				"x": 3.5691811819,
				"y": -1.5856546335,
				"z": -1.7154129582,
				"element": "O" 
			},
			{
				"x": 3.178152479,
				"y": -1.0166949535,
				"z": -0.5517734329,
				"element": "C" 
			},
			{
				"x": 3.8616476079,
				"y": -1.0317839046,
				"z": 0.4506922826,
				"element": "O" 
			},
			{
				"x": 1.8341523319,
				"y": -0.3801323363,
				"z": -0.6444862048,
				"element": "C" 
			},
			{
				"x": 1.3319811023,
				"y": 0.2392983229,
				"z": 0.50341829,
				"element": "C" 
			},
			{
				"x": 0.0837056615,
				"y": 0.8436165772,
				"z": 0.4579367847,
				"element": "C" 
			},
			{
				"x": -0.6864572551,
				"y": 0.8493047397,
				"z": -0.7078387943,
				"element": "C" 
			},
			{
				"x": -2.5820538668,
				"y": 1.7637351906,
				"z": -0.7868126246,
				"element": "I" 
			},
			{
				"x": -0.1759246675,
				"y": 0.2269088719,
				"z": -1.8520979145,
				"element": "C" 
			},
			{
				"x": 1.0756293507,
				"y": -0.3837515595,
				"z": -1.8213411352,
				"element": "C" 
			},
			{
				"x": -0.4038864727,
				"y": 1.4854907327,
				"z": 1.6977235899,
				"element": "N" 
			},
			{
				"x": -1.0431823455,
				"y": 0.7795864993,
				"z": 2.4685094491,
				"element": "O" 
			},
			{
				"x": -0.1100296166,
				"y": 2.6638037948,
				"z": 1.8599970076,
				"element": "O" 
			},
			{
				"x": 4.4471270027,
				"y": -1.9669628092,
				"z": -1.54887426,
				"element": "H" 
			},
			{
				"x": 1.9221861429,
				"y": 0.2402086335,
				"z": 1.4133309403,
				"element": "H" 
			},
			{
				"x": -0.7598043011,
				"y": 0.2217831354,
				"z": -2.7652474067,
				"element": "H" 
			},
			{
				"x": 1.4651756646,
				"y": -0.8640563015,
				"z": -2.7112236131,
				"element": "H" 
			}
		],
		 "valence_orbital": [ 
			{
				"type": "occ",
				"energy": -0.31651,
				"method": "rhf"
			},
			{
				"type": "occ",
				"energy": -0.29977,
				"method": "rhf"
			},
			{
				"type": "occ",
				"energy": -0.28956,
				"method": "rhf"
			},
			{
				"type": "occ",
				"energy": -0.28473,
				"method": "rhf"
			},
			{
				"type": "occ",
				"energy": -0.26689,
				"method": "rhf"
			},
			{
				"type": "unocc",
				"energy": -0.08356,
				"method": "rhf"
			},
			{
				"type": "unocc",
				"energy": -0.08065,
				"method": "rhf"
			},
			{
				"type": "unocc",
				"energy": -0.06138,
				"method": "rhf"
			},
			{
				"type": "unocc",
				"energy": -0.04708,
				"method": "rhf"
			},
			{
				"type": "unocc",
				"energy": 0.02226,
				"method": "rhf"
			}
		],
		"cosmo_sigma_profile": { 
			"-0.025": 0.0,
			"-0.024": 0.0,
			"-0.023": 0.0,
			"-0.022": 0.0,
			"-0.021": 0.0,
			"-0.02": 0.0,
			"-0.019": 0.449385201022,
			"-0.018": 0.900260934645,
			"-0.017": 0.993567575025,
			"-0.016": 0.92607420565,
			"-0.015": 0.614585231231,
			"-0.014": 0.546163929417,
			"-0.013": 0.651888741396,
			"-0.012": 1.47716527438,
			"-0.011": 1.66372029633,
			"-0.01": 1.60376571424,
			"-0.009": 2.72502347058,
			"-0.008": 7.38230501766,
			"-0.007": 7.98376001843,
			"-0.006": 5.91992707595,
			"-0.005": 6.17601857367,
			"-0.004": 8.76233215264,
			"-0.003": 11.4179503728,
			"-0.002": 15.8316172449,
			"-0.001": 27.1452102129,
			"0.0": 19.4752243608,
			"0.001": 16.0681948,
			"0.002": 15.5238431345,
			"0.003": 12.2680336057,
			"0.004": 6.77956408003,
			"0.005": 5.48758848526,
			"0.006": 12.0349661561,
			"0.007": 12.0827762677,
			"0.008": 6.48358477363,
			"0.009": 3.30668992591,
			"0.01": 2.8655429861,
			"0.011": 4.51897090183,
			"0.012": 0.776903363543,
			"0.013": 0.0,
			"0.014": 0.0,
			"0.015": 0.0,
			"0.016": 0.0,
			"0.017": 0.0,
			"0.018": 0.0,
			"0.019": 0.0,
			"0.02": 0.0,
			"0.021": 0.0,
			"0.022": 0.0,
			"0.023": 0.0,
			"0.024": 0.0,
			"0.025": 0.0
		}
	}
}
