{
	 "smiles": "CC1(C)OC(=O)C(=CC2=CC=CC(=C2)[N+]([O-])=O)C(=O)O1", 
	 "Tm": 595.15, 
	 "num_atms": 31, 
	 "gaussian": { 
		 "optdone": 1, 
		 "sigma_profile": "yes", 
		 "theory": "DFT", 
		 "functional": "B3LYP", 
		 "basiset": "6-31G**", 
		 "properties": { 
			 "R2extent": 7372.3567, 
			 "electric_dipole_moment_norm": 4.480387529, 
			 "electric_quadrupole_moment_norm": 36.6104899486, 
			 "total_energy": -1008.01472363, 
			 "HOMO_LUMO_gap": 0.16021, 
			 "cosmo_polarized_energy": -18.55, 
			 "cosmo_cavitation_energy": 36.44, 
			 "cosmo_dispersion_energy": -25.95, 
			 "cosmo_repulsion_energy": 1.96, 
			 "cosmo_total_nonelectrostatic_energy": 12.46, 
			 "SMD_solvation_energy": 10.52 
		},
		"coords": [
			{
				"x": -3.2253195377,
				"y": 2.9777645847,
				"z": 1.7564094676,
				"element": "C" 
			},
			{
				"x": -2.3329869381,
				"y": 1.8412806593,
				"z": 1.2907167015,
				"element": "C" 
			},
			{
				"x": -1.7896372481,
				"y": 0.985991779,
				"z": 2.4339573767,
				"element": "C" 
			},
			{
				"x": -3.1340371682,
				"y": 1.0406482543,
				"z": 0.410850415,
				"element": "O" 
			},
			{
				"x": -2.5266387041,
				"y": 0.1825401682,
				"z": -0.4515477647,
				"element": "C" 
			},
			{
				"x": -3.1800205983,
				"y": -0.6872245803,
				"z": -0.9799425288,
				"element": "O" 
			},
			{
				"x": -1.0667229122,
				"y": 0.4222854549,
				"z": -0.7105511228,
				"element": "C" 
			},
			{
				"x": -0.4384148409,
				"y": -0.5913863269,
				"z": -1.3708234987,
				"element": "C" 
			},
			{
				"x": 0.9138943088,
				"y": -0.8883005277,
				"z": -1.8338439658,
				"element": "C" 
			},
			{
				"x": 1.0938336337,
				"y": -2.1830682283,
				"z": -2.3763158315,
				"element": "C" 
			},
			{
				"x": 2.3302041107,
				"y": -2.6162719452,
				"z": -2.8451713297,
				"element": "C" 
			},
			{
				"x": 3.4309489767,
				"y": -1.7645944335,
				"z": -2.7887272517,
				"element": "C" 
			},
			{
				"x": 3.2505665641,
				"y": -0.4875993879,
				"z": -2.2579782831,
				"element": "C" 
			},
			{
				"x": 2.0291810475,
				"y": -0.0266048183,
				"z": -1.7857696536,
				"element": "C" 
			},
			{
				"x": 4.4184205969,
				"y": 0.4177064734,
				"z": -2.2019147158,
				"element": "N" 
			},
			{
				"x": 4.252501378,
				"y": 1.5351584029,
				"z": -1.7226836861,
				"element": "O" 
			},
			{
				"x": 5.4856926454,
				"y": -0.012283199,
				"z": -2.6391075328,
				"element": "O" 
			},
			{
				"x": -0.4957086482,
				"y": 1.7276850907,
				"z": -0.293588212,
				"element": "C" 
			},
			{
				"x": 0.5335382042,
				"y": 2.2173737483,
				"z": -0.7028615188,
				"element": "O" 
			},
			{
				"x": -1.250376276,
				"y": 2.4549839695,
				"z": 0.575764454,
				"element": "O" 
			},
			{
				"x": -3.5762986055,
				"y": 3.5441076661,
				"z": 0.8914873194,
				"element": "H" 
			},
			{
				"x": -2.6645443314,
				"y": 3.6435558367,
				"z": 2.4159809773,
				"element": "H" 
			},
			{
				"x": -4.0867252376,
				"y": 2.5766792802,
				"z": 2.2949214287,
				"element": "H" 
			},
			{
				"x": -2.6186086591,
				"y": 0.5387150486,
				"z": 2.9875163407,
				"element": "H" 
			},
			{
				"x": -1.1999283213,
				"y": 1.6070665852,
				"z": 3.1122899934,
				"element": "H" 
			},
			{
				"x": -1.1512206935,
				"y": 0.1825748599,
				"z": 2.0560264017,
				"element": "H" 
			},
			{
				"x": -1.131777065,
				"y": -1.4043548517,
				"z": -1.5826272313,
				"element": "H" 
			},
			{
				"x": 0.2418073819,
				"y": -2.8551375551,
				"z": -2.4238718833,
				"element": "H" 
			},
			{
				"x": 2.4373255084,
				"y": -3.6150261214,
				"z": -3.255234328,
				"element": "H" 
			},
			{
				"x": 4.4097215436,
				"y": -2.0608237127,
				"z": -3.1444597229,
				"element": "H" 
			},
			{
				"x": 1.9383298853,
				"y": 0.980957826,
				"z": -1.4048008147,
				"element": "H" 
			}
		],
		 "valence_orbital": [ 
			{
				"type": "occ",
				"energy": -0.30241,
				"method": "rhf"
			},
			{
				"type": "occ",
				"energy": -0.29591,
				"method": "rhf"
			},
			{
				"type": "occ",
				"energy": -0.29394,
				"method": "rhf"
			},
			{
				"type": "occ",
				"energy": -0.28346,
				"method": "rhf"
			},
			{
				"type": "occ",
				"energy": -0.2711,
				"method": "rhf"
			},
			{
				"type": "unocc",
				"energy": -0.11089,
				"method": "rhf"
			},
			{
				"type": "unocc",
				"energy": -0.0935,
				"method": "rhf"
			},
			{
				"type": "unocc",
				"energy": -0.02262,
				"method": "rhf"
			},
			{
				"type": "unocc",
				"energy": -0.01183,
				"method": "rhf"
			},
			{
				"type": "unocc",
				"energy": 0.00039,
				"method": "rhf"
			}
		],
		"cosmo_sigma_profile": { 
			"-0.025": 0.0,
			"-0.024": 0.0,
			"-0.023": 0.0,
			"-0.022": 0.0,
			"-0.021": 0.0,
			"-0.02": 0.0,
			"-0.019": 0.0,
			"-0.018": 0.0,
			"-0.017": 0.0,
			"-0.016": 0.0,
			"-0.015": 0.0,
			"-0.014": 0.0,
			"-0.013": 0.0,
			"-0.012": 0.0,
			"-0.011": 0.301204322819,
			"-0.01": 1.30392189987,
			"-0.009": 2.88150229422,
			"-0.008": 6.62052460783,
			"-0.007": 10.4995581262,
			"-0.006": 20.7375159721,
			"-0.005": 21.8500956258,
			"-0.004": 21.5998438692,
			"-0.003": 23.7303013956,
			"-0.002": 29.6537929226,
			"-0.001": 31.158116384,
			"0.0": 18.1918746383,
			"0.001": 11.7449614896,
			"0.002": 6.64049784471,
			"0.003": 6.75227358087,
			"0.004": 8.04807085771,
			"0.005": 7.63384302527,
			"0.006": 7.81190284856,
			"0.007": 14.8528592575,
			"0.008": 12.0367631128,
			"0.009": 10.0786849618,
			"0.01": 7.6053257398,
			"0.011": 7.15842269827,
			"0.012": 2.99786947377,
			"0.013": 0.205327362623,
			"0.014": 0.0,
			"0.015": 0.0,
			"0.016": 0.0,
			"0.017": 0.0,
			"0.018": 0.0,
			"0.019": 0.0,
			"0.02": 0.0,
			"0.021": 0.0,
			"0.022": 0.0,
			"0.023": 0.0,
			"0.024": 0.0,
			"0.025": 0.0
		}
	}
}
