{
	 "smiles": "CC(C)N1N=CC2=C1C=C(N)C=C2", 
	 "Tm": 418.15, 
	 "num_atms": 26, 
	 "gaussian": { 
		 "optdone": 1, 
		 "sigma_profile": "yes", 
		 "theory": "DFT", 
		 "functional": "B3LYP", 
		 "basiset": "6-31G**", 
		 "properties": { 
			 "R2extent": 3014.6053, 
			 "electric_dipole_moment_norm": 3.17064518671, 
			 "electric_quadrupole_moment_norm": 9.77721572535, 
			 "total_energy": -553.152549154, 
			 "HOMO_LUMO_gap": 0.17922, 
			 "cosmo_polarized_energy": -12.06, 
			 "cosmo_cavitation_energy": 28.46, 
			 "cosmo_dispersion_energy": -20.6, 
			 "cosmo_repulsion_energy": 1.63, 
			 "cosmo_total_nonelectrostatic_energy": 9.49, 
			 "SMD_solvation_energy": 3.96 
		},
		"coords": [
			{
				"x": 0.9911288059,
				"y": 2.0975180335,
				"z": 0.4986436222,
				"element": "C" 
			},
			{
				"x": 0.3268283799,
				"y": 0.8572311638,
				"z": 1.1124745322,
				"element": "C" 
			},
			{
				"x": 1.277729347,
				"y": -0.3435672859,
				"z": 1.2147997067,
				"element": "C" 
			},
			{
				"x": -0.9151768636,
				"y": 0.5072281362,
				"z": 0.4169062037,
				"element": "N" 
			},
			{
				"x": -2.0902879859,
				"y": 0.5737867954,
				"z": 1.1192832455,
				"element": "N" 
			},
			{
				"x": -3.0470265273,
				"y": 0.2205484928,
				"z": 0.2819423679,
				"element": "C" 
			},
			{
				"x": -2.5257076484,
				"y": -0.0907275308,
				"z": -1.0071343489,
				"element": "C" 
			},
			{
				"x": -1.1254893332,
				"y": 0.1085885224,
				"z": -0.8798980247,
				"element": "C" 
			},
			{
				"x": -0.2451537465,
				"y": -0.1062655976,
				"z": -1.9559986166,
				"element": "C" 
			},
			{
				"x": -0.7897611118,
				"y": -0.5186959162,
				"z": -3.17211221,
				"element": "C" 
			},
			{
				"x": 0.0232553251,
				"y": -0.6895600131,
				"z": -4.2971707774,
				"element": "N" 
			},
			{
				"x": -2.1949346408,
				"y": -0.7165937869,
				"z": -3.3040509743,
				"element": "C" 
			},
			{
				"x": -3.0528471595,
				"y": -0.5091850086,
				"z": -2.2426389366,
				"element": "C" 
			},
			{
				"x": 1.336062471,
				"y": 1.9131591188,
				"z": -0.523073594,
				"element": "H" 
			},
			{
				"x": 0.2894391406,
				"y": 2.9357776422,
				"z": 0.4740783884,
				"element": "H" 
			},
			{
				"x": 1.8590145069,
				"y": 2.391522636,
				"z": 1.0976016605,
				"element": "H" 
			},
			{
				"x": -0.0173255768,
				"y": 1.1115903212,
				"z": 2.1183766428,
				"element": "H" 
			},
			{
				"x": 1.639510803,
				"y": -0.6627564108,
				"z": 0.232835498,
				"element": "H" 
			},
			{
				"x": 2.1488493384,
				"y": -0.0797969496,
				"z": 1.8230318427,
				"element": "H" 
			},
			{
				"x": 0.7739582704,
				"y": -1.192987188,
				"z": 1.6843481726,
				"element": "H" 
			},
			{
				"x": -4.0755489066,
				"y": 0.1984245071,
				"z": 0.6183397934,
				"element": "H" 
			},
			{
				"x": 0.8248415567,
				"y": 0.0450622049,
				"z": -1.8633376139,
				"element": "H" 
			},
			{
				"x": 0.9989071199,
				"y": -0.8634267547,
				"z": -4.0978089606,
				"element": "H" 
			},
			{
				"x": -0.3361948371,
				"y": -1.3354816693,
				"z": -4.9865826354,
				"element": "H" 
			},
			{
				"x": -2.5872349672,
				"y": -1.0304167789,
				"z": -4.2679371653,
				"element": "H" 
			},
			{
				"x": -4.1206357602,
				"y": -0.6686766837,
				"z": -2.363617819,
				"element": "H" 
			}
		],
		 "valence_orbital": [ 
			{
				"type": "occ",
				"energy": -0.29284,
				"method": "rhf"
			},
			{
				"type": "occ",
				"energy": -0.27635,
				"method": "rhf"
			},
			{
				"type": "occ",
				"energy": -0.26815,
				"method": "rhf"
			},
			{
				"type": "occ",
				"energy": -0.21135,
				"method": "rhf"
			},
			{
				"type": "occ",
				"energy": -0.19133,
				"method": "rhf"
			},
			{
				"type": "unocc",
				"energy": -0.01211,
				"method": "rhf"
			},
			{
				"type": "unocc",
				"energy": 0.03169,
				"method": "rhf"
			},
			{
				"type": "unocc",
				"energy": 0.07013,
				"method": "rhf"
			},
			{
				"type": "unocc",
				"energy": 0.08009,
				"method": "rhf"
			},
			{
				"type": "unocc",
				"energy": 0.088,
				"method": "rhf"
			}
		],
		"cosmo_sigma_profile": { 
			"-0.025": 0.0,
			"-0.024": 0.0,
			"-0.023": 0.0,
			"-0.022": 0.0,
			"-0.021": 0.0,
			"-0.02": 0.0,
			"-0.019": 0.0,
			"-0.018": 0.0,
			"-0.017": 0.0,
			"-0.016": 0.0,
			"-0.015": 0.0,
			"-0.014": 0.0,
			"-0.013": 0.181900114626,
			"-0.012": 2.46552216346,
			"-0.011": 2.60235667853,
			"-0.01": 2.89290021315,
			"-0.009": 3.7015791096,
			"-0.008": 3.21542528624,
			"-0.007": 4.1739893504,
			"-0.006": 8.87365537542,
			"-0.005": 10.1615418971,
			"-0.004": 17.7334264103,
			"-0.003": 19.7040449615,
			"-0.002": 17.7120232382,
			"-0.001": 18.6933886806,
			"0.0": 20.6620337536,
			"0.001": 14.4193601389,
			"0.002": 8.63242263195,
			"0.003": 10.4376352922,
			"0.004": 11.4396793819,
			"0.005": 14.4106358377,
			"0.006": 12.5882937401,
			"0.007": 3.72497659556,
			"0.008": 3.31618195202,
			"0.009": 1.81532789109,
			"0.01": 2.00583007839,
			"0.011": 2.14244138206,
			"0.012": 1.85342091068,
			"0.013": 1.66479016966,
			"0.014": 1.98845438394,
			"0.015": 0.913740893994,
			"0.016": 0.530886784208,
			"0.017": 0.0,
			"0.018": 0.0,
			"0.019": 0.0,
			"0.02": 0.0,
			"0.021": 0.0,
			"0.022": 0.0,
			"0.023": 0.0,
			"0.024": 0.0,
			"0.025": 0.0
		}
	}
}
