{
	 "smiles": "COC1=CC(O)=C(C=O)C(OC)=C1", 
	 "Tm": 343.15, 
	 "num_atms": 23, 
	 "gaussian": { 
		 "optdone": 1, 
		 "sigma_profile": "yes", 
		 "theory": "DFT", 
		 "functional": "B3LYP", 
		 "basiset": "6-31G**", 
		 "properties": { 
			 "R2extent": 2695.1267, 
			 "electric_dipole_moment_norm": 4.97942832863, 
			 "electric_quadrupole_moment_norm": 13.6026378971, 
			 "total_energy": -649.834923805, 
			 "HOMO_LUMO_gap": 0.18441, 
			 "cosmo_polarized_energy": -15.13, 
			 "cosmo_cavitation_energy": 27.03, 
			 "cosmo_dispersion_energy": -19.88, 
			 "cosmo_repulsion_energy": 1.57, 
			 "cosmo_total_nonelectrostatic_energy": 8.72, 
			 "SMD_solvation_energy": 7.6 
		},
		"coords": [
			{
				"x": 1.0082246318,
				"y": 3.4704264004,
				"z": -0.8413239544,
				"element": "C" 
			},
			{
				"x": 0.0478610306,
				"y": 2.9015931926,
				"z": 0.0418499716,
				"element": "O" 
			},
			{
				"x": -0.1497547612,
				"y": 1.5604363576,
				"z": 0.0074286984,
				"element": "C" 
			},
			{
				"x": -1.1034869781,
				"y": 1.0695155212,
				"z": 0.9087526268,
				"element": "C" 
			},
			{
				"x": -1.3662426376,
				"y": -0.2931153569,
				"z": 0.9533126111,
				"element": "C" 
			},
			{
				"x": -2.2837337118,
				"y": -0.7967211403,
				"z": 1.827701441,
				"element": "O" 
			},
			{
				"x": -0.7044212999,
				"y": -1.2196207243,
				"z": 0.1014285225,
				"element": "C" 
			},
			{
				"x": -0.931582912,
				"y": -2.6575160309,
				"z": 0.3198970161,
				"element": "C" 
			},
			{
				"x": -0.4893612402,
				"y": -3.5760141806,
				"z": -0.3555980632,
				"element": "O" 
			},
			{
				"x": 0.2331007854,
				"y": -0.6822397728,
				"z": -0.8188743246,
				"element": "C" 
			},
			{
				"x": 0.9716055599,
				"y": -1.4552697676,
				"z": -1.6648646372,
				"element": "O" 
			},
			{
				"x": 0.2835100062,
				"y": -2.0645105515,
				"z": -2.7656915634,
				"element": "C" 
			},
			{
				"x": 0.5136128778,
				"y": 0.6860204615,
				"z": -0.859186305,
				"element": "C" 
			},
			{
				"x": 0.7360974086,
				"y": 3.304254882,
				"z": -1.8904241087,
				"element": "H" 
			},
			{
				"x": 2.0104229135,
				"y": 3.0653126045,
				"z": -0.6586123054,
				"element": "H" 
			},
			{
				"x": 1.0067855781,
				"y": 4.5409286927,
				"z": -0.6328536541,
				"element": "H" 
			},
			{
				"x": -1.6178158988,
				"y": 1.7680799192,
				"z": 1.5620995011,
				"element": "H" 
			},
			{
				"x": -2.6203601203,
				"y": -0.0793169975,
				"z": 2.3799309895,
				"element": "H" 
			},
			{
				"x": -1.5537591195,
				"y": -2.8771848547,
				"z": 1.2070661598,
				"element": "H" 
			},
			{
				"x": -0.4327199681,
				"y": -2.8097983357,
				"z": -2.4175015868,
				"element": "H" 
			},
			{
				"x": 1.0568582636,
				"y": -2.5548037608,
				"z": -3.3597111838,
				"element": "H" 
			},
			{
				"x": -0.2118890791,
				"y": -1.2989598657,
				"z": -3.376348087,
				"element": "H" 
			},
			{
				"x": 1.251148671,
				"y": 1.0244033074,
				"z": -1.5742777641,
				"element": "H" 
			}
		],
		 "valence_orbital": [ 
			{
				"type": "occ",
				"energy": -0.30012,
				"method": "rhf"
			},
			{
				"type": "occ",
				"energy": -0.27258,
				"method": "rhf"
			},
			{
				"type": "occ",
				"energy": -0.23557,
				"method": "rhf"
			},
			{
				"type": "occ",
				"energy": -0.23236,
				"method": "rhf"
			},
			{
				"type": "occ",
				"energy": -0.23047,
				"method": "rhf"
			},
			{
				"type": "unocc",
				"energy": -0.04606,
				"method": "rhf"
			},
			{
				"type": "unocc",
				"energy": 0.00276,
				"method": "rhf"
			},
			{
				"type": "unocc",
				"energy": 0.05223,
				"method": "rhf"
			},
			{
				"type": "unocc",
				"energy": 0.05876,
				"method": "rhf"
			},
			{
				"type": "unocc",
				"energy": 0.09054,
				"method": "rhf"
			}
		],
		"cosmo_sigma_profile": { 
			"-0.025": 0.0,
			"-0.024": 0.0,
			"-0.023": 0.0,
			"-0.022": 0.0,
			"-0.021": 0.0,
			"-0.02": 0.0,
			"-0.019": 0.124378850936,
			"-0.018": 1.10761035676,
			"-0.017": 1.34017576689,
			"-0.016": 0.88728119991,
			"-0.015": 1.20856837308,
			"-0.014": 1.03695832974,
			"-0.013": 0.707716791423,
			"-0.012": 1.2432814526,
			"-0.011": 0.849330707596,
			"-0.01": 1.60087112724,
			"-0.009": 0.647609374071,
			"-0.008": 1.04644554508,
			"-0.007": 2.77106723,
			"-0.006": 11.5548491837,
			"-0.005": 15.5754545049,
			"-0.004": 17.0659986955,
			"-0.003": 17.2295005553,
			"-0.002": 16.5157357892,
			"-0.001": 13.4508492134,
			"0.0": 12.7739805869,
			"0.001": 13.4951673891,
			"0.002": 19.5144334232,
			"0.003": 14.2972161745,
			"0.004": 6.49107941023,
			"0.005": 5.88616459705,
			"0.006": 5.18887743833,
			"0.007": 5.91407146002,
			"0.008": 4.99717247576,
			"0.009": 4.56696213451,
			"0.01": 3.28650696209,
			"0.011": 5.00089481624,
			"0.012": 4.49608551731,
			"0.013": 2.11451856964,
			"0.014": 0.878721975921,
			"0.015": 0.0,
			"0.016": 0.0,
			"0.017": 0.0,
			"0.018": 0.0,
			"0.019": 0.0,
			"0.02": 0.0,
			"0.021": 0.0,
			"0.022": 0.0,
			"0.023": 0.0,
			"0.024": 0.0,
			"0.025": 0.0
		}
	}
}
