{
	 "smiles": "[O-][N+](=O)C1=CC=CC=C1NN=C(C#N)C1=NC(=CS1)C1=CC=CC=C1", 
	 "Tm": 483.15, 
	 "num_atms": 36, 
	 "gaussian": { 
		 "optdone": 1, 
		 "sigma_profile": "yes", 
		 "theory": "DFT", 
		 "functional": "B3LYP", 
		 "basiset": "6-31G**", 
		 "properties": { 
			 "R2extent": 10432.1353, 
			 "electric_dipole_moment_norm": 2.14862264253, 
			 "electric_quadrupole_moment_norm": 33.9249362452, 
			 "total_energy": -1476.68219058, 
			 "HOMO_LUMO_gap": 0.11564, 
			 "cosmo_polarized_energy": -14.29, 
			 "cosmo_cavitation_energy": 44.18, 
			 "cosmo_dispersion_energy": -31.36, 
			 "cosmo_repulsion_energy": 2.26, 
			 "cosmo_total_nonelectrostatic_energy": 15.08, 
			 "SMD_solvation_energy": 8.96 
		},
		"coords": [
			{
				"x": -1.3679005725,
				"y": -0.2464772215,
				"z": 0.699260619,
				"element": "O" 
			},
			{
				"x": -2.4763623139,
				"y": -0.1367425175,
				"z": 0.1496185723,
				"element": "N" 
			},
			{
				"x": -3.5292240849,
				"y": -0.468223579,
				"z": 0.6898531792,
				"element": "O" 
			},
			{
				"x": -2.5228316717,
				"y": 0.4116688688,
				"z": -1.1964666127,
				"element": "C" 
			},
			{
				"x": -3.7873519026,
				"y": 0.4662724867,
				"z": -1.8010403965,
				"element": "C" 
			},
			{
				"x": -3.9367746177,
				"y": 0.9769989793,
				"z": -3.0774669738,
				"element": "C" 
			},
			{
				"x": -2.8029805139,
				"y": 1.4425913608,
				"z": -3.7584841512,
				"element": "C" 
			},
			{
				"x": -1.5487455675,
				"y": 1.3945967259,
				"z": -3.1733442045,
				"element": "C" 
			},
			{
				"x": -1.3650728416,
				"y": 0.8760108298,
				"z": -1.873602671,
				"element": "C" 
			},
			{
				"x": -0.0862301232,
				"y": 0.8474327073,
				"z": -1.3194440943,
				"element": "N" 
			},
			{
				"x": 0.9097717802,
				"y": 1.354075059,
				"z": -2.0315414808,
				"element": "N" 
			},
			{
				"x": 2.1381767048,
				"y": 1.3516121778,
				"z": -1.5854718799,
				"element": "C" 
			},
			{
				"x": 3.0966589677,
				"y": 1.9401549555,
				"z": -2.4833690638,
				"element": "C" 
			},
			{
				"x": 3.8999043884,
				"y": 2.4076508194,
				"z": -3.1830018357,
				"element": "N" 
			},
			{
				"x": 2.6407348748,
				"y": 0.8299360537,
				"z": -0.3180191379,
				"element": "C" 
			},
			{
				"x": 1.8967283135,
				"y": 0.2797645662,
				"z": 0.6122425233,
				"element": "N" 
			},
			{
				"x": 2.6490065479,
				"y": -0.1452481299,
				"z": 1.6894758803,
				"element": "C" 
			},
			{
				"x": 3.9979531756,
				"y": 0.1085839424,
				"z": 1.5607216535,
				"element": "C" 
			},
			{
				"x": 4.3585188497,
				"y": 0.8791567607,
				"z": 0.0654650303,
				"element": "S" 
			},
			{
				"x": 2.0172439304,
				"y": -0.7951440007,
				"z": 2.8549977495,
				"element": "C" 
			},
			{
				"x": 0.6634004011,
				"y": -0.5745523159,
				"z": 3.1498182085,
				"element": "C" 
			},
			{
				"x": 0.0780582886,
				"y": -1.1729815655,
				"z": 4.2646204299,
				"element": "C" 
			},
			{
				"x": 0.831656939,
				"y": -1.9965493789,
				"z": 5.1023432375,
				"element": "C" 
			},
			{
				"x": 2.1788119856,
				"y": -2.2270093622,
				"z": 4.813104148,
				"element": "C" 
			},
			{
				"x": 2.7657202516,
				"y": -1.6354672331,
				"z": 3.6972663255,
				"element": "C" 
			},
			{
				"x": -4.6307141114,
				"y": 0.0969588434,
				"z": -1.2322424636,
				"element": "H" 
			},
			{
				"x": -4.91719941,
				"y": 1.0142235416,
				"z": -3.5394534335,
				"element": "H" 
			},
			{
				"x": -2.899450576,
				"y": 1.8475656774,
				"z": -4.7614148886,
				"element": "H" 
			},
			{
				"x": -0.6761606567,
				"y": 1.7546318752,
				"z": -3.7012010472,
				"element": "H" 
			},
			{
				"x": 0.0657347926,
				"y": 0.4369500643,
				"z": -0.3917331107,
				"element": "H" 
			},
			{
				"x": 4.7806529163,
				"y": -0.0909924944,
				"z": 2.2774151342,
				"element": "H" 
			},
			{
				"x": 0.0708080671,
				"y": 0.0589536378,
				"z": 2.5029619401,
				"element": "H" 
			},
			{
				"x": -0.9723646813,
				"y": -0.994549717,
				"z": 4.4746048314,
				"element": "H" 
			},
			{
				"x": 0.3723722158,
				"y": -2.4626206386,
				"z": 5.9692584773,
				"element": "H" 
			},
			{
				"x": 2.770593463,
				"y": -2.8777732559,
				"z": 5.4503779351,
				"element": "H" 
			},
			{
				"x": 3.8051567911,
				"y": -1.8486585231,
				"z": 3.4652915708,
				"element": "H" 
			}
		],
		 "valence_orbital": [ 
			{
				"type": "occ",
				"energy": -0.29015,
				"method": "rhf"
			},
			{
				"type": "occ",
				"energy": -0.28534,
				"method": "rhf"
			},
			{
				"type": "occ",
				"energy": -0.25324,
				"method": "rhf"
			},
			{
				"type": "occ",
				"energy": -0.24462,
				"method": "rhf"
			},
			{
				"type": "occ",
				"energy": -0.22195,
				"method": "rhf"
			},
			{
				"type": "unocc",
				"energy": -0.10631,
				"method": "rhf"
			},
			{
				"type": "unocc",
				"energy": -0.08446,
				"method": "rhf"
			},
			{
				"type": "unocc",
				"energy": -0.04095,
				"method": "rhf"
			},
			{
				"type": "unocc",
				"energy": -0.01722,
				"method": "rhf"
			},
			{
				"type": "unocc",
				"energy": -0.00681,
				"method": "rhf"
			}
		],
		"cosmo_sigma_profile": { 
			"-0.025": 0.0,
			"-0.024": 0.0,
			"-0.023": 0.0,
			"-0.022": 0.0,
			"-0.021": 0.0,
			"-0.02": 0.0,
			"-0.019": 0.0,
			"-0.018": 0.0,
			"-0.017": 0.0,
			"-0.016": 0.0,
			"-0.015": 0.0,
			"-0.014": 0.0,
			"-0.013": 0.0,
			"-0.012": 0.0,
			"-0.011": 0.108108482332,
			"-0.01": 1.82028269886,
			"-0.009": 2.54593831026,
			"-0.008": 4.20896673066,
			"-0.007": 10.9805795365,
			"-0.006": 18.2236315847,
			"-0.005": 20.3731363292,
			"-0.004": 24.7290353111,
			"-0.003": 24.970726848,
			"-0.002": 28.6692084275,
			"-0.001": 31.0860778962,
			"0.0": 35.3872628668,
			"0.001": 36.3268262781,
			"0.002": 29.481625768,
			"0.003": 19.0285589742,
			"0.004": 14.7748189235,
			"0.005": 16.9342025602,
			"0.006": 9.95858787524,
			"0.007": 10.2284237784,
			"0.008": 7.81984101797,
			"0.009": 5.71058255437,
			"0.01": 3.48201784031,
			"0.011": 2.63722853593,
			"0.012": 1.67288399338,
			"0.013": 0.117231392299,
			"0.014": 0.0,
			"0.015": 0.0,
			"0.016": 0.0,
			"0.017": 0.0,
			"0.018": 0.0,
			"0.019": 0.0,
			"0.02": 0.0,
			"0.021": 0.0,
			"0.022": 0.0,
			"0.023": 0.0,
			"0.024": 0.0,
			"0.025": 0.0
		}
	}
}
