{
	 "smiles": "COC1=CC2=C(C=C1)N=C(Cl)C(C)=C2", 
	 "Tm": 366.15, 
	 "num_atms": 24, 
	 "gaussian": { 
		 "optdone": 1, 
		 "sigma_profile": "yes", 
		 "theory": "DFT", 
		 "functional": "B3LYP", 
		 "basiset": "6-31G**", 
		 "properties": { 
			 "R2extent": 3968.1087, 
			 "electric_dipole_moment_norm": 4.73180136734, 
			 "electric_quadrupole_moment_norm": 5.05734617957, 
			 "total_energy": -1015.37266034, 
			 "HOMO_LUMO_gap": 0.16907, 
			 "cosmo_polarized_energy": -9.36, 
			 "cosmo_cavitation_energy": 29.5, 
			 "cosmo_dispersion_energy": -22.01, 
			 "cosmo_repulsion_energy": 1.71, 
			 "cosmo_total_nonelectrostatic_energy": 9.19, 
			 "SMD_solvation_energy": 3.94 
		},
		"coords": [
			{
				"x": 0.0639365951,
				"y": -4.5323114282,
				"z": -0.090012559,
				"element": "C" 
			},
			{
				"x": -0.8329488117,
				"y": -3.6664617969,
				"z": -0.7687598616,
				"element": "O" 
			},
			{
				"x": -0.7330281585,
				"y": -2.3286943623,
				"z": -0.536434138,
				"element": "C" 
			},
			{
				"x": 0.1794866744,
				"y": -1.7337617501,
				"z": 0.3149224414,
				"element": "C" 
			},
			{
				"x": 0.1803716693,
				"y": -0.3221816737,
				"z": 0.4701406115,
				"element": "C" 
			},
			{
				"x": -0.7579563955,
				"y": 0.4729453559,
				"z": -0.2513866084,
				"element": "C" 
			},
			{
				"x": -1.6823739939,
				"y": -0.1699482797,
				"z": -1.1182736278,
				"element": "C" 
			},
			{
				"x": -1.6699183188,
				"y": -1.5341567831,
				"z": -1.2568013166,
				"element": "C" 
			},
			{
				"x": -0.7933235787,
				"y": 1.8301810652,
				"z": -0.1332292297,
				"element": "N" 
			},
			{
				"x": 0.0584334637,
				"y": 2.4020768803,
				"z": 0.6634544224,
				"element": "C" 
			},
			{
				"x": -0.0399841787,
				"y": 4.1702239476,
				"z": 0.7723884703,
				"element": "Cl" 
			},
			{
				"x": 1.0522047101,
				"y": 1.7384758032,
				"z": 1.4471291836,
				"element": "C" 
			},
			{
				"x": 2.0014635817,
				"y": 2.4815390638,
				"z": 2.3466721228,
				"element": "C" 
			},
			{
				"x": 1.0820737801,
				"y": 0.3646441597,
				"z": 1.3223719285,
				"element": "C" 
			},
			{
				"x": -0.0558951021,
				"y": -4.4622089138,
				"z": 0.9987207431,
				"element": "H" 
			},
			{
				"x": -0.1863284824,
				"y": -5.5427339683,
				"z": -0.415997945,
				"element": "H" 
			},
			{
				"x": 1.1076529788,
				"y": -4.3150039703,
				"z": -0.3508803903,
				"element": "H" 
			},
			{
				"x": 0.9008809837,
				"y": -2.3201234366,
				"z": 0.8724330852,
				"element": "H" 
			},
			{
				"x": -2.3892270547,
				"y": 0.4499260658,
				"z": -1.6594883171,
				"element": "H" 
			},
			{
				"x": -2.3665446649,
				"y": -2.0455339433,
				"z": -1.9129689911,
				"element": "H" 
			},
			{
				"x": 1.4619124375,
				"y": 3.0541183221,
				"z": 3.1083354202,
				"element": "H" 
			},
			{
				"x": 2.6760109402,
				"y": 1.7854103983,
				"z": 2.851831971,
				"element": "H" 
			},
			{
				"x": 2.6052897648,
				"y": 3.1994710694,
				"z": 1.781811153,
				"element": "H" 
			},
			{
				"x": 1.8133111603,
				"y": -0.2066918248,
				"z": 1.8899214315,
				"element": "H" 
			}
		],
		 "valence_orbital": [ 
			{
				"type": "occ",
				"energy": -0.30568,
				"method": "rhf"
			},
			{
				"type": "occ",
				"energy": -0.29243,
				"method": "rhf"
			},
			{
				"type": "occ",
				"energy": -0.26687,
				"method": "rhf"
			},
			{
				"type": "occ",
				"energy": -0.24089,
				"method": "rhf"
			},
			{
				"type": "occ",
				"energy": -0.22115,
				"method": "rhf"
			},
			{
				"type": "unocc",
				"energy": -0.05208,
				"method": "rhf"
			},
			{
				"type": "unocc",
				"energy": -0.01631,
				"method": "rhf"
			},
			{
				"type": "unocc",
				"energy": 0.01865,
				"method": "rhf"
			},
			{
				"type": "unocc",
				"energy": 0.04011,
				"method": "rhf"
			},
			{
				"type": "unocc",
				"energy": 0.08582,
				"method": "rhf"
			}
		],
		"cosmo_sigma_profile": { 
			"-0.025": 0.0,
			"-0.024": 0.0,
			"-0.023": 0.0,
			"-0.022": 0.0,
			"-0.021": 0.0,
			"-0.02": 0.0,
			"-0.019": 0.0,
			"-0.018": 0.0,
			"-0.017": 0.0,
			"-0.016": 0.0,
			"-0.015": 0.0,
			"-0.014": 0.0,
			"-0.013": 0.0,
			"-0.012": 0.0,
			"-0.011": 0.0,
			"-0.01": 0.0,
			"-0.009": 0.0,
			"-0.008": 0.580741471405,
			"-0.007": 6.66724596239,
			"-0.006": 13.9185369121,
			"-0.005": 16.7779384688,
			"-0.004": 20.1723609092,
			"-0.003": 17.1592429315,
			"-0.002": 16.7300770336,
			"-0.001": 17.987918323,
			"0.0": 20.5846968835,
			"0.001": 17.4984801443,
			"0.002": 25.8715894264,
			"0.003": 22.1106751181,
			"0.004": 12.9407836258,
			"0.005": 8.9876688175,
			"0.006": 4.33939324687,
			"0.007": 3.71444798164,
			"0.008": 2.99184048064,
			"0.009": 3.17758285951,
			"0.01": 2.30307862681,
			"0.011": 0.908515247875,
			"0.012": 0.753666935577,
			"0.013": 0.853866180145,
			"0.014": 0.700571792325,
			"0.015": 0.0800426160094,
			"0.016": 0.0,
			"0.017": 0.0,
			"0.018": 0.0,
			"0.019": 0.0,
			"0.02": 0.0,
			"0.021": 0.0,
			"0.022": 0.0,
			"0.023": 0.0,
			"0.024": 0.0,
			"0.025": 0.0
		}
	}
}
