{
	 "smiles": "N#CC(C1CCCCC1)C1=CC=CC=C1", 
	 "Tm": 327.15, 
	 "num_atms": 32, 
	 "gaussian": { 
		 "optdone": 1, 
		 "sigma_profile": "yes", 
		 "theory": "DFT", 
		 "functional": "B3LYP", 
		 "basiset": "6-31G**", 
		 "properties": { 
			 "R2extent": 3113.9167, 
			 "electric_dipole_moment_norm": 3.97804740042, 
			 "electric_quadrupole_moment_norm": 14.4128272841, 
			 "total_energy": -598.483415023, 
			 "HOMO_LUMO_gap": 0.23483, 
			 "cosmo_polarized_energy": -9.15, 
			 "cosmo_cavitation_energy": 32.34, 
			 "cosmo_dispersion_energy": -22.45, 
			 "cosmo_repulsion_energy": 1.76, 
			 "cosmo_total_nonelectrostatic_energy": 11.65, 
			 "SMD_solvation_energy": 5.64 
		},
		"coords": [
			{
				"x": 2.5644982785,
				"y": 2.2743140538,
				"z": 0.5906124883,
				"element": "N" 
			},
			{
				"x": 1.6454331031,
				"y": 1.5731658091,
				"z": 0.7019582864,
				"element": "C" 
			},
			{
				"x": 0.4977579808,
				"y": 0.6585349825,
				"z": 0.8276551286,
				"element": "C" 
			},
			{
				"x": 0.9860163975,
				"y": -0.807580051,
				"z": 0.5055742161,
				"element": "C" 
			},
			{
				"x": -0.0410453992,
				"y": -1.9001564148,
				"z": 0.8909371918,
				"element": "C" 
			},
			{
				"x": -1.0688612084,
				"y": -2.2527587728,
				"z": -0.1983649656,
				"element": "C" 
			},
			{
				"x": -0.3818726908,
				"y": -2.5698880278,
				"z": -1.5334512131,
				"element": "C" 
			},
			{
				"x": 0.4924715372,
				"y": -1.3925947482,
				"z": -1.9853188508,
				"element": "C" 
			},
			{
				"x": 1.5428024386,
				"y": -1.0314043094,
				"z": -0.921022115,
				"element": "C" 
			},
			{
				"x": -0.7188202586,
				"y": 1.2188545518,
				"z": 0.0889744086,
				"element": "C" 
			},
			{
				"x": -1.9912730784,
				"y": 1.0836662833,
				"z": 0.6589856408,
				"element": "C" 
			},
			{
				"x": -3.122595424,
				"y": 1.5778173575,
				"z": 0.0079032927,
				"element": "C" 
			},
			{
				"x": -2.9944201324,
				"y": 2.2289560304,
				"z": -1.2198088663,
				"element": "C" 
			},
			{
				"x": -1.7280758942,
				"y": 2.3891559179,
				"z": -1.7851469051,
				"element": "C" 
			},
			{
				"x": -0.5984496681,
				"y": 1.8923884814,
				"z": -1.1336838448,
				"element": "C" 
			},
			{
				"x": 0.2424711017,
				"y": 0.6471146839,
				"z": 1.8957002417,
				"element": "H" 
			},
			{
				"x": 1.835146115,
				"y": -0.9265555344,
				"z": 1.1906892877,
				"element": "H" 
			},
			{
				"x": 0.5320386777,
				"y": -2.8090472295,
				"z": 1.1195258475,
				"element": "H" 
			},
			{
				"x": -0.5497823311,
				"y": -1.6255192107,
				"z": 1.8241219126,
				"element": "H" 
			},
			{
				"x": -1.7700551879,
				"y": -1.4239177407,
				"z": -0.3433153779,
				"element": "H" 
			},
			{
				"x": -1.6639537012,
				"y": -3.1104520913,
				"z": 0.1384257682,
				"element": "H" 
			},
			{
				"x": 0.2425256226,
				"y": -3.4684313283,
				"z": -1.4206160266,
				"element": "H" 
			},
			{
				"x": -1.130961643,
				"y": -2.8040695644,
				"z": -2.2989500363,
				"element": "H" 
			},
			{
				"x": -0.1493920931,
				"y": -0.5303635592,
				"z": -2.1964531457,
				"element": "H" 
			},
			{
				"x": 1.005840413,
				"y": -1.6364290223,
				"z": -2.923317244,
				"element": "H" 
			},
			{
				"x": 2.2569031395,
				"y": -1.8637139749,
				"z": -0.8566865261,
				"element": "H" 
			},
			{
				"x": 2.1298205032,
				"y": -0.1603527504,
				"z": -1.2344853602,
				"element": "H" 
			},
			{
				"x": -2.0987665507,
				"y": 0.5900097133,
				"z": 1.6215411189,
				"element": "H" 
			},
			{
				"x": -4.1007814414,
				"y": 1.462670778,
				"z": 0.4658433,
				"element": "H" 
			},
			{
				"x": -3.8723468794,
				"y": 2.6200862136,
				"z": -1.7254420943,
				"element": "H" 
			},
			{
				"x": -1.6156662196,
				"y": 2.9099854414,
				"z": -2.7316108762,
				"element": "H" 
			},
			{
				"x": 0.384394493,
				"y": 2.044114032,
				"z": -1.5699746818,
				"element": "H" 
			}
		],
		 "valence_orbital": [ 
			{
				"type": "occ",
				"energy": -0.30985,
				"method": "rhf"
			},
			{
				"type": "occ",
				"energy": -0.3031,
				"method": "rhf"
			},
			{
				"type": "occ",
				"energy": -0.30144,
				"method": "rhf"
			},
			{
				"type": "occ",
				"energy": -0.25967,
				"method": "rhf"
			},
			{
				"type": "occ",
				"energy": -0.25205,
				"method": "rhf"
			},
			{
				"type": "unocc",
				"energy": -0.01722,
				"method": "rhf"
			},
			{
				"type": "unocc",
				"energy": -0.01338,
				"method": "rhf"
			},
			{
				"type": "unocc",
				"energy": 0.03329,
				"method": "rhf"
			},
			{
				"type": "unocc",
				"energy": 0.04706,
				"method": "rhf"
			},
			{
				"type": "unocc",
				"energy": 0.06881,
				"method": "rhf"
			}
		],
		"cosmo_sigma_profile": { 
			"-0.025": 0.0,
			"-0.024": 0.0,
			"-0.023": 0.0,
			"-0.022": 0.0,
			"-0.021": 0.0,
			"-0.02": 0.0,
			"-0.019": 0.0,
			"-0.018": 0.0,
			"-0.017": 0.0,
			"-0.016": 0.0,
			"-0.015": 0.0,
			"-0.014": 0.0,
			"-0.013": 0.0,
			"-0.012": 0.0,
			"-0.011": 0.0,
			"-0.01": 0.0,
			"-0.009": 0.0,
			"-0.008": 1.9253997157,
			"-0.007": 4.58829568418,
			"-0.006": 9.97546250067,
			"-0.005": 14.0807074587,
			"-0.004": 16.6696274376,
			"-0.003": 19.3340387765,
			"-0.002": 28.732515761,
			"-0.001": 28.823849648,
			"0.0": 33.5207648996,
			"0.001": 31.0230443644,
			"0.002": 14.3459139131,
			"0.003": 9.30663473874,
			"0.004": 10.259606473,
			"0.005": 8.49532031981,
			"0.006": 3.17227953992,
			"0.007": 2.53921932298,
			"0.008": 2.3512153004,
			"0.009": 3.33317412503,
			"0.01": 3.05468991901,
			"0.011": 3.19038194602,
			"0.012": 2.50627472104,
			"0.013": 2.16860659656,
			"0.014": 0.49451622196,
			"0.015": 0.0,
			"0.016": 0.0,
			"0.017": 0.0,
			"0.018": 0.0,
			"0.019": 0.0,
			"0.02": 0.0,
			"0.021": 0.0,
			"0.022": 0.0,
			"0.023": 0.0,
			"0.024": 0.0,
			"0.025": 0.0
		}
	}
}
