{
	 "smiles": "CN1N=C(Br)C2=C1N=CN=C2NCCN", 
	 "Tm": 394.15, 
	 "num_atms": 26, 
	 "gaussian": { 
		 "optdone": 1, 
		 "sigma_profile": "yes", 
		 "theory": "DFT", 
		 "functional": "B3LYP", 
		 "basiset": "6-31G**", 
		 "properties": { 
			 "R2extent": 4624.3349, 
			 "electric_dipole_moment_norm": 1.73352977188, 
			 "electric_quadrupole_moment_norm": 13.8206792149, 
			 "total_energy": -3211.37646285, 
			 "HOMO_LUMO_gap": 0.18165, 
			 "cosmo_polarized_energy": -14.41, 
			 "cosmo_cavitation_energy": 31.51, 
			 "cosmo_dispersion_energy": -23.52, 
			 "cosmo_repulsion_energy": 1.84, 
			 "cosmo_total_nonelectrostatic_energy": 9.84, 
			 "SMD_solvation_energy": -0.82 
		},
		"coords": [
			{
				"x": -0.5093410404,
				"y": 1.1072926549,
				"z": 4.1505098593,
				"element": "C" 
			},
			{
				"x": -0.0645722127,
				"y": 0.8730404126,
				"z": 2.7904786704,
				"element": "N" 
			},
			{
				"x": 1.2384981919,
				"y": 0.5933010728,
				"z": 2.5239403124,
				"element": "N" 
			},
			{
				"x": 1.3160194969,
				"y": 0.4125889376,
				"z": 1.2227381147,
				"element": "C" 
			},
			{
				"x": 3.0101535329,
				"y": -0.0918575118,
				"z": 0.5444323356,
				"element": "Br" 
			},
			{
				"x": 0.0488723142,
				"y": 0.5743179013,
				"z": 0.5712201799,
				"element": "C" 
			},
			{
				"x": -0.821688701,
				"y": 0.8506435576,
				"z": 1.6629970888,
				"element": "C" 
			},
			{
				"x": -2.1516969492,
				"y": 1.017493865,
				"z": 1.6239685839,
				"element": "N" 
			},
			{
				"x": -2.6318098115,
				"y": 0.8667224315,
				"z": 0.3935742792,
				"element": "C" 
			},
			{
				"x": -1.9527671418,
				"y": 0.6384298306,
				"z": -0.736471528,
				"element": "N" 
			},
			{
				"x": -0.6085057129,
				"y": 0.5213086425,
				"z": -0.6967690045,
				"element": "C" 
			},
			{
				"x": -0.0462062936,
				"y": 0.3379081981,
				"z": -1.9228419912,
				"element": "N" 
			},
			{
				"x": 1.2977618162,
				"y": 0.6689534592,
				"z": -2.3864274349,
				"element": "C" 
			},
			{
				"x": 2.0278333005,
				"y": -0.5420675912,
				"z": -2.993958562,
				"element": "C" 
			},
			{
				"x": 1.3590057339,
				"y": -1.2027658764,
				"z": -4.1118116229,
				"element": "N" 
			},
			{
				"x": -0.2812451367,
				"y": 0.2395441659,
				"z": 4.7746544701,
				"element": "H" 
			},
			{
				"x": -0.0115667876,
				"y": 1.9885464227,
				"z": 4.5635149709,
				"element": "H" 
			},
			{
				"x": -1.5868295083,
				"y": 1.2697228997,
				"z": 4.1180292234,
				"element": "H" 
			},
			{
				"x": -3.7112086421,
				"y": 0.952704824,
				"z": 0.2817375569,
				"element": "H" 
			},
			{
				"x": -0.7696066932,
				"y": 0.3385955347,
				"z": -2.6311328635,
				"element": "H" 
			},
			{
				"x": 1.2101174022,
				"y": 1.4600802066,
				"z": -3.1455593927,
				"element": "H" 
			},
			{
				"x": 1.8739600091,
				"y": 1.0832729295,
				"z": -1.5592855373,
				"element": "H" 
			},
			{
				"x": 2.1909671031,
				"y": -1.2853824445,
				"z": -2.2072271615,
				"element": "H" 
			},
			{
				"x": 3.0189770247,
				"y": -0.2101346777,
				"z": -3.3274879685,
				"element": "H" 
			},
			{
				"x": 0.4629508529,
				"y": -1.5793436619,
				"z": -3.8133672196,
				"element": "H" 
			},
			{
				"x": 1.1755278526,
				"y": -0.5459161833,
				"z": -4.8670553589,
				"element": "H" 
			}
		],
		 "valence_orbital": [ 
			{
				"type": "occ",
				"energy": -0.27818,
				"method": "rhf"
			},
			{
				"type": "occ",
				"energy": -0.26398,
				"method": "rhf"
			},
			{
				"type": "occ",
				"energy": -0.25845,
				"method": "rhf"
			},
			{
				"type": "occ",
				"energy": -0.24052,
				"method": "rhf"
			},
			{
				"type": "occ",
				"energy": -0.22196,
				"method": "rhf"
			},
			{
				"type": "unocc",
				"energy": -0.04031,
				"method": "rhf"
			},
			{
				"type": "unocc",
				"energy": -0.00278,
				"method": "rhf"
			},
			{
				"type": "unocc",
				"energy": 0.00394,
				"method": "rhf"
			},
			{
				"type": "unocc",
				"energy": 0.0337,
				"method": "rhf"
			},
			{
				"type": "unocc",
				"energy": 0.06466,
				"method": "rhf"
			}
		],
		"cosmo_sigma_profile": { 
			"-0.025": 0.0,
			"-0.024": 0.0,
			"-0.023": 0.0,
			"-0.022": 0.0,
			"-0.021": 0.0,
			"-0.02": 0.0,
			"-0.019": 0.0,
			"-0.018": 0.0,
			"-0.017": 0.0,
			"-0.016": 0.0,
			"-0.015": 0.0,
			"-0.014": 0.0,
			"-0.013": 0.385901640134,
			"-0.012": 0.824797081726,
			"-0.011": 1.37930862073,
			"-0.01": 2.14473088061,
			"-0.009": 4.75777240819,
			"-0.008": 4.41670223096,
			"-0.007": 8.62243785874,
			"-0.006": 10.812828607,
			"-0.005": 14.8173387698,
			"-0.004": 17.7203350763,
			"-0.003": 23.4567989084,
			"-0.002": 20.3220055884,
			"-0.001": 24.9296334847,
			"0.0": 22.4852468127,
			"0.001": 14.0754538361,
			"0.002": 12.2513960893,
			"0.003": 15.7429500682,
			"0.004": 10.8548513418,
			"0.005": 6.56722569673,
			"0.006": 4.43407892114,
			"0.007": 4.55431168889,
			"0.008": 4.83744229589,
			"0.009": 4.04026799965,
			"0.01": 3.21410872998,
			"0.011": 3.92067777706,
			"0.012": 3.71176532799,
			"0.013": 3.45824508435,
			"0.014": 1.24857837048,
			"0.015": 0.7108279167,
			"0.016": 0.391478964251,
			"0.017": 0.503878637475,
			"0.018": 0.967271088211,
			"0.019": 0.459077266191,
			"0.02": 0.310427769228,
			"0.021": 0.0,
			"0.022": 0.0,
			"0.023": 0.0,
			"0.024": 0.0,
			"0.025": 0.0
		}
	}
}
