{
	 "smiles": "CC12CCC=C1C1CC[C@@H]3C[C@H](O)CCC3(C)C1CC2", 
	 "Tm": 403.15, 
	 "num_atms": 50, 
	 "gaussian": { 
		 "optdone": 1, 
		 "sigma_profile": "yes", 
		 "theory": "DFT", 
		 "functional": "B3LYP", 
		 "basiset": "6-31G**", 
		 "properties": { 
			 "R2extent": 6371.8744, 
			 "electric_dipole_moment_norm": 1.59956897007, 
			 "electric_quadrupole_moment_norm": 7.87908503762, 
			 "total_energy": -817.330362066, 
			 "HOMO_LUMO_gap": 0.25128, 
			 "cosmo_polarized_energy": -8.08, 
			 "cosmo_cavitation_energy": 41.82, 
			 "cosmo_dispersion_energy": -30.24, 
			 "cosmo_repulsion_energy": 2.26, 
			 "cosmo_total_nonelectrostatic_energy": 13.83, 
			 "SMD_solvation_energy": 5.54 
		},
		"coords": [
			{
				"x": -0.4984796522,
				"y": -2.6211222178,
				"z": -2.3803658088,
				"element": "C" 
			},
			{
				"x": -0.3033305178,
				"y": -2.8891526568,
				"z": -0.8678182388,
				"element": "C" 
			},
			{
				"x": -0.0165235105,
				"y": -4.405119495,
				"z": -0.6469263102,
				"element": "C" 
			},
			{
				"x": 1.5260459442,
				"y": -4.53968028,
				"z": -0.6384241831,
				"element": "C" 
			},
			{
				"x": 1.9643435776,
				"y": -3.1564702318,
				"z": -0.2171444881,
				"element": "C" 
			},
			{
				"x": 0.9846225437,
				"y": -2.2509350215,
				"z": -0.3290698623,
				"element": "C" 
			},
			{
				"x": 1.0527827943,
				"y": -0.7953510125,
				"z": 0.0710706835,
				"element": "C" 
			},
			{
				"x": 1.2569006188,
				"y": 0.166085754,
				"z": -1.1272384905,
				"element": "C" 
			},
			{
				"x": 1.258938317,
				"y": 1.6403072658,
				"z": -0.6991221396,
				"element": "C" 
			},
			{
				"x": 0.0106783428,
				"y": 2.0033865432,
				"z": 0.1229809245,
				"element": "C" 
			},
			{
				"x": -0.0239543147,
				"y": 3.5067489213,
				"z": 0.4594325991,
				"element": "C" 
			},
			{
				"x": -1.1603161002,
				"y": 3.9095250279,
				"z": 1.4258989581,
				"element": "C" 
			},
			{
				"x": -0.5391057734,
				"y": 4.2806371588,
				"z": 2.6653138487,
				"element": "O" 
			},
			{
				"x": -2.1504484048,
				"y": 2.7556027394,
				"z": 1.6265663363,
				"element": "C" 
			},
			{
				"x": -1.4533427639,
				"y": 1.4950263365,
				"z": 2.1646320618,
				"element": "C" 
			},
			{
				"x": -0.156144559,
				"y": 1.0874333472,
				"z": 1.373839402,
				"element": "C" 
			},
			{
				"x": 1.0288207079,
				"y": 1.2650760015,
				"z": 2.3579601553,
				"element": "C" 
			},
			{
				"x": -0.2105963917,
				"y": -0.4090489899,
				"z": 0.9044120336,
				"element": "C" 
			},
			{
				"x": -1.4840119451,
				"y": -0.8401634412,
				"z": 0.1376755052,
				"element": "C" 
			},
			{
				"x": -1.5192909606,
				"y": -2.3658207944,
				"z": -0.0706116501,
				"element": "C" 
			},
			{
				"x": -1.3579646328,
				"y": -3.1906149506,
				"z": -2.7534627272,
				"element": "H" 
			},
			{
				"x": -0.6839362817,
				"y": -1.5669431141,
				"z": -2.6018533099,
				"element": "H" 
			},
			{
				"x": 0.38427204,
				"y": -2.927576686,
				"z": -2.9510652297,
				"element": "H" 
			},
			{
				"x": -0.5010448883,
				"y": -5.0391621731,
				"z": -1.3969363006,
				"element": "H" 
			},
			{
				"x": -0.4036191272,
				"y": -4.705522864,
				"z": 0.3336631942,
				"element": "H" 
			},
			{
				"x": 1.8719445007,
				"y": -5.3239981685,
				"z": 0.0456945418,
				"element": "H" 
			},
			{
				"x": 1.924018781,
				"y": -4.8020329133,
				"z": -1.6303478392,
				"element": "H" 
			},
			{
				"x": 2.9714596341,
				"y": -2.9354932881,
				"z": 0.1288013769,
				"element": "H" 
			},
			{
				"x": 1.933090289,
				"y": -0.6866509863,
				"z": 0.7154690974,
				"element": "H" 
			},
			{
				"x": 2.1968093687,
				"y": -0.0888705615,
				"z": -1.6307134522,
				"element": "H" 
			},
			{
				"x": 0.4666247065,
				"y": 0.0183119841,
				"z": -1.870778647,
				"element": "H" 
			},
			{
				"x": 2.1642025209,
				"y": 1.8638554424,
				"z": -0.1205066275,
				"element": "H" 
			},
			{
				"x": 1.3059658719,
				"y": 2.2809744806,
				"z": -1.5895920498,
				"element": "H" 
			},
			{
				"x": -0.8545857069,
				"y": 1.8049469334,
				"z": -0.5263926828,
				"element": "H" 
			},
			{
				"x": -0.1166386324,
				"y": 4.0686987705,
				"z": -0.4774932993,
				"element": "H" 
			},
			{
				"x": 0.9201136381,
				"y": 3.8236817103,
				"z": 0.9153625369,
				"element": "H" 
			},
			{
				"x": -1.6988651668,
				"y": 4.7808256512,
				"z": 1.0212789083,
				"element": "H" 
			},
			{
				"x": -1.2402361723,
				"y": 4.4900442252,
				"z": 3.2970057683,
				"element": "H" 
			},
			{
				"x": -2.9466942712,
				"y": 3.0650269797,
				"z": 2.3182712231,
				"element": "H" 
			},
			{
				"x": -2.6484535311,
				"y": 2.5509049737,
				"z": 0.6702373884,
				"element": "H" 
			},
			{
				"x": -2.1758333667,
				"y": 0.6746107265,
				"z": 2.1939718424,
				"element": "H" 
			},
			{
				"x": -1.1792484478,
				"y": 1.684216714,
				"z": 3.2069352296,
				"element": "H" 
			},
			{
				"x": 1.0318038744,
				"y": 2.2773685239,
				"z": 2.7697228971,
				"element": "H" 
			},
			{
				"x": 0.9180495429,
				"y": 0.5673987838,
				"z": 3.1965299373,
				"element": "H" 
			},
			{
				"x": 2.006921638,
				"y": 1.0794951583,
				"z": 1.9086861522,
				"element": "H" 
			},
			{
				"x": -0.1864603358,
				"y": -1.0199381313,
				"z": 1.8202065924,
				"element": "H" 
			},
			{
				"x": -1.548219623,
				"y": -0.3304483229,
				"z": -0.8309124995,
				"element": "H" 
			},
			{
				"x": -2.3836904488,
				"y": -0.5469876868,
				"z": 0.687451026,
				"element": "H" 
			},
			{
				"x": -1.5287131123,
				"y": -2.8458104793,
				"z": 0.9173219605,
				"element": "H" 
			},
			{
				"x": -2.4531606138,
				"y": -2.6581756864,
				"z": -0.568816345,
				"element": "H" 
			}
		],
		 "valence_orbital": [ 
			{
				"type": "occ",
				"energy": -0.28086,
				"method": "rhf"
			},
			{
				"type": "occ",
				"energy": -0.27362,
				"method": "rhf"
			},
			{
				"type": "occ",
				"energy": -0.27236,
				"method": "rhf"
			},
			{
				"type": "occ",
				"energy": -0.2571,
				"method": "rhf"
			},
			{
				"type": "occ",
				"energy": -0.22028,
				"method": "rhf"
			},
			{
				"type": "unocc",
				"energy": 0.031,
				"method": "rhf"
			},
			{
				"type": "unocc",
				"energy": 0.06822,
				"method": "rhf"
			},
			{
				"type": "unocc",
				"energy": 0.08307,
				"method": "rhf"
			},
			{
				"type": "unocc",
				"energy": 0.09202,
				"method": "rhf"
			},
			{
				"type": "unocc",
				"energy": 0.09761,
				"method": "rhf"
			}
		],
		"cosmo_sigma_profile": { 
			"-0.025": 0.345638758075,
			"-0.024": 0.0911445539253,
			"-0.023": 0.00994590712257,
			"-0.022": 0.0328572968774,
			"-0.021": 0.0,
			"-0.02": 0.0,
			"-0.019": 0.0,
			"-0.018": 0.0,
			"-0.017": 0.018251971684,
			"-0.016": 0.118101384316,
			"-0.015": 0.238238552374,
			"-0.014": 0.962827070292,
			"-0.013": 1.75905705412,
			"-0.012": 0.774675335071,
			"-0.011": 1.21334581713,
			"-0.01": 0.957487883194,
			"-0.009": 1.19799794286,
			"-0.008": 0.990534807497,
			"-0.007": 1.28402421156,
			"-0.006": 1.07291984582,
			"-0.005": 1.52406556464,
			"-0.004": 2.42912135219,
			"-0.003": 11.6025011319,
			"-0.002": 41.1598046881,
			"-0.001": 57.4564555646,
			"0.0": 60.005499874,
			"0.001": 53.3597462955,
			"0.002": 43.756055829,
			"0.003": 8.55033988418,
			"0.004": 12.2766825123,
			"0.005": -1.91938853674,
			"0.006": 4.40093539651,
			"0.007": 3.25051484671,
			"0.008": 5.07741660388,
			"0.009": 12.3116586454,
			"0.01": -12.5882580065,
			"0.011": 1.15269710295,
			"0.012": 1.46429246435,
			"0.013": 14.7778398626,
			"0.014": 11.3560815536,
			"0.015": -23.1139187111,
			"0.016": 0.0,
			"0.017": 8.82917256911,
			"0.018": -8.66118431611,
			"0.019": 0.0,
			"0.02": 0.0,
			"0.021": 2.27111944829,
			"0.022": -2.22783624229,
			"0.023": 1.33653084158,
			"0.024": -1.31117902858,
			"0.025": 0.0
		}
	}
}
