{
	 "smiles": "FC(F)(F)CN1N=NN=C1S", 
	 "Tm": 396.15, 
	 "num_atms": 14, 
	 "gaussian": { 
		 "optdone": 1, 
		 "sigma_profile": "yes", 
		 "theory": "DFT", 
		 "functional": "B3LYP", 
		 "basiset": "6-31G**", 
		 "properties": { 
			 "R2extent": 2315.6758, 
			 "electric_dipole_moment_norm": 4.28521391998, 
			 "electric_quadrupole_moment_norm": 17.3630408261, 
			 "total_energy": -1032.77689548, 
			 "HOMO_LUMO_gap": 0.24015, 
			 "cosmo_polarized_energy": -13.91, 
			 "cosmo_cavitation_energy": 22.08, 
			 "cosmo_dispersion_energy": -16.15, 
			 "cosmo_repulsion_energy": 1.2, 
			 "cosmo_total_nonelectrostatic_energy": 7.13, 
			 "SMD_solvation_energy": 2.69 
		},
		"coords": [
			{
				"x": -0.2988800796,
				"y": 1.9873249187,
				"z": -0.6339365419,
				"element": "F" 
			},
			{
				"x": -0.638390215,
				"y": 0.7012130469,
				"z": -0.4274884578,
				"element": "C" 
			},
			{
				"x": -0.4193714574,
				"y": 0.4116922255,
				"z": 0.8726397113,
				"element": "F" 
			},
			{
				"x": -1.9484168339,
				"y": 0.5608908658,
				"z": -0.6683790818,
				"element": "F" 
			},
			{
				"x": 0.2036045269,
				"y": -0.1907702177,
				"z": -1.3338837168,
				"element": "C" 
			},
			{
				"x": -0.0955301701,
				"y": -1.5951327638,
				"z": -1.1663992687,
				"element": "N" 
			},
			{
				"x": -0.9416355812,
				"y": -2.2366544941,
				"z": -2.0259039851,
				"element": "N" 
			},
			{
				"x": -0.9721106705,
				"y": -3.4670048526,
				"z": -1.6532401586,
				"element": "N" 
			},
			{
				"x": -0.1871061351,
				"y": -3.6817872669,
				"z": -0.5604459723,
				"element": "N" 
			},
			{
				"x": 0.3503990762,
				"y": -2.5111839441,
				"z": -0.2702501392,
				"element": "C" 
			},
			{
				"x": 1.4701844686,
				"y": -2.1563242506,
				"z": 1.0376637157,
				"element": "S" 
			},
			{
				"x": -0.0024717887,
				"y": 0.0697090659,
				"z": -2.3727158611,
				"element": "H" 
			},
			{
				"x": 1.2590032956,
				"y": -0.0083949908,
				"z": -1.1157277762,
				"element": "H" 
			},
			{
				"x": 1.8464215643,
				"y": -3.442877342,
				"z": 1.1667675325,
				"element": "H" 
			}
		],
		 "valence_orbital": [ 
			{
				"type": "occ",
				"energy": -0.35301,
				"method": "rhf"
			},
			{
				"type": "occ",
				"energy": -0.32827,
				"method": "rhf"
			},
			{
				"type": "occ",
				"energy": -0.30983,
				"method": "rhf"
			},
			{
				"type": "occ",
				"energy": -0.29804,
				"method": "rhf"
			},
			{
				"type": "occ",
				"energy": -0.27258,
				"method": "rhf"
			},
			{
				"type": "unocc",
				"energy": -0.03243,
				"method": "rhf"
			},
			{
				"type": "unocc",
				"energy": -0.01633,
				"method": "rhf"
			},
			{
				"type": "unocc",
				"energy": 0.00901,
				"method": "rhf"
			},
			{
				"type": "unocc",
				"energy": 0.03864,
				"method": "rhf"
			},
			{
				"type": "unocc",
				"energy": 0.08204,
				"method": "rhf"
			}
		],
		"cosmo_sigma_profile": { 
			"-0.025": 0.0,
			"-0.024": 0.0,
			"-0.023": 0.0,
			"-0.022": 0.0,
			"-0.021": 0.0,
			"-0.02": 0.0,
			"-0.019": 0.0,
			"-0.018": 0.0,
			"-0.017": 0.0,
			"-0.016": 0.0,
			"-0.015": 0.0,
			"-0.014": 0.271830684661,
			"-0.013": 1.84547302713,
			"-0.012": 2.32776092625,
			"-0.011": 4.67848319411,
			"-0.01": 5.58849530425,
			"-0.009": 5.51614611211,
			"-0.008": 6.28102288593,
			"-0.007": 5.41741533079,
			"-0.006": 5.06514388167,
			"-0.005": 6.17014290798,
			"-0.004": 6.20621465977,
			"-0.003": 6.98843951963,
			"-0.002": 6.40541903336,
			"-0.001": 8.67300420834,
			"0.0": 9.61121381004,
			"0.001": 17.7140993496,
			"0.002": 33.5453213486,
			"0.003": 8.3744330137,
			"0.004": 4.94013242893,
			"0.005": 4.0243424342,
			"0.006": 3.79622606663,
			"0.007": 4.57746336957,
			"0.008": 4.63539905795,
			"0.009": 4.98762799823,
			"0.01": 4.2271073464,
			"0.011": 2.98331826406,
			"0.012": 2.53835373271,
			"0.013": 1.77319812672,
			"0.014": 0.755614775237,
			"0.015": 0.00441581943337,
			"0.016": 0.0,
			"0.017": 0.0,
			"0.018": 0.0,
			"0.019": 0.0,
			"0.02": 0.0,
			"0.021": 0.0,
			"0.022": 0.0,
			"0.023": 0.0,
			"0.024": 0.0,
			"0.025": 0.0
		}
	}
}
