{
	 "smiles": "OC1=CC=CC=C1N1CCCCC1", 
	 "Tm": 348.15, 
	 "num_atms": 28, 
	 "gaussian": { 
		 "optdone": 1, 
		 "sigma_profile": "yes", 
		 "theory": "DFT", 
		 "functional": "B3LYP", 
		 "basiset": "6-31G**", 
		 "properties": { 
			 "R2extent": 3124.8471, 
			 "electric_dipole_moment_norm": 2.53612150734, 
			 "electric_quadrupole_moment_norm": 7.40748115894, 
			 "total_energy": -558.186765758, 
			 "HOMO_LUMO_gap": 0.21051, 
			 "cosmo_polarized_energy": -6.06, 
			 "cosmo_cavitation_energy": 28.37, 
			 "cosmo_dispersion_energy": -20.99, 
			 "cosmo_repulsion_energy": 1.65, 
			 "cosmo_total_nonelectrostatic_energy": 9.04, 
			 "SMD_solvation_energy": 4.6 
		},
		"coords": [
			{
				"x": 2.2482179523,
				"y": -2.0872154539,
				"z": -2.5742979903,
				"element": "O" 
			},
			{
				"x": 0.8999310471,
				"y": -2.0323771092,
				"z": -2.4713873296,
				"element": "C" 
			},
			{
				"x": 0.0940429415,
				"y": -2.6908313425,
				"z": -3.4043711212,
				"element": "C" 
			},
			{
				"x": -1.2925640139,
				"y": -2.6228674461,
				"z": -3.2812770117,
				"element": "C" 
			},
			{
				"x": -1.8811667883,
				"y": -1.9050792878,
				"z": -2.237394069,
				"element": "C" 
			},
			{
				"x": -1.072750309,
				"y": -1.2474648824,
				"z": -1.3062933763,
				"element": "C" 
			},
			{
				"x": 0.3217440588,
				"y": -1.3005829385,
				"z": -1.4081176864,
				"element": "C" 
			},
			{
				"x": 1.2776810392,
				"y": -0.6759489067,
				"z": -0.5278472728,
				"element": "N" 
			},
			{
				"x": 1.3664680798,
				"y": -1.2081775598,
				"z": 0.8461069246,
				"element": "C" 
			},
			{
				"x": 0.3795412223,
				"y": -0.5692716052,
				"z": 1.8370277657,
				"element": "C" 
			},
			{
				"x": 0.4983940862,
				"y": 0.9631805598,
				"z": 1.8110852646,
				"element": "C" 
			},
			{
				"x": 0.3618409977,
				"y": 1.5027687076,
				"z": 0.3782125535,
				"element": "C" 
			},
			{
				"x": 1.3510824153,
				"y": 0.7980266983,
				"z": -0.5642695872,
				"element": "C" 
			},
			{
				"x": 2.5494485366,
				"y": -1.5527992926,
				"z": -1.8069128486,
				"element": "H" 
			},
			{
				"x": 0.5672462417,
				"y": -3.2440678913,
				"z": -4.2089621227,
				"element": "H" 
			},
			{
				"x": -1.917931654,
				"y": -3.1351730624,
				"z": -4.0072015805,
				"element": "H" 
			},
			{
				"x": -2.9618600791,
				"y": -1.8556508758,
				"z": -2.1464989232,
				"element": "H" 
			},
			{
				"x": -1.5330809481,
				"y": -0.6907249452,
				"z": -0.497390247,
				"element": "H" 
			},
			{
				"x": 2.3903451798,
				"y": -1.0217025353,
				"z": 1.2036262333,
				"element": "H" 
			},
			{
				"x": 1.2328965147,
				"y": -2.2926630175,
				"z": 0.7995403669,
				"element": "H" 
			},
			{
				"x": -0.6445613258,
				"y": -0.8711999581,
				"z": 1.585732222,
				"element": "H" 
			},
			{
				"x": 0.5806223838,
				"y": -0.9533088245,
				"z": 2.8448164167,
				"element": "H" 
			},
			{
				"x": 1.4812978625,
				"y": 1.2528664795,
				"z": 2.2104397671,
				"element": "H" 
			},
			{
				"x": -0.2508925173,
				"y": 1.4192467074,
				"z": 2.468185563,
				"element": "H" 
			},
			{
				"x": 0.54845287,
				"y": 2.5835966875,
				"z": 0.3551377542,
				"element": "H" 
			},
			{
				"x": -0.6628823015,
				"y": 1.3541494405,
				"z": 0.0163932438,
				"element": "H" 
			},
			{
				"x": 1.2077063063,
				"y": 1.1196996388,
				"z": -1.599685478,
				"element": "H" 
			},
			{
				"x": 2.3737302014,
				"y": 1.0822720155,
				"z": -0.2738974311,
				"element": "H" 
			}
		],
		 "valence_orbital": [ 
			{
				"type": "occ",
				"energy": -0.32108,
				"method": "rhf"
			},
			{
				"type": "occ",
				"energy": -0.3173,
				"method": "rhf"
			},
			{
				"type": "occ",
				"energy": -0.24366,
				"method": "rhf"
			},
			{
				"type": "occ",
				"energy": -0.22418,
				"method": "rhf"
			},
			{
				"type": "occ",
				"energy": -0.20895,
				"method": "rhf"
			},
			{
				"type": "unocc",
				"energy": 0.00156,
				"method": "rhf"
			},
			{
				"type": "unocc",
				"energy": 0.01995,
				"method": "rhf"
			},
			{
				"type": "unocc",
				"energy": 0.07811,
				"method": "rhf"
			},
			{
				"type": "unocc",
				"energy": 0.08557,
				"method": "rhf"
			},
			{
				"type": "unocc",
				"energy": 0.10699,
				"method": "rhf"
			}
		],
		"cosmo_sigma_profile": { 
			"-0.025": 0.0,
			"-0.024": 0.0,
			"-0.023": 0.0,
			"-0.022": 0.0,
			"-0.021": 0.0,
			"-0.02": 0.0,
			"-0.019": 0.0,
			"-0.018": 0.0,
			"-0.017": 0.0,
			"-0.016": 0.0,
			"-0.015": 0.0,
			"-0.014": 0.0,
			"-0.013": 0.0,
			"-0.012": 0.0,
			"-0.011": 0.0,
			"-0.01": 0.248311083147,
			"-0.009": 0.598952418081,
			"-0.008": 0.156882736853,
			"-0.007": 0.700998629031,
			"-0.006": 2.47911359831,
			"-0.005": 9.97029857854,
			"-0.004": 12.1838954831,
			"-0.003": 25.7592026225,
			"-0.002": 35.8919201429,
			"-0.001": 34.5551474562,
			"0.0": 28.121272373,
			"0.001": 16.514080047,
			"0.002": 6.45402966689,
			"0.003": 8.79243610124,
			"0.004": 8.16914083121,
			"0.005": 9.82083521975,
			"0.006": 9.33017679901,
			"0.007": 3.52930936968,
			"0.008": 1.18604947822,
			"0.009": 1.63412382639,
			"0.01": 1.66868356192,
			"0.011": 1.60418870449,
			"0.012": 2.31797473872,
			"0.013": 0.443250737858,
			"0.014": 0.0,
			"0.015": 0.0,
			"0.016": 0.0,
			"0.017": 0.0,
			"0.018": 0.0,
			"0.019": 0.0,
			"0.02": 0.0,
			"0.021": 0.0,
			"0.022": 0.0,
			"0.023": 0.0,
			"0.024": 0.0,
			"0.025": 0.0
		}
	}
}
