{
	 "smiles": "CC1=CC2=NC=NN2C(O)=C1", 
	 "Tm": 528.15, 
	 "num_atms": 18, 
	 "gaussian": { 
		 "optdone": 1, 
		 "sigma_profile": "yes", 
		 "theory": "DFT", 
		 "functional": "B3LYP", 
		 "basiset": "6-31G**", 
		 "properties": { 
			 "R2extent": 3575.0167, 
			 "electric_dipole_moment_norm": 4.95843981208, 
			 "electric_quadrupole_moment_norm": 15.4895858263, 
			 "total_energy": -510.423313863, 
			 "HOMO_LUMO_gap": 0.19496, 
			 "cosmo_polarized_energy": -16.8, 
			 "cosmo_cavitation_energy": 22.28, 
			 "cosmo_dispersion_energy": -16.86, 
			 "cosmo_repulsion_energy": 1.33, 
			 "cosmo_total_nonelectrostatic_energy": 6.76, 
			 "SMD_solvation_energy": 1.96 
		},
		"coords": [
			{
				"x": 0.6242649757,
				"y": 0.4902984128,
				"z": 0.4650039658,
				"element": "C" 
			},
			{
				"x": -0.1395015583,
				"y": 0.3862519924,
				"z": -0.8315902203,
				"element": "C" 
			},
			{
				"x": -0.6559646101,
				"y": 1.503447407,
				"z": -1.4540781529,
				"element": "C" 
			},
			{
				"x": -1.3634062674,
				"y": 1.3516766688,
				"z": -2.6667951659,
				"element": "C" 
			},
			{
				"x": -1.9630717583,
				"y": 2.2255574918,
				"z": -3.480306038,
				"element": "N" 
			},
			{
				"x": -2.4519306918,
				"y": 1.4359134488,
				"z": -4.4648650428,
				"element": "C" 
			},
			{
				"x": -2.2246849595,
				"y": 0.1274171862,
				"z": -4.3659740468,
				"element": "N" 
			},
			{
				"x": -1.5185790907,
				"y": 0.0717834313,
				"z": -3.1996440351,
				"element": "N" 
			},
			{
				"x": -1.015811722,
				"y": -1.0479361552,
				"z": -2.6005762589,
				"element": "C" 
			},
			{
				"x": -1.2623336122,
				"y": -2.1945364467,
				"z": -3.2573307497,
				"element": "O" 
			},
			{
				"x": -0.3268501272,
				"y": -0.8995865602,
				"z": -1.4194138659,
				"element": "C" 
			},
			{
				"x": 1.6426465432,
				"y": 0.0995996616,
				"z": 0.3555073072,
				"element": "H" 
			},
			{
				"x": 0.6943278486,
				"y": 1.5266195239,
				"z": 0.8031551738,
				"element": "H" 
			},
			{
				"x": 0.1392163676,
				"y": -0.0927495774,
				"z": 1.2565378533,
				"element": "H" 
			},
			{
				"x": -0.5378747265,
				"y": 2.4990884696,
				"z": -1.043932743,
				"element": "H" 
			},
			{
				"x": -3.0068728422,
				"y": 1.8296551069,
				"z": -5.3065873274,
				"element": "H" 
			},
			{
				"x": -0.8714560397,
				"y": -2.9264945494,
				"z": -2.7618397211,
				"element": "H" 
			},
			{
				"x": 0.0769822709,
				"y": -1.7835055122,
				"z": -0.9348709323,
				"element": "H" 
			}
		],
		 "valence_orbital": [ 
			{
				"type": "occ",
				"energy": -0.3166,
				"method": "rhf"
			},
			{
				"type": "occ",
				"energy": -0.31278,
				"method": "rhf"
			},
			{
				"type": "occ",
				"energy": -0.26983,
				"method": "rhf"
			},
			{
				"type": "occ",
				"energy": -0.25629,
				"method": "rhf"
			},
			{
				"type": "occ",
				"energy": -0.21773,
				"method": "rhf"
			},
			{
				"type": "unocc",
				"energy": -0.02277,
				"method": "rhf"
			},
			{
				"type": "unocc",
				"energy": -0.00723,
				"method": "rhf"
			},
			{
				"type": "unocc",
				"energy": 0.04661,
				"method": "rhf"
			},
			{
				"type": "unocc",
				"energy": 0.06387,
				"method": "rhf"
			},
			{
				"type": "unocc",
				"energy": 0.08918,
				"method": "rhf"
			}
		],
		"cosmo_sigma_profile": { 
			"-0.025": 0.0,
			"-0.024": 0.0,
			"-0.023": 0.0,
			"-0.022": 0.0,
			"-0.021": 0.0,
			"-0.02": 0.587433260065,
			"-0.019": 1.34312265174,
			"-0.018": 1.49796177759,
			"-0.017": 0.689522950328,
			"-0.016": 1.04429742204,
			"-0.015": 1.01000579367,
			"-0.014": 1.07125756806,
			"-0.013": 0.900493657634,
			"-0.012": 1.02615092345,
			"-0.011": 0.76945764452,
			"-0.01": 0.688756503844,
			"-0.009": 1.8255023577,
			"-0.008": 3.95492202191,
			"-0.007": 3.89290752016,
			"-0.006": 6.77315421548,
			"-0.005": 9.53133072595,
			"-0.004": 11.5341354639,
			"-0.003": 11.1325209074,
			"-0.002": 14.0367584926,
			"-0.001": 16.4787975445,
			"0.0": 13.7111858889,
			"0.001": 11.5697125144,
			"0.002": 12.293761364,
			"0.003": 9.96880663738,
			"0.004": 4.76462120443,
			"0.005": 3.95501018731,
			"0.006": 3.14292038905,
			"0.007": 3.21591604616,
			"0.008": 4.11111382624,
			"0.009": 2.95758466457,
			"0.01": 3.43034927244,
			"0.011": 2.92101230819,
			"0.012": 2.78249756016,
			"0.013": 2.61588615708,
			"0.014": 2.77825805988,
			"0.015": 2.53557095696,
			"0.016": 1.21749210946,
			"0.017": 0.655133948791,
			"0.018": 0.0,
			"0.019": 0.0,
			"0.02": 0.0,
			"0.021": 0.0,
			"0.022": 0.0,
			"0.023": 0.0,
			"0.024": 0.0,
			"0.025": 0.0
		}
	}
}
