{
	 "smiles": "CSC1=NC2=C(C=CC=C2)C(=O)N1C", 
	 "Tm": 339.15, 
	 "num_atms": 24, 
	 "gaussian": { 
		 "optdone": 1, 
		 "sigma_profile": "yes", 
		 "theory": "DFT", 
		 "functional": "B3LYP", 
		 "basiset": "6-31G**", 
		 "properties": { 
			 "R2extent": 3991.8232, 
			 "electric_dipole_moment_norm": 2.56471008303, 
			 "electric_quadrupole_moment_norm": 9.25192569847, 
			 "total_energy": -970.036871579, 
			 "HOMO_LUMO_gap": 0.17924, 
			 "cosmo_polarized_energy": -9.2, 
			 "cosmo_cavitation_energy": 28.87, 
			 "cosmo_dispersion_energy": -21.92, 
			 "cosmo_repulsion_energy": 1.65, 
			 "cosmo_total_nonelectrostatic_energy": 8.6, 
			 "SMD_solvation_energy": 4.77 
		},
		"coords": [
			{
				"x": 0.5799596261,
				"y": -4.4747394763,
				"z": 2.3239843989,
				"element": "C" 
			},
			{
				"x": 1.3436414864,
				"y": -3.9158220462,
				"z": 0.766742883,
				"element": "S" 
			},
			{
				"x": 0.4346176975,
				"y": -2.4021547854,
				"z": 0.505516235,
				"element": "C" 
			},
			{
				"x": -0.4683731823,
				"y": -2.0470658789,
				"z": 1.3605419571,
				"element": "N" 
			},
			{
				"x": -1.154961366,
				"y": -0.8680597364,
				"z": 1.1284205814,
				"element": "C" 
			},
			{
				"x": -0.8938389766,
				"y": -0.0619215643,
				"z": -0.0008441753,
				"element": "C" 
			},
			{
				"x": -1.6089267826,
				"y": 1.1295248378,
				"z": -0.2071480652,
				"element": "C" 
			},
			{
				"x": -2.5788478858,
				"y": 1.5198969253,
				"z": 0.7025309123,
				"element": "C" 
			},
			{
				"x": -2.8432588962,
				"y": 0.719983752,
				"z": 1.830103456,
				"element": "C" 
			},
			{
				"x": -2.1444403266,
				"y": -0.4575360201,
				"z": 2.0445141969,
				"element": "C" 
			},
			{
				"x": 0.1306818952,
				"y": -0.4746875486,
				"z": -0.9612722544,
				"element": "C" 
			},
			{
				"x": 0.4373816706,
				"y": 0.1462261238,
				"z": -1.9715823819,
				"element": "O" 
			},
			{
				"x": 0.7771618193,
				"y": -1.6960315115,
				"z": -0.634893105,
				"element": "N" 
			},
			{
				"x": 1.8166542655,
				"y": -2.173847545,
				"z": -1.5522742876,
				"element": "C" 
			},
			{
				"x": 0.7404075313,
				"y": -3.7383543949,
				"z": 3.1108089073,
				"element": "H" 
			},
			{
				"x": 1.0797194936,
				"y": -5.4137955487,
				"z": 2.5712063383,
				"element": "H" 
			},
			{
				"x": -0.4886944497,
				"y": -4.6359698112,
				"z": 2.1858615508,
				"element": "H" 
			},
			{
				"x": -1.378230247,
				"y": 1.7205332161,
				"z": -1.0871756008,
				"element": "H" 
			},
			{
				"x": -3.134322594,
				"y": 2.4396970293,
				"z": 0.5478121763,
				"element": "H" 
			},
			{
				"x": -3.6043272962,
				"y": 1.0290548648,
				"z": 2.5412228761,
				"element": "H" 
			},
			{
				"x": -2.3361475905,
				"y": -1.0853324598,
				"z": 2.9084821917,
				"element": "H" 
			},
			{
				"x": 1.5460098696,
				"y": -3.1504102809,
				"z": -1.9629829163,
				"element": "H" 
			},
			{
				"x": 1.886713117,
				"y": -1.4423490952,
				"z": -2.3549875479,
				"element": "H" 
			},
			{
				"x": 2.7774211215,
				"y": -2.2511390458,
				"z": -1.0359883267,
				"element": "H" 
			}
		],
		 "valence_orbital": [ 
			{
				"type": "occ",
				"energy": -0.27598,
				"method": "rhf"
			},
			{
				"type": "occ",
				"energy": -0.26493,
				"method": "rhf"
			},
			{
				"type": "occ",
				"energy": -0.26291,
				"method": "rhf"
			},
			{
				"type": "occ",
				"energy": -0.25836,
				"method": "rhf"
			},
			{
				"type": "occ",
				"energy": -0.2195,
				"method": "rhf"
			},
			{
				"type": "unocc",
				"energy": -0.04026,
				"method": "rhf"
			},
			{
				"type": "unocc",
				"energy": -0.0311,
				"method": "rhf"
			},
			{
				"type": "unocc",
				"energy": 0.02182,
				"method": "rhf"
			},
			{
				"type": "unocc",
				"energy": 0.03016,
				"method": "rhf"
			},
			{
				"type": "unocc",
				"energy": 0.06796,
				"method": "rhf"
			}
		],
		"cosmo_sigma_profile": { 
			"-0.025": 0.0,
			"-0.024": 0.0,
			"-0.023": 0.0,
			"-0.022": 0.0,
			"-0.021": 0.0,
			"-0.02": 0.0,
			"-0.019": 0.0,
			"-0.018": 0.0,
			"-0.017": 0.0,
			"-0.016": 0.0,
			"-0.015": 0.0,
			"-0.014": 0.0,
			"-0.013": 0.0,
			"-0.012": 0.0,
			"-0.011": 0.0,
			"-0.01": 0.0,
			"-0.009": 0.0,
			"-0.008": 0.414692895251,
			"-0.007": 3.93766340707,
			"-0.006": 13.795703119,
			"-0.005": 18.3632076356,
			"-0.004": 22.2924749347,
			"-0.003": 25.3413799992,
			"-0.002": 20.833064113,
			"-0.001": 15.8406395953,
			"0.0": 12.7943226504,
			"0.001": 15.2899007747,
			"0.002": 17.1361843512,
			"0.003": 20.5959764307,
			"0.004": 14.652312992,
			"0.005": 5.55209444271,
			"0.006": 5.53066806136,
			"0.007": 4.3576719105,
			"0.008": 2.91398476187,
			"0.009": 2.94624429314,
			"0.01": 1.74371239091,
			"0.011": 2.19253719024,
			"0.012": 4.00497824622,
			"0.013": 2.23507612979,
			"0.014": 0.0,
			"0.015": 0.0,
			"0.016": 0.0,
			"0.017": 0.0,
			"0.018": 0.0,
			"0.019": 0.0,
			"0.02": 0.0,
			"0.021": 0.0,
			"0.022": 0.0,
			"0.023": 0.0,
			"0.024": 0.0,
			"0.025": 0.0
		}
	}
}
