{
	 "smiles": "BrC1=CC(Br)=C(N=C=S)C(Br)=C1", 
	 "Tm": 381.15, 
	 "num_atms": 14, 
	 "gaussian": { 
		 "optdone": 1, 
		 "sigma_profile": "yes", 
		 "theory": "DFT", 
		 "functional": "B3LYP", 
		 "basiset": "6-31G**", 
		 "properties": { 
			 "R2extent": 6865.7015, 
			 "electric_dipole_moment_norm": 2.50890960578, 
			 "electric_quadrupole_moment_norm": 7.52772223916, 
			 "total_energy": -8435.08485002, 
			 "HOMO_LUMO_gap": 0.16858, 
			 "cosmo_polarized_energy": -4.74, 
			 "cosmo_cavitation_energy": 29.23, 
			 "cosmo_dispersion_energy": -22.29, 
			 "cosmo_repulsion_energy": 1.76, 
			 "cosmo_total_nonelectrostatic_energy": 8.7, 
			 "SMD_solvation_energy": 2.15 
		},
		"coords": [
			{
				"x": -3.0997059911,
				"y": 1.0592472029,
				"z": 2.4535766251,
				"element": "Br" 
			},
			{
				"x": -1.633305311,
				"y": 0.3005195949,
				"z": 1.5095881077,
				"element": "C" 
			},
			{
				"x": -1.5350536204,
				"y": 0.490130384,
				"z": 0.1325721657,
				"element": "C" 
			},
			{
				"x": -0.4613106581,
				"y": -0.0670554589,
				"z": -0.5530597276,
				"element": "C" 
			},
			{
				"x": -0.3328015193,
				"y": 0.1941302922,
				"z": -2.4269492061,
				"element": "Br" 
			},
			{
				"x": 0.5297583052,
				"y": -0.8195960843,
				"z": 0.1169112583,
				"element": "C" 
			},
			{
				"x": 1.5749205762,
				"y": -1.3615587094,
				"z": -0.5563331115,
				"element": "N" 
			},
			{
				"x": 2.4915457991,
				"y": -1.8370144449,
				"z": -1.1468379295,
				"element": "C" 
			},
			{
				"x": 3.7125577285,
				"y": -2.4712481549,
				"z": -1.9355956517,
				"element": "S" 
			},
			{
				"x": 0.392495677,
				"y": -0.9876404269,
				"z": 1.5133230543,
				"element": "C" 
			},
			{
				"x": 1.6901982442,
				"y": -1.9871925994,
				"z": 2.468964352,
				"element": "Br" 
			},
			{
				"x": -0.6775702391,
				"y": -0.4346485587,
				"z": 2.2080414847,
				"element": "C" 
			},
			{
				"x": -2.2813634985,
				"y": 1.0626279213,
				"z": -0.4023286508,
				"element": "H" 
			},
			{
				"x": -0.7610654928,
				"y": -0.5770009578,
				"z": 3.2774272292,
				"element": "H" 
			}
		],
		 "valence_orbital": [ 
			{
				"type": "occ",
				"energy": -0.30563,
				"method": "rhf"
			},
			{
				"type": "occ",
				"energy": -0.29319,
				"method": "rhf"
			},
			{
				"type": "occ",
				"energy": -0.26979,
				"method": "rhf"
			},
			{
				"type": "occ",
				"energy": -0.26493,
				"method": "rhf"
			},
			{
				"type": "occ",
				"energy": -0.24123,
				"method": "rhf"
			},
			{
				"type": "unocc",
				"energy": -0.07265,
				"method": "rhf"
			},
			{
				"type": "unocc",
				"energy": -0.05089,
				"method": "rhf"
			},
			{
				"type": "unocc",
				"energy": -0.04904,
				"method": "rhf"
			},
			{
				"type": "unocc",
				"energy": -0.01147,
				"method": "rhf"
			},
			{
				"type": "unocc",
				"energy": 0.00581,
				"method": "rhf"
			}
		],
		"cosmo_sigma_profile": { 
			"-0.025": 0.0,
			"-0.024": 0.0,
			"-0.023": 0.0,
			"-0.022": 0.0,
			"-0.021": 0.0,
			"-0.02": 0.0,
			"-0.019": 0.0,
			"-0.018": 0.0,
			"-0.017": 0.0,
			"-0.016": 0.0,
			"-0.015": 0.0,
			"-0.014": 0.0,
			"-0.013": 0.0,
			"-0.012": 0.0,
			"-0.011": 0.0,
			"-0.01": 0.0951908828226,
			"-0.009": 2.1106678112,
			"-0.008": 3.30912905942,
			"-0.007": 2.59884166706,
			"-0.006": 5.53737647784,
			"-0.005": 8.19300721411,
			"-0.004": 8.9099877556,
			"-0.003": 17.1529476348,
			"-0.002": 24.3858521185,
			"-0.001": 33.1698532138,
			"0.0": 29.7342094303,
			"0.001": 27.253061739,
			"0.002": 27.4279993998,
			"0.003": 32.9047374094,
			"0.004": 14.6646154157,
			"0.005": 12.58861243,
			"0.006": 0.389153502648,
			"0.007": 0.0,
			"0.008": 0.0,
			"0.009": 0.0,
			"0.01": 0.0,
			"0.011": 0.0,
			"0.012": 0.0,
			"0.013": 0.0,
			"0.014": 0.0,
			"0.015": 0.0,
			"0.016": 0.0,
			"0.017": 0.0,
			"0.018": 0.0,
			"0.019": 0.0,
			"0.02": 0.0,
			"0.021": 0.0,
			"0.022": 0.0,
			"0.023": 0.0,
			"0.024": 0.0,
			"0.025": 0.0
		}
	}
}
