{
	 "smiles": "CCOC1=CC(C=O)=CC=C1O", 
	 "Tm": 350.35, 
	 "num_atms": 22, 
	 "gaussian": { 
		 "optdone": 1, 
		 "sigma_profile": "yes", 
		 "theory": "DFT", 
		 "functional": "B3LYP", 
		 "basiset": "6-31G**", 
		 "properties": { 
			 "R2extent": 2791.0506, 
			 "electric_dipole_moment_norm": 4.74651306329, 
			 "electric_quadrupole_moment_norm": 14.5376734886, 
			 "total_energy": -574.632374502, 
			 "HOMO_LUMO_gap": 0.16593, 
			 "cosmo_polarized_energy": -12.9, 
			 "cosmo_cavitation_energy": 26.35, 
			 "cosmo_dispersion_energy": -19.36, 
			 "cosmo_repulsion_energy": 1.56, 
			 "cosmo_total_nonelectrostatic_energy": 8.54, 
			 "SMD_solvation_energy": 6.32 
		},
		"coords": [
			{
				"x": 3.5786324433,
				"y": 0.4217389577,
				"z": -2.4399096514,
				"element": "C" 
			},
			{
				"x": 2.1237446514,
				"y": 0.549002358,
				"z": -2.0237091211,
				"element": "C" 
			},
			{
				"x": 1.9618926724,
				"y": -0.2747445109,
				"z": -0.8567805535,
				"element": "O" 
			},
			{
				"x": 0.7809304147,
				"y": -0.4158717106,
				"z": -0.1926153475,
				"element": "C" 
			},
			{
				"x": 0.8331847255,
				"y": -1.2630857489,
				"z": 0.9180723657,
				"element": "C" 
			},
			{
				"x": -0.28812597,
				"y": -1.5198816817,
				"z": 1.7126228006,
				"element": "C" 
			},
			{
				"x": -0.1744274156,
				"y": -2.4232281074,
				"z": 2.8734746486,
				"element": "C" 
			},
			{
				"x": -1.0907151878,
				"y": -2.7085725742,
				"z": 3.6234437404,
				"element": "O" 
			},
			{
				"x": -1.5121151167,
				"y": -0.9142651681,
				"z": 1.3965201446,
				"element": "C" 
			},
			{
				"x": -1.582049899,
				"y": -0.0714584873,
				"z": 0.2989076337,
				"element": "C" 
			},
			{
				"x": -0.4592124591,
				"y": 0.1897577077,
				"z": -0.5022001671,
				"element": "C" 
			},
			{
				"x": -0.5508316366,
				"y": 1.0257431372,
				"z": -1.582091577,
				"element": "O" 
			},
			{
				"x": 3.766795042,
				"y": 1.0304664664,
				"z": -3.3299181488,
				"element": "H" 
			},
			{
				"x": 4.2420637176,
				"y": 0.7626354106,
				"z": -1.6399185948,
				"element": "H" 
			},
			{
				"x": 3.8259677819,
				"y": -0.6180631746,
				"z": -2.6722393831,
				"element": "H" 
			},
			{
				"x": 1.4536177187,
				"y": 0.2092768597,
				"z": -2.8196327495,
				"element": "H" 
			},
			{
				"x": 1.868858539,
				"y": 1.5872999964,
				"z": -1.789316166,
				"element": "H" 
			},
			{
				"x": 1.7903355271,
				"y": -1.7235052293,
				"z": 1.1476548318,
				"element": "H" 
			},
			{
				"x": 0.8430484688,
				"y": -2.847444206,
				"z": 3.030239447,
				"element": "H" 
			},
			{
				"x": -2.3792649449,
				"y": -1.1162615849,
				"z": 2.0155373382,
				"element": "H" 
			},
			{
				"x": -2.5238204351,
				"y": 0.4084682267,
				"z": 0.0370821115,
				"element": "H" 
			},
			{
				"x": -1.4592086376,
				"y": 1.3478930636,
				"z": -1.646923602,
				"element": "H" 
			}
		],
		 "valence_orbital": [ 
			{
				"type": "occ",
				"energy": -0.32565,
				"method": "rhf"
			},
			{
				"type": "occ",
				"energy": -0.31544,
				"method": "rhf"
			},
			{
				"type": "occ",
				"energy": -0.25028,
				"method": "rhf"
			},
			{
				"type": "occ",
				"energy": -0.24638,
				"method": "rhf"
			},
			{
				"type": "occ",
				"energy": -0.21584,
				"method": "rhf"
			},
			{
				"type": "unocc",
				"energy": -0.04991,
				"method": "rhf"
			},
			{
				"type": "unocc",
				"energy": -0.006,
				"method": "rhf"
			},
			{
				"type": "unocc",
				"energy": 0.05227,
				"method": "rhf"
			},
			{
				"type": "unocc",
				"energy": 0.05593,
				"method": "rhf"
			},
			{
				"type": "unocc",
				"energy": 0.08869,
				"method": "rhf"
			}
		],
		"cosmo_sigma_profile": { 
			"-0.025": 0.0,
			"-0.024": 0.0,
			"-0.023": 0.0,
			"-0.022": 0.0,
			"-0.021": 0.0,
			"-0.02": 0.0,
			"-0.019": 0.187231059044,
			"-0.018": 0.951146682074,
			"-0.017": 1.0987568688,
			"-0.016": 1.16893500869,
			"-0.015": 1.08983030841,
			"-0.014": 0.912601295443,
			"-0.013": 1.37026242318,
			"-0.012": 0.752457838639,
			"-0.011": 1.01799044864,
			"-0.01": 0.942728426099,
			"-0.009": 1.25670500999,
			"-0.008": 1.34985770367,
			"-0.007": 4.16609697857,
			"-0.006": 7.42209224083,
			"-0.005": 8.34928758917,
			"-0.004": 14.1065300601,
			"-0.003": 18.6711428271,
			"-0.002": 16.9659451577,
			"-0.001": 15.31176778,
			"0.0": 16.9390161356,
			"0.001": 15.8477540564,
			"0.002": 16.3178869992,
			"0.003": 16.4117760091,
			"0.004": 10.8291672516,
			"0.005": 7.15163343913,
			"0.006": 5.94951023648,
			"0.007": 3.09002974992,
			"0.008": 3.61372455634,
			"0.009": 3.48934263778,
			"0.01": 2.58233008149,
			"0.011": 3.33597794969,
			"0.012": 4.53509123769,
			"0.013": 1.52825636045,
			"0.014": 0.19771740103,
			"0.015": 0.0,
			"0.016": 0.0,
			"0.017": 0.0,
			"0.018": 0.0,
			"0.019": 0.0,
			"0.02": 0.0,
			"0.021": 0.0,
			"0.022": 0.0,
			"0.023": 0.0,
			"0.024": 0.0,
			"0.025": 0.0
		}
	}
}
