{
	 "smiles": "CCOC1=C(OC)C(Cl)=CC(C=O)=C1", 
	 "Tm": 329.15, 
	 "num_atms": 25, 
	 "gaussian": { 
		 "optdone": 1, 
		 "sigma_profile": "yes", 
		 "theory": "DFT", 
		 "functional": "B3LYP", 
		 "basiset": "6-31G**", 
		 "properties": { 
			 "R2extent": 4116.9043, 
			 "electric_dipole_moment_norm": 4.57234627516, 
			 "electric_quadrupole_moment_norm": 13.4996084788, 
			 "total_energy": -1073.52240009, 
			 "HOMO_LUMO_gap": 0.18279, 
			 "cosmo_polarized_energy": -9.71, 
			 "cosmo_cavitation_energy": 31.21, 
			 "cosmo_dispersion_energy": -21.81, 
			 "cosmo_repulsion_energy": 1.74, 
			 "cosmo_total_nonelectrostatic_energy": 11.15, 
			 "SMD_solvation_energy": 7.27 
		},
		"coords": [
			{
				"x": 2.5537202275,
				"y": 3.1546143498,
				"z": -0.4334055328,
				"element": "C" 
			},
			{
				"x": 1.5721161544,
				"y": 2.0003648564,
				"z": -0.5063330099,
				"element": "C" 
			},
			{
				"x": 2.1971030048,
				"y": 0.8539036654,
				"z": 0.1150773239,
				"element": "O" 
			},
			{
				"x": 1.4466806055,
				"y": -0.2950527933,
				"z": 0.1186234522,
				"element": "C" 
			},
			{
				"x": 0.3328925653,
				"y": -0.4214569137,
				"z": 0.9768441754,
				"element": "C" 
			},
			{
				"x": -0.0642700405,
				"y": 0.6118833504,
				"z": 1.7714982157,
				"element": "O" 
			},
			{
				"x": 0.7945456089,
				"y": 0.896000546,
				"z": 2.8897760077,
				"element": "C" 
			},
			{
				"x": -0.3997080647,
				"y": -1.6238305835,
				"z": 0.9640274044,
				"element": "C" 
			},
			{
				"x": -1.7854274549,
				"y": -1.7834092473,
				"z": 2.0218924495,
				"element": "Cl" 
			},
			{
				"x": -0.0368851862,
				"y": -2.679932561,
				"z": 0.1389102385,
				"element": "C" 
			},
			{
				"x": 1.0854269055,
				"y": -2.5494946703,
				"z": -0.6892995361,
				"element": "C" 
			},
			{
				"x": 1.4900664567,
				"y": -3.6734120668,
				"z": -1.5640833516,
				"element": "C" 
			},
			{
				"x": 0.9089826889,
				"y": -4.7393013473,
				"z": -1.6314186167,
				"element": "O" 
			},
			{
				"x": 1.819295785,
				"y": -1.3579332678,
				"z": -0.7000393657,
				"element": "C" 
			},
			{
				"x": 2.1251969799,
				"y": 4.0401018939,
				"z": -0.9129883788,
				"element": "H" 
			},
			{
				"x": 2.7849013846,
				"y": 3.4041166061,
				"z": 0.606235566,
				"element": "H" 
			},
			{
				"x": 3.4880898191,
				"y": 2.9019490299,
				"z": -0.942584119,
				"element": "H" 
			},
			{
				"x": 0.6373198176,
				"y": 2.234998021,
				"z": 0.0140864387,
				"element": "H" 
			},
			{
				"x": 1.3336275579,
				"y": 1.7504612248,
				"z": -1.5489336882,
				"element": "H" 
			},
			{
				"x": 1.8060506213,
				"y": 1.1416800907,
				"z": 2.5548264116,
				"element": "H" 
			},
			{
				"x": 0.3500209801,
				"y": 1.7533223625,
				"z": 3.3972395175,
				"element": "H" 
			},
			{
				"x": 0.8236665416,
				"y": 0.0423365772,
				"z": 3.5758148812,
				"element": "H" 
			},
			{
				"x": -0.5980732738,
				"y": -3.6073226066,
				"z": 0.1321473754,
				"element": "H" 
			},
			{
				"x": 2.3950669783,
				"y": -3.4743357667,
				"z": -2.1800080184,
				"element": "H" 
			},
			{
				"x": 2.6871933373,
				"y": -1.2409507495,
				"z": -1.3430058404,
				"element": "H" 
			}
		],
		 "valence_orbital": [ 
			{
				"type": "occ",
				"energy": -0.30781,
				"method": "rhf"
			},
			{
				"type": "occ",
				"energy": -0.28111,
				"method": "rhf"
			},
			{
				"type": "occ",
				"energy": -0.25983,
				"method": "rhf"
			},
			{
				"type": "occ",
				"energy": -0.25455,
				"method": "rhf"
			},
			{
				"type": "occ",
				"energy": -0.25104,
				"method": "rhf"
			},
			{
				"type": "unocc",
				"energy": -0.06825,
				"method": "rhf"
			},
			{
				"type": "unocc",
				"energy": -0.02175,
				"method": "rhf"
			},
			{
				"type": "unocc",
				"energy": 0.02394,
				"method": "rhf"
			},
			{
				"type": "unocc",
				"energy": 0.03199,
				"method": "rhf"
			},
			{
				"type": "unocc",
				"energy": 0.07951,
				"method": "rhf"
			}
		],
		"cosmo_sigma_profile": { 
			"-0.025": 0.0,
			"-0.024": 0.0,
			"-0.023": 0.0,
			"-0.022": 0.0,
			"-0.021": 0.0,
			"-0.02": 0.0,
			"-0.019": 0.0,
			"-0.018": 0.0,
			"-0.017": 0.0,
			"-0.016": 0.0,
			"-0.015": 0.0,
			"-0.014": 0.0,
			"-0.013": 0.0,
			"-0.012": 0.0,
			"-0.011": 0.0,
			"-0.01": 0.0,
			"-0.009": 0.366130231046,
			"-0.008": 3.19313713786,
			"-0.007": 5.19805490523,
			"-0.006": 7.85566713231,
			"-0.005": 11.9477750844,
			"-0.004": 22.2866280125,
			"-0.003": 29.2658010459,
			"-0.002": 25.5076888315,
			"-0.001": 22.6759008767,
			"0.0": 27.4521766771,
			"0.001": 24.1668217164,
			"0.002": 11.3221822649,
			"0.003": 10.5062357551,
			"0.004": 13.1195671305,
			"0.005": 6.80765654643,
			"0.006": 3.60571306395,
			"0.007": 3.89200141409,
			"0.008": 4.3331086386,
			"0.009": 4.29060001886,
			"0.01": 4.82384506771,
			"0.011": 5.0578764877,
			"0.012": 2.27926519844,
			"0.013": 0.353596101919,
			"0.014": 0.0,
			"0.015": 0.0,
			"0.016": 0.0,
			"0.017": 0.0,
			"0.018": 0.0,
			"0.019": 0.0,
			"0.02": 0.0,
			"0.021": 0.0,
			"0.022": 0.0,
			"0.023": 0.0,
			"0.024": 0.0,
			"0.025": 0.0
		}
	}
}
