{
	 "smiles": "NC1=NC(=CN=N1)C1=CC=C(OC(F)F)C=C1", 
	 "Tm": 497.15, 
	 "num_atms": 25, 
	 "gaussian": { 
		 "optdone": 1, 
		 "sigma_profile": "yes", 
		 "theory": "DFT", 
		 "functional": "B3LYP", 
		 "basiset": "6-31G**", 
		 "properties": { 
			 "R2extent": 7019.6355, 
			 "electric_dipole_moment_norm": 2.60299959662, 
			 "electric_quadrupole_moment_norm": 22.215263434, 
			 "total_energy": -879.762577338, 
			 "HOMO_LUMO_gap": 0.15378, 
			 "cosmo_polarized_energy": -15.72, 
			 "cosmo_cavitation_energy": 31.34, 
			 "cosmo_dispersion_energy": -23.12, 
			 "cosmo_repulsion_energy": 1.74, 
			 "cosmo_total_nonelectrostatic_energy": 9.96, 
			 "SMD_solvation_energy": 3.82 
		},
		"coords": [
			{
				"x": 2.8791731666,
				"y": 2.1976874814,
				"z": 0.6722799702,
				"element": "N" 
			},
			{
				"x": 1.7984256702,
				"y": 1.7705054576,
				"z": 1.3780821882,
				"element": "C" 
			},
			{
				"x": 0.9498684794,
				"y": 0.9255722738,
				"z": 0.7661480894,
				"element": "N" 
			},
			{
				"x": -0.1188547459,
				"y": 0.5573601557,
				"z": 1.4774448276,
				"element": "C" 
			},
			{
				"x": -0.2705841569,
				"y": 1.0520889703,
				"z": 2.7891228944,
				"element": "C" 
			},
			{
				"x": 0.6171567665,
				"y": 1.8837689237,
				"z": 3.3328313354,
				"element": "N" 
			},
			{
				"x": 1.6737625706,
				"y": 2.2659614663,
				"z": 2.6325092848,
				"element": "N" 
			},
			{
				"x": -1.0825156673,
				"y": -0.3710457615,
				"z": 0.8442601342,
				"element": "C" 
			},
			{
				"x": -0.7330597674,
				"y": -1.028530769,
				"z": -0.3450731247,
				"element": "C" 
			},
			{
				"x": -1.6053388659,
				"y": -1.9174638329,
				"z": -0.9669029479,
				"element": "C" 
			},
			{
				"x": -2.8658186669,
				"y": -2.1393244305,
				"z": -0.4031916709,
				"element": "C" 
			},
			{
				"x": -3.8040296997,
				"y": -3.0006956911,
				"z": -0.9397785389,
				"element": "O" 
			},
			{
				"x": -3.7722965684,
				"y": -3.2435558878,
				"z": -2.2932442988,
				"element": "C" 
			},
			{
				"x": -4.9538819372,
				"y": -3.795745924,
				"z": -2.6125428538,
				"element": "F" 
			},
			{
				"x": -2.7975440176,
				"y": -4.1471550756,
				"z": -2.600013674,
				"element": "F" 
			},
			{
				"x": -3.2387478909,
				"y": -1.4951546548,
				"z": 0.7793357872,
				"element": "C" 
			},
			{
				"x": -2.3512263319,
				"y": -0.6234424713,
				"z": 1.3968114632,
				"element": "C" 
			},
			{
				"x": 3.5987617418,
				"y": 2.6901972586,
				"z": 1.1766419754,
				"element": "H" 
			},
			{
				"x": 3.1132838831,
				"y": 1.7146279549,
				"z": -0.1792441608,
				"element": "H" 
			},
			{
				"x": -1.0955959709,
				"y": 0.768688031,
				"z": 3.4322157659,
				"element": "H" 
			},
			{
				"x": 0.2456033522,
				"y": -0.8402884036,
				"z": -0.7712103212,
				"element": "H" 
			},
			{
				"x": -1.2964388387,
				"y": -2.4522381471,
				"z": -1.856811299,
				"element": "H" 
			},
			{
				"x": -3.6008173899,
				"y": -2.3356357405,
				"z": -2.8838375832,
				"element": "H" 
			},
			{
				"x": -4.2246072034,
				"y": -1.6821782127,
				"z": 1.190712703,
				"element": "H" 
			},
			{
				"x": -2.6675779116,
				"y": -0.119302971,
				"z": 2.3033540546,
				"element": "H" 
			}
		],
		 "valence_orbital": [ 
			{
				"type": "occ",
				"energy": -0.31526,
				"method": "rhf"
			},
			{
				"type": "occ",
				"energy": -0.27502,
				"method": "rhf"
			},
			{
				"type": "occ",
				"energy": -0.2541,
				"method": "rhf"
			},
			{
				"type": "occ",
				"energy": -0.2358,
				"method": "rhf"
			},
			{
				"type": "occ",
				"energy": -0.22756,
				"method": "rhf"
			},
			{
				"type": "unocc",
				"energy": -0.07378,
				"method": "rhf"
			},
			{
				"type": "unocc",
				"energy": -0.03148,
				"method": "rhf"
			},
			{
				"type": "unocc",
				"energy": -0.01833,
				"method": "rhf"
			},
			{
				"type": "unocc",
				"energy": 0.01934,
				"method": "rhf"
			},
			{
				"type": "unocc",
				"energy": 0.07836,
				"method": "rhf"
			}
		],
		"cosmo_sigma_profile": { 
			"-0.025": 0.0,
			"-0.024": 0.0,
			"-0.023": 0.0,
			"-0.022": 0.0,
			"-0.021": 0.0,
			"-0.02": 0.0,
			"-0.019": 0.0,
			"-0.018": 0.0,
			"-0.017": 0.0,
			"-0.016": 0.0,
			"-0.015": 0.0164610717366,
			"-0.014": 2.40664623858,
			"-0.013": 1.54966615586,
			"-0.012": 1.79270046183,
			"-0.011": 2.59777106217,
			"-0.01": 6.64903904586,
			"-0.009": 6.59539219785,
			"-0.008": 6.03335831147,
			"-0.007": 8.68165697646,
			"-0.006": 9.59260666191,
			"-0.005": 9.74028270376,
			"-0.004": 10.0349132493,
			"-0.003": 10.4474773704,
			"-0.002": 13.4064207121,
			"-0.001": 14.9905281174,
			"0.0": 19.2849363233,
			"0.001": 17.9845619271,
			"0.002": 22.8538890688,
			"0.003": 35.2827421846,
			"0.004": 16.1595705507,
			"0.005": 5.9562983083,
			"0.006": 5.7772928799,
			"0.007": 4.6592783576,
			"0.008": 3.41619009289,
			"0.009": 2.17072774433,
			"0.01": 2.2746357525,
			"0.011": 2.26707120547,
			"0.012": 2.08761353658,
			"0.013": 2.69560538705,
			"0.014": 2.77386817069,
			"0.015": 1.68280424493,
			"0.016": 0.364089860565,
			"0.017": 0.0,
			"0.018": 0.0,
			"0.019": 0.0,
			"0.02": 0.0,
			"0.021": 0.0,
			"0.022": 0.0,
			"0.023": 0.0,
			"0.024": 0.0,
			"0.025": 0.0
		}
	}
}
