{
	 "smiles": "CN(C)C1=C(C=C(C2=CC=C(F)C=C2)C2=CC=C(F)C=C2)C(=O)N(C1=O)C1=CC=CC=C1", 
	 "Tm": 430.0, 
	 "num_atms": 52, 
	 "gaussian": { 
		 "optdone": 1, 
		 "sigma_profile": "yes", 
		 "theory": "DFT", 
		 "functional": "B3LYP", 
		 "basiset": "6-31G**", 
		 "properties": { 
			 "R2extent": 16771.4386, 
			 "electric_dipole_moment_norm": 3.18171579183, 
			 "electric_quadrupole_moment_norm": 11.463437778, 
			 "total_energy": -1462.43950036, 
			 "HOMO_LUMO_gap": 0.1114, 
			 "cosmo_polarized_energy": -15.16, 
			 "cosmo_cavitation_energy": 56.23, 
			 "cosmo_dispersion_energy": -37.19, 
			 "cosmo_repulsion_energy": 2.71, 
			 "cosmo_total_nonelectrostatic_energy": 21.75, 
			 "SMD_solvation_energy": 11.99 
		},
		"coords": [
			{
				"x": 0.1069020774,
				"y": 2.7872618633,
				"z": -2.0286067441,
				"element": "C" 
			},
			{
				"x": -1.0669405527,
				"y": 2.4871965354,
				"z": -1.2141455792,
				"element": "N" 
			},
			{
				"x": -2.2607381247,
				"y": 3.2395197498,
				"z": -1.5968066863,
				"element": "C" 
			},
			{
				"x": -0.9386586833,
				"y": 1.8453729291,
				"z": -0.0243666516,
				"element": "C" 
			},
			{
				"x": -0.0284777927,
				"y": 0.8933981833,
				"z": 0.3941751711,
				"element": "C" 
			},
			{
				"x": 1.0274996406,
				"y": 0.1009185033,
				"z": -0.2063818073,
				"element": "C" 
			},
			{
				"x": 1.200085034,
				"y": -0.4245358503,
				"z": -1.456796581,
				"element": "C" 
			},
			{
				"x": 0.1888703447,
				"y": -0.3915611577,
				"z": -2.5459653877,
				"element": "C" 
			},
			{
				"x": -1.1828715872,
				"y": -0.5536530122,
				"z": -2.2810947169,
				"element": "C" 
			},
			{
				"x": -2.1282644568,
				"y": -0.5413025338,
				"z": -3.3054440557,
				"element": "C" 
			},
			{
				"x": -1.6959229033,
				"y": -0.3596221949,
				"z": -4.6137685312,
				"element": "C" 
			},
			{
				"x": -2.6044001016,
				"y": -0.3411385866,
				"z": -5.6101908514,
				"element": "F" 
			},
			{
				"x": -0.3481925248,
				"y": -0.2041291831,
				"z": -4.9241016674,
				"element": "C" 
			},
			{
				"x": 0.583464584,
				"y": -0.2303319799,
				"z": -3.8897883935,
				"element": "C" 
			},
			{
				"x": 2.4729360693,
				"y": -1.1495199228,
				"z": -1.7319367332,
				"element": "C" 
			},
			{
				"x": 2.4821021441,
				"y": -2.3557799811,
				"z": -2.458955076,
				"element": "C" 
			},
			{
				"x": 3.6614059846,
				"y": -3.0636754914,
				"z": -2.6755544314,
				"element": "C" 
			},
			{
				"x": 4.8516482034,
				"y": -2.55587202,
				"z": -2.1654096762,
				"element": "C" 
			},
			{
				"x": 5.9986061519,
				"y": -3.2331647809,
				"z": -2.3781479398,
				"element": "F" 
			},
			{
				"x": 4.8911446489,
				"y": -1.3643328349,
				"z": -1.4512898777,
				"element": "C" 
			},
			{
				"x": 3.7018039746,
				"y": -0.6684672891,
				"z": -1.2432031676,
				"element": "C" 
			},
			{
				"x": -0.2322676253,
				"y": 0.6988822363,
				"z": 1.8506353735,
				"element": "C" 
			},
			{
				"x": 0.4088278346,
				"y": -0.0124016777,
				"z": 2.5995692881,
				"element": "O" 
			},
			{
				"x": -1.3463779221,
				"y": 1.4901054508,
				"z": 2.2514298008,
				"element": "N" 
			},
			{
				"x": -1.8223226029,
				"y": 2.2086307775,
				"z": 1.1582125667,
				"element": "C" 
			},
			{
				"x": -2.7481817574,
				"y": 2.9992743677,
				"z": 1.1712640477,
				"element": "O" 
			},
			{
				"x": -1.8860207357,
				"y": 1.5466674264,
				"z": 3.5699582823,
				"element": "C" 
			},
			{
				"x": -1.0279307972,
				"y": 1.5272823176,
				"z": 4.6767836127,
				"element": "C" 
			},
			{
				"x": -1.5630702587,
				"y": 1.5745404288,
				"z": 5.9632790529,
				"element": "C" 
			},
			{
				"x": -2.9427970452,
				"y": 1.6574957975,
				"z": 6.1564139763,
				"element": "C" 
			},
			{
				"x": -3.791475579,
				"y": 1.6845093324,
				"z": 5.0486780035,
				"element": "C" 
			},
			{
				"x": -3.2721577971,
				"y": 1.6216064819,
				"z": 3.7565680532,
				"element": "C" 
			},
			{
				"x": 0.9503928348,
				"y": 2.1685366593,
				"z": -1.7327531997,
				"element": "H" 
			},
			{
				"x": 0.3832298583,
				"y": 3.843998056,
				"z": -1.9017172639,
				"element": "H" 
			},
			{
				"x": -0.1117348704,
				"y": 2.6081110713,
				"z": -3.0845615568,
				"element": "H" 
			},
			{
				"x": -2.3810476329,
				"y": 3.1441589088,
				"z": -2.68115191,
				"element": "H" 
			},
			{
				"x": -2.1708645554,
				"y": 4.3043828828,
				"z": -1.3459473273,
				"element": "H" 
			},
			{
				"x": -3.1425079379,
				"y": 2.8479345676,
				"z": -1.098496874,
				"element": "H" 
			},
			{
				"x": 1.7719828502,
				"y": -0.1900156128,
				"z": 0.53170078,
				"element": "H" 
			},
			{
				"x": -1.5097974141,
				"y": -0.7121968474,
				"z": -1.2596550564,
				"element": "H" 
			},
			{
				"x": -3.1851987755,
				"y": -0.6795237756,
				"z": -3.1041640732,
				"element": "H" 
			},
			{
				"x": -0.0474976684,
				"y": -0.0701005516,
				"z": -5.9576852738,
				"element": "H" 
			},
			{
				"x": 1.6367101008,
				"y": -0.1149507593,
				"z": -4.1241469621,
				"element": "H" 
			},
			{
				"x": 1.5490441478,
				"y": -2.7535328413,
				"z": -2.8442057101,
				"element": "H" 
			},
			{
				"x": 3.6692596292,
				"y": -3.9998179703,
				"z": -3.2234219512,
				"element": "H" 
			},
			{
				"x": 5.8400552891,
				"y": -0.9912384151,
				"z": -1.0813478808,
				"element": "H" 
			},
			{
				"x": 3.7263516796,
				"y": 0.2743718109,
				"z": -0.7061795452,
				"element": "H" 
			},
			{
				"x": 0.0415716386,
				"y": 1.4579666489,
				"z": 4.5276912158,
				"element": "H" 
			},
			{
				"x": -0.8929310225,
				"y": 1.5520968533,
				"z": 6.8176848273,
				"element": "H" 
			},
			{
				"x": -3.3530576762,
				"y": 1.7007937275,
				"z": 7.1609561352,
				"element": "H" 
			},
			{
				"x": -4.8669110796,
				"y": 1.7488515477,
				"z": 5.1863508807,
				"element": "H" 
			},
			{
				"x": -3.9320772399,
				"y": 1.6452001546,
				"z": 2.898838072,
				"element": "H" 
			}
		],
		 "valence_orbital": [ 
			{
				"type": "occ",
				"energy": -0.25249,
				"method": "rhf"
			},
			{
				"type": "occ",
				"energy": -0.24825,
				"method": "rhf"
			},
			{
				"type": "occ",
				"energy": -0.24563,
				"method": "rhf"
			},
			{
				"type": "occ",
				"energy": -0.23525,
				"method": "rhf"
			},
			{
				"type": "occ",
				"energy": -0.1965,
				"method": "rhf"
			},
			{
				"type": "unocc",
				"energy": -0.0851,
				"method": "rhf"
			},
			{
				"type": "unocc",
				"energy": -0.0361,
				"method": "rhf"
			},
			{
				"type": "unocc",
				"energy": -0.02494,
				"method": "rhf"
			},
			{
				"type": "unocc",
				"energy": -0.0108,
				"method": "rhf"
			},
			{
				"type": "unocc",
				"energy": -0.00933,
				"method": "rhf"
			}
		],
		"cosmo_sigma_profile": { 
			"-0.025": 0.0,
			"-0.024": 0.0,
			"-0.023": 0.0,
			"-0.022": 0.0,
			"-0.021": 0.0,
			"-0.02": 0.0,
			"-0.019": 0.0,
			"-0.018": 0.0,
			"-0.017": 0.0,
			"-0.016": 0.0,
			"-0.015": 0.0,
			"-0.014": 0.0,
			"-0.013": 0.0,
			"-0.012": 0.0,
			"-0.011": 0.0,
			"-0.01": 0.0,
			"-0.009": 0.0,
			"-0.008": 0.526699243679,
			"-0.007": 6.37328857187,
			"-0.006": 17.9298029285,
			"-0.005": 36.7066194013,
			"-0.004": 43.9189157489,
			"-0.003": 40.0124324003,
			"-0.002": 42.3694764751,
			"-0.001": 29.9155823821,
			"0.0": 34.2263954621,
			"0.001": 40.1275654218,
			"0.002": 32.0292404587,
			"0.003": 34.0534217928,
			"0.004": 39.501116678,
			"0.005": 22.8241227864,
			"0.006": 5.15107333144,
			"0.007": 3.23081292649,
			"0.008": 4.49060571423,
			"0.009": 3.49668378667,
			"0.01": 5.26756728591,
			"0.011": 5.93176220241,
			"0.012": 2.88761708485,
			"0.013": 0.00114897641736,
			"0.014": 0.0,
			"0.015": 0.0,
			"0.016": 0.0,
			"0.017": 0.0,
			"0.018": 0.0,
			"0.019": 0.0,
			"0.02": 0.0,
			"0.021": 0.0,
			"0.022": 0.0,
			"0.023": 0.0,
			"0.024": 0.0,
			"0.025": 0.0
		}
	}
}
