{
	 "smiles": "CC(C)CCNC(N)=O", 
	 "Tm": 317.15, 
	 "num_atms": 23, 
	 "gaussian": { 
		 "optdone": 1, 
		 "sigma_profile": "yes", 
		 "theory": "DFT", 
		 "functional": "B3LYP", 
		 "basiset": "6-31G**", 
		 "properties": { 
			 "R2extent": 2315.6551, 
			 "electric_dipole_moment_norm": 4.05870411585, 
			 "electric_quadrupole_moment_norm": 21.7198658495, 
			 "total_energy": -421.83849598, 
			 "HOMO_LUMO_gap": 0.28583, 
			 "cosmo_polarized_energy": -13.96, 
			 "cosmo_cavitation_energy": 24.87, 
			 "cosmo_dispersion_energy": -17.7, 
			 "cosmo_repulsion_energy": 1.48, 
			 "cosmo_total_nonelectrostatic_energy": 8.65, 
			 "SMD_solvation_energy": 5.04 
		},
		"coords": [
			{
				"x": -0.7909705378,
				"y": 0.1985248861,
				"z": -1.4973965269,
				"element": "C" 
			},
			{
				"x": -0.7817846908,
				"y": 0.6323789312,
				"z": -0.0228355692,
				"element": "C" 
			},
			{
				"x": -0.1815038141,
				"y": 2.0383583289,
				"z": 0.1361094192,
				"element": "C" 
			},
			{
				"x": -0.1422633887,
				"y": -0.4319628894,
				"z": 0.8998561272,
				"element": "C" 
			},
			{
				"x": 1.3299696939,
				"y": -0.8159900275,
				"z": 0.6487107632,
				"element": "C" 
			},
			{
				"x": 2.3175943828,
				"y": 0.177772997,
				"z": 1.0554468502,
				"element": "N" 
			},
			{
				"x": 3.0016017127,
				"y": 0.2167184747,
				"z": 2.2514178135,
				"element": "C" 
			},
			{
				"x": 2.5153207963,
				"y": -0.6257642355,
				"z": 3.2478681949,
				"element": "N" 
			},
			{
				"x": 3.9900315095,
				"y": 0.9215234225,
				"z": 2.4154426688,
				"element": "O" 
			},
			{
				"x": -1.3672234899,
				"y": 0.904360144,
				"z": -2.104787667,
				"element": "H" 
			},
			{
				"x": -1.2393319476,
				"y": -0.7934407125,
				"z": -1.6234629504,
				"element": "H" 
			},
			{
				"x": 0.2203229642,
				"y": 0.1642041723,
				"z": -1.9191721717,
				"element": "H" 
			},
			{
				"x": -1.8318402709,
				"y": 0.6968612548,
				"z": 0.2976600374,
				"element": "H" 
			},
			{
				"x": -0.7767607462,
				"y": 2.7724580776,
				"z": -0.4181567833,
				"element": "H" 
			},
			{
				"x": -0.1553348516,
				"y": 2.3492465254,
				"z": 1.1855076557,
				"element": "H" 
			},
			{
				"x": 0.8426282045,
				"y": 2.0922997856,
				"z": -0.2455074587,
				"element": "H" 
			},
			{
				"x": -0.2474719788,
				"y": -0.0992935575,
				"z": 1.9420801345,
				"element": "H" 
			},
			{
				"x": -0.734561042,
				"y": -1.3534642351,
				"z": 0.8116787696,
				"element": "H" 
			},
			{
				"x": 1.4844775264,
				"y": -1.0283175435,
				"z": -0.4142268581,
				"element": "H" 
			},
			{
				"x": 1.5468143287,
				"y": -1.7521933587,
				"z": 1.1762738421,
				"element": "H" 
			},
			{
				"x": 2.7677527314,
				"y": 0.7363101998,
				"z": 0.34654804,
				"element": "H" 
			},
			{
				"x": 1.5219670597,
				"y": -0.8053013445,
				"z": 3.2852416509,
				"element": "H" 
			},
			{
				"x": 2.9336658483,
				"y": -0.4212892956,
				"z": 4.144204018,
				"element": "H" 
			}
		],
		 "valence_orbital": [ 
			{
				"type": "occ",
				"energy": -0.3301,
				"method": "rhf"
			},
			{
				"type": "occ",
				"energy": -0.32449,
				"method": "rhf"
			},
			{
				"type": "occ",
				"energy": -0.26671,
				"method": "rhf"
			},
			{
				"type": "occ",
				"energy": -0.24603,
				"method": "rhf"
			},
			{
				"type": "occ",
				"energy": -0.23591,
				"method": "rhf"
			},
			{
				"type": "unocc",
				"energy": 0.04992,
				"method": "rhf"
			},
			{
				"type": "unocc",
				"energy": 0.0725,
				"method": "rhf"
			},
			{
				"type": "unocc",
				"energy": 0.08727,
				"method": "rhf"
			},
			{
				"type": "unocc",
				"energy": 0.09305,
				"method": "rhf"
			},
			{
				"type": "unocc",
				"energy": 0.12117,
				"method": "rhf"
			}
		],
		"cosmo_sigma_profile": { 
			"-0.025": 0.0,
			"-0.024": 0.0,
			"-0.023": 0.0,
			"-0.022": 0.0,
			"-0.021": 0.0,
			"-0.02": 0.0,
			"-0.019": 0.0,
			"-0.018": 0.0,
			"-0.017": 0.0,
			"-0.016": 0.0,
			"-0.015": 0.0,
			"-0.014": 0.0,
			"-0.013": 0.530090190866,
			"-0.012": 2.56016563504,
			"-0.011": 3.6149105228,
			"-0.01": 2.49116227566,
			"-0.009": 5.18334861837,
			"-0.008": 3.4651992554,
			"-0.007": 4.01818209824,
			"-0.006": 3.35009587406,
			"-0.005": 5.66174473008,
			"-0.004": 8.21401965538,
			"-0.003": 12.4761697075,
			"-0.002": 25.5757013018,
			"-0.001": 24.86318336,
			"0.0": 21.3406568176,
			"0.001": 18.193444371,
			"0.002": 13.074330235,
			"0.003": 3.6717568521,
			"0.004": 3.7791151443,
			"0.005": 3.99637325212,
			"0.006": 1.4579879914,
			"0.007": 2.14290769366,
			"0.008": 1.7883749423,
			"0.009": 1.59573011028,
			"0.01": 2.17065905312,
			"0.011": 1.82178464624,
			"0.012": 1.57639605671,
			"0.013": 1.92957891947,
			"0.014": 2.9581448877,
			"0.015": 7.04832221195,
			"0.016": 1.36005745089,
			"0.017": 0.0,
			"0.018": 0.0,
			"0.019": 0.0,
			"0.02": 0.0,
			"0.021": 0.0,
			"0.022": 0.0,
			"0.023": 0.0,
			"0.024": 0.0,
			"0.025": 0.0
		}
	}
}
