{
	 "smiles": "CCCCCCCCCCCCCCCCCCCCCCCCO", 
	 "Tm": 349.15, 
	 "num_atms": 75, 
	 "gaussian": { 
		 "optdone": 1, 
		 "sigma_profile": "yes", 
		 "theory": "DFT", 
		 "functional": "B3LYP", 
		 "basiset": "6-31G**", 
		 "properties": { 
			 "R2extent": 28606.4353, 
			 "electric_dipole_moment_norm": 1.4653953528, 
			 "electric_quadrupole_moment_norm": 16.9215735022, 
			 "total_energy": -1019.97483098, 
			 "HOMO_LUMO_gap": 0.33293, 
			 "cosmo_polarized_energy": -6.52, 
			 "cosmo_cavitation_energy": 71.24, 
			 "cosmo_dispersion_energy": -47.25, 
			 "cosmo_repulsion_energy": 3.84, 
			 "cosmo_total_nonelectrostatic_energy": 27.84, 
			 "SMD_solvation_energy": 8.84 
		},
		"coords": [
			{
				"x": 5.0302008537,
				"y": -1.8031663214,
				"z": -5.0893147025,
				"element": "C" 
			},
			{
				"x": 3.6698651727,
				"y": -2.4928884451,
				"z": -5.2494862318,
				"element": "C" 
			},
			{
				"x": 2.4576081949,
				"y": -1.6023621406,
				"z": -4.9263244306,
				"element": "C" 
			},
			{
				"x": 2.2529919622,
				"y": -0.4297208355,
				"z": -5.8974039839,
				"element": "C" 
			},
			{
				"x": 1.0491314447,
				"y": 0.470539674,
				"z": -5.5705909994,
				"element": "C" 
			},
			{
				"x": -0.3238280687,
				"y": -0.2000831058,
				"z": -5.7252258028,
				"element": "C" 
			},
			{
				"x": -1.4909129609,
				"y": 0.7661983588,
				"z": -5.4790482227,
				"element": "C" 
			},
			{
				"x": -2.8875604762,
				"y": 0.1614845316,
				"z": -5.7031008824,
				"element": "C" 
			},
			{
				"x": -3.3226663254,
				"y": -0.9933039692,
				"z": -4.7790045557,
				"element": "C" 
			},
			{
				"x": -3.4946795208,
				"y": -0.6400311912,
				"z": -3.2850092697,
				"element": "C" 
			},
			{
				"x": -2.2467641854,
				"y": -0.8308686042,
				"z": -2.4085901602,
				"element": "C" 
			},
			{
				"x": -2.4892662131,
				"y": -0.4919993933,
				"z": -0.9320570378,
				"element": "C" 
			},
			{
				"x": -1.2580624005,
				"y": -0.7053243841,
				"z": -0.0415365155,
				"element": "C" 
			},
			{
				"x": -1.5101256604,
				"y": -0.3575189472,
				"z": 1.4325639387,
				"element": "C" 
			},
			{
				"x": -0.3260897597,
				"y": -0.6306462749,
				"z": 2.3762356528,
				"element": "C" 
			},
			{
				"x": 0.9019404354,
				"y": 0.2598535639,
				"z": 2.1345446777,
				"element": "C" 
			},
			{
				"x": 2.0889694464,
				"y": -0.0243739241,
				"z": 3.073377784,
				"element": "C" 
			},
			{
				"x": 1.8512542797,
				"y": 0.2436711876,
				"z": 4.5704247547,
				"element": "C" 
			},
			{
				"x": 1.561438201,
				"y": 1.7097096415,
				"z": 4.920992542,
				"element": "C" 
			},
			{
				"x": 1.4293017356,
				"y": 1.9590585038,
				"z": 6.4295823039,
				"element": "C" 
			},
			{
				"x": 1.1350940903,
				"y": 3.4246215126,
				"z": 6.7790923677,
				"element": "C" 
			},
			{
				"x": 1.0921155815,
				"y": 3.7366514581,
				"z": 8.2849029796,
				"element": "C" 
			},
			{
				"x": -0.013965642,
				"y": 3.0294530865,
				"z": 9.0878064123,
				"element": "C" 
			},
			{
				"x": -1.4337027501,
				"y": 3.4012364726,
				"z": 8.6710445499,
				"element": "C" 
			},
			{
				"x": -1.5942375485,
				"y": 4.8067217371,
				"z": 8.837298983,
				"element": "O" 
			},
			{
				"x": 5.1485717373,
				"y": -0.9627658048,
				"z": -5.7808254796,
				"element": "H" 
			},
			{
				"x": 5.8508692922,
				"y": -2.5022721221,
				"z": -5.281721942,
				"element": "H" 
			},
			{
				"x": 5.1572596799,
				"y": -1.4147189349,
				"z": -4.0718909844,
				"element": "H" 
			},
			{
				"x": 3.5725490973,
				"y": -2.8752936364,
				"z": -6.2750697636,
				"element": "H" 
			},
			{
				"x": 3.6409805931,
				"y": -3.3739391728,
				"z": -4.5954991526,
				"element": "H" 
			},
			{
				"x": 1.5586413761,
				"y": -2.2311298892,
				"z": -4.9200727769,
				"element": "H" 
			},
			{
				"x": 2.5607700555,
				"y": -1.2096550006,
				"z": -3.9038828057,
				"element": "H" 
			},
			{
				"x": 2.143467717,
				"y": -0.8231773684,
				"z": -6.9187784716,
				"element": "H" 
			},
			{
				"x": 3.1557399301,
				"y": 0.1935551511,
				"z": -5.9089129811,
				"element": "H" 
			},
			{
				"x": 1.152156216,
				"y": 0.8531945201,
				"z": -4.5446285353,
				"element": "H" 
			},
			{
				"x": 1.0831801236,
				"y": 1.3529112916,
				"z": -6.2243145428,
				"element": "H" 
			},
			{
				"x": -0.3992739784,
				"y": -1.0525321519,
				"z": -5.039813561,
				"element": "H" 
			},
			{
				"x": -0.4097907727,
				"y": -0.6164739886,
				"z": -6.7398603238,
				"element": "H" 
			},
			{
				"x": -1.4182777664,
				"y": 1.1787894039,
				"z": -4.4641289039,
				"element": "H" 
			},
			{
				"x": -1.3804629878,
				"y": 1.6262773648,
				"z": -6.1541378093,
				"element": "H" 
			},
			{
				"x": -2.9473390341,
				"y": -0.1917462405,
				"z": -6.7422125824,
				"element": "H" 
			},
			{
				"x": -3.6318908406,
				"y": 0.965267068,
				"z": -5.6176607662,
				"element": "H" 
			},
			{
				"x": -4.2842313373,
				"y": -1.3588356402,
				"z": -5.1610140288,
				"element": "H" 
			},
			{
				"x": -2.6296430888,
				"y": -1.8396710115,
				"z": -4.8766411741,
				"element": "H" 
			},
			{
				"x": -3.8513824377,
				"y": 0.3962718364,
				"z": -3.194693948,
				"element": "H" 
			},
			{
				"x": -4.2946974992,
				"y": -1.2646601909,
				"z": -2.8652786963,
				"element": "H" 
			},
			{
				"x": -1.4178353967,
				"y": -0.2187149055,
				"z": -2.7848120055,
				"element": "H" 
			},
			{
				"x": -1.9117554551,
				"y": -1.8750335562,
				"z": -2.4896098758,
				"element": "H" 
			},
			{
				"x": -3.3223292067,
				"y": -1.1008659382,
				"z": -0.5518025324,
				"element": "H" 
			},
			{
				"x": -2.8188961128,
				"y": 0.5538399188,
				"z": -0.8499685776,
				"element": "H" 
			},
			{
				"x": -0.9349309911,
				"y": -1.7540562816,
				"z": -0.1143829748,
				"element": "H" 
			},
			{
				"x": -0.4268400475,
				"y": -0.1042079083,
				"z": -0.4328950914,
				"element": "H" 
			},
			{
				"x": -1.7980409584,
				"y": 0.7009942246,
				"z": 1.5105955204,
				"element": "H" 
			},
			{
				"x": -2.378600201,
				"y": -0.9316494436,
				"z": 1.7835783848,
				"element": "H" 
			},
			{
				"x": -0.6719796366,
				"y": -0.499730299,
				"z": 3.4093424802,
				"element": "H" 
			},
			{
				"x": -0.0294265612,
				"y": -1.6862563016,
				"z": 2.2889201632,
				"element": "H" 
			},
			{
				"x": 1.2496658176,
				"y": 0.1280728912,
				"z": 1.1025020674,
				"element": "H" 
			},
			{
				"x": 0.603944108,
				"y": 1.3141280683,
				"z": 2.2162155003,
				"element": "H" 
			},
			{
				"x": 2.9472272801,
				"y": 0.5770676036,
				"z": 2.7434926159,
				"element": "H" 
			},
			{
				"x": 2.3908542517,
				"y": -1.0734429165,
				"z": 2.9483070446,
				"element": "H" 
			},
			{
				"x": 2.7442098695,
				"y": -0.0800075325,
				"z": 5.1225716726,
				"element": "H" 
			},
			{
				"x": 1.0310707763,
				"y": -0.3865598267,
				"z": 4.9397797124,
				"element": "H" 
			},
			{
				"x": 0.6392255857,
				"y": 2.0391939388,
				"z": 4.4235775789,
				"element": "H" 
			},
			{
				"x": 2.3646298312,
				"y": 2.3437308951,
				"z": 4.517932606,
				"element": "H" 
			},
			{
				"x": 2.3566999569,
				"y": 1.6466337651,
				"z": 6.9315386629,
				"element": "H" 
			},
			{
				"x": 0.6377403366,
				"y": 1.310276674,
				"z": 6.8289357869,
				"element": "H" 
			},
			{
				"x": 1.907941624,
				"y": 4.0568502542,
				"z": 6.3210550684,
				"element": "H" 
			},
			{
				"x": 0.1903557389,
				"y": 3.7293210803,
				"z": 6.3084576443,
				"element": "H" 
			},
			{
				"x": 2.0622351717,
				"y": 3.4752615309,
				"z": 8.7288275167,
				"element": "H" 
			},
			{
				"x": 0.969828802,
				"y": 4.8168182297,
				"z": 8.4179396648,
				"element": "H" 
			},
			{
				"x": 0.1041081791,
				"y": 3.2826654311,
				"z": 10.1485709059,
				"element": "H" 
			},
			{
				"x": 0.0879866812,
				"y": 1.9392990612,
				"z": 9.0152468399,
				"element": "H" 
			},
			{
				"x": -1.6138352943,
				"y": 3.1040394461,
				"z": 7.6252995273,
				"element": "H" 
			},
			{
				"x": -2.152373475,
				"y": 2.8434903903,
				"z": 9.2933869508,
				"element": "H" 
			},
			{
				"x": -2.4740266351,
				"y": 5.0488338315,
				"z": 8.5241622211,
				"element": "H" 
			}
		],
		 "valence_orbital": [ 
			{
				"type": "occ",
				"energy": -0.29849,
				"method": "rhf"
			},
			{
				"type": "occ",
				"energy": -0.29662,
				"method": "rhf"
			},
			{
				"type": "occ",
				"energy": -0.29274,
				"method": "rhf"
			},
			{
				"type": "occ",
				"energy": -0.28958,
				"method": "rhf"
			},
			{
				"type": "occ",
				"energy": -0.26128,
				"method": "rhf"
			},
			{
				"type": "unocc",
				"energy": 0.07165,
				"method": "rhf"
			},
			{
				"type": "unocc",
				"energy": 0.07929,
				"method": "rhf"
			},
			{
				"type": "unocc",
				"energy": 0.08349,
				"method": "rhf"
			},
			{
				"type": "unocc",
				"energy": 0.09309,
				"method": "rhf"
			},
			{
				"type": "unocc",
				"energy": 0.09749,
				"method": "rhf"
			}
		],
		"cosmo_sigma_profile": { 
			"-0.025": 0.0,
			"-0.024": 0.0,
			"-0.023": 0.0,
			"-0.022": 0.0,
			"-0.021": 0.0,
			"-0.02": 0.0,
			"-0.019": 0.0,
			"-0.018": 0.0,
			"-0.017": 0.0,
			"-0.016": 0.0687060898732,
			"-0.015": 0.796343075051,
			"-0.014": 1.16545862183,
			"-0.013": 0.708520235054,
			"-0.012": 1.29737956536,
			"-0.011": 0.807710662547,
			"-0.01": 0.435392686168,
			"-0.009": 1.01178063738,
			"-0.008": 1.15409763137,
			"-0.007": 1.07291613914,
			"-0.006": 0.351215829821,
			"-0.005": 0.717058695117,
			"-0.004": 1.40042309701,
			"-0.003": 9.10954687526,
			"-0.002": 60.1621629281,
			"-0.001": 132.028544475,
			"0.0": 140.974606775,
			"0.001": 116.728322489,
			"0.002": 51.9707042922,
			"0.003": 3.42717164964,
			"0.004": 1.55286521202,
			"0.005": 1.64175925428,
			"0.006": 1.38275534287,
			"0.007": 1.75395298923,
			"0.008": 1.17245335035,
			"0.009": 1.39251280284,
			"0.01": 2.3726109488,
			"0.011": 0.766753655989,
			"0.012": 1.69156335479,
			"0.013": 1.39651502975,
			"0.014": 1.12822166632,
			"0.015": 0.73863070805,
			"0.016": 0.0,
			"0.017": 0.0,
			"0.018": 0.0,
			"0.019": 0.0,
			"0.02": 0.0,
			"0.021": 0.0,
			"0.022": 0.0,
			"0.023": 0.0,
			"0.024": 0.0,
			"0.025": 0.0
		}
	}
}
