{
	 "smiles": "O=C1NC(=O)C2CC(CCC12)C1=CC=CC=C1", 
	 "Tm": 408.15, 
	 "num_atms": 32, 
	 "gaussian": { 
		 "optdone": 1, 
		 "sigma_profile": "yes", 
		 "theory": "DFT", 
		 "functional": "B3LYP", 
		 "basiset": "6-31G**", 
		 "properties": { 
			 "R2extent": 4594.2701, 
			 "electric_dipole_moment_norm": 2.09545945558, 
			 "electric_quadrupole_moment_norm": 15.4449537646, 
			 "total_energy": -747.770563738, 
			 "HOMO_LUMO_gap": 0.21454, 
			 "cosmo_polarized_energy": -14.38, 
			 "cosmo_cavitation_energy": 32.81, 
			 "cosmo_dispersion_energy": -23.67, 
			 "cosmo_repulsion_energy": 1.81, 
			 "cosmo_total_nonelectrostatic_energy": 10.95, 
			 "SMD_solvation_energy": 5.96 
		},
		"coords": [
			{
				"x": 3.7518286772,
				"y": -0.8704187499,
				"z": 1.8121255649,
				"element": "O" 
			},
			{
				"x": 2.6544639538,
				"y": -1.3765953737,
				"z": 1.727487912,
				"element": "C" 
			},
			{
				"x": 2.3923116889,
				"y": -2.637002767,
				"z": 1.1859262801,
				"element": "N" 
			},
			{
				"x": 1.060046311,
				"y": -3.029929539,
				"z": 1.2489270228,
				"element": "C" 
			},
			{
				"x": 0.6112778547,
				"y": -4.0538600235,
				"z": 0.7751169877,
				"element": "O" 
			},
			{
				"x": 0.3308472513,
				"y": -1.9768444771,
				"z": 2.0900582269,
				"element": "C" 
			},
			{
				"x": -1.1510180556,
				"y": -1.7078781245,
				"z": 1.7414641032,
				"element": "C" 
			},
			{
				"x": -1.4594006692,
				"y": -0.5102433021,
				"z": 0.8067301331,
				"element": "C" 
			},
			{
				"x": -0.5519185558,
				"y": 0.6866328117,
				"z": 1.1889923559,
				"element": "C" 
			},
			{
				"x": 0.9304866339,
				"y": 0.3230034502,
				"z": 1.083154556,
				"element": "C" 
			},
			{
				"x": 1.3036033572,
				"y": -0.7722835162,
				"z": 2.1066773456,
				"element": "C" 
			},
			{
				"x": -1.4469154029,
				"y": -0.7773375189,
				"z": -0.7013377775,
				"element": "C" 
			},
			{
				"x": -1.9037723831,
				"y": 0.2405299062,
				"z": -1.557981539,
				"element": "C" 
			},
			{
				"x": -1.9413074006,
				"y": 0.0672091383,
				"z": -2.9393315757,
				"element": "C" 
			},
			{
				"x": -1.5225113103,
				"y": -1.1398817978,
				"z": -3.5050652221,
				"element": "C" 
			},
			{
				"x": -1.0802452938,
				"y": -2.1633160098,
				"z": -2.670431182,
				"element": "C" 
			},
			{
				"x": -1.0458276799,
				"y": -1.986741544,
				"z": -1.2826872361,
				"element": "C" 
			},
			{
				"x": 3.1116375994,
				"y": -3.2118417451,
				"z": 0.7648190345,
				"element": "H" 
			},
			{
				"x": 0.3399352652,
				"y": -2.4296568779,
				"z": 3.0921096941,
				"element": "H" 
			},
			{
				"x": -1.6624461481,
				"y": -1.4966507348,
				"z": 2.6868516227,
				"element": "H" 
			},
			{
				"x": -1.5923322697,
				"y": -2.6346648179,
				"z": 1.3618184809,
				"element": "H" 
			},
			{
				"x": -2.4897948154,
				"y": -0.2113169919,
				"z": 1.042645253,
				"element": "H" 
			},
			{
				"x": -0.7837557132,
				"y": 0.9979218736,
				"z": 2.2171186252,
				"element": "H" 
			},
			{
				"x": -0.7687861012,
				"y": 1.5448727476,
				"z": 0.5461714068,
				"element": "H" 
			},
			{
				"x": 1.1378494893,
				"y": -0.0317705632,
				"z": 0.0656338801,
				"element": "H" 
			},
			{
				"x": 1.5709075339,
				"y": 1.1940504089,
				"z": 1.2506923802,
				"element": "H" 
			},
			{
				"x": 1.3799544617,
				"y": -0.3191185024,
				"z": 3.0998363532,
				"element": "H" 
			},
			{
				"x": -2.248950128,
				"y": 1.1812857413,
				"z": -1.1351686345,
				"element": "H" 
			},
			{
				"x": -2.3032060152,
				"y": 0.8716186248,
				"z": -3.5738957913,
				"element": "H" 
			},
			{
				"x": -1.5498451858,
				"y": -1.280181752,
				"z": -4.5818445641,
				"element": "H" 
			},
			{
				"x": -0.7605806874,
				"y": -3.1121154696,
				"z": -3.0924777981,
				"element": "H" 
			},
			{
				"x": -0.7131362621,
				"y": -2.8134745044,
				"z": -0.6665358983,
				"element": "H" 
			}
		],
		 "valence_orbital": [ 
			{
				"type": "occ",
				"energy": -0.29293,
				"method": "rhf"
			},
			{
				"type": "occ",
				"energy": -0.28355,
				"method": "rhf"
			},
			{
				"type": "occ",
				"energy": -0.25884,
				"method": "rhf"
			},
			{
				"type": "occ",
				"energy": -0.24646,
				"method": "rhf"
			},
			{
				"type": "occ",
				"energy": -0.23918,
				"method": "rhf"
			},
			{
				"type": "unocc",
				"energy": -0.02464,
				"method": "rhf"
			},
			{
				"type": "unocc",
				"energy": -0.00256,
				"method": "rhf"
			},
			{
				"type": "unocc",
				"energy": 0.00318,
				"method": "rhf"
			},
			{
				"type": "unocc",
				"energy": 0.02421,
				"method": "rhf"
			},
			{
				"type": "unocc",
				"energy": 0.06906,
				"method": "rhf"
			}
		],
		"cosmo_sigma_profile": { 
			"-0.025": 0.0,
			"-0.024": 0.0,
			"-0.023": 0.0,
			"-0.022": 0.0,
			"-0.021": 0.0,
			"-0.02": 0.0,
			"-0.019": 0.0,
			"-0.018": 0.0,
			"-0.017": 0.0786332533557,
			"-0.016": 1.12058274127,
			"-0.015": 1.29643043976,
			"-0.014": 0.983924097205,
			"-0.013": 0.982474468403,
			"-0.012": 0.212596373098,
			"-0.011": 1.05215729023,
			"-0.01": 1.17398455966,
			"-0.009": 0.80612266582,
			"-0.008": 2.63143678111,
			"-0.007": 4.45791994349,
			"-0.006": 9.01120086823,
			"-0.005": 16.9565305281,
			"-0.004": 25.204370033,
			"-0.003": 32.0027715424,
			"-0.002": 23.5781262165,
			"-0.001": 23.9145122111,
			"0.0": 17.1173273698,
			"0.001": 11.4612126813,
			"0.002": 10.7663723553,
			"0.003": 9.86471052238,
			"0.004": 9.62429920395,
			"0.005": 10.7928069949,
			"0.006": 9.88243793193,
			"0.007": 5.52629896632,
			"0.008": 2.73154920598,
			"0.009": 3.25509766897,
			"0.01": 3.42747921652,
			"0.011": 6.88918339197,
			"0.012": 9.10417609065,
			"0.013": 2.55097409219,
			"0.014": 0.0234886590625,
			"0.015": 0.0,
			"0.016": 0.0,
			"0.017": 0.0,
			"0.018": 0.0,
			"0.019": 0.0,
			"0.02": 0.0,
			"0.021": 0.0,
			"0.022": 0.0,
			"0.023": 0.0,
			"0.024": 0.0,
			"0.025": 0.0
		}
	}
}
