{
	 "smiles": "OC1=CC=C(C2=CC=CC=C12)[N+]([O-])=O", 
	 "Tm": 438.65, 
	 "num_atms": 21, 
	 "gaussian": { 
		 "optdone": 1, 
		 "sigma_profile": "yes", 
		 "theory": "DFT", 
		 "functional": "B3LYP", 
		 "basiset": "6-31G**", 
		 "properties": { 
			 "R2extent": 2814.7549, 
			 "electric_dipole_moment_norm": 5.45373366145, 
			 "electric_quadrupole_moment_norm": 15.3698575348, 
			 "total_energy": -665.609495556, 
			 "HOMO_LUMO_gap": 0.14331, 
			 "cosmo_polarized_energy": -13.91, 
			 "cosmo_cavitation_energy": 25.47, 
			 "cosmo_dispersion_energy": -19.31, 
			 "cosmo_repulsion_energy": 1.48, 
			 "cosmo_total_nonelectrostatic_energy": 7.63, 
			 "SMD_solvation_energy": 6.65 
		},
		"coords": [
			{
				"x": -0.7896896441,
				"y": 1.9701653082,
				"z": -2.0902603715,
				"element": "O" 
			},
			{
				"x": -0.4540901101,
				"y": 1.1156586674,
				"z": -1.0914706321,
				"element": "C" 
			},
			{
				"x": -1.2938648904,
				"y": 0.8525655445,
				"z": -0.0252475735,
				"element": "C" 
			},
			{
				"x": -0.8873282343,
				"y": -0.0428393965,
				"z": 0.9712734219,
				"element": "C" 
			},
			{
				"x": 0.3360953304,
				"y": -0.6818524525,
				"z": 0.9054882719,
				"element": "C" 
			},
			{
				"x": 1.2511082143,
				"y": -0.4383662116,
				"z": -0.1768713479,
				"element": "C" 
			},
			{
				"x": 2.5455398841,
				"y": -1.0113486868,
				"z": -0.3162625334,
				"element": "C" 
			},
			{
				"x": 3.353722888,
				"y": -0.6884290341,
				"z": -1.3863004017,
				"element": "C" 
			},
			{
				"x": 2.9254926956,
				"y": 0.2150688144,
				"z": -2.3810130428,
				"element": "C" 
			},
			{
				"x": 1.6821539688,
				"y": 0.7956297325,
				"z": -2.2805381765,
				"element": "C" 
			},
			{
				"x": 0.8286112812,
				"y": 0.4916339398,
				"z": -1.1895360043,
				"element": "C" 
			},
			{
				"x": 0.6141272673,
				"y": -1.6147354,
				"z": 2.0020725971,
				"element": "N" 
			},
			{
				"x": 1.5266487545,
				"y": -2.436289611,
				"z": 1.8759998447,
				"element": "O" 
			},
			{
				"x": -0.0995144766,
				"y": -1.5468969512,
				"z": 3.0069404275,
				"element": "O" 
			},
			{
				"x": -1.6685551505,
				"y": 2.334749993,
				"z": -1.9205585746,
				"element": "H" 
			},
			{
				"x": -2.2668624757,
				"y": 1.3321108205,
				"z": 0.0423832407,
				"element": "H" 
			},
			{
				"x": -1.5325157581,
				"y": -0.2553927538,
				"z": 1.8136944001,
				"element": "H" 
			},
			{
				"x": 2.8889889618,
				"y": -1.7106924152,
				"z": 0.4296981775,
				"element": "H" 
			},
			{
				"x": 4.3375937095,
				"y": -1.1426897535,
				"z": -1.4602528631,
				"element": "H" 
			},
			{
				"x": 3.5746887284,
				"y": 0.4533182418,
				"z": -3.2180330773,
				"element": "H" 
			},
			{
				"x": 1.3336490561,
				"y": 1.4980316038,
				"z": -3.0284057826,
				"element": "H" 
			}
		],
		 "valence_orbital": [ 
			{
				"type": "occ",
				"energy": -0.29594,
				"method": "rhf"
			},
			{
				"type": "occ",
				"energy": -0.28466,
				"method": "rhf"
			},
			{
				"type": "occ",
				"energy": -0.2746,
				"method": "rhf"
			},
			{
				"type": "occ",
				"energy": -0.26423,
				"method": "rhf"
			},
			{
				"type": "occ",
				"energy": -0.2274,
				"method": "rhf"
			},
			{
				"type": "unocc",
				"energy": -0.08409,
				"method": "rhf"
			},
			{
				"type": "unocc",
				"energy": -0.03207,
				"method": "rhf"
			},
			{
				"type": "unocc",
				"energy": -0.02844,
				"method": "rhf"
			},
			{
				"type": "unocc",
				"energy": 0.03522,
				"method": "rhf"
			},
			{
				"type": "unocc",
				"energy": 0.04633,
				"method": "rhf"
			}
		],
		"cosmo_sigma_profile": { 
			"-0.025": 0.0,
			"-0.024": 0.0,
			"-0.023": 0.0,
			"-0.022": 0.0,
			"-0.021": 0.0,
			"-0.02": 0.0393443903792,
			"-0.019": 0.882381764379,
			"-0.018": 1.35558113097,
			"-0.017": 1.30227862663,
			"-0.016": 1.45176198415,
			"-0.015": 0.513081820643,
			"-0.014": 0.627939197568,
			"-0.013": 0.75553233895,
			"-0.012": 1.61096210678,
			"-0.011": 1.1483522858,
			"-0.01": 0.975802909719,
			"-0.009": 1.1360277209,
			"-0.008": 2.32656310315,
			"-0.007": 5.00461005066,
			"-0.006": 9.22300365623,
			"-0.005": 10.2216704317,
			"-0.004": 12.7459347812,
			"-0.003": 9.09315627328,
			"-0.002": 10.3411333291,
			"-0.001": 11.5620054194,
			"0.0": 18.3563177345,
			"0.001": 21.7649114497,
			"0.002": 19.010453008,
			"0.003": 15.4242553791,
			"0.004": 12.6544427717,
			"0.005": 3.91587038395,
			"0.006": 5.24745727015,
			"0.007": 6.40826660758,
			"0.008": 7.64906914871,
			"0.009": 5.44217913976,
			"0.01": 4.32466251826,
			"0.011": 2.51948469529,
			"0.012": 0.0669460697725,
			"0.013": 0.0,
			"0.014": 0.0,
			"0.015": 0.0,
			"0.016": 0.0,
			"0.017": 0.0,
			"0.018": 0.0,
			"0.019": 0.0,
			"0.02": 0.0,
			"0.021": 0.0,
			"0.022": 0.0,
			"0.023": 0.0,
			"0.024": 0.0,
			"0.025": 0.0
		}
	}
}
