{
	 "smiles": "CC1=CSC2=C1C(Cl)=NC=N2", 
	 "Tm": 411.15, 
	 "num_atms": 16, 
	 "gaussian": { 
		 "optdone": 1, 
		 "sigma_profile": "yes", 
		 "theory": "DFT", 
		 "functional": "B3LYP", 
		 "basiset": "6-31G**", 
		 "properties": { 
			 "R2extent": 2372.1633, 
			 "electric_dipole_moment_norm": 2.85139591428, 
			 "electric_quadrupole_moment_norm": 5.41173512378, 
			 "total_energy": -1237.63865475, 
			 "HOMO_LUMO_gap": 0.18338, 
			 "cosmo_polarized_energy": -6.59, 
			 "cosmo_cavitation_energy": 23.36, 
			 "cosmo_dispersion_energy": -18.31, 
			 "cosmo_repulsion_energy": 1.39, 
			 "cosmo_total_nonelectrostatic_energy": 6.44, 
			 "SMD_solvation_energy": 0.64 
		},
		"coords": [
			{
				"x": 2.5507480358,
				"y": 0.3194271206,
				"z": 0.5330295125,
				"element": "C" 
			},
			{
				"x": 1.1664443056,
				"y": 0.8132522126,
				"z": 0.2100833599,
				"element": "C" 
			},
			{
				"x": 0.5731247594,
				"y": 1.8425261545,
				"z": 0.8785565902,
				"element": "C" 
			},
			{
				"x": -1.0392219145,
				"y": 2.2535434603,
				"z": 0.3404987289,
				"element": "S" 
			},
			{
				"x": -0.9618884873,
				"y": 0.9869738087,
				"z": -0.8639905528,
				"element": "C" 
			},
			{
				"x": 0.2817151726,
				"y": 0.2980038865,
				"z": -0.8161376425,
				"element": "C" 
			},
			{
				"x": 0.3681546509,
				"y": -0.727456446,
				"z": -1.7774842834,
				"element": "C" 
			},
			{
				"x": 1.8132455877,
				"y": -1.7220557608,
				"z": -1.9135699763,
				"element": "Cl" 
			},
			{
				"x": -0.6006704201,
				"y": -1.0096529137,
				"z": -2.6227578512,
				"element": "N" 
			},
			{
				"x": -1.7226934331,
				"y": -0.2706601707,
				"z": -2.550018075,
				"element": "C" 
			},
			{
				"x": -1.961768236,
				"y": 0.7273816185,
				"z": -1.7051694777,
				"element": "N" 
			},
			{
				"x": 2.5440694563,
				"y": -0.7340592277,
				"z": 0.828201704,
				"element": "H" 
			},
			{
				"x": 2.973983151,
				"y": 0.9017774476,
				"z": 1.3556098069,
				"element": "H" 
			},
			{
				"x": 3.2207066206,
				"y": 0.4066853003,
				"z": -0.3275239533,
				"element": "H" 
			},
			{
				"x": 1.0094830214,
				"y": 2.4078197226,
				"z": 1.6917460313,
				"element": "H" 
			},
			{
				"x": -2.5091322704,
				"y": -0.5208062133,
				"z": -3.2569739214,
				"element": "H" 
			}
		],
		 "valence_orbital": [ 
			{
				"type": "occ",
				"energy": -0.31811,
				"method": "rhf"
			},
			{
				"type": "occ",
				"energy": -0.30999,
				"method": "rhf"
			},
			{
				"type": "occ",
				"energy": -0.27865,
				"method": "rhf"
			},
			{
				"type": "occ",
				"energy": -0.2733,
				"method": "rhf"
			},
			{
				"type": "occ",
				"energy": -0.24238,
				"method": "rhf"
			},
			{
				"type": "unocc",
				"energy": -0.059,
				"method": "rhf"
			},
			{
				"type": "unocc",
				"energy": -0.04255,
				"method": "rhf"
			},
			{
				"type": "unocc",
				"energy": 0.00055,
				"method": "rhf"
			},
			{
				"type": "unocc",
				"energy": 0.01875,
				"method": "rhf"
			},
			{
				"type": "unocc",
				"energy": 0.03473,
				"method": "rhf"
			}
		],
		"cosmo_sigma_profile": { 
			"-0.025": 0.0,
			"-0.024": 0.0,
			"-0.023": 0.0,
			"-0.022": 0.0,
			"-0.021": 0.0,
			"-0.02": 0.0,
			"-0.019": 0.0,
			"-0.018": 0.0,
			"-0.017": 0.0,
			"-0.016": 0.0,
			"-0.015": 0.0,
			"-0.014": 0.0,
			"-0.013": 0.0,
			"-0.012": 0.0,
			"-0.011": 0.0,
			"-0.01": 0.258777437806,
			"-0.009": 2.84610416669,
			"-0.008": 4.30203010211,
			"-0.007": 3.68682250944,
			"-0.006": 4.96513091189,
			"-0.005": 5.65710375881,
			"-0.004": 10.4192691029,
			"-0.003": 15.5222514702,
			"-0.002": 20.4917523911,
			"-0.001": 24.1041133635,
			"0.0": 21.5615795869,
			"0.001": 21.0566085162,
			"0.002": 16.0465383201,
			"0.003": 13.5700542673,
			"0.004": 7.46506604884,
			"0.005": 3.72197245635,
			"0.006": 3.04358460576,
			"0.007": 2.37681421381,
			"0.008": 2.56211120503,
			"0.009": 1.83717132561,
			"0.01": 1.75587567577,
			"0.011": 2.34139276254,
			"0.012": 1.1820225978,
			"0.013": 1.75134076292,
			"0.014": 0.293323839467,
			"0.015": 0.0,
			"0.016": 0.0,
			"0.017": 0.0,
			"0.018": 0.0,
			"0.019": 0.0,
			"0.02": 0.0,
			"0.021": 0.0,
			"0.022": 0.0,
			"0.023": 0.0,
			"0.024": 0.0,
			"0.025": 0.0
		}
	}
}
