{
	 "smiles": "N#CC1=CC(=NC=C1)N1C=NC=N1", 
	 "Tm": 423.15, 
	 "num_atms": 18, 
	 "gaussian": { 
		 "optdone": 1, 
		 "sigma_profile": "yes", 
		 "theory": "DFT", 
		 "functional": "B3LYP", 
		 "basiset": "6-31G**", 
		 "properties": { 
			 "R2extent": 3201.5836, 
			 "electric_dipole_moment_norm": 1.47712934437, 
			 "electric_quadrupole_moment_norm": 16.9537894888, 
			 "total_energy": -581.568897157, 
			 "HOMO_LUMO_gap": 0.1807, 
			 "cosmo_polarized_energy": -18.16, 
			 "cosmo_cavitation_energy": 24.78, 
			 "cosmo_dispersion_energy": -17.79, 
			 "cosmo_repulsion_energy": 1.37, 
			 "cosmo_total_nonelectrostatic_energy": 8.36, 
			 "SMD_solvation_energy": 2.73 
		},
		"coords": [
			{
				"x": -3.1054348257,
				"y": -3.3064794183,
				"z": 1.412895218,
				"element": "N" 
			},
			{
				"x": -2.1335796821,
				"y": -2.6767838836,
				"z": 1.5126921831,
				"element": "C" 
			},
			{
				"x": -0.9334104152,
				"y": -1.898759248,
				"z": 1.6370748134,
				"element": "C" 
			},
			{
				"x": -0.164524686,
				"y": -1.6190032708,
				"z": 0.5029774129,
				"element": "C" 
			},
			{
				"x": 0.997209253,
				"y": -0.8557638897,
				"z": 0.67956356,
				"element": "C" 
			},
			{
				"x": 1.4000729234,
				"y": -0.3897232744,
				"z": 1.8582827869,
				"element": "N" 
			},
			{
				"x": 0.6524155844,
				"y": -0.6673478362,
				"z": 2.9300067393,
				"element": "C" 
			},
			{
				"x": -0.5218233808,
				"y": -1.4143352541,
				"z": 2.8873633865,
				"element": "C" 
			},
			{
				"x": 1.8146129805,
				"y": -0.5421624032,
				"z": -0.4362051671,
				"element": "N" 
			},
			{
				"x": 1.6531485562,
				"y": -0.8811456326,
				"z": -1.7531033848,
				"element": "C" 
			},
			{
				"x": 2.6339248741,
				"y": -0.3943519958,
				"z": -2.4777152693,
				"element": "N" 
			},
			{
				"x": 3.3979214451,
				"y": 0.2551270647,
				"z": -1.5438940031,
				"element": "C" 
			},
			{
				"x": 2.9541862616,
				"y": 0.1992325355,
				"z": -0.3040741307,
				"element": "N" 
			},
			{
				"x": -0.4768745835,
				"y": -1.9899755387,
				"z": -0.4644396369,
				"element": "H" 
			},
			{
				"x": 1.0138742797,
				"y": -0.2694205166,
				"z": 3.8753762617,
				"element": "H" 
			},
			{
				"x": -1.0973692947,
				"y": -1.6153309688,
				"z": 3.7829429809,
				"element": "H" 
			},
			{
				"x": 0.8275240508,
				"y": -1.4682773821,
				"z": -2.1264456413,
				"element": "H" 
			},
			{
				"x": 4.3079266593,
				"y": 0.7832009127,
				"z": -1.7927981095,
				"element": "H" 
			}
		],
		 "valence_orbital": [ 
			{
				"type": "occ",
				"energy": -0.31325,
				"method": "rhf"
			},
			{
				"type": "occ",
				"energy": -0.30496,
				"method": "rhf"
			},
			{
				"type": "occ",
				"energy": -0.29497,
				"method": "rhf"
			},
			{
				"type": "occ",
				"energy": -0.28219,
				"method": "rhf"
			},
			{
				"type": "occ",
				"energy": -0.26982,
				"method": "rhf"
			},
			{
				"type": "unocc",
				"energy": -0.08912,
				"method": "rhf"
			},
			{
				"type": "unocc",
				"energy": -0.06446,
				"method": "rhf"
			},
			{
				"type": "unocc",
				"energy": 0.00124,
				"method": "rhf"
			},
			{
				"type": "unocc",
				"energy": 0.01117,
				"method": "rhf"
			},
			{
				"type": "unocc",
				"energy": 0.0405,
				"method": "rhf"
			}
		],
		"cosmo_sigma_profile": { 
			"-0.025": 0.0,
			"-0.024": 0.0,
			"-0.023": 0.0,
			"-0.022": 0.0,
			"-0.021": 0.0,
			"-0.02": 0.0,
			"-0.019": 0.0,
			"-0.018": 0.0,
			"-0.017": 0.0,
			"-0.016": 0.0,
			"-0.015": 0.151605010189,
			"-0.014": 1.19768098453,
			"-0.013": 1.74315288824,
			"-0.012": 2.20319301427,
			"-0.011": 2.19851429678,
			"-0.01": 2.95646017097,
			"-0.009": 8.24124845798,
			"-0.008": 8.56759649856,
			"-0.007": 9.2706153597,
			"-0.006": 7.7014549158,
			"-0.005": 8.23264909378,
			"-0.004": 12.1817150589,
			"-0.003": 18.3248553815,
			"-0.002": 16.4918725748,
			"-0.001": 13.1232602362,
			"0.0": 9.80074577957,
			"0.001": 8.20483635374,
			"0.002": 6.63181159286,
			"0.003": 6.33387762104,
			"0.004": 6.40599963318,
			"0.005": 5.52425915656,
			"0.006": 7.05754048226,
			"0.007": 5.02541617497,
			"0.008": 5.0750836513,
			"0.009": 6.5349352077,
			"0.01": 5.22166555371,
			"0.011": 5.1751577364,
			"0.012": 3.56633934522,
			"0.013": 2.02572340778,
			"0.014": 2.03398537945,
			"0.015": 2.85148709193,
			"0.016": 1.12249686534,
			"0.017": 0.832426308194,
			"0.018": 0.650271031053,
			"0.019": 0.000833390656535,
			"0.02": 0.0,
			"0.021": 0.0,
			"0.022": 0.0,
			"0.023": 0.0,
			"0.024": 0.0,
			"0.025": 0.0
		}
	}
}
