{
	 "smiles": "CN(C)S(=O)(=O)C1=C(C=CC=C1)C(N)=S", 
	 "Tm": 428.15, 
	 "num_atms": 27, 
	 "gaussian": { 
		 "optdone": 1, 
		 "sigma_profile": "yes", 
		 "theory": "DFT", 
		 "functional": "B3LYP", 
		 "basiset": "6-31G**", 
		 "properties": { 
			 "R2extent": 5439.5698, 
			 "electric_dipole_moment_norm": 8.25743721502, 
			 "electric_quadrupole_moment_norm": 27.0340880014, 
			 "total_energy": -1406.43302338, 
			 "HOMO_LUMO_gap": 0.15913, 
			 "cosmo_polarized_energy": -27.68, 
			 "cosmo_cavitation_energy": 32.55, 
			 "cosmo_dispersion_energy": -23.47, 
			 "cosmo_repulsion_energy": 1.74, 
			 "cosmo_total_nonelectrostatic_energy": 10.82, 
			 "SMD_solvation_energy": 3.01 
		},
		"coords": [
			{
				"x": 1.0826997523,
				"y": -1.0440368732,
				"z": 0.4996865392,
				"element": "C" 
			},
			{
				"x": 1.3715908655,
				"y": -0.2880027267,
				"z": -0.7138322844,
				"element": "N" 
			},
			{
				"x": 0.5856641439,
				"y": -0.6631343253,
				"z": -1.888961268,
				"element": "C" 
			},
			{
				"x": 1.7865995655,
				"y": 1.3434904347,
				"z": -0.5315375215,
				"element": "S" 
			},
			{
				"x": 2.7082553424,
				"y": 1.3987009901,
				"z": 0.6008092766,
				"element": "O" 
			},
			{
				"x": 2.1573167561,
				"y": 1.8054488763,
				"z": -1.8689586624,
				"element": "O" 
			},
			{
				"x": 0.2685408613,
				"y": 2.2263979437,
				"z": -0.0788667254,
				"element": "C" 
			},
			{
				"x": -0.0256094256,
				"y": 2.6810559048,
				"z": 1.2220282085,
				"element": "C" 
			},
			{
				"x": -1.2568453937,
				"y": 3.3273836982,
				"z": 1.4285682691,
				"element": "C" 
			},
			{
				"x": -2.1637122988,
				"y": 3.5158974854,
				"z": 0.3907880816,
				"element": "C" 
			},
			{
				"x": -1.8461896025,
				"y": 3.0890184556,
				"z": -0.8997399171,
				"element": "C" 
			},
			{
				"x": -0.6292271842,
				"y": 2.456717963,
				"z": -1.1317015314,
				"element": "C" 
			},
			{
				"x": 0.8930789768,
				"y": 2.6174634777,
				"z": 2.4150513334,
				"element": "C" 
			},
			{
				"x": 0.8939972741,
				"y": 1.4470137146,
				"z": 3.0809713392,
				"element": "N" 
			},
			{
				"x": 1.7060876752,
				"y": 3.9659815837,
				"z": 2.9329683857,
				"element": "S" 
			},
			{
				"x": 1.2147147966,
				"y": -2.1080992806,
				"z": 0.2815502308,
				"element": "H" 
			},
			{
				"x": 0.0486729957,
				"y": -0.8999032543,
				"z": 0.8585228654,
				"element": "H" 
			},
			{
				"x": 1.7946433035,
				"y": -0.7646570589,
				"z": 1.2763265585,
				"element": "H" 
			},
			{
				"x": 0.7467526854,
				"y": -1.7287391856,
				"z": -2.0787597633,
				"element": "H" 
			},
			{
				"x": 0.9407864696,
				"y": -0.1030499562,
				"z": -2.7534702769,
				"element": "H" 
			},
			{
				"x": -0.4935065077,
				"y": -0.4931069895,
				"z": -1.7530845902,
				"element": "H" 
			},
			{
				"x": -1.4796425413,
				"y": 3.703916631,
				"z": 2.4215441478,
				"element": "H" 
			},
			{
				"x": -3.1069260083,
				"y": 4.0168836206,
				"z": 0.5864036972,
				"element": "H" 
			},
			{
				"x": -2.5316375034,
				"y": 3.2624815352,
				"z": -1.7233463072,
				"element": "H" 
			},
			{
				"x": -0.347714815,
				"y": 2.1666251362,
				"z": -2.1372638429,
				"element": "H" 
			},
			{
				"x": 1.5356729349,
				"y": 1.3370870143,
				"z": 3.854113077,
				"element": "H" 
			},
			{
				"x": 0.4501368815,
				"y": 0.6250651849,
				"z": 2.7002906807,
				"element": "H" 
			}
		],
		 "valence_orbital": [ 
			{
				"type": "occ",
				"energy": -0.28581,
				"method": "rhf"
			},
			{
				"type": "occ",
				"energy": -0.27938,
				"method": "rhf"
			},
			{
				"type": "occ",
				"energy": -0.26141,
				"method": "rhf"
			},
			{
				"type": "occ",
				"energy": -0.2339,
				"method": "rhf"
			},
			{
				"type": "occ",
				"energy": -0.20832,
				"method": "rhf"
			},
			{
				"type": "unocc",
				"energy": -0.04919,
				"method": "rhf"
			},
			{
				"type": "unocc",
				"energy": -0.03885,
				"method": "rhf"
			},
			{
				"type": "unocc",
				"energy": -0.02637,
				"method": "rhf"
			},
			{
				"type": "unocc",
				"energy": 0.04943,
				"method": "rhf"
			},
			{
				"type": "unocc",
				"energy": 0.05138,
				"method": "rhf"
			}
		],
		"cosmo_sigma_profile": { 
			"-0.025": 0.00255361984075,
			"-0.024": 0.0513723124878,
			"-0.023": 0.0453293142826,
			"-0.022": 0.027684037929,
			"-0.021": 0.0576118198776,
			"-0.02": 0.0218534825822,
			"-0.019": 0.00824221769911,
			"-0.018": 0.0418581153009,
			"-0.017": 0.0285823843461,
			"-0.016": 0.18362740222,
			"-0.015": 1.16417339138,
			"-0.014": 2.04400848464,
			"-0.013": 3.52748926998,
			"-0.012": 3.43557670542,
			"-0.011": 1.67966089441,
			"-0.01": 2.87582166189,
			"-0.009": 2.27897535404,
			"-0.008": 2.89037841477,
			"-0.007": 10.5040179774,
			"-0.006": 18.0457540761,
			"-0.005": 20.3451578878,
			"-0.004": 20.5483081727,
			"-0.003": 20.0245705588,
			"-0.002": 15.7165863917,
			"-0.001": 11.1637154032,
			"0.0": 9.03270492486,
			"0.001": 10.1767143428,
			"0.002": 15.5839834523,
			"0.003": 11.18016265,
			"0.004": 6.79616784034,
			"0.005": 7.66816997317,
			"0.006": 8.87343790553,
			"0.007": 9.26638735105,
			"0.008": 9.5913013169,
			"0.009": 10.2602686081,
			"0.01": 11.1799961591,
			"0.011": 11.2031057785,
			"0.012": 3.64802897182,
			"0.013": 0.0439146297022,
			"0.014": 0.0,
			"0.015": 0.0,
			"0.016": 0.0,
			"0.017": 0.0,
			"0.018": 0.0,
			"0.019": 0.0,
			"0.02": 0.0,
			"0.021": 0.0,
			"0.022": 0.0,
			"0.023": 0.0,
			"0.024": 0.0,
			"0.025": 0.0
		}
	}
}
