{
	 "smiles": "SC1=C(Cl)C(Cl)=C(Cl)C(Cl)=C1Cl", 
	 "Tm": 505.15, 
	 "num_atms": 13, 
	 "gaussian": { 
		 "optdone": 1, 
		 "sigma_profile": "yes", 
		 "theory": "DFT", 
		 "functional": "B3LYP", 
		 "basiset": "6-31G**", 
		 "properties": { 
			 "R2extent": 9234.7387, 
			 "electric_dipole_moment_norm": 1.22808441892, 
			 "electric_quadrupole_moment_norm": 7.71147376252, 
			 "total_energy": -2928.35870754, 
			 "HOMO_LUMO_gap": 0.18848, 
			 "cosmo_polarized_energy": -3.82, 
			 "cosmo_cavitation_energy": 27.25, 
			 "cosmo_dispersion_energy": -21.63, 
			 "cosmo_repulsion_energy": 1.65, 
			 "cosmo_total_nonelectrostatic_energy": 7.27, 
			 "SMD_solvation_energy": 2.97 
		},
		"coords": [
			{
				"x": -3.0765678139,
				"y": 2.5884615747,
				"z": -2.9482226395,
				"element": "S" 
			},
			{
				"x": -1.3505641454,
				"y": 2.2221304327,
				"z": -2.7506873838,
				"element": "C" 
			},
			{
				"x": -0.8767109951,
				"y": 1.0137465824,
				"z": -3.2979212856,
				"element": "C" 
			},
			{
				"x": -2.0034043849,
				"y": -0.0268754703,
				"z": -4.1216371679,
				"element": "Cl" 
			},
			{
				"x": 0.4689965335,
				"y": 0.638698393,
				"z": -3.1924964136,
				"element": "C" 
			},
			{
				"x": 1.0128804483,
				"y": -0.8575505338,
				"z": -3.8800838044,
				"element": "Cl" 
			},
			{
				"x": 1.3772898774,
				"y": 1.478685526,
				"z": -2.5278138684,
				"element": "C" 
			},
			{
				"x": 3.0458817175,
				"y": 1.0247747126,
				"z": -2.3911455866,
				"element": "Cl" 
			},
			{
				"x": 0.9256398169,
				"y": 2.6875640089,
				"z": -1.9751250749,
				"element": "C" 
			},
			{
				"x": 2.0449890561,
				"y": 3.7284984827,
				"z": -1.1527721932,
				"element": "Cl" 
			},
			{
				"x": -0.4256313053,
				"y": 3.0524676743,
				"z": -2.0873307459,
				"element": "C" 
			},
			{
				"x": -0.9474069393,
				"y": 4.5640429062,
				"z": -1.3862982427,
				"element": "Cl" 
			},
			{
				"x": -3.0327918659,
				"y": 3.7662557105,
				"z": -2.2995655934,
				"element": "H" 
			}
		],
		 "valence_orbital": [ 
			{
				"type": "occ",
				"energy": -0.3339,
				"method": "rhf"
			},
			{
				"type": "occ",
				"energy": -0.30895,
				"method": "rhf"
			},
			{
				"type": "occ",
				"energy": -0.30398,
				"method": "rhf"
			},
			{
				"type": "occ",
				"energy": -0.26534,
				"method": "rhf"
			},
			{
				"type": "occ",
				"energy": -0.24705,
				"method": "rhf"
			},
			{
				"type": "unocc",
				"energy": -0.05857,
				"method": "rhf"
			},
			{
				"type": "unocc",
				"energy": -0.05532,
				"method": "rhf"
			},
			{
				"type": "unocc",
				"energy": -0.05237,
				"method": "rhf"
			},
			{
				"type": "unocc",
				"energy": 0.00239,
				"method": "rhf"
			},
			{
				"type": "unocc",
				"energy": 0.00697,
				"method": "rhf"
			}
		],
		"cosmo_sigma_profile": { 
			"-0.025": 0.0,
			"-0.024": 0.0,
			"-0.023": 0.0,
			"-0.022": 0.0,
			"-0.021": 0.0,
			"-0.02": 0.0,
			"-0.019": 0.0,
			"-0.018": 0.0,
			"-0.017": 0.0,
			"-0.016": 0.0,
			"-0.015": 0.0,
			"-0.014": 0.0,
			"-0.013": 0.0,
			"-0.012": 0.0999482298929,
			"-0.011": 0.937526761333,
			"-0.01": 0.955602560698,
			"-0.009": 1.27825913317,
			"-0.008": 1.15139712115,
			"-0.007": 1.47567511901,
			"-0.006": 2.12774266554,
			"-0.005": 3.73676789628,
			"-0.004": 9.74594502404,
			"-0.003": 21.964878722,
			"-0.002": 34.2893919558,
			"-0.001": 22.8340038717,
			"0.0": 20.6624754025,
			"0.001": 21.9036008909,
			"0.002": 34.3930499569,
			"0.003": 41.5655011298,
			"0.004": 8.34252964252,
			"0.005": 2.90838832351,
			"0.006": 2.43844650748,
			"0.007": 0.53168739884,
			"0.008": 0.0,
			"0.009": 0.0,
			"0.01": 0.0,
			"0.011": 0.0,
			"0.012": 0.0,
			"0.013": 0.0,
			"0.014": 0.0,
			"0.015": 0.0,
			"0.016": 0.0,
			"0.017": 0.0,
			"0.018": 0.0,
			"0.019": 0.0,
			"0.02": 0.0,
			"0.021": 0.0,
			"0.022": 0.0,
			"0.023": 0.0,
			"0.024": 0.0,
			"0.025": 0.0
		}
	}
}
