{
	 "smiles": "CCCOC1=CC=C(CCC(O)=O)C=C1", 
	 "Tm": 364.15, 
	 "num_atms": 31, 
	 "gaussian": { 
		 "optdone": 1, 
		 "sigma_profile": "yes", 
		 "theory": "DFT", 
		 "functional": "B3LYP", 
		 "basiset": "6-31G**", 
		 "properties": { 
			 "R2extent": 5398.2565, 
			 "electric_dipole_moment_norm": 2.20534962988, 
			 "electric_quadrupole_moment_norm": 8.80688574923, 
			 "total_energy": -692.615909133, 
			 "HOMO_LUMO_gap": 0.2111, 
			 "cosmo_polarized_energy": -11.52, 
			 "cosmo_cavitation_energy": 34.39, 
			 "cosmo_dispersion_energy": -24.5, 
			 "cosmo_repulsion_energy": 1.97, 
			 "cosmo_total_nonelectrostatic_energy": 11.86, 
			 "SMD_solvation_energy": 6.86 
		},
		"coords": [
			{
				"x": 2.0607466679,
				"y": 2.401006557,
				"z": 3.940440905,
				"element": "C" 
			},
			{
				"x": 2.8458876971,
				"y": 2.7888719086,
				"z": 2.6839921695,
				"element": "C" 
			},
			{
				"x": 2.1534879149,
				"y": 2.3859641555,
				"z": 1.3878464344,
				"element": "C" 
			},
			{
				"x": 2.0605125088,
				"y": 0.9634696122,
				"z": 1.3622744516,
				"element": "O" 
			},
			{
				"x": 1.4494699133,
				"y": 0.3617726907,
				"z": 0.2991271802,
				"element": "C" 
			},
			{
				"x": 0.9062109689,
				"y": 1.0403711638,
				"z": -0.7976447379,
				"element": "C" 
			},
			{
				"x": 0.3090414287,
				"y": 0.3111383021,
				"z": -1.8303558774,
				"element": "C" 
			},
			{
				"x": 0.2346919606,
				"y": -1.0842298362,
				"z": -1.8031401411,
				"element": "C" 
			},
			{
				"x": -0.4404462035,
				"y": -1.8475698579,
				"z": -2.9251143178,
				"element": "C" 
			},
			{
				"x": -1.9428846027,
				"y": -2.0947588124,
				"z": -2.6947296629,
				"element": "C" 
			},
			{
				"x": -2.2245650807,
				"y": -3.1677141989,
				"z": -1.6637845008,
				"element": "C" 
			},
			{
				"x": -3.4818046427,
				"y": -3.068404031,
				"z": -1.1698444981,
				"element": "O" 
			},
			{
				"x": -1.4631376954,
				"y": -4.0481507358,
				"z": -1.3233263778,
				"element": "O" 
			},
			{
				"x": 0.7885809377,
				"y": -1.7464616661,
				"z": -0.6940775272,
				"element": "C" 
			},
			{
				"x": 1.3866637053,
				"y": -1.0389129502,
				"z": 0.341256867,
				"element": "C" 
			},
			{
				"x": 1.0787304793,
				"y": 2.8877715586,
				"z": 3.9583994198,
				"element": "H" 
			},
			{
				"x": 2.5972653082,
				"y": 2.6981969821,
				"z": 4.8468547269,
				"element": "H" 
			},
			{
				"x": 1.8995224294,
				"y": 1.3204849152,
				"z": 3.9777618254,
				"element": "H" 
			},
			{
				"x": 3.0022271149,
				"y": 3.8746617849,
				"z": 2.6538690904,
				"element": "H" 
			},
			{
				"x": 3.8405781006,
				"y": 2.3277949449,
				"z": 2.7034671557,
				"element": "H" 
			},
			{
				"x": 1.1472328846,
				"y": 2.8285951796,
				"z": 1.3338093608,
				"element": "H" 
			},
			{
				"x": 2.7246645406,
				"y": 2.7396391684,
				"z": 0.517337692,
				"element": "H" 
			},
			{
				"x": 0.9468818798,
				"y": 2.1211402695,
				"z": -0.8632401553,
				"element": "H" 
			},
			{
				"x": -0.1019468165,
				"y": 0.85225589,
				"z": -2.6802096383,
				"element": "H" 
			},
			{
				"x": -0.3306992726,
				"y": -1.2884373112,
				"z": -3.8608723446,
				"element": "H" 
			},
			{
				"x": 0.0483085989,
				"y": -2.8160078488,
				"z": -3.0700542441,
				"element": "H" 
			},
			{
				"x": -2.4182368708,
				"y": -2.4341633068,
				"z": -3.6256278359,
				"element": "H" 
			},
			{
				"x": -2.4619009141,
				"y": -1.1771633397,
				"z": -2.4015297799,
				"element": "H" 
			},
			{
				"x": -3.5867675103,
				"y": -3.8102247335,
				"z": -0.5501655948,
				"element": "H" 
			},
			{
				"x": 0.7395897158,
				"y": -2.8298996288,
				"z": -0.6454463233,
				"element": "H" 
			},
			{
				"x": 1.8176948542,
				"y": -1.5501368256,
				"z": 1.1962262786,
				"element": "H" 
			}
		],
		 "valence_orbital": [ 
			{
				"type": "occ",
				"energy": -0.31364,
				"method": "rhf"
			},
			{
				"type": "occ",
				"energy": -0.30376,
				"method": "rhf"
			},
			{
				"type": "occ",
				"energy": -0.27483,
				"method": "rhf"
			},
			{
				"type": "occ",
				"energy": -0.24325,
				"method": "rhf"
			},
			{
				"type": "occ",
				"energy": -0.20889,
				"method": "rhf"
			},
			{
				"type": "unocc",
				"energy": 0.00221,
				"method": "rhf"
			},
			{
				"type": "unocc",
				"energy": 0.01233,
				"method": "rhf"
			},
			{
				"type": "unocc",
				"energy": 0.01738,
				"method": "rhf"
			},
			{
				"type": "unocc",
				"energy": 0.08108,
				"method": "rhf"
			},
			{
				"type": "unocc",
				"energy": 0.09485,
				"method": "rhf"
			}
		],
		"cosmo_sigma_profile": { 
			"-0.025": 0.0,
			"-0.024": 0.0,
			"-0.023": 0.0,
			"-0.022": 0.0,
			"-0.021": 0.0,
			"-0.02": 0.0,
			"-0.019": 0.0410219248508,
			"-0.018": 0.598879093616,
			"-0.017": 1.01740581937,
			"-0.016": 1.08628202389,
			"-0.015": 0.294102157552,
			"-0.014": 0.539633171432,
			"-0.013": 0.432283200614,
			"-0.012": 0.979761698903,
			"-0.011": 0.902569406432,
			"-0.01": 0.809837725222,
			"-0.009": 0.359437243161,
			"-0.008": 0.564354602862,
			"-0.007": 2.14222102601,
			"-0.006": 6.10805714316,
			"-0.005": 13.3886184499,
			"-0.004": 23.6365621255,
			"-0.003": 31.8544081412,
			"-0.002": 29.0000791337,
			"-0.001": 25.3944154156,
			"0.0": 23.5343005343,
			"0.001": 18.7415129136,
			"0.002": 12.7317134046,
			"0.003": 11.7376346138,
			"0.004": 14.6338724928,
			"0.005": 13.0685232351,
			"0.006": 13.3801577995,
			"0.007": 5.35161828203,
			"0.008": 4.02286493204,
			"0.009": 3.67096753509,
			"0.01": 3.78430803003,
			"0.011": 2.81818862686,
			"0.012": 2.99494925779,
			"0.013": 0.192744964312,
			"0.014": 0.0,
			"0.015": 0.0,
			"0.016": 0.0,
			"0.017": 0.0,
			"0.018": 0.0,
			"0.019": 0.0,
			"0.02": 0.0,
			"0.021": 0.0,
			"0.022": 0.0,
			"0.023": 0.0,
			"0.024": 0.0,
			"0.025": 0.0
		}
	}
}
