{
	 "smiles": "CC1=C(O)C=C(C=C1)C(N)=O", 
	 "Tm": 455.15, 
	 "num_atms": 20, 
	 "gaussian": { 
		 "optdone": 1, 
		 "sigma_profile": "yes", 
		 "theory": "DFT", 
		 "functional": "B3LYP", 
		 "basiset": "6-31G**", 
		 "properties": { 
			 "R2extent": 2159.8952, 
			 "electric_dipole_moment_norm": 4.83607575313, 
			 "electric_quadrupole_moment_norm": 14.9203193237, 
			 "total_energy": -515.496336351, 
			 "HOMO_LUMO_gap": 0.19364, 
			 "cosmo_polarized_energy": -17.53, 
			 "cosmo_cavitation_energy": 23.92, 
			 "cosmo_dispersion_energy": -17.85, 
			 "cosmo_repulsion_energy": 1.43, 
			 "cosmo_total_nonelectrostatic_energy": 7.51, 
			 "SMD_solvation_energy": 5.14 
		},
		"coords": [
			{
				"x": 2.3310550133,
				"y": 1.4480757614,
				"z": 2.1638507298,
				"element": "C" 
			},
			{
				"x": 1.4951302901,
				"y": 0.4424939206,
				"z": 1.4093957042,
				"element": "C" 
			},
			{
				"x": 0.4816260378,
				"y": 0.8720209536,
				"z": 0.5298876476,
				"element": "C" 
			},
			{
				"x": 0.2093313655,
				"y": 2.1957463559,
				"z": 0.3238789716,
				"element": "O" 
			},
			{
				"x": -0.2930252969,
				"y": -0.0489935339,
				"z": -0.1739096217,
				"element": "C" 
			},
			{
				"x": -0.0843508435,
				"y": -1.4197607066,
				"z": -0.0069527923,
				"element": "C" 
			},
			{
				"x": 0.9269012731,
				"y": -1.8642712765,
				"z": 0.8566736395,
				"element": "C" 
			},
			{
				"x": 1.7000487227,
				"y": -0.9343162126,
				"z": 1.5485405491,
				"element": "C" 
			},
			{
				"x": -0.9648189559,
				"y": -2.3474389982,
				"z": -0.7961685709,
				"element": "C" 
			},
			{
				"x": -1.0058029629,
				"y": -3.6547754913,
				"z": -0.3669123159,
				"element": "N" 
			},
			{
				"x": -1.5955153754,
				"y": -1.9731246499,
				"z": -1.7769625945,
				"element": "O" 
			},
			{
				"x": 1.7192892235,
				"y": 2.0823924452,
				"z": 2.8200221286,
				"element": "H" 
			},
			{
				"x": 3.0672348747,
				"y": 0.9475034521,
				"z": 2.7969038713,
				"element": "H" 
			},
			{
				"x": 2.8865854913,
				"y": 2.1123209213,
				"z": 1.4874894549,
				"element": "H" 
			},
			{
				"x": 0.8116522134,
				"y": 2.7371216615,
				"z": 0.8487603982,
				"element": "H" 
			},
			{
				"x": -1.0610336447,
				"y": 0.296730801,
				"z": -0.8561288754,
				"element": "H" 
			},
			{
				"x": 1.1433250179,
				"y": -2.9225059115,
				"z": 0.9620022092,
				"element": "H" 
			},
			{
				"x": 2.4902678222,
				"y": -1.2800437587,
				"z": 2.2102222278,
				"element": "H" 
			},
			{
				"x": -0.7848329822,
				"y": -3.8799734066,
				"z": 0.5904653652,
				"element": "H" 
			},
			{
				"x": -1.6962672839,
				"y": -4.2333023268,
				"z": -0.8235581262,
				"element": "H" 
			}
		],
		 "valence_orbital": [ 
			{
				"type": "occ",
				"energy": -0.33275,
				"method": "rhf"
			},
			{
				"type": "occ",
				"energy": -0.26795,
				"method": "rhf"
			},
			{
				"type": "occ",
				"energy": -0.2527,
				"method": "rhf"
			},
			{
				"type": "occ",
				"energy": -0.24245,
				"method": "rhf"
			},
			{
				"type": "occ",
				"energy": -0.22485,
				"method": "rhf"
			},
			{
				"type": "unocc",
				"energy": -0.03121,
				"method": "rhf"
			},
			{
				"type": "unocc",
				"energy": 0.00303,
				"method": "rhf"
			},
			{
				"type": "unocc",
				"energy": 0.05965,
				"method": "rhf"
			},
			{
				"type": "unocc",
				"energy": 0.06495,
				"method": "rhf"
			},
			{
				"type": "unocc",
				"energy": 0.08265,
				"method": "rhf"
			}
		],
		"cosmo_sigma_profile": { 
			"-0.025": 0.0,
			"-0.024": 0.0,
			"-0.023": 0.0,
			"-0.022": 0.0,
			"-0.021": 0.0,
			"-0.02": 0.0,
			"-0.019": 0.0,
			"-0.018": 0.0,
			"-0.017": 0.0205145121452,
			"-0.016": 0.690887534519,
			"-0.015": 0.696932495395,
			"-0.014": 1.71851392659,
			"-0.013": 3.50218851661,
			"-0.012": 3.22014482455,
			"-0.011": 3.17614461859,
			"-0.01": 4.30085725069,
			"-0.009": 4.10450961333,
			"-0.008": 3.56107801782,
			"-0.007": 3.95519695433,
			"-0.006": 6.39994908849,
			"-0.005": 11.8004985156,
			"-0.004": 11.7449042544,
			"-0.003": 9.6182085709,
			"-0.002": 9.18497060363,
			"-0.001": 12.1649923336,
			"0.0": 11.7082589552,
			"0.001": 8.67748860311,
			"0.002": 10.8045859788,
			"0.003": 12.4010493954,
			"0.004": 14.1450953053,
			"0.005": 8.95248278066,
			"0.006": 4.37413841379,
			"0.007": 3.95382464183,
			"0.008": 3.10606259912,
			"0.009": 3.09613753581,
			"0.01": 3.09194291422,
			"0.011": 4.19819191518,
			"0.012": 1.88817984329,
			"0.013": 4.24494720246,
			"0.014": 4.65381665469,
			"0.015": 0.335595791066,
			"0.016": 0.0,
			"0.017": 0.0,
			"0.018": 0.0,
			"0.019": 0.0,
			"0.02": 0.0,
			"0.021": 0.0,
			"0.022": 0.0,
			"0.023": 0.0,
			"0.024": 0.0,
			"0.025": 0.0
		}
	}
}
