{
	 "smiles": "CCCCCCCCCCCO", 
	 "Tm": 292.15, 
	 "num_atms": 36, 
	 "gaussian": { 
		 "optdone": 1, 
		 "sigma_profile": "yes", 
		 "theory": "DFT", 
		 "functional": "B3LYP", 
		 "basiset": "6-31G**", 
		 "properties": { 
			 "R2extent": 4966.6527, 
			 "electric_dipole_moment_norm": 1.83429679714, 
			 "electric_quadrupole_moment_norm": 12.4788081654, 
			 "total_energy": -508.871572127, 
			 "HOMO_LUMO_gap": 0.32135, 
			 "cosmo_polarized_energy": -6.01, 
			 "cosmo_cavitation_energy": 35.41, 
			 "cosmo_dispersion_energy": -24.75, 
			 "cosmo_repulsion_energy": 2.04, 
			 "cosmo_total_nonelectrostatic_energy": 12.7, 
			 "SMD_solvation_energy": 4.84 
		},
		"coords": [
			{
				"x": -0.0144601586,
				"y": -3.596793191,
				"z": 2.2185035131,
				"element": "C" 
			},
			{
				"x": -0.9588085076,
				"y": -3.8978960682,
				"z": 1.0485192075,
				"element": "C" 
			},
			{
				"x": -1.4868352793,
				"y": -2.6827168559,
				"z": 0.2631826528,
				"element": "C" 
			},
			{
				"x": -2.4189902084,
				"y": -1.7228409241,
				"z": 1.0348185942,
				"element": "C" 
			},
			{
				"x": -1.7757277227,
				"y": -0.5762225003,
				"z": 1.8425376506,
				"element": "C" 
			},
			{
				"x": -1.0346056081,
				"y": 0.4924867355,
				"z": 1.0000762164,
				"element": "C" 
			},
			{
				"x": 0.4965820892,
				"y": 0.3501209788,
				"z": 0.9851254672,
				"element": "C" 
			},
			{
				"x": 1.2292289915,
				"y": 1.3657214443,
				"z": 0.09090912,
				"element": "C" 
			},
			{
				"x": 1.1242952808,
				"y": 2.8257427492,
				"z": 0.5590308926,
				"element": "C" 
			},
			{
				"x": 1.8738961132,
				"y": 3.8385272717,
				"z": -0.3242338117,
				"element": "C" 
			},
			{
				"x": 3.4009283098,
				"y": 3.7033725762,
				"z": -0.3158855738,
				"element": "C" 
			},
			{
				"x": 3.9767525831,
				"y": 3.9234521476,
				"z": 0.9673561686,
				"element": "O" 
			},
			{
				"x": 0.3784066266,
				"y": -4.5247793507,
				"z": 2.6480321059,
				"element": "H" 
			},
			{
				"x": -0.5185732396,
				"y": -3.054195934,
				"z": 3.0239068085,
				"element": "H" 
			},
			{
				"x": 0.8419805465,
				"y": -2.9933443366,
				"z": 1.8965052561,
				"element": "H" 
			},
			{
				"x": -1.8173341729,
				"y": -4.4747402662,
				"z": 1.4199316757,
				"element": "H" 
			},
			{
				"x": -0.439437641,
				"y": -4.5580074317,
				"z": 0.3412243843,
				"element": "H" 
			},
			{
				"x": -0.6437629756,
				"y": -2.1274219597,
				"z": -0.1676178426,
				"element": "H" 
			},
			{
				"x": -2.0455123935,
				"y": -3.0754580244,
				"z": -0.5962054311,
				"element": "H" 
			},
			{
				"x": -3.0517973552,
				"y": -2.3173773073,
				"z": 1.7088904523,
				"element": "H" 
			},
			{
				"x": -3.1097236858,
				"y": -1.2617005764,
				"z": 0.3159281569,
				"element": "H" 
			},
			{
				"x": -1.0950660509,
				"y": -0.9742940175,
				"z": 2.6039839749,
				"element": "H" 
			},
			{
				"x": -2.584692387,
				"y": -0.0873937277,
				"z": 2.3996116788,
				"element": "H" 
			},
			{
				"x": -1.2899117763,
				"y": 1.4861529496,
				"z": 1.3861761079,
				"element": "H" 
			},
			{
				"x": -1.4095920222,
				"y": 0.4710611182,
				"z": -0.0332608889,
				"element": "H" 
			},
			{
				"x": 0.871910372,
				"y": 0.4371794505,
				"z": 2.0152485425,
				"element": "H" 
			},
			{
				"x": 0.7651907185,
				"y": -0.6606827968,
				"z": 0.6553915464,
				"element": "H" 
			},
			{
				"x": 2.2861914967,
				"y": 1.0737655421,
				"z": 0.0337261519,
				"element": "H" 
			},
			{
				"x": 0.8428862214,
				"y": 1.2895029095,
				"z": -0.9358018951,
				"element": "H" 
			},
			{
				"x": 0.0701666603,
				"y": 3.1227384888,
				"z": 0.6010667892,
				"element": "H" 
			},
			{
				"x": 1.4902624896,
				"y": 2.9067157636,
				"z": 1.5935767216,
				"element": "H" 
			},
			{
				"x": 1.6245103041,
				"y": 4.8538703613,
				"z": 0.0069297299,
				"element": "H" 
			},
			{
				"x": 1.5238276682,
				"y": 3.7488458065,
				"z": -1.3623151956,
				"element": "H" 
			},
			{
				"x": 3.7069399707,
				"y": 2.7272045286,
				"z": -0.7242381541,
				"element": "H" 
			},
			{
				"x": 3.8358973373,
				"y": 4.4685267252,
				"z": -0.9672947904,
				"element": "H" 
			},
			{
				"x": 3.719477405,
				"y": 3.1885777211,
				"z": 1.537564018,
				"element": "H" 
			}
		],
		 "valence_orbital": [ 
			{
				"type": "occ",
				"energy": -0.31233,
				"method": "rhf"
			},
			{
				"type": "occ",
				"energy": -0.30628,
				"method": "rhf"
			},
			{
				"type": "occ",
				"energy": -0.30014,
				"method": "rhf"
			},
			{
				"type": "occ",
				"energy": -0.29708,
				"method": "rhf"
			},
			{
				"type": "occ",
				"energy": -0.25993,
				"method": "rhf"
			},
			{
				"type": "unocc",
				"energy": 0.06142,
				"method": "rhf"
			},
			{
				"type": "unocc",
				"energy": 0.08093,
				"method": "rhf"
			},
			{
				"type": "unocc",
				"energy": 0.09871,
				"method": "rhf"
			},
			{
				"type": "unocc",
				"energy": 0.10123,
				"method": "rhf"
			},
			{
				"type": "unocc",
				"energy": 0.11077,
				"method": "rhf"
			}
		],
		"cosmo_sigma_profile": { 
			"-0.025": 0.0,
			"-0.024": 0.0,
			"-0.023": 0.0,
			"-0.022": 0.0,
			"-0.021": 0.0,
			"-0.02": 0.0,
			"-0.019": 0.0,
			"-0.018": 0.0,
			"-0.017": 0.0,
			"-0.016": 0.0,
			"-0.015": 0.0,
			"-0.014": 0.70008721098,
			"-0.013": 0.659629640351,
			"-0.012": 0.500000667925,
			"-0.011": 0.984978267052,
			"-0.01": 1.45964897744,
			"-0.009": 1.1153244177,
			"-0.008": 1.06974275693,
			"-0.007": 1.06050991975,
			"-0.006": 1.26242333801,
			"-0.005": 1.79824549139,
			"-0.004": 3.275048495,
			"-0.003": 10.1378940851,
			"-0.002": 36.4596173522,
			"-0.001": 59.6386560317,
			"0.0": 60.6006011937,
			"0.001": 51.0053905675,
			"0.002": 20.4663400343,
			"0.003": 1.81838609411,
			"0.004": 0.946639471722,
			"0.005": 1.05883976069,
			"0.006": 1.71519694929,
			"0.007": 1.2049504835,
			"0.008": 1.57874723806,
			"0.009": 1.08686311473,
			"0.01": 0.957617793907,
			"0.011": 1.07338367915,
			"0.012": 1.29151201525,
			"0.013": 2.2082373548,
			"0.014": 1.77386686575,
			"0.015": 1.86994864089,
			"0.016": 0.00245236592666,
			"0.017": 0.0,
			"0.018": 0.0,
			"0.019": 0.0,
			"0.02": 0.0,
			"0.021": 0.0,
			"0.022": 0.0,
			"0.023": 0.0,
			"0.024": 0.0,
			"0.025": 0.0
		}
	}
}
