{
	 "smiles": "COCC1=C(C=CC=C1)S(N)(=O)=O", 
	 "Tm": 333.15, 
	 "num_atms": 24, 
	 "gaussian": { 
		 "optdone": 1, 
		 "sigma_profile": "yes", 
		 "theory": "DFT", 
		 "functional": "B3LYP", 
		 "basiset": "6-31G**", 
		 "properties": { 
			 "R2extent": 2813.5568, 
			 "electric_dipole_moment_norm": 5.3354455962, 
			 "electric_quadrupole_moment_norm": 12.5951541856, 
			 "total_energy": -990.00793415, 
			 "HOMO_LUMO_gap": 0.22237, 
			 "cosmo_polarized_energy": -15.8, 
			 "cosmo_cavitation_energy": 27.79, 
			 "cosmo_dispersion_energy": -20.79, 
			 "cosmo_repulsion_energy": 1.58, 
			 "cosmo_total_nonelectrostatic_energy": 8.58, 
			 "SMD_solvation_energy": 4.8 
		},
		"coords": [
			{
				"x": 0.0275527291,
				"y": 3.2053234771,
				"z": -0.5056012294,
				"element": "C" 
			},
			{
				"x": 0.0089461977,
				"y": 2.2979225878,
				"z": -1.5993620751,
				"element": "O" 
			},
			{
				"x": -0.9451569001,
				"y": 1.2402007746,
				"z": -1.4573827478,
				"element": "C" 
			},
			{
				"x": -0.5951774568,
				"y": 0.2364290862,
				"z": -0.3699899642,
				"element": "C" 
			},
			{
				"x": 0.5087705339,
				"y": -0.6384218551,
				"z": -0.4406279458,
				"element": "C" 
			},
			{
				"x": 0.7871773185,
				"y": -1.546867685,
				"z": 0.5796923043,
				"element": "C" 
			},
			{
				"x": -0.035606361,
				"y": -1.6016219632,
				"z": 1.7058849117,
				"element": "C" 
			},
			{
				"x": -1.1299313633,
				"y": -0.7456551123,
				"z": 1.8022477518,
				"element": "C" 
			},
			{
				"x": -1.3975391117,
				"y": 0.161113897,
				"z": 0.7742980008,
				"element": "C" 
			},
			{
				"x": 1.6050538527,
				"y": -0.7099664588,
				"z": -1.8739947251,
				"element": "S" 
			},
			{
				"x": 2.4572830139,
				"y": 0.7332391137,
				"z": -1.7041170666,
				"element": "N" 
			},
			{
				"x": 2.5821428982,
				"y": -1.7834792998,
				"z": -1.6713333403,
				"element": "O" 
			},
			{
				"x": 0.7663578169,
				"y": -0.7128409699,
				"z": -3.0819199955,
				"element": "O" 
			},
			{
				"x": -0.9605189257,
				"y": 3.6658513726,
				"z": -0.360724853,
				"element": "H" 
			},
			{
				"x": 0.7489908036,
				"y": 3.986650883,
				"z": -0.7541556017,
				"element": "H" 
			},
			{
				"x": 0.3322902039,
				"y": 2.7195946234,
				"z": 0.4302558003,
				"element": "H" 
			},
			{
				"x": -0.9754405477,
				"y": 0.7507467955,
				"z": -2.4315175612,
				"element": "H" 
			},
			{
				"x": -1.9342962599,
				"y": 1.6680168959,
				"z": -1.2409329151,
				"element": "H" 
			},
			{
				"x": 1.6415622156,
				"y": -2.2060560007,
				"z": 0.4745101578,
				"element": "H" 
			},
			{
				"x": 0.1801046313,
				"y": -2.3116981451,
				"z": 2.4982487589,
				"element": "H" 
			},
			{
				"x": -1.7773926072,
				"y": -0.7800202891,
				"z": 2.6734513054,
				"element": "H" 
			},
			{
				"x": -2.2552763613,
				"y": 0.8241796372,
				"z": 0.853855667,
				"element": "H" 
			},
			{
				"x": 3.2925374313,
				"y": 0.6845933026,
				"z": -2.2840781406,
				"element": "H" 
			},
			{
				"x": 1.8445662481,
				"y": 1.5150653323,
				"z": -1.9519064966,
				"element": "H" 
			}
		],
		 "valence_orbital": [ 
			{
				"type": "occ",
				"energy": -0.29916,
				"method": "rhf"
			},
			{
				"type": "occ",
				"energy": -0.28276,
				"method": "rhf"
			},
			{
				"type": "occ",
				"energy": -0.27763,
				"method": "rhf"
			},
			{
				"type": "occ",
				"energy": -0.27101,
				"method": "rhf"
			},
			{
				"type": "occ",
				"energy": -0.26429,
				"method": "rhf"
			},
			{
				"type": "unocc",
				"energy": -0.04192,
				"method": "rhf"
			},
			{
				"type": "unocc",
				"energy": -0.02407,
				"method": "rhf"
			},
			{
				"type": "unocc",
				"energy": 0.06229,
				"method": "rhf"
			},
			{
				"type": "unocc",
				"energy": 0.08046,
				"method": "rhf"
			},
			{
				"type": "unocc",
				"energy": 0.08559,
				"method": "rhf"
			}
		],
		"cosmo_sigma_profile": { 
			"-0.025": 0.0,
			"-0.024": 0.0,
			"-0.023": 0.0,
			"-0.022": 0.0,
			"-0.021": 0.0,
			"-0.02": 0.0,
			"-0.019": 0.0,
			"-0.018": 0.0,
			"-0.017": 0.0,
			"-0.016": 0.0,
			"-0.015": 1.05365633988,
			"-0.014": 1.19337420287,
			"-0.013": 1.47314326048,
			"-0.012": 1.20687894247,
			"-0.011": 1.47280219074,
			"-0.01": 1.48917069518,
			"-0.009": 1.2226399078,
			"-0.008": 1.52881703276,
			"-0.007": 8.53064778332,
			"-0.006": 13.4441001274,
			"-0.005": 16.986960015,
			"-0.004": 17.0848699064,
			"-0.003": 20.0507469732,
			"-0.002": 17.3919121606,
			"-0.001": 12.2719814106,
			"0.0": 11.6502138271,
			"0.001": 13.3299259085,
			"0.002": 14.7204855364,
			"0.003": 13.7111440957,
			"0.004": 5.268980711,
			"0.005": 3.21111602287,
			"0.006": 4.89691911812,
			"0.007": 4.80311409929,
			"0.008": 3.40925368042,
			"0.009": 5.64948282668,
			"0.01": 7.21164569395,
			"0.011": 9.88499945275,
			"0.012": 6.11512805395,
			"0.013": 0.360522686736,
			"0.014": 0.0,
			"0.015": 0.0,
			"0.016": 0.0,
			"0.017": 0.0,
			"0.018": 0.0,
			"0.019": 0.0,
			"0.02": 0.0,
			"0.021": 0.0,
			"0.022": 0.0,
			"0.023": 0.0,
			"0.024": 0.0,
			"0.025": 0.0
		}
	}
}
