{
	 "smiles": "OC(=O)CNC(=O)OCC(F)(F)F", 
	 "Tm": 372.15, 
	 "num_atms": 19, 
	 "gaussian": { 
		 "optdone": 1, 
		 "sigma_profile": "yes", 
		 "theory": "DFT", 
		 "functional": "B3LYP", 
		 "basiset": "6-31G**", 
		 "properties": { 
			 "R2extent": 4586.7136, 
			 "electric_dipole_moment_norm": 3.95392058216, 
			 "electric_quadrupole_moment_norm": 14.5414058461, 
			 "total_energy": -849.344821585, 
			 "HOMO_LUMO_gap": 0.27534, 
			 "cosmo_polarized_energy": -19.01, 
			 "cosmo_cavitation_energy": 26.25, 
			 "cosmo_dispersion_energy": -18.37, 
			 "cosmo_repulsion_energy": 1.45, 
			 "cosmo_total_nonelectrostatic_energy": 9.33, 
			 "SMD_solvation_energy": 8.35 
		},
		"coords": [
			{
				"x": -1.6317101756,
				"y": -1.8798383996,
				"z": -0.2165522805,
				"element": "O" 
			},
			{
				"x": -2.0399520259,
				"y": -1.2025858146,
				"z": 0.8746732132,
				"element": "C" 
			},
			{
				"x": -2.844028495,
				"y": -1.6498213341,
				"z": 1.6521255336,
				"element": "O" 
			},
			{
				"x": -1.3867121052,
				"y": 0.1699436919,
				"z": 1.0825721788,
				"element": "C" 
			},
			{
				"x": -0.753307793,
				"y": 0.7047054697,
				"z": -0.1164409561,
				"element": "N" 
			},
			{
				"x": 0.5571535513,
				"y": 1.1277778658,
				"z": -0.0781344756,
				"element": "C" 
			},
			{
				"x": 1.353588485,
				"y": 0.8865143372,
				"z": 0.8017276623,
				"element": "O" 
			},
			{
				"x": 0.8323759533,
				"y": 1.8183146918,
				"z": -1.2254126975,
				"element": "O" 
			},
			{
				"x": 2.1343448185,
				"y": 2.3918038091,
				"z": -1.3118504208,
				"element": "C" 
			},
			{
				"x": 2.044327941,
				"y": 3.8873706834,
				"z": -1.0569445198,
				"element": "C" 
			},
			{
				"x": 3.278475493,
				"y": 4.4260492295,
				"z": -1.1161038132,
				"element": "F" 
			},
			{
				"x": 1.5236117359,
				"y": 4.1468038984,
				"z": 0.1566285464,
				"element": "F" 
			},
			{
				"x": 1.2748682242,
				"y": 4.5036928323,
				"z": -1.9737004625,
				"element": "F" 
			},
			{
				"x": -0.9957117549,
				"y": -1.3195919994,
				"z": -0.6954037241,
				"element": "H" 
			},
			{
				"x": -2.148983139,
				"y": 0.8461407357,
				"z": 1.4793972974,
				"element": "H" 
			},
			{
				"x": -0.6079500387,
				"y": 0.0610996713,
				"z": 1.8430076443,
				"element": "H" 
			},
			{
				"x": -1.3374551393,
				"y": 1.1829051514,
				"z": -0.7906886423,
				"element": "H" 
			},
			{
				"x": 2.5064018128,
				"y": 2.2255540054,
				"z": -2.324373701,
				"element": "H" 
			},
			{
				"x": 2.8024626517,
				"y": 1.9415614748,
				"z": -0.5760263825,
				"element": "H" 
			}
		],
		 "valence_orbital": [ 
			{
				"type": "occ",
				"energy": -0.33533,
				"method": "rhf"
			},
			{
				"type": "occ",
				"energy": -0.32072,
				"method": "rhf"
			},
			{
				"type": "occ",
				"energy": -0.31961,
				"method": "rhf"
			},
			{
				"type": "occ",
				"energy": -0.31339,
				"method": "rhf"
			},
			{
				"type": "occ",
				"energy": -0.27312,
				"method": "rhf"
			},
			{
				"type": "unocc",
				"energy": 0.00222,
				"method": "rhf"
			},
			{
				"type": "unocc",
				"energy": 0.01015,
				"method": "rhf"
			},
			{
				"type": "unocc",
				"energy": 0.04964,
				"method": "rhf"
			},
			{
				"type": "unocc",
				"energy": 0.07558,
				"method": "rhf"
			},
			{
				"type": "unocc",
				"energy": 0.09407,
				"method": "rhf"
			}
		],
		"cosmo_sigma_profile": { 
			"-0.025": 0.0,
			"-0.024": 0.0,
			"-0.023": 0.0,
			"-0.022": 0.0,
			"-0.021": 0.0,
			"-0.02": 0.0,
			"-0.019": 0.0,
			"-0.018": 0.0,
			"-0.017": 0.0,
			"-0.016": 1.14278836715,
			"-0.015": 2.28764063152,
			"-0.014": 2.05991134426,
			"-0.013": 2.0820469852,
			"-0.012": 2.79018362094,
			"-0.011": 3.12680458505,
			"-0.01": 3.60041595257,
			"-0.009": 5.51200186245,
			"-0.008": 9.40226743351,
			"-0.007": 9.68792635397,
			"-0.006": 8.4638896446,
			"-0.005": 10.0060954992,
			"-0.004": 7.63883178501,
			"-0.003": 6.50727422149,
			"-0.002": 6.69771504667,
			"-0.001": 6.79827877763,
			"0.0": 8.50689467721,
			"0.001": 10.9827941186,
			"0.002": 27.9292888369,
			"0.003": 22.5120715974,
			"0.004": 6.2240533602,
			"0.005": 4.32328684753,
			"0.006": 3.39628115674,
			"0.007": 3.82218574868,
			"0.008": 3.70782955469,
			"0.009": 6.09447345229,
			"0.01": 6.75906331519,
			"0.011": 8.99366450033,
			"0.012": 6.14063939785,
			"0.013": 1.54908622734,
			"0.014": 0.0148000277585,
			"0.015": 0.0,
			"0.016": 0.0,
			"0.017": 0.0,
			"0.018": 0.0,
			"0.019": 0.0,
			"0.02": 0.0,
			"0.021": 0.0,
			"0.022": 0.0,
			"0.023": 0.0,
			"0.024": 0.0,
			"0.025": 0.0
		}
	}
}
