{
	 "smiles": "CCC1=CC2=C(S1)N(C)C(=O)CN=C2C1=C(Cl)C=CC=C1", 
	 "Tm": 392.15, 
	 "num_atms": 36, 
	 "gaussian": { 
		 "optdone": 1, 
		 "sigma_profile": "yes", 
		 "theory": "DFT", 
		 "functional": "B3LYP", 
		 "basiset": "6-31G**", 
		 "properties": { 
			 "R2extent": 8033.4553, 
			 "electric_dipole_moment_norm": 5.6819491462, 
			 "electric_quadrupole_moment_norm": 15.6018005807, 
			 "total_energy": -1661.84028377, 
			 "HOMO_LUMO_gap": 0.16817, 
			 "cosmo_polarized_energy": -14.12, 
			 "cosmo_cavitation_energy": 42.2, 
			 "cosmo_dispersion_energy": -29.58, 
			 "cosmo_repulsion_energy": 2.26, 
			 "cosmo_total_nonelectrostatic_energy": 14.88, 
			 "SMD_solvation_energy": 4.6 
		},
		"coords": [
			{
				"x": -1.5628575747,
				"y": 4.6939403256,
				"z": 1.5584531773,
				"element": "C" 
			},
			{
				"x": -1.9466969125,
				"y": 3.4182920377,
				"z": 0.7877348776,
				"element": "C" 
			},
			{
				"x": -1.1926460645,
				"y": 2.1894007773,
				"z": 1.2122913429,
				"element": "C" 
			},
			{
				"x": -0.2565306529,
				"y": 1.4820214467,
				"z": 0.5210992678,
				"element": "C" 
			},
			{
				"x": 0.2853336793,
				"y": 0.3490629435,
				"z": 1.2222461047,
				"element": "C" 
			},
			{
				"x": -0.2770052139,
				"y": 0.2056617965,
				"z": 2.4823797736,
				"element": "C" 
			},
			{
				"x": -1.4558146677,
				"y": 1.4719964674,
				"z": 2.7972712768,
				"element": "S" 
			},
			{
				"x": -0.0503609928,
				"y": -0.791102062,
				"z": 3.4246770681,
				"element": "N" 
			},
			{
				"x": -1.1388315382,
				"y": -1.1841240788,
				"z": 4.3252546844,
				"element": "C" 
			},
			{
				"x": 1.2128001578,
				"y": -1.3662556106,
				"z": 3.6430479619,
				"element": "C" 
			},
			{
				"x": 1.3802684122,
				"y": -2.2278272077,
				"z": 4.4869393684,
				"element": "O" 
			},
			{
				"x": 2.3312939719,
				"y": -0.8326155337,
				"z": 2.7540875316,
				"element": "C" 
			},
			{
				"x": 2.1657090658,
				"y": -1.2085039806,
				"z": 1.3559920631,
				"element": "N" 
			},
			{
				"x": 1.2645761599,
				"y": -0.5997728858,
				"z": 0.6699404796,
				"element": "C" 
			},
			{
				"x": 1.17048881,
				"y": -0.9152929178,
				"z": -0.7927057602,
				"element": "C" 
			},
			{
				"x": 2.2593524239,
				"y": -0.8388841696,
				"z": -1.6784037823,
				"element": "C" 
			},
			{
				"x": 3.8298246386,
				"y": -0.2437643376,
				"z": -1.1614952764,
				"element": "Cl" 
			},
			{
				"x": 2.1227973257,
				"y": -1.1884062245,
				"z": -3.0233976802,
				"element": "C" 
			},
			{
				"x": 0.8915541728,
				"y": -1.6255403269,
				"z": -3.5084122576,
				"element": "C" 
			},
			{
				"x": -0.2080251913,
				"y": -1.6983821297,
				"z": -2.6528061785,
				"element": "C" 
			},
			{
				"x": -0.0632537079,
				"y": -1.3369596203,
				"z": -1.3160310134,
				"element": "C" 
			},
			{
				"x": -0.4963214093,
				"y": 4.9108587194,
				"z": 1.4467478443,
				"element": "H" 
			},
			{
				"x": -1.7730615451,
				"y": 4.5914422664,
				"z": 2.627908628,
				"element": "H" 
			},
			{
				"x": -2.1292932732,
				"y": 5.5533999042,
				"z": 1.186021784,
				"element": "H" 
			},
			{
				"x": -1.7554438629,
				"y": 3.5638742382,
				"z": -0.2816075185,
				"element": "H" 
			},
			{
				"x": -3.026582656,
				"y": 3.2460746726,
				"z": 0.8861676146,
				"element": "H" 
			},
			{
				"x": 0.0551451887,
				"y": 1.7481215801,
				"z": -0.4827470772,
				"element": "H" 
			},
			{
				"x": -1.3507278753,
				"y": -0.395295236,
				"z": 5.0565869674,
				"element": "H" 
			},
			{
				"x": -0.8141898608,
				"y": -2.077838344,
				"z": 4.8551094441,
				"element": "H" 
			},
			{
				"x": -2.042941036,
				"y": -1.3910602757,
				"z": 3.7478826147,
				"element": "H" 
			},
			{
				"x": 2.3750598798,
				"y": 0.2621175255,
				"z": 2.8687132294,
				"element": "H" 
			},
			{
				"x": 3.2561849918,
				"y": -1.2693725056,
				"z": 3.1318854857,
				"element": "H" 
			},
			{
				"x": 2.9820713603,
				"y": -1.1112618185,
				"z": -3.6802655121,
				"element": "H" 
			},
			{
				"x": 0.7952677248,
				"y": -1.9008025024,
				"z": -4.5544469651,
				"element": "H" 
			},
			{
				"x": -1.1717834567,
				"y": -2.034232766,
				"z": -3.0228399253,
				"element": "H" 
			},
			{
				"x": -0.9149604718,
				"y": -1.3914701671,
				"z": -0.6447796432,
				"element": "H" 
			}
		],
		 "valence_orbital": [ 
			{
				"type": "occ",
				"energy": -0.26727,
				"method": "rhf"
			},
			{
				"type": "occ",
				"energy": -0.25114,
				"method": "rhf"
			},
			{
				"type": "occ",
				"energy": -0.24802,
				"method": "rhf"
			},
			{
				"type": "occ",
				"energy": -0.24064,
				"method": "rhf"
			},
			{
				"type": "occ",
				"energy": -0.21676,
				"method": "rhf"
			},
			{
				"type": "unocc",
				"energy": -0.04859,
				"method": "rhf"
			},
			{
				"type": "unocc",
				"energy": -0.02744,
				"method": "rhf"
			},
			{
				"type": "unocc",
				"energy": -0.01362,
				"method": "rhf"
			},
			{
				"type": "unocc",
				"energy": 0.00045,
				"method": "rhf"
			},
			{
				"type": "unocc",
				"energy": 0.01149,
				"method": "rhf"
			}
		],
		"cosmo_sigma_profile": { 
			"-0.025": 0.0,
			"-0.024": 0.0,
			"-0.023": 0.0,
			"-0.022": 0.0,
			"-0.021": 0.0,
			"-0.02": 0.0,
			"-0.019": 0.0,
			"-0.018": 0.0,
			"-0.017": 0.0,
			"-0.016": 0.0,
			"-0.015": 0.0,
			"-0.014": 0.0,
			"-0.013": 0.0,
			"-0.012": 0.0,
			"-0.011": 0.0,
			"-0.01": 0.0,
			"-0.009": 0.0,
			"-0.008": 0.0523966931626,
			"-0.007": 4.94051934082,
			"-0.006": 17.2156042862,
			"-0.005": 25.1532582394,
			"-0.004": 30.87807623,
			"-0.003": 33.2652322472,
			"-0.002": 30.6886117754,
			"-0.001": 31.778119028,
			"0.0": 27.5859863474,
			"0.001": 26.7689967582,
			"0.002": 25.441726007,
			"0.003": 27.0014321705,
			"0.004": 20.5127478448,
			"0.005": 9.44753343986,
			"0.006": 3.88981696588,
			"0.007": 3.15711070375,
			"0.008": 2.29013731293,
			"0.009": 3.03747183758,
			"0.01": 3.29783092899,
			"0.011": 3.89698464689,
			"0.012": 4.85994192031,
			"0.013": 2.94810056182,
			"0.014": 0.746828633156,
			"0.015": 0.982725542532,
			"0.016": 0.21209829426,
			"0.017": 0.0,
			"0.018": 0.0,
			"0.019": 0.0,
			"0.02": 0.0,
			"0.021": 0.0,
			"0.022": 0.0,
			"0.023": 0.0,
			"0.024": 0.0,
			"0.025": 0.0
		}
	}
}
