{
	 "smiles": "OCC1=C2C=CC=CC2=CN=C1", 
	 "Tm": 360.15, 
	 "num_atms": 21, 
	 "gaussian": { 
		 "optdone": 1, 
		 "sigma_profile": "yes", 
		 "theory": "DFT", 
		 "functional": "B3LYP", 
		 "basiset": "6-31G**", 
		 "properties": { 
			 "R2extent": 2657.067, 
			 "electric_dipole_moment_norm": 1.54323725979, 
			 "electric_quadrupole_moment_norm": 6.06307200023, 
			 "total_energy": -516.457145857, 
			 "HOMO_LUMO_gap": 0.17492, 
			 "cosmo_polarized_energy": -9.96, 
			 "cosmo_cavitation_energy": 24.39, 
			 "cosmo_dispersion_energy": -18.21, 
			 "cosmo_repulsion_energy": 1.42, 
			 "cosmo_total_nonelectrostatic_energy": 7.61, 
			 "SMD_solvation_energy": 2.57 
		},
		"coords": [
			{
				"x": -3.9666921546,
				"y": 1.3634547419,
				"z": -1.5880117018,
				"element": "O" 
			},
			{
				"x": -3.2779036793,
				"y": 1.876011884,
				"z": -0.4486387295,
				"element": "C" 
			},
			{
				"x": -1.7719127451,
				"y": 1.8570534058,
				"z": -0.5776336485,
				"element": "C" 
			},
			{
				"x": -1.0472078973,
				"y": 0.6487710033,
				"z": -0.8313742225,
				"element": "C" 
			},
			{
				"x": -1.6562292029,
				"y": -0.6208174653,
				"z": -1.0280220285,
				"element": "C" 
			},
			{
				"x": -0.8777496442,
				"y": -1.7382459195,
				"z": -1.2422780287,
				"element": "C" 
			},
			{
				"x": 0.535245853,
				"y": -1.6480302882,
				"z": -1.2805033622,
				"element": "C" 
			},
			{
				"x": 1.1518072423,
				"y": -0.4295236304,
				"z": -1.107323404,
				"element": "C" 
			},
			{
				"x": 0.3781590641,
				"y": 0.7376094291,
				"z": -0.8808115114,
				"element": "C" 
			},
			{
				"x": 0.9758429794,
				"y": 2.0156275452,
				"z": -0.6966767912,
				"element": "C" 
			},
			{
				"x": 0.3032563242,
				"y": 3.1251577097,
				"z": -0.480971333,
				"element": "N" 
			},
			{
				"x": -1.0528763805,
				"y": 3.0251489138,
				"z": -0.4242420805,
				"element": "C" 
			},
			{
				"x": -3.6418682603,
				"y": 1.8407405666,
				"z": -2.3630934055,
				"element": "H" 
			},
			{
				"x": -3.5959955283,
				"y": 1.2384330594,
				"z": 0.3841678634,
				"element": "H" 
			},
			{
				"x": -3.6048074769,
				"y": 2.9000743297,
				"z": -0.2138006059,
				"element": "H" 
			},
			{
				"x": -2.7376008014,
				"y": -0.6913716613,
				"z": -1.03951163,
				"element": "H" 
			},
			{
				"x": -1.3535737951,
				"y": -2.7034182523,
				"z": -1.3915553534,
				"element": "H" 
			},
			{
				"x": 1.1269861323,
				"y": -2.5422403037,
				"z": -1.4524723537,
				"element": "H" 
			},
			{
				"x": 2.2349689069,
				"y": -0.3441748528,
				"z": -1.1407769066,
				"element": "H" 
			},
			{
				"x": 2.063109114,
				"y": 2.0980081079,
				"z": -0.7354890308,
				"element": "H" 
			},
			{
				"x": -1.5791580503,
				"y": 3.9599316771,
				"z": -0.2353817358,
				"element": "H" 
			}
		],
		 "valence_orbital": [ 
			{
				"type": "occ",
				"energy": -0.29819,
				"method": "rhf"
			},
			{
				"type": "occ",
				"energy": -0.27474,
				"method": "rhf"
			},
			{
				"type": "occ",
				"energy": -0.26364,
				"method": "rhf"
			},
			{
				"type": "occ",
				"energy": -0.25236,
				"method": "rhf"
			},
			{
				"type": "occ",
				"energy": -0.22955,
				"method": "rhf"
			},
			{
				"type": "unocc",
				"energy": -0.05463,
				"method": "rhf"
			},
			{
				"type": "unocc",
				"energy": -0.0235,
				"method": "rhf"
			},
			{
				"type": "unocc",
				"energy": 0.01832,
				"method": "rhf"
			},
			{
				"type": "unocc",
				"energy": 0.07713,
				"method": "rhf"
			},
			{
				"type": "unocc",
				"energy": 0.09059,
				"method": "rhf"
			}
		],
		"cosmo_sigma_profile": { 
			"-0.025": 0.0,
			"-0.024": 0.0,
			"-0.023": 0.0,
			"-0.022": 0.0,
			"-0.021": 0.0,
			"-0.02": 0.0,
			"-0.019": 0.0,
			"-0.018": 0.0,
			"-0.017": 0.0,
			"-0.016": 0.153039675119,
			"-0.015": 0.852804397382,
			"-0.014": 1.36496287874,
			"-0.013": 0.507461648583,
			"-0.012": 0.566396758702,
			"-0.011": 1.04620282076,
			"-0.01": 1.05721577867,
			"-0.009": 0.807381931735,
			"-0.008": 0.761033868177,
			"-0.007": 4.13808511532,
			"-0.006": 13.2045256796,
			"-0.005": 16.2475679793,
			"-0.004": 16.5512507962,
			"-0.003": 13.629392741,
			"-0.002": 13.3054637366,
			"-0.001": 9.87620245795,
			"0.0": 10.7629657891,
			"0.001": 15.5620187441,
			"0.002": 17.122186347,
			"0.003": 15.4470049093,
			"0.004": 14.0738718313,
			"0.005": 5.21780000313,
			"0.006": 2.26172901616,
			"0.007": 1.97366343194,
			"0.008": 3.31489497802,
			"0.009": 2.61668181607,
			"0.01": 1.78414502322,
			"0.011": 1.1593227596,
			"0.012": 2.68802192152,
			"0.013": 2.28289419212,
			"0.014": 2.17603818532,
			"0.015": 1.07037485151,
			"0.016": 0.765437860914,
			"0.017": 0.437100882817,
			"0.018": 0.0,
			"0.019": 0.0,
			"0.02": 0.0,
			"0.021": 0.0,
			"0.022": 0.0,
			"0.023": 0.0,
			"0.024": 0.0,
			"0.025": 0.0
		}
	}
}
