{
	 "smiles": "NCC1=CC=C(C=C1)C1=CN=CC=C1", 
	 "Tm": 340.15, 
	 "num_atms": 26, 
	 "gaussian": { 
		 "optdone": 1, 
		 "sigma_profile": "yes", 
		 "theory": "DFT", 
		 "functional": "B3LYP", 
		 "basiset": "6-31G**", 
		 "properties": { 
			 "R2extent": 4406.0396, 
			 "electric_dipole_moment_norm": 2.02587124221, 
			 "electric_quadrupole_moment_norm": 15.4688209512, 
			 "total_energy": -574.009325438, 
			 "HOMO_LUMO_gap": 0.18656, 
			 "cosmo_polarized_energy": -11.39, 
			 "cosmo_cavitation_energy": 29.89, 
			 "cosmo_dispersion_energy": -21.67, 
			 "cosmo_repulsion_energy": 1.7, 
			 "cosmo_total_nonelectrostatic_energy": 9.92, 
			 "SMD_solvation_energy": 1.97 
		},
		"coords": [
			{
				"x": -1.9968265231,
				"y": -3.3361495487,
				"z": 2.2878270284,
				"element": "N" 
			},
			{
				"x": -2.2423035431,
				"y": -1.9310786492,
				"z": 1.9208416318,
				"element": "C" 
			},
			{
				"x": -1.0391760939,
				"y": -1.1784591476,
				"z": 1.3800692774,
				"element": "C" 
			},
			{
				"x": -0.1648160661,
				"y": -0.500279721,
				"z": 2.2399265314,
				"element": "C" 
			},
			{
				"x": 0.9735499246,
				"y": 0.1392621127,
				"z": 1.7545473993,
				"element": "C" 
			},
			{
				"x": 1.2772369609,
				"y": 0.1285591035,
				"z": 0.3826138695,
				"element": "C" 
			},
			{
				"x": 0.3970577935,
				"y": -0.5457361827,
				"z": -0.4806228498,
				"element": "C" 
			},
			{
				"x": -0.7379985932,
				"y": -1.185707771,
				"z": 0.0112200817,
				"element": "C" 
			},
			{
				"x": 2.4835991076,
				"y": 0.8132741201,
				"z": -0.139407122,
				"element": "C" 
			},
			{
				"x": 2.9138906379,
				"y": 2.0431051372,
				"z": 0.3909536152,
				"element": "C" 
			},
			{
				"x": 3.9930340788,
				"y": 2.7121542822,
				"z": -0.0240361023,
				"element": "N" 
			},
			{
				"x": 4.7072242894,
				"y": 2.1742951156,
				"z": -1.0207152944,
				"element": "C" 
			},
			{
				"x": 4.3728669469,
				"y": 0.9669702345,
				"z": -1.6354532577,
				"element": "C" 
			},
			{
				"x": 3.2497069393,
				"y": 0.2783730551,
				"z": -1.1859747614,
				"element": "C" 
			},
			{
				"x": -1.2527697273,
				"y": -3.375435637,
				"z": 2.9821388425,
				"element": "H" 
			},
			{
				"x": -1.637936693,
				"y": -3.8360212717,
				"z": 1.4763077167,
				"element": "H" 
			},
			{
				"x": -3.0481620458,
				"y": -1.9194612685,
				"z": 1.1780965525,
				"element": "H" 
			},
			{
				"x": -2.6276922191,
				"y": -1.4197343361,
				"z": 2.8102755208,
				"element": "H" 
			},
			{
				"x": -0.3764099916,
				"y": -0.475391075,
				"z": 3.3068853014,
				"element": "H" 
			},
			{
				"x": 1.6452404266,
				"y": 0.6368257401,
				"z": 2.4479294329,
				"element": "H" 
			},
			{
				"x": 0.5879157698,
				"y": -0.540841757,
				"z": -1.5500916947,
				"element": "H" 
			},
			{
				"x": -1.4107100832,
				"y": -1.6871187287,
				"z": -0.6815443762,
				"element": "H" 
			},
			{
				"x": 2.3363951086,
				"y": 2.5172027717,
				"z": 1.1828567899,
				"element": "H" 
			},
			{
				"x": 5.5843125889,
				"y": 2.7337664036,
				"z": -1.3411335696,
				"element": "H" 
			},
			{
				"x": 4.9865266304,
				"y": 0.5716040705,
				"z": -2.4390959958,
				"element": "H" 
			},
			{
				"x": 2.9779443761,
				"y": -0.6774770524,
				"z": -1.6248145675,
				"element": "H" 
			}
		],
		 "valence_orbital": [ 
			{
				"type": "occ",
				"energy": -0.27524,
				"method": "rhf"
			},
			{
				"type": "occ",
				"energy": -0.25797,
				"method": "rhf"
			},
			{
				"type": "occ",
				"energy": -0.25305,
				"method": "rhf"
			},
			{
				"type": "occ",
				"energy": -0.24661,
				"method": "rhf"
			},
			{
				"type": "occ",
				"energy": -0.22518,
				"method": "rhf"
			},
			{
				"type": "unocc",
				"energy": -0.03862,
				"method": "rhf"
			},
			{
				"type": "unocc",
				"energy": -0.02204,
				"method": "rhf"
			},
			{
				"type": "unocc",
				"energy": -0.01015,
				"method": "rhf"
			},
			{
				"type": "unocc",
				"energy": 0.01727,
				"method": "rhf"
			},
			{
				"type": "unocc",
				"energy": 0.08503,
				"method": "rhf"
			}
		],
		"cosmo_sigma_profile": { 
			"-0.025": 0.0,
			"-0.024": 0.0,
			"-0.023": 0.0,
			"-0.022": 0.0,
			"-0.021": 0.0,
			"-0.02": 0.0,
			"-0.019": 0.0,
			"-0.018": 0.0,
			"-0.017": 0.0,
			"-0.016": 0.0,
			"-0.015": 0.0,
			"-0.014": 0.0,
			"-0.013": 0.0,
			"-0.012": 0.0,
			"-0.011": 0.0,
			"-0.01": 0.26898848382,
			"-0.009": 2.15020600874,
			"-0.008": 2.56274913222,
			"-0.007": 6.09374034749,
			"-0.006": 16.0514070801,
			"-0.005": 24.1861938524,
			"-0.004": 22.3141174996,
			"-0.003": 18.5067999764,
			"-0.002": 14.5644495155,
			"-0.001": 14.8562268707,
			"0.0": 13.0407365009,
			"0.001": 15.7335130311,
			"0.002": 22.6712658433,
			"0.003": 16.7697763756,
			"0.004": 10.8792356683,
			"0.005": 11.866720287,
			"0.006": 5.16784505581,
			"0.007": 1.51236505109,
			"0.008": 3.22346125387,
			"0.009": 1.26272666752,
			"0.01": 1.49799838716,
			"0.011": 2.28746803539,
			"0.012": 2.03038741424,
			"0.013": 1.0741332008,
			"0.014": 1.4705164693,
			"0.015": 1.73242432791,
			"0.016": 1.44337284648,
			"0.017": 0.958289082633,
			"0.018": 0.771797882934,
			"0.019": 0.57677984895,
			"0.02": 0.311813030702,
			"0.021": 0.0,
			"0.022": 0.0,
			"0.023": 0.0,
			"0.024": 0.0,
			"0.025": 0.0
		}
	}
}
