{
	 "smiles": "OC1CCC(CC1)NCC1=CC(O)=CC=C1", 
	 "Tm": 454.15, 
	 "num_atms": 35, 
	 "gaussian": { 
		 "optdone": 1, 
		 "sigma_profile": "yes", 
		 "theory": "DFT", 
		 "functional": "B3LYP", 
		 "basiset": "6-31G**", 
		 "properties": { 
			 "R2extent": 5331.9021, 
			 "electric_dipole_moment_norm": 1.44564308873, 
			 "electric_quadrupole_moment_norm": 15.5576461494, 
			 "total_energy": -712.021474044, 
			 "HOMO_LUMO_gap": 0.21127, 
			 "cosmo_polarized_energy": -14.75, 
			 "cosmo_cavitation_energy": 35.65, 
			 "cosmo_dispersion_energy": -25.31, 
			 "cosmo_repulsion_energy": 1.99, 
			 "cosmo_total_nonelectrostatic_energy": 12.33, 
			 "SMD_solvation_energy": 4.46 
		},
		"coords": [
			{
				"x": -1.6231248221,
				"y": -2.0573279556,
				"z": 4.004193102,
				"element": "O" 
			},
			{
				"x": -0.9308122095,
				"y": -1.2815597901,
				"z": 3.0232198294,
				"element": "C" 
			},
			{
				"x": 0.4209200152,
				"y": -1.9472993612,
				"z": 2.786913476,
				"element": "C" 
			},
			{
				"x": 1.3023760457,
				"y": -1.1162011233,
				"z": 1.8271394443,
				"element": "C" 
			},
			{
				"x": 0.4988335362,
				"y": -0.328556305,
				"z": 0.7582909763,
				"element": "C" 
			},
			{
				"x": -0.8116489774,
				"y": -1.0753746366,
				"z": 0.4563516226,
				"element": "C" 
			},
			{
				"x": -1.7236256548,
				"y": -1.1918658824,
				"z": 1.6996494505,
				"element": "C" 
			},
			{
				"x": 0.2164416579,
				"y": 1.0269231152,
				"z": 1.2649799432,
				"element": "N" 
			},
			{
				"x": -0.3085035996,
				"y": 1.9950009028,
				"z": 0.2904168654,
				"element": "C" 
			},
			{
				"x": 0.6029765147,
				"y": 2.316555835,
				"z": -0.8867548125,
				"element": "C" 
			},
			{
				"x": 0.3598273938,
				"y": 1.7756689636,
				"z": -2.1543772969,
				"element": "C" 
			},
			{
				"x": 1.2196112034,
				"y": 2.0460337347,
				"z": -3.2254320657,
				"element": "C" 
			},
			{
				"x": 1.0148714831,
				"y": 1.5365733399,
				"z": -4.4771923649,
				"element": "O" 
			},
			{
				"x": 2.3368012957,
				"y": 2.8655494333,
				"z": -3.0378447052,
				"element": "C" 
			},
			{
				"x": 2.5784293696,
				"y": 3.4077067622,
				"z": -1.777104793,
				"element": "C" 
			},
			{
				"x": 1.7226395048,
				"y": 3.1399055379,
				"z": -0.7074744676,
				"element": "C" 
			},
			{
				"x": -2.4683882567,
				"y": -1.6226367618,
				"z": 4.1760739223,
				"element": "H" 
			},
			{
				"x": -0.7556594735,
				"y": -0.2639901182,
				"z": 3.3997911597,
				"element": "H" 
			},
			{
				"x": 0.2398143223,
				"y": -2.947636728,
				"z": 2.3733590576,
				"element": "H" 
			},
			{
				"x": 0.9276820034,
				"y": -2.0963148542,
				"z": 3.7456167299,
				"element": "H" 
			},
			{
				"x": 1.9142374208,
				"y": -0.4081923583,
				"z": 2.4008310303,
				"element": "H" 
			},
			{
				"x": 2.0093898671,
				"y": -1.7823037489,
				"z": 1.3207215452,
				"element": "H" 
			},
			{
				"x": 1.0969291339,
				"y": -0.2914602795,
				"z": -0.167707693,
				"element": "H" 
			},
			{
				"x": -1.3540637702,
				"y": -0.6024376721,
				"z": -0.3700134807,
				"element": "H" 
			},
			{
				"x": -0.5397619864,
				"y": -2.0752600495,
				"z": 0.0964757023,
				"element": "H" 
			},
			{
				"x": -2.4147975332,
				"y": -0.3423053173,
				"z": 1.7447537347,
				"element": "H" 
			},
			{
				"x": -2.3314349548,
				"y": -2.1010514494,
				"z": 1.6198029483,
				"element": "H" 
			},
			{
				"x": 1.0733944638,
				"y": 1.4062959678,
				"z": 1.6609833348,
				"element": "H" 
			},
			{
				"x": -0.5193353892,
				"y": 2.917976147,
				"z": 0.843488568,
				"element": "H" 
			},
			{
				"x": -1.2721800252,
				"y": 1.6292847314,
				"z": -0.0792834001,
				"element": "H" 
			},
			{
				"x": -0.5128782336,
				"y": 1.1428805643,
				"z": -2.3120048699,
				"element": "H" 
			},
			{
				"x": 0.2161563918,
				"y": 0.9933712191,
				"z": -4.4703779707,
				"element": "H" 
			},
			{
				"x": 2.9903508612,
				"y": 3.0667396,
				"z": -3.8800105639,
				"element": "H" 
			},
			{
				"x": 3.4408336146,
				"y": 4.0523945691,
				"z": -1.6317496636,
				"element": "H" 
			},
			{
				"x": 1.9185987871,
				"y": 3.579913968,
				"z": 0.2674757048,
				"element": "H" 
			}
		],
		 "valence_orbital": [ 
			{
				"type": "occ",
				"energy": -0.29053,
				"method": "rhf"
			},
			{
				"type": "occ",
				"energy": -0.25158,
				"method": "rhf"
			},
			{
				"type": "occ",
				"energy": -0.24934,
				"method": "rhf"
			},
			{
				"type": "occ",
				"energy": -0.22706,
				"method": "rhf"
			},
			{
				"type": "occ",
				"energy": -0.21515,
				"method": "rhf"
			},
			{
				"type": "unocc",
				"energy": -0.00388,
				"method": "rhf"
			},
			{
				"type": "unocc",
				"energy": 0.00916,
				"method": "rhf"
			},
			{
				"type": "unocc",
				"energy": 0.06711,
				"method": "rhf"
			},
			{
				"type": "unocc",
				"energy": 0.07286,
				"method": "rhf"
			},
			{
				"type": "unocc",
				"energy": 0.08562,
				"method": "rhf"
			}
		],
		"cosmo_sigma_profile": { 
			"-0.025": 0.0,
			"-0.024": 0.0,
			"-0.023": 0.0,
			"-0.022": 0.0,
			"-0.021": 0.0,
			"-0.02": 0.0,
			"-0.019": 0.0,
			"-0.018": 0.163015871128,
			"-0.017": 1.0486201359,
			"-0.016": 0.867162118882,
			"-0.015": 1.4947583751,
			"-0.014": 1.99124241328,
			"-0.013": 2.1935011952,
			"-0.012": 1.17130897006,
			"-0.011": 1.7104908803,
			"-0.01": 1.88792689259,
			"-0.009": 2.51870798835,
			"-0.008": 2.98802415787,
			"-0.007": 4.27605172687,
			"-0.006": 6.39875312772,
			"-0.005": 11.7672437506,
			"-0.004": 15.8329081365,
			"-0.003": 19.9427237499,
			"-0.002": 28.8008008513,
			"-0.001": 32.9937068114,
			"0.0": 27.716185875,
			"0.001": 22.8907150771,
			"0.002": 12.3414190508,
			"0.003": 10.9862162388,
			"0.004": 13.3075038845,
			"0.005": 13.0489688308,
			"0.006": 10.4910902326,
			"0.007": 4.95508119248,
			"0.008": 3.1920985969,
			"0.009": 3.20917156013,
			"0.01": 3.43867694864,
			"0.011": 4.40336118898,
			"0.012": 3.31685702744,
			"0.013": 1.37334253264,
			"0.014": 2.2378100973,
			"0.015": 1.79668635495,
			"0.016": 0.0395441279101,
			"0.017": 0.0,
			"0.018": 0.0,
			"0.019": 0.0,
			"0.02": 0.0,
			"0.021": 0.0,
			"0.022": 0.0,
			"0.023": 0.0,
			"0.024": 0.0,
			"0.025": 0.0
		}
	}
}
