{
	 "smiles": "COC1=C(O)C=C(CC(O)=O)C=C1", 
	 "Tm": 402.15, 
	 "num_atms": 23, 
	 "gaussian": { 
		 "optdone": 1, 
		 "sigma_profile": "yes", 
		 "theory": "DFT", 
		 "functional": "B3LYP", 
		 "basiset": "6-31G**", 
		 "properties": { 
			 "R2extent": 3620.8189, 
			 "electric_dipole_moment_norm": 2.37941677308, 
			 "electric_quadrupole_moment_norm": 17.2506852557, 
			 "total_energy": -649.881496492, 
			 "HOMO_LUMO_gap": 0.20322, 
			 "cosmo_polarized_energy": -13.45, 
			 "cosmo_cavitation_energy": 27.6, 
			 "cosmo_dispersion_energy": -20.07, 
			 "cosmo_repulsion_energy": 1.61, 
			 "cosmo_total_nonelectrostatic_energy": 9.14, 
			 "SMD_solvation_energy": 6.88 
		},
		"coords": [
			{
				"x": -3.6057171262,
				"y": 1.4073553278,
				"z": 1.0072538532,
				"element": "C" 
			},
			{
				"x": -2.4823504366,
				"y": 2.2743938527,
				"z": 1.0242608248,
				"element": "O" 
			},
			{
				"x": -1.229233921,
				"y": 1.7128536617,
				"z": 0.9467967726,
				"element": "C" 
			},
			{
				"x": -0.1832120053,
				"y": 2.6569456501,
				"z": 0.9642524422,
				"element": "C" 
			},
			{
				"x": -0.4632933367,
				"y": 3.986762525,
				"z": 1.0505877841,
				"element": "O" 
			},
			{
				"x": 1.137345476,
				"y": 2.2262324663,
				"z": 0.8930712585,
				"element": "C" 
			},
			{
				"x": 1.4367501614,
				"y": 0.8599399086,
				"z": 0.8092130387,
				"element": "C" 
			},
			{
				"x": 2.884666105,
				"y": 0.3943290062,
				"z": 0.7400765473,
				"element": "C" 
			},
			{
				"x": 3.1625429372,
				"y": -0.3264271328,
				"z": -0.565792299,
				"element": "C" 
			},
			{
				"x": 3.6539515021,
				"y": 0.5068120171,
				"z": -1.5129125256,
				"element": "O" 
			},
			{
				"x": 2.9511685453,
				"y": -1.5015089136,
				"z": -0.7750063403,
				"element": "O" 
			},
			{
				"x": 0.3933165244,
				"y": -0.0687949084,
				"z": 0.7888551399,
				"element": "C" 
			},
			{
				"x": -0.9387566388,
				"y": 0.3543866901,
				"z": 0.8575882239,
				"element": "C" 
			},
			{
				"x": -3.5914053582,
				"y": 0.7181049047,
				"z": 1.8608414516,
				"element": "H" 
			},
			{
				"x": -3.6486491433,
				"y": 0.8273240022,
				"z": 0.0769032347,
				"element": "H" 
			},
			{
				"x": -4.4867995917,
				"y": 2.0472230128,
				"z": 1.0748479251,
				"element": "H" 
			},
			{
				"x": -1.4285641447,
				"y": 4.0700726566,
				"z": 1.0879209438,
				"element": "H" 
			},
			{
				"x": 1.9236331082,
				"y": 2.9745535477,
				"z": 0.9061464665,
				"element": "H" 
			},
			{
				"x": 3.5606679624,
				"y": 1.2463480774,
				"z": 0.8388048762,
				"element": "H" 
			},
			{
				"x": 3.0949277142,
				"y": -0.3161051404,
				"z": 1.5452527465,
				"element": "H" 
			},
			{
				"x": 3.7564538672,
				"y": -0.0302873384,
				"z": -2.316958523,
				"element": "H" 
			},
			{
				"x": 0.6171926703,
				"y": -1.1276382017,
				"z": 0.7073343958,
				"element": "H" 
			},
			{
				"x": -1.7357348712,
				"y": -0.3803756715,
				"z": 0.8413617625,
				"element": "H" 
			}
		],
		 "valence_orbital": [ 
			{
				"type": "occ",
				"energy": -0.31682,
				"method": "rhf"
			},
			{
				"type": "occ",
				"energy": -0.31468,
				"method": "rhf"
			},
			{
				"type": "occ",
				"energy": -0.2722,
				"method": "rhf"
			},
			{
				"type": "occ",
				"energy": -0.23731,
				"method": "rhf"
			},
			{
				"type": "occ",
				"energy": -0.20542,
				"method": "rhf"
			},
			{
				"type": "unocc",
				"energy": -0.0022,
				"method": "rhf"
			},
			{
				"type": "unocc",
				"energy": 0.00862,
				"method": "rhf"
			},
			{
				"type": "unocc",
				"energy": 0.02615,
				"method": "rhf"
			},
			{
				"type": "unocc",
				"energy": 0.07723,
				"method": "rhf"
			},
			{
				"type": "unocc",
				"energy": 0.08155,
				"method": "rhf"
			}
		],
		"cosmo_sigma_profile": { 
			"-0.025": 0.0,
			"-0.024": 0.0,
			"-0.023": 0.0,
			"-0.022": 0.0,
			"-0.021": 0.0,
			"-0.02": 0.0,
			"-0.019": 0.0356672054377,
			"-0.018": 0.627150592568,
			"-0.017": 1.2782198941,
			"-0.016": 0.564649361742,
			"-0.015": 0.571569183723,
			"-0.014": 1.69344040566,
			"-0.013": 0.647487578836,
			"-0.012": 1.78691412671,
			"-0.011": 1.18266275459,
			"-0.01": 0.937840870487,
			"-0.009": 1.3977589909,
			"-0.008": 1.09425259845,
			"-0.007": 3.22415947071,
			"-0.006": 14.2921492318,
			"-0.005": 18.7545090426,
			"-0.004": 19.3846089398,
			"-0.003": 18.3750602996,
			"-0.002": 13.3884125086,
			"-0.001": 10.0213162418,
			"0.0": 8.77938727422,
			"0.001": 9.74644813419,
			"0.002": 12.9143233316,
			"0.003": 14.9725917159,
			"0.004": 15.3059464112,
			"0.005": 13.8380195862,
			"0.006": 5.77813132453,
			"0.007": 4.15649709269,
			"0.008": 4.65128695008,
			"0.009": 4.12143395107,
			"0.01": 3.8964613483,
			"0.011": 5.25853187298,
			"0.012": 5.37363946169,
			"0.013": 0.48005900232,
			"0.014": 0.0,
			"0.015": 0.0,
			"0.016": 0.0,
			"0.017": 0.0,
			"0.018": 0.0,
			"0.019": 0.0,
			"0.02": 0.0,
			"0.021": 0.0,
			"0.022": 0.0,
			"0.023": 0.0,
			"0.024": 0.0,
			"0.025": 0.0
		}
	}
}
