{
	 "smiles": "CN(C)S(=O)(=O)C1=CC=C(C=C1)C#N", 
	 "Tm": 402.15, 
	 "num_atms": 24, 
	 "gaussian": { 
		 "optdone": 1, 
		 "sigma_profile": "yes", 
		 "theory": "DFT", 
		 "functional": "B3LYP", 
		 "basiset": "6-31G**", 
		 "properties": { 
			 "R2extent": 3784.346, 
			 "electric_dipole_moment_norm": 4.14778023887, 
			 "electric_quadrupole_moment_norm": 22.7203904229, 
			 "total_energy": -1007.02691951, 
			 "HOMO_LUMO_gap": 0.1821, 
			 "cosmo_polarized_energy": -16.01, 
			 "cosmo_cavitation_energy": 30.29, 
			 "cosmo_dispersion_energy": -21.34, 
			 "cosmo_repulsion_energy": 1.63, 
			 "cosmo_total_nonelectrostatic_energy": 10.58, 
			 "SMD_solvation_energy": 5.61 
		},
		"coords": [
			{
				"x": -0.0978565469,
				"y": -0.9725243779,
				"z": -3.7153835167,
				"element": "C" 
			},
			{
				"x": -0.209779205,
				"y": 0.0200289688,
				"z": -2.6344229771,
				"element": "N" 
			},
			{
				"x": -0.9083812384,
				"y": 1.2505927415,
				"z": -3.0272679566,
				"element": "C" 
			},
			{
				"x": -0.7254873319,
				"y": -0.6170879833,
				"z": -1.1450107498,
				"element": "S" 
			},
			{
				"x": -0.1002491675,
				"y": -1.9365869014,
				"z": -1.0214832739,
				"element": "O" 
			},
			{
				"x": -2.1736457981,
				"y": -0.4511478598,
				"z": -0.9587999301,
				"element": "O" 
			},
			{
				"x": 0.0874172008,
				"y": 0.5057906478,
				"z": 0.0052436591,
				"element": "C" 
			},
			{
				"x": 1.4819037797,
				"y": 0.4933069902,
				"z": 0.0994197286,
				"element": "C" 
			},
			{
				"x": 2.1073062872,
				"y": 1.3289282987,
				"z": 1.0168097672,
				"element": "C" 
			},
			{
				"x": 1.3334628376,
				"y": 2.1685180786,
				"z": 1.8396787987,
				"element": "C" 
			},
			{
				"x": -0.066982521,
				"y": 2.1625949008,
				"z": 1.741925001,
				"element": "C" 
			},
			{
				"x": -0.6928518575,
				"y": 1.3248024522,
				"z": 0.8208788319,
				"element": "C" 
			},
			{
				"x": 1.9802928243,
				"y": 3.0340497645,
				"z": 2.7838641515,
				"element": "C" 
			},
			{
				"x": 2.5054628385,
				"y": 3.7373846653,
				"z": 3.5466789753,
				"element": "N" 
			},
			{
				"x": 0.4961633708,
				"y": -0.5224170547,
				"z": -4.5157540767,
				"element": "H" 
			},
			{
				"x": -1.0752347203,
				"y": -1.2668604401,
				"z": -4.1226814739,
				"element": "H" 
			},
			{
				"x": 0.417270767,
				"y": -1.8574831153,
				"z": -3.344145108,
				"element": "H" 
			},
			{
				"x": -0.3687503456,
				"y": 1.6864435323,
				"z": -3.8723506122,
				"element": "H" 
			},
			{
				"x": -0.8880078562,
				"y": 1.9718709498,
				"z": -2.2070670033,
				"element": "H" 
			},
			{
				"x": -1.9519257782,
				"y": 1.0715488344,
				"z": -3.3164980825,
				"element": "H" 
			},
			{
				"x": 2.0640991507,
				"y": -0.1643803947,
				"z": -0.5361395778,
				"element": "H" 
			},
			{
				"x": 3.1880698767,
				"y": 1.3374992668,
				"z": 1.1064856688,
				"element": "H" 
			},
			{
				"x": -0.6542312306,
				"y": 2.8084896383,
				"z": 2.3854675172,
				"element": "H" 
			},
			{
				"x": -1.773065336,
				"y": 1.2933383972,
				"z": 0.7326522394,
				"element": "H" 
			}
		],
		 "valence_orbital": [ 
			{
				"type": "occ",
				"energy": -0.32132,
				"method": "rhf"
			},
			{
				"type": "occ",
				"energy": -0.31105,
				"method": "rhf"
			},
			{
				"type": "occ",
				"energy": -0.29495,
				"method": "rhf"
			},
			{
				"type": "occ",
				"energy": -0.28944,
				"method": "rhf"
			},
			{
				"type": "occ",
				"energy": -0.26263,
				"method": "rhf"
			},
			{
				"type": "unocc",
				"energy": -0.08053,
				"method": "rhf"
			},
			{
				"type": "unocc",
				"energy": -0.04341,
				"method": "rhf"
			},
			{
				"type": "unocc",
				"energy": 0.02313,
				"method": "rhf"
			},
			{
				"type": "unocc",
				"energy": 0.03888,
				"method": "rhf"
			},
			{
				"type": "unocc",
				"energy": 0.04581,
				"method": "rhf"
			}
		],
		"cosmo_sigma_profile": { 
			"-0.025": 0.0,
			"-0.024": 0.0,
			"-0.023": 0.0,
			"-0.022": 0.0,
			"-0.021": 0.0,
			"-0.02": 0.0,
			"-0.019": 0.0,
			"-0.018": 0.0,
			"-0.017": 0.0,
			"-0.016": 0.0,
			"-0.015": 0.0,
			"-0.014": 0.0,
			"-0.013": 0.0,
			"-0.012": 0.0,
			"-0.011": 0.0,
			"-0.01": 0.0560497138825,
			"-0.009": 4.10291786201,
			"-0.008": 8.60441584427,
			"-0.007": 8.86250434373,
			"-0.006": 11.749918578,
			"-0.005": 18.1865782874,
			"-0.004": 20.676407609,
			"-0.003": 25.4034374813,
			"-0.002": 24.9736897721,
			"-0.001": 16.7602851381,
			"0.0": 18.6873427363,
			"0.001": 10.5699929063,
			"0.002": 6.32799499922,
			"0.003": 4.84679207717,
			"0.004": 6.53593012344,
			"0.005": 5.96681734016,
			"0.006": 5.9085805967,
			"0.007": 5.79827037592,
			"0.008": 6.7584448167,
			"0.009": 7.7663206158,
			"0.01": 10.3441969548,
			"0.011": 9.6646044535,
			"0.012": 3.68782653374,
			"0.013": 0.519811322335,
			"0.014": 0.0,
			"0.015": 0.0,
			"0.016": 0.0,
			"0.017": 0.0,
			"0.018": 0.0,
			"0.019": 0.0,
			"0.02": 0.0,
			"0.021": 0.0,
			"0.022": 0.0,
			"0.023": 0.0,
			"0.024": 0.0,
			"0.025": 0.0
		}
	}
}
