{
	 "smiles": "CCN1N=C(C)C(C(C)=O)=C1C", 
	 "Tm": 304.15, 
	 "num_atms": 26, 
	 "gaussian": { 
		 "optdone": 1, 
		 "sigma_profile": "yes", 
		 "theory": "DFT", 
		 "functional": "B3LYP", 
		 "basiset": "6-31G**", 
		 "properties": { 
			 "R2extent": 2614.8506, 
			 "electric_dipole_moment_norm": 2.33495742574, 
			 "electric_quadrupole_moment_norm": 12.4421018582, 
			 "total_energy": -536.131164494, 
			 "HOMO_LUMO_gap": 0.20949, 
			 "cosmo_polarized_energy": -10.54, 
			 "cosmo_cavitation_energy": 28.44, 
			 "cosmo_dispersion_energy": -20.33, 
			 "cosmo_repulsion_energy": 1.62, 
			 "cosmo_total_nonelectrostatic_energy": 9.73, 
			 "SMD_solvation_energy": 4.76 
		},
		"coords": [
			{
				"x": -0.0255341796,
				"y": 0.5711950769,
				"z": 2.703134221,
				"element": "C" 
			},
			{
				"x": 0.6076072085,
				"y": -0.5208776281,
				"z": 1.8385732739,
				"element": "C" 
			},
			{
				"x": 0.1097965208,
				"y": -0.5039767389,
				"z": 0.4675403757,
				"element": "N" 
			},
			{
				"x": -1.1255906984,
				"y": -1.0245562952,
				"z": 0.2262567835,
				"element": "N" 
			},
			{
				"x": -1.3461256661,
				"y": -0.8319703258,
				"z": -1.0684030767,
				"element": "C" 
			},
			{
				"x": -2.6454333452,
				"y": -1.3202951594,
				"z": -1.6383285915,
				"element": "C" 
			},
			{
				"x": -0.2332744004,
				"y": -0.1676809022,
				"z": -1.6843151796,
				"element": "C" 
			},
			{
				"x": -0.0191777701,
				"y": 0.2491708692,
				"z": -3.0805655718,
				"element": "C" 
			},
			{
				"x": -1.1094237116,
				"y": -0.0208193457,
				"z": -4.1067001375,
				"element": "C" 
			},
			{
				"x": 1.0129023679,
				"y": 0.8104987231,
				"z": -3.4431232235,
				"element": "O" 
			},
			{
				"x": 0.6843259199,
				"y": 0.0254093136,
				"z": -0.6367563074,
				"element": "C" 
			},
			{
				"x": 2.0391765809,
				"y": 0.6603516454,
				"z": -0.6215407199,
				"element": "C" 
			},
			{
				"x": 0.3403142495,
				"y": 0.4965474417,
				"z": 3.7320224817,
				"element": "H" 
			},
			{
				"x": 0.2179992838,
				"y": 1.5681224668,
				"z": 2.3230775211,
				"element": "H" 
			},
			{
				"x": -1.1127751178,
				"y": 0.4606678106,
				"z": 2.7105141075,
				"element": "H" 
			},
			{
				"x": 0.3802508778,
				"y": -1.5102036062,
				"z": 2.2442934912,
				"element": "H" 
			},
			{
				"x": 1.6944495512,
				"y": -0.4140718036,
				"z": 1.8021429283,
				"element": "H" 
			},
			{
				"x": -2.4961412123,
				"y": -2.0690971747,
				"z": -2.4231830061,
				"element": "H" 
			},
			{
				"x": -3.2371835042,
				"y": -0.5072923402,
				"z": -2.0716613307,
				"element": "H" 
			},
			{
				"x": -3.2277965494,
				"y": -1.7775233475,
				"z": -0.8356899805,
				"element": "H" 
			},
			{
				"x": -0.771394001,
				"y": 0.358553609,
				"z": -5.0717477709,
				"element": "H" 
			},
			{
				"x": -1.319441077,
				"y": -1.0921759415,
				"z": -4.1905015954,
				"element": "H" 
			},
			{
				"x": -2.0466530381,
				"y": 0.4730226087,
				"z": -3.8297019677,
				"element": "H" 
			},
			{
				"x": 2.0808686644,
				"y": 1.5009690431,
				"z": 0.0807545472,
				"element": "H" 
			},
			{
				"x": 2.8122176536,
				"y": -0.0583321225,
				"z": -0.3236894026,
				"element": "H" 
			},
			{
				"x": 2.2650353934,
				"y": 1.0219641233,
				"z": -1.6230018691,
				"element": "H" 
			}
		],
		 "valence_orbital": [ 
			{
				"type": "occ",
				"energy": -0.34502,
				"method": "rhf"
			},
			{
				"type": "occ",
				"energy": -0.28815,
				"method": "rhf"
			},
			{
				"type": "occ",
				"energy": -0.24394,
				"method": "rhf"
			},
			{
				"type": "occ",
				"energy": -0.23816,
				"method": "rhf"
			},
			{
				"type": "occ",
				"energy": -0.23449,
				"method": "rhf"
			},
			{
				"type": "unocc",
				"energy": -0.025,
				"method": "rhf"
			},
			{
				"type": "unocc",
				"energy": 0.02269,
				"method": "rhf"
			},
			{
				"type": "unocc",
				"energy": 0.0833,
				"method": "rhf"
			},
			{
				"type": "unocc",
				"energy": 0.08732,
				"method": "rhf"
			},
			{
				"type": "unocc",
				"energy": 0.09403,
				"method": "rhf"
			}
		],
		"cosmo_sigma_profile": { 
			"-0.025": 0.0,
			"-0.024": 0.0,
			"-0.023": 0.0,
			"-0.022": 0.0,
			"-0.021": 0.0,
			"-0.02": 0.0,
			"-0.019": 0.0,
			"-0.018": 0.0,
			"-0.017": 0.0,
			"-0.016": 0.0,
			"-0.015": 0.0,
			"-0.014": 0.0,
			"-0.013": 0.0,
			"-0.012": 0.0,
			"-0.011": 0.0,
			"-0.01": 0.0,
			"-0.009": 0.0,
			"-0.008": 0.0,
			"-0.007": 0.852157073267,
			"-0.006": 9.96153292755,
			"-0.005": 19.0209018777,
			"-0.004": 23.2018790188,
			"-0.003": 25.0920912496,
			"-0.002": 22.8255465656,
			"-0.001": 24.9366357023,
			"0.0": 25.9962215178,
			"0.001": 12.3947992954,
			"0.002": 9.11987414197,
			"0.003": 10.5080701545,
			"0.004": 6.38033865027,
			"0.005": 3.9823971823,
			"0.006": 3.28175178961,
			"0.007": 5.07833486853,
			"0.008": 2.60020318181,
			"0.009": 2.33353698954,
			"0.01": 3.01892899057,
			"0.011": 2.72859732871,
			"0.012": 3.85610089411,
			"0.013": 3.12304776299,
			"0.014": 2.02920949868,
			"0.015": 0.957749040738,
			"0.016": 0.222928830723,
			"0.017": 0.0,
			"0.018": 0.0,
			"0.019": 0.0,
			"0.02": 0.0,
			"0.021": 0.0,
			"0.022": 0.0,
			"0.023": 0.0,
			"0.024": 0.0,
			"0.025": 0.0
		}
	}
}
