{
	 "smiles": "OC(=O)C1C(C(O)=O)C1=C", 
	 "Tm": 472.15, 
	 "num_atms": 16, 
	 "gaussian": { 
		 "optdone": 1, 
		 "sigma_profile": "yes", 
		 "theory": "DFT", 
		 "functional": "B3LYP", 
		 "basiset": "6-31G**", 
		 "properties": { 
			 "R2extent": 1920.2611, 
			 "electric_dipole_moment_norm": 6.00951073716, 
			 "electric_quadrupole_moment_norm": 13.2664017122, 
			 "total_energy": -533.089352587, 
			 "HOMO_LUMO_gap": 0.22493, 
			 "cosmo_polarized_energy": -22.59, 
			 "cosmo_cavitation_energy": 21.74, 
			 "cosmo_dispersion_energy": -15.24, 
			 "cosmo_repulsion_energy": 1.28, 
			 "cosmo_total_nonelectrostatic_energy": 7.78, 
			 "SMD_solvation_energy": 6.65 
		},
		"coords": [
			{
				"x": 0.6899023835,
				"y": 0.2260494233,
				"z": -2.2412940529,
				"element": "O" 
			},
			{
				"x": 1.7818646422,
				"y": 0.342347909,
				"z": -1.4445499495,
				"element": "C" 
			},
			{
				"x": 2.8658558104,
				"y": 0.592793552,
				"z": -1.9042209793,
				"element": "O" 
			},
			{
				"x": 1.5485742241,
				"y": 0.1676866253,
				"z": 0.0370417659,
				"element": "C" 
			},
			{
				"x": 0.4198362937,
				"y": 1.0223226774,
				"z": 0.7186404252,
				"element": "C" 
			},
			{
				"x": 0.7113488926,
				"y": 1.6525699185,
				"z": 2.0594975153,
				"element": "C" 
			},
			{
				"x": 1.187259044,
				"y": 0.822508034,
				"z": 3.0213834607,
				"element": "O" 
			},
			{
				"x": 0.5563196552,
				"y": 2.8275865181,
				"z": 2.2700663965,
				"element": "O" 
			},
			{
				"x": 0.3147345397,
				"y": -0.4324382136,
				"z": 0.5575002436,
				"element": "C" 
			},
			{
				"x": -0.4019786171,
				"y": -1.5325198721,
				"z": 0.7499992196,
				"element": "C" 
			},
			{
				"x": -0.0632256324,
				"y": -0.1179022721,
				"z": -1.735627959,
				"element": "H" 
			},
			{
				"x": 2.4775549174,
				"y": 0.0666713992,
				"z": 0.5923799348,
				"element": "H" 
			},
			{
				"x": -0.1445245458,
				"y": 1.6830412337,
				"z": 0.0655258859,
				"element": "H" 
			},
			{
				"x": 1.1138286919,
				"y": -0.1022308581,
				"z": 2.7373795155,
				"element": "H" 
			},
			{
				"x": -0.0348219997,
				"y": -2.5063593521,
				"z": 0.4373443389,
				"element": "H" 
			},
			{
				"x": -1.3780282998,
				"y": -1.4932267225,
				"z": 1.2261342387,
				"element": "H" 
			}
		],
		 "valence_orbital": [ 
			{
				"type": "occ",
				"energy": -0.33459,
				"method": "rhf"
			},
			{
				"type": "occ",
				"energy": -0.32538,
				"method": "rhf"
			},
			{
				"type": "occ",
				"energy": -0.32334,
				"method": "rhf"
			},
			{
				"type": "occ",
				"energy": -0.28673,
				"method": "rhf"
			},
			{
				"type": "occ",
				"energy": -0.28172,
				"method": "rhf"
			},
			{
				"type": "unocc",
				"energy": -0.05679,
				"method": "rhf"
			},
			{
				"type": "unocc",
				"energy": -0.03602,
				"method": "rhf"
			},
			{
				"type": "unocc",
				"energy": 0.01146,
				"method": "rhf"
			},
			{
				"type": "unocc",
				"energy": 0.04628,
				"method": "rhf"
			},
			{
				"type": "unocc",
				"energy": 0.07364,
				"method": "rhf"
			}
		],
		"cosmo_sigma_profile": { 
			"-0.025": 0.0,
			"-0.024": 0.0,
			"-0.023": 0.0,
			"-0.022": 0.0,
			"-0.021": 0.0,
			"-0.02": 0.0,
			"-0.019": 0.0,
			"-0.018": 0.0,
			"-0.017": 0.117910480862,
			"-0.016": 0.968366290396,
			"-0.015": 1.62605108561,
			"-0.014": 2.07972175711,
			"-0.013": 1.66749518377,
			"-0.012": 2.63601694009,
			"-0.011": 2.82255806536,
			"-0.01": 2.73580349019,
			"-0.009": 5.08452657931,
			"-0.008": 7.9924738603,
			"-0.007": 10.6554692653,
			"-0.006": 9.56963135884,
			"-0.005": 10.1085796359,
			"-0.004": 10.9940897839,
			"-0.003": 11.3881135642,
			"-0.002": 10.1918051272,
			"-0.001": 6.84055238855,
			"0.0": 3.37048941773,
			"0.001": 3.74927920898,
			"0.002": 3.40933233638,
			"0.003": 3.60227384069,
			"0.004": 3.65986565747,
			"0.005": 3.91985183519,
			"0.006": 4.41772133414,
			"0.007": 4.91785292367,
			"0.008": 6.19538575956,
			"0.009": 7.96000046982,
			"0.01": 10.4491344357,
			"0.011": 10.9531064565,
			"0.012": 8.22427847116,
			"0.013": 1.10038430207,
			"0.014": 0.0,
			"0.015": 0.0,
			"0.016": 0.0,
			"0.017": 0.0,
			"0.018": 0.0,
			"0.019": 0.0,
			"0.02": 0.0,
			"0.021": 0.0,
			"0.022": 0.0,
			"0.023": 0.0,
			"0.024": 0.0,
			"0.025": 0.0
		}
	}
}
