{
	 "smiles": "CCOC(=O)C1=CC=C(OC)C=C1", 
	 "Tm": 280.65, 
	 "num_atms": 25, 
	 "gaussian": { 
		 "optdone": 1, 
		 "sigma_profile": "yes", 
		 "theory": "DFT", 
		 "functional": "B3LYP", 
		 "basiset": "6-31G**", 
		 "properties": { 
			 "R2extent": 3869.8606, 
			 "electric_dipole_moment_norm": 3.55180949095, 
			 "electric_quadrupole_moment_norm": 12.3182235582, 
			 "total_energy": -613.978184289, 
			 "HOMO_LUMO_gap": 0.19523, 
			 "cosmo_polarized_energy": -9.48, 
			 "cosmo_cavitation_energy": 29.16, 
			 "cosmo_dispersion_energy": -21.34, 
			 "cosmo_repulsion_energy": 1.71, 
			 "cosmo_total_nonelectrostatic_energy": 9.53, 
			 "SMD_solvation_energy": 6.95 
		},
		"coords": [
			{
				"x": -0.3865531924,
				"y": 3.2366805356,
				"z": 2.0781026067,
				"element": "C" 
			},
			{
				"x": 0.1334566693,
				"y": 1.860294624,
				"z": 2.448165546,
				"element": "C" 
			},
			{
				"x": 0.0452959508,
				"y": 1.0315337794,
				"z": 1.2700027188,
				"element": "O" 
			},
			{
				"x": 0.4727827592,
				"y": -0.2462539694,
				"z": 1.4174849202,
				"element": "C" 
			},
			{
				"x": 0.9056079393,
				"y": -0.6813409199,
				"z": 2.4691328234,
				"element": "O" 
			},
			{
				"x": 0.3523437324,
				"y": -1.0359695842,
				"z": 0.1664529703,
				"element": "C" 
			},
			{
				"x": -0.1512580096,
				"y": -0.4994704159,
				"z": -1.0236371818,
				"element": "C" 
			},
			{
				"x": -0.2462996535,
				"y": -1.2788098672,
				"z": -2.1758598644,
				"element": "C" 
			},
			{
				"x": 0.1682931711,
				"y": -2.6180064111,
				"z": -2.1417831677,
				"element": "C" 
			},
			{
				"x": 0.1207154818,
				"y": -3.467359254,
				"z": -3.2027278213,
				"element": "O" 
			},
			{
				"x": -0.3808569271,
				"y": -2.9816840797,
				"z": -4.4398217304,
				"element": "C" 
			},
			{
				"x": 0.6752980344,
				"y": -3.1639124449,
				"z": -0.9495357067,
				"element": "C" 
			},
			{
				"x": 0.7645985273,
				"y": -2.3797583748,
				"z": 0.1879167001,
				"element": "C" 
			},
			{
				"x": -0.3366898437,
				"y": 3.8993047237,
				"z": 2.9478378574,
				"element": "H" 
			},
			{
				"x": 0.2112128244,
				"y": 3.6780861689,
				"z": 1.2752787017,
				"element": "H" 
			},
			{
				"x": -1.4271490982,
				"y": 3.1853315852,
				"z": 1.7446172513,
				"element": "H" 
			},
			{
				"x": 1.1751411196,
				"y": 1.8909104942,
				"z": 2.7837022084,
				"element": "H" 
			},
			{
				"x": -0.4534543168,
				"y": 1.4010272404,
				"z": 3.2501894554,
				"element": "H" 
			},
			{
				"x": -0.4710931947,
				"y": 0.5360730218,
				"z": -1.0475962015,
				"element": "H" 
			},
			{
				"x": -0.6397457609,
				"y": -0.8398183837,
				"z": -3.084734937,
				"element": "H" 
			},
			{
				"x": -1.4237320514,
				"y": -2.6522850761,
				"z": -4.3513416556,
				"element": "H" 
			},
			{
				"x": -0.3266246607,
				"y": -3.820209147,
				"z": -5.135357852,
				"element": "H" 
			},
			{
				"x": 0.2268125705,
				"y": -2.1530291728,
				"z": -4.8245073612,
				"element": "H" 
			},
			{
				"x": 0.9892230289,
				"y": -4.2024222855,
				"z": -0.9493642989,
				"element": "H" 
			},
			{
				"x": 1.1535748999,
				"y": -2.7865127868,
				"z": 1.1152840191,
				"element": "H" 
			}
		],
		 "valence_orbital": [ 
			{
				"type": "occ",
				"energy": -0.32092,
				"method": "rhf"
			},
			{
				"type": "occ",
				"energy": -0.29171,
				"method": "rhf"
			},
			{
				"type": "occ",
				"energy": -0.2636,
				"method": "rhf"
			},
			{
				"type": "occ",
				"energy": -0.25689,
				"method": "rhf"
			},
			{
				"type": "occ",
				"energy": -0.22687,
				"method": "rhf"
			},
			{
				"type": "unocc",
				"energy": -0.03164,
				"method": "rhf"
			},
			{
				"type": "unocc",
				"energy": -0.00487,
				"method": "rhf"
			},
			{
				"type": "unocc",
				"energy": 0.0708,
				"method": "rhf"
			},
			{
				"type": "unocc",
				"energy": 0.09051,
				"method": "rhf"
			},
			{
				"type": "unocc",
				"energy": 0.10184,
				"method": "rhf"
			}
		],
		"cosmo_sigma_profile": { 
			"-0.025": 0.0,
			"-0.024": 0.0,
			"-0.023": 0.0,
			"-0.022": 0.0,
			"-0.021": 0.0,
			"-0.02": 0.0,
			"-0.019": 0.0,
			"-0.018": 0.0,
			"-0.017": 0.0,
			"-0.016": 0.0,
			"-0.015": 0.0,
			"-0.014": 0.0,
			"-0.013": 0.0,
			"-0.012": 0.0,
			"-0.011": 0.0,
			"-0.01": 0.0,
			"-0.009": 0.0,
			"-0.008": 0.0,
			"-0.007": 2.35524379845,
			"-0.006": 11.5011740409,
			"-0.005": 19.682151157,
			"-0.004": 25.252636779,
			"-0.003": 24.4730217329,
			"-0.002": 18.8830318027,
			"-0.001": 16.9759689084,
			"0.0": 17.0479154386,
			"0.001": 15.5210280311,
			"0.002": 16.989752754,
			"0.003": 16.5785568119,
			"0.004": 15.9714403029,
			"0.005": 6.07940189574,
			"0.006": 4.83311108354,
			"0.007": 2.21708232459,
			"0.008": 2.77891954491,
			"0.009": 3.08950564823,
			"0.01": 2.5037339884,
			"0.011": 2.29811323643,
			"0.012": 4.32581136865,
			"0.013": 1.81868741367,
			"0.014": 0.0,
			"0.015": 0.0,
			"0.016": 0.0,
			"0.017": 0.0,
			"0.018": 0.0,
			"0.019": 0.0,
			"0.02": 0.0,
			"0.021": 0.0,
			"0.022": 0.0,
			"0.023": 0.0,
			"0.024": 0.0,
			"0.025": 0.0
		}
	}
}
