{
	 "smiles": "FC(F)(F)C1=NN=C2C=CC(Cl)=NN12", 
	 "Tm": 343.15, 
	 "num_atms": 16, 
	 "gaussian": { 
		 "optdone": 1, 
		 "sigma_profile": "yes", 
		 "theory": "DFT", 
		 "functional": "B3LYP", 
		 "basiset": "6-31G**", 
		 "properties": { 
			 "R2extent": 3782.5858, 
			 "electric_dipole_moment_norm": 4.99624412534, 
			 "electric_quadrupole_moment_norm": 9.24409559773, 
			 "total_energy": -1208.49063185, 
			 "HOMO_LUMO_gap": 0.1741, 
			 "cosmo_polarized_energy": -12.66, 
			 "cosmo_cavitation_energy": 25.11, 
			 "cosmo_dispersion_energy": -18.21, 
			 "cosmo_repulsion_energy": 1.38, 
			 "cosmo_total_nonelectrostatic_energy": 8.28, 
			 "SMD_solvation_energy": 2.58 
		},
		"coords": [
			{
				"x": -0.1213041415,
				"y": -3.9666493086,
				"z": 0.4819633398,
				"element": "F" 
			},
			{
				"x": -0.8290042118,
				"y": -2.9995703979,
				"z": -0.1084541172,
				"element": "C" 
			},
			{
				"x": -1.1776851305,
				"y": -3.4133472696,
				"z": -1.3430421841,
				"element": "F" 
			},
			{
				"x": -1.9664260068,
				"y": -2.8105740844,
				"z": 0.5897869186,
				"element": "F" 
			},
			{
				"x": -0.0283601737,
				"y": -1.7330280418,
				"z": -0.1766889167,
				"element": "C" 
			},
			{
				"x": 1.2011226452,
				"y": -1.5582555272,
				"z": 0.2709973837,
				"element": "N" 
			},
			{
				"x": 1.5841379169,
				"y": -0.274531477,
				"z": 0.0268347875,
				"element": "N" 
			},
			{
				"x": 0.5670880173,
				"y": 0.3273097854,
				"z": -0.5763080277,
				"element": "C" 
			},
			{
				"x": 0.3707431282,
				"y": 1.6418162146,
				"z": -1.066686629,
				"element": "C" 
			},
			{
				"x": -0.8318644336,
				"y": 1.9301105188,
				"z": -1.6479132937,
				"element": "C" 
			},
			{
				"x": -1.8235581562,
				"y": 0.895779201,
				"z": -1.7302980581,
				"element": "C" 
			},
			{
				"x": -3.3512444858,
				"y": 1.2778496302,
				"z": -2.4734111182,
				"element": "Cl" 
			},
			{
				"x": -1.6913649248,
				"y": -0.3251254564,
				"z": -1.2952443671,
				"element": "N" 
			},
			{
				"x": -0.4881434386,
				"y": -0.5691560083,
				"z": -0.7275753256,
				"element": "N" 
			},
			{
				"x": 1.1668706801,
				"y": 2.3704775002,
				"z": -0.9688543177,
				"element": "H" 
			},
			{
				"x": -1.0586072844,
				"y": 2.910694721,
				"z": -2.0465060745,
				"element": "H" 
			}
		],
		 "valence_orbital": [ 
			{
				"type": "occ",
				"energy": -0.35231,
				"method": "rhf"
			},
			{
				"type": "occ",
				"energy": -0.33761,
				"method": "rhf"
			},
			{
				"type": "occ",
				"energy": -0.30292,
				"method": "rhf"
			},
			{
				"type": "occ",
				"energy": -0.28124,
				"method": "rhf"
			},
			{
				"type": "occ",
				"energy": -0.27468,
				"method": "rhf"
			},
			{
				"type": "unocc",
				"energy": -0.10058,
				"method": "rhf"
			},
			{
				"type": "unocc",
				"energy": -0.04955,
				"method": "rhf"
			},
			{
				"type": "unocc",
				"energy": -0.00345,
				"method": "rhf"
			},
			{
				"type": "unocc",
				"energy": 0.0019,
				"method": "rhf"
			},
			{
				"type": "unocc",
				"energy": 0.0777,
				"method": "rhf"
			}
		],
		"cosmo_sigma_profile": { 
			"-0.025": 0.0,
			"-0.024": 0.0,
			"-0.023": 0.0,
			"-0.022": 0.0,
			"-0.021": 0.0,
			"-0.02": 0.0,
			"-0.019": 0.0,
			"-0.018": 0.0,
			"-0.017": 0.0,
			"-0.016": 0.0,
			"-0.015": 0.0,
			"-0.014": 0.0,
			"-0.013": 0.0,
			"-0.012": 0.0,
			"-0.011": 2.01555207086,
			"-0.01": 4.72552861589,
			"-0.009": 5.09661357426,
			"-0.008": 4.71571748324,
			"-0.007": 6.87525895068,
			"-0.006": 6.06569814456,
			"-0.005": 9.59211950174,
			"-0.004": 14.9892715087,
			"-0.003": 13.698485113,
			"-0.002": 12.158868719,
			"-0.001": 10.6058621988,
			"0.0": 10.978950981,
			"0.001": 22.8215732378,
			"0.002": 34.7291688889,
			"0.003": 11.7919805117,
			"0.004": 6.41237352737,
			"0.005": 4.25709638681,
			"0.006": 3.07933820519,
			"0.007": 3.21909407455,
			"0.008": 2.91777099638,
			"0.009": 2.57765138482,
			"0.01": 3.17506990315,
			"0.011": 3.06898054883,
			"0.012": 2.27106066884,
			"0.013": 2.65879361024,
			"0.014": 1.56881934718,
			"0.015": 0.560450305419,
			"0.016": 0.0,
			"0.017": 0.0,
			"0.018": 0.0,
			"0.019": 0.0,
			"0.02": 0.0,
			"0.021": 0.0,
			"0.022": 0.0,
			"0.023": 0.0,
			"0.024": 0.0,
			"0.025": 0.0
		}
	}
}
