{
	 "smiles": "CC1=CC=C(NC(N)=S)C=C1", 
	 "Tm": 460.15, 
	 "num_atms": 21, 
	 "gaussian": { 
		 "optdone": 1, 
		 "sigma_profile": "yes", 
		 "theory": "DFT", 
		 "functional": "B3LYP", 
		 "basiset": "6-31G**", 
		 "properties": { 
			 "R2extent": 2987.5852, 
			 "electric_dipole_moment_norm": 6.01990394359, 
			 "electric_quadrupole_moment_norm": 22.1769694041, 
			 "total_energy": -818.594500875, 
			 "HOMO_LUMO_gap": 0.17535, 
			 "cosmo_polarized_energy": -16.49, 
			 "cosmo_cavitation_energy": 26.4, 
			 "cosmo_dispersion_energy": -19.94, 
			 "cosmo_repulsion_energy": 1.57, 
			 "cosmo_total_nonelectrostatic_energy": 8.03, 
			 "SMD_solvation_energy": 3.7 
		},
		"coords": [
			{
				"x": -0.7967777137,
				"y": 3.8102778597,
				"z": -1.1889123622,
				"element": "C" 
			},
			{
				"x": -0.5197375278,
				"y": 2.345075973,
				"z": -0.9504849758,
				"element": "C" 
			},
			{
				"x": 0.5464064002,
				"y": 1.6942123953,
				"z": -1.5823376435,
				"element": "C" 
			},
			{
				"x": 0.8205150581,
				"y": 0.3452581046,
				"z": -1.355240519,
				"element": "C" 
			},
			{
				"x": 0.0345326858,
				"y": -0.3869772034,
				"z": -0.4534634941,
				"element": "C" 
			},
			{
				"x": 0.2470885631,
				"y": -1.7660282874,
				"z": -0.2059448044,
				"element": "N" 
			},
			{
				"x": 1.4147862482,
				"y": -2.4548380097,
				"z": -0.0162726639,
				"element": "C" 
			},
			{
				"x": 2.5678381989,
				"y": -1.7337709163,
				"z": -0.03633443,
				"element": "N" 
			},
			{
				"x": 1.4010112274,
				"y": -4.1203179682,
				"z": 0.216528976,
				"element": "S" 
			},
			{
				"x": -1.0417438496,
				"y": 0.2509898568,
				"z": 0.1804980885,
				"element": "C" 
			},
			{
				"x": -1.3148819011,
				"y": 1.5912571391,
				"z": -0.0750345529,
				"element": "C" 
			},
			{
				"x": -1.8709875951,
				"y": 4.0196065141,
				"z": -1.1909793753,
				"element": "H" 
			},
			{
				"x": -0.3473631606,
				"y": 4.4330328728,
				"z": -0.405144071,
				"element": "H" 
			},
			{
				"x": -0.3857002708,
				"y": 4.1441787428,
				"z": -2.1459745936,
				"element": "H" 
			},
			{
				"x": 1.1653904849,
				"y": 2.2442019897,
				"z": -2.2867850474,
				"element": "H" 
			},
			{
				"x": 1.6195865742,
				"y": -0.1454757291,
				"z": -1.9001862934,
				"element": "H" 
			},
			{
				"x": -0.5703709734,
				"y": -2.3456740642,
				"z": -0.074740199,
				"element": "H" 
			},
			{
				"x": 2.5486190833,
				"y": -0.7327649015,
				"z": 0.103701198,
				"element": "H" 
			},
			{
				"x": 3.3945392074,
				"y": -2.2346340201,
				"z": 0.2493866862,
				"element": "H" 
			},
			{
				"x": -1.6601445478,
				"y": -0.3098184292,
				"z": 0.8760873423,
				"element": "H" 
			},
			{
				"x": -2.1577061918,
				"y": 2.0634080811,
				"z": 0.4235327347,
				"element": "H" 
			}
		],
		 "valence_orbital": [ 
			{
				"type": "occ",
				"energy": -0.29939,
				"method": "rhf"
			},
			{
				"type": "occ",
				"energy": -0.26756,
				"method": "rhf"
			},
			{
				"type": "occ",
				"energy": -0.2432,
				"method": "rhf"
			},
			{
				"type": "occ",
				"energy": -0.207,
				"method": "rhf"
			},
			{
				"type": "occ",
				"energy": -0.20314,
				"method": "rhf"
			},
			{
				"type": "unocc",
				"energy": -0.02779,
				"method": "rhf"
			},
			{
				"type": "unocc",
				"energy": -0.02067,
				"method": "rhf"
			},
			{
				"type": "unocc",
				"energy": 0.01797,
				"method": "rhf"
			},
			{
				"type": "unocc",
				"energy": 0.07193,
				"method": "rhf"
			},
			{
				"type": "unocc",
				"energy": 0.08453,
				"method": "rhf"
			}
		],
		"cosmo_sigma_profile": { 
			"-0.025": 0.0,
			"-0.024": 0.0,
			"-0.023": 0.0,
			"-0.022": 0.0,
			"-0.021": 0.0,
			"-0.02": 0.0,
			"-0.019": 0.0,
			"-0.018": 0.0,
			"-0.017": 0.0,
			"-0.016": 0.0,
			"-0.015": 0.269335363012,
			"-0.014": 2.05327282582,
			"-0.013": 2.72189038131,
			"-0.012": 3.2797477404,
			"-0.011": 4.38708287292,
			"-0.01": 1.96157213946,
			"-0.009": 2.56917610965,
			"-0.008": 3.48005056914,
			"-0.007": 3.76881299818,
			"-0.006": 7.38457444951,
			"-0.005": 12.7786815713,
			"-0.004": 16.2095390931,
			"-0.003": 14.5507618901,
			"-0.002": 14.5765490546,
			"-0.001": 15.5721823938,
			"0.0": 15.7600808846,
			"0.001": 12.2663965245,
			"0.002": 10.2967955326,
			"0.003": 10.2996188728,
			"0.004": 11.5407432291,
			"0.005": 11.7590369836,
			"0.006": 3.47687274176,
			"0.007": 2.29431155039,
			"0.008": 4.51225322094,
			"0.009": 3.7094666848,
			"0.01": 4.42587537764,
			"0.011": 8.03198589242,
			"0.012": 6.76799321967,
			"0.013": 1.56042611475,
			"0.014": 0.0,
			"0.015": 0.0,
			"0.016": 0.0,
			"0.017": 0.0,
			"0.018": 0.0,
			"0.019": 0.0,
			"0.02": 0.0,
			"0.021": 0.0,
			"0.022": 0.0,
			"0.023": 0.0,
			"0.024": 0.0,
			"0.025": 0.0
		}
	}
}
