{
	 "smiles": "CN1C(=O)N(C)C2=C(C(=O)C=C(N)N2)C1=O", 
	 "Tm": 590.15, 
	 "num_atms": 26, 
	 "gaussian": { 
		 "optdone": 1, 
		 "sigma_profile": "yes", 
		 "theory": "DFT", 
		 "functional": "B3LYP", 
		 "basiset": "6-31G**", 
		 "properties": { 
			 "R2extent": 3540.8801, 
			 "electric_dipole_moment_norm": 9.27767713601, 
			 "electric_quadrupole_moment_norm": 18.7335782097, 
			 "total_energy": -793.698084835, 
			 "HOMO_LUMO_gap": 0.1824, 
			 "cosmo_polarized_energy": -37.93, 
			 "cosmo_cavitation_energy": 29.72, 
			 "cosmo_dispersion_energy": -22.2, 
			 "cosmo_repulsion_energy": 1.69, 
			 "cosmo_total_nonelectrostatic_energy": 9.21, 
			 "SMD_solvation_energy": 6.96 
		},
		"coords": [
			{
				"x": 2.1161321821,
				"y": 1.6226154573,
				"z": -2.9911545441,
				"element": "C" 
			},
			{
				"x": 1.5205185733,
				"y": 1.0886447717,
				"z": -1.7607865841,
				"element": "N" 
			},
			{
				"x": 2.3622289037,
				"y": 1.0087382518,
				"z": -0.6772539014,
				"element": "C" 
			},
			{
				"x": 3.5342526382,
				"y": 1.3561580328,
				"z": -0.7151300426,
				"element": "O" 
			},
			{
				"x": 1.7960130958,
				"y": 0.487719611,
				"z": 0.5067242427,
				"element": "N" 
			},
			{
				"x": 2.6830470944,
				"y": 0.3612425809,
				"z": 1.6622134221,
				"element": "C" 
			},
			{
				"x": 0.4705347043,
				"y": 0.1050834278,
				"z": 0.5607944564,
				"element": "C" 
			},
			{
				"x": -0.3808212633,
				"y": 0.1902536332,
				"z": -0.5216766586,
				"element": "C" 
			},
			{
				"x": -1.8071481861,
				"y": -0.2126078996,
				"z": -0.380464641,
				"element": "C" 
			},
			{
				"x": -2.6345046408,
				"y": -0.1479626841,
				"z": -1.2840000597,
				"element": "O" 
			},
			{
				"x": -2.1649633806,
				"y": -0.7347123756,
				"z": 0.9430605986,
				"element": "C" 
			},
			{
				"x": -1.279379846,
				"y": -0.7897657488,
				"z": 1.963734049,
				"element": "C" 
			},
			{
				"x": -1.5401800265,
				"y": -1.1748017379,
				"z": 3.2810497336,
				"element": "N" 
			},
			{
				"x": 0.0386316166,
				"y": -0.3862344566,
				"z": 1.7699065084,
				"element": "N" 
			},
			{
				"x": 0.1412093449,
				"y": 0.6958017404,
				"z": -1.791389614,
				"element": "C" 
			},
			{
				"x": -0.4854326587,
				"y": 0.8079186276,
				"z": -2.8276787469,
				"element": "O" 
			},
			{
				"x": 2.491152138,
				"y": 2.6330389672,
				"z": -2.8153493006,
				"element": "H" 
			},
			{
				"x": 1.3347310033,
				"y": 1.6282637408,
				"z": -3.7470682259,
				"element": "H" 
			},
			{
				"x": 2.9514987683,
				"y": 0.9933233837,
				"z": -3.3057975043,
				"element": "H" 
			},
			{
				"x": 3.6743957385,
				"y": 0.6615721677,
				"z": 1.3299638526,
				"element": "H" 
			},
			{
				"x": 2.373097861,
				"y": 1.0255243221,
				"z": 2.4781995139,
				"element": "H" 
			},
			{
				"x": 2.7144995406,
				"y": -0.6742905423,
				"z": 2.0155807075,
				"element": "H" 
			},
			{
				"x": -3.1807915119,
				"y": -1.0900086837,
				"z": 1.0713665217,
				"element": "H" 
			},
			{
				"x": -0.9169609686,
				"y": -1.8968665495,
				"z": 3.6299291581,
				"element": "H" 
			},
			{
				"x": -2.5049208939,
				"y": -1.4485220455,
				"z": 3.4184326694,
				"element": "H" 
			},
			{
				"x": 0.5739601732,
				"y": -0.1849259924,
				"z": 2.6013943891,
				"element": "H" 
			}
		],
		 "valence_orbital": [ 
			{
				"type": "occ",
				"energy": -0.26741,
				"method": "rhf"
			},
			{
				"type": "occ",
				"energy": -0.25873,
				"method": "rhf"
			},
			{
				"type": "occ",
				"energy": -0.24051,
				"method": "rhf"
			},
			{
				"type": "occ",
				"energy": -0.22854,
				"method": "rhf"
			},
			{
				"type": "occ",
				"energy": -0.21502,
				"method": "rhf"
			},
			{
				"type": "unocc",
				"energy": -0.03262,
				"method": "rhf"
			},
			{
				"type": "unocc",
				"energy": -0.01956,
				"method": "rhf"
			},
			{
				"type": "unocc",
				"energy": 0.01479,
				"method": "rhf"
			},
			{
				"type": "unocc",
				"energy": 0.03686,
				"method": "rhf"
			},
			{
				"type": "unocc",
				"energy": 0.06303,
				"method": "rhf"
			}
		],
		"cosmo_sigma_profile": { 
			"-0.025": 0.0,
			"-0.024": 0.0,
			"-0.023": 0.0,
			"-0.022": 0.0,
			"-0.021": 0.0,
			"-0.02": 0.0,
			"-0.019": 0.0,
			"-0.018": 0.0,
			"-0.017": 0.323453697219,
			"-0.016": 1.41214609617,
			"-0.015": 1.99035092529,
			"-0.014": 4.39570951006,
			"-0.013": 4.51953644587,
			"-0.012": 3.83671407177,
			"-0.011": 4.84784860065,
			"-0.01": 3.10559021401,
			"-0.009": 4.69492396922,
			"-0.008": 5.48960611362,
			"-0.007": 6.7910758711,
			"-0.006": 9.3330881407,
			"-0.005": 14.2929168739,
			"-0.004": 20.1804684613,
			"-0.003": 19.8907505636,
			"-0.002": 17.2833415984,
			"-0.001": 11.7143369421,
			"0.0": 9.68872224322,
			"0.001": 8.26405394258,
			"0.002": 8.04015274646,
			"0.003": 7.79919417837,
			"0.004": 7.42249016704,
			"0.005": 5.17555645672,
			"0.006": 4.10253501843,
			"0.007": 3.93985663821,
			"0.008": 3.24970635235,
			"0.009": 4.77770224756,
			"0.01": 4.00737312747,
			"0.011": 6.00096240458,
			"0.012": 8.05337162914,
			"0.013": 5.2528193749,
			"0.014": 4.39711658906,
			"0.015": 5.63266814525,
			"0.016": 1.82434937369,
			"0.017": 2.16216167777,
			"0.018": 1.07661973008,
			"0.019": 1.03052921544,
			"0.02": 0.53668465394,
			"0.021": 0.00209605188554,
			"0.022": 0.0,
			"0.023": 0.0,
			"0.024": 0.0,
			"0.025": 0.0
		}
	}
}
