{
	 "smiles": "OC(=O)C(F)(F)C(F)(F)C(F)(F)C(F)(F)C(F)(F)C(F)(F)F", 
	 "Tm": 306.65, 
	 "num_atms": 23, 
	 "gaussian": { 
		 "optdone": 1, 
		 "sigma_profile": "yes", 
		 "theory": "DFT", 
		 "functional": "B3LYP", 
		 "basiset": "6-31G**", 
		 "properties": { 
			 "R2extent": 6709.6947, 
			 "electric_dipole_moment_norm": 2.75277913571, 
			 "electric_quadrupole_moment_norm": 16.2503428792, 
			 "total_energy": -1715.66148838, 
			 "HOMO_LUMO_gap": 0.26604, 
			 "cosmo_polarized_energy": -8.2, 
			 "cosmo_cavitation_energy": 32.02, 
			 "cosmo_dispersion_energy": -21.39, 
			 "cosmo_repulsion_energy": 1.39, 
			 "cosmo_total_nonelectrostatic_energy": 12.02, 
			 "SMD_solvation_energy": 10.65 
		},
		"coords": [
			{
				"x": -0.4696550991,
				"y": 4.1769772023,
				"z": -2.9236402596,
				"element": "O" 
			},
			{
				"x": 0.7497638127,
				"y": 3.6525718532,
				"z": -2.7271230075,
				"element": "C" 
			},
			{
				"x": 1.759631261,
				"y": 4.2956556231,
				"z": -2.7401487113,
				"element": "O" 
			},
			{
				"x": 0.760234055,
				"y": 2.1097210198,
				"z": -2.531106934,
				"element": "C" 
			},
			{
				"x": 2.0216913603,
				"y": 1.6555186919,
				"z": -2.5871230735,
				"element": "F" 
			},
			{
				"x": 0.0361529761,
				"y": 1.561373916,
				"z": -3.5572685424,
				"element": "F" 
			},
			{
				"x": 0.0936732882,
				"y": 1.57023658,
				"z": -1.2331464895,
				"element": "C" 
			},
			{
				"x": -1.1846661092,
				"y": 2.0524554645,
				"z": -1.2030466352,
				"element": "F" 
			},
			{
				"x": 0.0453478473,
				"y": 0.2261816864,
				"z": -1.3225824871,
				"element": "F" 
			},
			{
				"x": 0.8146547928,
				"y": 1.9675113357,
				"z": 0.078514105,
				"element": "C" 
			},
			{
				"x": 1.9945260017,
				"y": 1.3148422366,
				"z": 0.1392674063,
				"element": "F" 
			},
			{
				"x": 1.0529289314,
				"y": 3.3039222667,
				"z": 0.0126771076,
				"element": "F" 
			},
			{
				"x": 0.0591760674,
				"y": 1.7482690901,
				"z": 1.4248194742,
				"element": "C" 
			},
			{
				"x": -1.0331067211,
				"y": 2.5462133343,
				"z": 1.4170377364,
				"element": "F" 
			},
			{
				"x": 0.9020412206,
				"y": 2.1698566008,
				"z": 2.3947754769,
				"element": "F" 
			},
			{
				"x": -0.4400965294,
				"y": 0.3287343609,
				"z": 1.8150029148,
				"element": "C" 
			},
			{
				"x": -1.3675969077,
				"y": -0.0657831585,
				"z": 0.9111988419,
				"element": "F" 
			},
			{
				"x": -1.0352609515,
				"y": 0.4654042607,
				"z": 3.0218807946,
				"element": "F" 
			},
			{
				"x": 0.6118981027,
				"y": -0.8002200443,
				"z": 1.9553086414,
				"element": "C" 
			},
			{
				"x": 1.1148647779,
				"y": -1.1315483437,
				"z": 0.7601726097,
				"element": "F" 
			},
			{
				"x": 0.0140021753,
				"y": -1.8745073232,
				"z": 2.4818030655,
				"element": "F" 
			},
			{
				"x": 1.6082695932,
				"y": -0.4165679327,
				"z": 2.7605803108,
				"element": "F" 
			},
			{
				"x": -1.1554739454,
				"y": 3.4923812795,
				"z": -2.8859523449,
				"element": "H" 
			}
		],
		 "valence_orbital": [ 
			{
				"type": "occ",
				"energy": -0.40404,
				"method": "rhf"
			},
			{
				"type": "occ",
				"energy": -0.38251,
				"method": "rhf"
			},
			{
				"type": "occ",
				"energy": -0.36519,
				"method": "rhf"
			},
			{
				"type": "occ",
				"energy": -0.34977,
				"method": "rhf"
			},
			{
				"type": "occ",
				"energy": -0.30861,
				"method": "rhf"
			},
			{
				"type": "unocc",
				"energy": -0.04257,
				"method": "rhf"
			},
			{
				"type": "unocc",
				"energy": 0.00021,
				"method": "rhf"
			},
			{
				"type": "unocc",
				"energy": 0.01386,
				"method": "rhf"
			},
			{
				"type": "unocc",
				"energy": 0.0434,
				"method": "rhf"
			},
			{
				"type": "unocc",
				"energy": 0.05713,
				"method": "rhf"
			}
		],
		"cosmo_sigma_profile": { 
			"-0.025": 0.0,
			"-0.024": 0.0,
			"-0.023": 0.0,
			"-0.022": 0.0,
			"-0.021": 0.0,
			"-0.02": 0.0701891402613,
			"-0.019": 0.431620266606,
			"-0.018": 0.890462604051,
			"-0.017": 0.518742583081,
			"-0.016": 0.254818250214,
			"-0.015": 0.984313472749,
			"-0.014": 0.703535680586,
			"-0.013": 0.901893009993,
			"-0.012": 0.634764160465,
			"-0.011": 0.883416636268,
			"-0.01": 1.01947247862,
			"-0.009": 0.95201238427,
			"-0.008": 1.26077677595,
			"-0.007": 2.05833756541,
			"-0.006": 3.03589285421,
			"-0.005": 3.98054415433,
			"-0.004": 4.6976702848,
			"-0.003": 7.64869820709,
			"-0.002": 16.8675349299,
			"-0.001": 33.1564111624,
			"0.0": 69.7779568664,
			"0.001": 70.1412262968,
			"0.002": 6.98961025711,
			"0.003": 3.45401413317,
			"0.004": 2.89224351352,
			"0.005": 2.8963263617,
			"0.006": 3.79487150211,
			"0.007": 4.65941943695,
			"0.008": 4.35262372075,
			"0.009": 5.0072599803,
			"0.01": 2.51080287621,
			"0.011": 0.07659603177,
			"0.012": 0.0,
			"0.013": 0.0,
			"0.014": 0.0,
			"0.015": 0.0,
			"0.016": 0.0,
			"0.017": 0.0,
			"0.018": 0.0,
			"0.019": 0.0,
			"0.02": 0.0,
			"0.021": 0.0,
			"0.022": 0.0,
			"0.023": 0.0,
			"0.024": 0.0,
			"0.025": 0.0
		}
	}
}
