{
	 "smiles": "C(CC1=NC2=C(N1)C=CC=C2)OC1=CC=CC=C1", 
	 "Tm": 410.15, 
	 "num_atms": 32, 
	 "gaussian": { 
		 "optdone": 1, 
		 "sigma_profile": "yes", 
		 "theory": "DFT", 
		 "functional": "B3LYP", 
		 "basiset": "6-31G**", 
		 "properties": { 
			 "R2extent": 6630.6267, 
			 "electric_dipole_moment_norm": 3.49301027053, 
			 "electric_quadrupole_moment_norm": 7.06713833104, 
			 "total_energy": -764.774629821, 
			 "HOMO_LUMO_gap": 0.20454, 
			 "cosmo_polarized_energy": -13.4, 
			 "cosmo_cavitation_energy": 35.89, 
			 "cosmo_dispersion_energy": -26.19, 
			 "cosmo_repulsion_energy": 2.02, 
			 "cosmo_total_nonelectrostatic_energy": 11.72, 
			 "SMD_solvation_energy": 3.53 
		},
		"coords": [
			{
				"x": 0.7682032893,
				"y": -0.9127813508,
				"z": 1.1711168938,
				"element": "C" 
			},
			{
				"x": 1.1589182113,
				"y": -1.0314007385,
				"z": -0.3005693053,
				"element": "C" 
			},
			{
				"x": 0.0659661852,
				"y": -0.6796758574,
				"z": -1.2641997258,
				"element": "C" 
			},
			{
				"x": -0.281698155,
				"y": -1.4015754399,
				"z": -2.3043559854,
				"element": "N" 
			},
			{
				"x": -1.3051139469,
				"y": -0.6849759617,
				"z": -2.9120211503,
				"element": "C" 
			},
			{
				"x": -1.5688950333,
				"y": 0.5068133569,
				"z": -2.1912932,
				"element": "C" 
			},
			{
				"x": -0.6657061604,
				"y": 0.4833261296,
				"z": -1.1441143852,
				"element": "N" 
			},
			{
				"x": -2.5581038705,
				"y": 1.4138629984,
				"z": -2.5765661322,
				"element": "C" 
			},
			{
				"x": -3.2874925498,
				"y": 1.0975471718,
				"z": -3.7205151223,
				"element": "C" 
			},
			{
				"x": -3.0375913675,
				"y": -0.0816530324,
				"z": -4.4512298028,
				"element": "C" 
			},
			{
				"x": -2.0512128523,
				"y": -0.9817297679,
				"z": -4.0596678207,
				"element": "C" 
			},
			{
				"x": 0.5596871405,
				"y": 0.4735516728,
				"z": 1.4607737768,
				"element": "O" 
			},
			{
				"x": 0.2419068281,
				"y": 0.8390817036,
				"z": 2.7458340599,
				"element": "C" 
			},
			{
				"x": 0.0465009334,
				"y": -0.0632548332,
				"z": 3.7966376298,
				"element": "C" 
			},
			{
				"x": -0.2773893378,
				"y": 0.4250598622,
				"z": 5.066888639,
				"element": "C" 
			},
			{
				"x": -0.4072782757,
				"y": 1.7925664052,
				"z": 5.2975611961,
				"element": "C" 
			},
			{
				"x": -0.2080581416,
				"y": 2.6860820942,
				"z": 4.2397650272,
				"element": "C" 
			},
			{
				"x": 0.1154870664,
				"y": 2.2169038018,
				"z": 2.9710799388,
				"element": "C" 
			},
			{
				"x": -0.1464856128,
				"y": -1.4837742518,
				"z": 1.3786766952,
				"element": "H" 
			},
			{
				"x": 1.5731212556,
				"y": -1.3047033888,
				"z": 1.8062029596,
				"element": "H" 
			},
			{
				"x": 2.037621559,
				"y": -0.3964954324,
				"z": -0.4745456406,
				"element": "H" 
			},
			{
				"x": 1.4552970661,
				"y": -2.0619940795,
				"z": -0.5115653286,
				"element": "H" 
			},
			{
				"x": -0.5743006173,
				"y": 1.1292873565,
				"z": -0.3737956578,
				"element": "H" 
			},
			{
				"x": -2.7530731678,
				"y": 2.3234747562,
				"z": -2.016264785,
				"element": "H" 
			},
			{
				"x": -4.0661692923,
				"y": 1.775850371,
				"z": -4.0570052699,
				"element": "H" 
			},
			{
				"x": -3.6298936417,
				"y": -0.2883160418,
				"z": -5.3378410229,
				"element": "H" 
			},
			{
				"x": -1.8553712406,
				"y": -1.8917072456,
				"z": -4.6178279452,
				"element": "H" 
			},
			{
				"x": 0.1386494029,
				"y": -1.1315420439,
				"z": 3.6422493572,
				"element": "H" 
			},
			{
				"x": -0.4290465789,
				"y": -0.2807157927,
				"z": 5.8786347167,
				"element": "H" 
			},
			{
				"x": -0.6592639868,
				"y": 2.1608462137,
				"z": 6.2869800282,
				"element": "H" 
			},
			{
				"x": -0.3029237896,
				"y": 3.7556331219,
				"z": 4.403950999,
				"element": "H" 
			},
			{
				"x": 0.2819086806,
				"y": 2.8991082425,
				"z": 2.1431263628,
				"element": "H" 
			}
		],
		 "valence_orbital": [ 
			{
				"type": "occ",
				"energy": -0.26325,
				"method": "rhf"
			},
			{
				"type": "occ",
				"energy": -0.25918,
				"method": "rhf"
			},
			{
				"type": "occ",
				"energy": -0.23135,
				"method": "rhf"
			},
			{
				"type": "occ",
				"energy": -0.21923,
				"method": "rhf"
			},
			{
				"type": "occ",
				"energy": -0.21491,
				"method": "rhf"
			},
			{
				"type": "unocc",
				"energy": -0.01037,
				"method": "rhf"
			},
			{
				"type": "unocc",
				"energy": -0.00799,
				"method": "rhf"
			},
			{
				"type": "unocc",
				"energy": 0.00351,
				"method": "rhf"
			},
			{
				"type": "unocc",
				"energy": 0.02966,
				"method": "rhf"
			},
			{
				"type": "unocc",
				"energy": 0.0587,
				"method": "rhf"
			}
		],
		"cosmo_sigma_profile": { 
			"-0.025": 0.0,
			"-0.024": 0.0,
			"-0.023": 0.0,
			"-0.022": 0.0,
			"-0.021": 0.0,
			"-0.02": 0.0,
			"-0.019": 0.0,
			"-0.018": 0.0,
			"-0.017": 0.0,
			"-0.016": 0.0,
			"-0.015": 0.0,
			"-0.014": 0.0444545670261,
			"-0.013": 0.395635159819,
			"-0.012": 0.955010763618,
			"-0.011": 0.740328586738,
			"-0.01": 1.22816951377,
			"-0.009": 0.923715794455,
			"-0.008": 0.579569164712,
			"-0.007": 2.76525026903,
			"-0.006": 19.9241805453,
			"-0.005": 30.1121194713,
			"-0.004": 28.6519744737,
			"-0.003": 25.946729901,
			"-0.002": 18.4747801908,
			"-0.001": 14.7209187654,
			"0.0": 15.4008539018,
			"0.001": 14.6518758029,
			"0.002": 16.3483373188,
			"0.003": 18.081889166,
			"0.004": 19.2877299635,
			"0.005": 21.711921446,
			"0.006": 18.7657860075,
			"0.007": 5.27364551436,
			"0.008": 1.5746953654,
			"0.009": 1.5133309343,
			"0.01": 1.1709786195,
			"0.011": 1.32303550717,
			"0.012": 0.577032345047,
			"0.013": 1.04669638673,
			"0.014": 1.48984353802,
			"0.015": 0.754933805406,
			"0.016": 0.805188623116,
			"0.017": 1.0825563807,
			"0.018": 0.487338683996,
			"0.019": 0.0,
			"0.02": 0.0,
			"0.021": 0.0,
			"0.022": 0.0,
			"0.023": 0.0,
			"0.024": 0.0,
			"0.025": 0.0
		}
	}
}
