{
	 "smiles": "ClC1=CC=C(SC2CCNCC2)C=C1", 
	 "Tm": 315.15, 
	 "num_atms": 28, 
	 "gaussian": { 
		 "optdone": 1, 
		 "sigma_profile": "yes", 
		 "theory": "DFT", 
		 "functional": "B3LYP", 
		 "basiset": "6-31G**", 
		 "properties": { 
			 "R2extent": 4787.3407, 
			 "electric_dipole_moment_norm": 1.19567090372, 
			 "electric_quadrupole_moment_norm": 9.63011643232, 
			 "total_energy": -1340.72725543, 
			 "HOMO_LUMO_gap": 0.1798, 
			 "cosmo_polarized_energy": -8.17, 
			 "cosmo_cavitation_energy": 32.48, 
			 "cosmo_dispersion_energy": -23.76, 
			 "cosmo_repulsion_energy": 1.84, 
			 "cosmo_total_nonelectrostatic_energy": 10.57, 
			 "SMD_solvation_energy": 1.59 
		},
		"coords": [
			{
				"x": -4.1403346925,
				"y": -3.1694133577,
				"z": 1.9064809033,
				"element": "Cl" 
			},
			{
				"x": -2.508017675,
				"y": -2.5887833163,
				"z": 1.6147704484,
				"element": "C" 
			},
			{
				"x": -1.8383561134,
				"y": -2.9808116714,
				"z": 0.4556803749,
				"element": "C" 
			},
			{
				"x": -0.542377612,
				"y": -2.5170540567,
				"z": 0.230310905,
				"element": "C" 
			},
			{
				"x": 0.0850198647,
				"y": -1.6596567517,
				"z": 1.1467005933,
				"element": "C" 
			},
			{
				"x": 1.7744549613,
				"y": -1.1188250708,
				"z": 0.8773572211,
				"element": "S" 
			},
			{
				"x": 1.595970932,
				"y": 0.4861410397,
				"z": -0.0556562852,
				"element": "C" 
			},
			{
				"x": 0.9191006402,
				"y": 1.591667701,
				"z": 0.7746431374,
				"element": "C" 
			},
			{
				"x": 0.5581678,
				"y": 2.7735650935,
				"z": -0.139718411,
				"element": "C" 
			},
			{
				"x": -0.3863859606,
				"y": 2.4126273306,
				"z": -1.2141109437,
				"element": "N" 
			},
			{
				"x": -0.454694425,
				"y": 0.9726927248,
				"z": -1.5059142523,
				"element": "C" 
			},
			{
				"x": 0.9483345717,
				"y": 0.3630955235,
				"z": -1.4623501627,
				"element": "C" 
			},
			{
				"x": -0.6039621796,
				"y": -1.2960071069,
				"z": 2.3135980702,
				"element": "C" 
			},
			{
				"x": -1.9006872716,
				"y": -1.7526785408,
				"z": 2.5510498354,
				"element": "C" 
			},
			{
				"x": -2.3216020427,
				"y": -3.6428407441,
				"z": -0.2544042305,
				"element": "H" 
			},
			{
				"x": -0.0078316069,
				"y": -2.8312121854,
				"z": -0.6600528329,
				"element": "H" 
			},
			{
				"x": 2.6542051687,
				"y": 0.7424277606,
				"z": -0.1804225018,
				"element": "H" 
			},
			{
				"x": 0.0047604008,
				"y": 1.2076056408,
				"z": 1.2410608762,
				"element": "H" 
			},
			{
				"x": 1.5828574181,
				"y": 1.9114724642,
				"z": 1.5847191698,
				"element": "H" 
			},
			{
				"x": 0.1309506407,
				"y": 3.5912795519,
				"z": 0.4507851501,
				"element": "H" 
			},
			{
				"x": 1.4835302743,
				"y": 3.1709514374,
				"z": -0.5841391726,
				"element": "H" 
			},
			{
				"x": -1.3139570142,
				"y": 2.7508727253,
				"z": -0.9825210415,
				"element": "H" 
			},
			{
				"x": -1.1046219525,
				"y": 0.417419427,
				"z": -0.8084646219,
				"element": "H" 
			},
			{
				"x": -0.883046015,
				"y": 0.8384300046,
				"z": -2.5068832455,
				"element": "H" 
			},
			{
				"x": 0.9153014665,
				"y": -0.6803147357,
				"z": -1.7860017113,
				"element": "H" 
			},
			{
				"x": 1.5757835935,
				"y": 0.8976584821,
				"z": -2.1859256386,
				"element": "H" 
			},
			{
				"x": -0.1161494993,
				"y": -0.659766506,
				"z": 3.0446105589,
				"element": "H" 
			},
			{
				"x": -2.4315136722,
				"y": -1.4697428636,
				"z": 3.4533978074,
				"element": "H" 
			}
		],
		 "valence_orbital": [ 
			{
				"type": "occ",
				"energy": -0.30325,
				"method": "rhf"
			},
			{
				"type": "occ",
				"energy": -0.27114,
				"method": "rhf"
			},
			{
				"type": "occ",
				"energy": -0.24907,
				"method": "rhf"
			},
			{
				"type": "occ",
				"energy": -0.22998,
				"method": "rhf"
			},
			{
				"type": "occ",
				"energy": -0.21156,
				"method": "rhf"
			},
			{
				"type": "unocc",
				"energy": -0.03176,
				"method": "rhf"
			},
			{
				"type": "unocc",
				"energy": -0.0223,
				"method": "rhf"
			},
			{
				"type": "unocc",
				"energy": 0.02189,
				"method": "rhf"
			},
			{
				"type": "unocc",
				"energy": 0.0504,
				"method": "rhf"
			},
			{
				"type": "unocc",
				"energy": 0.06051,
				"method": "rhf"
			}
		],
		"cosmo_sigma_profile": { 
			"-0.025": 0.0,
			"-0.024": 0.0,
			"-0.023": 0.0,
			"-0.022": 0.0,
			"-0.021": 0.0,
			"-0.02": 0.0,
			"-0.019": 0.0,
			"-0.018": 0.0,
			"-0.017": 0.0,
			"-0.016": 0.0,
			"-0.015": 0.0,
			"-0.014": 0.0,
			"-0.013": 0.0,
			"-0.012": 0.0,
			"-0.011": 0.0,
			"-0.01": 0.403398756475,
			"-0.009": 1.57395540709,
			"-0.008": 2.05370401305,
			"-0.007": 6.35894208849,
			"-0.006": 9.71787064859,
			"-0.005": 12.2551120297,
			"-0.004": 16.1124379598,
			"-0.003": 21.2651592412,
			"-0.002": 29.9756729924,
			"-0.001": 26.2132079599,
			"0.0": 26.5705827417,
			"0.001": 22.7496559421,
			"0.002": 22.7862259087,
			"0.003": 19.2952655381,
			"0.004": 13.313699576,
			"0.005": 9.07825857294,
			"0.006": 4.23328070767,
			"0.007": 3.67201113827,
			"0.008": 2.82605358764,
			"0.009": 2.47715889124,
			"0.01": 1.8660647423,
			"0.011": 0.62070729757,
			"0.012": 0.618828453679,
			"0.013": 0.590400773679,
			"0.014": 0.519425717996,
			"0.015": 0.688120731812,
			"0.016": 0.607667794329,
			"0.017": 0.379616740042,
			"0.018": 0.443761211668,
			"0.019": 0.337404192165,
			"0.02": 0.0253521156461,
			"0.021": 0.0,
			"0.022": 0.0,
			"0.023": 0.0,
			"0.024": 0.0,
			"0.025": 0.0
		}
	}
}
