{
	 "smiles": "COC1=CC(CCC(O)=O)=CC(OC)=C1OC", 
	 "Tm": 377.15, 
	 "num_atms": 33, 
	 "gaussian": { 
		 "optdone": 1, 
		 "sigma_profile": "yes", 
		 "theory": "DFT", 
		 "functional": "B3LYP", 
		 "basiset": "6-31G**", 
		 "properties": { 
			 "R2extent": 5188.9409, 
			 "electric_dipole_moment_norm": 2.17319322197, 
			 "electric_quadrupole_moment_norm": 25.3447624307, 
			 "total_energy": -843.011002609, 
			 "HOMO_LUMO_gap": 0.21309, 
			 "cosmo_polarized_energy": -17.92, 
			 "cosmo_cavitation_energy": 36.9, 
			 "cosmo_dispersion_energy": -24.93, 
			 "cosmo_repulsion_energy": 2.0, 
			 "cosmo_total_nonelectrostatic_energy": 13.96, 
			 "SMD_solvation_energy": 9.51 
		},
		"coords": [
			{
				"x": 1.2364036548,
				"y": 2.3910534193,
				"z": 2.413053603,
				"element": "C" 
			},
			{
				"x": 0.0440576314,
				"y": 1.6830629393,
				"z": 2.7056775321,
				"element": "O" 
			},
			{
				"x": -0.1450684019,
				"y": 0.470054118,
				"z": 2.1104669706,
				"element": "C" 
			},
			{
				"x": 0.7520224001,
				"y": -0.1214778982,
				"z": 1.210804328,
				"element": "C" 
			},
			{
				"x": 0.4601410327,
				"y": -1.3676598153,
				"z": 0.646676446,
				"element": "C" 
			},
			{
				"x": 1.4121914393,
				"y": -1.9944542995,
				"z": -0.3527723969,
				"element": "C" 
			},
			{
				"x": 1.0577526384,
				"y": -1.6846708559,
				"z": -1.8250318685,
				"element": "C" 
			},
			{
				"x": 1.1623940533,
				"y": -0.2250337222,
				"z": -2.2125400614,
				"element": "C" 
			},
			{
				"x": 2.3374807294,
				"y": 0.3307543429,
				"z": -1.8097345957,
				"element": "O" 
			},
			{
				"x": 0.3385436802,
				"y": 0.4013863506,
				"z": -2.8395650244,
				"element": "O" 
			},
			{
				"x": -0.7288505151,
				"y": -2.0246316566,
				"z": 0.9828768527,
				"element": "C" 
			},
			{
				"x": -1.6284793981,
				"y": -1.4363597949,
				"z": 1.8806415035,
				"element": "C" 
			},
			{
				"x": -2.8145952664,
				"y": -1.990347415,
				"z": 2.264520436,
				"element": "O" 
			},
			{
				"x": -3.165256699,
				"y": -3.2552730043,
				"z": 1.7296986429,
				"element": "C" 
			},
			{
				"x": -1.334316559,
				"y": -0.1903080275,
				"z": 2.4614020264,
				"element": "C" 
			},
			{
				"x": -2.1762512977,
				"y": 0.3518956902,
				"z": 3.3990399756,
				"element": "O" 
			},
			{
				"x": -3.192323821,
				"y": 1.1978527791,
				"z": 2.8606998647,
				"element": "C" 
			},
			{
				"x": 1.312164249,
				"y": 2.6388057532,
				"z": 1.3460012415,
				"element": "H" 
			},
			{
				"x": 2.1284396758,
				"y": 1.8255484985,
				"z": 2.7119186659,
				"element": "H" 
			},
			{
				"x": 1.1871131219,
				"y": 3.3144905771,
				"z": 2.992470592,
				"element": "H" 
			},
			{
				"x": 1.6723001507,
				"y": 0.3793520543,
				"z": 0.9367217959,
				"element": "H" 
			},
			{
				"x": 1.4045859987,
				"y": -3.0836403377,
				"z": -0.232583415,
				"element": "H" 
			},
			{
				"x": 2.4354159907,
				"y": -1.6604783709,
				"z": -0.157836497,
				"element": "H" 
			},
			{
				"x": 0.0395755816,
				"y": -2.0015847224,
				"z": -2.0607490914,
				"element": "H" 
			},
			{
				"x": 1.7413448321,
				"y": -2.2391045437,
				"z": -2.4817743988,
				"element": "H" 
			},
			{
				"x": 2.3145418291,
				"y": 1.249150797,
				"z": -2.1270917616,
				"element": "H" 
			},
			{
				"x": -0.9446262712,
				"y": -2.991440246,
				"z": 0.5425561321,
				"element": "H" 
			},
			{
				"x": -2.4358489704,
				"y": -4.0284281891,
				"z": 2.0040270596,
				"element": "H" 
			},
			{
				"x": -3.2587832251,
				"y": -3.2241933814,
				"z": 0.6361398334,
				"element": "H" 
			},
			{
				"x": -4.133695551,
				"y": -3.5072121633,
				"z": 2.1649741997,
				"element": "H" 
			},
			{
				"x": -2.7561858787,
				"y": 2.0572889826,
				"z": 2.3371193504,
				"element": "H" 
			},
			{
				"x": -3.7793370381,
				"y": 1.5544355993,
				"z": 3.7102264272,
				"element": "H" 
			},
			{
				"x": -3.8470497964,
				"y": 0.6448665425,
				"z": 2.1762656318,
				"element": "H" 
			}
		],
		 "valence_orbital": [ 
			{
				"type": "occ",
				"energy": -0.29254,
				"method": "rhf"
			},
			{
				"type": "occ",
				"energy": -0.27165,
				"method": "rhf"
			},
			{
				"type": "occ",
				"energy": -0.25638,
				"method": "rhf"
			},
			{
				"type": "occ",
				"energy": -0.2138,
				"method": "rhf"
			},
			{
				"type": "occ",
				"energy": -0.2073,
				"method": "rhf"
			},
			{
				"type": "unocc",
				"energy": 0.00579,
				"method": "rhf"
			},
			{
				"type": "unocc",
				"energy": 0.0074,
				"method": "rhf"
			},
			{
				"type": "unocc",
				"energy": 0.02526,
				"method": "rhf"
			},
			{
				"type": "unocc",
				"energy": 0.06665,
				"method": "rhf"
			},
			{
				"type": "unocc",
				"energy": 0.08668,
				"method": "rhf"
			}
		],
		"cosmo_sigma_profile": { 
			"-0.025": 0.0,
			"-0.024": 0.0,
			"-0.023": 0.0,
			"-0.022": 0.0,
			"-0.021": 0.0,
			"-0.02": 0.0,
			"-0.019": 0.0,
			"-0.018": 0.427225103137,
			"-0.017": 1.030621609,
			"-0.016": 0.715250339376,
			"-0.015": 0.865774937644,
			"-0.014": 0.343222480767,
			"-0.013": 0.88797912966,
			"-0.012": 0.438819379148,
			"-0.011": 1.14765521185,
			"-0.01": 0.480539074871,
			"-0.009": 0.675564285694,
			"-0.008": 0.38385875504,
			"-0.007": 2.00505238162,
			"-0.006": 10.4434455347,
			"-0.005": 29.2141017045,
			"-0.004": 34.3100032133,
			"-0.003": 36.7161222963,
			"-0.002": 27.8332474502,
			"-0.001": 16.6479899015,
			"0.0": 13.3029538941,
			"0.001": 12.2179281658,
			"0.002": 13.6571202136,
			"0.003": 13.5550923269,
			"0.004": 13.9782382826,
			"0.005": 12.2669771181,
			"0.006": 7.02776736005,
			"0.007": 5.21671604442,
			"0.008": 5.02393982097,
			"0.009": 5.18982734581,
			"0.01": 4.7008202938,
			"0.011": 6.28303393588,
			"0.012": 8.24574388926,
			"0.013": 4.17924091053,
			"0.014": 0.739039477742,
			"0.015": 0.0,
			"0.016": 0.0,
			"0.017": 0.0,
			"0.018": 0.0,
			"0.019": 0.0,
			"0.02": 0.0,
			"0.021": 0.0,
			"0.022": 0.0,
			"0.023": 0.0,
			"0.024": 0.0,
			"0.025": 0.0
		}
	}
}
