{
	 "smiles": "CC1=C(Cl)C(Cl)=C(C)C(Cl)=C1Cl", 
	 "Tm": 489.15, 
	 "num_atms": 18, 
	 "gaussian": { 
		 "optdone": 1, 
		 "sigma_profile": "yes", 
		 "theory": "DFT", 
		 "functional": "B3LYP", 
		 "basiset": "6-31G**", 
		 "properties": { 
			 "R2extent": 3574.8461, 
			 "electric_dipole_moment_norm": 0.0289596270694, 
			 "electric_quadrupole_moment_norm": 8.17486837876, 
			 "total_energy": -2149.23804101, 
			 "HOMO_LUMO_gap": 0.21224, 
			 "cosmo_polarized_energy": -3.09, 
			 "cosmo_cavitation_energy": 27.58, 
			 "cosmo_dispersion_energy": -21.12, 
			 "cosmo_repulsion_energy": 1.66, 
			 "cosmo_total_nonelectrostatic_energy": 8.12, 
			 "SMD_solvation_energy": 3.88 
		},
		"coords": [
			{
				"x": -0.3625526473,
				"y": 2.2241231655,
				"z": -2.2873921459,
				"element": "C" 
			},
			{
				"x": -0.0634998392,
				"y": 1.104758015,
				"z": -1.3214094236,
				"element": "C" 
			},
			{
				"x": 0.9430925085,
				"y": 1.2216834099,
				"z": -0.3482312847,
				"element": "C" 
			},
			{
				"x": 1.8458328476,
				"y": 2.7169940383,
				"z": -0.2373200328,
				"element": "Cl" 
			},
			{
				"x": 1.2303964656,
				"y": 0.1756622738,
				"z": 0.5407381112,
				"element": "C" 
			},
			{
				"x": 2.4855589505,
				"y": 0.3880538444,
				"z": 1.7418655226,
				"element": "Cl" 
			},
			{
				"x": 0.5252736402,
				"y": -1.0389063511,
				"z": 0.5004139617,
				"element": "C" 
			},
			{
				"x": 0.8441585806,
				"y": -2.1695971823,
				"z": 1.4466654063,
				"element": "C" 
			},
			{
				"x": -0.5065014432,
				"y": -1.1414488436,
				"z": -0.4477017389,
				"element": "C" 
			},
			{
				"x": -1.4629460626,
				"y": -2.6060696042,
				"z": -0.5051702919,
				"element": "Cl" 
			},
			{
				"x": -0.7937939795,
				"y": -0.0954394173,
				"z": -1.3366814598,
				"element": "C" 
			},
			{
				"x": -2.1025064716,
				"y": -0.2772977268,
				"z": -2.4844852496,
				"element": "Cl" 
			},
			{
				"x": -1.1145933645,
				"y": 2.9046555819,
				"z": -1.8701971105,
				"element": "H" 
			},
			{
				"x": 0.5324769697,
				"y": 2.8101568924,
				"z": -2.4949468194,
				"element": "H" 
			},
			{
				"x": -0.7557363792,
				"y": 1.8348292426,
				"z": -3.2262262202,
				"element": "H" 
			},
			{
				"x": 0.25405346,
				"y": -2.0820751533,
				"z": 2.3669132995,
				"element": "H" 
			},
			{
				"x": 0.60978007,
				"y": -3.1336739107,
				"z": 0.9958933507,
				"element": "H" 
			},
			{
				"x": 1.8968066943,
				"y": -2.1577082746,
				"z": 1.7283721254,
				"element": "H" 
			}
		],
		 "valence_orbital": [ 
			{
				"type": "occ",
				"energy": -0.31976,
				"method": "rhf"
			},
			{
				"type": "occ",
				"energy": -0.31475,
				"method": "rhf"
			},
			{
				"type": "occ",
				"energy": -0.3058,
				"method": "rhf"
			},
			{
				"type": "occ",
				"energy": -0.25733,
				"method": "rhf"
			},
			{
				"type": "occ",
				"energy": -0.25024,
				"method": "rhf"
			},
			{
				"type": "unocc",
				"energy": -0.038,
				"method": "rhf"
			},
			{
				"type": "unocc",
				"energy": -0.03556,
				"method": "rhf"
			},
			{
				"type": "unocc",
				"energy": -0.02274,
				"method": "rhf"
			},
			{
				"type": "unocc",
				"energy": 0.01681,
				"method": "rhf"
			},
			{
				"type": "unocc",
				"energy": 0.03775,
				"method": "rhf"
			}
		],
		"cosmo_sigma_profile": { 
			"-0.025": 0.0,
			"-0.024": 0.0,
			"-0.023": 0.0,
			"-0.022": 0.0,
			"-0.021": 0.0,
			"-0.02": 0.0,
			"-0.019": 0.0,
			"-0.018": 0.0,
			"-0.017": 0.0,
			"-0.016": 0.0,
			"-0.015": 0.0,
			"-0.014": 0.0,
			"-0.013": 0.0,
			"-0.012": 0.0,
			"-0.011": 0.0,
			"-0.01": 0.0,
			"-0.009": 0.0,
			"-0.008": 0.0,
			"-0.007": 0.0,
			"-0.006": 1.70768163306,
			"-0.005": 6.31437014457,
			"-0.004": 10.9964939271,
			"-0.003": 20.6601597073,
			"-0.002": 26.6220722977,
			"-0.001": 37.4856709829,
			"0.0": 36.8014365137,
			"0.001": 19.7867542502,
			"0.002": 19.289626583,
			"0.003": 21.7966009018,
			"0.004": 21.5339851156,
			"0.005": 6.16305805413,
			"0.006": 0.010176163084,
			"0.007": 0.0,
			"0.008": 0.0,
			"0.009": 0.0,
			"0.01": 0.0,
			"0.011": 0.0,
			"0.012": 0.0,
			"0.013": 0.0,
			"0.014": 0.0,
			"0.015": 0.0,
			"0.016": 0.0,
			"0.017": 0.0,
			"0.018": 0.0,
			"0.019": 0.0,
			"0.02": 0.0,
			"0.021": 0.0,
			"0.022": 0.0,
			"0.023": 0.0,
			"0.024": 0.0,
			"0.025": 0.0
		}
	}
}
