{
	 "smiles": "BrC1=CC(C=O)=C(Br)C=C1", 
	 "Tm": 368.15, 
	 "num_atms": 14, 
	 "gaussian": { 
		 "optdone": 1, 
		 "sigma_profile": "yes", 
		 "theory": "DFT", 
		 "functional": "B3LYP", 
		 "basiset": "6-31G**", 
		 "properties": { 
			 "R2extent": 4515.612, 
			 "electric_dipole_moment_norm": 2.89113485504, 
			 "electric_quadrupole_moment_norm": 5.0738899318, 
			 "total_energy": -5487.17300994, 
			 "HOMO_LUMO_gap": 0.17089, 
			 "cosmo_polarized_energy": -6.4, 
			 "cosmo_cavitation_energy": 23.53, 
			 "cosmo_dispersion_energy": -18.09, 
			 "cosmo_repulsion_energy": 1.45, 
			 "cosmo_total_nonelectrostatic_energy": 6.89, 
			 "SMD_solvation_energy": 2.92 
		},
		"coords": [
			{
				"x": -0.2391186465,
				"y": 3.0853110917,
				"z": 1.0438249832,
				"element": "Br" 
			},
			{
				"x": 0.361758839,
				"y": 1.6670158249,
				"z": -0.0798572383,
				"element": "C" 
			},
			{
				"x": 1.1481232207,
				"y": 0.653419467,
				"z": 0.446294595,
				"element": "C" 
			},
			{
				"x": 1.5960163963,
				"y": -0.395706094,
				"z": -0.372930957,
				"element": "C" 
			},
			{
				"x": 2.4375073681,
				"y": -1.4494799936,
				"z": 0.2630704829,
				"element": "C" 
			},
			{
				"x": 2.7423115259,
				"y": -1.4321715899,
				"z": 1.4396790112,
				"element": "O" 
			},
			{
				"x": 1.231992434,
				"y": -0.3949096578,
				"z": -1.7272983447,
				"element": "C" 
			},
			{
				"x": 1.7927586099,
				"y": -1.7799401436,
				"z": -2.9227153271,
				"element": "Br" 
			},
			{
				"x": 0.4409683055,
				"y": 0.625888984,
				"z": -2.2535577229,
				"element": "C" 
			},
			{
				"x": 0.0030027645,
				"y": 1.6612226798,
				"z": -1.430113117,
				"element": "C" 
			},
			{
				"x": 1.4386456481,
				"y": 0.6375105495,
				"z": 1.4908981959,
				"element": "H" 
			},
			{
				"x": 2.7746809742,
				"y": -2.2613369929,
				"z": -0.4061836024,
				"element": "H" 
			},
			{
				"x": 0.1678789419,
				"y": 0.6126190978,
				"z": -3.3024458764,
				"element": "H" 
			},
			{
				"x": -0.6120263816,
				"y": 2.4561567772,
				"z": -1.8364650824,
				"element": "H" 
			}
		],
		 "valence_orbital": [ 
			{
				"type": "occ",
				"energy": -0.30638,
				"method": "rhf"
			},
			{
				"type": "occ",
				"energy": -0.30103,
				"method": "rhf"
			},
			{
				"type": "occ",
				"energy": -0.28776,
				"method": "rhf"
			},
			{
				"type": "occ",
				"energy": -0.26783,
				"method": "rhf"
			},
			{
				"type": "occ",
				"energy": -0.25529,
				"method": "rhf"
			},
			{
				"type": "unocc",
				"energy": -0.0844,
				"method": "rhf"
			},
			{
				"type": "unocc",
				"energy": -0.03918,
				"method": "rhf"
			},
			{
				"type": "unocc",
				"energy": -0.01623,
				"method": "rhf"
			},
			{
				"type": "unocc",
				"energy": -0.00357,
				"method": "rhf"
			},
			{
				"type": "unocc",
				"energy": 0.01666,
				"method": "rhf"
			}
		],
		"cosmo_sigma_profile": { 
			"-0.025": 0.0,
			"-0.024": 0.0,
			"-0.023": 0.0,
			"-0.022": 0.0,
			"-0.021": 0.0,
			"-0.02": 0.0,
			"-0.019": 0.0,
			"-0.018": 0.0,
			"-0.017": 0.0,
			"-0.016": 0.0,
			"-0.015": 0.0,
			"-0.014": 0.0,
			"-0.013": 0.0,
			"-0.012": 0.0,
			"-0.011": 0.0,
			"-0.01": 0.0,
			"-0.009": 1.06125266472,
			"-0.008": 4.20370954326,
			"-0.007": 5.19926245009,
			"-0.006": 7.06819815211,
			"-0.005": 11.545940131,
			"-0.004": 11.9530996155,
			"-0.003": 12.13215373,
			"-0.002": 12.6731999054,
			"-0.001": 18.8020440026,
			"0.0": 29.4059139349,
			"0.001": 19.9833537286,
			"0.002": 13.4634068926,
			"0.003": 17.3441800854,
			"0.004": 14.5306778445,
			"0.005": 2.13409554171,
			"0.006": 1.88627205483,
			"0.007": 1.43023346377,
			"0.008": 2.05928113386,
			"0.009": 2.07267342055,
			"0.01": 3.85446441297,
			"0.011": 2.74107279585,
			"0.012": 1.09513348989,
			"0.013": 0.00969203393852,
			"0.014": 0.0,
			"0.015": 0.0,
			"0.016": 0.0,
			"0.017": 0.0,
			"0.018": 0.0,
			"0.019": 0.0,
			"0.02": 0.0,
			"0.021": 0.0,
			"0.022": 0.0,
			"0.023": 0.0,
			"0.024": 0.0,
			"0.025": 0.0
		}
	}
}
