{
	 "smiles": "COC1=CC(=CC=C1)N1C(CC(=O)NN)=CSC1=NCC1=CC=CO1", 
	 "Tm": 425.15, 
	 "num_atms": 43, 
	 "gaussian": { 
		 "optdone": 1, 
		 "sigma_profile": "yes", 
		 "theory": "DFT", 
		 "functional": "B3LYP", 
		 "basiset": "6-31G**", 
		 "properties": { 
			 "R2extent": 9092.4359, 
			 "electric_dipole_moment_norm": 5.34846497324, 
			 "electric_quadrupole_moment_norm": 12.2709507696, 
			 "total_energy": -1501.42799126, 
			 "HOMO_LUMO_gap": 0.16159, 
			 "cosmo_polarized_energy": -23.14, 
			 "cosmo_cavitation_energy": 48.48, 
			 "cosmo_dispersion_energy": -31.16, 
			 "cosmo_repulsion_energy": 2.35, 
			 "cosmo_total_nonelectrostatic_energy": 19.66, 
			 "SMD_solvation_energy": 7.9 
		},
		"coords": [
			{
				"x": 0.7302190959,
				"y": 3.8673250639,
				"z": 0.9159855974,
				"element": "C" 
			},
			{
				"x": -0.3549781332,
				"y": 3.7500965331,
				"z": 0.0017985443,
				"element": "O" 
			},
			{
				"x": -0.6563354906,
				"y": 2.5210223441,
				"z": -0.4930736791,
				"element": "C" 
			},
			{
				"x": -0.0153964573,
				"y": 1.3345400996,
				"z": -0.1147767352,
				"element": "C" 
			},
			{
				"x": -0.4145011857,
				"y": 0.1239600228,
				"z": -0.6977980017,
				"element": "C" 
			},
			{
				"x": -1.4474470343,
				"y": 0.0767511555,
				"z": -1.6343233448,
				"element": "C" 
			},
			{
				"x": -2.0856525186,
				"y": 1.2690687266,
				"z": -1.9942840502,
				"element": "C" 
			},
			{
				"x": -1.6984773177,
				"y": 2.4804607201,
				"z": -1.4346881028,
				"element": "C" 
			},
			{
				"x": 0.2324263221,
				"y": -1.093761747,
				"z": -0.2879664058,
				"element": "N" 
			},
			{
				"x": -0.3319087296,
				"y": -1.9236672777,
				"z": 0.7086895847,
				"element": "C" 
			},
			{
				"x": -1.6614476527,
				"y": -1.595494183,
				"z": 1.3173279923,
				"element": "C" 
			},
			{
				"x": -2.866161605,
				"y": -1.9322561753,
				"z": 0.4247555688,
				"element": "C" 
			},
			{
				"x": -2.8807387348,
				"y": -2.8653762489,
				"z": -0.3652149771,
				"element": "O" 
			},
			{
				"x": -3.9619696817,
				"y": -1.1373534809,
				"z": 0.6363034619,
				"element": "N" 
			},
			{
				"x": -5.1111291279,
				"y": -1.2676986117,
				"z": -0.1732762414,
				"element": "N" 
			},
			{
				"x": 0.4407902248,
				"y": -2.9715418192,
				"z": 1.0407120508,
				"element": "C" 
			},
			{
				"x": 1.936089038,
				"y": -3.0130578347,
				"z": 0.1265825575,
				"element": "S" 
			},
			{
				"x": 1.4967439954,
				"y": -1.5080336521,
				"z": -0.7573639599,
				"element": "C" 
			},
			{
				"x": 2.3186856408,
				"y": -1.0660103271,
				"z": -1.6216327197,
				"element": "N" 
			},
			{
				"x": 2.1503039698,
				"y": 0.1085955551,
				"z": -2.4528409389,
				"element": "C" 
			},
			{
				"x": 2.9254349608,
				"y": 1.2684026789,
				"z": -1.8979400073,
				"element": "C" 
			},
			{
				"x": 3.8141345522,
				"y": 1.4027911473,
				"z": -0.8725221468,
				"element": "C" 
			},
			{
				"x": 4.2260092254,
				"y": 2.7797283213,
				"z": -0.8707316969,
				"element": "C" 
			},
			{
				"x": 3.5577839762,
				"y": 3.3773356634,
				"z": -1.8948449542,
				"element": "C" 
			},
			{
				"x": 2.7594540965,
				"y": 2.4690967043,
				"z": -2.5326834452,
				"element": "O" 
			},
			{
				"x": 0.7906779595,
				"y": 4.9266970496,
				"z": 1.1692837848,
				"element": "H" 
			},
			{
				"x": 0.5477067389,
				"y": 3.2903816719,
				"z": 1.8317781301,
				"element": "H" 
			},
			{
				"x": 1.6749595526,
				"y": 3.5461294648,
				"z": 0.4621928431,
				"element": "H" 
			},
			{
				"x": 0.7997596894,
				"y": 1.3299333508,
				"z": 0.5970818762,
				"element": "H" 
			},
			{
				"x": -1.7356979283,
				"y": -0.8753269941,
				"z": -2.0655459531,
				"element": "H" 
			},
			{
				"x": -2.8896897432,
				"y": 1.2503756064,
				"z": -2.7237983676,
				"element": "H" 
			},
			{
				"x": -2.1809208708,
				"y": 3.4123293692,
				"z": -1.70989204,
				"element": "H" 
			},
			{
				"x": -1.7681684832,
				"y": -2.2004529662,
				"z": 2.2243278896,
				"element": "H" 
			},
			{
				"x": -1.7000988536,
				"y": -0.5460723719,
				"z": 1.6328851478,
				"element": "H" 
			},
			{
				"x": -3.844752534,
				"y": -0.2193170034,
				"z": 1.0410684361,
				"element": "H" 
			},
			{
				"x": -5.6565037043,
				"y": -2.0456487181,
				"z": 0.1966467493,
				"element": "H" 
			},
			{
				"x": -4.787941167,
				"y": -1.579869999,
				"z": -1.0902695154,
				"element": "H" 
			},
			{
				"x": 0.2053354754,
				"y": -3.7346251685,
				"z": 1.7674458284,
				"element": "H" 
			},
			{
				"x": 2.5528345685,
				"y": -0.1345306437,
				"z": -3.4471240361,
				"element": "H" 
			},
			{
				"x": 1.1120178061,
				"y": 0.4224638213,
				"z": -2.614967989,
				"element": "H" 
			},
			{
				"x": 4.1414099238,
				"y": 0.6103383285,
				"z": -0.2166721156,
				"element": "H" 
			},
			{
				"x": 4.9324198406,
				"y": 3.2517821036,
				"z": -0.2023431538,
				"element": "H" 
			},
			{
				"x": 3.5376203006,
				"y": 4.3807897207,
				"z": -2.2909914657,
				"element": "H" 
			}
		],
		 "valence_orbital": [ 
			{
				"type": "occ",
				"energy": -0.26187,
				"method": "rhf"
			},
			{
				"type": "occ",
				"energy": -0.24109,
				"method": "rhf"
			},
			{
				"type": "occ",
				"energy": -0.232,
				"method": "rhf"
			},
			{
				"type": "occ",
				"energy": -0.21156,
				"method": "rhf"
			},
			{
				"type": "occ",
				"energy": -0.18676,
				"method": "rhf"
			},
			{
				"type": "unocc",
				"energy": -0.02517,
				"method": "rhf"
			},
			{
				"type": "unocc",
				"energy": -0.01152,
				"method": "rhf"
			},
			{
				"type": "unocc",
				"energy": 0.01353,
				"method": "rhf"
			},
			{
				"type": "unocc",
				"energy": 0.01683,
				"method": "rhf"
			},
			{
				"type": "unocc",
				"energy": 0.02402,
				"method": "rhf"
			}
		],
		"cosmo_sigma_profile": { 
			"-0.025": 0.0,
			"-0.024": 0.0,
			"-0.023": 0.0,
			"-0.022": 0.0,
			"-0.021": 0.0,
			"-0.02": 0.0,
			"-0.019": 0.0,
			"-0.018": 0.0,
			"-0.017": 0.0,
			"-0.016": 0.0,
			"-0.015": 0.291577883356,
			"-0.014": 0.889848618988,
			"-0.013": 1.42238786405,
			"-0.012": 1.4753916162,
			"-0.011": 2.99273486009,
			"-0.01": 2.50379026093,
			"-0.009": 5.61771334653,
			"-0.008": 10.1949747972,
			"-0.007": 10.4930797572,
			"-0.006": 20.2475993488,
			"-0.005": 24.0939891011,
			"-0.004": 28.3034076556,
			"-0.003": 27.1098018674,
			"-0.002": 26.6989219327,
			"-0.001": 23.8223224578,
			"0.0": 28.591505301,
			"0.001": 29.5599386127,
			"0.002": 27.6667131718,
			"0.003": 23.7783679758,
			"0.004": 21.8857003089,
			"0.005": 15.6056476562,
			"0.006": 12.2481773337,
			"0.007": 7.56736674618,
			"0.008": 6.93777798841,
			"0.009": 5.23963500217,
			"0.01": 4.09599414332,
			"0.011": 2.69360348304,
			"0.012": 4.45159415471,
			"0.013": 5.48388261223,
			"0.014": 3.53728945408,
			"0.015": 1.20706262363,
			"0.016": 0.805615132263,
			"0.017": 0.230918395064,
			"0.018": 0.0,
			"0.019": 0.0,
			"0.02": 0.0,
			"0.021": 0.0,
			"0.022": 0.0,
			"0.023": 0.0,
			"0.024": 0.0,
			"0.025": 0.0
		}
	}
}
