{
	 "smiles": "[O-][N+](=O)C1=C(C=C(F)C=C1F)C#N", 
	 "Tm": 369.15, 
	 "num_atms": 15, 
	 "gaussian": { 
		 "optdone": 1, 
		 "sigma_profile": "yes", 
		 "theory": "DFT", 
		 "functional": "B3LYP", 
		 "basiset": "6-31G**", 
		 "properties": { 
			 "R2extent": 3100.3985, 
			 "electric_dipole_moment_norm": 5.31049563318, 
			 "electric_quadrupole_moment_norm": 12.7216672209, 
			 "total_energy": -727.419972186, 
			 "HOMO_LUMO_gap": 0.1928, 
			 "cosmo_polarized_energy": -11.27, 
			 "cosmo_cavitation_energy": 23.81, 
			 "cosmo_dispersion_energy": -15.79, 
			 "cosmo_repulsion_energy": 1.21, 
			 "cosmo_total_nonelectrostatic_energy": 9.23, 
			 "SMD_solvation_energy": 9.2 
		},
		"coords": [
			{
				"x": -1.2864052331,
				"y": -1.7392516887,
				"z": 0.0699238868,
				"element": "O" 
			},
			{
				"x": -1.1548825441,
				"y": -0.6095707835,
				"z": 0.5225572973,
				"element": "N" 
			},
			{
				"x": -1.0846467045,
				"y": -0.291703645,
				"z": 1.7025499643,
				"element": "O" 
			},
			{
				"x": -1.0654914034,
				"y": 0.4869577711,
				"z": -0.4607413544,
				"element": "C" 
			},
			{
				"x": -2.2130213322,
				"y": 1.1546892177,
				"z": -0.9103821817,
				"element": "C" 
			},
			{
				"x": -2.0847717845,
				"y": 2.1922629775,
				"z": -1.8462398544,
				"element": "C" 
			},
			{
				"x": -0.8157951263,
				"y": 2.5283103763,
				"z": -2.30175709,
				"element": "C" 
			},
			{
				"x": -0.6916849584,
				"y": 3.5178827207,
				"z": -3.1946100873,
				"element": "F" 
			},
			{
				"x": 0.3339945438,
				"y": 1.8761800969,
				"z": -1.8662909449,
				"element": "C" 
			},
			{
				"x": 0.18710007,
				"y": 0.8521995598,
				"z": -0.9400768624,
				"element": "C" 
			},
			{
				"x": 1.2642440895,
				"y": 0.1989316081,
				"z": -0.4945289734,
				"element": "F" 
			},
			{
				"x": -3.5111797116,
				"y": 0.7898127973,
				"z": -0.4259021095,
				"element": "C" 
			},
			{
				"x": -4.5721378992,
				"y": 0.5085364137,
				"z": -0.0441546743,
				"element": "N" 
			},
			{
				"x": -2.9552069201,
				"y": 2.7238904836,
				"z": -2.2095936687,
				"element": "H" 
			},
			{
				"x": 1.314084914,
				"y": 2.1539720947,
				"z": -2.2343533475,
				"element": "H" 
			}
		],
		 "valence_orbital": [ 
			{
				"type": "occ",
				"energy": -0.33799,
				"method": "rhf"
			},
			{
				"type": "occ",
				"energy": -0.33698,
				"method": "rhf"
			},
			{
				"type": "occ",
				"energy": -0.3303,
				"method": "rhf"
			},
			{
				"type": "occ",
				"energy": -0.30363,
				"method": "rhf"
			},
			{
				"type": "occ",
				"energy": -0.28861,
				"method": "rhf"
			},
			{
				"type": "unocc",
				"energy": -0.09581,
				"method": "rhf"
			},
			{
				"type": "unocc",
				"energy": -0.09249,
				"method": "rhf"
			},
			{
				"type": "unocc",
				"energy": -0.05349,
				"method": "rhf"
			},
			{
				"type": "unocc",
				"energy": 0.00217,
				"method": "rhf"
			},
			{
				"type": "unocc",
				"energy": 0.03254,
				"method": "rhf"
			}
		],
		"cosmo_sigma_profile": { 
			"-0.025": 0.0,
			"-0.024": 0.0,
			"-0.023": 0.0,
			"-0.022": 0.0,
			"-0.021": 0.0,
			"-0.02": 0.0,
			"-0.019": 0.0,
			"-0.018": 0.0,
			"-0.017": 0.0,
			"-0.016": 0.0,
			"-0.015": 0.0,
			"-0.014": 0.0,
			"-0.013": 0.0,
			"-0.012": 0.0547644647048,
			"-0.011": 2.85499336723,
			"-0.01": 3.36752212713,
			"-0.009": 4.25478148138,
			"-0.008": 2.93412862702,
			"-0.007": 3.16520807991,
			"-0.006": 4.42065151627,
			"-0.005": 9.01620470164,
			"-0.004": 21.414634667,
			"-0.003": 24.3619307288,
			"-0.002": 12.0100598924,
			"-0.001": 9.46630363298,
			"0.0": 8.45432921585,
			"0.001": 10.3555855231,
			"0.002": 16.7510518421,
			"0.003": 11.4797907801,
			"0.004": 5.59753598585,
			"0.005": 9.4146349958,
			"0.006": 12.931667421,
			"0.007": 9.13363550319,
			"0.008": 5.15612831662,
			"0.009": 2.72688930058,
			"0.01": 2.51354405417,
			"0.011": 2.03069190731,
			"0.012": 0.466534779969,
			"0.013": 0.0,
			"0.014": 0.0,
			"0.015": 0.0,
			"0.016": 0.0,
			"0.017": 0.0,
			"0.018": 0.0,
			"0.019": 0.0,
			"0.02": 0.0,
			"0.021": 0.0,
			"0.022": 0.0,
			"0.023": 0.0,
			"0.024": 0.0,
			"0.025": 0.0
		}
	}
}
