{
	 "smiles": "OC(=O)C1=C(C=C(Cl)C=C1)N1C=CC=C1", 
	 "Tm": 416.15, 
	 "num_atms": 23, 
	 "gaussian": { 
		 "optdone": 1, 
		 "sigma_profile": "yes", 
		 "theory": "DFT", 
		 "functional": "B3LYP", 
		 "basiset": "6-31G**", 
		 "properties": { 
			 "R2extent": 4844.5975, 
			 "electric_dipole_moment_norm": 3.59032338516, 
			 "electric_quadrupole_moment_norm": 17.864861302, 
			 "total_energy": -1089.36613582, 
			 "HOMO_LUMO_gap": 0.15919, 
			 "cosmo_polarized_energy": -17.37, 
			 "cosmo_cavitation_energy": 29.69, 
			 "cosmo_dispersion_energy": -21.29, 
			 "cosmo_repulsion_energy": 1.66, 
			 "cosmo_total_nonelectrostatic_energy": 10.06, 
			 "SMD_solvation_energy": 6.45 
		},
		"coords": [
			{
				"x": -1.3517468125,
				"y": 0.2717729535,
				"z": -2.7511217179,
				"element": "O" 
			},
			{
				"x": -1.0591236728,
				"y": 0.6207039674,
				"z": -1.4656747218,
				"element": "C" 
			},
			{
				"x": -1.8050717744,
				"y": 0.32727831,
				"z": -0.5681823976,
				"element": "O" 
			},
			{
				"x": 0.1981480021,
				"y": 1.4330192932,
				"z": -1.3012913705,
				"element": "C" 
			},
			{
				"x": 1.1388264728,
				"y": 1.1873307782,
				"z": -0.2781840747,
				"element": "C" 
			},
			{
				"x": 2.2014815319,
				"y": 2.0812292952,
				"z": -0.089545783,
				"element": "C" 
			},
			{
				"x": 2.3140701978,
				"y": 3.2116663646,
				"z": -0.8934607337,
				"element": "C" 
			},
			{
				"x": 3.646313287,
				"y": 4.3178772226,
				"z": -0.6261091416,
				"element": "Cl" 
			},
			{
				"x": 1.4070751224,
				"y": 3.4644055522,
				"z": -1.921461326,
				"element": "C" 
			},
			{
				"x": 0.365422934,
				"y": 2.5622251102,
				"z": -2.1170433687,
				"element": "C" 
			},
			{
				"x": 1.0747697718,
				"y": 0.0423733792,
				"z": 0.5424135239,
				"element": "N" 
			},
			{
				"x": 0.824372164,
				"y": -1.2571008877,
				"z": 0.1242123199,
				"element": "C" 
			},
			{
				"x": 0.940413755,
				"y": -2.0880371185,
				"z": 1.2087155768,
				"element": "C" 
			},
			{
				"x": 1.2676645494,
				"y": -1.2772415089,
				"z": 2.3382908125,
				"element": "C" 
			},
			{
				"x": 1.3537209665,
				"y": 0.0209188226,
				"z": 1.9034923351,
				"element": "C" 
			},
			{
				"x": -0.6047665426,
				"y": 0.4898328399,
				"z": -3.3270961956,
				"element": "H" 
			},
			{
				"x": 2.949624691,
				"y": 1.8708006759,
				"z": 0.6648621276,
				"element": "H" 
			},
			{
				"x": 1.509144775,
				"y": 4.34591752,
				"z": -2.5432417808,
				"element": "H" 
			},
			{
				"x": -0.3694401462,
				"y": 2.7681705932,
				"z": -2.8903984074,
				"element": "H" 
			},
			{
				"x": 0.6178023704,
				"y": -1.4737611181,
				"z": -0.9122869267,
				"element": "H" 
			},
			{
				"x": 0.8082484634,
				"y": -3.1605880945,
				"z": 1.1958918207,
				"element": "H" 
			},
			{
				"x": 1.4076665035,
				"y": -1.6104043247,
				"z": 3.3569270611,
				"element": "H" 
			},
			{
				"x": 1.5318833904,
				"y": 0.9402103746,
				"z": 2.4399923683,
				"element": "H" 
			}
		],
		 "valence_orbital": [ 
			{
				"type": "occ",
				"energy": -0.29735,
				"method": "rhf"
			},
			{
				"type": "occ",
				"energy": -0.28629,
				"method": "rhf"
			},
			{
				"type": "occ",
				"energy": -0.2682,
				"method": "rhf"
			},
			{
				"type": "occ",
				"energy": -0.23552,
				"method": "rhf"
			},
			{
				"type": "occ",
				"energy": -0.21693,
				"method": "rhf"
			},
			{
				"type": "unocc",
				"energy": -0.05774,
				"method": "rhf"
			},
			{
				"type": "unocc",
				"energy": -0.04291,
				"method": "rhf"
			},
			{
				"type": "unocc",
				"energy": 0.01019,
				"method": "rhf"
			},
			{
				"type": "unocc",
				"energy": 0.01642,
				"method": "rhf"
			},
			{
				"type": "unocc",
				"energy": 0.03598,
				"method": "rhf"
			}
		],
		"cosmo_sigma_profile": { 
			"-0.025": 0.0,
			"-0.024": 0.0,
			"-0.023": 0.0,
			"-0.022": 0.0,
			"-0.021": 0.0,
			"-0.02": 0.0,
			"-0.019": 0.279582656845,
			"-0.018": 0.871169838546,
			"-0.017": 0.895586987157,
			"-0.016": 1.3101890968,
			"-0.015": 0.938315425639,
			"-0.014": 0.893981325232,
			"-0.013": 0.820386949132,
			"-0.012": 1.37098262973,
			"-0.011": 1.14583270431,
			"-0.01": 1.82972277442,
			"-0.009": 2.9930430474,
			"-0.008": 9.16146924846,
			"-0.007": 10.3834736675,
			"-0.006": 10.1076732436,
			"-0.005": 10.6290147154,
			"-0.004": 11.4141242774,
			"-0.003": 13.2739040373,
			"-0.002": 12.620696636,
			"-0.001": 15.598443445,
			"0.0": 22.1199906922,
			"0.001": 21.5243082781,
			"0.002": 14.3885503627,
			"0.003": 12.2405944504,
			"0.004": 15.2876809556,
			"0.005": 6.80861782799,
			"0.006": 6.51446373987,
			"0.007": 7.56106279641,
			"0.008": 7.09295962611,
			"0.009": 4.76875736175,
			"0.01": 6.04355766643,
			"0.011": 6.33869774443,
			"0.012": 3.45157307873,
			"0.013": 0.375741234359,
			"0.014": 0.0,
			"0.015": 0.0,
			"0.016": 0.0,
			"0.017": 0.0,
			"0.018": 0.0,
			"0.019": 0.0,
			"0.02": 0.0,
			"0.021": 0.0,
			"0.022": 0.0,
			"0.023": 0.0,
			"0.024": 0.0,
			"0.025": 0.0
		}
	}
}
