{
	 "smiles": "COC(=O)CS(=O)(=O)C1=CC=C(Br)C=C1", 
	 "Tm": 355.15, 
	 "num_atms": 24, 
	 "gaussian": { 
		 "optdone": 1, 
		 "sigma_profile": "yes", 
		 "theory": "DFT", 
		 "functional": "B3LYP", 
		 "basiset": "6-31G**", 
		 "properties": { 
			 "R2extent": 8616.5221, 
			 "electric_dipole_moment_norm": 2.90667699788, 
			 "electric_quadrupole_moment_norm": 13.2799457088, 
			 "total_energy": -3618.80004576, 
			 "HOMO_LUMO_gap": 0.20876, 
			 "cosmo_polarized_energy": -17.92, 
			 "cosmo_cavitation_energy": 33.29, 
			 "cosmo_dispersion_energy": -24.08, 
			 "cosmo_repulsion_energy": 1.86, 
			 "cosmo_total_nonelectrostatic_energy": 11.07, 
			 "SMD_solvation_energy": 5.5 
		},
		"coords": [
			{
				"x": 1.0054445605,
				"y": -4.1521442178,
				"z": 1.3918007042,
				"element": "C" 
			},
			{
				"x": 0.8098069487,
				"y": -2.7404166784,
				"z": 1.1814910063,
				"element": "O" 
			},
			{
				"x": 1.4497826744,
				"y": -2.2213541658,
				"z": 0.1236858082,
				"element": "C" 
			},
			{
				"x": 2.1997806737,
				"y": -2.8291146346,
				"z": -0.6041358266,
				"element": "O" 
			},
			{
				"x": 1.1226160044,
				"y": -0.745766751,
				"z": -0.040650996,
				"element": "C" 
			},
			{
				"x": -0.6653937014,
				"y": -0.4830662864,
				"z": -0.3930165204,
				"element": "S" 
			},
			{
				"x": -1.0471570449,
				"y": -1.4618013946,
				"z": -1.421097756,
				"element": "O" 
			},
			{
				"x": -1.3852280105,
				"y": -0.3817470979,
				"z": 0.8826697386,
				"element": "O" 
			},
			{
				"x": -0.6681212913,
				"y": 1.1488442802,
				"z": -1.1533765357,
				"element": "C" 
			},
			{
				"x": -0.4744400215,
				"y": 1.260618001,
				"z": -2.5318148818,
				"element": "C" 
			},
			{
				"x": -0.4779958725,
				"y": 2.5236736341,
				"z": -3.1209840002,
				"element": "C" 
			},
			{
				"x": -0.6797930316,
				"y": 3.6486890064,
				"z": -2.3188242066,
				"element": "C" 
			},
			{
				"x": -0.6823907379,
				"y": 5.3762483209,
				"z": -3.1236978648,
				"element": "Br" 
			},
			{
				"x": -0.8870057469,
				"y": 3.5374666365,
				"z": -0.9430856634,
				"element": "C" 
			},
			{
				"x": -0.882543253,
				"y": 2.2732349044,
				"z": -0.354876423,
				"element": "C" 
			},
			{
				"x": 0.6706432358,
				"y": -4.7141040825,
				"z": 0.5172673175,
				"element": "H" 
			},
			{
				"x": 0.4032485507,
				"y": -4.4015167225,
				"z": 2.2642383425,
				"element": "H" 
			},
			{
				"x": 2.0609824407,
				"y": -4.3667632369,
				"z": 1.5746881505,
				"element": "H" 
			},
			{
				"x": 1.3481319183,
				"y": -0.1823299215,
				"z": 0.8676263368,
				"element": "H" 
			},
			{
				"x": 1.6875968472,
				"y": -0.3586327367,
				"z": -0.8884119075,
				"element": "H" 
			},
			{
				"x": -0.343377315,
				"y": 0.3686101237,
				"z": -3.1355398061,
				"element": "H" 
			},
			{
				"x": -0.3339131367,
				"y": 2.6343674383,
				"z": -4.1894081111,
				"element": "H" 
			},
			{
				"x": -1.0555657854,
				"y": 4.424320243,
				"z": -0.3433948371,
				"element": "H" 
			},
			{
				"x": -1.063208906,
				"y": 2.1552853383,
				"z": 0.7082479317,
				"element": "H" 
			}
		],
		 "valence_orbital": [ 
			{
				"type": "occ",
				"energy": -0.3041,
				"method": "rhf"
			},
			{
				"type": "occ",
				"energy": -0.30125,
				"method": "rhf"
			},
			{
				"type": "occ",
				"energy": -0.28947,
				"method": "rhf"
			},
			{
				"type": "occ",
				"energy": -0.28542,
				"method": "rhf"
			},
			{
				"type": "occ",
				"energy": -0.26792,
				"method": "rhf"
			},
			{
				"type": "unocc",
				"energy": -0.05916,
				"method": "rhf"
			},
			{
				"type": "unocc",
				"energy": -0.04004,
				"method": "rhf"
			},
			{
				"type": "unocc",
				"energy": -0.01603,
				"method": "rhf"
			},
			{
				"type": "unocc",
				"energy": -0.01037,
				"method": "rhf"
			},
			{
				"type": "unocc",
				"energy": 0.05984,
				"method": "rhf"
			}
		],
		"cosmo_sigma_profile": { 
			"-0.025": 0.0,
			"-0.024": 0.0,
			"-0.023": 0.0,
			"-0.022": 0.0,
			"-0.021": 0.0,
			"-0.02": 0.0,
			"-0.019": 0.0,
			"-0.018": 0.0,
			"-0.017": 0.0,
			"-0.016": 0.0,
			"-0.015": 0.0,
			"-0.014": 0.0,
			"-0.013": 0.0,
			"-0.012": 0.0,
			"-0.011": 0.36480137814,
			"-0.01": 2.85122759143,
			"-0.009": 4.79898998367,
			"-0.008": 10.8040394457,
			"-0.007": 15.8255918472,
			"-0.006": 18.6994365971,
			"-0.005": 16.2104777295,
			"-0.004": 18.5775268493,
			"-0.003": 15.5800850187,
			"-0.002": 12.3968703142,
			"-0.001": 14.7567311214,
			"0.0": 20.8609879192,
			"0.001": 23.4900034626,
			"0.002": 12.8622247092,
			"0.003": 13.4855414879,
			"0.004": 13.8290039297,
			"0.005": 5.37514321015,
			"0.006": 4.24963134389,
			"0.007": 4.51545609764,
			"0.008": 5.72835425197,
			"0.009": 7.68052469382,
			"0.01": 11.3231111848,
			"0.011": 12.7031869479,
			"0.012": 2.44524371286,
			"0.013": 0.0,
			"0.014": 0.0,
			"0.015": 0.0,
			"0.016": 0.0,
			"0.017": 0.0,
			"0.018": 0.0,
			"0.019": 0.0,
			"0.02": 0.0,
			"0.021": 0.0,
			"0.022": 0.0,
			"0.023": 0.0,
			"0.024": 0.0,
			"0.025": 0.0
		}
	}
}
