{
	 "smiles": "NC(=O)C1(CCNCC1)N1CCCCC1", 
	 "Tm": 403.15, 
	 "num_atms": 36, 
	 "gaussian": { 
		 "optdone": 1, 
		 "sigma_profile": "yes", 
		 "theory": "DFT", 
		 "functional": "B3LYP", 
		 "basiset": "6-31G**", 
		 "properties": { 
			 "R2extent": 3888.2109, 
			 "electric_dipole_moment_norm": 4.50224090093, 
			 "electric_quadrupole_moment_norm": 16.1257138307, 
			 "total_energy": -671.30664749, 
			 "HOMO_LUMO_gap": 0.22431, 
			 "cosmo_polarized_energy": -11.57, 
			 "cosmo_cavitation_energy": 33.12, 
			 "cosmo_dispersion_energy": -24.02, 
			 "cosmo_repulsion_energy": 1.86, 
			 "cosmo_total_nonelectrostatic_energy": 10.95, 
			 "SMD_solvation_energy": 1.75 
		},
		"coords": [
			{
				"x": 1.4110896951,
				"y": 0.1907220108,
				"z": -1.8715261053,
				"element": "N" 
			},
			{
				"x": 1.3224054639,
				"y": 1.4357380209,
				"z": -1.3332742582,
				"element": "C" 
			},
			{
				"x": 1.6025742059,
				"y": 2.4524506657,
				"z": -1.9624686273,
				"element": "O" 
			},
			{
				"x": 0.9218835682,
				"y": 1.4458838168,
				"z": 0.1741381381,
				"element": "C" 
			},
			{
				"x": 2.2180576829,
				"y": 1.1492971113,
				"z": 0.9717327955,
				"element": "C" 
			},
			{
				"x": 3.3212030194,
				"y": 2.2107633454,
				"z": 0.7160801663,
				"element": "C" 
			},
			{
				"x": 2.820444661,
				"y": 3.5798533331,
				"z": 0.517193588,
				"element": "N" 
			},
			{
				"x": 1.5207685307,
				"y": 3.7713263579,
				"z": 1.1568885507,
				"element": "C" 
			},
			{
				"x": 0.4042176568,
				"y": 2.8592858918,
				"z": 0.5833114225,
				"element": "C" 
			},
			{
				"x": -0.074717804,
				"y": 0.3583620463,
				"z": 0.3644469292,
				"element": "N" 
			},
			{
				"x": -0.2851420999,
				"y": -0.0805055554,
				"z": 1.7570260558,
				"element": "C" 
			},
			{
				"x": -1.5430793018,
				"y": -0.9686976851,
				"z": 1.8844992855,
				"element": "C" 
			},
			{
				"x": -1.8087123308,
				"y": -1.7336745844,
				"z": 0.5847729951,
				"element": "C" 
			},
			{
				"x": -2.0846122704,
				"y": -0.7316878435,
				"z": -0.5588437193,
				"element": "C" 
			},
			{
				"x": -1.3623015341,
				"y": 0.6077656996,
				"z": -0.3065634069,
				"element": "C" 
			},
			{
				"x": 1.0086033444,
				"y": -0.5777965851,
				"z": -1.3535058105,
				"element": "H" 
			},
			{
				"x": 1.6335190122,
				"y": 0.1059913416,
				"z": -2.8514034184,
				"element": "H" 
			},
			{
				"x": 2.5918254068,
				"y": 0.1483212023,
				"z": 0.7308322651,
				"element": "H" 
			},
			{
				"x": 1.9703316932,
				"y": 1.1490353822,
				"z": 2.0376339858,
				"element": "H" 
			},
			{
				"x": 3.9098042702,
				"y": 1.9366277936,
				"z": -0.1652401783,
				"element": "H" 
			},
			{
				"x": 4.0114351747,
				"y": 2.1914606186,
				"z": 1.5710664735,
				"element": "H" 
			},
			{
				"x": 2.679574195,
				"y": 3.7108870602,
				"z": -0.4819624955,
				"element": "H" 
			},
			{
				"x": 1.6393921382,
				"y": 3.5905387523,
				"z": 2.2334824855,
				"element": "H" 
			},
			{
				"x": 1.2265384893,
				"y": 4.8215281462,
				"z": 1.0539451547,
				"element": "H" 
			},
			{
				"x": -0.3885837377,
				"y": 2.7460408043,
				"z": 1.3328533457,
				"element": "H" 
			},
			{
				"x": -0.0423470808,
				"y": 3.3396237693,
				"z": -0.2916566386,
				"element": "H" 
			},
			{
				"x": -0.3797740082,
				"y": 0.7730477557,
				"z": 2.451690002,
				"element": "H" 
			},
			{
				"x": 0.5931886228,
				"y": -0.6520385163,
				"z": 2.0735570197,
				"element": "H" 
			},
			{
				"x": -2.4178640098,
				"y": -0.3504628247,
				"z": 2.1208569037,
				"element": "H" 
			},
			{
				"x": -1.4131229354,
				"y": -1.6518461739,
				"z": 2.7306408536,
				"element": "H" 
			},
			{
				"x": -2.6499775309,
				"y": -2.424751667,
				"z": 0.7044930998,
				"element": "H" 
			},
			{
				"x": -0.9319433653,
				"y": -2.3461246167,
				"z": 0.3438512902,
				"element": "H" 
			},
			{
				"x": -1.7582072072,
				"y": -1.1564842647,
				"z": -1.515043755,
				"element": "H" 
			},
			{
				"x": -3.1605931264,
				"y": -0.541066357,
				"z": -0.6504763531,
				"element": "H" 
			},
			{
				"x": -2.0058420692,
				"y": 1.2821864061,
				"z": 0.2834646809,
				"element": "H" 
			},
			{
				"x": -1.178236419,
				"y": 1.1180993417,
				"z": -1.2558927207,
				"element": "H" 
			}
		],
		 "valence_orbital": [ 
			{
				"type": "occ",
				"energy": -0.30485,
				"method": "rhf"
			},
			{
				"type": "occ",
				"energy": -0.26674,
				"method": "rhf"
			},
			{
				"type": "occ",
				"energy": -0.25,
				"method": "rhf"
			},
			{
				"type": "occ",
				"energy": -0.21505,
				"method": "rhf"
			},
			{
				"type": "occ",
				"energy": -0.20071,
				"method": "rhf"
			},
			{
				"type": "unocc",
				"energy": 0.0236,
				"method": "rhf"
			},
			{
				"type": "unocc",
				"energy": 0.06403,
				"method": "rhf"
			},
			{
				"type": "unocc",
				"energy": 0.08424,
				"method": "rhf"
			},
			{
				"type": "unocc",
				"energy": 0.09459,
				"method": "rhf"
			},
			{
				"type": "unocc",
				"energy": 0.10904,
				"method": "rhf"
			}
		],
		"cosmo_sigma_profile": { 
			"-0.025": 0.0,
			"-0.024": 0.0,
			"-0.023": 0.0,
			"-0.022": 0.0,
			"-0.021": 0.0,
			"-0.02": 0.0,
			"-0.019": 0.0,
			"-0.018": 0.0,
			"-0.017": 0.0,
			"-0.016": 0.0,
			"-0.015": 0.0,
			"-0.014": 0.441133474483,
			"-0.013": 0.950005836401,
			"-0.012": 1.06387751462,
			"-0.011": 1.25125668947,
			"-0.01": 0.930469876286,
			"-0.009": 1.70087079878,
			"-0.008": 2.13917486719,
			"-0.007": 1.51479574374,
			"-0.006": 2.10096645971,
			"-0.005": 1.29300350568,
			"-0.004": 3.64684048764,
			"-0.003": 27.6582401593,
			"-0.002": 54.6128970851,
			"-0.001": 49.9460140238,
			"0.0": 38.1730275868,
			"0.001": 21.7267968737,
			"0.002": 6.31396591986,
			"0.003": 4.95828434343,
			"0.004": 3.81846562642,
			"0.005": 3.57070623746,
			"0.006": 2.87464760307,
			"0.007": 2.69185172886,
			"0.008": 2.0412348729,
			"0.009": 2.11149203845,
			"0.01": 1.37884020827,
			"0.011": 2.33929077823,
			"0.012": 2.4311155869,
			"0.013": 2.58340853294,
			"0.014": 3.70103496057,
			"0.015": 1.85566463764,
			"0.016": 0.097125270862,
			"0.017": 0.496774546086,
			"0.018": 0.557928505268,
			"0.019": 0.769480343642,
			"0.02": 0.116506793529,
			"0.021": 0.0,
			"0.022": 0.0,
			"0.023": 0.0,
			"0.024": 0.0,
			"0.025": 0.0
		}
	}
}
