{
	 "smiles": "OC(C1CCCCN1)C1=CC=CC=C1", 
	 "Tm": 410.15, 
	 "num_atms": 31, 
	 "gaussian": { 
		 "optdone": 1, 
		 "sigma_profile": "yes", 
		 "theory": "DFT", 
		 "functional": "B3LYP", 
		 "basiset": "6-31G**", 
		 "properties": { 
			 "R2extent": 3195.9885, 
			 "electric_dipole_moment_norm": 2.17525775944, 
			 "electric_quadrupole_moment_norm": 6.75457872558, 
			 "total_energy": -597.487449833, 
			 "HOMO_LUMO_gap": 0.18979, 
			 "cosmo_polarized_energy": -8.51, 
			 "cosmo_cavitation_energy": 30.81, 
			 "cosmo_dispersion_energy": -22.32, 
			 "cosmo_repulsion_energy": 1.77, 
			 "cosmo_total_nonelectrostatic_energy": 10.25, 
			 "SMD_solvation_energy": 2.57 
		},
		"coords": [
			{
				"x": 0.4283956704,
				"y": -3.3536269578,
				"z": 1.2786811557,
				"element": "O" 
			},
			{
				"x": 0.3129243104,
				"y": -2.4447602959,
				"z": 0.1799938956,
				"element": "C" 
			},
			{
				"x": 1.6877256538,
				"y": -1.7147374919,
				"z": 0.13707644,
				"element": "C" 
			},
			{
				"x": 1.8439185314,
				"y": -0.7832144217,
				"z": -1.0791302318,
				"element": "C" 
			},
			{
				"x": 3.0322569596,
				"y": 0.1657818357,
				"z": -0.8693630227,
				"element": "C" 
			},
			{
				"x": 2.7865941581,
				"y": 1.0936838182,
				"z": 0.3463602934,
				"element": "C" 
			},
			{
				"x": 1.8049855846,
				"y": 0.4448106797,
				"z": 1.3449973619,
				"element": "C" 
			},
			{
				"x": 2.0336535389,
				"y": -0.9988617309,
				"z": 1.3660556753,
				"element": "N" 
			},
			{
				"x": -0.9172077558,
				"y": -1.5630795062,
				"z": 0.3138197442,
				"element": "C" 
			},
			{
				"x": -1.6064336878,
				"y": -1.1241881296,
				"z": -0.8257964892,
				"element": "C" 
			},
			{
				"x": -2.7290062316,
				"y": -0.3032026199,
				"z": -0.7130494015,
				"element": "C" 
			},
			{
				"x": -3.18906696,
				"y": 0.084362971,
				"z": 0.5470359117,
				"element": "C" 
			},
			{
				"x": -2.5225799771,
				"y": -0.3610708125,
				"z": 1.6901213659,
				"element": "C" 
			},
			{
				"x": -1.3989692719,
				"y": -1.1807944054,
				"z": 1.5745435541,
				"element": "C" 
			},
			{
				"x": -0.4276915332,
				"y": -3.7862030584,
				"z": 1.3954852829,
				"element": "H" 
			},
			{
				"x": 0.2289976519,
				"y": -3.0058306346,
				"z": -0.7663106443,
				"element": "H" 
			},
			{
				"x": 2.4099042077,
				"y": -2.5387533232,
				"z": 0.0275377889,
				"element": "H" 
			},
			{
				"x": 1.9768310436,
				"y": -1.3867529436,
				"z": -1.9842753267,
				"element": "H" 
			},
			{
				"x": 0.9322309016,
				"y": -0.1918882048,
				"z": -1.2273373054,
				"element": "H" 
			},
			{
				"x": 3.9344406454,
				"y": -0.4330069031,
				"z": -0.7000724444,
				"element": "H" 
			},
			{
				"x": 3.2125505132,
				"y": 0.7565516081,
				"z": -1.7742909288,
				"element": "H" 
			},
			{
				"x": 2.3769614724,
				"y": 2.0568689259,
				"z": 0.0183836782,
				"element": "H" 
			},
			{
				"x": 3.7401872352,
				"y": 1.3043085377,
				"z": 0.8420346807,
				"element": "H" 
			},
			{
				"x": 0.770957572,
				"y": 0.7236382652,
				"z": 1.0821969392,
				"element": "H" 
			},
			{
				"x": 1.9812297564,
				"y": 0.8314242964,
				"z": 2.3545815452,
				"element": "H" 
			},
			{
				"x": 1.6279257858,
				"y": -1.4600868937,
				"z": 2.1721955251,
				"element": "H" 
			},
			{
				"x": -1.2646608167,
				"y": -1.436182521,
				"z": -1.8098285581,
				"element": "H" 
			},
			{
				"x": -3.2497985724,
				"y": 0.0251150487,
				"z": -1.6082418098,
				"element": "H" 
			},
			{
				"x": -4.0657482785,
				"y": 0.7192788019,
				"z": 0.6374410823,
				"element": "H" 
			},
			{
				"x": -2.880364129,
				"y": -0.0732794547,
				"z": 2.6749241311,
				"element": "H" 
			},
			{
				"x": -0.8909439784,
				"y": -1.5373044797,
				"z": 2.4648301113,
				"element": "H" 
			}
		],
		 "valence_orbital": [ 
			{
				"type": "occ",
				"energy": -0.30036,
				"method": "rhf"
			},
			{
				"type": "occ",
				"energy": -0.27897,
				"method": "rhf"
			},
			{
				"type": "occ",
				"energy": -0.25196,
				"method": "rhf"
			},
			{
				"type": "occ",
				"energy": -0.246,
				"method": "rhf"
			},
			{
				"type": "occ",
				"energy": -0.19663,
				"method": "rhf"
			},
			{
				"type": "unocc",
				"energy": -0.00684,
				"method": "rhf"
			},
			{
				"type": "unocc",
				"energy": -0.00485,
				"method": "rhf"
			},
			{
				"type": "unocc",
				"energy": 0.07691,
				"method": "rhf"
			},
			{
				"type": "unocc",
				"energy": 0.09437,
				"method": "rhf"
			},
			{
				"type": "unocc",
				"energy": 0.0999,
				"method": "rhf"
			}
		],
		"cosmo_sigma_profile": { 
			"-0.025": 0.0,
			"-0.024": 0.0,
			"-0.023": 0.0,
			"-0.022": 0.0,
			"-0.021": 0.0,
			"-0.02": 0.0,
			"-0.019": 0.0,
			"-0.018": 0.0,
			"-0.017": 0.0,
			"-0.016": 0.0,
			"-0.015": 0.712749401016,
			"-0.014": 0.830186023245,
			"-0.013": 0.776657830665,
			"-0.012": 0.987798680027,
			"-0.011": 0.42621532612,
			"-0.01": 0.949332962978,
			"-0.009": 0.717191756302,
			"-0.008": 0.921301309636,
			"-0.007": 1.5556633622,
			"-0.006": 4.248399799,
			"-0.005": 12.2145457541,
			"-0.004": 15.8673237524,
			"-0.003": 24.7777043935,
			"-0.002": 25.2924309761,
			"-0.001": 31.8300893954,
			"0.0": 27.2293635164,
			"0.001": 20.9387777466,
			"0.002": 14.0986778584,
			"0.003": 11.2898264096,
			"0.004": 9.8487133807,
			"0.005": 10.7715972603,
			"0.006": 8.01444975183,
			"0.007": 2.61840079962,
			"0.008": 2.08614797196,
			"0.009": 1.82402811858,
			"0.01": 1.50134982583,
			"0.011": 1.43275103289,
			"0.012": 1.59690960581,
			"0.013": 1.78178895837,
			"0.014": 1.1572314503,
			"0.015": 0.676905409165,
			"0.016": 0.26989528712,
			"0.017": 0.416976597898,
			"0.018": 0.114428578922,
			"0.019": 0.0,
			"0.02": 0.0,
			"0.021": 0.0,
			"0.022": 0.0,
			"0.023": 0.0,
			"0.024": 0.0,
			"0.025": 0.0
		}
	}
}
