{
	 "smiles": "O=C(C1=NOC(=C1S(=O)(=O)C1=CC=CC=C1)C1=C2C=CC=CC2=CC=C1)C1=CC=C2C=CC=CC2=C1", 
	 "Tm": 388.15, 
	 "num_atms": 55, 
	 "gaussian": { 
		 "optdone": 1, 
		 "sigma_profile": "yes", 
		 "theory": "DFT", 
		 "functional": "B3LYP", 
		 "basiset": "6-31G**", 
		 "properties": { 
			 "R2extent": 17779.2025, 
			 "electric_dipole_moment_norm": 8.32410497892, 
			 "electric_quadrupole_moment_norm": 32.5264307127, 
			 "total_energy": -1908.36735744, 
			 "HOMO_LUMO_gap": 0.15655, 
			 "cosmo_polarized_energy": -23.14, 
			 "cosmo_cavitation_energy": 61.31, 
			 "cosmo_dispersion_energy": -39.24, 
			 "cosmo_repulsion_energy": 2.85, 
			 "cosmo_total_nonelectrostatic_energy": 24.91, 
			 "SMD_solvation_energy": 8.94 
		},
		"coords": [
			{
				"x": 2.2947729921,
				"y": -3.0485446444,
				"z": -1.7376410659,
				"element": "O" 
			},
			{
				"x": 1.8529886504,
				"y": -2.2003190289,
				"z": -0.9858193667,
				"element": "C" 
			},
			{
				"x": 1.2296645027,
				"y": -0.9546620027,
				"z": -1.6022993095,
				"element": "C" 
			},
			{
				"x": 1.9867727265,
				"y": 0.0927867084,
				"z": -1.8178682654,
				"element": "N" 
			},
			{
				"x": 1.1734916151,
				"y": 1.0127808326,
				"z": -2.4973605761,
				"element": "O" 
			},
			{
				"x": -0.0625045248,
				"y": 0.5019095133,
				"z": -2.6767996952,
				"element": "C" 
			},
			{
				"x": -0.0922244805,
				"y": -0.7579871759,
				"z": -2.1150039309,
				"element": "C" 
			},
			{
				"x": -1.4481749527,
				"y": -1.8982873885,
				"z": -1.9053768164,
				"element": "S" 
			},
			{
				"x": -2.144443191,
				"y": -2.0603010947,
				"z": -3.1897100283,
				"element": "O" 
			},
			{
				"x": -0.8767791472,
				"y": -3.0504759779,
				"z": -1.1941570758,
				"element": "O" 
			},
			{
				"x": -2.5645438176,
				"y": -1.0554317138,
				"z": -0.7745550244,
				"element": "C" 
			},
			{
				"x": -3.6318640754,
				"y": -0.3142977981,
				"z": -1.2852474964,
				"element": "C" 
			},
			{
				"x": -4.4927094129,
				"y": 0.3260620795,
				"z": -0.3927990724,
				"element": "C" 
			},
			{
				"x": -4.2836330837,
				"y": 0.2178720223,
				"z": 0.9838481766,
				"element": "C" 
			},
			{
				"x": -3.2166246204,
				"y": -0.5364585344,
				"z": 1.4796979969,
				"element": "C" 
			},
			{
				"x": -2.3480573175,
				"y": -1.1819705588,
				"z": 0.6002500303,
				"element": "C" 
			},
			{
				"x": -1.0376499961,
				"y": 1.3303046319,
				"z": -3.4000512797,
				"element": "C" 
			},
			{
				"x": -1.2400016675,
				"y": 2.7170241047,
				"z": -3.0709925403,
				"element": "C" 
			},
			{
				"x": -0.5805119458,
				"y": 3.3817424791,
				"z": -2.0007732545,
				"element": "C" 
			},
			{
				"x": -0.8328033164,
				"y": 4.7082100797,
				"z": -1.7273783698,
				"element": "C" 
			},
			{
				"x": -1.7565098072,
				"y": 5.4447974905,
				"z": -2.5048060484,
				"element": "C" 
			},
			{
				"x": -2.4184366063,
				"y": 4.8309495428,
				"z": -3.5422401505,
				"element": "C" 
			},
			{
				"x": -2.1871411502,
				"y": 3.4629886858,
				"z": -3.8499345562,
				"element": "C" 
			},
			{
				"x": -2.8836847268,
				"y": 2.8245783133,
				"z": -4.9104491985,
				"element": "C" 
			},
			{
				"x": -2.6713074503,
				"y": 1.4967341453,
				"z": -5.1981795127,
				"element": "C" 
			},
			{
				"x": -1.7453251386,
				"y": 0.7472995753,
				"z": -4.4412407563,
				"element": "C" 
			},
			{
				"x": 1.9226714502,
				"y": -2.3051834136,
				"z": 0.4923591558,
				"element": "C" 
			},
			{
				"x": 2.4000673702,
				"y": -3.5238876174,
				"z": 1.053664516,
				"element": "C" 
			},
			{
				"x": 2.4886807605,
				"y": -3.6711394692,
				"z": 2.4138059599,
				"element": "C" 
			},
			{
				"x": 2.1144534912,
				"y": -2.6148015827,
				"z": 3.2932409588,
				"element": "C" 
			},
			{
				"x": 2.1949944378,
				"y": -2.7366112613,
				"z": 4.7047627748,
				"element": "C" 
			},
			{
				"x": 1.8275183647,
				"y": -1.6917540925,
				"z": 5.5246801064,
				"element": "C" 
			},
			{
				"x": 1.3623830909,
				"y": -0.4736442521,
				"z": 4.971211378,
				"element": "C" 
			},
			{
				"x": 1.2718390626,
				"y": -0.323504222,
				"z": 3.6056283112,
				"element": "C" 
			},
			{
				"x": 1.6407570667,
				"y": -1.3831504263,
				"z": 2.7328579286,
				"element": "C" 
			},
			{
				"x": 1.5543667338,
				"y": -1.2606821467,
				"z": 1.3221953451,
				"element": "C" 
			},
			{
				"x": -3.7872879532,
				"y": -0.2568512761,
				"z": -2.3563626575,
				"element": "H" 
			},
			{
				"x": -5.3292699611,
				"y": 0.9037254301,
				"z": -0.7738244731,
				"element": "H" 
			},
			{
				"x": -4.958752769,
				"y": 0.7164427915,
				"z": 1.6732297038,
				"element": "H" 
			},
			{
				"x": -3.06457621,
				"y": -0.6295626826,
				"z": 2.5507085643,
				"element": "H" 
			},
			{
				"x": -1.526021089,
				"y": -1.7879257946,
				"z": 0.9658351007,
				"element": "H" 
			},
			{
				"x": 0.1397200758,
				"y": 2.8417255829,
				"z": -1.3989613093,
				"element": "H" 
			},
			{
				"x": -0.314436103,
				"y": 5.1941358248,
				"z": -0.9060064138,
				"element": "H" 
			},
			{
				"x": -1.9411382891,
				"y": 6.4907688739,
				"z": -2.2789203503,
				"element": "H" 
			},
			{
				"x": -3.1346521173,
				"y": 5.3833349499,
				"z": -4.144824239,
				"element": "H" 
			},
			{
				"x": -3.5918712601,
				"y": 3.4084721073,
				"z": -5.4927002256,
				"element": "H" 
			},
			{
				"x": -3.2045752573,
				"y": 1.0156652634,
				"z": -6.0119742229,
				"element": "H" 
			},
			{
				"x": -1.5840437252,
				"y": -0.2982697944,
				"z": -4.6739245498,
				"element": "H" 
			},
			{
				"x": 2.6818337648,
				"y": -4.321237575,
				"z": 0.3750403036,
				"element": "H" 
			},
			{
				"x": 2.8473777461,
				"y": -4.6034347361,
				"z": 2.8419639691,
				"element": "H" 
			},
			{
				"x": 2.5533979534,
				"y": -3.6702770732,
				"z": 5.1300401376,
				"element": "H" 
			},
			{
				"x": 1.8952001914,
				"y": -1.7985121547,
				"z": 6.6034341537,
				"element": "H" 
			},
			{
				"x": 1.079252466,
				"y": 0.3420625947,
				"z": 5.6298554912,
				"element": "H" 
			},
			{
				"x": 0.9182657769,
				"y": 0.6098750678,
				"z": 3.1750905921,
				"element": "H" 
			},
			{
				"x": 1.2067848737,
				"y": -0.3220832023,
				"z": 0.9008811769,
				"element": "H" 
			}
		],
		 "valence_orbital": [ 
			{
				"type": "occ",
				"energy": -0.26207,
				"method": "rhf"
			},
			{
				"type": "occ",
				"energy": -0.25887,
				"method": "rhf"
			},
			{
				"type": "occ",
				"energy": -0.2548,
				"method": "rhf"
			},
			{
				"type": "occ",
				"energy": -0.23018,
				"method": "rhf"
			},
			{
				"type": "occ",
				"energy": -0.22924,
				"method": "rhf"
			},
			{
				"type": "unocc",
				"energy": -0.07269,
				"method": "rhf"
			},
			{
				"type": "unocc",
				"energy": -0.07047,
				"method": "rhf"
			},
			{
				"type": "unocc",
				"energy": -0.04547,
				"method": "rhf"
			},
			{
				"type": "unocc",
				"energy": -0.04012,
				"method": "rhf"
			},
			{
				"type": "unocc",
				"energy": -0.0314,
				"method": "rhf"
			}
		],
		"cosmo_sigma_profile": { 
			"-0.025": 0.0,
			"-0.024": 0.0,
			"-0.023": 0.0,
			"-0.022": 0.0,
			"-0.021": 0.0,
			"-0.02": 0.0,
			"-0.019": 0.0,
			"-0.018": 0.0,
			"-0.017": 0.0,
			"-0.016": 0.0,
			"-0.015": 0.0,
			"-0.014": 0.0,
			"-0.013": 0.0,
			"-0.012": 0.0,
			"-0.011": 0.0,
			"-0.01": 0.0,
			"-0.009": 0.0,
			"-0.008": 1.19757051024,
			"-0.007": 18.8889400702,
			"-0.006": 38.5362800109,
			"-0.005": 39.477371025,
			"-0.004": 38.7584159662,
			"-0.003": 30.0013075791,
			"-0.002": 31.123681906,
			"-0.001": 30.3839430068,
			"0.0": 33.685728978,
			"0.001": 39.8162960005,
			"0.002": 53.3137717544,
			"0.003": 50.0088062901,
			"0.004": 28.7257237317,
			"0.005": 10.7992388177,
			"0.006": 7.98840032112,
			"0.007": 5.80034678219,
			"0.008": 7.61323914755,
			"0.009": 8.20541004118,
			"0.01": 10.793813878,
			"0.011": 9.04423218155,
			"0.012": 1.23992965059,
			"0.013": 0.0,
			"0.014": 0.0,
			"0.015": 0.0,
			"0.016": 0.0,
			"0.017": 0.0,
			"0.018": 0.0,
			"0.019": 0.0,
			"0.02": 0.0,
			"0.021": 0.0,
			"0.022": 0.0,
			"0.023": 0.0,
			"0.024": 0.0,
			"0.025": 0.0
		}
	}
}
