{
	 "smiles": "OC(=O)CCC1=CC=C(C=C1)C#N", 
	 "Tm": 411.15, 
	 "num_atms": 22, 
	 "gaussian": { 
		 "optdone": 1, 
		 "sigma_profile": "yes", 
		 "theory": "DFT", 
		 "functional": "B3LYP", 
		 "basiset": "6-31G**", 
		 "properties": { 
			 "R2extent": 3918.242, 
			 "electric_dipole_moment_norm": 2.75948289359, 
			 "electric_quadrupole_moment_norm": 46.7454008613, 
			 "total_energy": -591.685479371, 
			 "HOMO_LUMO_gap": 0.20772, 
			 "cosmo_polarized_energy": -21.14, 
			 "cosmo_cavitation_energy": 28.26, 
			 "cosmo_dispersion_energy": -19.53, 
			 "cosmo_repulsion_energy": 1.57, 
			 "cosmo_total_nonelectrostatic_energy": 10.3, 
			 "SMD_solvation_energy": 7.22 
		},
		"coords": [
			{
				"x": 3.9032835722,
				"y": -1.3826941474,
				"z": 1.3303248188,
				"element": "O" 
			},
			{
				"x": 3.4410160588,
				"y": -0.2282659017,
				"z": 0.7805279724,
				"element": "C" 
			},
			{
				"x": 4.1930710321,
				"y": 0.6918096841,
				"z": 0.5813945486,
				"element": "O" 
			},
			{
				"x": 1.9512662977,
				"y": -0.2105238302,
				"z": 0.4556310035,
				"element": "C" 
			},
			{
				"x": 1.503638586,
				"y": 1.1244215183,
				"z": -0.1615726152,
				"element": "C" 
			},
			{
				"x": 0.0261145779,
				"y": 1.1388132815,
				"z": -0.4834328224,
				"element": "C" 
			},
			{
				"x": -0.9124036622,
				"y": 1.5613633873,
				"z": 0.4694775166,
				"element": "C" 
			},
			{
				"x": -2.2759778791,
				"y": 1.5461001664,
				"z": 0.1938246504,
				"element": "C" 
			},
			{
				"x": -2.7303795161,
				"y": 1.1016882802,
				"z": -1.0590353932,
				"element": "C" 
			},
			{
				"x": -1.8010898487,
				"y": 0.6798395007,
				"z": -2.0244928083,
				"element": "C" 
			},
			{
				"x": -0.4411985146,
				"y": 0.7018077681,
				"z": -1.7316471666,
				"element": "C" 
			},
			{
				"x": -4.1338913604,
				"y": 1.0826442535,
				"z": -1.3520343674,
				"element": "C" 
			},
			{
				"x": -5.2728210731,
				"y": 1.0645046033,
				"z": -1.5887125335,
				"element": "N" 
			},
			{
				"x": 3.1842712467,
				"y": -2.0233691744,
				"z": 1.4272244791,
				"element": "H" 
			},
			{
				"x": 1.7296172967,
				"y": -1.0426721521,
				"z": -0.2266263553,
				"element": "H" 
			},
			{
				"x": 1.3875084966,
				"y": -0.4165033456,
				"z": 1.3758537323,
				"element": "H" 
			},
			{
				"x": 2.0930311561,
				"y": 1.3072603197,
				"z": -1.0649634319,
				"element": "H" 
			},
			{
				"x": 1.7508422911,
				"y": 1.9318762165,
				"z": 0.5340194633,
				"element": "H" 
			},
			{
				"x": -0.5693836323,
				"y": 1.9145664045,
				"z": 1.4385122804,
				"element": "H" 
			},
			{
				"x": -2.9926295969,
				"y": 1.8793265177,
				"z": 0.9370451068,
				"element": "H" 
			},
			{
				"x": -2.1508876442,
				"y": 0.3438916159,
				"z": -2.9949498579,
				"element": "H" 
			},
			{
				"x": 0.2711021158,
				"y": 0.3814150336,
				"z": -2.4875682207,
				"element": "H" 
			}
		],
		 "valence_orbital": [ 
			{
				"type": "occ",
				"energy": -0.33233,
				"method": "rhf"
			},
			{
				"type": "occ",
				"energy": -0.32698,
				"method": "rhf"
			},
			{
				"type": "occ",
				"energy": -0.28548,
				"method": "rhf"
			},
			{
				"type": "occ",
				"energy": -0.28104,
				"method": "rhf"
			},
			{
				"type": "occ",
				"energy": -0.26372,
				"method": "rhf"
			},
			{
				"type": "unocc",
				"energy": -0.056,
				"method": "rhf"
			},
			{
				"type": "unocc",
				"energy": -0.03126,
				"method": "rhf"
			},
			{
				"type": "unocc",
				"energy": -0.00028,
				"method": "rhf"
			},
			{
				"type": "unocc",
				"energy": 0.03415,
				"method": "rhf"
			},
			{
				"type": "unocc",
				"energy": 0.04384,
				"method": "rhf"
			}
		],
		"cosmo_sigma_profile": { 
			"-0.025": 0.0,
			"-0.024": 0.0,
			"-0.023": 0.0,
			"-0.022": 0.0,
			"-0.021": 0.0,
			"-0.02": 0.0578302908134,
			"-0.019": 0.804512720127,
			"-0.018": 1.00035479985,
			"-0.017": 1.18710950045,
			"-0.016": 0.938221017774,
			"-0.015": 0.891238708921,
			"-0.014": 0.932066954565,
			"-0.013": 1.05903652626,
			"-0.012": 1.18076013623,
			"-0.011": 1.54911939419,
			"-0.01": 1.49273368587,
			"-0.009": 1.59699321012,
			"-0.008": 3.86929496746,
			"-0.007": 10.683446103,
			"-0.006": 18.1939915122,
			"-0.005": 19.5292872135,
			"-0.004": 13.5614015814,
			"-0.003": 11.4343406283,
			"-0.002": 11.670641259,
			"-0.001": 13.5523917027,
			"0.0": 12.3952886656,
			"0.001": 11.2193908169,
			"0.002": 14.4517209204,
			"0.003": 13.9578379048,
			"0.004": 3.6047810681,
			"0.005": 4.19241619799,
			"0.006": 5.58101230151,
			"0.007": 4.37004513755,
			"0.008": 6.35081187842,
			"0.009": 6.85500371423,
			"0.01": 7.88012130788,
			"0.011": 8.11180454857,
			"0.012": 8.12797100864,
			"0.013": 3.40251256293,
			"0.014": 0.126402830868,
			"0.015": 0.0,
			"0.016": 0.0,
			"0.017": 0.0,
			"0.018": 0.0,
			"0.019": 0.0,
			"0.02": 0.0,
			"0.021": 0.0,
			"0.022": 0.0,
			"0.023": 0.0,
			"0.024": 0.0,
			"0.025": 0.0
		}
	}
}
