{
	 "smiles": "CC1=CC(SC2=NN=C(N)S2)=C2C=CC=CC2=N1", 
	 "Tm": 471.15, 
	 "num_atms": 28, 
	 "gaussian": { 
		 "optdone": 1, 
		 "sigma_profile": "yes", 
		 "theory": "DFT", 
		 "functional": "B3LYP", 
		 "basiset": "6-31G**", 
		 "properties": { 
			 "R2extent": 8102.9258, 
			 "electric_dipole_moment_norm": 3.9432127688, 
			 "electric_quadrupole_moment_norm": 25.8389596451, 
			 "total_energy": -1478.66010144, 
			 "HOMO_LUMO_gap": 0.16957, 
			 "cosmo_polarized_energy": -17.54, 
			 "cosmo_cavitation_energy": 36.05, 
			 "cosmo_dispersion_energy": -26.4, 
			 "cosmo_repulsion_energy": 1.98, 
			 "cosmo_total_nonelectrostatic_energy": 11.63, 
			 "SMD_solvation_energy": 1.97 
		},
		"coords": [
			{
				"x": 0.2704962179,
				"y": 1.7619841851,
				"z": 2.9739905549,
				"element": "C" 
			},
			{
				"x": 0.6410061095,
				"y": 1.3863925962,
				"z": 1.5608533492,
				"element": "C" 
			},
			{
				"x": 0.6328975607,
				"y": 2.3808546816,
				"z": 0.5386919284,
				"element": "C" 
			},
			{
				"x": 0.9734353332,
				"y": 2.04376518,
				"z": -0.7507598289,
				"element": "C" 
			},
			{
				"x": 1.0349777623,
				"y": 3.365023787,
				"z": -1.9765151253,
				"element": "S" 
			},
			{
				"x": -0.1927867837,
				"y": 2.856054582,
				"z": -3.1437739732,
				"element": "C" 
			},
			{
				"x": 0.0711196289,
				"y": 2.5949146235,
				"z": -4.3878166723,
				"element": "N" 
			},
			{
				"x": -1.0244792098,
				"y": 2.2989765295,
				"z": -5.1431421123,
				"element": "N" 
			},
			{
				"x": -2.139842232,
				"y": 2.3396371003,
				"z": -4.4531260756,
				"element": "C" 
			},
			{
				"x": -3.3676349312,
				"y": 2.1185962042,
				"z": -5.0163236371,
				"element": "N" 
			},
			{
				"x": -1.9302787066,
				"y": 2.779621617,
				"z": -2.7655033521,
				"element": "S" 
			},
			{
				"x": 1.3473536483,
				"y": 0.6953857788,
				"z": -1.0484833784,
				"element": "C" 
			},
			{
				"x": 1.7592613528,
				"y": 0.2318581214,
				"z": -2.3248630256,
				"element": "C" 
			},
			{
				"x": 2.0944430107,
				"y": -1.092695788,
				"z": -2.5096666507,
				"element": "C" 
			},
			{
				"x": 2.0342420072,
				"y": -2.0098902366,
				"z": -1.4343460771,
				"element": "C" 
			},
			{
				"x": 1.6478681488,
				"y": -1.5865598932,
				"z": -0.1823863363,
				"element": "C" 
			},
			{
				"x": 1.3013615891,
				"y": -0.2296090683,
				"z": 0.0468557531,
				"element": "C" 
			},
			{
				"x": 0.9527650365,
				"y": 0.1286723422,
				"z": 1.3191060209,
				"element": "N" 
			},
			{
				"x": -0.7388925032,
				"y": 2.1872906927,
				"z": 3.0189884342,
				"element": "H" 
			},
			{
				"x": 0.9566253697,
				"y": 2.5181129044,
				"z": 3.373294779,
				"element": "H" 
			},
			{
				"x": 0.3106589365,
				"y": 0.8773844783,
				"z": 3.6109341024,
				"element": "H" 
			},
			{
				"x": 0.3477314127,
				"y": 3.3997357472,
				"z": 0.7808258157,
				"element": "H" 
			},
			{
				"x": -3.3182303399,
				"y": 1.7062290525,
				"z": -5.9391749049,
				"element": "H" 
			},
			{
				"x": -4.0973407096,
				"y": 1.7488544483,
				"z": -4.4256649124,
				"element": "H" 
			},
			{
				"x": 1.8065501597,
				"y": 0.926349807,
				"z": -3.1557289856,
				"element": "H" 
			},
			{
				"x": 2.4101504563,
				"y": -1.4344596554,
				"z": -3.4909015038,
				"element": "H" 
			},
			{
				"x": 2.300553166,
				"y": -3.0499721294,
				"z": -1.5992417752,
				"element": "H" 
			},
			{
				"x": 1.600988509,
				"y": -2.2626076883,
				"z": 0.6649775889,
				"element": "H" 
			}
		],
		 "valence_orbital": [ 
			{
				"type": "occ",
				"energy": -0.26401,
				"method": "rhf"
			},
			{
				"type": "occ",
				"energy": -0.25328,
				"method": "rhf"
			},
			{
				"type": "occ",
				"energy": -0.24952,
				"method": "rhf"
			},
			{
				"type": "occ",
				"energy": -0.23618,
				"method": "rhf"
			},
			{
				"type": "occ",
				"energy": -0.23006,
				"method": "rhf"
			},
			{
				"type": "unocc",
				"energy": -0.06049,
				"method": "rhf"
			},
			{
				"type": "unocc",
				"energy": -0.04002,
				"method": "rhf"
			},
			{
				"type": "unocc",
				"energy": -0.02084,
				"method": "rhf"
			},
			{
				"type": "unocc",
				"energy": -0.01135,
				"method": "rhf"
			},
			{
				"type": "unocc",
				"energy": 0.01081,
				"method": "rhf"
			}
		],
		"cosmo_sigma_profile": { 
			"-0.025": 0.0,
			"-0.024": 0.0,
			"-0.023": 0.0,
			"-0.022": 0.0,
			"-0.021": 0.0,
			"-0.02": 0.0,
			"-0.019": 0.0,
			"-0.018": 0.0,
			"-0.017": 0.0,
			"-0.016": 0.271078440668,
			"-0.015": 2.18071678988,
			"-0.014": 2.80387026107,
			"-0.013": 2.85073343873,
			"-0.012": 2.63037539039,
			"-0.011": 2.87397222467,
			"-0.01": 1.84538644423,
			"-0.009": 1.71995952664,
			"-0.008": 2.30497384618,
			"-0.007": 3.90105131576,
			"-0.006": 8.93940695374,
			"-0.005": 15.0496374758,
			"-0.004": 18.4647344306,
			"-0.003": 18.2583587521,
			"-0.002": 21.7544547387,
			"-0.001": 27.3960767466,
			"0.0": 31.439851176,
			"0.001": 25.9964267478,
			"0.002": 22.8933268403,
			"0.003": 19.806393606,
			"0.004": 16.7285802205,
			"0.005": 8.29567658963,
			"0.006": 6.1703906318,
			"0.007": 3.71823366802,
			"0.008": 4.0119225215,
			"0.009": 2.92939211736,
			"0.01": 3.96134663059,
			"0.011": 4.68434519176,
			"0.012": 3.67259983263,
			"0.013": 2.7368313618,
			"0.014": 2.42588551451,
			"0.015": 0.942189396367,
			"0.016": 0.00985062965479,
			"0.017": 0.0,
			"0.018": 0.0,
			"0.019": 0.0,
			"0.02": 0.0,
			"0.021": 0.0,
			"0.022": 0.0,
			"0.023": 0.0,
			"0.024": 0.0,
			"0.025": 0.0
		}
	}
}
