{
	 "smiles": "OCCCCCCNC(=O)OCC1C2=C(C=CC=C2)C2=C1C=CC=C2", 
	 "Tm": 393.15, 
	 "num_atms": 50, 
	 "gaussian": { 
		 "optdone": 1, 
		 "sigma_profile": "yes", 
		 "theory": "DFT", 
		 "functional": "B3LYP", 
		 "basiset": "6-31G**", 
		 "properties": { 
			 "R2extent": 11144.0988, 
			 "electric_dipole_moment_norm": 4.01317157744, 
			 "electric_quadrupole_moment_norm": 18.4713597651, 
			 "total_energy": -1095.76455719, 
			 "HOMO_LUMO_gap": 0.18385, 
			 "cosmo_polarized_energy": -17.9, 
			 "cosmo_cavitation_energy": 52.34, 
			 "cosmo_dispersion_energy": -33.75, 
			 "cosmo_repulsion_energy": 2.54, 
			 "cosmo_total_nonelectrostatic_energy": 21.14, 
			 "SMD_solvation_energy": 8.31 
		},
		"coords": [
			{
				"x": -3.8489747151,
				"y": -0.6707995063,
				"z": 1.9125677688,
				"element": "O" 
			},
			{
				"x": -2.9017377201,
				"y": -1.681520277,
				"z": 1.5781676399,
				"element": "C" 
			},
			{
				"x": -1.6450413835,
				"y": -1.6259596873,
				"z": 2.4477054229,
				"element": "C" 
			},
			{
				"x": -0.5170152355,
				"y": -2.5328265181,
				"z": 1.9412367648,
				"element": "C" 
			},
			{
				"x": 0.7474035983,
				"y": -2.4364344413,
				"z": 2.8068385189,
				"element": "C" 
			},
			{
				"x": 1.9667057936,
				"y": -3.2278118652,
				"z": 2.3045536926,
				"element": "C" 
			},
			{
				"x": 2.6615328975,
				"y": -2.6671233166,
				"z": 1.0524918312,
				"element": "C" 
			},
			{
				"x": 1.95620052,
				"y": -2.963476132,
				"z": -0.1928237425,
				"element": "N" 
			},
			{
				"x": 1.812871008,
				"y": -2.1384779928,
				"z": -1.2763718588,
				"element": "C" 
			},
			{
				"x": 1.4873129116,
				"y": -2.5244895501,
				"z": -2.3846718387,
				"element": "O" 
			},
			{
				"x": 2.0422434637,
				"y": -0.8345122792,
				"z": -0.9528170886,
				"element": "O" 
			},
			{
				"x": 2.017699299,
				"y": 0.0910815359,
				"z": -2.0596533514,
				"element": "C" 
			},
			{
				"x": 1.7979259508,
				"y": 1.5032606883,
				"z": -1.5053949391,
				"element": "C" 
			},
			{
				"x": 2.0574021792,
				"y": 2.567424085,
				"z": -2.5633706726,
				"element": "C" 
			},
			{
				"x": 0.9132333891,
				"y": 3.3718736576,
				"z": -2.7393891804,
				"element": "C" 
			},
			{
				"x": 0.9221684763,
				"y": 4.4203436609,
				"z": -3.6617656139,
				"element": "C" 
			},
			{
				"x": 2.0808064973,
				"y": 4.6552780873,
				"z": -4.4058844595,
				"element": "C" 
			},
			{
				"x": 3.2161462933,
				"y": 3.8572781736,
				"z": -4.2302713162,
				"element": "C" 
			},
			{
				"x": 3.2095172256,
				"y": 2.8070138764,
				"z": -3.3044116826,
				"element": "C" 
			},
			{
				"x": -0.1366122458,
				"y": 2.8983068075,
				"z": -1.8281571312,
				"element": "C" 
			},
			{
				"x": 0.3636152611,
				"y": 1.8046878912,
				"z": -1.0904675051,
				"element": "C" 
			},
			{
				"x": -0.4389535317,
				"y": 1.1678815082,
				"z": -0.1487561432,
				"element": "C" 
			},
			{
				"x": -1.7490273231,
				"y": 1.6227390842,
				"z": 0.0528042327,
				"element": "C" 
			},
			{
				"x": -2.2409162084,
				"y": 2.7081727343,
				"z": -0.6811851995,
				"element": "C" 
			},
			{
				"x": -1.4401551885,
				"y": 3.3553697658,
				"z": -1.6242850989,
				"element": "C" 
			},
			{
				"x": -4.0736228587,
				"y": -0.7737014482,
				"z": 2.8465920039,
				"element": "H" 
			},
			{
				"x": -2.6402729048,
				"y": -1.4968266668,
				"z": 0.531066573,
				"element": "H" 
			},
			{
				"x": -3.3571013973,
				"y": -2.6840610109,
				"z": 1.6273101104,
				"element": "H" 
			},
			{
				"x": -1.295213921,
				"y": -0.5858125495,
				"z": 2.4734397014,
				"element": "H" 
			},
			{
				"x": -1.9043543741,
				"y": -1.8909904148,
				"z": 3.4842777684,
				"element": "H" 
			},
			{
				"x": -0.2785617268,
				"y": -2.2629213849,
				"z": 0.9072694481,
				"element": "H" 
			},
			{
				"x": -0.858645199,
				"y": -3.5773739141,
				"z": 1.911056511,
				"element": "H" 
			},
			{
				"x": 0.5059268399,
				"y": -2.7780047345,
				"z": 3.822571297,
				"element": "H" 
			},
			{
				"x": 1.035162758,
				"y": -1.3800907877,
				"z": 2.9080825002,
				"element": "H" 
			},
			{
				"x": 2.7193040771,
				"y": -3.2454921642,
				"z": 3.1031262053,
				"element": "H" 
			},
			{
				"x": 1.691984065,
				"y": -4.2780755758,
				"z": 2.1306194398,
				"element": "H" 
			},
			{
				"x": 2.7547254223,
				"y": -1.5823092301,
				"z": 1.1267323109,
				"element": "H" 
			},
			{
				"x": 3.6823019596,
				"y": -3.0740099451,
				"z": 1.0002287621,
				"element": "H" 
			},
			{
				"x": 1.8533356558,
				"y": -3.9359288601,
				"z": -0.4478824786,
				"element": "H" 
			},
			{
				"x": 1.2311008242,
				"y": -0.1948635577,
				"z": -2.7599894473,
				"element": "H" 
			},
			{
				"x": 2.9801205592,
				"y": 0.0274213794,
				"z": -2.5794425077,
				"element": "H" 
			},
			{
				"x": 2.4840162962,
				"y": 1.6355686019,
				"z": -0.6563198443,
				"element": "H" 
			},
			{
				"x": 0.044654531,
				"y": 5.0454591243,
				"z": -3.8020030203,
				"element": "H" 
			},
			{
				"x": 2.1011183999,
				"y": 5.466933527,
				"z": -5.1276716202,
				"element": "H" 
			},
			{
				"x": 4.1098821624,
				"y": 4.0545509462,
				"z": -4.8150911803,
				"element": "H" 
			},
			{
				"x": 4.098187269,
				"y": 2.1951813043,
				"z": -3.1702392511,
				"element": "H" 
			},
			{
				"x": -0.054749351,
				"y": 0.3267249759,
				"z": 0.4197541825,
				"element": "H" 
			},
			{
				"x": -2.3942343808,
				"y": 1.1308259641,
				"z": 0.7758990058,
				"element": "H" 
			},
			{
				"x": -3.2587484484,
				"y": 3.0491766135,
				"z": -0.5143494274,
				"element": "H" 
			},
			{
				"x": -1.8290674702,
				"y": 4.1981398175,
				"z": -2.1894260923,
				"element": "H" 
			}
		],
		 "valence_orbital": [ 
			{
				"type": "occ",
				"energy": -0.26544,
				"method": "rhf"
			},
			{
				"type": "occ",
				"energy": -0.24843,
				"method": "rhf"
			},
			{
				"type": "occ",
				"energy": -0.24687,
				"method": "rhf"
			},
			{
				"type": "occ",
				"energy": -0.23949,
				"method": "rhf"
			},
			{
				"type": "occ",
				"energy": -0.21059,
				"method": "rhf"
			},
			{
				"type": "unocc",
				"energy": -0.02674,
				"method": "rhf"
			},
			{
				"type": "unocc",
				"energy": -0.00861,
				"method": "rhf"
			},
			{
				"type": "unocc",
				"energy": 0.01174,
				"method": "rhf"
			},
			{
				"type": "unocc",
				"energy": 0.04453,
				"method": "rhf"
			},
			{
				"type": "unocc",
				"energy": 0.05137,
				"method": "rhf"
			}
		],
		"cosmo_sigma_profile": { 
			"-0.025": 0.0,
			"-0.024": 0.0,
			"-0.023": 0.0,
			"-0.022": 0.0,
			"-0.021": 0.0,
			"-0.02": 0.0,
			"-0.019": 0.0,
			"-0.018": 0.0,
			"-0.017": 0.0,
			"-0.016": 0.0898902127298,
			"-0.015": 0.664572551213,
			"-0.014": 1.19912790457,
			"-0.013": 2.16298197601,
			"-0.012": 1.47992761173,
			"-0.011": 1.68303542545,
			"-0.01": 1.96950606554,
			"-0.009": 2.02551114115,
			"-0.008": 1.22539274097,
			"-0.007": 2.62913381299,
			"-0.006": 13.2001075671,
			"-0.005": 21.9983635528,
			"-0.004": 24.9242115941,
			"-0.003": 37.6856963854,
			"-0.002": 56.0276378095,
			"-0.001": 47.744922472,
			"0.0": 38.6355331188,
			"0.001": 29.008213431,
			"0.002": 21.8328540644,
			"0.003": 22.9994815425,
			"0.004": 21.4293197927,
			"0.005": 19.3600349627,
			"0.006": 13.8895987504,
			"0.007": 3.141735881,
			"0.008": 3.66404303227,
			"0.009": 2.11549128641,
			"0.01": 2.10340319292,
			"0.011": 2.39939748415,
			"0.012": 3.18755877818,
			"0.013": 6.36766302138,
			"0.014": 4.03606495935,
			"0.015": 0.635252506694,
			"0.016": 0.0,
			"0.017": 0.0,
			"0.018": 0.0,
			"0.019": 0.0,
			"0.02": 0.0,
			"0.021": 0.0,
			"0.022": 0.0,
			"0.023": 0.0,
			"0.024": 0.0,
			"0.025": 0.0
		}
	}
}
