{
	 "smiles": "CC(=O)NCC1=CC(Br)=CC=C1", 
	 "Tm": 349.15, 
	 "num_atms": 22, 
	 "gaussian": { 
		 "optdone": 1, 
		 "sigma_profile": "yes", 
		 "theory": "DFT", 
		 "functional": "B3LYP", 
		 "basiset": "6-31G**", 
		 "properties": { 
			 "R2extent": 4564.9032, 
			 "electric_dipole_moment_norm": 1.80256952709, 
			 "electric_quadrupole_moment_norm": 20.8954717925, 
			 "total_energy": -3050.38113112, 
			 "HOMO_LUMO_gap": 0.22408, 
			 "cosmo_polarized_energy": -13.05, 
			 "cosmo_cavitation_energy": 28.43, 
			 "cosmo_dispersion_energy": -20.68, 
			 "cosmo_repulsion_energy": 1.67, 
			 "cosmo_total_nonelectrostatic_energy": 9.41, 
			 "SMD_solvation_energy": 4.15 
		},
		"coords": [
			{
				"x": 2.7059085678,
				"y": 0.5619278738,
				"z": 2.7169307883,
				"element": "C" 
			},
			{
				"x": 2.1723881408,
				"y": -0.8561489288,
				"z": 2.8501368489,
				"element": "C" 
			},
			{
				"x": 2.2836773603,
				"y": -1.5042306727,
				"z": 3.8813772079,
				"element": "O" 
			},
			{
				"x": 1.5636135723,
				"y": -1.4020186039,
				"z": 1.7412817893,
				"element": "N" 
			},
			{
				"x": 1.238699139,
				"y": -0.752363479,
				"z": 0.4882927939,
				"element": "C" 
			},
			{
				"x": -0.1609548494,
				"y": -0.1466532784,
				"z": 0.3958978491,
				"element": "C" 
			},
			{
				"x": -0.5951482932,
				"y": 0.3440394263,
				"z": -0.8433335495,
				"element": "C" 
			},
			{
				"x": -1.8576783811,
				"y": 0.9166306777,
				"z": -0.9558069417,
				"element": "C" 
			},
			{
				"x": -2.4340797164,
				"y": 1.5823531234,
				"z": -2.6545109558,
				"element": "Br" 
			},
			{
				"x": -2.7138152981,
				"y": 1.0133253456,
				"z": 0.141520703,
				"element": "C" 
			},
			{
				"x": -2.2778051803,
				"y": 0.5203198503,
				"z": 1.3699894177,
				"element": "C" 
			},
			{
				"x": -1.0115152477,
				"y": -0.0561933979,
				"z": 1.5002576627,
				"element": "C" 
			},
			{
				"x": 3.1022989043,
				"y": 0.8587399323,
				"z": 3.687283008,
				"element": "H" 
			},
			{
				"x": 3.5096749365,
				"y": 0.6150293305,
				"z": 1.9743781057,
				"element": "H" 
			},
			{
				"x": 1.9227807374,
				"y": 1.2643933799,
				"z": 2.4140537392,
				"element": "H" 
			},
			{
				"x": 1.1982159136,
				"y": -2.3311677245,
				"z": 1.9068243317,
				"element": "H" 
			},
			{
				"x": 1.3639095858,
				"y": -1.4816655585,
				"z": -0.3213708679,
				"element": "H" 
			},
			{
				"x": 1.9806055749,
				"y": 0.0293813993,
				"z": 0.2967744601,
				"element": "H" 
			},
			{
				"x": 0.0473751346,
				"y": 0.2795327545,
				"z": -1.716257344,
				"element": "H" 
			},
			{
				"x": -3.6949743868,
				"y": 1.460760375,
				"z": 0.0333446304,
				"element": "H" 
			},
			{
				"x": -2.9327985937,
				"y": 0.5853036346,
				"z": 2.2339065852,
				"element": "H" 
			},
			{
				"x": -0.6867776207,
				"y": -0.4413954594,
				"z": 2.4611297376,
				"element": "H" 
			}
		],
		 "valence_orbital": [ 
			{
				"type": "occ",
				"energy": -0.29187,
				"method": "rhf"
			},
			{
				"type": "occ",
				"energy": -0.2647,
				"method": "rhf"
			},
			{
				"type": "occ",
				"energy": -0.25686,
				"method": "rhf"
			},
			{
				"type": "occ",
				"energy": -0.24845,
				"method": "rhf"
			},
			{
				"type": "occ",
				"energy": -0.24824,
				"method": "rhf"
			},
			{
				"type": "unocc",
				"energy": -0.02416,
				"method": "rhf"
			},
			{
				"type": "unocc",
				"energy": -0.01833,
				"method": "rhf"
			},
			{
				"type": "unocc",
				"energy": 0.00184,
				"method": "rhf"
			},
			{
				"type": "unocc",
				"energy": 0.02582,
				"method": "rhf"
			},
			{
				"type": "unocc",
				"energy": 0.07917,
				"method": "rhf"
			}
		],
		"cosmo_sigma_profile": { 
			"-0.025": 0.0,
			"-0.024": 0.0,
			"-0.023": 0.0,
			"-0.022": 0.0,
			"-0.021": 0.0,
			"-0.02": 0.0,
			"-0.019": 0.0,
			"-0.018": 0.0,
			"-0.017": 0.0,
			"-0.016": 0.0,
			"-0.015": 0.0,
			"-0.014": 0.159082282283,
			"-0.013": 0.9885123147,
			"-0.012": 1.11386430857,
			"-0.011": 1.07951343708,
			"-0.01": 1.01361312874,
			"-0.009": 1.1450981801,
			"-0.008": 1.26360298398,
			"-0.007": 7.68055439255,
			"-0.006": 15.9102889834,
			"-0.005": 17.8402572677,
			"-0.004": 19.3698431855,
			"-0.003": 17.6165714632,
			"-0.002": 15.9201462913,
			"-0.001": 15.8616369617,
			"0.0": 12.3801190885,
			"0.001": 11.7029990449,
			"0.002": 16.6511421974,
			"0.003": 18.906599893,
			"0.004": 20.6475067294,
			"0.005": 11.1196907079,
			"0.006": 1.52845959662,
			"0.007": 0.932105616282,
			"0.008": 1.32130062595,
			"0.009": 0.796946717749,
			"0.01": 1.43118018595,
			"0.011": 1.95572466976,
			"0.012": 1.21869438511,
			"0.013": 3.35564039651,
			"0.014": 6.0038309902,
			"0.015": 2.08090451021,
			"0.016": 0.069572402681,
			"0.017": 0.0,
			"0.018": 0.0,
			"0.019": 0.0,
			"0.02": 0.0,
			"0.021": 0.0,
			"0.022": 0.0,
			"0.023": 0.0,
			"0.024": 0.0,
			"0.025": 0.0
		}
	}
}
