{
	 "smiles": "CN1C=C(C=C1C(=O)C(Cl)(Cl)Cl)S(Cl)(=O)=O", 
	 "Tm": 432.15, 
	 "num_atms": 21, 
	 "gaussian": { 
		 "optdone": 1, 
		 "sigma_profile": "yes", 
		 "theory": "DFT", 
		 "functional": "B3LYP", 
		 "basiset": "6-31G**", 
		 "properties": { 
			 "R2extent": 7615.4859, 
			 "electric_dipole_moment_norm": 4.69951988186, 
			 "electric_quadrupole_moment_norm": 27.1216458551, 
			 "total_energy": -2789.03110777, 
			 "HOMO_LUMO_gap": 0.17808, 
			 "cosmo_polarized_energy": -13.52, 
			 "cosmo_cavitation_energy": 34.67, 
			 "cosmo_dispersion_energy": -25.05, 
			 "cosmo_repulsion_energy": 1.94, 
			 "cosmo_total_nonelectrostatic_energy": 11.55, 
			 "SMD_solvation_energy": 4.36 
		},
		"coords": [
			{
				"x": 3.0417663009,
				"y": 0.9757953333,
				"z": 0.1265950686,
				"element": "C" 
			},
			{
				"x": 2.1684876026,
				"y": -0.1120061442,
				"z": -0.3262571003,
				"element": "N" 
			},
			{
				"x": 2.3681909241,
				"y": -0.7878275428,
				"z": -1.4756349875,
				"element": "C" 
			},
			{
				"x": 1.37461159,
				"y": -1.7562184638,
				"z": -1.5880402644,
				"element": "C" 
			},
			{
				"x": 0.5335441836,
				"y": -1.6631669605,
				"z": -0.4669096341,
				"element": "C" 
			},
			{
				"x": 1.0371139813,
				"y": -0.6326523465,
				"z": 0.3228908288,
				"element": "C" 
			},
			{
				"x": 0.5977373309,
				"y": -0.0826807413,
				"z": 1.6026758486,
				"element": "C" 
			},
			{
				"x": 1.168882295,
				"y": 0.8353131448,
				"z": 2.1582441574,
				"element": "O" 
			},
			{
				"x": -0.6778831976,
				"y": -0.7048145089,
				"z": 2.2992495907,
				"element": "C" 
			},
			{
				"x": -0.3831571056,
				"y": -2.4523189776,
				"z": 2.6382608218,
				"element": "Cl" 
			},
			{
				"x": -0.9971094042,
				"y": 0.1391041751,
				"z": 3.8322944622,
				"element": "Cl" 
			},
			{
				"x": -2.1062795924,
				"y": -0.5144677037,
				"z": 1.2130017914,
				"element": "Cl" 
			},
			{
				"x": 1.2404601725,
				"y": -2.886176465,
				"z": -2.916125702,
				"element": "S" 
			},
			{
				"x": -0.105173288,
				"y": -1.8746296678,
				"z": -4.2275204206,
				"element": "Cl" 
			},
			{
				"x": 2.5185367371,
				"y": -2.9360331656,
				"z": -3.6157738808,
				"element": "O" 
			},
			{
				"x": 0.5370073853,
				"y": -4.0782042368,
				"z": -2.4646437241,
				"element": "O" 
			},
			{
				"x": 3.4912230784,
				"y": 0.7292843867,
				"z": 1.0884782626,
				"element": "H" 
			},
			{
				"x": 3.8211633136,
				"y": 1.1075634785,
				"z": -0.6250273095,
				"element": "H" 
			},
			{
				"x": 2.4733483146,
				"y": 1.898956591,
				"z": 0.2381876621,
				"element": "H" 
			},
			{
				"x": 3.1892465162,
				"y": -0.56516967,
				"z": -2.1403729742,
				"element": "H" 
			},
			{
				"x": -0.3261171382,
				"y": -2.2796505147,
				"z": -0.2604724968,
				"element": "H" 
			}
		],
		 "valence_orbital": [ 
			{
				"type": "occ",
				"energy": -0.32232,
				"method": "rhf"
			},
			{
				"type": "occ",
				"energy": -0.31605,
				"method": "rhf"
			},
			{
				"type": "occ",
				"energy": -0.3001,
				"method": "rhf"
			},
			{
				"type": "occ",
				"energy": -0.29855,
				"method": "rhf"
			},
			{
				"type": "occ",
				"energy": -0.27777,
				"method": "rhf"
			},
			{
				"type": "unocc",
				"energy": -0.09969,
				"method": "rhf"
			},
			{
				"type": "unocc",
				"energy": -0.0873,
				"method": "rhf"
			},
			{
				"type": "unocc",
				"energy": -0.05598,
				"method": "rhf"
			},
			{
				"type": "unocc",
				"energy": -0.02377,
				"method": "rhf"
			},
			{
				"type": "unocc",
				"energy": -0.01299,
				"method": "rhf"
			}
		],
		"cosmo_sigma_profile": { 
			"-0.025": 0.0,
			"-0.024": 0.0,
			"-0.023": 0.0,
			"-0.022": 0.0,
			"-0.021": 0.0,
			"-0.02": 0.0,
			"-0.019": 0.0,
			"-0.018": 0.0,
			"-0.017": 0.0,
			"-0.016": 0.0,
			"-0.015": 0.0,
			"-0.014": 0.0,
			"-0.013": 0.0353252389164,
			"-0.012": 1.97446823698,
			"-0.011": 2.19404747633,
			"-0.01": 1.52239055865,
			"-0.009": 2.48950208315,
			"-0.008": 3.5563991694,
			"-0.007": 6.57563990505,
			"-0.006": 11.7634496573,
			"-0.005": 15.5623387951,
			"-0.004": 23.3995927172,
			"-0.003": 16.5806595455,
			"-0.002": 20.5262382495,
			"-0.001": 22.0710340451,
			"0.0": 23.478286735,
			"0.001": 26.6900384502,
			"0.002": 30.5009665697,
			"0.003": 25.2145473557,
			"0.004": 13.1062380261,
			"0.005": 5.19572307249,
			"0.006": 5.64562727879,
			"0.007": 6.99469705378,
			"0.008": 13.0023577571,
			"0.009": 7.37345482756,
			"0.01": 1.83397911553,
			"0.011": 0.0940774798061,
			"0.012": 0.0,
			"0.013": 0.0,
			"0.014": 0.0,
			"0.015": 0.0,
			"0.016": 0.0,
			"0.017": 0.0,
			"0.018": 0.0,
			"0.019": 0.0,
			"0.02": 0.0,
			"0.021": 0.0,
			"0.022": 0.0,
			"0.023": 0.0,
			"0.024": 0.0,
			"0.025": 0.0
		}
	}
}
