{
	 "smiles": "[O-][N+](=O)C1=C(Cl)N=C2C=CC=CN2C1=O", 
	 "Tm": 486.15, 
	 "num_atms": 19, 
	 "gaussian": { 
		 "optdone": 1, 
		 "sigma_profile": "yes", 
		 "theory": "DFT", 
		 "functional": "B3LYP", 
		 "basiset": "6-31G**", 
		 "properties": { 
			 "R2extent": 4079.0118, 
			 "electric_dipole_moment_norm": 8.34248629786, 
			 "electric_quadrupole_moment_norm": 7.3241260878, 
			 "total_energy": -1157.26041513, 
			 "HOMO_LUMO_gap": 0.1542, 
			 "cosmo_polarized_energy": -15.65, 
			 "cosmo_cavitation_energy": 27.21, 
			 "cosmo_dispersion_energy": -19.8, 
			 "cosmo_repulsion_energy": 1.52, 
			 "cosmo_total_nonelectrostatic_energy": 8.94, 
			 "SMD_solvation_energy": 6.64 
		},
		"coords": [
			{
				"x": 3.9772118147,
				"y": -0.6603398975,
				"z": -0.8044565246,
				"element": "O" 
			},
			{
				"x": 3.2730493831,
				"y": -1.5181990944,
				"z": -0.2867935271,
				"element": "N" 
			},
			{
				"x": 3.5137648248,
				"y": -2.7170845979,
				"z": -0.219953749,
				"element": "O" 
			},
			{
				"x": 2.0036565736,
				"y": -1.0637528959,
				"z": 0.3057056626,
				"element": "C" 
			},
			{
				"x": 1.9001091413,
				"y": -0.6657797108,
				"z": 1.6228151934,
				"element": "C" 
			},
			{
				"x": 3.3132467632,
				"y": -0.6936898226,
				"z": 2.6441155732,
				"element": "Cl" 
			},
			{
				"x": 0.773552011,
				"y": -0.2499298032,
				"z": 2.1922810338,
				"element": "N" 
			},
			{
				"x": -0.3263270757,
				"y": -0.2149507658,
				"z": 1.4440500584,
				"element": "C" 
			},
			{
				"x": -1.5599728668,
				"y": 0.2221961313,
				"z": 2.0034465707,
				"element": "C" 
			},
			{
				"x": -2.7005002084,
				"y": 0.2637601325,
				"z": 1.2463295943,
				"element": "C" 
			},
			{
				"x": -2.6609601732,
				"y": -0.1330318915,
				"z": -0.1168238101,
				"element": "C" 
			},
			{
				"x": -1.4812301588,
				"y": -0.5521154053,
				"z": -0.6554578334,
				"element": "C" 
			},
			{
				"x": -0.3338473515,
				"y": -0.5943941438,
				"z": 0.1045558827,
				"element": "N" 
			},
			{
				"x": 0.8776534333,
				"y": -1.0590157281,
				"z": -0.569662636,
				"element": "C" 
			},
			{
				"x": 0.8324007065,
				"y": -1.3830663325,
				"z": -1.7438371245,
				"element": "O" 
			},
			{
				"x": -1.5364210252,
				"y": 0.5136172182,
				"z": 3.0462698877,
				"element": "H" 
			},
			{
				"x": -3.6343049159,
				"y": 0.5992670642,
				"z": 1.6859374251,
				"element": "H" 
			},
			{
				"x": -3.5502212818,
				"y": -0.1086018435,
				"z": -0.7351646499,
				"element": "H" 
			},
			{
				"x": -1.3374595942,
				"y": -0.8754886134,
				"z": -1.6782570274,
				"element": "H" 
			}
		],
		 "valence_orbital": [ 
			{
				"type": "occ",
				"energy": -0.31346,
				"method": "rhf"
			},
			{
				"type": "occ",
				"energy": -0.30447,
				"method": "rhf"
			},
			{
				"type": "occ",
				"energy": -0.29832,
				"method": "rhf"
			},
			{
				"type": "occ",
				"energy": -0.2886,
				"method": "rhf"
			},
			{
				"type": "occ",
				"energy": -0.24604,
				"method": "rhf"
			},
			{
				"type": "unocc",
				"energy": -0.09184,
				"method": "rhf"
			},
			{
				"type": "unocc",
				"energy": -0.07686,
				"method": "rhf"
			},
			{
				"type": "unocc",
				"energy": -0.07334,
				"method": "rhf"
			},
			{
				"type": "unocc",
				"energy": -0.01736,
				"method": "rhf"
			},
			{
				"type": "unocc",
				"energy": 0.01186,
				"method": "rhf"
			}
		],
		"cosmo_sigma_profile": { 
			"-0.025": 0.0,
			"-0.024": 0.0,
			"-0.023": 0.0,
			"-0.022": 0.0,
			"-0.021": 0.0,
			"-0.02": 0.0,
			"-0.019": 0.0,
			"-0.018": 0.0,
			"-0.017": 0.0,
			"-0.016": 0.0,
			"-0.015": 0.0,
			"-0.014": 0.0,
			"-0.013": 0.0,
			"-0.012": 0.0,
			"-0.011": 0.0,
			"-0.01": 0.629882582314,
			"-0.009": 7.66263386107,
			"-0.008": 11.559965421,
			"-0.007": 10.0561606386,
			"-0.006": 9.766868286,
			"-0.005": 9.986815913,
			"-0.004": 11.4620788561,
			"-0.003": 13.73997209,
			"-0.002": 16.0366881238,
			"-0.001": 19.850237984,
			"0.0": 16.4331407686,
			"0.001": 12.8804129467,
			"0.002": 13.2877652327,
			"0.003": 9.84593676392,
			"0.004": 8.26726262751,
			"0.005": 6.56631587658,
			"0.006": 13.5275728822,
			"0.007": 11.1215651742,
			"0.008": 7.16481779939,
			"0.009": 4.43067182559,
			"0.01": 3.53360574077,
			"0.011": 4.63320585352,
			"0.012": 0.50917874554,
			"0.013": 0.0,
			"0.014": 0.0,
			"0.015": 0.0,
			"0.016": 0.0,
			"0.017": 0.0,
			"0.018": 0.0,
			"0.019": 0.0,
			"0.02": 0.0,
			"0.021": 0.0,
			"0.022": 0.0,
			"0.023": 0.0,
			"0.024": 0.0,
			"0.025": 0.0
		}
	}
}
