{
	 "smiles": "CC(=O)C1=CC=C(C=C1)S(=O)(=O)N1CCCCCC1", 
	 "Tm": 348.15, 
	 "num_atms": 38, 
	 "gaussian": { 
		 "optdone": 1, 
		 "sigma_profile": "yes", 
		 "theory": "DFT", 
		 "functional": "B3LYP", 
		 "basiset": "6-31G**", 
		 "properties": { 
			 "R2extent": 7357.4644, 
			 "electric_dipole_moment_norm": 4.23161731375, 
			 "electric_quadrupole_moment_norm": 24.9132601781, 
			 "total_energy": -1223.4844936, 
			 "HOMO_LUMO_gap": 0.16885, 
			 "cosmo_polarized_energy": -15.48, 
			 "cosmo_cavitation_energy": 40.02, 
			 "cosmo_dispersion_energy": -28.31, 
			 "cosmo_repulsion_energy": 2.13, 
			 "cosmo_total_nonelectrostatic_energy": 13.84, 
			 "SMD_solvation_energy": 5.89 
		},
		"coords": [
			{
				"x": 2.8586053448,
				"y": 5.3208704172,
				"z": -1.1244713614,
				"element": "C" 
			},
			{
				"x": 1.6164593068,
				"y": 4.7148682225,
				"z": -0.4966205452,
				"element": "C" 
			},
			{
				"x": 1.0784946306,
				"y": 5.2442262954,
				"z": 0.4628479663,
				"element": "O" 
			},
			{
				"x": 1.0534928742,
				"y": 3.4458736008,
				"z": -1.0755698951,
				"element": "C" 
			},
			{
				"x": -0.11096981,
				"y": 2.9168789744,
				"z": -0.4927366769,
				"element": "C" 
			},
			{
				"x": -0.6787810058,
				"y": 1.7475397116,
				"z": -0.9814917273,
				"element": "C" 
			},
			{
				"x": -0.0717783583,
				"y": 1.0964741634,
				"z": -2.0615641602,
				"element": "C" 
			},
			{
				"x": 1.0765309656,
				"y": 1.6084350249,
				"z": -2.6636744644,
				"element": "C" 
			},
			{
				"x": 1.6375881628,
				"y": 2.7852575212,
				"z": -2.1644881597,
				"element": "C" 
			},
			{
				"x": -0.8090003133,
				"y": -0.4167757059,
				"z": -2.7025768761,
				"element": "S" 
			},
			{
				"x": -0.1430776821,
				"y": -0.7027300318,
				"z": -3.9802710887,
				"element": "O" 
			},
			{
				"x": -2.2664580423,
				"y": -0.2696562752,
				"z": -2.6265801216,
				"element": "O" 
			},
			{
				"x": -0.3593151904,
				"y": -1.5536726737,
				"z": -1.5443940592,
				"element": "N" 
			},
			{
				"x": -1.3830005218,
				"y": -2.4740851115,
				"z": -1.0190944007,
				"element": "C" 
			},
			{
				"x": -1.3454063325,
				"y": -2.5842477763,
				"z": 0.5371527065,
				"element": "C" 
			},
			{
				"x": -0.1656870492,
				"y": -1.8571830444,
				"z": 1.1998602047,
				"element": "C" 
			},
			{
				"x": 1.2207498237,
				"y": -2.465298262,
				"z": 0.8980386855,
				"element": "C" 
			},
			{
				"x": 1.3932613591,
				"y": -3.0115397506,
				"z": -0.5291403006,
				"element": "C" 
			},
			{
				"x": 1.0287476663,
				"y": -2.0504615223,
				"z": -1.6647564621,
				"element": "C" 
			},
			{
				"x": 3.1165084217,
				"y": 6.2293369473,
				"z": -0.5798715588,
				"element": "H" 
			},
			{
				"x": 3.7011896922,
				"y": 4.6216404574,
				"z": -1.0839732275,
				"element": "H" 
			},
			{
				"x": 2.6869551927,
				"y": 5.5649758549,
				"z": -2.1786565644,
				"element": "H" 
			},
			{
				"x": -0.553330727,
				"y": 3.4502190256,
				"z": 0.341702769,
				"element": "H" 
			},
			{
				"x": -1.589070284,
				"y": 1.3459424191,
				"z": -0.5494912914,
				"element": "H" 
			},
			{
				"x": 1.5060618075,
				"y": 1.0968088372,
				"z": -3.5176522574,
				"element": "H" 
			},
			{
				"x": 2.5301307477,
				"y": 3.1831397161,
				"z": -2.6356894366,
				"element": "H" 
			},
			{
				"x": -2.3505686785,
				"y": -2.0934977505,
				"z": -1.3443583153,
				"element": "H" 
			},
			{
				"x": -1.25941186,
				"y": -3.460788411,
				"z": -1.4834766747,
				"element": "H" 
			},
			{
				"x": -2.275023872,
				"y": -2.1691979323,
				"z": 0.9423373728,
				"element": "H" 
			},
			{
				"x": -1.3374373277,
				"y": -3.6444436301,
				"z": 0.8196301923,
				"element": "H" 
			},
			{
				"x": -0.3211036884,
				"y": -1.8496489407,
				"z": 2.2852660512,
				"element": "H" 
			},
			{
				"x": -0.1823665803,
				"y": -0.8105812017,
				"z": 0.8799276073,
				"element": "H" 
			},
			{
				"x": 1.991614427,
				"y": -1.7111367617,
				"z": 1.1010823001,
				"element": "H" 
			},
			{
				"x": 1.4162920697,
				"y": -3.2928354845,
				"z": 1.5918376492,
				"element": "H" 
			},
			{
				"x": 0.8096017636,
				"y": -3.9326795064,
				"z": -0.6399249384,
				"element": "H" 
			},
			{
				"x": 2.4379205015,
				"y": -3.3078878775,
				"z": -0.6828702161,
				"element": "H" 
			},
			{
				"x": 1.6990735989,
				"y": -1.1827567069,
				"z": -1.6435830918,
				"element": "H" 
			},
			{
				"x": 1.1755089668,
				"y": -2.552882832,
				"z": -2.6300056332,
				"element": "H" 
			}
		],
		 "valence_orbital": [ 
			{
				"type": "occ",
				"energy": -0.29858,
				"method": "rhf"
			},
			{
				"type": "occ",
				"energy": -0.28233,
				"method": "rhf"
			},
			{
				"type": "occ",
				"energy": -0.27668,
				"method": "rhf"
			},
			{
				"type": "occ",
				"energy": -0.26009,
				"method": "rhf"
			},
			{
				"type": "occ",
				"energy": -0.24506,
				"method": "rhf"
			},
			{
				"type": "unocc",
				"energy": -0.07621,
				"method": "rhf"
			},
			{
				"type": "unocc",
				"energy": -0.02749,
				"method": "rhf"
			},
			{
				"type": "unocc",
				"energy": 0.01062,
				"method": "rhf"
			},
			{
				"type": "unocc",
				"energy": 0.05468,
				"method": "rhf"
			},
			{
				"type": "unocc",
				"energy": 0.07017,
				"method": "rhf"
			}
		],
		"cosmo_sigma_profile": { 
			"-0.025": 0.0,
			"-0.024": 0.0,
			"-0.023": 0.0,
			"-0.022": 0.0,
			"-0.021": 0.0,
			"-0.02": 0.0,
			"-0.019": 0.0,
			"-0.018": 0.0,
			"-0.017": 0.0,
			"-0.016": 0.0,
			"-0.015": 0.0,
			"-0.014": 0.0,
			"-0.013": 0.0,
			"-0.012": 0.0,
			"-0.011": 0.0,
			"-0.01": 0.0,
			"-0.009": 0.0,
			"-0.008": 1.42645890487,
			"-0.007": 9.34942419081,
			"-0.006": 13.6596039057,
			"-0.005": 13.0403074574,
			"-0.004": 23.8593170969,
			"-0.003": 36.8072764726,
			"-0.002": 40.6513655727,
			"-0.001": 40.4498408611,
			"0.0": 33.7146573636,
			"0.001": 27.1834340115,
			"0.002": 14.5119948438,
			"0.003": 5.17218569754,
			"0.004": 4.21619768551,
			"0.005": 5.16576343929,
			"0.006": 4.25372591049,
			"0.007": 3.42241432514,
			"0.008": 5.42624578299,
			"0.009": 5.26287029757,
			"0.01": 9.03432190137,
			"0.011": 11.1758339191,
			"0.012": 6.08479520697,
			"0.013": 0.788252695224,
			"0.014": 0.0,
			"0.015": 0.0,
			"0.016": 0.0,
			"0.017": 0.0,
			"0.018": 0.0,
			"0.019": 0.0,
			"0.02": 0.0,
			"0.021": 0.0,
			"0.022": 0.0,
			"0.023": 0.0,
			"0.024": 0.0,
			"0.025": 0.0
		}
	}
}
