{
	 "smiles": "OC(=O)C1=CC(NC(=O)C2=CC=C(Br)C=C2)=CC=C1", 
	 "Tm": 580.15, 
	 "num_atms": 29, 
	 "gaussian": { 
		 "optdone": 1, 
		 "sigma_profile": "yes", 
		 "theory": "DFT", 
		 "functional": "B3LYP", 
		 "basiset": "6-31G**", 
		 "properties": { 
			 "R2extent": 9015.8808, 
			 "electric_dipole_moment_norm": 3.73308037149, 
			 "electric_quadrupole_moment_norm": 29.4559011942, 
			 "total_energy": -3391.36508241, 
			 "HOMO_LUMO_gap": 0.18175, 
			 "cosmo_polarized_energy": -21.52, 
			 "cosmo_cavitation_energy": 37.06, 
			 "cosmo_dispersion_energy": -25.7, 
			 "cosmo_repulsion_energy": 1.98, 
			 "cosmo_total_nonelectrostatic_energy": 13.33, 
			 "SMD_solvation_energy": 6.8 
		},
		"coords": [
			{
				"x": -1.0909466302,
				"y": -1.2559260026,
				"z": -3.1371738092,
				"element": "O" 
			},
			{
				"x": -1.9409413886,
				"y": -0.2149653427,
				"z": -2.9329967043,
				"element": "C" 
			},
			{
				"x": -2.8529589193,
				"y": -0.0149305107,
				"z": -3.6992754599,
				"element": "O" 
			},
			{
				"x": -1.6736801161,
				"y": 0.6443684827,
				"z": -1.7307692995,
				"element": "C" 
			},
			{
				"x": -0.985899097,
				"y": 0.1596397699,
				"z": -0.6121111286,
				"element": "C" 
			},
			{
				"x": -0.7442048182,
				"y": 0.9966578918,
				"z": 0.4854477309,
				"element": "C" 
			},
			{
				"x": -0.0691826261,
				"y": 0.5503496702,
				"z": 1.6451510481,
				"element": "N" 
			},
			{
				"x": 0.8599574085,
				"y": -0.4645547784,
				"z": 1.8311820199,
				"element": "C" 
			},
			{
				"x": 0.9907573804,
				"y": -0.9658896623,
				"z": 2.940511944,
				"element": "O" 
			},
			{
				"x": 1.7388742367,
				"y": -0.8808166014,
				"z": 0.6895401882,
				"element": "C" 
			},
			{
				"x": 2.1919548663,
				"y": -2.2070550609,
				"z": 0.6779448357,
				"element": "C" 
			},
			{
				"x": 3.0602574974,
				"y": -2.6549661656,
				"z": -0.3144659028,
				"element": "C" 
			},
			{
				"x": 3.5004185106,
				"y": -1.756014613,
				"z": -1.2868057423,
				"element": "C" 
			},
			{
				"x": 4.6952316704,
				"y": -2.3549842805,
				"z": -2.6466793206,
				"element": "Br" 
			},
			{
				"x": 3.088381848,
				"y": -0.4223733411,
				"z": -1.2767075684,
				"element": "C" 
			},
			{
				"x": 2.2044795648,
				"y": 0.00964406,
				"z": -0.288867627,
				"element": "C" 
			},
			{
				"x": -1.2329748288,
				"y": 2.3109925407,
				"z": 0.4621577448,
				"element": "C" 
			},
			{
				"x": -1.9561343568,
				"y": 2.7756946638,
				"z": -0.6360300718,
				"element": "C" 
			},
			{
				"x": -2.1783340708,
				"y": 1.9503968179,
				"z": -1.7354255815,
				"element": "C" 
			},
			{
				"x": -0.3185258838,
				"y": -1.1790241626,
				"z": -2.5591668327,
				"element": "H" 
			},
			{
				"x": -0.6723899289,
				"y": -0.8772597896,
				"z": -0.5635562112,
				"element": "H" 
			},
			{
				"x": -0.4683607421,
				"y": 0.8391654829,
				"z": 2.5309108137,
				"element": "H" 
			},
			{
				"x": 1.8590129949,
				"y": -2.8792379917,
				"z": 1.4615760119,
				"element": "H" 
			},
			{
				"x": 3.3989331632,
				"y": -3.6844387772,
				"z": -0.3300810913,
				"element": "H" 
			},
			{
				"x": 3.4593765734,
				"y": 0.268095093,
				"z": -2.0254586888,
				"element": "H" 
			},
			{
				"x": 1.8934333556,
				"y": 1.0485935365,
				"z": -0.2755672291,
				"element": "H" 
			},
			{
				"x": -1.0434107458,
				"y": 2.9629215305,
				"z": 1.3103382355,
				"element": "H" 
			},
			{
				"x": -2.3373015663,
				"y": 3.7922491305,
				"z": -0.6335984857,
				"element": "H" 
			},
			{
				"x": -2.7362233516,
				"y": 2.2912684096,
				"z": -2.6001238179,
				"element": "H" 
			}
		],
		 "valence_orbital": [ 
			{
				"type": "occ",
				"energy": -0.2831,
				"method": "rhf"
			},
			{
				"type": "occ",
				"energy": -0.27842,
				"method": "rhf"
			},
			{
				"type": "occ",
				"energy": -0.27404,
				"method": "rhf"
			},
			{
				"type": "occ",
				"energy": -0.25883,
				"method": "rhf"
			},
			{
				"type": "occ",
				"energy": -0.24737,
				"method": "rhf"
			},
			{
				"type": "unocc",
				"energy": -0.06562,
				"method": "rhf"
			},
			{
				"type": "unocc",
				"energy": -0.06081,
				"method": "rhf"
			},
			{
				"type": "unocc",
				"energy": -0.03233,
				"method": "rhf"
			},
			{
				"type": "unocc",
				"energy": -0.02843,
				"method": "rhf"
			},
			{
				"type": "unocc",
				"energy": -0.00677,
				"method": "rhf"
			}
		],
		"cosmo_sigma_profile": { 
			"-0.025": 0.0,
			"-0.024": 0.0,
			"-0.023": 0.0,
			"-0.022": 0.0,
			"-0.021": 0.0,
			"-0.02": 0.0,
			"-0.019": 0.0,
			"-0.018": 0.0,
			"-0.017": 0.0,
			"-0.016": 0.0,
			"-0.015": 0.482421110353,
			"-0.014": 1.48014085759,
			"-0.013": 2.40242560514,
			"-0.012": 2.83917793751,
			"-0.011": 3.32646904617,
			"-0.01": 3.17344830975,
			"-0.009": 2.89960136742,
			"-0.008": 5.07814961145,
			"-0.007": 14.3331441674,
			"-0.006": 16.7232115327,
			"-0.005": 16.3231890983,
			"-0.004": 16.756715199,
			"-0.003": 17.4963523314,
			"-0.002": 18.7938413403,
			"-0.001": 20.0275557007,
			"0.0": 21.4013863139,
			"0.001": 23.1125063857,
			"0.002": 27.457183262,
			"0.003": 20.3247793759,
			"0.004": 16.3239783796,
			"0.005": 5.60061490986,
			"0.006": 2.85733008214,
			"0.007": 4.70532294116,
			"0.008": 4.07775671219,
			"0.009": 5.09875588531,
			"0.01": 6.27983233161,
			"0.011": 7.29086086468,
			"0.012": 8.79479907895,
			"0.013": 5.22314766782,
			"0.014": 0.190045426956,
			"0.015": 0.0,
			"0.016": 0.0,
			"0.017": 0.0,
			"0.018": 0.0,
			"0.019": 0.0,
			"0.02": 0.0,
			"0.021": 0.0,
			"0.022": 0.0,
			"0.023": 0.0,
			"0.024": 0.0,
			"0.025": 0.0
		}
	}
}
