{
	 "smiles": "O=C1C=CC=CN1C(=S)N1C=CC=CC1=O", 
	 "Tm": 437.65, 
	 "num_atms": 24, 
	 "gaussian": { 
		 "optdone": 1, 
		 "sigma_profile": "yes", 
		 "theory": "DFT", 
		 "functional": "B3LYP", 
		 "basiset": "6-31G**", 
		 "properties": { 
			 "R2extent": 3637.815, 
			 "electric_dipole_moment_norm": 0.104472532275, 
			 "electric_quadrupole_moment_norm": 21.9197045436, 
			 "total_energy": -1082.09908742, 
			 "HOMO_LUMO_gap": 0.11905, 
			 "cosmo_polarized_energy": -14.4, 
			 "cosmo_cavitation_energy": 30.29, 
			 "cosmo_dispersion_energy": -21.92, 
			 "cosmo_repulsion_energy": 1.65, 
			 "cosmo_total_nonelectrostatic_energy": 10.01, 
			 "SMD_solvation_energy": 6.58 
		},
		"coords": [
			{
				"x": 1.1010746297,
				"y": 1.0894504841,
				"z": 0.06005687,
				"element": "O" 
			},
			{
				"x": 0.727509722,
				"y": 0.4717042826,
				"z": 1.0443911282,
				"element": "C" 
			},
			{
				"x": 1.2869563401,
				"y": 0.6118587425,
				"z": 2.3745227043,
				"element": "C" 
			},
			{
				"x": 0.8910338944,
				"y": -0.1565726263,
				"z": 3.4232066367,
				"element": "C" 
			},
			{
				"x": -0.1214043216,
				"y": -1.1500966596,
				"z": 3.2515535961,
				"element": "C" 
			},
			{
				"x": -0.6861151164,
				"y": -1.314650892,
				"z": 2.0309635337,
				"element": "C" 
			},
			{
				"x": -0.3186959667,
				"y": -0.5385545497,
				"z": 0.9428959445,
				"element": "N" 
			},
			{
				"x": -0.9184713967,
				"y": -0.8012775135,
				"z": -0.3051371215,
				"element": "C" 
			},
			{
				"x": -1.2334551228,
				"y": -2.3334445111,
				"z": -0.8277880624,
				"element": "S" 
			},
			{
				"x": -1.2301644974,
				"y": 0.3371806474,
				"z": -1.0752629441,
				"element": "N" 
			},
			{
				"x": -1.0330316376,
				"y": 0.2839054759,
				"z": -2.4462131385,
				"element": "C" 
			},
			{
				"x": -1.350276895,
				"y": 1.3225249465,
				"z": -3.2564288315,
				"element": "C" 
			},
			{
				"x": -1.9156071524,
				"y": 2.5043571334,
				"z": -2.6861139379,
				"element": "C" 
			},
			{
				"x": -2.1372088129,
				"y": 2.5853323183,
				"z": -1.3477147419,
				"element": "C" 
			},
			{
				"x": -1.8295433106,
				"y": 1.5017621539,
				"z": -0.4349743852,
				"element": "C" 
			},
			{
				"x": -2.0759684385,
				"y": 1.5032986404,
				"z": 0.7605798912,
				"element": "O" 
			},
			{
				"x": 2.0547842556,
				"y": 1.3710012885,
				"z": 2.4652290812,
				"element": "H" 
			},
			{
				"x": 1.3433337992,
				"y": -0.0164721057,
				"z": 4.4010325219,
				"element": "H" 
			},
			{
				"x": -0.4586892607,
				"y": -1.7595305988,
				"z": 4.080612332,
				"element": "H" 
			},
			{
				"x": -1.4657802614,
				"y": -2.0367689527,
				"z": 1.8324035023,
				"element": "H" 
			},
			{
				"x": -0.5904792398,
				"y": -0.6340701486,
				"z": -2.8070788756,
				"element": "H" 
			},
			{
				"x": -1.1533306124,
				"y": 1.2484490303,
				"z": -4.3186127368,
				"element": "H" 
			},
			{
				"x": -2.1666564771,
				"y": 3.3424110734,
				"z": -3.330308153,
				"element": "H" 
			},
			{
				"x": -2.5687141209,
				"y": 3.4625023407,
				"z": -0.8803148135,
				"element": "H" 
			}
		],
		 "valence_orbital": [ 
			{
				"type": "occ",
				"energy": -0.26544,
				"method": "rhf"
			},
			{
				"type": "occ",
				"energy": -0.26477,
				"method": "rhf"
			},
			{
				"type": "occ",
				"energy": -0.24605,
				"method": "rhf"
			},
			{
				"type": "occ",
				"energy": -0.23231,
				"method": "rhf"
			},
			{
				"type": "occ",
				"energy": -0.22507,
				"method": "rhf"
			},
			{
				"type": "unocc",
				"energy": -0.10602,
				"method": "rhf"
			},
			{
				"type": "unocc",
				"energy": -0.0537,
				"method": "rhf"
			},
			{
				"type": "unocc",
				"energy": -0.02538,
				"method": "rhf"
			},
			{
				"type": "unocc",
				"energy": 0.00548,
				"method": "rhf"
			},
			{
				"type": "unocc",
				"energy": 0.00981,
				"method": "rhf"
			}
		],
		"cosmo_sigma_profile": { 
			"-0.025": 0.0,
			"-0.024": 0.0,
			"-0.023": 0.0,
			"-0.022": 0.0,
			"-0.021": 0.0,
			"-0.02": 0.0,
			"-0.019": 0.0,
			"-0.018": 0.0,
			"-0.017": 0.0,
			"-0.016": 0.0,
			"-0.015": 0.0,
			"-0.014": 0.0,
			"-0.013": 0.0,
			"-0.012": 0.0,
			"-0.011": 0.0,
			"-0.01": 0.00907558169942,
			"-0.009": 2.1578171919,
			"-0.008": 11.0613392983,
			"-0.007": 17.9294779074,
			"-0.006": 16.7957370901,
			"-0.005": 11.920024616,
			"-0.004": 13.4877078664,
			"-0.003": 14.6048932791,
			"-0.002": 11.8836349282,
			"-0.001": 13.9513988203,
			"0.0": 19.149782472,
			"0.001": 22.4043764599,
			"0.002": 24.6444348098,
			"0.003": 14.344011007,
			"0.004": 8.7874018311,
			"0.005": 6.55421791045,
			"0.006": 7.62162831964,
			"0.007": 5.95134636194,
			"0.008": 2.85665596127,
			"0.009": 2.96926837513,
			"0.01": 3.9266826358,
			"0.011": 3.4212484464,
			"0.012": 5.5895861107,
			"0.013": 4.33576303295,
			"0.014": 0.743434815497,
			"0.015": 0.0,
			"0.016": 0.0,
			"0.017": 0.0,
			"0.018": 0.0,
			"0.019": 0.0,
			"0.02": 0.0,
			"0.021": 0.0,
			"0.022": 0.0,
			"0.023": 0.0,
			"0.024": 0.0,
			"0.025": 0.0
		}
	}
}
