{
	 "smiles": "ClC1=C(C#N)N2C=CC=CC2=N1", 
	 "Tm": 455.15, 
	 "num_atms": 16, 
	 "gaussian": { 
		 "optdone": 1, 
		 "sigma_profile": "yes", 
		 "theory": "DFT", 
		 "functional": "B3LYP", 
		 "basiset": "6-31G**", 
		 "properties": { 
			 "R2extent": 2597.6457, 
			 "electric_dipole_moment_norm": 5.53582348255, 
			 "electric_quadrupole_moment_norm": 10.4750520352, 
			 "total_energy": -931.680438662, 
			 "HOMO_LUMO_gap": 0.17609, 
			 "cosmo_polarized_energy": -11.92, 
			 "cosmo_cavitation_energy": 23.86, 
			 "cosmo_dispersion_energy": -17.33, 
			 "cosmo_repulsion_energy": 1.37, 
			 "cosmo_total_nonelectrostatic_energy": 7.9, 
			 "SMD_solvation_energy": 3.57 
		},
		"coords": [
			{
				"x": -1.7902760582,
				"y": 1.7555265808,
				"z": -2.8928156864,
				"element": "Cl" 
			},
			{
				"x": -1.1914063635,
				"y": 0.8522147094,
				"z": -1.5536461258,
				"element": "C" 
			},
			{
				"x": -1.0047370126,
				"y": -0.5348999434,
				"z": -1.5479203968,
				"element": "C" 
			},
			{
				"x": -1.216877091,
				"y": -1.5341172607,
				"z": -2.5135585895,
				"element": "C" 
			},
			{
				"x": -1.3806037512,
				"y": -2.3886131137,
				"z": -3.290054321,
				"element": "N" 
			},
			{
				"x": -0.5128674232,
				"y": -0.804104659,
				"z": -0.2721148862,
				"element": "N" 
			},
			{
				"x": -0.1452632998,
				"y": -1.9863304149,
				"z": 0.3159186734,
				"element": "C" 
			},
			{
				"x": 0.3129576332,
				"y": -1.9643441308,
				"z": 1.6058104384,
				"element": "C" 
			},
			{
				"x": 0.4035107312,
				"y": -0.7375038944,
				"z": 2.3159673462,
				"element": "C" 
			},
			{
				"x": 0.0322022657,
				"y": 0.4460026326,
				"z": 1.71809077,
				"element": "C" 
			},
			{
				"x": -0.4399896735,
				"y": 0.4269464613,
				"z": 0.3901684729,
				"element": "C" 
			},
			{
				"x": -0.8549956036,
				"y": 1.4315068097,
				"z": -0.3967265102,
				"element": "N" 
			},
			{
				"x": -0.243448103,
				"y": -2.8780895366,
				"z": -0.2907718676,
				"element": "H" 
			},
			{
				"x": 0.6043577735,
				"y": -2.8973850091,
				"z": 2.0734528151,
				"element": "H" 
			},
			{
				"x": 0.7687495408,
				"y": -0.7379320274,
				"z": 3.3374247294,
				"element": "H" 
			},
			{
				"x": 0.0866864354,
				"y": 1.4012227962,
				"z": 2.226175138,
				"element": "H" 
			}
		],
		 "valence_orbital": [ 
			{
				"type": "occ",
				"energy": -0.33884,
				"method": "rhf"
			},
			{
				"type": "occ",
				"energy": -0.33129,
				"method": "rhf"
			},
			{
				"type": "occ",
				"energy": -0.30828,
				"method": "rhf"
			},
			{
				"type": "occ",
				"energy": -0.26672,
				"method": "rhf"
			},
			{
				"type": "occ",
				"energy": -0.23983,
				"method": "rhf"
			},
			{
				"type": "unocc",
				"energy": -0.06374,
				"method": "rhf"
			},
			{
				"type": "unocc",
				"energy": -0.04857,
				"method": "rhf"
			},
			{
				"type": "unocc",
				"energy": 0.00092,
				"method": "rhf"
			},
			{
				"type": "unocc",
				"energy": 0.00535,
				"method": "rhf"
			},
			{
				"type": "unocc",
				"energy": 0.03089,
				"method": "rhf"
			}
		],
		"cosmo_sigma_profile": { 
			"-0.025": 0.0,
			"-0.024": 0.0,
			"-0.023": 0.0,
			"-0.022": 0.0,
			"-0.021": 0.0,
			"-0.02": 0.0,
			"-0.019": 0.0,
			"-0.018": 0.0,
			"-0.017": 0.0,
			"-0.016": 0.0,
			"-0.015": 0.0,
			"-0.014": 0.0,
			"-0.013": 0.0,
			"-0.012": 0.0,
			"-0.011": 0.114601243815,
			"-0.01": 1.47171722415,
			"-0.009": 2.76478235532,
			"-0.008": 8.95843992108,
			"-0.007": 10.1718991077,
			"-0.006": 9.1957290114,
			"-0.005": 7.45856804636,
			"-0.004": 11.5774242102,
			"-0.003": 12.4553283369,
			"-0.002": 17.6937698035,
			"-0.001": 14.6958912136,
			"0.0": 16.5279106456,
			"0.001": 17.7424094001,
			"0.002": 14.9902592615,
			"0.003": 11.3999182456,
			"0.004": 5.30073372556,
			"0.005": 4.26902071788,
			"0.006": 3.55757912244,
			"0.007": 4.93002540861,
			"0.008": 4.22283945556,
			"0.009": 3.92577095696,
			"0.01": 4.11164798504,
			"0.011": 3.84671840146,
			"0.012": 2.71886692027,
			"0.013": 1.8526952996,
			"0.014": 0.796498895544,
			"0.015": 0.363242676471,
			"0.016": 0.0,
			"0.017": 0.0,
			"0.018": 0.0,
			"0.019": 0.0,
			"0.02": 0.0,
			"0.021": 0.0,
			"0.022": 0.0,
			"0.023": 0.0,
			"0.024": 0.0,
			"0.025": 0.0
		}
	}
}
