{
	 "smiles": "NC1=CC(=C(Cl)C=C1)S(=O)(=O)NC1=CC=C(Cl)C=C1", 
	 "Tm": 397.15, 
	 "num_atms": 29, 
	 "gaussian": { 
		 "optdone": 1, 
		 "sigma_profile": "yes", 
		 "theory": "DFT", 
		 "functional": "B3LYP", 
		 "basiset": "6-31G**", 
		 "properties": { 
			 "R2extent": 9841.0003, 
			 "electric_dipole_moment_norm": 6.49085605063, 
			 "electric_quadrupole_moment_norm": 28.0828100695, 
			 "total_energy": -2041.7486996, 
			 "HOMO_LUMO_gap": 0.18225, 
			 "cosmo_polarized_energy": -22.86, 
			 "cosmo_cavitation_energy": 38.52, 
			 "cosmo_dispersion_energy": -27.91, 
			 "cosmo_repulsion_energy": 2.12, 
			 "cosmo_total_nonelectrostatic_energy": 12.73, 
			 "SMD_solvation_energy": 5.27 
		},
		"coords": [
			{
				"x": 1.352032025,
				"y": 1.2976613493,
				"z": 3.6205331472,
				"element": "N" 
			},
			{
				"x": 0.5325099087,
				"y": 2.1916128889,
				"z": 2.9436253617,
				"element": "C" 
			},
			{
				"x": -0.0631820063,
				"y": 1.8304194027,
				"z": 1.723298781,
				"element": "C" 
			},
			{
				"x": -0.9288600786,
				"y": 2.7012763807,
				"z": 1.0618213955,
				"element": "C" 
			},
			{
				"x": -1.2284662096,
				"y": 3.955986605,
				"z": 1.6136008065,
				"element": "C" 
			},
			{
				"x": -2.3166516307,
				"y": 5.0905430979,
				"z": 0.847407597,
				"element": "Cl" 
			},
			{
				"x": -0.6404656941,
				"y": 4.3146140297,
				"z": 2.8273468003,
				"element": "C" 
			},
			{
				"x": 0.2284212315,
				"y": 3.4519798973,
				"z": 3.4843980077,
				"element": "C" 
			},
			{
				"x": -1.66764836,
				"y": 2.2062459649,
				"z": -0.5124524866,
				"element": "S" 
			},
			{
				"x": -1.1744101002,
				"y": 3.1094087113,
				"z": -1.5481746963,
				"element": "O" 
			},
			{
				"x": -3.0950228043,
				"y": 1.9597921123,
				"z": -0.3072425448,
				"element": "O" 
			},
			{
				"x": -1.0176727221,
				"y": 0.6481608251,
				"z": -0.761324201,
				"element": "N" 
			},
			{
				"x": 0.0475113367,
				"y": 0.35885768,
				"z": -1.650994764,
				"element": "C" 
			},
			{
				"x": -0.0292096118,
				"y": -0.7946779967,
				"z": -2.4428142923,
				"element": "C" 
			},
			{
				"x": 1.0292767691,
				"y": -1.1588250199,
				"z": -3.2717809683,
				"element": "C" 
			},
			{
				"x": 2.165228255,
				"y": -0.3533489055,
				"z": -3.3242933478,
				"element": "C" 
			},
			{
				"x": 3.5017428838,
				"y": -0.8008445834,
				"z": -4.3744569498,
				"element": "Cl" 
			},
			{
				"x": 2.2507508536,
				"y": 0.8041912218,
				"z": -2.5520812171,
				"element": "C" 
			},
			{
				"x": 1.1993734427,
				"y": 1.1549899322,
				"z": -1.7083214181,
				"element": "C" 
			},
			{
				"x": 1.9891598388,
				"y": 1.7002751403,
				"z": 4.2926345663,
				"element": "H" 
			},
			{
				"x": 1.7799563263,
				"y": 0.5734652268,
				"z": 3.0617080494,
				"element": "H" 
			},
			{
				"x": 0.1401109527,
				"y": 0.8593540047,
				"z": 1.2875318284,
				"element": "H" 
			},
			{
				"x": -0.8700028169,
				"y": 5.2843211153,
				"z": 3.2552291421,
				"element": "H" 
			},
			{
				"x": 0.670367221,
				"y": 3.7552747336,
				"z": 4.4295119222,
				"element": "H" 
			},
			{
				"x": -1.7948777545,
				"y": -0.0040694196,
				"z": -0.7862790408,
				"element": "H" 
			},
			{
				"x": -0.9214609739,
				"y": -1.4144419428,
				"z": -2.4119223436,
				"element": "H" 
			},
			{
				"x": 0.9659784724,
				"y": -2.0548631543,
				"z": -3.8789493598,
				"element": "H" 
			},
			{
				"x": 3.1368471749,
				"y": 1.4269460755,
				"z": -2.6037756305,
				"element": "H" 
			},
			{
				"x": 1.2731640706,
				"y": 2.0557946271,
				"z": -1.1113841448,
				"element": "H" 
			}
		],
		 "valence_orbital": [ 
			{
				"type": "occ",
				"energy": -0.30087,
				"method": "rhf"
			},
			{
				"type": "occ",
				"energy": -0.27816,
				"method": "rhf"
			},
			{
				"type": "occ",
				"energy": -0.27123,
				"method": "rhf"
			},
			{
				"type": "occ",
				"energy": -0.23175,
				"method": "rhf"
			},
			{
				"type": "occ",
				"energy": -0.22371,
				"method": "rhf"
			},
			{
				"type": "unocc",
				"energy": -0.04146,
				"method": "rhf"
			},
			{
				"type": "unocc",
				"energy": -0.02276,
				"method": "rhf"
			},
			{
				"type": "unocc",
				"energy": -0.01758,
				"method": "rhf"
			},
			{
				"type": "unocc",
				"energy": -0.0164,
				"method": "rhf"
			},
			{
				"type": "unocc",
				"energy": 0.01454,
				"method": "rhf"
			}
		],
		"cosmo_sigma_profile": { 
			"-0.025": 0.0,
			"-0.024": 0.0,
			"-0.023": 0.0,
			"-0.022": 0.0,
			"-0.021": 0.0,
			"-0.02": 0.0,
			"-0.019": 0.0,
			"-0.018": 0.0,
			"-0.017": 0.0,
			"-0.016": 0.563777379167,
			"-0.015": 0.945791773198,
			"-0.014": 2.0422316531,
			"-0.013": 3.88332453759,
			"-0.012": 4.66273983283,
			"-0.011": 4.88390324889,
			"-0.01": 3.32821920825,
			"-0.009": 5.1563666037,
			"-0.008": 7.50476560394,
			"-0.007": 12.8583220231,
			"-0.006": 14.2745215443,
			"-0.005": 12.1789578414,
			"-0.004": 11.1666556803,
			"-0.003": 13.7197842845,
			"-0.002": 13.6826014991,
			"-0.001": 16.093946505,
			"0.0": 19.1024130776,
			"0.001": 24.3606317145,
			"0.002": 32.8940797694,
			"0.003": 32.5808417458,
			"0.004": 21.7334671734,
			"0.005": 13.3796876953,
			"0.006": 6.34661123851,
			"0.007": 5.1696734737,
			"0.008": 5.10005634406,
			"0.009": 7.42199437252,
			"0.01": 12.3290017485,
			"0.011": 4.85291762415,
			"0.012": 0.56549322621,
			"0.013": 0.258601922171,
			"0.014": 0.0,
			"0.015": 0.0,
			"0.016": 0.0,
			"0.017": 0.0,
			"0.018": 0.0,
			"0.019": 0.0,
			"0.02": 0.0,
			"0.021": 0.0,
			"0.022": 0.0,
			"0.023": 0.0,
			"0.024": 0.0,
			"0.025": 0.0
		}
	}
}
