{
	 "smiles": "CCCCN1C(CCl)=NC2=C1C(=O)NC(=O)N2CC1=CC=CC=C1", 
	 "Tm": 290.15, 
	 "num_atms": 43, 
	 "gaussian": { 
		 "optdone": 1, 
		 "sigma_profile": "yes", 
		 "theory": "DFT", 
		 "functional": "B3LYP", 
		 "basiset": "6-31G**", 
		 "properties": { 
			 "R2extent": 10228.3733, 
			 "electric_dipole_moment_norm": 3.60046396732, 
			 "electric_quadrupole_moment_norm": 9.04592983336, 
			 "total_energy": -1488.97951191, 
			 "HOMO_LUMO_gap": 0.16896, 
			 "cosmo_polarized_energy": -16.54, 
			 "cosmo_cavitation_energy": 46.84, 
			 "cosmo_dispersion_energy": -32.18, 
			 "cosmo_repulsion_energy": 2.47, 
			 "cosmo_total_nonelectrostatic_energy": 17.13, 
			 "SMD_solvation_energy": 6.95 
		},
		"coords": [
			{
				"x": -1.8808101625,
				"y": 4.8583066791,
				"z": -2.264630715,
				"element": "C" 
			},
			{
				"x": -0.5005542634,
				"y": 4.4978056348,
				"z": -1.7025416828,
				"element": "C" 
			},
			{
				"x": 0.5532596274,
				"y": 4.1672630588,
				"z": -2.7722669764,
				"element": "C" 
			},
			{
				"x": 0.3618633046,
				"y": 2.8411268433,
				"z": -3.5288485849,
				"element": "C" 
			},
			{
				"x": 0.4931997465,
				"y": 1.6445573574,
				"z": -2.6760301888,
				"element": "N" 
			},
			{
				"x": 1.6333852907,
				"y": 1.0860948464,
				"z": -2.1762518589,
				"element": "C" 
			},
			{
				"x": 3.0076521665,
				"y": 1.5754106325,
				"z": -2.4524772233,
				"element": "C" 
			},
			{
				"x": 3.5782187207,
				"y": 1.1366408038,
				"z": -4.1409309011,
				"element": "Cl" 
			},
			{
				"x": 1.4002188076,
				"y": -0.0001639886,
				"z": -1.4329309883,
				"element": "N" 
			},
			{
				"x": 0.0542421301,
				"y": -0.1454215507,
				"z": -1.4617397131,
				"element": "C" 
			},
			{
				"x": -0.5457767759,
				"y": 0.8476305387,
				"z": -2.2220016644,
				"element": "C" 
			},
			{
				"x": -1.9609022447,
				"y": 0.8700785239,
				"z": -2.4821685702,
				"element": "C" 
			},
			{
				"x": -2.6012496148,
				"y": 1.6523804559,
				"z": -3.1789052499,
				"element": "O" 
			},
			{
				"x": -2.5889173251,
				"y": -0.1918477183,
				"z": -1.8094783451,
				"element": "N" 
			},
			{
				"x": -2.0446068785,
				"y": -1.1995547724,
				"z": -1.0040605884,
				"element": "C" 
			},
			{
				"x": -2.7509345255,
				"y": -2.0543897098,
				"z": -0.4905276353,
				"element": "O" 
			},
			{
				"x": -0.6631814533,
				"y": -1.1534405387,
				"z": -0.851827373,
				"element": "N" 
			},
			{
				"x": 0.0044045676,
				"y": -2.1747650163,
				"z": -0.0184098398,
				"element": "C" 
			},
			{
				"x": 0.1476665948,
				"y": -1.7666182705,
				"z": 1.4349357243,
				"element": "C" 
			},
			{
				"x": -0.9136952182,
				"y": -1.955550134,
				"z": 2.3311268566,
				"element": "C" 
			},
			{
				"x": -0.7814137903,
				"y": -1.5792725097,
				"z": 3.6679919331,
				"element": "C" 
			},
			{
				"x": 0.4115341277,
				"y": -1.0129876773,
				"z": 4.1235856377,
				"element": "C" 
			},
			{
				"x": 1.4716384349,
				"y": -0.8213418535,
				"z": 3.2358217795,
				"element": "C" 
			},
			{
				"x": 1.3397585279,
				"y": -1.1958087149,
				"z": 1.8974442567,
				"element": "C" 
			},
			{
				"x": -2.3376815147,
				"y": 4.016972815,
				"z": -2.7921834259,
				"element": "H" 
			},
			{
				"x": -1.8117979283,
				"y": 5.705728946,
				"z": -2.9570412683,
				"element": "H" 
			},
			{
				"x": -2.5608186002,
				"y": 5.1481201121,
				"z": -1.456924529,
				"element": "H" 
			},
			{
				"x": -0.1205673353,
				"y": 5.3392373153,
				"z": -1.1099123167,
				"element": "H" 
			},
			{
				"x": -0.5898454252,
				"y": 3.6567361357,
				"z": -1.0027217686,
				"element": "H" 
			},
			{
				"x": 0.563226528,
				"y": 4.9610632917,
				"z": -3.5309116635,
				"element": "H" 
			},
			{
				"x": 1.5498421021,
				"y": 4.1789834928,
				"z": -2.3140795266,
				"element": "H" 
			},
			{
				"x": 1.1021511796,
				"y": 2.753368872,
				"z": -4.3288763492,
				"element": "H" 
			},
			{
				"x": -0.6319096731,
				"y": 2.783218606,
				"z": -3.9747055272,
				"element": "H" 
			},
			{
				"x": 3.1035437576,
				"y": 2.6578235998,
				"z": -2.3856381692,
				"element": "H" 
			},
			{
				"x": 3.6945070602,
				"y": 1.0933892552,
				"z": -1.7602911479,
				"element": "H" 
			},
			{
				"x": -3.5928055725,
				"y": -0.2561179181,
				"z": -1.9272137935,
				"element": "H" 
			},
			{
				"x": -0.5999308577,
				"y": -3.0781137146,
				"z": -0.1082015118,
				"element": "H" 
			},
			{
				"x": 0.9832959156,
				"y": -2.3509864199,
				"z": -0.4673331373,
				"element": "H" 
			},
			{
				"x": -1.8410388709,
				"y": -2.3900404098,
				"z": 1.9697279505,
				"element": "H" 
			},
			{
				"x": -1.6085722665,
				"y": -1.7322196508,
				"z": 4.3555242855,
				"element": "H" 
			},
			{
				"x": 0.514644912,
				"y": -0.7245434967,
				"z": 5.1659295196,
				"element": "H" 
			},
			{
				"x": 2.4022764077,
				"y": -0.382788408,
				"z": 3.5852218943,
				"element": "H" 
			},
			{
				"x": 2.1587803868,
				"y": -1.0388653436,
				"z": 1.2011523956,
				"element": "H" 
			}
		],
		 "valence_orbital": [ 
			{
				"type": "occ",
				"energy": -0.28699,
				"method": "rhf"
			},
			{
				"type": "occ",
				"energy": -0.26873,
				"method": "rhf"
			},
			{
				"type": "occ",
				"energy": -0.24926,
				"method": "rhf"
			},
			{
				"type": "occ",
				"energy": -0.24787,
				"method": "rhf"
			},
			{
				"type": "occ",
				"energy": -0.22637,
				"method": "rhf"
			},
			{
				"type": "unocc",
				"energy": -0.05741,
				"method": "rhf"
			},
			{
				"type": "unocc",
				"energy": -0.00818,
				"method": "rhf"
			},
			{
				"type": "unocc",
				"energy": -0.0025,
				"method": "rhf"
			},
			{
				"type": "unocc",
				"energy": -0.00016,
				"method": "rhf"
			},
			{
				"type": "unocc",
				"energy": 0.01651,
				"method": "rhf"
			}
		],
		"cosmo_sigma_profile": { 
			"-0.025": 0.0,
			"-0.024": 0.0,
			"-0.023": 0.0,
			"-0.022": 0.0,
			"-0.021": 0.0,
			"-0.02": 0.0,
			"-0.019": 0.0,
			"-0.018": 0.0,
			"-0.017": 0.0,
			"-0.016": 0.235983911549,
			"-0.015": 0.869532653652,
			"-0.014": 1.24383127043,
			"-0.013": 0.358210233499,
			"-0.012": 0.835608757746,
			"-0.011": 0.44580857636,
			"-0.01": 0.860734788255,
			"-0.009": 4.20720852987,
			"-0.008": 5.4724618749,
			"-0.007": 5.58882785493,
			"-0.006": 11.3763898082,
			"-0.005": 19.508530984,
			"-0.004": 28.8629843647,
			"-0.003": 37.6167171153,
			"-0.002": 41.1316550284,
			"-0.001": 35.4735657527,
			"0.0": 26.2447397624,
			"0.001": 24.8821403416,
			"0.002": 24.5068076311,
			"0.003": 19.5307191556,
			"0.004": 20.5596572716,
			"0.005": 20.4570671127,
			"0.006": 16.7631030123,
			"0.007": 3.39026577448,
			"0.008": 3.19104492123,
			"0.009": 3.43124145811,
			"0.01": 3.43715907062,
			"0.011": 4.30406490352,
			"0.012": 5.12799546473,
			"0.013": 4.15322692201,
			"0.014": 0.121919354508,
			"0.015": 0.0,
			"0.016": 0.0,
			"0.017": 0.0,
			"0.018": 0.0,
			"0.019": 0.0,
			"0.02": 0.0,
			"0.021": 0.0,
			"0.022": 0.0,
			"0.023": 0.0,
			"0.024": 0.0,
			"0.025": 0.0
		}
	}
}
