{
	 "smiles": "OC(=O)C(=CC1=CC(O)=CC=C1)C#N", 
	 "Tm": 505.15, 
	 "num_atms": 21, 
	 "gaussian": { 
		 "optdone": 1, 
		 "sigma_profile": "yes", 
		 "theory": "DFT", 
		 "functional": "B3LYP", 
		 "basiset": "6-31G**", 
		 "properties": { 
			 "R2extent": 3780.1394, 
			 "electric_dipole_moment_norm": 3.96481970586, 
			 "electric_quadrupole_moment_norm": 23.9133182526, 
			 "total_energy": -665.684755565, 
			 "HOMO_LUMO_gap": 0.1463, 
			 "cosmo_polarized_energy": -18.25, 
			 "cosmo_cavitation_energy": 27.67, 
			 "cosmo_dispersion_energy": -19.66, 
			 "cosmo_repulsion_energy": 1.54, 
			 "cosmo_total_nonelectrostatic_energy": 9.54, 
			 "SMD_solvation_energy": 7.6 
		},
		"coords": [
			{
				"x": -2.2823703575,
				"y": 3.9414093614,
				"z": 1.3332925814,
				"element": "O" 
			},
			{
				"x": -2.0441105865,
				"y": 2.9672187111,
				"z": 0.4316527436,
				"element": "C" 
			},
			{
				"x": -2.764929965,
				"y": 2.7524995472,
				"z": -0.5215223997,
				"element": "O" 
			},
			{
				"x": -0.8016961992,
				"y": 2.1975272774,
				"z": 0.7478721561,
				"element": "C" 
			},
			{
				"x": -0.4691279357,
				"y": 1.1880072105,
				"z": -0.1031860882,
				"element": "C" 
			},
			{
				"x": 0.6415257664,
				"y": 0.2479948204,
				"z": -0.1143248515,
				"element": "C" 
			},
			{
				"x": 0.6601905411,
				"y": -0.6773789287,
				"z": -1.1756146604,
				"element": "C" 
			},
			{
				"x": 1.6801014485,
				"y": -1.6234818538,
				"z": -1.2826056164,
				"element": "C" 
			},
			{
				"x": 1.6264958748,
				"y": -2.4838944632,
				"z": -2.3389859924,
				"element": "O" 
			},
			{
				"x": 2.6983856214,
				"y": -1.6545876566,
				"z": -0.3236835224,
				"element": "C" 
			},
			{
				"x": 2.684614294,
				"y": -0.7388035069,
				"z": 0.7314590417,
				"element": "C" 
			},
			{
				"x": 1.674076696,
				"y": 0.2081695405,
				"z": 0.8485704955,
				"element": "C" 
			},
			{
				"x": -0.0595881854,
				"y": 2.57303317,
				"z": 1.9088328721,
				"element": "C" 
			},
			{
				"x": 0.5455888873,
				"y": 2.8791001121,
				"z": 2.8553032853,
				"element": "N" 
			},
			{
				"x": -3.099889749,
				"y": 4.3833124614,
				"z": 1.0500938539,
				"element": "H" 
			},
			{
				"x": -1.1763868272,
				"y": 1.0770683439,
				"z": -0.9228963425,
				"element": "H" 
			},
			{
				"x": -0.1206817855,
				"y": -0.6691892766,
				"z": -1.9293399286,
				"element": "H" 
			},
			{
				"x": 2.3810575249,
				"y": -3.0859880615,
				"z": -2.3029509375,
				"element": "H" 
			},
			{
				"x": 3.4969490128,
				"y": -2.3894054832,
				"z": -0.4006227739,
				"element": "H" 
			},
			{
				"x": 3.4783533127,
				"y": -0.7695351781,
				"z": 1.4715148233,
				"element": "H" 
			},
			{
				"x": 1.687342611,
				"y": 0.9054238526,
				"z": 1.6752412607,
				"element": "H" 
			}
		],
		 "valence_orbital": [ 
			{
				"type": "occ",
				"energy": -0.3318,
				"method": "rhf"
			},
			{
				"type": "occ",
				"energy": -0.30732,
				"method": "rhf"
			},
			{
				"type": "occ",
				"energy": -0.28887,
				"method": "rhf"
			},
			{
				"type": "occ",
				"energy": -0.25625,
				"method": "rhf"
			},
			{
				"type": "occ",
				"energy": -0.24078,
				"method": "rhf"
			},
			{
				"type": "unocc",
				"energy": -0.09448,
				"method": "rhf"
			},
			{
				"type": "unocc",
				"energy": -0.01363,
				"method": "rhf"
			},
			{
				"type": "unocc",
				"energy": 0.00956,
				"method": "rhf"
			},
			{
				"type": "unocc",
				"energy": 0.02259,
				"method": "rhf"
			},
			{
				"type": "unocc",
				"energy": 0.02637,
				"method": "rhf"
			}
		],
		"cosmo_sigma_profile": { 
			"-0.025": 0.0,
			"-0.024": 0.0,
			"-0.023": 0.0,
			"-0.022": 0.0,
			"-0.021": 0.0,
			"-0.02": 0.00121966922121,
			"-0.019": 0.753083697778,
			"-0.018": 2.16574484362,
			"-0.017": 1.75951775058,
			"-0.016": 2.46831875161,
			"-0.015": 1.97198019226,
			"-0.014": 1.21744653223,
			"-0.013": 1.22810475794,
			"-0.012": 1.87725600293,
			"-0.011": 1.77607942906,
			"-0.01": 2.11629037299,
			"-0.009": 3.95275217319,
			"-0.008": 4.3717722392,
			"-0.007": 6.34482588226,
			"-0.006": 7.25932287297,
			"-0.005": 8.6830065802,
			"-0.004": 9.98822685227,
			"-0.003": 13.0209365182,
			"-0.002": 16.6733237776,
			"-0.001": 15.8483579309,
			"0.0": 12.7211460357,
			"0.001": 13.3033152737,
			"0.002": 17.2321474576,
			"0.003": 14.9550711709,
			"0.004": 8.22562210187,
			"0.005": 6.61806181914,
			"0.006": 5.42105117479,
			"0.007": 7.19848520672,
			"0.008": 8.82371040074,
			"0.009": 5.5220122527,
			"0.01": 7.27442777331,
			"0.011": 8.65024712091,
			"0.012": 2.98715152138,
			"0.013": 0.629027315592,
			"0.014": 0.0,
			"0.015": 0.0,
			"0.016": 0.0,
			"0.017": 0.0,
			"0.018": 0.0,
			"0.019": 0.0,
			"0.02": 0.0,
			"0.021": 0.0,
			"0.022": 0.0,
			"0.023": 0.0,
			"0.024": 0.0,
			"0.025": 0.0
		}
	}
}
