{
	 "smiles": "O=C(NC1CCCCC1)NC1CCCCC1", 
	 "Tm": 504.65, 
	 "num_atms": 40, 
	 "gaussian": { 
		 "optdone": 1, 
		 "sigma_profile": "yes", 
		 "theory": "DFT", 
		 "functional": "B3LYP", 
		 "basiset": "6-31G**", 
		 "properties": { 
			 "R2extent": 5940.6715, 
			 "electric_dipole_moment_norm": 3.2546232378, 
			 "electric_quadrupole_moment_norm": 7.26735168751, 
			 "total_energy": -694.630511733, 
			 "HOMO_LUMO_gap": 0.29115, 
			 "cosmo_polarized_energy": -12.72, 
			 "cosmo_cavitation_energy": 38.33, 
			 "cosmo_dispersion_energy": -27.6, 
			 "cosmo_repulsion_energy": 2.19, 
			 "cosmo_total_nonelectrostatic_energy": 12.92, 
			 "SMD_solvation_energy": 4.46 
		},
		"coords": [
			{
				"x": 0.3548821562,
				"y": 1.5571162188,
				"z": -0.5642872774,
				"element": "O" 
			},
			{
				"x": 0.7103852348,
				"y": 0.4163272696,
				"z": -0.2801742694,
				"element": "C" 
			},
			{
				"x": 1.2646294239,
				"y": -0.4510485439,
				"z": -1.2075955341,
				"element": "N" 
			},
			{
				"x": 1.6386994445,
				"y": 0.0561474761,
				"z": -2.538021022,
				"element": "C" 
			},
			{
				"x": 2.7041769676,
				"y": -0.864409725,
				"z": -3.1577182916,
				"element": "C" 
			},
			{
				"x": 2.1503065672,
				"y": -2.2451044038,
				"z": -3.5512208885,
				"element": "C" 
			},
			{
				"x": 0.9262768649,
				"y": -2.1143982053,
				"z": -4.4709905245,
				"element": "C" 
			},
			{
				"x": -0.1538355346,
				"y": -1.2234098122,
				"z": -3.837562904,
				"element": "C" 
			},
			{
				"x": 0.4048548847,
				"y": 0.1550235325,
				"z": -3.4577276646,
				"element": "C" 
			},
			{
				"x": 0.6074747063,
				"y": -0.1157647471,
				"z": 0.9973301996,
				"element": "N" 
			},
			{
				"x": -0.1567238063,
				"y": 0.6016154296,
				"z": 2.0217536488,
				"element": "C" 
			},
			{
				"x": 0.3636644046,
				"y": 0.256922825,
				"z": 3.4426227684,
				"element": "C" 
			},
			{
				"x": -0.5058738117,
				"y": -0.7995930319,
				"z": 4.1387758233,
				"element": "C" 
			},
			{
				"x": -1.9497088788,
				"y": -0.2844027694,
				"z": 4.3485726232,
				"element": "C" 
			},
			{
				"x": -2.4005748284,
				"y": 0.667763719,
				"z": 3.2121340101,
				"element": "C" 
			},
			{
				"x": -1.678482327,
				"y": 0.3435601161,
				"z": 1.898172784,
				"element": "C" 
			},
			{
				"x": 1.8546778621,
				"y": -1.1807936443,
				"z": -0.8312631157,
				"element": "H" 
			},
			{
				"x": 2.055065666,
				"y": 1.0633124632,
				"z": -2.4139727449,
				"element": "H" 
			},
			{
				"x": 3.5557021067,
				"y": -0.9666840568,
				"z": -2.4714082998,
				"element": "H" 
			},
			{
				"x": 3.0916622731,
				"y": -0.3663432718,
				"z": -4.0554204545,
				"element": "H" 
			},
			{
				"x": 2.9370523311,
				"y": -2.8331235434,
				"z": -4.0388239587,
				"element": "H" 
			},
			{
				"x": 1.8635079326,
				"y": -2.8046920384,
				"z": -2.6497741454,
				"element": "H" 
			},
			{
				"x": 0.5198364392,
				"y": -3.1064312838,
				"z": -4.7022723968,
				"element": "H" 
			},
			{
				"x": 1.2424949694,
				"y": -1.6758095052,
				"z": -5.4286257735,
				"element": "H" 
			},
			{
				"x": -1.0012672436,
				"y": -1.1075201097,
				"z": -4.5235420379,
				"element": "H" 
			},
			{
				"x": -0.5444493713,
				"y": -1.7126573066,
				"z": -2.935875721,
				"element": "H" 
			},
			{
				"x": -0.3522184235,
				"y": 0.7680469804,
				"z": -2.9613444121,
				"element": "H" 
			},
			{
				"x": 0.7057614808,
				"y": 0.6937920974,
				"z": -4.3672338922,
				"element": "H" 
			},
			{
				"x": 0.5697343809,
				"y": -1.1260363261,
				"z": 1.052973664,
				"element": "H" 
			},
			{
				"x": 0.0300272772,
				"y": 1.6582373773,
				"z": 1.8165042304,
				"element": "H" 
			},
			{
				"x": 1.4071322996,
				"y": -0.0679194843,
				"z": 3.3726335796,
				"element": "H" 
			},
			{
				"x": 0.3658150531,
				"y": 1.16845317,
				"z": 4.0530907035,
				"element": "H" 
			},
			{
				"x": -0.5237380185,
				"y": -1.7140736631,
				"z": 3.5302335134,
				"element": "H" 
			},
			{
				"x": -0.0626700334,
				"y": -1.0887845977,
				"z": 5.0981464402,
				"element": "H" 
			},
			{
				"x": -2.6326092228,
				"y": -1.1398302507,
				"z": 4.4135487041,
				"element": "H" 
			},
			{
				"x": -2.0203569328,
				"y": 0.236879797,
				"z": 5.3106074863,
				"element": "H" 
			},
			{
				"x": -2.1826434229,
				"y": 1.7081634957,
				"z": 3.4866454983,
				"element": "H" 
			},
			{
				"x": -3.486468624,
				"y": 0.6125312121,
				"z": 3.0793012058,
				"element": "H" 
			},
			{
				"x": -2.0718896346,
				"y": 0.9305669198,
				"z": 1.0627035606,
				"element": "H" 
			},
			{
				"x": -1.8466106122,
				"y": -0.7128297789,
				"z": 1.6440048851,
				"element": "H" 
			}
		],
		 "valence_orbital": [ 
			{
				"type": "occ",
				"energy": -0.29842,
				"method": "rhf"
			},
			{
				"type": "occ",
				"energy": -0.2957,
				"method": "rhf"
			},
			{
				"type": "occ",
				"energy": -0.25376,
				"method": "rhf"
			},
			{
				"type": "occ",
				"energy": -0.24083,
				"method": "rhf"
			},
			{
				"type": "occ",
				"energy": -0.23089,
				"method": "rhf"
			},
			{
				"type": "unocc",
				"energy": 0.06026,
				"method": "rhf"
			},
			{
				"type": "unocc",
				"energy": 0.06486,
				"method": "rhf"
			},
			{
				"type": "unocc",
				"energy": 0.07969,
				"method": "rhf"
			},
			{
				"type": "unocc",
				"energy": 0.08977,
				"method": "rhf"
			},
			{
				"type": "unocc",
				"energy": 0.10412,
				"method": "rhf"
			}
		],
		"cosmo_sigma_profile": { 
			"-0.025": 0.0,
			"-0.024": 0.0,
			"-0.023": 0.0,
			"-0.022": 0.0,
			"-0.021": 0.0,
			"-0.02": 0.0,
			"-0.019": 0.0,
			"-0.018": 0.0,
			"-0.017": 0.0,
			"-0.016": 0.0,
			"-0.015": 0.0,
			"-0.014": 0.1036588461,
			"-0.013": 2.08494295731,
			"-0.012": 2.1942845713,
			"-0.011": 1.5250262402,
			"-0.01": 1.31688554688,
			"-0.009": 2.97335257437,
			"-0.008": 2.05657497108,
			"-0.007": 3.31861814109,
			"-0.006": 2.22786238054,
			"-0.005": 3.05756567886,
			"-0.004": 3.7739999092,
			"-0.003": 14.7562648121,
			"-0.002": 47.2788860482,
			"-0.001": 51.2932040484,
			"0.0": 54.9036437236,
			"0.001": 46.1856204898,
			"0.002": 15.6835236578,
			"0.003": 5.30321601499,
			"0.004": 4.98932881019,
			"0.005": 4.46565880221,
			"0.006": 3.92618739644,
			"0.007": 3.20426670156,
			"0.008": 2.36617406764,
			"0.009": 1.88854977715,
			"0.01": 1.50281458705,
			"0.011": 1.62799245894,
			"0.012": 1.62317714067,
			"0.013": 1.41241338182,
			"0.014": 2.39547367911,
			"0.015": 4.30126185775,
			"0.016": 0.0871354836534,
			"0.017": 0.0,
			"0.018": 0.0,
			"0.019": 0.0,
			"0.02": 0.0,
			"0.021": 0.0,
			"0.022": 0.0,
			"0.023": 0.0,
			"0.024": 0.0,
			"0.025": 0.0
		}
	}
}
