{
	 "smiles": "OC(=O)CCCC1=CC=C(Cl)C=C1", 
	 "Tm": 332.15, 
	 "num_atms": 24, 
	 "gaussian": { 
		 "optdone": 1, 
		 "sigma_profile": "yes", 
		 "theory": "DFT", 
		 "functional": "B3LYP", 
		 "basiset": "6-31G**", 
		 "properties": { 
			 "R2extent": 4243.8887, 
			 "electric_dipole_moment_norm": 3.17678308986, 
			 "electric_quadrupole_moment_norm": 16.7812645236, 
			 "total_energy": -998.353941312, 
			 "HOMO_LUMO_gap": 0.22449, 
			 "cosmo_polarized_energy": -15.18, 
			 "cosmo_cavitation_energy": 29.77, 
			 "cosmo_dispersion_energy": -20.98, 
			 "cosmo_repulsion_energy": 1.69, 
			 "cosmo_total_nonelectrostatic_energy": 10.47, 
			 "SMD_solvation_energy": 5.47 
		},
		"coords": [
			{
				"x": -2.1027348567,
				"y": 2.6453744235,
				"z": 1.2170339833,
				"element": "O" 
			},
			{
				"x": -1.9951159793,
				"y": 1.9251465916,
				"z": 0.0672907664,
				"element": "C" 
			},
			{
				"x": -2.1911432245,
				"y": 2.4609531254,
				"z": -0.9956534913,
				"element": "O" 
			},
			{
				"x": -1.637412208,
				"y": 0.4551610978,
				"z": 0.2534920763,
				"element": "C" 
			},
			{
				"x": -1.4189165083,
				"y": -0.2965201633,
				"z": -1.0634230926,
				"element": "C" 
			},
			{
				"x": -0.1599175012,
				"y": 0.1373081441,
				"z": -1.8475144799,
				"element": "C" 
			},
			{
				"x": 1.1375164739,
				"y": -0.0770118617,
				"z": -1.0964071944,
				"element": "C" 
			},
			{
				"x": 1.8334984472,
				"y": 0.9987725559,
				"z": -0.5287349535,
				"element": "C" 
			},
			{
				"x": 3.0187879607,
				"y": 0.8065320607,
				"z": 0.1841435502,
				"element": "C" 
			},
			{
				"x": 3.5178709656,
				"y": -0.4855355122,
				"z": 0.3313580423,
				"element": "C" 
			},
			{
				"x": 5.0108572108,
				"y": -0.7437417438,
				"z": 1.2260780867,
				"element": "Cl" 
			},
			{
				"x": 2.8530012422,
				"y": -1.5785509771,
				"z": -0.2249810464,
				"element": "C" 
			},
			{
				"x": 1.6711174281,
				"y": -1.3642605554,
				"z": -0.9322281434,
				"element": "C" 
			},
			{
				"x": -1.9141501723,
				"y": 2.0833588511,
				"z": 1.9821906221,
				"element": "H" 
			},
			{
				"x": -0.7439031024,
				"y": 0.3891640094,
				"z": 0.8887453871,
				"element": "H" 
			},
			{
				"x": -2.4531189224,
				"y": -0.0116426655,
				"z": 0.8229576119,
				"element": "H" 
			},
			{
				"x": -2.2948530972,
				"y": -0.1481773033,
				"z": -1.7030237173,
				"element": "H" 
			},
			{
				"x": -1.3584033327,
				"y": -1.368281653,
				"z": -0.840634769,
				"element": "H" 
			},
			{
				"x": -0.1356925535,
				"y": -0.4305775862,
				"z": -2.785460921,
				"element": "H" 
			},
			{
				"x": -0.2648972413,
				"y": 1.1908860574,
				"z": -2.1200349496,
				"element": "H" 
			},
			{
				"x": 1.4496704475,
				"y": 2.0083449437,
				"z": -0.6525483558,
				"element": "H" 
			},
			{
				"x": 3.5500592562,
				"y": 1.6482163285,
				"z": 0.6149254036,
				"element": "H" 
			},
			{
				"x": 3.2587402639,
				"y": -2.577714636,
				"z": -0.1095030832,
				"element": "H" 
			},
			{
				"x": 1.1592390036,
				"y": -2.2171035317,
				"z": -1.3717673328,
				"element": "H" 
			}
		],
		 "valence_orbital": [ 
			{
				"type": "occ",
				"energy": -0.31901,
				"method": "rhf"
			},
			{
				"type": "occ",
				"energy": -0.31303,
				"method": "rhf"
			},
			{
				"type": "occ",
				"energy": -0.27557,
				"method": "rhf"
			},
			{
				"type": "occ",
				"energy": -0.26571,
				"method": "rhf"
			},
			{
				"type": "occ",
				"energy": -0.24277,
				"method": "rhf"
			},
			{
				"type": "unocc",
				"energy": -0.01828,
				"method": "rhf"
			},
			{
				"type": "unocc",
				"energy": -0.01486,
				"method": "rhf"
			},
			{
				"type": "unocc",
				"energy": 0.00544,
				"method": "rhf"
			},
			{
				"type": "unocc",
				"energy": 0.02813,
				"method": "rhf"
			},
			{
				"type": "unocc",
				"energy": 0.05184,
				"method": "rhf"
			}
		],
		"cosmo_sigma_profile": { 
			"-0.025": 0.0,
			"-0.024": 0.0,
			"-0.023": 0.0,
			"-0.022": 0.0,
			"-0.021": 0.0,
			"-0.02": 0.0,
			"-0.019": 0.36083944376,
			"-0.018": 1.12005801856,
			"-0.017": 1.00715354997,
			"-0.016": 1.00492518946,
			"-0.015": 1.24893173739,
			"-0.014": 1.44841430044,
			"-0.013": 0.622363417985,
			"-0.012": 0.94904181663,
			"-0.011": 1.41110588334,
			"-0.01": 1.02201938204,
			"-0.009": 1.12690826507,
			"-0.008": 1.77135700861,
			"-0.007": 5.24475876102,
			"-0.006": 9.10161892699,
			"-0.005": 14.3084990186,
			"-0.004": 18.4604624368,
			"-0.003": 19.4465416004,
			"-0.002": 18.8556580488,
			"-0.001": 16.3469486558,
			"0.0": 16.1704773922,
			"0.001": 12.3110959649,
			"0.002": 17.0421027269,
			"0.003": 16.5569705574,
			"0.004": 19.3249673942,
			"0.005": 13.1829106908,
			"0.006": 3.49270031139,
			"0.007": 2.38132946853,
			"0.008": 2.38752977785,
			"0.009": 3.16651327819,
			"0.01": 4.2608995818,
			"0.011": 5.46720626928,
			"0.012": 4.8362821467,
			"0.013": 2.11387636526,
			"0.014": 0.153935462918,
			"0.015": 0.0,
			"0.016": 0.0,
			"0.017": 0.0,
			"0.018": 0.0,
			"0.019": 0.0,
			"0.02": 0.0,
			"0.021": 0.0,
			"0.022": 0.0,
			"0.023": 0.0,
			"0.024": 0.0,
			"0.025": 0.0
		}
	}
}
