{
	 "smiles": "CC(O)(C1=CC=C(O)C=C1)C(F)(F)F", 
	 "Tm": 392.15, 
	 "num_atms": 23, 
	 "gaussian": { 
		 "optdone": 1, 
		 "sigma_profile": "yes", 
		 "theory": "DFT", 
		 "functional": "B3LYP", 
		 "basiset": "6-31G**", 
		 "properties": { 
			 "R2extent": 3295.3932, 
			 "electric_dipole_moment_norm": 1.7809069768, 
			 "electric_quadrupole_moment_norm": 11.1764132279, 
			 "total_energy": -798.353202476, 
			 "HOMO_LUMO_gap": 0.21789, 
			 "cosmo_polarized_energy": -11.46, 
			 "cosmo_cavitation_energy": 27.38, 
			 "cosmo_dispersion_energy": -19.48, 
			 "cosmo_repulsion_energy": 1.47, 
			 "cosmo_total_nonelectrostatic_energy": 9.37, 
			 "SMD_solvation_energy": 6.25 
		},
		"coords": [
			{
				"x": -0.9921881997,
				"y": 2.3876933758,
				"z": 0.6457489361,
				"element": "C" 
			},
			{
				"x": -0.4014066816,
				"y": 1.8378492977,
				"z": -0.6637459891,
				"element": "C" 
			},
			{
				"x": -1.3506839718,
				"y": 1.9598617342,
				"z": -1.7150794286,
				"element": "O" 
			},
			{
				"x": -0.0145460289,
				"y": 0.3657382124,
				"z": -0.5492454866,
				"element": "C" 
			},
			{
				"x": 0.856891659,
				"y": -0.0792723417,
				"z": 0.4568801509,
				"element": "C" 
			},
			{
				"x": 1.2006206494,
				"y": -1.4218619529,
				"z": 0.5703941368,
				"element": "C" 
			},
			{
				"x": 0.6711433938,
				"y": -2.3543815814,
				"z": -0.3283992401,
				"element": "C" 
			},
			{
				"x": 1.0359441093,
				"y": -3.6606618188,
				"z": -0.1701055148,
				"element": "O" 
			},
			{
				"x": -0.1954064452,
				"y": -1.9246518775,
				"z": -1.3371607446,
				"element": "C" 
			},
			{
				"x": -0.5298047903,
				"y": -0.5752529826,
				"z": -1.4454804453,
				"element": "C" 
			},
			{
				"x": 0.8223793133,
				"y": 2.6883499242,
				"z": -1.0741377992,
				"element": "C" 
			},
			{
				"x": 1.4317999312,
				"y": 2.2193640828,
				"z": -2.1711274308,
				"element": "F" 
			},
			{
				"x": 1.7426828735,
				"y": 2.7724280645,
				"z": -0.0882626349,
				"element": "F" 
			},
			{
				"x": 0.421895867,
				"y": 3.9622465226,
				"z": -1.3505313733,
				"element": "F" 
			},
			{
				"x": -1.2434024229,
				"y": 3.4476562201,
				"z": 0.5355811081,
				"element": "H" 
			},
			{
				"x": -1.9025134172,
				"y": 1.8300302816,
				"z": 0.8745667024,
				"element": "H" 
			},
			{
				"x": -0.2990830134,
				"y": 2.2900668908,
				"z": 1.4834006682,
				"element": "H" 
			},
			{
				"x": -1.5402082922,
				"y": 2.9014245115,
				"z": -1.8255665395,
				"element": "H" 
			},
			{
				"x": 1.2894838067,
				"y": 0.6280875139,
				"z": 1.1562523894,
				"element": "H" 
			},
			{
				"x": 1.8764820145,
				"y": -1.7645513369,
				"z": 1.3467217982,
				"element": "H" 
			},
			{
				"x": 0.6091500368,
				"y": -4.1930056886,
				"z": -0.8539669822,
				"element": "H" 
			},
			{
				"x": -0.6096011601,
				"y": -2.6432241155,
				"z": -2.0417741383,
				"element": "H" 
			},
			{
				"x": -1.199829231,
				"y": -0.2477329362,
				"z": -2.2304621429,
				"element": "H" 
			}
		],
		 "valence_orbital": [ 
			{
				"type": "occ",
				"energy": -0.33241,
				"method": "rhf"
			},
			{
				"type": "occ",
				"energy": -0.33148,
				"method": "rhf"
			},
			{
				"type": "occ",
				"energy": -0.29164,
				"method": "rhf"
			},
			{
				"type": "occ",
				"energy": -0.25315,
				"method": "rhf"
			},
			{
				"type": "occ",
				"energy": -0.22202,
				"method": "rhf"
			},
			{
				"type": "unocc",
				"energy": -0.00413,
				"method": "rhf"
			},
			{
				"type": "unocc",
				"energy": 0.00677,
				"method": "rhf"
			},
			{
				"type": "unocc",
				"energy": 0.06895,
				"method": "rhf"
			},
			{
				"type": "unocc",
				"energy": 0.0753,
				"method": "rhf"
			},
			{
				"type": "unocc",
				"energy": 0.10077,
				"method": "rhf"
			}
		],
		"cosmo_sigma_profile": { 
			"-0.025": 0.0,
			"-0.024": 0.0,
			"-0.023": 0.0,
			"-0.022": 0.0,
			"-0.021": 0.0,
			"-0.02": 0.0,
			"-0.019": 0.0,
			"-0.018": 0.384250720628,
			"-0.017": 1.22570688931,
			"-0.016": 1.25605939836,
			"-0.015": 1.65256456228,
			"-0.014": 1.82617899557,
			"-0.013": 1.55410321963,
			"-0.012": 1.71273258959,
			"-0.011": 2.27837036748,
			"-0.01": 1.58192189499,
			"-0.009": 1.85703728341,
			"-0.008": 2.24124371826,
			"-0.007": 2.80620046949,
			"-0.006": 7.09708055673,
			"-0.005": 10.9050512813,
			"-0.004": 11.7171829969,
			"-0.003": 11.6750917587,
			"-0.002": 11.2812810074,
			"-0.001": 13.3440719253,
			"0.0": 13.5782259736,
			"0.001": 12.5998913296,
			"0.002": 23.9886279166,
			"0.003": 30.7170226731,
			"0.004": 17.0129788755,
			"0.005": 13.1388325814,
			"0.006": 5.34482023598,
			"0.007": 2.8801917195,
			"0.008": 2.28973056973,
			"0.009": 3.77056546314,
			"0.01": 2.21379064687,
			"0.011": 2.52703161115,
			"0.012": 0.517578625459,
			"0.013": 0.0,
			"0.014": 0.0,
			"0.015": 0.0,
			"0.016": 0.0,
			"0.017": 0.0,
			"0.018": 0.0,
			"0.019": 0.0,
			"0.02": 0.0,
			"0.021": 0.0,
			"0.022": 0.0,
			"0.023": 0.0,
			"0.024": 0.0,
			"0.025": 0.0
		}
	}
}
