{
	 "smiles": "CC(C)(C)CC(=O)NC1=CC=C(CC(O)=O)C=C1", 
	 "Tm": 453.15, 
	 "num_atms": 37, 
	 "gaussian": { 
		 "optdone": 1, 
		 "sigma_profile": "yes", 
		 "theory": "DFT", 
		 "functional": "B3LYP", 
		 "basiset": "6-31G**", 
		 "properties": { 
			 "R2extent": 8466.3437, 
			 "electric_dipole_moment_norm": 3.29549679715, 
			 "electric_quadrupole_moment_norm": 11.2456741159, 
			 "total_energy": -825.413309594, 
			 "HOMO_LUMO_gap": 0.20228, 
			 "cosmo_polarized_energy": -16.27, 
			 "cosmo_cavitation_energy": 39.71, 
			 "cosmo_dispersion_energy": -27.5, 
			 "cosmo_repulsion_energy": 2.15, 
			 "cosmo_total_nonelectrostatic_energy": 14.36, 
			 "SMD_solvation_energy": 8.35 
		},
		"coords": [
			{
				"x": -1.8202823001,
				"y": 0.7168829019,
				"z": 3.3356866963,
				"element": "C" 
			},
			{
				"x": -2.432673701,
				"y": 0.8218992134,
				"z": 1.9254659241,
				"element": "C" 
			},
			{
				"x": -3.0764810286,
				"y": -0.5301058288,
				"z": 1.5546894341,
				"element": "C" 
			},
			{
				"x": -3.5192144284,
				"y": 1.9149648001,
				"z": 1.8995934382,
				"element": "C" 
			},
			{
				"x": -1.3297194127,
				"y": 1.1032057653,
				"z": 0.8693334624,
				"element": "C" 
			},
			{
				"x": -0.4475931034,
				"y": 2.3207072975,
				"z": 1.1151851529,
				"element": "C" 
			},
			{
				"x": -0.7849567698,
				"y": 3.2844411235,
				"z": 1.7930843369,
				"element": "O" 
			},
			{
				"x": 0.8196151395,
				"y": 2.3342103866,
				"z": 0.5481712949,
				"element": "N" 
			},
			{
				"x": 1.5353094175,
				"y": 1.3955239757,
				"z": -0.2287995509,
				"element": "C" 
			},
			{
				"x": 2.9046690706,
				"y": 1.2212801949,
				"z": 0.0328735376,
				"element": "C" 
			},
			{
				"x": 3.6682942804,
				"y": 0.3424154528,
				"z": -0.7266620865,
				"element": "C" 
			},
			{
				"x": 3.0863008768,
				"y": -0.4013487651,
				"z": -1.7630874531,
				"element": "C" 
			},
			{
				"x": 3.9143197207,
				"y": -1.3823811276,
				"z": -2.578266834,
				"element": "C" 
			},
			{
				"x": 5.0643158321,
				"y": -0.6873472266,
				"z": -3.2863252818,
				"element": "C" 
			},
			{
				"x": 4.825743315,
				"y": -0.5228227716,
				"z": -4.607443478,
				"element": "O" 
			},
			{
				"x": 6.0783124509,
				"y": -0.2975664994,
				"z": -2.749266806,
				"element": "O" 
			},
			{
				"x": 1.7270367042,
				"y": -0.2160535181,
				"z": -2.0287150087,
				"element": "C" 
			},
			{
				"x": 0.9575869336,
				"y": 0.6793647835,
				"z": -1.2851092231,
				"element": "C" 
			},
			{
				"x": -1.3807961285,
				"y": 1.6676885491,
				"z": 3.6454976674,
				"element": "H" 
			},
			{
				"x": -1.0409839032,
				"y": -0.0542328035,
				"z": 3.3726136492,
				"element": "H" 
			},
			{
				"x": -2.590141912,
				"y": 0.4429598113,
				"z": 4.0655477238,
				"element": "H" 
			},
			{
				"x": -3.5076526365,
				"y": -0.5051835417,
				"z": 0.5468498366,
				"element": "H" 
			},
			{
				"x": -2.3457524146,
				"y": -1.3468087552,
				"z": 1.587575451,
				"element": "H" 
			},
			{
				"x": -3.8828705931,
				"y": -0.7756797868,
				"z": 2.2542329792,
				"element": "H" 
			},
			{
				"x": -3.9842067029,
				"y": 1.9804206801,
				"z": 0.9081424274,
				"element": "H" 
			},
			{
				"x": -4.3110697897,
				"y": 1.6793761652,
				"z": 2.6198858023,
				"element": "H" 
			},
			{
				"x": -3.0976368786,
				"y": 2.8901520382,
				"z": 2.1458505188,
				"element": "H" 
			},
			{
				"x": -0.6905544912,
				"y": 0.2187943357,
				"z": 0.7690804597,
				"element": "H" 
			},
			{
				"x": -1.8120367564,
				"y": 1.2375060119,
				"z": -0.1090916769,
				"element": "H" 
			},
			{
				"x": 1.3453367003,
				"y": 3.1374669355,
				"z": 0.8727931502,
				"element": "H" 
			},
			{
				"x": 3.3651641998,
				"y": 1.7756740049,
				"z": 0.8462848025,
				"element": "H" 
			},
			{
				"x": 4.7281299812,
				"y": 0.2301515125,
				"z": -0.5199351574,
				"element": "H" 
			},
			{
				"x": 4.361028009,
				"y": -2.1354697834,
				"z": -1.9199994687,
				"element": "H" 
			},
			{
				"x": 3.2859818693,
				"y": -1.8930150332,
				"z": -3.3105777823,
				"element": "H" 
			},
			{
				"x": 5.5960570094,
				"y": -0.0489233545,
				"z": -4.9654612071,
				"element": "H" 
			},
			{
				"x": 1.2584248094,
				"y": -0.7643012425,
				"z": -2.8417369928,
				"element": "H" 
			},
			{
				"x": -0.0823033688,
				"y": 0.8349540985,
				"z": -1.5455597385,
				"element": "H" 
			}
		],
		 "valence_orbital": [ 
			{
				"type": "occ",
				"energy": -0.29881,
				"method": "rhf"
			},
			{
				"type": "occ",
				"energy": -0.28058,
				"method": "rhf"
			},
			{
				"type": "occ",
				"energy": -0.2632,
				"method": "rhf"
			},
			{
				"type": "occ",
				"energy": -0.2517,
				"method": "rhf"
			},
			{
				"type": "occ",
				"energy": -0.22643,
				"method": "rhf"
			},
			{
				"type": "unocc",
				"energy": -0.02415,
				"method": "rhf"
			},
			{
				"type": "unocc",
				"energy": -0.01567,
				"method": "rhf"
			},
			{
				"type": "unocc",
				"energy": 0.00523,
				"method": "rhf"
			},
			{
				"type": "unocc",
				"energy": 0.03079,
				"method": "rhf"
			},
			{
				"type": "unocc",
				"energy": 0.07302,
				"method": "rhf"
			}
		],
		"cosmo_sigma_profile": { 
			"-0.025": 0.0,
			"-0.024": 0.0,
			"-0.023": 0.0,
			"-0.022": 0.0,
			"-0.021": 0.0,
			"-0.02": 0.0,
			"-0.019": 0.0,
			"-0.018": 0.632509129292,
			"-0.017": 1.17941864089,
			"-0.016": 0.834792733453,
			"-0.015": 0.506077689025,
			"-0.014": 1.1351232885,
			"-0.013": 2.06551650768,
			"-0.012": 1.84212330073,
			"-0.011": 1.3604272334,
			"-0.01": 2.01229488197,
			"-0.009": 2.07905798513,
			"-0.008": 1.97497613205,
			"-0.007": 6.56634753525,
			"-0.006": 13.3938011579,
			"-0.005": 14.3325580052,
			"-0.004": 16.4686917954,
			"-0.003": 23.2956738021,
			"-0.002": 32.9158999335,
			"-0.001": 25.6079022609,
			"0.0": 25.4046898966,
			"0.001": 31.366917689,
			"0.002": 29.4554622127,
			"0.003": 14.6971709598,
			"0.004": 13.8297349909,
			"0.005": 10.8348288505,
			"0.006": 3.40004963552,
			"0.007": 4.32905834585,
			"0.008": 4.79551457333,
			"0.009": 5.52478777196,
			"0.01": 2.64626453748,
			"0.011": 5.92373053848,
			"0.012": 5.28168970298,
			"0.013": 3.37832939261,
			"0.014": 1.94221208672,
			"0.015": 0.00322102615177,
			"0.016": 0.0,
			"0.017": 0.0,
			"0.018": 0.0,
			"0.019": 0.0,
			"0.02": 0.0,
			"0.021": 0.0,
			"0.022": 0.0,
			"0.023": 0.0,
			"0.024": 0.0,
			"0.025": 0.0
		}
	}
}
