{
	 "smiles": "CCOC1=CC=C(C=CC)C=C1O", 
	 "Tm": 360.15, 
	 "num_atms": 27, 
	 "gaussian": { 
		 "optdone": 1, 
		 "sigma_profile": "yes", 
		 "theory": "DFT", 
		 "functional": "B3LYP", 
		 "basiset": "6-31G**", 
		 "properties": { 
			 "R2extent": 4256.5137, 
			 "electric_dipole_moment_norm": 2.02999188422, 
			 "electric_quadrupole_moment_norm": 10.305906131, 
			 "total_energy": -578.032576087, 
			 "HOMO_LUMO_gap": 0.17775, 
			 "cosmo_polarized_energy": -10.55, 
			 "cosmo_cavitation_energy": 30.58, 
			 "cosmo_dispersion_energy": -22.25, 
			 "cosmo_repulsion_energy": 1.8, 
			 "cosmo_total_nonelectrostatic_energy": 10.13, 
			 "SMD_solvation_energy": 6.11 
		},
		"coords": [
			{
				"x": -0.6018237969,
				"y": 0.3269731631,
				"z": -5.8493454399,
				"element": "C" 
			},
			{
				"x": -0.4433282764,
				"y": 0.5809067957,
				"z": -4.3610777714,
				"element": "C" 
			},
			{
				"x": -0.3980015049,
				"y": -0.7006683715,
				"z": -3.7082274344,
				"element": "O" 
			},
			{
				"x": -0.2970963495,
				"y": -0.6893834574,
				"z": -2.3404191643,
				"element": "C" 
			},
			{
				"x": -1.3353593289,
				"y": -1.2303946718,
				"z": -1.5789063855,
				"element": "C" 
			},
			{
				"x": -1.2586767077,
				"y": -1.3056013759,
				"z": -0.1915092969,
				"element": "C" 
			},
			{
				"x": -0.1267174124,
				"y": -0.8234147033,
				"z": 0.4877567904,
				"element": "C" 
			},
			{
				"x": 0.0265866908,
				"y": -0.8602279532,
				"z": 1.9498835596,
				"element": "C" 
			},
			{
				"x": -0.8305643596,
				"y": -1.3616757629,
				"z": 2.8516061643,
				"element": "C" 
			},
			{
				"x": -0.60094651,
				"y": -1.3611167555,
				"z": 4.3338383463,
				"element": "C" 
			},
			{
				"x": 0.9154010056,
				"y": -0.2791789544,
				"z": -0.2834499643,
				"element": "C" 
			},
			{
				"x": 0.8491796678,
				"y": -0.2151679057,
				"z": -1.6748028061,
				"element": "C" 
			},
			{
				"x": 1.8698399494,
				"y": 0.2879414632,
				"z": -2.4374470552,
				"element": "O" 
			},
			{
				"x": -0.6508905175,
				"y": 1.2768413691,
				"z": -6.3913797848,
				"element": "H" 
			},
			{
				"x": -1.517286213,
				"y": -0.2366992779,
				"z": -6.0515133138,
				"element": "H" 
			},
			{
				"x": 0.2467830496,
				"y": -0.247245924,
				"z": -6.2321213422,
				"element": "H" 
			},
			{
				"x": -1.2938029877,
				"y": 1.1558222747,
				"z": -3.9671411123,
				"element": "H" 
			},
			{
				"x": 0.4747151897,
				"y": 1.1400952576,
				"z": -4.1525239302,
				"element": "H" 
			},
			{
				"x": -2.2065074369,
				"y": -1.6004508197,
				"z": -2.110594135,
				"element": "H" 
			},
			{
				"x": -2.0881359211,
				"y": -1.7335197502,
				"z": 0.361468751,
				"element": "H" 
			},
			{
				"x": 0.9549448497,
				"y": -0.4248819148,
				"z": 2.3225691988,
				"element": "H" 
			},
			{
				"x": -1.76625303,
				"y": -1.808420242,
				"z": 2.5168997764,
				"element": "H" 
			},
			{
				"x": -1.3949816891,
				"y": -0.8151550315,
				"z": 4.8601645422,
				"element": "H" 
			},
			{
				"x": -0.6062481438,
				"y": -2.3817691595,
				"z": 4.7385052394,
				"element": "H" 
			},
			{
				"x": 0.3565329383,
				"y": -0.8990916188,
				"z": 4.5933649734,
				"element": "H" 
			},
			{
				"x": 1.8080413477,
				"y": 0.0940682382,
				"z": 0.2174080384,
				"element": "H" 
			},
			{
				"x": 2.5880954967,
				"y": 0.5608150885,
				"z": -1.8521064439,
				"element": "H" 
			}
		],
		 "valence_orbital": [ 
			{
				"type": "occ",
				"energy": -0.32744,
				"method": "rhf"
			},
			{
				"type": "occ",
				"energy": -0.27781,
				"method": "rhf"
			},
			{
				"type": "occ",
				"energy": -0.26037,
				"method": "rhf"
			},
			{
				"type": "occ",
				"energy": -0.23,
				"method": "rhf"
			},
			{
				"type": "occ",
				"energy": -0.19889,
				"method": "rhf"
			},
			{
				"type": "unocc",
				"energy": -0.02114,
				"method": "rhf"
			},
			{
				"type": "unocc",
				"energy": 0.01087,
				"method": "rhf"
			},
			{
				"type": "unocc",
				"energy": 0.06694,
				"method": "rhf"
			},
			{
				"type": "unocc",
				"energy": 0.07269,
				"method": "rhf"
			},
			{
				"type": "unocc",
				"energy": 0.09907,
				"method": "rhf"
			}
		],
		"cosmo_sigma_profile": { 
			"-0.025": 0.0,
			"-0.024": 0.0,
			"-0.023": 0.0,
			"-0.022": 0.0,
			"-0.021": 0.0,
			"-0.02": 0.0,
			"-0.019": 0.0,
			"-0.018": 0.39672861189,
			"-0.017": 1.21245976837,
			"-0.016": 0.642023416073,
			"-0.015": 1.0399200749,
			"-0.014": 1.16135352695,
			"-0.013": 1.12517694843,
			"-0.012": 1.0234711773,
			"-0.011": 1.34250009849,
			"-0.01": 0.406401125246,
			"-0.009": 0.840162927933,
			"-0.008": 1.4762629066,
			"-0.007": 1.31162743684,
			"-0.006": 5.74705780311,
			"-0.005": 8.42437884593,
			"-0.004": 17.121907015,
			"-0.003": 25.7867566733,
			"-0.002": 23.6564140973,
			"-0.001": 22.8732812529,
			"0.0": 25.355128651,
			"0.001": 17.3164409159,
			"0.002": 11.1208445479,
			"0.003": 12.6188138436,
			"0.004": 15.2095993381,
			"0.005": 17.008580914,
			"0.006": 11.8613994107,
			"0.007": 3.31091399904,
			"0.008": 2.49314754168,
			"0.009": 2.70649475806,
			"0.01": 2.5470182492,
			"0.011": 2.44724158579,
			"0.012": 1.61655491456,
			"0.013": 0.0295242200628,
			"0.014": 0.0,
			"0.015": 0.0,
			"0.016": 0.0,
			"0.017": 0.0,
			"0.018": 0.0,
			"0.019": 0.0,
			"0.02": 0.0,
			"0.021": 0.0,
			"0.022": 0.0,
			"0.023": 0.0,
			"0.024": 0.0,
			"0.025": 0.0
		}
	}
}
