{
	 "smiles": "COC1=C(OC)C=C2C(=S)NCCC2=C1", 
	 "Tm": 497.15, 
	 "num_atms": 28, 
	 "gaussian": { 
		 "optdone": 1, 
		 "sigma_profile": "yes", 
		 "theory": "DFT", 
		 "functional": "B3LYP", 
		 "basiset": "6-31G**", 
		 "properties": { 
			 "R2extent": 4281.5208, 
			 "electric_dipole_moment_norm": 5.12675440118, 
			 "electric_quadrupole_moment_norm": 21.6262318394, 
			 "total_energy": -1030.37771384, 
			 "HOMO_LUMO_gap": 0.14378, 
			 "cosmo_polarized_energy": -16.31, 
			 "cosmo_cavitation_energy": 32.14, 
			 "cosmo_dispersion_energy": -23.87, 
			 "cosmo_repulsion_energy": 1.84, 
			 "cosmo_total_nonelectrostatic_energy": 10.11, 
			 "SMD_solvation_energy": 4.87 
		},
		"coords": [
			{
				"x": -1.1131496686,
				"y": 4.1362196619,
				"z": -0.2389580941,
				"element": "C" 
			},
			{
				"x": -1.313278932,
				"y": 3.112889203,
				"z": -1.2259267654,
				"element": "O" 
			},
			{
				"x": -0.6844692454,
				"y": 1.9194205939,
				"z": -0.9803911641,
				"element": "C" 
			},
			{
				"x": 0.7213879398,
				"y": 1.8024745473,
				"z": -0.9521473358,
				"element": "C" 
			},
			{
				"x": 1.5317879434,
				"y": 2.9036797699,
				"z": -1.1217455597,
				"element": "O" 
			},
			{
				"x": 1.5869719294,
				"y": 3.3973545948,
				"z": -2.4656130322,
				"element": "C" 
			},
			{
				"x": 1.3012011618,
				"y": 0.5623398881,
				"z": -0.7193833564,
				"element": "C" 
			},
			{
				"x": 0.5147383555,
				"y": -0.5848369086,
				"z": -0.534155168,
				"element": "C" 
			},
			{
				"x": 1.1545421799,
				"y": -1.9004789545,
				"z": -0.2745729344,
				"element": "C" 
			},
			{
				"x": 2.7633359985,
				"y": -2.0982303904,
				"z": 0.1521637066,
				"element": "S" 
			},
			{
				"x": 0.3389545982,
				"y": -2.9754431521,
				"z": -0.3860142329,
				"element": "N" 
			},
			{
				"x": -1.0173274239,
				"y": -2.9341766391,
				"z": -0.9253517184,
				"element": "C" 
			},
			{
				"x": -1.7403872411,
				"y": -1.7055289179,
				"z": -0.3814371764,
				"element": "C" 
			},
			{
				"x": -0.8916525981,
				"y": -0.4738809949,
				"z": -0.5974205168,
				"element": "C" 
			},
			{
				"x": -1.4691589186,
				"y": 0.7778331383,
				"z": -0.8105978356,
				"element": "C" 
			},
			{
				"x": -1.6587592842,
				"y": 5.0109219202,
				"z": -0.5975049602,
				"element": "H" 
			},
			{
				"x": -0.053512667,
				"y": 4.3773277469,
				"z": -0.1220463846,
				"element": "H" 
			},
			{
				"x": -1.5267947684,
				"y": 3.8219544599,
				"z": 0.7270717703,
				"element": "H" 
			},
			{
				"x": 2.2560046647,
				"y": 4.2599259003,
				"z": -2.4478452348,
				"element": "H" 
			},
			{
				"x": 0.5970295489,
				"y": 3.7052265003,
				"z": -2.8188647943,
				"element": "H" 
			},
			{
				"x": 1.995248912,
				"y": 2.6361868408,
				"z": -3.1418668465,
				"element": "H" 
			},
			{
				"x": 2.3816184393,
				"y": 0.4795771607,
				"z": -0.6811255481,
				"element": "H" 
			},
			{
				"x": 0.7929961792,
				"y": -3.87034695,
				"z": -0.2595063084,
				"element": "H" 
			},
			{
				"x": -1.5279881673,
				"y": -3.8552469167,
				"z": -0.6313674289,
				"element": "H" 
			},
			{
				"x": -0.9919059967,
				"y": -2.9016963081,
				"z": -2.0251549598,
				"element": "H" 
			},
			{
				"x": -1.9295505589,
				"y": -1.845576322,
				"z": 0.6919863835,
				"element": "H" 
			},
			{
				"x": -2.7140019814,
				"y": -1.5965127516,
				"z": -0.8695460729,
				"element": "H" 
			},
			{
				"x": -2.5485803991,
				"y": 0.8928232794,
				"z": -0.8484784318,
				"element": "H" 
			}
		],
		 "valence_orbital": [ 
			{
				"type": "occ",
				"energy": -0.2705,
				"method": "rhf"
			},
			{
				"type": "occ",
				"energy": -0.25195,
				"method": "rhf"
			},
			{
				"type": "occ",
				"energy": -0.23503,
				"method": "rhf"
			},
			{
				"type": "occ",
				"energy": -0.2142,
				"method": "rhf"
			},
			{
				"type": "occ",
				"energy": -0.20075,
				"method": "rhf"
			},
			{
				"type": "unocc",
				"energy": -0.05697,
				"method": "rhf"
			},
			{
				"type": "unocc",
				"energy": -0.00839,
				"method": "rhf"
			},
			{
				"type": "unocc",
				"energy": 0.03319,
				"method": "rhf"
			},
			{
				"type": "unocc",
				"energy": 0.06996,
				"method": "rhf"
			},
			{
				"type": "unocc",
				"energy": 0.08593,
				"method": "rhf"
			}
		],
		"cosmo_sigma_profile": { 
			"-0.025": 0.0,
			"-0.024": 0.0,
			"-0.023": 0.0,
			"-0.022": 0.0,
			"-0.021": 0.0,
			"-0.02": 0.0,
			"-0.019": 0.0,
			"-0.018": 0.0,
			"-0.017": 0.0,
			"-0.016": 0.0,
			"-0.015": 0.244645487255,
			"-0.014": 1.52011307483,
			"-0.013": 0.579162263479,
			"-0.012": 1.05900664765,
			"-0.011": 1.00649501285,
			"-0.01": 1.40810291331,
			"-0.009": 1.06852370197,
			"-0.008": 1.00709383909,
			"-0.007": 3.2994071309,
			"-0.006": 11.0796482992,
			"-0.005": 20.8699380129,
			"-0.004": 28.6651564778,
			"-0.003": 29.8288677602,
			"-0.002": 24.1782853536,
			"-0.001": 17.1074660589,
			"0.0": 12.0878986133,
			"0.001": 11.4037608777,
			"0.002": 16.8087843932,
			"0.003": 14.9447277876,
			"0.004": 6.94186531933,
			"0.005": 6.96955158354,
			"0.006": 6.36417596066,
			"0.007": 6.65342165519,
			"0.008": 6.0059674309,
			"0.009": 7.38662234119,
			"0.01": 9.71344013657,
			"0.011": 6.60094524115,
			"0.012": 2.31339559874,
			"0.013": 0.054416902982,
			"0.014": 0.0,
			"0.015": 0.0,
			"0.016": 0.0,
			"0.017": 0.0,
			"0.018": 0.0,
			"0.019": 0.0,
			"0.02": 0.0,
			"0.021": 0.0,
			"0.022": 0.0,
			"0.023": 0.0,
			"0.024": 0.0,
			"0.025": 0.0
		}
	}
}
