{
	 "smiles": "CCOC(=O)C1=C(N)SC=C1C1=CC=CC=C1", 
	 "Tm": 365.15, 
	 "num_atms": 30, 
	 "gaussian": { 
		 "optdone": 1, 
		 "sigma_profile": "yes", 
		 "theory": "DFT", 
		 "functional": "B3LYP", 
		 "basiset": "6-31G**", 
		 "properties": { 
			 "R2extent": 5388.2815, 
			 "electric_dipole_moment_norm": 0.360842832823, 
			 "electric_quadrupole_moment_norm": 10.4728949193, 
			 "total_energy": -1106.6188907, 
			 "HOMO_LUMO_gap": 0.17993, 
			 "cosmo_polarized_energy": -11.03, 
			 "cosmo_cavitation_energy": 35.41, 
			 "cosmo_dispersion_energy": -25.06, 
			 "cosmo_repulsion_energy": 1.93, 
			 "cosmo_total_nonelectrostatic_energy": 12.27, 
			 "SMD_solvation_energy": 6.51 
		},
		"coords": [
			{
				"x": 0.630208461,
				"y": -1.1599883849,
				"z": 3.2957178497,
				"element": "C" 
			},
			{
				"x": -0.7971348313,
				"y": -0.6481078395,
				"z": 3.2396246731,
				"element": "C" 
			},
			{
				"x": -1.0337967378,
				"y": -0.1827339603,
				"z": 1.8933394657,
				"element": "O" 
			},
			{
				"x": -2.2327834032,
				"y": 0.3876654859,
				"z": 1.6618106253,
				"element": "C" 
			},
			{
				"x": -3.0726545074,
				"y": 0.5147174457,
				"z": 2.5553004863,
				"element": "O" 
			},
			{
				"x": -2.4211418634,
				"y": 0.8517829827,
				"z": 0.2886274154,
				"element": "C" 
			},
			{
				"x": -3.5360696555,
				"y": 1.6464691414,
				"z": -0.000636511,
				"element": "C" 
			},
			{
				"x": -4.5021387357,
				"y": 2.0465281868,
				"z": 0.8631479273,
				"element": "N" 
			},
			{
				"x": -3.5179560159,
				"y": 2.2049628653,
				"z": -1.6568804189,
				"element": "S" 
			},
			{
				"x": -2.0192378272,
				"y": 1.3520590343,
				"z": -1.9646345848,
				"element": "C" 
			},
			{
				"x": -1.5560189729,
				"y": 0.6815730542,
				"z": -0.8714747805,
				"element": "C" 
			},
			{
				"x": -0.3354333145,
				"y": -0.1605158281,
				"z": -0.9793849434,
				"element": "C" 
			},
			{
				"x": 0.8578089349,
				"y": 0.3936125574,
				"z": -1.4657610429,
				"element": "C" 
			},
			{
				"x": 1.9920858297,
				"y": -0.3996806271,
				"z": -1.6492684684,
				"element": "C" 
			},
			{
				"x": 1.9497288863,
				"y": -1.7616782586,
				"z": -1.3521751704,
				"element": "C" 
			},
			{
				"x": 0.7646106662,
				"y": -2.3255447674,
				"z": -0.8704518292,
				"element": "C" 
			},
			{
				"x": -0.3661460102,
				"y": -1.5333435126,
				"z": -0.6848767415,
				"element": "C" 
			},
			{
				"x": 0.7847238234,
				"y": -1.9674301412,
				"z": 2.5749168632,
				"element": "H" 
			},
			{
				"x": 1.3398696038,
				"y": -0.3599347767,
				"z": 3.0670864434,
				"element": "H" 
			},
			{
				"x": 0.8486897523,
				"y": -1.5404281768,
				"z": 4.2986269339,
				"element": "H" 
			},
			{
				"x": -1.5245898478,
				"y": -1.4314325465,
				"z": 3.4779865607,
				"element": "H" 
			},
			{
				"x": -0.9669421013,
				"y": 0.1778436841,
				"z": 3.9370702719,
				"element": "H" 
			},
			{
				"x": -4.4768549745,
				"y": 1.5784007767,
				"z": 1.7650727474,
				"element": "H" 
			},
			{
				"x": -5.3682922284,
				"y": 2.4224804809,
				"z": 0.51382838,
				"element": "H" 
			},
			{
				"x": -1.6093497032,
				"y": 1.3442736053,
				"z": -2.9638679938,
				"element": "H" 
			},
			{
				"x": 0.8939762821,
				"y": 1.4561348994,
				"z": -1.6875420816,
				"element": "H" 
			},
			{
				"x": 2.9086157166,
				"y": 0.049614583,
				"z": -2.021533879,
				"element": "H" 
			},
			{
				"x": 2.8307980514,
				"y": -2.3808914213,
				"z": -1.4949438304,
				"element": "H" 
			},
			{
				"x": 0.7197834384,
				"y": -3.3878690435,
				"z": -0.6461890919,
				"element": "H" 
			},
			{
				"x": -1.2854587158,
				"y": -1.9783394986,
				"z": -0.3177352758,
				"element": "H" 
			}
		],
		 "valence_orbital": [ 
			{
				"type": "occ",
				"energy": -0.26902,
				"method": "rhf"
			},
			{
				"type": "occ",
				"energy": -0.26033,
				"method": "rhf"
			},
			{
				"type": "occ",
				"energy": -0.24454,
				"method": "rhf"
			},
			{
				"type": "occ",
				"energy": -0.23291,
				"method": "rhf"
			},
			{
				"type": "occ",
				"energy": -0.19575,
				"method": "rhf"
			},
			{
				"type": "unocc",
				"energy": -0.01582,
				"method": "rhf"
			},
			{
				"type": "unocc",
				"energy": -0.01219,
				"method": "rhf"
			},
			{
				"type": "unocc",
				"energy": 0.00433,
				"method": "rhf"
			},
			{
				"type": "unocc",
				"energy": 0.0115,
				"method": "rhf"
			},
			{
				"type": "unocc",
				"energy": 0.0342,
				"method": "rhf"
			}
		],
		"cosmo_sigma_profile": { 
			"-0.025": 0.0,
			"-0.024": 0.0,
			"-0.023": 0.0,
			"-0.022": 0.0,
			"-0.021": 0.0,
			"-0.02": 0.0,
			"-0.019": 0.0,
			"-0.018": 0.0,
			"-0.017": 0.0,
			"-0.016": 0.0,
			"-0.015": 0.762164526469,
			"-0.014": 1.17925393063,
			"-0.013": 1.4078556153,
			"-0.012": 1.37734849022,
			"-0.011": 1.53840715708,
			"-0.01": 1.41530983113,
			"-0.009": 2.12808641414,
			"-0.008": 2.91217294178,
			"-0.007": 3.35458623008,
			"-0.006": 5.28853362707,
			"-0.005": 17.066852867,
			"-0.004": 23.2727156606,
			"-0.003": 24.7971198245,
			"-0.002": 22.5098627908,
			"-0.001": 23.8559906739,
			"0.0": 21.2293671076,
			"0.001": 19.9970022653,
			"0.002": 23.1721640297,
			"0.003": 23.4961553243,
			"0.004": 22.3663591094,
			"0.005": 14.1413046057,
			"0.006": 9.90817680744,
			"0.007": 4.31777148771,
			"0.008": 4.03899010092,
			"0.009": 1.70713225971,
			"0.01": 2.06763725204,
			"0.011": 1.99177187262,
			"0.012": 1.86771203894,
			"0.013": 0.908160868832,
			"0.014": 0.0,
			"0.015": 0.0,
			"0.016": 0.0,
			"0.017": 0.0,
			"0.018": 0.0,
			"0.019": 0.0,
			"0.02": 0.0,
			"0.021": 0.0,
			"0.022": 0.0,
			"0.023": 0.0,
			"0.024": 0.0,
			"0.025": 0.0
		}
	}
}
