{
	 "smiles": "O=C(CC1=CC=CC=C1)C(N1CCCCC1)C1=CC=CC=C1", 
	 "Tm": 410.15, 
	 "num_atms": 45, 
	 "gaussian": { 
		 "optdone": 1, 
		 "sigma_profile": "yes", 
		 "theory": "DFT", 
		 "functional": "B3LYP", 
		 "basiset": "6-31G**", 
		 "properties": { 
			 "R2extent": 7804.0091, 
			 "electric_dipole_moment_norm": 2.38274975606, 
			 "electric_quadrupole_moment_norm": 9.98353849594, 
			 "total_energy": -905.95783991, 
			 "HOMO_LUMO_gap": 0.17273, 
			 "cosmo_polarized_energy": -10.9, 
			 "cosmo_cavitation_energy": 45.87, 
			 "cosmo_dispersion_energy": -30.18, 
			 "cosmo_repulsion_energy": 2.34, 
			 "cosmo_total_nonelectrostatic_energy": 18.02, 
			 "SMD_solvation_energy": 6.22 
		},
		"coords": [
			{
				"x": 1.7320240057,
				"y": 1.2452567479,
				"z": 0.8569023796,
				"element": "O" 
			},
			{
				"x": 1.5827748369,
				"y": 0.480380431,
				"z": -0.0752397827,
				"element": "C" 
			},
			{
				"x": 2.5858907213,
				"y": -0.6437680604,
				"z": -0.3462780636,
				"element": "C" 
			},
			{
				"x": 2.1647050092,
				"y": -1.9209468802,
				"z": 0.3639827943,
				"element": "C" 
			},
			{
				"x": 2.1020808724,
				"y": -1.9594985123,
				"z": 1.7649149955,
				"element": "C" 
			},
			{
				"x": 1.7151457515,
				"y": -3.1248763234,
				"z": 2.4255192497,
				"element": "C" 
			},
			{
				"x": 1.382112546,
				"y": -4.2695540042,
				"z": 1.6967559444,
				"element": "C" 
			},
			{
				"x": 1.4381302697,
				"y": -4.2398202321,
				"z": 0.3030255278,
				"element": "C" 
			},
			{
				"x": 1.8246823873,
				"y": -3.0716802964,
				"z": -0.3576340945,
				"element": "C" 
			},
			{
				"x": 0.3973858838,
				"y": 0.5809995422,
				"z": -1.0622242411,
				"element": "C" 
			},
			{
				"x": -0.7645705812,
				"y": 1.2323755383,
				"z": -0.4741980478,
				"element": "N" 
			},
			{
				"x": -1.8804796859,
				"y": 1.4025595947,
				"z": -1.4123647047,
				"element": "C" 
			},
			{
				"x": -2.8509200872,
				"y": 2.4757201203,
				"z": -0.8766976631,
				"element": "C" 
			},
			{
				"x": -2.8991600191,
				"y": 2.4599220623,
				"z": 0.6662997725,
				"element": "C" 
			},
			{
				"x": -2.6339024614,
				"y": 1.0390221093,
				"z": 1.1725499613,
				"element": "C" 
			},
			{
				"x": -1.2200596839,
				"y": 0.5710061053,
				"z": 0.7662401518,
				"element": "C" 
			},
			{
				"x": 0.9450676044,
				"y": 1.3488176143,
				"z": -2.2666060629,
				"element": "C" 
			},
			{
				"x": 1.1440467128,
				"y": 0.7198286047,
				"z": -3.5007220864,
				"element": "C" 
			},
			{
				"x": 1.673960204,
				"y": 1.4284483995,
				"z": -4.581846932,
				"element": "C" 
			},
			{
				"x": 2.0089108623,
				"y": 2.7750921238,
				"z": -4.436905681,
				"element": "C" 
			},
			{
				"x": 1.8125075445,
				"y": 3.4097825865,
				"z": -3.2068891568,
				"element": "C" 
			},
			{
				"x": 1.288169965,
				"y": 2.7016902436,
				"z": -2.1268281151,
				"element": "C" 
			},
			{
				"x": 3.5562899168,
				"y": -0.3023837006,
				"z": 0.0267443751,
				"element": "H" 
			},
			{
				"x": 2.6714762387,
				"y": -0.8239670502,
				"z": -1.4218569519,
				"element": "H" 
			},
			{
				"x": 2.3538339206,
				"y": -1.0671947355,
				"z": 2.3313093435,
				"element": "H" 
			},
			{
				"x": 1.6741667724,
				"y": -3.139923528,
				"z": 3.5110587901,
				"element": "H" 
			},
			{
				"x": 1.0828371437,
				"y": -5.1775699675,
				"z": 2.2122631827,
				"element": "H" 
			},
			{
				"x": 1.1827815098,
				"y": -5.1252468165,
				"z": -0.2724400969,
				"element": "H" 
			},
			{
				"x": 1.871757476,
				"y": -3.0565997682,
				"z": -1.4438241211,
				"element": "H" 
			},
			{
				"x": 0.1708264196,
				"y": -0.4546792618,
				"z": -1.3899255322,
				"element": "H" 
			},
			{
				"x": -2.4136550838,
				"y": 0.4457751743,
				"z": -1.5774716392,
				"element": "H" 
			},
			{
				"x": -1.4879922159,
				"y": 1.7074351555,
				"z": -2.3843850359,
				"element": "H" 
			},
			{
				"x": -3.8481068604,
				"y": 2.2893746399,
				"z": -1.2941742033,
				"element": "H" 
			},
			{
				"x": -2.5385101616,
				"y": 3.4649805944,
				"z": -1.2282225495,
				"element": "H" 
			},
			{
				"x": -2.1317267579,
				"y": 3.1310182476,
				"z": 1.0672575405,
				"element": "H" 
			},
			{
				"x": -3.8658871318,
				"y": 2.8290547706,
				"z": 1.026293092,
				"element": "H" 
			},
			{
				"x": -3.3925000018,
				"y": 0.3634997074,
				"z": 0.7571545115,
				"element": "H" 
			},
			{
				"x": -2.7320835001,
				"y": 0.9791039749,
				"z": 2.2617920692,
				"element": "H" 
			},
			{
				"x": -1.2183218757,
				"y": -0.5301327972,
				"z": 0.6517331641,
				"element": "H" 
			},
			{
				"x": -0.5062187101,
				"y": 0.8175901941,
				"z": 1.5548459302,
				"element": "H" 
			},
			{
				"x": 0.8708941461,
				"y": -0.3259766654,
				"z": -3.6201764722,
				"element": "H" 
			},
			{
				"x": 1.8180719789,
				"y": 0.9295149558,
				"z": -5.5360433742,
				"element": "H" 
			},
			{
				"x": 2.4189975464,
				"y": 3.3283223305,
				"z": -5.2769973715,
				"element": "H" 
			},
			{
				"x": 2.072991393,
				"y": 4.4578462769,
				"z": -3.0886180569,
				"element": "H" 
			},
			{
				"x": 1.1335751791,
				"y": 3.1827007544,
				"z": -1.1662727394,
				"element": "H" 
			}
		],
		 "valence_orbital": [ 
			{
				"type": "occ",
				"energy": -0.25322,
				"method": "rhf"
			},
			{
				"type": "occ",
				"energy": -0.25131,
				"method": "rhf"
			},
			{
				"type": "occ",
				"energy": -0.24847,
				"method": "rhf"
			},
			{
				"type": "occ",
				"energy": -0.22983,
				"method": "rhf"
			},
			{
				"type": "occ",
				"energy": -0.20564,
				"method": "rhf"
			},
			{
				"type": "unocc",
				"energy": -0.03291,
				"method": "rhf"
			},
			{
				"type": "unocc",
				"energy": -0.00693,
				"method": "rhf"
			},
			{
				"type": "unocc",
				"energy": -0.00453,
				"method": "rhf"
			},
			{
				"type": "unocc",
				"energy": -0.00261,
				"method": "rhf"
			},
			{
				"type": "unocc",
				"energy": 0.01899,
				"method": "rhf"
			}
		],
		"cosmo_sigma_profile": { 
			"-0.025": 0.0,
			"-0.024": 0.0,
			"-0.023": 0.0,
			"-0.022": 0.0,
			"-0.021": 0.0,
			"-0.02": 0.0,
			"-0.019": 0.0,
			"-0.018": 0.0,
			"-0.017": 0.0,
			"-0.016": 0.0,
			"-0.015": 0.0,
			"-0.014": 0.0,
			"-0.013": 0.0,
			"-0.012": 0.0,
			"-0.011": 0.0,
			"-0.01": 0.0,
			"-0.009": 0.0,
			"-0.008": 0.0,
			"-0.007": 0.0305136278059,
			"-0.006": 12.1535537432,
			"-0.005": 23.5117222751,
			"-0.004": 26.4173081622,
			"-0.003": 31.5705822449,
			"-0.002": 42.8541986148,
			"-0.001": 49.0776303069,
			"0.0": 41.6352913349,
			"0.001": 31.3181155169,
			"0.002": 19.6714913889,
			"0.003": 18.2673673661,
			"0.004": 18.0056210965,
			"0.005": 18.5756980163,
			"0.006": 10.5930681599,
			"0.007": 1.79705052676,
			"0.008": 2.0847166364,
			"0.009": 2.40843992953,
			"0.01": 2.13667553747,
			"0.011": 3.34331361135,
			"0.012": 3.33181217294,
			"0.013": 1.23181136817,
			"0.014": 0.562288224359,
			"0.015": 0.161413438589,
			"0.016": 0.0,
			"0.017": 0.0,
			"0.018": 0.0,
			"0.019": 0.0,
			"0.02": 0.0,
			"0.021": 0.0,
			"0.022": 0.0,
			"0.023": 0.0,
			"0.024": 0.0,
			"0.025": 0.0
		}
	}
}
