{
	 "smiles": "CC1=C(Br)C(C(O)=O)=C(C)O1", 
	 "Tm": 463.15, 
	 "num_atms": 18, 
	 "gaussian": { 
		 "optdone": 1, 
		 "sigma_profile": "yes", 
		 "theory": "DFT", 
		 "functional": "B3LYP", 
		 "basiset": "6-31G**", 
		 "properties": { 
			 "R2extent": 2647.6632, 
			 "electric_dipole_moment_norm": 3.16609037458, 
			 "electric_quadrupole_moment_norm": 9.81943639472, 
			 "total_energy": -3068.0415687, 
			 "HOMO_LUMO_gap": 0.19259, 
			 "cosmo_polarized_energy": -10.26, 
			 "cosmo_cavitation_energy": 24.9, 
			 "cosmo_dispersion_energy": -18.55, 
			 "cosmo_repulsion_energy": 1.51, 
			 "cosmo_total_nonelectrostatic_energy": 7.86, 
			 "SMD_solvation_energy": 5.12 
		},
		"coords": [
			{
				"x": -3.0423106177,
				"y": 0.0422269739,
				"z": -1.1662362336,
				"element": "C" 
			},
			{
				"x": -1.6879593722,
				"y": 0.0632087648,
				"z": -0.5500452691,
				"element": "C" 
			},
			{
				"x": -0.5120500229,
				"y": -0.5593836592,
				"z": -0.830237961,
				"element": "C" 
			},
			{
				"x": -0.2768159354,
				"y": -1.7609068262,
				"z": -2.2564292928,
				"element": "Br" 
			},
			{
				"x": 0.4576100032,
				"y": -0.124234121,
				"z": 0.1455291394,
				"element": "C" 
			},
			{
				"x": 1.8628802712,
				"y": -0.5307591664,
				"z": 0.2402791475,
				"element": "C" 
			},
			{
				"x": 2.5045821323,
				"y": 0.069516097,
				"z": 1.2837488174,
				"element": "O" 
			},
			{
				"x": 2.4313787151,
				"y": -1.3067276592,
				"z": -0.4993480812,
				"element": "O" 
			},
			{
				"x": -0.2144580192,
				"y": 0.7524390437,
				"z": 0.9682749441,
				"element": "C" 
			},
			{
				"x": 0.1602434443,
				"y": 1.5624183065,
				"z": 2.1618679222,
				"element": "C" 
			},
			{
				"x": -1.5025054729,
				"y": 0.8659919304,
				"z": 0.5520170903,
				"element": "O" 
			},
			{
				"x": -3.0098432538,
				"y": 0.3733317725,
				"z": -2.2096175256,
				"element": "H" 
			},
			{
				"x": -3.4681805902,
				"y": -0.9666677031,
				"z": -1.1565286945,
				"element": "H" 
			},
			{
				"x": -3.7096893198,
				"y": 0.7058446026,
				"z": -0.6122824177,
				"element": "H" 
			},
			{
				"x": 3.415120485,
				"y": -0.2677716944,
				"z": 1.2513072036,
				"element": "H" 
			},
			{
				"x": 0.9704565194,
				"y": 2.2591606822,
				"z": 1.9285275148,
				"element": "H" 
			},
			{
				"x": -0.7105339594,
				"y": 2.1270557514,
				"z": 2.5016391551,
				"element": "H" 
			},
			{
				"x": 0.5144749929,
				"y": 0.9249569046,
				"z": 2.9770345409,
				"element": "H" 
			}
		],
		 "valence_orbital": [ 
			{
				"type": "occ",
				"energy": -0.31503,
				"method": "rhf"
			},
			{
				"type": "occ",
				"energy": -0.29105,
				"method": "rhf"
			},
			{
				"type": "occ",
				"energy": -0.26757,
				"method": "rhf"
			},
			{
				"type": "occ",
				"energy": -0.26601,
				"method": "rhf"
			},
			{
				"type": "occ",
				"energy": -0.22329,
				"method": "rhf"
			},
			{
				"type": "unocc",
				"energy": -0.0307,
				"method": "rhf"
			},
			{
				"type": "unocc",
				"energy": 0.01559,
				"method": "rhf"
			},
			{
				"type": "unocc",
				"energy": 0.01897,
				"method": "rhf"
			},
			{
				"type": "unocc",
				"energy": 0.07858,
				"method": "rhf"
			},
			{
				"type": "unocc",
				"energy": 0.10488,
				"method": "rhf"
			}
		],
		"cosmo_sigma_profile": { 
			"-0.025": 0.0,
			"-0.024": 0.0,
			"-0.023": 0.0,
			"-0.022": 0.0,
			"-0.021": 0.0,
			"-0.02": 0.0,
			"-0.019": 0.0,
			"-0.018": 0.752222921803,
			"-0.017": 0.786812061756,
			"-0.016": 1.20298386096,
			"-0.015": 0.28434979913,
			"-0.014": 0.313661125114,
			"-0.013": 0.852616028162,
			"-0.012": 0.979693133076,
			"-0.011": 0.875061283142,
			"-0.01": 0.424726244271,
			"-0.009": 0.424076038248,
			"-0.008": 0.505675366957,
			"-0.007": 1.27359223964,
			"-0.006": 5.6470544667,
			"-0.005": 12.0422981317,
			"-0.004": 13.1405345461,
			"-0.003": 14.5336740057,
			"-0.002": 24.9984850059,
			"-0.001": 23.4228932877,
			"0.0": 16.3800891456,
			"0.001": 14.4720803466,
			"0.002": 13.5697452638,
			"0.003": 11.7638810212,
			"0.004": 11.8605268219,
			"0.005": 7.97719034188,
			"0.006": 5.25101767727,
			"0.007": 2.0998715709,
			"0.008": 1.51224787569,
			"0.009": 2.15258114663,
			"0.01": 2.09495065432,
			"0.011": 3.56952383035,
			"0.012": 5.63433474146,
			"0.013": 0.361260468301,
			"0.014": 0.0,
			"0.015": 0.0,
			"0.016": 0.0,
			"0.017": 0.0,
			"0.018": 0.0,
			"0.019": 0.0,
			"0.02": 0.0,
			"0.021": 0.0,
			"0.022": 0.0,
			"0.023": 0.0,
			"0.024": 0.0,
			"0.025": 0.0
		}
	}
}
