{
	 "smiles": "NC(=O)NC1=CN=CC=C1", 
	 "Tm": 463.15, 
	 "num_atms": 17, 
	 "gaussian": { 
		 "optdone": 1, 
		 "sigma_profile": "yes", 
		 "theory": "DFT", 
		 "functional": "B3LYP", 
		 "basiset": "6-31G**", 
		 "properties": { 
			 "R2extent": 1674.1484, 
			 "electric_dipole_moment_norm": 2.96941055093, 
			 "electric_quadrupole_moment_norm": 13.843324886, 
			 "total_energy": -472.352668552, 
			 "HOMO_LUMO_gap": 0.19983, 
			 "cosmo_polarized_energy": -16.0, 
			 "cosmo_cavitation_energy": 21.43, 
			 "cosmo_dispersion_energy": -16.11, 
			 "cosmo_repulsion_energy": 1.32, 
			 "cosmo_total_nonelectrostatic_energy": 6.63, 
			 "SMD_solvation_energy": 3.45 
		},
		"coords": [
			{
				"x": -2.5146816136,
				"y": 1.424779822,
				"z": 0.3452521129,
				"element": "N" 
			},
			{
				"x": -2.5970285074,
				"y": 0.1792256887,
				"z": 0.9413194692,
				"element": "C" 
			},
			{
				"x": -3.5656449938,
				"y": -0.1872923758,
				"z": 1.5888094527,
				"element": "O" 
			},
			{
				"x": -1.493055872,
				"y": -0.6564131022,
				"z": 0.7856474204,
				"element": "N" 
			},
			{
				"x": -0.2294296462,
				"y": -0.4348648201,
				"z": 0.2159326707,
				"element": "C" 
			},
			{
				"x": 0.4497528619,
				"y": -1.52593766,
				"z": -0.3591198154,
				"element": "C" 
			},
			{
				"x": 1.6658842371,
				"y": -1.4510432762,
				"z": -0.8957499558,
				"element": "N" 
			},
			{
				"x": 2.2741143672,
				"y": -0.2570980999,
				"z": -0.9006930512,
				"element": "C" 
			},
			{
				"x": 1.6957077097,
				"y": 0.8868967564,
				"z": -0.3523977139,
				"element": "C" 
			},
			{
				"x": 0.4314226438,
				"y": 0.8021826671,
				"z": 0.2276884311,
				"element": "C" 
			},
			{
				"x": -1.9637854511,
				"y": 1.5208515287,
				"z": -0.4967642849,
				"element": "H" 
			},
			{
				"x": -3.407527165,
				"y": 1.8971066919,
				"z": 0.3304945269,
				"element": "H" 
			},
			{
				"x": -1.6875861707,
				"y": -1.5859441804,
				"z": 1.1315942658,
				"element": "H" 
			},
			{
				"x": -0.0301509188,
				"y": -2.5050132538,
				"z": -0.372019194,
				"element": "H" 
			},
			{
				"x": 3.2607038624,
				"y": -0.2184718787,
				"z": -1.357073482,
				"element": "H" 
			},
			{
				"x": 2.2329696206,
				"y": 1.8303264464,
				"z": -0.3599556602,
				"element": "H" 
			},
			{
				"x": -0.0253649641,
				"y": 1.6657090459,
				"z": 0.6976348077,
				"element": "H" 
			}
		],
		 "valence_orbital": [ 
			{
				"type": "occ",
				"energy": -0.28927,
				"method": "rhf"
			},
			{
				"type": "occ",
				"energy": -0.28477,
				"method": "rhf"
			},
			{
				"type": "occ",
				"energy": -0.26841,
				"method": "rhf"
			},
			{
				"type": "occ",
				"energy": -0.25918,
				"method": "rhf"
			},
			{
				"type": "occ",
				"energy": -0.23392,
				"method": "rhf"
			},
			{
				"type": "unocc",
				"energy": -0.03409,
				"method": "rhf"
			},
			{
				"type": "unocc",
				"energy": -0.02093,
				"method": "rhf"
			},
			{
				"type": "unocc",
				"energy": 0.05248,
				"method": "rhf"
			},
			{
				"type": "unocc",
				"energy": 0.0817,
				"method": "rhf"
			},
			{
				"type": "unocc",
				"energy": 0.09353,
				"method": "rhf"
			}
		],
		"cosmo_sigma_profile": { 
			"-0.025": 0.0,
			"-0.024": 0.0,
			"-0.023": 0.0,
			"-0.022": 0.0,
			"-0.021": 0.0,
			"-0.02": 0.0,
			"-0.019": 0.0,
			"-0.018": 0.0,
			"-0.017": 0.0,
			"-0.016": 0.0,
			"-0.015": 0.363214763065,
			"-0.014": 1.3817216845,
			"-0.013": 3.72648676354,
			"-0.012": 2.85218964852,
			"-0.011": 3.49509343085,
			"-0.01": 3.84356589529,
			"-0.009": 3.73403268787,
			"-0.008": 2.92030006937,
			"-0.007": 6.5683579319,
			"-0.006": 10.2877936936,
			"-0.005": 9.96983574103,
			"-0.004": 8.97634410693,
			"-0.003": 7.68126429527,
			"-0.002": 7.29110599504,
			"-0.001": 8.95655983275,
			"0.0": 10.2769926564,
			"0.001": 12.9476784301,
			"0.002": 12.8329152127,
			"0.003": 9.38172877248,
			"0.004": 5.16640082024,
			"0.005": 4.91934220335,
			"0.006": 2.98352851272,
			"0.007": 3.11695917509,
			"0.008": 3.50998774877,
			"0.009": 2.226357526,
			"0.01": 1.94210988305,
			"0.011": 2.61290594094,
			"0.012": 2.68930001657,
			"0.013": 5.17716224667,
			"0.014": 6.4626820876,
			"0.015": 1.7817328343,
			"0.016": 0.643155036436,
			"0.017": 0.213313984054,
			"0.018": 0.0,
			"0.019": 0.0,
			"0.02": 0.0,
			"0.021": 0.0,
			"0.022": 0.0,
			"0.023": 0.0,
			"0.024": 0.0,
			"0.025": 0.0
		}
	}
}
