{
	 "smiles": "COC(=O)COC1=CC=C(Br)C=C1", 
	 "Tm": 323.15, 
	 "num_atms": 22, 
	 "gaussian": { 
		 "optdone": 1, 
		 "sigma_profile": "yes", 
		 "theory": "DFT", 
		 "functional": "B3LYP", 
		 "basiset": "6-31G**", 
		 "properties": { 
			 "R2extent": 7037.8499, 
			 "electric_dipole_moment_norm": 2.00309174029, 
			 "electric_quadrupole_moment_norm": 14.253768896, 
			 "total_energy": -3145.4450731, 
			 "HOMO_LUMO_gap": 0.20587, 
			 "cosmo_polarized_energy": -10.94, 
			 "cosmo_cavitation_energy": 29.49, 
			 "cosmo_dispersion_energy": -21.98, 
			 "cosmo_repulsion_energy": 1.77, 
			 "cosmo_total_nonelectrostatic_energy": 9.28, 
			 "SMD_solvation_energy": 5.91 
		},
		"coords": [
			{
				"x": 2.8912930167,
				"y": -3.6085609894,
				"z": 1.4871529535,
				"element": "C" 
			},
			{
				"x": 2.1412352672,
				"y": -2.5931745496,
				"z": 0.7942625136,
				"element": "O" 
			},
			{
				"x": 2.658079199,
				"y": -1.3616716551,
				"z": 0.8642245154,
				"element": "C" 
			},
			{
				"x": 3.6761145883,
				"y": -1.0658618028,
				"z": 1.4515562505,
				"element": "O" 
			},
			{
				"x": 1.8446967884,
				"y": -0.3108354815,
				"z": 0.1231379201,
				"element": "C" 
			},
			{
				"x": 0.7023497448,
				"y": -0.8687681504,
				"z": -0.4885359914,
				"element": "O" 
			},
			{
				"x": -0.124144864,
				"y": -0.0381036171,
				"z": -1.1920163616,
				"element": "C" 
			},
			{
				"x": 0.0760918605,
				"y": 1.3371074887,
				"z": -1.3548130443,
				"element": "C" 
			},
			{
				"x": -0.8392589704,
				"y": 2.0889573706,
				"z": -2.0984156705,
				"element": "C" 
			},
			{
				"x": -1.942648592,
				"y": 1.4683192012,
				"z": -2.6719803388,
				"element": "C" 
			},
			{
				"x": -3.1911167283,
				"y": 2.5008131972,
				"z": -3.6879311177,
				"element": "Br" 
			},
			{
				"x": -2.1494912923,
				"y": 0.0956215123,
				"z": -2.5138324877,
				"element": "C" 
			},
			{
				"x": -1.2415465732,
				"y": -0.6530483536,
				"z": -1.7756456639,
				"element": "C" 
			},
			{
				"x": 2.9590638236,
				"y": -3.3741210242,
				"z": 2.5520782111,
				"element": "H" 
			},
			{
				"x": 3.9007854543,
				"y": -3.6853830478,
				"z": 1.0764919256,
				"element": "H" 
			},
			{
				"x": 2.3400370171,
				"y": -4.5350131742,
				"z": 1.3307619129,
				"element": "H" 
			},
			{
				"x": 2.5145177716,
				"y": 0.1533720193,
				"z": -0.6141775879,
				"element": "H" 
			},
			{
				"x": 1.5761849562,
				"y": 0.4635333124,
				"z": 0.8552743506,
				"element": "H" 
			},
			{
				"x": 0.9298727716,
				"y": 1.8390414408,
				"z": -0.915548774,
				"element": "H" 
			},
			{
				"x": -0.6854482363,
				"y": 3.1545381313,
				"z": -2.2254454688,
				"element": "H" 
			},
			{
				"x": -3.0125233941,
				"y": -0.3813818015,
				"z": -2.9641841075,
				"element": "H" 
			},
			{
				"x": -1.3784436086,
				"y": -1.7202800264,
				"z": -1.6374139394,
				"element": "H" 
			}
		],
		 "valence_orbital": [ 
			{
				"type": "occ",
				"energy": -0.29247,
				"method": "rhf"
			},
			{
				"type": "occ",
				"energy": -0.28558,
				"method": "rhf"
			},
			{
				"type": "occ",
				"energy": -0.2849,
				"method": "rhf"
			},
			{
				"type": "occ",
				"energy": -0.26687,
				"method": "rhf"
			},
			{
				"type": "occ",
				"energy": -0.22453,
				"method": "rhf"
			},
			{
				"type": "unocc",
				"energy": -0.01866,
				"method": "rhf"
			},
			{
				"type": "unocc",
				"energy": -0.00513,
				"method": "rhf"
			},
			{
				"type": "unocc",
				"energy": 0.00343,
				"method": "rhf"
			},
			{
				"type": "unocc",
				"energy": 0.00878,
				"method": "rhf"
			},
			{
				"type": "unocc",
				"energy": 0.0847,
				"method": "rhf"
			}
		],
		"cosmo_sigma_profile": { 
			"-0.025": 0.0,
			"-0.024": 0.0,
			"-0.023": 0.0,
			"-0.022": 0.0,
			"-0.021": 0.0,
			"-0.02": 0.0,
			"-0.019": 0.0,
			"-0.018": 0.0,
			"-0.017": 0.0,
			"-0.016": 0.0,
			"-0.015": 0.0,
			"-0.014": 0.0,
			"-0.013": 0.0,
			"-0.012": 0.0,
			"-0.011": 0.0,
			"-0.01": 0.0,
			"-0.009": 0.694844791556,
			"-0.008": 8.43871052151,
			"-0.007": 12.1655949923,
			"-0.006": 17.7086535879,
			"-0.005": 16.9429568178,
			"-0.004": 17.97164512,
			"-0.003": 16.1673528598,
			"-0.002": 12.6519135912,
			"-0.001": 11.2691068078,
			"0.0": 11.6383924538,
			"0.001": 13.0187615732,
			"0.002": 18.3223048895,
			"0.003": 23.4974428748,
			"0.004": 20.6746178681,
			"0.005": 12.2261179627,
			"0.006": 2.30026729443,
			"0.007": 3.07352478652,
			"0.008": 3.57323136575,
			"0.009": 2.3634878436,
			"0.01": 3.06522258529,
			"0.011": 5.55246126271,
			"0.012": 4.87871900327,
			"0.013": 0.504553033644,
			"0.014": 0.0,
			"0.015": 0.0,
			"0.016": 0.0,
			"0.017": 0.0,
			"0.018": 0.0,
			"0.019": 0.0,
			"0.02": 0.0,
			"0.021": 0.0,
			"0.022": 0.0,
			"0.023": 0.0,
			"0.024": 0.0,
			"0.025": 0.0
		}
	}
}
