{
	 "smiles": "CS(=O)(=O)NC(=O)C1=CC(OC2=C(Cl)C=C(C=C2)C(F)(F)F)=CC=C1[N+]([O-])=O", 
	 "Tm": 493.15, 
	 "num_atms": 38, 
	 "gaussian": { 
		 "optdone": 1, 
		 "sigma_profile": "yes", 
		 "theory": "DFT", 
		 "functional": "B3LYP", 
		 "basiset": "6-31G**", 
		 "properties": { 
			 "R2extent": 19026.3663, 
			 "electric_dipole_moment_norm": 1.1568165412, 
			 "electric_quadrupole_moment_norm": 15.414387561, 
			 "total_energy": -2296.19770189, 
			 "HOMO_LUMO_gap": 0.15835, 
			 "cosmo_polarized_energy": -23.67, 
			 "cosmo_cavitation_energy": 49.48, 
			 "cosmo_dispersion_energy": -33.71, 
			 "cosmo_repulsion_energy": 2.45, 
			 "cosmo_total_nonelectrostatic_energy": 18.22, 
			 "SMD_solvation_energy": 11.68 
		},
		"coords": [
			{
				"x": -1.0041358762,
				"y": 2.4889440801,
				"z": 6.7291578703,
				"element": "C" 
			},
			{
				"x": -1.8451322804,
				"y": 1.224263563,
				"z": 5.7649760951,
				"element": "S" 
			},
			{
				"x": -2.9249408633,
				"y": 0.6718770696,
				"z": 6.5767548657,
				"element": "O" 
			},
			{
				"x": -0.8449363041,
				"y": 0.3793024709,
				"z": 5.1203008808,
				"element": "O" 
			},
			{
				"x": -2.6325053079,
				"y": 2.1124916977,
				"z": 4.5319568883,
				"element": "N" 
			},
			{
				"x": -2.2333663707,
				"y": 2.4580057692,
				"z": 3.2417514997,
				"element": "C" 
			},
			{
				"x": -2.8603896657,
				"y": 3.2860972796,
				"z": 2.6125772367,
				"element": "O" 
			},
			{
				"x": -1.1529467206,
				"y": 1.6417593075,
				"z": 2.5661140329,
				"element": "C" 
			},
			{
				"x": -1.5613404614,
				"y": 0.487177744,
				"z": 1.9067024338,
				"element": "C" 
			},
			{
				"x": -0.6608325563,
				"y": -0.2345574881,
				"z": 1.1161288318,
				"element": "C" 
			},
			{
				"x": -1.1598070404,
				"y": -1.3789066972,
				"z": 0.5536361014,
				"element": "O" 
			},
			{
				"x": -0.5379764767,
				"y": -1.9726272821,
				"z": -0.5220889563,
				"element": "C" 
			},
			{
				"x": -0.156759566,
				"y": -3.3173752785,
				"z": -0.4220048082,
				"element": "C" 
			},
			{
				"x": -0.3675935396,
				"y": -4.1773028377,
				"z": 1.0790714398,
				"element": "Cl" 
			},
			{
				"x": 0.387148256,
				"y": -3.9713334314,
				"z": -1.5268015676,
				"element": "C" 
			},
			{
				"x": 0.5549831016,
				"y": -3.2813283162,
				"z": -2.727027828,
				"element": "C" 
			},
			{
				"x": 0.1729341442,
				"y": -1.9406370684,
				"z": -2.8314222748,
				"element": "C" 
			},
			{
				"x": -0.3775506079,
				"y": -1.2912439633,
				"z": -1.7319223608,
				"element": "C" 
			},
			{
				"x": 1.1997248157,
				"y": -3.968378432,
				"z": -3.9028254825,
				"element": "C" 
			},
			{
				"x": 2.5280967553,
				"y": -3.7203869828,
				"z": -3.950334203,
				"element": "F" 
			},
			{
				"x": 0.6777612845,
				"y": -3.5405714477,
				"z": -5.0723160938,
				"element": "F" 
			},
			{
				"x": 1.0468889897,
				"y": -5.3076974775,
				"z": -3.8481360089,
				"element": "F" 
			},
			{
				"x": 0.6641403679,
				"y": 0.1918948896,
				"z": 0.9642596107,
				"element": "C" 
			},
			{
				"x": 1.0741392876,
				"y": 1.3486224455,
				"z": 1.6120437866,
				"element": "C" 
			},
			{
				"x": 0.1734284556,
				"y": 2.0658897649,
				"z": 2.3994425053,
				"element": "C" 
			},
			{
				"x": 0.6617662554,
				"y": 3.2513025239,
				"z": 3.0911338377,
				"element": "N" 
			},
			{
				"x": -0.0871201926,
				"y": 3.7719550823,
				"z": 3.9295957796,
				"element": "O" 
			},
			{
				"x": 1.7840472595,
				"y": 3.6681345692,
				"z": 2.8188868014,
				"element": "O" 
			},
			{
				"x": -0.3175460944,
				"y": 3.0294296328,
				"z": 6.0782505841,
				"element": "H" 
			},
			{
				"x": -1.7527751147,
				"y": 3.1565409121,
				"z": 7.1577325262,
				"element": "H" 
			},
			{
				"x": -0.4700690618,
				"y": 1.9622658756,
				"z": 7.5226766934,
				"element": "H" 
			},
			{
				"x": -3.4613938857,
				"y": 2.6114655837,
				"z": 4.8436982174,
				"element": "H" 
			},
			{
				"x": -2.580196371,
				"y": 0.1279312041,
				"z": 1.9963729489,
				"element": "H" 
			},
			{
				"x": 0.6723344973,
				"y": -5.0131488157,
				"z": -1.4452813378,
				"element": "H" 
			},
			{
				"x": 0.2880133203,
				"y": -1.414958754,
				"z": -3.77259323,
				"element": "H" 
			},
			{
				"x": -0.6993850973,
				"y": -0.2575256438,
				"z": -1.8005969445,
				"element": "H" 
			},
			{
				"x": 1.3636067803,
				"y": -0.3763404228,
				"z": 0.3633741024,
				"element": "H" 
			},
			{
				"x": 2.0924858836,
				"y": 1.7067688742,
				"z": 1.5282555264,
				"element": "H" 
			}
		],
		 "valence_orbital": [ 
			{
				"type": "occ",
				"energy": -0.29983,
				"method": "rhf"
			},
			{
				"type": "occ",
				"energy": -0.29437,
				"method": "rhf"
			},
			{
				"type": "occ",
				"energy": -0.2798,
				"method": "rhf"
			},
			{
				"type": "occ",
				"energy": -0.27746,
				"method": "rhf"
			},
			{
				"type": "occ",
				"energy": -0.2637,
				"method": "rhf"
			},
			{
				"type": "unocc",
				"energy": -0.10535,
				"method": "rhf"
			},
			{
				"type": "unocc",
				"energy": -0.05415,
				"method": "rhf"
			},
			{
				"type": "unocc",
				"energy": -0.05069,
				"method": "rhf"
			},
			{
				"type": "unocc",
				"energy": -0.04104,
				"method": "rhf"
			},
			{
				"type": "unocc",
				"energy": -0.02097,
				"method": "rhf"
			}
		],
		"cosmo_sigma_profile": { 
			"-0.025": 0.0,
			"-0.024": 0.0,
			"-0.023": 0.0,
			"-0.022": 0.0,
			"-0.021": 0.0,
			"-0.02": 0.0,
			"-0.019": 0.0,
			"-0.018": 0.0,
			"-0.017": 0.848911757219,
			"-0.016": 1.18690542227,
			"-0.015": 1.38076536271,
			"-0.014": 0.477362936907,
			"-0.013": 1.17482439693,
			"-0.012": 1.37300619123,
			"-0.011": 1.22904344502,
			"-0.01": 2.84989785318,
			"-0.009": 9.05309126949,
			"-0.008": 14.3261667064,
			"-0.007": 16.1263522956,
			"-0.006": 18.6323939403,
			"-0.005": 19.6108461379,
			"-0.004": 19.6814669082,
			"-0.003": 19.5570328301,
			"-0.002": 23.1367674475,
			"-0.001": 29.7333749192,
			"0.0": 35.0068764662,
			"0.001": 26.7386404835,
			"0.002": 34.6553303642,
			"0.003": 33.9352310492,
			"0.004": 15.075494171,
			"0.005": 8.68017200907,
			"0.006": 10.7537188496,
			"0.007": 10.9286153391,
			"0.008": 10.2366037283,
			"0.009": 9.24466952449,
			"0.01": 14.8465709132,
			"0.011": 8.88839977843,
			"0.012": 0.89789098366,
			"0.013": 0.0,
			"0.014": 0.0,
			"0.015": 0.0,
			"0.016": 0.0,
			"0.017": 0.0,
			"0.018": 0.0,
			"0.019": 0.0,
			"0.02": 0.0,
			"0.021": 0.0,
			"0.022": 0.0,
			"0.023": 0.0,
			"0.024": 0.0,
			"0.025": 0.0
		}
	}
}
