{
	 "smiles": "CC1=C(Br)C(N)=NO1", 
	 "Tm": 347.15, 
	 "num_atms": 13, 
	 "gaussian": { 
		 "optdone": 1, 
		 "sigma_profile": "yes", 
		 "theory": "DFT", 
		 "functional": "B3LYP", 
		 "basiset": "6-31G**", 
		 "properties": { 
			 "R2extent": 2267.4919, 
			 "electric_dipole_moment_norm": 2.16314918117, 
			 "electric_quadrupole_moment_norm": 15.5467734247, 
			 "total_energy": -2911.51927186, 
			 "HOMO_LUMO_gap": 0.23134, 
			 "cosmo_polarized_energy": -10.35, 
			 "cosmo_cavitation_energy": 19.73, 
			 "cosmo_dispersion_energy": -15.12, 
			 "cosmo_repulsion_energy": 1.27, 
			 "cosmo_total_nonelectrostatic_energy": 5.89, 
			 "SMD_solvation_energy": 2.39 
		},
		"coords": [
			{
				"x": 0.2172060832,
				"y": 0.2698394411,
				"z": 1.7186729725,
				"element": "C" 
			},
			{
				"x": 0.2667595415,
				"y": 1.2645256796,
				"z": 0.6126854471,
				"element": "C" 
			},
			{
				"x": 0.9160424531,
				"y": 1.3038182761,
				"z": -0.5847858536,
				"element": "C" 
			},
			{
				"x": 2.0605733556,
				"y": 0.0083752273,
				"z": -1.3263184972,
				"element": "Br" 
			},
			{
				"x": 0.5373441097,
				"y": 2.5485956723,
				"z": -1.1759654382,
				"element": "C" 
			},
			{
				"x": 0.9937011962,
				"y": 3.0624538963,
				"z": -2.3681263878,
				"element": "N" 
			},
			{
				"x": -0.2933478474,
				"y": 3.2101484225,
				"z": -0.3930019914,
				"element": "N" 
			},
			{
				"x": -0.4547843408,
				"y": 2.391907539,
				"z": 0.7488230822,
				"element": "O" 
			},
			{
				"x": -0.1728679703,
				"y": -0.6897548464,
				"z": 1.364233652,
				"element": "H" 
			},
			{
				"x": 1.2168002892,
				"y": 0.0898282291,
				"z": 2.1270135979,
				"element": "H" 
			},
			{
				"x": -0.4285977628,
				"y": 0.6384173422,
				"z": 2.5178569488,
				"element": "H" 
			},
			{
				"x": 0.4370620366,
				"y": 3.8228641918,
				"z": -2.7341028391,
				"element": "H" 
			},
			{
				"x": 1.2440088565,
				"y": 2.3702809291,
				"z": -3.0606846931,
				"element": "H" 
			}
		],
		 "valence_orbital": [ 
			{
				"type": "occ",
				"energy": -0.32945,
				"method": "rhf"
			},
			{
				"type": "occ",
				"energy": -0.31638,
				"method": "rhf"
			},
			{
				"type": "occ",
				"energy": -0.2916,
				"method": "rhf"
			},
			{
				"type": "occ",
				"energy": -0.24209,
				"method": "rhf"
			},
			{
				"type": "occ",
				"energy": -0.23539,
				"method": "rhf"
			},
			{
				"type": "unocc",
				"energy": -0.00405,
				"method": "rhf"
			},
			{
				"type": "unocc",
				"energy": 0.00686,
				"method": "rhf"
			},
			{
				"type": "unocc",
				"energy": 0.06135,
				"method": "rhf"
			},
			{
				"type": "unocc",
				"energy": 0.07715,
				"method": "rhf"
			},
			{
				"type": "unocc",
				"energy": 0.1026,
				"method": "rhf"
			}
		],
		"cosmo_sigma_profile": { 
			"-0.025": 0.0,
			"-0.024": 0.0,
			"-0.023": 0.0,
			"-0.022": 0.0,
			"-0.021": 0.0,
			"-0.02": 0.0,
			"-0.019": 0.0,
			"-0.018": 0.0,
			"-0.017": 0.0,
			"-0.016": 0.0,
			"-0.015": 0.0,
			"-0.014": 0.715872446433,
			"-0.013": 1.96191245182,
			"-0.012": 2.3134761624,
			"-0.011": 2.45508776232,
			"-0.01": 2.62508379587,
			"-0.009": 1.44871166593,
			"-0.008": 2.31474292641,
			"-0.007": 2.78391218138,
			"-0.006": 8.64752634495,
			"-0.005": 7.81611882251,
			"-0.004": 10.0151622939,
			"-0.003": 11.7695208755,
			"-0.002": 13.9632740319,
			"-0.001": 8.95349929446,
			"0.0": 8.8412775724,
			"0.001": 13.5890743275,
			"0.002": 10.9168937918,
			"0.003": 10.7278094543,
			"0.004": 9.07088675759,
			"0.005": 3.37281250419,
			"0.006": 3.28124655682,
			"0.007": 2.59755107907,
			"0.008": 5.148319293,
			"0.009": 4.79668656215,
			"0.01": 1.98239897166,
			"0.011": 2.84514500033,
			"0.012": 1.51762120582,
			"0.013": 1.86105876742,
			"0.014": 1.37897483992,
			"0.015": 0.735948726185,
			"0.016": 0.0,
			"0.017": 0.0,
			"0.018": 0.0,
			"0.019": 0.0,
			"0.02": 0.0,
			"0.021": 0.0,
			"0.022": 0.0,
			"0.023": 0.0,
			"0.024": 0.0,
			"0.025": 0.0
		}
	}
}
