{
	 "smiles": "CSC1=NC=CN1C1=CC(=CC=C1)C(O)=O", 
	 "Tm": 499.15, 
	 "num_atms": 26, 
	 "gaussian": { 
		 "optdone": 1, 
		 "sigma_profile": "yes", 
		 "theory": "DFT", 
		 "functional": "B3LYP", 
		 "basiset": "6-31G**", 
		 "properties": { 
			 "R2extent": 4561.5969, 
			 "electric_dipole_moment_norm": 3.26733210433, 
			 "electric_quadrupole_moment_norm": 8.73602975499, 
			 "total_energy": -1083.34327029, 
			 "HOMO_LUMO_gap": 0.14116, 
			 "cosmo_polarized_energy": -14.85, 
			 "cosmo_cavitation_energy": 32.55, 
			 "cosmo_dispersion_energy": -23.61, 
			 "cosmo_repulsion_energy": 1.8, 
			 "cosmo_total_nonelectrostatic_energy": 10.73, 
			 "SMD_solvation_energy": 6.25 
		},
		"coords": [
			{
				"x": 2.8949700447,
				"y": -0.0965391133,
				"z": 3.460217211,
				"element": "C" 
			},
			{
				"x": 1.3606685937,
				"y": 0.0359371566,
				"z": 2.4795314234,
				"element": "S" 
			},
			{
				"x": 2.0435325578,
				"y": -0.310361286,
				"z": 0.8834944108,
				"element": "C" 
			},
			{
				"x": 3.2922297959,
				"y": -0.6436373669,
				"z": 0.6434942865,
				"element": "N" 
			},
			{
				"x": 3.3842304372,
				"y": -0.7647032572,
				"z": -0.7287704609,
				"element": "C" 
			},
			{
				"x": 2.1842548952,
				"y": -0.4956691338,
				"z": -1.3215000639,
				"element": "C" 
			},
			{
				"x": 1.3027557591,
				"y": -0.2060061909,
				"z": -0.2794936023,
				"element": "N" 
			},
			{
				"x": -0.0591434644,
				"y": 0.1764709875,
				"z": -0.4362933481,
				"element": "C" 
			},
			{
				"x": -1.0657494823,
				"y": -0.4672929843,
				"z": 0.2837660318,
				"element": "C" 
			},
			{
				"x": -2.3994027357,
				"y": -0.0789334887,
				"z": 0.1094279593,
				"element": "C" 
			},
			{
				"x": -2.7288268943,
				"y": 0.9357207773,
				"z": -0.7981411022,
				"element": "C" 
			},
			{
				"x": -1.7178112342,
				"y": 1.563451518,
				"z": -1.524661567,
				"element": "C" 
			},
			{
				"x": -0.3859406808,
				"y": 1.1949203261,
				"z": -1.3420020851,
				"element": "C" 
			},
			{
				"x": -3.4338824364,
				"y": -0.8000397356,
				"z": 0.9023322113,
				"element": "C" 
			},
			{
				"x": -4.6892471668,
				"y": -0.341305186,
				"z": 0.6739588056,
				"element": "O" 
			},
			{
				"x": -3.2057546946,
				"y": -1.7068774861,
				"z": 1.6767430471,
				"element": "O" 
			},
			{
				"x": 3.3248877041,
				"y": -1.0923442772,
				"z": 3.3556668091,
				"element": "H" 
			},
			{
				"x": 2.5992399956,
				"y": 0.083963862,
				"z": 4.4955769911,
				"element": "H" 
			},
			{
				"x": 3.6202074299,
				"y": 0.6499841903,
				"z": 3.1360651435,
				"element": "H" 
			},
			{
				"x": 4.3134588374,
				"y": -1.0464908864,
				"z": -1.2041056771,
				"element": "H" 
			},
			{
				"x": 1.8481389136,
				"y": -0.5183511419,
				"z": -2.3462059793,
				"element": "H" 
			},
			{
				"x": -0.8369247232,
				"y": -1.2723099508,
				"z": 0.9726456859,
				"element": "H" 
			},
			{
				"x": -3.7651318366,
				"y": 1.2237139373,
				"z": -0.9293081127,
				"element": "H" 
			},
			{
				"x": -1.9647353457,
				"y": 2.3527729027,
				"z": -2.2278130018,
				"element": "H" 
			},
			{
				"x": 0.407519047,
				"y": 1.6976221175,
				"z": -1.8855444572,
				"element": "H" 
			},
			{
				"x": -5.2729433161,
				"y": -0.8771962902,
				"z": 1.2357194412,
				"element": "H" 
			}
		],
		 "valence_orbital": [ 
			{
				"type": "occ",
				"energy": -0.27642,
				"method": "rhf"
			},
			{
				"type": "occ",
				"energy": -0.27339,
				"method": "rhf"
			},
			{
				"type": "occ",
				"energy": -0.27108,
				"method": "rhf"
			},
			{
				"type": "occ",
				"energy": -0.25219,
				"method": "rhf"
			},
			{
				"type": "occ",
				"energy": -0.2017,
				"method": "rhf"
			},
			{
				"type": "unocc",
				"energy": -0.06054,
				"method": "rhf"
			},
			{
				"type": "unocc",
				"energy": -0.02821,
				"method": "rhf"
			},
			{
				"type": "unocc",
				"energy": 0.02607,
				"method": "rhf"
			},
			{
				"type": "unocc",
				"energy": 0.03544,
				"method": "rhf"
			},
			{
				"type": "unocc",
				"energy": 0.0521,
				"method": "rhf"
			}
		],
		"cosmo_sigma_profile": { 
			"-0.025": 0.0,
			"-0.024": 0.0,
			"-0.023": 0.0,
			"-0.022": 0.0,
			"-0.021": 0.0,
			"-0.02": 0.0,
			"-0.019": 0.0704180317356,
			"-0.018": 1.21017988358,
			"-0.017": 0.603890855754,
			"-0.016": 0.962376702873,
			"-0.015": 0.501364531899,
			"-0.014": 0.466094061813,
			"-0.013": 0.480266504511,
			"-0.012": 1.08282064139,
			"-0.011": 1.41829844883,
			"-0.01": 0.446318853701,
			"-0.009": 0.914288959689,
			"-0.008": 3.46135923362,
			"-0.007": 11.647602751,
			"-0.006": 14.7249709396,
			"-0.005": 16.3232985221,
			"-0.004": 14.1604615632,
			"-0.003": 17.5275617092,
			"-0.002": 18.8582448394,
			"-0.001": 18.3729298839,
			"0.0": 19.7095893842,
			"0.001": 21.0654366785,
			"0.002": 24.1827813831,
			"0.003": 13.6057418319,
			"0.004": 11.8756188402,
			"0.005": 10.6523652309,
			"0.006": 7.63228855187,
			"0.007": 7.69052785701,
			"0.008": 4.47146554988,
			"0.009": 3.49158741541,
			"0.01": 2.72082710931,
			"0.011": 5.41140247232,
			"0.012": 4.05855302897,
			"0.013": 1.35310505307,
			"0.014": 0.650462881327,
			"0.015": 0.675357900008,
			"0.016": 0.137255040383,
			"0.017": 0.0,
			"0.018": 0.0,
			"0.019": 0.0,
			"0.02": 0.0,
			"0.021": 0.0,
			"0.022": 0.0,
			"0.023": 0.0,
			"0.024": 0.0,
			"0.025": 0.0
		}
	}
}
