{
	 "smiles": "CC(C)(C)C1=CC(C=C2C=C(C(=O)C(=C2)C(C)(C)C)C(C)(C)C)=CC(=C1O)C(C)(C)C", 
	 "Tm": 431.15, 
	 "num_atms": 73, 
	 "gaussian": { 
		 "optdone": 1, 
		 "sigma_profile": "yes", 
		 "theory": "DFT", 
		 "functional": "B3LYP", 
		 "basiset": "6-31G**", 
		 "properties": { 
			 "R2extent": 18912.6233, 
			 "electric_dipole_moment_norm": 7.43554654145, 
			 "electric_quadrupole_moment_norm": 13.2929815794, 
			 "total_energy": -1280.87097455, 
			 "HOMO_LUMO_gap": 0.11736, 
			 "cosmo_polarized_energy": -12.53, 
			 "cosmo_cavitation_energy": 66.62, 
			 "cosmo_dispersion_energy": -43.18, 
			 "cosmo_repulsion_energy": 3.21, 
			 "cosmo_total_nonelectrostatic_energy": 26.65, 
			 "SMD_solvation_energy": 11.93 
		},
		"coords": [
			{
				"x": 3.5440610391,
				"y": -4.3026079493,
				"z": -3.9619974819,
				"element": "C" 
			},
			{
				"x": 2.138196978,
				"y": -4.1613550837,
				"z": -3.3164995609,
				"element": "C" 
			},
			{
				"x": 1.1498869215,
				"y": -3.9618509632,
				"z": -4.4855084649,
				"element": "C" 
			},
			{
				"x": 1.7092898478,
				"y": -5.4776065514,
				"z": -2.6116795969,
				"element": "C" 
			},
			{
				"x": 2.1057217915,
				"y": -2.9715315295,
				"z": -2.3235414017,
				"element": "C" 
			},
			{
				"x": 1.2543725465,
				"y": -1.8879075077,
				"z": -2.5350366119,
				"element": "C" 
			},
			{
				"x": 1.168196942,
				"y": -0.7991175003,
				"z": -1.6502514927,
				"element": "C" 
			},
			{
				"x": 0.2386548624,
				"y": 0.2725007193,
				"z": -1.9757730765,
				"element": "C" 
			},
			{
				"x": -0.4310824399,
				"y": 1.1664187969,
				"z": -1.1746665837,
				"element": "C" 
			},
			{
				"x": -0.4702545426,
				"y": 1.1096061622,
				"z": 0.2719770673,
				"element": "C" 
			},
			{
				"x": -1.1281492518,
				"y": 2.0262720931,
				"z": 1.0294942451,
				"element": "C" 
			},
			{
				"x": -1.8182926954,
				"y": 3.1643747412,
				"z": 0.3493948998,
				"element": "C" 
			},
			{
				"x": -2.3694801422,
				"y": 4.0556067851,
				"z": 1.0125302231,
				"element": "O" 
			},
			{
				"x": -1.8542106233,
				"y": 3.1909018695,
				"z": -1.1409216697,
				"element": "C" 
			},
			{
				"x": -1.1933022136,
				"y": 2.2182713059,
				"z": -1.8183665512,
				"element": "C" 
			},
			{
				"x": -2.626736193,
				"y": 4.3163775047,
				"z": -1.8509557216,
				"element": "C" 
			},
			{
				"x": -2.0093630237,
				"y": 5.6904878464,
				"z": -1.4888795538,
				"element": "C" 
			},
			{
				"x": -4.1162331552,
				"y": 4.2847414217,
				"z": -1.4258654586,
				"element": "C" 
			},
			{
				"x": -2.5737860018,
				"y": 4.1666865652,
				"z": -3.3843171433,
				"element": "C" 
			},
			{
				"x": -1.2011281926,
				"y": 1.9276480561,
				"z": 2.5636902826,
				"element": "C" 
			},
			{
				"x": -0.4824662242,
				"y": 0.6710364025,
				"z": 3.0928981843,
				"element": "C" 
			},
			{
				"x": -2.6795288917,
				"y": 1.848828505,
				"z": 3.0209849267,
				"element": "C" 
			},
			{
				"x": -0.5209547769,
				"y": 3.1643099941,
				"z": 3.2040172966,
				"element": "C" 
			},
			{
				"x": 2.0338849008,
				"y": -0.787865672,
				"z": -0.5404721358,
				"element": "C" 
			},
			{
				"x": 2.9281091102,
				"y": -1.8235784735,
				"z": -0.2733260881,
				"element": "C" 
			},
			{
				"x": 2.9323320822,
				"y": -2.9226536568,
				"z": -1.1708743066,
				"element": "C" 
			},
			{
				"x": 3.8030561626,
				"y": -3.9371152945,
				"z": -0.8734063502,
				"element": "O" 
			},
			{
				"x": 3.8843195941,
				"y": -1.7612337052,
				"z": 0.9416923594,
				"element": "C" 
			},
			{
				"x": 3.5969981407,
				"y": -2.9348975511,
				"z": 1.9115431098,
				"element": "C" 
			},
			{
				"x": 5.3594415367,
				"y": -1.8055633345,
				"z": 0.4697364513,
				"element": "C" 
			},
			{
				"x": 3.7058636525,
				"y": -0.4552068332,
				"z": 1.7436041453,
				"element": "C" 
			},
			{
				"x": 4.3595191849,
				"y": -4.4596220396,
				"z": -3.2491205515,
				"element": "H" 
			},
			{
				"x": 3.7928068702,
				"y": -3.3965460528,
				"z": -4.5227852638,
				"element": "H" 
			},
			{
				"x": 3.5551871978,
				"y": -5.1474383149,
				"z": -4.6587770624,
				"element": "H" 
			},
			{
				"x": 1.2085431621,
				"y": -4.8235628133,
				"z": -5.157720975,
				"element": "H" 
			},
			{
				"x": 1.3857868733,
				"y": -3.0697923961,
				"z": -5.0736130603,
				"element": "H" 
			},
			{
				"x": 0.1149508715,
				"y": -3.8849380622,
				"z": -4.1388755516,
				"element": "H" 
			},
			{
				"x": 0.6861788695,
				"y": -5.3861856631,
				"z": -2.2347034133,
				"element": "H" 
			},
			{
				"x": 2.3302603366,
				"y": -5.7610101704,
				"z": -1.7558545745,
				"element": "H" 
			},
			{
				"x": 1.7371755821,
				"y": -6.3111034724,
				"z": -3.3215132092,
				"element": "H" 
			},
			{
				"x": 0.6087403938,
				"y": -1.8778194003,
				"z": -3.4044744081,
				"element": "H" 
			},
			{
				"x": 0.0345210242,
				"y": 0.3658489732,
				"z": -3.0429841096,
				"element": "H" 
			},
			{
				"x": 0.0097069347,
				"y": 0.2634368132,
				"z": 0.7447720114,
				"element": "H" 
			},
			{
				"x": -1.1889056709,
				"y": 2.2142368328,
				"z": -2.9035594858,
				"element": "H" 
			},
			{
				"x": -2.0589784447,
				"y": 5.8720998491,
				"z": -0.4154204687,
				"element": "H" 
			},
			{
				"x": -0.9612792791,
				"y": 5.7403936876,
				"z": -1.805231177,
				"element": "H" 
			},
			{
				"x": -2.5535625384,
				"y": 6.48975629,
				"z": -2.005397151,
				"element": "H" 
			},
			{
				"x": -4.5771460722,
				"y": 3.3277758769,
				"z": -1.6958692149,
				"element": "H" 
			},
			{
				"x": -4.2214266972,
				"y": 4.4319872337,
				"z": -0.3511175871,
				"element": "H" 
			},
			{
				"x": -4.6666893425,
				"y": 5.079159622,
				"z": -1.9430293729,
				"element": "H" 
			},
			{
				"x": -3.0182186944,
				"y": 3.2238723297,
				"z": -3.7221791418,
				"element": "H" 
			},
			{
				"x": -1.5497422808,
				"y": 4.2229354609,
				"z": -3.7697258412,
				"element": "H" 
			},
			{
				"x": -3.1417087499,
				"y": 4.980739142,
				"z": -3.8459283863,
				"element": "H" 
			},
			{
				"x": -0.5693995223,
				"y": 0.6383368549,
				"z": 4.1835672468,
				"element": "H" 
			},
			{
				"x": 0.5862030175,
				"y": 0.6758704857,
				"z": 2.8514989229,
				"element": "H" 
			},
			{
				"x": -0.9210240889,
				"y": -0.252891209,
				"z": 2.7002063004,
				"element": "H" 
			},
			{
				"x": -3.1713167139,
				"y": 0.9667088762,
				"z": 2.5953960699,
				"element": "H" 
			},
			{
				"x": -3.2335767479,
				"y": 2.7375002548,
				"z": 2.719533837,
				"element": "H" 
			},
			{
				"x": -2.7249832577,
				"y": 1.7629282124,
				"z": 4.1127488,
				"element": "H" 
			},
			{
				"x": -0.5615584874,
				"y": 3.0852340794,
				"z": 4.2966646608,
				"element": "H" 
			},
			{
				"x": 0.5337069153,
				"y": 3.2217036914,
				"z": 2.9116057842,
				"element": "H" 
			},
			{
				"x": -1.0179435627,
				"y": 4.0855796441,
				"z": 2.9013650045,
				"element": "H" 
			},
			{
				"x": 2.0320637721,
				"y": 0.0832888797,
				"z": 0.0982260126,
				"element": "H" 
			},
			{
				"x": 3.7369232931,
				"y": -4.6308502196,
				"z": -1.5369612294,
				"element": "H" 
			},
			{
				"x": 4.2625026793,
				"y": -2.8691198418,
				"z": 2.7797633183,
				"element": "H" 
			},
			{
				"x": 3.7508270362,
				"y": -3.9039487436,
				"z": 1.4367046791,
				"element": "H" 
			},
			{
				"x": 2.565395301,
				"y": -2.8892103427,
				"z": 2.2772138292,
				"element": "H" 
			},
			{
				"x": 5.590162069,
				"y": -2.7264504561,
				"z": -0.0657748038,
				"element": "H" 
			},
			{
				"x": 6.0270895662,
				"y": -1.737136162,
				"z": 1.3360365158,
				"element": "H" 
			},
			{
				"x": 5.5789509526,
				"y": -0.9581438537,
				"z": -0.188869971,
				"element": "H" 
			},
			{
				"x": 3.9219623957,
				"y": 0.4341596728,
				"z": 1.1425348368,
				"element": "H" 
			},
			{
				"x": 2.6964407238,
				"y": -0.3574725975,
				"z": 2.1562772515,
				"element": "H" 
			},
			{
				"x": 4.4032373874,
				"y": -0.4566881143,
				"z": 2.5870469876,
				"element": "H" 
			}
		],
		 "valence_orbital": [ 
			{
				"type": "occ",
				"energy": -0.25427,
				"method": "rhf"
			},
			{
				"type": "occ",
				"energy": -0.24983,
				"method": "rhf"
			},
			{
				"type": "occ",
				"energy": -0.24777,
				"method": "rhf"
			},
			{
				"type": "occ",
				"energy": -0.22204,
				"method": "rhf"
			},
			{
				"type": "occ",
				"energy": -0.20076,
				"method": "rhf"
			},
			{
				"type": "unocc",
				"energy": -0.0834,
				"method": "rhf"
			},
			{
				"type": "unocc",
				"energy": -0.01047,
				"method": "rhf"
			},
			{
				"type": "unocc",
				"energy": 0.00085,
				"method": "rhf"
			},
			{
				"type": "unocc",
				"energy": 0.01261,
				"method": "rhf"
			},
			{
				"type": "unocc",
				"energy": 0.05064,
				"method": "rhf"
			}
		],
		"cosmo_sigma_profile": { 
			"-0.025": 0.0,
			"-0.024": 0.0,
			"-0.023": 0.0,
			"-0.022": 0.0,
			"-0.021": 0.0,
			"-0.02": 0.0,
			"-0.019": 0.0,
			"-0.018": 0.0,
			"-0.017": 0.0,
			"-0.016": 0.0551738261726,
			"-0.015": 0.319660432217,
			"-0.014": 0.570996468546,
			"-0.013": 0.707558046093,
			"-0.012": 0.446706407995,
			"-0.011": 0.72087142812,
			"-0.01": 0.863581222552,
			"-0.009": 0.873944208716,
			"-0.008": 0.869282771027,
			"-0.007": 3.80909764428,
			"-0.006": 5.77137638253,
			"-0.005": 6.83634845259,
			"-0.004": 17.492762179,
			"-0.003": 46.8081089123,
			"-0.002": 74.7088102122,
			"-0.001": 63.4132363119,
			"0.0": 68.1358005675,
			"0.001": 75.9793453369,
			"0.002": 71.2948489904,
			"0.003": 34.2392935941,
			"0.004": 21.3529268927,
			"0.005": 6.36949736892,
			"0.006": 3.38881899974,
			"0.007": 3.00671661713,
			"0.008": 2.2820642456,
			"0.009": 2.05834904411,
			"0.01": 1.07101612092,
			"0.011": 1.30295963714,
			"0.012": 1.08109662514,
			"0.013": 1.25934314456,
			"0.014": 0.32274002007,
			"0.015": 0.0,
			"0.016": 0.0,
			"0.017": 0.0,
			"0.018": 0.0,
			"0.019": 0.0,
			"0.02": 0.0,
			"0.021": 0.0,
			"0.022": 0.0,
			"0.023": 0.0,
			"0.024": 0.0,
			"0.025": 0.0
		}
	}
}
