{
	 "smiles": "CN(CCO)C(=O)C1=CC=C(O)C=C1", 
	 "Tm": 397.15, 
	 "num_atms": 27, 
	 "gaussian": { 
		 "optdone": 1, 
		 "sigma_profile": "yes", 
		 "theory": "DFT", 
		 "functional": "B3LYP", 
		 "basiset": "6-31G**", 
		 "properties": { 
			 "R2extent": 3614.9102, 
			 "electric_dipole_moment_norm": 2.68184856769, 
			 "electric_quadrupole_moment_norm": 20.2471812478, 
			 "total_energy": -669.314045096, 
			 "HOMO_LUMO_gap": 0.20457, 
			 "cosmo_polarized_energy": -19.33, 
			 "cosmo_cavitation_energy": 30.7, 
			 "cosmo_dispersion_energy": -21.57, 
			 "cosmo_repulsion_energy": 1.73, 
			 "cosmo_total_nonelectrostatic_energy": 10.86, 
			 "SMD_solvation_energy": 5.7 
		},
		"coords": [
			{
				"x": 2.2577790297,
				"y": -1.5770587493,
				"z": 1.8237408799,
				"element": "C" 
			},
			{
				"x": 1.4062524659,
				"y": -0.8940036323,
				"z": 0.8497379688,
				"element": "N" 
			},
			{
				"x": 1.584825491,
				"y": -1.2810753022,
				"z": -0.5494992284,
				"element": "C" 
			},
			{
				"x": 2.9332131933,
				"y": -0.8381322232,
				"z": -1.1441093895,
				"element": "C" 
			},
			{
				"x": 3.0794520508,
				"y": -1.2880407235,
				"z": -2.4819029852,
				"element": "O" 
			},
			{
				"x": 0.890622739,
				"y": 0.3255247907,
				"z": 1.25234826,
				"element": "C" 
			},
			{
				"x": 1.2021760084,
				"y": 0.8193197529,
				"z": 2.3347217536,
				"element": "O" 
			},
			{
				"x": -0.1090275009,
				"y": 1.0191412251,
				"z": 0.3708085774,
				"element": "C" 
			},
			{
				"x": -1.1743573329,
				"y": 0.3571505783,
				"z": -0.260791202,
				"element": "C" 
			},
			{
				"x": -2.133203052,
				"y": 1.0631260558,
				"z": -0.9798681281,
				"element": "C" 
			},
			{
				"x": -2.0370055895,
				"y": 2.4561926353,
				"z": -1.0832146352,
				"element": "C" 
			},
			{
				"x": -2.9945802967,
				"y": 3.098867851,
				"z": -1.8102527365,
				"element": "O" 
			},
			{
				"x": -0.9901931532,
				"y": 3.1321798831,
				"z": -0.4438894252,
				"element": "C" 
			},
			{
				"x": -0.0481590238,
				"y": 2.4161668884,
				"z": 0.2883184524,
				"element": "C" 
			},
			{
				"x": 2.3360035131,
				"y": -2.6313877921,
				"z": 1.5441340953,
				"element": "H" 
			},
			{
				"x": 1.8088283839,
				"y": -1.4905814889,
				"z": 2.8132186231,
				"element": "H" 
			},
			{
				"x": 3.2656177563,
				"y": -1.1472630289,
				"z": 1.8803894314,
				"element": "H" 
			},
			{
				"x": 1.503378156,
				"y": -2.3709800607,
				"z": -0.6331370041,
				"element": "H" 
			},
			{
				"x": 0.7829686664,
				"y": -0.8486055392,
				"z": -1.1494855671,
				"element": "H" 
			},
			{
				"x": 3.7637241982,
				"y": -1.2805333434,
				"z": -0.5861244241,
				"element": "H" 
			},
			{
				"x": 3.02764968,
				"y": 0.2560657254,
				"z": -1.0611876474,
				"element": "H" 
			},
			{
				"x": 2.4403660893,
				"y": -0.8119308098,
				"z": -3.0279261369,
				"element": "H" 
			},
			{
				"x": -1.2721521632,
				"y": -0.7201463133,
				"z": -0.1643781351,
				"element": "H" 
			},
			{
				"x": -2.9665716819,
				"y": 0.5581899921,
				"z": -1.4568766637,
				"element": "H" 
			},
			{
				"x": -2.8300945908,
				"y": 4.0505832703,
				"z": -1.7834495791,
				"element": "H" 
			},
			{
				"x": -0.9221189564,
				"y": 4.2161711534,
				"z": -0.509912753,
				"element": "H" 
			},
			{
				"x": 0.7443059201,
				"y": 2.9360592051,
				"z": 0.8165875989,
				"element": "H" 
			}
		],
		 "valence_orbital": [ 
			{
				"type": "occ",
				"energy": -0.28636,
				"method": "rhf"
			},
			{
				"type": "occ",
				"energy": -0.26233,
				"method": "rhf"
			},
			{
				"type": "occ",
				"energy": -0.25275,
				"method": "rhf"
			},
			{
				"type": "occ",
				"energy": -0.23261,
				"method": "rhf"
			},
			{
				"type": "occ",
				"energy": -0.22602,
				"method": "rhf"
			},
			{
				"type": "unocc",
				"energy": -0.02145,
				"method": "rhf"
			},
			{
				"type": "unocc",
				"energy": -0.01191,
				"method": "rhf"
			},
			{
				"type": "unocc",
				"energy": 0.05181,
				"method": "rhf"
			},
			{
				"type": "unocc",
				"energy": 0.06305,
				"method": "rhf"
			},
			{
				"type": "unocc",
				"energy": 0.06732,
				"method": "rhf"
			}
		],
		"cosmo_sigma_profile": { 
			"-0.025": 0.0,
			"-0.024": 0.0,
			"-0.023": 0.0,
			"-0.022": 0.0,
			"-0.021": 0.0,
			"-0.02": 0.0,
			"-0.019": 0.016488964577,
			"-0.018": 0.770821000166,
			"-0.017": 1.23897973521,
			"-0.016": 1.05438936162,
			"-0.015": 2.19709945057,
			"-0.014": 2.45895729565,
			"-0.013": 2.68900973999,
			"-0.012": 1.05523589185,
			"-0.011": 1.7997049477,
			"-0.01": 2.54368239922,
			"-0.009": 1.68150830373,
			"-0.008": 2.4530620813,
			"-0.007": 3.66785016317,
			"-0.006": 8.29284048105,
			"-0.005": 16.7866945134,
			"-0.004": 23.2806669195,
			"-0.003": 20.981053834,
			"-0.002": 20.5883199987,
			"-0.001": 16.4852718114,
			"0.0": 11.2399785406,
			"0.001": 9.99129332715,
			"0.002": 11.1051553459,
			"0.003": 13.652757708,
			"0.004": 14.6496087824,
			"0.005": 8.09993047906,
			"0.006": 4.8117986338,
			"0.007": 3.75230126822,
			"0.008": 4.90570366325,
			"0.009": 4.46400463922,
			"0.01": 3.6141316942,
			"0.011": 4.48652818311,
			"0.012": 3.79096007396,
			"0.013": 4.76257181576,
			"0.014": 6.97767452218,
			"0.015": 1.31925030341,
			"0.016": 0.0,
			"0.017": 0.0,
			"0.018": 0.0,
			"0.019": 0.0,
			"0.02": 0.0,
			"0.021": 0.0,
			"0.022": 0.0,
			"0.023": 0.0,
			"0.024": 0.0,
			"0.025": 0.0
		}
	}
}
