{
	 "smiles": "NC1=CC(=CC=C1)S(N)(=O)=O", 
	 "Tm": 414.15, 
	 "num_atms": 19, 
	 "gaussian": { 
		 "optdone": 1, 
		 "sigma_profile": "yes", 
		 "theory": "DFT", 
		 "functional": "B3LYP", 
		 "basiset": "6-31G**", 
		 "properties": { 
			 "R2extent": 2375.1209, 
			 "electric_dipole_moment_norm": 5.13968194152, 
			 "electric_quadrupole_moment_norm": 11.2367879414, 
			 "total_energy": -891.532221819, 
			 "HOMO_LUMO_gap": 0.18823, 
			 "cosmo_polarized_energy": -19.21, 
			 "cosmo_cavitation_energy": 24.47, 
			 "cosmo_dispersion_energy": -18.77, 
			 "cosmo_repulsion_energy": 1.48, 
			 "cosmo_total_nonelectrostatic_energy": 7.18, 
			 "SMD_solvation_energy": 3.82 
		},
		"coords": [
			{
				"x": 3.0474136047,
				"y": -0.1389131994,
				"z": -0.8657627801,
				"element": "N" 
			},
			{
				"x": 2.1383555611,
				"y": -0.6111692225,
				"z": 0.0750756872,
				"element": "C" 
			},
			{
				"x": 0.7840359238,
				"y": -0.2428164375,
				"z": 0.0080570133,
				"element": "C" 
			},
			{
				"x": -0.0929700861,
				"y": -0.6798239024,
				"z": 0.9964325117,
				"element": "C" 
			},
			{
				"x": 0.3196340784,
				"y": -1.4673976926,
				"z": 2.0712296263,
				"element": "C" 
			},
			{
				"x": 1.6662727994,
				"y": -1.8302212338,
				"z": 2.1291780343,
				"element": "C" 
			},
			{
				"x": 2.5637345031,
				"y": -1.4158805818,
				"z": 1.1488666119,
				"element": "C" 
			},
			{
				"x": -1.819023229,
				"y": -0.2098368202,
				"z": 0.8717559062,
				"element": "S" 
			},
			{
				"x": -2.5110225269,
				"y": -1.4871188634,
				"z": -0.0101960733,
				"element": "N" 
			},
			{
				"x": -1.9102035027,
				"y": 0.9767874288,
				"z": 0.0141514005,
				"element": "O" 
			},
			{
				"x": -2.3917740905,
				"y": -0.244298453,
				"z": 2.2212858452,
				"element": "O" 
			},
			{
				"x": 2.6570979925,
				"y": 0.1492184148,
				"z": -1.7515684757,
				"element": "H" 
			},
			{
				"x": 3.8945036462,
				"y": -0.6786123504,
				"z": -0.9711778282,
				"element": "H" 
			},
			{
				"x": 0.4208856345,
				"y": 0.3950683983,
				"z": -0.7912212708,
				"element": "H" 
			},
			{
				"x": -0.3848824555,
				"y": -1.7650402466,
				"z": 2.8383003761,
				"element": "H" 
			},
			{
				"x": 2.0233868625,
				"y": -2.4415047565,
				"z": 2.9527768825,
				"element": "H" 
			},
			{
				"x": 3.6100555816,
				"y": -1.703135299,
				"z": 1.2158190402,
				"element": "H" 
			},
			{
				"x": -3.1590849521,
				"y": -1.9943055683,
				"z": 0.5871034428,
				"element": "H" 
			},
			{
				"x": -2.988415345,
				"y": -1.0980996144,
				"z": -0.8194059501,
				"element": "H" 
			}
		],
		 "valence_orbital": [ 
			{
				"type": "occ",
				"energy": -0.31085,
				"method": "rhf"
			},
			{
				"type": "occ",
				"energy": -0.29964,
				"method": "rhf"
			},
			{
				"type": "occ",
				"energy": -0.29091,
				"method": "rhf"
			},
			{
				"type": "occ",
				"energy": -0.26055,
				"method": "rhf"
			},
			{
				"type": "occ",
				"energy": -0.21694,
				"method": "rhf"
			},
			{
				"type": "unocc",
				"energy": -0.02871,
				"method": "rhf"
			},
			{
				"type": "unocc",
				"energy": -0.00011,
				"method": "rhf"
			},
			{
				"type": "unocc",
				"energy": 0.05848,
				"method": "rhf"
			},
			{
				"type": "unocc",
				"energy": 0.07053,
				"method": "rhf"
			},
			{
				"type": "unocc",
				"energy": 0.09027,
				"method": "rhf"
			}
		],
		"cosmo_sigma_profile": { 
			"-0.025": 0.0,
			"-0.024": 0.0,
			"-0.023": 0.0,
			"-0.022": 0.0,
			"-0.021": 0.0,
			"-0.02": 0.0,
			"-0.019": 0.0,
			"-0.018": 0.0,
			"-0.017": 0.0,
			"-0.016": 0.0,
			"-0.015": 0.68644406898,
			"-0.014": 2.36653202775,
			"-0.013": 4.31891924332,
			"-0.012": 5.65495719696,
			"-0.011": 5.42936867687,
			"-0.01": 5.04982921935,
			"-0.009": 4.77015842742,
			"-0.008": 4.48542674636,
			"-0.007": 6.1079434614,
			"-0.006": 9.52278802289,
			"-0.005": 9.45656781104,
			"-0.004": 9.32995839207,
			"-0.003": 7.33675464605,
			"-0.002": 7.20648582776,
			"-0.001": 7.6656571092,
			"0.0": 7.64958824719,
			"0.001": 7.77499578551,
			"0.002": 10.0157263009,
			"0.003": 12.4957951991,
			"0.004": 15.5189840733,
			"0.005": 7.46264442237,
			"0.006": 3.76991210226,
			"0.007": 5.69029467845,
			"0.008": 5.60134319128,
			"0.009": 3.92399802137,
			"0.01": 8.34891041211,
			"0.011": 9.7793202617,
			"0.012": 5.6902733959,
			"0.013": 1.21667077218,
			"0.014": 0.0,
			"0.015": 0.0,
			"0.016": 0.0,
			"0.017": 0.0,
			"0.018": 0.0,
			"0.019": 0.0,
			"0.02": 0.0,
			"0.021": 0.0,
			"0.022": 0.0,
			"0.023": 0.0,
			"0.024": 0.0,
			"0.025": 0.0
		}
	}
}
