{
	 "smiles": "C=CCOC(=O)C=CC1=CC=CC=C1", 
	 "Tm": 541.15, 
	 "num_atms": 26, 
	 "gaussian": { 
		 "optdone": 1, 
		 "sigma_profile": "yes", 
		 "theory": "DFT", 
		 "functional": "B3LYP", 
		 "basiset": "6-31G**", 
		 "properties": { 
			 "R2extent": 5074.879, 
			 "electric_dipole_moment_norm": 2.89510103623, 
			 "electric_quadrupole_moment_norm": 16.4558681141, 
			 "total_energy": -614.929017203, 
			 "HOMO_LUMO_gap": 0.17032, 
			 "cosmo_polarized_energy": -9.53, 
			 "cosmo_cavitation_energy": 31.54, 
			 "cosmo_dispersion_energy": -22.41, 
			 "cosmo_repulsion_energy": 1.78, 
			 "cosmo_total_nonelectrostatic_energy": 10.91, 
			 "SMD_solvation_energy": 7.22 
		},
		"coords": [
			{
				"x": -0.2798866295,
				"y": -4.8065498826,
				"z": 0.5761423002,
				"element": "C" 
			},
			{
				"x": -0.9720639052,
				"y": -3.8611483252,
				"z": -0.0578895431,
				"element": "C" 
			},
			{
				"x": -0.4216993544,
				"y": -3.0275670139,
				"z": -1.1720171635,
				"element": "C" 
			},
			{
				"x": -0.6258361081,
				"y": -1.6377655606,
				"z": -0.8295662145,
				"element": "O" 
			},
			{
				"x": -0.4040850331,
				"y": -0.7505734211,
				"z": -1.833333535,
				"element": "C" 
			},
			{
				"x": -0.0559729294,
				"y": -1.08357212,
				"z": -2.9515969998,
				"element": "O" 
			},
			{
				"x": -0.6255118864,
				"y": 0.651508602,
				"z": -1.4323711007,
				"element": "C" 
			},
			{
				"x": -0.9935824446,
				"y": 1.0370206747,
				"z": -0.1960472644,
				"element": "C" 
			},
			{
				"x": -1.2287464644,
				"y": 2.4042115911,
				"z": 0.2743140553,
				"element": "C" 
			},
			{
				"x": -1.0967039713,
				"y": 3.5387261679,
				"z": -0.5502098136,
				"element": "C" 
			},
			{
				"x": -1.3334790985,
				"y": 4.8136104379,
				"z": -0.0473722533,
				"element": "C" 
			},
			{
				"x": -1.7076500777,
				"y": 4.9882390557,
				"z": 1.2893529416,
				"element": "C" 
			},
			{
				"x": -1.8431323526,
				"y": 3.8752385165,
				"z": 2.119957964,
				"element": "C" 
			},
			{
				"x": -1.6057921391,
				"y": 2.5978956956,
				"z": 1.6158072077,
				"element": "C" 
			},
			{
				"x": -0.7289932113,
				"y": -5.4190238569,
				"z": 1.3520152761,
				"element": "H" 
			},
			{
				"x": 0.7615249962,
				"y": -5.0082959434,
				"z": 0.3367982229,
				"element": "H" 
			},
			{
				"x": -2.0128152869,
				"y": -3.6736031944,
				"z": 0.2026150947,
				"element": "H" 
			},
			{
				"x": -0.9328772783,
				"y": -3.2280364828,
				"z": -2.120667068,
				"element": "H" 
			},
			{
				"x": 0.6464768921,
				"y": -3.2124684467,
				"z": -1.3280969771,
				"element": "H" 
			},
			{
				"x": -0.457027026,
				"y": 1.3558228314,
				"z": -2.2403357791,
				"element": "H" 
			},
			{
				"x": -1.1349447472,
				"y": 0.2563060884,
				"z": 0.5480290004,
				"element": "H" 
			},
			{
				"x": -0.8074768986,
				"y": 3.4219415182,
				"z": -1.5898567394,
				"element": "H" 
			},
			{
				"x": -1.2267043395,
				"y": 5.6766932469,
				"z": -0.6980995071,
				"element": "H" 
			},
			{
				"x": -1.891556489,
				"y": 5.9856908527,
				"z": 1.6777055948,
				"element": "H" 
			},
			{
				"x": -2.133089637,
				"y": 4.0011680461,
				"z": 3.1590143334,
				"element": "H" 
			},
			{
				"x": -1.7115745802,
				"y": 1.7321309227,
				"z": 2.2645079673,
				"element": "H" 
			}
		],
		 "valence_orbital": [ 
			{
				"type": "occ",
				"energy": -0.29725,
				"method": "rhf"
			},
			{
				"type": "occ",
				"energy": -0.27628,
				"method": "rhf"
			},
			{
				"type": "occ",
				"energy": -0.26078,
				"method": "rhf"
			},
			{
				"type": "occ",
				"energy": -0.25972,
				"method": "rhf"
			},
			{
				"type": "occ",
				"energy": -0.23505,
				"method": "rhf"
			},
			{
				"type": "unocc",
				"energy": -0.06473,
				"method": "rhf"
			},
			{
				"type": "unocc",
				"energy": -0.00973,
				"method": "rhf"
			},
			{
				"type": "unocc",
				"energy": 0.00551,
				"method": "rhf"
			},
			{
				"type": "unocc",
				"energy": 0.02104,
				"method": "rhf"
			},
			{
				"type": "unocc",
				"energy": 0.08731,
				"method": "rhf"
			}
		],
		"cosmo_sigma_profile": { 
			"-0.025": 0.0,
			"-0.024": 0.0,
			"-0.023": 0.0,
			"-0.022": 0.0,
			"-0.021": 0.0,
			"-0.02": 0.0,
			"-0.019": 0.0,
			"-0.018": 0.0,
			"-0.017": 0.0,
			"-0.016": 0.0,
			"-0.015": 0.0,
			"-0.014": 0.0,
			"-0.013": 0.0,
			"-0.012": 0.0,
			"-0.011": 0.0,
			"-0.01": 0.0,
			"-0.009": 0.169498535527,
			"-0.008": 1.92145290662,
			"-0.007": 4.82713517689,
			"-0.006": 15.6729659185,
			"-0.005": 23.7666111285,
			"-0.004": 21.914672967,
			"-0.003": 19.183631796,
			"-0.002": 18.4254926466,
			"-0.001": 17.5086117189,
			"0.0": 17.2333905942,
			"0.001": 18.7615553843,
			"0.002": 20.3556501174,
			"0.003": 19.6623998269,
			"0.004": 17.384627357,
			"0.005": 13.2742282669,
			"0.006": 6.05556770648,
			"0.007": 1.80045512586,
			"0.008": 1.21798023843,
			"0.009": 1.46276001769,
			"0.01": 1.30797078229,
			"0.011": 2.69170461461,
			"0.012": 4.71537229214,
			"0.013": 2.65500341903,
			"0.014": 0.173372632204,
			"0.015": 0.0,
			"0.016": 0.0,
			"0.017": 0.0,
			"0.018": 0.0,
			"0.019": 0.0,
			"0.02": 0.0,
			"0.021": 0.0,
			"0.022": 0.0,
			"0.023": 0.0,
			"0.024": 0.0,
			"0.025": 0.0
		}
	}
}
