{
	 "smiles": "CCCCC", 
	 "Tm": 143.15, 
	 "num_atms": 17, 
	 "gaussian": { 
		 "optdone": 1, 
		 "sigma_profile": "yes", 
		 "theory": "DFT", 
		 "functional": "B3LYP", 
		 "basiset": "6-31G**", 
		 "properties": { 
			 "R2extent": 752.0637, 
			 "electric_dipole_moment_norm": 0.0928126069023, 
			 "electric_quadrupole_moment_norm": 0.383514654218, 
			 "total_energy": -197.779401788, 
			 "HOMO_LUMO_gap": 0.39118, 
			 "cosmo_polarized_energy": -0.46, 
			 "cosmo_cavitation_energy": 18.08, 
			 "cosmo_dispersion_energy": -13.43, 
			 "cosmo_repulsion_energy": 1.19, 
			 "cosmo_total_nonelectrostatic_energy": 5.83, 
			 "SMD_solvation_energy": 3.08 
		},
		"coords": [
			{
				"x": -2.1861923516,
				"y": -1.6578513802,
				"z": -0.0672343237,
				"element": "C" 
			},
			{
				"x": -2.0827685673,
				"y": -0.254693401,
				"z": 0.5420575688,
				"element": "C" 
			},
			{
				"x": -0.7895035664,
				"y": 0.0519510799,
				"z": 1.3190324708,
				"element": "C" 
			},
			{
				"x": 0.5185807324,
				"y": 0.0440866017,
				"z": 0.4972214776,
				"element": "C" 
			},
			{
				"x": 1.232977594,
				"y": -1.3120939789,
				"z": 0.41836722,
				"element": "C" 
			},
			{
				"x": -3.1743219297,
				"y": -1.8168830068,
				"z": -0.5124726054,
				"element": "H" 
			},
			{
				"x": -1.4452768016,
				"y": -1.8165858323,
				"z": -0.8568272492,
				"element": "H" 
			},
			{
				"x": -2.0359213454,
				"y": -2.4343655945,
				"z": 0.6918262906,
				"element": "H" 
			},
			{
				"x": -2.2007219304,
				"y": 0.4927193206,
				"z": -0.2548826712,
				"element": "H" 
			},
			{
				"x": -2.9316386241,
				"y": -0.1033926001,
				"z": 1.2219350521,
				"element": "H" 
			},
			{
				"x": -0.693349205,
				"y": -0.6500087633,
				"z": 2.1599359172,
				"element": "H" 
			},
			{
				"x": -0.9106831136,
				"y": 1.0440493621,
				"z": 1.7724623192,
				"element": "H" 
			},
			{
				"x": 1.2151069631,
				"y": 0.7670628131,
				"z": 0.9402972398,
				"element": "H" 
			},
			{
				"x": 0.3126121155,
				"y": 0.4148481292,
				"z": -0.5165443401,
				"element": "H" 
			},
			{
				"x": 1.4928630972,
				"y": -1.6726903114,
				"z": 1.4204163966,
				"element": "H" 
			},
			{
				"x": 2.1630335284,
				"y": -1.2335238434,
				"z": -0.1552142784,
				"element": "H" 
			},
			{
				"x": 0.6165034047,
				"y": -2.0808285948,
				"z": -0.0557764848,
				"element": "H" 
			}
		],
		 "valence_orbital": [ 
			{
				"type": "occ",
				"energy": -0.35714,
				"method": "rhf"
			},
			{
				"type": "occ",
				"energy": -0.33909,
				"method": "rhf"
			},
			{
				"type": "occ",
				"energy": -0.31734,
				"method": "rhf"
			},
			{
				"type": "occ",
				"energy": -0.31081,
				"method": "rhf"
			},
			{
				"type": "occ",
				"energy": -0.30412,
				"method": "rhf"
			},
			{
				"type": "unocc",
				"energy": 0.08706,
				"method": "rhf"
			},
			{
				"type": "unocc",
				"energy": 0.12319,
				"method": "rhf"
			},
			{
				"type": "unocc",
				"energy": 0.13029,
				"method": "rhf"
			},
			{
				"type": "unocc",
				"energy": 0.13473,
				"method": "rhf"
			},
			{
				"type": "unocc",
				"energy": 0.15224,
				"method": "rhf"
			}
		],
		"cosmo_sigma_profile": { 
			"-0.025": 0.0,
			"-0.024": 0.0,
			"-0.023": 0.0,
			"-0.022": 0.0,
			"-0.021": 0.0,
			"-0.02": 0.0,
			"-0.019": 0.0,
			"-0.018": 0.0,
			"-0.017": 0.0,
			"-0.016": 0.0,
			"-0.015": 0.0,
			"-0.014": 0.0,
			"-0.013": 0.0,
			"-0.012": 0.0,
			"-0.011": 0.0,
			"-0.01": 0.0,
			"-0.009": 0.0,
			"-0.008": 0.0,
			"-0.007": 0.0,
			"-0.006": 0.0,
			"-0.005": 0.0,
			"-0.004": 0.0,
			"-0.003": 2.38266435368,
			"-0.002": 18.605188916,
			"-0.001": 29.1324299029,
			"0.0": 34.7845579404,
			"0.001": 34.4430333216,
			"0.002": 18.6162580074,
			"0.003": 0.732757861072,
			"0.004": 0.0,
			"0.005": 0.0,
			"0.006": 0.0,
			"0.007": 0.0,
			"0.008": 0.0,
			"0.009": 0.0,
			"0.01": 0.0,
			"0.011": 0.0,
			"0.012": 0.0,
			"0.013": 0.0,
			"0.014": 0.0,
			"0.015": 0.0,
			"0.016": 0.0,
			"0.017": 0.0,
			"0.018": 0.0,
			"0.019": 0.0,
			"0.02": 0.0,
			"0.021": 0.0,
			"0.022": 0.0,
			"0.023": 0.0,
			"0.024": 0.0,
			"0.025": 0.0
		}
	}
}
