{
	 "smiles": "COC(=O)COC1=C2C=CC=CC2=C(C=C1)[N+]([O-])=O", 
	 "Tm": 415.15, 
	 "num_atms": 30, 
	 "gaussian": { 
		 "optdone": 1, 
		 "sigma_profile": "yes", 
		 "theory": "DFT", 
		 "functional": "B3LYP", 
		 "basiset": "6-31G**", 
		 "properties": { 
			 "R2extent": 6377.1641, 
			 "electric_dipole_moment_norm": 5.57557406372, 
			 "electric_quadrupole_moment_norm": 18.4427339456, 
			 "total_energy": -932.781218665, 
			 "HOMO_LUMO_gap": 0.14351, 
			 "cosmo_polarized_energy": -14.8, 
			 "cosmo_cavitation_energy": 35.13, 
			 "cosmo_dispersion_energy": -25.06, 
			 "cosmo_repulsion_energy": 1.93, 
			 "cosmo_total_nonelectrostatic_energy": 11.99, 
			 "SMD_solvation_energy": 9.73 
		},
		"coords": [
			{
				"x": 1.997084571,
				"y": -0.5742854965,
				"z": -2.6718897314,
				"element": "C" 
			},
			{
				"x": 1.6451665469,
				"y": -1.2630247563,
				"z": -1.4553936752,
				"element": "O" 
			},
			{
				"x": 1.0010642422,
				"y": -2.4245767897,
				"z": -1.6204362472,
				"element": "C" 
			},
			{
				"x": 0.7291846951,
				"y": -2.9289133523,
				"z": -2.6875387108,
				"element": "O" 
			},
			{
				"x": 0.6786007326,
				"y": -3.1063136893,
				"z": -0.2903433004,
				"element": "C" 
			},
			{
				"x": 0.6072633626,
				"y": -2.245645293,
				"z": 0.8324977648,
				"element": "O" 
			},
			{
				"x": -0.4545310227,
				"y": -1.4059552808,
				"z": 0.9554370626,
				"element": "C" 
			},
			{
				"x": -0.4425355192,
				"y": -0.5852413899,
				"z": 2.1314584973,
				"element": "C" 
			},
			{
				"x": 0.6432406269,
				"y": -0.6616105363,
				"z": 3.0406511293,
				"element": "C" 
			},
			{
				"x": 0.6758720285,
				"y": 0.1306616231,
				"z": 4.1655039151,
				"element": "C" 
			},
			{
				"x": -0.3801861912,
				"y": 1.0306802171,
				"z": 4.4154231472,
				"element": "C" 
			},
			{
				"x": -1.4544571869,
				"y": 1.1255795865,
				"z": 3.5558842759,
				"element": "C" 
			},
			{
				"x": -1.5289007027,
				"y": 0.3209886121,
				"z": 2.3856953332,
				"element": "C" 
			},
			{
				"x": -2.5842191062,
				"y": 0.3592023084,
				"z": 1.410172389,
				"element": "C" 
			},
			{
				"x": -2.5456756614,
				"y": -0.4296320757,
				"z": 0.2793828849,
				"element": "C" 
			},
			{
				"x": -1.4899480853,
				"y": -1.3227807353,
				"z": 0.0420693856,
				"element": "C" 
			},
			{
				"x": -3.7677611261,
				"y": 1.2168823622,
				"z": 1.5375486121,
				"element": "N" 
			},
			{
				"x": -4.0527094863,
				"y": 1.6854872314,
				"z": 2.6431574266,
				"element": "O" 
			},
			{
				"x": -4.4429305744,
				"y": 1.4144040675,
				"z": 0.5238220617,
				"element": "O" 
			},
			{
				"x": 2.4913127911,
				"y": 0.3428724524,
				"z": -2.3546470715,
				"element": "H" 
			},
			{
				"x": 1.1005590559,
				"y": -0.3487292598,
				"z": -3.253675683,
				"element": "H" 
			},
			{
				"x": 2.6692724589,
				"y": -1.1881648775,
				"z": -3.2756986966,
				"element": "H" 
			},
			{
				"x": -0.2391564118,
				"y": -3.6880939789,
				"z": -0.4225896789,
				"element": "H" 
			},
			{
				"x": 1.4915153857,
				"y": -3.804222937,
				"z": -0.068501301,
				"element": "H" 
			},
			{
				"x": 1.4487698684,
				"y": -1.3528759828,
				"z": 2.8256180848,
				"element": "H" 
			},
			{
				"x": 1.5125607232,
				"y": 0.066421152,
				"z": 4.8545478108,
				"element": "H" 
			},
			{
				"x": -0.3527033855,
				"y": 1.6614534899,
				"z": 5.2992354297,
				"element": "H" 
			},
			{
				"x": -2.2577267468,
				"y": 1.8140957426,
				"z": 3.76711969,
				"element": "H" 
			},
			{
				"x": -3.3596158678,
				"y": -0.3510838417,
				"z": -0.4296930405,
				"element": "H" 
			},
			{
				"x": -1.5107100147,
				"y": -1.9275785725,
				"z": -0.8558177641,
				"element": "H" 
			}
		],
		 "valence_orbital": [ 
			{
				"type": "occ",
				"energy": -0.2963,
				"method": "rhf"
			},
			{
				"type": "occ",
				"energy": -0.28125,
				"method": "rhf"
			},
			{
				"type": "occ",
				"energy": -0.27388,
				"method": "rhf"
			},
			{
				"type": "occ",
				"energy": -0.26329,
				"method": "rhf"
			},
			{
				"type": "occ",
				"energy": -0.2279,
				"method": "rhf"
			},
			{
				"type": "unocc",
				"energy": -0.08439,
				"method": "rhf"
			},
			{
				"type": "unocc",
				"energy": -0.03293,
				"method": "rhf"
			},
			{
				"type": "unocc",
				"energy": -0.03022,
				"method": "rhf"
			},
			{
				"type": "unocc",
				"energy": -0.01179,
				"method": "rhf"
			},
			{
				"type": "unocc",
				"energy": 0.03331,
				"method": "rhf"
			}
		],
		"cosmo_sigma_profile": { 
			"-0.025": 0.0,
			"-0.024": 0.0,
			"-0.023": 0.0,
			"-0.022": 0.0,
			"-0.021": 0.0,
			"-0.02": 0.0,
			"-0.019": 0.0,
			"-0.018": 0.0,
			"-0.017": 0.0,
			"-0.016": 0.0,
			"-0.015": 0.0,
			"-0.014": 0.0,
			"-0.013": 0.0,
			"-0.012": 0.0,
			"-0.011": 0.0,
			"-0.01": 1.63156700839,
			"-0.009": 4.24708260215,
			"-0.008": 6.02196065917,
			"-0.007": 10.8344071324,
			"-0.006": 19.2215580719,
			"-0.005": 21.5412031496,
			"-0.004": 23.6831075978,
			"-0.003": 17.2799145699,
			"-0.002": 14.7920131383,
			"-0.001": 14.8296166976,
			"0.0": 20.6270091141,
			"0.001": 23.417915837,
			"0.002": 20.062300182,
			"0.003": 19.6289914953,
			"0.004": 12.9426754367,
			"0.005": 5.53984358923,
			"0.006": 6.51867524154,
			"0.007": 6.49729051651,
			"0.008": 10.5165790289,
			"0.009": 6.63859403109,
			"0.01": 6.763972541,
			"0.011": 6.19116507878,
			"0.012": 2.17918617059,
			"0.013": 0.065466991098,
			"0.014": 0.0,
			"0.015": 0.0,
			"0.016": 0.0,
			"0.017": 0.0,
			"0.018": 0.0,
			"0.019": 0.0,
			"0.02": 0.0,
			"0.021": 0.0,
			"0.022": 0.0,
			"0.023": 0.0,
			"0.024": 0.0,
			"0.025": 0.0
		}
	}
}
