{
	 "smiles": "CCSCCOP(=S)(OC)OC", 
	 "Tm": 298.15, 
	 "num_atms": 27, 
	 "gaussian": { 
		 "optdone": 1, 
		 "sigma_profile": "yes", 
		 "theory": "DFT", 
		 "functional": "B3LYP", 
		 "basiset": "6-31G**", 
		 "properties": { 
			 "R2extent": 3901.5072, 
			 "electric_dipole_moment_norm": 4.04504319631, 
			 "electric_quadrupole_moment_norm": 12.0936809, 
			 "total_energy": -1601.1345997, 
			 "HOMO_LUMO_gap": 0.25793, 
			 "cosmo_polarized_energy": -14.09, 
			 "cosmo_cavitation_energy": 33.53, 
			 "cosmo_dispersion_energy": -23.86, 
			 "cosmo_repulsion_energy": 1.82, 
			 "cosmo_total_nonelectrostatic_energy": 11.48, 
			 "SMD_solvation_energy": 6.56 
		},
		"coords": [
			{
				"x": -1.539914469,
				"y": 1.5838112615,
				"z": 1.992664563,
				"element": "C" 
			},
			{
				"x": -2.2875280552,
				"y": 2.0095043006,
				"z": 0.7279238148,
				"element": "C" 
			},
			{
				"x": -1.2088296557,
				"y": 2.2886551748,
				"z": -0.7406812078,
				"element": "S" 
			},
			{
				"x": -1.290579452,
				"y": 0.6770081273,
				"z": -1.6120341045,
				"element": "C" 
			},
			{
				"x": -0.8927356973,
				"y": -0.572449157,
				"z": -0.8292374558,
				"element": "C" 
			},
			{
				"x": 0.3977302286,
				"y": -0.496729082,
				"z": -0.1908747982,
				"element": "O" 
			},
			{
				"x": 1.7932564902,
				"y": -0.808968104,
				"z": -0.9584904197,
				"element": "P" 
			},
			{
				"x": 3.2692622044,
				"y": -0.9214949805,
				"z": 0.2854863757,
				"element": "S" 
			},
			{
				"x": 1.4709903066,
				"y": -2.093055586,
				"z": -1.8899706885,
				"element": "O" 
			},
			{
				"x": 1.6125258488,
				"y": -3.4232108341,
				"z": -1.3596704426,
				"element": "C" 
			},
			{
				"x": 1.8918530472,
				"y": 0.2566184241,
				"z": -2.1669959546,
				"element": "O" 
			},
			{
				"x": 2.4419992805,
				"y": 1.5707429107,
				"z": -1.9302738741,
				"element": "C" 
			},
			{
				"x": -2.246406347,
				"y": 1.4406406576,
				"z": 2.8192105207,
				"element": "H" 
			},
			{
				"x": -0.8197714721,
				"y": 2.3506856932,
				"z": 2.2914126449,
				"element": "H" 
			},
			{
				"x": -0.9827875199,
				"y": 0.6555117776,
				"z": 1.8456049987,
				"element": "H" 
			},
			{
				"x": -2.8001039641,
				"y": 2.9626575801,
				"z": 0.8889915772,
				"element": "H" 
			},
			{
				"x": -3.0593214896,
				"y": 1.2843982639,
				"z": 0.4472641777,
				"element": "H" 
			},
			{
				"x": -2.3084933212,
				"y": 0.5190108597,
				"z": -1.9881539777,
				"element": "H" 
			},
			{
				"x": -0.6352170521,
				"y": 0.8023251911,
				"z": -2.4775771199,
				"element": "H" 
			},
			{
				"x": -0.920405788,
				"y": -1.4352173398,
				"z": -1.5045696312,
				"element": "H" 
			},
			{
				"x": -1.594690494,
				"y": -0.7563691725,
				"z": -0.0120922313,
				"element": "H" 
			},
			{
				"x": 1.4158549285,
				"y": -4.0995752435,
				"z": -2.192476853,
				"element": "H" 
			},
			{
				"x": 0.8894043954,
				"y": -3.6050131494,
				"z": -0.5579765169,
				"element": "H" 
			},
			{
				"x": 2.6247325416,
				"y": -3.5785531572,
				"z": -0.9785011201,
				"element": "H" 
			},
			{
				"x": 1.7864559724,
				"y": 2.1465140024,
				"z": -1.2709632716,
				"element": "H" 
			},
			{
				"x": 2.4991516197,
				"y": 2.0478818816,
				"z": -2.9092964559,
				"element": "H" 
			},
			{
				"x": 3.4400679135,
				"y": 1.4903696998,
				"z": -1.4927225494,
				"element": "H" 
			}
		],
		 "valence_orbital": [ 
			{
				"type": "occ",
				"energy": -0.30967,
				"method": "rhf"
			},
			{
				"type": "occ",
				"energy": -0.29706,
				"method": "rhf"
			},
			{
				"type": "occ",
				"energy": -0.24172,
				"method": "rhf"
			},
			{
				"type": "occ",
				"energy": -0.23788,
				"method": "rhf"
			},
			{
				"type": "occ",
				"energy": -0.22534,
				"method": "rhf"
			},
			{
				"type": "unocc",
				"energy": 0.03259,
				"method": "rhf"
			},
			{
				"type": "unocc",
				"energy": 0.04248,
				"method": "rhf"
			},
			{
				"type": "unocc",
				"energy": 0.05374,
				"method": "rhf"
			},
			{
				"type": "unocc",
				"energy": 0.063,
				"method": "rhf"
			},
			{
				"type": "unocc",
				"energy": 0.07016,
				"method": "rhf"
			}
		],
		"cosmo_sigma_profile": { 
			"-0.025": 0.0,
			"-0.024": 0.0,
			"-0.023": 0.0,
			"-0.022": 0.0,
			"-0.021": 0.0,
			"-0.02": 0.0,
			"-0.019": 0.0,
			"-0.018": 0.0,
			"-0.017": 0.0,
			"-0.016": 0.0,
			"-0.015": 0.0,
			"-0.014": 0.0,
			"-0.013": 0.0,
			"-0.012": 0.0,
			"-0.011": 0.0,
			"-0.01": 0.0,
			"-0.009": 0.0,
			"-0.008": 0.0460133867079,
			"-0.007": 5.96790923256,
			"-0.006": 18.9052294436,
			"-0.005": 25.5210302501,
			"-0.004": 30.0676372642,
			"-0.003": 26.9262458616,
			"-0.002": 22.5604220076,
			"-0.001": 17.6771633874,
			"0.0": 16.5561361953,
			"0.001": 14.0249877143,
			"0.002": 9.13547007522,
			"0.003": 9.46972044201,
			"0.004": 8.43810696731,
			"0.005": 8.52007311539,
			"0.006": 10.7901920292,
			"0.007": 11.3524202796,
			"0.008": 11.5855297745,
			"0.009": 10.6232208013,
			"0.01": 6.46277271788,
			"0.011": 1.40828800831,
			"0.012": 0.0,
			"0.013": 0.0,
			"0.014": 0.0,
			"0.015": 0.0,
			"0.016": 0.0,
			"0.017": 0.0,
			"0.018": 0.0,
			"0.019": 0.0,
			"0.02": 0.0,
			"0.021": 0.0,
			"0.022": 0.0,
			"0.023": 0.0,
			"0.024": 0.0,
			"0.025": 0.0
		}
	}
}
