{
	 "smiles": "OC(=O)C1=CC(NC(=O)C2=CN=CC=C2)=CC=C1", 
	 "Tm": 578.15, 
	 "num_atms": 28, 
	 "gaussian": { 
		 "optdone": 1, 
		 "sigma_profile": "yes", 
		 "theory": "DFT", 
		 "functional": "B3LYP", 
		 "basiset": "6-31G**", 
		 "properties": { 
			 "R2extent": 6488.2553, 
			 "electric_dipole_moment_norm": 6.36980401818, 
			 "electric_quadrupole_moment_norm": 34.85193734, 
			 "total_energy": -836.606488317, 
			 "HOMO_LUMO_gap": 0.17315, 
			 "cosmo_polarized_energy": -22.34, 
			 "cosmo_cavitation_energy": 33.66, 
			 "cosmo_dispersion_energy": -24.58, 
			 "cosmo_repulsion_energy": 1.85, 
			 "cosmo_total_nonelectrostatic_energy": 10.93, 
			 "SMD_solvation_energy": 5.87 
		},
		"coords": [
			{
				"x": 0.2308594814,
				"y": 4.7013696061,
				"z": -0.6582239531,
				"element": "O" 
			},
			{
				"x": 0.5191879087,
				"y": 4.6157849288,
				"z": 0.6650558715,
				"element": "C" 
			},
			{
				"x": 0.9312682253,
				"y": 5.5853444724,
				"z": 1.2583863092,
				"element": "O" 
			},
			{
				"x": 0.2958200901,
				"y": 3.2855834405,
				"z": 1.3284289314,
				"element": "C" 
			},
			{
				"x": 0.1822383739,
				"y": 2.0996903053,
				"z": 0.5930347023,
				"element": "C" 
			},
			{
				"x": -0.0250633049,
				"y": 0.8841595728,
				"z": 1.2607346978,
				"element": "C" 
			},
			{
				"x": -0.1371343381,
				"y": -0.351191096,
				"z": 0.5911108044,
				"element": "N" 
			},
			{
				"x": -0.2123094499,
				"y": -0.5845304575,
				"z": -0.7649424206,
				"element": "C" 
			},
			{
				"x": -0.2123079056,
				"y": 0.3054153641,
				"z": -1.6101573365,
				"element": "O" 
			},
			{
				"x": -0.3129921948,
				"y": -2.0289427709,
				"z": -1.1619261053,
				"element": "C" 
			},
			{
				"x": 0.1175647286,
				"y": -3.1028876121,
				"z": -0.3701527187,
				"element": "C" 
			},
			{
				"x": 0.0294972724,
				"y": -4.3848661004,
				"z": -0.7372734593,
				"element": "N" 
			},
			{
				"x": -0.4968361829,
				"y": -4.6442897468,
				"z": -1.9403557445,
				"element": "C" 
			},
			{
				"x": -0.9313676726,
				"y": -3.6520844368,
				"z": -2.8235700315,
				"element": "C" 
			},
			{
				"x": -0.8316144823,
				"y": -2.3232007141,
				"z": -2.4293019345,
				"element": "C" 
			},
			{
				"x": -0.1101770899,
				"y": 0.8742106276,
				"z": 2.6617259312,
				"element": "C" 
			},
			{
				"x": 0.0179241114,
				"y": 2.0576106711,
				"z": 3.3847102515,
				"element": "C" 
			},
			{
				"x": 0.2270220758,
				"y": 3.2666752602,
				"z": 2.7261048308,
				"element": "C" 
			},
			{
				"x": -0.2055076711,
				"y": 3.8939615723,
				"z": -0.9646521373,
				"element": "H" 
			},
			{
				"x": 0.2760133179,
				"y": 2.0742497535,
				"z": -0.4841873182,
				"element": "H" 
			},
			{
				"x": -0.2701302624,
				"y": -1.1508816118,
				"z": 1.1926210374,
				"element": "H" 
			},
			{
				"x": 0.5900141764,
				"y": -2.9314096692,
				"z": 0.5969771969,
				"element": "H" 
			},
			{
				"x": -0.5674434352,
				"y": -5.695200737,
				"z": -2.2142936257,
				"element": "H" 
			},
			{
				"x": -1.3356344943,
				"y": -3.9209451363,
				"z": -3.7941277299,
				"element": "H" 
			},
			{
				"x": -1.1406813244,
				"y": -1.5053376123,
				"z": -3.0715867805,
				"element": "H" 
			},
			{
				"x": -0.2722824668,
				"y": -0.0655433853,
				"z": 3.1848552445,
				"element": "H" 
			},
			{
				"x": -0.0457381939,
				"y": 2.0307577794,
				"z": 4.4681511306,
				"element": "H" 
			},
			{
				"x": 0.3368107073,
				"y": 4.1994977323,
				"z": 3.2669543562,
				"element": "H" 
			}
		],
		 "valence_orbital": [ 
			{
				"type": "occ",
				"energy": -0.28366,
				"method": "rhf"
			},
			{
				"type": "occ",
				"energy": -0.27684,
				"method": "rhf"
			},
			{
				"type": "occ",
				"energy": -0.27044,
				"method": "rhf"
			},
			{
				"type": "occ",
				"energy": -0.26787,
				"method": "rhf"
			},
			{
				"type": "occ",
				"energy": -0.24208,
				"method": "rhf"
			},
			{
				"type": "unocc",
				"energy": -0.06893,
				"method": "rhf"
			},
			{
				"type": "unocc",
				"energy": -0.05118,
				"method": "rhf"
			},
			{
				"type": "unocc",
				"energy": -0.04404,
				"method": "rhf"
			},
			{
				"type": "unocc",
				"energy": -0.0172,
				"method": "rhf"
			},
			{
				"type": "unocc",
				"energy": 0.03344,
				"method": "rhf"
			}
		],
		"cosmo_sigma_profile": { 
			"-0.025": 0.0,
			"-0.024": 0.0,
			"-0.023": 0.0,
			"-0.022": 0.0,
			"-0.021": 0.0,
			"-0.02": 0.0,
			"-0.019": 0.0,
			"-0.018": 0.126561935466,
			"-0.017": 0.842421009654,
			"-0.016": 1.97543601785,
			"-0.015": 1.89737650334,
			"-0.014": 2.56056070151,
			"-0.013": 2.12274496643,
			"-0.012": 2.58064151398,
			"-0.011": 2.70415057175,
			"-0.01": 3.00043805517,
			"-0.009": 2.38053960543,
			"-0.008": 4.21746745534,
			"-0.007": 11.7200617333,
			"-0.006": 15.0568839893,
			"-0.005": 14.2243752799,
			"-0.004": 13.2295350772,
			"-0.003": 14.2787436477,
			"-0.002": 13.9223393445,
			"-0.001": 17.3584984802,
			"0.0": 22.3558462652,
			"0.001": 25.6371601152,
			"0.002": 19.7730524843,
			"0.003": 16.6140247783,
			"0.004": 7.39937239476,
			"0.005": 4.32635557465,
			"0.006": 5.72733301906,
			"0.007": 5.64163068206,
			"0.008": 5.38559152725,
			"0.009": 6.42643259665,
			"0.01": 6.96769644646,
			"0.011": 7.56571324102,
			"0.012": 7.79519460124,
			"0.013": 3.46995324097,
			"0.014": 0.785274445111,
			"0.015": 0.754986645663,
			"0.016": 0.611668634223,
			"0.017": 0.0101689918802,
			"0.018": 0.0,
			"0.019": 0.0,
			"0.02": 0.0,
			"0.021": 0.0,
			"0.022": 0.0,
			"0.023": 0.0,
			"0.024": 0.0,
			"0.025": 0.0
		}
	}
}
