{
	 "smiles": "NC1=CC=C(NC(=O)NCC2CCCO2)C=C1", 
	 "Tm": 415.15, 
	 "num_atms": 34, 
	 "gaussian": { 
		 "optdone": 1, 
		 "sigma_profile": "yes", 
		 "theory": "DFT", 
		 "functional": "B3LYP", 
		 "basiset": "6-31G**", 
		 "properties": { 
			 "R2extent": 8519.0927, 
			 "electric_dipole_moment_norm": 3.39754788929, 
			 "electric_quadrupole_moment_norm": 20.6040461063, 
			 "total_energy": -782.248341068, 
			 "HOMO_LUMO_gap": 0.18722, 
			 "cosmo_polarized_energy": -19.96, 
			 "cosmo_cavitation_energy": 36.76, 
			 "cosmo_dispersion_energy": -27.19, 
			 "cosmo_repulsion_energy": 2.13, 
			 "cosmo_total_nonelectrostatic_energy": 11.7, 
			 "SMD_solvation_energy": 5.23 
		},
		"coords": [
			{
				"x": -2.6914175668,
				"y": 1.4055674207,
				"z": 5.5895464706,
				"element": "N" 
			},
			{
				"x": -2.1098193263,
				"y": 0.6211505419,
				"z": 4.5807164103,
				"element": "C" 
			},
			{
				"x": -1.0814922421,
				"y": 1.1266341282,
				"z": 3.7711431886,
				"element": "C" 
			},
			{
				"x": -0.4516575739,
				"y": 0.3420257031,
				"z": 2.8080973822,
				"element": "C" 
			},
			{
				"x": -0.8431794448,
				"y": -0.9924889674,
				"z": 2.6247999742,
				"element": "C" 
			},
			{
				"x": -0.2685630992,
				"y": -1.8592197881,
				"z": 1.6672983386,
				"element": "N" 
			},
			{
				"x": 0.7501910961,
				"y": -1.5922240894,
				"z": 0.7709059719,
				"element": "C" 
			},
			{
				"x": 1.333924675,
				"y": -0.5159443225,
				"z": 0.683706738,
				"element": "O" 
			},
			{
				"x": 1.0826279224,
				"y": -2.6940792867,
				"z": -0.0087606843,
				"element": "N" 
			},
			{
				"x": 1.9698711442,
				"y": -2.5200517657,
				"z": -1.1477443753,
				"element": "C" 
			},
			{
				"x": 1.1999878869,
				"y": -2.3527342471,
				"z": -2.4583030989,
				"element": "C" 
			},
			{
				"x": 2.0813379787,
				"y": -2.3301957498,
				"z": -3.7185422378,
				"element": "C" 
			},
			{
				"x": 1.2267100525,
				"y": -3.0883030792,
				"z": -4.7463066285,
				"element": "C" 
			},
			{
				"x": 0.5416106407,
				"y": -4.1310354829,
				"z": -3.8602820114,
				"element": "C" 
			},
			{
				"x": 0.3010285933,
				"y": -3.4749257653,
				"z": -2.6125422062,
				"element": "O" 
			},
			{
				"x": -1.871342163,
				"y": -1.5036984547,
				"z": 3.4297025103,
				"element": "C" 
			},
			{
				"x": -2.4937125812,
				"y": -0.7150392412,
				"z": 4.3918463186,
				"element": "C" 
			},
			{
				"x": -3.6338849226,
				"y": 1.1323524921,
				"z": 5.8357768007,
				"element": "H" 
			},
			{
				"x": -2.6399928472,
				"y": 2.401364385,
				"z": 5.4185785582,
				"element": "H" 
			},
			{
				"x": -0.7597145186,
				"y": 2.1575497685,
				"z": 3.9005171186,
				"element": "H" 
			},
			{
				"x": 0.3410640314,
				"y": 0.7486488685,
				"z": 2.1962769255,
				"element": "H" 
			},
			{
				"x": -0.5887478351,
				"y": -2.8153114672,
				"z": 1.7160063857,
				"element": "H" 
			},
			{
				"x": 0.3620707971,
				"y": -3.3869923934,
				"z": -0.1697290503,
				"element": "H" 
			},
			{
				"x": 2.5846753394,
				"y": -1.638773355,
				"z": -0.9519294389,
				"element": "H" 
			},
			{
				"x": 2.6266929565,
				"y": -3.3957052117,
				"z": -1.2263571948,
				"element": "H" 
			},
			{
				"x": 0.5838049741,
				"y": -1.445167325,
				"z": -2.3920441977,
				"element": "H" 
			},
			{
				"x": 2.3358957964,
				"y": -1.3133887846,
				"z": -4.0281053339,
				"element": "H" 
			},
			{
				"x": 3.0197499664,
				"y": -2.8686411316,
				"z": -3.534902279,
				"element": "H" 
			},
			{
				"x": 1.8122363978,
				"y": -3.532997813,
				"z": -5.5560817515,
				"element": "H" 
			},
			{
				"x": 0.4803669383,
				"y": -2.4209627843,
				"z": -5.1910195433,
				"element": "H" 
			},
			{
				"x": 1.1910380792,
				"y": -5.0087941635,
				"z": -3.7138603019,
				"element": "H" 
			},
			{
				"x": -0.4181967429,
				"y": -4.481322616,
				"z": -4.2541144788,
				"element": "H" 
			},
			{
				"x": -2.1948010473,
				"y": -2.5349774845,
				"z": 3.3013379854,
				"element": "H" 
			},
			{
				"x": -3.2834633554,
				"y": -1.142118538,
				"z": 5.0051677349,
				"element": "H" 
			}
		],
		 "valence_orbital": [ 
			{
				"type": "occ",
				"energy": -0.25828,
				"method": "rhf"
			},
			{
				"type": "occ",
				"energy": -0.25432,
				"method": "rhf"
			},
			{
				"type": "occ",
				"energy": -0.23859,
				"method": "rhf"
			},
			{
				"type": "occ",
				"energy": -0.23482,
				"method": "rhf"
			},
			{
				"type": "occ",
				"energy": -0.17682,
				"method": "rhf"
			},
			{
				"type": "unocc",
				"energy": 0.0104,
				"method": "rhf"
			},
			{
				"type": "unocc",
				"energy": 0.02367,
				"method": "rhf"
			},
			{
				"type": "unocc",
				"energy": 0.07065,
				"method": "rhf"
			},
			{
				"type": "unocc",
				"energy": 0.07695,
				"method": "rhf"
			},
			{
				"type": "unocc",
				"energy": 0.08569,
				"method": "rhf"
			}
		],
		"cosmo_sigma_profile": { 
			"-0.025": 0.0,
			"-0.024": 0.0,
			"-0.023": 0.0,
			"-0.022": 0.0,
			"-0.021": 0.0,
			"-0.02": 0.0,
			"-0.019": 0.0,
			"-0.018": 0.0,
			"-0.017": 0.138235382204,
			"-0.016": 1.09504380788,
			"-0.015": 1.44957291952,
			"-0.014": 1.24322073645,
			"-0.013": 1.75339339359,
			"-0.012": 2.70057198861,
			"-0.011": 3.70380461086,
			"-0.01": 4.83840127755,
			"-0.009": 4.02636317418,
			"-0.008": 5.28610382108,
			"-0.007": 4.9894544313,
			"-0.006": 6.13246765626,
			"-0.005": 7.90029492294,
			"-0.004": 22.5348090667,
			"-0.003": 32.75499694,
			"-0.002": 32.5889227512,
			"-0.001": 22.5677665232,
			"0.0": 17.9296696701,
			"0.001": 11.2401531442,
			"0.002": 10.0853202236,
			"0.003": 12.5674625367,
			"0.004": 13.4984721978,
			"0.005": 13.1388057764,
			"0.006": 14.9524833262,
			"0.007": 12.3368863223,
			"0.008": 5.55626956788,
			"0.009": 3.53930960684,
			"0.01": 2.52303304291,
			"0.011": 3.08623036618,
			"0.012": 3.79714605847,
			"0.013": 3.55444266135,
			"0.014": 4.16833824643,
			"0.015": 0.553129658085,
			"0.016": 0.326723158007,
			"0.017": 0.0,
			"0.018": 0.0,
			"0.019": 0.0,
			"0.02": 0.0,
			"0.021": 0.0,
			"0.022": 0.0,
			"0.023": 0.0,
			"0.024": 0.0,
			"0.025": 0.0
		}
	}
}
