{
	 "smiles": "COC(OC)(OC)OC", 
	 "Tm": 268.15, 
	 "num_atms": 21, 
	 "gaussian": { 
		 "optdone": 1, 
		 "sigma_profile": "yes", 
		 "theory": "DFT", 
		 "functional": "B3LYP", 
		 "basiset": "6-31G**", 
		 "properties": { 
			 "R2extent": 1939.8977, 
			 "electric_dipole_moment_norm": 0.0003, 
			 "electric_quadrupole_moment_norm": 8.97364636032, 
			 "total_energy": -498.622149039, 
			 "HOMO_LUMO_gap": 0.35127, 
			 "cosmo_polarized_energy": -9.21, 
			 "cosmo_cavitation_energy": 22.78, 
			 "cosmo_dispersion_energy": -16.69, 
			 "cosmo_repulsion_energy": 1.36, 
			 "cosmo_total_nonelectrostatic_energy": 7.45, 
			 "SMD_solvation_energy": 6.13 
		},
		"coords": [
			{
				"x": -2.0621274461,
				"y": 1.2376481869,
				"z": -0.3024050269,
				"element": "C" 
			},
			{
				"x": -1.3334628454,
				"y": 1.615372239,
				"z": 0.8654132525,
				"element": "O" 
			},
			{
				"x": 0.0534882371,
				"y": 1.5292463096,
				"z": 0.7346304136,
				"element": "C" 
			},
			{
				"x": 0.5516969011,
				"y": 2.3092346979,
				"z": -0.3101519107,
				"element": "O" 
			},
			{
				"x": 0.2419606255,
				"y": 3.6990348539,
				"z": -0.2102650083,
				"element": "C" 
			},
			{
				"x": 0.4901817043,
				"y": 0.247753374,
				"z": 0.3951613463,
				"element": "O" 
			},
			{
				"x": 0.1081320643,
				"y": -0.771206069,
				"z": 1.318854631,
				"element": "C" 
			},
			{
				"x": 0.5056206602,
				"y": 1.9446282172,
				"z": 1.9881120132,
				"element": "O" 
			},
			{
				"x": 1.9257183761,
				"y": 1.9513664246,
				"z": 2.1320649756,
				"element": "C" 
			},
			{
				"x": -3.1164285598,
				"y": 1.3558476276,
				"z": -0.0460935395,
				"element": "H" 
			},
			{
				"x": -1.8659417245,
				"y": 0.1972656553,
				"z": -0.5821262118,
				"element": "H" 
			},
			{
				"x": -1.8171360253,
				"y": 1.8780011921,
				"z": -1.1562588681,
				"element": "H" 
			},
			{
				"x": -0.8391062658,
				"y": 3.873415715,
				"z": -0.2149323759,
				"element": "H" 
			},
			{
				"x": 0.6927051269,
				"y": 4.1677600468,
				"z": -1.0868173802,
				"element": "H" 
			},
			{
				"x": 0.6603380902,
				"y": 4.1418575506,
				"z": 0.6996898768,
				"element": "H" 
			},
			{
				"x": 0.5195058662,
				"y": -1.7011754233,
				"z": 0.9224352405,
				"element": "H" 
			},
			{
				"x": -0.9806621379,
				"y": -0.8557090181,
				"z": 1.3997765427,
				"element": "H" 
			},
			{
				"x": 0.5162779666,
				"y": -0.5846914931,
				"z": 2.317733862,
				"element": "H" 
			},
			{
				"x": 2.1197026032,
				"y": 2.2949332338,
				"z": 3.1496851313,
				"element": "H" 
			},
			{
				"x": 2.4010351196,
				"y": 2.6313601545,
				"z": 1.417345463,
				"element": "H" 
			},
			{
				"x": 2.3506016633,
				"y": 0.9515565246,
				"z": 1.9941475729,
				"element": "H" 
			}
		],
		 "valence_orbital": [ 
			{
				"type": "occ",
				"energy": -0.30561,
				"method": "rhf"
			},
			{
				"type": "occ",
				"energy": -0.28391,
				"method": "rhf"
			},
			{
				"type": "occ",
				"energy": -0.27914,
				"method": "rhf"
			},
			{
				"type": "occ",
				"energy": -0.27913,
				"method": "rhf"
			},
			{
				"type": "occ",
				"energy": -0.26737,
				"method": "rhf"
			},
			{
				"type": "unocc",
				"energy": 0.0839,
				"method": "rhf"
			},
			{
				"type": "unocc",
				"energy": 0.12108,
				"method": "rhf"
			},
			{
				"type": "unocc",
				"energy": 0.12399,
				"method": "rhf"
			},
			{
				"type": "unocc",
				"energy": 0.12401,
				"method": "rhf"
			},
			{
				"type": "unocc",
				"energy": 0.13485,
				"method": "rhf"
			}
		],
		"cosmo_sigma_profile": { 
			"-0.025": 0.0,
			"-0.024": 0.0,
			"-0.023": 0.0,
			"-0.022": 0.0,
			"-0.021": 0.0,
			"-0.02": 0.0,
			"-0.019": 0.0,
			"-0.018": 0.0,
			"-0.017": 0.0,
			"-0.016": 0.0,
			"-0.015": 0.0,
			"-0.014": 0.0,
			"-0.013": 0.0,
			"-0.012": 0.0,
			"-0.011": 0.0,
			"-0.01": 0.0,
			"-0.009": 0.0,
			"-0.008": 0.0,
			"-0.007": 0.0,
			"-0.006": 4.48495374605,
			"-0.005": 11.9286711968,
			"-0.004": 29.7548978209,
			"-0.003": 32.3187450224,
			"-0.002": 28.3078965381,
			"-0.001": 12.1284675333,
			"0.0": 6.21982636469,
			"0.001": 4.31803544842,
			"0.002": 5.44066773675,
			"0.003": 4.70562495546,
			"0.004": 3.61916710177,
			"0.005": 3.48045138281,
			"0.006": 3.96928084507,
			"0.007": 2.85506888342,
			"0.008": 3.37732075751,
			"0.009": 2.88705282086,
			"0.01": 3.50163182908,
			"0.011": 3.49062284545,
			"0.012": 4.18892967067,
			"0.013": 5.34280563556,
			"0.014": 1.36116235308,
			"0.015": 0.0,
			"0.016": 0.0,
			"0.017": 0.0,
			"0.018": 0.0,
			"0.019": 0.0,
			"0.02": 0.0,
			"0.021": 0.0,
			"0.022": 0.0,
			"0.023": 0.0,
			"0.024": 0.0,
			"0.025": 0.0
		}
	}
}
