{
	 "smiles": "CN1C=C(C)C(C(C)=O)=C1C", 
	 "Tm": 354.65, 
	 "num_atms": 24, 
	 "gaussian": { 
		 "optdone": 1, 
		 "sigma_profile": "yes", 
		 "theory": "DFT", 
		 "functional": "B3LYP", 
		 "basiset": "6-31G**", 
		 "properties": { 
			 "R2extent": 2125.6029, 
			 "electric_dipole_moment_norm": 4.12845110059, 
			 "electric_quadrupole_moment_norm": 10.3927792731, 
			 "total_energy": -480.775416294, 
			 "HOMO_LUMO_gap": 0.19126, 
			 "cosmo_polarized_energy": -10.47, 
			 "cosmo_cavitation_energy": 26.22, 
			 "cosmo_dispersion_energy": -19.01, 
			 "cosmo_repulsion_energy": 1.51, 
			 "cosmo_total_nonelectrostatic_energy": 8.72, 
			 "SMD_solvation_energy": 5.48 
		},
		"coords": [
			{
				"x": -1.0036458623,
				"y": -2.0527634442,
				"z": 2.5970244395,
				"element": "C" 
			},
			{
				"x": -0.9173864587,
				"y": -0.9196162412,
				"z": 1.689779275,
				"element": "N" 
			},
			{
				"x": -1.9970296081,
				"y": -0.4030338797,
				"z": 0.9913949808,
				"element": "C" 
			},
			{
				"x": -1.5810541645,
				"y": 0.6581453492,
				"z": 0.2288662995,
				"element": "C" 
			},
			{
				"x": -2.4965802201,
				"y": 1.4544064664,
				"z": -0.6575373113,
				"element": "C" 
			},
			{
				"x": -0.1632458328,
				"y": 0.7999231177,
				"z": 0.4744982723,
				"element": "C" 
			},
			{
				"x": 0.8104752898,
				"y": 1.7590247965,
				"z": -0.0629589611,
				"element": "C" 
			},
			{
				"x": 0.3493423232,
				"y": 2.8276527862,
				"z": -1.044599456,
				"element": "C" 
			},
			{
				"x": 1.9968699826,
				"y": 1.7191752763,
				"z": 0.2636037902,
				"element": "O" 
			},
			{
				"x": 0.2054781624,
				"y": -0.2002813497,
				"z": 1.3878255566,
				"element": "C" 
			},
			{
				"x": 1.5437338081,
				"y": -0.5078161135,
				"z": 1.9809134941,
				"element": "C" 
			},
			{
				"x": -0.3621147141,
				"y": -2.8759611302,
				"z": 2.2680169216,
				"element": "H" 
			},
			{
				"x": -2.0357942885,
				"y": -2.4056771548,
				"z": 2.6125406903,
				"element": "H" 
			},
			{
				"x": -0.7198880778,
				"y": -1.7704659376,
				"z": 3.615597224,
				"element": "H" 
			},
			{
				"x": -2.9795317231,
				"y": -0.8405817163,
				"z": 1.0983753381,
				"element": "H" 
			},
			{
				"x": -2.538785429,
				"y": 2.511928877,
				"z": -0.3737339033,
				"element": "H" 
			},
			{
				"x": -3.5154243827,
				"y": 1.0599283676,
				"z": -0.5958706478,
				"element": "H" 
			},
			{
				"x": -2.1960464235,
				"y": 1.417668649,
				"z": -1.7106433987,
				"element": "H" 
			},
			{
				"x": -0.4192604331,
				"y": 3.4697129639,
				"z": -0.6016334736,
				"element": "H" 
			},
			{
				"x": 1.2126576713,
				"y": 3.4346516421,
				"z": -1.3206558967,
				"element": "H" 
			},
			{
				"x": -0.0825078087,
				"y": 2.3799351841,
				"z": -1.9458400028,
				"element": "H" 
			},
			{
				"x": 1.4918935553,
				"y": -1.3391011166,
				"z": 2.6890504042,
				"element": "H" 
			},
			{
				"x": 2.2683316329,
				"y": -0.7558581415,
				"z": 1.1998197484,
				"element": "H" 
			},
			{
				"x": 1.9512130013,
				"y": 0.3682027494,
				"z": 2.4925666166,
				"element": "H" 
			}
		],
		 "valence_orbital": [ 
			{
				"type": "occ",
				"energy": -0.34033,
				"method": "rhf"
			},
			{
				"type": "occ",
				"energy": -0.3328,
				"method": "rhf"
			},
			{
				"type": "occ",
				"energy": -0.22969,
				"method": "rhf"
			},
			{
				"type": "occ",
				"energy": -0.22279,
				"method": "rhf"
			},
			{
				"type": "occ",
				"energy": -0.20365,
				"method": "rhf"
			},
			{
				"type": "unocc",
				"energy": -0.01239,
				"method": "rhf"
			},
			{
				"type": "unocc",
				"energy": 0.04778,
				"method": "rhf"
			},
			{
				"type": "unocc",
				"energy": 0.08565,
				"method": "rhf"
			},
			{
				"type": "unocc",
				"energy": 0.09091,
				"method": "rhf"
			},
			{
				"type": "unocc",
				"energy": 0.09741,
				"method": "rhf"
			}
		],
		"cosmo_sigma_profile": { 
			"-0.025": 0.0,
			"-0.024": 0.0,
			"-0.023": 0.0,
			"-0.022": 0.0,
			"-0.021": 0.0,
			"-0.02": 0.0,
			"-0.019": 0.0,
			"-0.018": 0.0,
			"-0.017": 0.0,
			"-0.016": 0.0,
			"-0.015": 0.0,
			"-0.014": 0.0,
			"-0.013": 0.0,
			"-0.012": 0.0,
			"-0.011": 0.0,
			"-0.01": 0.0,
			"-0.009": 0.0,
			"-0.008": 0.907782192076,
			"-0.007": 3.75083516562,
			"-0.006": 7.76531915702,
			"-0.005": 16.0712667727,
			"-0.004": 21.2437009867,
			"-0.003": 23.5107899051,
			"-0.002": 19.619152486,
			"-0.001": 21.0648396032,
			"0.0": 21.9989365295,
			"0.001": 13.9581923855,
			"0.002": 6.48899224839,
			"0.003": 6.78043744507,
			"0.004": 8.10887938119,
			"0.005": 7.47865913119,
			"0.006": 6.54695320656,
			"0.007": 4.86402303538,
			"0.008": 2.9917702944,
			"0.009": 0.781635304074,
			"0.01": 1.63030013567,
			"0.011": 1.89826340817,
			"0.012": 1.6996903271,
			"0.013": 2.78977128747,
			"0.014": 2.83654806141,
			"0.015": 1.26072982114,
			"0.016": 0.0551984293799,
			"0.017": 0.0,
			"0.018": 0.0,
			"0.019": 0.0,
			"0.02": 0.0,
			"0.021": 0.0,
			"0.022": 0.0,
			"0.023": 0.0,
			"0.024": 0.0,
			"0.025": 0.0
		}
	}
}
