{
	 "smiles": "CC(=O)OC1CCC2(C)C(CCC3C4CCC(=O)C4(C)CCC23)C1", 
	 "Tm": 411.15, 
	 "num_atms": 56, 
	 "gaussian": { 
		 "optdone": 1, 
		 "sigma_profile": "yes", 
		 "theory": "DFT", 
		 "functional": "B3LYP", 
		 "basiset": "6-31G**", 
		 "properties": { 
			 "R2extent": 9698.9606, 
			 "electric_dipole_moment_norm": 2.97730308333, 
			 "electric_quadrupole_moment_norm": 24.8453788534, 
			 "total_energy": -1045.24270802, 
			 "HOMO_LUMO_gap": 0.21707, 
			 "cosmo_polarized_energy": -12.73, 
			 "cosmo_cavitation_energy": 49.02, 
			 "cosmo_dispersion_energy": -33.7, 
			 "cosmo_repulsion_energy": 2.51, 
			 "cosmo_total_nonelectrostatic_energy": 17.83, 
			 "SMD_solvation_energy": 8.35 
		},
		"coords": [
			{
				"x": -2.0873038086,
				"y": 5.3124177635,
				"z": -0.0030404746,
				"element": "C" 
			},
			{
				"x": -2.65248102,
				"y": 4.282452344,
				"z": -0.9544370614,
				"element": "C" 
			},
			{
				"x": -3.2230428477,
				"y": 4.5322731186,
				"z": -1.9946668549,
				"element": "O" 
			},
			{
				"x": -2.438400514,
				"y": 3.0311197408,
				"z": -0.4865503686,
				"element": "O" 
			},
			{
				"x": -2.9405725894,
				"y": 1.9231917854,
				"z": -1.2957271252,
				"element": "C" 
			},
			{
				"x": -1.9120260471,
				"y": 1.5572122959,
				"z": -2.3692924955,
				"element": "C" 
			},
			{
				"x": -0.6306929755,
				"y": 0.9489984231,
				"z": -1.7762322151,
				"element": "C" 
			},
			{
				"x": -0.8856542449,
				"y": -0.2714487351,
				"z": -0.8498165591,
				"element": "C" 
			},
			{
				"x": -1.4472666812,
				"y": -1.447281424,
				"z": -1.682239621,
				"element": "C" 
			},
			{
				"x": -1.8899427154,
				"y": 0.191184229,
				"z": 0.2542874493,
				"element": "C" 
			},
			{
				"x": -2.1467065712,
				"y": -0.8977895758,
				"z": 1.3043063893,
				"element": "C" 
			},
			{
				"x": -0.8356818098,
				"y": -1.3182737235,
				"z": 1.9799293835,
				"element": "C" 
			},
			{
				"x": 0.2400834472,
				"y": -1.742259912,
				"z": 0.9648758992,
				"element": "C" 
			},
			{
				"x": 1.5626689898,
				"y": -2.1675517076,
				"z": 1.6559248369,
				"element": "C" 
			},
			{
				"x": 2.2546387138,
				"y": -1.0759629756,
				"z": 2.5436646194,
				"element": "C" 
			},
			{
				"x": 3.4891620131,
				"y": -0.578106576,
				"z": 1.7808837661,
				"element": "C" 
			},
			{
				"x": 3.8564344816,
				"y": -1.7135489747,
				"z": 0.8353380633,
				"element": "C" 
			},
			{
				"x": 4.9334524677,
				"y": -1.8670716771,
				"z": 0.2979363635,
				"element": "O" 
			},
			{
				"x": 2.6463030318,
				"y": -2.6533114185,
				"z": 0.6354939633,
				"element": "C" 
			},
			{
				"x": 3.099791931,
				"y": -4.100831641,
				"z": 0.8928770099,
				"element": "C" 
			},
			{
				"x": 2.1726397492,
				"y": -2.4999842532,
				"z": -0.8290293285,
				"element": "C" 
			},
			{
				"x": 1.5871620946,
				"y": -1.1106973034,
				"z": -1.1249712917,
				"element": "C" 
			},
			{
				"x": 0.453837512,
				"y": -0.6757990526,
				"z": -0.1394687266,
				"element": "C" 
			},
			{
				"x": -3.1924568681,
				"y": 0.7680007861,
				"z": -0.3274802275,
				"element": "C" 
			},
			{
				"x": -2.295564601,
				"y": 6.3114264175,
				"z": -0.3846921065,
				"element": "H" 
			},
			{
				"x": -2.5287736269,
				"y": 5.1907013775,
				"z": 0.9903503966,
				"element": "H" 
			},
			{
				"x": -1.0071214095,
				"y": 5.172499922,
				"z": 0.1015402726,
				"element": "H" 
			},
			{
				"x": -3.8686451588,
				"y": 2.259522467,
				"z": -1.764911897,
				"element": "H" 
			},
			{
				"x": -2.3879890667,
				"y": 0.8509380554,
				"z": -3.0604930733,
				"element": "H" 
			},
			{
				"x": -1.6783618375,
				"y": 2.4487859386,
				"z": -2.9594588686,
				"element": "H" 
			},
			{
				"x": -0.1129243566,
				"y": 1.7229093212,
				"z": -1.1945291252,
				"element": "H" 
			},
			{
				"x": 0.0438828658,
				"y": 0.6738176379,
				"z": -2.5948245946,
				"element": "H" 
			},
			{
				"x": -1.617457369,
				"y": -2.3432979373,
				"z": -1.0803492209,
				"element": "H" 
			},
			{
				"x": -2.4002203332,
				"y": -1.1969259504,
				"z": -2.1552089418,
				"element": "H" 
			},
			{
				"x": -0.7595372444,
				"y": -1.7219727886,
				"z": -2.4880661065,
				"element": "H" 
			},
			{
				"x": -1.3962139459,
				"y": 1.0232382347,
				"z": 0.7786009098,
				"element": "H" 
			},
			{
				"x": -2.6342972659,
				"y": -1.7669368943,
				"z": 0.8433011515,
				"element": "H" 
			},
			{
				"x": -2.8485518917,
				"y": -0.521188574,
				"z": 2.0594710103,
				"element": "H" 
			},
			{
				"x": -1.013635465,
				"y": -2.1375057505,
				"z": 2.6888722944,
				"element": "H" 
			},
			{
				"x": -0.4720165562,
				"y": -0.4705931464,
				"z": 2.575372534,
				"element": "H" 
			},
			{
				"x": -0.1369105997,
				"y": -2.652397527,
				"z": 0.4776756088,
				"element": "H" 
			},
			{
				"x": 1.296944749,
				"y": -3.0073051708,
				"z": 2.3090391661,
				"element": "H" 
			},
			{
				"x": 2.5699719594,
				"y": -1.5318082168,
				"z": 3.4882833061,
				"element": "H" 
			},
			{
				"x": 1.5784585723,
				"y": -0.2597705701,
				"z": 2.808368475,
				"element": "H" 
			},
			{
				"x": 3.2552831885,
				"y": 0.2971668897,
				"z": 1.1590763657,
				"element": "H" 
			},
			{
				"x": 4.3406526612,
				"y": -0.3010743712,
				"z": 2.4082802744,
				"element": "H" 
			},
			{
				"x": 3.422323126,
				"y": -4.2411837685,
				"z": 1.9305896294,
				"element": "H" 
			},
			{
				"x": 3.9410677664,
				"y": -4.3554641953,
				"z": 0.2419369446,
				"element": "H" 
			},
			{
				"x": 2.2797055379,
				"y": -4.800606925,
				"z": 0.6982117874,
				"element": "H" 
			},
			{
				"x": 1.4278879455,
				"y": -3.2768190444,
				"z": -1.0426442307,
				"element": "H" 
			},
			{
				"x": 3.0249930751,
				"y": -2.6923578281,
				"z": -1.4901183269,
				"element": "H" 
			},
			{
				"x": 1.2285524867,
				"y": -1.1033011326,
				"z": -2.1583285007,
				"element": "H" 
			},
			{
				"x": 2.3980845221,
				"y": -0.3732058892,
				"z": -1.1008769514,
				"element": "H" 
			},
			{
				"x": 0.7898959897,
				"y": 0.2390472634,
				"z": 0.3715384536,
				"element": "H" 
			},
			{
				"x": -3.7584310825,
				"y": -0.0078494647,
				"z": -0.8580939626,
				"element": "H" 
			},
			{
				"x": -3.8364983741,
				"y": 1.1192800838,
				"z": 0.4873219328,
				"element": "H" 
			}
		],
		 "valence_orbital": [ 
			{
				"type": "occ",
				"energy": -0.29186,
				"method": "rhf"
			},
			{
				"type": "occ",
				"energy": -0.27712,
				"method": "rhf"
			},
			{
				"type": "occ",
				"energy": -0.2738,
				"method": "rhf"
			},
			{
				"type": "occ",
				"energy": -0.26697,
				"method": "rhf"
			},
			{
				"type": "occ",
				"energy": -0.23317,
				"method": "rhf"
			},
			{
				"type": "unocc",
				"energy": -0.0161,
				"method": "rhf"
			},
			{
				"type": "unocc",
				"energy": 0.01469,
				"method": "rhf"
			},
			{
				"type": "unocc",
				"energy": 0.06296,
				"method": "rhf"
			},
			{
				"type": "unocc",
				"energy": 0.07182,
				"method": "rhf"
			},
			{
				"type": "unocc",
				"energy": 0.08049,
				"method": "rhf"
			}
		],
		"cosmo_sigma_profile": { 
			"-0.025": 0.0,
			"-0.024": 0.0,
			"-0.023": 0.0,
			"-0.022": 0.0,
			"-0.021": 0.0,
			"-0.02": 0.0,
			"-0.019": 0.0,
			"-0.018": 0.0,
			"-0.017": 0.0,
			"-0.016": 0.0,
			"-0.015": 0.0,
			"-0.014": 0.0,
			"-0.013": 0.0,
			"-0.012": 0.0,
			"-0.011": 0.0,
			"-0.01": 0.0,
			"-0.009": 0.0,
			"-0.008": 0.0,
			"-0.007": 0.386547027396,
			"-0.006": 3.94279916523,
			"-0.005": 12.5277968442,
			"-0.004": 21.6658427446,
			"-0.003": 47.0511151864,
			"-0.002": 64.9409502606,
			"-0.001": 65.623737426,
			"0.0": 53.4318356383,
			"0.001": 37.8961047141,
			"0.002": 13.7885203077,
			"0.003": 6.38825337851,
			"0.004": 4.87067230412,
			"0.005": 5.17175131203,
			"0.006": 4.85077123681,
			"0.007": 4.38015343835,
			"0.008": 3.70542761305,
			"0.009": 3.30925595501,
			"0.01": 3.22777670769,
			"0.011": 5.27935526823,
			"0.012": 8.56426647096,
			"0.013": 5.22645593294,
			"0.014": 0.394573799839,
			"0.015": 0.0,
			"0.016": 0.0,
			"0.017": 0.0,
			"0.018": 0.0,
			"0.019": 0.0,
			"0.02": 0.0,
			"0.021": 0.0,
			"0.022": 0.0,
			"0.023": 0.0,
			"0.024": 0.0,
			"0.025": 0.0
		}
	}
}
