{
	 "smiles": "CN1C2=CC=CC=C2SC2=C1C=CC=C2", 
	 "Tm": 374.65, 
	 "num_atms": 26, 
	 "gaussian": { 
		 "optdone": 1, 
		 "sigma_profile": "yes", 
		 "theory": "DFT", 
		 "functional": "B3LYP", 
		 "basiset": "6-31G**", 
		 "properties": { 
			 "R2extent": 3646.8674, 
			 "electric_dipole_moment_norm": 2.19618571847, 
			 "electric_quadrupole_moment_norm": 8.41311235334, 
			 "total_energy": -954.950744894, 
			 "HOMO_LUMO_gap": 0.17266, 
			 "cosmo_polarized_energy": -7.45, 
			 "cosmo_cavitation_energy": 29.72, 
			 "cosmo_dispersion_energy": -22.7, 
			 "cosmo_repulsion_energy": 1.67, 
			 "cosmo_total_nonelectrostatic_energy": 8.69, 
			 "SMD_solvation_energy": 4.02 
		},
		"coords": [
			{
				"x": -0.6278055205,
				"y": -0.7423297033,
				"z": 1.8672909063,
				"element": "C" 
			},
			{
				"x": -0.2950096622,
				"y": -0.7540687637,
				"z": 0.4517781432,
				"element": "N" 
			},
			{
				"x": -0.6895435407,
				"y": 0.3525070466,
				"z": -0.3363054248,
				"element": "C" 
			},
			{
				"x": -1.0856893466,
				"y": 1.5706697152,
				"z": 0.2371946415,
				"element": "C" 
			},
			{
				"x": -1.5068073882,
				"y": 2.6337183279,
				"z": -0.564574935,
				"element": "C" 
			},
			{
				"x": -1.50619792,
				"y": 2.5167759594,
				"z": -1.9524844552,
				"element": "C" 
			},
			{
				"x": -1.0829067287,
				"y": 1.3213980158,
				"z": -2.5371697845,
				"element": "C" 
			},
			{
				"x": -0.697824745,
				"y": 0.2427735327,
				"z": -1.7416495756,
				"element": "C" 
			},
			{
				"x": -0.300172703,
				"y": -1.3228596736,
				"z": -2.4932491608,
				"element": "S" 
			},
			{
				"x": 0.9447096407,
				"y": -1.8615360575,
				"z": -1.3380967194,
				"element": "C" 
			},
			{
				"x": 0.7952120115,
				"y": -1.5499836087,
				"z": 0.0285454913,
				"element": "C" 
			},
			{
				"x": 1.7431677879,
				"y": -2.0542498284,
				"z": 0.9323480523,
				"element": "C" 
			},
			{
				"x": 2.7878842942,
				"y": -2.8689383842,
				"z": 0.4906516052,
				"element": "C" 
			},
			{
				"x": 2.9297849103,
				"y": -3.1662902955,
				"z": -0.8626466157,
				"element": "C" 
			},
			{
				"x": 2.0124384284,
				"y": -2.6439125612,
				"z": -1.7767378028,
				"element": "C" 
			},
			{
				"x": -1.6522726403,
				"y": -0.3841804219,
				"z": 1.9884613278,
				"element": "H" 
			},
			{
				"x": 0.0360898816,
				"y": -0.1077847448,
				"z": 2.4748151844,
				"element": "H" 
			},
			{
				"x": -0.5765689033,
				"y": -1.7627383552,
				"z": 2.2528311865,
				"element": "H" 
			},
			{
				"x": -1.0642088855,
				"y": 1.6966475007,
				"z": 1.3133763421,
				"element": "H" 
			},
			{
				"x": -1.8213447085,
				"y": 3.5603218643,
				"z": -0.0934539296,
				"element": "H" 
			},
			{
				"x": -1.8246868736,
				"y": 3.3447072828,
				"z": -2.578016295,
				"element": "H" 
			},
			{
				"x": -1.0645217836,
				"y": 1.2131844938,
				"z": -3.6175725141,
				"element": "H" 
			},
			{
				"x": 1.6723344595,
				"y": -1.8104962574,
				"z": 1.9859497652,
				"element": "H" 
			},
			{
				"x": 3.4991942832,
				"y": -3.2568788871,
				"z": 1.2138568307,
				"element": "H" 
			},
			{
				"x": 3.7461367549,
				"y": -3.7920162185,
				"z": -1.2093906808,
				"element": "H" 
			},
			{
				"x": 2.1112088974,
				"y": -2.8547399781,
				"z": -2.8374515834,
				"element": "H" 
			}
		],
		 "valence_orbital": [ 
			{
				"type": "occ",
				"energy": -0.29076,
				"method": "rhf"
			},
			{
				"type": "occ",
				"energy": -0.25421,
				"method": "rhf"
			},
			{
				"type": "occ",
				"energy": -0.25016,
				"method": "rhf"
			},
			{
				"type": "occ",
				"energy": -0.22323,
				"method": "rhf"
			},
			{
				"type": "occ",
				"energy": -0.18488,
				"method": "rhf"
			},
			{
				"type": "unocc",
				"energy": -0.01222,
				"method": "rhf"
			},
			{
				"type": "unocc",
				"energy": -0.00577,
				"method": "rhf"
			},
			{
				"type": "unocc",
				"energy": -0.00045,
				"method": "rhf"
			},
			{
				"type": "unocc",
				"energy": 0.01563,
				"method": "rhf"
			},
			{
				"type": "unocc",
				"energy": 0.0409,
				"method": "rhf"
			}
		],
		"cosmo_sigma_profile": { 
			"-0.025": 0.0,
			"-0.024": 0.0,
			"-0.023": 0.0,
			"-0.022": 0.0,
			"-0.021": 0.0,
			"-0.02": 0.0,
			"-0.019": 0.0,
			"-0.018": 0.0,
			"-0.017": 0.0,
			"-0.016": 0.0,
			"-0.015": 0.0,
			"-0.014": 0.0,
			"-0.013": 0.0,
			"-0.012": 0.0,
			"-0.011": 0.0,
			"-0.01": 0.0,
			"-0.009": 0.0,
			"-0.008": 0.0,
			"-0.007": 0.818813201182,
			"-0.006": 13.8996432951,
			"-0.005": 24.2269014933,
			"-0.004": 25.7356390967,
			"-0.003": 21.4351141143,
			"-0.002": 17.0690328342,
			"-0.001": 13.2809385121,
			"0.0": 11.4174126107,
			"0.001": 15.1927929026,
			"0.002": 14.970727787,
			"0.003": 18.9417896694,
			"0.004": 22.9628348565,
			"0.005": 22.7566424431,
			"0.006": 10.7849854328,
			"0.007": 4.2860736536,
			"0.008": 1.9326707751,
			"0.009": 0.476834568449,
			"0.01": 0.0,
			"0.011": 0.0,
			"0.012": 0.0,
			"0.013": 0.0,
			"0.014": 0.0,
			"0.015": 0.0,
			"0.016": 0.0,
			"0.017": 0.0,
			"0.018": 0.0,
			"0.019": 0.0,
			"0.02": 0.0,
			"0.021": 0.0,
			"0.022": 0.0,
			"0.023": 0.0,
			"0.024": 0.0,
			"0.025": 0.0
		}
	}
}
