{
	 "smiles": "O=C1CC(=O)NC2=C(N1)C=CC=C2", 
	 "Tm": 657.15, 
	 "num_atms": 21, 
	 "gaussian": { 
		 "optdone": 1, 
		 "sigma_profile": "yes", 
		 "theory": "DFT", 
		 "functional": "B3LYP", 
		 "basiset": "6-31G**", 
		 "properties": { 
			 "R2extent": 2465.7011, 
			 "electric_dipole_moment_norm": 5.74961984917, 
			 "electric_quadrupole_moment_norm": 8.42819970694, 
			 "total_energy": -607.762023246, 
			 "HOMO_LUMO_gap": 0.19867, 
			 "cosmo_polarized_energy": -17.94, 
			 "cosmo_cavitation_energy": 25.09, 
			 "cosmo_dispersion_energy": -18.7, 
			 "cosmo_repulsion_energy": 1.47, 
			 "cosmo_total_nonelectrostatic_energy": 7.86, 
			 "SMD_solvation_energy": 5.47 
		},
		"coords": [
			{
				"x": -2.2096682851,
				"y": -2.0652374174,
				"z": -2.0822428463,
				"element": "O" 
			},
			{
				"x": -1.3121576129,
				"y": -1.7387003926,
				"z": -1.3261312788,
				"element": "C" 
			},
			{
				"x": -1.1924530726,
				"y": -2.249750953,
				"z": 0.1025833173,
				"element": "C" 
			},
			{
				"x": -1.3264566428,
				"y": -1.140212222,
				"z": 1.1358771205,
				"element": "C" 
			},
			{
				"x": -2.232780393,
				"y": -1.0858881078,
				"z": 1.9479642502,
				"element": "O" 
			},
			{
				"x": -0.3355613986,
				"y": -0.1761424516,
				"z": 1.1063218721,
				"element": "N" 
			},
			{
				"x": 0.8349746034,
				"y": -0.1271645572,
				"z": 0.3245758999,
				"element": "C" 
			},
			{
				"x": 0.842919394,
				"y": -0.4604569236,
				"z": -1.0467473183,
				"element": "C" 
			},
			{
				"x": -0.319112713,
				"y": -0.8659432507,
				"z": -1.7315654034,
				"element": "N" 
			},
			{
				"x": 2.0341480241,
				"y": -0.3162674581,
				"z": -1.7751423168,
				"element": "C" 
			},
			{
				"x": 3.1920769383,
				"y": 0.1698456885,
				"z": -1.1791127746,
				"element": "C" 
			},
			{
				"x": 3.1842092348,
				"y": 0.4998159064,
				"z": 0.1786162818,
				"element": "C" 
			},
			{
				"x": 2.0185405947,
				"y": 0.3383887172,
				"z": 0.9185518444,
				"element": "C" 
			},
			{
				"x": -1.9946029293,
				"y": -2.9646848333,
				"z": 0.2717273509,
				"element": "H" 
			},
			{
				"x": -0.2204278253,
				"y": -2.7440927656,
				"z": 0.2283736674,
				"element": "H" 
			},
			{
				"x": -0.3997134498,
				"y": 0.4749957705,
				"z": 1.8793543231,
				"element": "H" 
			},
			{
				"x": -0.3731805057,
				"y": -0.6422725367,
				"z": -2.7178318707,
				"element": "H" 
			},
			{
				"x": 2.0314644673,
				"y": -0.5833001597,
				"z": -2.8285205795,
				"element": "H" 
			},
			{
				"x": 4.0959674228,
				"y": 0.2829619381,
				"z": -1.7690334424,
				"element": "H" 
			},
			{
				"x": 4.0818944932,
				"y": 0.8734360462,
				"z": 0.6606848624,
				"element": "H" 
			},
			{
				"x": 2.0036196556,
				"y": 0.5845699622,
				"z": 1.9768970408,
				"element": "H" 
			}
		],
		 "valence_orbital": [ 
			{
				"type": "occ",
				"energy": -0.31202,
				"method": "rhf"
			},
			{
				"type": "occ",
				"energy": -0.27456,
				"method": "rhf"
			},
			{
				"type": "occ",
				"energy": -0.25942,
				"method": "rhf"
			},
			{
				"type": "occ",
				"energy": -0.25113,
				"method": "rhf"
			},
			{
				"type": "occ",
				"energy": -0.2301,
				"method": "rhf"
			},
			{
				"type": "unocc",
				"energy": -0.03143,
				"method": "rhf"
			},
			{
				"type": "unocc",
				"energy": -0.0232,
				"method": "rhf"
			},
			{
				"type": "unocc",
				"energy": 0.00994,
				"method": "rhf"
			},
			{
				"type": "unocc",
				"energy": 0.03352,
				"method": "rhf"
			},
			{
				"type": "unocc",
				"energy": 0.07446,
				"method": "rhf"
			}
		],
		"cosmo_sigma_profile": { 
			"-0.025": 0.0,
			"-0.024": 0.0,
			"-0.023": 0.0,
			"-0.022": 0.0,
			"-0.021": 0.0,
			"-0.02": 0.0,
			"-0.019": 0.0,
			"-0.018": 0.0,
			"-0.017": 0.0,
			"-0.016": 0.0503975268815,
			"-0.015": 1.42635874749,
			"-0.014": 1.9544113212,
			"-0.013": 2.31598937747,
			"-0.012": 2.18101144412,
			"-0.011": 2.54737040383,
			"-0.01": 2.18739871492,
			"-0.009": 2.49705588702,
			"-0.008": 5.59552598197,
			"-0.007": 8.31919275938,
			"-0.006": 12.47891531,
			"-0.005": 12.9426165827,
			"-0.004": 13.9840479692,
			"-0.003": 11.8914685334,
			"-0.002": 10.6046488888,
			"-0.001": 11.076698113,
			"0.0": 8.92687557535,
			"0.001": 11.9113854767,
			"0.002": 13.398854165,
			"0.003": 10.4622601918,
			"0.004": 10.0096434134,
			"0.005": 6.58442102968,
			"0.006": 2.87301739912,
			"0.007": 2.51495834086,
			"0.008": 2.32095302097,
			"0.009": 2.00239964733,
			"0.01": 3.03532132751,
			"0.011": 4.26012228518,
			"0.012": 8.75797157394,
			"0.013": 9.50270645321,
			"0.014": 1.47076936768,
			"0.015": 0.0,
			"0.016": 0.0,
			"0.017": 0.0,
			"0.018": 0.0,
			"0.019": 0.0,
			"0.02": 0.0,
			"0.021": 0.0,
			"0.022": 0.0,
			"0.023": 0.0,
			"0.024": 0.0,
			"0.025": 0.0
		}
	}
}
