{
	 "smiles": "BrC1=CC(Br)=C(NN=C(/C#N)C2=NC3=C(S2)C=CC=C3)C(Br)=C1", 
	 "Tm": 452.15, 
	 "num_atms": 30, 
	 "gaussian": { 
		 "optdone": 1, 
		 "sigma_profile": "yes", 
		 "theory": "DFT", 
		 "functional": "B3LYP", 
		 "basiset": "6-31G**", 
		 "properties": { 
			 "R2extent": 24167.9103, 
			 "electric_dipole_moment_norm": 3.01404302557, 
			 "electric_quadrupole_moment_norm": 17.70355454, 
			 "total_energy": -8907.16170796, 
			 "HOMO_LUMO_gap": 0.13172, 
			 "cosmo_polarized_energy": -12.67, 
			 "cosmo_cavitation_energy": 45.93, 
			 "cosmo_dispersion_energy": -33.22, 
			 "cosmo_repulsion_energy": 2.47, 
			 "cosmo_total_nonelectrostatic_energy": 15.19, 
			 "SMD_solvation_energy": 3.2 
		},
		"coords": [
			{
				"x": 3.3387160436,
				"y": -3.7661673705,
				"z": -7.0237569332,
				"element": "Br" 
			},
			{
				"x": 2.8163079596,
				"y": -3.2134824555,
				"z": -5.2796876907,
				"element": "C" 
			},
			{
				"x": 1.4709256873,
				"y": -2.9943727436,
				"z": -5.0017883064,
				"element": "C" 
			},
			{
				"x": 1.0818253093,
				"y": -2.5970928203,
				"z": -3.7235944609,
				"element": "C" 
			},
			{
				"x": -0.7911095982,
				"y": -2.4630722008,
				"z": -3.4150226743,
				"element": "Br" 
			},
			{
				"x": 2.0344737731,
				"y": -2.3722403318,
				"z": -2.7075992778,
				"element": "C" 
			},
			{
				"x": 1.7115042983,
				"y": -1.9704754894,
				"z": -1.4060179352,
				"element": "N" 
			},
			{
				"x": 0.7854346093,
				"y": -1.049473151,
				"z": -1.1715321482,
				"element": "N" 
			},
			{
				"x": 0.5771354633,
				"y": -0.6375671341,
				"z": 0.0481278528,
				"element": "C" 
			},
			{
				"x": 1.3387639316,
				"y": -1.1454580211,
				"z": 1.1575173484,
				"element": "C" 
			},
			{
				"x": 2.0307592511,
				"y": -1.6415147494,
				"z": 1.9512415616,
				"element": "N" 
			},
			{
				"x": -0.4462868233,
				"y": 0.3703438272,
				"z": 0.2976763112,
				"element": "C" 
			},
			{
				"x": -0.6902709304,
				"y": 0.8438783695,
				"z": 1.4823701726,
				"element": "N" 
			},
			{
				"x": -1.7024412856,
				"y": 1.7835720464,
				"z": 1.4379249061,
				"element": "C" 
			},
			{
				"x": -2.2448261602,
				"y": 2.027223271,
				"z": 0.150256967,
				"element": "C" 
			},
			{
				"x": -1.4313912222,
				"y": 1.0180266661,
				"z": -1.031474016,
				"element": "S" 
			},
			{
				"x": -3.2731890569,
				"y": 2.9527951778,
				"z": -0.0407528097,
				"element": "C" 
			},
			{
				"x": -3.7553920993,
				"y": 3.6351443642,
				"z": 1.073769455,
				"element": "C" 
			},
			{
				"x": -3.2254530933,
				"y": 3.4019319744,
				"z": 2.355769644,
				"element": "C" 
			},
			{
				"x": -2.2030562828,
				"y": 2.4820476223,
				"z": 2.5479465146,
				"element": "C" 
			},
			{
				"x": 3.384387961,
				"y": -2.6239279118,
				"z": -3.0312783789,
				"element": "C" 
			},
			{
				"x": 4.7390888563,
				"y": -2.3874267445,
				"z": -1.7045555545,
				"element": "Br" 
			},
			{
				"x": 3.7836938446,
				"y": -3.0470711098,
				"z": -4.2932593821,
				"element": "C" 
			},
			{
				"x": 0.7186005344,
				"y": -3.1524896662,
				"z": -5.7632073041,
				"element": "H" 
			},
			{
				"x": 2.3682571827,
				"y": -2.2214702415,
				"z": -0.6661897202,
				"element": "H" 
			},
			{
				"x": -3.6869491607,
				"y": 3.1379587624,
				"z": -1.0267629253,
				"element": "H" 
			},
			{
				"x": -4.5545867775,
				"y": 4.3594854105,
				"z": 0.948311052,
				"element": "H" 
			},
			{
				"x": -3.6226252897,
				"y": 3.9496602764,
				"z": 3.2048424165,
				"element": "H" 
			},
			{
				"x": -1.7822419074,
				"y": 2.2893551285,
				"z": 3.5290948107,
				"element": "H" 
			},
			{
				"x": 4.8299449822,
				"y": -3.2274207558,
				"z": -4.501669495,
				"element": "H" 
			}
		],
		 "valence_orbital": [ 
			{
				"type": "occ",
				"energy": -0.28839,
				"method": "rhf"
			},
			{
				"type": "occ",
				"energy": -0.2677,
				"method": "rhf"
			},
			{
				"type": "occ",
				"energy": -0.25941,
				"method": "rhf"
			},
			{
				"type": "occ",
				"energy": -0.24138,
				"method": "rhf"
			},
			{
				"type": "occ",
				"energy": -0.22515,
				"method": "rhf"
			},
			{
				"type": "unocc",
				"energy": -0.09343,
				"method": "rhf"
			},
			{
				"type": "unocc",
				"energy": -0.05273,
				"method": "rhf"
			},
			{
				"type": "unocc",
				"energy": -0.04695,
				"method": "rhf"
			},
			{
				"type": "unocc",
				"energy": -0.03734,
				"method": "rhf"
			},
			{
				"type": "unocc",
				"energy": -0.02229,
				"method": "rhf"
			}
		],
		"cosmo_sigma_profile": { 
			"-0.025": 0.0,
			"-0.024": 0.0,
			"-0.023": 0.0,
			"-0.022": 0.0,
			"-0.021": 0.0,
			"-0.02": 0.0,
			"-0.019": 0.0,
			"-0.018": 0.0,
			"-0.017": 0.0,
			"-0.016": 0.0,
			"-0.015": 0.0,
			"-0.014": 0.0,
			"-0.013": 0.0558002711762,
			"-0.012": 0.773004279119,
			"-0.011": 0.551871842068,
			"-0.01": 1.03009786274,
			"-0.009": 3.33412132317,
			"-0.008": 5.27352109336,
			"-0.007": 9.81264052353,
			"-0.006": 15.6516573366,
			"-0.005": 19.4011589219,
			"-0.004": 21.67006147,
			"-0.003": 23.4726583293,
			"-0.002": 28.0715619786,
			"-0.001": 38.1021700275,
			"0.0": 41.9850788582,
			"0.001": 31.4808239409,
			"0.002": 41.0572873962,
			"0.003": 44.40471186,
			"0.004": 25.1225608274,
			"0.005": 7.57026641374,
			"0.006": 5.89263651748,
			"0.007": 4.85258667649,
			"0.008": 3.59287005767,
			"0.009": 3.70334090611,
			"0.01": 3.37691926807,
			"0.011": 3.174408869,
			"0.012": 1.47973448724,
			"0.013": 0.0863998605342,
			"0.014": 0.0,
			"0.015": 0.0,
			"0.016": 0.0,
			"0.017": 0.0,
			"0.018": 0.0,
			"0.019": 0.0,
			"0.02": 0.0,
			"0.021": 0.0,
			"0.022": 0.0,
			"0.023": 0.0,
			"0.024": 0.0,
			"0.025": 0.0
		}
	}
}
