{
	 "smiles": "OC(=O)CCC1=CC=C(Cl)S1", 
	 "Tm": 324.15, 
	 "num_atms": 18, 
	 "gaussian": { 
		 "optdone": 1, 
		 "sigma_profile": "yes", 
		 "theory": "DFT", 
		 "functional": "B3LYP", 
		 "basiset": "6-31G**", 
		 "properties": { 
			 "R2extent": 5965.5445, 
			 "electric_dipole_moment_norm": 2.84314950187, 
			 "electric_quadrupole_moment_norm": 18.3799924119, 
			 "total_energy": -1279.78171338, 
			 "HOMO_LUMO_gap": 0.20404, 
			 "cosmo_polarized_energy": -15.23, 
			 "cosmo_cavitation_energy": 26.32, 
			 "cosmo_dispersion_energy": -19.62, 
			 "cosmo_repulsion_energy": 1.56, 
			 "cosmo_total_nonelectrostatic_energy": 8.25, 
			 "SMD_solvation_energy": 4.96 
		},
		"coords": [
			{
				"x": -1.1281958246,
				"y": -3.4476563673,
				"z": -0.0561950215,
				"element": "O" 
			},
			{
				"x": -0.8403465178,
				"y": -2.3131458512,
				"z": 0.6368029868,
				"element": "C" 
			},
			{
				"x": -1.6775462395,
				"y": -1.8032119619,
				"z": 1.3378098489,
				"element": "O" 
			},
			{
				"x": 0.571246017,
				"y": -1.7719637121,
				"z": 0.4454232705,
				"element": "C" 
			},
			{
				"x": 0.8310860446,
				"y": -0.5128581792,
				"z": 1.2892189917,
				"element": "C" 
			},
			{
				"x": 2.1923470309,
				"y": 0.0836926012,
				"z": 1.0720389504,
				"element": "C" 
			},
			{
				"x": 2.5159233355,
				"y": 1.2420687276,
				"z": 0.4180409043,
				"element": "C" 
			},
			{
				"x": 3.9179279713,
				"y": 1.5175158948,
				"z": 0.3698804901,
				"element": "C" 
			},
			{
				"x": 4.6477895289,
				"y": 0.5491053853,
				"z": 0.9955455133,
				"element": "C" 
			},
			{
				"x": 6.3695254869,
				"y": 0.4888028854,
				"z": 1.1744052712,
				"element": "Cl" 
			},
			{
				"x": 3.6420388375,
				"y": -0.7127605157,
				"z": 1.6593642998,
				"element": "S" 
			},
			{
				"x": -0.3588750178,
				"y": -3.7345800526,
				"z": -0.5687499328,
				"element": "H" 
			},
			{
				"x": 0.7230792138,
				"y": -1.5518481133,
				"z": -0.6197954204,
				"element": "H" 
			},
			{
				"x": 1.2900630315,
				"y": -2.5632514239,
				"z": 0.697332974,
				"element": "H" 
			},
			{
				"x": 0.0790601027,
				"y": 0.241226694,
				"z": 1.0388591382,
				"element": "H" 
			},
			{
				"x": 0.6700864868,
				"y": -0.7564783518,
				"z": 2.3449730204,
				"element": "H" 
			},
			{
				"x": 1.7662518969,
				"y": 1.8932138447,
				"z": -0.0191463854,
				"element": "H" 
			},
			{
				"x": 4.3599386154,
				"y": 2.387228496,
				"z": -0.1001088996,
				"element": "H" 
			}
		],
		 "valence_orbital": [ 
			{
				"type": "occ",
				"energy": -0.32388,
				"method": "rhf"
			},
			{
				"type": "occ",
				"energy": -0.32286,
				"method": "rhf"
			},
			{
				"type": "occ",
				"energy": -0.28091,
				"method": "rhf"
			},
			{
				"type": "occ",
				"energy": -0.26601,
				"method": "rhf"
			},
			{
				"type": "occ",
				"energy": -0.232,
				"method": "rhf"
			},
			{
				"type": "unocc",
				"energy": -0.02796,
				"method": "rhf"
			},
			{
				"type": "unocc",
				"energy": -0.00092,
				"method": "rhf"
			},
			{
				"type": "unocc",
				"energy": 0.00834,
				"method": "rhf"
			},
			{
				"type": "unocc",
				"energy": 0.02365,
				"method": "rhf"
			},
			{
				"type": "unocc",
				"energy": 0.04766,
				"method": "rhf"
			}
		],
		"cosmo_sigma_profile": { 
			"-0.025": 0.0,
			"-0.024": 0.0,
			"-0.023": 0.0,
			"-0.022": 0.0,
			"-0.021": 0.0,
			"-0.02": 0.0,
			"-0.019": 0.542992644401,
			"-0.018": 1.35769350614,
			"-0.017": 1.16223811474,
			"-0.016": 1.04353881423,
			"-0.015": 1.06657426279,
			"-0.014": 1.17320686255,
			"-0.013": 1.20368481986,
			"-0.012": 0.973393783904,
			"-0.011": 1.02148908052,
			"-0.01": 1.73719345898,
			"-0.009": 1.34678388624,
			"-0.008": 2.81013583036,
			"-0.007": 8.40683349308,
			"-0.006": 11.7917357856,
			"-0.005": 12.7953349862,
			"-0.004": 10.7585211293,
			"-0.003": 10.7873471846,
			"-0.002": 10.2036085509,
			"-0.001": 12.0812111762,
			"0.0": 13.6217200666,
			"0.001": 14.9975608933,
			"0.002": 19.131161024,
			"0.003": 22.0476713646,
			"0.004": 19.4129789508,
			"0.005": 5.12567879427,
			"0.006": 2.05275907162,
			"0.007": 2.15197658659,
			"0.008": 2.28489680517,
			"0.009": 3.71959408588,
			"0.01": 4.83932786892,
			"0.011": 5.26367566382,
			"0.012": 5.31767772602,
			"0.013": 1.52250081665,
			"0.014": 0.0116844100987,
			"0.015": 0.0,
			"0.016": 0.0,
			"0.017": 0.0,
			"0.018": 0.0,
			"0.019": 0.0,
			"0.02": 0.0,
			"0.021": 0.0,
			"0.022": 0.0,
			"0.023": 0.0,
			"0.024": 0.0,
			"0.025": 0.0
		}
	}
}
