{
	 "smiles": "NC(=O)CBr", 
	 "Tm": 362.15, 
	 "num_atms": 9, 
	 "gaussian": { 
		 "optdone": 1, 
		 "sigma_profile": "yes", 
		 "theory": "DFT", 
		 "functional": "B3LYP", 
		 "basiset": "6-31G**", 
		 "properties": { 
			 "R2extent": 1960.1727, 
			 "electric_dipole_moment_norm": 1.96411662841, 
			 "electric_quadrupole_moment_norm": 5.59638994442, 
			 "total_energy": -2780.01899875, 
			 "HOMO_LUMO_gap": 0.24748, 
			 "cosmo_polarized_energy": -10.42, 
			 "cosmo_cavitation_energy": 15.13, 
			 "cosmo_dispersion_energy": -11.98, 
			 "cosmo_repulsion_energy": 1.08, 
			 "cosmo_total_nonelectrostatic_energy": 4.23, 
			 "SMD_solvation_energy": 2.57 
		},
		"coords": [
			{
				"x": 0.1734237785,
				"y": 0.4304787495,
				"z": -0.1689993096,
				"element": "N" 
			},
			{
				"x": 1.4734029268,
				"y": 0.1517634496,
				"z": 0.0791544803,
				"element": "C" 
			},
			{
				"x": 2.1181112384,
				"y": -0.7205346114,
				"z": -0.4844508707,
				"element": "O" 
			},
			{
				"x": 2.2046194924,
				"y": 0.97825764,
				"z": 1.1383878955,
				"element": "C" 
			},
			{
				"x": 1.1726019241,
				"y": 2.3956628512,
				"z": 2.0615690311,
				"element": "Br" 
			},
			{
				"x": -0.3148714584,
				"y": 1.1619283262,
				"z": 0.3237131173,
				"element": "H" 
			},
			{
				"x": -0.303210548,
				"y": -0.1174310025,
				"z": -0.8684806404,
				"element": "H" 
			},
			{
				"x": 2.5656462215,
				"y": 0.3087258743,
				"z": 1.9175078969,
				"element": "H" 
			},
			{
				"x": 3.0528764248,
				"y": 1.4756487231,
				"z": 0.6706983996,
				"element": "H" 
			}
		],
		 "valence_orbital": [ 
			{
				"type": "occ",
				"energy": -0.39051,
				"method": "rhf"
			},
			{
				"type": "occ",
				"energy": -0.30368,
				"method": "rhf"
			},
			{
				"type": "occ",
				"energy": -0.2928,
				"method": "rhf"
			},
			{
				"type": "occ",
				"energy": -0.27639,
				"method": "rhf"
			},
			{
				"type": "occ",
				"energy": -0.25969,
				"method": "rhf"
			},
			{
				"type": "unocc",
				"energy": -0.01221,
				"method": "rhf"
			},
			{
				"type": "unocc",
				"energy": 0.0169,
				"method": "rhf"
			},
			{
				"type": "unocc",
				"energy": 0.07953,
				"method": "rhf"
			},
			{
				"type": "unocc",
				"energy": 0.11207,
				"method": "rhf"
			},
			{
				"type": "unocc",
				"energy": 0.1333,
				"method": "rhf"
			}
		],
		"cosmo_sigma_profile": { 
			"-0.025": 0.0,
			"-0.024": 0.0,
			"-0.023": 0.0,
			"-0.022": 0.0,
			"-0.021": 0.0,
			"-0.02": 0.0,
			"-0.019": 0.0,
			"-0.018": 0.0,
			"-0.017": 0.0,
			"-0.016": 0.0,
			"-0.015": 0.367140395412,
			"-0.014": 1.35018649724,
			"-0.013": 1.74534040811,
			"-0.012": 1.68197349559,
			"-0.011": 2.11591096246,
			"-0.01": 2.36946469962,
			"-0.009": 4.16845529664,
			"-0.008": 5.30006760096,
			"-0.007": 5.19939457273,
			"-0.006": 4.14000386073,
			"-0.005": 5.74615036036,
			"-0.004": 5.51747262848,
			"-0.003": 5.87210819894,
			"-0.002": 7.04284498903,
			"-0.001": 5.66262052524,
			"0.0": 6.29329516143,
			"0.001": 7.66191309645,
			"0.002": 7.22514965285,
			"0.003": 7.39435981741,
			"0.004": 6.00358794591,
			"0.005": 9.28371254519,
			"0.006": 2.79555333523,
			"0.007": 1.35638658747,
			"0.008": 0.932050597293,
			"0.009": 1.33142611706,
			"0.01": 1.51013202242,
			"0.011": 1.28275747218,
			"0.012": 2.42654023832,
			"0.013": 6.34041051337,
			"0.014": 2.82313356612,
			"0.015": 0.0254889447603,
			"0.016": 0.0,
			"0.017": 0.0,
			"0.018": 0.0,
			"0.019": 0.0,
			"0.02": 0.0,
			"0.021": 0.0,
			"0.022": 0.0,
			"0.023": 0.0,
			"0.024": 0.0,
			"0.025": 0.0
		}
	}
}
