{
	 "smiles": "CN1CC(N)C(=O)N1", 
	 "Tm": 329.15, 
	 "num_atms": 17, 
	 "gaussian": { 
		 "optdone": 1, 
		 "sigma_profile": "yes", 
		 "theory": "DFT", 
		 "functional": "B3LYP", 
		 "basiset": "6-31G**", 
		 "properties": { 
			 "R2extent": 923.882, 
			 "electric_dipole_moment_norm": 2.82649347779, 
			 "electric_quadrupole_moment_norm": 10.3893287237, 
			 "total_energy": -397.28811156, 
			 "HOMO_LUMO_gap": 0.23321, 
			 "cosmo_polarized_energy": -13.4, 
			 "cosmo_cavitation_energy": 19.56, 
			 "cosmo_dispersion_energy": -14.78, 
			 "cosmo_repulsion_energy": 1.26, 
			 "cosmo_total_nonelectrostatic_energy": 6.03, 
			 "SMD_solvation_energy": 1.61 
		},
		"coords": [
			{
				"x": 0.3131310763,
				"y": -0.4905660534,
				"z": 1.8567899788,
				"element": "C" 
			},
			{
				"x": 0.3313489394,
				"y": -1.1773056149,
				"z": 0.5499173219,
				"element": "N" 
			},
			{
				"x": 1.0788692246,
				"y": -0.4165583074,
				"z": -0.4881221968,
				"element": "C" 
			},
			{
				"x": 0.0562679188,
				"y": 0.4759506278,
				"z": -1.2121191753,
				"element": "C" 
			},
			{
				"x": -0.0944228712,
				"y": 1.8022554085,
				"z": -0.6019441845,
				"element": "N" 
			},
			{
				"x": -1.252550824,
				"y": -0.3084492203,
				"z": -0.9848624412,
				"element": "C" 
			},
			{
				"x": -2.3101209823,
				"y": -0.1586207703,
				"z": -1.5756662877,
				"element": "O" 
			},
			{
				"x": -0.9849407351,
				"y": -1.2064727994,
				"z": 0.0045395721,
				"element": "N" 
			},
			{
				"x": -0.3090022446,
				"y": -1.0679639027,
				"z": 2.5469519842,
				"element": "H" 
			},
			{
				"x": -0.0639924043,
				"y": 0.5383651564,
				"z": 1.7955607675,
				"element": "H" 
			},
			{
				"x": 1.3341656663,
				"y": -0.4866182392,
				"z": 2.2499573041,
				"element": "H" 
			},
			{
				"x": 1.8926286884,
				"y": 0.1440436446,
				"z": -0.0231600689,
				"element": "H" 
			},
			{
				"x": 1.5050270375,
				"y": -1.1366972642,
				"z": -1.1958894424,
				"element": "H" 
			},
			{
				"x": 0.2504900664,
				"y": 0.4995456211,
				"z": -2.2949850321,
				"element": "H" 
			},
			{
				"x": -0.9524418218,
				"y": 2.2257692253,
				"z": -0.9511180128,
				"element": "H" 
			},
			{
				"x": 0.6691972522,
				"y": 2.4074305205,
				"z": -0.8948767417,
				"element": "H" 
			},
			{
				"x": -1.6133539865,
				"y": -1.9468080323,
				"z": 0.2805266546,
				"element": "H" 
			}
		],
		 "valence_orbital": [ 
			{
				"type": "occ",
				"energy": -0.36297,
				"method": "rhf"
			},
			{
				"type": "occ",
				"energy": -0.29053,
				"method": "rhf"
			},
			{
				"type": "occ",
				"energy": -0.25665,
				"method": "rhf"
			},
			{
				"type": "occ",
				"energy": -0.2436,
				"method": "rhf"
			},
			{
				"type": "occ",
				"energy": -0.21183,
				"method": "rhf"
			},
			{
				"type": "unocc",
				"energy": 0.02138,
				"method": "rhf"
			},
			{
				"type": "unocc",
				"energy": 0.08196,
				"method": "rhf"
			},
			{
				"type": "unocc",
				"energy": 0.10055,
				"method": "rhf"
			},
			{
				"type": "unocc",
				"energy": 0.11691,
				"method": "rhf"
			},
			{
				"type": "unocc",
				"energy": 0.12531,
				"method": "rhf"
			}
		],
		"cosmo_sigma_profile": { 
			"-0.025": 0.0,
			"-0.024": 0.0,
			"-0.023": 0.0,
			"-0.022": 0.0,
			"-0.021": 0.0,
			"-0.02": 0.0,
			"-0.019": 0.0,
			"-0.018": 0.0,
			"-0.017": 0.0,
			"-0.016": 0.0219743575298,
			"-0.015": 0.849558292314,
			"-0.014": 1.54618806823,
			"-0.013": 0.883059418159,
			"-0.012": 0.615814376052,
			"-0.011": 1.62124855128,
			"-0.01": 3.03644031161,
			"-0.009": 3.27081993735,
			"-0.008": 3.79943244259,
			"-0.007": 3.4402777664,
			"-0.006": 6.06646322145,
			"-0.005": 13.4664709732,
			"-0.004": 16.7906496071,
			"-0.003": 11.5901632981,
			"-0.002": 10.6057345429,
			"-0.001": 11.2655243039,
			"0.0": 7.46086124898,
			"0.001": 4.6165635937,
			"0.002": 5.65171274992,
			"0.003": 5.57606358728,
			"0.004": 4.43681115972,
			"0.005": 3.27131195741,
			"0.006": 2.07372904982,
			"0.007": 3.069304162,
			"0.008": 2.4497663358,
			"0.009": 2.48109402273,
			"0.01": 2.67675655067,
			"0.011": 2.54770837739,
			"0.012": 3.73592396537,
			"0.013": 5.60067145646,
			"0.014": 6.13356333609,
			"0.015": 1.37920954416,
			"0.016": 0.093720221339,
			"0.017": 0.0,
			"0.018": 0.0,
			"0.019": 0.0,
			"0.02": 0.0,
			"0.021": 0.0,
			"0.022": 0.0,
			"0.023": 0.0,
			"0.024": 0.0,
			"0.025": 0.0
		}
	}
}
