{
	 "smiles": "OCC1=C(NC(=O)C2=CC=CO2)C=CC=C1", 
	 "Tm": 369.15, 
	 "num_atms": 27, 
	 "gaussian": { 
		 "optdone": 1, 
		 "sigma_profile": "yes", 
		 "theory": "DFT", 
		 "functional": "B3LYP", 
		 "basiset": "6-31G**", 
		 "properties": { 
			 "R2extent": 4224.0613, 
			 "electric_dipole_moment_norm": 4.40629702698, 
			 "electric_quadrupole_moment_norm": 22.4128147309, 
			 "total_energy": -744.300302288, 
			 "HOMO_LUMO_gap": 0.18105, 
			 "cosmo_polarized_energy": -16.91, 
			 "cosmo_cavitation_energy": 31.4, 
			 "cosmo_dispersion_energy": -22.31, 
			 "cosmo_repulsion_energy": 1.75, 
			 "cosmo_total_nonelectrostatic_energy": 10.84, 
			 "SMD_solvation_energy": 7.08 
		},
		"coords": [
			{
				"x": 1.6132891605,
				"y": 3.0008561334,
				"z": 2.7370247483,
				"element": "O" 
			},
			{
				"x": 1.5998992286,
				"y": 3.0266925726,
				"z": 1.3011517771,
				"element": "C" 
			},
			{
				"x": 0.3251333661,
				"y": 2.3915304019,
				"z": 0.8075424995,
				"element": "C" 
			},
			{
				"x": 0.0398119164,
				"y": 1.043746891,
				"z": 1.1203742872,
				"element": "C" 
			},
			{
				"x": 0.9463862905,
				"y": 0.3615688231,
				"z": 1.9608775642,
				"element": "N" 
			},
			{
				"x": 1.2785181314,
				"y": -0.9770840297,
				"z": 2.0855333224,
				"element": "C" 
			},
			{
				"x": 1.7969437851,
				"y": -1.3920040275,
				"z": 3.1147504905,
				"element": "O" 
			},
			{
				"x": 1.0988732571,
				"y": -1.862585314,
				"z": 0.912762666,
				"element": "C" 
			},
			{
				"x": 1.0384016866,
				"y": -1.6794942957,
				"z": -0.4461228414,
				"element": "C" 
			},
			{
				"x": 1.0364495629,
				"y": -2.9792142708,
				"z": -1.0336809484,
				"element": "C" 
			},
			{
				"x": 1.095735038,
				"y": -3.8588868897,
				"z": 0.0090503906,
				"element": "C" 
			},
			{
				"x": 1.1414918293,
				"y": -3.2022879855,
				"z": 1.190499289,
				"element": "O" 
			},
			{
				"x": -1.1478661899,
				"y": 0.4614882427,
				"z": 0.6570207148,
				"element": "C" 
			},
			{
				"x": -2.0226929273,
				"y": 1.1933460493,
				"z": -0.1441127571,
				"element": "C" 
			},
			{
				"x": -1.7451930118,
				"y": 2.5228556129,
				"z": -0.4642514022,
				"element": "C" 
			},
			{
				"x": -0.5808459601,
				"y": 3.1134590232,
				"z": 0.0269335263,
				"element": "C" 
			},
			{
				"x": 2.4966346611,
				"y": 3.2580310173,
				"z": 3.0325332328,
				"element": "H" 
			},
			{
				"x": 2.4644814619,
				"y": 2.4706923382,
				"z": 0.9062445338,
				"element": "H" 
			},
			{
				"x": 1.6655280545,
				"y": 4.0587798885,
				"z": 0.9308226379,
				"element": "H" 
			},
			{
				"x": 1.3201253217,
				"y": 0.9309867532,
				"z": 2.7161583865,
				"element": "H" 
			},
			{
				"x": 1.0001166947,
				"y": -0.7318218516,
				"z": -0.9613444289,
				"element": "H" 
			},
			{
				"x": 0.9973910819,
				"y": -3.2245223815,
				"z": -2.0851185174,
				"element": "H" 
			},
			{
				"x": 1.1072217143,
				"y": -4.9364922794,
				"z": 0.0692423066,
				"element": "H" 
			},
			{
				"x": -1.3859300962,
				"y": -0.5595301467,
				"z": 0.9312997552,
				"element": "H" 
			},
			{
				"x": -2.9368450506,
				"y": 0.7256108029,
				"z": -0.4981814231,
				"element": "H" 
			},
			{
				"x": -2.4337179973,
				"y": 3.0973919347,
				"z": -1.0759875562,
				"element": "H" 
			},
			{
				"x": -0.3629410096,
				"y": 4.1535869871,
				"z": -0.2021222539,
				"element": "H" 
			}
		],
		 "valence_orbital": [ 
			{
				"type": "occ",
				"energy": -0.28591,
				"method": "rhf"
			},
			{
				"type": "occ",
				"energy": -0.25633,
				"method": "rhf"
			},
			{
				"type": "occ",
				"energy": -0.25265,
				"method": "rhf"
			},
			{
				"type": "occ",
				"energy": -0.23484,
				"method": "rhf"
			},
			{
				"type": "occ",
				"energy": -0.21955,
				"method": "rhf"
			},
			{
				"type": "unocc",
				"energy": -0.0385,
				"method": "rhf"
			},
			{
				"type": "unocc",
				"energy": -0.01281,
				"method": "rhf"
			},
			{
				"type": "unocc",
				"energy": 0.00148,
				"method": "rhf"
			},
			{
				"type": "unocc",
				"energy": 0.04724,
				"method": "rhf"
			},
			{
				"type": "unocc",
				"energy": 0.0686,
				"method": "rhf"
			}
		],
		"cosmo_sigma_profile": { 
			"-0.025": 0.0,
			"-0.024": 0.0,
			"-0.023": 0.0,
			"-0.022": 0.0,
			"-0.021": 0.0,
			"-0.02": 0.0,
			"-0.019": 0.0,
			"-0.018": 0.0,
			"-0.017": 0.0979929512272,
			"-0.016": 0.922233314052,
			"-0.015": 1.08347104381,
			"-0.014": 1.22464627404,
			"-0.013": 0.959708379244,
			"-0.012": 0.89560102341,
			"-0.011": 0.576898991722,
			"-0.01": 2.25514301711,
			"-0.009": 2.71130793863,
			"-0.008": 3.39678628667,
			"-0.007": 5.70336802134,
			"-0.006": 13.487864832,
			"-0.005": 20.8827058643,
			"-0.004": 22.8257837979,
			"-0.003": 17.8766554349,
			"-0.002": 15.9890256565,
			"-0.001": 14.0042606816,
			"0.0": 16.0547340058,
			"0.001": 18.1499387887,
			"0.002": 16.441607465,
			"0.003": 15.8367343495,
			"0.004": 13.4207806052,
			"0.005": 11.151868507,
			"0.006": 4.77996677897,
			"0.007": 3.23657250817,
			"0.008": 2.31827679989,
			"0.009": 3.46098467893,
			"0.01": 2.99300160105,
			"0.011": 2.99479137673,
			"0.012": 4.0327588007,
			"0.013": 7.38837815258,
			"0.014": 3.30664963566,
			"0.015": 0.344237816701,
			"0.016": 0.0,
			"0.017": 0.0,
			"0.018": 0.0,
			"0.019": 0.0,
			"0.02": 0.0,
			"0.021": 0.0,
			"0.022": 0.0,
			"0.023": 0.0,
			"0.024": 0.0,
			"0.025": 0.0
		}
	}
}
