{
	 "smiles": "FC1=CC(NC(=O)NCC2CCCNC2)=CC=C1", 
	 "Tm": 397.15, 
	 "num_atms": 36, 
	 "gaussian": { 
		 "optdone": 1, 
		 "sigma_profile": "yes", 
		 "theory": "DFT", 
		 "functional": "B3LYP", 
		 "basiset": "6-31G**", 
		 "properties": { 
			 "R2extent": 7591.6362, 
			 "electric_dipole_moment_norm": 5.85331310029, 
			 "electric_quadrupole_moment_norm": 8.55488050939, 
			 "total_energy": -845.575900469, 
			 "HOMO_LUMO_gap": 0.21144, 
			 "cosmo_polarized_energy": -15.86, 
			 "cosmo_cavitation_energy": 37.46, 
			 "cosmo_dispersion_energy": -27.31, 
			 "cosmo_repulsion_energy": 2.09, 
			 "cosmo_total_nonelectrostatic_energy": 12.23, 
			 "SMD_solvation_energy": 5.57 
		},
		"coords": [
			{
				"x": 5.0814395254,
				"y": -2.2876891969,
				"z": -3.3098542089,
				"element": "F" 
			},
			{
				"x": 4.6019110944,
				"y": -1.8352806411,
				"z": -2.1290734529,
				"element": "C" 
			},
			{
				"x": 3.2480880704,
				"y": -1.5500647319,
				"z": -2.0379382625,
				"element": "C" 
			},
			{
				"x": 2.7237602556,
				"y": -1.0779656883,
				"z": -0.8220531665,
				"element": "C" 
			},
			{
				"x": 1.3453340751,
				"y": -0.8106080679,
				"z": -0.7868130632,
				"element": "N" 
			},
			{
				"x": 0.5914808404,
				"y": -0.3181020234,
				"z": 0.2760659411,
				"element": "C" 
			},
			{
				"x": 1.0586302623,
				"y": -0.0501976025,
				"z": 1.3784559585,
				"element": "O" 
			},
			{
				"x": -0.7420659431,
				"y": -0.1233496019,
				"z": -0.0120816213,
				"element": "N" 
			},
			{
				"x": -1.4712022917,
				"y": -0.6841308498,
				"z": -1.1417741809,
				"element": "C" 
			},
			{
				"x": -2.9749763094,
				"y": -0.3357947345,
				"z": -1.1288959988,
				"element": "C" 
			},
			{
				"x": -3.3039346865,
				"y": 1.1441543637,
				"z": -1.439154293,
				"element": "C" 
			},
			{
				"x": -3.1143676228,
				"y": 2.0866593407,
				"z": -0.2380955287,
				"element": "C" 
			},
			{
				"x": -3.8108476405,
				"y": 1.5269949941,
				"z": 1.0069508409,
				"element": "C" 
			},
			{
				"x": -3.3252605391,
				"y": 0.1646813809,
				"z": 1.2633711037,
				"element": "N" 
			},
			{
				"x": -3.6784426543,
				"y": -0.7583063481,
				"z": 0.1766456551,
				"element": "C" 
			},
			{
				"x": 3.58231805,
				"y": -0.9045851017,
				"z": 0.2776204017,
				"element": "C" 
			},
			{
				"x": 4.9372961235,
				"y": -1.2046066118,
				"z": 0.1399842291,
				"element": "C" 
			},
			{
				"x": 5.47393712,
				"y": -1.6741180192,
				"z": -1.0600445798,
				"element": "C" 
			},
			{
				"x": 2.618254707,
				"y": -1.6973066001,
				"z": -2.9104039378,
				"element": "H" 
			},
			{
				"x": 0.8642082406,
				"y": -0.9622077523,
				"z": -1.6597584291,
				"element": "H" 
			},
			{
				"x": -1.3127888361,
				"y": 0.0649614634,
				"z": 0.8121119278,
				"element": "H" 
			},
			{
				"x": -1.0543712869,
				"y": -0.3045241363,
				"z": -2.0875274509,
				"element": "H" 
			},
			{
				"x": -1.3763342736,
				"y": -1.7832595892,
				"z": -1.1690390628,
				"element": "H" 
			},
			{
				"x": -3.4065506255,
				"y": -0.9419138664,
				"z": -1.9364200225,
				"element": "H" 
			},
			{
				"x": -2.709656832,
				"y": 1.489317463,
				"z": -2.2936192765,
				"element": "H" 
			},
			{
				"x": -4.3555309587,
				"y": 1.1893024206,
				"z": -1.7548669525,
				"element": "H" 
			},
			{
				"x": -3.5226252362,
				"y": 3.0762333834,
				"z": -0.4740392465,
				"element": "H" 
			},
			{
				"x": -2.0489147286,
				"y": 2.2151451976,
				"z": -0.0249630264,
				"element": "H" 
			},
			{
				"x": -3.5883705886,
				"y": 2.1459319209,
				"z": 1.8821517962,
				"element": "H" 
			},
			{
				"x": -4.9073632862,
				"y": 1.5493257944,
				"z": 0.8553693365,
				"element": "H" 
			},
			{
				"x": -3.6908409108,
				"y": -0.1806630653,
				"z": 2.1459534692,
				"element": "H" 
			},
			{
				"x": -4.7692585396,
				"y": -0.7842590599,
				"z": -0.0060860201,
				"element": "H" 
			},
			{
				"x": -3.3728635505,
				"y": -1.7709383002,
				"z": 0.464161602,
				"element": "H" 
			},
			{
				"x": 3.1759899594,
				"y": -0.5397189821,
				"z": 1.2092145795,
				"element": "H" 
			},
			{
				"x": 5.5921926551,
				"y": -1.0666531425,
				"z": 0.9955230609,
				"element": "H" 
			},
			{
				"x": 6.5258263614,
				"y": -1.9089640093,
				"z": -1.1750781207,
				"element": "H" 
			}
		],
		 "valence_orbital": [ 
			{
				"type": "occ",
				"energy": -0.25162,
				"method": "rhf"
			},
			{
				"type": "occ",
				"energy": -0.24084,
				"method": "rhf"
			},
			{
				"type": "occ",
				"energy": -0.23867,
				"method": "rhf"
			},
			{
				"type": "occ",
				"energy": -0.2364,
				"method": "rhf"
			},
			{
				"type": "occ",
				"energy": -0.20906,
				"method": "rhf"
			},
			{
				"type": "unocc",
				"energy": 0.00238,
				"method": "rhf"
			},
			{
				"type": "unocc",
				"energy": 0.0147,
				"method": "rhf"
			},
			{
				"type": "unocc",
				"energy": 0.05596,
				"method": "rhf"
			},
			{
				"type": "unocc",
				"energy": 0.07439,
				"method": "rhf"
			},
			{
				"type": "unocc",
				"energy": 0.07583,
				"method": "rhf"
			}
		],
		"cosmo_sigma_profile": { 
			"-0.025": 0.0,
			"-0.024": 0.0,
			"-0.023": 0.0,
			"-0.022": 0.0,
			"-0.021": 0.0,
			"-0.02": 0.0,
			"-0.019": 0.0,
			"-0.018": 0.0,
			"-0.017": 0.0,
			"-0.016": 0.0,
			"-0.015": 0.0,
			"-0.014": 0.611114711293,
			"-0.013": 1.41014156804,
			"-0.012": 1.52793606671,
			"-0.011": 1.6250415291,
			"-0.01": 2.90920518609,
			"-0.009": 2.85468260229,
			"-0.008": 3.53220604485,
			"-0.007": 4.793832638,
			"-0.006": 7.18299383294,
			"-0.005": 8.89998235287,
			"-0.004": 20.0262436685,
			"-0.003": 27.9615658382,
			"-0.002": 33.9241574456,
			"-0.001": 31.9270008623,
			"0.0": 22.8603135081,
			"0.001": 21.6200016098,
			"0.002": 18.6943095233,
			"0.003": 19.0603757134,
			"0.004": 22.3539045439,
			"0.005": 18.0533479623,
			"0.006": 4.16660971381,
			"0.007": 1.99487680399,
			"0.008": 1.75694537069,
			"0.009": 1.35559839676,
			"0.01": 1.50366998077,
			"0.011": 1.55158856276,
			"0.012": 1.62651722703,
			"0.013": 2.54585935397,
			"0.014": 3.34609096931,
			"0.015": 2.27256935348,
			"0.016": 0.0576451198523,
			"0.017": 0.0,
			"0.018": 0.0,
			"0.019": 0.0,
			"0.02": 0.0,
			"0.021": 0.0,
			"0.022": 0.0,
			"0.023": 0.0,
			"0.024": 0.0,
			"0.025": 0.0
		}
	}
}
