{
	 "smiles": "CC1=CC(C)=C(C(C)=C1)C1(C)CC(C1)C(=N/O)C1=CC2=C(O1)C=CC(Br)=C2", 
	 "Tm": 495.15, 
	 "num_atms": 51, 
	 "gaussian": { 
		 "optdone": 1, 
		 "sigma_profile": "yes", 
		 "theory": "DFT", 
		 "functional": "B3LYP", 
		 "basiset": "6-31G**", 
		 "properties": { 
			 "R2extent": 22387.4985, 
			 "electric_dipole_moment_norm": 2.52955167965, 
			 "electric_quadrupole_moment_norm": 20.9340022912, 
			 "total_energy": -3667.44163373, 
			 "HOMO_LUMO_gap": 0.16317, 
			 "cosmo_polarized_energy": -11.62, 
			 "cosmo_cavitation_energy": 54.09, 
			 "cosmo_dispersion_energy": -37.47, 
			 "cosmo_repulsion_energy": 2.82, 
			 "cosmo_total_nonelectrostatic_energy": 19.44, 
			 "SMD_solvation_energy": 7.66 
		},
		"coords": [
			{
				"x": 4.6372281299,
				"y": 1.713937093,
				"z": -2.7497282963,
				"element": "C" 
			},
			{
				"x": 3.2449403605,
				"y": 1.3829981354,
				"z": -2.266128482,
				"element": "C" 
			},
			{
				"x": 2.8308092924,
				"y": 0.0635756353,
				"z": -2.0914159775,
				"element": "C" 
			},
			{
				"x": 1.5394834652,
				"y": -0.2690940255,
				"z": -1.6634302604,
				"element": "C" 
			},
			{
				"x": 1.2180935823,
				"y": -1.750074392,
				"z": -1.5767443587,
				"element": "C" 
			},
			{
				"x": 0.6079010736,
				"y": 0.7567888382,
				"z": -1.3632668471,
				"element": "C" 
			},
			{
				"x": 0.9989713471,
				"y": 2.0991272241,
				"z": -1.5997686808,
				"element": "C" 
			},
			{
				"x": 0.0681827556,
				"y": 3.2874928704,
				"z": -1.4403818434,
				"element": "C" 
			},
			{
				"x": 2.301585487,
				"y": 2.3815930301,
				"z": -2.0292362589,
				"element": "C" 
			},
			{
				"x": -0.804546391,
				"y": 0.4220026418,
				"z": -0.8660221241,
				"element": "C" 
			},
			{
				"x": -1.7573687966,
				"y": 0.2380017861,
				"z": -2.0651434905,
				"element": "C" 
			},
			{
				"x": -0.9650271848,
				"y": -0.7443826107,
				"z": 0.1721157215,
				"element": "C" 
			},
			{
				"x": -2.01322268,
				"y": 0.0933954343,
				"z": 0.9419719916,
				"element": "C" 
			},
			{
				"x": -1.4442523115,
				"y": 1.349011676,
				"z": 0.2272125882,
				"element": "C" 
			},
			{
				"x": -2.0548874528,
				"y": 0.0784419811,
				"z": 2.4516957384,
				"element": "C" 
			},
			{
				"x": -2.5875714825,
				"y": 1.0018339681,
				"z": 3.1812408494,
				"element": "N" 
			},
			{
				"x": -3.1108462127,
				"y": 2.0414298521,
				"z": 2.4054809827,
				"element": "O" 
			},
			{
				"x": -1.4897815937,
				"y": -1.0261245552,
				"z": 3.2310925918,
				"element": "C" 
			},
			{
				"x": -1.0562499786,
				"y": -1.1001002191,
				"z": 4.5244023223,
				"element": "C" 
			},
			{
				"x": -0.6490170299,
				"y": -2.460004443,
				"z": 4.7413661004,
				"element": "C" 
			},
			{
				"x": -0.8741069859,
				"y": -3.1203997256,
				"z": 3.5171490965,
				"element": "C" 
			},
			{
				"x": -1.3851602659,
				"y": -2.2497338056,
				"z": 2.5970193859,
				"element": "O" 
			},
			{
				"x": -0.6017043315,
				"y": -4.4661447553,
				"z": 3.3080643447,
				"element": "C" 
			},
			{
				"x": -0.077980745,
				"y": -5.1769199235,
				"z": 4.3865990379,
				"element": "C" 
			},
			{
				"x": 0.1537608694,
				"y": -4.532412456,
				"z": 5.6150057109,
				"element": "C" 
			},
			{
				"x": 0.8760686571,
				"y": -5.5635084406,
				"z": 7.0591323357,
				"element": "Br" 
			},
			{
				"x": -0.11887358,
				"y": -3.1861768471,
				"z": 5.8205661798,
				"element": "C" 
			},
			{
				"x": 4.6781545543,
				"y": 1.7637977436,
				"z": -3.8453667247,
				"element": "H" 
			},
			{
				"x": 4.9731174878,
				"y": 2.6835025023,
				"z": -2.3691127625,
				"element": "H" 
			},
			{
				"x": 5.3612446822,
				"y": 0.9569816722,
				"z": -2.4328398447,
				"element": "H" 
			},
			{
				"x": 3.5303269783,
				"y": -0.742751368,
				"z": -2.3033531931,
				"element": "H" 
			},
			{
				"x": 0.231849198,
				"y": -1.9903251683,
				"z": -1.9815509769,
				"element": "H" 
			},
			{
				"x": 1.2454192276,
				"y": -2.1282223542,
				"z": -0.5493674276,
				"element": "H" 
			},
			{
				"x": 1.9533735337,
				"y": -2.3223315181,
				"z": -2.1490204454,
				"element": "H" 
			},
			{
				"x": -0.0574608437,
				"y": 3.5873488955,
				"z": -0.3946701464,
				"element": "H" 
			},
			{
				"x": -0.9302376969,
				"y": 3.0963971928,
				"z": -1.8412725152,
				"element": "H" 
			},
			{
				"x": 0.4746222207,
				"y": 4.1502409817,
				"z": -1.9753130826,
				"element": "H" 
			},
			{
				"x": 2.5796689857,
				"y": 3.4211689282,
				"z": -2.1917886093,
				"element": "H" 
			},
			{
				"x": -2.7765047548,
				"y": -0.0008024806,
				"z": -1.7403249769,
				"element": "H" 
			},
			{
				"x": -1.4161158973,
				"y": -0.5724889426,
				"z": -2.7171847427,
				"element": "H" 
			},
			{
				"x": -1.8052823886,
				"y": 1.1476196436,
				"z": -2.672310595,
				"element": "H" 
			},
			{
				"x": -1.279979658,
				"y": -1.7232498675,
				"z": -0.1949209421,
				"element": "H" 
			},
			{
				"x": -0.0558991135,
				"y": -0.8671182167,
				"z": 0.7643605617,
				"element": "H" 
			},
			{
				"x": -3.026112027,
				"y": -0.1132323009,
				"z": 0.5766280524,
				"element": "H" 
			},
			{
				"x": -0.6805790989,
				"y": 1.8285336264,
				"z": 0.8440290835,
				"element": "H" 
			},
			{
				"x": -2.1665805911,
				"y": 2.1014489929,
				"z": -0.0913839167,
				"element": "H" 
			},
			{
				"x": -3.4689112168,
				"y": 2.6357512029,
				"z": 3.0783799686,
				"element": "H" 
			},
			{
				"x": -1.0332105744,
				"y": -0.2770194336,
				"z": 5.2221170551,
				"element": "H" 
			},
			{
				"x": -0.7885151457,
				"y": -4.9415229152,
				"z": 2.3515317655,
				"element": "H" 
			},
			{
				"x": 0.1537591085,
				"y": -6.2302765508,
				"z": 4.2840546692,
				"element": "H" 
			},
			{
				"x": 0.0709250319,
				"y": -2.7202042319,
				"z": 6.7803313876,
				"element": "H" 
			}
		],
		 "valence_orbital": [ 
			{
				"type": "occ",
				"energy": -0.27041,
				"method": "rhf"
			},
			{
				"type": "occ",
				"energy": -0.23445,
				"method": "rhf"
			},
			{
				"type": "occ",
				"energy": -0.2274,
				"method": "rhf"
			},
			{
				"type": "occ",
				"energy": -0.22082,
				"method": "rhf"
			},
			{
				"type": "occ",
				"energy": -0.21599,
				"method": "rhf"
			},
			{
				"type": "unocc",
				"energy": -0.05282,
				"method": "rhf"
			},
			{
				"type": "unocc",
				"energy": -0.00367,
				"method": "rhf"
			},
			{
				"type": "unocc",
				"energy": 0.0063,
				"method": "rhf"
			},
			{
				"type": "unocc",
				"energy": 0.00831,
				"method": "rhf"
			},
			{
				"type": "unocc",
				"energy": 0.00923,
				"method": "rhf"
			}
		],
		"cosmo_sigma_profile": { 
			"-0.025": 0.0,
			"-0.024": 0.0,
			"-0.023": 0.0,
			"-0.022": 0.0,
			"-0.021": 0.0,
			"-0.02": 0.0,
			"-0.019": 0.0,
			"-0.018": 0.149269780196,
			"-0.017": 1.09106489292,
			"-0.016": 1.15490643199,
			"-0.015": 0.808034464884,
			"-0.014": 0.611623523182,
			"-0.013": 0.803118654114,
			"-0.012": 0.827955341008,
			"-0.011": 0.513485166885,
			"-0.01": 0.908860845227,
			"-0.009": 0.200993403585,
			"-0.008": 2.69835708753,
			"-0.007": 7.07384870199,
			"-0.006": 8.00599965828,
			"-0.005": 10.9118586513,
			"-0.004": 28.9407688527,
			"-0.003": 44.6416799604,
			"-0.002": 40.2815706567,
			"-0.001": 40.5708756626,
			"0.0": 48.3888161911,
			"0.001": 45.7350950191,
			"0.002": 36.6897068454,
			"0.003": 35.609062077,
			"0.004": 23.5605317449,
			"0.005": 19.9096009716,
			"0.006": 11.1817249764,
			"0.007": 10.0643163753,
			"0.008": 5.0511172829,
			"0.009": 1.63836713242,
			"0.01": 1.18194925486,
			"0.011": 0.911772676368,
			"0.012": 0.306570744146,
			"0.013": 0.0,
			"0.014": 0.0,
			"0.015": 0.0,
			"0.016": 0.0,
			"0.017": 0.0,
			"0.018": 0.0,
			"0.019": 0.0,
			"0.02": 0.0,
			"0.021": 0.0,
			"0.022": 0.0,
			"0.023": 0.0,
			"0.024": 0.0,
			"0.025": 0.0
		}
	}
}
