{
	 "smiles": "CN1C=NC=C1C(N)=O", 
	 "Tm": 452.15, 
	 "num_atms": 16, 
	 "gaussian": { 
		 "optdone": 1, 
		 "sigma_profile": "yes", 
		 "theory": "DFT", 
		 "functional": "B3LYP", 
		 "basiset": "6-31G**", 
		 "properties": { 
			 "R2extent": 1150.3886, 
			 "electric_dipole_moment_norm": 6.03967478015, 
			 "electric_quadrupole_moment_norm": 6.23406362415, 
			 "total_energy": -434.232468067, 
			 "HOMO_LUMO_gap": 0.20938, 
			 "cosmo_polarized_energy": -19.73, 
			 "cosmo_cavitation_energy": 20.11, 
			 "cosmo_dispersion_energy": -14.91, 
			 "cosmo_repulsion_energy": 1.21, 
			 "cosmo_total_nonelectrostatic_energy": 6.42, 
			 "SMD_solvation_energy": 3.18 
		},
		"coords": [
			{
				"x": 0.4764842793,
				"y": 0.2430822014,
				"z": -1.8931936475,
				"element": "C" 
			},
			{
				"x": 0.8012128712,
				"y": 0.449289556,
				"z": -0.4888827362,
				"element": "N" 
			},
			{
				"x": 1.9076272009,
				"y": 1.1090472774,
				"z": -0.0394384981,
				"element": "C" 
			},
			{
				"x": 1.9437174498,
				"y": 1.2232036825,
				"z": 1.2745649581,
				"element": "N" 
			},
			{
				"x": 0.797430022,
				"y": 0.6204056902,
				"z": 1.7069675787,
				"element": "C" 
			},
			{
				"x": 0.0599479996,
				"y": 0.1226011126,
				"z": 0.6486320013,
				"element": "C" 
			},
			{
				"x": -1.2285856923,
				"y": -0.590201392,
				"z": 0.747787416,
				"element": "C" 
			},
			{
				"x": -1.64723112,
				"y": -1.3198811101,
				"z": -0.3557861279,
				"element": "N" 
			},
			{
				"x": -1.9121570037,
				"y": -0.5176321775,
				"z": 1.7606144691,
				"element": "O" 
			},
			{
				"x": 1.0859157199,
				"y": 0.9208022404,
				"z": -2.4937394369,
				"element": "H" 
			},
			{
				"x": 0.6936418787,
				"y": -0.7829906116,
				"z": -2.2126760984,
				"element": "H" 
			},
			{
				"x": -0.5779999066,
				"y": 0.4563565105,
				"z": -2.0742812399,
				"element": "H" 
			},
			{
				"x": 2.6501832858,
				"y": 1.4956036738,
				"z": -0.7260760656,
				"element": "H" 
			},
			{
				"x": 0.5357691446,
				"y": 0.5541702021,
				"z": 2.7533255213,
				"element": "H" 
			},
			{
				"x": -2.4583955992,
				"y": -1.8932128428,
				"z": -0.1614733467,
				"element": "H" 
			},
			{
				"x": -0.95146053,
				"y": -1.7567440129,
				"z": -0.9430447473,
				"element": "H" 
			}
		],
		 "valence_orbital": [ 
			{
				"type": "occ",
				"energy": -0.28203,
				"method": "rhf"
			},
			{
				"type": "occ",
				"energy": -0.27934,
				"method": "rhf"
			},
			{
				"type": "occ",
				"energy": -0.27304,
				"method": "rhf"
			},
			{
				"type": "occ",
				"energy": -0.2565,
				"method": "rhf"
			},
			{
				"type": "occ",
				"energy": -0.2341,
				"method": "rhf"
			},
			{
				"type": "unocc",
				"energy": -0.02472,
				"method": "rhf"
			},
			{
				"type": "unocc",
				"energy": 0.04152,
				"method": "rhf"
			},
			{
				"type": "unocc",
				"energy": 0.05077,
				"method": "rhf"
			},
			{
				"type": "unocc",
				"energy": 0.09469,
				"method": "rhf"
			},
			{
				"type": "unocc",
				"energy": 0.10704,
				"method": "rhf"
			}
		],
		"cosmo_sigma_profile": { 
			"-0.025": 0.0,
			"-0.024": 0.0,
			"-0.023": 0.0,
			"-0.022": 0.0,
			"-0.021": 0.0,
			"-0.02": 0.0,
			"-0.019": 0.0,
			"-0.018": 0.0,
			"-0.017": 0.0,
			"-0.016": 0.0,
			"-0.015": 0.00878083593995,
			"-0.014": 1.47644450664,
			"-0.013": 2.87109567559,
			"-0.012": 2.81648633167,
			"-0.011": 3.11008811954,
			"-0.01": 3.13136568709,
			"-0.009": 5.84431935902,
			"-0.008": 5.43205600192,
			"-0.007": 7.09183148248,
			"-0.006": 9.37405793116,
			"-0.005": 9.13858065666,
			"-0.004": 12.5468424692,
			"-0.003": 8.51863088061,
			"-0.002": 6.57115513605,
			"-0.001": 5.57435099829,
			"0.0": 7.28635879234,
			"0.001": 7.47956561997,
			"0.002": 6.31853660948,
			"0.003": 6.71124821075,
			"0.004": 6.23506897422,
			"0.005": 5.00664529051,
			"0.006": 3.69143172936,
			"0.007": 3.14111287772,
			"0.008": 3.67788790199,
			"0.009": 4.09983856081,
			"0.01": 2.07244448152,
			"0.011": 2.9382510589,
			"0.012": 3.37959890932,
			"0.013": 6.43358707452,
			"0.014": 4.49513130738,
			"0.015": 1.27282859584,
			"0.016": 1.07654257866,
			"0.017": 0.874489597577,
			"0.018": 0.310119932256,
			"0.019": 0.0,
			"0.02": 0.0,
			"0.021": 0.0,
			"0.022": 0.0,
			"0.023": 0.0,
			"0.024": 0.0,
			"0.025": 0.0
		}
	}
}
