{
	 "smiles": "CC(C)(C(O)=O)C1=CC=C(Br)C=C1", 
	 "Tm": 397.15, 
	 "num_atms": 24, 
	 "gaussian": { 
		 "optdone": 1, 
		 "sigma_profile": "yes", 
		 "theory": "DFT", 
		 "functional": "B3LYP", 
		 "basiset": "6-31G**", 
		 "properties": { 
			 "R2extent": 5661.3808, 
			 "electric_dipole_moment_norm": 3.2575211634, 
			 "electric_quadrupole_moment_norm": 14.7364133974, 
			 "total_energy": -3109.56122791, 
			 "HOMO_LUMO_gap": 0.21595, 
			 "cosmo_polarized_energy": -12.83, 
			 "cosmo_cavitation_energy": 29.36, 
			 "cosmo_dispersion_energy": -21.12, 
			 "cosmo_repulsion_energy": 1.67, 
			 "cosmo_total_nonelectrostatic_energy": 9.9, 
			 "SMD_solvation_energy": 4.95 
		},
		"coords": [
			{
				"x": -0.249490714,
				"y": -2.065645838,
				"z": 1.0350437556,
				"element": "C" 
			},
			{
				"x": 0.8049841144,
				"y": -0.9528159185,
				"z": 0.8221238442,
				"element": "C" 
			},
			{
				"x": 0.7078486721,
				"y": 0.0570858492,
				"z": 1.9837565942,
				"element": "C" 
			},
			{
				"x": 2.1809365657,
				"y": -1.6639472063,
				"z": 0.8924027983,
				"element": "C" 
			},
			{
				"x": 2.5769484534,
				"y": -2.3028012494,
				"z": -0.2373415408,
				"element": "O" 
			},
			{
				"x": 2.8539120014,
				"y": -1.7264948628,
				"z": 1.8913390527,
				"element": "O" 
			},
			{
				"x": 0.649972808,
				"y": -0.2272717872,
				"z": -0.5227471112,
				"element": "C" 
			},
			{
				"x": -0.4479590984,
				"y": -0.4159000239,
				"z": -1.373210578,
				"element": "C" 
			},
			{
				"x": -0.568898027,
				"y": 0.2881202111,
				"z": -2.5746334849,
				"element": "C" 
			},
			{
				"x": 0.4229179503,
				"y": 1.1930970051,
				"z": -2.9382666859,
				"element": "C" 
			},
			{
				"x": 0.2688300608,
				"y": 2.1575356627,
				"z": -4.5786357819,
				"element": "Br" 
			},
			{
				"x": 1.5331440554,
				"y": 1.4002370313,
				"z": -2.1188671364,
				"element": "C" 
			},
			{
				"x": 1.6360760088,
				"y": 0.6929340612,
				"z": -0.9243770049,
				"element": "C" 
			},
			{
				"x": -0.0546288507,
				"y": -2.5747005317,
				"z": 1.9825456228,
				"element": "H" 
			},
			{
				"x": -0.2275477754,
				"y": -2.816262312,
				"z": 0.2389528735,
				"element": "H" 
			},
			{
				"x": -1.2567013141,
				"y": -1.6412566177,
				"z": 1.0840940078,
				"element": "H" 
			},
			{
				"x": 0.874550452,
				"y": -0.4495904915,
				"z": 2.9364292195,
				"element": "H" 
			},
			{
				"x": -0.2820513739,
				"y": 0.5228537713,
				"z": 1.9903601434,
				"element": "H" 
			},
			{
				"x": 1.457360029,
				"y": 0.8469004068,
				"z": 1.8921853556,
				"element": "H" 
			},
			{
				"x": 1.9790013673,
				"y": -2.0754441697,
				"z": -0.966403464,
				"element": "H" 
			},
			{
				"x": -1.2336957129,
				"y": -1.1145699333,
				"z": -1.1086546437,
				"element": "H" 
			},
			{
				"x": -1.4272971295,
				"y": 0.130810061,
				"z": -3.2178089209,
				"element": "H" 
			},
			{
				"x": 2.3051341232,
				"y": 2.1027140277,
				"z": -2.4115424306,
				"element": "H" 
			},
			{
				"x": 2.5063533341,
				"y": 0.8588128545,
				"z": -0.2946444844,
				"element": "H" 
			}
		],
		 "valence_orbital": [ 
			{
				"type": "occ",
				"energy": -0.31561,
				"method": "rhf"
			},
			{
				"type": "occ",
				"energy": -0.29658,
				"method": "rhf"
			},
			{
				"type": "occ",
				"energy": -0.27842,
				"method": "rhf"
			},
			{
				"type": "occ",
				"energy": -0.27339,
				"method": "rhf"
			},
			{
				"type": "occ",
				"energy": -0.24988,
				"method": "rhf"
			},
			{
				"type": "unocc",
				"energy": -0.03393,
				"method": "rhf"
			},
			{
				"type": "unocc",
				"energy": -0.02954,
				"method": "rhf"
			},
			{
				"type": "unocc",
				"energy": -0.00358,
				"method": "rhf"
			},
			{
				"type": "unocc",
				"energy": 0.00845,
				"method": "rhf"
			},
			{
				"type": "unocc",
				"energy": 0.06805,
				"method": "rhf"
			}
		],
		"cosmo_sigma_profile": { 
			"-0.025": 0.0,
			"-0.024": 0.0,
			"-0.023": 0.0,
			"-0.022": 0.0,
			"-0.021": 0.0,
			"-0.02": 0.0,
			"-0.019": 0.0,
			"-0.018": 0.0,
			"-0.017": 0.0,
			"-0.016": 0.108124629182,
			"-0.015": 0.529339122273,
			"-0.014": 0.769969443083,
			"-0.013": 0.559269207955,
			"-0.012": 1.13816552272,
			"-0.011": 1.41632580178,
			"-0.01": 1.01352727232,
			"-0.009": 0.979360660284,
			"-0.008": 1.89074406827,
			"-0.007": 7.93417999622,
			"-0.006": 11.8111765884,
			"-0.005": 13.2585985999,
			"-0.004": 17.8945181242,
			"-0.003": 19.6010126852,
			"-0.002": 17.0426029964,
			"-0.001": 19.8771574485,
			"0.0": 19.7385575254,
			"0.001": 16.2275571149,
			"0.002": 18.2819494112,
			"0.003": 16.761770106,
			"0.004": 14.2213842369,
			"0.005": 7.26909083036,
			"0.006": 1.66486220916,
			"0.007": 3.2031995554,
			"0.008": 2.39028253824,
			"0.009": 2.97213267519,
			"0.01": 5.2032162524,
			"0.011": 5.00398010944,
			"0.012": 5.16943006502,
			"0.013": 1.54666200542,
			"0.014": 0.0316488741914,
			"0.015": 0.0,
			"0.016": 0.0,
			"0.017": 0.0,
			"0.018": 0.0,
			"0.019": 0.0,
			"0.02": 0.0,
			"0.021": 0.0,
			"0.022": 0.0,
			"0.023": 0.0,
			"0.024": 0.0,
			"0.025": 0.0
		}
	}
}
