{
	 "smiles": "ClC1=NC(=CN=C1)N1CCOCC1", 
	 "Tm": 388.15, 
	 "num_atms": 23, 
	 "gaussian": { 
		 "optdone": 1, 
		 "sigma_profile": "yes", 
		 "theory": "DFT", 
		 "functional": "B3LYP", 
		 "basiset": "6-31G**", 
		 "properties": { 
			 "R2extent": 3329.7856, 
			 "electric_dipole_moment_norm": 2.95066237648, 
			 "electric_quadrupole_moment_norm": 6.19843087805, 
			 "total_energy": -1010.51759055, 
			 "HOMO_LUMO_gap": 0.17121, 
			 "cosmo_polarized_energy": -9.9, 
			 "cosmo_cavitation_energy": 27.46, 
			 "cosmo_dispersion_energy": -20.93, 
			 "cosmo_repulsion_energy": 1.66, 
			 "cosmo_total_nonelectrostatic_energy": 8.2, 
			 "SMD_solvation_energy": 1.26 
		},
		"coords": [
			{
				"x": -1.0808511248,
				"y": 1.2034102135,
				"z": 3.626926569,
				"element": "Cl" 
			},
			{
				"x": -1.3707824287,
				"y": 0.9499207652,
				"z": 1.9065608485,
				"element": "C" 
			},
			{
				"x": -0.3639406639,
				"y": 0.492674387,
				"z": 1.1919910046,
				"element": "N" 
			},
			{
				"x": -0.581541741,
				"y": 0.2936926333,
				"z": -0.1241010542,
				"element": "C" 
			},
			{
				"x": -1.860804137,
				"y": 0.5840758915,
				"z": -0.6746506427,
				"element": "C" 
			},
			{
				"x": -2.8523995579,
				"y": 1.0480758362,
				"z": 0.0755623769,
				"element": "N" 
			},
			{
				"x": -2.6297375162,
				"y": 1.241648415,
				"z": 1.3813100674,
				"element": "C" 
			},
			{
				"x": 0.4519680815,
				"y": -0.1862253312,
				"z": -0.8803188793,
				"element": "N" 
			},
			{
				"x": 0.299888511,
				"y": -0.3983170034,
				"z": -2.3199374794,
				"element": "C" 
			},
			{
				"x": 1.6246036353,
				"y": -0.8936533054,
				"z": -2.9016732829,
				"element": "C" 
			},
			{
				"x": 2.0975468222,
				"y": -2.0354125608,
				"z": -2.213729359,
				"element": "O" 
			},
			{
				"x": 2.2488810136,
				"y": -1.8545390094,
				"z": -0.7998149214,
				"element": "C" 
			},
			{
				"x": 1.7584192201,
				"y": -0.4934063527,
				"z": -0.3019909252,
				"element": "C" 
			},
			{
				"x": -2.0731894071,
				"y": 0.4343959515,
				"z": -1.7280188304,
				"element": "H" 
			},
			{
				"x": -3.4371545571,
				"y": 1.6222453044,
				"z": 1.9972048853,
				"element": "H" 
			},
			{
				"x": -0.4799628291,
				"y": -1.148375033,
				"z": -2.5117174832,
				"element": "H" 
			},
			{
				"x": 0.0009013261,
				"y": 0.531748048,
				"z": -2.8259747128,
				"element": "H" 
			},
			{
				"x": 1.4736730751,
				"y": -1.1981548645,
				"z": -3.9407554453,
				"element": "H" 
			},
			{
				"x": 2.3683514045,
				"y": -0.0815421354,
				"z": -2.901454209,
				"element": "H" 
			},
			{
				"x": 3.3079485917,
				"y": -1.9762598283,
				"z": -0.5330947736,
				"element": "H" 
			},
			{
				"x": 1.6816378083,
				"y": -2.6543456309,
				"z": -0.3081312297,
				"element": "H" 
			},
			{
				"x": 2.4816027586,
				"y": 0.2951118434,
				"z": -0.5525903789,
				"element": "H" 
			},
			{
				"x": 1.6604417148,
				"y": -0.505068234,
				"z": 0.7833978552,
				"element": "H" 
			}
		],
		 "valence_orbital": [ 
			{
				"type": "occ",
				"energy": -0.3036,
				"method": "rhf"
			},
			{
				"type": "occ",
				"energy": -0.28188,
				"method": "rhf"
			},
			{
				"type": "occ",
				"energy": -0.2644,
				"method": "rhf"
			},
			{
				"type": "occ",
				"energy": -0.25776,
				"method": "rhf"
			},
			{
				"type": "occ",
				"energy": -0.2182,
				"method": "rhf"
			},
			{
				"type": "unocc",
				"energy": -0.04699,
				"method": "rhf"
			},
			{
				"type": "unocc",
				"energy": -0.01083,
				"method": "rhf"
			},
			{
				"type": "unocc",
				"energy": 0.03529,
				"method": "rhf"
			},
			{
				"type": "unocc",
				"energy": 0.07385,
				"method": "rhf"
			},
			{
				"type": "unocc",
				"energy": 0.09875,
				"method": "rhf"
			}
		],
		"cosmo_sigma_profile": { 
			"-0.025": 0.0,
			"-0.024": 0.0,
			"-0.023": 0.0,
			"-0.022": 0.0,
			"-0.021": 0.0,
			"-0.02": 0.0,
			"-0.019": 0.0,
			"-0.018": 0.0,
			"-0.017": 0.0,
			"-0.016": 0.0,
			"-0.015": 0.0,
			"-0.014": 0.0,
			"-0.013": 0.0,
			"-0.012": 0.0,
			"-0.011": 0.0,
			"-0.01": 0.0,
			"-0.009": 0.0,
			"-0.008": 0.750244960865,
			"-0.007": 4.59991310343,
			"-0.006": 11.5669099057,
			"-0.005": 26.2469104629,
			"-0.004": 23.7165538112,
			"-0.003": 16.5787370985,
			"-0.002": 13.971993736,
			"-0.001": 16.7238359078,
			"0.0": 18.5952956608,
			"0.001": 13.1128327265,
			"0.002": 12.4077811385,
			"0.003": 11.3170135086,
			"0.004": 14.1794829666,
			"0.005": 8.40717935613,
			"0.006": 4.6987974063,
			"0.007": 5.79285084328,
			"0.008": 3.56458605493,
			"0.009": 2.78619160566,
			"0.01": 1.9877683523,
			"0.011": 2.86169091468,
			"0.012": 1.89680207788,
			"0.013": 2.9711042737,
			"0.014": 0.934583483061,
			"0.015": 0.536972796244,
			"0.016": 0.0117074513612,
			"0.017": 0.0,
			"0.018": 0.0,
			"0.019": 0.0,
			"0.02": 0.0,
			"0.021": 0.0,
			"0.022": 0.0,
			"0.023": 0.0,
			"0.024": 0.0,
			"0.025": 0.0
		}
	}
}
