{
	 "smiles": "OC(=O)C1=CSC(=C1)S(=O)(=O)N1CCOCC1", 
	 "Tm": 500.15, 
	 "num_atms": 28, 
	 "gaussian": { 
		 "optdone": 1, 
		 "sigma_profile": "yes", 
		 "theory": "DFT", 
		 "functional": "B3LYP", 
		 "basiset": "6-31G**", 
		 "properties": { 
			 "R2extent": 6031.973, 
			 "electric_dipole_moment_norm": 4.16360459458, 
			 "electric_quadrupole_moment_norm": 13.4245783222, 
			 "total_energy": -1576.7310305, 
			 "HOMO_LUMO_gap": 0.18727, 
			 "cosmo_polarized_energy": -20.15, 
			 "cosmo_cavitation_energy": 34.54, 
			 "cosmo_dispersion_energy": -25.59, 
			 "cosmo_repulsion_energy": 1.92, 
			 "cosmo_total_nonelectrostatic_energy": 10.86, 
			 "SMD_solvation_energy": 5.28 
		},
		"coords": [
			{
				"x": -0.8276962434,
				"y": 2.4264744882,
				"z": 4.4541077483,
				"element": "O" 
			},
			{
				"x": 0.1911712112,
				"y": 1.5793912445,
				"z": 4.7362867455,
				"element": "C" 
			},
			{
				"x": 0.9111772321,
				"y": 1.7106108232,
				"z": 5.7048023673,
				"element": "O" 
			},
			{
				"x": 0.3130313724,
				"y": 0.4999869018,
				"z": 3.7322735252,
				"element": "C" 
			},
			{
				"x": 1.286939133,
				"y": -0.4667888966,
				"z": 3.8400919304,
				"element": "C" 
			},
			{
				"x": 1.2073958113,
				"y": -1.6185277234,
				"z": 2.5673926784,
				"element": "S" 
			},
			{
				"x": -0.1529272679,
				"y": -0.7828765586,
				"z": 1.8555769638,
				"element": "C" 
			},
			{
				"x": -0.5196526941,
				"y": 0.3166143919,
				"z": 2.5848588126,
				"element": "C" 
			},
			{
				"x": -0.8962147247,
				"y": -1.3266048938,
				"z": 0.3301425678,
				"element": "S" 
			},
			{
				"x": -0.6930399702,
				"y": -2.7734295522,
				"z": 0.256748656,
				"element": "O" 
			},
			{
				"x": -2.212690504,
				"y": -0.6958500422,
				"z": 0.2774441989,
				"element": "O" 
			},
			{
				"x": -0.0014322994,
				"y": -0.6522217451,
				"z": -0.9054114412,
				"element": "N" 
			},
			{
				"x": -0.1284799582,
				"y": 0.8025509734,
				"z": -1.1299029071,
				"element": "C" 
			},
			{
				"x": 0.9855983524,
				"y": 1.2453561987,
				"z": -2.088943401,
				"element": "C" 
			},
			{
				"x": 1.1101483482,
				"y": 0.3476933072,
				"z": -3.1737528759,
				"element": "O" 
			},
			{
				"x": 1.5091954122,
				"y": -0.9680829331,
				"z": -2.7853471166,
				"element": "C" 
			},
			{
				"x": 1.2756035622,
				"y": -1.256533043,
				"z": -1.2942059082,
				"element": "C" 
			},
			{
				"x": -0.8326076636,
				"y": 3.0897466677,
				"z": 5.1641261585,
				"element": "H" 
			},
			{
				"x": 2.025347364,
				"y": -0.5476860608,
				"z": 4.626135035,
				"element": "H" 
			},
			{
				"x": -1.3598158512,
				"y": 0.9485635585,
				"z": 2.3290598656,
				"element": "H" 
			},
			{
				"x": -1.1117689236,
				"y": 0.9997298789,
				"z": -1.5622227016,
				"element": "H" 
			},
			{
				"x": -0.0429408832,
				"y": 1.3684762157,
				"z": -0.1896682923,
				"element": "H" 
			},
			{
				"x": 0.7323161117,
				"y": 2.2201874431,
				"z": -2.5137685745,
				"element": "H" 
			},
			{
				"x": 1.9388478203,
				"y": 1.3588686339,
				"z": -1.5491511228,
				"element": "H" 
			},
			{
				"x": 2.5742288332,
				"y": -1.1233689841,
				"z": -3.0151868193,
				"element": "H" 
			},
			{
				"x": 0.9196233116,
				"y": -1.660909609,
				"z": -3.3938495095,
				"element": "H" 
			},
			{
				"x": 1.2139596176,
				"y": -2.3340726742,
				"z": -1.1368997799,
				"element": "H" 
			},
			{
				"x": 2.1054834902,
				"y": -0.8712980107,
				"z": -0.6827368031,
				"element": "H" 
			}
		],
		 "valence_orbital": [ 
			{
				"type": "occ",
				"energy": -0.29253,
				"method": "rhf"
			},
			{
				"type": "occ",
				"energy": -0.28755,
				"method": "rhf"
			},
			{
				"type": "occ",
				"energy": -0.28071,
				"method": "rhf"
			},
			{
				"type": "occ",
				"energy": -0.26605,
				"method": "rhf"
			},
			{
				"type": "occ",
				"energy": -0.25531,
				"method": "rhf"
			},
			{
				"type": "unocc",
				"energy": -0.06804,
				"method": "rhf"
			},
			{
				"type": "unocc",
				"energy": -0.03234,
				"method": "rhf"
			},
			{
				"type": "unocc",
				"energy": 0.00017,
				"method": "rhf"
			},
			{
				"type": "unocc",
				"energy": 0.04265,
				"method": "rhf"
			},
			{
				"type": "unocc",
				"energy": 0.05947,
				"method": "rhf"
			}
		],
		"cosmo_sigma_profile": { 
			"-0.025": 0.0,
			"-0.024": 0.0,
			"-0.023": 0.0,
			"-0.022": 0.0,
			"-0.021": 0.0,
			"-0.02": 0.0,
			"-0.019": 0.255905953421,
			"-0.018": 0.798169572942,
			"-0.017": 1.18530444937,
			"-0.016": 0.889924962064,
			"-0.015": 0.514453839198,
			"-0.014": 0.5773021845,
			"-0.013": 0.913054958388,
			"-0.012": 0.54816750601,
			"-0.011": 1.70298611691,
			"-0.01": 2.37995424638,
			"-0.009": 1.96702666398,
			"-0.008": 2.53888243879,
			"-0.007": 5.80174941484,
			"-0.006": 17.4264675061,
			"-0.005": 30.3650983477,
			"-0.004": 21.2299278591,
			"-0.003": 19.8356872014,
			"-0.002": 16.8285233082,
			"-0.001": 20.5568595367,
			"0.0": 23.6911633556,
			"0.001": 13.5487427642,
			"0.002": 9.25592918206,
			"0.003": 8.69144627237,
			"0.004": 8.57967120633,
			"0.005": 7.26601507858,
			"0.006": 7.81857263052,
			"0.007": 8.7530588452,
			"0.008": 4.64571753868,
			"0.009": 8.83504869469,
			"0.01": 11.3605635168,
			"0.011": 11.6340030589,
			"0.012": 4.3299611835,
			"0.013": 1.34065076865,
			"0.014": 0.0,
			"0.015": 0.0,
			"0.016": 0.0,
			"0.017": 0.0,
			"0.018": 0.0,
			"0.019": 0.0,
			"0.02": 0.0,
			"0.021": 0.0,
			"0.022": 0.0,
			"0.023": 0.0,
			"0.024": 0.0,
			"0.025": 0.0
		}
	}
}
