{
	 "smiles": "COC1=C(Br)C(=O)C2(C)CCC1C2(C)C", 
	 "Tm": 377.15, 
	 "num_atms": 32, 
	 "gaussian": { 
		 "optdone": 1, 
		 "sigma_profile": "yes", 
		 "theory": "DFT", 
		 "functional": "B3LYP", 
		 "basiset": "6-31G**", 
		 "properties": { 
			 "R2extent": 5838.0104, 
			 "electric_dipole_moment_norm": 6.73277127638, 
			 "electric_quadrupole_moment_norm": 17.3890407087, 
			 "total_energy": -3189.35537447, 
			 "HOMO_LUMO_gap": 0.18283, 
			 "cosmo_polarized_energy": -15.76, 
			 "cosmo_cavitation_energy": 33.22, 
			 "cosmo_dispersion_energy": -23.55, 
			 "cosmo_repulsion_energy": 1.82, 
			 "cosmo_total_nonelectrostatic_energy": 11.48, 
			 "SMD_solvation_energy": 5.64 
		},
		"coords": [
			{
				"x": -2.1033164781,
				"y": -0.6768487326,
				"z": -4.2080317748,
				"element": "C" 
			},
			{
				"x": -0.8549143722,
				"y": -0.0261996721,
				"z": -3.9780688124,
				"element": "O" 
			},
			{
				"x": -0.4089166666,
				"y": 0.2106069738,
				"z": -2.7287112188,
				"element": "C" 
			},
			{
				"x": 0.7576907183,
				"y": 0.8888076432,
				"z": -2.565761469,
				"element": "C" 
			},
			{
				"x": 1.7280670993,
				"y": 1.5526304847,
				"z": -4.0603035267,
				"element": "Br" 
			},
			{
				"x": 1.3054856624,
				"y": 1.1566294334,
				"z": -1.2255304785,
				"element": "C" 
			},
			{
				"x": 2.3304351767,
				"y": 1.7964472253,
				"z": -1.0463586525,
				"element": "O" 
			},
			{
				"x": 0.5336694623,
				"y": 0.5218392809,
				"z": -0.0397199742,
				"element": "C" 
			},
			{
				"x": 1.0314879262,
				"y": 1.130525508,
				"z": 1.2707482363,
				"element": "C" 
			},
			{
				"x": 0.7834636511,
				"y": -1.0251166524,
				"z": -0.1225167774,
				"element": "C" 
			},
			{
				"x": -0.3361003669,
				"y": -1.6016960925,
				"z": -1.0297937141,
				"element": "C" 
			},
			{
				"x": -1.1202993187,
				"y": -0.3416029926,
				"z": -1.5122954403,
				"element": "C" 
			},
			{
				"x": -1.0070115568,
				"y": 0.6386110668,
				"z": -0.3060622367,
				"element": "C" 
			},
			{
				"x": -1.50274637,
				"y": 2.0661531453,
				"z": -0.6011219331,
				"element": "C" 
			},
			{
				"x": -1.8432505632,
				"y": 0.1052065887,
				"z": 0.8773985955,
				"element": "C" 
			},
			{
				"x": -2.944423654,
				"y": -0.0903011216,
				"z": -3.822376746,
				"element": "H" 
			},
			{
				"x": -2.1275042379,
				"y": -1.6833473491,
				"z": -3.7770582464,
				"element": "H" 
			},
			{
				"x": -2.1893419171,
				"y": -0.7507604039,
				"z": -5.29263518,
				"element": "H" 
			},
			{
				"x": 2.1158560693,
				"y": 1.0259873354,
				"z": 1.3449087999,
				"element": "H" 
			},
			{
				"x": 0.8124193349,
				"y": 2.2010970488,
				"z": 1.324008796,
				"element": "H" 
			},
			{
				"x": 0.5719405022,
				"y": 0.6364920743,
				"z": 2.1316291223,
				"element": "H" 
			},
			{
				"x": 1.7851604427,
				"y": -1.2423393001,
				"z": -0.503293207,
				"element": "H" 
			},
			{
				"x": 0.7313034356,
				"y": -1.4566027724,
				"z": 0.8818102514,
				"element": "H" 
			},
			{
				"x": 0.0579759398,
				"y": -2.1786938332,
				"z": -1.8705705432,
				"element": "H" 
			},
			{
				"x": -1.0014396574,
				"y": -2.2651669774,
				"z": -0.4696501513,
				"element": "H" 
			},
			{
				"x": -2.1637607468,
				"y": -0.5663235179,
				"z": -1.7450973344,
				"element": "H" 
			},
			{
				"x": -0.997973095,
				"y": 2.5330599833,
				"z": -1.4480046195,
				"element": "H" 
			},
			{
				"x": -2.5783580681,
				"y": 2.0583707443,
				"z": -0.8128519636,
				"element": "H" 
			},
			{
				"x": -1.3513534154,
				"y": 2.7072118239,
				"z": 0.2731560632,
				"element": "H" 
			},
			{
				"x": -2.8958822864,
				"y": 0.0188167032,
				"z": 0.5836318549,
				"element": "H" 
			},
			{
				"x": -1.5173341567,
				"y": -0.8734139022,
				"z": 1.2372378147,
				"element": "H" 
			},
			{
				"x": -1.7985284935,
				"y": 0.7977202568,
				"z": 1.7225844656,
				"element": "H" 
			}
		],
		 "valence_orbital": [ 
			{
				"type": "occ",
				"energy": -0.30895,
				"method": "rhf"
			},
			{
				"type": "occ",
				"energy": -0.29288,
				"method": "rhf"
			},
			{
				"type": "occ",
				"energy": -0.26296,
				"method": "rhf"
			},
			{
				"type": "occ",
				"energy": -0.23437,
				"method": "rhf"
			},
			{
				"type": "occ",
				"energy": -0.22012,
				"method": "rhf"
			},
			{
				"type": "unocc",
				"energy": -0.03729,
				"method": "rhf"
			},
			{
				"type": "unocc",
				"energy": 0.02433,
				"method": "rhf"
			},
			{
				"type": "unocc",
				"energy": 0.05726,
				"method": "rhf"
			},
			{
				"type": "unocc",
				"energy": 0.06094,
				"method": "rhf"
			},
			{
				"type": "unocc",
				"energy": 0.08343,
				"method": "rhf"
			}
		],
		"cosmo_sigma_profile": { 
			"-0.025": 0.0,
			"-0.024": 0.0,
			"-0.023": 0.0,
			"-0.022": 0.0,
			"-0.021": 0.0,
			"-0.02": 0.0,
			"-0.019": 0.0,
			"-0.018": 0.0,
			"-0.017": 0.0,
			"-0.016": 0.0,
			"-0.015": 0.0,
			"-0.014": 0.0,
			"-0.013": 0.0,
			"-0.012": 0.0,
			"-0.011": 0.0,
			"-0.01": 0.0,
			"-0.009": 0.0,
			"-0.008": 0.109663641232,
			"-0.007": 5.13735720719,
			"-0.006": 12.0146543153,
			"-0.005": 14.0087632641,
			"-0.004": 24.5854215885,
			"-0.003": 34.4859965254,
			"-0.002": 30.7524180371,
			"-0.001": 28.4795505765,
			"0.0": 24.8606785584,
			"0.001": 18.6329751442,
			"0.002": 8.08441985732,
			"0.003": 7.1920310306,
			"0.004": 6.84053540004,
			"0.005": 9.6026842696,
			"0.006": 9.23851137038,
			"0.007": 3.84542150155,
			"0.008": 4.27964450632,
			"0.009": 3.97625359115,
			"0.01": 2.98263630805,
			"0.011": 2.48510890161,
			"0.012": 3.22531944613,
			"0.013": 5.04392753787,
			"0.014": 1.87109026687,
			"0.015": 0.0429605085408,
			"0.016": 0.0,
			"0.017": 0.0,
			"0.018": 0.0,
			"0.019": 0.0,
			"0.02": 0.0,
			"0.021": 0.0,
			"0.022": 0.0,
			"0.023": 0.0,
			"0.024": 0.0,
			"0.025": 0.0
		}
	}
}
