{
	 "smiles": "CC(=O)C1=CCCCC1", 
	 "Tm": 346.15, 
	 "num_atms": 21, 
	 "gaussian": { 
		 "optdone": 1, 
		 "sigma_profile": "yes", 
		 "theory": "DFT", 
		 "functional": "B3LYP", 
		 "basiset": "6-31G**", 
		 "properties": { 
			 "R2extent": 1433.9393, 
			 "electric_dipole_moment_norm": 3.10736008374, 
			 "electric_quadrupole_moment_norm": 7.51914129938, 
			 "total_energy": -387.305516, 
			 "HOMO_LUMO_gap": 0.19648, 
			 "cosmo_polarized_energy": -7.13, 
			 "cosmo_cavitation_energy": 22.72, 
			 "cosmo_dispersion_energy": -16.97, 
			 "cosmo_repulsion_energy": 1.4, 
			 "cosmo_total_nonelectrostatic_energy": 7.15, 
			 "SMD_solvation_energy": 4.03 
		},
		"coords": [
			{
				"x": -1.9584265977,
				"y": 0.1661330214,
				"z": 1.8524113356,
				"element": "C" 
			},
			{
				"x": -0.4987859452,
				"y": -0.0298804611,
				"z": 1.4725198818,
				"element": "C" 
			},
			{
				"x": 0.3007634942,
				"y": -0.4414464166,
				"z": 2.3016215003,
				"element": "O" 
			},
			{
				"x": -0.0820338981,
				"y": 0.2959426425,
				"z": 0.0658407342,
				"element": "C" 
			},
			{
				"x": 1.2183716259,
				"y": 0.14952971,
				"z": -0.2484249845,
				"element": "C" 
			},
			{
				"x": 1.8113490501,
				"y": 0.4655636508,
				"z": -1.5912951105,
				"element": "C" 
			},
			{
				"x": 0.8537475618,
				"y": 1.266670756,
				"z": -2.4859738512,
				"element": "C" 
			},
			{
				"x": -0.56925398,
				"y": 0.7040623152,
				"z": -2.3897200813,
				"element": "C" 
			},
			{
				"x": -1.1005162742,
				"y": 0.7816657859,
				"z": -0.9490652452,
				"element": "C" 
			},
			{
				"x": -2.5985364921,
				"y": -0.5348462997,
				"z": 1.3035283973,
				"element": "H" 
			},
			{
				"x": -2.0712063511,
				"y": -0.0114235602,
				"z": 2.9223860244,
				"element": "H" 
			},
			{
				"x": -2.3058566364,
				"y": 1.1753448718,
				"z": 1.6049948818,
				"element": "H" 
			},
			{
				"x": 1.8799513905,
				"y": -0.222824601,
				"z": 0.5310080255,
				"element": "H" 
			},
			{
				"x": 2.0905805936,
				"y": -0.4802950478,
				"z": -2.0821264009,
				"element": "H" 
			},
			{
				"x": 2.7578909568,
				"y": 1.0049694609,
				"z": -1.4534568062,
				"element": "H" 
			},
			{
				"x": 1.2067142599,
				"y": 1.2570683964,
				"z": -3.523088406,
				"element": "H" 
			},
			{
				"x": 0.849163219,
				"y": 2.316405679,
				"z": -2.1639069362,
				"element": "H" 
			},
			{
				"x": -1.2451233973,
				"y": 1.2405987242,
				"z": -3.0649429548,
				"element": "H" 
			},
			{
				"x": -0.5643921486,
				"y": -0.3446071834,
				"z": -2.7159639168,
				"element": "H" 
			},
			{
				"x": -1.388739395,
				"y": 1.8182585978,
				"z": -0.7171972292,
				"element": "H" 
			},
			{
				"x": -2.0244610361,
				"y": 0.1964099577,
				"z": -0.8694488582,
				"element": "H" 
			}
		],
		 "valence_orbital": [ 
			{
				"type": "occ",
				"energy": -0.33367,
				"method": "rhf"
			},
			{
				"type": "occ",
				"energy": -0.32728,
				"method": "rhf"
			},
			{
				"type": "occ",
				"energy": -0.31582,
				"method": "rhf"
			},
			{
				"type": "occ",
				"energy": -0.24656,
				"method": "rhf"
			},
			{
				"type": "occ",
				"energy": -0.23717,
				"method": "rhf"
			},
			{
				"type": "unocc",
				"energy": -0.04069,
				"method": "rhf"
			},
			{
				"type": "unocc",
				"energy": 0.06804,
				"method": "rhf"
			},
			{
				"type": "unocc",
				"energy": 0.08405,
				"method": "rhf"
			},
			{
				"type": "unocc",
				"energy": 0.10513,
				"method": "rhf"
			},
			{
				"type": "unocc",
				"energy": 0.11549,
				"method": "rhf"
			}
		],
		"cosmo_sigma_profile": { 
			"-0.025": 0.0,
			"-0.024": 0.0,
			"-0.023": 0.0,
			"-0.022": 0.0,
			"-0.021": 0.0,
			"-0.02": 0.0,
			"-0.019": 0.0,
			"-0.018": 0.0,
			"-0.017": 0.0,
			"-0.016": 0.0,
			"-0.015": 0.0,
			"-0.014": 0.0,
			"-0.013": 0.0,
			"-0.012": 0.0,
			"-0.011": 0.0,
			"-0.01": 0.0,
			"-0.009": 0.0,
			"-0.008": 0.0,
			"-0.007": 0.0,
			"-0.006": 2.31637367122,
			"-0.005": 7.19042024899,
			"-0.004": 14.4733942523,
			"-0.003": 20.6639568503,
			"-0.002": 32.2453479224,
			"-0.001": 30.8642969874,
			"0.0": 23.1623940353,
			"0.001": 10.8603444586,
			"0.002": 4.96571916266,
			"0.003": 3.81742047667,
			"0.004": 4.57861721804,
			"0.005": 2.23271600536,
			"0.006": 1.55674932826,
			"0.007": 2.38357697139,
			"0.008": 1.37720585669,
			"0.009": 1.62359829632,
			"0.01": 1.8896445858,
			"0.011": 2.30964365288,
			"0.012": 3.71305977455,
			"0.013": 3.75876231224,
			"0.014": 1.01079311273,
			"0.015": 0.0122077770057,
			"0.016": 0.0,
			"0.017": 0.0,
			"0.018": 0.0,
			"0.019": 0.0,
			"0.02": 0.0,
			"0.021": 0.0,
			"0.022": 0.0,
			"0.023": 0.0,
			"0.024": 0.0,
			"0.025": 0.0
		}
	}
}
