{
	 "smiles": "NCC1=CC(NS(=O)(=O)C2=CC=C(Cl)C=C2)=CC=C1", 
	 "Tm": 460.15, 
	 "num_atms": 32, 
	 "gaussian": { 
		 "optdone": 1, 
		 "sigma_profile": "yes", 
		 "theory": "DFT", 
		 "functional": "B3LYP", 
		 "basiset": "6-31G**", 
		 "properties": { 
			 "R2extent": 6894.3758, 
			 "electric_dipole_moment_norm": 4.68920605113, 
			 "electric_quadrupole_moment_norm": 9.98942941664, 
			 "total_energy": -1621.47601616, 
			 "HOMO_LUMO_gap": 0.17952, 
			 "cosmo_polarized_energy": -19.06, 
			 "cosmo_cavitation_energy": 39.72, 
			 "cosmo_dispersion_energy": -27.34, 
			 "cosmo_repulsion_energy": 2.09, 
			 "cosmo_total_nonelectrostatic_energy": 14.47, 
			 "SMD_solvation_energy": 4.04 
		},
		"coords": [
			{
				"x": 4.3114008653,
				"y": 0.8755682055,
				"z": -0.531465531,
				"element": "N" 
			},
			{
				"x": 3.8461734785,
				"y": 0.8853781882,
				"z": -1.9264164609,
				"element": "C" 
			},
			{
				"x": 2.3432661467,
				"y": 1.0226183334,
				"z": -2.1146005975,
				"element": "C" 
			},
			{
				"x": 1.5093667025,
				"y": -0.0830009066,
				"z": -1.907292374,
				"element": "C" 
			},
			{
				"x": 0.1200241787,
				"y": 0.0441690827,
				"z": -2.0160742246,
				"element": "C" 
			},
			{
				"x": -0.7187729432,
				"y": -1.0935199098,
				"z": -1.8301415017,
				"element": "N" 
			},
			{
				"x": -0.790128546,
				"y": -1.9498979654,
				"z": -0.3657512964,
				"element": "S" 
			},
			{
				"x": -1.8202463084,
				"y": -2.9627698403,
				"z": -0.5935201654,
				"element": "O" 
			},
			{
				"x": 0.5839241949,
				"y": -2.2843732242,
				"z": 0.0042654834,
				"element": "O" 
			},
			{
				"x": -1.4135125459,
				"y": -0.8040781566,
				"z": 0.8683978625,
				"element": "C" 
			},
			{
				"x": -2.7797329339,
				"y": -0.7939249063,
				"z": 1.1586323453,
				"element": "C" 
			},
			{
				"x": -3.275458007,
				"y": 0.1091229055,
				"z": 2.0971635441,
				"element": "C" 
			},
			{
				"x": -2.3934201838,
				"y": 0.9899294494,
				"z": 2.7261020811,
				"element": "C" 
			},
			{
				"x": -3.0147187429,
				"y": 2.1286375433,
				"z": 3.9043770873,
				"element": "Cl" 
			},
			{
				"x": -1.0261263158,
				"y": 0.9786127959,
				"z": 2.443234044,
				"element": "C" 
			},
			{
				"x": -0.5321202351,
				"y": 0.0714804737,
				"z": 1.5079818218,
				"element": "C" 
			},
			{
				"x": -0.4452611071,
				"y": 1.2791640479,
				"z": -2.3626459775,
				"element": "C" 
			},
			{
				"x": 0.3841651284,
				"y": 2.3724227562,
				"z": -2.6040532321,
				"element": "C" 
			},
			{
				"x": 1.7681816357,
				"y": 2.2493243829,
				"z": -2.4714056231,
				"element": "C" 
			},
			{
				"x": 3.9006785378,
				"y": 0.0832399904,
				"z": -0.0415385809,
				"element": "H" 
			},
			{
				"x": 3.9700080449,
				"y": 1.7079581717,
				"z": -0.0548368069,
				"element": "H" 
			},
			{
				"x": 4.192797111,
				"y": -0.0429653502,
				"z": -2.3943771194,
				"element": "H" 
			},
			{
				"x": 4.353852255,
				"y": 1.7068073366,
				"z": -2.4443230457,
				"element": "H" 
			},
			{
				"x": 1.9291302521,
				"y": -1.0536187926,
				"z": -1.6656185044,
				"element": "H" 
			},
			{
				"x": -1.6538749674,
				"y": -1.0087166796,
				"z": -2.2167891118,
				"element": "H" 
			},
			{
				"x": -3.4396546891,
				"y": -1.5017594543,
				"z": 0.6689680778,
				"element": "H" 
			},
			{
				"x": -4.3308051192,
				"y": 0.1269370341,
				"z": 2.3446127935,
				"element": "H" 
			},
			{
				"x": -0.3600012663,
				"y": 1.6647362872,
				"z": 2.9538443642,
				"element": "H" 
			},
			{
				"x": 0.5284221371,
				"y": 0.0317389693,
				"z": 1.2879612101,
				"element": "H" 
			},
			{
				"x": -1.5244959892,
				"y": 1.3774262017,
				"z": -2.4464071236,
				"element": "H" 
			},
			{
				"x": -0.0533092572,
				"y": 3.325429011,
				"z": -2.8871043176,
				"element": "H" 
			},
			{
				"x": 2.408348489,
				"y": 3.1082240194,
				"z": -2.6567791206,
				"element": "H" 
			}
		],
		 "valence_orbital": [ 
			{
				"type": "occ",
				"energy": -0.28825,
				"method": "rhf"
			},
			{
				"type": "occ",
				"energy": -0.27137,
				"method": "rhf"
			},
			{
				"type": "occ",
				"energy": -0.26579,
				"method": "rhf"
			},
			{
				"type": "occ",
				"energy": -0.24328,
				"method": "rhf"
			},
			{
				"type": "occ",
				"energy": -0.23456,
				"method": "rhf"
			},
			{
				"type": "unocc",
				"energy": -0.05504,
				"method": "rhf"
			},
			{
				"type": "unocc",
				"energy": -0.03832,
				"method": "rhf"
			},
			{
				"type": "unocc",
				"energy": -0.01884,
				"method": "rhf"
			},
			{
				"type": "unocc",
				"energy": -0.016,
				"method": "rhf"
			},
			{
				"type": "unocc",
				"energy": 0.01245,
				"method": "rhf"
			}
		],
		"cosmo_sigma_profile": { 
			"-0.025": 0.0,
			"-0.024": 0.0,
			"-0.023": 0.0,
			"-0.022": 0.0,
			"-0.021": 0.0,
			"-0.02": 0.0,
			"-0.019": 0.0,
			"-0.018": 0.0,
			"-0.017": 0.0,
			"-0.016": 0.369993354294,
			"-0.015": 0.97449160496,
			"-0.014": 1.33612425206,
			"-0.013": 1.07258534603,
			"-0.012": 1.51540935051,
			"-0.011": 1.35634279106,
			"-0.01": 1.6476050313,
			"-0.009": 3.72550667786,
			"-0.008": 9.64525511996,
			"-0.007": 12.0521050244,
			"-0.006": 15.5388969373,
			"-0.005": 18.2293767272,
			"-0.004": 21.2939218129,
			"-0.003": 18.798720149,
			"-0.002": 18.5860911481,
			"-0.001": 22.1732907421,
			"0.0": 25.180287037,
			"0.001": 29.5265384337,
			"0.002": 20.9767312349,
			"0.003": 19.2364735304,
			"0.004": 21.8677048932,
			"0.005": 12.0934007126,
			"0.006": 6.03166133749,
			"0.007": 4.24814709311,
			"0.008": 4.9434313897,
			"0.009": 5.29431341456,
			"0.01": 7.23494602706,
			"0.011": 7.49116837682,
			"0.012": 1.6318066314,
			"0.013": 0.706343760801,
			"0.014": 0.824942641137,
			"0.015": 0.56944958085,
			"0.016": 0.340043526806,
			"0.017": 0.86943907445,
			"0.018": 0.574810380083,
			"0.019": 0.70906722692,
			"0.02": 0.21484976195,
			"0.021": 0.0,
			"0.022": 0.0,
			"0.023": 0.0,
			"0.024": 0.0,
			"0.025": 0.0
		}
	}
}
