{
	 "smiles": "S=C(NC1=CC=CC=C1)N1CCCCC1", 
	 "Tm": 373.15, 
	 "num_atms": 31, 
	 "gaussian": { 
		 "optdone": 1, 
		 "sigma_profile": "yes", 
		 "theory": "DFT", 
		 "functional": "B3LYP", 
		 "basiset": "6-31G**", 
		 "properties": { 
			 "R2extent": 5046.4249, 
			 "electric_dipole_moment_norm": 5.52086727064, 
			 "electric_quadrupole_moment_norm": 15.5792717384, 
			 "total_energy": -974.621932626, 
			 "HOMO_LUMO_gap": 0.1762, 
			 "cosmo_polarized_energy": -17.01, 
			 "cosmo_cavitation_energy": 33.65, 
			 "cosmo_dispersion_energy": -25.15, 
			 "cosmo_repulsion_energy": 1.94, 
			 "cosmo_total_nonelectrostatic_energy": 10.44, 
			 "SMD_solvation_energy": 3.56 
		},
		"coords": [
			{
				"x": -0.3165144716,
				"y": 0.7533638986,
				"z": -2.6777172591,
				"element": "S" 
			},
			{
				"x": -0.0360482185,
				"y": 0.2864468565,
				"z": -1.0842863677,
				"element": "C" 
			},
			{
				"x": 1.0068137491,
				"y": 0.7667260572,
				"z": -0.3130941276,
				"element": "N" 
			},
			{
				"x": 1.9315233228,
				"y": 1.8032091811,
				"z": -0.5889205883,
				"element": "C" 
			},
			{
				"x": 1.5659243117,
				"y": 3.0087723397,
				"z": -1.2030152307,
				"element": "C" 
			},
			{
				"x": 2.5191979435,
				"y": 4.0108694503,
				"z": -1.3732509917,
				"element": "C" 
			},
			{
				"x": 3.8320398586,
				"y": 3.8401901592,
				"z": -0.9275176573,
				"element": "C" 
			},
			{
				"x": 4.1903504421,
				"y": 2.6450748256,
				"z": -0.303873831,
				"element": "C" 
			},
			{
				"x": 3.2481707893,
				"y": 1.6308996202,
				"z": -0.1393164403,
				"element": "C" 
			},
			{
				"x": -0.8168544613,
				"y": -0.6265708294,
				"z": -0.4272963207,
				"element": "N" 
			},
			{
				"x": -0.7678601098,
				"y": -0.8036771693,
				"z": 1.0349741223,
				"element": "C" 
			},
			{
				"x": -2.1184697596,
				"y": -1.289493546,
				"z": 1.5706141265,
				"element": "C" 
			},
			{
				"x": -2.5301722602,
				"y": -2.6457866337,
				"z": 0.9646223759,
				"element": "C" 
			},
			{
				"x": -2.0161585978,
				"y": -2.7781395786,
				"z": -0.4874844957,
				"element": "C" 
			},
			{
				"x": -1.8195912566,
				"y": -1.4174469435,
				"z": -1.1606722599,
				"element": "C" 
			},
			{
				"x": 1.3095924191,
				"y": 0.1577030533,
				"z": 0.4341674805,
				"element": "H" 
			},
			{
				"x": 0.5505313161,
				"y": 3.1495845243,
				"z": -1.5478430601,
				"element": "H" 
			},
			{
				"x": 2.2262087593,
				"y": 4.9395012736,
				"z": -1.8546572069,
				"element": "H" 
			},
			{
				"x": 4.5652093801,
				"y": 4.6292838263,
				"z": -1.0642120865,
				"element": "H" 
			},
			{
				"x": 5.206127603,
				"y": 2.4932225887,
				"z": 0.0496347526,
				"element": "H" 
			},
			{
				"x": 3.5358388802,
				"y": 0.6936972272,
				"z": 0.332345821,
				"element": "H" 
			},
			{
				"x": -0.5191320202,
				"y": 0.1582712551,
				"z": 1.4927749464,
				"element": "H" 
			},
			{
				"x": 0.021405187,
				"y": -1.5201032449,
				"z": 1.320383372,
				"element": "H" 
			},
			{
				"x": -2.8696269675,
				"y": -0.526726576,
				"z": 1.3365690915,
				"element": "H" 
			},
			{
				"x": -2.0629729338,
				"y": -1.3476766847,
				"z": 2.6627614713,
				"element": "H" 
			},
			{
				"x": -2.1343179188,
				"y": -3.467496369,
				"z": 1.5719454281,
				"element": "H" 
			},
			{
				"x": -3.6212960734,
				"y": -2.7363564794,
				"z": 0.9957772667,
				"element": "H" 
			},
			{
				"x": -2.7074550466,
				"y": -3.3734006901,
				"z": -1.0926461385,
				"element": "H" 
			},
			{
				"x": -1.0569283574,
				"y": -3.3092439788,
				"z": -0.5013229886,
				"element": "H" 
			},
			{
				"x": -1.4640669352,
				"y": -1.5301681487,
				"z": -2.1851526058,
				"element": "H" 
			},
			{
				"x": -2.7679685739,
				"y": -0.8653292649,
				"z": -1.2193905984,
				"element": "H" 
			}
		],
		 "valence_orbital": [ 
			{
				"type": "occ",
				"energy": -0.28059,
				"method": "rhf"
			},
			{
				"type": "occ",
				"energy": -0.24773,
				"method": "rhf"
			},
			{
				"type": "occ",
				"energy": -0.22106,
				"method": "rhf"
			},
			{
				"type": "occ",
				"energy": -0.20258,
				"method": "rhf"
			},
			{
				"type": "occ",
				"energy": -0.19238,
				"method": "rhf"
			},
			{
				"type": "unocc",
				"energy": -0.01618,
				"method": "rhf"
			},
			{
				"type": "unocc",
				"energy": 0.00336,
				"method": "rhf"
			},
			{
				"type": "unocc",
				"energy": 0.02891,
				"method": "rhf"
			},
			{
				"type": "unocc",
				"energy": 0.06029,
				"method": "rhf"
			},
			{
				"type": "unocc",
				"energy": 0.07641,
				"method": "rhf"
			}
		],
		"cosmo_sigma_profile": { 
			"-0.025": 0.0,
			"-0.024": 0.0,
			"-0.023": 0.0,
			"-0.022": 0.0,
			"-0.021": 0.0,
			"-0.02": 0.0,
			"-0.019": 0.0,
			"-0.018": 0.0,
			"-0.017": 0.0,
			"-0.016": 0.0,
			"-0.015": 0.0348390914996,
			"-0.014": 1.14395538892,
			"-0.013": 1.35633004949,
			"-0.012": 1.53244154342,
			"-0.011": 1.46075257404,
			"-0.01": 1.32948319705,
			"-0.009": 1.52540644418,
			"-0.008": 1.97073867242,
			"-0.007": 2.39315523915,
			"-0.006": 7.46269409633,
			"-0.005": 12.0587177421,
			"-0.004": 26.5279916407,
			"-0.003": 36.6036295095,
			"-0.002": 33.1879898885,
			"-0.001": 21.4215844074,
			"0.0": 19.3087692698,
			"0.001": 12.6102390165,
			"0.002": 9.90275558842,
			"0.003": 9.98562158328,
			"0.004": 10.1852579049,
			"0.005": 12.4742330321,
			"0.006": 11.1567064219,
			"0.007": 5.49565435261,
			"0.008": 4.91879571831,
			"0.009": 4.9099228427,
			"0.01": 5.33450982798,
			"0.011": 5.26149115699,
			"0.012": 4.27355958999,
			"0.013": 1.47785287487,
			"0.014": 0.0513188609155,
			"0.015": 0.0,
			"0.016": 0.0,
			"0.017": 0.0,
			"0.018": 0.0,
			"0.019": 0.0,
			"0.02": 0.0,
			"0.021": 0.0,
			"0.022": 0.0,
			"0.023": 0.0,
			"0.024": 0.0,
			"0.025": 0.0
		}
	}
}
