{
	 "smiles": "COC(=O)C(N1CCN(CC1)C(=O)OC(C)(C)C)C1=CC=C(F)C=C1", 
	 "Tm": 356.15, 
	 "num_atms": 50, 
	 "gaussian": { 
		 "optdone": 1, 
		 "sigma_profile": "yes", 
		 "theory": "DFT", 
		 "functional": "B3LYP", 
		 "basiset": "6-31G**", 
		 "properties": { 
			 "R2extent": 12590.9999, 
			 "electric_dipole_moment_norm": 2.89779803472, 
			 "electric_quadrupole_moment_norm": 18.2970317136, 
			 "total_energy": -1211.23853148, 
			 "HOMO_LUMO_gap": 0.20174, 
			 "cosmo_polarized_energy": -14.57, 
			 "cosmo_cavitation_energy": 51.01, 
			 "cosmo_dispersion_energy": -33.89, 
			 "cosmo_repulsion_energy": 2.57, 
			 "cosmo_total_nonelectrostatic_energy": 19.69, 
			 "SMD_solvation_energy": 9.51 
		},
		"coords": [
			{
				"x": -1.1842755208,
				"y": -1.6184509135,
				"z": 3.5729288568,
				"element": "C" 
			},
			{
				"x": -0.617105638,
				"y": -1.9710867986,
				"z": 2.2974431544,
				"element": "O" 
			},
			{
				"x": -1.5003872221,
				"y": -2.058322111,
				"z": 1.2747163324,
				"element": "C" 
			},
			{
				"x": -2.689106246,
				"y": -1.8535232966,
				"z": 1.4074732503,
				"element": "O" 
			},
			{
				"x": -0.8271900761,
				"y": -2.3169237489,
				"z": -0.0865334407,
				"element": "C" 
			},
			{
				"x": -0.2715220193,
				"y": -1.0821793378,
				"z": -0.6456933128,
				"element": "N" 
			},
			{
				"x": 0.8680088494,
				"y": -0.4616449817,
				"z": 0.0579513345,
				"element": "C" 
			},
			{
				"x": 0.5374728656,
				"y": 0.900725706,
				"z": 0.6736956533,
				"element": "C" 
			},
			{
				"x": 0.0229790149,
				"y": 1.7959688358,
				"z": -0.3661923857,
				"element": "N" 
			},
			{
				"x": -0.6267218923,
				"y": 1.183855071,
				"z": -1.5275174762,
				"element": "C" 
			},
			{
				"x": -1.2853040328,
				"y": -0.1296574115,
				"z": -1.1187270448,
				"element": "C" 
			},
			{
				"x": 0.0040787638,
				"y": 3.1593840092,
				"z": -0.2505478008,
				"element": "C" 
			},
			{
				"x": -0.4542732668,
				"y": 3.9069351866,
				"z": -1.104739095,
				"element": "O" 
			},
			{
				"x": 0.5579972003,
				"y": 3.5464855106,
				"z": 0.9271485774,
				"element": "O" 
			},
			{
				"x": 0.6889063356,
				"y": 4.9716526512,
				"z": 1.2642956101,
				"element": "C" 
			},
			{
				"x": -0.6976219358,
				"y": 5.6167604336,
				"z": 1.366659669,
				"element": "C" 
			},
			{
				"x": 1.5832467328,
				"y": 5.6772895253,
				"z": 0.2390678613,
				"element": "C" 
			},
			{
				"x": 1.3679988882,
				"y": 4.9271176255,
				"z": 2.6360417958,
				"element": "C" 
			},
			{
				"x": 0.169115944,
				"y": -3.473913003,
				"z": -0.1110120331,
				"element": "C" 
			},
			{
				"x": 1.1346372111,
				"y": -3.5328531414,
				"z": -1.124842957,
				"element": "C" 
			},
			{
				"x": 2.0056184422,
				"y": -4.6165744137,
				"z": -1.2299088171,
				"element": "C" 
			},
			{
				"x": 1.8961440802,
				"y": -5.6530567777,
				"z": -0.3106496496,
				"element": "C" 
			},
			{
				"x": 2.7366217732,
				"y": -6.705262527,
				"z": -0.4020185421,
				"element": "F" 
			},
			{
				"x": 0.9442145911,
				"y": -5.6343554552,
				"z": 0.7013826496,
				"element": "C" 
			},
			{
				"x": 0.0842158813,
				"y": -4.540144601,
				"z": 0.7938842274,
				"element": "C" 
			},
			{
				"x": -1.6436163376,
				"y": -0.6277760369,
				"z": 3.5285017946,
				"element": "H" 
			},
			{
				"x": -0.3519730821,
				"y": -1.6246480316,
				"z": 4.2762236544,
				"element": "H" 
			},
			{
				"x": -1.9446345307,
				"y": -2.345109444,
				"z": 3.8682875556,
				"element": "H" 
			},
			{
				"x": -1.6708322828,
				"y": -2.5819109509,
				"z": -0.7362272894,
				"element": "H" 
			},
			{
				"x": 1.2177751043,
				"y": -1.1295033006,
				"z": 0.8466976535,
				"element": "H" 
			},
			{
				"x": 1.7010405236,
				"y": -0.3308065473,
				"z": -0.6464159968,
				"element": "H" 
			},
			{
				"x": -0.1922010852,
				"y": 0.7850070519,
				"z": 1.487644904,
				"element": "H" 
			},
			{
				"x": 1.4397075491,
				"y": 1.3349850801,
				"z": 1.1095893688,
				"element": "H" 
			},
			{
				"x": 0.1001255084,
				"y": 1.0028734497,
				"z": -2.3318645953,
				"element": "H" 
			},
			{
				"x": -1.3703733997,
				"y": 1.885114958,
				"z": -1.9089897142,
				"element": "H" 
			},
			{
				"x": -1.7998366274,
				"y": -0.5639676633,
				"z": -1.9850694457,
				"element": "H" 
			},
			{
				"x": -2.0572088583,
				"y": 0.0805799601,
				"z": -0.3599401442,
				"element": "H" 
			},
			{
				"x": -0.5990610023,
				"y": 6.6454765145,
				"z": 1.7286037635,
				"element": "H" 
			},
			{
				"x": -1.1935540358,
				"y": 5.628416668,
				"z": 0.3961110639,
				"element": "H" 
			},
			{
				"x": -1.3209458984,
				"y": 5.0651458717,
				"z": 2.0778036699,
				"element": "H" 
			},
			{
				"x": 1.7682484153,
				"y": 6.7076137338,
				"z": 0.5601743087,
				"element": "H" 
			},
			{
				"x": 1.1122667493,
				"y": 5.6922029387,
				"z": -0.7438604597,
				"element": "H" 
			},
			{
				"x": 2.5490489962,
				"y": 5.1672998493,
				"z": 0.1631653523,
				"element": "H" 
			},
			{
				"x": 2.3407112756,
				"y": 4.4305985712,
				"z": 2.5703932276,
				"element": "H" 
			},
			{
				"x": 1.5227720964,
				"y": 5.9426893054,
				"z": 3.012348077,
				"element": "H" 
			},
			{
				"x": 0.7498818455,
				"y": 4.3818056947,
				"z": 3.3553463228,
				"element": "H" 
			},
			{
				"x": 1.1951414813,
				"y": -2.7159502494,
				"z": -1.8358739181,
				"element": "H" 
			},
			{
				"x": 2.7585040763,
				"y": -4.6675293467,
				"z": -2.009221349,
				"element": "H" 
			},
			{
				"x": 0.8873064758,
				"y": -6.4618599643,
				"z": 1.4002239439,
				"element": "H" 
			},
			{
				"x": -0.6554416807,
				"y": -4.5254741482,
				"z": 1.5879418344,
				"element": "H" 
			}
		],
		 "valence_orbital": [ 
			{
				"type": "occ",
				"energy": -0.26213,
				"method": "rhf"
			},
			{
				"type": "occ",
				"energy": -0.25784,
				"method": "rhf"
			},
			{
				"type": "occ",
				"energy": -0.2433,
				"method": "rhf"
			},
			{
				"type": "occ",
				"energy": -0.23449,
				"method": "rhf"
			},
			{
				"type": "occ",
				"energy": -0.21628,
				"method": "rhf"
			},
			{
				"type": "unocc",
				"energy": -0.01454,
				"method": "rhf"
			},
			{
				"type": "unocc",
				"energy": -0.00634,
				"method": "rhf"
			},
			{
				"type": "unocc",
				"energy": -0.00063,
				"method": "rhf"
			},
			{
				"type": "unocc",
				"energy": 0.05479,
				"method": "rhf"
			},
			{
				"type": "unocc",
				"energy": 0.06456,
				"method": "rhf"
			}
		],
		"cosmo_sigma_profile": { 
			"-0.025": 0.0,
			"-0.024": 0.0,
			"-0.023": 0.0,
			"-0.022": 0.0,
			"-0.021": 0.0,
			"-0.02": 0.0,
			"-0.019": 0.0,
			"-0.018": 0.0,
			"-0.017": 0.0,
			"-0.016": 0.0,
			"-0.015": 0.0,
			"-0.014": 0.0,
			"-0.013": 0.0,
			"-0.012": 0.0,
			"-0.011": 0.0,
			"-0.01": 0.0,
			"-0.009": 0.0,
			"-0.008": 0.0686070859156,
			"-0.007": 4.62785902505,
			"-0.006": 13.4315933588,
			"-0.005": 23.2453352905,
			"-0.004": 42.7423161889,
			"-0.003": 48.9093537899,
			"-0.002": 37.0375033755,
			"-0.001": 32.3510881248,
			"0.0": 40.6421200937,
			"0.001": 38.5756230182,
			"0.002": 24.4584313738,
			"0.003": 18.9623575888,
			"0.004": 25.0413850704,
			"0.005": 13.7994038435,
			"0.006": 6.00576410624,
			"0.007": 4.91009997466,
			"0.008": 3.91147039577,
			"0.009": 2.4202727481,
			"0.01": 3.49954175697,
			"0.011": 4.52608661157,
			"0.012": 5.37526552658,
			"0.013": 3.2084931001,
			"0.014": 2.07299123938,
			"0.015": 0.0,
			"0.016": 0.0,
			"0.017": 0.0,
			"0.018": 0.0,
			"0.019": 0.0,
			"0.02": 0.0,
			"0.021": 0.0,
			"0.022": 0.0,
			"0.023": 0.0,
			"0.024": 0.0,
			"0.025": 0.0
		}
	}
}
