{
	 "smiles": "CC1=C(O)C=CC(=C1)S(=O)(=O)C1=CC(C)=C(O)C=C1", 
	 "Tm": 547.15, 
	 "num_atms": 33, 
	 "gaussian": { 
		 "optdone": 1, 
		 "sigma_profile": "yes", 
		 "theory": "DFT", 
		 "functional": "B3LYP", 
		 "basiset": "6-31G**", 
		 "properties": { 
			 "R2extent": 6976.3632, 
			 "electric_dipole_moment_norm": 6.56348675172, 
			 "electric_quadrupole_moment_norm": 25.9171899742, 
			 "total_energy": -1240.95268813, 
			 "HOMO_LUMO_gap": 0.19393, 
			 "cosmo_polarized_energy": -23.46, 
			 "cosmo_cavitation_energy": 38.47, 
			 "cosmo_dispersion_energy": -27.56, 
			 "cosmo_repulsion_energy": 2.09, 
			 "cosmo_total_nonelectrostatic_energy": 13.01, 
			 "SMD_solvation_energy": 6.48 
		},
		"coords": [
			{
				"x": -0.8384250535,
				"y": 2.2494120404,
				"z": -3.5207668212,
				"element": "C" 
			},
			{
				"x": -1.2473007474,
				"y": 1.5838380692,
				"z": -2.232425499,
				"element": "C" 
			},
			{
				"x": -1.7507051173,
				"y": 2.358743541,
				"z": -1.1672748249,
				"element": "C" 
			},
			{
				"x": -1.8270340374,
				"y": 3.7043360817,
				"z": -1.3765881264,
				"element": "O" 
			},
			{
				"x": -2.1565303457,
				"y": 1.7670380098,
				"z": 0.0333952308,
				"element": "C" 
			},
			{
				"x": -2.0592222856,
				"y": 0.3880805926,
				"z": 0.2014306571,
				"element": "C" 
			},
			{
				"x": -1.552920282,
				"y": -0.3852419682,
				"z": -0.8415976398,
				"element": "C" 
			},
			{
				"x": -1.1577151795,
				"y": 0.2058282255,
				"z": -2.0462303538,
				"element": "C" 
			},
			{
				"x": -1.4235256871,
				"y": -2.1642479326,
				"z": -0.6414920734,
				"element": "S" 
			},
			{
				"x": -2.3622431172,
				"y": -2.5490478821,
				"z": 0.4276776889,
				"element": "O" 
			},
			{
				"x": -1.4937239016,
				"y": -2.7617071523,
				"z": -1.9860818888,
				"element": "O" 
			},
			{
				"x": 0.2350089921,
				"y": -2.4528713956,
				"z": -0.0198966232,
				"element": "C" 
			},
			{
				"x": 0.4533541254,
				"y": -2.4953079306,
				"z": 1.3579614616,
				"element": "C" 
			},
			{
				"x": 1.7310402839,
				"y": -2.7206878791,
				"z": 1.8723183677,
				"element": "C" 
			},
			{
				"x": 1.9850358025,
				"y": -2.7818410019,
				"z": 3.3598687029,
				"element": "C" 
			},
			{
				"x": 2.7896347246,
				"y": -2.9018190739,
				"z": 0.9588214149,
				"element": "C" 
			},
			{
				"x": 4.0698501022,
				"y": -3.1247010708,
				"z": 1.3685873321,
				"element": "O" 
			},
			{
				"x": 2.5676791147,
				"y": -2.8695151688,
				"z": -0.4229203432,
				"element": "C" 
			},
			{
				"x": 1.2883588222,
				"y": -2.6465622918,
				"z": -0.916867157,
				"element": "C" 
			},
			{
				"x": -0.482648387,
				"y": 1.5121008065,
				"z": -4.244349074,
				"element": "H" 
			},
			{
				"x": -0.0418977141,
				"y": 2.9825073262,
				"z": -3.3524267503,
				"element": "H" 
			},
			{
				"x": -1.6766042174,
				"y": 2.7955771797,
				"z": -3.966859495,
				"element": "H" 
			},
			{
				"x": -2.1976482303,
				"y": 4.1307507439,
				"z": -0.5927963625,
				"element": "H" 
			},
			{
				"x": -2.5568818726,
				"y": 2.3868485026,
				"z": 0.8329894262,
				"element": "H" 
			},
			{
				"x": -2.3926940235,
				"y": -0.0870946638,
				"z": 1.1171763447,
				"element": "H" 
			},
			{
				"x": -0.7996146743,
				"y": -0.423720278,
				"z": -2.8545802084,
				"element": "H" 
			},
			{
				"x": -0.3885070511,
				"y": -2.3754872761,
				"z": 2.0325117998,
				"element": "H" 
			},
			{
				"x": 2.6903537464,
				"y": -2.0069107555,
				"z": 3.6901584799,
				"element": "H" 
			},
			{
				"x": 1.0585771008,
				"y": -2.6314389346,
				"z": 3.9182042686,
				"element": "H" 
			},
			{
				"x": 2.3913248162,
				"y": -3.7547359237,
				"z": 3.6684692414,
				"element": "H" 
			},
			{
				"x": 4.1064021034,
				"y": -3.1415463924,
				"z": 2.3333184974,
				"element": "H" 
			},
			{
				"x": 3.4096474831,
				"y": -3.0309821536,
				"z": -1.0875520654,
				"element": "H" 
			},
			{
				"x": 1.0978747071,
				"y": -2.6456939933,
				"z": -1.9843836077,
				"element": "H" 
			}
		],
		 "valence_orbital": [ 
			{
				"type": "occ",
				"energy": -0.27694,
				"method": "rhf"
			},
			{
				"type": "occ",
				"energy": -0.26248,
				"method": "rhf"
			},
			{
				"type": "occ",
				"energy": -0.25968,
				"method": "rhf"
			},
			{
				"type": "occ",
				"energy": -0.24564,
				"method": "rhf"
			},
			{
				"type": "occ",
				"energy": -0.22731,
				"method": "rhf"
			},
			{
				"type": "unocc",
				"energy": -0.03338,
				"method": "rhf"
			},
			{
				"type": "unocc",
				"energy": -0.01846,
				"method": "rhf"
			},
			{
				"type": "unocc",
				"energy": -0.00865,
				"method": "rhf"
			},
			{
				"type": "unocc",
				"energy": -0.00161,
				"method": "rhf"
			},
			{
				"type": "unocc",
				"energy": 0.05355,
				"method": "rhf"
			}
		],
		"cosmo_sigma_profile": { 
			"-0.025": 0.0,
			"-0.024": 0.0,
			"-0.023": 0.0,
			"-0.022": 0.0,
			"-0.021": 0.0,
			"-0.02": 0.0,
			"-0.019": 0.00514103895125,
			"-0.018": 0.966093174836,
			"-0.017": 1.57987901514,
			"-0.016": 2.19794664096,
			"-0.015": 1.76329958502,
			"-0.014": 2.09610974996,
			"-0.013": 2.36476600386,
			"-0.012": 1.78455463782,
			"-0.011": 2.05350118746,
			"-0.01": 2.16926611934,
			"-0.009": 2.98080938882,
			"-0.008": 2.37941908569,
			"-0.007": 7.97311628387,
			"-0.006": 13.6574026707,
			"-0.005": 19.2755165461,
			"-0.004": 17.804634519,
			"-0.003": 17.9014465692,
			"-0.002": 20.7283534804,
			"-0.001": 22.0079653246,
			"0.0": 22.1431206425,
			"0.001": 20.3144588089,
			"0.002": 24.2533123604,
			"0.003": 31.0426368859,
			"0.004": 12.071141221,
			"0.005": 5.15606081522,
			"0.006": 6.78760965889,
			"0.007": 4.96393977499,
			"0.008": 6.28110222858,
			"0.009": 7.03861278248,
			"0.01": 6.92137473108,
			"0.011": 7.89014451623,
			"0.012": 7.74729418776,
			"0.013": 1.74212973922,
			"0.014": 0.0,
			"0.015": 0.0,
			"0.016": 0.0,
			"0.017": 0.0,
			"0.018": 0.0,
			"0.019": 0.0,
			"0.02": 0.0,
			"0.021": 0.0,
			"0.022": 0.0,
			"0.023": 0.0,
			"0.024": 0.0,
			"0.025": 0.0
		}
	}
}
