{
	 "smiles": "CCN(CC)CCN1C2=CC=C(Cl)C=C2C(=NCC1=O)C1=CC=CC=C1F", 
	 "Tm": 352.65, 
	 "num_atms": 50, 
	 "gaussian": { 
		 "optdone": 1, 
		 "sigma_profile": "yes", 
		 "theory": "DFT", 
		 "functional": "B3LYP", 
		 "basiset": "6-31G**", 
		 "properties": { 
			 "R2extent": 14028.0793, 
			 "electric_dipole_moment_norm": 2.16395884665, 
			 "electric_quadrupole_moment_norm": 26.1890844987, 
			 "total_energy": -1613.59933507, 
			 "HOMO_LUMO_gap": 0.15807, 
			 "cosmo_polarized_energy": -13.12, 
			 "cosmo_cavitation_energy": 52.81, 
			 "cosmo_dispersion_energy": -35.04, 
			 "cosmo_repulsion_energy": 2.65, 
			 "cosmo_total_nonelectrostatic_energy": 20.42, 
			 "SMD_solvation_energy": 6.72 
		},
		"coords": [
			{
				"x": -3.9830133977,
				"y": 0.8518911135,
				"z": 3.2248156065,
				"element": "C" 
			},
			{
				"x": -3.8047143829,
				"y": 0.5462538137,
				"z": 1.737242024,
				"element": "C" 
			},
			{
				"x": -2.8196874917,
				"y": 1.4134569495,
				"z": 1.0760282687,
				"element": "N" 
			},
			{
				"x": -3.1307956385,
				"y": 2.851003004,
				"z": 1.1344316378,
				"element": "C" 
			},
			{
				"x": -4.477839056,
				"y": 3.2986822272,
				"z": 0.5403687024,
				"element": "C" 
			},
			{
				"x": -2.4730471869,
				"y": 0.956860051,
				"z": -0.2743138146,
				"element": "C" 
			},
			{
				"x": -1.0080319403,
				"y": 1.2077062218,
				"z": -0.6736203363,
				"element": "C" 
			},
			{
				"x": -0.0226030003,
				"y": 0.253214997,
				"z": -0.121396876,
				"element": "N" 
			},
			{
				"x": 0.8557846328,
				"y": 0.6436768154,
				"z": 0.9248465101,
				"element": "C" 
			},
			{
				"x": 0.3253735647,
				"y": 1.3678219907,
				"z": 2.0057571693,
				"element": "C" 
			},
			{
				"x": 1.1381839822,
				"y": 1.8255914057,
				"z": 3.0345048691,
				"element": "C" 
			},
			{
				"x": 2.5069823245,
				"y": 1.5535254069,
				"z": 2.9938788172,
				"element": "C" 
			},
			{
				"x": 3.5445495425,
				"y": 2.1125655248,
				"z": 4.2979557199,
				"element": "Cl" 
			},
			{
				"x": 3.0555741077,
				"y": 0.8436563585,
				"z": 1.9368963606,
				"element": "C" 
			},
			{
				"x": 2.2451774544,
				"y": 0.3773556229,
				"z": 0.8868993662,
				"element": "C" 
			},
			{
				"x": 2.8811789853,
				"y": -0.4105693225,
				"z": -0.2042826829,
				"element": "C" 
			},
			{
				"x": 2.3769239433,
				"y": -1.480348106,
				"z": -0.7099599715,
				"element": "N" 
			},
			{
				"x": 1.0901379069,
				"y": -1.9433612432,
				"z": -0.2090513834,
				"element": "C" 
			},
			{
				"x": -0.0124668774,
				"y": -1.007157595,
				"z": -0.698392835,
				"element": "C" 
			},
			{
				"x": -0.814758799,
				"y": -1.3231425889,
				"z": -1.5648960036,
				"element": "O" 
			},
			{
				"x": 4.2270033145,
				"y": -0.0067875766,
				"z": -0.7118385259,
				"element": "C" 
			},
			{
				"x": 5.1581975936,
				"y": -0.9930732605,
				"z": -1.0801390567,
				"element": "C" 
			},
			{
				"x": 6.4107537429,
				"y": -0.6562391369,
				"z": -1.5847220141,
				"element": "C" 
			},
			{
				"x": 6.7601838166,
				"y": 0.6878977858,
				"z": -1.7437309296,
				"element": "C" 
			},
			{
				"x": 5.8521752431,
				"y": 1.6890135193,
				"z": -1.4029031652,
				"element": "C" 
			},
			{
				"x": 4.6079619264,
				"y": 1.3279548342,
				"z": -0.8989152566,
				"element": "C" 
			},
			{
				"x": 3.7368984433,
				"y": 2.3183436289,
				"z": -0.605352262,
				"element": "F" 
			},
			{
				"x": -3.0186879359,
				"y": 0.8367213895,
				"z": 3.7427297647,
				"element": "H" 
			},
			{
				"x": -4.4488040975,
				"y": 1.8266554812,
				"z": 3.3993590254,
				"element": "H" 
			},
			{
				"x": -4.6292547423,
				"y": 0.0963907204,
				"z": 3.6826556815,
				"element": "H" 
			},
			{
				"x": -3.4399684243,
				"y": -0.4813809528,
				"z": 1.6337068069,
				"element": "H" 
			},
			{
				"x": -4.7908654492,
				"y": 0.5737597272,
				"z": 1.2387403226,
				"element": "H" 
			},
			{
				"x": -2.3196340921,
				"y": 3.3811738238,
				"z": 0.6220766112,
				"element": "H" 
			},
			{
				"x": -3.077733681,
				"y": 3.1724142448,
				"z": 2.1805246846,
				"element": "H" 
			},
			{
				"x": -5.3257081817,
				"y": 2.8733892126,
				"z": 1.0861771237,
				"element": "H" 
			},
			{
				"x": -4.5628460762,
				"y": 4.3888957466,
				"z": 0.5972027611,
				"element": "H" 
			},
			{
				"x": -4.5809545136,
				"y": 3.0145463203,
				"z": -0.5115783892,
				"element": "H" 
			},
			{
				"x": -2.657295104,
				"y": -0.1161746791,
				"z": -0.3521200738,
				"element": "H" 
			},
			{
				"x": -3.1062543373,
				"y": 1.4266533869,
				"z": -1.0458550602,
				"element": "H" 
			},
			{
				"x": -0.9411138583,
				"y": 1.1219797523,
				"z": -1.7622176655,
				"element": "H" 
			},
			{
				"x": -0.6841510933,
				"y": 2.2118382366,
				"z": -0.3920611461,
				"element": "H" 
			},
			{
				"x": -0.7494547278,
				"y": 1.5330639534,
				"z": 2.0273061429,
				"element": "H" 
			},
			{
				"x": 0.7152772852,
				"y": 2.3754276192,
				"z": 3.8681919184,
				"element": "H" 
			},
			{
				"x": 4.1207838808,
				"y": 0.6443630171,
				"z": 1.915451575,
				"element": "H" 
			},
			{
				"x": 0.8780135443,
				"y": -2.9293076505,
				"z": -0.6231732018,
				"element": "H" 
			},
			{
				"x": 1.069187621,
				"y": -2.0005066538,
				"z": 0.8899571528,
				"element": "H" 
			},
			{
				"x": 4.8653959893,
				"y": -2.0303340842,
				"z": -0.9602429701,
				"element": "H" 
			},
			{
				"x": 7.1142280132,
				"y": -1.4384022422,
				"z": -1.8521642869,
				"element": "H" 
			},
			{
				"x": 7.7358575784,
				"y": 0.9590073813,
				"z": -2.1356556896,
				"element": "H" 
			},
			{
				"x": 6.081999648,
				"y": 2.7415338079,
				"z": -1.5280210259,
				"element": "H" 
			}
		],
		 "valence_orbital": [ 
			{
				"type": "occ",
				"energy": -0.25396,
				"method": "rhf"
			},
			{
				"type": "occ",
				"energy": -0.25186,
				"method": "rhf"
			},
			{
				"type": "occ",
				"energy": -0.24027,
				"method": "rhf"
			},
			{
				"type": "occ",
				"energy": -0.22776,
				"method": "rhf"
			},
			{
				"type": "occ",
				"energy": -0.2157,
				"method": "rhf"
			},
			{
				"type": "unocc",
				"energy": -0.05763,
				"method": "rhf"
			},
			{
				"type": "unocc",
				"energy": -0.02434,
				"method": "rhf"
			},
			{
				"type": "unocc",
				"energy": -0.02132,
				"method": "rhf"
			},
			{
				"type": "unocc",
				"energy": -0.00381,
				"method": "rhf"
			},
			{
				"type": "unocc",
				"energy": 0.01924,
				"method": "rhf"
			}
		],
		"cosmo_sigma_profile": { 
			"-0.025": 0.0,
			"-0.024": 0.0,
			"-0.023": 0.0,
			"-0.022": 0.0,
			"-0.021": 0.0,
			"-0.02": 0.0,
			"-0.019": 0.0,
			"-0.018": 0.0,
			"-0.017": 0.0,
			"-0.016": 0.0,
			"-0.015": 0.0,
			"-0.014": 0.0,
			"-0.013": 0.0,
			"-0.012": 0.0,
			"-0.011": 0.0,
			"-0.01": 0.0,
			"-0.009": 0.0,
			"-0.008": 0.994329440551,
			"-0.007": 6.64147207264,
			"-0.006": 15.7170524376,
			"-0.005": 19.0096338608,
			"-0.004": 27.953917202,
			"-0.003": 40.646186623,
			"-0.002": 45.7615631009,
			"-0.001": 50.2651336779,
			"0.0": 45.2574067104,
			"0.001": 41.9942846277,
			"0.002": 33.4435132051,
			"0.003": 26.9148914578,
			"0.004": 30.1584051761,
			"0.005": 10.3966213631,
			"0.006": 3.50047176764,
			"0.007": 2.97217468653,
			"0.008": 1.96975142809,
			"0.009": 2.35504216707,
			"0.01": 2.25978698166,
			"0.011": 2.83720135481,
			"0.012": 3.30823623974,
			"0.013": 4.55434762693,
			"0.014": 1.55187628795,
			"0.015": 0.123280262815,
			"0.016": 0.0,
			"0.017": 0.0,
			"0.018": 0.0,
			"0.019": 0.0,
			"0.02": 0.0,
			"0.021": 0.0,
			"0.022": 0.0,
			"0.023": 0.0,
			"0.024": 0.0,
			"0.025": 0.0
		}
	}
}
