{
	 "smiles": "CN1C=C(C=C1C(O)=O)S(=O)(=O)N1CCCC1", 
	 "Tm": 493.15, 
	 "num_atms": 31, 
	 "gaussian": { 
		 "optdone": 1, 
		 "sigma_profile": "yes", 
		 "theory": "DFT", 
		 "functional": "B3LYP", 
		 "basiset": "6-31G**", 
		 "properties": { 
			 "R2extent": 6497.7279, 
			 "electric_dipole_moment_norm": 3.19779263555, 
			 "electric_quadrupole_moment_norm": 28.2535650013, 
			 "total_energy": -1198.01597861, 
			 "HOMO_LUMO_gap": 0.19862, 
			 "cosmo_polarized_energy": -22.32, 
			 "cosmo_cavitation_energy": 35.41, 
			 "cosmo_dispersion_energy": -25.57, 
			 "cosmo_repulsion_energy": 1.95, 
			 "cosmo_total_nonelectrostatic_energy": 11.8, 
			 "SMD_solvation_energy": 5.35 
		},
		"coords": [
			{
				"x": 3.2191488634,
				"y": -2.4451817763,
				"z": -3.5110824972,
				"element": "C" 
			},
			{
				"x": 2.5588383213,
				"y": -1.8019974547,
				"z": -2.374196603,
				"element": "N" 
			},
			{
				"x": 1.2503891659,
				"y": -1.4422782857,
				"z": -2.3547808165,
				"element": "C" 
			},
			{
				"x": 0.9708308223,
				"y": -0.8612279757,
				"z": -1.1265758352,
				"element": "C" 
			},
			{
				"x": 2.1639731632,
				"y": -0.857111915,
				"z": -0.3722459113,
				"element": "C" 
			},
			{
				"x": 3.1432117394,
				"y": -1.4441838776,
				"z": -1.1627991252,
				"element": "C" 
			},
			{
				"x": 4.5561042249,
				"y": -1.7313702509,
				"z": -0.8652934722,
				"element": "C" 
			},
			{
				"x": 5.0606830449,
				"y": -1.1236465568,
				"z": 0.239443153,
				"element": "O" 
			},
			{
				"x": 5.2580998225,
				"y": -2.4651385722,
				"z": -1.5285648593,
				"element": "O" 
			},
			{
				"x": -0.5962780127,
				"y": -0.1899290162,
				"z": -0.6778321565,
				"element": "S" 
			},
			{
				"x": -0.4084221839,
				"y": 1.152381281,
				"z": -0.1185945487,
				"element": "O" 
			},
			{
				"x": -1.4728889457,
				"y": -0.3973220614,
				"z": -1.8414683824,
				"element": "O" 
			},
			{
				"x": -1.0478393179,
				"y": -1.1689571637,
				"z": 0.6110402736,
				"element": "N" 
			},
			{
				"x": -1.5828428167,
				"y": -2.5138213216,
				"z": 0.2879142277,
				"element": "C" 
			},
			{
				"x": -2.3215319345,
				"y": -2.9042457494,
				"z": 1.5727637449,
				"element": "C" 
			},
			{
				"x": -2.920584344,
				"y": -1.5676019487,
				"z": 2.0385809178,
				"element": "C" 
			},
			{
				"x": -1.8112573502,
				"y": -0.5481032644,
				"z": 1.7353033059,
				"element": "C" 
			},
			{
				"x": 3.5800851511,
				"y": -3.4352131364,
				"z": -3.2324505492,
				"element": "H" 
			},
			{
				"x": 4.0734355257,
				"y": -1.8522387245,
				"z": -3.8403159353,
				"element": "H" 
			},
			{
				"x": 2.4914654025,
				"y": -2.5223376825,
				"z": -4.3201591637,
				"element": "H" 
			},
			{
				"x": 0.5957671064,
				"y": -1.6026173147,
				"z": -3.197931525,
				"element": "H" 
			},
			{
				"x": 2.2674224767,
				"y": -0.4921525086,
				"z": 0.6402926308,
				"element": "H" 
			},
			{
				"x": 4.4408723413,
				"y": -0.4612053371,
				"z": 0.5755461833,
				"element": "H" 
			},
			{
				"x": -0.7645771506,
				"y": -3.1958039041,
				"z": 0.0362309263,
				"element": "H" 
			},
			{
				"x": -2.2715016954,
				"y": -2.4666457463,
				"z": -0.5649687284,
				"element": "H" 
			},
			{
				"x": -3.0727727373,
				"y": -3.678485429,
				"z": 1.3948421891,
				"element": "H" 
			},
			{
				"x": -1.611819713,
				"y": -3.2850163376,
				"z": 2.3158063913,
				"element": "H" 
			},
			{
				"x": -3.2046148868,
				"y": -1.5656205395,
				"z": 3.0945207637,
				"element": "H" 
			},
			{
				"x": -3.8146898945,
				"y": -1.3348688141,
				"z": 1.4495490888,
				"element": "H" 
			},
			{
				"x": -2.1937726955,
				"y": 0.4371385925,
				"z": 1.4638184109,
				"element": "H" 
			},
			{
				"x": -1.1371334926,
				"y": -0.4187972088,
				"z": 2.5895079019,
				"element": "H" 
			}
		],
		 "valence_orbital": [ 
			{
				"type": "occ",
				"energy": -0.2956,
				"method": "rhf"
			},
			{
				"type": "occ",
				"energy": -0.28261,
				"method": "rhf"
			},
			{
				"type": "occ",
				"energy": -0.27736,
				"method": "rhf"
			},
			{
				"type": "occ",
				"energy": -0.25576,
				"method": "rhf"
			},
			{
				"type": "occ",
				"energy": -0.24317,
				"method": "rhf"
			},
			{
				"type": "unocc",
				"energy": -0.04455,
				"method": "rhf"
			},
			{
				"type": "unocc",
				"energy": 0.00109,
				"method": "rhf"
			},
			{
				"type": "unocc",
				"energy": 0.05203,
				"method": "rhf"
			},
			{
				"type": "unocc",
				"energy": 0.0645,
				"method": "rhf"
			},
			{
				"type": "unocc",
				"energy": 0.07613,
				"method": "rhf"
			}
		],
		"cosmo_sigma_profile": { 
			"-0.025": 0.0,
			"-0.024": 0.0,
			"-0.023": 0.0,
			"-0.022": 0.0,
			"-0.021": 0.0,
			"-0.02": 0.0,
			"-0.019": 0.212503686187,
			"-0.018": 0.835729490315,
			"-0.017": 1.45988522232,
			"-0.016": 1.17158060852,
			"-0.015": 1.44328086214,
			"-0.014": 0.351661397284,
			"-0.013": 1.15838034407,
			"-0.012": 1.37567889336,
			"-0.011": 1.60632608306,
			"-0.01": 2.82326821633,
			"-0.009": 3.82060187923,
			"-0.008": 4.22587940393,
			"-0.007": 4.01161211842,
			"-0.006": 7.25273024513,
			"-0.005": 13.4728230183,
			"-0.004": 29.0916923187,
			"-0.003": 37.9448249513,
			"-0.002": 27.4109643843,
			"-0.001": 23.5881839781,
			"0.0": 16.9912369582,
			"0.001": 10.3268597293,
			"0.002": 9.14137248137,
			"0.003": 8.39955948804,
			"0.004": 6.13927619937,
			"0.005": 6.55432232561,
			"0.006": 5.39922071297,
			"0.007": 5.68921221055,
			"0.008": 6.06147017119,
			"0.009": 7.08481654052,
			"0.01": 9.01357148912,
			"0.011": 13.968996965,
			"0.012": 9.53212373015,
			"0.013": 2.12990670328,
			"0.014": 0.0712763892898,
			"0.015": 0.0,
			"0.016": 0.0,
			"0.017": 0.0,
			"0.018": 0.0,
			"0.019": 0.0,
			"0.02": 0.0,
			"0.021": 0.0,
			"0.022": 0.0,
			"0.023": 0.0,
			"0.024": 0.0,
			"0.025": 0.0
		}
	}
}
