{
	 "smiles": "O=S1(=O)CCCCO1", 
	 "Tm": 286.65, 
	 "num_atms": 16, 
	 "gaussian": { 
		 "optdone": 1, 
		 "sigma_profile": "yes", 
		 "theory": "DFT", 
		 "functional": "B3LYP", 
		 "basiset": "6-31G**", 
		 "properties": { 
			 "R2extent": 2281.5419, 
			 "electric_dipole_moment_norm": 5.53452598241, 
			 "electric_quadrupole_moment_norm": 14.158171675, 
			 "total_energy": -781.043608198, 
			 "HOMO_LUMO_gap": 0.34792, 
			 "cosmo_polarized_energy": -13.52, 
			 "cosmo_cavitation_energy": 19.29, 
			 "cosmo_dispersion_energy": -15.76, 
			 "cosmo_repulsion_energy": 1.25, 
			 "cosmo_total_nonelectrostatic_energy": 4.78, 
			 "SMD_solvation_energy": 1.94 
		},
		"coords": [
			{
				"x": -1.8596495979,
				"y": 1.8865024173,
				"z": 1.4591518257,
				"element": "O" 
			},
			{
				"x": -0.5578772315,
				"y": 2.3920010233,
				"z": 1.0530522469,
				"element": "S" 
			},
			{
				"x": 0.0492198606,
				"y": 3.5577142292,
				"z": 1.696384745,
				"element": "O" 
			},
			{
				"x": -0.4931550897,
				"y": 2.6341548299,
				"z": -0.7383054615,
				"element": "C" 
			},
			{
				"x": 0.9631643935,
				"y": 2.8082172156,
				"z": -1.1965915477,
				"element": "C" 
			},
			{
				"x": 1.8488030008,
				"y": 1.6213055656,
				"z": -0.7817139866,
				"element": "C" 
			},
			{
				"x": 1.823465659,
				"y": 1.3798584736,
				"z": 0.7264126222,
				"element": "C" 
			},
			{
				"x": 0.4662403105,
				"y": 1.1128554402,
				"z": 1.1817149957,
				"element": "O" 
			},
			{
				"x": -1.1063316692,
				"y": 3.5139868051,
				"z": -0.9502972261,
				"element": "H" 
			},
			{
				"x": -0.96880113,
				"y": 1.7527571219,
				"z": -1.1767200407,
				"element": "H" 
			},
			{
				"x": 1.357561082,
				"y": 3.7372726553,
				"z": -0.7711792096,
				"element": "H" 
			},
			{
				"x": 0.9691235874,
				"y": 2.923628451,
				"z": -2.2857113196,
				"element": "H" 
			},
			{
				"x": 2.8846758982,
				"y": 1.8039916812,
				"z": -1.0899741438,
				"element": "H" 
			},
			{
				"x": 1.5146807945,
				"y": 0.7101059253,
				"z": -1.2926117566,
				"element": "H" 
			},
			{
				"x": 2.3832768591,
				"y": 0.4848599585,
				"z": 1.0050534333,
				"element": "H" 
			},
			{
				"x": 2.2207032728,
				"y": 2.235388207,
				"z": 1.2825348235,
				"element": "H" 
			}
		],
		 "valence_orbital": [ 
			{
				"type": "occ",
				"energy": -0.34639,
				"method": "rhf"
			},
			{
				"type": "occ",
				"energy": -0.32714,
				"method": "rhf"
			},
			{
				"type": "occ",
				"energy": -0.31435,
				"method": "rhf"
			},
			{
				"type": "occ",
				"energy": -0.30509,
				"method": "rhf"
			},
			{
				"type": "occ",
				"energy": -0.30238,
				"method": "rhf"
			},
			{
				"type": "unocc",
				"energy": 0.04554,
				"method": "rhf"
			},
			{
				"type": "unocc",
				"energy": 0.06515,
				"method": "rhf"
			},
			{
				"type": "unocc",
				"energy": 0.06772,
				"method": "rhf"
			},
			{
				"type": "unocc",
				"energy": 0.0936,
				"method": "rhf"
			},
			{
				"type": "unocc",
				"energy": 0.10321,
				"method": "rhf"
			}
		],
		"cosmo_sigma_profile": { 
			"-0.025": 0.0,
			"-0.024": 0.0,
			"-0.023": 0.0,
			"-0.022": 0.0,
			"-0.021": 0.0,
			"-0.02": 0.0,
			"-0.019": 0.0,
			"-0.018": 0.0,
			"-0.017": 0.0,
			"-0.016": 0.0,
			"-0.015": 0.0,
			"-0.014": 0.0,
			"-0.013": 0.0,
			"-0.012": 0.0,
			"-0.011": 0.0,
			"-0.01": 0.314920062696,
			"-0.009": 2.21281817008,
			"-0.008": 4.49230414818,
			"-0.007": 6.79679532067,
			"-0.006": 10.6017271856,
			"-0.005": 21.9000702095,
			"-0.004": 19.1323619287,
			"-0.003": 12.0201575112,
			"-0.002": 9.24918249331,
			"-0.001": 4.57130435622,
			"0.0": 3.40951454232,
			"0.001": 3.17953285523,
			"0.002": 4.24296093157,
			"0.003": 2.75411442905,
			"0.004": 3.23662565526,
			"0.005": 3.19081139484,
			"0.006": 3.15106562052,
			"0.007": 5.22259237951,
			"0.008": 4.09635260961,
			"0.009": 6.74644159696,
			"0.01": 12.6123289931,
			"0.011": 7.74298490531,
			"0.012": 0.402034276584,
			"0.013": 0.0,
			"0.014": 0.0,
			"0.015": 0.0,
			"0.016": 0.0,
			"0.017": 0.0,
			"0.018": 0.0,
			"0.019": 0.0,
			"0.02": 0.0,
			"0.021": 0.0,
			"0.022": 0.0,
			"0.023": 0.0,
			"0.024": 0.0,
			"0.025": 0.0
		}
	}
}
