{
	 "smiles": "[O-][N+](=O)C1=CC=CC=C1COC(=O)NC1=CC=CC=C1", 
	 "Tm": 414.15, 
	 "num_atms": 32, 
	 "gaussian": { 
		 "optdone": 1, 
		 "sigma_profile": "yes", 
		 "theory": "DFT", 
		 "functional": "B3LYP", 
		 "basiset": "6-31G**", 
		 "properties": { 
			 "R2extent": 7493.187, 
			 "electric_dipole_moment_norm": 2.41513943697, 
			 "electric_quadrupole_moment_norm": 22.833026768, 
			 "total_energy": -951.040981926, 
			 "HOMO_LUMO_gap": 0.12996, 
			 "cosmo_polarized_energy": -14.51, 
			 "cosmo_cavitation_energy": 37.61, 
			 "cosmo_dispersion_energy": -26.84, 
			 "cosmo_repulsion_energy": 2.05, 
			 "cosmo_total_nonelectrostatic_energy": 12.82, 
			 "SMD_solvation_energy": 9.27 
		},
		"coords": [
			{
				"x": 4.4982163664,
				"y": -0.863614401,
				"z": -0.8896384281,
				"element": "O" 
			},
			{
				"x": 3.822281955,
				"y": 0.1029057794,
				"z": -0.5396344112,
				"element": "N" 
			},
			{
				"x": 4.0220372994,
				"y": 0.7508934644,
				"z": 0.4869572621,
				"element": "O" 
			},
			{
				"x": 2.7189621182,
				"y": 0.5150313511,
				"z": -1.4316765188,
				"element": "C" 
			},
			{
				"x": 2.8438067867,
				"y": 0.1307032844,
				"z": -2.7672883693,
				"element": "C" 
			},
			{
				"x": 1.8628009747,
				"y": 0.49579296,
				"z": -3.6844449562,
				"element": "C" 
			},
			{
				"x": 0.7531079948,
				"y": 1.2214796662,
				"z": -3.252213005,
				"element": "C" 
			},
			{
				"x": 0.6331182824,
				"y": 1.5795464847,
				"z": -1.9093422304,
				"element": "C" 
			},
			{
				"x": 1.6151814396,
				"y": 1.2544977323,
				"z": -0.9656374957,
				"element": "C" 
			},
			{
				"x": 1.3924374031,
				"y": 1.6715130803,
				"z": 0.4745489559,
				"element": "C" 
			},
			{
				"x": 1.1958885137,
				"y": 0.5301178981,
				"z": 1.332583467,
				"element": "O" 
			},
			{
				"x": -0.0817998846,
				"y": 0.0488047215,
				"z": 1.3843552413,
				"element": "C" 
			},
			{
				"x": -1.030018844,
				"y": 0.547343149,
				"z": 0.8055736631,
				"element": "O" 
			},
			{
				"x": -0.0896602135,
				"y": -1.0559887534,
				"z": 2.1910656331,
				"element": "N" 
			},
			{
				"x": -1.1828638646,
				"y": -1.8704669939,
				"z": 2.55164049,
				"element": "C" 
			},
			{
				"x": -0.918451133,
				"y": -2.9584289793,
				"z": 3.3981384163,
				"element": "C" 
			},
			{
				"x": -1.9481393459,
				"y": -3.8063807261,
				"z": 3.796477326,
				"element": "C" 
			},
			{
				"x": -3.2546479505,
				"y": -3.5832658674,
				"z": 3.3578361931,
				"element": "C" 
			},
			{
				"x": -3.5128585835,
				"y": -2.5005235841,
				"z": 2.5163913498,
				"element": "C" 
			},
			{
				"x": -2.4933024392,
				"y": -1.6404750223,
				"z": 2.1073676657,
				"element": "C" 
			},
			{
				"x": 3.7101071462,
				"y": -0.4472516882,
				"z": -3.0632107764,
				"element": "H" 
			},
			{
				"x": 1.9642902172,
				"y": 0.2078318779,
				"z": -4.7258921987,
				"element": "H" 
			},
			{
				"x": -0.0265480524,
				"y": 1.4992371831,
				"z": -3.954913776,
				"element": "H" 
			},
			{
				"x": -0.2513514079,
				"y": 2.1069878694,
				"z": -1.567709111,
				"element": "H" 
			},
			{
				"x": 0.5112444708,
				"y": 2.3123631547,
				"z": 0.5284342575,
				"element": "H" 
			},
			{
				"x": 2.2605255974,
				"y": 2.1817836969,
				"z": 0.8828675091,
				"element": "H" 
			},
			{
				"x": 0.8111103813,
				"y": -1.3059167893,
				"z": 2.5743473004,
				"element": "H" 
			},
			{
				"x": 0.0975055599,
				"y": -3.1377163788,
				"z": 3.7427933548,
				"element": "H" 
			},
			{
				"x": -1.7249863388,
				"y": -4.6433464742,
				"z": 4.4518119952,
				"element": "H" 
			},
			{
				"x": -4.0584895938,
				"y": -4.2437839504,
				"z": 3.6677791647,
				"element": "H" 
			},
			{
				"x": -4.5249090413,
				"y": -2.3148684089,
				"z": 2.1676025552,
				"element": "H" 
			},
			{
				"x": -2.6963958139,
				"y": -0.8024053362,
				"z": 1.4554294763,
				"element": "H" 
			}
		],
		 "valence_orbital": [ 
			{
				"type": "occ",
				"energy": -0.28511,
				"method": "rhf"
			},
			{
				"type": "occ",
				"energy": -0.27817,
				"method": "rhf"
			},
			{
				"type": "occ",
				"energy": -0.27466,
				"method": "rhf"
			},
			{
				"type": "occ",
				"energy": -0.25091,
				"method": "rhf"
			},
			{
				"type": "occ",
				"energy": -0.22049,
				"method": "rhf"
			},
			{
				"type": "unocc",
				"energy": -0.09053,
				"method": "rhf"
			},
			{
				"type": "unocc",
				"energy": -0.0316,
				"method": "rhf"
			},
			{
				"type": "unocc",
				"energy": -0.00795,
				"method": "rhf"
			},
			{
				"type": "unocc",
				"energy": -0.00434,
				"method": "rhf"
			},
			{
				"type": "unocc",
				"energy": -0.00124,
				"method": "rhf"
			}
		],
		"cosmo_sigma_profile": { 
			"-0.025": 0.0,
			"-0.024": 0.0,
			"-0.023": 0.0,
			"-0.022": 0.0,
			"-0.021": 0.0,
			"-0.02": 0.0,
			"-0.019": 0.0,
			"-0.018": 0.0,
			"-0.017": 0.0,
			"-0.016": 0.0455695091302,
			"-0.015": 0.872442077888,
			"-0.014": 1.13308985856,
			"-0.013": 1.37886095204,
			"-0.012": 0.721564724186,
			"-0.011": 0.744605294867,
			"-0.01": 1.50074332424,
			"-0.009": 1.12247262003,
			"-0.008": 2.78406445972,
			"-0.007": 11.3585164601,
			"-0.006": 17.7925355147,
			"-0.005": 20.7557180372,
			"-0.004": 22.1046500846,
			"-0.003": 20.6318285052,
			"-0.002": 19.02703041,
			"-0.001": 21.1426898207,
			"0.0": 19.6825796033,
			"0.001": 22.6384576016,
			"0.002": 23.6538024856,
			"0.003": 15.7793028344,
			"0.004": 15.7798475453,
			"0.005": 15.453981519,
			"0.006": 13.4101827625,
			"0.007": 9.36483324185,
			"0.008": 9.42342878134,
			"0.009": 6.37293642933,
			"0.01": 3.84851285269,
			"0.011": 2.28985355902,
			"0.012": 0.975811918989,
			"0.013": 0.0,
			"0.014": 0.0,
			"0.015": 0.0,
			"0.016": 0.0,
			"0.017": 0.0,
			"0.018": 0.0,
			"0.019": 0.0,
			"0.02": 0.0,
			"0.021": 0.0,
			"0.022": 0.0,
			"0.023": 0.0,
			"0.024": 0.0,
			"0.025": 0.0
		}
	}
}
