{
	 "smiles": "COC1=C(C)C=CC(=C1)C1=NOC(CCl)=N1", 
	 "Tm": 347.15, 
	 "num_atms": 27, 
	 "gaussian": { 
		 "optdone": 1, 
		 "sigma_profile": "yes", 
		 "theory": "DFT", 
		 "functional": "B3LYP", 
		 "basiset": "6-31G**", 
		 "properties": { 
			 "R2extent": 6873.6761, 
			 "electric_dipole_moment_norm": 2.9750500584, 
			 "electric_quadrupole_moment_norm": 13.7969364422, 
			 "total_energy": -1145.90409377, 
			 "HOMO_LUMO_gap": 0.16266, 
			 "cosmo_polarized_energy": -10.58, 
			 "cosmo_cavitation_energy": 33.68, 
			 "cosmo_dispersion_energy": -24.57, 
			 "cosmo_repulsion_energy": 1.94, 
			 "cosmo_total_nonelectrostatic_energy": 11.05, 
			 "SMD_solvation_energy": 4.65 
		},
		"coords": [
			{
				"x": 1.7435359504,
				"y": 0.4363594363,
				"z": 3.5229913271,
				"element": "C" 
			},
			{
				"x": 1.9686032347,
				"y": 1.2962618898,
				"z": 2.4162292295,
				"element": "O" 
			},
			{
				"x": 1.5424133571,
				"y": 0.8929133287,
				"z": 1.1822033797,
				"element": "C" 
			},
			{
				"x": 1.804970565,
				"y": 1.7991503066,
				"z": 0.1311023158,
				"element": "C" 
			},
			{
				"x": 2.5076567607,
				"y": 3.0996208527,
				"z": 0.4179093228,
				"element": "C" 
			},
			{
				"x": 1.3949696494,
				"y": 1.4449621895,
				"z": -1.1554764398,
				"element": "C" 
			},
			{
				"x": 0.7448806991,
				"y": 0.2398284517,
				"z": -1.4184406815,
				"element": "C" 
			},
			{
				"x": 0.4926926731,
				"y": -0.6453108609,
				"z": -0.3657947909,
				"element": "C" 
			},
			{
				"x": 0.8931391103,
				"y": -0.3172243659,
				"z": 0.9396790079,
				"element": "C" 
			},
			{
				"x": -0.1878298892,
				"y": -1.9239017472,
				"z": -0.6006107784,
				"element": "C" 
			},
			{
				"x": -0.5844034653,
				"y": -2.3209074874,
				"z": -1.7928711844,
				"element": "N" 
			},
			{
				"x": -1.1741367029,
				"y": -3.5681920888,
				"z": -1.546596128,
				"element": "O" 
			},
			{
				"x": -1.0635492902,
				"y": -3.7864676245,
				"z": -0.2273980247,
				"element": "C" 
			},
			{
				"x": -1.6100572566,
				"y": -5.0513201298,
				"z": 0.3298320724,
				"element": "C" 
			},
			{
				"x": -0.4710362264,
				"y": -6.4450515198,
				"z": 0.0798662672,
				"element": "Cl" 
			},
			{
				"x": -0.474101344,
				"y": -2.8233662649,
				"z": 0.412805734,
				"element": "N" 
			},
			{
				"x": 0.6729608338,
				"y": 0.258176946,
				"z": 3.6853412416,
				"element": "H" 
			},
			{
				"x": 2.2512506422,
				"y": -0.5280273388,
				"z": 3.3954336092,
				"element": "H" 
			},
			{
				"x": 2.158620464,
				"y": 0.9495824604,
				"z": 4.3917858061,
				"element": "H" 
			},
			{
				"x": 3.4941659536,
				"y": 2.926805164,
				"z": 0.8619553007,
				"element": "H" 
			},
			{
				"x": 1.945535342,
				"y": 3.7026835883,
				"z": 1.1394949699,
				"element": "H" 
			},
			{
				"x": 2.6364556531,
				"y": 3.6839590752,
				"z": -0.4966569845,
				"element": "H" 
			},
			{
				"x": 1.5917199134,
				"y": 2.1338875073,
				"z": -1.9726312896,
				"element": "H" 
			},
			{
				"x": 0.4356161366,
				"y": -0.0148361445,
				"z": -2.4259493968,
				"element": "H" 
			},
			{
				"x": 0.6874503318,
				"y": -1.0201545047,
				"z": 1.7362119087,
				"element": "H" 
			},
			{
				"x": -2.5463838893,
				"y": -5.3210027215,
				"z": -0.1582497708,
				"element": "H" 
			},
			{
				"x": -1.7541392068,
				"y": -4.9394283978,
				"z": 1.4026339766,
				"element": "H" 
			}
		],
		 "valence_orbital": [ 
			{
				"type": "occ",
				"energy": -0.3134,
				"method": "rhf"
			},
			{
				"type": "occ",
				"energy": -0.3036,
				"method": "rhf"
			},
			{
				"type": "occ",
				"energy": -0.29595,
				"method": "rhf"
			},
			{
				"type": "occ",
				"energy": -0.24625,
				"method": "rhf"
			},
			{
				"type": "occ",
				"energy": -0.22021,
				"method": "rhf"
			},
			{
				"type": "unocc",
				"energy": -0.05755,
				"method": "rhf"
			},
			{
				"type": "unocc",
				"energy": -0.0315,
				"method": "rhf"
			},
			{
				"type": "unocc",
				"energy": 0.00615,
				"method": "rhf"
			},
			{
				"type": "unocc",
				"energy": 0.03689,
				"method": "rhf"
			},
			{
				"type": "unocc",
				"energy": 0.06864,
				"method": "rhf"
			}
		],
		"cosmo_sigma_profile": { 
			"-0.025": 0.0,
			"-0.024": 0.0,
			"-0.023": 0.0,
			"-0.022": 0.0,
			"-0.021": 0.0,
			"-0.02": 0.0,
			"-0.019": 0.0,
			"-0.018": 0.0,
			"-0.017": 0.0,
			"-0.016": 0.0,
			"-0.015": 0.0,
			"-0.014": 0.0,
			"-0.013": 0.0,
			"-0.012": 0.0,
			"-0.011": 0.315840262262,
			"-0.01": 4.20927845592,
			"-0.009": 3.96256658121,
			"-0.008": 4.2583962417,
			"-0.007": 4.90544202389,
			"-0.006": 10.3357588909,
			"-0.005": 18.704625958,
			"-0.004": 20.1830310724,
			"-0.003": 19.1800600594,
			"-0.002": 17.9556264703,
			"-0.001": 18.0142725319,
			"0.0": 22.8510139584,
			"0.001": 20.8778418076,
			"0.002": 20.7061935921,
			"0.003": 19.6501078349,
			"0.004": 21.6299353498,
			"0.005": 18.822875325,
			"0.006": 8.69812408453,
			"0.007": 4.59826979747,
			"0.008": 3.62776039189,
			"0.009": 2.98027126268,
			"0.01": 1.90719962604,
			"0.011": 2.24274404587,
			"0.012": 0.604355800206,
			"0.013": 0.00754965479096,
			"0.014": 0.0,
			"0.015": 0.0,
			"0.016": 0.0,
			"0.017": 0.0,
			"0.018": 0.0,
			"0.019": 0.0,
			"0.02": 0.0,
			"0.021": 0.0,
			"0.022": 0.0,
			"0.023": 0.0,
			"0.024": 0.0,
			"0.025": 0.0
		}
	}
}
