{
	 "smiles": "ClC(Cl)(Cl)C1=CC=C(C=C1)C(Cl)(Cl)Cl", 
	 "Tm": 382.15, 
	 "num_atms": 18, 
	 "gaussian": { 
		 "optdone": 1, 
		 "sigma_profile": "yes", 
		 "theory": "DFT", 
		 "functional": "B3LYP", 
		 "basiset": "6-31G**", 
		 "properties": { 
			 "R2extent": 6749.9735, 
			 "electric_dipole_moment_norm": 0.0, 
			 "electric_quadrupole_moment_norm": 11.6905710421, 
			 "total_energy": -3068.37941161, 
			 "HOMO_LUMO_gap": 0.19971, 
			 "cosmo_polarized_energy": -4.72, 
			 "cosmo_cavitation_energy": 32.42, 
			 "cosmo_dispersion_energy": -23.89, 
			 "cosmo_repulsion_energy": 1.88, 
			 "cosmo_total_nonelectrostatic_energy": 10.42, 
			 "SMD_solvation_energy": 3.48 
		},
		"coords": [
			{
				"x": -2.4689406234,
				"y": -3.0548497497,
				"z": 0.1609960292,
				"element": "Cl" 
			},
			{
				"x": -0.8935499922,
				"y": -2.6051405596,
				"z": -0.6188602839,
				"element": "C" 
			},
			{
				"x": 0.2820802847,
				"y": -3.9271122985,
				"z": -0.283269638,
				"element": "Cl" 
			},
			{
				"x": -1.1508186423,
				"y": -2.5362705246,
				"z": -2.4136841408,
				"element": "Cl" 
			},
			{
				"x": -0.4360228259,
				"y": -1.2449426521,
				"z": -0.1105752119,
				"element": "C" 
			},
			{
				"x": -1.2728831442,
				"y": -0.1416307691,
				"z": -0.3172699215,
				"element": "C" 
			},
			{
				"x": -0.9059841222,
				"y": 1.1253375854,
				"z": 0.1260736255,
				"element": "C" 
			},
			{
				"x": 0.3107170903,
				"y": 1.3170180978,
				"z": 0.7883750587,
				"element": "C" 
			},
			{
				"x": 1.1475769916,
				"y": 0.213707413,
				"z": 0.9950684767,
				"element": "C" 
			},
			{
				"x": 0.7806783604,
				"y": -1.0532616658,
				"z": 0.5517244707,
				"element": "C" 
			},
			{
				"x": 0.7682517497,
				"y": 2.6772204685,
				"z": 1.2966437732,
				"element": "C" 
			},
			{
				"x": -0.4074408212,
				"y": 3.9991648352,
				"z": 0.9611821308,
				"element": "Cl" 
			},
			{
				"x": 1.0256846204,
				"y": 2.6083312623,
				"z": 3.0914443767,
				"element": "Cl" 
			},
			{
				"x": 2.3435629154,
				"y": 3.126976568,
				"z": 0.5166521026,
				"element": "Cl" 
			},
			{
				"x": -2.2208769652,
				"y": -0.2673164429,
				"z": -0.8285491874,
				"element": "H" 
			},
			{
				"x": -1.573610676,
				"y": 1.9589822641,
				"z": -0.0482010119,
				"element": "H" 
			},
			{
				"x": 2.0955703589,
				"y": 0.339391751,
				"z": 1.5063488927,
				"element": "H" 
			},
			{
				"x": 1.4483054411,
				"y": -1.886905583,
				"z": 0.7260004587,
				"element": "H" 
			}
		],
		 "valence_orbital": [ 
			{
				"type": "occ",
				"energy": -0.32463,
				"method": "rhf"
			},
			{
				"type": "occ",
				"energy": -0.3139,
				"method": "rhf"
			},
			{
				"type": "occ",
				"energy": -0.3138,
				"method": "rhf"
			},
			{
				"type": "occ",
				"energy": -0.28725,
				"method": "rhf"
			},
			{
				"type": "occ",
				"energy": -0.27595,
				"method": "rhf"
			},
			{
				"type": "unocc",
				"energy": -0.07624,
				"method": "rhf"
			},
			{
				"type": "unocc",
				"energy": -0.05171,
				"method": "rhf"
			},
			{
				"type": "unocc",
				"energy": -0.05039,
				"method": "rhf"
			},
			{
				"type": "unocc",
				"energy": -0.03392,
				"method": "rhf"
			},
			{
				"type": "unocc",
				"energy": -0.01212,
				"method": "rhf"
			}
		],
		"cosmo_sigma_profile": { 
			"-0.025": 0.0,
			"-0.024": 0.0,
			"-0.023": 0.0,
			"-0.022": 0.0,
			"-0.021": 0.0,
			"-0.02": 0.0,
			"-0.019": 0.0,
			"-0.018": 0.0,
			"-0.017": 0.0,
			"-0.016": 0.0,
			"-0.015": 0.0,
			"-0.014": 0.0,
			"-0.013": 0.0,
			"-0.012": 0.0,
			"-0.011": 0.0,
			"-0.01": 0.0,
			"-0.009": 0.0,
			"-0.008": 3.30784746844,
			"-0.007": 7.20573985263,
			"-0.006": 5.58264359088,
			"-0.005": 6.65924078533,
			"-0.004": 13.9634719252,
			"-0.003": 17.8013708382,
			"-0.002": 23.50278019,
			"-0.001": 21.7105313635,
			"0.0": 27.8418241603,
			"0.001": 38.9043279208,
			"0.002": 45.3722700757,
			"0.003": 54.2867934192,
			"0.004": 7.28165597683,
			"0.005": 0.0,
			"0.006": 0.0,
			"0.007": 0.0,
			"0.008": 0.0,
			"0.009": 0.0,
			"0.01": 0.0,
			"0.011": 0.0,
			"0.012": 0.0,
			"0.013": 0.0,
			"0.014": 0.0,
			"0.015": 0.0,
			"0.016": 0.0,
			"0.017": 0.0,
			"0.018": 0.0,
			"0.019": 0.0,
			"0.02": 0.0,
			"0.021": 0.0,
			"0.022": 0.0,
			"0.023": 0.0,
			"0.024": 0.0,
			"0.025": 0.0
		}
	}
}
