{
	 "smiles": "OC(=O)CCS(=O)(=O)C(F)(F)F", 
	 "Tm": 378.15, 
	 "num_atms": 17, 
	 "gaussian": { 
		 "optdone": 1, 
		 "sigma_profile": "yes", 
		 "theory": "DFT", 
		 "functional": "B3LYP", 
		 "basiset": "6-31G**", 
		 "properties": { 
			 "R2extent": 2761.7097, 
			 "electric_dipole_moment_norm": 3.61972614157, 
			 "electric_quadrupole_moment_norm": 8.69790872049, 
			 "total_energy": -1153.97394408, 
			 "HOMO_LUMO_gap": 0.28758, 
			 "cosmo_polarized_energy": -16.29, 
			 "cosmo_cavitation_energy": 24.9, 
			 "cosmo_dispersion_energy": -17.54, 
			 "cosmo_repulsion_energy": 1.32, 
			 "cosmo_total_nonelectrostatic_energy": 8.68, 
			 "SMD_solvation_energy": 5.88 
		},
		"coords": [
			{
				"x": 2.1514145294,
				"y": -1.1971396524,
				"z": 1.7340922556,
				"element": "O" 
			},
			{
				"x": 0.9138280678,
				"y": -1.4294226124,
				"z": 1.2574365522,
				"element": "C" 
			},
			{
				"x": 0.0046773987,
				"y": -1.8615126491,
				"z": 1.9292685579,
				"element": "O" 
			},
			{
				"x": 0.8316414121,
				"y": -1.1478024241,
				"z": -0.2337897363,
				"element": "C" 
			},
			{
				"x": -0.6062932845,
				"y": -0.880283349,
				"z": -0.6797437396,
				"element": "C" 
			},
			{
				"x": -1.0136077631,
				"y": 0.8779995089,
				"z": -0.4235541682,
				"element": "S" 
			},
			{
				"x": -0.5683265535,
				"y": 1.288319771,
				"z": 0.9111784181,
				"element": "O" 
			},
			{
				"x": -0.6517205598,
				"y": 1.6434259279,
				"z": -1.6202476433,
				"element": "O" 
			},
			{
				"x": -2.8885824618,
				"y": 0.8125757969,
				"z": -0.3785363017,
				"element": "C" 
			},
			{
				"x": -3.2945319423,
				"y": 0.1037117344,
				"z": 0.6772206568,
				"element": "F" 
			},
			{
				"x": -3.3298839765,
				"y": 0.2217862077,
				"z": -1.4971380051,
				"element": "F" 
			},
			{
				"x": -3.3663633972,
				"y": 2.0494201617,
				"z": -0.3041295779,
				"element": "F" 
			},
			{
				"x": 2.1323610581,
				"y": -1.4225717977,
				"z": 2.6797711242,
				"element": "H" 
			},
			{
				"x": 1.5175997166,
				"y": -0.3413629196,
				"z": -0.5050497885,
				"element": "H" 
			},
			{
				"x": 1.1922184523,
				"y": -2.046480876,
				"z": -0.7488152144,
				"element": "H" 
			},
			{
				"x": -1.299385684,
				"y": -1.4671092537,
				"z": -0.0709856091,
				"element": "H" 
			},
			{
				"x": -0.7648450123,
				"y": -1.0744535745,
				"z": -1.7413777807,
				"element": "H" 
			}
		],
		 "valence_orbital": [ 
			{
				"type": "occ",
				"energy": -0.34069,
				"method": "rhf"
			},
			{
				"type": "occ",
				"energy": -0.33481,
				"method": "rhf"
			},
			{
				"type": "occ",
				"energy": -0.32131,
				"method": "rhf"
			},
			{
				"type": "occ",
				"energy": -0.3112,
				"method": "rhf"
			},
			{
				"type": "occ",
				"energy": -0.29534,
				"method": "rhf"
			},
			{
				"type": "unocc",
				"energy": -0.00776,
				"method": "rhf"
			},
			{
				"type": "unocc",
				"energy": 0.02047,
				"method": "rhf"
			},
			{
				"type": "unocc",
				"energy": 0.03769,
				"method": "rhf"
			},
			{
				"type": "unocc",
				"energy": 0.05274,
				"method": "rhf"
			},
			{
				"type": "unocc",
				"energy": 0.05896,
				"method": "rhf"
			}
		],
		"cosmo_sigma_profile": { 
			"-0.025": 0.0,
			"-0.024": 0.0,
			"-0.023": 0.0,
			"-0.022": 0.0,
			"-0.021": 0.0,
			"-0.02": 0.0,
			"-0.019": 0.377235084553,
			"-0.018": 1.07694032603,
			"-0.017": 0.811037367024,
			"-0.016": 0.597839201966,
			"-0.015": 0.939576124412,
			"-0.014": 1.02144623174,
			"-0.013": 0.766112722642,
			"-0.012": 0.101874637619,
			"-0.011": 0.707112840393,
			"-0.01": 2.95636230277,
			"-0.009": 7.61739919994,
			"-0.008": 9.41826914686,
			"-0.007": 8.14841263693,
			"-0.006": 9.60981413723,
			"-0.005": 7.46975402975,
			"-0.004": 5.29870317669,
			"-0.003": 7.23619044607,
			"-0.002": 10.0547166448,
			"-0.001": 12.8699757804,
			"0.0": 23.208270527,
			"0.001": 21.0382728678,
			"0.002": 5.20706199704,
			"0.003": 4.81125630351,
			"0.004": 5.41755172986,
			"0.005": 4.56760901872,
			"0.006": 5.51529710649,
			"0.007": 6.40995556334,
			"0.008": 7.6240450137,
			"0.009": 11.9841628771,
			"0.01": 9.52766437904,
			"0.011": 4.88992994336,
			"0.012": 0.68235121327,
			"0.013": 0.0,
			"0.014": 0.0,
			"0.015": 0.0,
			"0.016": 0.0,
			"0.017": 0.0,
			"0.018": 0.0,
			"0.019": 0.0,
			"0.02": 0.0,
			"0.021": 0.0,
			"0.022": 0.0,
			"0.023": 0.0,
			"0.024": 0.0,
			"0.025": 0.0
		}
	}
}
