{
	 "smiles": "NCCNC1=CC=C(C=N1)[N+]([O-])=O", 
	 "Tm": 400.15, 
	 "num_atms": 23, 
	 "gaussian": { 
		 "optdone": 1, 
		 "sigma_profile": "yes", 
		 "theory": "DFT", 
		 "functional": "B3LYP", 
		 "basiset": "6-31G**", 
		 "properties": { 
			 "R2extent": 5360.4522, 
			 "electric_dipole_moment_norm": 6.76767162472, 
			 "electric_quadrupole_moment_norm": 26.2328937315, 
			 "total_energy": -642.124566498, 
			 "HOMO_LUMO_gap": 0.15337, 
			 "cosmo_polarized_energy": -17.78, 
			 "cosmo_cavitation_energy": 27.71, 
			 "cosmo_dispersion_energy": -20.13, 
			 "cosmo_repulsion_energy": 1.61, 
			 "cosmo_total_nonelectrostatic_energy": 9.18, 
			 "SMD_solvation_energy": 4.0 
		},
		"coords": [
			{
				"x": -2.9783946299,
				"y": 1.3026617415,
				"z": -1.3185100482,
				"element": "N" 
			},
			{
				"x": -2.9840490593,
				"y": 0.2072416213,
				"z": -0.3568237712,
				"element": "C" 
			},
			{
				"x": -1.6843982694,
				"y": -0.6216723923,
				"z": -0.2613574121,
				"element": "C" 
			},
			{
				"x": -0.5138822675,
				"y": 0.1598231792,
				"z": 0.1044741121,
				"element": "N" 
			},
			{
				"x": -0.1284369848,
				"y": 0.5125034797,
				"z": 1.3619456678,
				"element": "C" 
			},
			{
				"x": -0.8561205695,
				"y": 0.1499427956,
				"z": 2.5250228188,
				"element": "C" 
			},
			{
				"x": -0.3670505891,
				"y": 0.5409568477,
				"z": 3.7553812443,
				"element": "C" 
			},
			{
				"x": 0.8182853215,
				"y": 1.2821986858,
				"z": 3.801274294,
				"element": "C" 
			},
			{
				"x": 1.4702592341,
				"y": 1.6058850041,
				"z": 2.6085706551,
				"element": "C" 
			},
			{
				"x": 1.0159129348,
				"y": 1.234856994,
				"z": 1.4179652122,
				"element": "N" 
			},
			{
				"x": 1.3635073342,
				"y": 1.7148947477,
				"z": 5.0731798,
				"element": "N" 
			},
			{
				"x": 0.7467446463,
				"y": 1.4047861354,
				"z": 6.0965680563,
				"element": "O" 
			},
			{
				"x": 2.4112822775,
				"y": 2.3667001671,
				"z": 5.0584772271,
				"element": "O" 
			},
			{
				"x": -2.2307187451,
				"y": 1.9564146286,
				"z": -1.0999369584,
				"element": "H" 
			},
			{
				"x": -2.8061163056,
				"y": 0.955763475,
				"z": -2.2593583622,
				"element": "H" 
			},
			{
				"x": -3.8057723848,
				"y": -0.4754270502,
				"z": -0.6065050036,
				"element": "H" 
			},
			{
				"x": -3.2157166385,
				"y": 0.62622973,
				"z": 0.6295749886,
				"element": "H" 
			},
			{
				"x": -1.4739158737,
				"y": -1.0814497577,
				"z": -1.2335471251,
				"element": "H" 
			},
			{
				"x": -1.8118746014,
				"y": -1.4470073742,
				"z": 0.4511509437,
				"element": "H" 
			},
			{
				"x": 0.1169873196,
				"y": 0.4788483076,
				"z": -0.6165342495,
				"element": "H" 
			},
			{
				"x": -1.7760596105,
				"y": -0.4174441458,
				"z": 2.4562902891,
				"element": "H" 
			},
			{
				"x": -0.8762372132,
				"y": 0.2927594194,
				"z": 4.6789080558,
				"element": "H" 
			},
			{
				"x": 2.3885646745,
				"y": 2.1843337605,
				"z": 2.6375895656,
				"element": "H" 
			}
		],
		 "valence_orbital": [ 
			{
				"type": "occ",
				"energy": -0.29663,
				"method": "rhf"
			},
			{
				"type": "occ",
				"energy": -0.28157,
				"method": "rhf"
			},
			{
				"type": "occ",
				"energy": -0.27762,
				"method": "rhf"
			},
			{
				"type": "occ",
				"energy": -0.2545,
				"method": "rhf"
			},
			{
				"type": "occ",
				"energy": -0.23124,
				"method": "rhf"
			},
			{
				"type": "unocc",
				"energy": -0.07787,
				"method": "rhf"
			},
			{
				"type": "unocc",
				"energy": -0.03917,
				"method": "rhf"
			},
			{
				"type": "unocc",
				"energy": 0.01221,
				"method": "rhf"
			},
			{
				"type": "unocc",
				"energy": 0.05525,
				"method": "rhf"
			},
			{
				"type": "unocc",
				"energy": 0.07705,
				"method": "rhf"
			}
		],
		"cosmo_sigma_profile": { 
			"-0.025": 0.0,
			"-0.024": 0.0,
			"-0.023": 0.0,
			"-0.022": 0.0,
			"-0.021": 0.0,
			"-0.02": 0.0,
			"-0.019": 0.0,
			"-0.018": 0.0,
			"-0.017": 0.0,
			"-0.016": 0.0,
			"-0.015": 0.00548046998567,
			"-0.014": 0.607800381469,
			"-0.013": 1.01936044237,
			"-0.012": 0.900258559675,
			"-0.011": 0.777284542834,
			"-0.01": 1.86520855071,
			"-0.009": 3.43435634341,
			"-0.008": 6.72494186252,
			"-0.007": 12.0576781922,
			"-0.006": 14.0457398098,
			"-0.005": 11.8962526932,
			"-0.004": 16.5095205212,
			"-0.003": 16.6117945336,
			"-0.002": 15.8255568579,
			"-0.001": 18.0380336637,
			"0.0": 16.2344350007,
			"0.001": 11.2350356329,
			"0.002": 9.38550967691,
			"0.003": 5.44973801656,
			"0.004": 3.97525559181,
			"0.005": 4.53245455319,
			"0.006": 5.43456704233,
			"0.007": 5.96981272131,
			"0.008": 10.2875956714,
			"0.009": 9.09798592537,
			"0.01": 5.78433949635,
			"0.011": 3.74608246831,
			"0.012": 1.2563180094,
			"0.013": 1.74316938906,
			"0.014": 1.52981312833,
			"0.015": 0.287865089424,
			"0.016": 0.950615031507,
			"0.017": 0.476149883681,
			"0.018": 0.453916778529,
			"0.019": 0.836867527316,
			"0.02": 0.191924844049,
			"0.021": 0.0,
			"0.022": 0.0,
			"0.023": 0.0,
			"0.024": 0.0,
			"0.025": 0.0
		}
	}
}
