{
	 "smiles": "CC#CCN1C(=O)C2=CC=CC=C2C1=O", 
	 "Tm": 494.15, 
	 "num_atms": 24, 
	 "gaussian": { 
		 "optdone": 1, 
		 "sigma_profile": "yes", 
		 "theory": "DFT", 
		 "functional": "B3LYP", 
		 "basiset": "6-31G**", 
		 "properties": { 
			 "R2extent": 4102.2056, 
			 "electric_dipole_moment_norm": 2.29604365159, 
			 "electric_quadrupole_moment_norm": 16.6438576397, 
			 "total_energy": -667.866938412, 
			 "HOMO_LUMO_gap": 0.17118, 
			 "cosmo_polarized_energy": -12.06, 
			 "cosmo_cavitation_energy": 30.46, 
			 "cosmo_dispersion_energy": -21.34, 
			 "cosmo_repulsion_energy": 1.7, 
			 "cosmo_total_nonelectrostatic_energy": 10.82, 
			 "SMD_solvation_energy": 6.87 
		},
		"coords": [
			{
				"x": -3.4861660429,
				"y": 1.8313898776,
				"z": 1.8183676747,
				"element": "C" 
			},
			{
				"x": -2.5955439671,
				"y": 0.6778339394,
				"z": 1.8984865662,
				"element": "C" 
			},
			{
				"x": -1.8548326671,
				"y": -0.2753456157,
				"z": 1.9575977907,
				"element": "C" 
			},
			{
				"x": -0.9653146824,
				"y": -1.4366058503,
				"z": 2.0485543953,
				"element": "C" 
			},
			{
				"x": -0.0691374341,
				"y": -1.5768209124,
				"z": 0.9029890674,
				"element": "N" 
			},
			{
				"x": -0.3986458959,
				"y": -2.2894333117,
				"z": -0.2625595576,
				"element": "C" 
			},
			{
				"x": -1.429200711,
				"y": -2.9062672416,
				"z": -0.4412650181,
				"element": "O" 
			},
			{
				"x": 0.7760642033,
				"y": -2.1277106013,
				"z": -1.1713256938,
				"element": "C" 
			},
			{
				"x": 0.9937698032,
				"y": -2.625002373,
				"z": -2.4479816555,
				"element": "C" 
			},
			{
				"x": 2.2120521942,
				"y": -2.3085909074,
				"z": -3.0639458632,
				"element": "C" 
			},
			{
				"x": 3.1705746823,
				"y": -1.5234023113,
				"z": -2.4102191875,
				"element": "C" 
			},
			{
				"x": 2.9422778296,
				"y": -1.0288252038,
				"z": -1.1190911652,
				"element": "C" 
			},
			{
				"x": 1.7318043858,
				"y": -1.344752073,
				"z": -0.5194922677,
				"element": "C" 
			},
			{
				"x": 1.200598958,
				"y": -0.9792685194,
				"z": 0.8281794548,
				"element": "C" 
			},
			{
				"x": 1.7220136995,
				"y": -0.3246690892,
				"z": 1.7080008172,
				"element": "O" 
			},
			{
				"x": -3.3315222369,
				"y": 2.3810449541,
				"z": 0.8832098675,
				"element": "H" 
			},
			{
				"x": -3.3109075359,
				"y": 2.5275845581,
				"z": 2.6460469257,
				"element": "H" 
			},
			{
				"x": -4.5375667592,
				"y": 1.5251922718,
				"z": 1.8538135407,
				"element": "H" 
			},
			{
				"x": -0.3335302606,
				"y": -1.3633356141,
				"z": 2.9396213767,
				"element": "H" 
			},
			{
				"x": -1.5500034571,
				"y": -2.3601206657,
				"z": 2.1099767058,
				"element": "H" 
			},
			{
				"x": 0.2446754521,
				"y": -3.2338593524,
				"z": -2.9437937024,
				"element": "H" 
			},
			{
				"x": 2.4188508137,
				"y": -2.6773527019,
				"z": -4.0642020785,
				"element": "H" 
			},
			{
				"x": 4.1052827371,
				"y": -1.2958975195,
				"z": -2.9140329795,
				"element": "H" 
			},
			{
				"x": 3.6781068914,
				"y": -0.421285737,
				"z": -0.6022350138,
				"element": "H" 
			}
		],
		 "valence_orbital": [ 
			{
				"type": "occ",
				"energy": -0.27722,
				"method": "rhf"
			},
			{
				"type": "occ",
				"energy": -0.27053,
				"method": "rhf"
			},
			{
				"type": "occ",
				"energy": -0.26659,
				"method": "rhf"
			},
			{
				"type": "occ",
				"energy": -0.25535,
				"method": "rhf"
			},
			{
				"type": "occ",
				"energy": -0.2515,
				"method": "rhf"
			},
			{
				"type": "unocc",
				"energy": -0.08032,
				"method": "rhf"
			},
			{
				"type": "unocc",
				"energy": -0.04008,
				"method": "rhf"
			},
			{
				"type": "unocc",
				"energy": 0.02881,
				"method": "rhf"
			},
			{
				"type": "unocc",
				"energy": 0.04486,
				"method": "rhf"
			},
			{
				"type": "unocc",
				"energy": 0.05904,
				"method": "rhf"
			}
		],
		"cosmo_sigma_profile": { 
			"-0.025": 0.0,
			"-0.024": 0.0,
			"-0.023": 0.0,
			"-0.022": 0.0,
			"-0.021": 0.0,
			"-0.02": 0.0,
			"-0.019": 0.0,
			"-0.018": 0.0,
			"-0.017": 0.0,
			"-0.016": 0.0,
			"-0.015": 0.0,
			"-0.014": 0.0,
			"-0.013": 0.0,
			"-0.012": 0.0,
			"-0.011": 0.0,
			"-0.01": 0.0,
			"-0.009": 0.0,
			"-0.008": 2.6825271478,
			"-0.007": 11.9007130603,
			"-0.006": 17.7379535172,
			"-0.005": 20.4318138941,
			"-0.004": 19.4513464481,
			"-0.003": 17.9010052992,
			"-0.002": 20.4378098293,
			"-0.001": 17.7215877134,
			"0.0": 15.0432290616,
			"0.001": 18.9606326103,
			"0.002": 18.0952849122,
			"0.003": 8.32650106491,
			"0.004": 8.69850429008,
			"0.005": 8.27041738314,
			"0.006": 10.3321383106,
			"0.007": 4.63372604268,
			"0.008": 3.36436186328,
			"0.009": 3.77623770319,
			"0.01": 5.68689552663,
			"0.011": 9.76230770603,
			"0.012": 2.27246248012,
			"0.013": 0.0,
			"0.014": 0.0,
			"0.015": 0.0,
			"0.016": 0.0,
			"0.017": 0.0,
			"0.018": 0.0,
			"0.019": 0.0,
			"0.02": 0.0,
			"0.021": 0.0,
			"0.022": 0.0,
			"0.023": 0.0,
			"0.024": 0.0,
			"0.025": 0.0
		}
	}
}
