{
	 "smiles": "FC1=CC2=C(C=C1)C(=O)NC2=O", 
	 "Tm": 457.15, 
	 "num_atms": 16, 
	 "gaussian": { 
		 "optdone": 1, 
		 "sigma_profile": "yes", 
		 "theory": "DFT", 
		 "functional": "B3LYP", 
		 "basiset": "6-31G**", 
		 "properties": { 
			 "R2extent": 2140.6547, 
			 "electric_dipole_moment_norm": 1.70970465286, 
			 "electric_quadrupole_moment_norm": 8.136032959, 
			 "total_energy": -612.322721124, 
			 "HOMO_LUMO_gap": 0.1848, 
			 "cosmo_polarized_energy": -11.26, 
			 "cosmo_cavitation_energy": 22.14, 
			 "cosmo_dispersion_energy": -16.25, 
			 "cosmo_repulsion_energy": 1.26, 
			 "cosmo_total_nonelectrostatic_energy": 7.15, 
			 "SMD_solvation_energy": 5.71 
		},
		"coords": [
			{
				"x": -1.1570111126,
				"y": 1.4611743282,
				"z": -2.5360246224,
				"element": "F" 
			},
			{
				"x": -0.5706184672,
				"y": 1.2386856053,
				"z": -1.3474259282,
				"element": "C" 
			},
			{
				"x": 0.2832148874,
				"y": 0.1417081874,
				"z": -1.2189780344,
				"element": "C" 
			},
			{
				"x": 0.8581519327,
				"y": -0.036143946,
				"z": 0.0297741104,
				"element": "C" 
			},
			{
				"x": 0.5989765035,
				"y": 0.829987015,
				"z": 1.095789106,
				"element": "C" 
			},
			{
				"x": -0.2535809143,
				"y": 1.9174238094,
				"z": 0.9512104474,
				"element": "C" 
			},
			{
				"x": -0.846665612,
				"y": 2.1194660304,
				"z": -0.298501683,
				"element": "C" 
			},
			{
				"x": 1.3680897843,
				"y": 0.3604261873,
				"z": 2.2861619638,
				"element": "C" 
			},
			{
				"x": 1.4195112711,
				"y": 0.8296344835,
				"z": 3.4032485429,
				"element": "O" 
			},
			{
				"x": 2.052444333,
				"y": -0.7829741694,
				"z": 1.84161847,
				"element": "N" 
			},
			{
				"x": 1.8062993721,
				"y": -1.0968106177,
				"z": 0.4987038716,
				"element": "C" 
			},
			{
				"x": 2.2749849784,
				"y": -2.0301700076,
				"z": -0.1170988955,
				"element": "O" 
			},
			{
				"x": 0.4767524487,
				"y": -0.5233646895,
				"z": -2.052919414,
				"element": "H" 
			},
			{
				"x": -0.4509045844,
				"y": 2.5862937595,
				"z": 1.7824254578,
				"element": "H" 
			},
			{
				"x": -1.5219139018,
				"y": 2.9485215855,
				"z": -0.4797959405,
				"element": "H" 
			},
			{
				"x": 2.6639690812,
				"y": -1.3272575612,
				"z": 2.4339125481,
				"element": "H" 
			}
		],
		 "valence_orbital": [ 
			{
				"type": "occ",
				"energy": -0.29956,
				"method": "rhf"
			},
			{
				"type": "occ",
				"energy": -0.29899,
				"method": "rhf"
			},
			{
				"type": "occ",
				"energy": -0.29018,
				"method": "rhf"
			},
			{
				"type": "occ",
				"energy": -0.27359,
				"method": "rhf"
			},
			{
				"type": "occ",
				"energy": -0.27285,
				"method": "rhf"
			},
			{
				"type": "unocc",
				"energy": -0.08805,
				"method": "rhf"
			},
			{
				"type": "unocc",
				"energy": -0.04972,
				"method": "rhf"
			},
			{
				"type": "unocc",
				"energy": 0.02548,
				"method": "rhf"
			},
			{
				"type": "unocc",
				"energy": 0.07009,
				"method": "rhf"
			},
			{
				"type": "unocc",
				"energy": 0.07538,
				"method": "rhf"
			}
		],
		"cosmo_sigma_profile": { 
			"-0.025": 0.0,
			"-0.024": 0.0,
			"-0.023": 0.0,
			"-0.022": 0.0,
			"-0.021": 0.0,
			"-0.02": 0.0,
			"-0.019": 0.0,
			"-0.018": 0.0,
			"-0.017": 0.200487467334,
			"-0.016": 1.44849073933,
			"-0.015": 1.01807866467,
			"-0.014": 1.36370498145,
			"-0.013": 0.888034225633,
			"-0.012": 0.560207856527,
			"-0.011": 0.854821594485,
			"-0.01": 0.85061925185,
			"-0.009": 2.59790366029,
			"-0.008": 6.32248940121,
			"-0.007": 5.83699845772,
			"-0.006": 7.29298926675,
			"-0.005": 7.59732320449,
			"-0.004": 8.3625778763,
			"-0.003": 10.979497873,
			"-0.002": 14.6931432318,
			"-0.001": 21.3464482334,
			"0.0": 17.4306500895,
			"0.001": 10.8032155263,
			"0.002": 6.70302156426,
			"0.003": 9.43709254504,
			"0.004": 7.46548641385,
			"0.005": 4.31408791304,
			"0.006": 1.06847979714,
			"0.007": 1.66950597572,
			"0.008": 3.67880680349,
			"0.009": 3.83367183964,
			"0.01": 6.41580202901,
			"0.011": 10.4753794931,
			"0.012": 3.62616943566,
			"0.013": 0.00865083998198,
			"0.014": 0.0,
			"0.015": 0.0,
			"0.016": 0.0,
			"0.017": 0.0,
			"0.018": 0.0,
			"0.019": 0.0,
			"0.02": 0.0,
			"0.021": 0.0,
			"0.022": 0.0,
			"0.023": 0.0,
			"0.024": 0.0,
			"0.025": 0.0
		}
	}
}
