{
	 "smiles": "CN(CCO)CC(O)=O", 
	 "Tm": 410.15, 
	 "num_atms": 20, 
	 "gaussian": { 
		 "optdone": 1, 
		 "sigma_profile": "yes", 
		 "theory": "DFT", 
		 "functional": "B3LYP", 
		 "basiset": "6-31G**", 
		 "properties": { 
			 "R2extent": 2017.5104, 
			 "electric_dipole_moment_norm": 3.70479481078, 
			 "electric_quadrupole_moment_norm": 17.2910164282, 
			 "total_energy": -477.557594909, 
			 "HOMO_LUMO_gap": 0.2217, 
			 "cosmo_polarized_energy": -20.84, 
			 "cosmo_cavitation_energy": 22.77, 
			 "cosmo_dispersion_energy": -16.57, 
			 "cosmo_repulsion_energy": 1.38, 
			 "cosmo_total_nonelectrostatic_energy": 7.58, 
			 "SMD_solvation_energy": 3.34 
		},
		"coords": [
			{
				"x": -1.5408307717,
				"y": 1.358148702,
				"z": -0.5270602054,
				"element": "C" 
			},
			{
				"x": -1.8394444983,
				"y": 0.1493444581,
				"z": 0.2276159137,
				"element": "N" 
			},
			{
				"x": -2.6228394717,
				"y": -0.8725919381,
				"z": -0.4653829596,
				"element": "C" 
			},
			{
				"x": -1.9704925708,
				"y": -1.6130010805,
				"z": -1.6451791911,
				"element": "C" 
			},
			{
				"x": -1.8606996925,
				"y": -0.8282088039,
				"z": -2.8254165884,
				"element": "O" 
			},
			{
				"x": -0.727817278,
				"y": -0.3504848422,
				"z": 0.9937438991,
				"element": "C" 
			},
			{
				"x": -0.3422535901,
				"y": 0.551055941,
				"z": 2.1757749966,
				"element": "C" 
			},
			{
				"x": 0.7520729892,
				"y": 0.1195649927,
				"z": 2.8624836557,
				"element": "O" 
			},
			{
				"x": -0.9151111595,
				"y": 1.5521919022,
				"z": 2.5140958411,
				"element": "O" 
			},
			{
				"x": -0.6924784378,
				"y": 1.2500335196,
				"z": -1.2340582197,
				"element": "H" 
			},
			{
				"x": -2.4221067333,
				"y": 1.655757969,
				"z": -1.1002370246,
				"element": "H" 
			},
			{
				"x": -1.2902779777,
				"y": 2.1660440236,
				"z": 0.1639167082,
				"element": "H" 
			},
			{
				"x": -3.5397329508,
				"y": -0.3981955276,
				"z": -0.8342399943,
				"element": "H" 
			},
			{
				"x": -2.9272949512,
				"y": -1.619085332,
				"z": 0.2815088607,
				"element": "H" 
			},
			{
				"x": -2.6079210675,
				"y": -2.4636405436,
				"z": -1.9131115837,
				"element": "H" 
			},
			{
				"x": -0.9945487424,
				"y": -2.0303145622,
				"z": -1.3463670976,
				"element": "H" 
			},
			{
				"x": -1.176665973,
				"y": -0.1632123035,
				"z": -2.6850207131,
				"element": "H" 
			},
			{
				"x": 0.1971634512,
				"y": -0.5188956924,
				"z": 0.3986244161,
				"element": "H" 
			},
			{
				"x": -0.9964386944,
				"y": -1.3275778334,
				"z": 1.4174566567,
				"element": "H" 
			},
			{
				"x": 1.1091181203,
				"y": -0.6860330489,
				"z": 2.4606526297,
				"element": "H" 
			}
		],
		 "valence_orbital": [ 
			{
				"type": "occ",
				"energy": -0.33454,
				"method": "rhf"
			},
			{
				"type": "occ",
				"energy": -0.32044,
				"method": "rhf"
			},
			{
				"type": "occ",
				"energy": -0.28321,
				"method": "rhf"
			},
			{
				"type": "occ",
				"energy": -0.27674,
				"method": "rhf"
			},
			{
				"type": "occ",
				"energy": -0.2167,
				"method": "rhf"
			},
			{
				"type": "unocc",
				"energy": 0.005,
				"method": "rhf"
			},
			{
				"type": "unocc",
				"energy": 0.04413,
				"method": "rhf"
			},
			{
				"type": "unocc",
				"energy": 0.05504,
				"method": "rhf"
			},
			{
				"type": "unocc",
				"energy": 0.0935,
				"method": "rhf"
			},
			{
				"type": "unocc",
				"energy": 0.11295,
				"method": "rhf"
			}
		],
		"cosmo_sigma_profile": { 
			"-0.025": 0.0,
			"-0.024": 0.0,
			"-0.023": 0.0,
			"-0.022": 0.0,
			"-0.021": 0.0,
			"-0.02": 0.0,
			"-0.019": 0.673830667401,
			"-0.018": 1.06048545416,
			"-0.017": 1.09013392007,
			"-0.016": 1.36632742929,
			"-0.015": 1.37710796011,
			"-0.014": 0.637112384984,
			"-0.013": 1.54802558706,
			"-0.012": 2.74710135081,
			"-0.011": 2.71974028605,
			"-0.01": 2.50448378163,
			"-0.009": 2.38877844016,
			"-0.008": 4.35321678946,
			"-0.007": 4.8178079172,
			"-0.006": 5.90647088275,
			"-0.005": 10.4710784116,
			"-0.004": 17.292829676,
			"-0.003": 13.7542609607,
			"-0.002": 14.1977772854,
			"-0.001": 13.0499714909,
			"0.0": 8.39457385974,
			"0.001": 4.63820802962,
			"0.002": 4.9074033326,
			"0.003": 3.90494129173,
			"0.004": 3.26381437022,
			"0.005": 3.5634136006,
			"0.006": 3.74405779679,
			"0.007": 3.8171077948,
			"0.008": 4.53083015476,
			"0.009": 4.87057435518,
			"0.01": 6.2253079306,
			"0.011": 6.57466132018,
			"0.012": 6.37760442858,
			"0.013": 4.52906003949,
			"0.014": 3.18626031387,
			"0.015": 1.87695519588,
			"0.016": 0.469094636133,
			"0.017": 0.00335655846178,
			"0.018": 0.0,
			"0.019": 0.0,
			"0.02": 0.0,
			"0.021": 0.0,
			"0.022": 0.0,
			"0.023": 0.0,
			"0.024": 0.0,
			"0.025": 0.0
		}
	}
}
