{
	 "smiles": "OC(=O)C1=CC2=C(OC=C2)C=C1", 
	 "Tm": 463.15, 
	 "num_atms": 18, 
	 "gaussian": { 
		 "optdone": 1, 
		 "sigma_profile": "yes", 
		 "theory": "DFT", 
		 "functional": "B3LYP", 
		 "basiset": "6-31G**", 
		 "properties": { 
			 "R2extent": 2257.0315, 
			 "electric_dipole_moment_norm": 2.69917297149, 
			 "electric_quadrupole_moment_norm": 5.49838089623, 
			 "total_energy": -572.250305099, 
			 "HOMO_LUMO_gap": 0.19055, 
			 "cosmo_polarized_energy": -9.88, 
			 "cosmo_cavitation_energy": 23.05, 
			 "cosmo_dispersion_energy": -17.38, 
			 "cosmo_repulsion_energy": 1.36, 
			 "cosmo_total_nonelectrostatic_energy": 7.03, 
			 "SMD_solvation_energy": 5.96 
		},
		"coords": [
			{
				"x": -1.1072016015,
				"y": -1.2737999197,
				"z": 2.3672934989,
				"element": "O" 
			},
			{
				"x": -1.3277579103,
				"y": -0.0725118363,
				"z": 1.771890602,
				"element": "C" 
			},
			{
				"x": -2.258520802,
				"y": 0.640029306,
				"z": 2.09565755,
				"element": "O" 
			},
			{
				"x": -0.3318725349,
				"y": 0.2501057909,
				"z": 0.7190397882,
				"element": "C" 
			},
			{
				"x": 0.7127045432,
				"y": -0.6257354471,
				"z": 0.4052025867,
				"element": "C" 
			},
			{
				"x": 1.6121157746,
				"y": -0.2520191467,
				"z": -0.5991733839,
				"element": "C" 
			},
			{
				"x": 1.4314805864,
				"y": 0.9847047432,
				"z": -1.2513291418,
				"element": "C" 
			},
			{
				"x": 2.4020942689,
				"y": 1.1688515605,
				"z": -2.1925293661,
				"element": "O" 
			},
			{
				"x": 3.2021544762,
				"y": 0.0501707595,
				"z": -2.1414092113,
				"element": "C" 
			},
			{
				"x": 2.7834450361,
				"y": -0.8384826081,
				"z": -1.2086482048,
				"element": "C" 
			},
			{
				"x": 0.400095556,
				"y": 1.8715908616,
				"z": -0.9558644544,
				"element": "C" 
			},
			{
				"x": -0.4823870522,
				"y": 1.4831559348,
				"z": 0.0437504823,
				"element": "C" 
			},
			{
				"x": -1.8131598496,
				"y": -1.3696693481,
				"z": 3.0271760474,
				"element": "H" 
			},
			{
				"x": 0.812873481,
				"y": -1.5669257051,
				"z": 0.9330956943,
				"element": "H" 
			},
			{
				"x": 4.0272428442,
				"y": 0.0466916201,
				"z": -2.8373717326,
				"element": "H" 
			},
			{
				"x": 3.2414471038,
				"y": -1.7892030299,
				"z": -0.9773856408,
				"element": "H" 
			},
			{
				"x": 0.2973596653,
				"y": 2.8139221445,
				"z": -1.4823122988,
				"element": "H" 
			},
			{
				"x": -1.311413585,
				"y": 2.1202243202,
				"z": 0.3306171847,
				"element": "H" 
			}
		],
		 "valence_orbital": [ 
			{
				"type": "occ",
				"energy": -0.31594,
				"method": "rhf"
			},
			{
				"type": "occ",
				"energy": -0.30328,
				"method": "rhf"
			},
			{
				"type": "occ",
				"energy": -0.27406,
				"method": "rhf"
			},
			{
				"type": "occ",
				"energy": -0.25048,
				"method": "rhf"
			},
			{
				"type": "occ",
				"energy": -0.23235,
				"method": "rhf"
			},
			{
				"type": "unocc",
				"energy": -0.0418,
				"method": "rhf"
			},
			{
				"type": "unocc",
				"energy": -0.02511,
				"method": "rhf"
			},
			{
				"type": "unocc",
				"energy": 0.04018,
				"method": "rhf"
			},
			{
				"type": "unocc",
				"energy": 0.07546,
				"method": "rhf"
			},
			{
				"type": "unocc",
				"energy": 0.07989,
				"method": "rhf"
			}
		],
		"cosmo_sigma_profile": { 
			"-0.025": 0.0,
			"-0.024": 0.0,
			"-0.023": 0.0,
			"-0.022": 0.0,
			"-0.021": 0.0,
			"-0.02": 0.0,
			"-0.019": 0.0909626157747,
			"-0.018": 0.731810286621,
			"-0.017": 1.07006040769,
			"-0.016": 0.712810448963,
			"-0.015": 0.426837728221,
			"-0.014": 0.769795584094,
			"-0.013": 0.394210267888,
			"-0.012": 0.589083843207,
			"-0.011": 1.13636976112,
			"-0.01": 1.22980853856,
			"-0.009": 2.73547319165,
			"-0.008": 4.29739780784,
			"-0.007": 6.85766689905,
			"-0.006": 7.94323628195,
			"-0.005": 10.6753035041,
			"-0.004": 7.29754535302,
			"-0.003": 7.8720173059,
			"-0.002": 10.2096087879,
			"-0.001": 9.66528975508,
			"0.0": 13.5012578869,
			"0.001": 20.4836631006,
			"0.002": 20.655776547,
			"0.003": 20.7953271657,
			"0.004": 7.3064778799,
			"0.005": 4.83428554155,
			"0.006": 3.36343798484,
			"0.007": 5.13874126321,
			"0.008": 3.46520293526,
			"0.009": 1.40240778627,
			"0.01": 2.21248443303,
			"0.011": 3.10689884123,
			"0.012": 4.69529262445,
			"0.013": 0.191009413398,
			"0.014": 0.0,
			"0.015": 0.0,
			"0.016": 0.0,
			"0.017": 0.0,
			"0.018": 0.0,
			"0.019": 0.0,
			"0.02": 0.0,
			"0.021": 0.0,
			"0.022": 0.0,
			"0.023": 0.0,
			"0.024": 0.0,
			"0.025": 0.0
		}
	}
}
