{
	 "smiles": "CC1CNC2=C(C=CC=C2)N(C1)C(C)=O", 
	 "Tm": 415.15, 
	 "num_atms": 31, 
	 "gaussian": { 
		 "optdone": 1, 
		 "sigma_profile": "yes", 
		 "theory": "DFT", 
		 "functional": "B3LYP", 
		 "basiset": "6-31G**", 
		 "properties": { 
			 "R2extent": 3529.46, 
			 "electric_dipole_moment_norm": 3.43253426203, 
			 "electric_quadrupole_moment_norm": 12.8854299172, 
			 "total_energy": -651.666179192, 
			 "HOMO_LUMO_gap": 0.18978, 
			 "cosmo_polarized_energy": -11.74, 
			 "cosmo_cavitation_energy": 31.69, 
			 "cosmo_dispersion_energy": -22.68, 
			 "cosmo_repulsion_energy": 1.76, 
			 "cosmo_total_nonelectrostatic_energy": 10.77, 
			 "SMD_solvation_energy": 5.17 
		},
		"coords": [
			{
				"x": -1.1932845564,
				"y": 3.0825015273,
				"z": 0.8042321686,
				"element": "C" 
			},
			{
				"x": -1.3416521636,
				"y": 1.6207702777,
				"z": 1.2404018856,
				"element": "C" 
			},
			{
				"x": -1.5846086801,
				"y": 0.6734199298,
				"z": 0.0502197463,
				"element": "C" 
			},
			{
				"x": -0.3618969327,
				"y": 0.4016462968,
				"z": -0.7127755221,
				"element": "N" 
			},
			{
				"x": 0.5749252046,
				"y": -0.556885973,
				"z": -0.3254973134,
				"element": "C" 
			},
			{
				"x": 0.80114294,
				"y": -0.9128887338,
				"z": 1.0300953721,
				"element": "C" 
			},
			{
				"x": 1.8293179401,
				"y": -1.809034488,
				"z": 1.3440422339,
				"element": "C" 
			},
			{
				"x": 2.6078705351,
				"y": -2.4069645727,
				"z": 0.3557551311,
				"element": "C" 
			},
			{
				"x": 2.3780213386,
				"y": -2.0720989143,
				"z": -0.9797198156,
				"element": "C" 
			},
			{
				"x": 1.3818316184,
				"y": -1.159987787,
				"z": -1.3094119078,
				"element": "C" 
			},
			{
				"x": 0.0394397808,
				"y": -0.2960378539,
				"z": 2.071834372,
				"element": "N" 
			},
			{
				"x": -0.0899221682,
				"y": 1.16690275,
				"z": 2.0214284647,
				"element": "C" 
			},
			{
				"x": -0.7184998457,
				"y": -0.9616524123,
				"z": 3.0207214051,
				"element": "C" 
			},
			{
				"x": -0.741528674,
				"y": -2.4819563704,
				"z": 3.0025453852,
				"element": "C" 
			},
			{
				"x": -1.3666373066,
				"y": -0.3332338875,
				"z": 3.8526469852,
				"element": "O" 
			},
			{
				"x": -0.395060884,
				"y": 3.1823467956,
				"z": 0.0600205814,
				"element": "H" 
			},
			{
				"x": -0.944099055,
				"y": 3.7272214038,
				"z": 1.6540998242,
				"element": "H" 
			},
			{
				"x": -2.1205299218,
				"y": 3.4626735883,
				"z": 0.3620115847,
				"element": "H" 
			},
			{
				"x": -2.2070637771,
				"y": 1.5272556823,
				"z": 1.9072397339,
				"element": "H" 
			},
			{
				"x": -2.3003117391,
				"y": 1.1322724605,
				"z": -0.6395464582,
				"element": "H" 
			},
			{
				"x": -2.0419940976,
				"y": -0.2612528354,
				"z": 0.4019734468,
				"element": "H" 
			},
			{
				"x": -0.4853330694,
				"y": 0.4395935221,
				"z": -1.7140827425,
				"element": "H" 
			},
			{
				"x": 2.020112716,
				"y": -2.0217446398,
				"z": 2.3908958949,
				"element": "H" 
			},
			{
				"x": 3.3931351845,
				"y": -3.1048175773,
				"z": 0.6274754729,
				"element": "H" 
			},
			{
				"x": 2.9750495426,
				"y": -2.5193248335,
				"z": -1.7692070075,
				"element": "H" 
			},
			{
				"x": 1.209912589,
				"y": -0.9008691711,
				"z": -2.3519749877,
				"element": "H" 
			},
			{
				"x": -0.1276281496,
				"y": 1.5413180449,
				"z": 3.0460658159,
				"element": "H" 
			},
			{
				"x": 0.8118738167,
				"y": 1.5550326647,
				"z": 1.5399527655,
				"element": "H" 
			},
			{
				"x": -1.6716572485,
				"y": -2.7924003402,
				"z": 3.4802972204,
				"element": "H" 
			},
			{
				"x": -0.6728551925,
				"y": -2.9030462512,
				"z": 1.9977795203,
				"element": "H" 
			},
			{
				"x": 0.088430256,
				"y": -2.8855583023,
				"z": 3.5913807439,
				"element": "H" 
			}
		],
		 "valence_orbital": [ 
			{
				"type": "occ",
				"energy": -0.29488,
				"method": "rhf"
			},
			{
				"type": "occ",
				"energy": -0.26964,
				"method": "rhf"
			},
			{
				"type": "occ",
				"energy": -0.24297,
				"method": "rhf"
			},
			{
				"type": "occ",
				"energy": -0.22835,
				"method": "rhf"
			},
			{
				"type": "occ",
				"energy": -0.19546,
				"method": "rhf"
			},
			{
				"type": "unocc",
				"energy": -0.00568,
				"method": "rhf"
			},
			{
				"type": "unocc",
				"energy": 0.00638,
				"method": "rhf"
			},
			{
				"type": "unocc",
				"energy": 0.036,
				"method": "rhf"
			},
			{
				"type": "unocc",
				"energy": 0.07193,
				"method": "rhf"
			},
			{
				"type": "unocc",
				"energy": 0.09271,
				"method": "rhf"
			}
		],
		"cosmo_sigma_profile": { 
			"-0.025": 0.0,
			"-0.024": 0.0,
			"-0.023": 0.0,
			"-0.022": 0.0,
			"-0.021": 0.0,
			"-0.02": 0.0,
			"-0.019": 0.0,
			"-0.018": 0.0,
			"-0.017": 0.0,
			"-0.016": 0.0,
			"-0.015": 0.0,
			"-0.014": 0.0,
			"-0.013": 0.420253861726,
			"-0.012": 1.49109429701,
			"-0.011": 1.51089783788,
			"-0.01": 1.32853123375,
			"-0.009": 1.54974416673,
			"-0.008": 1.50031220782,
			"-0.007": 2.75842650808,
			"-0.006": 7.50712829625,
			"-0.005": 12.0341839308,
			"-0.004": 17.1053486706,
			"-0.003": 29.9120875149,
			"-0.002": 29.9785192171,
			"-0.001": 30.0795359672,
			"0.0": 22.1563223268,
			"0.001": 16.4209921861,
			"0.002": 11.972062982,
			"0.003": 9.75427028154,
			"0.004": 9.41393900845,
			"0.005": 10.0057302454,
			"0.006": 9.62593972075,
			"0.007": 4.6792395484,
			"0.008": 2.72177800071,
			"0.009": 1.4781310284,
			"0.01": 0.646058813336,
			"0.011": 1.71536176487,
			"0.012": 1.9458035221,
			"0.013": 2.2854106695,
			"0.014": 4.60577171728,
			"0.015": 1.61612238398,
			"0.016": 0.0834642813999,
			"0.017": 0.0,
			"0.018": 0.0,
			"0.019": 0.0,
			"0.02": 0.0,
			"0.021": 0.0,
			"0.022": 0.0,
			"0.023": 0.0,
			"0.024": 0.0,
			"0.025": 0.0
		}
	}
}
