{
	 "smiles": "CC1=C2C=CC=C(C(O)=O)C2=CC=C1", 
	 "Tm": 328.15, 
	 "num_atms": 24, 
	 "gaussian": { 
		 "optdone": 1, 
		 "sigma_profile": "yes", 
		 "theory": "DFT", 
		 "functional": "B3LYP", 
		 "basiset": "6-31G**", 
		 "properties": { 
			 "R2extent": 3223.2726, 
			 "electric_dipole_moment_norm": 5.36234298232, 
			 "electric_quadrupole_moment_norm": 21.7692678313, 
			 "total_energy": -613.774952505, 
			 "HOMO_LUMO_gap": 0.16404, 
			 "cosmo_polarized_energy": -12.62, 
			 "cosmo_cavitation_energy": 27.37, 
			 "cosmo_dispersion_energy": -20.31, 
			 "cosmo_repulsion_energy": 1.56, 
			 "cosmo_total_nonelectrostatic_energy": 8.62, 
			 "SMD_solvation_energy": 5.48 
		},
		"coords": [
			{
				"x": -2.3724832915,
				"y": 1.4428045463,
				"z": 0.8005427395,
				"element": "C" 
			},
			{
				"x": -1.286308944,
				"y": 0.6874445305,
				"z": 0.0722854242,
				"element": "C" 
			},
			{
				"x": 0.0962106254,
				"y": 0.8855601618,
				"z": 0.4016547592,
				"element": "C" 
			},
			{
				"x": 0.4877214762,
				"y": 1.7711432377,
				"z": 1.4420430813,
				"element": "C" 
			},
			{
				"x": 1.8110620576,
				"y": 1.9310592987,
				"z": 1.7873902394,
				"element": "C" 
			},
			{
				"x": 2.8119677843,
				"y": 1.2364613191,
				"z": 1.0818716711,
				"element": "C" 
			},
			{
				"x": 2.4888445848,
				"y": 0.3984807646,
				"z": 0.0294557723,
				"element": "C" 
			},
			{
				"x": 3.6606254855,
				"y": -0.2066093332,
				"z": -0.6937480341,
				"element": "C" 
			},
			{
				"x": 3.5601662042,
				"y": -0.3122079167,
				"z": -2.048705184,
				"element": "O" 
			},
			{
				"x": 4.6809431532,
				"y": -0.544437061,
				"z": -0.1425504905,
				"element": "O" 
			},
			{
				"x": 1.114554947,
				"y": 0.1647564185,
				"z": -0.3167776115,
				"element": "C" 
			},
			{
				"x": 0.7072101675,
				"y": -0.7812098276,
				"z": -1.3027598636,
				"element": "C" 
			},
			{
				"x": -0.625288846,
				"y": -0.9603046013,
				"z": -1.5932129753,
				"element": "C" 
			},
			{
				"x": -1.6166225765,
				"y": -0.2160391637,
				"z": -0.9177326818,
				"element": "C" 
			},
			{
				"x": -2.3737274266,
				"y": 1.2186530079,
				"z": 1.8736416581,
				"element": "H" 
			},
			{
				"x": -2.2538736644,
				"y": 2.5277142847,
				"z": 0.697939807,
				"element": "H" 
			},
			{
				"x": -3.3562509527,
				"y": 1.1776911492,
				"z": 0.4059087206,
				"element": "H" 
			},
			{
				"x": -0.2740398652,
				"y": 2.3225083232,
				"z": 1.9819721359,
				"element": "H" 
			},
			{
				"x": 2.0884366071,
				"y": 2.5996715068,
				"z": 2.5965302815,
				"element": "H" 
			},
			{
				"x": 3.858214205,
				"y": 1.3611581915,
				"z": 1.3398947455,
				"element": "H" 
			},
			{
				"x": 2.7404420646,
				"y": 0.1061611851,
				"z": -2.3502324825,
				"element": "H" 
			},
			{
				"x": 1.4472189658,
				"y": -1.3969628254,
				"z": -1.8015953233,
				"element": "H" 
			},
			{
				"x": -0.9209508663,
				"y": -1.6904062162,
				"z": -2.3409846103,
				"element": "H" 
			},
			{
				"x": -2.6620718952,
				"y": -0.3718909808,
				"z": -1.1697317788,
				"element": "H" 
			}
		],
		 "valence_orbital": [ 
			{
				"type": "occ",
				"energy": -0.31304,
				"method": "rhf"
			},
			{
				"type": "occ",
				"energy": -0.29195,
				"method": "rhf"
			},
			{
				"type": "occ",
				"energy": -0.26901,
				"method": "rhf"
			},
			{
				"type": "occ",
				"energy": -0.25792,
				"method": "rhf"
			},
			{
				"type": "occ",
				"energy": -0.22819,
				"method": "rhf"
			},
			{
				"type": "unocc",
				"energy": -0.06415,
				"method": "rhf"
			},
			{
				"type": "unocc",
				"energy": -0.02458,
				"method": "rhf"
			},
			{
				"type": "unocc",
				"energy": -0.00793,
				"method": "rhf"
			},
			{
				"type": "unocc",
				"energy": 0.04616,
				"method": "rhf"
			},
			{
				"type": "unocc",
				"energy": 0.08462,
				"method": "rhf"
			}
		],
		"cosmo_sigma_profile": { 
			"-0.025": 0.0,
			"-0.024": 0.0,
			"-0.023": 0.0,
			"-0.022": 0.0,
			"-0.021": 0.0,
			"-0.02": 0.0,
			"-0.019": 0.0,
			"-0.018": 0.0,
			"-0.017": 0.284253437635,
			"-0.016": 0.659268458235,
			"-0.015": 1.43943150538,
			"-0.014": 0.382064493506,
			"-0.013": 0.440179603605,
			"-0.012": 1.09946903539,
			"-0.011": 0.979839491608,
			"-0.01": 0.966478686425,
			"-0.009": 0.796016435816,
			"-0.008": 1.25029054807,
			"-0.007": 2.16026978586,
			"-0.006": 11.8228438039,
			"-0.005": 19.5595802959,
			"-0.004": 20.3067491498,
			"-0.003": 15.256043109,
			"-0.002": 15.5230523986,
			"-0.001": 15.3067321437,
			"0.0": 15.5849038275,
			"0.001": 12.4357294438,
			"0.002": 16.1230461625,
			"0.003": 21.7150178492,
			"0.004": 13.1081457461,
			"0.005": 4.25256651614,
			"0.006": 2.00538198478,
			"0.007": 2.86105956255,
			"0.008": 2.70891178138,
			"0.009": 3.28641450288,
			"0.01": 5.08313703187,
			"0.011": 4.73662854269,
			"0.012": 5.16802584413,
			"0.013": 1.56933908255,
			"0.014": 0.045642475487,
			"0.015": 0.0,
			"0.016": 0.0,
			"0.017": 0.0,
			"0.018": 0.0,
			"0.019": 0.0,
			"0.02": 0.0,
			"0.021": 0.0,
			"0.022": 0.0,
			"0.023": 0.0,
			"0.024": 0.0,
			"0.025": 0.0
		}
	}
}
