{
	 "smiles": "CC1=C(C)C=C(CC(O)=O)C=C1", 
	 "Tm": 370.15, 
	 "num_atms": 24, 
	 "gaussian": { 
		 "optdone": 1, 
		 "sigma_profile": "yes", 
		 "theory": "DFT", 
		 "functional": "B3LYP", 
		 "basiset": "6-31G**", 
		 "properties": { 
			 "R2extent": 3035.4583, 
			 "electric_dipole_moment_norm": 1.42497362081, 
			 "electric_quadrupole_moment_norm": 7.90473140088, 
			 "total_energy": -538.776789714, 
			 "HOMO_LUMO_gap": 0.22313, 
			 "cosmo_polarized_energy": -9.66, 
			 "cosmo_cavitation_energy": 27.69, 
			 "cosmo_dispersion_energy": -19.68, 
			 "cosmo_repulsion_energy": 1.59, 
			 "cosmo_total_nonelectrostatic_energy": 9.6, 
			 "SMD_solvation_energy": 5.85 
		},
		"coords": [
			{
				"x": -1.6335977058,
				"y": -0.5134608198,
				"z": 2.3471299345,
				"element": "C" 
			},
			{
				"x": -1.0577137973,
				"y": -0.0624453946,
				"z": 1.0261653319,
				"element": "C" 
			},
			{
				"x": 0.2474098622,
				"y": 0.4735553574,
				"z": 0.9476601413,
				"element": "C" 
			},
			{
				"x": 1.1018674392,
				"y": 0.6127954642,
				"z": 2.1852996072,
				"element": "C" 
			},
			{
				"x": 0.7448826053,
				"y": 0.8765156938,
				"z": -0.2941495087,
				"element": "C" 
			},
			{
				"x": -0.0131000792,
				"y": 0.7643665673,
				"z": -1.4669592394,
				"element": "C" 
			},
			{
				"x": 0.5672650885,
				"y": 1.2070367472,
				"z": -2.8025294828,
				"element": "C" 
			},
			{
				"x": 0.8715638099,
				"y": 2.6935658579,
				"z": -2.8008547533,
				"element": "C" 
			},
			{
				"x": -0.1510520377,
				"y": 3.4231519707,
				"z": -3.3061333138,
				"element": "O" 
			},
			{
				"x": 1.8877722164,
				"y": 3.199358073,
				"z": -2.3761494168,
				"element": "O" 
			},
			{
				"x": -1.3031759604,
				"y": 0.2402785291,
				"z": -1.3807536726,
				"element": "C" 
			},
			{
				"x": -1.8108910587,
				"y": -0.1683702405,
				"z": -0.1464779798,
				"element": "C" 
			},
			{
				"x": -1.0285753248,
				"y": -1.3059643182,
				"z": 2.8045201391,
				"element": "H" 
			},
			{
				"x": -2.6488238943,
				"y": -0.8995846251,
				"z": 2.2232425948,
				"element": "H" 
			},
			{
				"x": -1.6750406859,
				"y": 0.3075832197,
				"z": 3.0733968176,
				"element": "H" 
			},
			{
				"x": 2.0758667895,
				"y": 1.0463537796,
				"z": 1.9448539353,
				"element": "H" 
			},
			{
				"x": 1.2765908408,
				"y": -0.3564762599,
				"z": 2.6683565,
				"element": "H" 
			},
			{
				"x": 0.6257455362,
				"y": 1.2558541508,
				"z": 2.9356080565,
				"element": "H" 
			},
			{
				"x": 1.7448279574,
				"y": 1.2990780246,
				"z": -0.3537879626,
				"element": "H" 
			},
			{
				"x": 1.5126523137,
				"y": 0.6909565535,
				"z": -2.9960930482,
				"element": "H" 
			},
			{
				"x": -0.1301328773,
				"y": 0.97721615,
				"z": -3.6112074224,
				"element": "H" 
			},
			{
				"x": 0.116467018,
				"y": 4.3543611324,
				"z": -3.2235534867,
				"element": "H" 
			},
			{
				"x": -1.9134775777,
				"y": 0.1470776258,
				"z": -2.275257217,
				"element": "H" 
			},
			{
				"x": -2.8166304779,
				"y": -0.578303239,
				"z": -0.0936265543,
				"element": "H" 
			}
		],
		 "valence_orbital": [ 
			{
				"type": "occ",
				"energy": -0.33072,
				"method": "rhf"
			},
			{
				"type": "occ",
				"energy": -0.31609,
				"method": "rhf"
			},
			{
				"type": "occ",
				"energy": -0.27388,
				"method": "rhf"
			},
			{
				"type": "occ",
				"energy": -0.24062,
				"method": "rhf"
			},
			{
				"type": "occ",
				"energy": -0.23009,
				"method": "rhf"
			},
			{
				"type": "unocc",
				"energy": -0.00696,
				"method": "rhf"
			},
			{
				"type": "unocc",
				"energy": 0.00393,
				"method": "rhf"
			},
			{
				"type": "unocc",
				"energy": 0.02129,
				"method": "rhf"
			},
			{
				"type": "unocc",
				"energy": 0.08034,
				"method": "rhf"
			},
			{
				"type": "unocc",
				"energy": 0.0946,
				"method": "rhf"
			}
		],
		"cosmo_sigma_profile": { 
			"-0.025": 0.0,
			"-0.024": 0.0,
			"-0.023": 0.0,
			"-0.022": 0.0,
			"-0.021": 0.0,
			"-0.02": 0.0,
			"-0.019": 0.032864031032,
			"-0.018": 0.652685310751,
			"-0.017": 1.24055297633,
			"-0.016": 0.391784551067,
			"-0.015": 0.663745267972,
			"-0.014": 0.85611027958,
			"-0.013": 0.448754349353,
			"-0.012": 0.94528106879,
			"-0.011": 0.915569137623,
			"-0.01": 0.81892659201,
			"-0.009": 0.304330527865,
			"-0.008": 0.534179254503,
			"-0.007": 1.22615463058,
			"-0.006": 6.00628276525,
			"-0.005": 10.3585193233,
			"-0.004": 21.8280938986,
			"-0.003": 22.8592976766,
			"-0.002": 20.2281705698,
			"-0.001": 18.4452922001,
			"0.0": 22.3085945487,
			"0.001": 15.3364517526,
			"0.002": 11.3275112608,
			"0.003": 10.6262362268,
			"0.004": 9.87212235104,
			"0.005": 10.0004407361,
			"0.006": 9.49514023224,
			"0.007": 3.54342327999,
			"0.008": 3.03827421,
			"0.009": 3.270428949,
			"0.01": 2.46205407663,
			"0.011": 2.96288553208,
			"0.012": 4.43217272629,
			"0.013": 0.537851607541,
			"0.014": 0.0,
			"0.015": 0.0,
			"0.016": 0.0,
			"0.017": 0.0,
			"0.018": 0.0,
			"0.019": 0.0,
			"0.02": 0.0,
			"0.021": 0.0,
			"0.022": 0.0,
			"0.023": 0.0,
			"0.024": 0.0,
			"0.025": 0.0
		}
	}
}
