{
	 "smiles": "CC1=CCCC1=NNC1=CC=C(C=C1[N+]([O-])=O)[N+]([O-])=O", 
	 "Tm": 495.15, 
	 "num_atms": 32, 
	 "gaussian": { 
		 "optdone": 1, 
		 "sigma_profile": "yes", 
		 "theory": "DFT", 
		 "functional": "B3LYP", 
		 "basiset": "6-31G**", 
		 "properties": { 
			 "R2extent": 8011.0224, 
			 "electric_dipole_moment_norm": 9.0319557489, 
			 "electric_quadrupole_moment_norm": 14.1578774684, 
			 "total_energy": -984.177203006, 
			 "HOMO_LUMO_gap": 0.12103, 
			 "cosmo_polarized_energy": -14.14, 
			 "cosmo_cavitation_energy": 37.03, 
			 "cosmo_dispersion_energy": -26.92, 
			 "cosmo_repulsion_energy": 2.04, 
			 "cosmo_total_nonelectrostatic_energy": 12.15, 
			 "SMD_solvation_energy": 9.39 
		},
		"coords": [
			{
				"x": -2.0322270315,
				"y": -1.5088932506,
				"z": -1.7562252673,
				"element": "C" 
			},
			{
				"x": -3.0929437287,
				"y": -0.8792082338,
				"z": -0.8946630887,
				"element": "C" 
			},
			{
				"x": -4.4098309872,
				"y": -1.1632962669,
				"z": -0.9755985567,
				"element": "C" 
			},
			{
				"x": -5.268877508,
				"y": -0.401872216,
				"z": -0.0071969417,
				"element": "C" 
			},
			{
				"x": -4.2552209646,
				"y": 0.4731958051,
				"z": 0.7648889798,
				"element": "C" 
			},
			{
				"x": -2.8949390176,
				"y": 0.1345219608,
				"z": 0.1648724346,
				"element": "C" 
			},
			{
				"x": -1.8600403026,
				"y": 0.7412470465,
				"z": 0.6405992554,
				"element": "N" 
			},
			{
				"x": -0.6136165548,
				"y": 0.4788118259,
				"z": 0.1435213736,
				"element": "N" 
			},
			{
				"x": 0.4639324253,
				"y": 1.1284158341,
				"z": 0.6558103411,
				"element": "C" 
			},
			{
				"x": 0.2994385978,
				"y": 2.0786298123,
				"z": 1.7032999727,
				"element": "C" 
			},
			{
				"x": 1.3725231239,
				"y": 2.7499559269,
				"z": 2.2393308754,
				"element": "C" 
			},
			{
				"x": 2.668617036,
				"y": 2.5023671227,
				"z": 1.751431372,
				"element": "C" 
			},
			{
				"x": 2.8834340401,
				"y": 1.5909977411,
				"z": 0.737066013,
				"element": "C" 
			},
			{
				"x": 1.7986543369,
				"y": 0.9044058276,
				"z": 0.1866585323,
				"element": "C" 
			},
			{
				"x": 2.1041706863,
				"y": -0.0354489137,
				"z": -0.8736656276,
				"element": "N" 
			},
			{
				"x": 1.1637205157,
				"y": -0.6714779969,
				"z": -1.3948560802,
				"element": "O" 
			},
			{
				"x": 3.272867314,
				"y": -0.1755078061,
				"z": -1.2239418543,
				"element": "O" 
			},
			{
				"x": 3.8045296934,
				"y": 3.2170488656,
				"z": 2.323120735,
				"element": "N" 
			},
			{
				"x": 3.570437911,
				"y": 4.0226528232,
				"z": 3.2272649427,
				"element": "O" 
			},
			{
				"x": 4.9248755222,
				"y": 2.9750500343,
				"z": 1.8714654691,
				"element": "O" 
			},
			{
				"x": -1.4922453524,
				"y": -0.7686296369,
				"z": -2.3570829181,
				"element": "H" 
			},
			{
				"x": -1.2884377105,
				"y": -2.0555443756,
				"z": -1.165813687,
				"element": "H" 
			},
			{
				"x": -2.4834177104,
				"y": -2.2227607269,
				"z": -2.4501994239,
				"element": "H" 
			},
			{
				"x": -4.8237708693,
				"y": -1.8808235116,
				"z": -1.6790519663,
				"element": "H" 
			},
			{
				"x": -5.8242561999,
				"y": -1.0813116436,
				"z": 0.6520551734,
				"element": "H" 
			},
			{
				"x": -6.0255166012,
				"y": 0.1960853265,
				"z": -0.5312991879,
				"element": "H" 
			},
			{
				"x": -4.2563957162,
				"y": 0.2616114694,
				"z": 1.8384491988,
				"element": "H" 
			},
			{
				"x": -4.4599495977,
				"y": 1.5424148144,
				"z": 0.6548488096,
				"element": "H" 
			},
			{
				"x": -0.4226603295,
				"y": -0.1855247863,
				"z": -0.6019791884,
				"element": "H" 
			},
			{
				"x": -0.7054807487,
				"y": 2.2523861332,
				"z": 2.0619827094,
				"element": "H" 
			},
			{
				"x": 1.2404508706,
				"y": 3.4716234403,
				"z": 3.036039362,
				"element": "H" 
			},
			{
				"x": 3.8806748577,
				"y": 1.4027775548,
				"z": 0.3641682385,
				"element": "H" 
			}
		],
		 "valence_orbital": [ 
			{
				"type": "occ",
				"energy": -0.29329,
				"method": "rhf"
			},
			{
				"type": "occ",
				"energy": -0.28618,
				"method": "rhf"
			},
			{
				"type": "occ",
				"energy": -0.28436,
				"method": "rhf"
			},
			{
				"type": "occ",
				"energy": -0.27856,
				"method": "rhf"
			},
			{
				"type": "occ",
				"energy": -0.2211,
				"method": "rhf"
			},
			{
				"type": "unocc",
				"energy": -0.10007,
				"method": "rhf"
			},
			{
				"type": "unocc",
				"energy": -0.08603,
				"method": "rhf"
			},
			{
				"type": "unocc",
				"energy": -0.04949,
				"method": "rhf"
			},
			{
				"type": "unocc",
				"energy": -0.01298,
				"method": "rhf"
			},
			{
				"type": "unocc",
				"energy": 0.01464,
				"method": "rhf"
			}
		],
		"cosmo_sigma_profile": { 
			"-0.025": 0.0,
			"-0.024": 0.0,
			"-0.023": 0.0,
			"-0.022": 0.0,
			"-0.021": 0.0,
			"-0.02": 0.0,
			"-0.019": 0.0,
			"-0.018": 0.0,
			"-0.017": 0.0,
			"-0.016": 0.0,
			"-0.015": 0.0,
			"-0.014": 0.0,
			"-0.013": 0.0,
			"-0.012": 0.0,
			"-0.011": 0.0,
			"-0.01": 0.0,
			"-0.009": 0.189525900178,
			"-0.008": 1.87605808862,
			"-0.007": 5.84465719702,
			"-0.006": 12.0116469853,
			"-0.005": 21.9032534753,
			"-0.004": 27.4469115731,
			"-0.003": 30.4676562217,
			"-0.002": 34.8946064827,
			"-0.001": 33.45819171,
			"0.0": 22.6587814118,
			"0.001": 18.2669712715,
			"0.002": 11.7852691494,
			"0.003": 9.62557613102,
			"0.004": 5.57301531877,
			"0.005": 7.67759179732,
			"0.006": 8.66535412803,
			"0.007": 12.6921718811,
			"0.008": 15.3686063914,
			"0.009": 8.34050081394,
			"0.01": 6.54733680132,
			"0.011": 0.892953309349,
			"0.012": 0.0,
			"0.013": 0.0,
			"0.014": 0.0,
			"0.015": 0.0,
			"0.016": 0.0,
			"0.017": 0.0,
			"0.018": 0.0,
			"0.019": 0.0,
			"0.02": 0.0,
			"0.021": 0.0,
			"0.022": 0.0,
			"0.023": 0.0,
			"0.024": 0.0,
			"0.025": 0.0
		}
	}
}
