{
	 "smiles": "OC(=O)C1CCN(CC1)C1=C(C=C(C=C1)S(=O)(=O)N1CCCCC1)[N+]([O-])=O", 
	 "Tm": 515.15, 
	 "num_atms": 50, 
	 "gaussian": { 
		 "optdone": 1, 
		 "sigma_profile": "yes", 
		 "theory": "DFT", 
		 "functional": "B3LYP", 
		 "basiset": "6-31G**", 
		 "properties": { 
			 "R2extent": 14110.5946, 
			 "electric_dipole_moment_norm": 8.49048247216, 
			 "electric_quadrupole_moment_norm": 24.5106516215, 
			 "total_energy": -1675.29243838, 
			 "HOMO_LUMO_gap": 0.13811, 
			 "cosmo_polarized_energy": -26.53, 
			 "cosmo_cavitation_energy": 51.74, 
			 "cosmo_dispersion_energy": -35.9, 
			 "cosmo_repulsion_energy": 2.68, 
			 "cosmo_total_nonelectrostatic_energy": 18.52, 
			 "SMD_solvation_energy": 8.39 
		},
		"coords": [
			{
				"x": -0.4262726575,
				"y": 6.5886362832,
				"z": 1.4341091916,
				"element": "O" 
			},
			{
				"x": 0.5623265014,
				"y": 5.6675406875,
				"z": 1.5227312759,
				"element": "C" 
			},
			{
				"x": 1.1344539704,
				"y": 5.4235601773,
				"z": 2.5633129662,
				"element": "O" 
			},
			{
				"x": 0.8119531289,
				"y": 4.9937336565,
				"z": 0.1847427357,
				"element": "C" 
			},
			{
				"x": 2.070477452,
				"y": 4.1025469633,
				"z": 0.2162459478,
				"element": "C" 
			},
			{
				"x": 1.7337618455,
				"y": 2.6433365947,
				"z": 0.5265250308,
				"element": "C" 
			},
			{
				"x": 0.8567449045,
				"y": 2.0852494043,
				"z": -0.5147168128,
				"element": "N" 
			},
			{
				"x": -0.0539240765,
				"y": 3.0304260067,
				"z": -1.1776987207,
				"element": "C" 
			},
			{
				"x": -0.4380132546,
				"y": 4.1630377604,
				"z": -0.2218279356,
				"element": "C" 
			},
			{
				"x": 0.7209862683,
				"y": 0.7261014361,
				"z": -0.6377317904,
				"element": "C" 
			},
			{
				"x": 0.1620945372,
				"y": 0.0737178329,
				"z": -1.7784711955,
				"element": "C" 
			},
			{
				"x": -0.1180438227,
				"y": -1.2938333054,
				"z": -1.7885320872,
				"element": "C" 
			},
			{
				"x": 0.2213917761,
				"y": -2.0816891024,
				"z": -0.697537886,
				"element": "C" 
			},
			{
				"x": 0.8712921744,
				"y": -1.4963400676,
				"z": 0.3991469746,
				"element": "C" 
			},
			{
				"x": 1.1084581933,
				"y": -0.133346014,
				"z": 0.4271728426,
				"element": "C" 
			},
			{
				"x": -0.1501433518,
				"y": -3.8373650449,
				"z": -0.70388966,
				"element": "S" 
			},
			{
				"x": 0.780212945,
				"y": -4.4583402743,
				"z": 0.2426603149,
				"element": "O" 
			},
			{
				"x": -0.2426903084,
				"y": -4.2496991693,
				"z": -2.1062375885,
				"element": "O" 
			},
			{
				"x": -1.6775073548,
				"y": -4.0299336133,
				"z": -0.0477145632,
				"element": "N" 
			},
			{
				"x": -1.8167486424,
				"y": -3.8039047919,
				"z": 1.4061025186,
				"element": "C" 
			},
			{
				"x": -3.2631286105,
				"y": -4.087487099,
				"z": 1.8176503537,
				"element": "C" 
			},
			{
				"x": -4.2573256447,
				"y": -3.1222000836,
				"z": 1.132264082,
				"element": "C" 
			},
			{
				"x": -3.7565477027,
				"y": -2.6879867125,
				"z": -0.2660054026,
				"element": "C" 
			},
			{
				"x": -2.8620862557,
				"y": -3.7597224427,
				"z": -0.8952073553,
				"element": "C" 
			},
			{
				"x": -0.0008300517,
				"y": 0.7412158452,
				"z": -3.0726835334,
				"element": "N" 
			},
			{
				"x": 0.8221901938,
				"y": 1.6068695438,
				"z": -3.3828692634,
				"element": "O" 
			},
			{
				"x": -0.9139108375,
				"y": 0.3563485381,
				"z": -3.80621837,
				"element": "O" 
			},
			{
				"x": -0.5431421457,
				"y": 6.9535647154,
				"z": 2.32768304,
				"element": "H" 
			},
			{
				"x": 0.9462625714,
				"y": 5.7934877557,
				"z": -0.5524779861,
				"element": "H" 
			},
			{
				"x": 2.5763773292,
				"y": 4.1484613929,
				"z": -0.7531474655,
				"element": "H" 
			},
			{
				"x": 2.7676763317,
				"y": 4.4675423218,
				"z": 0.9739880595,
				"element": "H" 
			},
			{
				"x": 1.2725547906,
				"y": 2.5779834504,
				"z": 1.5236906649,
				"element": "H" 
			},
			{
				"x": 2.6562030161,
				"y": 2.0561306845,
				"z": 0.553806638,
				"element": "H" 
			},
			{
				"x": -0.9574037399,
				"y": 2.4888111187,
				"z": -1.4734895555,
				"element": "H" 
			},
			{
				"x": 0.3905962509,
				"y": 3.4306252553,
				"z": -2.0961559978,
				"element": "H" 
			},
			{
				"x": -0.9119326504,
				"y": 3.730778274,
				"z": 0.6673777648,
				"element": "H" 
			},
			{
				"x": -1.1836893949,
				"y": 4.8057467645,
				"z": -0.6967795465,
				"element": "H" 
			},
			{
				"x": -0.5372888567,
				"y": -1.7330370658,
				"z": -2.6852762397,
				"element": "H" 
			},
			{
				"x": 1.1882788939,
				"y": -2.1213956103,
				"z": 1.226826739,
				"element": "H" 
			},
			{
				"x": 1.5667837506,
				"y": 0.2923430538,
				"z": 1.3101194562,
				"element": "H" 
			},
			{
				"x": -1.5530634143,
				"y": -2.7680304888,
				"z": 1.6776700232,
				"element": "H" 
			},
			{
				"x": -1.1222929374,
				"y": -4.4698530689,
				"z": 1.9212035074,
				"element": "H" 
			},
			{
				"x": -3.4970228581,
				"y": -5.1252037124,
				"z": 1.5542098492,
				"element": "H" 
			},
			{
				"x": -3.3426253299,
				"y": -4.0165789383,
				"z": 2.9073407022,
				"element": "H" 
			},
			{
				"x": -4.4095749529,
				"y": -2.2338132453,
				"z": 1.7555001663,
				"element": "H" 
			},
			{
				"x": -5.2340195533,
				"y": -3.6114812287,
				"z": 1.0492083168,
				"element": "H" 
			},
			{
				"x": -3.1828965844,
				"y": -1.7566930826,
				"z": -0.1913057916,
				"element": "H" 
			},
			{
				"x": -4.5998132831,
				"y": -2.4809599918,
				"z": -0.9335582133,
				"element": "H" 
			},
			{
				"x": -3.4202363008,
				"y": -4.6964474439,
				"z": -1.0209453905,
				"element": "H" 
			},
			{
				"x": -2.5229022519,
				"y": -3.4684539195,
				"z": -1.8904108105,
				"element": "H" 
			}
		],
		 "valence_orbital": [ 
			{
				"type": "occ",
				"energy": -0.29217,
				"method": "rhf"
			},
			{
				"type": "occ",
				"energy": -0.28992,
				"method": "rhf"
			},
			{
				"type": "occ",
				"energy": -0.27561,
				"method": "rhf"
			},
			{
				"type": "occ",
				"energy": -0.25008,
				"method": "rhf"
			},
			{
				"type": "occ",
				"energy": -0.22188,
				"method": "rhf"
			},
			{
				"type": "unocc",
				"energy": -0.08377,
				"method": "rhf"
			},
			{
				"type": "unocc",
				"energy": -0.03431,
				"method": "rhf"
			},
			{
				"type": "unocc",
				"energy": -0.0178,
				"method": "rhf"
			},
			{
				"type": "unocc",
				"energy": -0.00853,
				"method": "rhf"
			},
			{
				"type": "unocc",
				"energy": 0.05745,
				"method": "rhf"
			}
		],
		"cosmo_sigma_profile": { 
			"-0.025": 0.0,
			"-0.024": 0.0,
			"-0.023": 0.0,
			"-0.022": 0.0,
			"-0.021": 0.0,
			"-0.02": 0.0,
			"-0.019": 0.0121832451137,
			"-0.018": 0.637423954157,
			"-0.017": 1.28926557088,
			"-0.016": 0.474026943184,
			"-0.015": 1.00036840209,
			"-0.014": 0.740812071953,
			"-0.013": 0.359537320621,
			"-0.012": 0.634354185598,
			"-0.011": 0.993649495119,
			"-0.01": 0.889412999093,
			"-0.009": 0.637948531509,
			"-0.008": 1.88231485434,
			"-0.007": 8.34224414337,
			"-0.006": 17.5845243359,
			"-0.005": 30.3853026704,
			"-0.004": 42.1152809589,
			"-0.003": 52.1884239099,
			"-0.002": 45.3358486653,
			"-0.001": 30.247718341,
			"0.0": 30.6264787479,
			"0.001": 16.844061624,
			"0.002": 13.4719212526,
			"0.003": 9.13201964916,
			"0.004": 8.38872343658,
			"0.005": 9.85606455198,
			"0.006": 9.79750298459,
			"0.007": 12.2933092277,
			"0.008": 15.8053424488,
			"0.009": 11.2523528237,
			"0.01": 11.6517563571,
			"0.011": 12.2333702058,
			"0.012": 8.59860613049,
			"0.013": 0.0917859621003,
			"0.014": 0.0,
			"0.015": 0.0,
			"0.016": 0.0,
			"0.017": 0.0,
			"0.018": 0.0,
			"0.019": 0.0,
			"0.02": 0.0,
			"0.021": 0.0,
			"0.022": 0.0,
			"0.023": 0.0,
			"0.024": 0.0,
			"0.025": 0.0
		}
	}
}
