{
	 "smiles": "CCN(CC)S(=O)(=O)C1=CC(=C(O)C=C1)[N+]([O-])=O", 
	 "Tm": 356.15, 
	 "num_atms": 32, 
	 "gaussian": { 
		 "optdone": 1, 
		 "sigma_profile": "yes", 
		 "theory": "DFT", 
		 "functional": "B3LYP", 
		 "basiset": "6-31G**", 
		 "properties": { 
			 "R2extent": 6093.0636, 
			 "electric_dipole_moment_norm": 3.38955120776, 
			 "electric_quadrupole_moment_norm": 16.9119041894, 
			 "total_energy": -1273.1475568, 
			 "HOMO_LUMO_gap": 0.13807, 
			 "cosmo_polarized_energy": -14.87, 
			 "cosmo_cavitation_energy": 36.56, 
			 "cosmo_dispersion_energy": -25.92, 
			 "cosmo_repulsion_energy": 1.96, 
			 "cosmo_total_nonelectrostatic_energy": 12.6, 
			 "SMD_solvation_energy": 8.02 
		},
		"coords": [
			{
				"x": 0.0328436206,
				"y": -3.1432063552,
				"z": -0.2654011453,
				"element": "C" 
			},
			{
				"x": -0.4359686234,
				"y": -1.6863739104,
				"z": -0.2043500385,
				"element": "C" 
			},
			{
				"x": 0.1572684484,
				"y": -0.7769589247,
				"z": -1.2071195379,
				"element": "N" 
			},
			{
				"x": -0.0743400156,
				"y": -1.0767335358,
				"z": -2.6367752222,
				"element": "C" 
			},
			{
				"x": -1.5419459168,
				"y": -0.8914944872,
				"z": -3.0230058291,
				"element": "C" 
			},
			{
				"x": 1.6428272342,
				"y": -0.101995026,
				"z": -0.7851184851,
				"element": "S" 
			},
			{
				"x": 2.493685039,
				"y": -1.0557762387,
				"z": -0.0573862684,
				"element": "O" 
			},
			{
				"x": 2.1541236566,
				"y": 0.5822267073,
				"z": -1.9766922056,
				"element": "O" 
			},
			{
				"x": 1.1524646596,
				"y": 1.1369279174,
				"z": 0.4239384557,
				"element": "C" 
			},
			{
				"x": 0.2174811426,
				"y": 2.1002011908,
				"z": 0.086879164,
				"element": "C" 
			},
			{
				"x": -0.0990670731,
				"y": 3.0975050603,
				"z": 1.0142438878,
				"element": "C" 
			},
			{
				"x": 0.5266678528,
				"y": 3.1492891154,
				"z": 2.2890835945,
				"element": "C" 
			},
			{
				"x": 0.2653095442,
				"y": 4.0750505873,
				"z": 3.2091429231,
				"element": "O" 
			},
			{
				"x": 1.4762926186,
				"y": 2.155790904,
				"z": 2.5936019242,
				"element": "C" 
			},
			{
				"x": 1.7875539102,
				"y": 1.1661730467,
				"z": 1.6776521437,
				"element": "C" 
			},
			{
				"x": -1.0939185871,
				"y": 4.0825001288,
				"z": 0.6373978671,
				"element": "N" 
			},
			{
				"x": -1.6289854962,
				"y": 4.0015899503,
				"z": -0.459948265,
				"element": "O" 
			},
			{
				"x": -1.368760085,
				"y": 4.9843935582,
				"z": 1.4620182486,
				"element": "O" 
			},
			{
				"x": -0.4531249327,
				"y": -3.716753919,
				"z": 0.530881471,
				"element": "H" 
			},
			{
				"x": -0.2305623332,
				"y": -3.6159524227,
				"z": -1.2164293201,
				"element": "H" 
			},
			{
				"x": 1.1145281788,
				"y": -3.2063719986,
				"z": -0.1298459443,
				"element": "H" 
			},
			{
				"x": -1.5221618523,
				"y": -1.627784319,
				"z": -0.3307070183,
				"element": "H" 
			},
			{
				"x": -0.2248020955,
				"y": -1.2675915571,
				"z": 0.784333331,
				"element": "H" 
			},
			{
				"x": 0.2570248259,
				"y": -2.0954829883,
				"z": -2.8781023094,
				"element": "H" 
			},
			{
				"x": 0.5497986026,
				"y": -0.3911769754,
				"z": -3.2102265587,
				"element": "H" 
			},
			{
				"x": -1.88075655,
				"y": 0.123521963,
				"z": -2.7953562437,
				"element": "H" 
			},
			{
				"x": -1.6575723195,
				"y": -1.0592119484,
				"z": -4.0984953209,
				"element": "H" 
			},
			{
				"x": -2.2024040451,
				"y": -1.5973216348,
				"z": -2.5099080943,
				"element": "H" 
			},
			{
				"x": -0.2831407496,
				"y": 2.098374279,
				"z": -0.8731253361,
				"element": "H" 
			},
			{
				"x": -0.4125218955,
				"y": 4.6777095341,
				"z": 2.8164214122,
				"element": "H" 
			},
			{
				"x": 1.9518141562,
				"y": 2.1964135158,
				"z": 3.5671803907,
				"element": "H" 
			},
			{
				"x": 2.5197490802,
				"y": 0.4013187829,
				"z": 1.9124183293,
				"element": "H" 
			}
		],
		 "valence_orbital": [ 
			{
				"type": "occ",
				"energy": -0.3147,
				"method": "rhf"
			},
			{
				"type": "occ",
				"energy": -0.30622,
				"method": "rhf"
			},
			{
				"type": "occ",
				"energy": -0.30267,
				"method": "rhf"
			},
			{
				"type": "occ",
				"energy": -0.27179,
				"method": "rhf"
			},
			{
				"type": "occ",
				"energy": -0.25118,
				"method": "rhf"
			},
			{
				"type": "unocc",
				"energy": -0.11311,
				"method": "rhf"
			},
			{
				"type": "unocc",
				"energy": -0.04765,
				"method": "rhf"
			},
			{
				"type": "unocc",
				"energy": -0.02184,
				"method": "rhf"
			},
			{
				"type": "unocc",
				"energy": 0.04702,
				"method": "rhf"
			},
			{
				"type": "unocc",
				"energy": 0.06793,
				"method": "rhf"
			}
		],
		"cosmo_sigma_profile": { 
			"-0.025": 0.0,
			"-0.024": 0.0,
			"-0.023": 0.0,
			"-0.022": 0.0,
			"-0.021": 0.0,
			"-0.02": 0.0,
			"-0.019": 0.0,
			"-0.018": 0.0,
			"-0.017": 0.0,
			"-0.016": 0.0,
			"-0.015": 0.0,
			"-0.014": 0.0,
			"-0.013": 0.0,
			"-0.012": 0.0,
			"-0.011": 0.423783540335,
			"-0.01": 0.551490506415,
			"-0.009": 2.26513872111,
			"-0.008": 6.55729788602,
			"-0.007": 8.19658730129,
			"-0.006": 7.84277815861,
			"-0.005": 14.8251422721,
			"-0.004": 26.3206992409,
			"-0.003": 35.3835854828,
			"-0.002": 33.4768097188,
			"-0.001": 26.9716757994,
			"0.0": 28.2272061069,
			"0.001": 16.581313235,
			"0.002": 8.19148766665,
			"0.003": 7.4790093212,
			"0.004": 7.71889137974,
			"0.005": 6.26563517075,
			"0.006": 9.71269122849,
			"0.007": 8.93818511059,
			"0.008": 9.78361725618,
			"0.009": 8.46491195808,
			"0.01": 6.58252176729,
			"0.011": 6.91247579428,
			"0.012": 2.40996705308,
			"0.013": 0.0,
			"0.014": 0.0,
			"0.015": 0.0,
			"0.016": 0.0,
			"0.017": 0.0,
			"0.018": 0.0,
			"0.019": 0.0,
			"0.02": 0.0,
			"0.021": 0.0,
			"0.022": 0.0,
			"0.023": 0.0,
			"0.024": 0.0,
			"0.025": 0.0
		}
	}
}
