{
	 "smiles": "CC1=NNC(=O)C=C1", 
	 "Tm": 417.15, 
	 "num_atms": 14, 
	 "gaussian": { 
		 "optdone": 1, 
		 "sigma_profile": "yes", 
		 "theory": "DFT", 
		 "functional": "B3LYP", 
		 "basiset": "6-31G**", 
		 "properties": { 
			 "R2extent": 1371.6025, 
			 "electric_dipole_moment_norm": 3.69729748465, 
			 "electric_quadrupole_moment_norm": 13.5320049704, 
			 "total_energy": -378.854226957, 
			 "HOMO_LUMO_gap": 0.16944, 
			 "cosmo_polarized_energy": -11.65, 
			 "cosmo_cavitation_energy": 18.26, 
			 "cosmo_dispersion_energy": -13.82, 
			 "cosmo_repulsion_energy": 1.16, 
			 "cosmo_total_nonelectrostatic_energy": 5.6, 
			 "SMD_solvation_energy": 3.47 
		},
		"coords": [
			{
				"x": 1.1283587451,
				"y": -0.66762594,
				"z": -0.9040260618,
				"element": "C" 
			},
			{
				"x": 0.0512535436,
				"y": 0.3167708274,
				"z": -0.5165189737,
				"element": "C" 
			},
			{
				"x": -0.8448046499,
				"y": -0.0919252417,
				"z": 0.3478967658,
				"element": "N" 
			},
			{
				"x": -1.8037834914,
				"y": 0.7820851331,
				"z": 0.693888589,
				"element": "N" 
			},
			{
				"x": -1.9974948502,
				"y": 2.1011213919,
				"z": 0.2590655805,
				"element": "C" 
			},
			{
				"x": -2.934315494,
				"y": 2.7711122731,
				"z": 0.6790500387,
				"element": "O" 
			},
			{
				"x": -0.9791062671,
				"y": 2.509497076,
				"z": -0.6981833307,
				"element": "C" 
			},
			{
				"x": 0.0026240865,
				"y": 1.6444219072,
				"z": -1.0655066494,
				"element": "C" 
			},
			{
				"x": 1.8199866243,
				"y": -0.227744567,
				"z": -1.6265740335,
				"element": "H" 
			},
			{
				"x": 0.6936063138,
				"y": -1.5671445058,
				"z": -1.3504801993,
				"element": "H" 
			},
			{
				"x": 1.7035111015,
				"y": -0.9827291913,
				"z": -0.0280260495,
				"element": "H" 
			},
			{
				"x": -2.4789428796,
				"y": 0.432107412,
				"z": 1.3639897224,
				"element": "H" 
			},
			{
				"x": -1.0490036069,
				"y": 3.5181389552,
				"z": -1.0900415522,
				"element": "H" 
			},
			{
				"x": 0.7649108243,
				"y": 1.94451447,
				"z": -1.7797338463,
				"element": "H" 
			}
		],
		 "valence_orbital": [ 
			{
				"type": "occ",
				"energy": -0.35681,
				"method": "rhf"
			},
			{
				"type": "occ",
				"energy": -0.31618,
				"method": "rhf"
			},
			{
				"type": "occ",
				"energy": -0.3111,
				"method": "rhf"
			},
			{
				"type": "occ",
				"energy": -0.24793,
				"method": "rhf"
			},
			{
				"type": "occ",
				"energy": -0.23331,
				"method": "rhf"
			},
			{
				"type": "unocc",
				"energy": -0.06387,
				"method": "rhf"
			},
			{
				"type": "unocc",
				"energy": 0.00314,
				"method": "rhf"
			},
			{
				"type": "unocc",
				"energy": 0.08626,
				"method": "rhf"
			},
			{
				"type": "unocc",
				"energy": 0.09609,
				"method": "rhf"
			},
			{
				"type": "unocc",
				"energy": 0.11849,
				"method": "rhf"
			}
		],
		"cosmo_sigma_profile": { 
			"-0.025": 0.0,
			"-0.024": 0.0,
			"-0.023": 0.0,
			"-0.022": 0.0,
			"-0.021": 0.0,
			"-0.02": 0.0,
			"-0.019": 0.0,
			"-0.018": 0.0,
			"-0.017": 0.0,
			"-0.016": 0.442150471075,
			"-0.015": 1.34829345662,
			"-0.014": 0.778420991859,
			"-0.013": 0.836316904856,
			"-0.012": 0.664853641239,
			"-0.011": 1.08328900429,
			"-0.01": 0.678215425219,
			"-0.009": 0.645538092432,
			"-0.008": 3.86821362246,
			"-0.007": 6.164738774,
			"-0.006": 6.88878398812,
			"-0.005": 8.98601337008,
			"-0.004": 7.86743632814,
			"-0.003": 10.5825133598,
			"-0.002": 15.3307668299,
			"-0.001": 19.0247208191,
			"0.0": 12.8964603669,
			"0.001": 8.09616954021,
			"0.002": 3.91127137366,
			"0.003": 3.05607710179,
			"0.004": 2.62766112924,
			"0.005": 2.25569180388,
			"0.006": 2.28197835838,
			"0.007": 2.26111468301,
			"0.008": 2.24534693724,
			"0.009": 1.930983205,
			"0.01": 1.55924367738,
			"0.011": 2.49368872453,
			"0.012": 2.54551878166,
			"0.013": 4.16418403161,
			"0.014": 6.02697134532,
			"0.015": 1.92047047527,
			"0.016": 0.00674717978809,
			"0.017": 0.0,
			"0.018": 0.0,
			"0.019": 0.0,
			"0.02": 0.0,
			"0.021": 0.0,
			"0.022": 0.0,
			"0.023": 0.0,
			"0.024": 0.0,
			"0.025": 0.0
		}
	}
}
