{
	 "smiles": "COC1=C(C=CC(=C1)S(N)(=O)=O)[N+]([O-])=O", 
	 "Tm": 423.15, 
	 "num_atms": 23, 
	 "gaussian": { 
		 "optdone": 1, 
		 "sigma_profile": "yes", 
		 "theory": "DFT", 
		 "functional": "B3LYP", 
		 "basiset": "6-31G**", 
		 "properties": { 
			 "R2extent": 4524.639, 
			 "electric_dipole_moment_norm": 4.37388178738, 
			 "electric_quadrupole_moment_norm": 31.4068115943, 
			 "total_energy": -1155.18117749, 
			 "HOMO_LUMO_gap": 0.16605, 
			 "cosmo_polarized_energy": -20.52, 
			 "cosmo_cavitation_energy": 29.83, 
			 "cosmo_dispersion_energy": -22.1, 
			 "cosmo_repulsion_energy": 1.7, 
			 "cosmo_total_nonelectrostatic_energy": 9.43, 
			 "SMD_solvation_energy": 7.92 
		},
		"coords": [
			{
				"x": -0.665152628,
				"y": 1.3992573624,
				"z": -2.3445102294,
				"element": "C" 
			},
			{
				"x": 0.2757488213,
				"y": 1.943047443,
				"z": -1.4204583036,
				"element": "O" 
			},
			{
				"x": 0.3375217233,
				"y": 1.4318946472,
				"z": -0.1791630136,
				"element": "C" 
			},
			{
				"x": 1.3160696199,
				"y": 1.924504525,
				"z": 0.7171787718,
				"element": "C" 
			},
			{
				"x": 1.4755825636,
				"y": 1.3824038322,
				"z": 1.9912371247,
				"element": "C" 
			},
			{
				"x": 0.6445630318,
				"y": 0.3606440183,
				"z": 2.4353429117,
				"element": "C" 
			},
			{
				"x": -0.3379557014,
				"y": -0.1065602444,
				"z": 1.5638297772,
				"element": "C" 
			},
			{
				"x": -0.4928790337,
				"y": 0.394229494,
				"z": 0.2751711717,
				"element": "C" 
			},
			{
				"x": -1.4394248266,
				"y": -1.4244283393,
				"z": 2.1027758734,
				"element": "S" 
			},
			{
				"x": -2.639470004,
				"y": -0.5905443815,
				"z": 2.9531513792,
				"element": "N" 
			},
			{
				"x": -2.0648215827,
				"y": -1.9911273101,
				"z": 0.9043746364,
				"element": "O" 
			},
			{
				"x": -0.7071979963,
				"y": -2.2399056979,
				"z": 3.0734980192,
				"element": "O" 
			},
			{
				"x": 2.2152746762,
				"y": 3.0296320579,
				"z": 0.3513637501,
				"element": "N" 
			},
			{
				"x": 3.316002865,
				"y": 3.0554374056,
				"z": 0.9057614764,
				"element": "O" 
			},
			{
				"x": 1.8108403409,
				"y": 3.8661149258,
				"z": -0.449438217,
				"element": "O" 
			},
			{
				"x": -0.4802385632,
				"y": 0.3339540148,
				"z": -2.5238995929,
				"element": "H" 
			},
			{
				"x": -0.5164880505,
				"y": 1.9568121858,
				"z": -3.2688578413,
				"element": "H" 
			},
			{
				"x": -1.6941827725,
				"y": 1.5409695986,
				"z": -1.994966981,
				"element": "H" 
			},
			{
				"x": 2.2661256862,
				"y": 1.778737992,
				"z": 2.6165145623,
				"element": "H" 
			},
			{
				"x": 0.7652385493,
				"y": -0.0736325684,
				"z": 3.4202416371,
				"element": "H" 
			},
			{
				"x": -1.2442607072,
				"y": -0.0425187217,
				"z": -0.3688274427,
				"element": "H" 
			},
			{
				"x": -3.5381161772,
				"y": -0.7209875522,
				"z": 2.4963756627,
				"element": "H" 
			},
			{
				"x": -2.6580798345,
				"y": -0.9092346873,
				"z": 3.9183048674,
				"element": "H" 
			}
		],
		 "valence_orbital": [ 
			{
				"type": "occ",
				"energy": -0.30869,
				"method": "rhf"
			},
			{
				"type": "occ",
				"energy": -0.30506,
				"method": "rhf"
			},
			{
				"type": "occ",
				"energy": -0.29702,
				"method": "rhf"
			},
			{
				"type": "occ",
				"energy": -0.28162,
				"method": "rhf"
			},
			{
				"type": "occ",
				"energy": -0.25934,
				"method": "rhf"
			},
			{
				"type": "unocc",
				"energy": -0.09329,
				"method": "rhf"
			},
			{
				"type": "unocc",
				"energy": -0.03113,
				"method": "rhf"
			},
			{
				"type": "unocc",
				"energy": -0.02783,
				"method": "rhf"
			},
			{
				"type": "unocc",
				"energy": 0.03744,
				"method": "rhf"
			},
			{
				"type": "unocc",
				"energy": 0.06787,
				"method": "rhf"
			}
		],
		"cosmo_sigma_profile": { 
			"-0.025": 0.0,
			"-0.024": 0.0,
			"-0.023": 0.0,
			"-0.022": 0.0,
			"-0.021": 0.0,
			"-0.02": 0.0,
			"-0.019": 0.0,
			"-0.018": 0.0,
			"-0.017": 0.0,
			"-0.016": 0.110882732405,
			"-0.015": 2.04518160039,
			"-0.014": 2.274884862,
			"-0.013": 2.76458846497,
			"-0.012": 2.52787492884,
			"-0.011": 1.71848473406,
			"-0.01": 1.98729511034,
			"-0.009": 3.04387060712,
			"-0.008": 7.69009812584,
			"-0.007": 13.3912122594,
			"-0.006": 16.2083336687,
			"-0.005": 15.0405292148,
			"-0.004": 14.1847757196,
			"-0.003": 11.3520899152,
			"-0.002": 14.8592811734,
			"-0.001": 14.2173861542,
			"0.0": 12.3837617794,
			"0.001": 12.1825875886,
			"0.002": 6.61744078937,
			"0.003": 6.83191959658,
			"0.004": 5.87178989869,
			"0.005": 5.67380688569,
			"0.006": 7.36604728312,
			"0.007": 11.7276013512,
			"0.008": 13.6768760147,
			"0.009": 10.4756287531,
			"0.01": 12.3374582608,
			"0.011": 9.11237794951,
			"0.012": 0.657011459056,
			"0.013": 0.0,
			"0.014": 0.0,
			"0.015": 0.0,
			"0.016": 0.0,
			"0.017": 0.0,
			"0.018": 0.0,
			"0.019": 0.0,
			"0.02": 0.0,
			"0.021": 0.0,
			"0.022": 0.0,
			"0.023": 0.0,
			"0.024": 0.0,
			"0.025": 0.0
		}
	}
}
