{
	 "smiles": "OC(=O)CN1C(=O)C2=C(C=CC=C2)S1(=O)=O", 
	 "Tm": 492.15, 
	 "num_atms": 23, 
	 "gaussian": { 
		 "optdone": 1, 
		 "sigma_profile": "yes", 
		 "theory": "DFT", 
		 "functional": "B3LYP", 
		 "basiset": "6-31G**", 
		 "properties": { 
			 "R2extent": 3954.5444, 
			 "electric_dipole_moment_norm": 8.61281693118, 
			 "electric_quadrupole_moment_norm": 19.0641999756, 
			 "total_energy": -1176.17577489, 
			 "HOMO_LUMO_gap": 0.16835, 
			 "cosmo_polarized_energy": -20.59, 
			 "cosmo_cavitation_energy": 29.54, 
			 "cosmo_dispersion_energy": -21.79, 
			 "cosmo_repulsion_energy": 1.62, 
			 "cosmo_total_nonelectrostatic_energy": 9.38, 
			 "SMD_solvation_energy": 5.61 
		},
		"coords": [
			{
				"x": 0.8981242694,
				"y": 0.9808677494,
				"z": -3.7929553329,
				"element": "O" 
			},
			{
				"x": 0.1790383709,
				"y": 1.8074867574,
				"z": -3.0230131039,
				"element": "C" 
			},
			{
				"x": -0.7090387067,
				"y": 2.4962637897,
				"z": -3.4599082188,
				"element": "O" 
			},
			{
				"x": 0.5951657563,
				"y": 1.8817471394,
				"z": -1.5393883779,
				"element": "C" 
			},
			{
				"x": 0.6311139698,
				"y": 0.5854476853,
				"z": -0.8506623868,
				"element": "N" 
			},
			{
				"x": 1.632217943,
				"y": -0.3416725475,
				"z": -1.0290145176,
				"element": "C" 
			},
			{
				"x": 2.4584581142,
				"y": -0.2875990352,
				"z": -1.9393277347,
				"element": "O" 
			},
			{
				"x": 1.5595539594,
				"y": -1.3885180527,
				"z": 0.0210476517,
				"element": "C" 
			},
			{
				"x": 0.5451499562,
				"y": -1.1760973999,
				"z": 0.9531927176,
				"element": "C" 
			},
			{
				"x": 0.3041425739,
				"y": -2.0468786961,
				"z": 2.005874631,
				"element": "C" 
			},
			{
				"x": 1.1413453005,
				"y": -3.1636644514,
				"z": 2.1127429869,
				"element": "C" 
			},
			{
				"x": 2.1679947372,
				"y": -3.3886480359,
				"z": 1.18735367,
				"element": "C" 
			},
			{
				"x": 2.3859638282,
				"y": -2.5038324671,
				"z": 0.1284638411,
				"element": "C" 
			},
			{
				"x": -0.3652603904,
				"y": 0.3093878996,
				"z": 0.559295565,
				"element": "S" 
			},
			{
				"x": -1.7303369948,
				"y": 0.0020326855,
				"z": 0.1492534848,
				"element": "O" 
			},
			{
				"x": -0.1116244466,
				"y": 1.3910263614,
				"z": 1.5078985369,
				"element": "O" 
			},
			{
				"x": 1.6069271488,
				"y": 0.5392187257,
				"z": -3.2727153798,
				"element": "H" 
			},
			{
				"x": 1.5900354473,
				"y": 2.3382799123,
				"z": -1.4683843782,
				"element": "H" 
			},
			{
				"x": -0.1179174662,
				"y": 2.5265747031,
				"z": -1.0267793014,
				"element": "H" 
			},
			{
				"x": -0.4951206369,
				"y": -1.8713747297,
				"z": 2.7177220416,
				"element": "H" 
			},
			{
				"x": 0.988839479,
				"y": -3.8655261045,
				"z": 2.9265201123,
				"element": "H" 
			},
			{
				"x": 2.8004111585,
				"y": -4.2641907084,
				"z": 1.2939742282,
				"element": "H" 
			},
			{
				"x": 3.1726166291,
				"y": -2.6640311805,
				"z": -0.600990735,
				"element": "H" 
			}
		],
		 "valence_orbital": [ 
			{
				"type": "occ",
				"energy": -0.31179,
				"method": "rhf"
			},
			{
				"type": "occ",
				"energy": -0.30913,
				"method": "rhf"
			},
			{
				"type": "occ",
				"energy": -0.30688,
				"method": "rhf"
			},
			{
				"type": "occ",
				"energy": -0.30387,
				"method": "rhf"
			},
			{
				"type": "occ",
				"energy": -0.266,
				"method": "rhf"
			},
			{
				"type": "unocc",
				"energy": -0.09765,
				"method": "rhf"
			},
			{
				"type": "unocc",
				"energy": -0.0668,
				"method": "rhf"
			},
			{
				"type": "unocc",
				"energy": -0.0031,
				"method": "rhf"
			},
			{
				"type": "unocc",
				"energy": 0.00656,
				"method": "rhf"
			},
			{
				"type": "unocc",
				"energy": 0.01468,
				"method": "rhf"
			}
		],
		"cosmo_sigma_profile": { 
			"-0.025": 0.0,
			"-0.024": 0.0,
			"-0.023": 0.0,
			"-0.022": 0.0,
			"-0.021": 0.0,
			"-0.02": 0.0,
			"-0.019": 0.0,
			"-0.018": 0.0,
			"-0.017": 0.0,
			"-0.016": 0.0,
			"-0.015": 0.0,
			"-0.014": 0.0,
			"-0.013": 0.0,
			"-0.012": 0.0230656688824,
			"-0.011": 1.03718930209,
			"-0.01": 4.89544332646,
			"-0.009": 8.57643589113,
			"-0.008": 14.711010781,
			"-0.007": 15.5069302017,
			"-0.006": 14.3170288434,
			"-0.005": 12.718546131,
			"-0.004": 12.3295207159,
			"-0.003": 12.5319607217,
			"-0.002": 12.9172503731,
			"-0.001": 16.7619263043,
			"0.0": 17.7894000667,
			"0.001": 11.0096236564,
			"0.002": 4.56530150879,
			"0.003": 4.22618772494,
			"0.004": 5.76883032421,
			"0.005": 6.67019127046,
			"0.006": 5.4679855677,
			"0.007": 6.9146544782,
			"0.008": 11.774560665,
			"0.009": 18.3132566058,
			"0.01": 8.85913552004,
			"0.011": 5.98263356623,
			"0.012": 3.85136002682,
			"0.013": 0.584976403959,
			"0.014": 0.0,
			"0.015": 0.0,
			"0.016": 0.0,
			"0.017": 0.0,
			"0.018": 0.0,
			"0.019": 0.0,
			"0.02": 0.0,
			"0.021": 0.0,
			"0.022": 0.0,
			"0.023": 0.0,
			"0.024": 0.0,
			"0.025": 0.0
		}
	}
}
