{
	 "smiles": "CCCCCC(=O)NC1=CC(Cl)=C(Cl)C=C1", 
	 "Tm": 379.15, 
	 "num_atms": 31, 
	 "gaussian": { 
		 "optdone": 1, 
		 "sigma_profile": "yes", 
		 "theory": "DFT", 
		 "functional": "B3LYP", 
		 "basiset": "6-31G**", 
		 "properties": { 
			 "R2extent": 9585.5763, 
			 "electric_dipole_moment_norm": 4.0587576449, 
			 "electric_quadrupole_moment_norm": 17.3602124181, 
			 "total_energy": -1516.70998543, 
			 "HOMO_LUMO_gap": 0.19937, 
			 "cosmo_polarized_energy": -12.65, 
			 "cosmo_cavitation_energy": 37.78, 
			 "cosmo_dispersion_energy": -27.08, 
			 "cosmo_repulsion_energy": 2.16, 
			 "cosmo_total_nonelectrostatic_energy": 12.86, 
			 "SMD_solvation_energy": 5.85 
		},
		"coords": [
			{
				"x": -4.0143605798,
				"y": -2.3841234939,
				"z": -1.7935328621,
				"element": "C" 
			},
			{
				"x": -3.8692813179,
				"y": -1.0393567876,
				"z": -2.5167597963,
				"element": "C" 
			},
			{
				"x": -2.830176617,
				"y": -0.0900352404,
				"z": -1.8974290504,
				"element": "C" 
			},
			{
				"x": -3.2131058101,
				"y": 0.4302924725,
				"z": -0.5048006522,
				"element": "C" 
			},
			{
				"x": -2.1919050559,
				"y": 1.4231262787,
				"z": 0.0982415732,
				"element": "C" 
			},
			{
				"x": -0.8493687115,
				"y": 0.7679975388,
				"z": 0.4002542953,
				"element": "C" 
			},
			{
				"x": 0.0210222167,
				"y": 0.6329616682,
				"z": -0.4488628025,
				"element": "O" 
			},
			{
				"x": -0.7275019067,
				"y": 0.3070471691,
				"z": 1.6995815314,
				"element": "N" 
			},
			{
				"x": 0.3423230464,
				"y": -0.3902978356,
				"z": 2.2906345749,
				"element": "C" 
			},
			{
				"x": 0.2074024258,
				"y": -0.7497041246,
				"z": 3.6389854899,
				"element": "C" 
			},
			{
				"x": 1.2210450989,
				"y": -1.4416738733,
				"z": 4.2975031303,
				"element": "C" 
			},
			{
				"x": 0.9844559603,
				"y": -1.8578253566,
				"z": 5.9785690747,
				"element": "Cl" 
			},
			{
				"x": 2.3932702076,
				"y": -1.7871639398,
				"z": 3.6140719905,
				"element": "C" 
			},
			{
				"x": 3.6929677804,
				"y": -2.6542702054,
				"z": 4.3953676755,
				"element": "Cl" 
			},
			{
				"x": 2.5221369131,
				"y": -1.4260800762,
				"z": 2.2715596959,
				"element": "C" 
			},
			{
				"x": 1.5169196876,
				"y": -0.7350089312,
				"z": 1.6027857023,
				"element": "C" 
			},
			{
				"x": -3.0538559164,
				"y": -2.9099748682,
				"z": -1.7446207449,
				"element": "H" 
			},
			{
				"x": -4.7233605945,
				"y": -3.0359828574,
				"z": -2.3142544068,
				"element": "H" 
			},
			{
				"x": -4.3778134988,
				"y": -2.2633261241,
				"z": -0.767492943,
				"element": "H" 
			},
			{
				"x": -3.5860395394,
				"y": -1.2273924415,
				"z": -3.5598553279,
				"element": "H" 
			},
			{
				"x": -4.8457084772,
				"y": -0.5363621897,
				"z": -2.5552265415,
				"element": "H" 
			},
			{
				"x": -1.8554281281,
				"y": -0.5896537789,
				"z": -1.8505835117,
				"element": "H" 
			},
			{
				"x": -2.6922022699,
				"y": 0.7720113061,
				"z": -2.5633780979,
				"element": "H" 
			},
			{
				"x": -4.1831961327,
				"y": 0.9408468478,
				"z": -0.5642085677,
				"element": "H" 
			},
			{
				"x": -3.3504698235,
				"y": -0.4068129488,
				"z": 0.1914389813,
				"element": "H" 
			},
			{
				"x": -1.9943340148,
				"y": 2.2294501963,
				"z": -0.6143089976,
				"element": "H" 
			},
			{
				"x": -2.6123993955,
				"y": 1.8784892877,
				"z": 1.0034415635,
				"element": "H" 
			},
			{
				"x": -1.5108662249,
				"y": 0.4886526729,
				"z": 2.3103508821,
				"element": "H" 
			},
			{
				"x": -0.6916383989,
				"y": -0.4936567511,
				"z": 4.1910679349,
				"element": "H" 
			},
			{
				"x": 3.4310308867,
				"y": -1.6940945879,
				"z": 1.7440923997,
				"element": "H" 
			},
			{
				"x": 1.6274381899,
				"y": -0.4595790259,
				"z": 0.5642678069,
				"element": "H" 
			}
		],
		 "valence_orbital": [ 
			{
				"type": "occ",
				"energy": -0.30925,
				"method": "rhf"
			},
			{
				"type": "occ",
				"energy": -0.30035,
				"method": "rhf"
			},
			{
				"type": "occ",
				"energy": -0.26115,
				"method": "rhf"
			},
			{
				"type": "occ",
				"energy": -0.26053,
				"method": "rhf"
			},
			{
				"type": "occ",
				"energy": -0.22982,
				"method": "rhf"
			},
			{
				"type": "unocc",
				"energy": -0.03045,
				"method": "rhf"
			},
			{
				"type": "unocc",
				"energy": -0.02382,
				"method": "rhf"
			},
			{
				"type": "unocc",
				"energy": 0.00163,
				"method": "rhf"
			},
			{
				"type": "unocc",
				"energy": 0.02532,
				"method": "rhf"
			},
			{
				"type": "unocc",
				"energy": 0.05634,
				"method": "rhf"
			}
		],
		"cosmo_sigma_profile": { 
			"-0.025": 0.0,
			"-0.024": 0.0,
			"-0.023": 0.0,
			"-0.022": 0.0,
			"-0.021": 0.0,
			"-0.02": 0.0,
			"-0.019": 0.0,
			"-0.018": 0.0,
			"-0.017": 0.0,
			"-0.016": 0.577131775792,
			"-0.015": 1.42243504508,
			"-0.014": 1.66511514112,
			"-0.013": 1.84672501884,
			"-0.012": 1.41387710566,
			"-0.011": 1.23504139564,
			"-0.01": 2.03959935917,
			"-0.009": 1.71404460263,
			"-0.008": 2.4742535465,
			"-0.007": 4.67459922947,
			"-0.006": 4.57643502307,
			"-0.005": 7.00080706553,
			"-0.004": 8.48582835844,
			"-0.003": 20.0777490261,
			"-0.002": 32.9353825303,
			"-0.001": 33.1203446578,
			"0.0": 38.2196105022,
			"0.001": 41.6857521296,
			"0.002": 32.1915068255,
			"0.003": 20.2499357499,
			"0.004": 19.6253279187,
			"0.005": 8.52487056993,
			"0.006": 2.3785454098,
			"0.007": 2.0790382788,
			"0.008": 1.81678600114,
			"0.009": 1.5991666113,
			"0.01": 1.5747943537,
			"0.011": 1.93252227079,
			"0.012": 2.3775437214,
			"0.013": 1.91375877958,
			"0.014": 1.03797702933,
			"0.015": 0.00766843413032,
			"0.016": 0.0,
			"0.017": 0.0,
			"0.018": 0.0,
			"0.019": 0.0,
			"0.02": 0.0,
			"0.021": 0.0,
			"0.022": 0.0,
			"0.023": 0.0,
			"0.024": 0.0,
			"0.025": 0.0
		}
	}
}
