{
	 "smiles": "NC1=CC=C(C=C1)C1=NN(C(=O)C1)C1=CC=CC=C1", 
	 "Tm": 433.15, 
	 "num_atms": 32, 
	 "gaussian": { 
		 "optdone": 1, 
		 "sigma_profile": "yes", 
		 "theory": "DFT", 
		 "functional": "B3LYP", 
		 "basiset": "6-31G**", 
		 "properties": { 
			 "R2extent": 7165.7573, 
			 "electric_dipole_moment_norm": 6.07773520812, 
			 "electric_quadrupole_moment_norm": 19.3663076316, 
			 "total_energy": -818.905912005, 
			 "HOMO_LUMO_gap": 0.14637, 
			 "cosmo_polarized_energy": -16.62, 
			 "cosmo_cavitation_energy": 36.32, 
			 "cosmo_dispersion_energy": -26.76, 
			 "cosmo_repulsion_energy": 2.02, 
			 "cosmo_total_nonelectrostatic_energy": 11.58, 
			 "SMD_solvation_energy": 5.92 
		},
		"coords": [
			{
				"x": -5.5917305679,
				"y": -1.3698732313,
				"z": 0.3298540188,
				"element": "N" 
			},
			{
				"x": -4.2812114342,
				"y": -0.9492776088,
				"z": 0.1561567907,
				"element": "C" 
			},
			{
				"x": -3.9868192359,
				"y": 0.2250974122,
				"z": -0.5593528516,
				"element": "C" 
			},
			{
				"x": -2.6754662677,
				"y": 0.6671140661,
				"z": -0.6821785561,
				"element": "C" 
			},
			{
				"x": -1.6081184446,
				"y": -0.0388435141,
				"z": -0.101848971,
				"element": "C" 
			},
			{
				"x": -1.9094873447,
				"y": -1.214685109,
				"z": 0.6138226221,
				"element": "C" 
			},
			{
				"x": -3.2134192955,
				"y": -1.661454976,
				"z": 0.7415750505,
				"element": "C" 
			},
			{
				"x": -0.2327041077,
				"y": 0.4302729022,
				"z": -0.2380910377,
				"element": "C" 
			},
			{
				"x": 0.7722898546,
				"y": -0.2034911756,
				"z": 0.2818869135,
				"element": "N" 
			},
			{
				"x": 1.9486462515,
				"y": 0.4878514624,
				"z": -0.0183036649,
				"element": "N" 
			},
			{
				"x": 1.7172923115,
				"y": 1.6361316593,
				"z": -0.7736968238,
				"element": "C" 
			},
			{
				"x": 2.538913114,
				"y": 2.4359637275,
				"z": -1.1857511214,
				"element": "O" 
			},
			{
				"x": 0.2049074145,
				"y": 1.6677993443,
				"z": -0.9713251222,
				"element": "C" 
			},
			{
				"x": 3.1820508456,
				"y": -0.0293691651,
				"z": 0.4543475144,
				"element": "C" 
			},
			{
				"x": 4.3922424036,
				"y": 0.6280548507,
				"z": 0.178970185,
				"element": "C" 
			},
			{
				"x": 5.5861476503,
				"y": 0.0912144209,
				"z": 0.659524875,
				"element": "C" 
			},
			{
				"x": 5.5979763142,
				"y": -1.0862259297,
				"z": 1.4080202654,
				"element": "C" 
			},
			{
				"x": 4.3900454512,
				"y": -1.7321377477,
				"z": 1.6763888751,
				"element": "C" 
			},
			{
				"x": 3.1853130928,
				"y": -1.2141500567,
				"z": 1.206561965,
				"element": "C" 
			},
			{
				"x": -5.7224959768,
				"y": -2.3440745378,
				"z": 0.5612110156,
				"element": "H" 
			},
			{
				"x": -6.2652956788,
				"y": -1.0291451365,
				"z": -0.3408873234,
				"element": "H" 
			},
			{
				"x": -4.7944225531,
				"y": 0.7918118469,
				"z": -1.0155611939,
				"element": "H" 
			},
			{
				"x": -2.4822451144,
				"y": 1.5769873137,
				"z": -1.2431836833,
				"element": "H" 
			},
			{
				"x": -1.0976056146,
				"y": -1.7733692451,
				"z": 1.0671771889,
				"element": "H" 
			},
			{
				"x": -3.4222956216,
				"y": -2.5694696453,
				"z": 1.3019233271,
				"element": "H" 
			},
			{
				"x": -0.0377317134,
				"y": 1.6525806357,
				"z": -2.0393488986,
				"element": "H" 
			},
			{
				"x": -0.21191684,
				"y": 2.5918849506,
				"z": -0.5564682325,
				"element": "H" 
			},
			{
				"x": 4.386727053,
				"y": 1.5403225367,
				"z": -0.4004766731,
				"element": "H" 
			},
			{
				"x": 6.5173827874,
				"y": 0.6066449359,
				"z": 0.4416583296,
				"element": "H" 
			},
			{
				"x": 6.5340794431,
				"y": -1.4946497741,
				"z": 1.776937439,
				"element": "H" 
			},
			{
				"x": 4.3795511043,
				"y": -2.6499591406,
				"z": 2.2577320671,
				"element": "H" 
			},
			{
				"x": 2.247500719,
				"y": -1.7123560715,
				"z": 1.4131257103,
				"element": "H" 
			}
		],
		 "valence_orbital": [ 
			{
				"type": "occ",
				"energy": -0.26027,
				"method": "rhf"
			},
			{
				"type": "occ",
				"energy": -0.2506,
				"method": "rhf"
			},
			{
				"type": "occ",
				"energy": -0.24084,
				"method": "rhf"
			},
			{
				"type": "occ",
				"energy": -0.22557,
				"method": "rhf"
			},
			{
				"type": "occ",
				"energy": -0.19264,
				"method": "rhf"
			},
			{
				"type": "unocc",
				"energy": -0.04627,
				"method": "rhf"
			},
			{
				"type": "unocc",
				"energy": -0.0111,
				"method": "rhf"
			},
			{
				"type": "unocc",
				"energy": -0.00691,
				"method": "rhf"
			},
			{
				"type": "unocc",
				"energy": 0.00957,
				"method": "rhf"
			},
			{
				"type": "unocc",
				"energy": 0.03521,
				"method": "rhf"
			}
		],
		"cosmo_sigma_profile": { 
			"-0.025": 0.0,
			"-0.024": 0.0,
			"-0.023": 0.0,
			"-0.022": 0.0,
			"-0.021": 0.0,
			"-0.02": 0.0,
			"-0.019": 0.0,
			"-0.018": 0.0,
			"-0.017": 0.0,
			"-0.016": 0.0,
			"-0.015": 0.0,
			"-0.014": 0.115714736891,
			"-0.013": 1.85271915519,
			"-0.012": 2.77053446706,
			"-0.011": 2.85879936789,
			"-0.01": 2.70877248321,
			"-0.009": 4.27593687928,
			"-0.008": 7.79458260427,
			"-0.007": 11.1533144638,
			"-0.006": 15.109053515,
			"-0.005": 17.5933121257,
			"-0.004": 20.1012191648,
			"-0.003": 17.8985036654,
			"-0.002": 14.0284217056,
			"-0.001": 14.1326027374,
			"0.0": 15.1913281419,
			"0.001": 15.8280065293,
			"0.002": 17.8984708812,
			"0.003": 22.9048310517,
			"0.004": 24.6434954554,
			"0.005": 27.0890901989,
			"0.006": 12.9959842862,
			"0.007": 3.75281645803,
			"0.008": 3.45465118253,
			"0.009": 2.36627232626,
			"0.01": 2.93984033685,
			"0.011": 3.0139082502,
			"0.012": 4.0367299038,
			"0.013": 2.34822826453,
			"0.014": 0.109455928712,
			"0.015": 0.0,
			"0.016": 0.0,
			"0.017": 0.0,
			"0.018": 0.0,
			"0.019": 0.0,
			"0.02": 0.0,
			"0.021": 0.0,
			"0.022": 0.0,
			"0.023": 0.0,
			"0.024": 0.0,
			"0.025": 0.0
		}
	}
}
