{
	 "smiles": "ClC1=C(C=C(C=C1)S(=O)(=O)N1CCOCC1)N=C=S", 
	 "Tm": 392.15, 
	 "num_atms": 30, 
	 "gaussian": { 
		 "optdone": 1, 
		 "sigma_profile": "yes", 
		 "theory": "DFT", 
		 "functional": "B3LYP", 
		 "basiset": "6-31G**", 
		 "properties": { 
			 "R2extent": 8722.9224, 
			 "electric_dipole_moment_norm": 3.38559813622, 
			 "electric_quadrupole_moment_norm": 17.7470116617, 
			 "total_energy": -2017.43320492, 
			 "HOMO_LUMO_gap": 0.17766, 
			 "cosmo_polarized_energy": -14.53, 
			 "cosmo_cavitation_energy": 39.36, 
			 "cosmo_dispersion_energy": -28.67, 
			 "cosmo_repulsion_energy": 2.15, 
			 "cosmo_total_nonelectrostatic_energy": 12.83, 
			 "SMD_solvation_energy": 4.89 
		},
		"coords": [
			{
				"x": 2.3372303498,
				"y": -4.4739876778,
				"z": -0.3179053845,
				"element": "Cl" 
			},
			{
				"x": 1.7033843537,
				"y": -2.865754191,
				"z": -0.5314828935,
				"element": "C" 
			},
			{
				"x": 1.1567940502,
				"y": -2.1680342045,
				"z": 0.5725001834,
				"element": "C" 
			},
			{
				"x": 0.6530814804,
				"y": -0.8759045252,
				"z": 0.3703379661,
				"element": "C" 
			},
			{
				"x": 0.6956329754,
				"y": -0.3062534204,
				"z": -0.8981981664,
				"element": "C" 
			},
			{
				"x": 1.2451589001,
				"y": -0.9879298269,
				"z": -1.9839328389,
				"element": "C" 
			},
			{
				"x": 1.7469375502,
				"y": -2.2749786628,
				"z": -1.79200495,
				"element": "C" 
			},
			{
				"x": 0.0489990873,
				"y": 1.3570910836,
				"z": -1.1254495511,
				"element": "S" 
			},
			{
				"x": 0.5350413677,
				"y": 1.8188258116,
				"z": -2.4315467414,
				"element": "O" 
			},
			{
				"x": 0.3089985088,
				"y": 2.1192951609,
				"z": 0.0991630887,
				"element": "O" 
			},
			{
				"x": -1.612246039,
				"y": 1.0901668383,
				"z": -1.1777442294,
				"element": "N" 
			},
			{
				"x": -2.1646512755,
				"y": 0.5964417129,
				"z": -2.4574335789,
				"element": "C" 
			},
			{
				"x": -3.6940064771,
				"y": 0.7448537783,
				"z": -2.4176547242,
				"element": "C" 
			},
			{
				"x": -4.206947669,
				"y": 0.3687003838,
				"z": -1.1550818177,
				"element": "O" 
			},
			{
				"x": -3.7850837553,
				"y": 1.233957746,
				"z": -0.0993933246,
				"element": "C" 
			},
			{
				"x": -2.4925067817,
				"y": 1.9973343193,
				"z": -0.4277708998,
				"element": "C" 
			},
			{
				"x": 1.1048559235,
				"y": -2.706737604,
				"z": 1.832942221,
				"element": "N" 
			},
			{
				"x": 1.2966085755,
				"y": -3.5801143114,
				"z": 2.6334334411,
				"element": "C" 
			},
			{
				"x": 1.4883475461,
				"y": -4.6430461541,
				"z": 3.7887454659,
				"element": "S" 
			},
			{
				"x": 0.2482480344,
				"y": -0.3296652693,
				"z": 1.2140330898,
				"element": "H" 
			},
			{
				"x": 1.2941353837,
				"y": -0.5092630049,
				"z": -2.9550289874,
				"element": "H" 
			},
			{
				"x": 2.1809418564,
				"y": -2.8259792537,
				"z": -2.6187009966,
				"element": "H" 
			},
			{
				"x": -1.8946031754,
				"y": -0.4599559576,
				"z": -2.5655316091,
				"element": "H" 
			},
			{
				"x": -1.7562327498,
				"y": 1.1493525764,
				"z": -3.3130518358,
				"element": "H" 
			},
			{
				"x": -4.1456284224,
				"y": 0.0770075223,
				"z": -3.1558253252,
				"element": "H" 
			},
			{
				"x": -3.9876747543,
				"y": 1.772887655,
				"z": -2.6797632886,
				"element": "H" 
			},
			{
				"x": -4.5775624049,
				"y": 1.9606319144,
				"z": 0.137148926,
				"element": "H" 
			},
			{
				"x": -3.6337032121,
				"y": 0.5934478054,
				"z": 0.7752829819,
				"element": "H" 
			},
			{
				"x": -1.9895595397,
				"y": 2.3005449242,
				"z": 0.4907408506,
				"element": "H" 
			},
			{
				"x": -2.706089687,
				"y": 2.9104648311,
				"z": -1.0009270714,
				"element": "H" 
			}
		],
		 "valence_orbital": [ 
			{
				"type": "occ",
				"energy": -0.28659,
				"method": "rhf"
			},
			{
				"type": "occ",
				"energy": -0.27286,
				"method": "rhf"
			},
			{
				"type": "occ",
				"energy": -0.26711,
				"method": "rhf"
			},
			{
				"type": "occ",
				"energy": -0.25618,
				"method": "rhf"
			},
			{
				"type": "occ",
				"energy": -0.24745,
				"method": "rhf"
			},
			{
				"type": "unocc",
				"energy": -0.06979,
				"method": "rhf"
			},
			{
				"type": "unocc",
				"energy": -0.0555,
				"method": "rhf"
			},
			{
				"type": "unocc",
				"energy": -0.03184,
				"method": "rhf"
			},
			{
				"type": "unocc",
				"energy": 0.0098,
				"method": "rhf"
			},
			{
				"type": "unocc",
				"energy": 0.01749,
				"method": "rhf"
			}
		],
		"cosmo_sigma_profile": { 
			"-0.025": 0.0,
			"-0.024": 0.0,
			"-0.023": 0.0,
			"-0.022": 0.0,
			"-0.021": 0.0,
			"-0.02": 0.0,
			"-0.019": 0.0,
			"-0.018": 0.0,
			"-0.017": 0.0,
			"-0.016": 0.0,
			"-0.015": 0.0,
			"-0.014": 0.0,
			"-0.013": 0.0,
			"-0.012": 0.0,
			"-0.011": 0.0,
			"-0.01": 0.0,
			"-0.009": 2.2935695255,
			"-0.008": 4.88800067942,
			"-0.007": 5.2891936369,
			"-0.006": 14.6384898407,
			"-0.005": 29.2878981001,
			"-0.004": 27.1370959697,
			"-0.003": 24.4031436173,
			"-0.002": 27.2355556938,
			"-0.001": 30.9423932289,
			"0.0": 27.5725119662,
			"0.001": 20.8971452173,
			"0.002": 19.2519596979,
			"0.003": 19.7796247293,
			"0.004": 18.2900017278,
			"0.005": 9.01220671359,
			"0.006": 3.77208499314,
			"0.007": 5.15980032504,
			"0.008": 4.58228435796,
			"0.009": 5.70211357145,
			"0.01": 7.75018249564,
			"0.011": 7.78011570416,
			"0.012": 2.91003824487,
			"0.013": 1.39421583482,
			"0.014": 0.0138023595608,
			"0.015": 0.0,
			"0.016": 0.0,
			"0.017": 0.0,
			"0.018": 0.0,
			"0.019": 0.0,
			"0.02": 0.0,
			"0.021": 0.0,
			"0.022": 0.0,
			"0.023": 0.0,
			"0.024": 0.0,
			"0.0": 0.0
		}
	}
}
