{
	 "smiles": "FC(F)(F)C1=C(C#N)C(S)=NC(=C1)C1=CC=CC=C1", 
	 "Tm": 454.15, 
	 "num_atms": 26, 
	 "gaussian": { 
		 "optdone": 1, 
		 "sigma_profile": "yes", 
		 "theory": "DFT", 
		 "functional": "B3LYP", 
		 "basiset": "6-31G**", 
		 "properties": { 
			 "R2extent": 6906.7015, 
			 "electric_dipole_moment_norm": 6.5378059546, 
			 "electric_quadrupole_moment_norm": 16.9805125308, 
			 "total_energy": -1306.79971008, 
			 "HOMO_LUMO_gap": 0.15416, 
			 "cosmo_polarized_energy": -11.34, 
			 "cosmo_cavitation_energy": 35.0, 
			 "cosmo_dispersion_energy": -24.67, 
			 "cosmo_repulsion_energy": 1.78, 
			 "cosmo_total_nonelectrostatic_energy": 12.11, 
			 "SMD_solvation_energy": 6.65 
		},
		"coords": [
			{
				"x": -3.5374754772,
				"y": -0.4386681231,
				"z": -1.7433688458,
				"element": "F" 
			},
			{
				"x": -3.0353959245,
				"y": 0.7789752552,
				"z": -2.0330900351,
				"element": "C" 
			},
			{
				"x": -3.7989048815,
				"y": 1.6946506049,
				"z": -1.4084414802,
				"element": "F" 
			},
			{
				"x": -3.1672072063,
				"y": 0.9700194675,
				"z": -3.3590524959,
				"element": "F" 
			},
			{
				"x": -1.585316142,
				"y": 0.8972949032,
				"z": -1.608880071,
				"element": "C" 
			},
			{
				"x": -0.882993915,
				"y": 2.0985941387,
				"z": -1.8182535783,
				"element": "C" 
			},
			{
				"x": -1.4748019424,
				"y": 3.2403372668,
				"z": -2.4375926625,
				"element": "C" 
			},
			{
				"x": -1.9142031583,
				"y": 4.1950015374,
				"z": -2.9370661231,
				"element": "N" 
			},
			{
				"x": 0.4632441092,
				"y": 2.1402151059,
				"z": -1.3763963388,
				"element": "C" 
			},
			{
				"x": 1.4025934184,
				"y": 3.6336686972,
				"z": -1.5942465431,
				"element": "S" 
			},
			{
				"x": 1.0673516859,
				"y": 1.1047963108,
				"z": -0.8027521392,
				"element": "N" 
			},
			{
				"x": 0.3980562666,
				"y": -0.0472997278,
				"z": -0.6169862463,
				"element": "C" 
			},
			{
				"x": -0.9487537147,
				"y": -0.1744262811,
				"z": -1.0048102537,
				"element": "C" 
			},
			{
				"x": 1.1419278285,
				"y": -1.1560686066,
				"z": 0.0264111143,
				"element": "C" 
			},
			{
				"x": 2.3305868009,
				"y": -0.883332244,
				"z": 0.7255050256,
				"element": "C" 
			},
			{
				"x": 3.039154666,
				"y": -1.9084009704,
				"z": 1.345641193,
				"element": "C" 
			},
			{
				"x": 2.5797757994,
				"y": -3.2257500393,
				"z": 1.2723115906,
				"element": "C" 
			},
			{
				"x": 1.4065837234,
				"y": -3.5109087614,
				"z": 0.5710211576,
				"element": "C" 
			},
			{
				"x": 0.6926961459,
				"y": -2.4860297444,
				"z": -0.0461234057,
				"element": "C" 
			},
			{
				"x": 2.5143406906,
				"y": 3.1050628905,
				"z": -1.0490426666,
				"element": "H" 
			},
			{
				"x": -1.5011261017,
				"y": -1.0851574255,
				"z": -0.8226804795,
				"element": "H" 
			},
			{
				"x": 2.6811328014,
				"y": 0.1408999646,
				"z": 0.775296218,
				"element": "H" 
			},
			{
				"x": 3.9514624442,
				"y": -1.6795721809,
				"z": 1.8885137173,
				"element": "H" 
			},
			{
				"x": 3.1341509684,
				"y": -4.0253078283,
				"z": 1.7548195141,
				"element": "H" 
			},
			{
				"x": 1.0491486881,
				"y": -4.5336629225,
				"z": 0.4984485857,
				"element": "H" 
			},
			{
				"x": -0.2030275732,
				"y": -2.7337312875,
				"z": -0.6062847514,
				"element": "H" 
			}
		],
		 "valence_orbital": [ 
			{
				"type": "occ",
				"energy": -0.31331,
				"method": "rhf"
			},
			{
				"type": "occ",
				"energy": -0.29107,
				"method": "rhf"
			},
			{
				"type": "occ",
				"energy": -0.27143,
				"method": "rhf"
			},
			{
				"type": "occ",
				"energy": -0.26745,
				"method": "rhf"
			},
			{
				"type": "occ",
				"energy": -0.24677,
				"method": "rhf"
			},
			{
				"type": "unocc",
				"energy": -0.09261,
				"method": "rhf"
			},
			{
				"type": "unocc",
				"energy": -0.0577,
				"method": "rhf"
			},
			{
				"type": "unocc",
				"energy": -0.0186,
				"method": "rhf"
			},
			{
				"type": "unocc",
				"energy": -0.01412,
				"method": "rhf"
			},
			{
				"type": "unocc",
				"energy": -0.00727,
				"method": "rhf"
			}
		],
		"cosmo_sigma_profile": { 
			"-0.025": 0.0,
			"-0.024": 0.0,
			"-0.023": 0.0,
			"-0.022": 0.0,
			"-0.021": 0.0,
			"-0.02": 0.0,
			"-0.019": 0.0,
			"-0.018": 0.0,
			"-0.017": 0.0,
			"-0.016": 0.0,
			"-0.015": 0.0,
			"-0.014": 0.0,
			"-0.013": 0.0204406756168,
			"-0.012": 0.848645405544,
			"-0.011": 1.36993178656,
			"-0.01": 2.4917563352,
			"-0.009": 2.47791198681,
			"-0.008": 3.21232971683,
			"-0.007": 4.21776986164,
			"-0.006": 11.0823690099,
			"-0.005": 14.9229739265,
			"-0.004": 21.2399371896,
			"-0.003": 21.7446617819,
			"-0.002": 22.4804264038,
			"-0.001": 17.5602824651,
			"0.0": 19.9066390894,
			"0.001": 27.3055234571,
			"0.002": 43.8619688327,
			"0.003": 22.2356075325,
			"0.004": 19.560934683,
			"0.005": 7.69038538987,
			"0.006": 5.89280837158,
			"0.007": 3.74292553615,
			"0.008": 3.05806326579,
			"0.009": 2.9400169139,
			"0.01": 2.60761995012,
			"0.011": 2.34826260588,
			"0.012": 1.41624176619,
			"0.013": 0.0224388957688,
			"0.014": 0.0,
			"0.015": 0.0,
			"0.016": 0.0,
			"0.017": 0.0,
			"0.018": 0.0,
			"0.019": 0.0,
			"0.02": 0.0,
			"0.021": 0.0,
			"0.022": 0.0,
			"0.023": 0.0,
			"0.024": 0.0,
			"0.025": 0.0
		}
	}
}
