{
	 "smiles": "CC(=O)NC1=CN=C(C=C1)C(O)=O", 
	 "Tm": 478.15, 
	 "num_atms": 21, 
	 "gaussian": { 
		 "optdone": 1, 
		 "sigma_profile": "yes", 
		 "theory": "DFT", 
		 "functional": "B3LYP", 
		 "basiset": "6-31G**", 
		 "properties": { 
			 "R2extent": 3903.3066, 
			 "electric_dipole_moment_norm": 7.90247915024, 
			 "electric_quadrupole_moment_norm": 26.7406400269, 
			 "total_energy": -644.881276284, 
			 "HOMO_LUMO_gap": 0.18828, 
			 "cosmo_polarized_energy": -20.63, 
			 "cosmo_cavitation_energy": 26.24, 
			 "cosmo_dispersion_energy": -19.59, 
			 "cosmo_repulsion_energy": 1.55, 
			 "cosmo_total_nonelectrostatic_energy": 8.2, 
			 "SMD_solvation_energy": 5.9 
		},
		"coords": [
			{
				"x": 0.4372984946,
				"y": -2.1948033147,
				"z": 2.4532467531,
				"element": "C" 
			},
			{
				"x": 0.1181776652,
				"y": -0.9379679059,
				"z": 1.6602198083,
				"element": "C" 
			},
			{
				"x": -0.1320586077,
				"y": 0.12825904,
				"z": 2.1966212332,
				"element": "O" 
			},
			{
				"x": 0.1685537079,
				"y": -1.1076954045,
				"z": 0.284517911,
				"element": "N" 
			},
			{
				"x": -0.0232521299,
				"y": -0.1501237187,
				"z": -0.7210632991,
				"element": "C" 
			},
			{
				"x": -0.3259451923,
				"y": 1.2043789735,
				"z": -0.4658065132,
				"element": "C" 
			},
			{
				"x": -0.5006598177,
				"y": 2.0819508183,
				"z": -1.454931574,
				"element": "N" 
			},
			{
				"x": -0.3888745113,
				"y": 1.6781219429,
				"z": -2.7277977608,
				"element": "C" 
			},
			{
				"x": -0.0932711533,
				"y": 0.3608683433,
				"z": -3.0787612992,
				"element": "C" 
			},
			{
				"x": 0.0909098887,
				"y": -0.5610499885,
				"z": -2.0592983448,
				"element": "C" 
			},
			{
				"x": -0.6012295049,
				"y": 2.732699154,
				"z": -3.7794235365,
				"element": "C" 
			},
			{
				"x": -0.8775488455,
				"y": 3.9462702896,
				"z": -3.2769090646,
				"element": "O" 
			},
			{
				"x": -0.5291498991,
				"y": 2.5063204217,
				"z": -4.9672616287,
				"element": "O" 
			},
			{
				"x": -0.1395975282,
				"y": -2.1729582602,
				"z": 3.3786455439,
				"element": "H" 
			},
			{
				"x": 1.4996484503,
				"y": -2.1916421572,
				"z": 2.720460238,
				"element": "H" 
			},
			{
				"x": 0.2205213649,
				"y": -3.1201069568,
				"z": 1.9116512358,
				"element": "H" 
			},
			{
				"x": 0.3826364948,
				"y": -2.0386864541,
				"z": -0.0444459083,
				"element": "H" 
			},
			{
				"x": -0.4227728425,
				"y": 1.5586649271,
				"z": 0.5513780911,
				"element": "H" 
			},
			{
				"x": -0.0153469406,
				"y": 0.0921225432,
				"z": -4.1257479759,
				"element": "H" 
			},
			{
				"x": 0.3229432582,
				"y": -1.5980790149,
				"z": -2.2914850513,
				"element": "H" 
			},
			{
				"x": -0.8735823518,
				"y": 3.8438567218,
				"z": -2.301708858,
				"element": "H" 
			}
		],
		 "valence_orbital": [ 
			{
				"type": "occ",
				"energy": -0.30007,
				"method": "rhf"
			},
			{
				"type": "occ",
				"energy": -0.29785,
				"method": "rhf"
			},
			{
				"type": "occ",
				"energy": -0.27591,
				"method": "rhf"
			},
			{
				"type": "occ",
				"energy": -0.26233,
				"method": "rhf"
			},
			{
				"type": "occ",
				"energy": -0.25248,
				"method": "rhf"
			},
			{
				"type": "unocc",
				"energy": -0.0642,
				"method": "rhf"
			},
			{
				"type": "unocc",
				"energy": -0.0429,
				"method": "rhf"
			},
			{
				"type": "unocc",
				"energy": 0.00244,
				"method": "rhf"
			},
			{
				"type": "unocc",
				"energy": 0.04307,
				"method": "rhf"
			},
			{
				"type": "unocc",
				"energy": 0.06316,
				"method": "rhf"
			}
		],
		"cosmo_sigma_profile": { 
			"-0.025": 0.0,
			"-0.024": 0.0,
			"-0.023": 0.0,
			"-0.022": 0.0,
			"-0.021": 0.0,
			"-0.02": 0.0,
			"-0.019": 0.0,
			"-0.018": 0.0,
			"-0.017": 0.0912016060135,
			"-0.016": 1.44136354945,
			"-0.015": 1.57911765392,
			"-0.014": 1.63757162244,
			"-0.013": 1.67613575068,
			"-0.012": 2.15177573789,
			"-0.011": 2.38859062981,
			"-0.01": 2.49868647956,
			"-0.009": 2.48714776271,
			"-0.008": 4.24429837433,
			"-0.007": 6.35797234214,
			"-0.006": 9.30635062888,
			"-0.005": 11.0337212022,
			"-0.004": 13.2650533268,
			"-0.003": 13.3925954512,
			"-0.002": 15.7104673876,
			"-0.001": 20.4277934728,
			"0.0": 20.662465285,
			"0.001": 12.0054352151,
			"0.002": 6.5148504667,
			"0.003": 6.52119890402,
			"0.004": 4.95676941653,
			"0.005": 5.56708926554,
			"0.006": 4.91225559323,
			"0.007": 4.00285921807,
			"0.008": 4.4007900536,
			"0.009": 4.97604615142,
			"0.01": 6.91284820892,
			"0.011": 7.19634330701,
			"0.012": 7.66741588543,
			"0.013": 3.55322916839,
			"0.014": 0.596258231659,
			"0.015": 0.0,
			"0.016": 0.0,
			"0.017": 0.0,
			"0.018": 0.0,
			"0.019": 0.0,
			"0.02": 0.0,
			"0.021": 0.0,
			"0.022": 0.0,
			"0.023": 0.0,
			"0.024": 0.0,
			"0.025": 0.0
		}
	}
}
