{
	 "smiles": "CC1=NN(CN(CCO)CN2N=C(C)C=C2C)C(C)=C1", 
	 "Tm": 356.15, 
	 "num_atms": 43, 
	 "gaussian": { 
		 "optdone": 1, 
		 "sigma_profile": "yes", 
		 "theory": "DFT", 
		 "functional": "B3LYP", 
		 "basiset": "6-31G**", 
		 "properties": { 
			 "R2extent": 7094.899, 
			 "electric_dipole_moment_norm": 1.75563119134, 
			 "electric_quadrupole_moment_norm": 10.4616011428, 
			 "total_energy": -896.301620311, 
			 "HOMO_LUMO_gap": 0.24445, 
			 "cosmo_polarized_energy": -14.32, 
			 "cosmo_cavitation_energy": 44.75, 
			 "cosmo_dispersion_energy": -29.12, 
			 "cosmo_repulsion_energy": 2.29, 
			 "cosmo_total_nonelectrostatic_energy": 17.92, 
			 "SMD_solvation_energy": 5.72 
		},
		"coords": [
			{
				"x": -3.593986208,
				"y": 3.1957139706,
				"z": -0.7887688798,
				"element": "C" 
			},
			{
				"x": -2.2342395249,
				"y": 2.6193976704,
				"z": -0.5318904365,
				"element": "C" 
			},
			{
				"x": -1.9594715992,
				"y": 2.0299507848,
				"z": 0.6312433199,
				"element": "N" 
			},
			{
				"x": -0.656772325,
				"y": 1.6419174209,
				"z": 0.534517694,
				"element": "N" 
			},
			{
				"x": -0.0587378301,
				"y": 0.8967495757,
				"z": 1.6230796953,
				"element": "C" 
			},
			{
				"x": -0.0807069932,
				"y": -0.5468107737,
				"z": 1.3899467037,
				"element": "N" 
			},
			{
				"x": -1.4168072659,
				"y": -1.1444348573,
				"z": 1.2919471696,
				"element": "C" 
			},
			{
				"x": -2.3286556574,
				"y": -1.0238432201,
				"z": 2.5127569919,
				"element": "C" 
			},
			{
				"x": -1.7069993979,
				"y": -1.6900700431,
				"z": 3.6091661191,
				"element": "O" 
			},
			{
				"x": 0.8649808998,
				"y": -1.2542606546,
				"z": 2.2498703949,
				"element": "C" 
			},
			{
				"x": 2.2356993374,
				"y": -1.0955153807,
				"z": 1.7879531652,
				"element": "N" 
			},
			{
				"x": 3.0321102764,
				"y": -0.1563228522,
				"z": 2.3692895141,
				"element": "N" 
			},
			{
				"x": 4.1740342238,
				"y": -0.1913934459,
				"z": 1.6822920196,
				"element": "C" 
			},
			{
				"x": 5.3131379442,
				"y": 0.7087724885,
				"z": 2.055649388,
				"element": "C" 
			},
			{
				"x": 4.1090235962,
				"y": -1.1548915466,
				"z": 0.644278315,
				"element": "C" 
			},
			{
				"x": 2.847403099,
				"y": -1.714962263,
				"z": 0.7341735981,
				"element": "C" 
			},
			{
				"x": 2.1826625168,
				"y": -2.7786881848,
				"z": -0.0806093935,
				"element": "C" 
			},
			{
				"x": -0.1052957572,
				"y": 1.9629958388,
				"z": -0.6746967054,
				"element": "C" 
			},
			{
				"x": 1.3104364884,
				"y": 1.6421133737,
				"z": -1.0332965043,
				"element": "C" 
			},
			{
				"x": -1.1032671039,
				"y": 2.6027381409,
				"z": -1.386763246,
				"element": "C" 
			},
			{
				"x": -3.5445757597,
				"y": 4.2752302297,
				"z": -0.9718107764,
				"element": "H" 
			},
			{
				"x": -4.2394580254,
				"y": 3.0245269869,
				"z": 0.0758929986,
				"element": "H" 
			},
			{
				"x": -4.0646276304,
				"y": 2.7392609757,
				"z": -1.6670739746,
				"element": "H" 
			},
			{
				"x": 0.9856488145,
				"y": 1.1952651411,
				"z": 1.7391024428,
				"element": "H" 
			},
			{
				"x": -0.6008232606,
				"y": 1.2012359285,
				"z": 2.5288693698,
				"element": "H" 
			},
			{
				"x": -1.9342272088,
				"y": -0.6811498934,
				"z": 0.4458807364,
				"element": "H" 
			},
			{
				"x": -1.284043274,
				"y": -2.206127051,
				"z": 1.05337883,
				"element": "H" 
			},
			{
				"x": -3.2986089989,
				"y": -1.482867419,
				"z": 2.2605747419,
				"element": "H" 
			},
			{
				"x": -2.5192149915,
				"y": 0.0350170276,
				"z": 2.7342007088,
				"element": "H" 
			},
			{
				"x": -2.2206908391,
				"y": -1.5101345109,
				"z": 4.4056687448,
				"element": "H" 
			},
			{
				"x": 0.8578547257,
				"y": -0.917565622,
				"z": 3.2924234594,
				"element": "H" 
			},
			{
				"x": 0.6032830809,
				"y": -2.3137361775,
				"z": 2.2433917552,
				"element": "H" 
			},
			{
				"x": 5.6181795267,
				"y": 1.3416621478,
				"z": 1.2145449976,
				"element": "H" 
			},
			{
				"x": 5.0183769806,
				"y": 1.3556418526,
				"z": 2.8851626165,
				"element": "H" 
			},
			{
				"x": 6.1939317804,
				"y": 0.134438764,
				"z": 2.365102761,
				"element": "H" 
			},
			{
				"x": 4.8799985413,
				"y": -1.4160929618,
				"z": -0.0670519653,
				"element": "H" 
			},
			{
				"x": 2.8462219575,
				"y": -3.0997626995,
				"z": -0.8865683884,
				"element": "H" 
			},
			{
				"x": 1.9388023586,
				"y": -3.6627857025,
				"z": 0.5212849537,
				"element": "H" 
			},
			{
				"x": 1.2500504004,
				"y": -2.4155547211,
				"z": -0.5256118916,
				"element": "H" 
			},
			{
				"x": 2.0240915005,
				"y": 2.1536835191,
				"z": -0.3766237079,
				"element": "H" 
			},
			{
				"x": 1.5127564144,
				"y": 0.5693391288,
				"z": -0.9532289348,
				"element": "H" 
			},
			{
				"x": 1.5140649131,
				"y": 1.9578603223,
				"z": -2.0589037972,
				"element": "H" 
			},
			{
				"x": -1.0207397252,
				"y": 3.0107586924,
				"z": -2.3843446031,
				"element": "H" 
			}
		],
		 "valence_orbital": [ 
			{
				"type": "occ",
				"energy": -0.2353,
				"method": "rhf"
			},
			{
				"type": "occ",
				"energy": -0.2298,
				"method": "rhf"
			},
			{
				"type": "occ",
				"energy": -0.22702,
				"method": "rhf"
			},
			{
				"type": "occ",
				"energy": -0.22587,
				"method": "rhf"
			},
			{
				"type": "occ",
				"energy": -0.2179,
				"method": "rhf"
			},
			{
				"type": "unocc",
				"energy": 0.02655,
				"method": "rhf"
			},
			{
				"type": "unocc",
				"energy": 0.03023,
				"method": "rhf"
			},
			{
				"type": "unocc",
				"energy": 0.06978,
				"method": "rhf"
			},
			{
				"type": "unocc",
				"energy": 0.07545,
				"method": "rhf"
			},
			{
				"type": "unocc",
				"energy": 0.07808,
				"method": "rhf"
			}
		],
		"cosmo_sigma_profile": { 
			"-0.025": 0.0,
			"-0.024": 0.0,
			"-0.023": 0.0,
			"-0.022": 0.0,
			"-0.021": 0.0,
			"-0.02": 0.0,
			"-0.019": 0.0,
			"-0.018": 0.0,
			"-0.017": 0.0,
			"-0.016": 0.278767527656,
			"-0.015": 1.12101167746,
			"-0.014": 1.11407355486,
			"-0.013": 0.808226874815,
			"-0.012": 0.858163116921,
			"-0.011": 0.880479679277,
			"-0.01": 1.21900614473,
			"-0.009": 0.593834312026,
			"-0.008": 0.344192610812,
			"-0.007": 1.42691886205,
			"-0.006": 6.73745880259,
			"-0.005": 17.7285300742,
			"-0.004": 31.3429179667,
			"-0.003": 39.0744472264,
			"-0.002": 40.4064349067,
			"-0.001": 41.3837923205,
			"0.0": 37.242141239,
			"0.001": 23.0148117316,
			"0.002": 18.6759699917,
			"0.003": 16.1238120374,
			"0.004": 14.4692772727,
			"0.005": 16.0078034978,
			"0.006": 11.4521632355,
			"0.007": 6.530528197,
			"0.008": 4.05925100465,
			"0.009": 3.21998977445,
			"0.01": 3.37739644325,
			"0.011": 3.91810040553,
			"0.012": 1.70017570194,
			"0.013": 2.02752722722,
			"0.014": 1.87160711814,
			"0.015": 0.904933547237,
			"0.016": 0.441561174952,
			"0.017": 0.0684668951955,
			"0.018": 0.0,
			"0.019": 0.0,
			"0.02": 0.0,
			"0.021": 0.0,
			"0.022": 0.0,
			"0.023": 0.0,
			"0.024": 0.0,
			"0.025": 0.0
		}
	}
}
