{
	 "smiles": "OCCS", 
	 "Tm": 173.15, 
	 "num_atms": 10, 
	 "gaussian": { 
		 "optdone": 1, 
		 "sigma_profile": "yes", 
		 "theory": "DFT", 
		 "functional": "B3LYP", 
		 "basiset": "6-31G**", 
		 "properties": { 
			 "R2extent": 507.3048, 
			 "electric_dipole_moment_norm": 1.87137426775, 
			 "electric_quadrupole_moment_norm": 7.44001843613, 
			 "total_energy": -553.228796145, 
			 "HOMO_LUMO_gap": 0.27008, 
			 "cosmo_polarized_energy": -7.31, 
			 "cosmo_cavitation_energy": 14.42, 
			 "cosmo_dispersion_energy": -11.58, 
			 "cosmo_repulsion_energy": 1.01, 
			 "cosmo_total_nonelectrostatic_energy": 3.85, 
			 "SMD_solvation_energy": 2.18 
		},
		"coords": [
			{
				"x": 0.1546356123,
				"y": 1.878831184,
				"z": 1.2742670624,
				"element": "O" 
			},
			{
				"x": 0.5031130358,
				"y": 1.6434344285,
				"z": -0.0715887002,
				"element": "C" 
			},
			{
				"x": 0.0758712493,
				"y": 0.2588609185,
				"z": -0.5631978691,
				"element": "C" 
			},
			{
				"x": 0.8342323495,
				"y": -1.1137425269,
				"z": 0.4108446702,
				"element": "S" 
			},
			{
				"x": 0.5286432266,
				"y": 1.1487366111,
				"z": 1.790998961,
				"element": "H" 
			},
			{
				"x": 1.5847809957,
				"y": 1.77513297,
				"z": -0.2463811651,
				"element": "H" 
			},
			{
				"x": -0.0164003171,
				"y": 2.4045785975,
				"z": -0.6657909952,
				"element": "H" 
			},
			{
				"x": -1.0006228154,
				"y": 0.1296197838,
				"z": -0.421608234,
				"element": "H" 
			},
			{
				"x": 0.3018764147,
				"y": 0.1219188407,
				"z": -1.6243193597,
				"element": "H" 
			},
			{
				"x": 2.1033702487,
				"y": -0.9220708072,
				"z": -0.0062243703,
				"element": "H" 
			}
		],
		 "valence_orbital": [ 
			{
				"type": "occ",
				"energy": -0.3831,
				"method": "rhf"
			},
			{
				"type": "occ",
				"energy": -0.34666,
				"method": "rhf"
			},
			{
				"type": "occ",
				"energy": -0.32369,
				"method": "rhf"
			},
			{
				"type": "occ",
				"energy": -0.27355,
				"method": "rhf"
			},
			{
				"type": "occ",
				"energy": -0.25118,
				"method": "rhf"
			},
			{
				"type": "unocc",
				"energy": 0.0189,
				"method": "rhf"
			},
			{
				"type": "unocc",
				"energy": 0.06127,
				"method": "rhf"
			},
			{
				"type": "unocc",
				"energy": 0.0931,
				"method": "rhf"
			},
			{
				"type": "unocc",
				"energy": 0.11727,
				"method": "rhf"
			},
			{
				"type": "unocc",
				"energy": 0.13393,
				"method": "rhf"
			}
		],
		"cosmo_sigma_profile": { 
			"-0.025": 0.0,
			"-0.024": 0.0,
			"-0.023": 0.0,
			"-0.022": 0.0,
			"-0.021": 0.0,
			"-0.02": 0.0,
			"-0.019": 0.0,
			"-0.018": 0.0,
			"-0.017": 0.0,
			"-0.016": 0.0,
			"-0.015": 0.0,
			"-0.014": 0.0,
			"-0.013": 0.0,
			"-0.012": 0.0646275922711,
			"-0.011": 0.524967418286,
			"-0.01": 0.768685715653,
			"-0.009": 2.25819260026,
			"-0.008": 3.19566844378,
			"-0.007": 3.13893519278,
			"-0.006": 7.22350596461,
			"-0.005": 11.0254831566,
			"-0.004": 13.1674406709,
			"-0.003": 10.1411058301,
			"-0.002": 8.42913077517,
			"-0.001": 6.10542583294,
			"0.0": 3.94272875653,
			"0.001": 5.05966619967,
			"0.002": 3.08236648871,
			"0.003": 4.53710952422,
			"0.004": 3.93865068124,
			"0.005": 4.85477368214,
			"0.006": 4.10834375528,
			"0.007": 3.57447963322,
			"0.008": 3.41096186556,
			"0.009": 2.60250141417,
			"0.01": 2.34152741191,
			"0.011": 0.760577235664,
			"0.012": 1.44367287911,
			"0.013": 2.16854978671,
			"0.014": 2.17402809748,
			"0.015": 0.765844735058,
			"0.016": 0.0,
			"0.017": 0.0,
			"0.018": 0.0,
			"0.019": 0.0,
			"0.02": 0.0,
			"0.021": 0.0,
			"0.022": 0.0,
			"0.023": 0.0,
			"0.024": 0.0,
			"0.025": 0.0
		}
	}
}
