{
	 "smiles": "COC(=O)CCCCCCCCCCC(=O)OC", 
	 "Tm": 304.05, 
	 "num_atms": 44, 
	 "gaussian": { 
		 "optdone": 1, 
		 "sigma_profile": "yes", 
		 "theory": "DFT", 
		 "functional": "B3LYP", 
		 "basiset": "6-31G**", 
		 "properties": { 
			 "R2extent": 9355.8902, 
			 "electric_dipole_moment_norm": 3.24417093569, 
			 "electric_quadrupole_moment_norm": 13.4977131345, 
			 "total_energy": -850.098537182, 
			 "HOMO_LUMO_gap": 0.27731, 
			 "cosmo_polarized_energy": -12.39, 
			 "cosmo_cavitation_energy": 46.03, 
			 "cosmo_dispersion_energy": -30.26, 
			 "cosmo_repulsion_energy": 2.47, 
			 "cosmo_total_nonelectrostatic_energy": 18.24, 
			 "SMD_solvation_energy": 9.44 
		},
		"coords": [
			{
				"x": 0.6260903411,
				"y": 6.4518436401,
				"z": 0.9745060964,
				"element": "C" 
			},
			{
				"x": -0.4707053769,
				"y": 5.5508526972,
				"z": 0.7561651068,
				"element": "O" 
			},
			{
				"x": -0.4988438338,
				"y": 4.95796149,
				"z": -0.4624758764,
				"element": "C" 
			},
			{
				"x": 0.3333508116,
				"y": 5.1654235646,
				"z": -1.3188003046,
				"element": "O" 
			},
			{
				"x": -1.6968071734,
				"y": 4.0381221335,
				"z": -0.5990370367,
				"element": "C" 
			},
			{
				"x": -1.7988434957,
				"y": 2.970017536,
				"z": 0.5053293623,
				"element": "C" 
			},
			{
				"x": -0.6189132655,
				"y": 1.9896439172,
				"z": 0.5277010965,
				"element": "C" 
			},
			{
				"x": -0.7579990902,
				"y": 0.9168161523,
				"z": 1.6169407406,
				"element": "C" 
			},
			{
				"x": 0.4364419836,
				"y": -0.0452679489,
				"z": 1.7286877554,
				"element": "C" 
			},
			{
				"x": 0.6358400939,
				"y": -0.9701347939,
				"z": 0.5194800222,
				"element": "C" 
			},
			{
				"x": 1.8213618774,
				"y": -1.933978508,
				"z": 0.6942500079,
				"element": "C" 
			},
			{
				"x": 2.0514612271,
				"y": -2.907463258,
				"z": -0.4847323111,
				"element": "C" 
			},
			{
				"x": 1.4277647193,
				"y": -4.3062072678,
				"z": -0.3277400685,
				"element": "C" 
			},
			{
				"x": -0.099222947,
				"y": -4.3461868602,
				"z": -0.1804846357,
				"element": "C" 
			},
			{
				"x": -0.8261117176,
				"y": -3.8644412867,
				"z": -1.4209253354,
				"element": "C" 
			},
			{
				"x": -0.4140181167,
				"y": -3.9540229405,
				"z": -2.5578988407,
				"element": "O" 
			},
			{
				"x": -2.0321834207,
				"y": -3.33266202,
				"z": -1.1093971571,
				"element": "O" 
			},
			{
				"x": -2.818454236,
				"y": -2.8978449901,
				"z": -2.2312132204,
				"element": "C" 
			},
			{
				"x": 0.5031440166,
				"y": 6.8268683176,
				"z": 1.990688702,
				"element": "H" 
			},
			{
				"x": 0.5978399637,
				"y": 7.2753446165,
				"z": 0.2562649624,
				"element": "H" 
			},
			{
				"x": 1.5812128426,
				"y": 5.9306731777,
				"z": 0.8708704503,
				"element": "H" 
			},
			{
				"x": -2.5972894876,
				"y": 4.6647552441,
				"z": -0.5825115976,
				"element": "H" 
			},
			{
				"x": -1.6291650465,
				"y": 3.5782292043,
				"z": -1.5885200362,
				"element": "H" 
			},
			{
				"x": -1.8843300891,
				"y": 3.4691331347,
				"z": 1.4772389157,
				"element": "H" 
			},
			{
				"x": -2.732449632,
				"y": 2.4124723583,
				"z": 0.3565113413,
				"element": "H" 
			},
			{
				"x": 0.3161849866,
				"y": 2.5446300402,
				"z": 0.6883808434,
				"element": "H" 
			},
			{
				"x": -0.5262335868,
				"y": 1.5176393515,
				"z": -0.4588982197,
				"element": "H" 
			},
			{
				"x": -0.8993032876,
				"y": 1.4168178932,
				"z": 2.5848203327,
				"element": "H" 
			},
			{
				"x": -1.6751395359,
				"y": 0.3365889671,
				"z": 1.4398931622,
				"element": "H" 
			},
			{
				"x": 1.3548204101,
				"y": 0.5358664026,
				"z": 1.8964438606,
				"element": "H" 
			},
			{
				"x": 0.304427509,
				"y": -0.6645142002,
				"z": 2.6265392992,
				"element": "H" 
			},
			{
				"x": -0.2927063852,
				"y": -1.5277617586,
				"z": 0.33938046,
				"element": "H" 
			},
			{
				"x": 0.8074200096,
				"y": -0.372557406,
				"z": -0.3853939311,
				"element": "H" 
			},
			{
				"x": 2.7254990701,
				"y": -1.3288612994,
				"z": 0.8407975978,
				"element": "H" 
			},
			{
				"x": 1.696991785,
				"y": -2.5052162806,
				"z": 1.6259571237,
				"element": "H" 
			},
			{
				"x": 1.6908925831,
				"y": -2.4541127534,
				"z": -1.4165873738,
				"element": "H" 
			},
			{
				"x": 3.1293950696,
				"y": -3.0527781044,
				"z": -0.6242354243,
				"element": "H" 
			},
			{
				"x": 1.8650071077,
				"y": -4.7969509023,
				"z": 0.5511050411,
				"element": "H" 
			},
			{
				"x": 1.7017798787,
				"y": -4.9113818768,
				"z": -1.1984511427,
				"element": "H" 
			},
			{
				"x": -0.4235733107,
				"y": -5.3828499369,
				"z": -0.0146801822,
				"element": "H" 
			},
			{
				"x": -0.4494046824,
				"y": -3.7791843111,
				"z": 0.6860794707,
				"element": "H" 
			},
			{
				"x": -3.0342595601,
				"y": -3.7357051929,
				"z": -2.8991407671,
				"element": "H" 
			},
			{
				"x": -2.2894782969,
				"y": -2.1266887836,
				"z": -2.7966525359,
				"element": "H" 
			},
			{
				"x": -3.740590712,
				"y": -2.4988271583,
				"z": -1.808555754,
				"element": "H" 
			}
		],
		 "valence_orbital": [ 
			{
				"type": "occ",
				"energy": -0.30046,
				"method": "rhf"
			},
			{
				"type": "occ",
				"energy": -0.29998,
				"method": "rhf"
			},
			{
				"type": "occ",
				"energy": -0.29818,
				"method": "rhf"
			},
			{
				"type": "occ",
				"energy": -0.26862,
				"method": "rhf"
			},
			{
				"type": "occ",
				"energy": -0.26422,
				"method": "rhf"
			},
			{
				"type": "unocc",
				"energy": 0.01309,
				"method": "rhf"
			},
			{
				"type": "unocc",
				"energy": 0.01424,
				"method": "rhf"
			},
			{
				"type": "unocc",
				"energy": 0.08136,
				"method": "rhf"
			},
			{
				"type": "unocc",
				"energy": 0.09104,
				"method": "rhf"
			},
			{
				"type": "unocc",
				"energy": 0.10395,
				"method": "rhf"
			}
		],
		"cosmo_sigma_profile": { 
			"-0.025": 0.0,
			"-0.024": 0.0,
			"-0.023": 0.0,
			"-0.022": 0.0,
			"-0.021": 0.0,
			"-0.02": 0.0,
			"-0.019": 0.0,
			"-0.018": 0.0,
			"-0.017": 0.0,
			"-0.016": 0.0,
			"-0.015": 0.0,
			"-0.014": 0.0,
			"-0.013": 0.0,
			"-0.012": 0.0,
			"-0.011": 0.0,
			"-0.01": 0.0,
			"-0.009": 0.0,
			"-0.008": 0.0,
			"-0.007": 0.746829485693,
			"-0.006": 10.2936584454,
			"-0.005": 19.2667326831,
			"-0.004": 22.2924337132,
			"-0.003": 36.7192770702,
			"-0.002": 55.1664592296,
			"-0.001": 59.6470894648,
			"0.0": 45.2421873066,
			"0.001": 32.1907451141,
			"0.002": 13.2727752627,
			"0.003": 7.21338236324,
			"0.004": 5.82187456044,
			"0.005": 6.5176428097,
			"0.006": 5.59861841372,
			"0.007": 5.27118316592,
			"0.008": 4.98955013048,
			"0.009": 4.371971656,
			"0.01": 3.17660864619,
			"0.011": 5.22795755066,
			"0.012": 9.23035771342,
			"0.013": 3.53825235061,
			"0.014": 0.176638927194,
			"0.015": 0.0,
			"0.016": 0.0,
			"0.017": 0.0,
			"0.018": 0.0,
			"0.019": 0.0,
			"0.02": 0.0,
			"0.021": 0.0,
			"0.022": 0.0,
			"0.023": 0.0,
			"0.024": 0.0,
			"0.025": 0.0
		}
	}
}
