{
	 "smiles": "OC(=O)CCC1=NC=CC=C1", 
	 "Tm": 408.15, 
	 "num_atms": 20, 
	 "gaussian": { 
		 "optdone": 1, 
		 "sigma_profile": "yes", 
		 "theory": "DFT", 
		 "functional": "B3LYP", 
		 "basiset": "6-31G**", 
		 "properties": { 
			 "R2extent": 2340.3606, 
			 "electric_dipole_moment_norm": 7.98695941394, 
			 "electric_quadrupole_moment_norm": 24.4494269953, 
			 "total_energy": -515.495176398, 
			 "HOMO_LUMO_gap": 0.18463, 
			 "cosmo_polarized_energy": -15.0, 
			 "cosmo_cavitation_energy": 23.67, 
			 "cosmo_dispersion_energy": -17.55, 
			 "cosmo_repulsion_energy": 1.41, 
			 "cosmo_total_nonelectrostatic_energy": 7.53, 
			 "SMD_solvation_energy": 4.85 
		},
		"coords": [
			{
				"x": -2.8045198056,
				"y": -1.3342095263,
				"z": 1.4148906109,
				"element": "O" 
			},
			{
				"x": -3.3157821819,
				"y": -0.1445869169,
				"z": 1.0746732627,
				"element": "C" 
			},
			{
				"x": -4.5073729744,
				"y": 0.0718080294,
				"z": 1.1138273538,
				"element": "O" 
			},
			{
				"x": -2.3171626448,
				"y": 0.9400973764,
				"z": 0.6469035193,
				"element": "C" 
			},
			{
				"x": -1.2966675805,
				"y": 0.53999261,
				"z": -0.4491596424,
				"element": "C" 
			},
			{
				"x": -0.0175541524,
				"y": -0.0968236822,
				"z": 0.0518883017,
				"element": "C" 
			},
			{
				"x": -0.1360125717,
				"y": -1.0562198899,
				"z": 0.9871643178,
				"element": "N" 
			},
			{
				"x": 0.9632062457,
				"y": -1.6629441898,
				"z": 1.4530081283,
				"element": "C" 
			},
			{
				"x": 2.2454098937,
				"y": -1.3489784146,
				"z": 1.0105031823,
				"element": "C" 
			},
			{
				"x": 2.3798449942,
				"y": -0.3538788903,
				"z": 0.0422047361,
				"element": "C" 
			},
			{
				"x": 1.2375793799,
				"y": 0.2807070055,
				"z": -0.440837976,
				"element": "C" 
			},
			{
				"x": -1.8094125206,
				"y": -1.3230724404,
				"z": 1.3504175003,
				"element": "H" 
			},
			{
				"x": -1.7809149234,
				"y": 1.2899291912,
				"z": 1.5383515422,
				"element": "H" 
			},
			{
				"x": -2.9258263513,
				"y": 1.7723470213,
				"z": 0.2896585323,
				"element": "H" 
			},
			{
				"x": -1.0314740857,
				"y": 1.4323573649,
				"z": -1.0242418395,
				"element": "H" 
			},
			{
				"x": -1.7763319825,
				"y": -0.1452624136,
				"z": -1.1611091144,
				"element": "H" 
			},
			{
				"x": 0.8029259123,
				"y": -2.428117268,
				"z": 2.208721408,
				"element": "H" 
			},
			{
				"x": 3.1078261472,
				"y": -1.8671311291,
				"z": 1.4157980287,
				"element": "H" 
			},
			{
				"x": 3.3611459372,
				"y": -0.0730724386,
				"z": -0.3290952412,
				"element": "H" 
			},
			{
				"x": 1.3110932646,
				"y": 1.0619586011,
				"z": -1.1906666108,
				"element": "H" 
			}
		],
		 "valence_orbital": [ 
			{
				"type": "occ",
				"energy": -0.31371,
				"method": "rhf"
			},
			{
				"type": "occ",
				"energy": -0.28913,
				"method": "rhf"
			},
			{
				"type": "occ",
				"energy": -0.28063,
				"method": "rhf"
			},
			{
				"type": "occ",
				"energy": -0.27927,
				"method": "rhf"
			},
			{
				"type": "occ",
				"energy": -0.23808,
				"method": "rhf"
			},
			{
				"type": "unocc",
				"energy": -0.05345,
				"method": "rhf"
			},
			{
				"type": "unocc",
				"energy": -0.03459,
				"method": "rhf"
			},
			{
				"type": "unocc",
				"energy": 0.03656,
				"method": "rhf"
			},
			{
				"type": "unocc",
				"energy": 0.07038,
				"method": "rhf"
			},
			{
				"type": "unocc",
				"energy": 0.10052,
				"method": "rhf"
			}
		],
		"cosmo_sigma_profile": { 
			"-0.025": 0.0,
			"-0.024": 0.0,
			"-0.023": 0.0,
			"-0.022": 0.0,
			"-0.021": 0.0,
			"-0.02": 0.0,
			"-0.019": 0.0,
			"-0.018": 0.0,
			"-0.017": 0.0,
			"-0.016": 0.0,
			"-0.015": 0.0,
			"-0.014": 0.0,
			"-0.013": 0.0,
			"-0.012": 0.0,
			"-0.011": 0.0,
			"-0.01": 0.0,
			"-0.009": 0.0,
			"-0.008": 1.11334865398,
			"-0.007": 10.2868818379,
			"-0.006": 16.7056635308,
			"-0.005": 19.3011946165,
			"-0.004": 16.3364759875,
			"-0.003": 16.9526644175,
			"-0.002": 14.4946577902,
			"-0.001": 10.3633427854,
			"0.0": 11.7074569117,
			"0.001": 14.5501025469,
			"0.002": 14.9809993757,
			"0.003": 5.64733208729,
			"0.004": 2.08227753459,
			"0.005": 1.73101138227,
			"0.006": 2.08133679764,
			"0.007": 2.82348807072,
			"0.008": 1.23486316702,
			"0.009": 3.11852956334,
			"0.01": 2.45144891493,
			"0.011": 3.77731432318,
			"0.012": 5.89763095581,
			"0.013": 7.11381336363,
			"0.014": 3.24283778117,
			"0.015": 0.515855293153,
			"0.016": 0.0,
			"0.017": 0.0,
			"0.018": 0.0,
			"0.019": 0.0,
			"0.02": 0.0,
			"0.021": 0.0,
			"0.022": 0.0,
			"0.023": 0.0,
			"0.024": 0.0,
			"0.025": 0.0
		}
	}
}
