{
	 "smiles": "CCCCCCCCCCCCCCCC[N+](C)(C)C", 
	 "Tm": 513.15, 
	 "num_atms": 62, 
	 "gaussian": { 
		 "optdone": 1, 
		 "sigma_profile": "yes", 
		 "theory": "DFT", 
		 "functional": "B3LYP", 
		 "basiset": "6-31G**", 
		 "properties": { 
			 "R2extent": 8861.5303, 
			 "electric_dipole_moment_norm": 13.1657218245, 
			 "electric_quadrupole_moment_norm": 30.2803856001, 
			 "total_energy": -803.896607021, 
			 "HOMO_LUMO_gap": 0.27021, 
			 "cosmo_polarized_energy": -55.32, 
			 "cosmo_cavitation_energy": 55.96, 
			 "cosmo_dispersion_energy": -34.38, 
			 "cosmo_repulsion_energy": 2.67, 
			 "cosmo_total_nonelectrostatic_energy": 24.25, 
			 "SMD_solvation_energy": 8.54 
		},
		"coords": [
			{
				"x": 0.488905696,
				"y": 4.8547835952,
				"z": -3.9711819428,
				"element": "C" 
			},
			{
				"x": 1.8069393018,
				"y": 4.0795117816,
				"z": -3.8658269622,
				"element": "C" 
			},
			{
				"x": 1.8885933068,
				"y": 3.0506359603,
				"z": -2.7230032416,
				"element": "C" 
			},
			{
				"x": 0.8883155595,
				"y": 1.8740798501,
				"z": -2.8184374887,
				"element": "C" 
			},
			{
				"x": -0.4475623913,
				"y": 2.0545400788,
				"z": -2.0722506155,
				"element": "C" 
			},
			{
				"x": -0.3241073766,
				"y": 1.9970498637,
				"z": -0.5403795089,
				"element": "C" 
			},
			{
				"x": -1.6586840338,
				"y": 2.1349180563,
				"z": 0.2295929384,
				"element": "C" 
			},
			{
				"x": -2.3750606597,
				"y": 0.8370768598,
				"z": 0.6532930969,
				"element": "C" 
			},
			{
				"x": -2.9100653452,
				"y": -0.0852856236,
				"z": -0.4651323054,
				"element": "C" 
			},
			{
				"x": -1.9507945153,
				"y": -1.1660818872,
				"z": -1.0022707257,
				"element": "C" 
			},
			{
				"x": -1.6346727578,
				"y": -2.2866145364,
				"z": 0.0027699129,
				"element": "C" 
			},
			{
				"x": -0.842431728,
				"y": -3.4648967941,
				"z": -0.5973096209,
				"element": "C" 
			},
			{
				"x": 0.6306457127,
				"y": -3.1914909097,
				"z": -0.9845284977,
				"element": "C" 
			},
			{
				"x": 1.6782266879,
				"y": -3.6045929574,
				"z": 0.0679238544,
				"element": "C" 
			},
			{
				"x": 1.6887450959,
				"y": -2.8265277338,
				"z": 1.4042942195,
				"element": "C" 
			},
			{
				"x": 2.1375894797,
				"y": -1.3836054546,
				"z": 1.1868252979,
				"element": "C" 
			},
			{
				"x": 2.3155059271,
				"y": -0.5256564045,
				"z": 2.4503586215,
				"element": "N" 
			},
			{
				"x": 1.0242708431,
				"y": -0.4259675553,
				"z": 3.2210361884,
				"element": "C" 
			},
			{
				"x": 2.7293574721,
				"y": 0.8589693356,
				"z": 2.0148275602,
				"element": "C" 
			},
			{
				"x": 3.3892644176,
				"y": -1.0922992919,
				"z": 3.3423684646,
				"element": "C" 
			},
			{
				"x": 0.2512102903,
				"y": 5.3698786553,
				"z": -3.0329062394,
				"element": "H" 
			},
			{
				"x": -0.3539244391,
				"y": 4.2011597317,
				"z": -4.2182711725,
				"element": "H" 
			},
			{
				"x": 0.5486447858,
				"y": 5.6142965265,
				"z": -4.7569168284,
				"element": "H" 
			},
			{
				"x": 2.6295246566,
				"y": 4.7947126772,
				"z": -3.7395413001,
				"element": "H" 
			},
			{
				"x": 2.000268781,
				"y": 3.5642248997,
				"z": -4.8163069862,
				"element": "H" 
			},
			{
				"x": 2.9089605862,
				"y": 2.6465320805,
				"z": -2.7165875504,
				"element": "H" 
			},
			{
				"x": 1.7694272686,
				"y": 3.5712723701,
				"z": -1.7620909436,
				"element": "H" 
			},
			{
				"x": 0.6809350183,
				"y": 1.6729994819,
				"z": -3.8770949395,
				"element": "H" 
			},
			{
				"x": 1.366805441,
				"y": 0.9588294093,
				"z": -2.4387606787,
				"element": "H" 
			},
			{
				"x": -1.1475024537,
				"y": 1.2812677165,
				"z": -2.4092933447,
				"element": "H" 
			},
			{
				"x": -0.9046254353,
				"y": 3.0126058062,
				"z": -2.3441523523,
				"element": "H" 
			},
			{
				"x": 0.1684373164,
				"y": 1.0504940543,
				"z": -0.2584075239,
				"element": "H" 
			},
			{
				"x": 0.3543639266,
				"y": 2.7984311436,
				"z": -0.2192986342,
				"element": "H" 
			},
			{
				"x": -1.4814302369,
				"y": 2.7161152748,
				"z": 1.143754557,
				"element": "H" 
			},
			{
				"x": -2.3509396767,
				"y": 2.7417931209,
				"z": -0.3683799935,
				"element": "H" 
			},
			{
				"x": -1.715588609,
				"y": 0.2605681776,
				"z": 1.3213270546,
				"element": "H" 
			},
			{
				"x": -3.222450169,
				"y": 1.1355077782,
				"z": 1.281933125,
				"element": "H" 
			},
			{
				"x": -3.2547959504,
				"y": 0.5366453571,
				"z": -1.3003635374,
				"element": "H" 
			},
			{
				"x": -3.8061969872,
				"y": -0.5978440529,
				"z": -0.0926414883,
				"element": "H" 
			},
			{
				"x": -1.0221253586,
				"y": -0.7077963905,
				"z": -1.363573797,
				"element": "H" 
			},
			{
				"x": -2.4165882236,
				"y": -1.6255307984,
				"z": -1.8838635121,
				"element": "H" 
			},
			{
				"x": -1.1053351554,
				"y": -1.8753097677,
				"z": 0.8747766198,
				"element": "H" 
			},
			{
				"x": -2.582525757,
				"y": -2.6774016279,
				"z": 0.39488919,
				"element": "H" 
			},
			{
				"x": -0.8740659873,
				"y": -4.3136159919,
				"z": 0.0989603151,
				"element": "H" 
			},
			{
				"x": -1.3812532618,
				"y": -3.8023771736,
				"z": -1.4905382384,
				"element": "H" 
			},
			{
				"x": 0.7617199529,
				"y": -2.1402939675,
				"z": -1.2734973606,
				"element": "H" 
			},
			{
				"x": 0.8683936962,
				"y": -3.7621982658,
				"z": -1.8888109782,
				"element": "H" 
			},
			{
				"x": 1.5242939424,
				"y": -4.6613226367,
				"z": 0.3139299868,
				"element": "H" 
			},
			{
				"x": 2.6804765678,
				"y": -3.5444562297,
				"z": -0.3767125763,
				"element": "H" 
			},
			{
				"x": 0.6927624279,
				"y": -2.8616457419,
				"z": 1.8560731892,
				"element": "H" 
			},
			{
				"x": 2.3757876774,
				"y": -3.3402406844,
				"z": 2.0852431676,
				"element": "H" 
			},
			{
				"x": 3.1089004903,
				"y": -1.3562022345,
				"z": 0.6845806983,
				"element": "H" 
			},
			{
				"x": 1.4213254558,
				"y": -0.8379438819,
				"z": 0.5691811724,
				"element": "H" 
			},
			{
				"x": 0.2484112264,
				"y": -0.0354764652,
				"z": 2.5618394136,
				"element": "H" 
			},
			{
				"x": 0.7438528569,
				"y": -1.4126436557,
				"z": 3.5852473613,
				"element": "H" 
			},
			{
				"x": 1.1731414376,
				"y": 0.2499945676,
				"z": 4.0638236064,
				"element": "H" 
			},
			{
				"x": 3.6694915015,
				"y": 0.7897778674,
				"z": 1.4668465446,
				"element": "H" 
			},
			{
				"x": 2.8597758016,
				"y": 1.4837391117,
				"z": 2.8991117652,
				"element": "H" 
			},
			{
				"x": 1.9536349244,
				"y": 1.2753675516,
				"z": 1.3716748976,
				"element": "H" 
			},
			{
				"x": 4.3125092189,
				"y": -1.1846531429,
				"z": 2.7693382662,
				"element": "H" 
			},
			{
				"x": 3.0792812483,
				"y": -2.0681818082,
				"z": 3.711064105,
				"element": "H" 
			},
			{
				"x": 3.5397305116,
				"y": -0.4129250753,
				"z": 4.1820456946,
				"element": "H" 
			}
		],
		 "valence_orbital": [ 
			{
				"type": "occ",
				"energy": -0.39801,
				"method": "rhf"
			},
			{
				"type": "occ",
				"energy": -0.39601,
				"method": "rhf"
			},
			{
				"type": "occ",
				"energy": -0.38717,
				"method": "rhf"
			},
			{
				"type": "occ",
				"energy": -0.38392,
				"method": "rhf"
			},
			{
				"type": "occ",
				"energy": -0.37994,
				"method": "rhf"
			},
			{
				"type": "unocc",
				"energy": -0.10973,
				"method": "rhf"
			},
			{
				"type": "unocc",
				"energy": -0.06954,
				"method": "rhf"
			},
			{
				"type": "unocc",
				"energy": -0.06061,
				"method": "rhf"
			},
			{
				"type": "unocc",
				"energy": -0.05448,
				"method": "rhf"
			},
			{
				"type": "unocc",
				"energy": -0.04679,
				"method": "rhf"
			}
		],
		"cosmo_sigma_profile": { 
			"-0.025": 0.0,
			"-0.024": 0.0,
			"-0.023": 0.0,
			"-0.022": 0.0,
			"-0.021": 0.0,
			"-0.02": 0.0,
			"-0.019": 0.0,
			"-0.018": 0.0,
			"-0.017": 0.0,
			"-0.016": 0.0,
			"-0.015": 0.0,
			"-0.014": 0.0204653866512,
			"-0.013": 0.566863816069,
			"-0.012": 1.7689046903,
			"-0.011": 2.65738925878,
			"-0.01": 5.97474584034,
			"-0.009": 10.2979679628,
			"-0.008": 17.7407163219,
			"-0.007": 18.0090513667,
			"-0.006": 23.2862127262,
			"-0.005": 33.6444156873,
			"-0.004": 23.0380844933,
			"-0.003": 17.607269184,
			"-0.002": 48.5293675013,
			"-0.001": 73.4383061037,
			"0.0": 71.951124388,
			"0.001": 56.8410616794,
			"0.002": 20.8282043893,
			"0.003": 0.370011598916,
			"0.004": 0.0,
			"0.005": 0.0,
			"0.006": 0.0,
			"0.007": 0.0,
			"0.008": 0.0,
			"0.009": 0.0,
			"0.01": 0.0,
			"0.011": 0.0,
			"0.012": 0.0,
			"0.013": 0.0,
			"0.014": 0.0,
			"0.015": 0.0,
			"0.016": 0.0,
			"0.017": 0.0,
			"0.018": 0.0,
			"0.019": 0.0,
			"0.02": 0.0,
			"0.021": 0.0,
			"0.022": 0.0,
			"0.023": 0.0,
			"0.024": 0.0,
			"0.025": 0.0
		}
	}
}
