{
	 "smiles": "O=C1CC(CC(=O)C1)C1=CC=CC=C1", 
	 "Tm": 461.15, 
	 "num_atms": 26, 
	 "gaussian": { 
		 "optdone": 1, 
		 "sigma_profile": "yes", 
		 "theory": "DFT", 
		 "functional": "B3LYP", 
		 "basiset": "6-31G**", 
		 "properties": { 
			 "R2extent": 3682.6991, 
			 "electric_dipole_moment_norm": 3.87656216511, 
			 "electric_quadrupole_moment_norm": 15.1840896069, 
			 "total_energy": -614.955663944, 
			 "HOMO_LUMO_gap": 0.20273, 
			 "cosmo_polarized_energy": -14.47, 
			 "cosmo_cavitation_energy": 29.3, 
			 "cosmo_dispersion_energy": -20.92, 
			 "cosmo_repulsion_energy": 1.65, 
			 "cosmo_total_nonelectrostatic_energy": 10.03, 
			 "SMD_solvation_energy": 5.82 
		},
		"coords": [
			{
				"x": 0.4842709278,
				"y": -3.8004677127,
				"z": 0.9546388155,
				"element": "O" 
			},
			{
				"x": 0.2415403181,
				"y": -2.7091033002,
				"z": 0.4829628605,
				"element": "C" 
			},
			{
				"x": 0.9719657649,
				"y": -1.4432467447,
				"z": 0.9073612931,
				"element": "C" 
			},
			{
				"x": -0.0125196934,
				"y": -0.3011765198,
				"z": 1.2651298289,
				"element": "C" 
			},
			{
				"x": -0.9913372004,
				"y": -0.0344363851,
				"z": 0.0934913856,
				"element": "C" 
			},
			{
				"x": -1.7243808861,
				"y": -1.2984297913,
				"z": -0.331727973,
				"element": "C" 
			},
			{
				"x": -2.9299305014,
				"y": -1.3505856447,
				"z": -0.45985861,
				"element": "O" 
			},
			{
				"x": -0.8356768087,
				"y": -2.5165088585,
				"z": -0.584895122,
				"element": "C" 
			},
			{
				"x": 0.7122688729,
				"y": 0.9629009776,
				"z": 1.7017677951,
				"element": "C" 
			},
			{
				"x": 1.5718562818,
				"y": 1.6512294642,
				"z": 0.8329220096,
				"element": "C" 
			},
			{
				"x": 2.2291849109,
				"y": 2.8097945458,
				"z": 1.2458065871,
				"element": "C" 
			},
			{
				"x": 2.0384814273,
				"y": 3.3028207309,
				"z": 2.5386386622,
				"element": "C" 
			},
			{
				"x": 1.1863166118,
				"y": 2.6278441341,
				"z": 3.4125856761,
				"element": "C" 
			},
			{
				"x": 0.5302722478,
				"y": 1.4681718485,
				"z": 2.9950091755,
				"element": "C" 
			},
			{
				"x": 1.6226294003,
				"y": -1.6846581683,
				"z": 1.7508272102,
				"element": "H" 
			},
			{
				"x": 1.6114449577,
				"y": -1.1210774699,
				"z": 0.0728719941,
				"element": "H" 
			},
			{
				"x": -0.6121674482,
				"y": -0.6438501424,
				"z": 2.1186088987,
				"element": "H" 
			},
			{
				"x": -1.7319406272,
				"y": 0.7228333251,
				"z": 0.3601736757,
				"element": "H" 
			},
			{
				"x": -0.4255637332,
				"y": 0.3407645934,
				"z": -0.7715259045,
				"element": "H" 
			},
			{
				"x": -0.3117340434,
				"y": -2.3360062743,
				"z": -1.5367233577,
				"element": "H" 
			},
			{
				"x": -1.4404533976,
				"y": -3.4185106342,
				"z": -0.6871949284,
				"element": "H" 
			},
			{
				"x": 1.7333835562,
				"y": 1.2836362956,
				"z": -0.1775993664,
				"element": "H" 
			},
			{
				"x": 2.8907697986,
				"y": 3.328026095,
				"z": 0.5574381747,
				"element": "H" 
			},
			{
				"x": 2.5502482576,
				"y": 4.2050771812,
				"z": 2.860328217,
				"element": "H" 
			},
			{
				"x": 1.030147824,
				"y": 3.0017115869,
				"z": 4.4204491848,
				"element": "H" 
			},
			{
				"x": -0.1323768177,
				"y": 0.9478468678,
				"z": 3.6823138176,
				"element": "H" 
			}
		],
		 "valence_orbital": [ 
			{
				"type": "occ",
				"energy": -0.33914,
				"method": "rhf"
			},
			{
				"type": "occ",
				"energy": -0.26363,
				"method": "rhf"
			},
			{
				"type": "occ",
				"energy": -0.26232,
				"method": "rhf"
			},
			{
				"type": "occ",
				"energy": -0.25985,
				"method": "rhf"
			},
			{
				"type": "occ",
				"energy": -0.2402,
				"method": "rhf"
			},
			{
				"type": "unocc",
				"energy": -0.03747,
				"method": "rhf"
			},
			{
				"type": "unocc",
				"energy": -0.02445,
				"method": "rhf"
			},
			{
				"type": "unocc",
				"energy": -0.01087,
				"method": "rhf"
			},
			{
				"type": "unocc",
				"energy": -0.00086,
				"method": "rhf"
			},
			{
				"type": "unocc",
				"energy": 0.07445,
				"method": "rhf"
			}
		],
		"cosmo_sigma_profile": { 
			"-0.025": 0.0,
			"-0.024": 0.0,
			"-0.023": 0.0,
			"-0.022": 0.0,
			"-0.021": 0.0,
			"-0.02": 0.0,
			"-0.019": 0.0,
			"-0.018": 0.0,
			"-0.017": 0.0,
			"-0.016": 0.0,
			"-0.015": 0.0,
			"-0.014": 0.0,
			"-0.013": 0.0,
			"-0.012": 0.0,
			"-0.011": 0.0,
			"-0.01": 1.39073370671,
			"-0.009": 6.21797456168,
			"-0.008": 5.59048497197,
			"-0.007": 7.42111893652,
			"-0.006": 13.9980732062,
			"-0.005": 21.2958909251,
			"-0.004": 21.7143916423,
			"-0.003": 21.4078392397,
			"-0.002": 16.3271086059,
			"-0.001": 12.2302553795,
			"0.0": 8.46342470852,
			"0.001": 11.5532534892,
			"0.002": 10.5348805904,
			"0.003": 9.25754700014,
			"0.004": 10.343311868,
			"0.005": 12.1726679033,
			"0.006": 10.0842836737,
			"0.007": 2.29782767399,
			"0.008": 2.78176050281,
			"0.009": 4.45384269339,
			"0.01": 4.95280619235,
			"0.011": 8.58214815896,
			"0.012": 7.09959943042,
			"0.013": 1.66394559826,
			"0.014": 0.0,
			"0.015": 0.0,
			"0.016": 0.0,
			"0.017": 0.0,
			"0.018": 0.0,
			"0.019": 0.0,
			"0.02": 0.0,
			"0.021": 0.0,
			"0.022": 0.0,
			"0.023": 0.0,
			"0.024": 0.0,
			"0.025": 0.0
		}
	}
}
