{
	 "smiles": "[O-][N+](=O)C1=CC(=CC=C1)C(=O)C1=CC(=CC=C1)[N+]([O-])=O", 
	 "Tm": 427.15, 
	 "num_atms": 28, 
	 "gaussian": { 
		 "optdone": 1, 
		 "sigma_profile": "yes", 
		 "theory": "DFT", 
		 "functional": "B3LYP", 
		 "basiset": "6-31G**", 
		 "properties": { 
			 "R2extent": 8121.536, 
			 "electric_dipole_moment_norm": 4.66763842323, 
			 "electric_quadrupole_moment_norm": 31.1510779353, 
			 "total_energy": -985.62363186, 
			 "HOMO_LUMO_gap": 0.17007, 
			 "cosmo_polarized_energy": -16.5, 
			 "cosmo_cavitation_energy": 35.3, 
			 "cosmo_dispersion_energy": -24.98, 
			 "cosmo_repulsion_energy": 1.89, 
			 "cosmo_total_nonelectrostatic_energy": 12.21, 
			 "SMD_solvation_energy": 10.99 
		},
		"coords": [
			{
				"x": 5.1514978364,
				"y": 2.8625007165,
				"z": -1.7267609362,
				"element": "O" 
			},
			{
				"x": 4.5917144045,
				"y": 1.7694067478,
				"z": -1.792891613,
				"element": "N" 
			},
			{
				"x": 5.0923651179,
				"y": 0.7464902325,
				"z": -2.2535340624,
				"element": "O" 
			},
			{
				"x": 3.2105797938,
				"y": 1.6820983647,
				"z": -1.2786222622,
				"element": "C" 
			},
			{
				"x": 2.5573307436,
				"y": 0.4583110036,
				"z": -1.3167765184,
				"element": "C" 
			},
			{
				"x": 1.2390562621,
				"y": 0.3779287526,
				"z": -0.8471894537,
				"element": "C" 
			},
			{
				"x": 0.6265067539,
				"y": 1.5251690745,
				"z": -0.3183342389,
				"element": "C" 
			},
			{
				"x": 1.3124219809,
				"y": 2.741210028,
				"z": -0.2729105784,
				"element": "C" 
			},
			{
				"x": 2.6122140566,
				"y": 2.8325788898,
				"z": -0.7634790374,
				"element": "C" 
			},
			{
				"x": 0.5885010758,
				"y": -0.976215262,
				"z": -0.8589036064,
				"element": "C" 
			},
			{
				"x": 1.2809997138,
				"y": -1.9822787368,
				"z": -0.7892180569,
				"element": "O" 
			},
			{
				"x": -0.9052737861,
				"y": -1.1110980936,
				"z": -0.9582285444,
				"element": "C" 
			},
			{
				"x": -1.7146257784,
				"y": -0.1627045534,
				"z": -1.5934528005,
				"element": "C" 
			},
			{
				"x": -3.0808409202,
				"y": -0.4099911865,
				"z": -1.7003530737,
				"element": "C" 
			},
			{
				"x": -3.6729331588,
				"y": -1.5639103655,
				"z": -1.1932823253,
				"element": "C" 
			},
			{
				"x": -2.8583863502,
				"y": -2.50895006,
				"z": -0.5682450896,
				"element": "C" 
			},
			{
				"x": -1.4869409124,
				"y": -2.2909945061,
				"z": -0.4624114496,
				"element": "C" 
			},
			{
				"x": -3.9291700706,
				"y": 0.5898762863,
				"z": -2.3750125629,
				"element": "N" 
			},
			{
				"x": -5.1309435544,
				"y": 0.347522486,
				"z": -2.4645461409,
				"element": "O" 
			},
			{
				"x": -3.3809024945,
				"y": 1.6050184206,
				"z": -2.8017724318,
				"element": "O" 
			},
			{
				"x": 3.0573176329,
				"y": -0.421773693,
				"z": -1.7007028593,
				"element": "H" 
			},
			{
				"x": -0.3795945105,
				"y": 1.4671394253,
				"z": 0.0825281347,
				"element": "H" 
			},
			{
				"x": 0.8312329024,
				"y": 3.6186761029,
				"z": 0.146390772,
				"element": "H" 
			},
			{
				"x": 3.1678549235,
				"y": 3.7618599457,
				"z": -0.7520465266,
				"element": "H" 
			},
			{
				"x": -1.3119598821,
				"y": 0.7436700884,
				"z": -2.0262378786,
				"element": "H" 
			},
			{
				"x": -4.7415663015,
				"y": -1.7039236941,
				"z": -1.2984140773,
				"element": "H" 
			},
			{
				"x": -3.297269716,
				"y": -3.4182278296,
				"z": -0.1705792372,
				"element": "H" 
			},
			{
				"x": -0.8382857623,
				"y": -3.0274885846,
				"z": -0.0004135454,
				"element": "H" 
			}
		],
		 "valence_orbital": [ 
			{
				"type": "occ",
				"energy": -0.30111,
				"method": "rhf"
			},
			{
				"type": "occ",
				"energy": -0.29922,
				"method": "rhf"
			},
			{
				"type": "occ",
				"energy": -0.29741,
				"method": "rhf"
			},
			{
				"type": "occ",
				"energy": -0.29504,
				"method": "rhf"
			},
			{
				"type": "occ",
				"energy": -0.27759,
				"method": "rhf"
			},
			{
				"type": "unocc",
				"energy": -0.10752,
				"method": "rhf"
			},
			{
				"type": "unocc",
				"energy": -0.09996,
				"method": "rhf"
			},
			{
				"type": "unocc",
				"energy": -0.09297,
				"method": "rhf"
			},
			{
				"type": "unocc",
				"energy": -0.04782,
				"method": "rhf"
			},
			{
				"type": "unocc",
				"energy": -0.02551,
				"method": "rhf"
			}
		],
		"cosmo_sigma_profile": { 
			"-0.025": 0.0,
			"-0.024": 0.0,
			"-0.023": 0.0,
			"-0.022": 0.0,
			"-0.021": 0.0,
			"-0.02": 0.0,
			"-0.019": 0.0,
			"-0.018": 0.0,
			"-0.017": 0.0,
			"-0.016": 0.0,
			"-0.015": 0.0,
			"-0.014": 0.0,
			"-0.013": 0.0,
			"-0.012": 0.0,
			"-0.011": 0.0,
			"-0.01": 0.0,
			"-0.009": 0.710264605711,
			"-0.008": 9.60929162521,
			"-0.007": 17.8218124619,
			"-0.006": 18.7831939781,
			"-0.005": 16.7586273357,
			"-0.004": 18.8208316754,
			"-0.003": 19.361108415,
			"-0.002": 23.1379722337,
			"-0.001": 27.2370292517,
			"0.0": 24.5051502687,
			"0.001": 17.4982717959,
			"0.002": 7.21022943376,
			"0.003": 6.25668332134,
			"0.004": 7.38267918324,
			"0.005": 7.74205674435,
			"0.006": 10.1006085865,
			"0.007": 19.9906860863,
			"0.008": 12.7863962341,
			"0.009": 10.7426440793,
			"0.01": 5.41769606233,
			"0.011": 3.29056155077,
			"0.012": 0.161703878989,
			"0.013": 0.0,
			"0.014": 0.0,
			"0.015": 0.0,
			"0.016": 0.0,
			"0.017": 0.0,
			"0.018": 0.0,
			"0.019": 0.0,
			"0.02": 0.0,
			"0.021": 0.0,
			"0.022": 0.0,
			"0.023": 0.0,
			"0.024": 0.0,
			"0.025": 0.0
		}
	}
}
