{
	 "smiles": "CC1=CC(C)=C(NC(=O)C(Br)C(C)(C)C)C(C)=C1", 
	 "Tm": 459.15, 
	 "num_atms": 40, 
	 "gaussian": { 
		 "optdone": 1, 
		 "sigma_profile": "yes", 
		 "theory": "DFT", 
		 "functional": "B3LYP", 
		 "basiset": "6-31G**", 
		 "properties": { 
			 "R2extent": 6298.0838, 
			 "electric_dipole_moment_norm": 3.6598907552, 
			 "electric_quadrupole_moment_norm": 9.78045267255, 
			 "total_energy": -3286.28395012, 
			 "HOMO_LUMO_gap": 0.20212, 
			 "cosmo_polarized_energy": -10.81, 
			 "cosmo_cavitation_energy": 41.44, 
			 "cosmo_dispersion_energy": -27.93, 
			 "cosmo_repulsion_energy": 2.13, 
			 "cosmo_total_nonelectrostatic_energy": 15.64, 
			 "SMD_solvation_energy": 7.09 
		},
		"coords": [
			{
				"x": 4.7778262407,
				"y": -1.1940850488,
				"z": 2.7124702812,
				"element": "C" 
			},
			{
				"x": 3.8251037992,
				"y": -0.6500585809,
				"z": 1.6744538285,
				"element": "C" 
			},
			{
				"x": 3.0116875587,
				"y": -1.5009273089,
				"z": 0.9251306513,
				"element": "C" 
			},
			{
				"x": 2.1040122756,
				"y": -1.0167979251,
				"z": -0.0263254214,
				"element": "C" 
			},
			{
				"x": 1.2899149147,
				"y": -1.9947519498,
				"z": -0.8404091321,
				"element": "C" 
			},
			{
				"x": 1.9982056741,
				"y": 0.3753359761,
				"z": -0.2019304032,
				"element": "C" 
			},
			{
				"x": 1.1056740702,
				"y": 0.9184119524,
				"z": -1.1852151071,
				"element": "N" 
			},
			{
				"x": -0.2473060505,
				"y": 1.1723771862,
				"z": -1.1221818014,
				"element": "C" 
			},
			{
				"x": -0.8053582744,
				"y": 1.7610801561,
				"z": -2.0392157275,
				"element": "O" 
			},
			{
				"x": -0.9927769286,
				"y": 0.6668532718,
				"z": 0.1188610124,
				"element": "C" 
			},
			{
				"x": -0.8096792082,
				"y": 2.1301305563,
				"z": 1.4894187847,
				"element": "Br" 
			},
			{
				"x": -2.4692032982,
				"y": 0.2384953557,
				"z": -0.0848645618,
				"element": "C" 
			},
			{
				"x": -2.9762909137,
				"y": -0.4185100746,
				"z": 1.2149332692,
				"element": "C" 
			},
			{
				"x": -3.3982259636,
				"y": 1.4066097634,
				"z": -0.4664591607,
				"element": "C" 
			},
			{
				"x": -2.4914488069,
				"y": -0.8210822079,
				"z": -1.2136043779,
				"element": "C" 
			},
			{
				"x": 2.8335940019,
				"y": 1.2597634534,
				"z": 0.514289948,
				"element": "C" 
			},
			{
				"x": 2.7755148629,
				"y": 2.7482411781,
				"z": 0.2721623579,
				"element": "C" 
			},
			{
				"x": 3.7307748154,
				"y": 0.7273354757,
				"z": 1.4411040141,
				"element": "C" 
			},
			{
				"x": 4.3529706689,
				"y": -1.1091178848,
				"z": 3.7203811083,
				"element": "H" 
			},
			{
				"x": 4.9992621034,
				"y": -2.2509717677,
				"z": 2.5386082597,
				"element": "H" 
			},
			{
				"x": 5.7244240638,
				"y": -0.644398627,
				"z": 2.71460155,
				"element": "H" 
			},
			{
				"x": 3.0941442113,
				"y": -2.5763670456,
				"z": 1.066596585,
				"element": "H" 
			},
			{
				"x": 0.3577601579,
				"y": -2.2716578366,
				"z": -0.33223611,
				"element": "H" 
			},
			{
				"x": 1.8509657296,
				"y": -2.9200006877,
				"z": -0.9995787322,
				"element": "H" 
			},
			{
				"x": 1.018133906,
				"y": -1.5812325922,
				"z": -1.8140920193,
				"element": "H" 
			},
			{
				"x": 1.5222047635,
				"y": 1.3820072292,
				"z": -1.9858866412,
				"element": "H" 
			},
			{
				"x": -0.4356794456,
				"y": -0.1446809402,
				"z": 0.5851065954,
				"element": "H" 
			},
			{
				"x": -2.9684933767,
				"y": 0.2875433827,
				"z": 2.0494668635,
				"element": "H" 
			},
			{
				"x": -4.0041107937,
				"y": -0.7694923852,
				"z": 1.0774764011,
				"element": "H" 
			},
			{
				"x": -2.3627536073,
				"y": -1.2830797819,
				"z": 1.4952519628,
				"element": "H" 
			},
			{
				"x": -3.0596000411,
				"y": 1.892884592,
				"z": -1.3813844805,
				"element": "H" 
			},
			{
				"x": -4.4139095739,
				"y": 1.0255132289,
				"z": -0.6190991501,
				"element": "H" 
			},
			{
				"x": -3.4356555464,
				"y": 2.1543572615,
				"z": 0.3301754839,
				"element": "H" 
			},
			{
				"x": -1.8434357275,
				"y": -1.674318816,
				"z": -0.9834579261,
				"element": "H" 
			},
			{
				"x": -2.1813315935,
				"y": -0.3922210614,
				"z": -2.1688244984,
				"element": "H" 
			},
			{
				"x": -3.5100642239,
				"y": -1.2059052083,
				"z": -1.327555813,
				"element": "H" 
			},
			{
				"x": 3.0560908098,
				"y": 3.0040186037,
				"z": -0.7572398166,
				"element": "H" 
			},
			{
				"x": 1.766470629,
				"y": 3.1368088785,
				"z": 0.4381829936,
				"element": "H" 
			},
			{
				"x": 3.4614451257,
				"y": 3.2752657012,
				"z": 0.9400513394,
				"element": "H" 
			},
			{
				"x": 4.3737429914,
				"y": 1.4065245281,
				"z": 1.9963375903,
				"element": "H" 
			}
		],
		 "valence_orbital": [ 
			{
				"type": "occ",
				"energy": -0.27429,
				"method": "rhf"
			},
			{
				"type": "occ",
				"energy": -0.26656,
				"method": "rhf"
			},
			{
				"type": "occ",
				"energy": -0.2539,
				"method": "rhf"
			},
			{
				"type": "occ",
				"energy": -0.24319,
				"method": "rhf"
			},
			{
				"type": "occ",
				"energy": -0.23517,
				"method": "rhf"
			},
			{
				"type": "unocc",
				"energy": -0.03305,
				"method": "rhf"
			},
			{
				"type": "unocc",
				"energy": -0.01034,
				"method": "rhf"
			},
			{
				"type": "unocc",
				"energy": -0.00562,
				"method": "rhf"
			},
			{
				"type": "unocc",
				"energy": 0.04815,
				"method": "rhf"
			},
			{
				"type": "unocc",
				"energy": 0.07431,
				"method": "rhf"
			}
		],
		"cosmo_sigma_profile": { 
			"-0.025": 0.0,
			"-0.024": 0.0,
			"-0.023": 0.0,
			"-0.022": 0.0,
			"-0.021": 0.0,
			"-0.02": 0.0,
			"-0.019": 0.0,
			"-0.018": 0.0,
			"-0.017": 0.0,
			"-0.016": 0.0,
			"-0.015": 0.0,
			"-0.014": 0.273207352196,
			"-0.013": 1.09343608613,
			"-0.012": 0.875797151375,
			"-0.011": 0.511430041881,
			"-0.01": 1.11003195471,
			"-0.009": 1.41487936257,
			"-0.008": 1.68123706865,
			"-0.007": 2.78644885284,
			"-0.006": 4.44217612325,
			"-0.005": 9.66728036985,
			"-0.004": 22.5951854333,
			"-0.003": 32.3109899576,
			"-0.002": 34.3450019183,
			"-0.001": 40.1716067228,
			"0.0": 46.3531097306,
			"0.001": 40.9839499348,
			"0.002": 20.1205790689,
			"0.003": 12.3763366828,
			"0.004": 14.660846067,
			"0.005": 14.7833964012,
			"0.006": 9.24960471814,
			"0.007": 1.78328081538,
			"0.008": 1.78184024309,
			"0.009": 1.19818312239,
			"0.01": 1.59422906444,
			"0.011": 1.7532619398,
			"0.012": 2.28518256533,
			"0.013": 3.55497025944,
			"0.014": 0.623165722151,
			"0.015": 0.0,
			"0.016": 0.0,
			"0.017": 0.0,
			"0.018": 0.0,
			"0.019": 0.0,
			"0.02": 0.0,
			"0.021": 0.0,
			"0.022": 0.0,
			"0.023": 0.0,
			"0.024": 0.0,
			"0.025": 0.0
		}
	}
}
