{
	 "smiles": "ClC(=CC#N)C1=CC=CC=C1", 
	 "Tm": 306.15, 
	 "num_atms": 17, 
	 "gaussian": { 
		 "optdone": 1, 
		 "sigma_profile": "yes", 
		 "theory": "DFT", 
		 "functional": "B3LYP", 
		 "basiset": "6-31G**", 
		 "properties": { 
			 "R2extent": 2553.4332, 
			 "electric_dipole_moment_norm": 5.80073172195, 
			 "electric_quadrupole_moment_norm": 18.5881105406, 
			 "total_energy": -861.481697427, 
			 "HOMO_LUMO_gap": 0.17281, 
			 "cosmo_polarized_energy": -9.83, 
			 "cosmo_cavitation_energy": 24.36, 
			 "cosmo_dispersion_energy": -17.36, 
			 "cosmo_repulsion_energy": 1.39, 
			 "cosmo_total_nonelectrostatic_energy": 8.39, 
			 "SMD_solvation_energy": 5.45 
		},
		"coords": [
			{
				"x": -0.2551590682,
				"y": 2.0142160263,
				"z": -2.3329524614,
				"element": "Cl" 
			},
			{
				"x": 0.485626042,
				"y": 0.7334210639,
				"z": -1.3955725335,
				"element": "C" 
			},
			{
				"x": 1.5665010532,
				"y": 0.0907462946,
				"z": -1.8923458987,
				"element": "C" 
			},
			{
				"x": 2.1474100183,
				"y": 0.3305492975,
				"z": -3.166060795,
				"element": "C" 
			},
			{
				"x": 2.658797696,
				"y": 0.4911795831,
				"z": -4.1998461787,
				"element": "N" 
			},
			{
				"x": -0.1224600912,
				"y": 0.4282597669,
				"z": -0.0871459187,
				"element": "C" 
			},
			{
				"x": -0.0772881456,
				"y": -0.8858375132,
				"z": 0.4150283021,
				"element": "C" 
			},
			{
				"x": -0.6102652987,
				"y": -1.1838029235,
				"z": 1.6663678278,
				"element": "C" 
			},
			{
				"x": -1.2026817177,
				"y": -0.1794241278,
				"z": 2.4349209368,
				"element": "C" 
			},
			{
				"x": -1.2650485846,
				"y": 1.1245156415,
				"z": 1.9396379086,
				"element": "C" 
			},
			{
				"x": -0.7364540383,
				"y": 1.4274250899,
				"z": 0.6871162279,
				"element": "C" 
			},
			{
				"x": 2.0529189754,
				"y": -0.6583571141,
				"z": -1.2754817932,
				"element": "H" 
			},
			{
				"x": 0.3476398711,
				"y": -1.6797401757,
				"z": -0.1906074708,
				"element": "H" 
			},
			{
				"x": -0.5757581003,
				"y": -2.2046853855,
				"z": 2.034575144,
				"element": "H" 
			},
			{
				"x": -1.6221601759,
				"y": -0.4139403295,
				"z": 3.4086451406,
				"element": "H" 
			},
			{
				"x": -1.7275392578,
				"y": 1.9100726951,
				"z": 2.5294680681,
				"element": "H" 
			},
			{
				"x": -0.7872791777,
				"y": 2.4425021105,
				"z": 0.3094534941,
				"element": "H" 
			}
		],
		 "valence_orbital": [ 
			{
				"type": "occ",
				"energy": -0.33515,
				"method": "rhf"
			},
			{
				"type": "occ",
				"energy": -0.32775,
				"method": "rhf"
			},
			{
				"type": "occ",
				"energy": -0.29494,
				"method": "rhf"
			},
			{
				"type": "occ",
				"energy": -0.27474,
				"method": "rhf"
			},
			{
				"type": "occ",
				"energy": -0.25242,
				"method": "rhf"
			},
			{
				"type": "unocc",
				"energy": -0.07961,
				"method": "rhf"
			},
			{
				"type": "unocc",
				"energy": -0.02579,
				"method": "rhf"
			},
			{
				"type": "unocc",
				"energy": -0.00722,
				"method": "rhf"
			},
			{
				"type": "unocc",
				"energy": 0.02158,
				"method": "rhf"
			},
			{
				"type": "unocc",
				"energy": 0.03132,
				"method": "rhf"
			}
		],
		"cosmo_sigma_profile": { 
			"-0.025": 0.0,
			"-0.024": 0.0,
			"-0.023": 0.0,
			"-0.022": 0.0,
			"-0.021": 0.0,
			"-0.02": 0.0,
			"-0.019": 0.0,
			"-0.018": 0.0,
			"-0.017": 0.0,
			"-0.016": 0.0,
			"-0.015": 0.0,
			"-0.014": 0.0,
			"-0.013": 0.0,
			"-0.012": 0.0,
			"-0.011": 0.376567131568,
			"-0.01": 2.71012948054,
			"-0.009": 1.98089326105,
			"-0.008": 2.72589102404,
			"-0.007": 5.61562981011,
			"-0.006": 11.829313849,
			"-0.005": 12.5158491188,
			"-0.004": 12.3880035901,
			"-0.003": 11.5718992308,
			"-0.002": 13.9287433582,
			"-0.001": 19.7214911691,
			"0.0": 14.2855398299,
			"0.001": 16.0483557615,
			"0.002": 16.8421968356,
			"0.003": 20.7221883899,
			"0.004": 11.3919797469,
			"0.005": 2.77232335818,
			"0.006": 2.71277179693,
			"0.007": 3.20889342579,
			"0.008": 3.42142812858,
			"0.009": 3.47548459843,
			"0.01": 2.9069907295,
			"0.011": 2.80530199511,
			"0.012": 2.36249577893,
			"0.013": 1.261508519,
			"0.014": 0.0131341005444,
			"0.015": 0.0,
			"0.016": 0.0,
			"0.017": 0.0,
			"0.018": 0.0,
			"0.019": 0.0,
			"0.02": 0.0,
			"0.021": 0.0,
			"0.022": 0.0,
			"0.023": 0.0,
			"0.024": 0.0,
			"0.025": 0.0
		}
	}
}
