{
	 "smiles": "NC1=CC(OCC(=O)N2CCCC2)=CC=C1", 
	 "Tm": 375.15, 
	 "num_atms": 32, 
	 "gaussian": { 
		 "optdone": 1, 
		 "sigma_profile": "yes", 
		 "theory": "DFT", 
		 "functional": "B3LYP", 
		 "basiset": "6-31G**", 
		 "properties": { 
			 "R2extent": 5141.6639, 
			 "electric_dipole_moment_norm": 5.13489574772, 
			 "electric_quadrupole_moment_norm": 11.6268036867, 
			 "total_energy": -726.874958091, 
			 "HOMO_LUMO_gap": 0.2088, 
			 "cosmo_polarized_energy": -16.71, 
			 "cosmo_cavitation_energy": 34.65, 
			 "cosmo_dispersion_energy": -25.05, 
			 "cosmo_repulsion_energy": 1.98, 
			 "cosmo_total_nonelectrostatic_energy": 11.57, 
			 "SMD_solvation_energy": 5.41 
		},
		"coords": [
			{
				"x": -0.6153882253,
				"y": -4.8154707258,
				"z": 0.8689883016,
				"element": "N" 
			},
			{
				"x": -0.2422233906,
				"y": -3.6114836567,
				"z": 1.4688298852,
				"element": "C" 
			},
			{
				"x": -0.4740166626,
				"y": -2.3926309941,
				"z": 0.8212176507,
				"element": "C" 
			},
			{
				"x": -0.1555425394,
				"y": -1.1833893033,
				"z": 1.4484195267,
				"element": "C" 
			},
			{
				"x": -0.4273232643,
				"y": -0.0590014865,
				"z": 0.7113053577,
				"element": "O" 
			},
			{
				"x": -0.1151079967,
				"y": 1.2076704309,
				"z": 1.2751350277,
				"element": "C" 
			},
			{
				"x": -0.4641518255,
				"y": 2.3257190147,
				"z": 0.2908966011,
				"element": "C" 
			},
			{
				"x": -1.0838503332,
				"y": 3.3126926101,
				"z": 0.6822489736,
				"element": "O" 
			},
			{
				"x": -0.0287455438,
				"y": 2.2066905566,
				"z": -0.9910822759,
				"element": "N" 
			},
			{
				"x": -0.3227467081,
				"y": 3.2834921012,
				"z": -1.9508220231,
				"element": "C" 
			},
			{
				"x": 0.233903186,
				"y": 2.7472162717,
				"z": -3.2775124684,
				"element": "C" 
			},
			{
				"x": 1.3858004065,
				"y": 1.8292248737,
				"z": -2.8345027356,
				"element": "C" 
			},
			{
				"x": 0.8280043815,
				"y": 1.1591357855,
				"z": -1.5700477209,
				"element": "C" 
			},
			{
				"x": 0.4010222472,
				"y": -1.1681160445,
				"z": 2.7322054925,
				"element": "C" 
			},
			{
				"x": 0.631283108,
				"y": -2.3927269374,
				"z": 3.368279397,
				"element": "C" 
			},
			{
				"x": 0.3219991635,
				"y": -3.6022556238,
				"z": 2.7600390411,
				"element": "C" 
			},
			{
				"x": -0.113387392,
				"y": -5.6298821368,
				"z": 1.1943168192,
				"element": "H" 
			},
			{
				"x": -0.6854638911,
				"y": -4.7920827537,
				"z": -0.1388166415,
				"element": "H" 
			},
			{
				"x": -0.9142020665,
				"y": -2.3627423212,
				"z": -0.1711894048,
				"element": "H" 
			},
			{
				"x": -0.6992598045,
				"y": 1.3974244427,
				"z": 2.1808745951,
				"element": "H" 
			},
			{
				"x": 0.9547739002,
				"y": 1.2635906421,
				"z": 1.5316790239,
				"element": "H" 
			},
			{
				"x": 0.1762017802,
				"y": 4.2090289994,
				"z": -1.6365137433,
				"element": "H" 
			},
			{
				"x": -1.3963480405,
				"y": 3.4897601631,
				"z": -1.9741021976,
				"element": "H" 
			},
			{
				"x": -0.5319946536,
				"y": 2.1619418905,
				"z": -3.7992566851,
				"element": "H" 
			},
			{
				"x": 0.5542189979,
				"y": 3.5488847505,
				"z": -3.94806885,
				"element": "H" 
			},
			{
				"x": 2.2691936985,
				"y": 2.4275867912,
				"z": -2.5831110496,
				"element": "H" 
			},
			{
				"x": 1.6791469451,
				"y": 1.1004495409,
				"z": -3.5950787567,
				"element": "H" 
			},
			{
				"x": 1.6108331583,
				"y": 0.8528338528,
				"z": -0.870414642,
				"element": "H" 
			},
			{
				"x": 0.2398388052,
				"y": 0.2677049029,
				"z": -1.8161433219,
				"element": "H" 
			},
			{
				"x": 0.645613335,
				"y": -0.2413788826,
				"z": 3.235166121,
				"element": "H" 
			},
			{
				"x": 1.0634711554,
				"y": -2.3948748604,
				"z": 4.3651929103,
				"element": "H" 
			},
			{
				"x": 0.502548069,
				"y": -4.5410118936,
				"z": 3.2765677921,
				"element": "H" 
			}
		],
		 "valence_orbital": [ 
			{
				"type": "occ",
				"energy": -0.29122,
				"method": "rhf"
			},
			{
				"type": "occ",
				"energy": -0.24073,
				"method": "rhf"
			},
			{
				"type": "occ",
				"energy": -0.23202,
				"method": "rhf"
			},
			{
				"type": "occ",
				"energy": -0.22078,
				"method": "rhf"
			},
			{
				"type": "occ",
				"energy": -0.2008,
				"method": "rhf"
			},
			{
				"type": "unocc",
				"energy": 0.008,
				"method": "rhf"
			},
			{
				"type": "unocc",
				"energy": 0.02378,
				"method": "rhf"
			},
			{
				"type": "unocc",
				"energy": 0.02591,
				"method": "rhf"
			},
			{
				"type": "unocc",
				"energy": 0.07764,
				"method": "rhf"
			},
			{
				"type": "unocc",
				"energy": 0.08212,
				"method": "rhf"
			}
		],
		"cosmo_sigma_profile": { 
			"-0.025": 0.0,
			"-0.024": 0.0,
			"-0.023": 0.0,
			"-0.022": 0.0,
			"-0.021": 0.0,
			"-0.02": 0.0,
			"-0.019": 0.0,
			"-0.018": 0.0,
			"-0.017": 0.0,
			"-0.016": 0.0,
			"-0.015": 0.0,
			"-0.014": 0.0,
			"-0.013": 0.272392310604,
			"-0.012": 2.3027707493,
			"-0.011": 2.50428630483,
			"-0.01": 2.65701869918,
			"-0.009": 3.26584770209,
			"-0.008": 2.61297683009,
			"-0.007": 6.02086847521,
			"-0.006": 12.3097058902,
			"-0.005": 14.2826275749,
			"-0.004": 24.0508549745,
			"-0.003": 33.1338110891,
			"-0.002": 29.6405661475,
			"-0.001": 20.5095661217,
			"0.0": 18.5372219538,
			"0.001": 10.4269894423,
			"0.002": 8.86033549564,
			"0.003": 11.0281503569,
			"0.004": 10.7620200838,
			"0.005": 11.3641364132,
			"0.006": 13.1543518825,
			"0.007": 10.4043501601,
			"0.008": 2.71978432919,
			"0.009": 2.77916227196,
			"0.01": 2.070376367,
			"0.011": 2.26160163263,
			"0.012": 2.23323619476,
			"0.013": 3.67165167182,
			"0.014": 5.94470552825,
			"0.015": 2.19485262667,
			"0.016": 0.0582062432592,
			"0.017": 0.0,
			"0.018": 0.0,
			"0.019": 0.0,
			"0.02": 0.0,
			"0.021": 0.0,
			"0.022": 0.0,
			"0.023": 0.0,
			"0.024": 0.0,
			"0.025": 0.0
		}
	}
}
