{
	 "smiles": "CCCCCCCCOC1=CC=C(C=C1)C(C)=O", 
	 "Tm": 304.15, 
	 "num_atms": 42, 
	 "gaussian": { 
		 "optdone": 1, 
		 "sigma_profile": "yes", 
		 "theory": "DFT", 
		 "functional": "B3LYP", 
		 "basiset": "6-31G**", 
		 "properties": { 
			 "R2extent": 9819.7682, 
			 "electric_dipole_moment_norm": 4.62114820689, 
			 "electric_quadrupole_moment_norm": 21.3287708296, 
			 "total_energy": -774.638455133, 
			 "HOMO_LUMO_gap": 0.18463, 
			 "cosmo_polarized_energy": -10.35, 
			 "cosmo_cavitation_energy": 43.91, 
			 "cosmo_dispersion_energy": -30.41, 
			 "cosmo_repulsion_energy": 2.42, 
			 "cosmo_total_nonelectrostatic_energy": 15.93, 
			 "SMD_solvation_energy": 7.51 
		},
		"coords": [
			{
				"x": 1.0769219695,
				"y": -4.5759584662,
				"z": -5.1172767691,
				"element": "C" 
			},
			{
				"x": -0.1975483303,
				"y": -3.9724389401,
				"z": -4.5144679587,
				"element": "C" 
			},
			{
				"x": 0.0507355928,
				"y": -2.8501363335,
				"z": -3.4926174746,
				"element": "C" 
			},
			{
				"x": 0.6787090877,
				"y": -1.5802419135,
				"z": -4.0872865956,
				"element": "C" 
			},
			{
				"x": 0.8000484288,
				"y": -0.4077662367,
				"z": -3.0985608922,
				"element": "C" 
			},
			{
				"x": 1.7800585828,
				"y": -0.657918034,
				"z": -1.9420878386,
				"element": "C" 
			},
			{
				"x": 2.0194464044,
				"y": 0.5615686644,
				"z": -1.0366518728,
				"element": "C" 
			},
			{
				"x": 0.8057534007,
				"y": 1.01067412,
				"z": -0.2309211233,
				"element": "C" 
			},
			{
				"x": 0.4314271663,
				"y": -0.0646769399,
				"z": 0.6354824134,
				"element": "O" 
			},
			{
				"x": -0.6390650999,
				"y": 0.0860174036,
				"z": 1.4565934885,
				"element": "C" 
			},
			{
				"x": -1.4230842362,
				"y": 1.2455918692,
				"z": 1.5386640874,
				"element": "C" 
			},
			{
				"x": -2.5012351536,
				"y": 1.2844998077,
				"z": 2.4233067467,
				"element": "C" 
			},
			{
				"x": -2.8192527597,
				"y": 0.1880837397,
				"z": 3.2345338499,
				"element": "C" 
			},
			{
				"x": -2.0194405686,
				"y": -0.9675522353,
				"z": 3.138587431,
				"element": "C" 
			},
			{
				"x": -0.9474207923,
				"y": -1.022672808,
				"z": 2.2668806967,
				"element": "C" 
			},
			{
				"x": -3.9615315434,
				"y": 0.1841826325,
				"z": 4.1939621109,
				"element": "C" 
			},
			{
				"x": -4.8319846383,
				"y": 1.4273511417,
				"z": 4.306145017,
				"element": "C" 
			},
			{
				"x": -4.200242019,
				"y": -0.7990929737,
				"z": 4.8823586961,
				"element": "O" 
			},
			{
				"x": 0.8389070311,
				"y": -5.4026767459,
				"z": -5.7947376577,
				"element": "H" 
			},
			{
				"x": 1.7355069491,
				"y": -4.9687190117,
				"z": -4.3335740454,
				"element": "H" 
			},
			{
				"x": 1.648400622,
				"y": -3.8382617643,
				"z": -5.6899659199,
				"element": "H" 
			},
			{
				"x": -0.8379853466,
				"y": -3.5902546526,
				"z": -5.3215110087,
				"element": "H" 
			},
			{
				"x": -0.7711523308,
				"y": -4.7701596875,
				"z": -4.0255352227,
				"element": "H" 
			},
			{
				"x": -0.9059741955,
				"y": -2.5810502323,
				"z": -3.0237377564,
				"element": "H" 
			},
			{
				"x": 0.6852084204,
				"y": -3.2392829286,
				"z": -2.6851524252,
				"element": "H" 
			},
			{
				"x": 0.069911521,
				"y": -1.2561848972,
				"z": -4.9427640182,
				"element": "H" 
			},
			{
				"x": 1.6739395359,
				"y": -1.8076809744,
				"z": -4.4920043997,
				"element": "H" 
			},
			{
				"x": -0.1980950809,
				"y": -0.1765872484,
				"z": -2.7017278824,
				"element": "H" 
			},
			{
				"x": 1.1241668926,
				"y": 0.4861466124,
				"z": -3.6499615228,
				"element": "H" 
			},
			{
				"x": 1.4297938567,
				"y": -1.4895781507,
				"z": -1.3217232746,
				"element": "H" 
			},
			{
				"x": 2.7468826403,
				"y": -0.9687250029,
				"z": -2.3599669755,
				"element": "H" 
			},
			{
				"x": 2.3494572359,
				"y": 1.4180738169,
				"z": -1.6398503881,
				"element": "H" 
			},
			{
				"x": 2.8309796135,
				"y": 0.3413969908,
				"z": -0.3330499886,
				"element": "H" 
			},
			{
				"x": 1.0515670497,
				"y": 1.8990484323,
				"z": 0.3670139152,
				"element": "H" 
			},
			{
				"x": -0.0372444028,
				"y": 1.2678177544,
				"z": -0.8861104277,
				"element": "H" 
			},
			{
				"x": -1.2034095503,
				"y": 2.1116057177,
				"z": 0.9263638379,
				"element": "H" 
			},
			{
				"x": -3.0958940171,
				"y": 2.1913114887,
				"z": 2.471969822,
				"element": "H" 
			},
			{
				"x": -2.2696869687,
				"y": -1.8140863104,
				"z": 3.7692675269,
				"element": "H" 
			},
			{
				"x": -0.325757012,
				"y": -1.9084377331,
				"z": 2.1859787186,
				"element": "H" 
			},
			{
				"x": -5.2998103337,
				"y": 1.6699029037,
				"z": 3.3455417361,
				"element": "H" 
			},
			{
				"x": -5.6083209943,
				"y": 1.2414698687,
				"z": 5.0488288716,
				"element": "H" 
			},
			{
				"x": -4.2400866273,
				"y": 2.2976972565,
				"z": 4.6104644727,
				"element": "H" 
			}
		],
		 "valence_orbital": [ 
			{
				"type": "occ",
				"energy": -0.31046,
				"method": "rhf"
			},
			{
				"type": "occ",
				"energy": -0.30639,
				"method": "rhf"
			},
			{
				"type": "occ",
				"energy": -0.25826,
				"method": "rhf"
			},
			{
				"type": "occ",
				"energy": -0.23914,
				"method": "rhf"
			},
			{
				"type": "occ",
				"energy": -0.2272,
				"method": "rhf"
			},
			{
				"type": "unocc",
				"energy": -0.04257,
				"method": "rhf"
			},
			{
				"type": "unocc",
				"energy": -0.0066,
				"method": "rhf"
			},
			{
				"type": "unocc",
				"energy": 0.05299,
				"method": "rhf"
			},
			{
				"type": "unocc",
				"energy": 0.08115,
				"method": "rhf"
			},
			{
				"type": "unocc",
				"energy": 0.08831,
				"method": "rhf"
			}
		],
		"cosmo_sigma_profile": { 
			"-0.025": 0.0,
			"-0.024": 0.0,
			"-0.023": 0.0,
			"-0.022": 0.0,
			"-0.021": 0.0,
			"-0.02": 0.0,
			"-0.019": 0.0,
			"-0.018": 0.0,
			"-0.017": 0.0,
			"-0.016": 0.0,
			"-0.015": 0.0,
			"-0.014": 0.0,
			"-0.013": 0.0,
			"-0.012": 0.0,
			"-0.011": 0.0,
			"-0.01": 0.0,
			"-0.009": 0.0,
			"-0.008": 0.0,
			"-0.007": 1.70751099758,
			"-0.006": 11.039060549,
			"-0.005": 19.1011566528,
			"-0.004": 18.8968744601,
			"-0.003": 24.3282836048,
			"-0.002": 40.4081571296,
			"-0.001": 49.0854882608,
			"0.0": 50.7061658278,
			"0.001": 42.0429691388,
			"0.002": 24.9268492786,
			"0.003": 15.0578944014,
			"0.004": 15.9402117863,
			"0.005": 5.61291927676,
			"0.006": 4.12851817791,
			"0.007": 2.78593548749,
			"0.008": 2.84417586493,
			"0.009": 1.86536652977,
			"0.01": 1.44024653608,
			"0.011": 2.69465542052,
			"0.012": 3.94963022039,
			"0.013": 2.84527630839,
			"0.014": 0.873332618214,
			"0.015": 0.00372784680807,
			"0.016": 0.0,
			"0.017": 0.0,
			"0.018": 0.0,
			"0.019": 0.0,
			"0.02": 0.0,
			"0.021": 0.0,
			"0.022": 0.0,
			"0.023": 0.0,
			"0.024": 0.0,
			"0.025": 0.0
		}
	}
}
