{
	 "smiles": "OCC1=CN=C(S1)N1CCOCC1", 
	 "Tm": 375.15, 
	 "num_atms": 25, 
	 "gaussian": { 
		 "optdone": 1, 
		 "sigma_profile": "yes", 
		 "theory": "DFT", 
		 "functional": "B3LYP", 
		 "basiset": "6-31G**", 
		 "properties": { 
			 "R2extent": 4213.3154, 
			 "electric_dipole_moment_norm": 1.55654045563, 
			 "electric_quadrupole_moment_norm": 8.65520764107, 
			 "total_energy": -970.177344938, 
			 "HOMO_LUMO_gap": 0.19499, 
			 "cosmo_polarized_energy": -12.56, 
			 "cosmo_cavitation_energy": 28.83, 
			 "cosmo_dispersion_energy": -22.11, 
			 "cosmo_repulsion_energy": 1.73, 
			 "cosmo_total_nonelectrostatic_energy": 8.44, 
			 "SMD_solvation_energy": 2.63 
		},
		"coords": [
			{
				"x": -2.5067598983,
				"y": 2.5673423893,
				"z": 2.6662829039,
				"element": "O" 
			},
			{
				"x": -2.7559696818,
				"y": 1.2348337247,
				"z": 3.1080254946,
				"element": "C" 
			},
			{
				"x": -1.7782418126,
				"y": 0.2326804628,
				"z": 2.5852860243,
				"element": "C" 
			},
			{
				"x": -0.9487173363,
				"y": -0.6032849329,
				"z": 3.2728428273,
				"element": "C" 
			},
			{
				"x": -0.1397610925,
				"y": -1.4484716311,
				"z": 2.5524146702,
				"element": "N" 
			},
			{
				"x": -0.3274256813,
				"y": -1.2676499544,
				"z": 1.2668250522,
				"element": "C" 
			},
			{
				"x": -1.5282395774,
				"y": -0.0233068404,
				"z": 0.8557661647,
				"element": "S" 
			},
			{
				"x": 0.3349363577,
				"y": -1.9471919087,
				"z": 0.2915150395,
				"element": "N" 
			},
			{
				"x": 0.0930902466,
				"y": -1.6947341991,
				"z": -1.1258984722,
				"element": "C" 
			},
			{
				"x": 0.8104488137,
				"y": -2.7616265026,
				"z": -1.9504870008,
				"element": "C" 
			},
			{
				"x": 2.2052381576,
				"y": -2.799123723,
				"z": -1.6974635049,
				"element": "O" 
			},
			{
				"x": 2.5736080519,
				"y": -2.717208119,
				"z": -0.3159504216,
				"element": "C" 
			},
			{
				"x": 1.3972177472,
				"y": -2.8907926174,
				"z": 0.6413347539,
				"element": "C" 
			},
			{
				"x": -1.5799855754,
				"y": 2.7619047399,
				"z": 2.8613537971,
				"element": "H" 
			},
			{
				"x": -3.7755051718,
				"y": 1.0137469956,
				"z": 2.7727753754,
				"element": "H" 
			},
			{
				"x": -2.7537942633,
				"y": 1.1600162985,
				"z": 4.2075364464,
				"element": "H" 
			},
			{
				"x": -0.9051738028,
				"y": -0.6416906982,
				"z": 4.3571389985,
				"element": "H" 
			},
			{
				"x": 0.4547917024,
				"y": -0.6957564735,
				"z": -1.4130135985,
				"element": "H" 
			},
			{
				"x": -0.9843443415,
				"y": -1.7317467172,
				"z": -1.3398452249,
				"element": "H" 
			},
			{
				"x": 0.3464270905,
				"y": -3.7426742745,
				"z": -1.7626784208,
				"element": "H" 
			},
			{
				"x": 0.6953772005,
				"y": -2.5405960488,
				"z": -3.0152701359,
				"element": "H" 
			},
			{
				"x": 3.0443920803,
				"y": -1.7403665579,
				"z": -0.1367999697,
				"element": "H" 
			},
			{
				"x": 3.3235302332,
				"y": -3.4936216919,
				"z": -0.1211685793,
				"element": "H" 
			},
			{
				"x": 1.7089435254,
				"y": -2.6860720402,
				"z": 1.6670317007,
				"element": "H" 
			},
			{
				"x": 1.0221170281,
				"y": -3.9233096799,
				"z": 0.6133460799,
				"element": "H" 
			}
		],
		 "valence_orbital": [ 
			{
				"type": "occ",
				"energy": -0.27755,
				"method": "rhf"
			},
			{
				"type": "occ",
				"energy": -0.26902,
				"method": "rhf"
			},
			{
				"type": "occ",
				"energy": -0.26177,
				"method": "rhf"
			},
			{
				"type": "occ",
				"energy": -0.259,
				"method": "rhf"
			},
			{
				"type": "occ",
				"energy": -0.19798,
				"method": "rhf"
			},
			{
				"type": "unocc",
				"energy": -0.00299,
				"method": "rhf"
			},
			{
				"type": "unocc",
				"energy": 0.01975,
				"method": "rhf"
			},
			{
				"type": "unocc",
				"energy": 0.05833,
				"method": "rhf"
			},
			{
				"type": "unocc",
				"energy": 0.07866,
				"method": "rhf"
			},
			{
				"type": "unocc",
				"energy": 0.08061,
				"method": "rhf"
			}
		],
		"cosmo_sigma_profile": { 
			"-0.025": 0.0,
			"-0.024": 0.0,
			"-0.023": 0.0,
			"-0.022": 0.0,
			"-0.021": 0.0,
			"-0.02": 0.0,
			"-0.019": 0.0,
			"-0.018": 0.0,
			"-0.017": 0.0,
			"-0.016": 0.031275249122,
			"-0.015": 0.776716968373,
			"-0.014": 0.781097150124,
			"-0.013": 0.724510703684,
			"-0.012": 0.868336177458,
			"-0.011": 0.792151197279,
			"-0.01": 0.628039658688,
			"-0.009": 0.646554555296,
			"-0.008": 0.656623693204,
			"-0.007": 2.27340441769,
			"-0.006": 10.2299131115,
			"-0.005": 29.6596092612,
			"-0.004": 29.1355610511,
			"-0.003": 22.3530589749,
			"-0.002": 15.9285333201,
			"-0.001": 11.2376743331,
			"0.0": 8.96246175264,
			"0.001": 10.4573998431,
			"0.002": 14.3715059458,
			"0.003": 11.2987538919,
			"0.004": 12.2526864328,
			"0.005": 8.41274642223,
			"0.006": 4.61764782198,
			"0.007": 4.62225321138,
			"0.008": 4.14140761317,
			"0.009": 3.29106359372,
			"0.01": 3.26368227741,
			"0.011": 4.38454752097,
			"0.012": 3.76833500117,
			"0.013": 4.64254006499,
			"0.014": 2.8050699903,
			"0.015": 0.432264135709,
			"0.016": 0.0,
			"0.017": 0.0,
			"0.018": 0.0,
			"0.019": 0.0,
			"0.02": 0.0,
			"0.021": 0.0,
			"0.022": 0.0,
			"0.023": 0.0,
			"0.024": 0.0,
			"0.025": 0.0
		}
	}
}
