{
	 "smiles": "C[Si](C)(C)[Si](C)(C)C", 
	 "Tm": 285.95, 
	 "num_atms": 26, 
	 "gaussian": { 
		 "optdone": 1, 
		 "sigma_profile": "yes", 
		 "theory": "DFT", 
		 "functional": "B3LYP", 
		 "basiset": "6-31G**", 
		 "properties": { 
			 "R2extent": 1861.6476, 
			 "electric_dipole_moment_norm": 0.0, 
			 "electric_quadrupole_moment_norm": 0.351365294245, 
			 "total_energy": -818.557461892, 
			 "HOMO_LUMO_gap": 0.28656, 
			 "cosmo_polarized_energy": -1.35, 
			 "cosmo_cavitation_energy": 31.06, 
			 "cosmo_dispersion_energy": -16.44, 
			 "cosmo_repulsion_energy": 1.58, 
			 "cosmo_total_nonelectrostatic_energy": 16.2, 
			 "SMD_solvation_energy": 8.24 
		},
		"coords": [
			{
				"x": 0.5750163401,
				"y": -0.8182651159,
				"z": -1.9033205356,
				"element": "C" 
			},
			{
				"x": 1.218519334,
				"y": -0.0194326758,
				"z": -0.2994791608,
				"element": "Si" 
			},
			{
				"x": 2.1257370376,
				"y": 1.5925293541,
				"z": -0.7497814406,
				"element": "C" 
			},
			{
				"x": 2.4677060847,
				"y": -1.2086847548,
				"z": 0.5066033785,
				"element": "C" 
			},
			{
				"x": -0.5749675383,
				"y": 0.4256717749,
				"z": 1.1809614336,
				"element": "Si" 
			},
			{
				"x": -1.4821850367,
				"y": -1.1862905283,
				"z": 1.631263547,
				"element": "C" 
			},
			{
				"x": -1.8241561591,
				"y": 1.6149260585,
				"z": 0.3748856252,
				"element": "C" 
			},
			{
				"x": 0.0685424514,
				"y": 1.2245001088,
				"z": 2.7848018488,
				"element": "C" 
			},
			{
				"x": 1.4011427428,
				"y": -1.0275909778,
				"z": -2.5931470027,
				"element": "H" 
			},
			{
				"x": -0.1322599942,
				"y": -0.1632625644,
				"z": -2.4237427222,
				"element": "H" 
			},
			{
				"x": 0.0630572258,
				"y": -1.7659622373,
				"z": -1.7035354319,
				"element": "H" 
			},
			{
				"x": 1.4574355188,
				"y": 2.3066795175,
				"z": -1.2431827657,
				"element": "H" 
			},
			{
				"x": 2.5375364991,
				"y": 2.0838373278,
				"z": 0.1385650042,
				"element": "H" 
			},
			{
				"x": 2.959150845,
				"y": 1.3926409624,
				"z": -1.4336312353,
				"element": "H" 
			},
			{
				"x": 2.002789718,
				"y": -2.1664089092,
				"z": 0.764868879,
				"element": "H" 
			},
			{
				"x": 3.3010355229,
				"y": -1.4185521512,
				"z": -0.1743535417,
				"element": "H" 
			},
			{
				"x": 2.889821157,
				"y": -0.7871394278,
				"z": 1.4254045554,
				"element": "H" 
			},
			{
				"x": -2.3156048713,
				"y": -0.9863995426,
				"z": 2.3151053463,
				"element": "H" 
			},
			{
				"x": -0.8138859238,
				"y": -1.9004358355,
				"z": 2.1246751407,
				"element": "H" 
			},
			{
				"x": -1.8939761867,
				"y": -1.6776047327,
				"z": 0.7429168003,
				"element": "H" 
			},
			{
				"x": -2.2462659051,
				"y": 1.1933884547,
				"z": -0.5439215002,
				"element": "H" 
			},
			{
				"x": -1.3592433906,
				"y": 2.5726551643,
				"z": 0.1166322161,
				"element": "H" 
			},
			{
				"x": -2.6574889732,
				"y": 1.824781752,
				"z": 1.0558420267,
				"element": "H" 
			},
			{
				"x": -0.7575802792,
				"y": 1.4338337369,
				"z": 3.4746304527,
				"element": "H" 
			},
			{
				"x": 0.5805092853,
				"y": 2.1721929124,
				"z": 2.5850156273,
				"element": "H" 
			},
			{
				"x": 0.7758144955,
				"y": 0.5694923291,
				"z": 3.3052234549,
				"element": "H" 
			}
		],
		 "valence_orbital": [ 
			{
				"type": "occ",
				"energy": -0.29782,
				"method": "rhf"
			},
			{
				"type": "occ",
				"energy": -0.2978,
				"method": "rhf"
			},
			{
				"type": "occ",
				"energy": -0.28528,
				"method": "rhf"
			},
			{
				"type": "occ",
				"energy": -0.28525,
				"method": "rhf"
			},
			{
				"type": "occ",
				"energy": -0.23854,
				"method": "rhf"
			},
			{
				"type": "unocc",
				"energy": 0.04802,
				"method": "rhf"
			},
			{
				"type": "unocc",
				"energy": 0.0481,
				"method": "rhf"
			},
			{
				"type": "unocc",
				"energy": 0.06567,
				"method": "rhf"
			},
			{
				"type": "unocc",
				"energy": 0.09229,
				"method": "rhf"
			},
			{
				"type": "unocc",
				"energy": 0.11349,
				"method": "rhf"
			}
		],
		"cosmo_sigma_profile": { 
			"-0.025": 0.0,
			"-0.024": 0.0,
			"-0.023": 0.0,
			"-0.022": 0.0,
			"-0.021": 0.0,
			"-0.02": 0.0,
			"-0.019": 0.0,
			"-0.018": 0.0,
			"-0.017": 0.0,
			"-0.016": 0.0,
			"-0.015": 0.0,
			"-0.014": 0.0,
			"-0.013": 0.0,
			"-0.012": 0.0,
			"-0.011": 0.0,
			"-0.01": 0.0,
			"-0.009": 0.0,
			"-0.008": 0.0,
			"-0.007": 0.0,
			"-0.006": 0.0,
			"-0.005": 0.0,
			"-0.004": 0.310994187006,
			"-0.003": 19.7663991627,
			"-0.002": 31.3043740763,
			"-0.001": 41.6658572688,
			"0.0": 47.5587451044,
			"0.001": 33.7423666339,
			"0.002": 37.0293597277,
			"0.003": 16.5908499822,
			"0.004": 2.37711743494,
			"0.005": 0.0,
			"0.006": 0.0,
			"0.007": 0.0,
			"0.008": 0.0,
			"0.009": 0.0,
			"0.01": 0.0,
			"0.011": 0.0,
			"0.012": 0.0,
			"0.013": 0.0,
			"0.014": 0.0,
			"0.015": 0.0,
			"0.016": 0.0,
			"0.017": 0.0,
			"0.018": 0.0,
			"0.019": 0.0,
			"0.02": 0.0,
			"0.021": 0.0,
			"0.022": 0.0,
			"0.023": 0.0,
			"0.024": 0.0,
			"0.025": 0.0
		}
	}
}
