{
	 "smiles": "CC1=CC(CN2N=C(C=C2C(=O)NN)C(C)(C)C)=CC=C1", 
	 "Tm": 376.15, 
	 "num_atms": 43, 
	 "gaussian": { 
		 "optdone": 1, 
		 "sigma_profile": "yes", 
		 "theory": "DFT", 
		 "functional": "B3LYP", 
		 "basiset": "6-31G**", 
		 "properties": { 
			 "R2extent": 7118.7904, 
			 "electric_dipole_moment_norm": 2.6666622902, 
			 "electric_quadrupole_moment_norm": 9.58194721912, 
			 "total_energy": -917.177018877, 
			 "HOMO_LUMO_gap": 0.20182, 
			 "cosmo_polarized_energy": -15.1, 
			 "cosmo_cavitation_energy": 45.09, 
			 "cosmo_dispersion_energy": -29.66, 
			 "cosmo_repulsion_energy": 2.33, 
			 "cosmo_total_nonelectrostatic_energy": 17.75, 
			 "SMD_solvation_energy": 7.67 
		},
		"coords": [
			{
				"x": 3.8036930909,
				"y": 0.756566595,
				"z": 2.2602521941,
				"element": "C" 
			},
			{
				"x": 2.5487219094,
				"y": -0.029396304,
				"z": 2.5629011213,
				"element": "C" 
			},
			{
				"x": 1.8741095583,
				"y": -0.7266307717,
				"z": 1.5565978481,
				"element": "C" 
			},
			{
				"x": 0.7212954147,
				"y": -1.4752216654,
				"z": 1.8316630504,
				"element": "C" 
			},
			{
				"x": 0.0140637376,
				"y": -2.2227827358,
				"z": 0.7164787002,
				"element": "C" 
			},
			{
				"x": -0.6631901328,
				"y": -1.3285169324,
				"z": -0.2344128398,
				"element": "N" 
			},
			{
				"x": -0.0047661996,
				"y": -0.9657020354,
				"z": -1.3483741074,
				"element": "N" 
			},
			{
				"x": -0.7890812342,
				"y": -0.0861153245,
				"z": -1.9825033858,
				"element": "C" 
			},
			{
				"x": -1.966794455,
				"y": 0.1374207712,
				"z": -1.2376906469,
				"element": "C" 
			},
			{
				"x": -1.859472203,
				"y": -0.671901481,
				"z": -0.1091371025,
				"element": "C" 
			},
			{
				"x": -2.7955919663,
				"y": -0.9643198144,
				"z": 1.0070674179,
				"element": "C" 
			},
			{
				"x": -2.7786758399,
				"y": -2.0317744515,
				"z": 1.6209373011,
				"element": "O" 
			},
			{
				"x": -3.7232385641,
				"y": -0.0057151824,
				"z": 1.342239501,
				"element": "N" 
			},
			{
				"x": -3.6946484133,
				"y": 1.3697809519,
				"z": 1.0438343632,
				"element": "N" 
			},
			{
				"x": -0.3969561375,
				"y": 0.5125247362,
				"z": -3.3231067591,
				"element": "C" 
			},
			{
				"x": -1.3715877417,
				"y": -0.0009864154,
				"z": -4.4089155254,
				"element": "C" 
			},
			{
				"x": -0.4892516255,
				"y": 2.0528509141,
				"z": -3.2443418997,
				"element": "C" 
			},
			{
				"x": 1.0402853535,
				"y": 0.1070824478,
				"z": -3.6973611825,
				"element": "C" 
			},
			{
				"x": 0.231730571,
				"y": -1.5231570656,
				"z": 3.1400348132,
				"element": "C" 
			},
			{
				"x": 0.8968490494,
				"y": -0.8322868626,
				"z": 4.1564672245,
				"element": "C" 
			},
			{
				"x": 2.0424187564,
				"y": -0.0930479319,
				"z": 3.870739032,
				"element": "C" 
			},
			{
				"x": 3.9438234114,
				"y": 0.886708442,
				"z": 1.1835803945,
				"element": "H" 
			},
			{
				"x": 4.6946213604,
				"y": 0.2489825024,
				"z": 2.6500706362,
				"element": "H" 
			},
			{
				"x": 3.7742762927,
				"y": 1.750424759,
				"z": 2.7198898257,
				"element": "H" 
			},
			{
				"x": 2.2424103564,
				"y": -0.6848693059,
				"z": 0.5340416754,
				"element": "H" 
			},
			{
				"x": 0.7278313133,
				"y": -2.7827880642,
				"z": 0.1089240647,
				"element": "H" 
			},
			{
				"x": -0.7357304914,
				"y": -2.9010048818,
				"z": 1.1191686418,
				"element": "H" 
			},
			{
				"x": -2.8006284655,
				"y": 0.7652091744,
				"z": -1.5098659911,
				"element": "H" 
			},
			{
				"x": -4.244361391,
				"y": -0.2403823845,
				"z": 2.1782947005,
				"element": "H" 
			},
			{
				"x": -4.1128569737,
				"y": 1.5285472593,
				"z": 0.1311645238,
				"element": "H" 
			},
			{
				"x": -2.7319267529,
				"y": 1.6970906029,
				"z": 1.009638816,
				"element": "H" 
			},
			{
				"x": -1.1169365089,
				"y": 0.4266199688,
				"z": -5.3853020042,
				"element": "H" 
			},
			{
				"x": -2.4067191906,
				"y": 0.2747070009,
				"z": -4.1810040067,
				"element": "H" 
			},
			{
				"x": -1.3253261091,
				"y": -1.0914384144,
				"z": -4.4919008118,
				"element": "H" 
			},
			{
				"x": -0.217632595,
				"y": 2.5006721377,
				"z": -4.2066580054,
				"element": "H" 
			},
			{
				"x": -1.5038553371,
				"y": 2.384986491,
				"z": -2.9993467936,
				"element": "H" 
			},
			{
				"x": 0.1885682004,
				"y": 2.4496168245,
				"z": -2.4815708637,
				"element": "H" 
			},
			{
				"x": 1.142724464,
				"y": -0.9792899524,
				"z": -3.7598120745,
				"element": "H" 
			},
			{
				"x": 1.7592083743,
				"y": 0.4627821695,
				"z": -2.953617817,
				"element": "H" 
			},
			{
				"x": 1.3070910162,
				"y": 0.5377731109,
				"z": -4.6684591997,
				"element": "H" 
			},
			{
				"x": -0.6710078647,
				"y": -2.0873203916,
				"z": 3.3542413672,
				"element": "H" 
			},
			{
				"x": 0.516234248,
				"y": -0.8692874822,
				"z": 5.1735468464,
				"element": "H" 
			},
			{
				"x": 2.5527797145,
				"y": 0.4422889913,
				"z": 4.6682069575,
				"element": "H" 
			}
		],
		 "valence_orbital": [ 
			{
				"type": "occ",
				"energy": -0.25919,
				"method": "rhf"
			},
			{
				"type": "occ",
				"energy": -0.24877,
				"method": "rhf"
			},
			{
				"type": "occ",
				"energy": -0.24696,
				"method": "rhf"
			},
			{
				"type": "occ",
				"energy": -0.23924,
				"method": "rhf"
			},
			{
				"type": "occ",
				"energy": -0.23537,
				"method": "rhf"
			},
			{
				"type": "unocc",
				"energy": -0.03355,
				"method": "rhf"
			},
			{
				"type": "unocc",
				"energy": -0.00427,
				"method": "rhf"
			},
			{
				"type": "unocc",
				"energy": 0.00496,
				"method": "rhf"
			},
			{
				"type": "unocc",
				"energy": 0.04681,
				"method": "rhf"
			},
			{
				"type": "unocc",
				"energy": 0.06192,
				"method": "rhf"
			}
		],
		"cosmo_sigma_profile": { 
			"-0.025": 0.0,
			"-0.024": 0.0,
			"-0.023": 0.0,
			"-0.022": 0.0,
			"-0.021": 0.0,
			"-0.02": 0.0,
			"-0.019": 0.0,
			"-0.018": 0.0,
			"-0.017": 0.0,
			"-0.016": 0.0,
			"-0.015": 0.0,
			"-0.014": 0.355328783906,
			"-0.013": 1.17943074142,
			"-0.012": 2.76756216345,
			"-0.011": 3.71722986786,
			"-0.01": 4.42261925618,
			"-0.009": 3.60754850898,
			"-0.008": 3.14199405593,
			"-0.007": 3.88171438226,
			"-0.006": 5.38163280745,
			"-0.005": 10.8675853298,
			"-0.004": 21.9937083982,
			"-0.003": 33.9634643708,
			"-0.002": 35.918475249,
			"-0.001": 35.5070579324,
			"0.0": 36.3796442104,
			"0.001": 39.1873292721,
			"0.002": 26.1898212598,
			"0.003": 19.2890267467,
			"0.004": 17.0016484801,
			"0.005": 13.0650377718,
			"0.006": 10.6569826328,
			"0.007": 3.90701261799,
			"0.008": 2.87688767948,
			"0.009": 3.15637805879,
			"0.01": 3.40884995404,
			"0.011": 2.31403029024,
			"0.012": 3.77114207539,
			"0.013": 3.56964516604,
			"0.014": 1.22929603806,
			"0.015": 0.621083813356,
			"0.016": 0.322734686323,
			"0.017": 0.0,
			"0.018": 0.0,
			"0.019": 0.0,
			"0.02": 0.0,
			"0.021": 0.0,
			"0.022": 0.0,
			"0.023": 0.0,
			"0.024": 0.0,
			"0.025": 0.0
		}
	}
}
