{
	 "smiles": "BrC1CS(=O)(=O)CC1Br", 
	 "Tm": 416.15, 
	 "num_atms": 15, 
	 "gaussian": { 
		 "optdone": 1, 
		 "sigma_profile": "yes", 
		 "theory": "DFT", 
		 "functional": "B3LYP", 
		 "basiset": "6-31G**", 
		 "properties": { 
			 "R2extent": 3506.7659, 
			 "electric_dipole_moment_norm": 2.27360693833, 
			 "electric_quadrupole_moment_norm": 15.9456931452, 
			 "total_energy": -5847.41786085, 
			 "HOMO_LUMO_gap": 0.23609, 
			 "cosmo_polarized_energy": -15.79, 
			 "cosmo_cavitation_energy": 23.77, 
			 "cosmo_dispersion_energy": -18.83, 
			 "cosmo_repulsion_energy": 1.48, 
			 "cosmo_total_nonelectrostatic_energy": 6.43, 
			 "SMD_solvation_energy": 0.61 
		},
		"coords": [
			{
				"x": 0.3155700283,
				"y": 0.676845239,
				"z": 2.9423639894,
				"element": "Br" 
			},
			{
				"x": 1.1860219913,
				"y": 0.3504019354,
				"z": 1.2078447743,
				"element": "C" 
			},
			{
				"x": 2.4252498861,
				"y": -0.5275634938,
				"z": 1.3884633287,
				"element": "C" 
			},
			{
				"x": 2.778584632,
				"y": -1.2110397046,
				"z": -0.2878539033,
				"element": "S" 
			},
			{
				"x": 3.8329325344,
				"y": -0.4171538131,
				"z": -0.9329949491,
				"element": "O" 
			},
			{
				"x": 2.8684492474,
				"y": -2.6746525914,
				"z": -0.1991497781,
				"element": "O" 
			},
			{
				"x": 1.1452314702,
				"y": -0.7316851796,
				"z": -0.998049109,
				"element": "C" 
			},
			{
				"x": 0.2754264143,
				"y": -0.3743761284,
				"z": 0.2081862747,
				"element": "C" 
			},
			{
				"x": -1.2663902058,
				"y": 0.7121015163,
				"z": -0.3532975496,
				"element": "Br" 
			},
			{
				"x": 1.4504813565,
				"y": 1.3378023388,
				"z": 0.8277163435,
				"element": "H" 
			},
			{
				"x": 3.3030934181,
				"y": 0.0207443268,
				"z": 1.7316340179,
				"element": "H" 
			},
			{
				"x": 2.2294747023,
				"y": -1.3805803056,
				"z": 2.0404942496,
				"element": "H" 
			},
			{
				"x": 0.7611423812,
				"y": -1.5693010684,
				"z": -1.5810577945,
				"element": "H" 
			},
			{
				"x": 1.3238707715,
				"y": 0.1311117776,
				"z": -1.642094909,
				"element": "H" 
			},
			{
				"x": -0.1524386278,
				"y": -1.2660548491,
				"z": 0.6677950144,
				"element": "H" 
			}
		],
		 "valence_orbital": [ 
			{
				"type": "occ",
				"energy": -0.31477,
				"method": "rhf"
			},
			{
				"type": "occ",
				"energy": -0.30851,
				"method": "rhf"
			},
			{
				"type": "occ",
				"energy": -0.30653,
				"method": "rhf"
			},
			{
				"type": "occ",
				"energy": -0.30062,
				"method": "rhf"
			},
			{
				"type": "occ",
				"energy": -0.28451,
				"method": "rhf"
			},
			{
				"type": "unocc",
				"energy": -0.04842,
				"method": "rhf"
			},
			{
				"type": "unocc",
				"energy": -0.03108,
				"method": "rhf"
			},
			{
				"type": "unocc",
				"energy": 0.03654,
				"method": "rhf"
			},
			{
				"type": "unocc",
				"energy": 0.05088,
				"method": "rhf"
			},
			{
				"type": "unocc",
				"energy": 0.055,
				"method": "rhf"
			}
		],
		"cosmo_sigma_profile": { 
			"-0.025": 0.0,
			"-0.024": 0.0,
			"-0.023": 0.0,
			"-0.022": 0.0,
			"-0.021": 0.0,
			"-0.02": 0.0,
			"-0.019": 0.0,
			"-0.018": 0.0,
			"-0.017": 0.0,
			"-0.016": 0.0,
			"-0.015": 0.0,
			"-0.014": 0.0,
			"-0.013": 0.0135522775579,
			"-0.012": 0.954803929352,
			"-0.011": 1.90189693323,
			"-0.01": 8.09725356311,
			"-0.009": 13.5861861189,
			"-0.008": 9.26955241751,
			"-0.007": 8.8193467607,
			"-0.006": 9.68594625295,
			"-0.005": 6.88809426166,
			"-0.004": 6.98879797163,
			"-0.003": 8.44416742884,
			"-0.002": 8.12028263863,
			"-0.001": 6.95063183865,
			"0.0": 8.79209627165,
			"0.001": 8.72742846936,
			"0.002": 9.36557343196,
			"0.003": 11.3535769765,
			"0.004": 18.0040922236,
			"0.005": 13.8014521345,
			"0.006": 3.66550983794,
			"0.007": 2.12464815368,
			"0.008": 2.83525127476,
			"0.009": 3.22760863948,
			"0.01": 8.25156066094,
			"0.011": 12.0674150686,
			"0.012": 2.70444590522,
			"0.013": 0.0,
			"0.014": 0.0,
			"0.015": 0.0,
			"0.016": 0.0,
			"0.017": 0.0,
			"0.018": 0.0,
			"0.019": 0.0,
			"0.02": 0.0,
			"0.021": 0.0,
			"0.022": 0.0,
			"0.023": 0.0,
			"0.024": 0.0,
			"0.025": 0.0
		}
	}
}
