{
	 "smiles": "CC1=CC(CC(N)=S)=CC=C1", 
	 "Tm": 349.15, 
	 "num_atms": 22, 
	 "gaussian": { 
		 "optdone": 1, 
		 "sigma_profile": "yes", 
		 "theory": "DFT", 
		 "functional": "B3LYP", 
		 "basiset": "6-31G**", 
		 "properties": { 
			 "R2extent": 2720.2431, 
			 "electric_dipole_moment_norm": 5.53784770917, 
			 "electric_quadrupole_moment_norm": 15.3121705529, 
			 "total_energy": -802.546564806, 
			 "HOMO_LUMO_gap": 0.17559, 
			 "cosmo_polarized_energy": -14.29, 
			 "cosmo_cavitation_energy": 27.23, 
			 "cosmo_dispersion_energy": -19.89, 
			 "cosmo_repulsion_energy": 1.58, 
			 "cosmo_total_nonelectrostatic_energy": 8.91, 
			 "SMD_solvation_energy": 3.58 
		},
		"coords": [
			{
				"x": -3.5982677349,
				"y": -0.5216866087,
				"z": -0.9927741544,
				"element": "C" 
			},
			{
				"x": -2.2479860689,
				"y": -1.024244476,
				"z": -0.537669305,
				"element": "C" 
			},
			{
				"x": -1.0666450135,
				"y": -0.4231744961,
				"z": -0.9938793719,
				"element": "C" 
			},
			{
				"x": 0.198688571,
				"y": -0.8958305814,
				"z": -0.6168623027,
				"element": "C" 
			},
			{
				"x": 1.4592509831,
				"y": -0.2123578487,
				"z": -1.1056506463,
				"element": "C" 
			},
			{
				"x": 2.045867489,
				"y": 0.86926796,
				"z": -0.1906792957,
				"element": "C" 
			},
			{
				"x": 1.2007733131,
				"y": 1.3737349341,
				"z": 0.7220702122,
				"element": "N" 
			},
			{
				"x": 3.6114279645,
				"y": 1.4083519495,
				"z": -0.367970103,
				"element": "S" 
			},
			{
				"x": 0.2740826563,
				"y": -1.9984402108,
				"z": 0.2459916191,
				"element": "C" 
			},
			{
				"x": -0.8910526459,
				"y": -2.6062444064,
				"z": 0.7119396924,
				"element": "C" 
			},
			{
				"x": -2.1417333996,
				"y": -2.122226185,
				"z": 0.3256121293,
				"element": "C" 
			},
			{
				"x": -3.5606535642,
				"y": 0.535235841,
				"z": -1.2725811158,
				"element": "H" 
			},
			{
				"x": -4.3539701485,
				"y": -0.6395008904,
				"z": -0.2101551829,
				"element": "H" 
			},
			{
				"x": -3.9507374508,
				"y": -1.0782715508,
				"z": -1.8700469778,
				"element": "H" 
			},
			{
				"x": -1.1330896833,
				"y": 0.4273756098,
				"z": -1.670130005,
				"element": "H" 
			},
			{
				"x": 2.2545064475,
				"y": -0.9399536395,
				"z": -1.2822128382,
				"element": "H" 
			},
			{
				"x": 1.2751062392,
				"y": 0.2737070798,
				"z": -2.0712790748,
				"element": "H" 
			},
			{
				"x": 0.2684698787,
				"y": 0.9997325166,
				"z": 0.8366372088,
				"element": "H" 
			},
			{
				"x": 1.5292225829,
				"y": 2.0990574622,
				"z": 1.3425332409,
				"element": "H" 
			},
			{
				"x": 1.2463179417,
				"y": -2.3777414164,
				"z": 0.5496372398,
				"element": "H" 
			},
			{
				"x": -0.8251260967,
				"y": -3.46068967,
				"z": 1.3796246903,
				"element": "H" 
			},
			{
				"x": -3.0444522607,
				"y": -2.6028013726,
				"z": 0.6945443407,
				"element": "H" 
			}
		],
		 "valence_orbital": [ 
			{
				"type": "occ",
				"energy": -0.34005,
				"method": "rhf"
			},
			{
				"type": "occ",
				"energy": -0.26125,
				"method": "rhf"
			},
			{
				"type": "occ",
				"energy": -0.25192,
				"method": "rhf"
			},
			{
				"type": "occ",
				"energy": -0.22437,
				"method": "rhf"
			},
			{
				"type": "occ",
				"energy": -0.20094,
				"method": "rhf"
			},
			{
				"type": "unocc",
				"energy": -0.02535,
				"method": "rhf"
			},
			{
				"type": "unocc",
				"energy": -0.0174,
				"method": "rhf"
			},
			{
				"type": "unocc",
				"energy": -0.01188,
				"method": "rhf"
			},
			{
				"type": "unocc",
				"energy": 0.07791,
				"method": "rhf"
			},
			{
				"type": "unocc",
				"energy": 0.08965,
				"method": "rhf"
			}
		],
		"cosmo_sigma_profile": { 
			"-0.025": 0.0,
			"-0.024": 0.0,
			"-0.023": 0.0,
			"-0.022": 0.0,
			"-0.021": 0.0,
			"-0.02": 0.0,
			"-0.019": 0.0,
			"-0.018": 0.0,
			"-0.017": 0.0,
			"-0.016": 0.0,
			"-0.015": 0.961095874505,
			"-0.014": 0.920566807659,
			"-0.013": 2.16993169244,
			"-0.012": 2.39685334414,
			"-0.011": 1.89202254628,
			"-0.01": 1.37004600412,
			"-0.009": 1.44912047683,
			"-0.008": 1.45841392279,
			"-0.007": 2.3786725169,
			"-0.006": 8.74209661351,
			"-0.005": 16.1768173293,
			"-0.004": 20.6611800885,
			"-0.003": 18.6680401587,
			"-0.002": 16.6715847897,
			"-0.001": 17.1182730378,
			"0.0": 16.8889163402,
			"0.001": 12.3720025285,
			"0.002": 10.2440845673,
			"0.003": 9.50429657456,
			"0.004": 9.25707006965,
			"0.005": 10.3767658291,
			"0.006": 6.64724881753,
			"0.007": 3.82425939285,
			"0.008": 3.96474653698,
			"0.009": 6.22162826466,
			"0.01": 6.49263419638,
			"0.011": 4.52760657078,
			"0.012": 3.43529652864,
			"0.013": 1.41398595529,
			"0.014": 0.0397725093604,
			"0.015": 0.0,
			"0.016": 0.0,
			"0.017": 0.0,
			"0.018": 0.0,
			"0.019": 0.0,
			"0.02": 0.0,
			"0.021": 0.0,
			"0.022": 0.0,
			"0.023": 0.0,
			"0.024": 0.0,
			"0.025": 0.0
		}
	}
}
