{
	 "smiles": "NC1=NC2=C(C=CC=C2)N1C1=C(F)C=CC=C1", 
	 "Tm": 395.15, 
	 "num_atms": 27, 
	 "gaussian": { 
		 "optdone": 1, 
		 "sigma_profile": "yes", 
		 "theory": "DFT", 
		 "functional": "B3LYP", 
		 "basiset": "6-31G**", 
		 "properties": { 
			 "R2extent": 3922.3858, 
			 "electric_dipole_moment_norm": 4.17303417911, 
			 "electric_quadrupole_moment_norm": 7.72001253885, 
			 "total_energy": -765.515105057, 
			 "HOMO_LUMO_gap": 0.16908, 
			 "cosmo_polarized_energy": -12.46, 
			 "cosmo_cavitation_energy": 31.04, 
			 "cosmo_dispersion_energy": -22.74, 
			 "cosmo_repulsion_energy": 1.72, 
			 "cosmo_total_nonelectrostatic_energy": 10.03, 
			 "SMD_solvation_energy": 3.41 
		},
		"coords": [
			{
				"x": 2.0247678719,
				"y": -1.0932176131,
				"z": -0.8761666111,
				"element": "N" 
			},
			{
				"x": 0.65156085,
				"y": -1.1568175113,
				"z": -0.9831774027,
				"element": "C" 
			},
			{
				"x": 0.0033276024,
				"y": -1.813048396,
				"z": -1.9113786916,
				"element": "N" 
			},
			{
				"x": -1.3363611209,
				"y": -1.5109049472,
				"z": -1.7005020862,
				"element": "C" 
			},
			{
				"x": -1.4851456931,
				"y": -0.6447522405,
				"z": -0.5934234849,
				"element": "C" 
			},
			{
				"x": -2.7281178785,
				"y": -0.2163621365,
				"z": -0.1364076751,
				"element": "C" 
			},
			{
				"x": -3.8490354513,
				"y": -0.6654352795,
				"z": -0.8399861029,
				"element": "C" 
			},
			{
				"x": -3.7202878938,
				"y": -1.517920374,
				"z": -1.9489531417,
				"element": "C" 
			},
			{
				"x": -2.4696995178,
				"y": -1.9522529228,
				"z": -2.3888721285,
				"element": "C" 
			},
			{
				"x": -0.1773903549,
				"y": -0.4200438505,
				"z": -0.129582424,
				"element": "N" 
			},
			{
				"x": 0.2053817836,
				"y": 0.5346663073,
				"z": 0.8423985497,
				"element": "C" 
			},
			{
				"x": 1.0578245176,
				"y": 0.1992059928,
				"z": 1.8994969557,
				"element": "C" 
			},
			{
				"x": 1.5465927645,
				"y": -1.0658957539,
				"z": 1.9705106926,
				"element": "F" 
			},
			{
				"x": 1.4402615621,
				"y": 1.1144926717,
				"z": 2.8692299158,
				"element": "C" 
			},
			{
				"x": 0.9370883448,
				"y": 2.414073688,
				"z": 2.8068887918,
				"element": "C" 
			},
			{
				"x": 0.075010118,
				"y": 2.7774769988,
				"z": 1.7698637351,
				"element": "C" 
			},
			{
				"x": -0.281374544,
				"y": 1.848647312,
				"z": 0.7937432137,
				"element": "C" 
			},
			{
				"x": 2.3813772564,
				"y": -1.2073455105,
				"z": 0.0644971573,
				"element": "H" 
			},
			{
				"x": 2.4575140146,
				"y": -1.7299783838,
				"z": -1.5332844505,
				"element": "H" 
			},
			{
				"x": -2.828600048,
				"y": 0.4348073541,
				"z": 0.7258214601,
				"element": "H" 
			},
			{
				"x": -4.8371230057,
				"y": -0.3494005404,
				"z": -0.5190416934,
				"element": "H" 
			},
			{
				"x": -4.6139789269,
				"y": -1.84748572,
				"z": -2.4709340225,
				"element": "H" 
			},
			{
				"x": -2.3648692514,
				"y": -2.6186985512,
				"z": -3.2388952641,
				"element": "H" 
			},
			{
				"x": 2.1099179439,
				"y": 0.7932607861,
				"z": 3.659589651,
				"element": "H" 
			},
			{
				"x": 1.2222366151,
				"y": 3.1376146542,
				"z": 3.5638348299,
				"element": "H" 
			},
			{
				"x": -0.3131507448,
				"y": 3.7893325753,
				"z": 1.7125333689,
				"element": "H" 
			},
			{
				"x": -0.936626814,
				"y": 2.1276813909,
				"z": -0.0242031424,
				"element": "H" 
			}
		],
		 "valence_orbital": [ 
			{
				"type": "occ",
				"energy": -0.27535,
				"method": "rhf"
			},
			{
				"type": "occ",
				"energy": -0.26808,
				"method": "rhf"
			},
			{
				"type": "occ",
				"energy": -0.25792,
				"method": "rhf"
			},
			{
				"type": "occ",
				"energy": -0.21578,
				"method": "rhf"
			},
			{
				"type": "occ",
				"energy": -0.1998,
				"method": "rhf"
			},
			{
				"type": "unocc",
				"energy": -0.03072,
				"method": "rhf"
			},
			{
				"type": "unocc",
				"energy": -0.018,
				"method": "rhf"
			},
			{
				"type": "unocc",
				"energy": 0.00206,
				"method": "rhf"
			},
			{
				"type": "unocc",
				"energy": 0.02969,
				"method": "rhf"
			},
			{
				"type": "unocc",
				"energy": 0.06475,
				"method": "rhf"
			}
		],
		"cosmo_sigma_profile": { 
			"-0.025": 0.0,
			"-0.024": 0.0,
			"-0.023": 0.0,
			"-0.022": 0.0,
			"-0.021": 0.0,
			"-0.02": 0.0,
			"-0.019": 0.0,
			"-0.018": 0.0,
			"-0.017": 0.0,
			"-0.016": 0.0,
			"-0.015": 0.0,
			"-0.014": 0.240521559394,
			"-0.013": 0.950840916378,
			"-0.012": 1.37457558876,
			"-0.011": 2.51545914498,
			"-0.01": 1.74023842582,
			"-0.009": 1.63958885701,
			"-0.008": 3.06513968092,
			"-0.007": 7.54794853089,
			"-0.006": 12.6094614743,
			"-0.005": 18.0251960318,
			"-0.004": 16.0141743803,
			"-0.003": 18.1002003554,
			"-0.002": 15.2955088022,
			"-0.001": 17.433213704,
			"0.0": 18.5421200563,
			"0.001": 18.975690119,
			"0.002": 19.1420929615,
			"0.003": 21.2918159566,
			"0.004": 13.7098825807,
			"0.005": 12.2213255058,
			"0.006": 9.8701290396,
			"0.007": 5.88529224133,
			"0.008": 1.81197289951,
			"0.009": 1.77510824243,
			"0.01": 1.83294185687,
			"0.011": 1.20511538547,
			"0.012": 2.39525804652,
			"0.013": 0.92685695556,
			"0.014": 0.885137689121,
			"0.015": 0.863896008414,
			"0.016": 1.22606025508,
			"0.017": 0.722143214052,
			"0.018": 0.0485503230019,
			"0.019": 0.0,
			"0.02": 0.0,
			"0.021": 0.0,
			"0.022": 0.0,
			"0.023": 0.0,
			"0.024": 0.0,
			"0.025": 0.0
		}
	}
}
