{
	 "smiles": "CC1(C)[C@@H](C=C(Cl)Cl)[C@H]1C(=O)OC(C#N)C1=CC=CC(OC2=CC=CC=C2)=C1", 
	 "Tm": 352.15, 
	 "num_atms": 47, 
	 "gaussian": { 
		 "optdone": 1, 
		 "sigma_profile": "yes", 
		 "theory": "DFT", 
		 "functional": "B3LYP", 
		 "basiset": "6-31G**", 
		 "properties": { 
			 "R2extent": 16069.0637, 
			 "electric_dipole_moment_norm": 4.24946690657, 
			 "electric_quadrupole_moment_norm": 15.9859777124, 
			 "total_energy": -2050.52993971, 
			 "HOMO_LUMO_gap": 0.19236, 
			 "cosmo_polarized_energy": -14.57, 
			 "cosmo_cavitation_energy": 56.63, 
			 "cosmo_dispersion_energy": -35.42, 
			 "cosmo_repulsion_energy": 2.78, 
			 "cosmo_total_nonelectrostatic_energy": 23.98, 
			 "SMD_solvation_energy": 11.4 
		},
		"coords": [
			{
				"x": 4.1110165214,
				"y": 0.4596264675,
				"z": 3.2127706878,
				"element": "C" 
			},
			{
				"x": 3.4069950024,
				"y": -0.0173567495,
				"z": 1.9502446597,
				"element": "C" 
			},
			{
				"x": 2.1291016509,
				"y": -0.7865916697,
				"z": 2.2417053753,
				"element": "C" 
			},
			{
				"x": 4.3009115442,
				"y": -0.4031284223,
				"z": 0.7880472338,
				"element": "C" 
			},
			{
				"x": 4.0136372205,
				"y": -1.532915524,
				"z": -0.1166434375,
				"element": "C" 
			},
			{
				"x": 4.9306173979,
				"y": -2.3787474018,
				"z": -0.5989717197,
				"element": "C" 
			},
			{
				"x": 4.5024118943,
				"y": -3.7001814122,
				"z": -1.6534980871,
				"element": "Cl" 
			},
			{
				"x": 6.6400137735,
				"y": -2.2808103577,
				"z": -0.2469809163,
				"element": "Cl" 
			},
			{
				"x": 3.5190212279,
				"y": 0.9298126751,
				"z": 0.7522746959,
				"element": "C" 
			},
			{
				"x": 2.4328558217,
				"y": 1.2913194015,
				"z": -0.1943019607,
				"element": "C" 
			},
			{
				"x": 2.2520584626,
				"y": 2.4269410416,
				"z": -0.5837476255,
				"element": "O" 
			},
			{
				"x": 1.6514974195,
				"y": 0.2424218195,
				"z": -0.5920877655,
				"element": "O" 
			},
			{
				"x": 0.5610861641,
				"y": 0.5755717623,
				"z": -1.4997927294,
				"element": "C" 
			},
			{
				"x": 0.5125153532,
				"y": -0.5064170557,
				"z": -2.4938683929,
				"element": "C" 
			},
			{
				"x": 0.4574406352,
				"y": -1.3493130338,
				"z": -3.2889798006,
				"element": "N" 
			},
			{
				"x": -0.7416818254,
				"y": 0.7557876719,
				"z": -0.741722419,
				"element": "C" 
			},
			{
				"x": -1.108397996,
				"y": 2.0416190596,
				"z": -0.3311626305,
				"element": "C" 
			},
			{
				"x": -2.2805355671,
				"y": 2.2161004903,
				"z": 0.4073729314,
				"element": "C" 
			},
			{
				"x": -3.0846875339,
				"y": 1.1264956327,
				"z": 0.7288182344,
				"element": "C" 
			},
			{
				"x": -2.7116263793,
				"y": -0.1574343612,
				"z": 0.3139771734,
				"element": "C" 
			},
			{
				"x": -3.5340842215,
				"y": -1.1809312037,
				"z": 0.7182520878,
				"element": "O" 
			},
			{
				"x": -3.5307391203,
				"y": -2.4041617724,
				"z": 0.0618864412,
				"element": "C" 
			},
			{
				"x": -3.3945226852,
				"y": -3.5486858909,
				"z": 0.8469599562,
				"element": "C" 
			},
			{
				"x": -3.472879855,
				"y": -4.8048260456,
				"z": 0.2437616184,
				"element": "C" 
			},
			{
				"x": -3.6769537074,
				"y": -4.914561382,
				"z": -1.1330039133,
				"element": "C" 
			},
			{
				"x": -3.8126649837,
				"y": -3.7597588354,
				"z": -1.9072385179,
				"element": "C" 
			},
			{
				"x": -3.7474702107,
				"y": -2.4982307431,
				"z": -1.3151365017,
				"element": "C" 
			},
			{
				"x": -1.537323224,
				"y": -0.3496207131,
				"z": -0.4181376591,
				"element": "C" 
			},
			{
				"x": 3.462454778,
				"y": 1.1294086168,
				"z": 3.7886312557,
				"element": "H" 
			},
			{
				"x": 4.3664741864,
				"y": -0.3928056104,
				"z": 3.8521526436,
				"element": "H" 
			},
			{
				"x": 5.0359932597,
				"y": 0.9983327989,
				"z": 2.9854958149,
				"element": "H" 
			},
			{
				"x": 1.4441687343,
				"y": -0.1667209077,
				"z": 2.8307062494,
				"element": "H" 
			},
			{
				"x": 2.3660999611,
				"y": -1.6762961619,
				"z": 2.8355173626,
				"element": "H" 
			},
			{
				"x": 1.5995556131,
				"y": -1.1032812023,
				"z": 1.3450716237,
				"element": "H" 
			},
			{
				"x": 5.3613565846,
				"y": -0.2479540094,
				"z": 0.9620476346,
				"element": "H" 
			},
			{
				"x": 2.9905262616,
				"y": -1.7063220069,
				"z": -0.4265347356,
				"element": "H" 
			},
			{
				"x": 4.1331250926,
				"y": 1.8085946014,
				"z": 0.920660385,
				"element": "H" 
			},
			{
				"x": 0.8272220261,
				"y": 1.508644336,
				"z": -2.0040380522,
				"element": "H" 
			},
			{
				"x": -0.4762851482,
				"y": 2.8882993258,
				"z": -0.5771185939,
				"element": "H" 
			},
			{
				"x": -2.5739717279,
				"y": 3.2111165306,
				"z": 0.7280003405,
				"element": "H" 
			},
			{
				"x": -4.0022068802,
				"y": 1.2444476424,
				"z": 1.2955502031,
				"element": "H" 
			},
			{
				"x": -3.2364822317,
				"y": -3.4393717077,
				"z": 1.9147986492,
				"element": "H" 
			},
			{
				"x": -3.3688720844,
				"y": -5.6979767539,
				"z": 0.8528328046,
				"element": "H" 
			},
			{
				"x": -3.7311844295,
				"y": -5.892860765,
				"z": -1.6004059187,
				"element": "H" 
			},
			{
				"x": -3.9757569965,
				"y": -3.8375123207,
				"z": -2.9779945724,
				"element": "H" 
			},
			{
				"x": -3.8630938505,
				"y": -1.5975310488,
				"z": -1.9088347758,
				"element": "H" 
			},
			{
				"x": -1.2542359284,
				"y": -1.3445348052,
				"z": -0.743235337,
				"element": "H" 
			}
		],
		 "valence_orbital": [ 
			{
				"type": "occ",
				"energy": -0.26974,
				"method": "rhf"
			},
			{
				"type": "occ",
				"energy": -0.26074,
				"method": "rhf"
			},
			{
				"type": "occ",
				"energy": -0.25731,
				"method": "rhf"
			},
			{
				"type": "occ",
				"energy": -0.24144,
				"method": "rhf"
			},
			{
				"type": "occ",
				"energy": -0.23002,
				"method": "rhf"
			},
			{
				"type": "unocc",
				"energy": -0.03766,
				"method": "rhf"
			},
			{
				"type": "unocc",
				"energy": -0.02692,
				"method": "rhf"
			},
			{
				"type": "unocc",
				"energy": -0.01793,
				"method": "rhf"
			},
			{
				"type": "unocc",
				"energy": -0.00901,
				"method": "rhf"
			},
			{
				"type": "unocc",
				"energy": -0.00417,
				"method": "rhf"
			}
		],
		"cosmo_sigma_profile": { 
			"-0.025": 0.0,
			"-0.024": 0.0,
			"-0.023": 0.0,
			"-0.022": 0.0,
			"-0.021": 0.0,
			"-0.02": 0.0,
			"-0.019": 0.0,
			"-0.018": 0.0,
			"-0.017": 0.0,
			"-0.016": 0.0,
			"-0.015": 0.0,
			"-0.014": 0.0,
			"-0.013": 0.0,
			"-0.012": 0.0,
			"-0.011": 0.324374816582,
			"-0.01": 1.63410448323,
			"-0.009": 0.89229653665,
			"-0.008": 1.89017024998,
			"-0.007": 9.26502136472,
			"-0.006": 21.5541297424,
			"-0.005": 24.3634460752,
			"-0.004": 34.881539937,
			"-0.003": 38.1209954927,
			"-0.002": 37.8679453055,
			"-0.001": 41.7685418479,
			"0.0": 49.414326528,
			"0.001": 38.5840183863,
			"0.002": 37.1989529518,
			"0.003": 41.5044536924,
			"0.004": 31.3552333464,
			"0.005": 12.3780763034,
			"0.006": 6.18192535431,
			"0.007": 5.06104755506,
			"0.008": 5.31107732086,
			"0.009": 5.1899665155,
			"0.01": 4.97767045961,
			"0.011": 4.90072154541,
			"0.012": 2.92549112412,
			"0.013": 0.116901263807,
			"0.014": 0.0,
			"0.015": 0.0,
			"0.016": 0.0,
			"0.017": 0.0,
			"0.018": 0.0,
			"0.019": 0.0,
			"0.02": 0.0,
			"0.021": 0.0,
			"0.022": 0.0,
			"0.023": 0.0,
			"0.024": 0.0,
			"0.025": 0.0
		}
	}
}
