{
	 "smiles": "CC1=CC(Br)=C(OC2=C(C=CC=N2)C#N)C=C1", 
	 "Tm": 390.15, 
	 "num_atms": 26, 
	 "gaussian": { 
		 "optdone": 1, 
		 "sigma_profile": "yes", 
		 "theory": "DFT", 
		 "functional": "B3LYP", 
		 "basiset": "6-31G**", 
		 "properties": { 
			 "R2extent": 5683.4167, 
			 "electric_dipole_moment_norm": 5.04653593963, 
			 "electric_quadrupole_moment_norm": 27.1564050601, 
			 "total_energy": -3256.91515671, 
			 "HOMO_LUMO_gap": 0.1794, 
			 "cosmo_polarized_energy": -13.36, 
			 "cosmo_cavitation_energy": 34.7, 
			 "cosmo_dispersion_energy": -23.93, 
			 "cosmo_repulsion_energy": 1.89, 
			 "cosmo_total_nonelectrostatic_energy": 12.65, 
			 "SMD_solvation_energy": 5.55 
		},
		"coords": [
			{
				"x": -3.2010469861,
				"y": 1.8166463616,
				"z": 3.9675302908,
				"element": "C" 
			},
			{
				"x": -2.0696318228,
				"y": 1.52826836,
				"z": 3.0087593912,
				"element": "C" 
			},
			{
				"x": -1.2410076959,
				"y": 0.4157250342,
				"z": 3.2101544473,
				"element": "C" 
			},
			{
				"x": -0.1942065406,
				"y": 0.1368171386,
				"z": 2.3362275532,
				"element": "C" 
			},
			{
				"x": 0.9194063825,
				"y": -1.3740295005,
				"z": 2.6529498745,
				"element": "Br" 
			},
			{
				"x": 0.0419612834,
				"y": 0.968419709,
				"z": 1.2382989508,
				"element": "C" 
			},
			{
				"x": 1.1392701643,
				"y": 0.7689009233,
				"z": 0.406838626,
				"element": "O" 
			},
			{
				"x": 1.0346974189,
				"y": -0.0840026354,
				"z": -0.6426484188,
				"element": "C" 
			},
			{
				"x": 2.2063557297,
				"y": -0.273976627,
				"z": -1.4153100659,
				"element": "C" 
			},
			{
				"x": 2.1193372441,
				"y": -1.1446409114,
				"z": -2.5070031854,
				"element": "C" 
			},
			{
				"x": 0.9080330464,
				"y": -1.776006954,
				"z": -2.7836547745,
				"element": "C" 
			},
			{
				"x": -0.1761796596,
				"y": -1.5058414978,
				"z": -1.9522152442,
				"element": "C" 
			},
			{
				"x": -0.1185958932,
				"y": -0.6745700823,
				"z": -0.9022336169,
				"element": "N" 
			},
			{
				"x": 3.4260119984,
				"y": 0.3979427994,
				"z": -1.0947908265,
				"element": "C" 
			},
			{
				"x": 4.4311356894,
				"y": 0.9349397824,
				"z": -0.8616254184,
				"element": "N" 
			},
			{
				"x": -0.768745756,
				"y": 2.0785059187,
				"z": 1.0301578469,
				"element": "C" 
			},
			{
				"x": -1.8156485852,
				"y": 2.3546014926,
				"z": 1.9085311949,
				"element": "C" 
			},
			{
				"x": -3.7414649766,
				"y": 2.7229839825,
				"z": 3.6823821181,
				"element": "H" 
			},
			{
				"x": -2.8317474119,
				"y": 1.9542756014,
				"z": 4.9898870468,
				"element": "H" 
			},
			{
				"x": -3.9213448696,
				"y": 0.9912078916,
				"z": 3.9926302165,
				"element": "H" 
			},
			{
				"x": -1.4073946334,
				"y": -0.2414147468,
				"z": 4.0574776681,
				"element": "H" 
			},
			{
				"x": 2.9972934792,
				"y": -1.3153468458,
				"z": -3.1211217012,
				"element": "H" 
			},
			{
				"x": 0.8080021872,
				"y": -2.457239355,
				"z": -3.6208697147,
				"element": "H" 
			},
			{
				"x": -1.1417828965,
				"y": -1.9739785419,
				"z": -2.1307002122,
				"element": "H" 
			},
			{
				"x": -0.5638842637,
				"y": 2.7208459102,
				"z": 0.1801469899,
				"element": "H" 
			},
			{
				"x": -2.4408226324,
				"y": 3.2256667925,
				"z": 1.7348009639,
				"element": "H" 
			}
		],
		 "valence_orbital": [ 
			{
				"type": "occ",
				"energy": -0.2899,
				"method": "rhf"
			},
			{
				"type": "occ",
				"energy": -0.28784,
				"method": "rhf"
			},
			{
				"type": "occ",
				"energy": -0.25671,
				"method": "rhf"
			},
			{
				"type": "occ",
				"energy": -0.25518,
				"method": "rhf"
			},
			{
				"type": "occ",
				"energy": -0.24302,
				"method": "rhf"
			},
			{
				"type": "unocc",
				"energy": -0.06362,
				"method": "rhf"
			},
			{
				"type": "unocc",
				"energy": -0.02793,
				"method": "rhf"
			},
			{
				"type": "unocc",
				"energy": -0.01878,
				"method": "rhf"
			},
			{
				"type": "unocc",
				"energy": -0.01351,
				"method": "rhf"
			},
			{
				"type": "unocc",
				"energy": 0.00336,
				"method": "rhf"
			}
		],
		"cosmo_sigma_profile": { 
			"-0.025": 0.0,
			"-0.024": 0.0,
			"-0.023": 0.0,
			"-0.022": 0.0,
			"-0.021": 0.0,
			"-0.02": 0.0,
			"-0.019": 0.0,
			"-0.018": 0.0,
			"-0.017": 0.0,
			"-0.016": 0.0,
			"-0.015": 0.0,
			"-0.014": 0.0,
			"-0.013": 0.0,
			"-0.012": 0.0,
			"-0.011": 0.0,
			"-0.01": 0.328786838294,
			"-0.009": 2.61463711923,
			"-0.008": 7.1131927366,
			"-0.007": 10.8928258193,
			"-0.006": 13.0180784675,
			"-0.005": 15.7022631321,
			"-0.004": 18.4488393559,
			"-0.003": 20.6031462364,
			"-0.002": 22.8214366691,
			"-0.001": 25.3986185971,
			"0.0": 24.9962882643,
			"0.001": 22.3991407971,
			"0.002": 18.9746369511,
			"0.003": 19.6390229344,
			"0.004": 17.5794862785,
			"0.005": 9.82907279336,
			"0.006": 7.06251425344,
			"0.007": 4.62297916714,
			"0.008": 5.25942607263,
			"0.009": 4.58341173324,
			"0.01": 3.78255738715,
			"0.011": 3.66379978592,
			"0.012": 3.03599850373,
			"0.013": 0.929875484536,
			"0.014": 0.0,
			"0.015": 0.0,
			"0.016": 0.0,
			"0.017": 0.0,
			"0.018": 0.0,
			"0.019": 0.0,
			"0.02": 0.0,
			"0.021": 0.0,
			"0.022": 0.0,
			"0.023": 0.0,
			"0.024": 0.0,
			"0.025": 0.0
		}
	}
}
