{
	 "smiles": "OC(=O)C1=C2C=CC=CC2=NC(O)=C1", 
	 "Tm": 624.15, 
	 "num_atms": 21, 
	 "gaussian": { 
		 "optdone": 1, 
		 "sigma_profile": "yes", 
		 "theory": "DFT", 
		 "functional": "B3LYP", 
		 "basiset": "6-31G**", 
		 "properties": { 
			 "R2extent": 3118.6171, 
			 "electric_dipole_moment_norm": 2.12216872091, 
			 "electric_quadrupole_moment_norm": 19.1065161913, 
			 "total_energy": -665.716433638, 
			 "HOMO_LUMO_gap": 0.16111, 
			 "cosmo_polarized_energy": -19.36, 
			 "cosmo_cavitation_energy": 25.76, 
			 "cosmo_dispersion_energy": -19.35, 
			 "cosmo_repulsion_energy": 1.5, 
			 "cosmo_total_nonelectrostatic_energy": 7.91, 
			 "SMD_solvation_energy": 4.24 
		},
		"coords": [
			{
				"x": 2.1826800958,
				"y": 0.4648123732,
				"z": -1.9882516651,
				"element": "O" 
			},
			{
				"x": 2.095133144,
				"y": 0.9839102873,
				"z": -0.737242513,
				"element": "C" 
			},
			{
				"x": 3.092763747,
				"y": 1.1765312798,
				"z": -0.0860935499,
				"element": "O" 
			},
			{
				"x": 0.7146385183,
				"y": 1.3485148879,
				"z": -0.252405984,
				"element": "C" 
			},
			{
				"x": -0.4777251053,
				"y": 0.607240451,
				"z": -0.5429928594,
				"element": "C" 
			},
			{
				"x": -0.5200877152,
				"y": -0.6448568216,
				"z": -1.2180196308,
				"element": "C" 
			},
			{
				"x": -1.7223130763,
				"y": -1.2784385391,
				"z": -1.4522985311,
				"element": "C" 
			},
			{
				"x": -2.9358626146,
				"y": -0.6965791283,
				"z": -1.0195616295,
				"element": "C" 
			},
			{
				"x": -2.9280608401,
				"y": 0.4985774078,
				"z": -0.3359789365,
				"element": "C" 
			},
			{
				"x": -1.7084713556,
				"y": 1.1733030625,
				"z": -0.0665410208,
				"element": "C" 
			},
			{
				"x": -1.7726220336,
				"y": 2.3313231649,
				"z": 0.6484504483,
				"element": "N" 
			},
			{
				"x": -0.6521123142,
				"y": 2.9433443279,
				"z": 0.9363562837,
				"element": "C" 
			},
			{
				"x": -0.7752508224,
				"y": 4.0760779057,
				"z": 1.6704790671,
				"element": "O" 
			},
			{
				"x": 0.6274417915,
				"y": 2.4907662674,
				"z": 0.5079208138,
				"element": "C" 
			},
			{
				"x": 1.3126119167,
				"y": 0.4723056456,
				"z": -2.4145012157,
				"element": "H" 
			},
			{
				"x": 0.4028060292,
				"y": -1.1317035465,
				"z": -1.5163912981,
				"element": "H" 
			},
			{
				"x": -1.7345483102,
				"y": -2.237214525,
				"z": -1.961575844,
				"element": "H" 
			},
			{
				"x": -3.875304949,
				"y": -1.2052756473,
				"z": -1.2143121058,
				"element": "H" 
			},
			{
				"x": -3.840929465,
				"y": 0.9569604573,
				"z": 0.029004428,
				"element": "H" 
			},
			{
				"x": 0.1005064491,
				"y": 4.4469093021,
				"z": 1.8409828455,
				"element": "H" 
			},
			{
				"x": 1.5340069099,
				"y": 3.0365913877,
				"z": 0.7517728972,
				"element": "H" 
			}
		],
		 "valence_orbital": [ 
			{
				"type": "occ",
				"energy": -0.31862,
				"method": "rhf"
			},
			{
				"type": "occ",
				"energy": -0.28784,
				"method": "rhf"
			},
			{
				"type": "occ",
				"energy": -0.27514,
				"method": "rhf"
			},
			{
				"type": "occ",
				"energy": -0.25844,
				"method": "rhf"
			},
			{
				"type": "occ",
				"energy": -0.2408,
				"method": "rhf"
			},
			{
				"type": "unocc",
				"energy": -0.07969,
				"method": "rhf"
			},
			{
				"type": "unocc",
				"energy": -0.02746,
				"method": "rhf"
			},
			{
				"type": "unocc",
				"energy": -0.01921,
				"method": "rhf"
			},
			{
				"type": "unocc",
				"energy": 0.03504,
				"method": "rhf"
			},
			{
				"type": "unocc",
				"energy": 0.05684,
				"method": "rhf"
			}
		],
		"cosmo_sigma_profile": { 
			"-0.025": 0.0,
			"-0.024": 0.0,
			"-0.023": 0.0,
			"-0.022": 0.0,
			"-0.021": 0.0,
			"-0.02": 0.0515511406592,
			"-0.019": 0.921920816637,
			"-0.018": 1.71104195897,
			"-0.017": 1.81784407809,
			"-0.016": 1.75170641161,
			"-0.015": 1.73950472313,
			"-0.014": 2.31081064644,
			"-0.013": 2.23828271028,
			"-0.012": 1.35477736787,
			"-0.011": 2.34384011529,
			"-0.01": 2.20379875669,
			"-0.009": 1.944333196,
			"-0.008": 2.62940076498,
			"-0.007": 5.51401371161,
			"-0.006": 12.360375638,
			"-0.005": 11.2000383497,
			"-0.004": 11.8793624496,
			"-0.003": 8.89377970732,
			"-0.002": 11.704545406,
			"-0.001": 12.7853065994,
			"0.0": 11.2043772818,
			"0.001": 12.0238031317,
			"0.002": 12.7606116967,
			"0.003": 15.7088072726,
			"0.004": 8.7091776855,
			"0.005": 4.31924161523,
			"0.006": 4.94115541749,
			"0.007": 4.92862537637,
			"0.008": 4.81825077946,
			"0.009": 6.65864352505,
			"0.01": 7.44716940057,
			"0.011": 8.35052672531,
			"0.012": 4.29616052941,
			"0.013": 1.78498838053,
			"0.014": 0.922779041308,
			"0.015": 0.763739926161,
			"0.016": 0.235544508557,
			"0.017": 0.0,
			"0.018": 0.0,
			"0.019": 0.0,
			"0.02": 0.0,
			"0.021": 0.0,
			"0.022": 0.0,
			"0.023": 0.0,
			"0.024": 0.0,
			"0.0": 0.0
		}
	}
}
