{
	 "smiles": "CCOCCCNC(=S)NCC1=CC=C(OC)C=C1", 
	 "Tm": 313.15, 
	 "num_atms": 41, 
	 "gaussian": { 
		 "optdone": 1, 
		 "sigma_profile": "yes", 
		 "theory": "DFT", 
		 "functional": "B3LYP", 
		 "basiset": "6-31G**", 
		 "properties": { 
			 "R2extent": 9201.942, 
			 "electric_dipole_moment_norm": 6.61429160606, 
			 "electric_quadrupole_moment_norm": 26.2067694613, 
			 "total_energy": -1204.87810721, 
			 "HOMO_LUMO_gap": 0.18499, 
			 "cosmo_polarized_energy": -19.81, 
			 "cosmo_cavitation_energy": 45.91, 
			 "cosmo_dispersion_energy": -31.17, 
			 "cosmo_repulsion_energy": 2.46, 
			 "cosmo_total_nonelectrostatic_energy": 17.21, 
			 "SMD_solvation_energy": 6.92 
		},
		"coords": [
			{
				"x": -4.8464427546,
				"y": -0.6028895249,
				"z": 1.4290671041,
				"element": "C" 
			},
			{
				"x": -4.8859056169,
				"y": -1.838961444,
				"z": 0.5309482516,
				"element": "C" 
			},
			{
				"x": -4.052965467,
				"y": -1.7395162719,
				"z": -0.6158516531,
				"element": "O" 
			},
			{
				"x": -2.6695009639,
				"y": -1.8991093544,
				"z": -0.3609051522,
				"element": "C" 
			},
			{
				"x": -1.9569664651,
				"y": -1.9813442503,
				"z": -1.7075203511,
				"element": "C" 
			},
			{
				"x": -0.4377498406,
				"y": -2.1155110572,
				"z": -1.5952947904,
				"element": "C" 
			},
			{
				"x": -0.0681746848,
				"y": -3.3926081953,
				"z": -0.9551192797,
				"element": "N" 
			},
			{
				"x": 1.2144730553,
				"y": -3.7183250382,
				"z": -0.5771173109,
				"element": "C" 
			},
			{
				"x": 1.8779663876,
				"y": -5.2241874885,
				"z": -0.9256302691,
				"element": "S" 
			},
			{
				"x": 1.9292402231,
				"y": -2.7718715026,
				"z": 0.1056240823,
				"element": "N" 
			},
			{
				"x": 1.3742184738,
				"y": -1.8115909561,
				"z": 1.0599280768,
				"element": "C" 
			},
			{
				"x": 1.7685506727,
				"y": -0.3630560665,
				"z": 0.8093836602,
				"element": "C" 
			},
			{
				"x": 1.4755822366,
				"y": 0.6035758099,
				"z": 1.7759263016,
				"element": "C" 
			},
			{
				"x": 1.8025123111,
				"y": 1.9478519435,
				"z": 1.5897220124,
				"element": "C" 
			},
			{
				"x": 2.4461696423,
				"y": 2.3452545229,
				"z": 0.4101869017,
				"element": "C" 
			},
			{
				"x": 2.8161561415,
				"y": 3.6262884345,
				"z": 0.1205480781,
				"element": "O" 
			},
			{
				"x": 2.5362065268,
				"y": 4.63905598,
				"z": 1.0736351429,
				"element": "C" 
			},
			{
				"x": 2.7520536055,
				"y": 1.3849043719,
				"z": -0.5632122688,
				"element": "C" 
			},
			{
				"x": 2.4158565272,
				"y": 0.0501710173,
				"z": -0.3624436924,
				"element": "C" 
			},
			{
				"x": -5.0958433722,
				"y": 0.2940277744,
				"z": 0.853985208,
				"element": "H" 
			},
			{
				"x": -3.8610193757,
				"y": -0.4561697821,
				"z": 1.8822651687,
				"element": "H" 
			},
			{
				"x": -5.5730562055,
				"y": -0.7042272826,
				"z": 2.2424579776,
				"element": "H" 
			},
			{
				"x": -5.899099115,
				"y": -1.9819544243,
				"z": 0.1407006465,
				"element": "H" 
			},
			{
				"x": -4.6251718651,
				"y": -2.740205537,
				"z": 1.1102757587,
				"element": "H" 
			},
			{
				"x": -2.488096749,
				"y": -2.8134622107,
				"z": 0.2266785263,
				"element": "H" 
			},
			{
				"x": -2.2665318628,
				"y": -1.0522180266,
				"z": 0.2199959717,
				"element": "H" 
			},
			{
				"x": -2.1853891606,
				"y": -1.0772491921,
				"z": -2.2827042428,
				"element": "H" 
			},
			{
				"x": -2.3714858736,
				"y": -2.8229803951,
				"z": -2.2771194294,
				"element": "H" 
			},
			{
				"x": -0.0274883535,
				"y": -1.2831303462,
				"z": -1.0215379028,
				"element": "H" 
			},
			{
				"x": 0.0101228481,
				"y": -2.0591612988,
				"z": -2.5982244723,
				"element": "H" 
			},
			{
				"x": -0.4917338436,
				"y": -4.1901128196,
				"z": -1.4162074689,
				"element": "H" 
			},
			{
				"x": 2.8621992459,
				"y": -3.101046766,
				"z": 0.3163503114,
				"element": "H" 
			},
			{
				"x": 1.6987000082,
				"y": -2.1024781824,
				"z": 2.0686760089,
				"element": "H" 
			},
			{
				"x": 0.2864077577,
				"y": -1.9253024155,
				"z": 1.0546491551,
				"element": "H" 
			},
			{
				"x": 0.982506026,
				"y": 0.3090123558,
				"z": 2.7002484264,
				"element": "H" 
			},
			{
				"x": 1.5586505356,
				"y": 2.666579431,
				"z": 2.3630387013,
				"element": "H" 
			},
			{
				"x": 3.0470847544,
				"y": 4.451627153,
				"z": 2.0270295422,
				"element": "H" 
			},
			{
				"x": 2.9107778884,
				"y": 5.5693277682,
				"z": 0.6439538562,
				"element": "H" 
			},
			{
				"x": 1.4583870984,
				"y": 4.7362167466,
				"z": 1.2581388601,
				"element": "H" 
			},
			{
				"x": 3.2564828244,
				"y": 1.7073159582,
				"z": -1.4682943016,
				"element": "H" 
			},
			{
				"x": 2.6637167792,
				"y": -0.6868394386,
				"z": -1.1199311457,
				"element": "H" 
			}
		],
		 "valence_orbital": [ 
			{
				"type": "occ",
				"energy": -0.25932,
				"method": "rhf"
			},
			{
				"type": "occ",
				"energy": -0.25432,
				"method": "rhf"
			},
			{
				"type": "occ",
				"energy": -0.22269,
				"method": "rhf"
			},
			{
				"type": "occ",
				"energy": -0.21645,
				"method": "rhf"
			},
			{
				"type": "occ",
				"energy": -0.19846,
				"method": "rhf"
			},
			{
				"type": "unocc",
				"energy": -0.01347,
				"method": "rhf"
			},
			{
				"type": "unocc",
				"energy": -0.01228,
				"method": "rhf"
			},
			{
				"type": "unocc",
				"energy": 0.00384,
				"method": "rhf"
			},
			{
				"type": "unocc",
				"energy": 0.06538,
				"method": "rhf"
			},
			{
				"type": "unocc",
				"energy": 0.07865,
				"method": "rhf"
			}
		],
		"cosmo_sigma_profile": { 
			"-0.025": 0.0,
			"-0.024": 0.0,
			"-0.023": 0.0,
			"-0.022": 0.0,
			"-0.021": 0.0,
			"-0.02": 0.0,
			"-0.019": 0.0,
			"-0.018": 0.0,
			"-0.017": 0.0,
			"-0.016": 0.0,
			"-0.015": 0.0,
			"-0.014": 0.523375667659,
			"-0.013": 0.877286107768,
			"-0.012": 1.77946733855,
			"-0.011": 1.81618491309,
			"-0.01": 2.70495128624,
			"-0.009": 1.90915135853,
			"-0.008": 2.24499130707,
			"-0.007": 2.66395932857,
			"-0.006": 12.2488443772,
			"-0.005": 23.7258976321,
			"-0.004": 39.6630400896,
			"-0.003": 51.060675333,
			"-0.002": 38.4007503861,
			"-0.001": 29.4539365557,
			"0.0": 21.6649229454,
			"0.001": 18.4182277387,
			"0.002": 13.347036967,
			"0.003": 12.1302122171,
			"0.004": 15.040715481,
			"0.005": 15.0761424754,
			"0.006": 11.1442532075,
			"0.007": 6.8201004775,
			"0.008": 5.56549588939,
			"0.009": 7.08959404499,
			"0.01": 8.75489909746,
			"0.011": 8.7526535194,
			"0.012": 6.25047204009,
			"0.013": 2.973963916,
			"0.014": 0.374352877937,
			"0.015": 0.0,
			"0.016": 0.0,
			"0.017": 0.0,
			"0.018": 0.0,
			"0.019": 0.0,
			"0.02": 0.0,
			"0.021": 0.0,
			"0.022": 0.0,
			"0.023": 0.0,
			"0.024": 0.0,
			"0.025": 0.0
		}
	}
}
