{
	 "smiles": "CN1C=NN=C1S", 
	 "Tm": 440.65, 
	 "num_atms": 12, 
	 "gaussian": { 
		 "optdone": 1, 
		 "sigma_profile": "yes", 
		 "theory": "DFT", 
		 "functional": "B3LYP", 
		 "basiset": "6-31G**", 
		 "properties": { 
			 "R2extent": 1130.7557, 
			 "electric_dipole_moment_norm": 4.92394127707, 
			 "electric_quadrupole_moment_norm": 9.30208647294, 
			 "total_energy": -679.737349206, 
			 "HOMO_LUMO_gap": 0.23574, 
			 "cosmo_polarized_energy": -15.89, 
			 "cosmo_cavitation_energy": 17.83, 
			 "cosmo_dispersion_energy": -13.81, 
			 "cosmo_repulsion_energy": 1.1, 
			 "cosmo_total_nonelectrostatic_energy": 5.13, 
			 "SMD_solvation_energy": 1.48 
		},
		"coords": [
			{
				"x": -1.235153531,
				"y": -0.3576902518,
				"z": 1.325206908,
				"element": "C" 
			},
			{
				"x": -0.079465115,
				"y": 0.3639841195,
				"z": 0.8169301476,
				"element": "N" 
			},
			{
				"x": -0.0419393183,
				"y": 1.5970803186,
				"z": 0.2100616699,
				"element": "C" 
			},
			{
				"x": 1.1809610388,
				"y": 1.9249970394,
				"z": -0.1148309566,
				"element": "N" 
			},
			{
				"x": 2.0061526333,
				"y": 0.8867747002,
				"z": 0.2802169354,
				"element": "N" 
			},
			{
				"x": 1.2348299825,
				"y": -0.0245708188,
				"z": 0.8290592328,
				"element": "C" 
			},
			{
				"x": 1.7568557746,
				"y": -1.5690892417,
				"z": 1.5122649812,
				"element": "S" 
			},
			{
				"x": -1.3498809266,
				"y": -1.315267235,
				"z": 0.8088398147,
				"element": "H" 
			},
			{
				"x": -1.1350812982,
				"y": -0.5390516453,
				"z": 2.3993809288,
				"element": "H" 
			},
			{
				"x": -2.1284379106,
				"y": 0.2441108695,
				"z": 1.1521522403,
				"element": "H" 
			},
			{
				"x": -0.9285504176,
				"y": 2.1915356196,
				"z": 0.0396707133,
				"element": "H" 
			},
			{
				"x": 3.0507090882,
				"y": -1.3346134742,
				"z": 1.2239473846,
				"element": "H" 
			}
		],
		 "valence_orbital": [ 
			{
				"type": "occ",
				"energy": -0.31652,
				"method": "rhf"
			},
			{
				"type": "occ",
				"energy": -0.30779,
				"method": "rhf"
			},
			{
				"type": "occ",
				"energy": -0.29245,
				"method": "rhf"
			},
			{
				"type": "occ",
				"energy": -0.25563,
				"method": "rhf"
			},
			{
				"type": "occ",
				"energy": -0.23394,
				"method": "rhf"
			},
			{
				"type": "unocc",
				"energy": 0.0018,
				"method": "rhf"
			},
			{
				"type": "unocc",
				"energy": 0.01607,
				"method": "rhf"
			},
			{
				"type": "unocc",
				"energy": 0.04263,
				"method": "rhf"
			},
			{
				"type": "unocc",
				"energy": 0.05699,
				"method": "rhf"
			},
			{
				"type": "unocc",
				"energy": 0.09032,
				"method": "rhf"
			}
		],
		"cosmo_sigma_profile": { 
			"-0.025": 0.0,
			"-0.024": 0.0,
			"-0.023": 0.0,
			"-0.022": 0.0,
			"-0.021": 0.0,
			"-0.02": 0.0,
			"-0.019": 0.0,
			"-0.018": 0.0,
			"-0.017": 0.0,
			"-0.016": 0.0,
			"-0.015": 0.0,
			"-0.014": 0.0,
			"-0.013": 0.171346725304,
			"-0.012": 1.23891436759,
			"-0.011": 2.57470553,
			"-0.01": 4.3353971308,
			"-0.009": 3.96931095793,
			"-0.008": 4.9112223253,
			"-0.007": 7.7199244634,
			"-0.006": 10.3075636673,
			"-0.005": 11.4347923287,
			"-0.004": 14.1267712584,
			"-0.003": 6.23345161827,
			"-0.002": 6.03854446945,
			"-0.001": 5.79780184347,
			"0.0": 6.25906093939,
			"0.001": 7.24275318264,
			"0.002": 7.59780039551,
			"0.003": 4.20227040434,
			"0.004": 4.97721143952,
			"0.005": 4.60145155017,
			"0.006": 4.28175685797,
			"0.007": 3.21545787197,
			"0.008": 1.5171440553,
			"0.009": 1.96299698076,
			"0.01": 2.28684112351,
			"0.011": 2.65760521803,
			"0.012": 2.32518929475,
			"0.013": 3.38766233863,
			"0.014": 3.64252468609,
			"0.015": 2.65812717998,
			"0.016": 2.57184374388,
			"0.017": 0.834899480598,
			"0.018": 0.0,
			"0.019": 0.0,
			"0.02": 0.0,
			"0.021": 0.0,
			"0.022": 0.0,
			"0.023": 0.0,
			"0.024": 0.0,
			"0.025": 0.0
		}
	}
}
