{
	 "smiles": "OC(=O)COC1=C(C=C(Cl)C=C1)C1CCCCC1", 
	 "Tm": 441.15, 
	 "num_atms": 35, 
	 "gaussian": { 
		 "optdone": 1, 
		 "sigma_profile": "yes", 
		 "theory": "DFT", 
		 "functional": "B3LYP", 
		 "basiset": "6-31G**", 
		 "properties": { 
			 "R2extent": 6343.5742, 
			 "electric_dipole_moment_norm": 3.73975775285, 
			 "electric_quadrupole_moment_norm": 17.8861563507, 
			 "total_energy": -1229.61260694, 
			 "HOMO_LUMO_gap": 0.21182, 
			 "cosmo_polarized_energy": -13.12, 
			 "cosmo_cavitation_energy": 37.77, 
			 "cosmo_dispersion_energy": -26.75, 
			 "cosmo_repulsion_energy": 2.1, 
			 "cosmo_total_nonelectrostatic_energy": 13.12, 
			 "SMD_solvation_energy": 6.52 
		},
		"coords": [
			{
				"x": -3.2063750666,
				"y": -2.8598746079,
				"z": 1.6966025335,
				"element": "O" 
			},
			{
				"x": -3.0881339358,
				"y": -3.7587202521,
				"z": 0.7023595085,
				"element": "C" 
			},
			{
				"x": -3.3851714297,
				"y": -4.9198611286,
				"z": 0.8288057397,
				"element": "O" 
			},
			{
				"x": -2.5926192768,
				"y": -3.1819736391,
				"z": -0.6290976737,
				"element": "C" 
			},
			{
				"x": -2.0068488784,
				"y": -1.8896290145,
				"z": -0.4932702761,
				"element": "O" 
			},
			{
				"x": -0.6433795654,
				"y": -1.8010983978,
				"z": -0.2453028581,
				"element": "C" 
			},
			{
				"x": -0.0317239839,
				"y": -0.5742698528,
				"z": -0.5900613794,
				"element": "C" 
			},
			{
				"x": 1.3443499186,
				"y": -0.4692520678,
				"z": -0.3672202948,
				"element": "C" 
			},
			{
				"x": 2.0727664684,
				"y": -1.5228054244,
				"z": 0.1880805269,
				"element": "C" 
			},
			{
				"x": 3.8024221599,
				"y": -1.3293588936,
				"z": 0.4433783886,
				"element": "Cl" 
			},
			{
				"x": 1.4552614196,
				"y": -2.7158078795,
				"z": 0.5378946017,
				"element": "C" 
			},
			{
				"x": 0.083680316,
				"y": -2.8518628973,
				"z": 0.3151463324,
				"element": "C" 
			},
			{
				"x": -0.8735993188,
				"y": 0.5324658064,
				"z": -1.2211972938,
				"element": "C" 
			},
			{
				"x": -0.0854591773,
				"y": 1.6171991207,
				"z": -1.9977751391,
				"element": "C" 
			},
			{
				"x": 0.5277402884,
				"y": 2.7420118519,
				"z": -1.1392646942,
				"element": "C" 
			},
			{
				"x": -0.4891738267,
				"y": 3.3435404222,
				"z": -0.1591995204,
				"element": "C" 
			},
			{
				"x": -1.1421342743,
				"y": 2.2450286618,
				"z": 0.6903831634,
				"element": "C" 
			},
			{
				"x": -1.8351331038,
				"y": 1.2077360018,
				"z": -0.2021070545,
				"element": "C" 
			},
			{
				"x": -2.8988696719,
				"y": -1.9993591608,
				"z": 1.3612837319,
				"element": "H" 
			},
			{
				"x": -1.9121988686,
				"y": -3.8963512456,
				"z": -1.099782475,
				"element": "H" 
			},
			{
				"x": -3.4622945143,
				"y": -3.0536140914,
				"z": -1.2816127898,
				"element": "H" 
			},
			{
				"x": 1.8709057628,
				"y": 0.4341216285,
				"z": -0.6424430091,
				"element": "H" 
			},
			{
				"x": 2.0246399807,
				"y": -3.5276909488,
				"z": 0.9753632623,
				"element": "H" 
			},
			{
				"x": -0.3996715799,
				"y": -3.7822485128,
				"z": 0.5911171251,
				"element": "H" 
			},
			{
				"x": -1.5123841933,
				"y": 0.0198584956,
				"z": -1.9505488482,
				"element": "H" 
			},
			{
				"x": -0.7947415977,
				"y": 2.0815517641,
				"z": -2.6956373348,
				"element": "H" 
			},
			{
				"x": 0.6859341252,
				"y": 1.1483152669,
				"z": -2.6201548289,
				"element": "H" 
			},
			{
				"x": 0.923106956,
				"y": 3.5197284493,
				"z": -1.8036521216,
				"element": "H" 
			},
			{
				"x": 1.3851945562,
				"y": 2.3731818036,
				"z": -0.5640300788,
				"element": "H" 
			},
			{
				"x": -0.0008920745,
				"y": 4.0884858282,
				"z": 0.4798509781,
				"element": "H" 
			},
			{
				"x": -1.2709648961,
				"y": 3.8757162148,
				"z": -0.7201180577,
				"element": "H" 
			},
			{
				"x": -1.8712895956,
				"y": 2.6803119221,
				"z": 1.3839960931,
				"element": "H" 
			},
			{
				"x": -0.3775723771,
				"y": 1.7543250108,
				"z": 1.3084277276,
				"element": "H" 
			},
			{
				"x": -2.3329127646,
				"y": 0.4449358529,
				"z": 0.4038252824,
				"element": "H" 
			},
			{
				"x": -2.6276579806,
				"y": 1.7105639134,
				"z": -0.7734392674,
				"element": "H" 
			}
		],
		 "valence_orbital": [ 
			{
				"type": "occ",
				"energy": -0.30959,
				"method": "rhf"
			},
			{
				"type": "occ",
				"energy": -0.30575,
				"method": "rhf"
			},
			{
				"type": "occ",
				"energy": -0.27852,
				"method": "rhf"
			},
			{
				"type": "occ",
				"energy": -0.26575,
				"method": "rhf"
			},
			{
				"type": "occ",
				"energy": -0.23627,
				"method": "rhf"
			},
			{
				"type": "unocc",
				"energy": -0.02445,
				"method": "rhf"
			},
			{
				"type": "unocc",
				"energy": -0.0153,
				"method": "rhf"
			},
			{
				"type": "unocc",
				"energy": -0.00228,
				"method": "rhf"
			},
			{
				"type": "unocc",
				"energy": 0.02592,
				"method": "rhf"
			},
			{
				"type": "unocc",
				"energy": 0.05059,
				"method": "rhf"
			}
		],
		"cosmo_sigma_profile": { 
			"-0.025": 0.0,
			"-0.024": 0.0,
			"-0.023": 0.0,
			"-0.022": 0.0,
			"-0.021": 0.0,
			"-0.02": 0.0,
			"-0.019": 0.0,
			"-0.018": 0.0,
			"-0.017": 0.0,
			"-0.016": 0.0,
			"-0.015": 0.0,
			"-0.014": 0.00422021256217,
			"-0.013": 0.770350643506,
			"-0.012": 0.813673326071,
			"-0.011": 1.37135116429,
			"-0.01": 2.22812325629,
			"-0.009": 5.76657221688,
			"-0.008": 7.58420930614,
			"-0.007": 9.30732861847,
			"-0.006": 10.4266931835,
			"-0.005": 8.71039400506,
			"-0.004": 8.96766711766,
			"-0.003": 12.8849740404,
			"-0.002": 32.131694261,
			"-0.001": 36.2752867048,
			"0.0": 37.4577116239,
			"0.001": 31.4603829479,
			"0.002": 19.5977936601,
			"0.003": 19.2562288125,
			"0.004": 14.3497083828,
			"0.005": 12.0579708819,
			"0.006": 3.27119329682,
			"0.007": 2.67049887332,
			"0.008": 2.41759633572,
			"0.009": 4.23410938672,
			"0.01": 4.9776343745,
			"0.011": 4.89093122934,
			"0.012": 4.56590834745,
			"0.013": 0.758981170372,
			"0.014": 0.0,
			"0.015": 0.0,
			"0.016": 0.0,
			"0.017": 0.0,
			"0.018": 0.0,
			"0.019": 0.0,
			"0.02": 0.0,
			"0.021": 0.0,
			"0.022": 0.0,
			"0.023": 0.0,
			"0.024": 0.0,
			"0.025": 0.0
		}
	}
}
